/*--------------------------------*- C++ -*----------------------------------*\
| =========                 |                                                 |
| \\      /  F ield         | OpenFOAM: The Open Source CFD Toolbox           |
|  \\    /   O peration     | Version:  2406                                  |
|   \\  /    A nd           | Website:  www.openfoam.com                      |
|    \\/     M anipulation  |                                                 |
\*---------------------------------------------------------------------------*/
FoamFile
{
    version     2.0;
    format      ascii;
    arch        "LSB;label=32;scalar=64";
    class       volScalarField;
    location    "40";
    object      nut;
}
// * * * * * * * * * * * * * * * * * * * * * * * * * * * * * * * * * * * * * //

dimensions      [0 2 -1 0 0 0 0];

internalField   nonuniform List<scalar> 
158064
(
9.666424e-07
9.4822032e-07
9.3294724e-07
9.2046757e-07
9.0981201e-07
9.0052151e-07
8.9250404e-07
8.8538483e-07
8.7923697e-07
8.7349557e-07
8.6839595e-07
8.6340843e-07
8.5897031e-07
8.5485128e-07
8.5102399e-07
8.4758278e-07
8.4460078e-07
8.4144445e-07
8.3927459e-07
8.3614109e-07
8.3476964e-07
8.3197786e-07
8.3084423e-07
8.2892596e-07
8.2809823e-07
8.2611569e-07
8.2492163e-07
8.2302415e-07
8.2220902e-07
8.1994557e-07
8.193009e-07
8.1759455e-07
8.1724133e-07
8.1618273e-07
8.1616325e-07
8.1583127e-07
8.1684414e-07
8.1595405e-07
8.1660054e-07
8.1753249e-07
8.1858356e-07
8.1854178e-07
8.1892509e-07
8.2000112e-07
8.2197814e-07
8.2126031e-07
8.2271005e-07
8.2236482e-07
8.2466462e-07
8.2674587e-07
8.2926773e-07
8.2909331e-07
8.3061334e-07
8.296967e-07
8.3075462e-07
8.3192897e-07
8.3514492e-07
8.3559553e-07
8.3569971e-07
8.356964e-07
8.3685519e-07
8.3683311e-07
8.3680279e-07
8.3788414e-07
8.4187449e-07
8.451402e-07
8.4966443e-07
8.5404223e-07
8.5852584e-07
8.658966e-07
8.832746e-07
8.9959815e-07
9.3370177e-07
9.571549e-07
1.0081244e-06
1.0434279e-06
1.0996304e-06
1.1844035e-06
1.2194696e-06
1.3000359e-06
1.3439763e-06
1.4348099e-06
1.4731986e-06
1.5398882e-06
1.6043416e-06
1.6563674e-06
1.7142929e-06
1.7736294e-06
1.9010018e-06
9.6666801e-07
9.4826702e-07
9.3301051e-07
9.2054645e-07
9.0988673e-07
9.006253e-07
8.9258628e-07
8.8551807e-07
8.7933398e-07
8.7366539e-07
8.6852489e-07
8.6363277e-07
8.5912049e-07
8.5508679e-07
8.5120763e-07
8.4783264e-07
8.4479238e-07
8.4169651e-07
8.395097e-07
8.3637577e-07
8.3505246e-07
8.3223289e-07
8.3112076e-07
8.2920099e-07
8.2840099e-07
8.2630354e-07
8.2534151e-07
8.2335589e-07
8.2250165e-07
8.2031986e-07
8.1954856e-07
8.179814e-07
8.1747261e-07
8.1654069e-07
8.1601702e-07
8.1580789e-07
8.1656127e-07
8.1576205e-07
8.163685e-07
8.1748994e-07
8.1797354e-07
8.1795743e-07
8.1787992e-07
8.192573e-07
8.2034265e-07
8.2015378e-07
8.2064756e-07
8.2141373e-07
8.233278e-07
8.2466143e-07
8.2604779e-07
8.2664555e-07
8.2771681e-07
8.2707419e-07
8.2827903e-07
8.2855559e-07
8.3016423e-07
8.3083899e-07
8.3195203e-07
8.3222954e-07
8.3193925e-07
8.3250578e-07
8.3282209e-07
8.3432368e-07
8.3716435e-07
8.3989391e-07
8.4381534e-07
8.4886363e-07
8.5287903e-07
8.6191743e-07
8.6688124e-07
8.7855633e-07
8.8615108e-07
9.0352088e-07
9.1510862e-07
9.3951481e-07
9.5885438e-07
1.0067676e-06
1.0346365e-06
1.0925377e-06
1.1281428e-06
1.1984467e-06
1.2603633e-06
1.3042527e-06
1.4132584e-06
1.4804679e-06
1.5736516e-06
1.6238699e-06
1.7449419e-06
9.6669178e-07
9.4831684e-07
9.3307137e-07
9.2062491e-07
9.099666e-07
9.0072932e-07
8.926668e-07
8.8562602e-07
8.7940274e-07
8.7376686e-07
8.6858191e-07
8.6372921e-07
8.591444e-07
8.551421e-07
8.5123198e-07
8.4784595e-07
8.4477832e-07
8.4169952e-07
8.3943813e-07
8.3629996e-07
8.3496327e-07
8.3211097e-07
8.3094415e-07
8.2903429e-07
8.2813341e-07
8.2598076e-07
8.2501644e-07
8.2310028e-07
8.2209694e-07
8.2016484e-07
8.1915072e-07
8.1765955e-07
8.1705183e-07
8.1611307e-07
8.1554052e-07
8.1560402e-07
8.1607583e-07
8.1518606e-07
8.1603898e-07
8.1710356e-07
8.1736896e-07
8.1720763e-07
8.1762314e-07
8.1888394e-07
8.1949516e-07
8.194852e-07
8.1981622e-07
8.2108944e-07
8.2243128e-07
8.2412437e-07
8.2453136e-07
8.254354e-07
8.267182e-07
8.2645101e-07
8.2705459e-07
8.2697143e-07
8.2864657e-07
8.2846287e-07
8.2963768e-07
8.2974659e-07
8.2974132e-07
8.2924947e-07
8.294946e-07
8.3024776e-07
8.3149788e-07
8.3299963e-07
8.3555629e-07
8.3817918e-07
8.4175753e-07
8.4678794e-07
8.5058412e-07
8.6114627e-07
8.6692138e-07
8.8212428e-07
8.9043911e-07
9.1098708e-07
9.2289311e-07
9.4815533e-07
9.6879737e-07
9.9843267e-07
1.0329076e-06
1.0632104e-06
1.1153464e-06
1.1445816e-06
1.2125076e-06
1.2611115e-06
1.357224e-06
1.4102451e-06
1.539128e-06
9.6672127e-07
9.4836974e-07
9.3314113e-07
9.2070801e-07
9.1004738e-07
9.0083308e-07
8.9274931e-07
8.8574792e-07
8.7949348e-07
8.7391448e-07
8.6868553e-07
8.6391926e-07
8.5926747e-07
8.553258e-07
8.5141512e-07
8.4804533e-07
8.4494218e-07
8.419797e-07
8.3961201e-07
8.3659215e-07
8.3521954e-07
8.3239911e-07
8.311896e-07
8.2952208e-07
8.2843696e-07
8.2634857e-07
8.2560486e-07
8.2381114e-07
8.2229067e-07
8.2077716e-07
8.1971337e-07
8.1815537e-07
8.1745615e-07
8.1647842e-07
8.1587578e-07
8.1598344e-07
8.1623101e-07
8.1555363e-07
8.1648632e-07
8.1729287e-07
8.1747728e-07
8.174357e-07
8.1800369e-07
8.1904172e-07
8.1917959e-07
8.1919447e-07
8.2020073e-07
8.2189412e-07
8.2300448e-07
8.2349556e-07
8.2405514e-07
8.2483128e-07
8.2597674e-07
8.2669981e-07
8.2700945e-07
8.2697988e-07
8.2698033e-07
8.2731991e-07
8.2799126e-07
8.2801606e-07
8.2832424e-07
8.2764396e-07
8.2775685e-07
8.2789398e-07
8.2936721e-07
8.2901872e-07
8.3097396e-07
8.3273515e-07
8.3641847e-07
8.3987886e-07
8.4429338e-07
8.4984111e-07
8.5562039e-07
8.6595957e-07
8.7198151e-07
8.796688e-07
8.9820766e-07
9.1138595e-07
9.3523193e-07
9.4855128e-07
9.7490745e-07
9.9372955e-07
1.0354767e-06
1.06006e-06
1.1086773e-06
1.1390262e-06
1.2033544e-06
1.2466827e-06
1.3637308e-06
9.6674422e-07
9.4841582e-07
9.3319968e-07
9.2078295e-07
9.1012473e-07
9.009342e-07
8.9283118e-07
8.8586246e-07
8.7957423e-07
8.7404033e-07
8.6875594e-07
8.6406108e-07
8.5932722e-07
8.5541914e-07
8.5148352e-07
8.4810583e-07
8.4494807e-07
8.42056e-07
8.3957234e-07
8.3662666e-07
8.3517862e-07
8.3239404e-07
8.3109282e-07
8.2949006e-07
8.2824259e-07
8.2615131e-07
8.2545647e-07
8.2371247e-07
8.2193751e-07
8.2068757e-07
8.1953771e-07
8.1793291e-07
8.1708931e-07
8.1620043e-07
8.1550942e-07
8.1580045e-07
8.1577431e-07
8.1546187e-07
8.1624518e-07
8.168665e-07
8.1693132e-07
8.1715601e-07
8.176693e-07
8.1851526e-07
8.1817973e-07
8.1874679e-07
8.2013851e-07
8.220227e-07
8.2219833e-07
8.2237081e-07
8.2281273e-07
8.2434853e-07
8.2545865e-07
8.263752e-07
8.2681313e-07
8.2668761e-07
8.2678412e-07
8.268158e-07
8.2716727e-07
8.2721984e-07
8.2691584e-07
8.269778e-07
8.2609096e-07
8.2632267e-07
8.2677023e-07
8.2731048e-07
8.2850828e-07
8.2958746e-07
8.3203108e-07
8.3461095e-07
8.377135e-07
8.4170244e-07
8.4695982e-07
8.5198764e-07
8.6194653e-07
8.6777282e-07
8.796966e-07
8.8860212e-07
9.0839482e-07
9.2170924e-07
9.4541915e-07
9.5776788e-07
9.8372323e-07
1.0019065e-06
1.0418277e-06
1.0665373e-06
1.1160334e-06
1.1442942e-06
1.2201556e-06
9.6677085e-07
9.4846441e-07
9.3326278e-07
9.2086031e-07
9.1019788e-07
9.0103135e-07
8.9290692e-07
8.8597141e-07
8.796513e-07
8.7416845e-07
8.6882862e-07
8.6422207e-07
8.5940299e-07
8.5556468e-07
8.5159769e-07
8.4825989e-07
8.450525e-07
8.4227672e-07
8.3963581e-07
8.3686882e-07
8.3530236e-07
8.3255315e-07
8.3119807e-07
8.2981497e-07
8.2832639e-07
8.2635743e-07
8.2582348e-07
8.2404649e-07
8.2212199e-07
8.213217e-07
8.1995861e-07
8.1816237e-07
8.1737395e-07
8.1666451e-07
8.1587549e-07
8.1617253e-07
8.158374e-07
8.1601875e-07
8.1648566e-07
8.1693271e-07
8.1708706e-07
8.1749464e-07
8.1789528e-07
8.1824814e-07
8.1786389e-07
8.1918591e-07
8.2095143e-07
8.2242907e-07
8.2180935e-07
8.2207293e-07
8.2278206e-07
8.2452396e-07
8.256579e-07
8.2617603e-07
8.263354e-07
8.2626401e-07
8.2656782e-07
8.2660579e-07
8.2673651e-07
8.2627022e-07
8.2596163e-07
8.2529438e-07
8.2535667e-07
8.247518e-07
8.2430433e-07
8.2516237e-07
8.2570957e-07
8.2684034e-07
8.279438e-07
8.3126925e-07
8.3336965e-07
8.3681945e-07
8.4147132e-07
8.4485862e-07
8.5139227e-07
8.5673126e-07
8.6679172e-07
8.7314185e-07
8.8741538e-07
8.9760371e-07
9.2047747e-07
9.345369e-07
9.5685588e-07
9.6772281e-07
9.930453e-07
1.0130805e-06
1.05786e-06
1.0834798e-06
1.1390488e-06
9.667926e-07
9.4850735e-07
9.3331829e-07
9.2093129e-07
9.1026969e-07
9.0112342e-07
8.9298364e-07
8.8607578e-07
8.7973021e-07
8.7428993e-07
8.6889969e-07
8.6437004e-07
8.5947845e-07
8.5569321e-07
8.5167556e-07
8.4837373e-07
8.4509682e-07
8.4239445e-07
8.3966032e-07
8.3701697e-07
8.3530617e-07
8.326231e-07
8.3124755e-07
8.2985084e-07
8.2823931e-07
8.2639707e-07
8.2590279e-07
8.2397226e-07
8.2202634e-07
8.2138148e-07
8.1988398e-07
8.1801591e-07
8.1720547e-07
8.1653923e-07
8.156337e-07
8.1596037e-07
8.1545254e-07
8.1596353e-07
8.1623244e-07
8.1671798e-07
8.1675124e-07
8.1734958e-07
8.1759058e-07
8.1784789e-07
8.1751208e-07
8.1916801e-07
8.2074181e-07
8.2213411e-07
8.2104535e-07
8.2147682e-07
8.2253834e-07
8.2444425e-07
8.2519167e-07
8.2557685e-07
8.2562235e-07
8.2576345e-07
8.2632608e-07
8.2643028e-07
8.26394e-07
8.2566113e-07
8.2524396e-07
8.2437546e-07
8.2383877e-07
8.2330884e-07
8.2302914e-07
8.23405e-07
8.2357051e-07
8.2471707e-07
8.2525001e-07
8.2687125e-07
8.2876044e-07
8.3165116e-07
8.353757e-07
8.3806378e-07
8.4442632e-07
8.4888237e-07
8.5808429e-07
8.6301584e-07
8.7371639e-07
8.8070933e-07
8.9772806e-07
9.1341334e-07
9.3718904e-07
9.4775241e-07
9.6750748e-07
9.8011637e-07
1.0104355e-06
1.0331886e-06
1.0811317e-06
9.6681654e-07
9.4855214e-07
9.3337557e-07
9.2100138e-07
9.1034048e-07
9.0121102e-07
8.9305889e-07
8.8617315e-07
8.7980561e-07
8.7440502e-07
8.6896771e-07
8.6450757e-07
8.5955154e-07
8.5581366e-07
8.5175035e-07
8.4851237e-07
8.4515304e-07
8.4257579e-07
8.39696e-07
8.3722887e-07
8.3534647e-07
8.3274779e-07
8.3135848e-07
8.2999868e-07
8.2823743e-07
8.2667604e-07
8.2610739e-07
8.2406071e-07
8.2223803e-07
8.2180998e-07
8.199097e-07
8.1818833e-07
8.1757101e-07
8.1699698e-07
8.1583251e-07
8.1626543e-07
8.1577977e-07
8.1650843e-07
8.163845e-07
8.1673045e-07
8.1672112e-07
8.173762e-07
8.1764189e-07
8.1789041e-07
8.17762e-07
8.1976226e-07
8.2081874e-07
8.2161936e-07
8.2053664e-07
8.2164922e-07
8.2314067e-07
8.2443782e-07
8.249827e-07
8.2509069e-07
8.2513959e-07
8.2556122e-07
8.2647824e-07
8.2671438e-07
8.2602402e-07
8.2542205e-07
8.2466255e-07
8.2415231e-07
8.2300224e-07
8.2218021e-07
8.2192391e-07
8.2195244e-07
8.2215014e-07
8.2248215e-07
8.2305963e-07
8.2434486e-07
8.2569471e-07
8.285642e-07
8.3067064e-07
8.3326895e-07
8.3783909e-07
8.4121656e-07
8.4950857e-07
8.5405481e-07
8.627787e-07
8.686279e-07
8.8205138e-07
8.9227173e-07
9.1660906e-07
9.3147589e-07
9.5198506e-07
9.6121162e-07
9.796497e-07
9.932634e-07
1.0292639e-06
9.668371e-07
9.4859224e-07
9.3342801e-07
9.2106638e-07
9.1040853e-07
9.0129273e-07
8.9313513e-07
8.8626293e-07
8.7988242e-07
8.7451496e-07
8.6903851e-07
8.6463495e-07
8.5964107e-07
8.5592874e-07
8.5182634e-07
8.4865241e-07
8.4519906e-07
8.4271187e-07
8.3972566e-07
8.3740666e-07
8.3532385e-07
8.3284088e-07
8.3139065e-07
8.3001342e-07
8.2825548e-07
8.2684024e-07
8.2602247e-07
8.2407688e-07
8.2231293e-07
8.2189395e-07
8.1977069e-07
8.1827225e-07
8.1752394e-07
8.1692763e-07
8.1560976e-07
8.16105e-07
8.1556039e-07
8.1639442e-07
8.1606523e-07
8.1640714e-07
8.163514e-07
8.1722433e-07
8.1741985e-07
8.1767197e-07
8.1751989e-07
8.1987582e-07
8.2043053e-07
8.2104195e-07
8.1993971e-07
8.2168722e-07
8.2337852e-07
8.2418286e-07
8.2429284e-07
8.2458221e-07
8.2459962e-07
8.2538874e-07
8.2627765e-07
8.2659719e-07
8.2535008e-07
8.2494373e-07
8.2387986e-07
8.2328584e-07
8.2233612e-07
8.2139046e-07
8.2111629e-07
8.2085365e-07
8.2091679e-07
8.2043426e-07
8.2079835e-07
8.2177364e-07
8.2166126e-07
8.2435754e-07
8.2592617e-07
8.2887184e-07
8.3252859e-07
8.3543599e-07
8.4164593e-07
8.4574159e-07
8.5400223e-07
8.6039475e-07
8.704849e-07
8.7878438e-07
8.9880376e-07
9.1368772e-07
9.3449452e-07
9.4346668e-07
9.5317009e-07
9.6162877e-07
9.8498028e-07
9.6685887e-07
9.4863298e-07
9.3348091e-07
9.2112996e-07
9.1047729e-07
9.0136984e-07
8.9321071e-07
8.8634595e-07
8.7995623e-07
8.7461709e-07
8.6910653e-07
8.6474734e-07
8.5972755e-07
8.5603667e-07
8.5187011e-07
8.4878791e-07
8.4523558e-07
8.4283473e-07
8.3978326e-07
8.3760582e-07
8.3531286e-07
8.330074e-07
8.3147216e-07
8.3012788e-07
8.2834241e-07
8.2703885e-07
8.26101e-07
8.2425324e-07
8.2248824e-07
8.2205293e-07
8.1987919e-07
8.1862364e-07
8.1767612e-07
8.170867e-07
8.1570131e-07
8.1640502e-07
8.1565588e-07
8.1659998e-07
8.1609133e-07
8.1674851e-07
8.1643414e-07
8.1753764e-07
8.1746119e-07
8.1796077e-07
8.1759649e-07
8.2039091e-07
8.1999798e-07
8.2065003e-07
8.1948441e-07
8.2183098e-07
8.2366425e-07
8.2423547e-07
8.2372312e-07
8.2415681e-07
8.2414314e-07
8.2573697e-07
8.2649345e-07
8.2648812e-07
8.2520689e-07
8.2434093e-07
8.2376377e-07
8.2289182e-07
8.2207547e-07
8.2096002e-07
8.2032565e-07
8.2008351e-07
8.1997005e-07
8.1938853e-07
8.1916394e-07
8.1914499e-07
8.1995927e-07
8.2105673e-07
8.2243288e-07
8.2570651e-07
8.2784746e-07
8.3013755e-07
8.3541629e-07
8.3876973e-07
8.467298e-07
8.5214029e-07
8.6315675e-07
8.7093126e-07
8.8042212e-07
8.892041e-07
9.1164803e-07
9.2475313e-07
9.4099114e-07
9.4850799e-07
9.616228e-07
9.668783e-07
9.4867036e-07
9.3353036e-07
9.2118871e-07
9.1054255e-07
9.0144211e-07
8.9328744e-07
8.8642439e-07
8.8003292e-07
8.7471449e-07
8.6918283e-07
8.6484697e-07
8.5982447e-07
8.5614927e-07
8.519072e-07
8.4895487e-07
8.4529343e-07
8.4294975e-07
8.3985017e-07
8.3773923e-07
8.3528031e-07
8.3314148e-07
8.3146834e-07
8.3019234e-07
8.2834695e-07
8.2714958e-07
8.2604055e-07
8.2434168e-07
8.2255644e-07
8.2209149e-07
8.1998062e-07
8.1873692e-07
8.1752315e-07
8.1702293e-07
8.1575338e-07
8.1634589e-07
8.1539073e-07
8.1639143e-07
8.1581754e-07
8.1658373e-07
8.1618896e-07
8.1726048e-07
8.1708792e-07
8.1767725e-07
8.1727787e-07
8.2031347e-07
8.1954813e-07
8.2028142e-07
8.1905636e-07
8.2180333e-07
8.2344518e-07
8.2417376e-07
8.2328535e-07
8.2356427e-07
8.2374398e-07
8.2552279e-07
8.2614873e-07
8.2605009e-07
8.2494768e-07
8.2399019e-07
8.2348592e-07
8.2250206e-07
8.2138021e-07
8.2014201e-07
8.1974042e-07
8.1918522e-07
8.1909489e-07
8.179587e-07
8.1779833e-07
8.1719054e-07
8.1747641e-07
8.1846484e-07
8.1947766e-07
8.2192133e-07
8.2388262e-07
8.2650922e-07
8.293073e-07
8.326152e-07
8.4076773e-07
8.4554595e-07
8.5618779e-07
8.6157683e-07
8.7029053e-07
8.7588072e-07
8.8986251e-07
9.00979e-07
9.2503887e-07
9.3785475e-07
9.5536561e-07
9.6689804e-07
9.4870751e-07
9.3357894e-07
9.2124715e-07
9.1060525e-07
9.0150979e-07
8.9336074e-07
8.8649508e-07
8.8010914e-07
8.7479942e-07
8.6926403e-07
8.6492776e-07
8.5992588e-07
8.5624868e-07
8.5192346e-07
8.4912887e-07
8.4533528e-07
8.4302128e-07
8.3991433e-07
8.3786984e-07
8.353094e-07
8.3331171e-07
8.3150195e-07
8.3030705e-07
8.284191e-07
8.2730955e-07
8.2606903e-07
8.2450925e-07
8.2273333e-07
8.2219674e-07
8.2010593e-07
8.1895646e-07
8.1753249e-07
8.1711375e-07
8.1598472e-07
8.164573e-07
8.1529605e-07
8.1657772e-07
8.1596254e-07
8.1672544e-07
8.1630841e-07
8.1752799e-07
8.1713145e-07
8.1783865e-07
8.1730891e-07
8.2036335e-07
8.1937119e-07
8.2017478e-07
8.1893552e-07
8.2191321e-07
8.2288799e-07
8.2383104e-07
8.2340909e-07
8.2337297e-07
8.2392324e-07
8.2527343e-07
8.2528088e-07
8.2536936e-07
8.2488054e-07
8.2409537e-07
8.2343399e-07
8.2231828e-07
8.2105348e-07
8.1955921e-07
8.1895329e-07
8.1821438e-07
8.1824984e-07
8.1674737e-07
8.1669509e-07
8.1571249e-07
8.1575822e-07
8.1669157e-07
8.1719238e-07
8.1853033e-07
8.2041085e-07
8.232028e-07
8.24755e-07
8.2763255e-07
8.3536799e-07
8.4077326e-07
8.4956053e-07
8.5319945e-07
8.6047942e-07
8.6736752e-07
8.8149489e-07
8.8921598e-07
9.0475985e-07
9.2028873e-07
9.3893925e-07
9.6691633e-07
9.4874236e-07
9.3362504e-07
9.2130248e-07
9.106686e-07
9.0157625e-07
8.9343409e-07
8.8656e-07
8.8018736e-07
8.7487093e-07
8.6935481e-07
8.6498959e-07
8.6003629e-07
8.5633314e-07
8.519494e-07
8.492799e-07
8.453765e-07
8.4309061e-07
8.3997968e-07
8.3797267e-07
8.3534194e-07
8.3342928e-07
8.3152597e-07
8.3038276e-07
8.2842066e-07
8.273803e-07
8.2603734e-07
8.2457946e-07
8.2280406e-07
8.222917e-07
8.2012042e-07
8.1894583e-07
8.1748237e-07
8.1707034e-07
8.160368e-07
8.162936e-07
8.1514505e-07
8.1636415e-07
8.1585309e-07
8.1635628e-07
8.1606273e-07
8.1734527e-07
8.1687437e-07
8.1740555e-07
8.1694382e-07
8.1997227e-07
8.1894686e-07
8.1966973e-07
8.1854322e-07
8.2144809e-07
8.2238588e-07
8.2333357e-07
8.2304272e-07
8.2294207e-07
8.2358125e-07
8.24868e-07
8.2447899e-07
8.2469981e-07
8.2438322e-07
8.2366439e-07
8.2302904e-07
8.2183408e-07
8.2057457e-07
8.1884738e-07
8.1821633e-07
8.1726804e-07
8.1707986e-07
8.1596303e-07
8.1526737e-07
8.1422857e-07
8.14074e-07
8.1467179e-07
8.1464874e-07
8.1523321e-07
8.1722193e-07
8.1980049e-07
8.2134059e-07
8.2414099e-07
8.3047116e-07
8.3523151e-07
8.4263046e-07
8.4649127e-07
8.5471362e-07
8.6006618e-07
8.7148087e-07
8.7859683e-07
8.9264659e-07
9.051074e-07
9.2057525e-07
9.6693428e-07
9.4877591e-07
9.336704e-07
9.213549e-07
9.1072798e-07
9.0163763e-07
8.9350604e-07
8.8662115e-07
8.8026833e-07
8.7493113e-07
8.6945534e-07
8.6503723e-07
8.601568e-07
8.5639142e-07
8.520117e-07
8.4941632e-07
8.454274e-07
8.4318299e-07
8.4005033e-07
8.3807186e-07
8.3541632e-07
8.3352138e-07
8.3157807e-07
8.304405e-07
8.2841381e-07
8.2743936e-07
8.2608307e-07
8.2459085e-07
8.2290515e-07
8.2243723e-07
8.2025847e-07
8.1901005e-07
8.1767674e-07
8.1715846e-07
8.1617241e-07
8.1618545e-07
8.1523118e-07
8.1633199e-07
8.1587302e-07
8.1621553e-07
8.1594027e-07
8.1736453e-07
8.1694064e-07
8.1751863e-07
8.1692514e-07
8.1955817e-07
8.1857222e-07
8.1955694e-07
8.1863731e-07
8.2124478e-07
8.218115e-07
8.2284054e-07
8.2228826e-07
8.2288554e-07
8.2376587e-07
8.2434406e-07
8.2363176e-07
8.2351231e-07
8.2352843e-07
8.2299693e-07
8.2264389e-07
8.2111452e-07
8.1963167e-07
8.1781756e-07
8.1721235e-07
8.1609337e-07
8.1575679e-07
8.1482391e-07
8.1360965e-07
8.1284048e-07
8.1249014e-07
8.1192886e-07
8.1263266e-07
8.124788e-07
8.145013e-07
8.1659824e-07
8.1864143e-07
8.2093302e-07
8.2615374e-07
8.3029386e-07
8.3761299e-07
8.413281e-07
8.4984488e-07
8.5465848e-07
8.6385214e-07
8.6971423e-07
8.8204086e-07
8.9289155e-07
9.1022879e-07
9.6695174e-07
9.4880798e-07
9.3371449e-07
9.2140289e-07
9.1078652e-07
9.0169346e-07
8.9357457e-07
8.8667795e-07
8.8034595e-07
8.7498353e-07
8.6955732e-07
8.6507164e-07
8.6026977e-07
8.5642835e-07
8.5209858e-07
8.494661e-07
8.4550811e-07
8.4325132e-07
8.4007263e-07
8.3814179e-07
8.3550016e-07
8.3355262e-07
8.3161014e-07
8.304678e-07
8.284002e-07
8.2745606e-07
8.2614469e-07
8.2451037e-07
8.2292765e-07
8.22424e-07
8.2027405e-07
8.1882745e-07
8.1763606e-07
8.1704317e-07
8.160156e-07
8.1575521e-07
8.1505993e-07
8.1594961e-07
8.1564506e-07
8.1582431e-07
8.1553754e-07
8.1695719e-07
8.1664431e-07
8.171589e-07
8.165448e-07
8.1881804e-07
8.1793283e-07
8.1887985e-07
8.1801503e-07
8.2053823e-07
8.2094401e-07
8.2170169e-07
8.2122915e-07
8.2193977e-07
8.2284845e-07
8.2313642e-07
8.2234487e-07
8.2220669e-07
8.2227703e-07
8.2171767e-07
8.2121944e-07
8.196152e-07
8.1805924e-07
8.1620895e-07
8.1551145e-07
8.1443305e-07
8.1385924e-07
8.1263107e-07
8.1172341e-07
8.1057824e-07
8.0972861e-07
8.0934865e-07
8.0976737e-07
8.0973167e-07
8.1056693e-07
8.1314628e-07
8.1542506e-07
8.1772509e-07
8.2208902e-07
8.2605501e-07
8.3189767e-07
8.3598768e-07
8.4473668e-07
8.4860367e-07
8.5684867e-07
8.6169717e-07
8.7167427e-07
8.7943982e-07
8.9816869e-07
9.6696834e-07
9.4883757e-07
9.3375783e-07
9.2144841e-07
9.1084732e-07
9.0174613e-07
8.9364221e-07
8.8672855e-07
8.8041996e-07
8.7502844e-07
8.6965405e-07
8.65102e-07
8.6037377e-07
8.5645426e-07
8.522042e-07
8.4945544e-07
8.4561432e-07
8.4326733e-07
8.4010474e-07
8.381526e-07
8.3558002e-07
8.3352102e-07
8.3164777e-07
8.3041457e-07
8.2841707e-07
8.2742913e-07
8.2627254e-07
8.2438195e-07
8.230159e-07
8.2231876e-07
8.2035701e-07
8.1865458e-07
8.1764055e-07
8.1695905e-07
8.1592543e-07
8.1542708e-07
8.1491602e-07
8.1561291e-07
8.1528968e-07
8.1542664e-07
8.1512956e-07
8.1626066e-07
8.1607424e-07
8.1677485e-07
8.16115e-07
8.1770925e-07
8.1693764e-07
8.1762717e-07
8.1690847e-07
8.1929962e-07
8.1953692e-07
8.2002756e-07
8.1935871e-07
8.2008446e-07
8.208247e-07
8.2095633e-07
8.2018127e-07
8.1987588e-07
8.199534e-07
8.1925156e-07
8.1856263e-07
8.1732228e-07
8.1538579e-07
8.1357305e-07
8.1247167e-07
8.1187745e-07
8.1076864e-07
8.0974438e-07
8.0849935e-07
8.073332e-07
8.0632071e-07
8.0641243e-07
8.0600129e-07
8.0619829e-07
8.066153e-07
8.0930691e-07
8.1162218e-07
8.1384642e-07
8.1766068e-07
8.2075025e-07
8.2553493e-07
8.3077428e-07
8.3765173e-07
8.4128529e-07
8.495743e-07
8.5510162e-07
8.6856958e-07
8.7665857e-07
8.920442e-07
9.6698542e-07
9.4886558e-07
9.3380211e-07
9.2148773e-07
9.1090758e-07
9.0179059e-07
8.9371057e-07
8.867717e-07
8.8049213e-07
8.7506372e-07
8.6974029e-07
8.6512718e-07
8.604599e-07
8.5646742e-07
8.5230483e-07
8.4939549e-07
8.457194e-07
8.432269e-07
8.4016233e-07
8.38096e-07
8.3563304e-07
8.3342394e-07
8.316335e-07
8.3022945e-07
8.284024e-07
8.2718821e-07
8.262683e-07
8.2404828e-07
8.2303573e-07
8.2197014e-07
8.2031328e-07
8.1829537e-07
8.1751349e-07
8.1652186e-07
8.1566156e-07
8.1483209e-07
8.1459398e-07
8.1480534e-07
8.1461547e-07
8.1446086e-07
8.1434015e-07
8.1507008e-07
8.148592e-07
8.1550363e-07
8.1478984e-07
8.1584592e-07
8.1528914e-07
8.1552968e-07
8.148537e-07
8.1688488e-07
8.1703354e-07
8.172569e-07
8.1649736e-07
8.170949e-07
8.1778602e-07
8.1728592e-07
8.1678089e-07
8.1597982e-07
8.1589674e-07
8.1533061e-07
8.1410362e-07
8.1328118e-07
8.1068011e-07
8.0926848e-07
8.0751234e-07
8.0688661e-07
8.0583423e-07
8.0489633e-07
8.0310571e-07
8.0216103e-07
8.009611e-07
8.0117413e-07
8.0037508e-07
8.0075334e-07
8.0142325e-07
8.0351802e-07
8.0560652e-07
8.0772158e-07
8.1148963e-07
8.1426936e-07
8.2005846e-07
8.2389843e-07
8.2991514e-07
8.3328135e-07
8.4124175e-07
8.4933292e-07
8.6338544e-07
8.7024044e-07
8.824626e-07
9.6700117e-07
9.4888955e-07
9.3384582e-07
9.215194e-07
9.1096998e-07
9.0182384e-07
8.9377792e-07
8.8680205e-07
8.8056271e-07
8.7508119e-07
8.6981236e-07
8.6513812e-07
8.6051811e-07
8.5645323e-07
8.5238353e-07
8.4928269e-07
8.4581229e-07
8.4309661e-07
8.4021501e-07
8.3791361e-07
8.3564811e-07
8.3324133e-07
8.3159413e-07
8.2991226e-07
8.2837471e-07
8.2676645e-07
8.2616277e-07
8.2351976e-07
8.2295859e-07
8.2130929e-07
8.2011104e-07
8.1760786e-07
8.1714347e-07
8.1556392e-07
8.1492892e-07
8.1360205e-07
8.1355449e-07
8.1325595e-07
8.1320478e-07
8.1260076e-07
8.1264772e-07
8.1294305e-07
8.1276606e-07
8.1311002e-07
8.1247563e-07
8.1276528e-07
8.121929e-07
8.1197829e-07
8.1146461e-07
8.1277033e-07
8.1291812e-07
8.1261417e-07
8.117586e-07
8.117807e-07
8.1248044e-07
8.1127716e-07
8.1081572e-07
8.099556e-07
8.0910497e-07
8.0859287e-07
8.0715837e-07
8.0615655e-07
8.035436e-07
8.016998e-07
8.0014453e-07
7.9899073e-07
7.9775686e-07
7.9688415e-07
7.9501345e-07
7.9413725e-07
7.9289468e-07
7.9259504e-07
7.9219088e-07
7.9227015e-07
7.9329996e-07
7.956997e-07
7.9743791e-07
7.9938058e-07
8.0284913e-07
8.0647733e-07
8.110765e-07
8.1490878e-07
8.214571e-07
8.2618369e-07
8.35463e-07
8.404061e-07
8.4968268e-07
8.57354e-07
8.7009575e-07
9.6701828e-07
9.4891151e-07
9.3389214e-07
9.2154314e-07
9.1103547e-07
9.0184167e-07
8.9384743e-07
8.8680927e-07
8.8062876e-07
8.7506727e-07
8.6985682e-07
8.6511601e-07
8.6052738e-07
8.5637743e-07
8.5240444e-07
8.4907846e-07
8.4583088e-07
8.4281887e-07
8.4020075e-07
8.3753419e-07
8.3551731e-07
8.3283383e-07
8.3137037e-07
8.2928586e-07
8.2818661e-07
8.2594273e-07
8.2576505e-07
8.2256298e-07
8.2241881e-07
8.2005082e-07
8.1930395e-07
8.1614347e-07
8.1593151e-07
8.1371065e-07
8.1329985e-07
8.1129576e-07
8.1157692e-07
8.1044645e-07
8.1059143e-07
8.0940658e-07
8.0961142e-07
8.0903104e-07
8.088345e-07
8.0878678e-07
8.0802088e-07
8.0746599e-07
8.0671019e-07
8.0593923e-07
8.0529599e-07
8.0592453e-07
8.0575235e-07
8.0475119e-07
8.0364029e-07
8.030888e-07
8.0319028e-07
8.0200585e-07
8.0066638e-07
7.9991898e-07
7.9854511e-07
7.9735232e-07
7.9595571e-07
7.9438556e-07
7.9197432e-07
7.8972383e-07
7.8796644e-07
7.8649037e-07
7.8559276e-07
7.8415362e-07
7.8237873e-07
7.8155465e-07
7.8009669e-07
7.7953089e-07
7.7950137e-07
7.7950887e-07
7.8077142e-07
7.829205e-07
7.8444503e-07
7.8667853e-07
7.8989778e-07
7.9392105e-07
7.9819533e-07
7.488908e-07
8.0747379e-07
7.0283409e-07
8.2216086e-07
6.9764128e-07
8.3575093e-07
8.389225e-07
8.5249809e-07
9.6703478e-07
9.4892755e-07
9.3393992e-07
9.2155443e-07
9.1110417e-07
9.0183578e-07
8.9391192e-07
8.8677692e-07
8.806784e-07
8.7499575e-07
8.6985296e-07
8.6502646e-07
8.6045096e-07
8.5618575e-07
8.5230354e-07
8.4870005e-07
8.4568099e-07
8.4226766e-07
8.3997938e-07
8.3677578e-07
8.3504687e-07
8.3191728e-07
8.3059376e-07
8.2802383e-07
8.2728553e-07
8.2435302e-07
8.2449511e-07
8.2060528e-07
8.2087086e-07
8.1759464e-07
8.1737595e-07
8.1332524e-07
8.1339848e-07
8.1017525e-07
8.1008511e-07
8.0718335e-07
8.0765309e-07
8.0544052e-07
8.056587e-07
8.0363857e-07
8.0382525e-07
8.0225943e-07
8.0184494e-07
8.0103603e-07
7.9984637e-07
7.9844989e-07
7.9738184e-07
7.9569151e-07
7.9457492e-07
7.9446699e-07
7.9389616e-07
7.9224279e-07
7.9068519e-07
7.8973864e-07
7.8884601e-07
7.8752995e-07
7.8552118e-07
7.8470885e-07
7.8289079e-07
7.8116829e-07
7.792512e-07
7.7755952e-07
7.7511376e-07
7.7249536e-07
7.7017463e-07
7.6864907e-07
7.6796723e-07
7.6622171e-07
7.6452755e-07
7.6326885e-07
7.6195241e-07
7.6139918e-07
7.6146545e-07
7.6148062e-07
7.6265809e-07
7.6420679e-07
7.6617853e-07
7.689058e-07
7.7167493e-07
7.757002e-07
7.2062986e-07
7.8206908e-07
5.125714e-07
7.9086596e-07
4.4368437e-07
7.0109568e-07
6.174638e-07
6.193614e-07
8.1003007e-07
9.6705368e-07
9.4893902e-07
9.3399181e-07
9.2154625e-07
9.1117269e-07
9.0179143e-07
8.9396153e-07
8.8667535e-07
8.8068297e-07
8.748101e-07
8.6973369e-07
8.6477419e-07
8.601828e-07
8.5572647e-07
8.5191517e-07
8.4792222e-07
8.4509525e-07
8.4115407e-07
8.3912698e-07
8.3525515e-07
8.3372867e-07
8.2997344e-07
8.2877535e-07
8.2547063e-07
8.2513733e-07
8.2114399e-07
8.2162525e-07
8.1679161e-07
8.1739062e-07
8.129534e-07
8.1313294e-07
8.079328e-07
8.0809812e-07
8.0372827e-07
8.0374673e-07
7.9969832e-07
8.0017442e-07
7.9669386e-07
7.9680732e-07
7.9375314e-07
7.9372335e-07
7.9113589e-07
7.9034481e-07
7.8869078e-07
7.8690897e-07
7.845958e-07
7.8286344e-07
7.8042519e-07
7.7860089e-07
7.7769568e-07
7.7661952e-07
7.7444901e-07
7.7205516e-07
7.7081654e-07
7.6906121e-07
7.6725131e-07
7.6502737e-07
7.6376993e-07
7.6143403e-07
7.5969079e-07
7.5723382e-07
7.5554583e-07
7.5258671e-07
7.5004787e-07
7.4734712e-07
7.4539992e-07
7.4461673e-07
7.4287644e-07
7.4121947e-07
7.3995714e-07
7.3817685e-07
7.3758105e-07
7.3774651e-07
7.3777847e-07
7.3839789e-07
7.3986474e-07
7.4237534e-07
7.4464148e-07
6.1719262e-07
7.5049224e-07
5.2274527e-07
7.5676812e-07
4.7556052e-07
5.8550175e-07
3.4670047e-07
5.8997331e-07
4.3653224e-07
6.0143839e-07
4.9761295e-07
9.6707207e-07
9.4893981e-07
9.3404198e-07
9.2150684e-07
9.1122792e-07
9.0167741e-07
8.939577e-07
8.8643549e-07
8.805613e-07
8.7437928e-07
8.6934525e-07
8.6414243e-07
8.5944848e-07
8.54637e-07
8.5078288e-07
8.4621084e-07
8.4348025e-07
8.3872099e-07
8.3692257e-07
8.3203614e-07
8.3065587e-07
8.2589373e-07
8.2468041e-07
8.2034882e-07
8.2024584e-07
8.1489014e-07
8.1547527e-07
8.09382e-07
8.1000696e-07
8.0427866e-07
8.0453745e-07
7.9804677e-07
7.9803133e-07
7.9237694e-07
7.9226193e-07
7.8692244e-07
7.8732053e-07
7.824207e-07
7.8229114e-07
7.7803192e-07
7.7770188e-07
7.7412611e-07
7.7276526e-07
7.7018426e-07
7.6784848e-07
7.646275e-07
7.6235123e-07
7.5927768e-07
7.5699676e-07
7.5497135e-07
7.5378853e-07
7.5099613e-07
7.4799731e-07
7.4640732e-07
7.4412509e-07
7.4171892e-07
7.3944172e-07
7.3744998e-07
7.3487742e-07
7.3276137e-07
7.3022908e-07
7.2828387e-07
7.2519483e-07
7.224474e-07
7.195111e-07
7.1726576e-07
7.1624009e-07
7.1427897e-07
7.1270877e-07
7.1163747e-07
7.0967622e-07
7.0894213e-07
7.0883394e-07
7.0901418e-07
7.0937881e-07
7.1112531e-07
7.1304572e-07
7.1521618e-07
6.5776399e-07
5.2434581e-07
5.9777063e-07
4.4360063e-07
7.2426403e-07
3.3351914e-07
4.6531429e-07
3.892021e-07
3.9947147e-07
6.3588567e-07
3.5733099e-07
9.6709293e-07
9.489279e-07
9.340857e-07
9.2141215e-07
9.112317e-07
9.0142097e-07
8.9379263e-07
8.8589058e-07
8.8008098e-07
8.733776e-07
8.6824005e-07
8.6254175e-07
8.5755113e-07
8.5207269e-07
8.4795151e-07
8.4240733e-07
8.3953047e-07
8.3353898e-07
8.3169121e-07
8.2538617e-07
8.2384433e-07
8.1764545e-07
8.1617207e-07
8.1051197e-07
8.1033514e-07
8.0344321e-07
8.0381637e-07
7.9632855e-07
7.966522e-07
7.89715e-07
7.8967539e-07
7.8179756e-07
7.8133332e-07
7.7461806e-07
7.7415602e-07
7.6769956e-07
7.6781005e-07
7.6187284e-07
7.6141962e-07
7.5632121e-07
7.5573388e-07
7.5151995e-07
7.4961745e-07
7.4650908e-07
7.4373709e-07
7.3976864e-07
7.3694947e-07
7.3333682e-07
7.3033035e-07
7.2744162e-07
7.2606881e-07
7.2267334e-07
7.1924614e-07
7.1705426e-07
7.142815e-07
7.1136664e-07
7.0848104e-07
7.0616823e-07
7.0320823e-07
7.003873e-07
6.9777801e-07
6.9564689e-07
6.9272754e-07
6.89094e-07
6.8584592e-07
6.8344117e-07
6.8173049e-07
6.7988635e-07
6.7818254e-07
6.7672045e-07
6.748647e-07
6.7398017e-07
6.7358426e-07
6.7352413e-07
6.7390219e-07
6.7570591e-07
6.7733096e-07
5.8684437e-07
6.8244367e-07
3.7779665e-07
6.8838673e-07
3.7035129e-07
6.947064e-07
3.0335166e-07
7.019456e-07
2.9640171e-07
4.4759428e-07
4.79511e-07
3.5800673e-07
9.6710857e-07
9.4888705e-07
9.340908e-07
9.2119692e-07
9.1107069e-07
9.0082888e-07
8.9316187e-07
8.8457676e-07
8.7860239e-07
8.7092781e-07
8.6534063e-07
8.5862856e-07
8.5288769e-07
8.4615897e-07
8.4127429e-07
8.3421659e-07
8.3075039e-07
8.2305843e-07
8.2077557e-07
8.1273346e-07
8.1069575e-07
8.0277146e-07
8.0084824e-07
7.9380912e-07
7.9335628e-07
7.8513527e-07
7.8507511e-07
7.7638748e-07
7.7617883e-07
7.6845987e-07
7.6787535e-07
7.5887422e-07
7.577824e-07
7.5017519e-07
7.4901989e-07
7.4190755e-07
7.4142409e-07
7.3488785e-07
7.3379729e-07
7.2814852e-07
7.2715837e-07
7.2244257e-07
7.1972372e-07
7.1610941e-07
7.1270021e-07
7.0785372e-07
7.0429036e-07