/*--------------------------------*- C++ -*----------------------------------*\
| =========                 |                                                 |
| \\      /  F ield         | OpenFOAM: The Open Source CFD Toolbox           |
|  \\    /   O peration     | Version:  2406                                  |
|   \\  /    A nd           | Website:  www.openfoam.com                      |
|    \\/     M anipulation  |                                                 |
\*---------------------------------------------------------------------------*/
FoamFile
{
    version     2.0;
    format      ascii;
    arch        "LSB;label=32;scalar=64";
    class       volScalarField;
    location    "40";
    object      p;
}
// * * * * * * * * * * * * * * * * * * * * * * * * * * * * * * * * * * * * * //

dimensions      [1 -1 -2 0 0 0 0];

internalField   nonuniform List<scalar> 
158064
(
1.0027853
1.0045238
1.0046975
1.0058627
1.0071847
1.0082938
1.0091922
1.0098421
1.0102177
1.010324
1.0102266
1.009965
1.0096133
1.0092231
1.0088509
1.0085249
1.0082641
1.0081194
1.0080714
1.0081199
1.0082053
1.0083405
1.0084742
1.0086909
1.0088754
1.0090485
1.009152
1.0094021
1.0095198
1.0100357
1.0099219
1.0098061
1.0101711
1.0100364
1.0108064
1.0112055
1.0111823
1.0111515
1.0116598
1.0117687
1.0116587
1.0121842
1.0126389
1.0135878
1.0141538
1.0145466
1.0147671
1.0135051
1.0133328
1.0146008
1.0153442
1.0148786
1.0153152
1.0139331
1.0123864
1.0133765
1.014865
1.0150191
1.0154413
1.0164539
1.0159159
1.0153942
1.015386
1.0145582
1.0145453
1.0153253
1.0162579
1.0158923
1.0165494
1.0162845
1.0161871
1.0167268
1.0172286
1.0164696
1.0176222
1.0152231
1.0179906
1.0187605
1.0189044
1.0173444
1.0167631
1.0181277
1.0188121
1.0177525
1.0175144
1.0186353
1.0179664
1.0161216
1.0175234
1.002782
1.0045215
1.0046932
1.0058525
1.0071744
1.008294
1.0091965
1.0098544
1.0102441
1.0103599
1.0102636
1.0100228
1.0096662
1.0092873
1.0089049
1.0085713
1.0083092
1.0081472
1.0080893
1.0081287
1.0082154
1.0083348
1.0085125
1.0087313
1.0089118
1.0090443
1.0092575
1.0093731
1.0095371
1.0097
1.0099909
1.0100483
1.01025
1.0105957
1.0107764
1.0110504
1.0114044
1.0115891
1.0118587
1.0121994
1.0124342
1.0127731
1.012716
1.0128683
1.0131726
1.0131523
1.0134042
1.0141077
1.0138678
1.0133588
1.0131838
1.014093
1.0137875
1.0150415
1.014816
1.014582
1.0148011
1.0147326
1.0150175
1.0147896
1.0154251
1.0155142
1.014979
1.0160179
1.0155972
1.0156375
1.0157466
1.0156204
1.0164006
1.0163447
1.0162167
1.0163189
1.0159896
1.0168786
1.0161063
1.0183774
1.0160387
1.0161922
1.0167605
1.0165608
1.0172133
1.0163984
1.0164498
1.0169748
1.016414
1.0156917
1.0158167
1.0154705
1.0161728
1.0027799
1.0045178
1.0046906
1.005851
1.0071761
1.0083014
1.0092099
1.009877
1.010273
1.0103991
1.0103073
1.0100661
1.0097167
1.0093304
1.0089447
1.0086162
1.008353
1.0081849
1.0081163
1.0081549
1.0082527
1.0083726
1.0085562
1.0087701
1.0089534
1.0091125
1.0091848
1.0093142
1.0097499
1.0098936
1.0098836
1.0100902
1.0101658
1.0103625
1.0107207
1.011034
1.0111392
1.011615
1.0119737
1.0121943
1.0124081
1.0125608
1.0129178
1.0131963
1.0131613
1.0137505
1.0138055
1.0135341
1.0141518
1.0145622
1.0139588
1.0140159
1.0141581
1.0141634
1.0142449
1.0144593
1.0150725
1.0153257
1.0150196
1.0149404
1.0146858
1.0148147
1.0152403
1.0150607
1.0156677
1.0158308
1.0158558
1.0156177
1.0162356
1.0162011
1.0161914
1.016408
1.0164613
1.0166676
1.016738
1.0169091
1.0159911
1.0175536
1.016233
1.0176814
1.0170999
1.0170789
1.017901
1.0160893
1.0173885
1.0170082
1.0162203
1.0166766
1.0168685
1.0027762
1.004516
1.0046893
1.0058452
1.0071721
1.0083017
1.0092162
1.0098929
1.0102976
1.0104321
1.0103486
1.0101051
1.0097557
1.009377
1.0089955
1.0086605
1.0083892
1.0082156
1.0081418
1.0081805
1.0082539
1.008356
1.0085354
1.0087494
1.0089167
1.0091
1.0092441
1.0094522
1.0096334
1.0097593
1.0098762
1.0100423
1.0103341
1.0105178
1.0107131
1.0111321
1.0113797
1.0114995
1.0116577
1.012159
1.0123712
1.0128411
1.0129553
1.0130758
1.0134612
1.0134809
1.0137992
1.014164
1.0137877
1.0138023
1.0143622
1.0138068
1.0142277
1.0146146
1.0145387
1.0147876
1.0143615
1.0143582
1.0152284
1.0150131
1.0153959
1.0151885
1.0149783
1.0155988
1.0152825
1.0151438
1.0156068
1.0159156
1.0160178
1.0159349
1.0160337
1.0158311
1.0164594
1.0160493
1.0176095
1.0156972
1.0173339
1.016122
1.0166426
1.0169407
1.0162053
1.0177626
1.0160973
1.0173316
1.0168741
1.0158524
1.0169055
1.0165223
1.0162188
1.0027743
1.0045127
1.0046863
1.0058414
1.0071722
1.0083049
1.0092278
1.0099132
1.010325
1.0104675
1.0103906
1.0101512
1.0098037
1.0094232
1.0090292
1.0086851
1.0084137
1.0082317
1.0081753
1.0082028
1.0083009
1.0084385
1.0086122
1.0088551
1.009006
1.0091378
1.0092826
1.0094904
1.009657
1.0099163
1.0100696
1.010189
1.0103086
1.0106516
1.0109659
1.0111244
1.0113828
1.0115736
1.0118579
1.0121254
1.0122673
1.0127024
1.012742
1.0129301
1.0133213
1.0134476
1.0137912
1.0136753
1.0138548
1.0136638
1.0135921
1.0143923
1.0141967
1.0144657
1.0146483
1.0147082
1.0152234
1.0147215
1.0148927
1.0153169
1.0149363
1.0153664
1.0151935
1.0154768
1.0151707
1.0152702
1.0157257
1.0156351
1.0157231
1.0158527
1.015588
1.0165409
1.0153252
1.0166334
1.0158267
1.0165227
1.0169484
1.0161784
1.0164673
1.0168574
1.0166011
1.0170611
1.016437
1.0165417
1.0161007
1.0164176
1.0168505
1.0157626
1.0168405
1.0027713
1.0045105
1.0046853
1.0058398
1.0071677
1.0083071
1.0092389
1.0099299
1.0103508
1.0105016
1.0104295
1.0101958
1.009847
1.0094644
1.0090805
1.0087488
1.0084761
1.008287
1.0081912
1.0082038
1.0082725
1.0083851
1.0085298
1.0087468
1.0089611
1.0091203
1.0092623
1.0094298
1.0096766
1.0098699
1.009981
1.0099595
1.0100876
1.0104683
1.010831
1.0111365
1.0113725
1.0117128
1.0119578
1.0120934
1.0125512
1.0126261
1.0130426
1.0132337
1.0132435
1.0136048
1.0139757
1.0136529
1.0139981
1.0142782
1.014167
1.0142368
1.014394
1.0146338
1.0144525
1.0144934
1.0146761
1.0151162
1.0151808
1.0150616
1.0149873
1.0148033
1.0151769
1.0153049
1.0151573
1.015697
1.0155678
1.0154669
1.015684
1.0157028
1.0157959
1.016258
1.0156195
1.0166004
1.0153052
1.0169179
1.0154499
1.0161916
1.0171636
1.0155046
1.0163541
1.017122
1.0168436
1.0161626
1.0164295
1.0169943
1.0160478
1.0155964
1.0168278
1.0027693
1.0045078
1.0046827
1.0058385
1.0071665
1.0083097
1.0092471
1.0099436
1.010375
1.0105303
1.0104615
1.0102372
1.0098942
1.0095165
1.0091234
1.0087743
1.0084734
1.008284
1.0082133
1.0082593
1.0083437
1.0084891
1.0086405
1.0088738
1.0090541
1.0091846
1.0093426
1.0094898
1.0097963
1.0099516
1.0101448
1.0102015
1.0104042
1.0106049
1.0107765
1.011045
1.011268
1.0115994
1.0117534
1.0121587
1.0123845
1.0125897
1.0129042
1.0132052
1.0131089
1.0134013
1.0134791
1.0138925
1.0138992
1.0142039
1.0144693
1.0142411
1.0143642
1.014543
1.0144249
1.0148193
1.0148696
1.0147007
1.0151896
1.0151588
1.0151471
1.0148732
1.0149218
1.0151806
1.0149729
1.0156803
1.0155374
1.0155743
1.0154696
1.0154651
1.0162158
1.0154424
1.0164382
1.0153572
1.0164239
1.0159141
1.0161018
1.0162159
1.0170434
1.0153748
1.0166053
1.0163562
1.0156369
1.0163953
1.0168401
1.0164148
1.015346
1.0168494
1.0170326
1.0027667
1.0045059
1.004681
1.0058348
1.0071665
1.0083126
1.0092537
1.0099603
1.0103976
1.0105606
1.010498
1.0102678
1.0099259
1.0095369
1.0091513
1.0088139
1.008541
1.0083446
1.0082608
1.0082562
1.0083168
1.0084392
1.0086081
1.0088166
1.0090127
1.0091758
1.009295
1.0094808
1.0097179
1.0098182
1.0098979
1.0101384
1.010395
1.0105671
1.0107904
1.0110597
1.0114399
1.0116828
1.0119828
1.0123481
1.0122155
1.0125837
1.0127567
1.0130805
1.0133972
1.0135623
1.0136304
1.0141253
1.0141144
1.0141192
1.0137654
1.014114
1.0142726
1.0140254
1.0144737
1.0144502
1.014685
1.0147956
1.0147856
1.0150712
1.0153591
1.0150488
1.0154114
1.0151409
1.0147687
1.0153912
1.0150574
1.0156187
1.0155187
1.0154617
1.0158482
1.0156713
1.0160813
1.0154564
1.0164152
1.0158152
1.0164254
1.0167201
1.0158396
1.0157313
1.0174021
1.0158404
1.0160271
1.0170352
1.016587
1.0161906
1.0160319
1.0172869
1.0170024
1.0027648
1.0045036
1.0046787
1.0058328
1.0071626
1.0083145
1.0092629
1.0099704
1.0104166
1.0105893
1.0105285
1.0103094
1.009969
1.0095976
1.0092109
1.0088674
1.008576
1.0083669
1.0082545
1.0082917
1.0083413
1.008442
1.008597
1.0088168
1.0090218
1.0092264
1.0093062
1.0095116
1.0097949
1.0100022
1.0100367
1.0102096
1.0103863
1.010583
1.0108394
1.0111085
1.011476
1.0116638
1.0119523
1.0121095
1.0121964
1.0127592
1.0129523
1.0129689
1.0132742
1.0134527
1.0138793
1.0137684
1.0142676
1.0143741
1.0140775
1.0143232
1.0144565
1.0144636
1.0148312
1.0147797
1.0144439
1.0147635
1.0148645
1.0150117
1.0150347
1.0148771
1.0153505
1.0155176
1.0150073
1.0154923
1.0149167
1.015327
1.0153048
1.0156096
1.0153387
1.0161243
1.015402
1.0161572
1.0154399
1.01616
1.0162844
1.0164955
1.0158363
1.0169281
1.0169501
1.0156492
1.0173334
1.0170697
1.0160387
1.0158122
1.0165257
1.01721
1.0157961
1.0027626
1.004502
1.0046765
1.005831
1.0071638
1.0083176
1.0092662
1.0099811
1.0104315
1.0106075
1.0105563
1.0103381
1.0100012
1.0096183
1.0092181
1.0088588
1.0085609
1.0083436
1.008292
1.0082988
1.0083844
1.0084994
1.0086802
1.0088834
1.0090711
1.0092441
1.0093606
1.0095343
1.0097646
1.0099644
1.010021
1.0101642
1.0103726
1.010562
1.0107874
1.0111662
1.0113966
1.0115821
1.0117866
1.0121427
1.0122471
1.0127617
1.0130068
1.0132815
1.013316
1.0135095
1.013818
1.0136283
1.0138185
1.0137663
1.0140777
1.01408
1.0141919
1.0147493
1.0144234
1.0148235
1.0148464
1.0146241
1.0148439
1.0148238
1.0144911
1.0147608
1.0147377
1.0154893
1.0151261
1.0155192
1.0153534
1.015296
1.0154268
1.0154799
1.0153006
1.0157573
1.015659
1.0163058
1.015337
1.0155342
1.0163819
1.0158525
1.0161133
1.0167852
1.0156549
1.0158503
1.0166658
1.0156888
1.0162257
1.0163554
1.0162171
1.0161095
1.0153587
1.0027608
1.0044998
1.0046747
1.0058254
1.0071623
1.0083199
1.0092765
1.0099959
1.0104525
1.0106342
1.0105887
1.0103712
1.0100408
1.0096676
1.0092687
1.00892
1.0086424
1.0084487
1.008323
1.0083148
1.0083642
1.0084772
1.008633
1.0088477
1.0090388
1.0091733
1.0093278
1.009497
1.009776
1.0100289
1.0102018
1.0102248
1.0104658
1.0106667
1.010886
1.0111343
1.0113216
1.0116165
1.0117928
1.0121928
1.0123831
1.0124945
1.0126817
1.0131132
1.0132196
1.013603
1.0138358
1.0141107
1.0140974
1.0139957
1.0144494
1.01443
1.0143812
1.0144025
1.0141262
1.0145104
1.0149385
1.0147569
1.0148005
1.0151324
1.0148623
1.0149277
1.0147221
1.0148865
1.0150324
1.015401
1.0156546
1.0152593
1.0156641
1.0153959
1.0153407
1.0153751
1.0159656
1.0159548
1.0154188
1.0159899
1.0158997
1.0155853
1.0165428
1.0156152
1.015806
1.0167053
1.0159016
1.0146297
1.0165024
1.0175808
1.0166425
1.0154123
1.0153778
1.0027589
1.0044978
1.0046727
1.0058244
1.0071548
1.0083159
1.0092775
1.0100042
1.0104662
1.0106552
1.0106134
1.0104008
1.0100655
1.0096858
1.0092909
1.0089621
1.0086528
1.0084054
1.008308
1.0083323
1.0083952
1.0085058
1.0086343
1.0088833
1.0090652
1.0092094
1.0093792
1.0095497
1.0097869
1.0099429
1.010065
1.0101951
1.0103286
1.0104685
1.0107854
1.0109135
1.0112467
1.011642
1.0118709
1.0121832
1.012428
1.0124813
1.0127686
1.013218
1.0133881
1.0135743
1.0137379
1.0141342
1.01402
1.0140443
1.0140373
1.0142346
1.0145633
1.0141245
1.0144305
1.0142137
1.0143185
1.0146593
1.0150091
1.015139
1.0152513
1.0149526
1.0151412
1.0148249
1.0150351
1.0148005
1.0154678
1.0152205
1.0157286
1.0156084
1.0152667
1.0155049
1.0157792
1.0158887
1.0155295
1.016582
1.015103
1.0158897
1.0167742
1.0154675
1.0164602
1.0166189
1.0157437
1.0153385
1.0163
1.0164788
1.0161412
1.0163916
1.0161833
1.0027571
1.0044955
1.0046704
1.0058235
1.0071609
1.0083208
1.0092829
1.0100111
1.0104779
1.0106708
1.0106355
1.0104268
1.0100956
1.009717
1.0093215
1.0089414
1.0086507
1.0084404
1.008342
1.0083269
1.0083813
1.0084983
1.0086494
1.0088796
1.0091066
1.0092587
1.0094168
1.0095729
1.0098814
1.009984
1.0100379
1.0101927
1.0103686
1.0106172
1.0108437
1.0110429
1.0113936
1.0117277
1.0120179
1.012227
1.012513
1.0126629
1.0128339
1.0128915
1.0132756
1.0133872
1.0138224
1.0138583
1.0138495
1.014083
1.0139279
1.0141355
1.0144402
1.0138929
1.0143266
1.0143281
1.0139995
1.0144046
1.014708
1.01476
1.0150737
1.0151308
1.0152786
1.0148764
1.0152405
1.0147855
1.0151625
1.0151703
1.015429
1.0156055
1.015444
1.0156254
1.0157408
1.0154222
1.0161065
1.0164475
1.0152523
1.0161158
1.0161715
1.0162726
1.0161885
1.0157771
1.0157716
1.0168515
1.0167932
1.0148931
1.015284
1.0172196
1.0177551
1.0027553
1.0044933
1.0046693
1.0058212
1.0071568
1.0083213
1.0092894
1.0100229
1.0104937
1.0106905
1.0106594
1.0104554
1.0101288
1.0097511
1.0093483
1.0090049
1.0087023
1.0084859
1.0083771
1.0083624
1.0084069
1.0085193
1.0086709
1.0088526
1.0090377
1.0091884
1.009317
1.0094898
1.0098727
1.0100593
1.0102289
1.0103797
1.010673
1.0108299
1.010872
1.0111868
1.0115057
1.0116383
1.0118122
1.012067
1.012245
1.012516
1.0127721
1.0128109
1.0132585
1.0133974
1.0138642
1.0138964
1.0139903
1.0141976
1.0141692
1.0143006
1.0144732
1.0144322
1.0147395
1.014943
1.0146056
1.0145157
1.0142987
1.0147272
1.0146259
1.0151415
1.0151354
1.0148445
1.0153651
1.0151497
1.0150552
1.0153666
1.0154569
1.0152154
1.0156789
1.0154973
1.0158083
1.0149446
1.0164526
1.0157576
1.015884
1.0158331
1.0157514
1.0169669
1.0159827
1.0155213
1.016005
1.0165963
1.0161403
1.0153083
1.0158912
1.0162956
1.0164442
1.0027536
1.0044918
1.004667
1.0058144
1.00715
1.0083145
1.0092901
1.0100309
1.0105061
1.0107099
1.010682
1.0104756
1.0101438
1.0097705
1.0093682
1.0090268
1.0087312
1.0084891
1.0083787
1.00838
1.008442
1.0085645
1.0086926
1.0089184
1.0090741
1.0092197
1.0093279
1.0095398
1.0098145
1.0100082
1.0101696
1.0102791
1.0105038
1.0105483
1.0105886
1.0109358
1.011236
1.0115362
1.0119394
1.0123262
1.0124278
1.012812
1.0130494
1.0131287
1.0135602
1.013808
1.0139704
1.013905
1.0139698
1.0140514
1.0142413
1.0142879
1.0141906
1.0146695
1.0147735
1.0148386
1.01486
1.0149297
1.0147577
1.0150159
1.0142879
1.014641
1.0147324
1.0148583
1.0151907
1.0154418
1.0150588
1.0155831
1.0156643
1.0149919
1.0156814
1.0155271
1.0155106
1.0152406
1.0161517
1.0153347
1.0164626
1.0158012
1.015658
1.0164434
1.0157858
1.0159721
1.0166507
1.0154075
1.0151497
1.0162376
1.0173615
1.016131
1.0146801
1.002752
1.0044901
1.0046646
1.0058161
1.0071531
1.0083179
1.009293
1.0100333
1.010515
1.0107269
1.0107022
1.0104988
1.0101676
1.009792
1.0093997
1.0090353
1.0087379
1.0084963
1.0083868
1.0083482
1.0084259
1.0085038
1.0086646
1.0088901
1.00914
1.0093468
1.0094518
1.0096605
1.0098186
1.0100128
1.0100648
1.010225
1.0103824
1.0104784
1.0106417
1.0110259
1.0112304
1.0114903
1.0118331
1.0121136
1.0121963
1.0124454
1.0126599
1.0129441
1.0132342
1.0136254
1.0137463
1.013766
1.0141654
1.0141451
1.0144527
1.0140061
1.0141393
1.0143069
1.014176
1.0143453
1.0146129
1.0146472
1.0148393
1.0150012
1.014474
1.0148112
1.014642
1.0147862
1.0150683
1.0155697
1.0150106
1.0156548
1.0155289
1.0151803
1.0155183
1.0156488
1.0150875
1.0158498
1.0155511
1.0154498
1.016299
1.0162452
1.0159962
1.0152095
1.0155472
1.0165295
1.0164222
1.0147816
1.0154833
1.016479
1.0170801
1.0163664
1.0153029
1.0027503
1.004488
1.004663
1.0058115
1.0071477
1.0083169
1.0092967
1.0100384
1.0105241
1.0107416
1.0107221
1.010525
1.0102004
1.0098223
1.0094224
1.009053
1.0087387
1.0085152
1.0083984
1.0083821
1.008397
1.0084775
1.0086099
1.0087989
1.0090427
1.0092421
1.009384
1.0095668
1.0098454
1.0100217
1.0100903
1.0103376
1.0104577
1.0106169
1.0108978
1.0112433
1.0115119
1.011754
1.0119881
1.0121427
1.0123275
1.0125614
1.012731
1.0130329
1.0131125
1.013541
1.0137116
1.0136483
1.0139439
1.0137619
1.014221
1.0139646
1.0144406
1.0142422
1.0141159
1.0142836
1.0145265
1.0144227
1.0147314
1.0149611
1.0148625
1.0151136
1.0148819
1.0149009
1.015067
1.0152878
1.014815
1.0157665
1.0151975
1.0153932
1.0154974
1.0155138
1.0150398
1.0160339
1.0151691
1.0158998
1.0159279
1.016262
1.0162256
1.0146009
1.0157807
1.0167622
1.0153248
1.0149654
1.0170121
1.016598
1.0154161
1.015273
1.0160477
1.0027489
1.0044859
1.0046604
1.005807
1.0071441
1.0083154
1.009296
1.0100467
1.0105344
1.0107539
1.0107379
1.0105411
1.0102188
1.009841
1.0094393
1.0090749
1.0087701
1.0085398
1.0084141
1.0084217
1.0084448
1.0085658
1.0086988
1.0088899
1.0090493
1.0091867
1.0093077
1.0094565
1.0098292
1.0100776
1.0101375
1.0103028
1.0104073
1.0106567
1.0109214
1.0111276
1.011418
1.0116931
1.0118192
1.0119898
1.012332
1.0125944
1.0128596
1.0132167
1.013274
1.0135806
1.0139051
1.0138911
1.0139281
1.0140182
1.0141293
1.0140371
1.0146303
1.0141418
1.0141621
1.0142729
1.0141856
1.0141438
1.0145894
1.0149128
1.0149856
1.015296
1.0152422
1.0150252
1.0152565
1.0150365
1.0145795
1.0156082
1.0150938
1.0153622
1.0155403
1.015345
1.0153381
1.015602
1.0151562
1.0162092
1.0158772
1.0159033
1.0157152
1.0150588
1.0163882
1.0163762
1.0146768
1.0157983
1.0179342
1.0169607
1.0152162
1.0146017
1.0157616
1.0027471
1.0044839
1.0046579
1.0058025
1.0071384
1.0083121
1.0092989
1.0100515
1.0105459
1.010764
1.010751
1.01055
1.0102297
1.0098536
1.0094549
1.0090941
1.0087946
1.0085397
1.0084282
1.0084112
1.0084782
1.0086015
1.0087621
1.0089708
1.0091372
1.0092871
1.0094152
1.0095267
1.0098554
1.0100611
1.0102074
1.0103498
1.0104788
1.0106458
1.0107313
1.0109063
1.011232
1.0115505
1.0116922
1.0119755
1.0122396
1.0124365
1.012771
1.0129929
1.0132183
1.0134126
1.0137621
1.0140443
1.0140692
1.0142572
1.014091
1.0142323
1.014585
1.0140578
1.0142525
1.0145265
1.0144734
1.0145392
1.0146118
1.0146959
1.0147472
1.0151286
1.0154987
1.0149498
1.0151516
1.0150482
1.0148868
1.0151755
1.0151619
1.0151112
1.0154508
1.0152264
1.0156431
1.0151233
1.0152025
1.0162119
1.0158299
1.0156344
1.014975
1.0161038
1.0166685
1.015317
1.0148293
1.0168324
1.0173528
1.0160967
1.0160186
1.0156043
1.0158962
1.0027458
1.0044824
1.0046562
1.0058026
1.0071367
1.0083116
1.0092948
1.0100521
1.0105519
1.0107752
1.0107653
1.0105662
1.0102462
1.0098704
1.0094735
1.0091102
1.0088023
1.0085621
1.0084322
1.008392
1.0084377
1.0085303
1.0086724
1.0088816
1.0091174
1.0093323
1.0094539
1.0095707
1.0098724
1.0100779
1.0102702
1.0103941
1.0105896
1.0106909
1.0108182
1.0109788
1.0112907
1.0116178
1.0118657
1.0121139
1.012482
1.0125318
1.0128208
1.0129175
1.0133286
1.0135264
1.0136761
1.0139864
1.0140969
1.0141315
1.0140811
1.0142886
1.0143857
1.0141694
1.014198
1.0145484
1.0147599
1.0149603
1.014761
1.0146219
1.0145669
1.0147114
1.0152226
1.0150652
1.0149826
1.0150011
1.0153874
1.0147986
1.0153037
1.0149374
1.0151768
1.015211
1.0156805
1.0149591
1.0152386
1.0161573
1.0155704
1.0154431
1.0149085
1.016806
1.016387
1.0145147
1.0152751
1.017472
1.0162534
1.0146288
1.0159874
1.016552
1.0165868
1.002744
1.0044808
1.0046557
1.0057973
1.0071333
1.0083095
1.0092955
1.0100539
1.0105559
1.0107847
1.0107777
1.0105883
1.0102676
1.009888
1.0094891
1.0091253
1.0088181
1.0085806
1.0084352
1.0083958
1.0084074
1.0084923
1.0085965
1.0088
1.0090333
1.0092427
1.0093334
1.0095256
1.0098254
1.0099913
1.0101971
1.0102893
1.0105243
1.0106514
1.0108437
1.0110555
1.0113523
1.0115999
1.0119431
1.0121612
1.0124831
1.0126035
1.0129135
1.0129403
1.0134066
1.0136719
1.0137077
1.0139296
1.0140819
1.0138675
1.0141225
1.0143988
1.0141892
1.0144624
1.0141836
1.014366
1.0146049
1.0147913
1.0148982
1.0149115
1.0147426
1.0146066
1.0147597
1.0151859
1.0149235
1.0148516
1.0156666
1.0147853
1.0153309
1.0149325
1.0149672
1.015178
1.0154927
1.0150935
1.0153334
1.015933
1.0153561
1.0151989
1.0156509
1.0169273
1.015559
1.0145378
1.0160243
1.0172471
1.0156165
1.014252
1.0155771
1.0163987
1.0169824
1.0027427
1.0044795
1.0046526
1.0057958
1.0071324
1.00831
1.0092974
1.0100561
1.0105597
1.0107903
1.0107875
1.0106038
1.0102833
1.0099055
1.0095033
1.009135
1.0088252
1.0085754
1.0084381
1.0084124
1.0084384
1.0085291
1.0086459
1.0088611
1.0090305
1.009179
1.0093079
1.0095568
1.0098131
1.0099129
1.010078
1.0102756
1.010461
1.0105634
1.0107484
1.0110116
1.0112966
1.0115068
1.0118825
1.012045
1.0123428
1.0125252
1.0127589
1.0129546
1.0132546
1.013609
1.0137928
1.013939
1.0140599
1.0138768
1.0140482
1.0143772
1.0141143
1.0144984
1.0142568
1.0143391
1.0143957
1.0144183
1.0148608
1.0150601
1.0148549
1.0148739
1.014597
1.0152304
1.0150357
1.0146966
1.0156074
1.0149855
1.0152229
1.0149507
1.0149393
1.0151789
1.0152121
1.0153019
1.0154678
1.0156135
1.0152476
1.0151134
1.0164846
1.0164299
1.0147797
1.015195
1.0167653
1.0162739
1.0150808
1.0151914
1.0161294
1.0158738
1.0163009
1.002741
1.0044778
1.0046526
1.0057921
1.0071288
1.0083071
1.0092945
1.0100594
1.010565
1.0107964
1.0107951
1.0106081
1.0102927
1.0099194
1.0095181
1.0091454
1.0088268
1.0085737
1.0084398
1.0084241
1.0084791
1.0085848
1.0087283
1.0089495
1.0091099
1.0092439
1.0093613
1.0096452
1.0098654
1.0100231
1.0101239
1.0104513
1.0105742
1.0106443
1.0107798
1.011018
1.0112627
1.0115351
1.0119137
1.0120312
1.0123069
1.0125444
1.0127172
1.0130459
1.0131745
1.0135465
1.0139261
1.0139118
1.0139541
1.0139364
1.0140923
1.0141467
1.0140598
1.014305
1.0141463
1.0142998
1.0143023
1.0141998
1.0147615
1.0148982
1.0147739
1.0150564
1.0146142
1.0150428
1.0150037
1.0146554
1.0152082
1.0151099
1.0151243
1.0150252
1.0151061
1.0151745
1.0149379
1.0154391
1.0155722
1.0153307
1.0151973
1.0154231
1.0168159
1.0155558
1.0143985
1.0160311
1.0170688
1.0151542
1.0144707
1.0162415
1.0172507
1.0159827
1.0150282
1.0027397
1.0044768
1.0046505
1.0057872
1.0071229
1.0083015
1.0092943
1.0100611
1.0105682
1.0108009
1.010802
1.0106116
1.0103013
1.0099303
1.0095317
1.0091638
1.0088474
1.0085926
1.0084623
1.0084302
1.0084761
1.0085778
1.0087211
1.0089379
1.0091394
1.0092932
1.0093989
1.0096114
1.0098585
1.0101254
1.0102222
1.0105532
1.0106465
1.010717
1.0108163
1.0110464
1.0112999
1.0115912
1.0119059
1.0121778
1.0123224
1.0125891
1.0127956
1.0131245
1.013226
1.0135237
1.0140138
1.013966
1.0138349
1.0140791
1.0141695
1.0140185
1.0141315
1.0140572
1.0141085
1.0143125
1.0144649
1.0142491
1.0147285
1.014684
1.0146941
1.0150182
1.0147134
1.0149276
1.0148303
1.0146152
1.0147928
1.015095
1.0150295
1.0150939
1.0153357
1.0151938
1.0147603
1.0154554
1.015627
1.0150782
1.0151184
1.0160038
1.0166184
1.0147629
1.0145934
1.0165385
1.0167587
1.0145397
1.0142708
1.016663
1.0176905
1.0163524
1.0145075
1.002738
1.0044754
1.0046496
1.0057861
1.0071206
1.0083003
1.0092964
1.0100602
1.0105694
1.0108052
1.0108095
1.0106211
1.010312
1.0099384
1.0095391
1.0091855
1.008874
1.0086205
1.0084849
1.0084283
1.0084595
1.0085364
1.0086567
1.0088628
1.0090985
1.0092399
1.0093752
1.0095189
1.0098376
1.0101251
1.0102381
1.0104165
1.0105421
1.0107279
1.0107908
1.0110908
1.0113335
1.011627
1.0117885
1.0121359
1.0122495
1.0125455
1.0127887
1.0131048
1.0132006
1.0134203
1.0139442
1.0140098
1.013701
1.014117
1.0143377
1.0141058
1.0141458
1.0138627
1.0142915
1.0143609
1.0146719
1.0145048
1.0148359
1.0145253
1.0148663
1.0148695
1.0148997
1.0150368
1.0148053
1.0146532
1.01465
1.0150562
1.0149091
1.0151009
1.0154455
1.015249
1.0147508
1.0154128
1.015675
1.0148868
1.015073
1.0165175
1.0160525
1.0144314
1.015235
1.0165196
1.0159739
1.0144109
1.0149964
1.0169274
1.0169851
1.0161526
1.015002
1.0027367
1.0044743
1.00465
1.0057858
1.0071194
1.0082959
1.0092915
1.0100584
1.0105704
1.0108093
1.0108175
1.0106367
1.0103258
1.0099479
1.0095448
1.0091972
1.0088867
1.0086312
1.0084883
1.0084263
1.0084594
1.0085184
1.0086275
1.0088259
1.0090634
1.0091865
1.0093413
1.0094937
1.0098262
1.010075
1.0101772
1.010223
1.0104057
1.0106834
1.0107173
1.0110023
1.0112376
1.0115982
1.0117119
1.0119764
1.0121451
1.0124765
1.0127637
1.0129543
1.0131414
1.0133997
1.0138003
1.0140145
1.0136816
1.0141206
1.014366
1.0141542
1.0141906
1.0138384
1.0143762
1.0143323
1.0146647
1.0148025
1.0149708
1.0143886
1.0150406
1.0147911
1.014991
1.0152544
1.0149522
1.0148811
1.014764
1.0150744
1.0147705
1.0150454
1.0153567
1.0152968
1.0148853
1.0152726
1.0156659
1.0149067
1.0150375
1.0165347
1.0154516
1.0146265
1.0160371
1.0163181
1.0149566
1.0145548
1.0162496
1.0174029
1.0159422
1.0150918
1.0156446
1.0027351
1.0044736
1.0046461
1.0057805
1.0071128
1.0082922
1.0092901
1.0100574
1.0105719
1.0108128
1.0108219
1.0106481
1.0103353
1.0099592
1.0095558
1.0091924
1.0088781
1.0086162
1.0084722
1.0084268
1.0084608
1.008537
1.008653
1.0088451
1.0090675
1.009204
1.0093436
1.0095228
1.0098388
1.0100346
1.0101474
1.0101631
1.0103739
1.0106003
1.0106983
1.0109421
1.0112131
1.0115936
1.0117371
1.0119312
1.0121322
1.0125169
1.0128208
1.0128762
1.013149
1.0134033
1.0136997
1.01398
1.0138548
1.0140551
1.0141664
1.0140814
1.0141522
1.0138788
1.0142739
1.0141314
1.0144631
1.0148904
1.0150134
1.0143845
1.0150051
1.0147529
1.0149315
1.0153668
1.0151604
1.0151362
1.0149395
1.0151061
1.0146743
1.0149265
1.0151582
1.015253
1.0151698
1.0151623
1.0154955
1.0151365
1.0151843
1.0159695
1.0149507
1.0151886
1.0165937
1.0161297
1.0143198
1.0147754
1.0172024
1.0178474
1.0152414
1.0140599
1.0156507
1.002734
1.0044714
1.0046469
1.0057731
1.0071103
1.0082909
1.0092899
1.0100565
1.0105718
1.0108162
1.0108279
1.0106535
1.0103426
1.0099698
1.0095684
1.0091859
1.0088714
1.0086031
1.0084633
1.0084256
1.0084482
1.0085362
1.0086687
1.008863
1.0090826
1.0092325
1.0093823
1.0095478
1.009866
1.0100171
1.0101483
1.0101984
1.0104269
1.0105316
1.010701
1.0109252
1.0112459
1.0115534
1.0118325
1.011949
1.0122359
1.0126173
1.0129943
1.0129678
1.0132723
1.0135717
1.0136008
1.013853
1.0140676
1.0140408
1.0139366
1.0140759
1.0141248
1.014008
1.0141983
1.0140151
1.0142246
1.0146919
1.0148682
1.0145498
1.0148328
1.014681
1.0147882
1.0152823
1.0152579
1.0152772
1.0150624
1.0151272
1.0147205
1.0148584
1.0149941
1.0151101
1.0154933
1.015204
1.0151358
1.0154057
1.0155469
1.0152302
1.0145939
1.0158632
1.0166924
1.0159373
1.0142477
1.015302
1.0173568
1.0175855
1.0150544
1.0139022
1.0154638
1.0027324
1.0044712
1.0046492
1.0057806
1.0071083
1.0082877
1.0092849
1.0100543
1.010571
1.0108176
1.0108317
1.0106524
1.0103436
1.0099767
1.0095786
1.0091922
1.0088782
1.0086078
1.0084718
1.0084352
1.0084445
1.008533
1.0086586
1.008852
1.0090809
1.0092463
1.0093889
1.0095302
1.0098656
1.009995
1.0101582
1.0102687
1.0105026
1.0105202
1.0107482
1.0109602
1.0112737
1.0114558
1.0118864
1.0119189
1.0123045
1.0126446
1.0130719
1.0130787
1.0134272
1.0137643
1.0135361
1.0136862
1.0142834
1.0141791
1.0138517
1.0141607
1.0141401
1.0142213
1.0142267
1.0140666
1.0141253
1.0144206
1.0145996
1.014742
1.0145756
1.0146819
1.0147061
1.0150543
1.0151671
1.015249
1.0150306
1.0151221
1.0149198
1.0148488
1.0149458
1.0149068
1.0156379
1.0153884
1.0147727
1.0155224
1.0160875
1.0146868
1.0143496
1.016351
1.0164811
1.0155255
1.0147223
1.0160865
1.0170951
1.0166355
1.0148863
1.0149025
1.0157813
1.0027316
1.0044691
1.0046413
1.0057707
1.0071016
1.0082823
1.0092799
1.0100521
1.0105712
1.0108202
1.0108366
1.0106563
1.0103503
1.0099811
1.0095832
1.0092111
1.0088973
1.0086308
1.0084898
1.0084469
1.0084558
1.0085421
1.0086576
1.00886
1.0090788
1.0092416
1.0093596
1.0095149
1.0098452
1.0099909
1.0101684
1.0103618
1.0105674
1.0105526
1.0107949
1.0109624
1.0112715
1.0113402
1.0118216
1.0118833
1.0122677
1.0125665
1.0129994
1.0131354
1.0134641
1.0138177
1.0135113
1.0135645
1.0144581
1.0143393
1.0138682
1.0143194
1.0141985
1.0144926
1.0142856
1.0142235
1.0140397
1.0142017
1.0143587
1.0148634
1.0144594
1.0147264
1.0147205
1.014801
1.0150264
1.0152086
1.0149476
1.0150115
1.015143
1.0149142
1.0149948
1.0147601
1.0155175
1.0155971
1.0146407
1.0155047
1.0164393
1.0146457
1.0142739
1.0164241
1.0161052
1.0150196
1.015225
1.0169415
1.0168195
1.0153126
1.0146577
1.0161493
1.0169821
1.0027298
1.0044686
1.0046421
1.0057636
1.0070964
1.00828
1.0092774
1.0100502
1.0105693
1.010821
1.0108392
1.0106585
1.0103545
1.0099839
1.0095841
1.0092318
1.0089176
1.0086568
1.0085038
1.008453
1.0084751
1.008561
1.0086654
1.0088762
1.009079
1.0092346
1.0093184
1.0094882
1.0098149
1.0099864
1.010155
1.0104257
1.0105921
1.0105865
1.0108151
1.0109511
1.0112221
1.0112454
1.0116859
1.0117856
1.0121569
1.0123864
1.0127851
1.013103
1.013349
1.0136429
1.0135729
1.0136371
1.0144913
1.014367
1.0139968
1.0144805
1.0142943
1.0146303
1.0142965
1.0143588
1.0139821
1.0141315
1.0142931
1.0148559
1.0144579
1.014761
1.0147867
1.0146238
1.0149189
1.0151959
1.014939
1.0148472
1.0151915
1.014996
1.0150708
1.0147029
1.015248
1.0155981
1.0147841
1.015343
1.0163655
1.0149974
1.0144676
1.0161585
1.0157534
1.0146677
1.0155184
1.0174158
1.0168317
1.0145897
1.0144275
1.0167991
1.0179862
1.0027294
1.0044667
1.0046492
1.0057681
1.0070963
1.0082786
1.0092764
1.010049
1.0105689
1.0108232
1.010843
1.0106643
1.010361
1.0099894
1.009587
1.0092424
1.0089258
1.0086684
1.0085069
1.0084524
1.0084803
1.0085715
1.008674
1.0088826
1.0090791
1.0092263
1.0093056
1.0094763
1.0098114
1.0100211
1.0101428
1.0104251
1.0105701
1.0106228
1.0108144
1.0109529
1.0111757
1.011271
1.0116444
1.0117695
1.0121116
1.0122931
1.0126611
1.0130914
1.0132903
1.0134214
1.0136177
1.0138286
1.0143019
1.0142078
1.0141226
1.0144511
1.0143471
1.0145365
1.0142193
1.0143856
1.0140004
1.0142932
1.0144075
1.0148089
1.0144932
1.0147634
1.0148532
1.0145857
1.0148426
1.0151702
1.0150251
1.0147519
1.0150643
1.0150377
1.0150875
1.014829
1.0149929
1.0153786
1.0151106
1.0153126
1.0158754
1.0153679
1.0150774
1.0157405
1.0154533
1.0146756
1.0157025
1.0171936
1.0167584
1.0148206
1.0146167
1.0166865
1.0178581
1.0027271
1.0044663
1.0046379
1.0057671
1.0070926
1.0082731
1.0092715
1.0100443
1.0105663
1.0108227
1.0108444
1.0106691
1.0103665
1.0099956
1.0095944
1.0092402
1.0089204
1.0086628
1.0084992
1.0084466
1.0084699
1.0085591
1.0086673
1.0088616
1.0090622
1.0092222
1.0093188
1.0094708
1.0097955
1.0100482
1.0101407
1.0103652
1.0104937
1.0106415
1.0108019
1.0109361
1.0111577
1.0114182
1.0116561
1.0118543
1.012112
1.0123257
1.0126681
1.0131331
1.0132529
1.0132872
1.0135821
1.0139794
1.013976
1.0139359
1.0141461
1.0142777
1.0142601
1.014206
1.0140442
1.0143002
1.0141645
1.0146152
1.0146688
1.0147598
1.0146066
1.014657
1.0148884
1.014693
1.0148242
1.0150128
1.0150973
1.014779
1.0148471
1.0150189
1.0150238
1.0150533
1.0148428
1.0150092
1.0153987
1.0154567
1.0152684
1.0154884
1.0158662
1.0153811
1.0150152
1.0149932
1.0159215
1.0164837
1.016215
1.0155802
1.0155808
1.0162814
1.0166171
1.0027276
1.0044664
1.0046347
1.0057626
1.0070889