/*--------------------------------*- C++ -*----------------------------------*\
| =========                 |                                                 |
| \\      /  F ield         | OpenFOAM: The Open Source CFD Toolbox           |
|  \\    /   O peration     | Version:  2406                                  |
|   \\  /    A nd           | Website:  www.openfoam.com                      |
|    \\/     M anipulation  |                                                 |
\*---------------------------------------------------------------------------*/
FoamFile
{
    version     2.0;
    format      ascii;
    arch        "LSB;label=32;scalar=64";
    class       volScalarField;
    location    "40";
    object      rho;
}
// * * * * * * * * * * * * * * * * * * * * * * * * * * * * * * * * * * * * * //

dimensions      [1 -3 0 0 0 0 0];

internalField   nonuniform List<scalar> 
158064
(
1.0016888
1.0033578
1.0032737
1.0040807
1.0050109
1.0058038
1.0064488
1.00692
1.0071915
1.0072776
1.0072099
1.0070322
1.0067711
1.0065084
1.0062395
1.0060369
1.0058426
1.005782
1.0057179
1.0057788
1.0058081
1.0059217
1.0059922
1.0061688
1.0062717
1.0064249
1.0064653
1.0066682
1.0067093
1.0070991
1.0069632
1.0069439
1.0071453
1.0071127
1.0076623
1.0079727
1.0079165
1.0079756
1.0083374
1.0084288
1.0083435
1.0087661
1.0090863
1.0097893
1.0101085
1.0104027
1.0104516
1.0095323
1.0094407
1.0103985
1.0108315
1.010468
1.0107346
1.0097444
1.0087294
1.0095266
1.0105919
1.0106764
1.0109975
1.011686
1.0112327
1.0108875
1.0108524
1.0103078
1.0104166
1.0109294
1.0116198
1.0113864
1.0118417
1.0116443
1.0116241
1.0120246
1.0123674
1.0118736
1.0126935
1.0110341
1.0132212
1.0137069
1.0137565
1.0127122
1.012325
1.0134411
1.0138324
1.0130922
1.0131036
1.0138038
1.0133153
1.0120742
1.0130299
1.0016852
1.0033551
1.0032714
1.0040739
1.0050036
1.0058038
1.0064514
1.0069289
1.0072099
1.0073019
1.0072355
1.0070716
1.0068082
1.0065531
1.0062754
1.006069
1.0058744
1.0057998
1.0057271
1.0057818
1.0058125
1.005918
1.0060171
1.006196
1.0062961
1.0064218
1.0065335
1.0066419
1.0067125
1.0068671
1.0070262
1.0070905
1.0072089
1.0074987
1.0075982
1.0078588
1.0080958
1.0082775
1.0084432
1.0087383
1.0088787
1.0091505
1.0090762
1.0092128
1.0093833
1.0093796
1.0095185
1.0100172
1.0097636
1.0094118
1.0092612
1.0099269
1.0096963
1.0106111
1.0103631
1.0102184
1.0103626
1.0103652
1.0105589
1.0104523
1.0108993
1.0109777
1.0106001
1.0113401
1.0110041
1.0110834
1.0111699
1.0111032
1.011648
1.0116216
1.0115341
1.0116222
1.0114204
1.0120643
1.011557
1.0131643
1.0115401
1.0116506
1.0121651
1.0119884
1.0125271
1.0119849
1.0120117
1.0125343
1.0120864
1.0115988
1.0117979
1.0114954
1.0120163
1.0016839
1.0033519
1.0032695
1.0040726
1.0050051
1.0058089
1.0064615
1.0069448
1.0072314
1.0073295
1.0072669
1.0071025
1.006845
1.006584
1.0063047
1.0061015
1.0059066
1.005827
1.0057487
1.0058025
1.0058405
1.0059458
1.0060493
1.0062238
1.0063269
1.0064684
1.0064821
1.0066104
1.0068762
1.0070007
1.0069483
1.0071339
1.0071447
1.0073405
1.0075793
1.0078503
1.0079054
1.0082948
1.0085351
1.0087289
1.0088634
1.0090083
1.0092348
1.0094479
1.0093777
1.0098117
1.0097807
1.009603
1.0100023
1.0102768
1.0097974
1.009858
1.009915
1.0099619
1.0100105
1.0102019
1.0106111
1.010811
1.0105659
1.0105442
1.010352
1.0104805
1.010761
1.0106799
1.011091
1.0112455
1.0112425
1.0110942
1.0115212
1.0115388
1.0115017
1.0117044
1.0116935
1.0119172
1.0118832
1.0121339
1.0114022
1.0125869
1.0116587
1.0127066
1.0123372
1.012353
1.0129589
1.0117364
1.0126645
1.0124972
1.0119434
1.0122361
1.0124981
1.0016806
1.0033499
1.0032691
1.0040688
1.0050025
1.0058095
1.006466
1.0069567
1.0072488
1.007353
1.0072958
1.0071296
1.0068724
1.006617
1.0063404
1.0061318
1.0059312
1.0058472
1.0057656
1.0058201
1.0058414
1.0059339
1.0060343
1.0062088
1.0063021
1.0064619
1.0065302
1.006704
1.0067903
1.006907
1.006942
1.0070947
1.0072701
1.0074409
1.007558
1.0079115
1.0080689
1.0082055
1.0083086
1.0087146
1.0088442
1.0092106
1.0092585
1.0093721
1.0095981
1.009615
1.0098036
1.0100549
1.0097153
1.0097588
1.0100935
1.0097209
1.0099956
1.0102748
1.0102014
1.010401
1.0100827
1.0101181
1.0107191
1.0105859
1.0108538
1.0107346
1.010582
1.0110391
1.0108167
1.0107586
1.0110647
1.0113173
1.0113639
1.0113453
1.0113867
1.0112787
1.0117314
1.0114405
1.012558
1.0112061
1.0123434
1.0115586
1.0118885
1.0121375
1.011651
1.0127477
1.0115969
1.0125036
1.0121977
1.0115389
1.0122525
1.0120648
1.0119229
1.0016793
1.0033471
1.0032671
1.0040661
1.0050028
1.0058117
1.0064749
1.0069712
1.007269
1.0073778
1.0073261
1.0071621
1.0069069
1.0066495
1.0063644
1.0061492
1.00595
1.0058594
1.0057919
1.0058382
1.0058759
1.0059925
1.006089
1.0062827
1.0063637
1.0064862
1.0065566
1.0067282
1.0068087
1.007022
1.0070838
1.0072011
1.00725
1.0075336
1.0077405
1.0079
1.0080674
1.0082576
1.0084421
1.0086723
1.0087566
1.0090987
1.0091082
1.0092601
1.0094982
1.009598
1.0097843
1.0097033
1.0097765
1.0096434
1.009572
1.0101425
1.0099632
1.0101885
1.010285
1.0103538
1.0107034
1.0103777
1.0104826
1.0108245
1.0105301
1.0108708
1.0107392
1.0109748
1.0107277
1.0108318
1.0111393
1.0111146
1.0111577
1.0112783
1.0110705
1.0117631
1.0109056
1.0118318
1.0113102
1.0117593
1.0121166
1.011547
1.0117583
1.0120783
1.0118678
1.012219
1.0117579
1.0119253
1.011563
1.0118099
1.012158
1.0114579
1.0121893
1.0016767
1.003345
1.0032667
1.0040652
1.0049998
1.0058135
1.0064828
1.0069835
1.0072874
1.0074022
1.0073538
1.0071937
1.0069376
1.0066787
1.0064009
1.0061942
1.0059928
1.0058957
1.0058003
1.0058366
1.0058542
1.0059542
1.0060305
1.0062076
1.0063336
1.0064751
1.0065452
1.0066892
1.0068305
1.0069865
1.0070203
1.0070304
1.0070949
1.0074062
1.0076484
1.0079109
1.0080717
1.0083586
1.0085229
1.008661
1.0089752
1.0090575
1.0093304
1.0094832
1.0094578
1.0097331
1.0099476
1.0097059
1.0099017
1.0100994
1.0099675
1.0100261
1.0101073
1.0102989
1.0101366
1.010204
1.010309
1.0106583
1.0106841
1.0106413
1.0105745
1.0104649
1.0107142
1.0108449
1.0107267
1.0111442
1.0110347
1.0109836
1.0111256
1.011172
1.0112015
1.0115921
1.0110829
1.0118521
1.0108682
1.0120856
1.011014
1.0115882
1.0122559
1.0111413
1.0117078
1.0122595
1.0121306
1.011611
1.0117487
1.012216
1.0115898
1.0112581
1.0121191
1.0016752
1.0033426
1.0032649
1.0040643
1.0049992
1.0058155
1.006489
1.0069933
1.0073051
1.0074223
1.0073766
1.0072229
1.0069719
1.0067162
1.0064317
1.0062114
1.0059923
1.005896
1.0058213
1.0058812
1.0059087
1.0060294
1.0061106
1.0062984
1.0064017
1.0065215
1.0066041
1.006726
1.0069142
1.0070435
1.0071435
1.0072079
1.0073205
1.0074944
1.0075984
1.0078349
1.0079817
1.0082557
1.0083612
1.008691
1.0088395
1.0090119
1.0092246
1.0094573
1.0093472
1.0095674
1.0095745
1.009874
1.009824
1.0100473
1.0101717
1.0100227
1.0100893
1.0102154
1.0101272
1.0104271
1.0104471
1.010344
1.0106847
1.0106926
1.0106843
1.0105247
1.0105425
1.0107316
1.0105895
1.0111302
1.0110074
1.0110711
1.0109702
1.0109909
1.0115147
1.0110016
1.0116747
1.0109611
1.011661
1.0113876
1.0114669
1.0115751
1.0121748
1.0109966
1.0118277
1.0117425
1.0112317
1.0117134
1.0120801
1.0118467
1.011029
1.0120236
1.0122449
1.0016729
1.0033408
1.0032639
1.0040618
1.0049994
1.0058177
1.0064939
1.0070055
1.0073214
1.0074443
1.007403
1.0072445
1.0069935
1.0067293
1.0064504
1.0062395
1.0060396
1.0059357
1.0058503
1.0058745
1.0058843
1.0059898
1.0060843
1.0062523
1.0063673
1.0065095
1.006569
1.0067203
1.0068639
1.0069532
1.0069695
1.0071635
1.0073176
1.0074695
1.0076156
1.0078514
1.0081131
1.0083358
1.0085412
1.0088353
1.0087333
1.0090208
1.0091347
1.0093824
1.0095778
1.0096845
1.0097045
1.0100517
1.0099959
1.0099851
1.0096835
1.0099293
1.0100134
1.0098552
1.0101566
1.0101586
1.0103167
1.0104206
1.0104047
1.0106266
1.0108213
1.0106293
1.0108975
1.0107286
1.010444
1.010912
1.0106525
1.0110806
1.0110064
1.0109829
1.0112637
1.0111339
1.0114526
1.0109808
1.0117077
1.0112767
1.0117062
1.011916
1.0113139
1.0112136
1.012452
1.0113942
1.0114263
1.0121909
1.0119269
1.0116468
1.011497
1.0123931
1.0122385
1.0016714
1.0033388
1.0032624
1.0040604
1.0049968
1.0058192
1.0065007
1.0070126
1.0073351
1.0074642
1.0074244
1.0072741
1.0070256
1.0067745
1.0064947
1.0062772
1.006066
1.0059542
1.0058495
1.0059023
1.0059081
1.0059984
1.0060834
1.0062596
1.0063837
1.0065517
1.0065809
1.0067444
1.0069193
1.0070779
1.0070676
1.0072061
1.0073091
1.007479
1.0076433
1.0078642
1.0081205
1.008303
1.008501
1.0086463
1.0087086
1.0091451
1.0092655
1.0092853
1.009477
1.0096178
1.0098822
1.0097859
1.0100955
1.0101644
1.0099257
1.0101055
1.010167
1.0101889
1.0104237
1.0104041
1.0101592
1.010407
1.0104715
1.010595
1.0106063
1.0105078
1.0108393
1.0109852
1.0106296
1.010984
1.0105712
1.0108759
1.0108514
1.0110906
1.0108859
1.0114596
1.0109465
1.011485
1.0110144
1.0115078
1.0115771
1.0118077
1.0113001
1.0120609
1.0121493
1.0111813
1.0123493
1.0122797
1.0115119
1.011282
1.0117956
1.0124148
1.0114516
1.0016695
1.0033373
1.0032609
1.0040594
1.0049982
1.0058216
1.0065035
1.0070206
1.007346
1.0074773
1.0074444
1.0072942
1.0070474
1.0067875
1.0064972
1.0062692
1.0060537
1.0059372
1.0058772
1.0059094
1.0059361
1.0060333
1.006137
1.0063003
1.0064143
1.0065572
1.0066198
1.0067619
1.0069066
1.0070581
1.0070596
1.0071804
1.0073012
1.0074576
1.0076083
1.00791
1.0080754
1.0082423
1.0083918
1.0086853
1.0087569
1.0091504
1.0093051
1.0095135
1.0095162
1.0096672
1.0098475
1.0096973
1.0097833
1.009742
1.0099189
1.0099188
1.0099668
1.0103777
1.0101281
1.0104246
1.0104223
1.0102899
1.0104447
1.0104573
1.0101997
1.0104252
1.0103944
1.0109404
1.0107164
1.0109999
1.0108857
1.010859
1.0109438
1.0109999
1.0108517
1.0112107
1.0111088
1.0116171
1.0108981
1.0110513
1.0116722
1.011339
1.0114581
1.0120222
1.011197
1.0112906
1.0119367
1.0112867
1.0116172
1.0117316
1.0116407
1.0116063
1.0110184
1.0016681
1.0033354
1.0032598
1.0040552
1.0049967
1.0058232
1.0065109
1.0070314
1.0073612
1.0074967
1.007468
1.0073179
1.0070758
1.0068226
1.0065339
1.0063122
1.0061136
1.0060117
1.0058956
1.0059147
1.0059216
1.0060189
1.0061058
1.0062726
1.0063876
1.0065012
1.0065929
1.0067236
1.0069037
1.0070992
1.0071952
1.0072241
1.0073702
1.0075283
1.0076704
1.0078855
1.0080166
1.008259
1.0083909
1.0087065
1.0088436
1.008951
1.0090862
1.0094029
1.009461
1.0097353
1.0098504
1.0100455
1.0099946
1.0099136
1.0101889
1.0101788
1.0101256
1.0101274
1.0099036
1.0102066
1.0105014
1.0103942
1.0104074
1.010681
1.0104839
1.0105547
1.0104116
1.0105318
1.0106249
1.0109082
1.011097
1.0108333
1.0111208
1.0109347
1.0108892
1.0109252
1.0113392
1.0113546
1.0109773
1.0113677
1.0113546
1.0110958
1.0117743
1.0112017
1.0112583
1.0119382
1.011427
1.0104631
1.0117746
1.0126203
1.0119923
1.0110833
1.010952
1.0016664
1.0033336
1.0032585
1.0040551
1.004992
1.0058206
1.0065117
1.0070373
1.0073708
1.0075113
1.0074852
1.007339
1.0070945
1.0068365
1.0065506
1.0063436
1.0061199
1.0059792
1.0058888
1.0059338
1.005947
1.0060389
1.0061099
1.0063011
1.0064159
1.0065359
1.0066432
1.0067738
1.0069244
1.0070411
1.0070943
1.0071891
1.0072624
1.0073795
1.0075936
1.0077226
1.007964
1.0082844
1.0084506
1.0087037
1.0088853
1.0089364
1.0091476
1.00948
1.0095822
1.0097024
1.0097927
1.0100667
1.0099502
1.0099481
1.0098891
1.0100074
1.0102165
1.0098984
1.0101163
1.0099738
1.0100497
1.0103045
1.0105602
1.010672
1.0107728
1.0105632
1.0106997
1.0105049
1.010645
1.0104798
1.0109573
1.0107926
1.0111588
1.0110847
1.0108399
1.0110089
1.0112128
1.0113025
1.0110413
1.0118076
1.0107888
1.011303
1.0119876
1.0110313
1.0117269
1.0119037
1.0112758
1.0109581
1.0116674
1.0118566
1.0116028
1.0117523
1.0116145
1.0016649
1.0033317
1.003257
1.0040542
1.0049965
1.0058244
1.0065161
1.0070424
1.0073795
1.0075226
1.0075013
1.007357
1.0071155
1.0068573
1.0065709
1.0063268
1.0061162
1.0060035
1.0059126
1.0059267
1.0059383
1.0060326
1.0061193
1.0062908
1.0064392
1.0065638
1.0066646
1.006788
1.0069944
1.0070708
1.0070894
1.0072031
1.0073069
1.0075014
1.0076522
1.0078148
1.0080655
1.0083416
1.0085506
1.0087302
1.0089444
1.0090753
1.0091937
1.0092499
1.0095018
1.0095789
1.0098661
1.0098799
1.0098346
1.0099781
1.0098382
1.0099712
1.0101563
1.0097727
1.010073
1.0100741
1.0098376
1.0101396
1.0103675
1.0103971
1.0106267
1.0106973
1.0107944
1.0105334
1.0107986
1.0104803
1.0107461
1.010758
1.0109386
1.0110753
1.0109589
1.011109
1.0111826
1.0109771
1.011431
1.0117369
1.0108607
1.0114844
1.0115403
1.0115629
1.0115742
1.0112994
1.0112359
1.0120431
1.0120695
1.0107189
1.0109092
1.0122661
1.0127644
1.0016633
1.0033299
1.0032564
1.0040528
1.0049934
1.0058245
1.0065207
1.0070511
1.007391
1.007537
1.0075189
1.0073773
1.0071394
1.0068791
1.0065913
1.0063717
1.0061554
1.0060364
1.005938
1.0059531
1.0059546
1.0060426
1.0061326
1.006269
1.006388
1.0065084
1.0065902
1.0067254
1.0069863
1.0071242
1.007222
1.0073333
1.0075224
1.0076427
1.0076656
1.0079038
1.0081404
1.0082693
1.0084028
1.0086091
1.0087439
1.0089626
1.0091404
1.0091756
1.0094785
1.0095809
1.0098885
1.009901
1.0099336
1.0100524
1.0099974
1.0100945
1.0101879
1.0101645
1.0103526
1.0105065
1.0102671
1.0102148
1.0100548
1.010364
1.0102804
1.0106811
1.0106943
1.0104962
1.010871
1.0107379
1.0106692
1.0109004
1.0109626
1.0107976
1.011121
1.0110182
1.011237
1.0106178
1.0116935
1.0112401
1.011278
1.0112991
1.0112213
1.0120989
1.0114426
1.0110909
1.0113983
1.0119062
1.0115993
1.0109647
1.0113712
1.0116606
1.0118079
1.0016618
1.0033285
1.0032548
1.0040481
1.004989
1.0058199
1.0065216
1.0070567
1.0074
1.0075509
1.0075351
1.0073917
1.0071517
1.006892
1.0066074
1.0063856
1.0061745
1.0060332
1.0059376
1.0059629
1.005982
1.006077
1.006154
1.0063218
1.0064227
1.0065383
1.0066026
1.00676
1.006943
1.0070847
1.007174
1.0072544
1.007397
1.0074333
1.0074534
1.0077194
1.0079435
1.0081846
1.0084877
1.0087927
1.0088782
1.0091776
1.0093526
1.0094178
1.0097217
1.0099022
1.0099852
1.0099255
1.0099329
1.0099655
1.0100582
1.0100786
1.0099852
1.010327
1.0103732
1.0104297
1.0104386
1.0104958
1.0103809
1.0105958
1.0100771
1.0103196
1.0103884
1.0104977
1.0107343
1.0109382
1.0106667
1.0110497
1.0111189
1.0106437
1.0111285
1.0110294
1.011038
1.0108067
1.0115094
1.010921
1.0116881
1.0112474
1.0111503
1.011776
1.0112872
1.011359
1.0119074
1.0110964
1.0108261
1.0115538
1.0124498
1.0116352
1.0105807
1.0016604
1.003327
1.0032533
1.0040495
1.0049914
1.0058227
1.0065237
1.0070586
1.0074064
1.0075629
1.0075495
1.0074072
1.0071694
1.006906
1.006631
1.0063897
1.0061805
1.006038
1.0059472
1.0059397
1.0059706
1.006031
1.0061314
1.0062932
1.0064662
1.006626
1.0066967
1.0068531
1.0069543
1.0070944
1.0071094
1.0072212
1.0073161
1.0073872
1.007496
1.0077937
1.0079504
1.0081626
1.0084201
1.0086461
1.0087162
1.0089163
1.0090714
1.0092683
1.0094695
1.009753
1.0098029
1.0098013
1.0100548
1.0100276
1.010227
1.0098774
1.0099526
1.0100668
1.0099517
1.0100734
1.0102632
1.0102922
1.0104318
1.0105693
1.0102067
1.0104477
1.0103264
1.0104439
1.0106423
1.0110178
1.0106342
1.0111024
1.0110165
1.0107706
1.0110244
1.0111156
1.0107235
1.0112475
1.011088
1.0109846
1.0115995
1.0115405
1.0114049
1.0108942
1.011084
1.0117468
1.0117913
1.0106243
1.0110209
1.0117382
1.0122412
1.0117783
1.0110103
1.0016589
1.0033253
1.0032524
1.0040464
1.0049876
1.0058218
1.006527
1.0070624
1.0074133
1.0075736
1.007564
1.0074253
1.0071929
1.0069262
1.0066471
1.0063998
1.006182
1.0060475
1.0059585
1.005969
1.0059561
1.0060159
1.0060939
1.0062282
1.0063949
1.0065475
1.0066453
1.0067813
1.0069741
1.0071002
1.0071346
1.0073059
1.0073734
1.0074888
1.007678
1.0079413
1.0081439
1.0083401
1.00852
1.0086582
1.008807
1.0089986
1.0091309
1.0093496
1.0093921
1.0096876
1.0097982
1.0097341
1.0099092
1.0097534
1.010049
1.0098477
1.0101553
1.0099983
1.0099133
1.0100263
1.0102084
1.0101542
1.0103691
1.0105227
1.0104746
1.0106706
1.0104995
1.0105314
1.0106581
1.0108219
1.0104866
1.0111842
1.0107782
1.0109149
1.011016
1.0110273
1.0106666
1.0114054
1.0107941
1.0112969
1.0113389
1.0115656
1.0115916
1.0104153
1.0112082
1.0119766
1.0110206
1.0106574
1.0121153
1.0119295
1.0110836
1.0109439
1.0115343
1.0016576
1.0033235
1.0032506
1.0040432
1.0049854
1.0058209
1.0065264
1.0070685
1.007421
1.0075825
1.0075755
1.007437
1.0072066
1.0069383
1.0066587
1.0064136
1.0062048
1.0060622
1.0059681
1.0059915
1.005989
1.0060753
1.0061586
1.0062958
1.0064039
1.0065075
1.0065859
1.0066961
1.0069583
1.0071321
1.0071626
1.007275
1.007337
1.0075218
1.007705
1.007867
1.0080785
1.0083003
1.0084048
1.0085471
1.0088098
1.0090108
1.0092093
1.0094849
1.0095134
1.0097165
1.0099513
1.0099258
1.0099193
1.0099534
1.0100076
1.0099171
1.0102991
1.0099366
1.0099624
1.0100389
1.009975
1.009946
1.0102631
1.0104889
1.010549
1.0107962
1.0107641
1.0106122
1.0108072
1.0106563
1.0103198
1.0110619
1.0106994
1.0108851
1.0110422
1.0109136
1.0108643
1.0111114
1.0107662
1.0115098
1.0112994
1.0113327
1.0112348
1.0106961
1.0116461
1.0117692
1.01052
1.0111996
1.012801
1.0122326
1.0109555
1.0104454
1.0112864
1.001656
1.0033219
1.0032491
1.0040402
1.0049814
1.0058186
1.0065288
1.0070721
1.0074295
1.0075897
1.0075847
1.0074435
1.0072149
1.0069473
1.0066705
1.0064278
1.0062245
1.0060612
1.0059799
1.0059792
1.0060103
1.0060976
1.0062038
1.0063528
1.0064689
1.0065788
1.006665
1.0067491
1.0069807
1.0071255
1.007213
1.0073117
1.0073904
1.0075108
1.0075683
1.0077023
1.0079374
1.0081915
1.0083129
1.008536
1.0087435
1.0089028
1.0091518
1.0093173
1.0094748
1.0095917
1.0098278
1.0100329
1.0100199
1.0101305
1.0099829
1.0100565
1.0102894
1.0098933
1.0100155
1.0102252
1.0101865
1.0102265
1.0102945
1.0103575
1.0103801
1.0106639
1.0109517
1.0105689
1.0107227
1.010654
1.0105468
1.0107519
1.0107459
1.0107084
1.0109703
1.010819
1.011096
1.0107586
1.0108
1.011511
1.0112682
1.0111581
1.0106781
1.0114104
1.0118948
1.0110134
1.0105493
1.0119564
1.0124585
1.0115712
1.0114684
1.0111665
1.0113444
1.0016548
1.0033206
1.0032482
1.0040405
1.0049806
1.0058184
1.0065262
1.0070726
1.0074338
1.0075975
1.0075948
1.0074544
1.0072269
1.0069594
1.0066845
1.0064386
1.0062308
1.006076
1.0059851
1.0059675
1.0059857
1.0060505
1.0061416
1.0062861
1.006453
1.0066123
1.0066978
1.0067861
1.0069998
1.0071415
1.0072628
1.0073428
1.0074665
1.0075327
1.007619
1.0077395
1.0079724
1.0082287
1.0084295
1.0086295
1.0089143
1.0089717
1.009188
1.0092555
1.0095529
1.0096953
1.009768
1.0099778
1.0100437
1.0100329
1.0099633
1.0100833
1.0101332
1.0099804
1.0099621
1.0102233
1.0103772
1.0105319
1.0104078
1.0103135
1.0102702
1.0103673
1.0107474
1.0106557
1.0105951
1.0106101
1.0109094
1.01049
1.0108463
1.0106
1.0107736
1.0107894
1.0111483
1.0106265
1.0108268
1.0114916
1.0110776
1.0110237
1.0105882
1.0119267
1.0117464
1.0103759
1.0108201
1.0124777
1.0117433
1.010492
1.0113829
1.0118539
1.0119147
1.0016532
1.0033192
1.003248
1.0040368
1.0049783
1.005817
1.0065266
1.0070742
1.0074369
1.0076046
1.0076038
1.0074696
1.0072422
1.0069718
1.0066955
1.006447
1.0062413
1.0060881
1.0059882
1.005971
1.0059682
1.006027
1.0060896
1.006228
1.0063927
1.0065482
1.0066109
1.0067505
1.0069593
1.0070767
1.0072109
1.0072695
1.0074241
1.0075065
1.0076396
1.007793
1.008024
1.0082232
1.0084853
1.0086658
1.0089106
1.0090216
1.0092582
1.0092702
1.0096084
1.0098037
1.0098043
1.0099336
1.0100183
1.0098426
1.0099917
1.0101587
1.0099894
1.0101825
1.0099691
1.0100896
1.0102606
1.0103974
1.0104787
1.0105
1.0104056
1.0103052
1.0104181
1.0107338
1.0105596
1.0104984
1.0111088
1.0104888
1.010874
1.0106079
1.0106268
1.0107569
1.0110247
1.0107188
1.0108921
1.0113508
1.0109317
1.0108243
1.0111008
1.0120706
1.0111614
1.0103288
1.0113679
1.0123729
1.0112863
1.0102098
1.0110771
1.0117223
1.0122634
1.001652
1.003318
1.0032459
1.0040356
1.0049778
1.0058174
1.0065286
1.0070762
1.0074399
1.0076088
1.0076109
1.007481
1.0072534
1.0069837
1.0067051
1.0064529
1.0062463
1.0060829
1.0059914
1.0059812
1.00599
1.0060505
1.0061232
1.0062721
1.0063925
1.0065012
1.0065928
1.0067708
1.0069477
1.0070205
1.0071304
1.0072646
1.0073852
1.0074536
1.0075822
1.0077741
1.0079932
1.0081676
1.0084522
1.0085874
1.0088127
1.0089719
1.0091507
1.0092885
1.0094894
1.0097518
1.0098753
1.0099515
1.0099984
1.0098558
1.0099519
1.0101568
1.0099539
1.0102089
1.0100354
1.0100787
1.0101188
1.0101338
1.0104368
1.0105957
1.010472
1.0104989
1.0103075
1.0107639
1.0106441
1.0104022
1.0110714
1.0106368
1.0108123
1.0106289
1.0106089
1.0107734
1.0108227
1.010879
1.0109861
1.0111312
1.0108771
1.010737
1.0117013
1.0117782
1.0105836
1.0107729
1.0119378
1.0117205
1.0108241
1.0108243
1.0115083
1.0113557
1.0117308
1.0016504
1.0033165
1.0032465
1.0040337
1.0049755
1.0058154
1.0065266
1.0070787
1.0074438
1.0076133
1.0076165
1.0074845
1.00726
1.0069937
1.0067155
1.0064609
1.0062478
1.0060811
1.0059927
1.0059868
1.0060179
1.0060877
1.0061822
1.0063353
1.0064502
1.0065463
1.006633
1.006839
1.0069925
1.0071026
1.0071698
1.0073932
1.0074688
1.0075128
1.007605
1.0077779
1.0079626
1.0081783
1.0084683
1.0085769
1.0087928
1.0089929
1.0091251
1.0093634
1.0094463
1.0097065
1.0099772
1.0099633
1.0099582
1.0099271
1.0100205
1.0100278
1.0099443
1.010083
1.0099762
1.0100801
1.010076
1.0100015
1.0103899
1.010496
1.0104141
1.0106264
1.0103355
1.0106334
1.0106211
1.0103955
1.0107918
1.0107251
1.0107495
1.0106894
1.0107343
1.0107975
1.010623
1.0109911
1.0110799
1.0109236
1.0108496
1.01095
1.0119714
1.0111849
1.0102818
1.0113786
1.0122191
1.0109392
1.0103249
1.0115285
1.0123543
1.0115179
1.0108094
1.0016492
1.0033156
1.0032449
1.0040297
1.0049714
1.0058115
1.0065264
1.0070801
1.0074461
1.0076166
1.0076216
1.0074872
1.007266
1.0070019
1.0067259
1.0064749
1.0062634
1.006095
1.0060086
1.0059907
1.0060159
1.0060851
1.00618
1.0063285
1.0064717
1.0065822
1.00666
1.0068149
1.0069901
1.0071756
1.007237
1.0074648
1.007518
1.00756
1.0076265
1.0077957
1.0079895
1.0082134
1.008457
1.008676
1.0088101
1.0090187
1.0091782
1.0094284
1.0095011
1.009699
1.0100546
1.010014
1.0099002
1.0100518
1.0100878
1.009963
1.0100157
1.0099384
1.0099715
1.0101046
1.0102127
1.0100636
1.0104035
1.0103817
1.0103776
1.010613
1.0104244
1.0105796
1.0105102
1.0103834
1.0105074
1.0107173
1.0106862
1.0107465
1.0109176
1.0108425
1.0105075
1.0110208
1.011148
1.0107505
1.0107827
1.0113893
1.0118808
1.0106096
1.0103907
1.011785
1.0120486
1.0104958
1.010168
1.0118342
1.0127034
1.0118613
1.0104877
1.0016476
1.0033144
1.0032448
1.0040298
1.0049698
1.0058107
1.0065284
1.0070797
1.007447
1.0076197
1.0076271
1.0074939
1.0072737
1.0070083
1.0067321
1.0064903
1.0062829
1.0061154
1.0060257
1.0059916
1.0060063
1.0060596
1.0061363
1.0062773
1.0064455
1.0065495
1.0066461
1.0067496
1.006975
1.0071752
1.0072475
1.0073684
1.0074483
1.0075766
1.0076215
1.0078403
1.0080222
1.008251
1.0083853
1.0086529
1.0087606
1.008986
1.0091786
1.0094252
1.0094945
1.0096376
1.0100027
1.0100503
1.0098026
1.0100897
1.0102163
1.0100297
1.0100315
1.009814
1.0101146
1.0101594
1.010392
1.0102734
1.0105162
1.0102958
1.0105366
1.010542
1.0105749
1.0106915
1.0105189
1.0104316
1.0104252
1.0107161
1.0106199
1.0107696
1.0110282
1.0109108
1.0105323
1.0110044
1.0112191
1.010646
1.0107442
1.0118062
1.0115383
1.0103461
1.0108415
1.0118311
1.011523
1.0103685
1.0106889
1.0120908
1.0122239
1.0117107
1.0108566
1.0016464
1.0033135
1.0032452
1.0040293
1.0049693
1.0058082
1.0065253
1.0070787
1.007448
1.0076229
1.0076334
1.0075055
1.0072844
1.0070165
1.0067375
1.0064998
1.0062937
1.0061252
1.0060313
1.0059961
1.0060128
1.0060521
1.0061204
1.006256
1.0064281
1.0065216
1.0066328
1.0067421
1.0069779
1.0071549
1.0072176
1.0072456
1.0073705
1.0075648
1.0075893
1.0077997
1.0079731
1.008253
1.0083604
1.0085631
1.0087094
1.0089607
1.0091865
1.0093369
1.0094843
1.0096535
1.0099215
1.0100747
1.0098134
1.0101139
1.0102596
1.010091
1.0100901
1.0098272
1.0102009
1.0101711
1.0104201
1.0105112
1.0106498
1.0102245
1.0106965
1.0105341
1.0106735
1.0108833
1.010663
1.0106358
1.0105502
1.0107846
1.0105688
1.0107635
1.0110112
1.0109776
1.0106764
1.0109391
1.0112494
1.0107119
1.0107451
1.0118773
1.0111685
1.0104814
1.0114549
1.0117657
1.0108302
1.010448
1.0116236
1.0125401
1.0115488
1.0109243
1.0112482
1.0016448
1.0033127
1.0032423
1.0040257
1.0049646
1.0058057
1.0065243
1.0070786
1.0074497
1.0076263
1.0076383
1.0075158
1.0072939
1.0070279
1.0067487
1.0065013
1.006292
1.0061214
1.0060273
1.0060074
1.0060258
1.0060782
1.0061525
1.0062853
1.0064463
1.0065521
1.0066534
1.0067877
1.0070131
1.0071577
1.0072283
1.0072355
1.0073806
1.007538
1.0076066
1.0077834
1.0079845
1.0082804
1.008413
1.0085724
1.0087397
1.0090331
1.0092728
1.0093248
1.009539
1.0097155
1.0099067
1.0101007
1.0100017
1.0101211
1.0101772
1.0100934
1.0101097
1.0099125
1.0101835
1.0100815
1.0103159
1.0106154
1.0107249
1.0102612
1.0107169
1.0105549
1.0106751
1.0110077
1.0108668
1.0108698
1.0107396
1.0108716
1.0105612
1.0107311
1.0109252
1.010981
1.0109353
1.0109201
1.0111767
1.0109329
1.010918
1.0115265
1.0108507
1.0109215
1.0119335
1.0117065
1.0104109
1.0106262
1.0123551
1.0129755
1.0111509
1.0102022
1.0112265
1.0016439
1.0033108
1.0032443
1.004021
1.0049627
1.0058052
1.0065253
1.0070798
1.0074525
1.0076326
1.0076478
1.0075266
1.0073075
1.0070457
1.0067689
1.0065113
1.0063018
1.0061305
1.0060391
1.0060287
1.0060395
1.0061045
1.006193
1.0063297
1.006487
1.0066035
1.0067149
1.0068449
1.0070751
1.0071906
1.0072783
1.0073107
1.007465
1.0075349
1.007653
1.0078169
1.00806
1.008301
1.008526
1.0086388
1.0088641
1.0091638
1.0094596
1.0094478
1.0096838
1.0099121
1.0099216
1.010094
1.0102448
1.0102003
1.0101022
1.0101704
1.0101713
1.0100944
1.0102183
1.0100838
1.0102183
1.0105472
1.0106799
1.0104523
1.0106652
1.0105607
1.0106429
1.0110083
1.0110111
1.0110359
1.0108982
1.0109566
1.0106656
1.0107551
1.0108771
1.0109401
1.0112372
1.0110359
1.010987
1.011183
1.0112762
1.0110754
1.0106251
1.0114769
1.0121041
1.0116371
1.0103986
1.0110644
1.0125532
1.0128638
1.0110706
1.010133
1.0111204
1.0016422
1.0033105
1.0032445
1.0040262
1.0049628
1.0058056
1.0065259
1.0070846
1.0074609
1.0076452
1.0076652
1.0075433
1.0073287
1.0070749
1.0068027
1.0065467
1.0063394
1.0061711
1.006082
1.0060774
1.0060784
1.0061501
1.0062364
1.006376
1.0065381
1.0066665
1.0067756
1.0068897
1.0071329
1.0072355
1.007351
1.0074303
1.0075882
1.0075921
1.0077528
1.0079097
1.0081501
1.0083013
1.0086267
1.008679
1.0089718
1.0092558
1.0095868
1.0095901
1.0098605
1.0101234
1.0099692
1.0100649
1.0104814
1.0103966
1.0101444
1.0103389
1.0103062
1.0103608
1.0103505
1.010228
1.0102552
1.0104597
1.0105753
1.0106889
1.0105789
1.010649
1.0106793
1.0109309
1.011038
1.0110907
1.010956
1.0110263
1.0108928
1.0108403
1.0109268
1.0108805
1.0114202
1.0112666
1.0108185
1.0113384
1.0117816
1.0107864
1.0105002
1.0119229
1.0120743
1.0114176
1.0107919
1.0117368
1.0125018
1.0122584
1.0109638
1.0109264
1.01151
1.0016418
1.003309
1.0032413
1.0040216
1.0049636
1.0058103
1.0065355
1.0071024
1.0074862
1.007678
1.0077048
1.007587
1.0073796
1.0071293
1.006861
1.0066193
1.0064145
1.0062534
1.0061622
1.0061584
1.0061585
1.0062339
1.0063146
1.0064648
1.0066204
1.0067489
1.0068393
1.0069623
1.0072011
1.0073181
1.0074488
1.007591
1.0077294
1.0077148
1.0078861
1.0080088
1.0082422
1.0083118
1.0086654
1.0087352
1.0090289
1.009287
1.0096168
1.0097116
1.0099675
1.0102458
1.0100574
1.0100762
1.0106993
1.0106219
1.0102762
1.0105754
1.0104873
1.0106863
1.0105296
1.0104805
1.0103315
1.0104368
1.0105247
1.0108973
1.0106187
1.0107973
1.0108142
1.0108666
1.0110452
1.0111684
1.011
1.011042
1.0111525
1.0110056
1.011071
1.0108902
1.0114371
1.0115299
1.0108422
1.0114262
1.0121583
1.0108848
1.0105433
1.0120933
1.0119601
1.0111601
1.0112307
1.0124932
1.0125026
1.0114291
1.0108516
1.011907
1.0125986
1.0016417
1.0033105
1.0032462
1.0040264
1.0049786
1.0058359
1.0065717
1.0071502
1.0075439
1.0077451
1.0077794
1.0076672
1.0074667
1.0072197
1.0069536
1.0067285
1.0065255
1.0063701
1.0062728
1.0062677
1.0062785
1.0063574
1.0064297
1.0065886
1.0067341
1.0068601
1.0069217
1.0070555
1.0072873
1.0074234
1.0075473
1.0077505
1.0078629
1.0078614
1.0080224
1.0081181
1.00832
1.0083546
1.0086757
1.0087689
1.0090544
1.0092596
1.0095587
1.0097905
1.009986
1.0102159
1.010203
1.0102431
1.0108451
1.010771
1.0105064
1.0108387
1.0107113
1.0109379
1.0106974
1.0107406
1.0104521
1.0105412
1.0106339
1.0110419
1.010763
1.0109673
1.0110098
1.0108813
1.0110979
1.0112967
1.0111274
1.0110526
1.0113077
1.0111952
1.0112548
1.010987
1.011375
1.0116509
1.0110786
1.0114418
1.0122292
1.0112715
1.0108227
1.0120436
1.011855
1.0110469
1.0115647
1.0129894
1.0127045
1.0110625
1.0108083
1.0124953
1.0135112
1.0016501
1.0033189
1.0032704
1.0040636
1.0050325
1.0059054
1.006658
1.0072498
1.0076539
1.0078635
1.0079029
1.0077952
1.0075974
1.0073504
1.0070829
1.0068613
1.0066567
1.0065013
1.0064003
1.0063928
1.0064111
1.0064953
1.0065658
1.0067242
1.0068656
1.0069858
1.0070395
1.0071757
1.0074132
1.0075769
1.0076673
1.0078816
1.0079826
1.0080256
1.0081604
1.0082578
1.0084204
1.0084998
1.0087725
1.0088804
1.0091441
1.0093055
1.0095855
1.0099076
1.0100724
1.0101819
1.0103499
1.010519
1.010866
1.0108154
1.0107566
1.0109905
1.0109253
1.0110502
1.0108243
1.0109452
1.010656
1.0108462
1.0109103
1.0111997
1.0109719
1.0111552
1.0112378
1.0110302
1.0112127
1.0114531
1.0113622
1.0111605
1.0113803
1.0113846
1.0114247
1.0112495
1.011365
1.0116492
1.0114707
1.011598
1.0120331
1.0116854
1.0114399
1.0119257
1.0117947
1.0112054
1.0118743
1.0129942
1.0127894
1.0113829
1.0111135
1.0125627
1.0135378
1.0016808
1.0033511
1.003323
1.0041532
1.0051496
1.0060372
1.0068002
1.0073954
1.0078014
1.0080103
1.0080476
1.0079386
1.0077375
1.0074864
1.007216
1.006982
1.006773
1.0066132
1.0065127
1.0065027
1.0065242
1.0066066
1.0066844
1.0068324
1.0069766
1.0071047
1.0071709
1.0072935
1.0075259
1.0077256
1.0077943
1.0079685
1.0080643
1.0081776
1.0082914
1.0083896
1.0085487
1.0087395
1.0089201
1.0090784
1.0092814
1.0094531
1.0097166
1.0100807
1.0101849
1.0102325
1.0104588
1.010777
1.0107987
1.0107888
1.0109474
1.0110494
1.0110459
1.0110095
1.0109023
1.0110844
1.0109806
1.0112944
1.0113329
1.0113942
1.0112749
1.0113091
1.0114732
1.0113295
1.011419
1.0115625
1.0116224
1.0113943
1.0114422
1.0115729
1.0115757
1.0116151
1.0114696
1.0115858
1.0118629
1.0119203
1.0117944
1.0119508
1.012231
1.011901
1.0116584
1.0116215
1.0122806
1.0126973
1.0125528
1.0120707
1.0120471
1.0125215
1.0128287
1.0017752
1.0034304
1.0034597
1.004308
1.0053153
1.0061936