/*--------------------------------*- C++ -*----------------------------------*\
| =========                 |                                                 |
| \\      /  F ield         | OpenFOAM: The Open Source CFD Toolbox           |
|  \\    /   O peration     | Version:  2406                                  |
|   \\  /    A nd           | Website:  www.openfoam.com                      |
|    \\/     M anipulation  |                                                 |
\*---------------------------------------------------------------------------*/
FoamFile
{
    version     2.0;
    format      ascii;
    arch        "LSB;label=32;scalar=64";
    class       volScalarField;
    location    "40";
    object      T;
}
// * * * * * * * * * * * * * * * * * * * * * * * * * * * * * * * * * * * * * //

dimensions      [0 0 0 1 0 0 0];

internalField   nonuniform List<scalar> 
158064
(
1.0010937
1.0011611
1.0014182
1.0017737
1.002162
1.0024747
1.0027248
1.0029011
1.0030036
1.0030234
1.0029942
1.0029113
1.002822
1.0026962
1.0025943
1.0024721
1.0024065
1.002323
1.0023391
1.0023268
1.0023824
1.0024036
1.0024663
1.0025057
1.0025865
1.0026059
1.0026685
1.0027148
1.0027908
1.002915
1.0029373
1.0028414
1.0030034
1.0029021
1.0031192
1.0032063
1.0032392
1.0031498
1.003294
1.003311
1.0032869
1.0033875
1.0035197
1.0037608
1.0040038
1.0041002
1.0042699
1.0039343
1.0038547
1.0041581
1.0044634
1.0043639
1.004531
1.0041473
1.0036243
1.0038126
1.0042274
1.0042958
1.0043946
1.0047118
1.0046302
1.0044572
1.004484
1.004206
1.0040852
1.0043473
1.0045839
1.0044542
1.0046516
1.0045857
1.0045096
1.0046454
1.0048009
1.0045412
1.004866
1.0041423
1.0047062
1.0049843
1.0050771
1.0045731
1.0043831
1.0046235
1.0049108
1.0045991
1.0043528
1.0047647
1.004589
1.0039981
1.0044347
1.001094
1.0011615
1.0014161
1.0017705
1.002159
1.0024749
1.0027265
1.0029044
1.0030115
1.0030348
1.0030054
1.0029295
1.0028377
1.0027155
1.0026122
1.0024862
1.0024196
1.0023329
1.0023477
1.0023325
1.0023881
1.0024016
1.0024796
1.0025187
1.0025984
1.0026047
1.0027053
1.0027122
1.0028048
1.0028126
1.0029431
1.002936
1.0030184
1.003073
1.0031532
1.0031658
1.0032811
1.0032834
1.0033859
1.0034302
1.0035233
1.0035889
1.0036061
1.0036211
1.0037531
1.0037366
1.0038481
1.0040489
1.0040636
1.0039093
1.0038856
1.0041242
1.004051
1.004383
1.0044062
1.0043185
1.0043921
1.0043216
1.0044111
1.0042915
1.0044761
1.0044863
1.004332
1.0046244
1.0045421
1.0045032
1.0045252
1.0044666
1.004697
1.0046679
1.0046282
1.0046417
1.0045167
1.004756
1.0044963
1.0051444
1.0044463
1.0044883
1.0045392
1.0045172
1.0046273
1.0043603
1.0043845
1.0043846
1.004275
1.004045
1.003971
1.003929
1.0041062
1.0010931
1.0011611
1.0014155
1.0017702
1.0021592
1.0024772
1.0027299
1.002911
1.0030188
1.0030463
1.0030175
1.0029418
1.0028512
1.0027275
1.0026225
1.0024985
1.0024311
1.0023433
1.0023531
1.0023379
1.0023973
1.0024116
1.0024908
1.0025296
1.002609
1.0026262
1.0026843
1.0026851
1.0028531
1.0028719
1.0029142
1.0029343
1.0029987
1.0029991
1.0031168
1.0031579
1.0032075
1.003292
1.0034085
1.0034345
1.0035127
1.0035198
1.0036483
1.0037123
1.0037475
1.0038996
1.0039848
1.0038928
1.0041074
1.0042408
1.0041201
1.0041164
1.0042005
1.0041591
1.0041915
1.0042135
1.0044136
1.0044655
1.0044061
1.0043494
1.0042885
1.0042882
1.0044307
1.0043335
1.0045255
1.0045334
1.0045611
1.0044729
1.0046597
1.0046081
1.0046354
1.0046482
1.0047117
1.0046935
1.0047969
1.004717
1.0045362
1.004904
1.0045206
1.0049114
1.0047037
1.0046672
1.0048779
1.0043014
1.0046639
1.0044543
1.0042255
1.0043859
1.0043155
1.0010928
1.0011612
1.0014146
1.0017682
1.0021578
1.0024769
1.0027316
1.002915
1.0030259
1.0030557
1.0030297
1.0029535
1.0028626
1.0027409
1.0026374
1.0025123
1.0024426
1.0023536
1.0023616
1.0023458
1.0023975
1.0024068
1.0024851
1.0025239
1.0025972
1.0026202
1.0026953
1.002729
1.002823
1.0028317
1.002913
1.0029258
1.0030409
1.0030532
1.0031304
1.0031943
1.0032834
1.0032662
1.0033206
1.0034137
1.0034951
1.0035964
1.0036619
1.0036684
1.0038253
1.0038281
1.0039559
1.0040672
1.0040323
1.0040035
1.0042251
1.0040455
1.0041892
1.0042947
1.0042926
1.0043404
1.0042351
1.0041967
1.0044606
1.0043799
1.0044923
1.0044057
1.0043492
1.0045089
1.0044171
1.0043376
1.0044915
1.0045458
1.0046006
1.0045372
1.0045937
1.0045007
1.0046723
1.0045557
1.0049879
1.0044404
1.0049287
1.0045102
1.0046972
1.0047447
1.0045008
1.0049508
1.0044478
1.0047674
1.004619
1.0042634
1.0045958
1.0044033
1.0042444
1.0010922
1.0011608
1.0014137
1.0017672
1.0021576
1.0024778
1.0027343
1.0029207
1.003033
1.0030661
1.0030413
1.0029669
1.002876
1.0027545
1.002647
1.0025195
1.0024481
1.0023576
1.0023687
1.0023499
1.0024099
1.0024305
1.002507
1.0025553
1.0026246
1.0026335
1.0027073
1.0027428
1.0028281
1.0028731
1.0029638
1.0029656
1.0030356
1.0030937
1.0031996
1.0031981
1.0032879
1.0032879
1.0033862
1.0034225
1.0034793
1.0035702
1.0036
1.0036354
1.0037862
1.003812
1.0039671
1.0039329
1.0040378
1.0039811
1.003981
1.0042061
1.0041908
1.0042331
1.0043178
1.0043088
1.0044711
1.0042982
1.0043634
1.0044433
1.0043593
1.0044463
1.004406
1.0044522
1.0043949
1.0043899
1.0045349
1.0044699
1.0045141
1.0045224
1.0044671
1.0047213
1.0043709
1.0047446
1.004465
1.0047071
1.004773
1.0045776
1.0046532
1.0047212
1.0046769
1.0047827
1.0046237
1.004561
1.0044848
1.004553
1.0046352
1.004255
1.0045943
1.0010919
1.0011607
1.0014131
1.0017665
1.0021561
1.0024782
1.0027373
1.002925
1.0030402
1.0030756
1.0030522
1.0029797
1.0028884
1.0027663
1.0026615
1.0025379
1.0024675
1.0023764
1.0023762
1.0023525
1.0024033
1.0024156
1.0024834
1.0025226
1.0026101
1.0026272
1.0026985
1.0027214
1.0028258
1.0028625
1.0029391
1.0029077
1.0029706
1.0030386
1.0031575
1.0031993
1.0032734
1.0033254
1.0034049
1.003402
1.0035432
1.0035356
1.0036769
1.0037143
1.0037493
1.0038334
1.0039875
1.0039081
1.0040552
1.004136
1.0041571
1.0041679
1.0042429
1.0042898
1.0042717
1.004245
1.0043216
1.0044099
1.0044483
1.0043728
1.0043656
1.0042926
1.0044144
1.0044111
1.0043827
1.0045016
1.0044827
1.0044336
1.0045073
1.0044798
1.0045426
1.0046114
1.0044859
1.0046917
1.0043883
1.0047736
1.0043866
1.0045497
1.0048473
1.0043143
1.0045915
1.0048027
1.0046556
1.0044985
1.0046254
1.0047197
1.004406
1.004289
1.0046513
1.0010914
1.0011603
1.0014122
1.0017661
1.0021556
1.0024789
1.0027394
1.0029288
1.0030467
1.0030841
1.0030614
1.0029917
1.0029011
1.0027806
1.0026735
1.0025461
1.0024654
1.002373
1.0023772
1.0023633
1.0024197
1.002444
1.0025136
1.0025584
1.0026346
1.0026449
1.0027196
1.0027443
1.0028613
1.0028869
1.0029791
1.0029712
1.0030603
1.0030864
1.0031532
1.0031841
1.0032593
1.0033154
1.0033632
1.0034368
1.003513
1.0035449
1.0036451
1.0037118
1.0037259
1.0037966
1.0038666
1.0039782
1.0040346
1.0041143
1.0042534
1.0041755
1.0042313
1.0042829
1.0042537
1.0043459
1.0043758
1.0043111
1.0044563
1.004418
1.0044146
1.0043022
1.0043326
1.0044008
1.0043364
1.004499
1.0044797
1.0044529
1.0044496
1.0044246
1.0046466
1.0043915
1.0047075
1.0043474
1.0047071
1.0044745
1.0045814
1.0045867
1.0048091
1.0043296
1.0047207
1.0045592
1.0043553
1.0046268
1.0047022
1.0045137
1.004269
1.0047675
1.0047288
1.001091
1.0011603
1.0014116
1.0017649
1.0021553
1.0024795
1.002741
1.0029332
1.0030528
1.0030923
1.0030713
1.0030005
1.0029111
1.0027879
1.0026826
1.0025575
1.0024855
1.0023937
1.0023956
1.0023669
1.0024173
1.0024338
1.0025076
1.0025474
1.0026277
1.0026481
1.0027072
1.0027411
1.0028336
1.0028443
1.0029072
1.0029528
1.0030541
1.0030737
1.0031499
1.0031823
1.0032991
1.0033184
1.0034115
1.0034811
1.0034512
1.0035301
1.0035883
1.0036627
1.0037822
1.0038396
1.0038873
1.0040321
1.0040768
1.0040922
1.0040418
1.0041427
1.004216
1.0041285
1.0042727
1.0042475
1.0043227
1.0043289
1.0043348
1.0043969
1.0044883
1.0043721
1.0044642
1.0043645
1.004279
1.0044298
1.0043574
1.0044874
1.0044622
1.0044291
1.0045324
1.0044864
1.0045754
1.0044261
1.0046521
1.0044869
1.0046636
1.0047466
1.0044741
1.0044666
1.0048883
1.0043952
1.0045479
1.0047849
1.0046042
1.0044905
1.0044824
1.004833
1.0047053
1.0010906
1.00116
1.0014108
1.0017642
1.0021541
1.0024799
1.0027434
1.0029362
1.0030582
1.003101
1.0030803
1.0030124
1.0029219
1.0028031
1.0026977
1.0025731
1.0024939
1.0023975
1.0023901
1.0023744
1.002418
1.002428
1.0024975
1.0025403
1.0026205
1.0026563
1.0027065
1.0027477
1.0028549
1.0029027
1.0029473
1.002981
1.0030539
1.00308
1.0031709
1.003218
1.0033276
1.0033322
1.0034213
1.0034325
1.0034567
1.0035804
1.0036519
1.0036488
1.0037605
1.0037974
1.0039571
1.0039429
1.0041295
1.0041663
1.00411
1.0041746
1.0042453
1.0042306
1.0043611
1.0043296
1.0042407
1.0043107
1.0043465
1.0043695
1.004381
1.0043228
1.0044618
1.0044822
1.0043306
1.0044583
1.0042991
1.0044023
1.0044047
1.0044685
1.0044038
1.0046108
1.0044063
1.0046182
1.0043763
1.0045984
1.0046525
1.0046321
1.0044846
1.0048082
1.0047422
1.0044176
1.0049224
1.004731
1.0044743
1.0044788
1.004674
1.0047354
1.0042944
1.0010903
1.0011599
1.00141
1.0017635
1.0021539
1.0024806
1.0027438
1.0029388
1.0030621
1.003106
1.0030879
1.0030209
1.0029321
1.0028107
1.0027023
1.0025724
1.0024912
1.0023913
1.0023998
1.0023744
1.0024329
1.0024503
1.0025267
1.0025659
1.0026389
1.0026685
1.0027218
1.0027528
1.0028374
1.002885
1.0029397
1.0029615
1.0030481
1.0030804
1.0031541
1.0032297
1.0032937
1.0033116
1.0033656
1.0034267
1.0034589
1.0035776
1.0036667
1.0037316
1.003763
1.0038046
1.0039308
1.0038923
1.0039951
1.0039845
1.0041169
1.0041193
1.0041824
1.0043258
1.0042512
1.0043525
1.0043775
1.0042891
1.0043528
1.0043203
1.0042471
1.0042898
1.0042976
1.0044987
1.004362
1.0044691
1.0044186
1.0043883
1.0044335
1.0044303
1.0044001
1.0044952
1.0044993
1.0046339
1.0043901
1.0044329
1.0046544
1.0044619
1.0046014
1.0047055
1.0044075
1.0045078
1.0046723
1.004352
1.0045545
1.0045692
1.0045228
1.0044506
1.0042921
1.00109
1.0011596
1.0014094
1.0017621
1.0021538
1.0024813
1.0027468
1.0029428
1.0030678
1.0031132
1.0030966
1.0030302
1.0029432
1.0028248
1.0027161
1.0025905
1.0025125
1.0024214
1.0024122
1.002385
1.0024272
1.0024426
1.0025109
1.002558
1.0026334
1.0026539
1.002716
1.0027539
1.0028516
1.0029081
1.0029841
1.0029783
1.003072
1.003114
1.0031901
1.0032224
1.0032777
1.0033291
1.0033726
1.0034552
1.0035075
1.003511
1.0035622
1.0036748
1.0037224
1.0038295
1.0039456
1.0040238
1.0040612
1.0040411
1.0042165
1.0042075
1.0042119
1.0042313
1.0041803
1.0042594
1.00439
1.0043169
1.0043469
1.0044034
1.004332
1.0043264
1.0042651
1.0043084
1.0043602
1.0044434
1.0045067
1.0043776
1.0044924
1.004412
1.0044026
1.0044009
1.0045736
1.0045475
1.0043923
1.0045693
1.0044931
1.0044393
1.004712
1.0043636
1.0044961
1.0047099
1.0044232
1.0041225
1.0046719
1.0048977
1.0045942
1.0042806
1.0043769
1.0010897
1.0011593
1.0014087
1.0017612
1.0021511
1.00248
1.0027469
1.0029452
1.0030718
1.0031195
1.003104
1.0030385
1.0029492
1.002829
1.0027215
1.002601
1.0025166
1.0024109
1.0024041
1.0023834
1.0024327
1.0024511
1.0025081
1.002565
1.0026315
1.0026553
1.0027169
1.0027563
1.0028419
1.0028806
1.0029489
1.0029835
1.0030431
1.0030654
1.0031668
1.0031655
1.0032558
1.003329
1.0033907
1.0034485
1.0035105
1.0035125
1.0035872
1.0037019
1.0037688
1.0038338
1.003906
1.004026
1.0040287
1.0040549
1.0041066
1.0041843
1.0043019
1.0041837
1.00427
1.0041971
1.0042253
1.0043095
1.0044014
1.0044188
1.0044297
1.0043425
1.0043935
1.0042741
1.0043428
1.0042749
1.0044606
1.0043797
1.0045184
1.0044731
1.0043784
1.0044461
1.0045148
1.0045339
1.0044383
1.0047177
1.0042672
1.0045345
1.0047289
1.0043868
1.0046775
1.0046587
1.0044171
1.0043319
1.0045782
1.0045671
1.0044854
1.0045844
1.0045154
1.0010894
1.001159
1.0014079
1.0017612
1.0021527
1.002481
1.002748
1.0029469
1.0030748
1.0031238
1.0031099
1.0030463
1.0029581
1.0028393
1.0027317
1.0025972
1.0025181
1.0024214
1.0024141
1.0023851
1.0024276
1.00245
1.0025137
1.0025716
1.0026494
1.0026764
1.002733
1.0027652
1.002866
1.0028918
1.0029268
1.0029673
1.0030385
1.0030916
1.0031663
1.0032021
1.0033005
1.0033571
1.003437
1.0034656
1.003536
1.0035543
1.0036061
1.0036072
1.0037374
1.0037712
1.0039168
1.0039385
1.0039748
1.0040634
1.0040488
1.0041223
1.0042398
1.0040793
1.0042103
1.0042106
1.0041203
1.0042212
1.004295
1.0043171
1.0043993
1.0043857
1.0044353
1.0042968
1.0043935
1.0042596
1.0043684
1.0043643
1.0044409
1.0044796
1.0044356
1.0044658
1.0045068
1.0043958
1.0046217
1.0046549
1.0043434
1.0045779
1.0045774
1.0046548
1.0045606
1.0044267
1.0044843
1.0047501
1.0046664
1.004129
1.0043266
1.0048925
1.0049269
1.0010892
1.0011586
1.0014074
1.0017603
1.0021518
1.0024814
1.0027497
1.0029501
1.003079
1.0031289
1.0031161
1.0030546
1.0029672
1.0028514
1.002738
1.0026155
1.0025304
1.0024338
1.0024237
1.0023941
1.0024368
1.0024609
1.0025218
1.0025665
1.0026318
1.0026617
1.002708
1.002745
1.0028654
1.0029134
1.0029844
1.0030233
1.0031261
1.0031621
1.0031811
1.0032563
1.0033372
1.0033405
1.00338
1.0034275
1.0034698
1.0035208
1.0035979
1.0036013
1.0037435
1.0037793
1.0039358
1.0039553
1.0040159
1.004103
1.0041295
1.004163
1.0042411
1.0042238
1.004341
1.0043895
1.0042935
1.0042564
1.0042007
1.0043175
1.0043003
1.0044122
1.0043931
1.0043021
1.0044449
1.004364
1.0043387
1.0044171
1.0044446
1.0043697
1.0045069
1.0044293
1.0045195
1.0042804
1.0047031
1.0044664
1.0045536
1.0044823
1.0044788
1.0048088
1.0044878
1.0043809
1.0045538
1.004634
1.004488
1.0042955
1.0044682
1.0045806
1.0045812
1.001089
1.0011585
1.0014067
1.0017582
1.0021494
1.0024792
1.0027496
1.0029524
1.0030824
1.0031344
1.0031224
1.0030604
1.0029699
1.0028578
1.0027418
1.0026235
1.0025401
1.0024403
1.0024257
1.0024018
1.0024444
1.0024715
1.0025221
1.0025793
1.0026336
1.002663
1.0027064
1.0027603
1.0028508
1.002902
1.0029733
1.0030019
1.003083
1.003091
1.003111
1.0031908
1.0032656
1.0033234
1.0034217
1.0035018
1.0035173
1.0036004
1.0036616
1.0036754
1.0038006
1.0038665
1.0039449
1.0039393
1.0039962
1.0040446
1.0041405
1.0041663
1.0041628
1.0042971
1.0043542
1.0043624
1.0043748
1.0043869
1.0043309
1.0043728
1.0041678
1.0042762
1.0042984
1.0043143
1.0044081
1.0044539
1.0043447
1.0044829
1.0044944
1.0043014
1.0045018
1.0044477
1.0044227
1.0043855
1.0045885
1.004365
1.0047183
1.0045022
1.004457
1.0046121
1.0044474
1.0045604
1.0046865
1.0042628
1.0042763
1.0046293
1.0048503
1.0044431
1.0040555
1.0010888
1.0011583
1.0014057
1.0017585
1.0021499
1.0024798
1.0027503
1.0029529
1.0030847
1.0031393
1.0031282
1.0030679
1.002976
1.0028652
1.0027495
1.0026279
1.0025408
1.0024425
1.0024243
1.0023934
1.0024397
1.002457
1.0025168
1.0025797
1.0026556
1.0027019
1.0027358
1.0027873
1.0028436
1.0028968
1.0029336
1.0029813
1.0030431
1.0030675
1.0031213
1.0032062
1.0032531
1.0032997
1.0033836
1.0034368
1.0034491
1.003497
1.0035553
1.003641
1.0037284
1.003834
1.0039042
1.0039253
1.0040687
1.0040756
1.0041819
1.0040873
1.0041445
1.0041969
1.0041817
1.0042283
1.0043046
1.0043097
1.004361
1.0043845
1.0042232
1.0043175
1.0042705
1.0042964
1.0043784
1.0045014
1.0043294
1.0045015
1.0044623
1.0043617
1.004444
1.0044825
1.0043167
1.0045502
1.0044133
1.0044157
1.0046447
1.0046501
1.0045386
1.0042678
1.0044134
1.0047262
1.004576
1.0041127
1.0044127
1.0046848
1.0047794
1.0045337
1.0042449
1.0010886
1.0011579
1.0014051
1.001757
1.0021484
1.0024796
1.0027508
1.0029541
1.003087
1.0031433
1.0031335
1.0030759
1.002985
1.0028753
1.002756
1.0026353
1.00254
1.0024519
1.0024245
1.0023978
1.0024255
1.0024459
1.0024997
1.0025538
1.00263
1.0026761
1.0027196
1.0027657
1.0028504
1.0028999
1.0029338
1.0030088
1.0030607
1.0031039
1.0031944
1.003275
1.0033398
1.0033848
1.0034378
1.0034536
1.0034888
1.0035301
1.0035665
1.0036482
1.0036848
1.0038155
1.0038745
1.0038755
1.0039941
1.0039689
1.0041295
1.0040758
1.0042412
1.0042009
1.0041604
1.0042141
1.0042735
1.0042246
1.0043166
1.0043912
1.0043415
1.0043951
1.0043359
1.004323
1.0043614
1.0044171
1.0042826
1.0045306
1.0043713
1.004429
1.0044316
1.0044366
1.004326
1.0045753
1.0043273
1.0045505
1.0045366
1.0046417
1.00458
1.0041414
1.0045208
1.004728
1.0042563
1.0042617
1.0048373
1.0046124
1.004284
1.0042813
1.004461
1.0010885
1.0011576
1.0014042
1.0017558
1.002147
1.0024791
1.0027507
1.0029563
1.0030895
1.0031466
1.0031377
1.0030802
1.0029898
1.0028817
1.0027613
1.0026434
1.0025485
1.0024617
1.0024305
1.0024148
1.0024402
1.0024744
1.0025237
1.0025769
1.0026276
1.0026609
1.002703
1.0027411
1.0028502
1.0029236
1.0029527
1.003005
1.0030469
1.0031106
1.0031908
1.0032341
1.0033118
1.0033639
1.003385
1.0034125
1.0034905
1.0035507
1.003616
1.0036958
1.0037241
1.003826
1.0039139
1.0039254
1.0039685
1.0040237
1.0040799
1.0040785
1.0042861
1.0041629
1.0041574
1.004191
1.004168
1.0041555
1.0042814
1.004377
1.0043893
1.0044508
1.0044294
1.0043657
1.0044008
1.0043331
1.0042152
1.0044956
1.0043469
1.0044279
1.004448
1.0043826
1.0044248
1.0044403
1.0043423
1.004645
1.0045258
1.0045184
1.0044296
1.0043155
1.0046865
1.0045524
1.0041126
1.0045468
1.0050673
1.0046699
1.0042135
1.0041123
1.0044243
1.0010883
1.0011572
1.0014032
1.0017542
1.0021453
1.0024781
1.0027512
1.0029576
1.0030925
1.0031494
1.0031415
1.0030826
1.0029923
1.0028853
1.002765
1.0026482
1.0025532
1.0024626
1.0024329
1.0024166
1.0024522
1.0024878
1.0025416
1.0026005
1.0026502
1.0026896
1.002731
1.002758
1.0028538
1.0029139
1.0029719
1.0030151
1.0030648
1.0031107
1.0031383
1.0031785
1.0032677
1.0033307
1.0033505
1.0034094
1.0034649
1.0035016
1.0035855
1.0036408
1.0037075
1.0037837
1.0038951
1.0039706
1.0040082
1.0040843
1.0040665
1.0041332
1.0042509
1.0041227
1.004194
1.0042569
1.0042426
1.0042681
1.0042724
1.004293
1.0043213
1.0044166
1.0044968
1.0043341
1.0043809
1.0043469
1.0042938
1.0043756
1.0043681
1.0043551
1.004431
1.0043592
1.0044962
1.0043173
1.0043545
1.0046464
1.0045099
1.0044259
1.0042505
1.0046394
1.0047166
1.0042558
1.0042344
1.0048175
1.0048331
1.0044728
1.0044976
1.0043878
1.0044998
1.0010882
1.001157
1.0014025
1.001754
1.0021444
1.0024779
1.0027497
1.0029576
1.0030941
1.0031527
1.0031456
1.0030879
1.0029966
1.0028899
1.0027695
1.0026536
1.0025545
1.0024702
1.0024316
1.0024092
1.0024365
1.0024639
1.0025144
1.0025783
1.0026464
1.0027012
1.0027368
1.0027649
1.0028517
1.0029146
1.0029848
1.0030281
1.003099
1.0031337
1.0031741
1.0032134
1.0032911
1.0033605
1.0034065
1.0034536
1.0035352
1.0035275
1.0035988
1.0036275
1.003739
1.0037934
1.0038694
1.003968
1.0040119
1.0040569
1.0040762
1.0041623
1.0042089
1.0041466
1.0041931
1.0042803
1.0043367
1.0043813
1.0043074
1.0042635
1.0042521
1.0042985
1.0044267
1.0043621
1.0043406
1.0043439
1.0044288
1.0042628
1.0044086
1.004291
1.0043553
1.0043734
1.0044813
1.0042861
1.0043635
1.0046117
1.0044426
1.0043703
1.004274
1.0048208
1.0045858
1.0040954
1.0044064
1.0049318
1.0044568
1.0040929
1.0045517
1.0046422
1.0046161
1.0010881
1.0011568
1.0014021
1.0017525
1.0021433
1.0024771
1.00275
1.0029579
1.003095
1.0031552
1.003149
1.0030945
1.0030027
1.0028951
1.002774
1.0026601
1.0025599
1.0024765
1.0024314
1.0024094
1.0024238
1.0024495
1.0024908
1.0025551
1.0026228
1.002676
1.0027036
1.0027555
1.0028453
1.0028931
1.0029638
1.002997
1.0030764
1.0031206
1.0031788
1.0032362
1.0033009
1.0033481
1.0034277
1.0034644
1.00354
1.0035489
1.0036208
1.0036354
1.0037611
1.0038297
1.0038646
1.0039557
1.0040223
1.0039847
1.004089
1.0041966
1.0041573
1.0042358
1.004172
1.0042327
1.0042991
1.0043478
1.0043728
1.0043647
1.0042914
1.0042566
1.0042959
1.0044039
1.0043173
1.004307
1.0045068
1.0042509
1.0044079
1.0042783
1.0042938
1.0043731
1.0044183
1.0043274
1.0043925
1.0045297
1.0043756
1.0043268
1.0044992
1.0047978
1.0043481
1.004165
1.0046031
1.0048137
1.004281
1.0040004
1.0044498
1.0046212
1.0046608
1.0010879
1.0011567
1.0014012
1.0017522
1.0021429
1.0024772
1.0027499
1.002958
1.0030958
1.0031565
1.0031516
1.0030986
1.0030072
1.0029006
1.0027786
1.002664
1.0025619
1.0024765
1.0024312
1.0024158
1.0024329
1.0024627
1.0025064
1.0025719
1.0026202
1.0026595
1.0026963
1.0027663
1.0028447
1.0028713
1.0029257
1.0029883
1.0030523
1.0030858
1.0031414
1.0032115
1.0032762
1.0033112
1.0034005
1.0034273
1.0034982
1.0035207
1.0035745
1.0036313
1.0037289
1.003819
1.0038782
1.0039472
1.0040203
1.0039808
1.0040549
1.0041771
1.0041184
1.0042452
1.0041785
1.004217
1.0042331
1.0042406
1.0043774
1.0044166
1.0043366
1.0043286
1.0042448
1.0044179
1.0043443
1.0042492
1.0044854
1.004302
1.0043624
1.0042754
1.0042839
1.0043576
1.0043414
1.0043743
1.004432
1.004432
1.0043224
1.004329
1.004727
1.0045965
1.0041512
1.004374
1.0047695
1.0044997
1.0042102
1.0043193
1.0045676
1.0044663
1.0045162
1.0010878
1.0011564
1.0014006
1.0017504
1.0021417
1.0024764
1.002749
1.0029588
1.0030972
1.0031581
1.0031535
1.0030994
1.0030099
1.0029044
1.0027829
1.0026662
1.002562
1.0024765
1.0024316
1.0024218
1.0024455
1.002481
1.0025295
1.0025968
1.0026416
1.0026791
1.0027094
1.0027862
1.002852
1.0028989
1.0029321
1.0030348
1.0030814
1.0031072
1.0031499
1.0032142
1.0032731
1.0033286
1.0034156
1.003424
1.0034826
1.0035189
1.0035587
1.0036474
1.0036924
1.0038021
1.0039089
1.0039086
1.0039555
1.003969
1.0040305
1.004077
1.004074
1.0041789
1.004128
1.0041766
1.0041832
1.0041558
1.0043257
1.0043556
1.0043139
1.0043824
1.004234
1.0043621
1.0043356
1.0042152
1.0043684
1.0043374
1.0043273
1.004289
1.0043244
1.0043292
1.0042685
1.0043987
1.0044421
1.0043585
1.0043001
1.0044237
1.0047863
1.0043215
1.0040738
1.0045992
1.0047902
1.0041684
1.0041024
1.0046583
1.0048357
1.004413
1.0041726
1.0010877
1.0011564
1.0014002
1.0017495
1.0021399
1.0024747
1.0027491
1.0029591
1.0030981
1.0031593
1.0031554
1.0031002
1.0030124
1.0029071
1.0027861
1.0026706
1.002567
1.0024815
1.0024381
1.0024241
1.0024445
1.0024767
1.0025245
1.002592
1.0026496
1.0026923
1.0027199
1.0027765
1.0028476
1.0029278
1.0029627
1.0030645
1.0031042
1.0031323
1.0031647
1.0032246
1.0032833
1.0033493
1.003419
1.0034707
1.0034806
1.0035375
1.0035836
1.0036605
1.0036889
1.0037871
1.0039188
1.0039119
1.0038951
1.0039862
1.00404
1.0040146
1.004074
1.0040773
1.0040952
1.0041648
1.0042083
1.0041429
1.0042796
1.0042571
1.0042712
1.004358
1.0042438
1.0043015
1.0042742
1.0041874
1.0042399
1.0043303
1.0042964
1.0043002
1.0043695
1.0043037
1.0042076
1.0043853
1.0044287
1.0042807
1.0042884
1.0045616
1.004681
1.0041087
1.0041584
1.0046972
1.0046531
1.0040009
1.0040605
1.0047713
1.0049236
1.0044374
1.0039771
1.0010877
1.0011562
1.0013993
1.0017482
1.0021392
1.0024742
1.0027491
1.0029585
1.0030983
1.0031604
1.0031573
1.003103
1.0030154
1.0029087
1.0027873
1.0026769
1.0025739
1.002489
1.0024436
1.0024213
1.0024376
1.002461
1.002504
1.0025685
1.002635
1.0026719
1.0027101
1.0027498
1.0028418
1.0029278
1.0029681
1.0030248
1.00307
1.0031267
1.0031443
1.0032242
1.003284
1.0033474
1.0033739
1.0034521
1.0034576
1.0035268
1.0035763
1.0036442
1.0036703
1.0037456
1.0039014
1.0039191
1.0038596
1.0039861
1.0040788
1.0040347
1.0040724
1.0040085
1.0041341
1.0041583
1.0042349
1.0041874
1.0042737
1.0041854
1.0042836
1.0042814
1.0042786
1.0042984
1.0042408
1.004177
1.0041803
1.0042931
1.0042431
1.0042842
1.0043682
1.0042905
1.0041736
1.0043595
1.0044055
1.0041952
1.0042817
1.0046554
1.0044617
1.0040424
1.0043455
1.0046328
1.0043993
1.004
1.0042611
1.0047779
1.0047027
1.0043895
1.0040999
1.0010875
1.0011561
1.0013993
1.0017485
1.0021385
1.0024724
1.0027473
1.0029578
1.0030984
1.0031614
1.003159
1.0031069
1.0030184
1.00291
1.0027876
1.002679
1.0025758
1.0024898
1.0024413
1.0024147
1.002431
1.0024504
1.0024908
1.002553
1.0026175
1.0026468
1.0026897
1.0027322
1.0028276
1.0028984
1.0029374
1.002955
1.003012
1.0030943
1.0031035
1.0031769
1.0032377
1.0033169
1.0033227
1.0033834
1.0034051
1.0034836
1.0035437
1.003583
1.0036217
1.0037095
1.0038398
1.0038996
1.0038297
1.0039657
1.0040637
1.0040216
1.0040586
1.0039712
1.0041322
1.0041184
1.0041999
1.0042457
1.0042745
1.0041209
1.0042972
1.0042117
1.0042709
1.004323
1.004243
1.0041997
1.0041689
1.0042432
1.0041568
1.0042354
1.0042972
1.0042713
1.0041635
1.0042857
1.0043665
1.0041493
1.0042458
1.0046018
1.0042348
1.0041012
1.0045294
1.0044985
1.0040812
1.0040634
1.004572
1.0048017
1.0043423
1.0041214
1.0043465
1.0010875
1.0011561
1.0013983
1.0017467
1.0021367
1.0024712
1.0027469
1.0029569
1.0030981
1.0031614
1.0031585
1.0031079
1.0030184
1.0029099
1.0027873
1.0026727
1.002569
1.0024786
1.0024292
1.002404
1.0024195
1.0024429
1.0024842
1.0025429
1.0026035
1.0026337
1.0026714
1.0027157
1.002805
1.0028554
1.0028973
1.0029057
1.0029705
1.0030384
1.0030674
1.0031334
1.0032021
1.003285
1.0032954
1.0033293
1.0033622
1.0034517
1.0035144
1.0035176
1.0035749
1.0036513
1.0037549
1.0038396
1.003814
1.0038936
1.003948
1.0039472
1.0040011
1.0039264
1.0040482
1.0040085
1.0041039
1.0042292
1.004242
1.0040804
1.0042417
1.0041532
1.0042105
1.0043106
1.0042465
1.0042197
1.0041543
1.004188
1.0040692
1.0041498
1.0041863
1.0042246
1.0041877
1.0041955
1.0042701
1.0041572
1.0042192
1.0043914
1.004055
1.0042201
1.0046043
1.0043711
1.0038677
1.0041046
1.0047872
1.0048085
1.0040444
1.0038178
1.0043741
1.0010874
1.0011558
1.0013971
1.0017442
1.0021361
1.0024704
1.0027457
1.0029548
1.0030953
1.0031585
1.003155
1.0031025
1.0030122
1.0029027
1.0027797
1.0026564
1.0025525
1.0024566
1.0024087
1.0023816
1.0023932
1.0024159
1.0024595
1.0025163
1.0025779
1.0026109
1.0026487
1.0026835
1.0027704
1.0028054
1.0028483
1.0028657
1.002939
1.0029733
1.003024
1.0030832
1.0031594
1.0032247
1.0032776
1.003281
1.0033412
1.0034211
1.0035006
1.0034861
1.0035532
1.0036227
1.0036421
1.0037204
1.0037831
1.0038007
1.0037951
1.0038653
1.0039127
1.0038736
1.0039388
1.0038911
1.0039647
1.0041005
1.0041431
1.0040542
1.0041227
1.0040763
1.0041006
1.0042265
1.0041996
1.004194
1.0041183
1.0041244
1.0040112
1.0040587
1.0040718
1.0041239
1.0042079
1.0041216
1.0041028
1.004175
1.0042221
1.0041083
1.0039261
1.0043355
1.0045324
1.0042497
1.0038086
1.0041902
1.004743
1.0046608
1.0039392
1.0037305
1.0042947
1.0010874
1.0011559
1.0013992
1.0017464
1.0021339
1.0024668
1.0027402
1.0029478
1.0030862
1.0031473
1.0031414
1.0030849
1.002992
1.0028805
1.0027562
1.0026273
1.0025219
1.0024207
1.0023744
1.0023426
1.0023509
1.0023674
1.0024063
1.0024594
1.0025253
1.0025617
1.0025948
1.0026215
1.0027124
1.0027387
1.0027857
1.0028166
1.0028915
1.0029051
1.0029713
1.0030256
1.0030974
1.0031276
1.0032308
1.0032111
1.0033021
1.0033568
1.0034511
1.0034545
1.003531
1.0036035
1.0035307
1.0035843
1.0037616
1.0037426
1.0036691
1.0037817
1.0037939
1.0038199
1.0038355
1.0037987
1.0038298
1.0039189
1.0039812
1.0040093
1.003954
1.0039894
1.0039832
1.0040779
1.0040831
1.0041118
1.0040295
1.0040502
1.0039827
1.0039646
1.0039746
1.003982
1.0041692
1.0040749
1.0039109
1.0041361
1.0042548
1.0038579
1.0038084
1.004375
1.0043532
1.0040606
1.0038875
1.0042982
1.0045356
1.0043232
1.003879
1.0039322
1.0042217
1.0010871
1.0011554
1.0013945
1.0017411
1.0021265
1.0024567
1.0027256
1.002928
1.0030611
1.0031173
1.0031069
1.0030452
1.0029479
1.0028307
1.0027026
1.0025738
1.002466
1.0023617
1.0023123
1.0022736
1.0022822
1.0022929
1.0023274
1.0023789
1.0024413
1.0024749
1.0025022
1.0025341
1.0026242
1.0026524
1.0026985
1.002749
1.0028153
1.0028151
1.0028851
1.0029291
1.0030036
1.0030025
1.0031281
1.0031198
1.0032088
1.0032484
1.0033494
1.0033899
1.0034611
1.0035347
1.0034185
1.0034526
1.003718
1.0036773
1.0035545
1.0037039
1.0036717
1.003765
1.0037159
1.0037031
1.0036693
1.0037251
1.0037931
1.0039224
1.0037994
1.0038862
1.0038635
1.0038911
1.0039367
1.0039946
1.0039037
1.0039252
1.0039455
1.003865
1.0038799
1.0038273
1.0040333
1.0040199
1.0037568
1.0040315
1.0042286
1.0037194
1.0036908
1.004278
1.0040951
1.003816
1.0039489
1.0043924
1.0042626
1.0038387
1.0037642
1.0041915
1.0043279
1.0010854
1.0011533
1.0013905
1.0017292
1.0021064
1.002429
1.0026871
1.0028784
1.0030018
1.0030512
1.0030352
1.0029676
1.0028655
1.0027435
1.0026113
1.0024856
1.0023756
1.0022713
1.0022161
1.0021707
1.002182
1.0021888
1.0022205
1.0022717
1.0023282
1.0023573
1.0023792
1.0024147
1.0025083
1.0025431
1.0025872
1.0026537
1.0027069
1.0027029
1.0027696
1.0028092
1.0028772
1.0028659
1.0029833
1.0029895
1.0030737
1.0030971
1.0031949
1.0032795
1.0033287
1.0033913
1.0033349
1.0033587
1.0036061
1.0035567
1.0034531
1.0036018
1.003544
1.0036515
1.0035601
1.0035788
1.0034925
1.0035519
1.0036197
1.0037714
1.0036545
1.0037516
1.0037348
1.0037013
1.0037781
1.0038547
1.0037687
1.0037522
1.0038394
1.0037578
1.0037725
1.0036746
1.0038285
1.0039007
1.003664
1.003856
1.0040854
1.0036834
1.0036049
1.004065
1.0038517
1.0035803
1.0039075
1.0043687
1.0040744
1.0034877
1.0035796
1.0042497
1.0044144
1.0010766
1.0011431
1.0013734
1.0016966
1.0020525
1.0023584
1.0026001
1.0027781
1.0028918
1.0029357
1.0029161
1.0028459
1.0027419
1.0026188
1.0024855
1.0023639
1.0022531
1.0021522
1.0020922
1.0020455
1.0020551
1.0020618
1.0020935
1.002143
1.0021974
1.002224
1.0022493
1.0022832
1.0023796
1.0024249
1.0024556
1.0025226
1.0025661
1.0025756
1.0026315
1.002672
1.0027314
1.0027469
1.002846
1.0028627
1.0029397
1.0029591
1.0030454
1.0031516
1.0031848
1.003206
1.0032333
1.0032741
1.003398
1.0033551
1.0033291
1.003422
1.0033838
1.0034473
1.0033577
1.0034022
1.0033082
1.003409
1.0034585
1.0035682
1.0034821
1.0035675
1.0035742
1.0035158
1.0035887
1.0036741
1.0036208
1.0035508
1.0036417
1.003611
1.0036205
1.0035388
1.0035862
1.0036855
1.0035977
1.003671
1.0037957
1.003639
1.0035954
1.0037689
1.003615
1.0034308
1.0037823
1.0041446
1.0039179
1.0033981
1.0034638
1.0040716
1.0042616
1.0010437
1.0011106
1.0013096
1.0016063
1.0019321
1.0022215
1.0024536
1.0026285
1.0027425
1.0027891
1.0027736
1.0027081
1.0026079
1.0024896
1.0023604
1.0022415
1.002132
1.0020352
1.0019727
1.0019304
1.0019321
1.0019388
1.0019688
1.0020145
1.0020702
1.0021016
1.0021316
1.0021607
1.0022517
1.0023038
1.0023273
1.0023767
1.0024091
1.002443
1.0024889
1.0025244
1.0025859
1.0026545
1.0027108
1.0027499
1.0028037
1.0028447
1.0029221
1.003021
1.0030361
1.0030228
1.00309
1.0031673
1.0031425
1.0031125
1.003163
1.0031921
1.0031781
1.0031607
1.003107
1.0031796
1.0031483
1.0032827
1.0032976
1.0033267
1.0032937
1.0033096
1.0033755
1.0033248
1.0033658
1.0034099
1.003434
1.0033456
1.0033654
1.0034057
1.0034077
1.0033978
1.0033339
1.0033832
1.0034934
1.0034938
1.0034325
1.0034948
1.0035903
1.0034382
1.0033172
1.003332
1.0035957
1.003738
1.0036158
1.0034667
1.0034907
1.0037125
1.0037395
1.0009497
1.0010315
1.00117
1.0014475
1.0017633