/*--------------------------------*- C++ -*----------------------------------*\
| =========                 |                                                 |
| \\      /  F ield         | OpenFOAM: The Open Source CFD Toolbox           |
|  \\    /   O peration     | Version:  2406                                  |
|   \\  /    A nd           | Website:  www.openfoam.com                      |
|    \\/     M anipulation  |                                                 |
\*---------------------------------------------------------------------------*/
FoamFile
{
    version     2.0;
    format      ascii;
    arch        "LSB;label=32;scalar=64";
    class       volScalarField;
    location    "160";
    object      nut;
}
// * * * * * * * * * * * * * * * * * * * * * * * * * * * * * * * * * * * * * //

dimensions      [0 2 -1 0 0 0 0];

internalField   nonuniform List<scalar> 
20580
(
8.954213e-07
9.5066842e-07
9.2152554e-07
8.7982112e-07
8.4434401e-07
8.2162299e-07
8.0744187e-07
8.0123004e-07
7.9486741e-07
7.9135398e-07
7.8707993e-07
7.8562123e-07
7.8545042e-07
7.8347743e-07
7.8566152e-07
7.8591408e-07
7.8819289e-07
7.953606e-07
8.0040152e-07
8.1368334e-07
8.251722e-07
8.4413788e-07
8.4901679e-07
8.9459191e-07
9.4604707e-07
9.7626733e-07
1.0025066e-06
1.0137192e-06
1.0343125e-06
1.0808152e-06
1.1242198e-06
8.9749698e-07
9.6227935e-07
9.3871918e-07
9.0441701e-07
8.6676317e-07
8.3760634e-07
8.1519355e-07
8.0467659e-07
7.9703784e-07
7.9278305e-07
7.8890802e-07
7.8708632e-07
7.8624119e-07
7.840396e-07
7.8397077e-07
7.8367245e-07
7.8569894e-07
7.9427779e-07
7.9570659e-07
8.0907346e-07
8.1944018e-07
8.3370016e-07
8.4797046e-07
8.7975892e-07
9.4333843e-07
1.0238992e-06
1.0674103e-06
1.1215531e-06
1.157808e-06
1.2402439e-06
1.2139307e-06
8.970829e-07
9.6856996e-07
9.4246592e-07
9.1184085e-07
8.7971219e-07
8.5397789e-07
8.3179855e-07
8.1567385e-07
8.04039e-07
7.9636244e-07
7.9121055e-07
7.8776436e-07
7.8608711e-07
7.8415563e-07
7.8251937e-07
7.8150625e-07
7.8158868e-07
7.882331e-07
7.8917648e-07
7.9713575e-07
8.1037446e-07
8.1984044e-07
8.3641296e-07
8.5687734e-07
9.0368431e-07
9.9387209e-07
1.0562119e-06
1.0911743e-06
1.1457261e-06
1.2211364e-06
1.3389567e-06
8.9654244e-07
9.6882529e-07
9.4299368e-07
9.1429524e-07
8.8272608e-07
8.5790211e-07
8.4153018e-07
8.2760018e-07
8.1543866e-07
8.0483284e-07
7.972544e-07
7.9120797e-07
7.8728143e-07
7.8479919e-07
7.8223861e-07
7.7875734e-07
7.801388e-07
7.8148166e-07
7.862736e-07
7.8669574e-07
8.0101343e-07
8.0589842e-07
8.2234821e-07
8.3658697e-07
8.7043726e-07
9.3346904e-07
1.0270766e-06
1.0876569e-06
1.1192431e-06
1.1767096e-06
1.2983104e-06
8.963353e-07
9.7029551e-07
9.3784364e-07
9.0659264e-07
8.8167273e-07
8.605538e-07
8.4339132e-07
8.3258501e-07
8.2535963e-07
8.1672911e-07
8.094843e-07
8.0052972e-07
7.9288345e-07
7.8876835e-07
7.8495018e-07
7.7985813e-07
7.8092288e-07
7.8012912e-07
7.8570118e-07
7.8329501e-07
7.9839275e-07
8.0363572e-07
8.1875624e-07
8.3269526e-07
8.6317897e-07
9.1408551e-07
9.9851559e-07
1.0897789e-06
1.1439665e-06
1.2572392e-06
1.3064818e-06
8.958113e-07
9.7674091e-07
9.3883606e-07
9.0593221e-07
8.8007481e-07
8.5791783e-07
8.4428629e-07
8.3435319e-07
8.2903528e-07
8.2294918e-07
8.1752154e-07
8.1250429e-07
8.0386196e-07
7.9899021e-07
7.9335991e-07
7.8857602e-07
7.8710188e-07
7.8502985e-07
7.8810479e-07
7.8620186e-07
7.9844136e-07
8.0248087e-07
8.1247001e-07
8.2764232e-07
8.4717993e-07
8.9256275e-07
9.5541758e-07
1.0745427e-06
1.1398262e-06
1.2858307e-06
1.3427548e-06
8.9658574e-07
9.7700084e-07
9.4079965e-07
9.0746255e-07
8.7994065e-07
8.5728268e-07
8.4300426e-07
8.3507142e-07
8.3034703e-07
8.2666857e-07
8.2255135e-07
8.2409328e-07
8.1990706e-07
8.2222579e-07
8.1513385e-07
8.1534448e-07
8.0964932e-07
8.0907313e-07
8.0596889e-07
8.0478758e-07
8.0791857e-07
8.1039928e-07
8.112794e-07
8.241916e-07
8.3325812e-07
8.4961058e-07
8.8550689e-07
9.9179401e-07
1.0866844e-06
1.2528903e-06
1.3401492e-06
9.0582304e-07
9.7895272e-07
9.4802e-07
9.1224632e-07
8.8117611e-07
8.5813406e-07
8.4320683e-07
8.3705964e-07
8.307455e-07
8.3038083e-07
8.2872478e-07
8.3407127e-07
8.3796905e-07
8.4591254e-07
8.4793609e-07
8.5587125e-07
8.5663233e-07
8.6103988e-07
8.578365e-07
8.6146807e-07
8.5461232e-07
8.519531e-07
8.4645149e-07
8.4508505e-07
8.4974336e-07
8.5514786e-07
8.7438257e-07
9.2331648e-07
9.9267206e-07
1.0857775e-06
1.2819083e-06
9.4717144e-07
1.0742931e-06
9.9720505e-07
9.3913296e-07
8.9510975e-07
8.6627948e-07
8.4649808e-07
8.3872589e-07
8.3215378e-07
8.3314039e-07
8.3244988e-07
8.3686295e-07
8.4303067e-07
8.5056619e-07
8.5825804e-07
8.6782793e-07
8.7343826e-07
8.7824734e-07
8.8376458e-07
8.9261229e-07
8.9310196e-07
8.9848715e-07
9.0999004e-07
9.1577263e-07
9.2138492e-07
9.2068137e-07
9.3242153e-07
9.6811805e-07
1.0379984e-06
1.1001453e-06
1.1890444e-06
1.1519388e-06
1.1352215e-06
1.0796163e-06
1.0259949e-06
9.554007e-07
9.0097632e-07
8.6493015e-07
8.4749067e-07
8.3709527e-07
8.3457805e-07
8.3536047e-07
8.3804909e-07
8.4489474e-07
8.4931753e-07
8.5533042e-07
8.6152522e-07
8.6525669e-07
8.6765839e-07
8.7567792e-07
8.8440015e-07
8.930894e-07
9.052357e-07
9.2386888e-07
9.4856733e-07
9.6910205e-07
1.0023302e-06
1.0490686e-06
1.1140599e-06
1.1647527e-06
1.2633378e-06
1.2779386e-06
9.4502464e-07
1.0647346e-06
1.0630806e-06
1.043326e-06
1.0130264e-06
9.7966182e-07
9.2912694e-07
8.8850337e-07
8.6819943e-07
8.5992854e-07
8.5946621e-07
8.605946e-07
8.6522588e-07
8.681954e-07
8.7034174e-07
8.7266526e-07
8.7290061e-07
8.7275093e-07
8.7657113e-07
8.8013322e-07
8.8511336e-07
9.0034424e-07
9.1956312e-07
9.437578e-07
9.6234837e-07
9.9783124e-07
1.0462039e-06
1.143955e-06
1.2006594e-06
1.3501024e-06
1.3915924e-06
8.6301355e-07
8.7920429e-07
9.2929017e-07
9.5331529e-07
9.7130035e-07
9.6224994e-07
9.6213071e-07
9.7322599e-07
9.7727616e-07
9.8728299e-07
1.0049048e-06
1.0177988e-06
1.0251484e-06
1.0275172e-06
1.0166076e-06
1.0061931e-06
9.9370723e-07
9.7752361e-07
9.6474048e-07
9.5259169e-07
9.3857954e-07
9.3112122e-07
9.442767e-07
9.5554425e-07
9.661206e-07
9.8114802e-07
1.0091113e-06
1.0639007e-06
1.1411777e-06
1.2695641e-06
1.4486451e-06
8.6610904e-07
8.6949648e-07
8.7971744e-07
8.8516354e-07
8.8930203e-07
8.9421866e-07
9.1997022e-07
9.4789069e-07
9.8342166e-07
1.03263e-06
1.0819851e-06
1.1307477e-06
1.1766004e-06
1.2222709e-06
1.2567648e-06
1.2800771e-06
1.2914794e-06
1.2886364e-06
1.2857154e-06
1.2755066e-06
1.2430448e-06
1.2088454e-06
1.1814762e-06
1.1300335e-06
1.0926354e-06
1.0533216e-06
1.0562326e-06
1.0744311e-06
1.1220392e-06
1.1703283e-06
1.2850983e-06
8.867708e-07
9.9455363e-07
9.6977438e-07
9.4521525e-07
9.1488094e-07
9.0176717e-07
8.8622616e-07
8.883814e-07
9.1106247e-07
9.3917799e-07
9.7867618e-07
1.0187802e-06
1.0644844e-06
1.1104054e-06
1.158414e-06
1.1994939e-06
1.2323182e-06
1.2585012e-06
1.2836358e-06
1.3038908e-06
1.3197351e-06
1.3429199e-06
1.374425e-06
1.4014143e-06
1.4077232e-06
1.4120973e-06
1.4180961e-06
1.4102697e-06
1.4034835e-06
1.4160153e-06
1.4156719e-06
1.0070441e-06
1.0724063e-06
1.0347551e-06
1.0117697e-06
9.7536632e-07
9.3966141e-07
9.1224181e-07
8.9654035e-07
8.9407013e-07
9.0222895e-07
9.1290579e-07
9.1738967e-07
9.3658343e-07
9.5389367e-07
9.6210112e-07
9.8586905e-07
9.9852687e-07
1.0256429e-06
1.0550803e-06
1.0846372e-06
1.1288964e-06
1.1678928e-06
1.2236115e-06
1.3265384e-06
1.3735967e-06
1.4525139e-06
1.5041231e-06
1.6041617e-06
1.6661802e-06
1.8038557e-06
1.8307123e-06
9.1531541e-07
1.0281671e-06
9.9054472e-07
9.6579897e-07
9.3601548e-07
9.1179928e-07
8.9752e-07
8.8912811e-07
8.809795e-07
8.8821175e-07
8.9842747e-07
9.0096476e-07
9.1552657e-07
9.3349435e-07
9.4543948e-07
9.5201395e-07
9.7065e-07
9.7390603e-07
9.8333095e-07
9.8955474e-07
1.004689e-06
1.0316626e-06
1.0529401e-06
1.1003292e-06
1.180952e-06
1.2816433e-06
1.3635851e-06
1.4844985e-06
1.6121762e-06
1.7499275e-06
1.9000434e-06
8.8244511e-07
9.443609e-07
9.2635067e-07
9.1264609e-07
9.0085172e-07
8.9349305e-07
8.918151e-07
8.871692e-07
8.8426105e-07
8.905116e-07
8.8720743e-07
8.7847884e-07
8.7886923e-07
8.9132787e-07
9.0285428e-07
9.1150477e-07
9.3316551e-07
9.4816088e-07
9.6055829e-07
9.7160631e-07
9.8600072e-07
1.0023304e-06
1.0191601e-06
1.037996e-06
1.0740389e-06
1.1249381e-06
1.1608307e-06
1.2007163e-06
1.3172794e-06
1.4243142e-06
1.6448453e-06
8.8557803e-07
9.3592626e-07
9.251487e-07
9.1959688e-07
9.1772148e-07
9.1893863e-07
9.23891e-07
9.2846651e-07
9.3191556e-07
9.3084936e-07
9.1927206e-07
9.0068517e-07
8.8191476e-07
8.6826946e-07
8.5555643e-07
8.5023366e-07
8.5192711e-07
8.6198491e-07
8.7330525e-07
8.8737537e-07
9.0982578e-07
9.279484e-07
9.4296089e-07
9.5936656e-07
9.8677437e-07
1.0188944e-06
1.0507773e-06
1.0713691e-06
1.1149744e-06
1.163814e-06
1.2505897e-06
8.8677005e-07
9.8356351e-07
9.5602041e-07
9.3252908e-07
9.076768e-07
8.9811771e-07
8.8708787e-07
8.8782524e-07
8.8994956e-07
8.8128672e-07
8.667189e-07
8.5443021e-07
8.4042463e-07
8.3020598e-07
8.2277233e-07
8.1807723e-07
8.1770375e-07
8.1787923e-07
8.2383589e-07
8.2780225e-07
8.4557956e-07
8.6379531e-07
8.8168477e-07
9.0194699e-07
9.3698802e-07
9.7977923e-07
1.0341574e-06
1.0804931e-06
1.1342663e-06
1.1983305e-06
1.2503868e-06
8.9357637e-07
9.7892355e-07
9.3526097e-07
9.0086237e-07
8.775893e-07
8.5564926e-07
8.5136135e-07
8.5261997e-07
8.5648655e-07
8.6058288e-07
8.6388451e-07
8.6067719e-07
8.5844261e-07
8.5552598e-07
8.5163647e-07
8.5409167e-07
8.6484439e-07
8.8071712e-07
9.0493083e-07
9.4066548e-07
9.8667458e-07
1.0473691e-06
1.0973672e-06
1.0639301e-06
1.1994986e-06
8.7586735e-07
8.464677e-07
1.3767815e-06
9.3132118e-07
1.4808143e-06
1.4751115e-06
8.5563508e-07
8.9248731e-07
9.2715201e-07
1.0353863e-06
1.1312008e-06
1.1497348e-06
1.2253226e-06
1.2375446e-06
1.2586806e-06
1.2880218e-06
1.3190544e-06
1.3041543e-06
1.3215471e-06
1.3382845e-06
1.3532407e-06
1.3678414e-06
1.4809476e-06
1.6048686e-06
1.7646663e-06
1.9283758e-06
2.0797597e-06
1.6798064e-06
2.3358352e-06
2.415685e-06
2.4858789e-06
1.7496e-06
1.4181028e-06
2.6769834e-06
2.1992565e-06
2.6574971e-06
2.5633117e-06
9.4147735e-07
1.3570629e-06
1.9720424e-06
2.1528255e-06
2.7920426e-06
2.5730651e-06
2.8982629e-06
2.8392694e-06
2.787237e-06
2.8450719e-06
2.8873929e-06
2.8072212e-06
2.8623811e-06
2.8162549e-06
2.9149179e-06
3.1580471e-06
3.5177206e-06
3.5705275e-06
4.1919523e-06
4.4413951e-06
4.5849304e-06
3.9026223e-06
4.5515334e-06
4.7500425e-06
4.7578521e-06
3.802229e-06
3.4544771e-06
4.101048e-06
4.7472179e-06
4.7070063e-06
4.2711254e-06
7.6830932e-07
1.7310254e-06
2.0571115e-06
2.4443536e-06
2.0571477e-06
2.5766188e-06
2.1359647e-06
2.5705497e-06
2.2040738e-06
2.5752771e-06
2.2085212e-06
2.4174452e-06
2.4812332e-06
2.2978623e-06
2.4132267e-06
2.3446389e-06
2.3051602e-06
2.3448308e-06
2.2640864e-06
2.118081e-06
2.1994839e-06
2.4051462e-06
2.3392988e-06
2.0433385e-06
1.9947566e-06
2.3646647e-06
2.8905356e-06
2.4369348e-06
1.8920997e-06
1.8514728e-06
2.2288947e-06
3.1003841e-06
3.5145267e-06
2.0860102e-06
1.4671357e-06
1.3534278e-06
1.3127769e-06
1.6832418e-06
2.0395977e-06
2.0213557e-06
1.6929717e-06
1.456136e-06
1.5948339e-06
1.5579226e-06
1.4257556e-06
1.2980728e-06
1.3534908e-06
1.4745651e-06
1.5129873e-06
1.484285e-06
1.4190193e-06
1.4262335e-06
1.3644086e-06
1.211472e-06
2.0471888e-06
4.4635876e-06
3.1445272e-06
1.9082215e-06
1.5119541e-06
1.3903137e-06
1.704691e-06
2.2770408e-06
2.282987e-06
2.0328664e-06
1.6334734e-06
1.7842434e-06
1.7677793e-06
1.6972346e-06
1.4963679e-06
1.4970971e-06
1.6265019e-06
1.6851578e-06
1.6956941e-06
1.614565e-06
1.6150384e-06
1.6067589e-06
1.50028e-06
1.4218787e-06
4.5342459e-06
2.255463e-06
1.5208383e-06
1.7420827e-06
1.532779e-06
1.8324068e-06
2.4573547e-06
2.5370067e-06
2.4093287e-06
1.8816511e-06
1.9386002e-06
1.936391e-06
1.8988816e-06
1.737395e-06
1.6672928e-06
1.7759817e-06
1.8433894e-06
1.8313428e-06
1.7514492e-06
1.7677293e-06
1.8024734e-06
1.8074142e-06
1.6921797e-06
3.0265958e-06
3.4598249e-06
2.5292346e-06
1.562088e-06
1.2611871e-06
2.0918362e-06
2.8153069e-06
3.0061074e-06
2.9975292e-06
2.3389375e-06
2.2286437e-06
2.2759977e-06
2.286157e-06
2.1964078e-06
1.9412353e-06
1.9655086e-06
2.0262768e-06
2.0610111e-06
2.0180305e-06
1.9527712e-06
1.9859657e-06
1.9965695e-06
3.0097491e-06
2.6024868e-06
1.9294516e-06
1.8005026e-06
1.9620211e-06
2.1321262e-06
2.4658404e-06
3.3716924e-06
3.5701707e-06
3.6727371e-06
3.3044422e-06
2.6901715e-06
2.780444e-06
2.7302691e-06
2.7111474e-06
2.4579409e-06
2.3001572e-06
2.3866073e-06
2.3811775e-06
2.4105375e-06
2.3276914e-06
2.3326139e-06
2.3044123e-06
2.716294e-06
2.3633186e-06
2.4979799e-06
3.3170022e-06
2.4035245e-06
1.4905342e-06
1.7697794e-06
3.6119772e-06
4.0320466e-06
4.1491895e-06
4.0518515e-06
3.3408659e-06
3.3437247e-06
3.2760973e-06
3.0726626e-06
2.8907728e-06
2.6397867e-06
2.742902e-06
2.8965619e-06
2.9463363e-06
2.9243848e-06
2.8935127e-06
2.9378707e-06
9.9567869e-07
2.8325413e-06
3.9144137e-06
3.0296538e-06
3.1448841e-06
2.8618574e-06
3.0687605e-06
4.1697003e-06
4.7577774e-06
4.8763418e-06
4.9017155e-06
4.2813336e-06
4.0925487e-06
4.0313664e-06
3.758386e-06
3.4362532e-06
3.0923324e-06
3.1046651e-06
3.256132e-06
3.3217234e-06
3.3205342e-06
3.2671217e-06
3.301215e-06
9.8434606e-07
3.3431799e-06
3.353683e-06
3.0309107e-06
3.5853055e-06
3.5490367e-06
3.5952518e-06
4.4001989e-06
6.0330863e-06
6.0607181e-06
6.1054444e-06
5.6303527e-06
5.1472513e-06
5.2263501e-06
5.0718638e-06
4.508227e-06
3.9293705e-06
3.74483e-06
3.9648846e-06
3.9994878e-06
3.8469835e-06
3.6576862e-06
3.5827733e-06
1.9089281e-06
1.8907215e-06
4.531317e-06
5.5059867e-06
5.8539418e-06
3.3017842e-06
3.2501856e-06
5.7129017e-06
8.4899167e-06
8.330588e-06
8.1808265e-06
7.7536865e-06
7.2584206e-06
7.5983759e-06
7.5092154e-06
6.5520583e-06
5.356256e-06
4.7874566e-06
4.9449843e-06
5.2227196e-06
4.9784396e-06
4.5331655e-06
4.1060387e-06
9.2281666e-07
2.2572369e-06
3.7146522e-06
5.2476031e-06
6.2534101e-06
7.1481348e-06
7.5409899e-06
1.1103928e-05
1.2207047e-05
9.6296233e-06
1.1316079e-05
1.0601891e-05
9.6405732e-06
1.0219093e-05
1.059928e-05
1.0086435e-05
8.050632e-06
6.5461832e-06
6.6328859e-06
7.7166068e-06
7.5154769e-06
6.3871552e-06
5.2782644e-06
8.1907863e-07
2.7868311e-06
3.566175e-06
5.2898456e-06
8.0729176e-06
8.8556509e-06
1.1018832e-05
1.7023525e-05
2.1212173e-05
2.0620991e-05
1.6294801e-05
1.6089778e-05
1.3998299e-05
1.5106669e-05
1.6925955e-05
1.6498364e-05
1.284893e-05
9.7673363e-06
8.6429711e-06
9.6025115e-06
1.0275525e-05
9.584704e-06
7.7772752e-06
1.1080674e-06
2.2227554e-06
3.9556966e-06
9.368266e-06
1.2079268e-05
1.2725315e-05
1.6887981e-05
2.3041336e-05
3.1013947e-05
3.2006943e-05
2.8396561e-05
2.6001708e-05
1.8194258e-05
2.234784e-05
3.0404412e-05
2.8274045e-05
2.0608532e-05
1.4878663e-05
1.2323274e-05
1.2639982e-05
1.4246158e-05
1.4078373e-05
1.1513748e-05
1.2116416e-06
2.5091525e-06
8.8527083e-06
1.2165381e-05
1.5336982e-05
2.4318839e-05
3.5917556e-05
4.7854315e-05
5.0005494e-05
5.0847625e-05
4.2270685e-05
3.9061763e-05
4.0534882e-05
4.9710472e-05
5.5049553e-05
4.4844688e-05
2.7429618e-05
2.1989493e-05
1.9370598e-05
1.9248624e-05
2.183819e-05
2.1856447e-05
1.808718e-05
1.8414085e-06
4.5687228e-06
1.1286187e-05
1.5506646e-05
2.4185785e-05
3.6678064e-05
5.7521558e-05
6.9713163e-05
7.3448038e-05
7.7139165e-05
6.8784897e-05
6.7664187e-05
7.5451763e-05
0.00010237832
0.00010835859
8.394257e-05
4.8279998e-05
3.5221135e-05
3.198261e-05
3.2663949e-05
3.6918042e-05
3.5319725e-05
2.7191964e-05
3.6369642e-06
5.968385e-06
1.3561481e-05
1.9433067e-05
3.1773908e-05
4.966765e-05
7.4852195e-05
8.6408887e-05
8.9937342e-05
9.1957653e-05
8.9135604e-05
9.4748409e-05
0.00012085995
0.00015709559
0.00016252737
0.00012533271
6.9249706e-05
5.3433445e-05
4.8303759e-05
4.9184232e-05
5.8249187e-05
5.2678165e-05
3.6521872e-05
4.1213104e-06
6.9946319e-06
1.6959062e-05
2.5298441e-05
4.1986089e-05
6.5083836e-05
8.9253101e-05
9.9894279e-05
0.00010309883
0.00010612073
0.00011092005
0.00012343259
0.00016567298
0.00020305976
0.00020504474
0.00016039698
0.00010142834
8.7098367e-05
9.0465409e-05
0.00011120524
0.00012138096
0.00010121015
6.2499585e-05
3.6140209e-06
7.8002429e-06
1.5876575e-05
3.0291482e-05
5.0523857e-05
7.740511e-05
0.00010006649
0.00011069322
0.00011585323
0.00012663094
0.00013903452
0.00015711617
0.00020673568
0.0002432783
0.00024381521
0.00019942827
0.0001405196
0.00012742164
0.00013927276
0.00015869055
0.00016140716
0.00013477099
8.4107575e-05
4.0208963e-06
8.5722238e-06
1.4618839e-05
3.4835121e-05
5.8393031e-05
8.7042654e-05
0.00010888362
0.00012015305
0.00012839723
0.00014659862
0.00016308364
0.00018865168
0.00024291927
0.00027532489
0.00027093767
0.00022354145
0.00016861579
0.00015756862
0.0001733791
0.00019135378
0.00018993972
0.00015799077
0.00010554993
4.3340457e-06
8.9220678e-06
1.4413316e-05
3.2037717e-05
6.5644352e-05
9.6574283e-05
0.00011941478
0.00013240945
0.00014511705
0.00017095024
0.00019045612
0.0002242775
0.0002796054
0.00030818733
0.00030118961
0.00025899078
0.00023198769
0.00023072319
0.00026070281
0.00027418417
0.00025487418
0.00019636898
0.00014278727
3.3604086e-06
8.4341993e-06
1.4872516e-05
2.9681481e-05
6.3848108e-05
0.00010360672
0.00013028799
0.00014656321
0.00016417526
0.00019038127
0.00021101023
0.00026261942
0.00031670105
0.00034399805
0.00034155751
0.0003209534
0.00031171475
0.00032833804
0.00035648897
0.00036184677
0.00033079376
0.00024531784
0.00018084187
2.9235974e-06
5.5127407e-06
1.6969676e-05
3.0695983e-05
5.103391e-05
9.7570567e-05
0.00014120928
0.00016424045
0.00015005088
0.00014752718
0.00025829156
0.00031286431
0.0002496672
0.00023695077
0.00031083623
0.00039323459
0.00039299395
0.00041559848
0.00042301231
0.00041958181
0.00037290353
0.00028464666
0.00023422349
2.7319197e-06
4.1013475e-06
1.6720897e-05
3.6755006e-05
5.6011119e-05
7.4553166e-05
9.2767256e-05
0.00010093411
0.00011513322
0.00020308741
0.00031539587
0.00025089331
0.00018981358
0.00020304528
0.00029465502
0.00045837855
0.00046936185
0.00048562193
0.00047229759
0.00044671813
0.00040278216
0.00033905173
0.00032227064
1.8605226e-06
4.5270437e-06
1.3030765e-05
3.3217481e-05
7.2549402e-05
7.0672998e-05
7.3483363e-05
9.2896888e-05
0.00017214282
0.00032936417
0.00029280376
0.00020917814
0.00020641991
0.00023806078
0.00034794833
0.00052510327
0.00053994688
0.00037994668
0.00033947992
0.00037006377
0.0004391611
0.00040591486
0.00038566972
1.4594426e-06
7.9833728e-06
1.1546005e-05
2.8083891e-05
7.0511369e-05
9.5800111e-05
0.0001317042
0.00020999747
0.00033655962
0.00030005008
0.00027790344
0.00031729636
0.00033986205
0.00037171125
0.00047437502
0.00056791195
0.00045059581
0.000386971
0.00045333462
0.00051494993
0.00045826713
0.00041759481
0.00038147463
1.6099521e-06
8.1989988e-06
1.08219e-05
2.7972255e-05
7.3896039e-05
0.00014486444
0.00022040844
0.00030007091
0.0003047231
0.00034346435
0.00045144405
0.00047787303
0.00050764797
0.00054989271
0.00048940764
0.00045814109
0.0005991488
0.00058382541
0.00055089916
0.00049858516
0.00044074416
0.00039644624
0.00035570564
2.5857925e-06
9.2442187e-06
2.0595327e-05
4.0285539e-05
8.4272437e-05
9.4508023e-05
0.00012682839
0.00021543516
0.00041321052
0.00045718674
0.0004900234
0.00044456023
0.0003820653
0.00042724849
0.00060710678
0.00060938396
0.00059193609
0.00046975266
0.00050860445
0.00046312462
0.00041544231
0.00036558082
0.00030717036
4.584743e-06
1.9451142e-05
2.8714455e-05
5.4042863e-05
9.3263182e-05
0.00014996052
0.00022027097
0.00031363144
0.00043902918
0.00048959913
0.00037923825
0.00034997302
0.00042874789
0.00061919276
0.00061366015
0.0005488227
0.0004243753
0.00044742978
0.00045158198
0.00041696796
0.00036945064
0.00030584129
0.00026703233
5.1467267e-06
2.4324922e-05
3.7793169e-05
7.4409049e-05
0.00015032228
0.00023882582
0.00032450997
0.00040421492
0.00043239528
0.00044397803
0.00056708763
0.00059535322
0.0006140099
0.00061065208
0.00049824502
0.00052246549
0.00046809163
0.00042097371
0.00038681757
0.000350345
0.00030348813
0.00027374813
0.00025971555
4.2770453e-06
2.4898826e-05
3.6995557e-05
0.00010091258
0.00018818914
0.00027955647
0.00036471221
0.00043999045
0.00050083344
0.00054422544
0.00057035912
0.00049737916
0.00047615151
0.00057069477
0.00053398674
0.00047682609
0.00041259847
0.00036632726
0.00033436614
0.00030838105
0.00028792817
0.00028036535
0.00028282391
4.5826213e-06
3.0486449e-05
5.0163615e-05
0.00012026477
0.00022543776
0.00031491771
0.00039829356
0.00046773643
0.0005175688
0.00054399165
0.00055280134
0.00055022308
0.00053857611
0.00051784585
0.00047948811
0.00042297459
0.00037142831
0.00034282238
0.00032371041
0.00031896613
0.00031507299
0.00032949914
0.00037354488
6.4467496e-06
5.4276117e-05
9.8640541e-05
0.00017271115
0.00025765632
0.00033996498
0.00041390697
0.00047348075
0.00051509091
0.00053310605
0.00053420989
0.00052147399
0.00049893386
0.00046751563
0.00042177836
0.00036915819
0.00034420855
0.00033132187
0.00034028266
0.00035982396
0.00039086348
0.00043524663
0.00048054788
8.3330046e-06
7.3137817e-05
0.00012854219
0.00020441116
0.00028292093
0.00035764321
0.00042178829
0.00047119868
0.00050188101
0.00051473509
0.0005125135
0.00049376165
0.00046248479
0.00042147058
0.00037419833
0.0003458142
0.00033426827
0.00034328964
0.00038494113
0.00044401365
0.00049068008
0.00048797427
0.00033533766
8.0822918e-06
7.930198e-05
0.00015111724
0.00022591806
0.00030292353
0.0003739688
0.00042855602
0.0004659059
0.00048321055
0.00048656272
0.00047600406
0.00045230222
0.00042056971
0.00038571596
0.00036039083
0.00034920482
0.00035744053
0.0004008556
0.00047196809
0.00052035003
0.00055611836
0.0005760201
0.00036555279
9.9753154e-06
0.00010166385
0.00016726715
0.00024182729
0.00031651377
0.00038211145
0.00043174859
0.00046145232
0.00046851265
0.00046177735
0.00043811017
0.00040502255
0.00037931525
0.00036403146
0.00036257095
0.00037800003
0.00042165852
0.00049245399
0.0005408356
0.00057112853
0.00058706238
0.00058340641
0.00054457765
1.6223781e-05
0.00012232652
0.00018741212
0.00026110691
0.00033039349
0.0003876012
0.00042630898
0.00044384766
0.00044354307
0.00042823654
0.00039883654
0.00037456013
0.00036074255
0.0003643987
0.00038609048
0.00043204914
0.00049450684
0.000554078
0.00058843886
0.00055689306
0.00057781159
0.00053674478
0.00046943249
1.5754305e-05
0.00012656799
0.00019334001
0.00026254324
0.00032457127
0.00037402024
0.0004066108
0.00042175868
0.00042337741
0.00041148472
0.00038740039
0.0003669912
0.0003573853
0.00036723242
0.00039984317
0.00045139739
0.00051159476
0.00055967072
0.00058172587
0.00057382702
0.00050482318
0.0004942064
0.00045564278
1.3398274e-05
0.00012441621
0.00019334444
0.00025897026
0.00031714586
0.00036271643
0.00039194391
0.0004040281
0.00040328136
0.00039108847
0.00037064731
0.00035438766
0.00034919556
0.00036356669
0.00039952833
0.00044881732
0.00049827817
0.00053509107
0.0005528498
0.00054973284
0.00052591268
0.00047497021
0.00034260681
1.515248e-05
0.00012469372
0.00019256912
0.00025446635
0.00030839643
0.00035077235
0.00037821068
0.00038901945
0.00038682222
0.00037347775
0.00035388522
0.00034047452
0.00034034699
0.0003619718
0.00040386757
0.00045396091
0.0004981989
0.00052866446
0.00054079416
0.00053610465
0.00052017477
0.00049958159
0.00047286535
2.141267e-05
0.00012544824
0.0001942775
0.0002521871
0.00030031601
0.00033749359
0.00036182796
0.00037187772
0.00037027324
0.00035782848
0.00034049023
0.00032986264
0.00033430021
0.00036149594
0.00040633483
0.00045584854
0.00049649713
0.00052477552
0.00053768864
0.00053772406
0.00053034823
0.00052031654
0.00050691282
1.8747238e-05
0.00012273886
0.00019255656
0.00024902736
0.00029370188
0.00032658311
0.0003470972
0.00035472137
0.00035262425
0.00034131749
0.00032788447
0.00032158453
0.00033241921
0.0003663644
0.00041396146
0.00046187161
0.00050024511
0.00052904574
0.00054624278
0.00055416466
0.00055591073
0.00055196611
0.00054030199
1.4964955e-05
0.00011987815
0.00019061785
0.00024581246
0.00028836618
0.00031869478
0.0003363395
0.00034146029
0.00033733353
0.00032548505
0.00031467444
0.00031300113
0.00033104167
0.00037182201
0.00042234746
0.00046937074
0.00050793092
0.00053956593
0.00056311226
0.00057971945
0.00058893707
0.00058827315
0.00057712187
1.8669528e-05
0.00011534239
0.00018389885
0.000239046
0.00028072982
0.00030970619
0.00032576007
0.0003296347
0.00032416543
0.00031192106
0.00030293161
0.00030550574
0.00033049807
0.00037686476
0.00043018704
0.0004783024
0.00052020641
0.00055786897
0.00058862324
0.00061086789
0.00062293566
0.00061600861
0.00054279443
2.1117274e-05
0.00011393692
0.00018248114
0.00023345485
0.00027227774
0.00029886891
0.00031338889
0.00031666003
0.00031083766
0.00029955962
0.00029283992
0.00030016776
0.00033210289
0.00038325477
0.00043954612
0.00049048718
0.00053686352
0.0005807085
0.00059956177
0.00057081449
0.00054465945
0.00053171845
0.00050672654
1.901508e-05
0.00010330505
0.00017256454
0.00022490765
0.0002629305
0.00028856579
0.00030193593
0.00030491317
0.00029901078
0.00028871807
0.00028405038
0.00029582243
0.00033391867
0.00038902717
0.00044840973
0.00050340354
0.00054074024
0.00054270544
0.00054671536
0.00054483034
0.00054214523
0.0005476859
0.00053699968
1.2158407e-05
9.5705098e-05
0.0001622424
0.0002147061
0.00025248485
0.0002786884
0.00029222996
0.00029484951
0.00028888605
0.00027936038
0.00027601262
0.00029073575
0.00033270354
0.00039081547
0.00045304121
0.00051265709
0.00056304584
0.0006034514
0.00062375208
0.00062192207
0.00061213957
0.0006065642
0.0005586359
1.5690437e-05
7.8555301e-05
0.0001455035
0.00019902113
0.00024007378
0.00026641513
0.00028200358
0.00028560802
0.00027958915
0.00026978183
0.00026681813
0.00028307491
0.00032715198
0.00038823451
0.00045443691
0.0005194964
0.0005816791
0.00063825223
0.00068427775
0.00063043862
0.00058607495
0.00054908093
0.00053107338
6.852347e-06
6.8306941e-05
0.00013255708
0.00018400927
0.00022549523
0.00025434377
0.0002701212
0.00027647855
0.00027253756
0.0002623871
0.00025771298
0.00027311481
0.00031801573
0.00038164681
0.00045200264
0.00052259233
0.00059078048
0.00065275652
0.00060497034
0.00055205316
0.00052809794
0.00052613296
0.00056082002
7.719037e-06
5.0842555e-05
0.00010753513
0.00016182675
0.0002062415
0.00024077079
0.00026036711
0.00026738791
0.00026634766
0.00025801544
0.00025134898
0.000262105
0.0003044884
0.0003692544
0.00044250632
0.00051705358
0.00059023226
0.00060677105
0.00059431341
0.00058709335
0.00060431544
0.00064081792
0.00064952833
4.0267046e-06
3.940588e-05
8.9842116e-05
0.00013923232
0.00018260619
0.00021976313
0.00024797995
0.00026002015
0.00025918703
0.00025305961
0.00024429342
0.00025030662
0.00028403785
0.00034833039
0.00042343951
0.00050204266
0.00058010879
0.00065306197
0.00071313019
0.00072115776
0.00071190311
0.00071308257
0.00064822515
5.1363697e-06
3.9135331e-05
8.0942096e-05
0.00011909577
0.00016182102
0.00019723737
0.0002276488
0.00024991735
0.0002555576
0.00025057143
0.00023961531
0.0002386094
0.0002601454
0.00031866418
0.00039517124
0.00047685009
0.00055998487
0.00063973492
0.00070750411
0.00073411992
0.00068106908
0.00063705931
0.0006009207
3.9730268e-06
3.6502827e-05
7.0719672e-05
0.00010484235
0.00014092954
0.0001782128
0.00020687344
0.00023065922
0.00024717225
0.00024987678
0.00024240433
0.00023194724
0.00024081211
0.00028017394
0.00035712782
0.00043982623
0.00052473559
0.00060912681
0.00068604031
0.00069619278
0.00066968521
0.00065000178
0.00065785873
4.7354117e-06
2.9932792e-05
5.2723656e-05
8.4774623e-05
0.00011951169
0.00015604882
0.00019066584
0.00021418549
0.00023075503
0.00024112777
0.00024238536
0.00023423066
0.00023073481
0.00024708434
0.00030369737
0.00039022153
0.00047743805
0.00056258429
0.00064621381
0.00072261343
0.00078873418
0.000774652
0.00074056628
4.4418732e-06
2.771612e-05
4.4490605e-05
6.5073666e-05
9.4013765e-05
0.00013026794
0.00016447553
0.00019650424
0.00021679671
0.00022839156
0.00023353407
0.00023350589
0.0002269594
0.00023056701
0.00025530983
0.00032270485
0.00041743293
0.000508441
0.00059281259
0.00067614011
0.00075365118
0.00079852465
0.00073362053
5.251918e-06
2.8393925e-05
4.5804604e-05
6.4584244e-05
8.1312157e-05
0.00010500504
0.00013563334
0.00017011897
0.00020145692
0.00021966506
0.0002287731
0.00023121272
0.00022813163
0.00022488887
0.0002320908
0.00026272107
0.00033594382
0.00043465784
0.00052995714
0.0006140996
0.00069735218
0.00074853034
0.00072099211
5.3296312e-06
2.9354926e-05
4.7670501e-05
6.9198869e-05
9.0599466e-05
0.00010022596
0.00011808828
0.00014440615
0.00017535247
0.00020164879
0.00022059902
0.00022884663
0.00022843824
0.00022454792
0.00022308717
0.00023358511
0.00026551909
0.00033987013
0.00044179414
0.00054069423
0.00062510568
0.00070875686
0.00073617463
5.9368999e-06
3.206785e-05
5.3062894e-05
7.8499547e-05
0.00010480074
0.00011860908
0.00012239556
0.0001344531
0.00015431998
0.0001825543
0.00020021665
0.00021974703
0.00022672161
0.00022508528
0.00022208915
0.00022173039
0.00023255728
0.00026321916
0.00033441809
0.00043848273
0.00054154735
0.00062964155
0.0007136621
5.9416771e-06
3.4162655e-05
5.9325533e-05
9.2065949e-05
0.00012341467
0.00014652136
0.00014485519
0.00014527324
0.00015392375
0.00016992896
0.00019576858
0.00020328209
0.0002170359
0.00022378023
0.00022255503
0.00022058718
0.000220613
0.00022997987
0.00025745701
0.00032101268
0.00042375255
0.00053442225
0.00062937691
6.1003148e-06
3.727374e-05
6.9118322e-05
0.00011145228
0.00014617802
0.00015489093
0.00016178406
0.00016505082
0.00016669087
0.00017621416
0.00019232752
0.00021688656
0.00022521266
0.00021888706
0.00022294009
0.00022106696
0.00021954027
0.00022064616
0.00022777567
0.00024960179
0.00030238221
0.00039882278
0.00052140841
5.9070031e-06
4.2706661e-05
8.5734236e-05
0.000131829
0.00014389115
0.00015289436
0.00016269566
0.00017303909
0.00018165611
0.00018947505
0.00020357656
0.00022288011
0.0002480104
0.00025852094
0.00024104107
0.00022435095
0.00022143262
0.00021939372
0.00022172382
0.00022645072
0.00024342818
0.00028713997
0.00038836379
5.6042678e-06
4.6054622e-05
9.8233912e-05
0.00013335507
0.00014930235
0.0001596979
0.0001699534
0.00018127244
0.00019409733
0.00020704652
0.00021904358
0.00023514948
0.00025985696
0.00028789272
0.00029514893
0.00027536812
0.00023891497
0.00022244004
0.00022011507
0.00022129188
0.00022548219
0.00023978974
0.0002840806
5.22727e-06