/*--------------------------------*- C++ -*----------------------------------*\
| =========                 |                                                 |
| \\      /  F ield         | OpenFOAM: The Open Source CFD Toolbox           |
|  \\    /   O peration     | Version:  2406                                  |
|   \\  /    A nd           | Website:  www.openfoam.com                      |
|    \\/     M anipulation  |                                                 |
\*---------------------------------------------------------------------------*/
FoamFile
{
    version     2.0;
    format      ascii;
    arch        "LSB;label=32;scalar=64";
    class       volScalarField;
    location    "160";
    object      p;
}
// * * * * * * * * * * * * * * * * * * * * * * * * * * * * * * * * * * * * * //

dimensions      [1 -1 -2 0 0 0 0];

internalField   nonuniform List<scalar> 
20580
(
1.0068475
1.0020645
1.0066586
1.0061633
1.0026614
1.0047313
1.0048937
1.0063355
1.0047782
1.0047981
1.0050845
1.0061444
1.0046961
1.0047836
1.0061056
1.005898
1.0018764
1.0064206
1.0095923
1.0000881
1.0032824
1.0098405
1.0047687
0.99589152
1.0027712
1.0178603
1.0148387
1.0032555
1.0126362
1.0133373
0.97452285
1.0070808
1.0017638
1.0066665
1.0065823
1.0023318
1.0051067
1.0049222
1.0064066
1.0043211
1.0045163
1.0056728
1.0062283
1.00401
1.0049983
1.0067201
1.0045378
1.0009076
1.0094902
1.0077058
0.99815106
1.0068491
1.0111287
1.0017337
0.99447056
1.006823
1.0275591
1.0201958
0.99388443
0.99583537
1.0182166
1.0059566
1.0061474
1.0029547
1.0056624
1.0062895
1.0032793
1.0056352
1.0051065
1.0057527
1.0040566
1.0042446
1.0060855
1.0060547
1.0036972
1.005242
1.0069144
1.0039102
1.0009405
1.0112259
1.0061083
0.99753125
1.0101082
1.0127078
1.0003582
0.99727339
1.0070888
1.0258075
1.0217443
0.99064396
0.98112676
1.0137931
1.0396567
1.0043952
1.0053851
1.0042306
1.0052097
1.0050224
1.0059576
1.005339
1.0046292
1.0044219
1.0042251
1.0060825
1.0056641
1.0038819
1.0054657
1.0065753
1.0040915
1.0019844
1.0113865
1.0046832
0.99836129
1.0123511
1.0123357
1.001178
1.0024785
1.0074008
1.015915
1.0175227
0.9932829
0.9751372
1.0009155
1.0487138
1.0024503
1.0078786
1.0031732
1.0036208
1.0065768
1.0057184
1.005535
1.0036109
1.0050567
1.0047492
1.0058246
1.0050636
1.0045772
1.0057678
1.0058701
1.0045629
1.0039542
1.0105025
1.0029629
1.0007565
1.0132844
1.0087947
1.0024051
1.0093055
1.0090292
1.0037298
1.0073849
1.0001367
0.98307179
0.98925951
1.0306961
1.0011798
1.0092633
1.0029694
1.0024519
1.0070836
1.0049029
1.0054299
1.0033506
1.0053476
1.0056062
1.0054602
1.0044454
1.0054279
1.0059857
1.004948
1.0047834
1.0065845
1.0086551
1.0010831
1.0040769
1.0132158
1.0040633
1.0004227
1.0153819
1.0127276
0.99488669
0.9946487
1.0085441
1.0031475
0.9904778
0.99986827
1.0012803
1.0092352
1.0036368
1.0024511
1.0064263
1.003883
1.0047405
1.0039715
1.0052478
1.0061753
1.0050652
1.0040293
1.0060816
1.0060636
1.0039716
1.0047087
1.008889
1.0062225
1.0000084
1.0072727
1.0122252
1.0001903
0.99712469
1.0170227
1.0174394
0.99212446
0.98569148
1.0121444
1.0262837
1.0076841
0.9811283
1.0026887
1.007812
1.0046758
1.0034431
1.0050821
1.0033182
1.0037983
1.0048776
1.0048563
1.0061372
1.0048811
1.0040045
1.006298
1.0060698
1.0033941
1.0044654
1.0099159
1.0040668
0.99999444
1.009855
1.010777
0.99786541
0.99656932
1.0138764
1.0188105
0.99590953
0.98499916
1.0083456
1.0385148
1.028627
0.98857838
1.0047248
1.0050747
1.0054044
1.0049834
1.0037047
1.0037026
1.003214
1.0054255
1.0043899
1.0056992
1.0048931
1.0044226
1.0060641
1.0058456
1.0035864
1.0041096
1.0095148
1.0027555
1.0009177
1.0113613
1.008723
0.99794351
0.99959118
1.0090566
1.0144519
1.0029721
0.99197619
1.0021904
1.0323669
1.0397398
1.0051052
1.0065508
1.002477
1.005504
1.0065716
1.003015
1.0050082
1.0034766
1.0052929
1.0043756
1.0052534
1.0050718
1.0050001
1.0056047
1.00514
1.0043874
1.0039252
1.0082335
1.0020288
1.0027872
1.0118074
1.0050943
1.0005055
1.0056216
1.0062663
1.0053913
1.0083288
1.0039137
1.0023495
1.011159
1.0279685
1.0192986
1.0072959
1.0014974
1.0050664
1.0072642
1.0033641
1.0064076
1.0046613
1.0046554
1.0049353
1.0049357
1.0053222
1.0056978
1.0051329
1.0041737
1.0052758
1.0043668
1.006529
1.0016967
1.0056497
1.011493
1.0009434
1.0025389
1.0136324
1.0066523
0.99620005
1.0073922
1.0172603
1.0093339
0.99292312
0.99749605
1.0172236
1.0064039
1.0025568
1.0043824
1.0063809
1.0043494
1.0068299
1.0061113
1.0041985
1.0054406
1.004721
1.0053323
1.0063626
1.0048255
1.0034766
1.0059218
1.0054736
1.0047574
1.0019927
1.0084253
1.0105198
0.99783073
1.00264
1.0197903
1.0094406
0.99066818
1.0011723
1.0249118
1.0181287
0.98975844
0.97366032
0.99766163
1.0044163
1.005029
1.0039194
1.0046775
1.005392
1.006007
1.006835
1.0044439
1.0055406
1.0045692
1.0051632
1.0066639
1.0046515
1.0032405
1.0061306
1.0066065
1.0034725
1.0030206
1.0100219
1.0092339
0.99622195
1.0020587
1.0208893
1.0115155
0.99033947
0.99591924
1.0224577
1.0248728
0.99672261
0.97017095
0.97842387
1.0023739
1.0078422
1.0040347
1.0031306
1.0061343
1.004587
1.0062633
1.0050702
1.0053108
1.0044389
1.0051147
1.006581
1.0045868
1.0034846
1.0057359
1.0071398
1.0031101
1.0043297
1.0101561
1.0076561
0.99694995
1.0023457
1.0160633
1.0113786
0.99417275
0.99653647
1.0121013
1.0236854
1.006722
0.98355853
0.97756436
1.0010893
1.0096495
1.0045451
1.0022306
1.0062657
1.0035631
1.0047644
1.005495
1.0047756
1.0044912
1.0052897
1.0060829
1.0046013
1.0042523
1.0049636
1.0069747
1.0035214
1.0056737
1.0092734
1.0051848
1.0000232
1.0048248
1.009255
1.0059407
1.0014367
1.0026818
1.0039404
1.0096142
1.0135414
1.0041453
0.99429347
1.0011471
1.0095308
1.0050235
1.0024614
1.0057988
1.0034952
1.0034101
1.0055258
1.0042863
1.0049641
1.0055828
1.0050908
1.0046497
1.0054137
1.0041567
1.0062602
1.0040131
1.0071083
1.0075588
1.0021983
1.0043241
1.00895
1.0035444
0.99766102
1.0074535
1.0119996
1.0035848
0.99322334
1.0061803
1.0207623
1.0171142
1.002868
1.007162
1.0051262
1.0040499
1.0049598
1.0044068
1.0030012
1.0050874
1.0041609
1.0056526
1.0058576
1.0041289
1.0047976
1.0064164
1.0037064
1.0051865
1.0042482
1.0082068
1.0057855
0.99948167
1.0073726
1.0136299
1.0009713
0.991211
1.0082756
1.0222383
1.0085854
0.98463183
0.9913692
1.0205288
1.0340985
1.0052629
1.0039104
1.0046684
1.0059292
1.004034
1.0055826
1.0039273
1.0042179
1.0042893
1.0060937
1.0060376
1.0037292
1.0049106
1.0068525
1.0035479
1.0041829
1.0044426
1.0086343
1.0046202
0.99822479
1.0080769
1.0172004
1.0019657
0.98851231
1.0054328
1.0273516
1.0149955
0.98803349
0.98192155
1.0088455
1.0348076
1.0070491
1.0017966
1.0039409
1.0070086
1.0034133
1.0061381
1.0054283
1.0033719
1.0044135
1.0060177
1.005958
1.0040462
1.0048306
1.0066782
1.0038766
1.0037122
1.0047667
1.0081681
1.0042108
0.99912321
1.0070698
1.016799
1.0041799
0.99197179
1.003124
1.022654
1.0181219
0.99479001
0.9862215
0.99881378
1.0215425
1.0071856
1.0016516
1.0035947
1.0068349
1.0035051
1.0058063
1.0063938
1.003281
1.0047214
1.0055013
1.0055068
1.0047053
1.0046614
1.0058963
1.0045787
1.0038077
1.0051019
1.0068227
1.0044305
1.00181
1.0062366
1.0118707
1.0059429
0.99846138
1.0043217
1.012505
1.0127277
1.0035221
0.99680268
0.99844414
1.0071443
1.0055433
1.0037867
1.0037798
1.0054271
1.0042646
1.0050782
1.0062168
1.0039546
1.0050789
1.004932
1.0050084
1.0052973
1.0050013
1.0046418
1.0052979
1.0044264
1.0056036
1.005162
1.0044623
1.0058404
1.006335
1.005034
1.0045854
1.0067104
1.0088228
1.0030113
0.99992845
1.0082285
1.0112731
1.0071772
0.99797744
1.0028268
1.0070921
1.0046854
1.0036242
1.0053918
1.004544
1.0048301
1.0051289
1.0051996
1.0045363
1.004779
1.0058055
1.0055505
1.0034307
1.0055932
1.0051788
1.0063364
1.0037987
1.0039846
1.009896
1.0073057
0.9995435
1.0007012
1.0126195
1.0146735
0.99876582
0.9874535
1.0031172
1.0230019
1.0197566
0.99925754
1.0008646
1.0097383
1.0056198
1.0023133
1.0062793
1.0044406
1.0034935
1.0062654
1.0049295
1.0045142
1.0045797
1.0061177
1.0064098
1.0025625
1.005687
1.0056479
1.0071127
1.0030554
1.0029797
1.0119259
1.0095276
0.99719438
0.99661392
1.013256
1.0202133
1.0003892
0.98119511
0.99403974
1.0238446
1.0296577
1.0066276
0.98046031
0.98586731
0.9999581
1.0156035
1.0265534
1.0287559
1.0172997
1.0022254
0.99720898
1.0066882
1.0196699
1.0267789
1.0166834
0.98766639
0.9608712
0.95969627
0.98973194
1.0331014
1.0584056
1.0496544
1.0068376
0.96603062
0.9611899
1.0024624
1.0093373
1.0099141
1.0019531
0.98743068
0.9744686
0.97352743
0.98721005
1.0150798
1.0440889
1.0579639
1.044926
1.0104703
0.97659048
0.96499543
0.98026047
1.0094492
1.0298728
1.0247952
0.99326971
0.96621184
0.97258089
1.0029755
1.0497433
1.0383175
1.0165849
0.99008318
0.9702308
0.96429729
0.9755392
0.99726451
1.0172074
1.0244078
1.0156044
0.99514032
0.98604719
0.99784026
1.0238335
1.0495554
1.0568444
1.0285996
0.97689238
0.93634296
0.93648493
0.97080793
1.0261214
1.0235011
1.011779
1.0040575
1.0031217
1.0125666
1.0281002
1.0414999
1.0349418
1.0091409
0.97292085
0.94253407
0.93772185
0.96077379
1.0069942
1.0568568
1.0845245
1.0712252
1.0228042
0.97495516
0.95376863
0.96414653
0.99556923
1.0330144
0.95252922
0.95782377
0.9805909
1.019151
1.0579701
1.0803779
1.0754028
1.0442537
1.0050108
0.96844833
0.95076815
0.95916202
0.98748888
1.0155327
1.0295275
1.0195949
0.9920436
0.97401495
0.98159026
1.0127765
1.0504205
1.0775335
1.0683018
0.95167882
0.97259705
0.99948664
1.0180925
1.0238269
1.0178624
1.002145
0.99389364
0.99287173
1.0053878
1.0311136
1.0591835
1.0739275
1.0498506
1.0004316
0.94447113
0.90506202
0.90958043
0.95123129
1.0214116
1.0981563
1.1356331
1.103466
1.0511744
1.0507166
1.0295439
0.9965958
0.96218277
0.93314379
0.91679506
0.92492805
0.96049384
1.0201713
1.0842816
1.1229677
1.1188919
1.0702687
1.00775
0.95004699
0.91729486
0.91761733
0.95213145
1.0044893
1.0505189
1.0703611
1.0461284
1.1147258
1.0812858
1.0374436
0.99333699
0.95638819
0.9302274
0.92690146
0.94422866
0.9778843
1.0140906
1.0373616
1.0457468
1.0360446
1.0217786
1.0106886
1.004959
1.0087655
1.0216251
1.0388014
1.0364081
1.0085449
0.96277992
0.9253751
1.0145675
1.0118119
1.0154184
1.0152734
1.0129391
1.0170335
1.0319684
1.0492147
1.0478784
1.019918
0.97481142
0.93255628
0.91022849
0.91679658
0.94934395
1.0084897
1.0797423
1.1446412
1.1591201
1.1085667
1.0192768
0.93350415
0.87385235
0.91370944
0.92064076
0.94498525
0.9919548
1.0582934
1.1263847
1.167663
1.1540429
1.0921355
1.0191906
0.9548287
0.90590553
0.87594048
0.87017205
0.8986525
0.96336929
1.0542101
1.1446852
1.1857459
1.1513527
1.070131
0.97885887
0.91342821
0.88668986
0.90244245
0.93780593
0.98888465
1.0532985
1.1160633
1.1537635
1.1432433
1.100882
1.0410752
0.984282
0.94016597
0.91462264
0.91493997
0.93521408
0.97343281
1.0147952
1.0447043
1.0722567
1.0735837
1.0663067
1.0427414
1.0030919
0.93721113
0.96419034
0.99890413
1.0282729
1.0377971
1.0249209
1.0086949
1.0087471
1.0243684
1.0397609
1.0386966
1.0251974
1.0083564
1.009274
1.0218025
1.0258913
1.0120917
0.97815597
0.94460788
0.94295252
0.96811289
1.0161742
1.0585647
1.0650363
1.0713467
1.0618108
1.0311702
0.98485893
0.9378868
0.90483685
0.89905199
0.9234922
0.97147011
1.0332473
1.0875837
1.124061
1.1389773
1.1233731
1.0772892
1.0145723
0.94447234
0.89124043
0.86347336
0.88026637
0.93742865
1.0247744
1.1954478
1.1561256
1.0858656
1.0082647
0.9400584
0.88903727
0.85906364
0.85190595
0.8707063
0.91767353
0.99266954
1.0913111
1.1871909
1.2396946
1.209622
1.1165412
1.0162471
0.93176976
0.87205357
0.84080789
0.84426147
0.8857621
0.97101249
1.2575641
1.190346
1.091883
0.99576958
0.92188124
0.87325489
0.84767014
0.84365002
0.85964645
0.90033697
0.96998921
1.0757304
1.1944991
1.2735536
1.24965
1.1426657
1.025779
0.93209025
0.87123443
0.83997106
0.83709967
0.87039045
0.94511058
1.2566071
1.1891126
1.093233
1.0004235
0.9254845
0.8773636
0.85258596
0.84695029
0.8611177
0.89954447
0.96779614
1.0716357
1.1891124
1.2666946
1.2452045
1.1462843
1.0329978
0.94130078
0.88039805
0.84780966
0.84185707
0.86800693
0.93755511
1.2511236
1.1832808
1.0882323
0.99864259
0.92891472
0.88387053
0.86137815
0.85629076
0.86768818
0.90194703
0.96738884
1.069622
1.1856967
1.2608499
1.2386583
1.1393739
1.0302969
0.94262093
0.88411173
0.85107944
0.84448013
0.87168136
0.93850105
1.2478327
1.1835166
1.0899896
1.0000992
0.92893523
0.8843274
0.86080477
0.85541808
0.86758779
0.90380628
0.9715206
1.0758886
1.1926031
1.2627236
1.2320366
1.1337566
1.0237347
0.93752173
0.88023015
0.84998252
0.84561474
0.8737247
0.94117495
1.2549077
1.1891636
1.0919692
0.99908584
0.92536936
0.87762241
0.85340597
0.84830122
0.86246118
0.90383082
0.97946628
1.0918304
1.2073814
1.2690678
1.2295641
1.1252588
1.015036
0.92921446
0.87350334
0.84413526
0.84204258
0.87467878
0.95047773
1.2343958
1.181605
1.0958822
1.0048937
0.92935585
0.87578183
0.84708877
0.84420639
0.86391672
0.91522974
1.0026793
1.1141826
1.2158655
1.256324
1.2034098
1.1030779
1.0017494
0.92015169
0.86584772
0.84045469
0.84632785
0.89013922
0.97687152
1.1601
1.1366557
1.0875851
1.0212567
0.95538406
0.89878354
0.86711398
0.86387916
0.89423884
0.95402039
1.0391742
1.1231577
1.1833723
1.1932541
1.1456216
1.0688039
0.98612201
0.91673696
0.8719023
0.85630017
0.87777322
0.93486911
1.0256828
1.0410497
1.0496337
1.0486468
1.0304581
0.99496064
0.953211
0.92284248
0.92651996
0.96612074
1.0236697
1.0693557
1.0907451
1.09073
1.0799164
1.0639907
1.0303739
0.98194941
0.93348582
0.90574089
0.90827161
0.95348831
1.0157779
1.0730877
0.9307195
0.95298878
0.98275803
1.0152452
1.0319458
1.0396634
1.0469561
1.0576234
1.0678201
1.0606473
1.03413
0.99709379
0.97247825
0.97030258
0.9808393
0.99200945
0.9939494
0.98934023
1.0007823
1.0243233
1.0501137
1.0555624
1.0396971
0.87560818
0.89762335
0.93787381
0.99445436
1.0658697
1.1357484
1.1798086
1.1677687
1.10394
1.0232851
0.95523865
0.91028104
0.890839
0.89662153
0.92546557
0.9783388
1.0464464
1.1067582
1.1379369
1.123683
1.0690724
1.0030622
0.93994933
0.90198174
0.91858951
0.95536425
1.0140723
1.0831139
1.1514397
1.1780407
1.138477
1.061868
0.98130452
0.91881849
0.87962933
0.86617497
0.88281537
0.9392305
1.0294064
1.128106
1.1897113
1.1771898
1.1007257
1.0034366
0.92541855
0.88032691
1.0019943
1.0018937
1.0151662
1.0281141
1.0378209
1.0441058
1.043936
1.036897
1.013249
0.9773049
0.93936999
0.91988369
0.92721091
0.96648901
1.0163029
1.0673784
1.1008507
1.1069154
1.0781711
1.0302603
0.97650926
0.92849412
0.90491073
1.0947719
1.063448
1.0263378
0.99289574
0.96503397
0.94642379
0.94056525
0.9485305
0.97005709
0.99703544
1.0234607
1.0436567
1.0569601
1.0539466
1.0373632
1.0122929
0.98486132
0.96191426
0.95314616
0.96465861
0.99021128
1.0237637
1.0570286
1.0431326
1.039796
1.0175677
0.98622987
0.95644953
0.93630305
0.9314612
0.94564044
0.97947539
1.0263944
1.0732683
1.1013632
1.0990135
1.0644733
1.0095453
0.95553608
0.91668884
0.90140589
0.91125934
0.94436766
1.0028124
1.0748647
1.1332093
0.96416162
0.97927966
0.99786778
1.010271
1.0160346
1.0140457
1.0100112
1.0080601
1.0087535
1.0125393
1.0174127
1.0207861
1.0192676
1.0123378
1.0004994
0.9857548
0.97290646
0.96690909
0.97193562
0.98462602
0.99419313
0.99356683
0.98875917
0.96292558
0.97167168
0.99259059
1.0183123
1.0406653
1.0541259
1.0533341
1.0379966
1.0117425
0.98341357
0.9608877
0.9485934
0.94839967
0.96279332
0.99170912
1.0296726
1.0659127
1.0853751
1.0745466
1.0290333
0.96688586
0.91595376
0.89464079
1.0181819
1.0096763
1.0033
1.0011208
1.0016663
1.0037581
1.0054815
1.0070031
1.0057931
0.99923664
0.98816253
0.97567462
0.96796476
0.96967324
0.98140295
1.0024595
1.0305476
1.0546637
1.0637954
1.0527202
1.0121051
0.95979336
0.93630004
1.0264324
1.0228284
1.0107454
0.9948894
0.97882229
0.96773354
0.96528319
0.9729989
0.99074089
1.0149546
1.0383124
1.0495175
1.0405399
1.0148328
0.98316642
0.95715444
0.9448585
0.95396719
0.98100322
1.0219752
1.0587644
1.0564545
1.0168691
0.98621217
0.99361071
1.000605
1.0062293
1.0081971
1.0036962
0.99489059
0.98739759
0.98684329
0.99475271
1.0098641
1.0282296
1.0403962
1.0376224
1.0160247
0.98225285
0.95057274
0.93883108
0.95211098
0.98575425
1.0359881
1.0646559
1.035127
0.99070034
0.98723414
0.99126557
1.0011767
1.0148565
1.0283776
1.0343952
1.0259929
1.0051373
0.98162978
0.96548247
0.96385553
0.97894266
1.0058069
1.0322195
1.0442164
1.0314301
0.99794996
0.97298463
0.96311021
0.98158093
1.0227644
1.0368504
1.0228741
1.0132621
0.9994479
0.98936583
0.98708536
0.9936587
1.0066258
1.019319
1.0220204
1.0094034
0.98660754
0.96601243
0.96110002
0.97448844
1.0015284
1.0285341
1.0424615
1.0285796
0.99139287
0.9646883
0.95864314
0.99551423
1.0298364
1.0063205
1.0115486
1.0102915
1.0009611
0.98804181
0.97873887
0.97627464
0.98382322
1.0009565
1.0201261
1.0297955
1.0250406
1.0084156
0.99019159
0.97844861
0.97723102
0.98643723
1.0046263
1.0196548
1.0150577
0.99776869
0.97591806
0.98618786
0.98011089
0.9876067
0.99958692
1.0106449
1.0143605
1.0079681
0.99584789
0.98575093
0.98365354
0.99121685
1.0050388
1.0181551
1.0250456
1.0210989
1.0076842
0.99220206
0.98111562
0.98206487
0.99267231
1.0051753
1.0097103
1.0039263
0.99072286
0.99330732
0.99008832
0.99345831
1.0016369
1.0121687
1.0202598
1.0211878
1.0137875
1.0010564
0.99022562
0.98548677
0.98681883
0.99274816
1.0016401
1.0095762
1.0104384
1.0033876
0.99522635
0.99186406
0.99820112
1.0072311
1.0091922
1.001312
1.0196112
1.0121823
1.0022715
0.99497431
0.99214493
0.99448378
1.000327
1.0070211
1.0107907
1.0087447
1.0011989
0.99176479
0.9858893
0.9858587
0.99164114
1.0014501
1.008832
1.0083623
1.0036078
0.99956181
0.99915327
0.99993775
0.99902585
1.0043604
1.0071308
1.0052583
0.99847475
0.99032806
0.98401323
0.98283213
0.98699075
0.99547685
1.0050728
1.0116587
1.0126012
1.0075338
1.0007758
0.99718916
0.99803922
1.0019971
1.0049976
1.0037505
0.99981142
0.99691567
0.99625778
0.99696566
0.98406542
0.98843328
0.99497301
1.0016035
1.0055663
1.0057358
1.0019004
0.99710963
0.9947119
0.99622192
1.0008673
1.0056491
1.0083863
1.0074771
1.0040229
1.0008609
0.99956318
0.99958884
0.99925456
0.99822931
0.99721974
0.99799781
1.0000868
0.99903456
0.99592325
0.99609177
0.99959383
1.0054157
1.0109567
1.0135378
1.0114171
1.0052771
0.99829325
0.99388503
0.99311133
0.9949289
0.99729141
0.99887273
0.99931638
0.99925685
0.99966409
1.0002792
1.0006683
1.0013169
1.0018778
1.0030255
1.0120812
1.0088832
1.002817
0.99725708
0.99391818
0.99389727
0.99630652
0.9989377
0.99995077
0.99876587
0.99651029
0.99524362
0.99592443
0.99824722
1.0005795
1.0019657
1.0027295
1.0027401
1.0029987
1.003212
1.0029948
1.0023852
1.0015066
0.99726043
0.99938816
0.99971668
0.99768492
0.9941663
0.99171061
0.99096602
0.99266498
0.99559819
0.99854579
1.0009009
1.0025869
1.0039597
1.0047713
1.0048689
1.0038767
1.0021222
1.0005374
0.99975511
0.99982323
0.99994559
0.99977932
0.99894924
0.99120421
0.9932464
0.9966798
1.0006436
1.003249
1.0044655
1.0043205
1.0036273
1.0030377
1.0027459
1.0026637
1.002318
1.0016976
1.0006067
0.9991288
0.997552
0.99610459
0.99557449
0.99609045
0.99746761
0.99927427
1.0004675
1.0009151
1.0038966
1.0023943
1.0017796
1.0021215
1.0026692
1.0030484
1.0026397
1.0016957
1.0004033
0.9987542
0.99723135
0.99607514
0.99511863
0.99478001
0.99483888
0.99554133
0.99688811
0.99855542
1.000349
1.0017884
1.0022905
1.0017526
1.0006945
1.0032564
1.0026776
1.0013266
0.99942598
0.99748112
0.9958981
0.99471599
0.99417415
0.99420951
0.994723
0.99527381
0.99614528
0.99712696
0.99830915
0.99954931
1.0006211
1.001595
1.0022373
1.0023626
1.0017737
1.0003303
0.99846029
0.99644639
0.99734988
0.99796901
0.99893866
0.99895567
0.99917421
0.99912726
0.99880869
0.99947384
0.99971848
1.0007361
1.0012909
1.0016441
1.0017295
1.0014825
1.0008189
0.99973222
0.99846033
0.99709929
0.9957827
0.9947531
0.99423401
0.99434686
0.99529107
0.99960794
0.99938177
0.99996914
1.0003046
1.0008605
1.0012371
1.0009977
1.0013239
1.0007137
1.0003801
0.99949343
0.99821715
0.99697901
0.99567354
0.99474055
0.99412238
0.99397075
0.99415896
0.99459991
0.99522099
0.99614133
0.99761275
0.999171
1.0009464
1.0008189
1.0004262
0.99995644
0.99961349
0.99904423
0.99845114
0.99828001
0.99761834
0.99719608
0.99655864
0.99586306
0.99538447
0.99513468
0.99542246
0.99626874
0.99721856
0.99822013
0.99894408
0.99938069
0.99931844
0.99881369
0.99791672
0.99914877
0.9994968
0.99938563
0.99946646
0.99928203
0.99891575
0.99892194
0.99868096
0.99854798
0.99864862
0.99838508
0.99860847
0.99846311
0.99885005
0.99863049
0.99869131
0.99822562
0.99751353
0.99661372
0.99564559
0.9946035
0.99355282
0.99257698
0.99959404
0.9997702
0.99960574
0.99979951
0.99987514
0.99948596
0.99957138
0.99911554
0.99884202
0.99863306
0.99775655
0.99763041
0.99677914
0.99656787
0.99590319
0.99544857
0.99456235
0.99366125
0.99314135
0.99277858
0.9930196
0.99373125
0.99456214
0.9993915
0.99975075
0.99947171
0.99959711
0.99965513
0.99912101
0.99906327
0.99865862
0.99840595
0.99818121
0.9976333
0.99752605
0.99665584
0.99622516
0.99571078
0.99531685
0.99490303
0.99457359
0.99449907
0.99451644
0.99488052
0.99539714
0.99591044
0.99903614
0.99927915
0.99913671
0.99931068
0.99930326
0.99892439
0.9990751
0.99874777
0.99844021
0.99834585
0.99798906
0.99763633
0.99729969
0.99677165
0.99633213
0.99574842
0.99541993
0.99506659
0.99495086
0.9947179
0.99419774
0.99358073
0.99273585
0.99903059
0.99935387
0.9990709
0.99914253
0.99921455
0.99896434
0.99913337
0.99900186
0.99878485
0.99859315
0.99808304
0.99766305
0.99753219
0.99679438
0.99638319
0.99546121
0.99471293
0.99400686
0.99359121
0.99345173
0.99315781
0.99272071
0.99194028
0.99846535
0.99895005
0.99887658
0.99907553
0.99918842
0.99894991
0.99905048
0.99895106
0.99875808
0.99862005
0.99793893
0.99739478
0.99709725
0.99647302
0.9964475
0.9957271
0.99519879
0.99448112
0.99365946
0.99328835
0.99282268
0.99270774
0.99227599
0.99828332
0.99870003
0.99871097
0.99893433
0.99917371
0.99885032
0.99884957
0.99865856
0.9984332
0.99861066
0.99833534
0.99797029
0.99737552
0.99658877
0.99631646
0.99571992
0.99548357
0.99487531
0.99410468
0.99353127
0.9926761
0.99240403
0.99180681
0.99770575
0.9980018
0.99811611
0.99836163
0.99865925
0.99842241
0.99844415
0.99832915
0.9980842
0.99830655
0.99826261
0.99820803
0.99781615
0.99708776
0.99648709
0.99575516
0.99539181
0.9947417
0.99418887
0.99363773
0.99290343
0.99244773
0.99166131
0.99708799
0.99713351
0.9970659
0.99706867
0.99726962
0.99725512
0.99758451
0.99785213
0.99776116
0.99786428
0.99758263
0.99740586
0.99719793
0.9967385
0.99637875
0.99578424
0.99529339
0.99474724
0.99426885
0.99376976
0.99312942
0.99259799
0.99197135
0.99544691
0.99556234
0.99561075
0.99556044
0.99575246
0.99587949
0.99614736
0.99654471
0.99650199
0.99657198
0.99631192
0.9960712
0.99594358
0.99558329
0.99546867
0.99526682
0.99500016
0.99470114
0.99429591
0.99378321
0.9929845
0.99220884
0.99172979
0.99374865
0.99390496
0.99419489
0.99432265
0.99455192
0.99466478
0.99461602
0.99464824
0.994387
0.9942817
0.99426162
0.99432307
0.994448
0.99438048
0.99432084
0.99419862
0.99405122
0.99377709
0.99341521
0.99308136
0.992585
0.99220401
0.99191183
0.99320571
0.99314344
0.99318724
0.99306376
0.9930416
0.99308332
0.99301584
0.99305929
0.99292254
0.99265269
0.99259979
0.99251256
0.99261547
0.99266955
0.99266882
0.99256719
0.99250273
0.99230241
0.99202398
0.99190639
0.99173882
0.99181712
0.99179211
0.99304598
0.99294074
0.99290831
0.99272563
0.99258447
0.99240227
0.99215997
0.99204241
0.99187649
0.99160701
0.99144906
0.99118843
0.99106072
0.99097913
0.99084589
0.99079569
0.99074621
0.99074816
0.99080943
0.99091277
0.99102211
0.9911817
0.99117565
0.99371556
0.99346558
0.99326865
0.99307042
0.992873
0.99266078
0.99237189
0.99204557
0.9915895
0.99117285
0.99091162
0.9905994
0.99030026
0.99010498
0.98987055
0.98976443
0.9896885
0.98971811
0.98987311
0.99000157
0.99023202
0.9903772
0.99049011
0.99436653
0.99422667
0.99411742
0.99391939
0.99363684
0.99329843
0.99299501
0.99265364
0.99226507
0.9918434
0.99141439
0.99094926
0.99051241
0.99015581
0.98981319
0.98960842
0.98948852
0.98940979
0.98940971
0.98947288
0.98969356
0.98989284
0.99020318
0.99492337
0.99485496
0.99482096
0.99464798
0.99442597
0.99411814
0.99383325
0.99357888
0.99330855
0.99299222
0.99252275
0.99200775
0.9915398
0.99108096
0.99064839
0.99036378
0.99013919
0.98992979
0.98980677
0.98969118
0.98979615
0.9899956
0.99045335
0.99550158
0.99536983
0.99524759
0.99511091
0.99500197
0.99485671
0.99473601
0.9945143
0.99431158
0.99402952
0.99371077
0.99336712
0.99295349
0.99257295
0.99216486
0.99174643
0.99149493
0.99128891
0.99103757
0.99086279
0.99076398
0.99079047
0.99122421
0.99594838
0.99583218
0.99566102
0.99556414
0.99554906
0.99542753
0.99549911
0.99534665
0.99517106
0.99500317
0.99478729
0.99462632
0.99439004
0.99415921
0.99399538
0.99364123
0.99337011
0.99305834
0.9928622
0.9926863
0.9925895
0.99254323
0.99286863
0.99643903
0.99640389
0.99635903
0.99619609
0.99611358
0.9960235
0.99612182
0.99600581
0.99587305
0.99577996
0.99569931
0.99569885
0.99562618
0.99545313
0.99539709
0.99526996
0.99517855
0.99497007
0.99486931
0.99478552
0.99477027
0.99475812
0.99495836
0.99718594
0.9970795
0.99713754
0.99701112
0.99686675
0.99679568
0.99675175
0.99662049
0.99658703
0.99648047
0.99652984
0.99662762
0.99664684
0.9965073
0.99642326
0.99634002
0.99641207
0.99641204
0.99644355
0.99640954
0.99653183
0.99656657
0.99656416
0.99793383
0.99772593
0.99765466
0.9976037
0.99757187
0.99753683
0.99746135
0.99741233
0.99742956
0.99738547
0.99731752
0.9973258
0.99726702
0.99731933
0.997231
0.99729958
0.9973629
0.99752713
0.99753069
0.9974553
0.99752251
0.99770829
0.9978444
0.99819935
0.99813664
0.99809028
0.99806115
0.99809403
0.99816204
0.99809734
0.99798674
0.99798912
0.9980924
0.99809895
0.9980228
0.9978773
0.99801295
0.99810399
0.99815899
0.9980559
0.9980514
0.99822259
0.99829908
0.99830972
0.99847311
0.99869255
0.99817746
0.99837891
0.99844791
0.99831128
0.99816004
0.99824436
0.99841063
0.99841396
0.99831095
0.99833538
0.99848738
0.99858602
0.99847272
0.99843781
0.99857271
0.99868632
0.99866072
0.99852889
0.9987083
0.99891403
0.99907902
0.99902004
0.99897738
0.99814479
0.99837077
0.99847507
0.99831989
0.99808597
0.99811912
0.99841208
0.99859536
0.99852083
0.99841198
0.99846318
0.99864373
0.99869235
0.99863299
0.99868525
0.99883435
0.99897721
0.9989677
0.99904009
0.99916499
0.99928008
0.99929213
0.99932637
0.99836068
0.99822933
0.99816808
0.99819086
0.99823452
0.99832386
0.99847934
0.99856206
0.99845823
0.99839557
0.99852445
0.99871033
0.99876745
0.99873101
0.99876874
0.9989559
0.99909608
0.99905201
0.99905904
0.99922769
0.99940408
0.99934753
0.99923056
0.99833278
0.99822068
0.99813664
0.99819816
0.99833117
0.9984479
0.99845257
0.99842585
0.99840759
0.9983654
0.99846158
0.99870504
0.99888604
0.99884201
0.99870344
0.99877657
0.9990759
0.99929521
0.99913554
0.99899243
0.99913314
0.99952762
0.99956006
0.99839917
0.99870956
0.99886335
0.9985385
0.99827516
0.99837578
0.99859942
0.99872895
0.99860364
0.99842944
0.99857922
0.99879565
0.9988796
0.99879719
0.99868766
0.99888323
0.99913249
0.99919391
0.99905166
0.99888276
0.99909218
0.9994845
0.99963501
0.99831755
0.99896404
0.99895774
0.99854751
0.99819743
0.99828124
0.99877538
0.99920895
0.99897445
0.9983668
0.99839504
0.99881671
0.99902934
0.99897158
0.99879514
0.99895871
0.99909022
0.99897472
0.99886774
0.9989284
0.9992469
0.999495
0.99946456
0.99916233
0.99876339
0.99819523
0.99837652
0.99871274
0.99898992
0.99899045
0.99863059
0.99864325
0.99879919
0.99866775
0.99874375
0.99898865
0.99883433
0.99872135
0.99889907
0.99916052
0.99911651
0.99867781
0.99870505
0.99925703
0.99943706
0.99903694
0.999408
0.9984891
0.99794828
0.99822567
0.99900478
0.99952312
0.99898389
0.99828576
0.99821737
0.9986381
0.99909622
0.99908244
0.99856831
0.9985466
0.9988173
0.9987344
0.99893192
0.99892048
0.99882529
0.99880278
0.99868254
0.99907118
0.99891777
0.99955848
0.99824173
0.99772852
0.99808427
0.99915128
0.99978417
0.99914371
0.99801068
0.9976009
0.99848643
0.99942438
0.99925069
0.99859858
0.99804403
0.99829776
0.99885352
0.99886903
0.99860648
0.9984366
0.99872135
0.99865575
0.99856978
0.99868665
0.99967613
0.99812028
0.99772652
0.99815157
0.9991177
0.99962164
0.99879718
0.99803512
0.9977628
0.99824135
0.99944397
0.99925077
0.99841774
0.9979754
0.99777521
0.99875895
0.99900505
0.99852547
0.99827821
0.99803351
0.99842338
0.99829756
0.99855923
0.99913676
0.9983098
0.99824732
0.99858282
0.99864289
0.99876345
0.998798
0.99847812
0.99826881
0.99832246
0.9986087
0.99870697
0.99850288
0.99825817
0.99799127
0.99826279
0.99865232
0.99854313
0.99834662
0.99766869
0.9979369
0.9980257
0.99823385
0.99832502
0.99849114
0.99896343
0.99899756
0.99852307
0.99822154
0.99835645
0.99883666
0.99888753
0.99824458
0.99792102
0.99839717
0.99868657
0.99818041
0.99799503
0.99815791
0.99842692
0.99850003
0.99807668
0.99743395
0.99749931
0.99794256
0.99882615
0.99841762
0.99826138
0.9989508
0.99921088
0.99852935
0.99786873
0.99814012
0.99885623
0.9989989
0.99839989
0.99783686
0.9979945
0.99859424
0.99850268
0.99794062
0.99783985
0.99819197
0.99842987
0.9979061
0.99719609
0.99744199
0.99817475
0.99878974
0.99843768
0.99846823
0.99861668
0.99873654
0.99857712
0.99825497
0.99822721
0.99855778
0.99868799
0.99833181
0.99802883
0.99816912
0.99846966
0.99848135
0.99800215
0.99752238
0.99772084
0.99837491
0.99834762
0.99736005
0.99693855
0.99776528
0.99878739
0.99835172
0.9985756
0.99888577
0.99887007
0.99856492
0.99821378
0.99811566
0.99839909
0.99872391
0.99865024
0.99824524
0.99806219
0.99810953
0.99812865
0.99804086
0.99791422
0.99796584
0.99805162
0.99792082
0.99734566
0.99703503
0.99758226
0.99825574
0.99916289
0.99878017
0.9984151
0.99849208
0.99879782
0.99887493
0.99860505
0.99831791
0.99840566
0.99868413
0.99860279
0.99818276
0.99788745
0.99799171
0.99832185
0.99836219
0.99797321
0.99756442
0.99751019
0.9976885
0.99763934
0.99732335
0.99709242
0.99968961
0.99908294
0.99836964
0.99834041
0.99899708
0.99969928
0.99951443
0.99865743
0.99803532
0.99812019
0.99875176
0.99911807
0.99870367
0.99813668
0.99798358
0.99813395
0.99820677
0.99797681
0.9976837
0.99760493
0.99771019
0.99752802
0.99718971
1.0000236
0.99942199
0.99891612
0.9988935
0.99944178
0.99994409
0.99959156
0.99899944
0.99864793
0.99850899
0.99916961
0.99938215
0.99891243
0.99861995
0.99821544
0.99829079
0.99841201
0.99842745
0.99826207
0.99780893
0.99775811
0.9976496
0.99751269