/*--------------------------------*- C++ -*----------------------------------*\
| =========                 |                                                 |
| \\      /  F ield         | OpenFOAM: The Open Source CFD Toolbox           |
|  \\    /   O peration     | Version:  2406                                  |
|   \\  /    A nd           | Website:  www.openfoam.com                      |
|    \\/     M anipulation  |                                                 |
\*---------------------------------------------------------------------------*/
FoamFile
{
    version     2.0;
    format      ascii;
    arch        "LSB;label=32;scalar=64";
    class       volScalarField;
    location    "160";
    object      p_0;
}
// * * * * * * * * * * * * * * * * * * * * * * * * * * * * * * * * * * * * * //

dimensions      [1 -1 -2 0 0 0 0];

internalField   nonuniform List<scalar> 
20580
(
1.0058273
1.0020573
1.0065364
1.0055276
1.0034472
1.0045365
1.0047405
1.0063844
1.0047886
1.0047587
1.0048607
1.0062013
1.0049626
1.0047467
1.0060839
1.0063865
1.00217
1.0052263
1.0102942
1.0011292
1.001916
1.0092141
1.0065295
0.99583844
0.99902954
1.0151925
1.0162623
1.0042241
1.0117695
1.0183408
0.98197782
1.0060694
1.0016866
1.0065754
1.0059253
1.0030297
1.0049724
1.0049104
1.0066184
1.0043564
1.0044347
1.005387
1.0064239
1.0042442
1.0046464
1.0068838
1.0053439
1.0006574
1.0081247
1.0092446
0.99859695
1.0046382
1.0115285
1.0034149
0.99353525
1.0013974
1.0244645
1.0249723
0.99861175
0.99390613
1.0167983
1.012927
1.0055855
1.0027607
1.0055867
1.0058789
1.0035547
1.0056088
1.0051708
1.0059757
1.0041648
1.0041678
1.0057492
1.0063779
1.0038882
1.0047855
1.0070194
1.0049228
1.000234
1.0099913
1.0082599
0.99722505
1.0075349
1.0139243
1.0020818
0.99614985
1.0029327
1.0229932
1.0268189
0.99753875
0.97949459
1.0059138
1.0403393
1.0045102
1.0050807
1.0041612
1.0052348
1.0047278
1.0060342
1.0054234
1.0047205
1.0045732
1.0041443
1.0058212
1.0060425
1.0039677
1.005123
1.006541
1.0049952
1.0010427
1.0106641
1.0067947
0.99747428
1.0101643
1.0138888
1.0027513
1.0016886
1.0058134
1.01474
1.0208036
1.000087
0.97472294
0.99074132
1.0401206
1.0031501
1.0077692
1.0031471
1.0041141
1.0059401
1.0058247
1.00559
1.0035795
1.0052182
1.0046344
1.0057425
1.0053319
1.0044788
1.0055998
1.0058116
1.0049793
1.0030873
1.0104336
1.004465
0.99957772
1.0119681
1.0106177
1.0027398
1.0088063
1.0102424
1.004909
1.0082614
1.0038327
0.98387196
0.9821179
1.0184363
1.0021444
1.0094645
1.0030752
1.0031754
1.006474
1.0049592
1.0054417
1.0032884
1.0054681
1.0054377
1.0056187
1.0044709
1.0051416
1.0060091
1.0049554
1.0046105
1.0059229
1.009261
1.0019345
1.002596
1.0128984
1.0064688
0.99927451
1.0137514
1.0161551
0.99838963
0.99338121
1.0067792
1.0045265
0.99009286
0.99141903
1.0021583
1.0094053
1.0039042
1.0030474
1.0060834
1.0038778
1.0047516
1.003943
1.0051688
1.0060043
1.0054401
1.0038981
1.0057242
1.006352
1.0040712
1.0041459
1.0083854
1.0074701
1.0001635
1.005511
1.0129389
1.0027353
0.99526965
1.0138521
1.0208861
0.99709823
0.98354757
1.005351
1.0262368
1.0121815
0.98453636
1.0031202
1.0078829
1.0050366
1.003677
1.0051884
1.003279
1.0038536
1.0048588
1.0044802
1.0060701
1.0052597
1.003851
1.0059427
1.0065336
1.0036405
1.0037549
1.0095538
1.0057166
0.99935475
1.0080446
1.0123374
0.99998482
0.99453728
1.0102822
1.0205773
1.0006952
0.98325326
1.0000521
1.0348646
1.0357738
0.99970785
1.0044758
1.005151
1.0056689
1.0047769
1.0042119
1.0037552
1.0033157
1.0053781
1.0039314
1.0058441
1.0051476
1.0042662
1.0058032
1.0061999
1.0039886
1.0034266
1.0094064
1.0043816
0.99966279
1.0100243
1.0104771
0.99931618
0.99785146
1.0066597
1.0143808
1.0057941
0.9913683
0.9967447
1.0256186
1.0446633
1.0181368
1.0057234
1.0024521
1.005442
1.0059817
1.0035766
1.0051474
1.0035523
1.0052521
1.0041527
1.0055088
1.0051693
1.0048667
1.0055641
1.0052794
1.0047517
1.0034782
1.0084337
1.0031056
1.0014242
1.0112929
1.0067094
1.0004929
1.0045324
1.006099
1.0047148
1.0080762
1.0041499
1.0014068
1.0074064
1.0272724
1.0265535
1.0063297
1.0013565
1.0046788
1.0065875
1.0036838
1.0064753
1.0046526
1.0046484
1.0049955
1.0051201
1.0052233
1.0056419
1.0053872
1.0041901
1.0053728
1.0043093
1.0069311
1.0020627
1.0042917
1.0118266
1.0025466
1.000758
1.0129503
1.0090795
0.99654202
1.0041324
1.0172099
1.0120094
0.99586103
0.99415726
1.0144411
1.0057354
1.0022957
1.0039094
1.005952
1.0043383
1.0067318
1.0060199
1.0041729
1.0056987
1.0047019
1.0050378
1.0063556
1.0052714
1.0033576
1.005708
1.0057074
1.0052794
1.001765
1.0071177
1.0116834
0.99949676
0.99948031
1.0186214
1.0135978
0.9929037
0.9966353
1.0228531
1.0228844
0.99746506
0.97315139
0.9890935
1.0042615
1.0049313
1.0036252
1.0046667
1.0050711
1.0057795
1.0066976
1.0043685
1.0059254
1.0043686
1.0048295
1.0066605
1.0051573
1.0029485
1.0057255
1.0068697
1.004084
1.0022543
1.0089668
1.0109674
0.99775462
0.99876821
1.0189708
1.0162828
0.99326716
0.9923853
1.017871
1.029365
1.0050172
0.97391043
0.97085244
1.0028028
1.0080521
1.0041304
1.0035134
1.005687
1.0043721
1.0061004
1.0050146
1.0056145
1.0041868
1.0049056
1.0066143
1.005031
1.0032121
1.0052565
1.0072874
1.0037601
1.0032331
1.0095493
1.0094634
0.99796583
0.99998223
1.0143994
1.0147035
0.99657615
0.99465947
1.0078173
1.0242946
1.0132203
0.98791691
0.9751747
1.0019902
1.0099184
1.0050092
1.0028785
1.0060046
1.0034878
1.0047327
1.0055869
1.0048581
1.0043983
1.0051613
1.0060908
1.004825
1.0042481
1.0045695
1.0070017
1.0039669
1.0046148
1.0092888
1.0064135
1.0003018
1.0034478
1.0091038
1.0068326
1.0022337
1.0016189
1.0030981
1.0074385
1.0140735
1.0071762
0.99531478
1.0020854
1.0096046
1.0055916
1.0030716
1.0057771
1.0037216
1.0036016
1.0057554
1.0041424
1.0050911
1.0055021
1.0051564
1.0045701
1.0055813
1.0040171
1.0061924
1.0040582
1.006366
1.0083157
1.002661
1.0035005
1.0086058
1.0052709
0.99701227
1.0053316
1.0117289
1.0059781
0.99257737
1.0011391
1.0188305
1.0194139
1.0033037
1.0072012
1.0054721
1.0043044
1.0050975
1.004786
1.0032982
1.0053182
1.0037854
1.0058296
1.0059401
1.0043683
1.0044621
1.0065189
1.0039096
1.0050613
1.0040096
1.0078036
1.0070728
0.99948857
1.0051993
1.0142603
1.0041127
0.99059563
1.0032893
1.0218078
1.0131614
0.98765225
0.98575912
1.0132486
1.0333589
1.0049645
1.0039404
1.004604
1.0056438
1.0042612
1.0057773
1.0040753
1.0042541
1.0038547
1.0060891
1.0063011
1.0040906
1.0043922
1.0069184
1.004047
1.0041326
1.0040144
1.00845
1.0061917
0.99808783
1.0052568
1.017715
1.0059632
0.98859763
0.99975497
1.0254645
1.0202201
0.99344288
0.97972262
1.0002149
1.0306863
1.0062003
1.001585
1.0034769
1.0063733
1.0036253
1.00601
1.0054102
1.0031719
1.0042759
1.0057624
1.006294
1.0042976
1.0043269
1.006735
1.0044317
1.00378
1.0042772
1.0080838
1.0057267
0.99888272
1.004579
1.0166325
1.008143
0.99227777
0.99902701
1.0200014
1.0227416
1.0000923
0.98636952
0.99402236
1.0169962
1.0061796
1.0014331
1.0030445
1.0061279
1.0035867
1.0054266
1.0062348
1.0029211
1.0049056
1.0051496
1.0057703
1.0047041
1.0043886
1.0059096
1.0048902
1.0039604
1.0047282
1.0069245
1.0052724
1.0016292
1.0048667
1.0117191
1.0079853
0.99888145
1.0025406
1.0112286
1.0141396
1.0071236
0.99783607
0.99793968
1.0047878
1.0050152
1.0037643
1.0035301
1.0051653
1.0042284
1.0047943
1.0059644
1.0037834
1.0053147
1.0047381
1.0050755
1.0051385
1.0050562
1.0046508
1.0052953
1.0045056
1.0054441
1.0054909
1.0043298
1.0056987
1.0063424
1.005431
1.0042034
1.0064261
1.0090398
1.0046531
0.99944674
1.0066083
1.0121568
1.0091689
1.0000416
1.0031451
1.0072208
1.0048765
1.0038915
1.0053112
1.0045863
1.0048409
1.0052594
1.0052448
1.0046582
1.0046718
1.0056004
1.005957
1.0034532
1.0052813
1.0051364
1.0063733
1.004357
1.0030255
1.0093749
1.0086929
1.0006957
0.99893273
1.0105192
1.0161667
1.00291
0.98718663
0.99752106
1.0201231
1.0225396
1.0046644
1.0018563
1.0098964
1.0061391
1.0030145
1.0061725
1.0047723
1.003704
1.0065817
1.0048133
1.004875
1.00425
1.005928
1.0069156
1.0026803
1.0051666
1.0054796
1.007212
1.0038465
1.001735
1.010665
1.0116166
0.99916903
0.99464683
1.009526
1.021693
1.0058374
0.98264197
0.98765624
1.0171189
1.0309135
1.0130094
0.98318956
0.98599735
0.99861751
1.0158392
1.0292575
1.0345433
1.0255426
1.0073951
0.99393525
0.99609639
1.0076902
1.0184753
1.017714
0.99743018
0.97015646
0.96169463
0.98443501
1.0273125
1.0577687
1.0573433
1.0183666
0.96776646
0.95154335
0.99377379
1.0020854
1.0069703
1.004438
0.99494052
0.98393249
0.98000681
0.98888909
1.0132733
1.0415063
1.057138
1.0487351
1.0147441
0.97546289
0.95618436
0.96707757
0.99878488
1.0287236
1.0384728
1.0150952
0.98069751
0.97300926
0.99092309
1.0460858
1.0378731
1.0169081
0.98959855
0.96694911
0.9570082
0.96697942
0.99198472
1.0186931
1.0349576
1.0331348
1.0105591
0.99255518
0.99168961
1.0084032
1.032764
1.045872
1.0310824
0.98785049
0.94505316
0.93780386
0.96657231
1.0181056
1.0385546
1.0235119
1.0091165
0.99849662
0.9983204
1.0106233
1.0255033
1.0278964
1.0124454
0.98228538
0.95297478
0.94301212
0.9595409
1.0027942
1.0545797
1.0878351
1.0829417
1.0334668
0.97529965
0.9412631
0.94490341
0.9767243
1.022205
0.96333954
0.965115
0.98255895
1.0160952
1.0544994
1.078785
1.0807998
1.0507455
1.0073346
0.96510778
0.9384043
0.94177969
0.97002444
1.0071957
1.0390643
1.0453246
1.0221147
0.99322382
0.98271001
0.99727394
1.0235564
1.0508656
1.0595631
0.94053151
0.95874459
0.9901897
1.0197351
1.0382925
1.0434019
1.0280589
1.0125629
0.99976945
0.99589873
1.0081211
1.031593
1.0515472
1.0428782
1.008472
0.95995503
0.91936267
0.91731071
0.95180579
1.0164329
1.0899951
1.1340622
1.1137244
1.0227726
1.034077
1.0260607
1.004135
0.9734613
0.9449101
0.92936994
0.93458914
0.96397087
1.0169547
1.0780264
1.1205401
1.1243599
1.0771065
1.0092007
0.9456036
0.90348493
0.89988554
0.93366287
0.99445717
1.0603483
1.1032937
1.0854024
1.1188184
1.0858885
1.036908
0.98893421
0.95144192
0.92286343
0.91216071
0.92542118
0.9613755
1.0101893
1.0533864
1.0801811
1.0742209
1.0494073
1.0206265
0.99427039
0.97961685
0.98287196
1.0016782
1.0170988
1.0161266
0.99181913
0.96220802
1.0485407
1.0373759
1.030083
1.014784
0.99471703
0.98495262
0.99454768
1.0156683
1.0287638
1.0199694
0.99049382
0.95675369
0.93864117
0.94480738
0.97014547
1.0143458
1.0653817
1.1128036
1.1276545
1.0932422
1.0209764
0.94191595
0.88303434
0.93074169
0.93867672
0.96158675
1.0017887
1.0529817
1.1057507
1.1394472
1.1346236
1.0868791
1.0224916
0.95751714
0.90792835
0.87578646
0.86825263
0.89814713
0.96544888
1.060552
1.1563698
1.2019577
1.1632735
1.0690574
0.9694641
0.89920969
0.88398521
0.89599056
0.92827592
0.98011915
1.0552713
1.1361332
1.1876188
1.1748062
1.1131205
1.0346066
0.96969143
0.92079431
0.89308011
0.89006034
0.90712427
0.95286155
1.0147067
1.0778645
1.1298452
1.1279674
1.0925525
1.0337136
0.97456682
0.90756719
0.9331352
0.97126875
1.0153344
1.0482151
1.0637108
1.0659974
1.066657
1.0658221
1.0545564
1.0250765
0.99002205
0.96363669
0.96193415
0.97954254
0.99897702
1.0109456
1.0060347
0.99220328
0.99812987
1.0159643
1.0408933
1.0461112
1.0074941
1.0270393
1.0421381
1.0376151
1.0107624
0.97212795
0.94204769
0.93921216
0.9637049
1.0040059
1.0442558
1.0678275
1.0722228
1.0749537
1.0739182
1.0567831
1.020135
0.96757283
0.91784698
0.89582099
0.91645245
0.9700284
1.0395166
1.137774
1.1214052
1.0798441
1.023522
0.96289217
0.91060549
0.87727587
0.86956287
0.89244773
0.94219019
1.0135305
1.0913313
1.155078
1.1850687
1.1658239
1.1029856
1.023768
0.94770287
0.88787229
0.85462437
0.86045702
0.90642345
0.99191475
1.2256748
1.1754204
1.0926443
1.0051612
0.9335454
0.88217955
0.85342899
0.84894467
0.86628599
0.90973978
0.98224456
1.0823715
1.1846242
1.24703
1.2249552
1.1334705
1.0280615
0.94028751
0.87831394
0.84399184
0.84315715
0.87799985
0.95515591
1.2496085
1.1877127
1.0954299
1.0027486
0.92858446
0.87842578
0.85048163
0.84452809
0.86057392
0.90249536
0.97367023
1.0778383
1.1906732
1.2615367
1.2370281
1.1408816
1.0333319
0.94340862
0.88160266
0.84670286
0.83987439
0.86902872
0.94195335
1.2523929
1.1856315
1.0904059
0.99839675
0.92801378
0.88177207
0.85813373
0.85330112
0.865424
0.90240167
0.97108255
1.0760395
1.1905559
1.2627529
1.2361483
1.1355332
1.0277163
0.94149568
0.88298429
0.84941294
0.84240783
0.87073183
0.94143618
1.2424652
1.1821972
1.0915937
1.0020438
0.93127531
0.88489723
0.85922869
0.85356455
0.86767854
0.90735845
0.97810062
1.0827177
1.1938709
1.2571735
1.2239468
1.1262208
1.0225436
0.93817973
0.88158238
0.85097092
0.84568698
0.87526938
0.94714237
1.2305824
1.1780724
1.094075
1.006841
0.93471559
0.88345302
0.85616942
0.85138838
0.86793959
0.9144815
0.99494348
1.0989771
1.1970487
1.244171
1.2064681
1.1162783
1.0189923
0.93514512
0.87905274
0.84849943
0.84792533
0.8846951
0.96196391
1.1888438
1.1558043
1.0935396
1.016882
0.94708084
0.8923227
0.85995928
0.85547414
0.88083605
0.93790945
1.0233007
1.1135496
1.1850469
1.2089367
1.1695652
1.0933469
1.0094364
0.93267147
0.87872614
0.85304177
0.86388718
0.91071354
0.99371587
1.1005143
1.0961668
1.0746271
1.0334195
0.98054081
0.9269887
0.89308779
0.8919754
0.9270992
0.98686341
1.054894
1.1050408
1.1299183
1.1295382
1.1052635
1.0578807
0.99870267
0.93860053
0.89591649
0.8830955
0.9094158
0.9645989
1.0374361
0.98893273
1.0061014
1.0230334
1.0300667
1.0170341
0.99154196
0.97195295
0.97854202
1.0122156
1.0484363
1.0609487
1.0501344
1.0312811
1.0214706
1.0242734
1.01863
0.99443009
0.96429434
0.94659972
0.95569933
0.99633461
1.0378612
1.0625226
0.90051183
0.92412828
0.95869156
1.0042653
1.045999
1.0796145
1.1089572
1.1175697
1.0986957
1.0569806
1.0053797
0.95707773
0.93043079
0.93168742
0.94907159
0.97790137
1.007791
1.0332002
1.0611105
1.07903
1.0769476
1.0489623
1.0029633
0.87123832
0.89119436
0.93176987
0.99226246
1.0742018
1.1585299
1.2092915
1.1863136
1.1039959
1.0111024
0.93756917
0.89173885
0.87155847
0.87579472
0.91046182
0.97717107
1.0706058
1.1510268
1.1783894
1.1438864
1.0645868
0.98243047
0.91409292
0.92104511
0.936386
0.97024061
1.0213803
1.0784061
1.1312846
1.1501219
1.1176881
1.0539678
0.98099327
0.92089651
0.88154456
0.868767
0.89135344
0.95219954
1.04068
1.133423
1.1870461
1.1696446
1.0916467
0.99631778
0.91981966
0.87735745
1.0369295
1.0272817
1.0255522
1.022498
1.0170841
1.0098219
1.0066386
1.0087254
1.0006731
0.98275927
0.9583104
0.94657928
0.96034341
0.99397904
1.0315938
1.0604231
1.0727367
1.0679802
1.0445741
1.0134957
0.98117227
0.94691483
0.9305087
1.1032429
1.0698145
1.0267292
0.98542501
0.9526296
0.93171535
0.92432699
0.93430823
0.96319725
1.0051381
1.0477523
1.0762961
1.0843965
1.0676542
1.033196
0.99327952
0.95831681
0.93589726
0.93267706
0.95230353
0.99099422
1.044362
1.093644
1.0245481
1.0287274
1.015321
0.99006128
0.96231885
0.94406886
0.94096285
0.9557162
0.98726603
1.030314
1.0717599
1.0963007
1.0918279
1.0569551
1.0044802
0.95291209
0.91581094
0.90290558
0.91609086
0.95088739
1.0065029
1.0688527
1.1152719
0.956404
0.97127832
0.99311546
1.0129752
1.0272857
1.0312987
1.027532
1.020712
1.013895
1.0080499
1.0035043
0.99968314
0.99718226
0.99680751
0.99673265
0.99580997
0.99588615
0.99644518
0.9977522
0.9977273
0.99039362
0.97218831
0.95640117
0.97018956
0.97637501
0.99441853
1.0168174
1.0368085
1.0503338
1.0516627
1.0382967
1.0127728
0.98296507
0.95758121
0.94280164
0.94208211
0.95709117
0.98819277
1.031219
1.0728294
1.0959082
1.08682
1.040098
0.97160848
0.91538769
0.89185299
1.0249383
1.0156235
1.0058685
0.99925935
0.99526814
0.99341011
0.99388288
0.99792692
1.0022793
1.0031458
0.99911276
0.99015468
0.98097973
0.97770612
0.98245639
0.99386824
1.0130575
1.0333792
1.0458995
1.0485527
1.0275588
0.9849024
0.95628866
1.0183853
1.0191872
1.0112073
0.99838831
0.98257916
0.96941587
0.96416519
0.96998512
0.98696078
1.0124633
1.039193
1.0554756
1.0507923
1.0258555
0.98996851
0.95666715
0.93625563
0.93918949
0.96416052
1.0075751
1.0583278
1.0746746
1.0365121
0.98151164
0.98907502
0.99875442
1.0081813
1.0137056
1.0120054
1.0034711
0.99276683
0.98757351
0.99085402
1.0013605
1.0173449
1.0316154
1.0353715
1.022439
0.99504061
0.96330289
0.94494759
0.95118754
0.97688505
1.021366
1.057938
1.042163
0.99626238
0.99109024
0.9921098
0.99917081
1.0110572
1.02438
1.0327059
1.0287268
1.0108574
0.9863429
0.9657959
0.95808598
0.96810921
0.99375757
1.0256339
1.0480006
1.0463019
1.0148185
0.98051139
0.96126061
0.96771449
1.0088962
1.0367829
1.0236038
1.0157527
1.0020787
0.98971095
0.98385358
0.98716751
0.99870819
1.0137251
1.0225773
1.0168374
0.99733551
0.97394228
0.96212577
0.96910871
0.99237022
1.0197169
1.038373
1.0334113
0.99961778
0.96860936
0.95566779
0.98681442
1.0231891
1.0005097
1.0074552
1.0098184
1.0043274
0.99246684
0.98125201
0.97587366
0.97983652
0.99536319
1.0159381
1.0304778
1.031031
1.0173733
0.9975855
0.98156701
0.97492113
0.9790436
0.99554056
1.0151464
1.0191006
1.0060807
0.9817048
0.9809907
0.97911122
0.98519047
0.99710154
1.0100202
1.0173935
1.014073
1.0022498
0.98993581
0.9840914
0.98805441
0.99929876
1.0122881
1.0217429
1.0218204
1.0115103
0.99611501
0.9834658
0.98101553
0.99060999
1.0041069
1.0119663
1.0070802
0.99251355
0.99946982
0.99387844
0.99408668
0.99969309
1.0085609
1.0173483
1.020906
1.0163466
1.0050529
0.99287358
0.98533013
0.98394112
0.98801963
0.99649137
1.0064848
1.0110332
1.0069543
0.99910343
0.99368288
0.99736127
1.0050179
1.0079701
1.0019583
1.0204893
1.014267
1.0037251
0.99447129
0.98941694
0.99002908
0.99527221
1.0031262
1.009432
1.0104225
1.0050484
0.99578563
0.9882178
0.98631167
0.9904125
0.9996366
1.0082989
1.0095082
1.0047372
0.99964813
0.99760998
0.9981245
0.99820049
0.9993775
1.0034863
1.0039775
0.9995403
0.99262151
0.98602182
0.98361386
0.98631314
0.99363013
1.0032112
1.0109134
1.0137989
1.0104133
1.0037705
0.99890795
0.99819787
1.0007886
1.0037302
1.0030673
0.99945384
0.9964727
0.99598159
0.99725525
0.98379682
0.98733356
0.9939227
1.0015487
1.0074717
1.0094388
1.0064254
1.0008065
0.99633893
0.99549154
0.99845245
1.0028137
1.0063059
1.0067417
1.0042439
1.0009873
0.99916106
0.99890718
0.99885875
0.99839173
0.99785774
0.99862358
1.0008466
1.0031422
0.99894224
0.99731373
0.99916681
1.0035919
1.0088205
1.0121491
1.0112292
1.005906
0.99873708
0.99350426
0.99194099
0.99357396
0.99645438
0.99869324
0.99957341
0.99969157
0.99994346
1.0007663
1.0013518
1.0020985
1.0024689
1.0030988
1.0111853
1.0090982
1.0032869
0.99699173
0.99260988
0.9914582
0.9933664
0.99639134
0.99857599
0.99878949
0.99754165
0.99676652
0.99746676
0.99955556
1.0016896
1.0027461
1.0030899
1.0028091
1.0028503
1.0031199
1.0029286
1.0021916
1.0009536
0.99430175
0.9972002
0.99887092
0.99839299
0.99583631
0.99346874
0.99240079
0.99367207
0.99633454
0.99931313
1.0018439
1.0035021
1.0045938
1.0049287
1.0045581
1.0032496
1.0012544
0.99961714
0.99889997
0.99921899
0.99963754
0.9996787
0.9989744
0.99247533
0.99379601
0.99714061
1.0012881
1.0043553
1.0058165
1.0056565
1.0046669
1.003659
1.0028806
1.0022861
1.0015241
1.0005475
0.99925345
0.9978163
0.99656553
0.99567732
0.99563811
0.99649774
0.99799871
0.99976345
1.0008922
1.0012887
1.0054501
1.0036069
1.0023142
1.0018848
1.0017909
1.0017201
1.0011081
1.0001444
0.9990212
0.99764401
0.99638772
0.99543666
0.99477544
0.99471481
0.99511955
0.99624188
0.99796087
0.99981455
1.0014841
1.0025314
1.0025259
1.0014829
1.0000872
1.0022558
1.0019523
1.000704
0.99898041
0.99699748
0.99549256
0.99452648
0.99404252
0.99443481
0.99519863
0.99611199
0.99719272
0.9982571
0.99944362
1.0004807
1.0012836
1.0018921
1.0021372
1.0018394
1.0008476
0.99923133
0.997547
0.99598093
0.99703468
0.99775054
0.99885511
0.99918729
0.99968725
0.99987127
0.99988143
1.0004998
1.0007874
1.0015745
1.0018194
1.0019015
1.0016396
1.0010649
1.0001339
0.99889798
0.99754717
0.99619691
0.99500691
0.99414427
0.99394884
0.99450005
0.99593778
1.0000784
0.99972512
1.0002919
1.0003949
1.0008536
1.0010805
1.0007421
1.0009981
1.0002658
0.99978228
0.99872006
0.99737843
0.9960582
0.99494998
0.99418704
0.9938806
0.99413177
0.99462168
0.99535122
0.99619348
0.99710386
0.99846623
0.99975827
1.0008343
1.0006857
1.0004407
0.99982479
0.99950186
0.99888912
0.99820317
0.99811588
0.99737856
0.99716978
0.99665495
0.99605692
0.99594327
0.99572382
0.99631581
0.99711005
0.99800773
0.99882864
0.99929563
0.99951618
0.99921622
0.99836391
0.99715132
0.9990348
0.9993893
0.99938537
0.99941616
0.99939691
0.99903651
0.99903359
0.99885013
0.99866913
0.99879754
0.99860619
0.9987231
0.99866168
0.99893259
0.99870391
0.99860113
0.99786672
0.99693323
0.99585704
0.99484617
0.99394232
0.99315811
0.99244929
0.99962229
0.99980053
0.9996726
0.99979672
0.99995569
0.99951012
0.99958093
0.99904322
0.99885569
0.99851701
0.99771384
0.99750765
0.99656889
0.99629007
0.99554316
0.99512227
0.99424303
0.99350543
0.99312613
0.99292004
0.99339212
0.99434428
0.99533047
0.99937817
0.99975103
0.99944115
0.99958995
0.9996802
0.99901468
0.99902163
0.99858806
0.9983402
0.99813588
0.99767048
0.99755961
0.99671239
0.99638274
0.9958154
0.9954867
0.99510386
0.99491284
0.99488243
0.9949042
0.99512306
0.99545075
0.99575202
0.99906491
0.99928992
0.9991343
0.99930406
0.99934172
0.99893603
0.99913848
0.99880769
0.99846536
0.99847284
0.99802344
0.99767926
0.99732716
0.99683009
0.996357
0.9957457
0.99535521
0.99497743
0.99488865
0.99466075
0.9940846
0.99335818
0.99242521
0.99903322
0.99936123
0.99910942
0.99916213
0.99930767
0.99897234
0.99915499
0.99904302
0.9987511
0.99868934
0.99801782
0.99766451
0.99746721
0.99669857
0.99644082
0.99541908
0.99477124
0.99394628
0.9935422
0.99333702
0.9930818
0.99272495
0.99204177
0.99845957
0.99894925
0.99896433
0.99906196
0.99930513
0.99897373
0.99903599
0.99896573
0.99868227
0.99868522
0.99795043
0.99744938
0.99707077
0.99636197
0.99649582
0.99562093
0.99538
0.99452358
0.99383702
0.9933173
0.99282487
0.99269175
0.99229084
0.99839496
0.99869691
0.99874059
0.99891006
0.99922032
0.99888318
0.99885622
0.99869799
0.99834909
0.99862334
0.99837674
0.99805479
0.99755783
0.996607
0.99640645
0.99560121
0.99556396
0.99478067
0.99423125
0.99349501
0.99270882
0.99236449
0.99174446
0.99782664
0.99799969
0.99810032
0.99826027
0.99858999
0.99846119
0.99848878
0.99846534
0.99813483
0.99835164
0.99822064
0.99815331
0.9979321
0.99704638
0.99658358
0.99570061
0.99545608
0.99468952
0.99427191
0.99359004
0.99297459
0.99246085
0.99172682
0.9970849
0.99710254
0.99706116
0.99698719
0.99717963
0.99725363
0.99754902
0.99793324
0.99785303
0.9979264
0.99756799
0.99734298
0.99718508
0.99661075
0.99640987
0.99576484
0.99540398
0.99477927
0.99433849
0.99372014
0.99310555
0.99254042
0.9920142
0.99531325
0.9954709
0.9956234
0.99559009
0.9957528
0.99593669
0.99610465
0.99650816
0.99650051
0.99648825
0.99626707
0.99600759
0.99592577
0.99557516
0.99551697
0.99526433
0.99507723
0.99468015
0.99430149
0.99375009
0.99297572
0.99220035
0.9917292
0.99375508
0.99387424
0.99418477
0.99431326
0.99450756
0.99467506
0.99458154
0.99459046
0.99437942
0.99418437
0.99421164
0.99427353
0.99443759
0.99444939
0.99440576
0.99421068
0.99404329
0.99368117
0.99334705
0.99300703
0.99258318
0.99228922
0.99197408
0.99325068
0.99315862
0.99320062
0.9930796
0.99301361
0.99306365
0.992987
0.99298831
0.99293372
0.99265122
0.9926191
0.9925448
0.99259409
0.99265835
0.99262208
0.99249319
0.99245692
0.99224095
0.99204961
0.99190562
0.99178604
0.99187872
0.99182164
0.9930632
0.99296844
0.99298105
0.99280418
0.99263713
0.99243789
0.99217051
0.99200536
0.99190091
0.99161755
0.99146209
0.99120939
0.9910511
0.99095588
0.9908163
0.99075882
0.99072016
0.99075219
0.99086453
0.99093209
0.99107329
0.9912079
0.99119527
0.99377351
0.99352899
0.99332746
0.9931225
0.99293238
0.99271123
0.99241325
0.9920845
0.99164326
0.99124184
0.99092063
0.99062183
0.99027782
0.99012566
0.98992071
0.98980002
0.98971231
0.98972911
0.98990536
0.99002139
0.99026063
0.99035746
0.99049455
0.99440591
0.99423666
0.99412207
0.99394824
0.99370509
0.99337172
0.99303234
0.99267703
0.99228714
0.99189658
0.99148326
0.9910145
0.99053318
0.9901773
0.98985503
0.98964004
0.98953937
0.98941095
0.98943853
0.98949548
0.98971921
0.98988376
0.99021765
0.99493013
0.99484733
0.99481404
0.99464982
0.99443802
0.99415686
0.99385933
0.99359996
0.9933148
0.99301702
0.99260275
0.99207043
0.99158485
0.99109931
0.9906734
0.99040304
0.99018369
0.98998246
0.98983949
0.98973431
0.98981851
0.99001015
0.99047741
0.99547928
0.99536419
0.99525544
0.99510901
0.99497237
0.99485457
0.9947556
0.99454354
0.99433482
0.9940325
0.99371755
0.99338599
0.99299221
0.9926009
0.99219472
0.99179264
0.99151348
0.99132664
0.99106212
0.99091455
0.9908168
0.99084846
0.99127401
0.99592857
0.99584922
0.99567215
0.99557452
0.99555835
0.99541375
0.99550473
0.99535535
0.99519389
0.99500842
0.99479022
0.99464177
0.99440893
0.99420554
0.9940144
0.99368785
0.99338624
0.99309268
0.9928884
0.99271289
0.99262806
0.99260144
0.99293772
0.99644899
0.99646182
0.99636413
0.99623664
0.99620058
0.99601602
0.99613255
0.99600962
0.99585339
0.99583069
0.9957054
0.9957626
0.99562299
0.99551261
0.99540704
0.99530442
0.9951818
0.99500172
0.99490436
0.99485186
0.99482259
0.9948147
0.99500018
0.99723009
0.99715473
0.99715756
0.99704811
0.99693503
0.99680614
0.99680114
0.99667593
0.99655722
0.99661121
0.99648082
0.99674316
0.99659319
0.9965782
0.99641076
0.99640694
0.9964218
0.99646063
0.99647707
0.99648288
0.99658075
0.99658819
0.99657802
0.99797117
0.99777447
0.99767015
0.99764897
0.99763883
0.99754567
0.99750676
0.99749938
0.99743757
0.9975084
0.99726798
0.9974317
0.99724618
0.99738266
0.99723386
0.99735872
0.99740392
0.99758018
0.99753017
0.99747883
0.9975361
0.9977441
0.99787858
0.99823621
0.99815744
0.99808628
0.99809758
0.99815885
0.99817743
0.99811107
0.99801763
0.99800626
0.99817938
0.99808058
0.99808168
0.99791389
0.99807843
0.9981373
0.99816512
0.99807175
0.99810037
0.99827384
0.99829889
0.99832929
0.99853468
0.99875879
0.99822847
0.99837826
0.99841909
0.99831302
0.99819812
0.99826322
0.99840422
0.99839666
0.99832751
0.99841385
0.99850496
0.99857585
0.99844847
0.99846414
0.99863806
0.99871848
0.99865032
0.99852975
0.99877065
0.99898532
0.99910933
0.99900969
0.99898127
0.9981437
0.99837421
0.99847423
0.99832458
0.99810826
0.99814037
0.99841138
0.99858072
0.99851819
0.99844578
0.99848516
0.99862356
0.99865421
0.99863837
0.99873031
0.99887249
0.9989802
0.99897762
0.99906404
0.9991904
0.99927977
0.99929513
0.99934825
0.99833111
0.99827397
0.99823742
0.99820206
0.99820338
0.99832683
0.99852058
0.99859159
0.99846364
0.99839831
0.99851439
0.99869425
0.99876586
0.99876772
0.99883098
0.99898265
0.99905615
0.99901474
0.99909676
0.99930258
0.99940455
0.99930366
0.99924341
0.99839691
0.9982578
0.99815902
0.99821768
0.99832329
0.99846196
0.99852133
0.99849056
0.99841781
0.99833395
0.99845208
0.99876276
0.99893868
0.99884421
0.99869206
0.99881008
0.99911997
0.99928326
0.99909062
0.99902548
0.99922505
0.9995493
0.99947702
0.9984847
0.99869932
0.99884833
0.99857147
0.99833103
0.99844336
0.99863968
0.99871363
0.99864486
0.99851532
0.99857277
0.99878631
0.99891593
0.99885579
0.9987156
0.99885347
0.99914506
0.99924806
0.99909493
0.99883345
0.99908695
0.99955707
0.99973454
0.99816237
0.99900511
0.99919062
0.99867448
0.9981472
0.99820247
0.99877753
0.9993112
0.99910242
0.99837383
0.99832858
0.99880128
0.99907924
0.99911301
0.99888231
0.99883903
0.99899125
0.99904576
0.99901885
0.99902031
0.99909393
0.9994465
0.99956917
0.9989606
0.9989214
0.99844872
0.9984767
0.99861223
0.99877847
0.9990057
0.99888727
0.99877088
0.99869035
0.99853536
0.99874007
0.99918828
0.99901659
0.99861191
0.99877793
0.99911733
0.99918052
0.99889729
0.99871655
0.99917847
0.99926853
0.99908694
0.99933788
0.99865699
0.99804746
0.99822109
0.99887555
0.99945639
0.99915571
0.99842696
0.99821552
0.99855583
0.99896019
0.99914803
0.99883737
0.9985968
0.99872913
0.9985278
0.99889785
0.99923628
0.99886139
0.99871725
0.99857152
0.9990629
0.99898967
0.99956985
0.99842428
0.99778381
0.99803045
0.99897142
0.99974096
0.99931552
0.99823698
0.99762631
0.99829632
0.99932377
0.99932076
0.99880639
0.99814302
0.99813283
0.99872459
0.99891599
0.99883764
0.99848322
0.99861877
0.9984567
0.99864753
0.99894304
0.99977426
0.99828343
0.99765115
0.99810089
0.99903221
0.99965753
0.99891285
0.99801433
0.99787305
0.99826993
0.99939101
0.9993769
0.99835952
0.99794984
0.99782877
0.99864437
0.99919021
0.99857436
0.99828797
0.99793238
0.99833557
0.99839046
0.99874702
0.99935244
0.99831536
0.99796731
0.99855237
0.99890448
0.99890541
0.99877952
0.99833378
0.9981916
0.99850001
0.99881112
0.99874279
0.99829421
0.99809081
0.99819058
0.99847077
0.99876482
0.99839436
0.99814523
0.99765921
0.99812001
0.9981245
0.99828614
0.99853438
0.99832941
0.99873198
0.99908715
0.99888429
0.99845511
0.99820681
0.99844556
0.99880301
0.9986085
0.99821004
0.99832066
0.99848042
0.99809391
0.99808496
0.99845543
0.99858341
0.99821905
0.99782959
0.99743391
0.99787708
0.99812242
0.99863216
0.99876583
0.99810988
0.99851639
0.99916245
0.9989874
0.99820876
0.99794025
0.99841426
0.99887628
0.99876849
0.99826441
0.99796232
0.99818424
0.99834571
0.99812373
0.99819085
0.99828755
0.99810247
0.99774428
0.99725637
0.99778219
0.99832974
0.99859969
0.99851753
0.99837602
0.99849486
0.99878555
0.99884707
0.99843724
0.99803931
0.99819943
0.99864291
0.99869888
0.99835173
0.99813705
0.99812491
0.99821566
0.99816731
0.99793876
0.99784723
0.998025
0.99812386
0.99754602
0.99728035
0.99777911
0.9984343
0.99846631
0.99849308
0.99875125
0.99888981
0.99877431
0.99838821
0.99802182
0.99810099
0.99861003
0.9989258
0.99858692
0.99806065
0.99778057
0.99786891
0.99818519
0.99829971
0.99811743
0.99774839
0.99759028
0.99749338
0.99744868
0.9976272
0.99774358
0.99909307
0.9988923
0.99850088
0.99844172
0.9986947
0.99887113
0.99871221
0.99840883
0.99838548
0.99863712
0.99863976
0.99822179
0.99784851
0.99794416
0.99835015
0.99847619
0.9980316
0.99746294
0.99740831
0.99774503
0.99783009
0.99732786
0.99682937
0.99956418
0.99923877
0.998548
0.9983408
0.99876176
0.99953571
0.99966367
0.99892844
0.99815283
0.99799423
0.99851437
0.99907613
0.99888513
0.99827617
0.99799698
0.99806699
0.99813171
0.99796797
0.99774839
0.99769991
0.9977202
0.99748188
0.99710119
0.99992021
0.99957225
0.99905891
0.99886814
0.99918609
0.99986312
0.99982128
0.9991659
0.99871211
0.99834358
0.9989181
0.99956865
0.99914267
0.99861997
0.99805347
0.99815564
0.99858649
0.99855582
0.9982642
0.99772978
0.99769433