/*--------------------------------*- C++ -*----------------------------------*\
| =========                 |                                                 |
| \\      /  F ield         | OpenFOAM: The Open Source CFD Toolbox           |
|  \\    /   O peration     | Version:  2406                                  |
|   \\  /    A nd           | Website:  www.openfoam.com                      |
|    \\/     M anipulation  |                                                 |
\*---------------------------------------------------------------------------*/
FoamFile
{
    version     2.0;
    format      ascii;
    arch        "LSB;label=32;scalar=64";
    class       volScalarField;
    location    "160";
    object      T;
}
// * * * * * * * * * * * * * * * * * * * * * * * * * * * * * * * * * * * * * //

dimensions      [0 0 0 1 0 0 0];

internalField   nonuniform List<scalar> 
20580
(
1.0030174
1.0011719
1.0027973
1.0024396
1.0016006
1.0019744
1.0019991
1.0024538
1.0019868
1.00199
1.0020541
1.0024184
1.0020436
1.002034
1.0024011
1.0024436
1.0012236
1.002308
1.0034827
1.0007248
1.001293
1.0032312
1.0021454
0.99921607
1.0005612
1.0048931
1.0046001
1.0015321
1.0040036
1.004631
0.99086857
1.0030096
1.00105
1.0028051
1.0025585
1.0014594
1.0020904
1.0020403
1.002508
1.0018593
1.0018988
1.0022163
1.0024601
1.0018311
1.0020321
1.0026211
1.0020728
1.0008293
1.0031373
1.0029948
1.0000167
1.0021081
1.0036884
1.0011746
0.99849475
1.001263
1.0072733
1.0061966
0.99865602
0.99861857
1.0054085
1.0012605
1.0028585
1.0013535
1.0024907
1.002516
1.0016662
1.0022687
1.0021134
1.0023277
1.0017978
1.0018287
1.0023279
1.0024306
1.0017307
1.0020801
1.0026635
1.0019088
1.0007502
1.0036214
1.0025679
0.99965846
1.0029311
1.0041979
1.0006418
0.99921014
1.0014417
1.0067854
1.0065135
0.99741827
0.99347641
1.002566
1.0109463
1.0025932
1.0020331
1.0020388
1.0022841
1.002079
1.0023911
1.0021904
1.0019768
1.0019225
1.0018307
1.0023444
1.0023306
1.0017697
1.0021619
1.0025309
1.0019346
1.0010289
1.00375
1.0021421
0.99981716
1.0036157
1.0040739
1.0008554
1.0007853
1.001903
1.0042297
1.0050729
0.9980906
0.99135122
0.99750832
1.0115929
1.0022018
1.0028648
1.0017323
1.0019002
1.0024664
1.0023175
1.0022361
1.0016515
1.0021146
1.0019714
1.0022943
1.002141
1.0019471
1.0022771
1.0023208
1.0019938
1.0016188
1.0036047
1.0015705
1.0004999
1.0040238
1.0030831
1.0010506
1.0028827
1.0029225
1.0012508
1.0020279
0.99977881
0.99371664
0.9938691
1.0048764
1.0017808
1.0033342
1.0017002
1.0015733
1.0025868
1.002039
1.0021778
1.0015504
1.002175
1.0021992
1.0022155
1.0019052
1.0021515
1.0023612
1.0020678
1.0019557
1.0024211
1.0031737
1.000941
1.0014594
1.0041661
1.0018099
1.0002442
1.004522
1.0043045
0.99903133
0.99813922
1.0018407
1.0000748
0.99551768
0.99594223
1.0017594
1.003259
1.001925
1.0015286
1.0024214
1.0017002
1.0019502
1.0017216
1.00209
1.0023403
1.0021179
1.0017385
1.0023129
1.0024092
1.0017756
1.0018849
1.0031054
1.0025592
1.0005578
1.0023437
1.0040683
1.0007418
0.99915926
1.0046408
1.0055725
0.99822798
0.99512471
1.0020392
1.0069249
1.0020399
0.99328785
1.0021463
1.0027891
1.0022147
1.0017426
1.0021002
1.0015186
1.0016649
1.0019697
1.0018966
1.0023257
1.0020337
1.0017075
1.0023498
1.0024181
1.0015964
1.0017739
1.0033978
1.0019504
1.0003926
1.0030354
1.0037642
0.99995563
0.99885261
1.0034815
1.005559
0.9991162
0.9947961
1.0004582
1.0094231
1.007963
0.99686892
1.0026609
1.0019889
1.0023943
1.0021118
1.0017736
1.0016497
1.0014938
1.0021028
1.0017164
1.00222
1.0020043
1.0018124
1.0022776
1.0023249
1.0016711
1.0016539
1.0033102
1.0015488
1.0005534
1.0035112
1.0031595
0.99987383
0.999737
1.0022007
1.0040206
1.0009086
0.9968674
0.99888468
1.0069079
1.0102879
1.0010708
1.0028205
1.0010837
1.0022971
1.0024576
1.0015512
1.0020406
1.0015557
1.0020659
1.0017559
1.0021064
1.0020294
1.001977
1.0021742
1.0020779
1.0018896
1.0016317
1.0029836
1.0012505
1.0010861
1.0037642
1.0020839
1.0004721
1.0016381
1.0018606
1.0014833
1.0022929
1.0007867
0.99984256
1.0016099
1.0064088
1.0040064
1.0027033
1.0005096
1.0019452
1.0024853
1.0014714
1.0023441
1.001819
1.0018454
1.0019531
1.0019859
1.0020547
1.0021861
1.0020844
1.0017798
1.0021043
1.0018251
1.0025143
1.0010419
1.0019296
1.0038074
1.0008564
1.0008231
1.0041285
1.0024677
0.99905884
1.0017729
1.0049412
1.0028803
0.99791994
0.9981302
1.0031257
1.0024774
1.0007369
1.0016189
1.0022082
1.0016398
1.0023507
1.0021483
1.0016203
1.0020609
1.0018136
1.0019536
1.0023221
1.0019643
1.001497
1.0021913
1.0021499
1.0019787
1.0010288
1.0027277
1.0036437
0.99994559
1.0006026
1.0057175
1.0033777
0.9975217
0.99961433
1.0067412
1.0056048
0.99757267
0.99107749
0.99689034
1.0021219
1.0015284
1.0015085
1.0017878
1.001881
1.0020514
1.0023063
1.0016217
1.0020492
1.001667
1.0018271
1.0023286
1.0018312
1.0013042
1.0021342
1.002391
1.0015176
1.0011686
1.0031372
1.0032809
0.99934422
1.00026
1.0057191
1.0037846
0.99723041
0.99781511
1.0052534
1.0071249
0.99913458
0.99005452
0.99053608
1.0016934
1.0025463
1.0017326
1.0015021
1.002147
1.0016852
1.0021718
1.0018335
1.001972
1.0016175
1.0018224
1.0022952
1.0017803
1.0013513
1.0019768
1.0024775
1.0013629
1.0014538
1.0031854
1.0027922
0.99941059
1.00042
1.0042744
1.0034718
0.99810846
0.9980446
1.0019366
1.0059067
1.0014524
0.99380356
0.99043427
1.0014264
1.0031748
1.0020533
1.0013228
1.0022588
1.0014519
1.0017926
1.0020268
1.001806
1.0016834
1.0019109
1.0021637
1.0017713
1.001631
1.0017705
1.0024079
1.0014481
1.0018549
1.0030287
1.0019863
1.0002657
1.0013565
1.0027328
1.0018036
1.0003892
1.0001944
1.0003835
1.0017517
1.0030875
1.0003368
0.99652397
1.0015565
1.0031466
1.0022343
1.0013946
1.0021672
1.0014866
1.0014302
1.0020477
1.0016117
1.0018531
1.0019836
1.0018684
1.0017311
1.0019929
1.0015858
1.0022064
1.0015476
1.0023543
1.002664
1.0010224
1.0014497
1.0027877
1.0014638
0.99930875
1.0018941
1.0033347
1.0012117
0.99758584
1.0006617
1.0050877
1.0042932
1.0021543
1.0025079
1.002259
1.0018431
1.0019842
1.0018156
1.0013387
1.0019182
1.0015231
1.002052
1.0020729
1.0016048
1.0017187
1.0022511
1.001496
1.0018711
1.0015705
1.0027287
1.0022211
1.0001555
1.0021238
1.0042886
1.0008574
0.99732249
1.0015252
1.0060553
1.0027547
0.99532526
0.99585338
1.0036481
1.0083868
1.0027694
1.0015849
1.0020973
1.002337
1.0017767
1.0021737
1.0016123
1.0016565
1.0015714
1.0021631
1.0021699
1.0015143
1.0017215
1.0023706
1.0015073
1.0016033
1.0016167
1.002889
1.0019305
0.99975014
1.0021741
1.0052122
1.0011208
0.99642843
1.0003299
1.0069925
1.0042557
0.99623366
0.99300779
0.99955971
1.0074328
1.0029898
1.0007602
1.0016885
1.002456
1.0014643
1.002179
1.001944
1.0012895
1.0015989
1.0020371
1.0021126
1.0015557
1.0016708
1.0023052
1.0015893
1.0014683
1.0016836
1.0027483
1.0017998
0.99998508
1.0018929
1.004941
1.0017137
0.99739128
0.99980189
1.0053622
1.0049343
0.99786528
0.99426604
0.9969469
1.0032314
1.0028154
1.0005966
1.0014523
1.0022899
1.0013633
1.0019298
1.002084
1.0011281
1.0016559
1.0017807
1.0018838
1.0016317
1.0015842
1.0020211
1.0017179
1.0014671
1.0017767
1.0023564
1.0017551
1.0007849
1.0018483
1.0036137
1.0021028
0.99957204
1.000859
1.0030982
1.003428
1.0008962
0.99822913
0.99837971
1.0004435
1.0024811
1.0012757
1.0015832
1.0020262
1.0016341
1.0017923
1.0020722
1.0014165
1.0018092
1.0016661
1.0017233
1.0017977
1.0017371
1.0016538
1.0018545
1.0016028
1.00193
1.0018653
1.0015886
1.0019646
1.0021035
1.0017543
1.0014566
1.0020773
1.0026926
1.0011367
0.99985051
1.002054
1.0031798
1.0020141
0.99923039
1.001937
1.0023016
1.0019949
1.0015587
1.0019342
1.0016814
1.0016546
1.001757
1.0017622
1.0015436
1.0014999
1.0018328
1.0018451
1.0011957
1.0018104
1.0017016
1.0020573
1.0013571
1.0011953
1.0029576
1.0024294
1.0000907
0.9999004
1.0032592
1.0042793
0.99989142
0.99578658
0.9994323
1.00532
1.0050178
0.99941903
1.0013436
1.0028238
1.0020349
1.0005748
1.0016847
1.0014762
1.0005048
1.0017773
1.0013781
1.0009328
1.000666
1.0015385
1.0018072
1.0007063
1.0015533
1.0016065
1.0019396
1.0008812
1.0006059
1.0031486
1.002818
0.99910097
0.99832177
1.0027615
1.005341
0.99983422
0.99337785
0.99584905
1.0038916
1.0063055
1.0002557
0.99151246
0.99425016
0.99915188
1.0033596
1.0054448
1.0062937
1.0041455
1.0002284
0.99704332
0.99701273
1.0000442
1.0037584
1.0032867
0.99483605
0.98565124
0.98511737
0.99414553
1.0057568
1.0125891
1.0121642
1.0019342
0.98870324
0.98406107
0.99638448
0.99988176
1.0016318
0.99968523
0.99447075
0.98981272
0.98982065
0.99478053
1.0026519
1.0085209
1.0109205
1.0095449
1.0018209
0.99033947
0.98324907
0.98695247
0.99741356
1.0055021
1.0046403
0.99510855
0.98678325
0.98880246
0.99564737
1.0095389
1.0086087
1.0037747
0.99538621
0.98702468
0.98277069
0.98706432
0.99620945
1.0035807
1.0044013
0.99960716
0.99459917
0.99383662
0.9959796
0.99863279
1.0033043
1.0080895
1.0050585
0.99038907
0.97394247
0.97277825
0.98471052
1.0013318
1.0026974
1.0015334
1.0002458
0.99821519
0.99647406
0.9970817
1.0026854
1.0054574
1.0013279
0.98875663
0.97455678
0.97251989
0.98239814
0.99814127
1.0097834
1.013117
1.0117117
1.0019611
0.98799668
0.97546079
0.97457504
0.98534034
0.99961529
0.97897976
0.98328985
0.99195683
1.0024131
1.0093895
1.0109896
1.0120427
1.0079284
0.9991738
0.98538081
0.97144133
0.97069301
0.98319029
0.9978526
1.004272
0.99568281
0.98540924
0.98285036
0.9876456
0.99273517
0.99348407
1.0000508
1.0052975
0.97353617
0.98245513
0.99435905
1.0018258
1.0001977
0.99344683
0.98875682
0.9907635
0.99423117
0.99548418
0.99198419
0.99045928
0.99927041
1.0033232
0.99580628
0.97257003
0.95011068
0.9530775
0.97172035
0.99557111
1.0089339
1.0122728
1.0093524
0.99546679
1.0017518
1.0021954
0.99506482
0.97906257
0.96165423
0.95416867
0.96178378
0.9794507
0.99978738
1.0094606
1.0055444
1.0060885
1.0023533
0.99314251
0.9733104
0.947733
0.94214964
0.9579892
0.98365687
1.0004156
0.99650206
0.98675385
1.0125153
1.0092465
1.0016808
0.98983656
0.97267817
0.9535828
0.94475868
0.9544668
0.97442668
0.99469162
0.99967644
0.9881069
0.9764507
0.97839664
0.98588596
0.98779193
0.97539792
0.95997199
0.96647123
0.98016666
0.98624536
0.96845602
0.94227262
0.98143736
0.98716351
0.99405825
0.99396022
0.98410789
0.9683717
0.95920913
0.96971734
0.98486722
0.99223381
0.98047316
0.95142034
0.92605627
0.93117476
0.95271332
0.98310027
0.9990314
0.9911551
0.98253662
0.98290917
0.97868134
0.95732357
0.92271838
0.94064768
0.95096346
0.96757718
0.98491351
0.99501147
0.99127225
0.9801475
0.98215229
0.98541375
0.98410775
0.96835113
0.93683641
0.90294583
0.8951438
0.91410501
0.95309193
0.99031432
1.0002267
0.98459969
0.97739893
0.97339991
0.96149959
0.93371925
0.92026313
0.93208745
0.95296564
0.97375977
0.9864474
0.98249619
0.96873777
0.96631145
0.97157029
0.97454311
0.96601879
0.93858119
0.90354079
0.88444819
0.89915581
0.93383386
0.96754175
0.97232548
0.95455347
0.94228315
0.95141444
0.9630871
0.95338986
0.91913717
0.93552174
0.95966196
0.9755685
0.97073999
0.94185162
0.911317
0.90728332
0.92975719
0.95899254
0.96920237
0.95252678
0.91530802
0.88277788
0.8963019
0.92760733
0.95271062
0.94554694
0.91056922
0.88482764
0.90114593
0.93722952
0.9612958
0.9337183
0.94985161
0.96826239
0.96677475
0.93797419
0.89049151
0.8512282
0.84293146
0.87169442
0.91754412
0.95462751
0.95840459
0.92764493
0.88787786
0.89401328
0.9204834
0.93766651
0.92276891
0.87840131
0.8379185
0.84931835
0.89085687
0.94149548
0.94684981
0.95791871
0.96291878
0.94333862
0.89843332
0.84472632
0.8063259
0.79710455
0.82578915
0.87473978
0.92100534
0.94086479
0.92391706
0.89124748
0.89085424
0.90919698
0.91838642
0.89846674
0.85113947
0.81135592
0.81308832
0.84874374
0.90669607
0.94446039
0.95242874
0.94904471
0.91670379
0.86452773
0.81056634
0.77576396
0.76874892
0.79588247
0.84197778
0.88638691
0.91054532
0.90437043
0.88400533
0.88180654
0.89333042
0.89722601
0.87672449
0.83166699
0.79428212
0.78854393
0.81967039
0.87578642
0.9289337
0.93734551
0.93101367
0.89409036
0.83726181
0.78468245
0.75435768
0.74939925
0.77544527
0.81803814
0.85835363
0.87985403
0.87871601
0.86739199
0.86692269
0.87588663
0.87659856
0.85454814
0.8126559
0.7811852
0.77461461
0.80184839
0.85423838
0.9118882
0.91925506
0.91038452
0.87108721
0.81547743
0.76609866
0.73940655
0.7356434
0.75881983
0.7962121
0.83110177
0.85138228
0.85491935
0.8505153
0.85257094
0.85767804
0.85350989
0.82968658
0.79300225
0.76801481
0.76427269
0.79002059
0.83829218
0.89665585
0.90209388
0.89236049
0.85259418
0.79775482
0.7502671
0.72444716
0.72068054
0.74195306
0.77659511
0.80818346
0.82850372
0.83488614
0.83402094
0.83752707
0.8406421
0.83160906
0.80530226
0.77241765
0.75329428
0.7545126
0.78165613
0.82518816
0.87751988
0.88379491
0.87466196
0.83545796
0.78047176
0.73207588
0.70582818
0.70188078
0.72215045
0.75628078
0.78801595
0.80876626
0.81520282
0.8155102
0.8205351
0.82232231
0.809836
0.7823304
0.75533878
0.74035225
0.7462761
0.77430616
0.81284568
0.85079897
0.8609826
0.85731635
0.82220597
0.7666486
0.71533044
0.68618658
0.68208188
0.70376262
0.7392928
0.77212923
0.78926807
0.7920254
0.79165295
0.79867521
0.80076297
0.78796582
0.76286807
0.74031996
0.7298042
0.74118004
0.77022885
0.80441135
0.80909076
0.82677835
0.83469371
0.81344128
0.76240551
0.70849751
0.67626108
0.67275599
0.69629167
0.73094064
0.75723632
0.76538975
0.76192163
0.76179263
0.77322012
0.77774696
0.76751181
0.74672552
0.72991141
0.72581594
0.74397804
0.7731531
0.79752819
0.75938934
0.78260208
0.80436247
0.80085312
0.76212623
0.71199274
0.67976896
0.67924761
0.70337093
0.73056945
0.74101466
0.73558851
0.72686516
0.72997243
0.74654143
0.75550484
0.7507583
0.73683795
0.72750219
0.73389558
0.75843249
0.78058102
0.78578368
0.7187664
0.74225872
0.77308141
0.78481688
0.76450305
0.72611585
0.70223027
0.70431545
0.71832946
0.72525523
0.7183778
0.70468708
0.69771446
0.70682197
0.72412487
0.73734498
0.74141434
0.73975255
0.74463747
0.75962598
0.77417783
0.77468501
0.76215652
0.69119012
0.71419442
0.74935823
0.77138831
0.76675296
0.74100622
0.7229723
0.72191814
0.7214329
0.7115148
0.69645776
0.68496502
0.68248291
0.69395893
0.71164174
0.72995358
0.74663797
0.7601772
0.77144017
0.77869924
0.77175544
0.7543573
0.7370829
0.68811152
0.70977986
0.74469711
0.76795259
0.76179128
0.73558992
0.71843617
0.71690964
0.71407298
0.70300458
0.68964376
0.68106742
0.68251577
0.69726707
0.71863949
0.74078766
0.75957588
0.77242236
0.77851332
0.77361479
0.75558537
0.73637748
0.72621921
0.67417715
0.70661514
0.7463256
0.75957072
0.74026782
0.70992303
0.69715596
0.70190333
0.70611328
0.70424667
0.69795534
0.69607941
0.70566681
0.72354244
0.73861925
0.74812089
0.75375116
0.75811697
0.76182858
0.75989851
0.7514513
0.74147693
0.73768769
0.66576568
0.70101828
0.73747702
0.74208149
0.71676068
0.69287544
0.68519195
0.69062556
0.7009206
0.71139792
0.72100018
0.73015493
0.74006828
0.74578369
0.7447094
0.73990717
0.73593667
0.73549201
0.74062109
0.74805358
0.75567482
0.7641228
0.77093413
0.66504281
0.69260859
0.72735885
0.73337366
0.7130521
0.69647654
0.69237521
0.69842022
0.70961975
0.72278484
0.73538434
0.74560063
0.75183034
0.75132416
0.74407251
0.73499004
0.72914878
0.72942903
0.73630873
0.74526074
0.75426738
0.76082704
0.75900269
0.67365881
0.69181194
0.72105852
0.73277869
0.72556492
0.71847056
0.71650863
0.71854292
0.72201753
0.72586661
0.7301389
0.73482932
0.74022662
0.74476341
0.74731132
0.74812502
0.74857116
0.74915803
0.75104258
0.74723473
0.73601222
0.71602023
0.6955391
0.69804657
0.7074845
0.72380569
0.73166685
0.73000165
0.72936817
0.72983931
0.73006357
0.72857258
0.72632113
0.72526001
0.72662423
0.73145445
0.73955775
0.74991389
0.76051788
0.76839709
0.77068161
0.7622956
0.74002035
0.7084189
0.6796007
0.66264782
0.72961585
0.72866499
0.7303378
0.72827235
0.72426876
0.72326397
0.72490051
0.72865189
0.73278331
0.73606642
0.73840886
0.74040499
0.74311435
0.7472692
0.75182396
0.7551742
0.75652316
0.75320051
0.74274521
0.72667898
0.70609575
0.686107
0.67886298
0.74349774
0.73949623
0.73566908
0.72994625
0.72423338
0.72161463
0.72269583
0.72747866
0.73521971
0.74476859
0.75424111
0.76112865
0.76345677
0.76081945
0.75288945
0.74170161
0.72951195
0.71948907
0.71335874
0.71202298
0.71448349
0.71648965
0.7199155
0.74359271
0.73905977
0.73720975
0.73594974
0.73543759
0.73533108
0.73565568
0.73706785
0.74052505
0.74589078
0.75262314
0.75987964
0.76525304
0.76556532
0.75796246
0.74320493
0.72563107
0.71210514
0.70710799
0.71067652
0.72335091
0.74217953
0.75950969
0.75219764
0.74323217
0.73937485
0.73864339
0.74092742
0.74491643
0.74890101
0.7509075
0.75028934
0.74849239
0.74767439
0.74917709
0.75291653
0.75643387
0.7560951
0.75008581
0.73951473
0.72737362
0.72133983
0.72358331
0.73828652
0.76836868
0.80153087
0.76302066
0.75257721
0.7450843
0.7403879
0.73960423
0.7423606
0.74774089
0.75412788
0.75892209
0.75987811
0.75720014
0.75282325
0.7494597
0.74725457
0.74588174
0.74538929
0.74580353
0.74619031
0.74648869
0.75405465
0.772284
0.80662777
0.84349175
0.76250856
0.75529729
0.75109009
0.74718246
0.74427505
0.74357389
0.74546667
0.75020016
0.75729925
0.76448661
0.76898838
0.76865922
0.76292307
0.75376425
0.74493904
0.74059627
0.74297431
0.75334234
0.76981874
0.78819967
0.80758813
0.82733334
0.85098834
0.76056167
0.75365502
0.75211588
0.75273754
0.75389006
0.75419639
0.7538692
0.75444323
0.75684074
0.76110506
0.7659118
0.76924765
0.76918608
0.76471239
0.75778866
0.75257174
0.75272978
0.76096465
0.77745685
0.79965997
0.82338051
0.84455224
0.86018742
0.76752625
0.75800471
0.75436511
0.75410104
0.75631234
0.75965453
0.76258009
0.76416714
0.76435538
0.76429405
0.76482504
0.7653351
0.7650403
0.76392787
0.7632598
0.76424544
0.76810223
0.77670329
0.79105236
0.81131194
0.83381953
0.85377359
0.86807914
0.77580794
0.76619748
0.75981734
0.75614861
0.75545134
0.75731204
0.76096225
0.76544137
0.76951265
0.77189641
0.77208359
0.77025481
0.76744787
0.76506289
0.76521275
0.7699963
0.77919518
0.79153157
0.80665318
0.82411101
0.84223968
0.85863023
0.87165362
0.77466929
0.76781586
0.76367823
0.76058634
0.75886305
0.75876541
0.76071313
0.76437464
0.76911736
0.77389255
0.77735476
0.77824001
0.77626972
0.77342932
0.77313531
0.77788067
0.78809471
0.80255873
0.8189827
0.83552655
0.85088425
0.86407116
0.87493436
0.77348387
0.76717583
0.76478114
0.76469519
0.76585441
0.76737208
0.76876058
0.77029829
0.77232021
0.77497888
0.77773089
0.77940589
0.77964611
0.77949323
0.78139594
0.78746753
0.79833984
0.81302286
0.82929483
0.8448967
0.8583447
0.86941996
0.87855696
0.78013074
0.77259495
0.76866816
0.76763073
0.76885829
0.77142413
0.77429167
0.77663183
0.77803571
0.77878242
0.77934845
0.77981073
0.78032219
0.78216419
0.78709995
0.7959836
0.80860155
0.8236872
0.83915212
0.85310163
0.86473428
0.87369027
0.88080442
0.78497863
0.77887857
0.77383048
0.77063986
0.76963288
0.77077562
0.773444
0.77670624
0.7797697
0.78206929
0.78333882
0.78393647
0.78483596
0.78788913
0.79456692
0.80507831
0.81857476
0.83309843
0.84695061
0.85894918
0.86831775
0.87507867
0.88040178
0.78311022
0.77974053
0.77665785
0.77443799
0.77333607
0.77377059
0.77557961
0.77847959
0.78187604
0.78509428
0.78749598
0.78903747
0.79078654
0.79464697
0.80207423
0.81291534
0.825842
0.83908001
0.85112658
0.86113969
0.86854318
0.87382987
0.87824589
0.78287411
0.78161959
0.77976401
0.7787642
0.77886335
0.77997158
0.78180532
0.78408874
0.78662757
0.78904002
0.79088094
0.79217726
0.79407091
0.79842531
0.80635747
0.81744066
0.83007905
0.84249387
0.85326494
0.86168276
0.86771589
0.87196373
0.87581516
0.78487337
0.78591286
0.78437239
0.78263687
0.78189851
0.78243419
0.7839902
0.78616797
0.78862975
0.79087555
0.79258743
0.79398106
0.79626596
0.80135182
0.81002988
0.82157911
0.8342037
0.84593469
0.8554792
0.86229782
0.86647708
0.86905024
0.87167086
0.78431194
0.78721192
0.78711469
0.78549104
0.78404502
0.78379891
0.78481739
0.78689292
0.78965088
0.79252788
0.79498097
0.79711563
0.80006887
0.80564138
0.81452068
0.82571225
0.83731691
0.8476462
0.85560476
0.86065022
0.86316597
0.86452818
0.86618354
0.78485984
0.78721683
0.78886271
0.78849237
0.78777982
0.78766371
0.7884952
0.79055441
0.79322406
0.79625337
0.79886033
0.8010365
0.80371344
0.80864917
0.81653788
0.82654011
0.83699177
0.84611051
0.85284711
0.85695319
0.85896778
0.86009051
0.8616248
0.78929293
0.78977085
0.79126806
0.7915334
0.79121979
0.79101061
0.79145202
0.79301907
0.79522006
0.79793579
0.80041181
0.80239226
0.80461679
0.80870606
0.81571895
0.825127
0.83528078
0.8443405
0.85110113
0.85519586
0.85707016
0.85790428
0.85865208
0.79891713
0.7956299
0.79441772
0.79404804
0.79362256
0.79315183
0.79321942
0.79420917
0.79601245
0.79860313
0.80133739
0.80371142
0.80604065
0.80958985
0.81579267
0.82459016
0.8345049
0.84351257
0.85020113
0.85416513
0.8556486
0.85561991
0.85512725
0.81514424
0.80689665
0.80087464
0.79799739
0.79660882
0.79579009
0.79571007
0.79623757
0.79769423
0.80008167
0.80290769
0.8058104
0.80824252
0.81122502
0.81598004
0.82337154
0.83213982
0.84057684
0.8471409
0.85115645
0.85275839
0.85273987
0.85191936
0.82403178
0.81952149
0.8120511
0.80571254
0.80170567
0.79937661
0.79842794
0.79837185
0.79916393
0.80091952
0.80331107
0.80625279
0.80883659
0.81133823
0.81476094
0.82038502
0.82791546
0.8360755
0.84322959
0.84824043
0.85098617
0.8519303
0.85169274
0.82440598
0.8243944
0.82183009
0.81615218
0.80996708
0.80507021
0.80217291
0.80078607
0.80076728
0.80167862
0.80355159
0.80624479
0.80901494
0.81170049
0.81450238
0.81855899
0.82460818
0.83212563
0.83965631
0.84572333
0.84961297
0.85140616
0.85166598
0.82246408
0.82430046
0.82568206
0.82427542
0.81970031
0.81376804
0.80873283
0.80522927
0.80348708
0.80333473
0.80419711
0.80612591
0.80882074
0.81165652
0.81439761
0.81744795
0.82180963
0.82787307
0.83496863
0.84162471
0.84659982
0.84944377
0.85056628
0.81521704
0.82080651
0.8250713
0.8269925
0.8264764
0.82294625
0.81775043
0.8125378
0.80859953
0.80643734
0.80579997
0.8065581
0.80834893
0.81084095
0.81374802
0.81646254
0.81962088
0.82389038
0.82966995
0.83619545
0.84216352
0.84656227
0.84925499
0.80311236
0.81302942
0.82119892
0.82589806
0.82791435
0.82818467
0.82602982
0.82169561
0.81657907
0.81227283
0.80935921
0.80822776
0.8087912
0.81017015
0.81251179
0.81527824
0.81824627
0.82144173
0.8255663
0.83092191
0.83681628
0.84229934
0.84656143
0.78642374
0.80006529
0.81187304
0.82005401
0.82525131
0.82788959
0.82909043
0.8283161
0.82531226
0.82088198
0.81630046
0.8128252
0.81104086
0.8110279
0.81214275
0.81386396
0.81660392
0.8195048
0.82274567
0.82667253
0.83144341
0.83680234
0.84185051
0.76828807
0.78538814
0.79929498
0.80959689
0.81754218
0.82347524
0.82748041
0.82953386
0.82990552
0.82827622
0.82479405
0.82053282
0.81667686
0.81412316
0.81331435
0.81395499
0.81532673
0.81747019
0.82027378
0.82350327
0.8272215
0.83162949
0.83644453
0.75128461
0.77045196
0.78574899
0.79787618
0.80811125
0.81665538
0.82338503
0.82810106
0.83080235
0.83173739
0.83075838
0.82826724
0.82456555
0.82055052
0.81739572
0.81571059
0.81590656
0.81672787
0.81829435
0.82077736
0.82395187
0.82757118
0.83185041
0.73635772
0.75531549
0.77218109
0.78704707
0.80022623
0.81144333
0.8203115
0.82675681
0.83089211
0.83321162
0.83376417
0.83312275
0.83131774
0.8282246
0.82451253
0.82098909
0.81875361
0.81785603
0.81837494
0.81939749
0.82123269
0.82397476
0.8278187
0.72449963
0.73985107
0.75832355
0.77628065
0.79270711
0.80701039
0.81834668
0.82642902
0.83144773
0.83420282
0.83531524
0.83535053
0.83488063
0.83353855
0.83122482
0.82806794
0.82466679
0.82171707
0.81998482
0.8200025
0.82063114
0.82197981
0.82461877
0.7171833
0.72682182
0.74448795
0.76372673
0.78290882
0.80068549
0.81525452
0.82558489
0.83185589
0.83501796
0.83610926
0.83610557
0.83574115
0.83497701
0.83386485
0.83227494
0.83004307
0.82718912
0.82429252
0.82239338
0.82167354
0.82221018
0.82338007
0.71324793
0.71750445
0.73153498
0.74945241
0.76952171
0.78996454
0.80827255
0.82220669
0.830915
0.83514592
0.83647482
0.83632333
0.83564335
0.83472753
0.83373951
0.83274126
0.83168089
0.83031908
0.82842824
0.82629116
0.82446555
0.82354771
0.8235395
0.71139927
0.71243826
0.72135802
0.7352211
0.75330415
0.774185
0.79536981
0.81367571
0.82666571
0.83389339
0.83666104
0.83672257
0.8357597
0.83447807
0.83325786
0.83228381
0.83147373
0.83069697
0.82989282
0.82875567
0.82734595
0.8259683
0.8250578
0.71024173
0.71074949
0.71564622
0.72419914
0.73746834
0.75528665
0.77620166
0.79753828
0.81587972
0.82862579
0.83532916
0.83747363
0.83697588
0.83530893
0.83355932
0.83219156
0.83120179
0.830494
0.82992377
0.82937137
0.82871781
0.82789232
0.82698109
0.71009998
0.7109519
0.71419456
0.71865874
0.72618227
0.73817907
0.75469942
0.77452829
0.7954868
0.81429535
0.8279224
0.83543214
0.83807586
0.83794073
0.83596881
0.83376685
0.83200999
0.83081783
0.83007255
0.82959314
0.82923685
0.82888163
0.82845426
0.71131621
0.71246989
0.71526614
0.71839162
0.72237754
0.728321
0.73777059
0.75153302
0.7690908
0.78873031
0.80793294
0.82348241
0.83337108
0.83797289
0.83915543
0.83812843
0.83578405
0.83349941
0.83174866
0.83066647
0.83005137
0.82970518
0.82942447
0.71372039
0.71567391
0.71848398
0.72102156
0.72385845
0.72735584
0.73180848
0.73817854
0.74790879
0.76148605
0.7782141
0.79651473
0.81376881
0.82711025
0.83523872
0.8389842
0.84005458
0.83927843
0.83712421
0.83477733
0.83290006
0.83161293
0.83054466
0.71688577
0.72036203
0.72384507
0.72645743
0.72871069
0.73097892
0.73375575
0.73715236
0.74128305
0.74702136
0.75549858
0.76738351
0.78218574
0.79859402
0.81427047
0.82675815
0.8348274
0.8390625
0.84097107
0.84122047
0.8401534
0.83808404
0.83609323
0.72069219
0.726126
0.73077228
0.73414118
0.73668021
0.73872134
0.74052425
0.74230761
0.74452633
0.74741459
0.75093817
0.7554792
0.76173974
0.77071315
0.78251736
0.7963603
0.81046943
0.82285982
0.83212741
0.83808831
0.84156725
0.84384777
0.84489707
0.72488457
0.73238646
0.73833668
0.74292461
0.7465137
0.7493123
0.7514565
0.7530685
0.75432902
0.75547272
0.75679385
0.75872205
0.76132775
0.76452345
0.76856007
0.77416811
0.78196772
0.7921822
0.80386383
0.81566744
0.8262437
0.83455361
0.84095395
0.7292281
0.7387847
0.7460101
0.75188487
0.75680149
0.76093855
0.76434479
0.76704182
0.76905445
0.77042374
0.7711754
0.77155984
0.77175832
0.77227235
0.77326292
0.77498995
0.77733246
0.78027987
0.78436983
0.78991616
0.79727035
0.80580725
0.81418559
0.7335072
0.74485086
0.75325205
0.76035541
0.76658499
0.77216343
0.77712625
0.78142364
0.78503749
0.78796384
0.79011941
0.79144465
0.79190549
0.79172214
0.79103479
0.79000605
0.78900409
0.78845833
0.78865654
0.78980468
0.79146414
0.79345068
0.79602645
0.73779372
0.75040058
0.75996697
0.76839158
0.7759761
0.78291411
0.78926995
0.79501229
0.80012751
0.80466252
0.80861593
0.81192098
0.81443783
0.81609036
0.81683021
0.81665594
0.81560438
0.8137971
0.81142568
0.8087316
0.80627786
0.80433574
0.80282736
0.74250468
0.75599839
0.76693703
0.77703166
0.78621304
0.79450698
0.80200131
0.80877715
0.81491574
0.82055153
0.82576105
0.83052336
0.83477209
0.83846035
0.84153842
0.84390425
0.84540263
0.84593796
0.84550043
0.8440087
0.84144521
0.83800956
0.83416894
0.748008
0.76202167
0.77487374
0.78717451
0.7982166
0.80795783
0.81653781
0.82416846
0.83104951
0.83733414
0.84318917
0.84869977
0.85384627
0.85861186
0.86302712
0.86712481
0.87080643
0.87394454
0.8764333
0.87828009
0.87936192
0.8790722
0.87723022
0.7552537
0.76830985
0.78376647
0.79865875
0.81173959
0.82306564
0.83285165
0.84137118
0.84888951
0.85566403
0.86194671
0.86784236
0.87338859
0.8786318
0.88364473
0.88853317
0.89324209
0.89772358
0.90198554
0.90603911
0.91007847
0.91339529
0.91421593
0.76714713
0.77994856
0.79753643
0.81441715
0.82887045
0.84111731
0.85159603
0.86063727
0.86843874
0.87533936
0.88184586
0.88805954
0.89391531
0.89948482
0.90484313
0.91013892
0.91540344
0.92064352
0.92591632
0.93126916
0.93685678
0.94237541
0.94514918
0.7836741
0.79846873
0.81738963
0.83508604
0.8498588
0.86203394
0.87222385
0.88091453
0.88864898
0.89570264
0.90222752
0.90850878
0.91461523
0.92044362
0.92618003
0.93204615
0.93805975
0.94417297
0.95034384
0.95665548
0.96302739
0.96927416
0.9729453
0.80264775
0.82051907
0.84012253
0.85754067
0.87179292
0.88338722
0.89286926
0.90098341
0.90839104
0.91539255
0.92206463
0.92844404
0.93462212
0.94088123
0.94735182
0.95398006
0.96094677
0.96793479
0.97447861
0.98046271
0.98538433
0.98977636
0.99185976
0.82195053
0.8417976
0.86172099
0.87874096
0.8924323
0.90343379
0.91232851
0.91990834
0.9269657
0.93404186
0.94100533
0.94764639
0.954322
0.96124219
0.96861674
0.97607821
0.98276816
0.98825572
0.99227086
0.9951479
0.99685373
0.99802723
0.99849384
0.84007998
0.86061507
0.88097687
0.89786168
0.91104108
0.92145811
0.92987011
0.93733047
0.94456214
0.95183554
0.95934519
0.9667704
0.97424377
0.98168369
0.98814132
0.99318006
0.99634247
0.99787007
0.99867138
0.99901606
0.99932582
0.99942186
0.9995517
0.8564063
0.87764747
0.8986537
0.91529231
0.92770607
0.93753429
0.94599058
0.95368796
0.96130685
0.9692186
0.97740583
0.98530656
0.9916951
0.99582365
0.99798695
0.99902532
0.99951666
0.99958162
0.99957488
0.99942738
0.99955235
0.99954759
0.999586
0.87088788
0.89346223
0.91510875
0.9310909
0.9427216
0.95214537
0.96066164
0.96904537
0.97760185
0.98595554
0.99284413
0.99707742
0.99891785
0.99939148
0.99957094
0.99972585
0.99980584
0.99974924
0.99963723
0.99948504
0.99956888
0.99963896
0.99980751
0.88394806
0.90818383
0.92992508
0.94513359
0.95617723
0.96540236
0.97429959
0.98342733
0.99176629
0.99699052
0.99893998
0.9994625
0.9997279
0.99980066
0.99973328
0.99976134
0.99983562
0.9998296
0.99971776
0.99955079
0.99966813
0.99984043
0.99991949
0.89537822
0.92189772
0.9430587
0.95717247
0.96792807
0.97751391
0.9868011
0.99454417
0.99847108
0.99951529
0.99965083
0.99969056
0.99976191
0.99982321
0.99981045
0.99975887
0.99979069
0.99991573
0.99995204
0.99974891
0.99963904
0.99981738
0.99999331
0.90539201
0.93411507
0.9543975
0.96775543
0.97843526
0.98796627
0.9952809
0.99858935
0.99950589
0.99972534
0.99968356
0.99960975
0.99960846
0.99968448
0.99979879
0.99986834
0.99988572
0.99986342
0.99985253
0.99980491
0.99976684
0.99985862
0.9998911
0.91445696
0.94464539
0.96371499
0.97662096
0.98719929
0.99499096
0.99840985
0.99917487
0.99933203
0.99945816
0.99949631
0.99942528
0.99938481
0.99948748
0.99968391
0.99980353
0.99976988
0.99970415
0.99975582
0.99989782
0.99993316