/*--------------------------------*- C++ -*----------------------------------*\
| =========                 |                                                 |
| \\      /  F ield         | OpenFOAM: The Open Source CFD Toolbox           |
|  \\    /   O peration     | Version:  2406                                  |
|   \\  /    A nd           | Website:  www.openfoam.com                      |
|    \\/     M anipulation  |                                                 |
\*---------------------------------------------------------------------------*/
FoamFile
{
    version     2.0;
    format      ascii;
    arch        "LSB;label=32;scalar=64";
    class       volScalarField;
    location    "160";
    object      TMean;
}
// * * * * * * * * * * * * * * * * * * * * * * * * * * * * * * * * * * * * * //

dimensions      [0 0 0 1 0 0 0];

internalField   nonuniform List<scalar> 
20580
(
1.0022167
1.0019347
1.0019169
1.0019201
1.0019237
1.0019146
1.0019165
1.0019271
1.0019397
1.0019532
1.0019684
1.001983
1.0019942
1.0020097
1.0020168
1.0020303
1.0020343
1.00202
1.0020049
1.0019759
1.0019466
1.0019267
1.0019179
1.0018614
1.0017182
1.0016118
1.0016207
1.0016529
1.001475
1.0011603
0.99995084
1.0021511
1.0019075
1.0018973
1.001902
1.0018993
1.0018987
1.0019075
1.0019192
1.001934
1.0019482
1.0019629
1.0019767
1.0019886
1.0019966
1.0020086
1.0020169
1.0020162
1.0019978
1.0019759
1.0019461
1.0019057
1.0018864
1.0018796
1.0018344
1.0017024
1.0015017
1.0013523
1.0013413
1.0013325
1.0013239
1.0005066
1.0021731
1.0018899
1.0018935
1.0019079
1.0019013
1.0018995
1.0019081
1.0019201
1.0019348
1.0019481
1.0019616
1.0019734
1.0019811
1.0019886
1.0019979
1.0020014
1.0019893
1.0019669
1.0019367
1.0018975
1.0018518
1.0018211
1.0018047
1.0017644
1.0016532
1.00145
1.0012048
1.0010387
1.000954
1.0010337
1.0007815
1.0022674
1.0018925
1.0018896
1.001916
1.0019118
1.0019091
1.0019154
1.0019254
1.0019383
1.0019511
1.001962
1.0019723
1.0019807
1.0019862
1.0019924
1.0019923
1.0019777
1.0019528
1.001917
1.0018737
1.0018268
1.0017772
1.0017517
1.00172
1.0016122
1.0014267
1.0011921
1.0009597
1.0007306
1.000544
1.0005687
1.0022949
1.0019494
1.0018999
1.0019205
1.0019143
1.0019088
1.0019158
1.001923
1.0019351
1.0019487
1.0019615
1.001972
1.0019803
1.0019875
1.0019903
1.001989
1.0019762
1.0019517
1.0019124
1.0018651
1.0018036
1.0017435
1.0017038
1.001673
1.0016009
1.001449
1.0012515
1.000988
1.0006849
1.0003066
1.0000648
1.0021953
1.0019482
1.0019096
1.0019082
1.0018974
1.0018945
1.0019048
1.0019153
1.0019299
1.0019454
1.0019589
1.0019701
1.0019791
1.0019859
1.0019909
1.0019908
1.0019811
1.0019573
1.0019183
1.0018724
1.0018095
1.0017312
1.0016777
1.0016371
1.0015538
1.0014362
1.0013036
1.0010955
1.0008041
1.0004193
0.99983815
1.0021498
1.0019046
1.0019143
1.0019107
1.0018964
1.0018942
1.001903
1.0019131
1.0019274
1.0019428
1.0019546
1.0019657
1.0019736
1.0019801
1.0019836
1.0019867
1.0019807
1.0019604
1.001922
1.0018811
1.0018207
1.0017367
1.001661
1.0015865
1.0014729
1.0013342
1.0011945
1.0010734
1.0009124
1.0007296
1.0002057
1.0021748
1.0018642
1.0018878
1.0019203
1.0019097
1.0019048
1.0019083
1.0019158
1.001926
1.0019403
1.0019518
1.001961
1.0019672
1.0019725
1.0019754
1.0019744
1.0019612
1.0019349
1.0018986
1.0018582
1.0018121
1.0017341
1.0016316
1.0015053
1.0013723
1.0012408
1.0010891
1.0009088
1.0007171
1.0005072
1.0003654
1.0021571
1.0018349
1.0018335
1.0018989
1.0019057
1.0019024
1.001906
1.0019111
1.0019223
1.0019365
1.001948
1.0019575
1.0019635
1.0019681
1.0019696
1.0019668
1.0019554
1.0019279
1.0018889
1.0018475
1.0017984
1.0017276
1.0016191
1.0014787
1.0013334
1.0011911
1.0010112
1.0007793
1.000511
1.0001679
0.99997132
1.0019196
1.0017197
1.0017584
1.0018263
1.0018523
1.0018664
1.0018841
1.0019002
1.0019152
1.0019321
1.0019451
1.0019544
1.001961
1.0019647
1.0019648
1.0019617
1.0019518
1.0019272
1.0018893
1.0018425
1.0017942
1.0017279
1.0016565
1.0015436
1.0014027
1.0012654
1.0010829
1.0008288
1.0005039
1.0001347
0.99968166
1.001775
1.0015481
1.001637
1.0016912
1.0017278
1.0017756
1.0018172
1.0018509
1.0018774
1.001903
1.001923
1.0019384
1.0019508
1.0019573
1.0019598
1.0019569
1.0019531
1.0019314
1.0018973
1.0018502
1.0017949
1.001731
1.0016719
1.001597
1.0015034
1.0014008
1.0012721
1.0011031
1.0008555
1.0006008
1.0000727
1.0018304
1.0015402
1.0015594
1.0016228
1.0016508
1.0016761
1.0017131
1.0017513
1.0017865
1.0018237
1.0018546
1.0018796
1.0018986
1.0019128
1.0019244
1.0019309
1.0019359
1.001924
1.0018959
1.0018441
1.0017763
1.00171
1.0016245
1.0015136
1.0014177
1.001347
1.0012702
1.0011411
1.0009429
1.0006954
1.0004416
1.0020366
1.0016539
1.0015898
1.0016231
1.0016255
1.0016293
1.0016452
1.0016694
1.0016996
1.0017339
1.0017639
1.0017904
1.0018114
1.0018259
1.0018397
1.0018526
1.0018603
1.0018509
1.0018335
1.001799
1.0017286
1.0016337
1.0015054
1.0013395
1.0011851
1.0010841
1.0010059
1.0008737
1.0006682
1.000335
1.0001409
1.0021326
1.0017786
1.0017351
1.0017165
1.0016897
1.0016757
1.0016729
1.0016772
1.0016865
1.0017051
1.0017227
1.0017409
1.0017582
1.0017731
1.0017808
1.0017837
1.0017857
1.00178
1.0017658
1.0017337
1.0016683
1.0015712
1.0014326
1.0012605
1.00109
1.0009363
1.0007868
1.000616
1.0003906
1.0000819
0.99979403
1.002023
1.0017502
1.0017801
1.0017557
1.001728
1.0017229
1.0017232
1.0017248
1.0017274
1.0017377
1.0017442
1.0017497
1.0017563
1.0017623
1.0017639
1.0017616
1.0017613
1.0017478
1.0017281
1.0017088
1.0016404
1.0015636
1.0014609
1.0013316
1.0011848
1.0010066
1.0008118
1.0006531
1.0004783
1.000266
0.99994037
1.0019203
1.0016653
1.0016972
1.0017095
1.001702
1.0017004
1.001703
1.0017095
1.0017193
1.001739
1.0017503
1.0017571
1.0017631
1.0017671
1.0017683
1.0017662
1.0017641
1.001749
1.0017265
1.0016929
1.0016531
1.0016062
1.0015444
1.001462
1.0013619
1.0012538
1.0011391
1.0010076
1.0008307
1.0006464
1.0003826
1.0020557
1.0017106
1.0016987
1.0017181
1.0017105
1.0017028
1.0017011
1.0017029
1.0017068
1.0017281
1.0017384
1.0017444
1.00175
1.001753
1.0017526
1.0017519
1.001753
1.0017399
1.0017141
1.0016745
1.0016324
1.0015804
1.0015193
1.001423
1.0013136
1.0012219
1.0011472
1.0010314
1.0008635
1.0006248
1.0004543
1.0021237
1.0017543
1.0017736
1.0017849
1.0017724
1.0017654
1.0017615
1.0017636
1.0017554
1.0017707
1.001773
1.0017737
1.0017748
1.0017731
1.0017679
1.0017632
1.0017588
1.001742
1.001708
1.001659
1.0015939
1.0015026
1.0013896
1.0012536
1.0011031
1.000948
1.0007962
1.000632
1.0004506
1.0002162
1.000094
1.0019473
1.001675
1.0017416
1.0017303
1.0017214
1.0017325
1.0017443
1.0017532
1.0017582
1.0017863
1.0017915
1.0017929
1.001794
1.0017933
1.0017903
1.001787
1.001776
1.0017593
1.0017218
1.0016659
1.0015924
1.0014901
1.0013525
1.0011907
1.0010171
1.000833
1.0006283
1.0004041
1.0001746
0.99995028
0.99980409
1.001906
1.0016131
1.0016553
1.0016423
1.0016382
1.0016445
1.0016462
1.0016668
1.0016595
1.0017047
1.0017186
1.0017286
1.0017396
1.0017471
1.001751
1.0017527
1.0017462
1.0017371
1.0017108
1.0016677
1.0016099
1.0015262
1.0014205
1.0013052
1.0011752
1.0010136
1.0008267
1.0006365
1.0004587
1.0003007
1.000161
1.0019643
1.0016378
1.0016807
1.0016836
1.0016764
1.0016713
1.0016681
1.0016619
1.0016591
1.0016929
1.001692
1.001693
1.0016972
1.0017
1.0017027
1.0017025
1.0016963
1.0016867
1.0016658
1.0016444
1.0016116
1.0015658
1.0015157
1.0014621
1.0013889
1.001288
1.001194
1.0010923
1.0010052
1.000886
1.0007436
1.0019817
1.0015712
1.0016924
1.0016213
1.0015977
1.0015767
1.0015673
1.0015669
1.0015182
1.0015701
1.0015605
1.0015537
1.0015485
1.0015379
1.0015329
1.00153
1.0015168
1.0015002
1.0014736
1.0014446
1.0014044
1.0013534
1.0012957
1.0012234
1.0011427
1.0010335
1.0009125
1.000773
1.0006425
1.0004882
1.0003879
1.0018817
1.0010012
1.0012687
1.0009228
1.0010517
1.0010571
1.001088
1.0009515
1.0011488
1.0011471
1.00116
1.0011183
1.0011103
1.0010635
1.001168
1.0011948
1.001032
1.0010752
1.0011082
1.0010226
1.0009589
1.0008813
1.0007773
1.000684
1.0005749
1.0004405
1.0002455
1.0000045
0.99975995
0.99953089
0.99940742
0.99903796
1.000093
1.0005844
1.000087
0.99948254
0.99946914
0.99987604
1.0001995
0.99988356
0.99920747
0.9991295
0.99979008
1.0000234
0.99933747
0.99894633
0.9993974
0.99987884
0.99958341
0.99917686
0.99948282
1.0001787
1.0001863
0.99937466
0.99876827
0.99980965
1.0004304
1.0000557
0.99927961
0.99888629
0.99924555
0.99992702
0.99993515
0.99892873
0.99828792
0.99897046
0.99981601
0.999331
0.99829062
0.99830131
0.9991017
0.99943804
0.99863504
0.99810147
0.99865319
0.99945411
0.99920852
0.9981812
0.99942304
1.0002026
0.99979291
0.99872587
0.99801504
0.99862178
0.99961104
0.99979155
0.99849418
0.99734032
0.99798768
0.9993039
0.99929868
0.99777632
0.99705342
0.99786233
0.99887522
0.99842343
0.99703512
0.99713112
0.99829083
0.99883969
0.99718532
0.99873288
0.99983663
0.9994693
0.99793922
0.99665768
0.99744003
0.99892391
0.99959037
0.99818887
0.99612367
0.99631824
0.99809851
0.99911103
0.99761255
0.99563801
0.99599577
0.99765844
0.99819222
0.9961822
0.99512375
0.99618917
0.99754941
0.99606849
0.99789369
0.99933028
0.99913281
0.99722405
0.99525705
0.99588527
0.9978544
0.99918936
0.99797863
0.99489673
0.99403138
0.99613584
0.99834024
0.99762548
0.99420037
0.99320559
0.9952156
0.99724195
0.99605623
0.99307985
0.99326658
0.99526421
0.99469746
0.99681973
0.99862173
0.99868747
0.99639577
0.99361694
0.9936027
0.99603677
0.99832156
0.99779372
0.9939741
0.99115073
0.99303513
0.99640273
0.99753489
0.99392649
0.99036585
0.99171879
0.99502741
0.99599202
0.99231262
0.99005299
0.99176088
0.99288516
0.99541962
0.99768559
0.99804986
0.99540498
0.99173483
0.99071644
0.99348631
0.99684931
0.99756648
0.99351615
0.98840456
0.98919493
0.99320435
0.99641075
0.99433781
0.98812407
0.9872227
0.99086623
0.9943632
0.99286459
0.98734737
0.98708721
0.99044175
0.99352087
0.9963671
0.99716477
0.99423005
0.98948798
0.98705998
0.9899783
0.99444655
0.9967302
0.99314136
0.9859174
0.98410506
0.98829741
0.99381269
0.99452249
0.98771425
0.982371
0.98498236
0.99046195
0.99272306
0.98741224
0.9825252
0.98715182
0.99092427
0.99459835
0.99583478
0.99255833
0.98638951
0.98213346
0.98504512
0.99065037
0.99495118
0.99263663
0.98405263
0.97819759
0.98172904
0.98895749
0.9931934
0.98828316
0.97886832
0.97822456
0.9838379
0.98983046
0.98837639
0.98026857
0.98270891
0.98737023
0.99221684
0.9940117
0.9904257
0.98254351
0.97617955
0.97878673
0.98544151
0.99202034
0.99168406
0.98246046
0.97254663
0.9739984
0.98175401
0.98965552
0.98837004
0.97752028
0.97098734
0.97519931
0.98375411
0.98747691
0.98077222
0.97735897
0.98299443
0.98924988
0.99165899
0.98754915
0.97760093
0.96900425
0.97090641
0.97858633
0.98757728
0.98962979
0.98044206
0.96740976
0.96466128
0.97225503
0.98333895
0.98678362
0.9770431
0.96473392
0.96528362
0.97429695
0.98326488
0.9811438
0.97066264
0.97734452
0.98530059
0.98844328
0.98350044
0.97107611
0.96010422
0.96071305
0.9696676
0.98137838
0.98605623
0.97760644
0.9623394
0.95387157
0.9609031
0.97451493
0.98280577
0.9758621
0.96052134
0.95433137
0.96234315
0.97533621
0.97957051
0.96265856
0.97043702
0.9803952
0.9843875
0.97816301
0.96305035
0.94945917
0.94817965
0.95878735
0.97356004
0.9809027
0.97363667
0.95633344
0.94248023
0.94818586
0.96365188
0.97647834
0.97340677
0.95710645
0.94354201
0.94917024
0.96447128
0.97508816
0.95354213
0.96250104
0.97450951
0.97923566
0.97157981
0.95373479
0.93745357
0.9342353
0.94663029
0.96443487
0.97430516
0.96792807
0.94883194
0.93143052
0.9351036
0.95159136
0.96823094
0.96914546
0.95256621
0.93435717
0.9360517
0.95205937
0.96801862
0.9437735
0.9538285
0.96769002
0.97306722
0.96372927
0.94323294
0.92458196
0.91983698
0.93385664
0.95426807
0.96617694
0.96037384
0.94004996
0.92099192
0.92250807
0.9393714
0.95885603
0.96299528
0.94675881
0.92620575
0.923192
0.93939171
0.95919015
0.93306184
0.94435258
0.95984392
0.96567879
0.95490681
0.93205243
0.91137167
0.90551822
0.92089285
0.94330188
0.95660454
0.95096535
0.92996961
0.91052309
0.91048007
0.92754369
0.94886611
0.95519283
0.93951476
0.91778091
0.91048657
0.92718969
0.94967581
0.92200028
0.93444389
0.95131473
0.95728891
0.94490634
0.91988194
0.89758792
0.89112985
0.90775491
0.93171195
0.94583465
0.9400256
0.91876374
0.89959934
0.89876116
0.91626112
0.93868453
0.94613972
0.9307257
0.90824396
0.89844221
0.91609945
0.94034822
0.91027793
0.92372161
0.94177301
0.94804454
0.93453582
0.90752222
0.88350459
0.8764035
0.89398228
0.91923741
0.93401123
0.9282027
0.90690756
0.88811609
0.8871552
0.90543161
0.9284989
0.93602797
0.92036591
0.89759512
0.88729021
0.90647255
0.93170208
0.89757834
0.91204086
0.93120956
0.93811487
0.92396682
0.89516411
0.86928426
0.86152343
0.87983286
0.90610617
0.92134298
0.91549122
0.89429214
0.87602626
0.87590277
0.89533346
0.91839134
0.92476184
0.90829263
0.88598435
0.87731284
0.89867128
0.92389603
0.88357012
0.89935839
0.91989334
0.92774027
0.91327341
0.88278454
0.85500975
0.84675615
0.8655573
0.89254477
0.90801634
0.90190101
0.88074663
0.86328885
0.86522187
0.88592749
0.90831813
0.91242577
0.89484612
0.87390411
0.86887117
0.89267851
0.91646921
0.86734779
0.88478429
0.90738113
0.91696878
0.90285271
0.87091453
0.84133415
0.83287049
0.85183053
0.87890783
0.8940939
0.88730052
0.86630982
0.85041006
0.85573973
0.87760782
0.8982236
0.89877047
0.87988358
0.86145449
0.86271539
0.88846848
0.90845273
0.84939406
0.8679702
0.89300455
0.90534521
0.89292464
0.86024857
0.82870969
0.82002318
0.83874236
0.86532532
0.87964138
0.87189459
0.85145973
0.83801194
0.84772886
0.87019993
0.88756845
0.88348014
0.86391636
0.84984132
0.85961244
0.88515123
0.89831852
0.82428228
0.84473759
0.87392751
0.89145418
0.88371672
0.85272988
0.81922245
0.80883995
0.82630717
0.85148669
0.86461485
0.85617314
0.83715956
0.82728381
0.84107499
0.86313319
0.87587274
0.86725999
0.84846543
0.84064684
0.85875722
0.88119311
0.88499667
0.78970567
0.81091381
0.84398949
0.86814723
0.86875699
0.84450816
0.81298066
0.80197197
0.81675766
0.83866641
0.84959831
0.84069406
0.82399345
0.81898601
0.83562542
0.85588557
0.86293899
0.85066288
0.83496193
0.83624055
0.85887745
0.87469149
0.86880135
0.75033776
0.77312977
0.81071317
0.84046911
0.84739446
0.83057632
0.80503243
0.79658745
0.80935638
0.82722423
0.83485827
0.82582599
0.81265063
0.81359693
0.83123431
0.8478716
0.848682
0.83507073
0.82555968
0.83676676
0.85788842
0.86412869
0.85186142
0.71849426
0.73922633
0.77509561
0.80825182
0.8231904
0.81600613
0.79809047
0.79398814
0.80427309
0.81696664
0.82061466
0.81249915
0.80442993
0.81111292
0.82754051
0.83864342
0.83425674
0.82236138
0.82183711
0.83979548
0.85396088
0.85009545
0.83744884
0.71697304
0.73273626
0.7582551
0.78081307
0.79247755
0.79361149
0.79084336
0.79427823
0.80223893
0.80873333
0.80866117
0.80260348
0.80055613
0.81075264
0.8237581
0.82869206
0.82193596
0.81534336
0.82408859
0.84127803
0.8458177
0.83638062
0.82994003
0.72270183
0.73440037
0.75218835
0.7671848
0.77360241
0.77373169
0.77761091
0.78967409
0.79844192
0.80176917
0.8001152
0.79704086
0.80020927
0.81068664
0.81930158
0.81970599
0.81367717
0.81471926
0.8286384
0.83904086
0.83525218
0.82689192
0.82993302
0.73408384
0.74181077
0.75075764
0.75757766
0.76081803
0.76454266
0.77080651
0.78359933
0.79350566
0.79616516
0.79485694
0.79512226
0.80129288
0.8101097
0.81464123
0.8131237
0.81077613
0.81847102
0.83087279
0.83299665
0.82616023
0.82391868
0.83484916
0.74370436
0.74756215
0.75094392
0.75167837
0.75310136
0.75902386
0.76911908
0.78093053
0.78980338
0.79241237
0.79257441
0.79568674
0.80261556
0.8088583
0.81060732
0.80952294
0.81220391
0.82247274
0.8289781
0.82568135
0.82130764
0.82632805
0.83629091
0.75203534
0.75422567
0.7538197
0.7515914
0.75201899
0.75837153
0.7694601
0.78089364
0.78829536
0.79078963
0.79252092
0.7973151
0.80359046
0.80754711
0.80837255
0.80943502
0.81577565
0.82399785
0.82475283
0.82094161
0.82139545
0.82899207
0.83063117
0.75650541
0.75820984
0.75676063
0.75413922
0.75493499
0.76130133
0.77173958
0.7820393
0.78804542
0.79063076
0.79369802
0.798841
0.80379746
0.806266
0.80759869
0.81128894
0.81842454
0.82246006
0.82046077
0.81885784
0.8227615
0.8267734
0.82152045
0.76081344
0.76212834
0.76045071
0.75820741
0.75944459
0.7654569
0.77492005
0.78394142
0.78882742
0.79165424
0.79536876
0.80005406
0.80396987
0.80621974
0.80880875
0.81377937
0.81918779
0.81987384
0.81792815
0.81872472
0.82243739
0.82136499
0.8148058
0.76292598
0.76455593
0.76337448
0.7620497
0.76419581
0.77007182
0.77825404
0.78555594
0.7895921
0.79265513
0.79654286
0.80073197
0.80390028
0.80653969
0.81033999
0.8153088
0.81828874
0.8173518
0.81667765
0.81903886
0.82033372
0.81657541
0.81293853
0.76514757
0.7672002
0.76687795
0.76637204
0.76910803
0.7746955
0.78165221
0.78752879
0.79115145
0.79441824
0.79826973
0.80199789
0.80511633
0.80849987
0.81246198
0.81568106
0.81640389
0.81570666
0.81652355
0.81793836
0.81712416
0.81521209
0.81701261
0.7655675
0.76817339
0.76885356
0.76909201
0.77169835
0.77647289
0.78221517
0.78745096
0.790929
0.79399376
0.79757979
0.80125134
0.80435902
0.80758072
0.81128692
0.81441259
0.81546326
0.81512057
0.81606629
0.81793745
0.81858185
0.81825843
0.82040461
0.76554186
0.76840657
0.76983373
0.77067684
0.77313601
0.77720582
0.78203192
0.78675769
0.79020543
0.79310677
0.79641989
0.79994598
0.80307634
0.80619656
0.80965406
0.81285838
0.81454746
0.81480867
0.81575006
0.81777357
0.81947465
0.82026258
0.82255202
0.76522228
0.76812581
0.770063
0.77148622
0.77398605
0.77760934
0.78179236
0.78605539
0.78944752
0.79221493
0.79529919
0.79869278
0.80179841
0.80484354
0.80810412
0.81128821
0.81346732
0.8143477
0.8154033
0.81738701
0.81961144
0.82132071
0.82399296
0.76460151
0.76742329
0.76969731
0.77159811
0.77420732
0.77760083
0.78138885
0.78527137
0.78860375
0.79129582
0.7941716
0.79739495
0.80048717
0.80344646
0.80654653
0.80969167
0.81222062
0.81365269
0.81491858
0.81684388
0.81933766
0.82173772
0.82487698
0.76385153
0.76641852
0.76877952
0.77101094
0.77379323
0.77715373
0.78077942
0.78438577
0.78765605
0.79033675
0.79303286
0.79606378
0.79911297
0.80201561
0.80494937
0.80801144
0.81080448
0.81274902
0.81431911
0.81623395
0.818815
0.82165391
0.8252215
0.76293929
0.76520457
0.76756884
0.76996401
0.77285128
0.776248
0.77985734
0.78334583
0.78657598
0.78929216
0.79185706
0.7946836
0.79764774
0.80052758
0.80334866
0.806255
0.80913712
0.81155265
0.81351949
0.81559743
0.81817816
0.82112504
0.82495097
0.76237374
0.76399409
0.76610914
0.76853193
0.77146028
0.77490047
0.77856848
0.78208553
0.78533234
0.78812467
0.7906252
0.79326441
0.79610587
0.79894155
0.80171797
0.80448044
0.80731054
0.81002045
0.81244805
0.81483431
0.81748975
0.82037217
0.82418166
0.76266525
0.76324348
0.76478328
0.76696647
0.76978551
0.77318164
0.77687918
0.78050275
0.7838583
0.78678344
0.78930214
0.79180641
0.79450381
0.79727773
0.80000374
0.80269138
0.80544141
0.80826892
0.81107342
0.81383113
0.81664939
0.8194701
0.82312165
0.76428255
0.76353649
0.76402886
0.76556741
0.7680338
0.77124443
0.7748769
0.77858432
0.78208919
0.78520922
0.78784731
0.79029906
0.79285963
0.7955365
0.79821055
0.80085708
0.80357258
0.80645724
0.80949472
0.81254288
0.81553907
0.81838906
0.82194307
0.76630698
0.76476283
0.76424346
0.76481098
0.76657031
0.76933432
0.77272831
0.77639813
0.78000749
0.78333694
0.78619601
0.78870791
0.79118733
0.79375061
0.79635724
0.79899773
0.80173246
0.80468727
0.80783309
0.81103288
0.81416808
0.81712524
0.82070956
0.76859745
0.76700767
0.76564801
0.76507105
0.76579161
0.76778704
0.7706969
0.77412795
0.7777098
0.78118091
0.78429566
0.7869846
0.78947354
0.79195775
0.79449914
0.79714517
0.79995171
0.8029746
0.80616972
0.80942871
0.8126683
0.81577163
0.81946586
0.77079094
0.76964898
0.76790861
0.7664333
0.76601066
0.76696123
0.76909804
0.77203291
0.77538641
0.77884647
0.78214539
0.78507978
0.78769943
0.79018987
0.79270956
0.79537636
0.79825469
0.80134416
0.80458099
0.80788977
0.81121937
0.81447096
0.81830102
0.77288235
0.77204242
0.77020449
0.76834694
0.76710994
0.76702891
0.76820911
0.77041346
0.77330188
0.77654505
0.77986833
0.78300751
0.78584226
0.78846041
0.79105205
0.79377864
0.79671805
0.79986741
0.80317003
0.80655404
0.80997583
0.81336536
0.81733355
0.77446234
0.77356921
0.77181077
0.76999892
0.76850003
0.76775485
0.76808035
0.76947414
0.77170994
0.77452857
0.77767706
0.78088788
0.78394448
0.78679791
0.78956964
0.79241798
0.7954438
0.79866881
0.80205212
0.80553114
0.80906072
0.81258349
0.81669049
0.77589378
0.77466059
0.77288981
0.77120534
0.76973471
0.76871919
0.76849218
0.76919656
0.77077441
0.77304901
0.77584837
0.77896333
0.782165
0.78529306
0.78832935
0.79137116
0.79453055
0.79785985
0.80134225
0.80492904
0.80857845
0.81224672
0.81649883
0.77672521
0.7753155
0.77367784
0.7721924
0.77085168
0.76977485
0.76924568
0.76946918
0.770508
0.77228081
0.77467097
0.77756931
0.78080072
0.78415102
0.78747412
0.7907639
0.79410509
0.79756671
0.80116401
0.80486751
0.80865251
0.81248176
0.81689048
0.77709314
0.77585335
0.7744286
0.77319365
0.77203485
0.7710111
0.77035764
0.77029802
0.77095755
0.77235069
0.77441396
0.77708135
0.78025554
0.78372779
0.78728827
0.79083599
0.79439009
0.79801645
0.80175045
0.80559156
0.80952118
0.81350854
0.81803836
0.77741719
0.77622159
0.77518728
0.77433751
0.77349222
0.7726609
0.7720569
0.77190529
0.77237339
0.77354549
0.77541605
0.77794916
0.78104739
0.78455506
0.78827112
0.79204053
0.7958195
0.7996348
0.80353158
0.80752329
0.81159952
0.81572516
0.82029265
0.77749719
0.77667871
0.77608887
0.77572364
0.77535481
0.77492664
0.77460551
0.77461301
0.7751409
0.77631335
0.77817879
0.78070576
0.78380476
0.78733467
0.79114227
0.79508291
0.79907011
0.8030878
0.80715714
0.81130347
0.81551842
0.8197523
0.82426298
0.77754665
0.77706106
0.77709563
0.77736646
0.77764142
0.7778596
0.77810118
0.77858303
0.77948875
0.78095656
0.78305388
0.78575207
0.78897228
0.79260376
0.79651808
0.80060256
0.80477427
0.8089884
0.81324532
0.81755324
0.82190029
0.82620078
0.83057089
0.77748446
0.77758437
0.77829058
0.77928365
0.78033018
0.7813522
0.78241402
0.78364893
0.78524291
0.78730626
0.78988652
0.79296437
0.79646807
0.80031844
0.80441836
0.80867908
0.81304106
0.81746241
0.82191932
0.82641237
0.83090554
0.8352785
0.83946877
0.77755995
0.77819483
0.77967346
0.78146441
0.78337149
0.78530869
0.78730407
0.78947189
0.7919396
0.79480493
0.79807657
0.80172118
0.80567725
0.80988013
0.81427763
0.81880606
0.82340823
0.82806051
0.83274248
0.83742912
0.84206792
0.84651843
0.85054398
0.77813633
0.77922026
0.78143627
0.7840049
0.7867706
0.78964564
0.79261687
0.7957568
0.79916293
0.80289664
0.80695785
0.81128417
0.81582111
0.820513
0.82531804
0.83020121
0.83511949
0.84002369
0.84488593
0.84968686
0.85435217
0.85873511
0.86253741
0.77921885
0.78075004
0.78373499
0.78705306
0.7906178
0.79437962
0.79829383
0.80238881
0.80670537
0.81127927
0.81610374
0.8211377
0.82631276
0.83157049
0.83685724
0.8421299
0.84732748
0.85240505
0.85735018
0.86218223
0.86682054
0.87103481
0.87437899
0.7808636
0.78298533
0.78667197
0.79065044
0.79492949
0.79951021
0.80431816
0.80931097
0.81448108
0.8198283
0.82535714
0.83103915
0.83681722
0.84262202
0.84836906
0.85394773
0.85932774
0.86455031
0.8696303
0.87452027
0.87906403
0.88278291
0.88524988
0.78308061
0.78599019
0.79034673
0.79488863
0.79976556
0.80504787
0.81065167
0.81646397
0.82241386
0.82847722
0.83464369
0.84089378
0.84717335
0.85338602
0.85940049
0.86519036
0.87079753
0.87624251
0.88149359
0.88642007
0.89052137
0.89323643
0.8948052
0.78588479
0.78981133
0.79480545
0.79983176
0.80517646
0.81100282
0.81725391
0.82377084
0.83041987
0.83713704
0.84388242
0.85061601
0.85725018
0.86364676
0.8698019
0.87580102
0.88166482
0.88734714
0.89269322
0.89720467
0.9002261
0.90201633
0.9030789
0.78917677
0.79435646
0.80002999
0.80552727
0.81124371
0.81744488
0.8241397
0.83119364
0.83843038
0.84571549
0.85296623
0.86007756
0.8668877
0.87337941
0.8796949
0.88589907
0.89195819
0.89772379
0.90267814
0.90606598
0.9081254
0.90949552
0.910333
0.79285543
0.79945628
0.80591113
0.81194109
0.81801092
0.82446829
0.83141651
0.83879213
0.84643406
0.85416001
0.86179039
0.86911567
0.87602481
0.88267334
0.88917592
0.89554416
0.90165679
0.90705342
0.91089067
0.91328685
0.91493428
0.916111
0.91681838
0.79694978
0.8050148
0.81231804
0.81895438
0.82542339
0.83211247
0.83920041
0.84670585
0.85453033
0.8624843
0.87028776
0.87767573
0.88472282
0.89156821
0.89825713
0.90470817
0.91055349
0.91491991
0.91769316
0.91963119
0.92107216
0.92212438
0.92273852
0.80145738
0.81091761
0.81908174
0.82636943
0.83330282
0.84028171
0.84751016
0.85505746
0.86287923
0.87080582
0.87851668
0.88588999
0.89306131
0.90009346
0.90692432
0.9132687
0.91827099
0.92152029
0.92375935
0.92545518
0.92674291
0.927694
0.92822852
0.80633855
0.81713459
0.82609139
0.8340042
0.84143431
0.84877367
0.85621605
0.8638358
0.87159296
0.87928614
0.8866984
0.89396068
0.90118387
0.90831998
0.91513102
0.92087651
0.92478867
0.92741637
0.92938201
0.93090643
0.93206707
0.93292982
0.93338853
0.81152022
0.82359637
0.8332867
0.84177237
0.84966861
0.8573847
0.86510302
0.87286797
0.88058533
0.88800118
0.89511188
0.90218748
0.90931339
0.91635035
0.92272038
0.92741843
0.93053958
0.93284684
0.93464747
0.93605222
0.93712253
0.93791843
0.93830773
0.81696107
0.83020665
0.84056058
0.84956218
0.85788698
0.86595707
0.87395305
0.8818935
0.88959554
0.89682471
0.90379212
0.91074239
0.91768469
0.92431727
0.92967524
0.93328372
0.93588452
0.93794405
0.93959776
0.9409112
0.94192336
0.94267999
0.94300825
0.82266122
0.83695331
0.84788805
0.85733314
0.86603202
0.87441961
0.88266412
0.89074055
0.89839169
0.90554435
0.91252286
0.91947093
0.92624639
0.93214867
0.93625832
0.93902616
0.94116501
0.94292943
0.9443819
0.94555979
0.94647937
0.94717238
0.94742599
0.82854457
0.84374682
0.85519219
0.86501656
0.87403123
0.88268634
0.89113059
0.89927853
0.9068642
0.91402654
0.92107825
0.92804788
0.93453236
0.93947868
0.94264146
0.94488225
0.94665046
0.94808879
0.94926063
0.95020962
0.95095495
0.95151191
0.95164544
0.83457519
0.85052273
0.86239608
0.8725365
0.88181746
0.89068772
0.89926517
0.90740424
0.91493388
0.92215354
0.92929768
0.93623417
0.94212175
0.9460736
0.94866828
0.95061421
0.95216025
0.95338711
0.95434632
0.95507906
0.955614
0.95597801
0.95594783
0.84078818
0.85737121
0.8695709
0.87996023
0.88943597
0.89843786
0.90705494
0.915114
0.92260038
0.92987962
0.937064
0.94373475
0.94875521
0.95195261
0.95421332
0.9559767
0.9573745
0.95847346
0.95931329
0.95993553
0.96035723
0.96060293
0.96045393
0.84707019
0.8641097
0.87658805
0.88717093
0.89678583
0.90585529
0.91444636
0.92239339
0.92985225
0.93716404
0.94427371
0.95033177
0.95440934
0.95710321
0.95913223
0.96075554
0.96205263
0.96307993
0.96386511
0.96443815
0.96481453
0.96501551
0.96482782
0.85347668
0.87091522
0.8835622
0.89425738
0.90392971
0.91299136
0.9214807
0.92929823
0.93673211
0.94401472
0.95081705
0.95598234
0.9592674
0.9615801
0.96339656
0.9648638
0.96605053
0.96699973
0.96773856
0.96829135
0.96866712
0.96887962
0.96871631
0.85983657
0.87753512
0.89031829
0.90107231
0.91074765
0.91974483
0.92809108
0.93579381
0.94319633
0.95035464
0.95653149
0.96072985
0.9634364
0.96543766
0.96703695
0.96832687
0.96937124
0.97020961
0.97086462
0.97136186
0.97170879
0.9719229
0.97178487
0.86624902
0.88412498
0.89693335
0.90765721
0.91724816
0.92610004
0.93425579
0.94183533
0.94915928
0.95602696
0.96133385
0.9646809
0.96694563
0.96867594
0.97005702
0.97116534
0.97205255
0.97275584
0.9732938
0.97369543
0.97396201
0.97412499
0.97397501
0.87260412
0.89058305
0.90335536
0.91396962
0.92339614
0.93203916
0.93997525
0.94742208
0.95458507
0.96086895
0.96519678
0.96789103
0.96980066
0.97128001
0.97245124
0.97337749
0.97410267
0.97466169
0.97506655
0.97534471
0.97549676
0.97555776
0.97535822
0.87877175
0.89680074
0.90945567
0.91988653
0.92909056
0.93748411
0.94519141
0.95248769
0.95936787
0.96481652
0.96822799
0.97042255
0.97202883
0.97327138
0.97423743
0.97498299
0.97554457
0.97594877
0.97620751
0.97634384
0.9763614
0.97629345
0.97601107
0.88461777
0.90268906
0.91519323
0.92539458
0.9343447
0.94246891
0.9499485
0.95704789
0.96341161
0.96788292
0.97056203
0.97236174
0.97370136
0.97471719
0.97548375
0.97604944
0.9764368
0.97667627
0.97677632
0.97676582
0.9766505
0.97646184
0.97610175
0.89018513
0.90819369
0.92050615
0.93045963
0.93914881
0.94700372
0.9542694
0.96109734
0.96668297
0.97018644
0.97231687
0.97379584
0.97488933
0.9756869
0.97625338
0.97662847
0.97683907
0.97691588
0.97687573
0.97674826
0.97654119
0.97627948
0.97587484
0.89545654
0.91334213
0.92542374
0.93509918
0.94352002
0.95112045
0.95816917
0.96455645
0.96918009
0.97187589
0.97358353
0.97478022
0.9756283
0.9762032
0.97656895
0.97677119
0.97683989
0.9768072
0.97668324
0.97649161
0.97623586
0.97593923
0.97551161
0.90044081
0.91812548
0.92995674
0.93934673
0.94749092
0.95484824
0.96164411
0.96732604
0.97092903
0.97301252
0.97437076
0.97529656
0.97591114
0.97630033
0.97652638
0.97662887
0.97662483
0.97653664
0.97636556
0.9761367
0.97584964
0.97553297
0.97508546
0.9050816
0.92260592
0.93413873
0.94323132
0.95111686
0.95825271
0.96467816
0.96940545
0.97209027
0.97368072
0.97472417
0.97541929
0.97588171
0.97617139
0.97632724
0.97637156
0.9763168
0.97618269
0.97597374
0.97571545
0.97540719
0.97507482
0.97461573
0.90937612
0.92662309
0.93784348
0.94665664
0.954318
0.96123684
0.96703296
0.97069054
0.97268297
0.97390628
0.97474793
0.97532615
0.97571229
0.97593934
0.9760368
0.97602589
0.97592237
0.97574569
0.97550655
0.97522618
0.97490357
0.97455904
0.97409397
0.91346032
0.93033824
0.94118917
0.94972209
0.95716207
0.96376669
0.96865736
0.97135575
0.97289515
0.97392243
0.97465365
0.9751476
0.97546004
0.97561782
0.9756496
0.97557616
0.97541798
0.97519381
0.9749218
0.97461412
0.97427398
0.97391798
0.97345401
0.91722642
0.93366447
0.94415189
0.95243134
0.95964732
0.96567409
0.96953421
0.9716453
0.97297381
0.97389413
0.97452942
0.97493179
0.97515164
0.97522013
0.97516638
0.9750129
0.9747866
0.9745041
0.97418731
0.97384142
0.97347595
0.97310158
0.97263417
0.92057236
0.93652289
0.94666432
0.95471335
0.96161209
0.96682323
0.96989974
0.97172079
0.97292638
0.97375106
0.97429059
0.97459536
0.97471724
0.97468702
0.97453852
0.97429591
0.97399245
0.97364446
0.97327091
0.97287825
0.97247917
0.9720815
0.97160898
0.9236209