-0.5 	1.0228754
-0.48412699 	1.016079
-0.46825397 	1.0093967
-0.45238095 	1.0150048
-0.43650794 	1.0128936
-0.42063492 	1.0076881
-0.40476191 	1.0152646
-0.3888889 	1.0202384
-0.37301588 	1.0111966
-0.35714287 	1.0009031
-0.34126985 	1.0035187
-0.32539684 	1.0144581
-0.30952379 	1.0197873
-0.29365078 	1.0139558
-0.27777776 	1.0015632
-0.26190475 	0.99053947
-0.24603173 	0.98736442
-0.23015872 	0.99572953
-0.2142857 	1.0067645
-0.19841269 	1.0155353
-0.18253967 	1.0198077
-0.16666666 	1.017544
-0.15079364 	1.0100014
-0.13492063 	1.0017631
-0.11904758 	0.99393999
-0.10317457 	0.98836404
-0.087301552 	0.98544512
-0.071428537 	0.98428994
-0.055555522 	0.98477427
-0.039682507 	0.98719623
-0.023809493 	0.99016501
-0.0079364777 	0.99346518
0.0079365373 	0.99675623
0.023809552 	0.9996025
0.039682567 	1.0021388
0.055555582 	1.0043723
0.071428597 	1.0057456
0.087301612 	1.0065653
0.10317463 	1.0067337
0.11904764 	1.0057193
0.13492066 	1.0031951
0.15079367 	0.99979931
0.16666669 	0.99578373
0.1825397 	0.99216411
0.19841272 	0.98957539
0.21428573 	0.9888065
0.23015875 	0.99089976
0.24603176 	0.9976353
0.26190484 	1.0060522
0.27777785 	1.0096771
0.29365087 	1.007079
0.30952388 	0.99936001
0.3253969 	0.99053067
0.34126991 	0.9871712
0.35714292 	0.99506982
0.37301594 	1.0070026
0.38888895 	1.0072671
0.40476197 	0.99608324
0.42063499 	0.98888385
0.436508 	0.99533539
0.45238101 	0.99873975
0.46825403 	0.98746842
0.48412704 	0.98621394
0.5 	0.97712683
