/*--------------------------------*- C++ -*----------------------------------*\
| =========                 |                                                 |
| \\      /  F ield         | OpenFOAM: The Open Source CFD Toolbox           |
|  \\    /   O peration     | Version:  2406                                  |
|   \\  /    A nd           | Website:  www.openfoam.com                      |
|    \\/     M anipulation  |                                                 |
\*---------------------------------------------------------------------------*/
FoamFile
{
    version     2.0;
    format      ascii;
    arch        "LSB;label=32;scalar=64";
    class       volScalarField;
    location    "40";
    object      alphat;
}
// * * * * * * * * * * * * * * * * * * * * * * * * * * * * * * * * * * * * * //

dimensions      [1 -1 -1 0 0 0 0];

internalField   nonuniform List<scalar> 
20580
(
8.79999e-07
8.5182503e-07
8.2500891e-07
8.1660637e-07
8.188129e-07
8.1460183e-07
8.1100342e-07
8.0338547e-07
7.9657748e-07
7.9228447e-07
7.8757198e-07
7.8244658e-07
7.7668793e-07
7.7257724e-07
7.7249669e-07
7.7007136e-07
7.7366645e-07
7.7321513e-07
7.7699729e-07
7.7635511e-07
7.8182305e-07
7.8352809e-07
7.8530871e-07
7.9219447e-07
8.0466027e-07
8.157751e-07
8.2443426e-07
8.4082765e-07
8.6578118e-07
8.9834145e-07
9.5340894e-07
8.8460929e-07
8.5915438e-07
8.2646741e-07
8.1678092e-07
8.2192854e-07
8.1742962e-07
8.1430504e-07
8.0647198e-07
7.9944144e-07
7.9424223e-07
7.8891353e-07
7.8389152e-07
7.7834446e-07
7.7316135e-07
7.742999e-07
7.7094838e-07
7.7349254e-07
7.757275e-07
7.7558875e-07
7.7802268e-07
7.8231115e-07
7.8474358e-07
7.870721e-07
7.934025e-07
8.0332512e-07
8.1136883e-07
8.2005478e-07
8.3928632e-07
8.5693184e-07
8.7863558e-07
9.2950727e-07
8.8408677e-07
8.7239843e-07
8.3415127e-07
8.2081074e-07
8.2404279e-07
8.1932348e-07
8.1415726e-07
8.0570268e-07
7.9965854e-07
7.9479629e-07
7.8888794e-07
7.8393964e-07
7.7956519e-07
7.740292e-07
7.7457906e-07
7.7214949e-07
7.7233898e-07
7.7723085e-07
7.7540522e-07
7.7739298e-07
7.8256543e-07
7.8261109e-07
7.8703233e-07
7.9211897e-07
8.0285249e-07
8.0725897e-07
8.1604071e-07
8.3443623e-07
8.5514242e-07
8.6940048e-07
9.0773312e-07
8.8601908e-07
8.845043e-07
8.4535166e-07
8.2565539e-07
8.2455142e-07
8.2103513e-07
8.1365224e-07
8.0565252e-07
7.9894575e-07
7.9585739e-07
7.8901206e-07
7.8516331e-07
7.8012914e-07
7.7629651e-07
7.7484101e-07
7.7472723e-07
7.7348515e-07
7.7731903e-07
7.7725181e-07
7.7727256e-07
7.8252254e-07
7.8022243e-07
7.8612663e-07
7.8875676e-07
7.9941319e-07
8.0474708e-07
8.1419744e-07
8.2795926e-07
8.5126321e-07
8.6024938e-07
8.8876111e-07
8.8896766e-07
8.9042791e-07
8.5413981e-07
8.3200382e-07
8.2745813e-07
8.258204e-07
8.1593425e-07
8.0736838e-07
8.0025195e-07
7.9844555e-07
7.9190113e-07
7.8889191e-07
7.8242634e-07
7.7940492e-07
7.7753176e-07
7.7702599e-07
7.7677778e-07
7.7741107e-07
7.7895506e-07
7.7771472e-07
7.8209914e-07
7.7942562e-07
7.8786838e-07
7.8763767e-07
7.9368915e-07
8.0193317e-07
8.1301889e-07
8.2418246e-07
8.4367776e-07
8.5108602e-07
8.754547e-07
8.9119917e-07
8.9151799e-07
8.5427416e-07
8.4228052e-07
8.3921906e-07
8.3830358e-07
8.2531476e-07
8.1572188e-07
8.0685659e-07
8.0249244e-07
7.9408982e-07
7.912538e-07
7.8261277e-07
7.8112042e-07
7.7820206e-07
7.7742835e-07
7.7837939e-07
7.7935638e-07
7.8049984e-07
7.8070135e-07
7.8186368e-07
7.7980243e-07
7.8997112e-07
7.9040192e-07
7.8967291e-07
7.9984375e-07
8.1203089e-07
8.1976945e-07
8.3579685e-07
8.4613027e-07
8.7005436e-07
8.9086718e-07
8.9616165e-07
8.5319303e-07
8.4805207e-07
8.4878171e-07
8.4981337e-07
8.4010141e-07
8.3058706e-07
8.1929479e-07
8.1111422e-07
8.0205169e-07
7.9359089e-07
7.8655136e-07
7.8084711e-07
7.7967533e-07
7.7623313e-07
7.7919359e-07
7.7943169e-07
7.8124218e-07
7.8421279e-07
7.8418974e-07
7.8136919e-07
7.9158195e-07
7.9434961e-07
7.8956902e-07
7.9814157e-07
8.1102877e-07
8.1679027e-07
8.2609855e-07
8.3656838e-07
8.6125131e-07
8.844549e-07
8.994392e-07
8.5118873e-07
8.4482025e-07
8.4734813e-07
8.4931978e-07
8.4348978e-07
8.3438092e-07
8.2777425e-07
8.1989854e-07
8.1525688e-07
8.0313348e-07
7.9707193e-07
7.8529325e-07
7.8225493e-07
7.7696332e-07
7.7892773e-07
7.8003009e-07
7.8056801e-07
7.8660505e-07
7.8333954e-07
7.8635958e-07
7.8986846e-07
7.9705363e-07
7.9406424e-07
7.9728583e-07
8.081779e-07
8.1656643e-07
8.1935615e-07
8.2562493e-07
8.4738413e-07
8.7786851e-07
8.8634374e-07
8.4979854e-07
8.3949702e-07
8.4454429e-07
8.4591542e-07
8.4388862e-07
8.3339057e-07
8.2934696e-07
8.227698e-07
8.2002104e-07
8.1150409e-07
8.08116e-07
7.9642089e-07
7.9148566e-07
7.8447017e-07
7.8263375e-07
7.8318677e-07
7.8292891e-07
7.8742888e-07
7.8384981e-07
7.8836644e-07
7.9149351e-07
7.9403978e-07
7.9881778e-07
8.0161332e-07
8.0497079e-07
8.1539853e-07
8.192502e-07
8.2413786e-07
8.3892534e-07
8.7316322e-07
8.8790093e-07
8.5665226e-07
8.455874e-07
8.528459e-07
8.5063672e-07
8.473446e-07
8.3517033e-07
8.3027237e-07
8.2541149e-07
8.2015472e-07
8.1326609e-07
8.0923195e-07
8.0223861e-07
7.9895938e-07
7.9888966e-07
7.9434018e-07
7.9388171e-07
7.9097861e-07
7.9022999e-07
7.874156e-07
7.9039312e-07
7.9202387e-07
7.9191514e-07
7.9776681e-07
8.0355654e-07
8.0474565e-07
8.124369e-07
8.1938716e-07
8.2858098e-07
8.3928336e-07
8.6439301e-07
8.737388e-07
8.6710587e-07
8.7047921e-07
8.8868883e-07
8.8715728e-07
8.7767637e-07
8.5654865e-07
8.4236278e-07
8.3294935e-07
8.2206017e-07
8.1469463e-07
8.0870634e-07
8.041523e-07
8.0191456e-07
8.0507994e-07
8.0626858e-07
8.0590867e-07
8.1041791e-07
8.0476955e-07
8.0260287e-07
8.0203128e-07
7.9680855e-07
7.9490413e-07
7.9909363e-07
8.0508417e-07
8.0495198e-07
8.0915451e-07
8.1492017e-07
8.2655804e-07
8.3686463e-07
8.7845483e-07
8.7705171e-07
8.6807391e-07
8.7800456e-07
9.0371164e-07
9.1736712e-07
9.1435664e-07
8.9996111e-07
8.7796961e-07
8.5745441e-07
8.3529839e-07
8.2089617e-07
8.104031e-07
8.0475851e-07
8.0271651e-07
8.0535861e-07
8.0703295e-07
8.0932709e-07
8.1345193e-07
8.1487937e-07
8.1236995e-07
8.1759944e-07
8.1062145e-07
8.0927744e-07
8.0875978e-07
8.1307871e-07
8.1293013e-07
8.1296003e-07
8.18137e-07
8.2702977e-07
8.3439087e-07
8.776657e-07
8.9673247e-07
8.6225808e-07
8.6331061e-07
8.8364834e-07
9.0197512e-07
8.9986495e-07
8.9167517e-07
8.7456366e-07
8.5853874e-07
8.3948304e-07
8.2465425e-07
8.1210261e-07
8.0513536e-07
8.0329132e-07
8.0345869e-07
8.0532507e-07
8.0904369e-07
8.134007e-07
8.1667323e-07
8.1535913e-07
8.2164205e-07
8.163556e-07
8.1558708e-07
8.197413e-07
8.1995264e-07
8.2057149e-07
8.2122651e-07
8.2615907e-07
8.33469e-07
8.3801661e-07
8.7976633e-07
8.8714803e-07
8.43573e-07
8.2802672e-07
8.292196e-07
8.4112683e-07
8.4442694e-07
8.4934189e-07
8.4572982e-07
8.3935137e-07
8.2975132e-07
8.2160308e-07
8.1333038e-07
8.0753547e-07
8.048689e-07
8.056195e-07
8.0771184e-07
8.1198481e-07
8.148359e-07
8.1947823e-07
8.1943176e-07
8.2431635e-07
8.2293465e-07
8.2278924e-07
8.2745165e-07
8.2733673e-07
8.2485313e-07
8.2704861e-07
8.3325978e-07
8.3986408e-07
8.4436202e-07
8.8628341e-07
8.9064462e-07
8.4499538e-07
8.3206513e-07
8.2483045e-07
8.2735291e-07
8.2196017e-07
8.1861984e-07
8.138614e-07
8.1301958e-07
8.1465911e-07
8.1718377e-07
8.1777959e-07
8.1961329e-07
8.1973628e-07
8.2532832e-07
8.2909161e-07
8.3610749e-07
8.3757914e-07
8.422812e-07
8.4196262e-07
8.4289987e-07
8.4325488e-07
8.4463783e-07
8.4386546e-07
8.4194221e-07
8.3694512e-07
8.3929194e-07
8.4535645e-07
8.4819854e-07
8.5039873e-07
8.8659095e-07
8.9327924e-07
8.5891717e-07
8.6158879e-07
8.6204428e-07
8.6504918e-07
8.5060553e-07
8.3257261e-07
8.1768946e-07
8.1057779e-07
8.0926746e-07
8.1555639e-07
8.2572396e-07
8.4258495e-07
8.5642047e-07
8.7780149e-07
8.9107999e-07
9.0825565e-07
9.1587632e-07
9.2694789e-07
9.2576886e-07
9.2446666e-07
9.2136965e-07
9.2634876e-07
9.16947e-07
9.0681261e-07
8.9290546e-07
8.8590095e-07
8.8174035e-07
8.7761412e-07
8.7419227e-07
8.8073964e-07
8.830848e-07
8.5398681e-07
8.6305178e-07
8.8864592e-07
9.1095301e-07
9.0620606e-07
8.7998438e-07
8.5019484e-07
8.2896354e-07
8.1565059e-07
8.1345485e-07
8.2049053e-07
8.3504748e-07
8.5042137e-07
8.7196612e-07
8.9130859e-07
9.1020144e-07
9.2297755e-07
9.377645e-07
9.4774214e-07
9.4216236e-07
9.4472513e-07
9.5307485e-07
9.5435134e-07
9.44674e-07
9.4015433e-07
9.3823611e-07
9.3905139e-07
9.35853e-07
9.3590792e-07
8.7525167e-07
8.9233827e-07
8.4835541e-07
8.463473e-07
8.7031808e-07
8.9146737e-07
8.9602719e-07
8.7889961e-07
8.5590629e-07
8.3630616e-07
8.2072774e-07
8.1111833e-07
8.0815792e-07
8.090138e-07
8.1617333e-07
8.2636334e-07
8.4028863e-07
8.5162525e-07
8.61505e-07
8.7524839e-07
8.8800101e-07
8.8635681e-07
8.9068517e-07
9.0176518e-07
9.1251908e-07
9.1505039e-07
9.1802608e-07
9.2059298e-07
9.226266e-07
9.2231494e-07
9.3092343e-07
8.7244352e-07
8.79568e-07
8.4905546e-07
8.3492729e-07
8.4396865e-07
8.5271678e-07
8.5344834e-07
8.4664095e-07
8.3671965e-07
8.249864e-07
8.1524257e-07
8.0699723e-07
8.0103763e-07
7.9544361e-07
7.9128589e-07
7.887214e-07
7.8912196e-07
7.9014707e-07
7.8937609e-07
7.9483898e-07
7.9960295e-07
7.9960438e-07
8.0380171e-07
8.0728549e-07
8.1370618e-07
8.1885312e-07
8.2653732e-07
8.3853089e-07
8.4650683e-07
8.5508813e-07
8.6977593e-07
8.7388787e-07
8.8440594e-07
8.6096489e-07
8.4972943e-07
8.5923712e-07
8.7008661e-07
8.6980886e-07
8.6253972e-07
8.5173953e-07
8.3870841e-07
8.3023251e-07
8.2179424e-07
8.1681691e-07
8.0836062e-07
8.0359163e-07
7.9905301e-07
7.9453339e-07
7.9073359e-07
7.9049153e-07
7.9583397e-07
7.9623172e-07
7.9285159e-07
7.9938115e-07
8.0470912e-07
8.0944414e-07
8.1481059e-07
8.1827714e-07
8.1518703e-07
8.184668e-07
8.2457843e-07
8.2820166e-07
8.667992e-07
9.2630831e-07
9.8441148e-07
1.0064857e-06
1.0311944e-06
1.0632946e-06
1.0832472e-06
1.0976989e-06
1.1061496e-06
1.0983276e-06
1.0892127e-06
1.0811935e-06
1.0681902e-06
1.0649278e-06
1.055056e-06
1.0489085e-06
1.0476049e-06
1.0333514e-06
1.0249996e-06
1.0249446e-06
1.0301964e-06
1.0380295e-06
1.0692187e-06
1.1019426e-06
1.0932124e-06
1.0806616e-06
1.0518077e-06
1.0088468e-06
1.000131e-06
1.0036062e-06
9.731033e-07
1.0411482e-06
1.8772254e-06
1.9387504e-06
2.1354128e-06
2.0566329e-06
2.1015403e-06
2.0404025e-06
2.0618353e-06
2.0214533e-06
2.0748765e-06
2.0087155e-06
2.080866e-06
2.0309972e-06
2.0043379e-06
2.1216616e-06
2.0319951e-06
2.0099305e-06
2.0153503e-06
2.06915e-06
2.1322549e-06
2.0623581e-06
2.060027e-06
2.1177875e-06
2.3539128e-06
2.3013085e-06
2.2745368e-06
2.1509966e-06
1.9777595e-06
1.7437764e-06
1.7440469e-06
1.9893819e-06
1.0137511e-06
2.1073775e-06
2.6453698e-06
2.1129175e-06
1.8197989e-06
2.1181122e-06
1.7534817e-06
2.0173767e-06
1.6795218e-06
2.0708482e-06
1.7015262e-06
2.0487475e-06
1.7348718e-06
2.0190033e-06
1.9919268e-06
1.6919823e-06
2.054093e-06
1.8721933e-06
2.1001749e-06
1.8466697e-06
1.9905922e-06
2.1635861e-06
2.4331059e-06
1.8986877e-06
2.1635654e-06
2.5369974e-06
1.937971e-06
2.0424555e-06
2.6068737e-06
2.6233144e-06
2.4672649e-06
2.1177978e-06
2.1008153e-06
1.0883778e-06
8.42495e-07
8.6918031e-07
9.2810041e-07
9.3717149e-07
8.9048627e-07
8.6088465e-07
8.5229391e-07
8.4520189e-07
8.4223962e-07
8.4776465e-07
8.514373e-07
8.5216775e-07
8.6199642e-07
8.7504374e-07
8.7954977e-07
8.8536235e-07
9.0244248e-07
9.2235897e-07
9.460049e-07
9.7168436e-07
2.0107611e-06
2.1186805e-06
1.2301532e-06
8.85612e-07
8.7631246e-07
9.2889374e-07
9.4336872e-07
9.1654738e-07
8.7733933e-07
8.6071813e-07
8.5202283e-07
8.492854e-07
8.5773026e-07
8.6584614e-07
8.668459e-07
8.7258131e-07
8.8679736e-07
8.9476457e-07
9.0385809e-07
9.2249319e-07
9.4314389e-07
9.6215381e-07
9.8136153e-07
1.6894128e-06
2.091906e-06
1.1755027e-06
9.0261812e-07
8.8221107e-07
9.2176084e-07
9.43977e-07
9.3288338e-07
8.9406353e-07
8.7482923e-07
8.6679715e-07
8.6624966e-07
8.7193125e-07
8.7490778e-07
8.7756448e-07
8.8356635e-07
8.9710771e-07
9.1105607e-07
9.2434259e-07
9.4260045e-07
9.5888526e-07
9.8772469e-07
1.0021672e-06
1.2464262e-06
1.9223544e-06
1.2667797e-06
9.0959252e-07
8.8655987e-07
9.2023842e-07
9.5098841e-07
9.4303805e-07
9.0332394e-07
8.8526617e-07
8.8404088e-07
8.8622166e-07
8.9190681e-07
8.9447434e-07
8.9519088e-07
9.0127931e-07
9.1240982e-07
9.2643379e-07
9.3991263e-07
9.5665281e-07
9.6943655e-07
1.0003042e-06
1.0187638e-06
9.2222799e-07
1.9134327e-06
1.2833234e-06
9.1694446e-07
8.9116139e-07
9.2185035e-07
9.5497254e-07
9.5504436e-07
9.2980925e-07
9.10287e-07
9.0305441e-07
9.0089947e-07
9.0037758e-07
9.0719859e-07
9.1500353e-07
9.2419283e-07
9.375322e-07
9.5338036e-07
9.6263933e-07
9.7064555e-07
9.7760451e-07
1.0018275e-06
1.0310035e-06
7.5804541e-07
1.7270844e-06
1.3109361e-06
6.7229656e-07
8.7570233e-07
9.2441978e-07
9.6519721e-07
9.6941991e-07
9.5952175e-07
9.3414796e-07
9.2159025e-07
9.1885286e-07
9.2160289e-07
9.2963259e-07
9.3768668e-07
9.4396983e-07
9.513783e-07
9.6665459e-07
9.8271811e-07
9.9467174e-07
1.0053943e-06
1.0296385e-06
1.066213e-06
6.9584667e-07
1.497394e-06
1.0865663e-06
6.3241873e-07
7.3164854e-07
9.3479734e-07
9.7602323e-07
9.8826763e-07
9.8537175e-07
9.6184645e-07
9.4388071e-07
9.3855559e-07
9.410985e-07
9.5359467e-07
9.6205972e-07
9.660342e-07
9.6875206e-07
9.796518e-07
9.9763457e-07
1.0172193e-06
1.0309035e-06
1.0602014e-06
1.0827454e-06
6.9042037e-07
1.393442e-06
1.1582471e-06
9.1936988e-07
9.3223465e-07
9.5062205e-07
9.8553399e-07
1.0010316e-06
1.0011457e-06
9.8206796e-07
9.673801e-07
9.6684117e-07
9.6944043e-07
9.7904187e-07
9.8355915e-07
9.8313625e-07
9.8401723e-07
9.9275766e-07
1.0191476e-06
1.0436562e-06
1.0554964e-06
1.0808748e-06
1.0955408e-06
7.3550136e-07
1.3177151e-06
1.4440408e-06
1.0692764e-06
9.3880335e-07
9.6106859e-07
9.9677561e-07
1.0120571e-06
1.0190345e-06
1.0068082e-06
9.9445209e-07
9.8946001e-07
9.8859903e-07
9.9545564e-07
1.0038383e-06
1.0044182e-06
1.0049313e-06
1.0113873e-06
1.0321081e-06
1.0606125e-06
1.0735595e-06
1.0977141e-06
1.1083423e-06
7.7978307e-07
1.2717535e-06
1.438201e-06
1.089423e-06
9.3813716e-07
9.2868091e-07
1.0105549e-06
1.0311358e-06
1.0380355e-06
1.0281812e-06
1.0149203e-06
1.0048315e-06
1.0009202e-06
1.0046014e-06
1.0136744e-06
1.0177711e-06
1.0248067e-06
1.0352509e-06
1.0506784e-06
1.077932e-06
1.0990486e-06
1.11898e-06
1.1262807e-06
7.825742e-07
1.2377063e-06
1.4207944e-06
1.1022794e-06
7.1538539e-07
6.4525344e-07
9.7312335e-07
1.0503848e-06
1.0569085e-06
1.0479346e-06
1.0248302e-06
1.015387e-06
1.0125091e-06
1.0164833e-06
1.0323315e-06
1.0428673e-06
1.0520694e-06
1.060962e-06
1.0723751e-06
1.0993598e-06
1.119286e-06
1.1407324e-06
1.1479546e-06
8.4802724e-07
1.2194416e-06
1.3686451e-06
9.2384342e-07
8.4010989e-07
9.6850532e-07
1.022612e-06
1.0605969e-06
1.0692269e-06
1.0636141e-06
1.0438713e-06
1.0348687e-06
1.0351269e-06
1.0409626e-06
1.0603637e-06
1.0718896e-06
1.0770049e-06
1.0825622e-06
1.0936289e-06
1.1173364e-06
1.1326467e-06
1.147483e-06
1.1538412e-06
9.9500072e-07
1.2283702e-06
1.385223e-06
1.1205496e-06
9.4142428e-07
9.5938631e-07
1.0154267e-06
1.0644676e-06
1.0812748e-06
1.0823653e-06
1.0679207e-06
1.0593639e-06
1.0610575e-06
1.0668777e-06
1.082714e-06
1.0925911e-06
1.09522e-06
1.0962453e-06
1.101843e-06
1.1178343e-06
1.138834e-06
1.1587566e-06
1.1730695e-06
1.1978816e-06
1.2461872e-06
1.3648867e-06
1.1234915e-06
8.4749458e-07
7.3316952e-07
1.0065535e-06
1.0709085e-06
1.0896598e-06
1.0948823e-06
1.0857699e-06
1.0773309e-06
1.0779777e-06
1.0808981e-06
1.0917263e-06
1.0986036e-06
1.1031634e-06
1.1048041e-06
1.1091486e-06
1.1203241e-06
1.1467997e-06
1.1857379e-06
1.2119642e-06
1.4174141e-06
1.2624581e-06
1.3399655e-06
1.1293548e-06
7.8621375e-07
9.477813e-07
1.0047185e-06
1.0764785e-06
1.0972155e-06
1.1032449e-06
1.0954194e-06
1.0913513e-06
1.0928433e-06
1.0940637e-06
1.099497e-06
1.1044723e-06
1.1082765e-06
1.1145562e-06
1.121999e-06
1.1372104e-06
1.1710826e-06
1.2145475e-06
1.2335042e-06
1.6021274e-06
1.2977394e-06
1.3070503e-06
1.1421339e-06
9.5431105e-07
9.4953132e-07
8.4990707e-07
9.7605914e-07
1.1104701e-06
1.1172819e-06
1.1085076e-06
1.1045471e-06
1.1077488e-06
1.1102661e-06
1.1133487e-06
1.1173428e-06
1.118326e-06
1.1240582e-06
1.1351946e-06
1.1590916e-06
1.1951915e-06
1.2210903e-06
1.2398729e-06
1.7335556e-06
1.3980991e-06
1.3011415e-06
1.1501773e-06
9.6732805e-07
5.4770309e-07
5.185468e-07
7.402517e-07
1.1271169e-06
1.1281926e-06
1.1176345e-06
1.1120791e-06
1.1175317e-06
1.1211735e-06
1.1283235e-06
1.1305878e-06
1.1275261e-06
1.129123e-06
1.140559e-06
1.1666405e-06
1.2014079e-06
1.2380907e-06
1.2588047e-06
1.7674437e-06
1.4642396e-06
1.3074188e-06
1.1456414e-06
8.039952e-07
4.6974464e-07
4.9267531e-07
8.1544862e-07
1.133278e-06
1.1320721e-06
1.1223049e-06
1.1186908e-06
1.1228297e-06
1.1258594e-06
1.1312739e-06
1.1327872e-06
1.1331954e-06
1.1389226e-06
1.1527856e-06
1.182661e-06
1.2174538e-06
1.2546434e-06
1.273243e-06
1.9064908e-06
1.5156741e-06
1.3008195e-06
1.1347816e-06
8.0948509e-07
5.1768416e-07
6.0120268e-07
1.1125036e-06
1.1404414e-06
1.1359358e-06
1.1249483e-06
1.1233433e-06
1.1284518e-06
1.1312796e-06
1.1348586e-06
1.1384744e-06
1.1477141e-06
1.163286e-06
1.1781576e-06
1.1925333e-06
1.2253066e-06
1.2635037e-06
1.2866983e-06
2.0235256e-06
1.5803336e-06
1.2917034e-06
1.1202257e-06
9.6749967e-07
7.7010088e-07
8.7606881e-07
1.121416e-06
1.148305e-06
1.1382454e-06
1.1293407e-06
1.1269758e-06
1.1361609e-06
1.142861e-06
1.1454159e-06
1.1486938e-06
1.1595976e-06
1.1784324e-06
1.1963266e-06
1.2173177e-06
1.2495269e-06
1.2743581e-06
1.2905538e-06
2.1089474e-06
1.6528713e-06
1.2943798e-06
1.1095466e-06
9.6532406e-07
9.6111678e-07
1.0425448e-06
1.131812e-06
1.1536402e-06
1.1370168e-06
1.1284137e-06
1.1312349e-06
1.1442769e-06
1.1538747e-06
1.1550684e-06
1.1577813e-06
1.1711105e-06
1.1955233e-06
1.2179929e-06
1.2401664e-06
1.2667445e-06
1.2862449e-06
1.3040407e-06
2.1459633e-06
1.7345215e-06
1.2995434e-06
1.1011447e-06
9.6785142e-07
9.6844429e-07
1.062835e-06
1.1428444e-06
1.1579252e-06
1.1365805e-06
1.1290427e-06
1.1334586e-06
1.1532806e-06
1.1614671e-06
1.160872e-06
1.1639548e-06
1.1802229e-06
1.2041849e-06
1.2341818e-06
1.2651424e-06
1.2955727e-06
1.3115238e-06
1.3254312e-06
2.2418114e-06
1.8139472e-06
1.3115056e-06
1.098642e-06
9.7443492e-07
9.7932515e-07
1.0910483e-06
1.1569092e-06
1.1588544e-06
1.1374841e-06
1.1327231e-06
1.1470811e-06
1.1651837e-06
1.1677446e-06
1.1669314e-06
1.1727687e-06
1.1919491e-06
1.2304877e-06
1.2624094e-06
1.2944871e-06
1.313878e-06
1.3215206e-06
1.3449822e-06
2.341728e-06
1.8495792e-06
1.3102113e-06
1.0891846e-06
9.8202075e-07
7.5888961e-07
8.8668097e-07
1.1651897e-06
1.1560325e-06
1.1419778e-06
1.1446339e-06
1.170249e-06
1.1791038e-06
1.1761385e-06
1.1747096e-06
1.1825225e-06
1.2164338e-06
1.2464616e-06
1.2749068e-06
1.304708e-06
1.3253326e-06
1.3428818e-06
1.3862984e-06
2.3520064e-06
1.8718101e-06
1.3067018e-06
1.0774701e-06
8.0116522e-07
6.5843977e-07
8.7325486e-07
1.1678873e-06
1.1529629e-06
1.1491083e-06
1.1676029e-06
1.1920177e-06
1.1938304e-06
1.1857269e-06
1.1831254e-06
1.1947869e-06
1.2290182e-06
1.2734371e-06
1.3128311e-06
1.3367039e-06
1.3494631e-06
1.3741586e-06
1.4207866e-06
2.3381405e-06
1.9073523e-06
1.2967124e-06
1.0623727e-06
5.1721033e-07
6.2102368e-07
1.1346585e-06
1.1643807e-06
1.1513602e-06
1.1560985e-06
1.1918143e-06
1.2046866e-06
1.2029498e-06
1.1942281e-06
1.1920009e-06
1.2207326e-06
1.2724386e-06
1.3165911e-06
1.3410433e-06
1.350365e-06
1.3721662e-06
1.4211754e-06
1.5177133e-06
2.2828847e-06
1.9195023e-06
1.273542e-06
6.2716118e-07
5.7990361e-07
1.0664312e-06
1.1427878e-06
1.1647413e-06
1.1588747e-06
1.1773121e-06
1.210841e-06
1.2181991e-06
1.2155962e-06
1.2079032e-06
1.2148944e-06
1.2543408e-06
1.3021945e-06
1.3293748e-06
1.353218e-06
1.3865511e-06
1.4556308e-06
1.5418725e-06
1.6343271e-06
2.2738734e-06
1.9090084e-06
1.2481786e-06
6.8494058e-07
1.0174116e-06
1.0962107e-06
1.1598044e-06
1.1675121e-06
1.1679628e-06
1.1937308e-06
1.2264587e-06
1.2309575e-06
1.2249379e-06
1.2163433e-06
1.2320589e-06
1.2812903e-06
1.3263737e-06
1.3517695e-06
1.39086e-06
1.4514269e-06
1.5093405e-06
1.6118406e-06
1.7417952e-06
2.411812e-06
1.9654668e-06
1.2310496e-06
8.6046918e-07
7.1852734e-07
1.1276106e-06
1.1754285e-06
1.1738289e-06
1.1807381e-06
1.2228844e-06
1.236035e-06
1.2332822e-06
1.2294475e-06
1.2414152e-06
1.2820098e-06
1.3338501e-06
1.3544399e-06
1.3724623e-06
1.4183415e-06
1.4787741e-06
1.6064379e-06
1.7646022e-06
1.8427142e-06
2.6449052e-06
1.9547189e-06
1.1244266e-06
1.0491013e-06
1.0809776e-06
1.14166e-06
1.1954638e-06
1.1859987e-06
1.201113e-06
1.2255134e-06
1.2316295e-06
1.2344385e-06
1.2423324e-06
1.2722203e-06
1.3360172e-06
1.3656985e-06
1.3821795e-06
1.4136588e-06
1.477938e-06
1.6146971e-06
1.7630835e-06
1.8305186e-06
1.9349152e-06
2.7876923e-06
1.941719e-06
1.1930025e-06
9.3956532e-07
1.1101375e-06
1.196693e-06
1.2125777e-06
1.204774e-06
1.224533e-06
1.2334366e-06
1.2354059e-06
1.2442596e-06
1.2796809e-06
1.3414375e-06
1.3895199e-06
1.4096932e-06
1.4364505e-06
1.4932284e-06
1.6278405e-06
1.7417938e-06
1.8058013e-06
1.9305572e-06
2.2073778e-06
2.6489652e-06
1.9878655e-06
1.1821123e-06
1.0676298e-06
1.131886e-06
1.2019454e-06
1.2160366e-06
1.2215507e-06
1.2463308e-06
1.2484122e-06
1.2463595e-06
1.2564786e-06
1.2987092e-06
1.3708006e-06
1.4196428e-06
1.4467759e-06
1.5035408e-06
1.6332725e-06
1.7283168e-06
1.786739e-06
1.9430707e-06
2.2705102e-06
3.0350498e-06
2.5077817e-06
1.9893659e-06
1.0895444e-06
1.0930044e-06
1.1534803e-06
1.2155505e-06
1.2318804e-06
1.2510484e-06
1.2688841e-06
1.2737057e-06
1.2817825e-06
1.3114847e-06
1.3650031e-06
1.4264449e-06
1.4700147e-06
1.5334725e-06
1.6476826e-06
1.7464818e-06
1.8203439e-06
1.9880533e-06
2.3622308e-06
3.292134e-06
5.5778834e-06
2.6303469e-06
2.0217736e-06
1.170165e-06
1.1165687e-06
1.1711719e-06
1.2211273e-06
1.2381128e-06
1.2655099e-06
1.2838554e-06
1.2931911e-06
1.3096377e-06
1.3450794e-06
1.3928223e-06
1.4450929e-06
1.4985073e-06
1.5872576e-06
1.7137266e-06
1.8370852e-06
2.0328387e-06
2.5370678e-06
3.8365379e-06
6.9389754e-06
1.2916171e-05
2.8377398e-06
1.9166692e-06
1.1456127e-06
1.1480536e-06
1.202534e-06
1.2513916e-06
1.2673092e-06
1.2897561e-06
1.3070966e-06
1.3291653e-06
1.3661995e-06
1.4173113e-06
1.4670381e-06
1.5348205e-06
1.6574934e-06
1.9190526e-06
2.4731916e-06
3.6683887e-06
6.2144567e-06
1.0882007e-05
1.8046373e-05
2.7780037e-05
4.0670685e-05
2.9479802e-06
2.0902854e-06
1.1684536e-06
1.1471983e-06
1.2061824e-06
1.2638934e-06
1.2831316e-06
1.3015977e-06
1.3059514e-06
1.3226483e-06
1.3781181e-06
1.4627771e-06
1.5282576e-06
1.6120258e-06
1.8140791e-06
2.2940723e-06
3.4280586e-06
6.0129983e-06
1.1254281e-05
1.9924794e-05
3.1849006e-05
4.5528728e-05
5.2004615e-05
2.9763583e-06
2.3969868e-06
1.2215159e-06
1.14978e-06
1.2027346e-06
1.2600494e-06
1.2870001e-06
1.3140611e-06
1.3195535e-06
1.3291111e-06
1.3745701e-06
1.4647208e-06
1.5707633e-06
1.6645613e-06
1.8987304e-06
2.4805209e-06
3.9034687e-06
7.3059799e-06
1.4198093e-05
2.5615715e-05
4.2466609e-05
6.7006263e-05
0.00013291119
3.0269264e-06
2.7954339e-06
1.3273575e-06
1.1551362e-06
1.2014516e-06
1.2585007e-06
1.2870808e-06
1.3166761e-06
1.3304066e-06
1.3477994e-06
1.3914184e-06
1.4798231e-06
1.6177191e-06
1.7996153e-06
2.0837405e-06
2.8240896e-06
4.7615169e-06
9.599269e-06
1.9345453e-05
3.5079355e-05
5.9519232e-05
0.0001229246
0.00020000515
3.1792944e-06
3.0501971e-06
1.3849674e-06
1.1581008e-06
1.2009284e-06
1.2601821e-06
1.296127e-06
1.3244831e-06
1.3357184e-06
1.3533018e-06
1.4012742e-06
1.4947487e-06
1.6471094e-06
1.9275898e-06
2.5271889e-06
3.8585992e-06
7.0765605e-06
1.4854691e-05
2.9641602e-05
5.4121042e-05
0.00010084503
0.00018421076
0.00023139654
3.4701782e-06
3.3429766e-06
1.4582508e-06
1.1616526e-06
1.2052416e-06
1.263616e-06
1.3071375e-06
1.3391656e-06
1.3453954e-06
1.357785e-06
1.4024268e-06
1.5005935e-06
1.658818e-06
1.9598071e-06
2.6866291e-06
4.5595604e-06
9.4108572e-06
2.1219192e-05
4.4092736e-05
8.2095608e-05
0.00014798479
0.00021906793
0.00025741849
3.6868681e-06
3.8228231e-06
1.7390838e-06
1.1933077e-06
1.2079689e-06
1.2685736e-06
1.3181105e-06
1.3575804e-06
1.3642043e-06
1.3717189e-06
1.4032877e-06
1.4855747e-06
1.6327476e-06
1.9442487e-06
2.6773045e-06
4.5868695e-06
9.5716569e-06
2.1598929e-05
4.539256e-05
8.6749443e-05
0.00016116865
0.00023586655
0.00027184717
3.8795843e-06
4.1929064e-06
1.9497695e-06
1.2406345e-06
1.2148221e-06
1.2718377e-06
1.3284842e-06
1.3788865e-06
1.4028497e-06
1.4055172e-06
1.4192865e-06
1.4797046e-06
1.5825032e-06
1.8447045e-06
2.527075e-06
4.3316629e-06
9.15422e-06
2.0815763e-05
4.39198e-05
8.4533263e-05
0.00015941568
0.0002392295
0.0002781284
4.5640503e-06
4.3181215e-06
2.1038027e-06
1.2944943e-06
1.2219336e-06
1.2778913e-06
1.3302591e-06
1.4066667e-06
1.4315816e-06
1.4459026e-06
1.4565896e-06
1.4900963e-06
1.5759949e-06
1.7274125e-06
2.1687583e-06
3.4940673e-06
7.5097269e-06
1.7790904e-05
3.8460253e-05
7.3686797e-05
0.00014575609
0.00023301206
0.00028542431
5.1392149e-06
4.5076704e-06
2.5898481e-06
1.491836e-06
1.2581481e-06
1.2979894e-06
1.3420826e-06
1.4233398e-06
1.4510514e-06
1.4667455e-06
1.4859019e-06
1.5131674e-06
1.5834445e-06
1.6903802e-06
1.9353976e-06
2.6507109e-06
4.8890528e-06
1.153729e-05
2.7050181e-05
5.4350665e-05
0.00010015052
0.00020285591
0.00027009954
4.3904943e-06
4.6825366e-06
2.9241697e-06
1.7181367e-06
1.326609e-06
1.3422147e-06
1.3688788e-06
1.4507728e-06
1.5067345e-06
1.5147768e-06
1.5250483e-06
1.5467041e-06
1.5964573e-06
1.6892287e-06
1.8183336e-06
2.1683445e-06
3.2186345e-06
6.5107032e-06
1.5605388e-05
3.5098582e-05
6.6408401e-05
0.00012236102
0.00019487919
3.6246787e-06
4.6652693e-06
3.1392122e-06
1.9217231e-06
1.4229899e-06
1.3834508e-06
1.424021e-06
1.4859395e-06
1.5846256e-06
1.6026939e-06
1.6079422e-06
1.6138246e-06
1.6306872e-06
1.6911118e-06
1.7865691e-06
1.9414346e-06
2.4058338e-06
3.7613157e-06
7.9165132e-06
1.8596203e-05
4.0259796e-05
7.4711631e-05
0.00013174966
3.015371e-06
4.3570516e-06
3.5254949e-06
2.2864312e-06
1.6096358e-06
1.4496461e-06
1.4706179e-06
1.5124596e-06
1.6088047e-06
1.6672352e-06
1.6877511e-06
1.7022018e-06
1.7123739e-06
1.7301995e-06
1.7936228e-06
1.8986676e-06
2.09661e-06
2.6403718e-06
4.2180453e-06
8.7643304e-06
1.9751066e-05
4.1943904e-05
8.6338083e-05
2.7202706e-06
3.7311775e-06
4.0538073e-06
3.0250091e-06
1.9819142e-06
1.5663225e-06
1.5099075e-06
1.5387838e-06
1.6018181e-06
1.686366e-06
1.7259228e-06
1.7510399e-06
1.7670202e-06
1.7838628e-06
1.8200456e-06
1.9093647e-06
2.0238866e-06
2.2471818e-06
2.7814632e-06
4.4116867e-06
8.6626287e-06
1.9042782e-05
5.1040667e-05
1.2093238e-06
3.6448668e-06
4.3684573e-06
3.6628205e-06
2.7963453e-06
1.916597e-06
1.6001929e-06
1.5900734e-06
1.6303915e-06
1.6962663e-06
1.7505425e-06
1.7802728e-06
1.8044724e-06
1.8182952e-06
1.8410796e-06
1.9188938e-06
1.9863492e-06
2.1043343e-06
2.2843147e-06
2.8356708e-06
4.2236212e-06
8.0383477e-06
2.6642005e-05
1.2475666e-06
3.7130083e-06
4.4958739e-06
4.0342567e-06
3.3674427e-06
2.7022152e-06
2.1127288e-06
1.8154693e-06
1.7143422e-06
1.7265414e-06
1.7673712e-06
1.8179372e-06
1.8582782e-06
1.8837563e-06
1.8876217e-06
1.9318363e-06
1.9816215e-06
2.0795618e-06
2.1632206e-06
2.36233e-06
2.7922976e-06
4.0234573e-06
1.2492686e-05
1.2049491e-06
3.9281076e-06
4.6330983e-06
4.1426848e-06
3.6205433e-06
3.2112451e-06
2.7003455e-06
2.2684288e-06
1.9973895e-06
1.8718432e-06
1.8545525e-06
1.874553e-06
1.9056185e-06
1.9305149e-06
1.9547948e-06
1.9745247e-06
2.0150426e-06
2.0956701e-06
2.1467664e-06
2.2724553e-06
2.3964512e-06
2.7794795e-06
5.9595626e-06
1.2037743e-06
4.0553285e-06
4.9219032e-06
4.3462602e-06
3.8008759e-06
3.4529945e-06
2.9725206e-06
2.5021506e-06
2.1790145e-06
1.9980415e-06
1.9381369e-06
1.9398012e-06
1.9505681e-06
1.9719147e-06
1.9995e-06
2.0216599e-06
2.0425519e-06
2.1044437e-06
2.1549147e-06
2.2373913e-06
2.3121379e-06
2.4427875e-06
3.5271149e-06
1.3319347e-06
4.1653483e-06
5.2174915e-06
4.9674706e-06
4.5187046e-06
3.9393157e-06
3.3183524e-06
2.7715424e-06
2.3994438e-06
2.1735149e-06
2.0677139e-06
2.039568e-06
2.0336274e-06
2.0400679e-06
2.0573981e-06
2.0829141e-06
2.0854366e-06
2.1186061e-06
2.1731506e-06
2.2381478e-06
2.3164184e-06
2.3809965e-06
2.768123e-06
1.4110291e-06
4.2643898e-06
5.8289818e-06
5.8588723e-06
5.4181449e-06
4.8664043e-06
4.1544759e-06
3.4547817e-06
2.9337143e-06
2.5711151e-06
2.36403e-06
2.2745719e-06
2.2286924e-06
2.2007283e-06
2.1897938e-06
2.1976375e-06
2.1862442e-06
2.1884108e-06
2.2141607e-06
2.2618538e-06
2.3355778e-06
2.3830779e-06
2.5573087e-06
1.561742e-06
4.2875864e-06
6.5245065e-06
8.0353341e-06
8.6347269e-06
8.6570026e-06
7.4698336e-06
5.7043374e-06
4.4681864e-06
3.6887281e-06
3.1742017e-06
2.9199179e-06
2.7317051e-06
2.623328e-06
2.5263085e-06
2.4777784e-06
2.4331488e-06
2.3993339e-06
2.3747077e-06
2.3795838e-06
2.4013294e-06
2.4318862e-06
2.5610408e-06
1.8092894e-06
3.7144285e-06
7.5452262e-06
1.0792114e-05
1.3715628e-05
1.507873e-05
1.4392467e-05
1.2403594e-05
1.0174299e-05
8.22018e-06
6.5170695e-06
5.5516957e-06
4.7896181e-06
4.3972405e-06
3.8853418e-06
3.640464e-06
3.3064897e-06
3.1476211e-06
2.9389433e-06
2.8603307e-06
2.7537176e-06
2.7293215e-06
2.6682287e-06
1.2689495e-06
3.73806e-06
7.1980446e-06
1.1018018e-05
1.4875695e-05
1.7491803e-05
1.8386657e-05
1.8461708e-05
1.7839279e-05
1.6745558e-05
1.5087386e-05
1.3030841e-05
1.1114743e-05
9.9516033e-06
8.7240394e-06
8.1126899e-06
7.0657939e-06
6.6954238e-06
5.6628752e-06
5.2312883e-06
4.4280051e-06
4.1831355e-06
3.4509066e-06
1.5971447e-06
3.7352707e-06
6.3415254e-06
9.2996589e-06
1.3189237e-05
1.6502668e-05
1.8644953e-05
2.0131454e-05
2.0888257e-05
2.1217624e-05
2.0956002e-05
2.0168011e-05
1.8692509e-05
1.7038701e-05
1.5500296e-05
1.4124489e-05
1.2966789e-05
1.2092534e-05
1.1059394e-05
1.0261391e-05
9.1924586e-06
8.6875123e-06
7.3239605e-06
1.3732729e-06
3.7754222e-06
5.6179777e-06
7.5804561e-06
1.0385603e-05
1.3625183e-05
1.6068925e-05
1.7914852e-05
1.9241983e-05
2.0058737e-05
2.0594081e-05
2.1093135e-05
2.1043833e-05
2.0287509e-05
1.9007672e-05
1.7323726e-05
1.5964942e-05
1.435842e-05
1.348751e-05
1.2330251e-05
1.1735389e-05
1.0459347e-05
9.5888883e-06
1.9145792e-06
4.9399503e-06
5.9066166e-06
7.2762378e-06
8.9662609e-06
1.1253638e-05
1.3909482e-05
1.5797183e-05
1.7198817e-05
1.808014e-05
1.8521563e-05
1.8977336e-05
1.9215701e-05
1.8974554e-05
1.8130336e-05
1.6830672e-05
1.5741013e-05
1.4348871e-05
1.3635239e-05
1.2460161e-05
1.1892199e-05
1.0401996e-05