/*--------------------------------*- C++ -*----------------------------------*\
| =========                 |                                                 |
| \\      /  F ield         | OpenFOAM: The Open Source CFD Toolbox           |
|  \\    /   O peration     | Version:  2406                                  |
|   \\  /    A nd           | Website:  www.openfoam.com                      |
|    \\/     M anipulation  |                                                 |
\*---------------------------------------------------------------------------*/
FoamFile
{
    version     2.0;
    format      ascii;
    arch        "LSB;label=32;scalar=64";
    class       volScalarField;
    location    "40";
    object      k_0;
}
// * * * * * * * * * * * * * * * * * * * * * * * * * * * * * * * * * * * * * //

dimensions      [0 2 -2 0 0 0 0];

internalField   nonuniform List<scalar> 
20580
(
3.1095356e-06
2.2855876e-06
1.8045048e-06
1.5210043e-06
1.3348003e-06
1.1854554e-06
1.064983e-06
9.6508534e-07
8.8489584e-07
8.2128517e-07
7.6765616e-07
7.2030325e-07
6.802101e-07
6.4571049e-07
6.1937371e-07
5.9433305e-07
5.77108e-07
5.5822326e-07
5.4532245e-07
5.3142824e-07
5.2216583e-07
5.119544e-07
5.0508439e-07
5.0078947e-07
5.0320831e-07
5.06736e-07
5.1311726e-07
5.2454911e-07
5.4272641e-07
5.7142673e-07
6.2012107e-07
3.1376936e-06
2.309701e-06
1.8136624e-06
1.529639e-06
1.3482997e-06
1.1969803e-06
1.0755111e-06
9.7370041e-07
8.9249108e-07
8.272092e-07
7.7237443e-07
7.2457659e-07
6.8430558e-07
6.4890247e-07
6.2346543e-07
5.9770268e-07
5.7965319e-07
5.614076e-07
5.4735721e-07
5.3438954e-07
5.2554563e-07
5.1563181e-07
5.0976051e-07
5.0448901e-07
5.0517134e-07
5.075638e-07
5.1193059e-07
5.236903e-07
5.3443186e-07
5.5309504e-07
5.9930074e-07
3.1422632e-06
2.3510696e-06
1.8327252e-06
1.5418857e-06
1.357549e-06
1.2052929e-06
1.0811033e-06
9.779924e-07
8.9726191e-07
8.3154934e-07
7.7535416e-07
7.2771903e-07
6.8777328e-07
6.5215384e-07
6.2614916e-07
6.0058822e-07
5.8142464e-07
5.6449107e-07
5.490822e-07
5.3592722e-07
5.2674383e-07
5.1697753e-07
5.1127237e-07
5.0623788e-07
5.0637337e-07
5.0778138e-07
5.1054955e-07
5.21013e-07
5.3299456e-07
5.4509864e-07
5.7953449e-07
3.1476178e-06
2.3828792e-06
1.8576794e-06
1.5513466e-06
1.3603036e-06
1.2096731e-06
1.0847825e-06
9.82241e-07
9.0015649e-07
8.3587353e-07
7.7955536e-07
7.3239096e-07
6.9190164e-07
6.5662978e-07
6.294135e-07
6.0454117e-07
5.8453595e-07
5.6666823e-07
5.5190287e-07
5.3768352e-07
5.2815801e-07
5.1774901e-07
5.1178363e-07
5.0595971e-07
5.0547737e-07
5.0697125e-07
5.0936839e-07
5.1653025e-07
5.3052946e-07
5.3890746e-07
5.6395071e-07
3.1540102e-06
2.391876e-06
1.8771065e-06
1.5640129e-06
1.3684406e-06
1.2186203e-06
1.0916366e-06
9.8749637e-07
9.054086e-07
8.4199361e-07
7.8627433e-07
7.391401e-07
6.9801888e-07
6.6236192e-07
6.3474812e-07
6.0914881e-07
5.8867454e-07
5.6942209e-07
5.5446713e-07
5.3977197e-07
5.289237e-07
5.1918724e-07
5.1318621e-07
5.0673737e-07
5.0379296e-07
5.0525365e-07
5.0845771e-07
5.1376006e-07
5.2525243e-07
5.3284739e-07
5.5375619e-07
3.1565033e-06
2.3859789e-06
1.8756405e-06
1.5868233e-06
1.3952167e-06
1.2421878e-06
1.1090806e-06
1.0007671e-06
9.170528e-07
8.4925175e-07
7.914225e-07
7.4417132e-07
7.0081987e-07
6.6681452e-07
6.3757495e-07
6.1292287e-07
5.9187905e-07
5.7423537e-07
5.5831454e-07
5.4367454e-07
5.3112194e-07
5.2090951e-07
5.1524238e-07
5.0900797e-07
5.0300559e-07
5.0368264e-07
5.0765642e-07
5.1120433e-07
5.2084295e-07
5.2935676e-07
5.4732062e-07
3.1690742e-06
2.4066526e-06
1.8738033e-06
1.5987299e-06
1.4131914e-06
1.2607784e-06
1.1291395e-06
1.0208835e-06
9.3293502e-07
8.6149727e-07
8.0142591e-07
7.5012068e-07
7.0575885e-07
6.6966601e-07
6.4095553e-07
6.1490369e-07
5.9518453e-07
5.7760962e-07
5.6206498e-07
5.4929753e-07
5.3637205e-07
5.2495681e-07
5.1917965e-07
5.1288456e-07
5.0430032e-07
5.0306441e-07
5.0665382e-07
5.0909954e-07
5.1600324e-07
5.2305655e-07
5.3880035e-07
3.1878673e-06
2.4337017e-06
1.8726031e-06
1.5867403e-06
1.4013108e-06
1.2550764e-06
1.129481e-06
1.0245954e-06
9.4181047e-07
8.7306764e-07
8.1549958e-07
7.6223673e-07
7.1706826e-07
6.7648371e-07
6.4553913e-07
6.1814966e-07
5.9754626e-07
5.8058644e-07
5.6381085e-07
5.5332324e-07
5.3897337e-07
5.3024845e-07
5.2215452e-07
5.1788559e-07
5.0996675e-07
5.0449273e-07
5.0604091e-07
5.0864397e-07
5.1207492e-07
5.1581996e-07
5.2910771e-07
3.1644789e-06
2.4133413e-06
1.8764012e-06
1.5753516e-06
1.3889933e-06
1.2462481e-06
1.1241144e-06
1.0196569e-06
9.4077106e-07
8.7539145e-07
8.2017394e-07
7.701958e-07
7.2836559e-07
6.8728281e-07
6.5506847e-07
6.2557795e-07
6.0245121e-07
5.8460368e-07
5.6704131e-07
5.5523454e-07
5.4159633e-07
5.3208877e-07
5.2556909e-07
5.1912299e-07
5.1522344e-07
5.0952038e-07
5.0735111e-07
5.0902115e-07
5.1126974e-07
5.1373074e-07
5.2299593e-07
3.1577895e-06
2.4535474e-06
1.9104091e-06
1.6016237e-06
1.4119122e-06
1.2594701e-06
1.1319728e-06
1.0237896e-06
9.4205353e-07
8.7636567e-07
8.1917927e-07
7.6992895e-07
7.2901346e-07
6.9179901e-07
6.6185102e-07
6.3783887e-07
6.1311713e-07
5.9460956e-07
5.7507159e-07
5.5973681e-07
5.4578757e-07
5.3524407e-07
5.2750246e-07
5.2040676e-07
5.1654864e-07
5.1287789e-07
5.0994415e-07
5.1033091e-07
5.1236903e-07
5.1570262e-07
5.2250846e-07
3.0993148e-06
2.4556254e-06
1.9818044e-06
1.704021e-06
1.5234677e-06
1.3551243e-06
1.200862e-06
1.0668941e-06
9.6475276e-07
8.8784175e-07
8.2286337e-07
7.7076058e-07
7.2805297e-07
6.920613e-07
6.6357502e-07
6.4256259e-07
6.2303273e-07
6.0491199e-07
5.9101221e-07
5.7279092e-07
5.5817395e-07
5.4517424e-07
5.3288792e-07
5.2415181e-07
5.1873421e-07
5.1508087e-07
5.1157302e-07
5.107425e-07
5.1250805e-07
5.1627691e-07
5.2212637e-07
3.1866182e-06
2.4736983e-06
2.021912e-06
1.7764608e-06
1.6193027e-06
1.4771506e-06
1.3247885e-06
1.1765557e-06
1.0435436e-06
9.3534972e-07
8.4751603e-07
7.8187824e-07
7.321843e-07
6.9337501e-07
6.6334826e-07
6.4179177e-07
6.2311567e-07
6.0695773e-07
5.9317708e-07
5.802006e-07
5.6504974e-07
5.5596756e-07
5.4380399e-07
5.3408099e-07
5.2525793e-07
5.2069385e-07
5.1682912e-07
5.1344667e-07
5.1434464e-07
5.1668681e-07
5.2151806e-07
3.2230748e-06
2.5059533e-06
2.0029427e-06
1.7441743e-06
1.5903527e-06
1.463681e-06
1.3236134e-06
1.192547e-06
1.0710886e-06
9.6543776e-07
8.7421364e-07
7.9989251e-07
7.4165881e-07
6.9729409e-07
6.6538104e-07
6.4021988e-07
6.2055603e-07
6.0416716e-07
5.9058994e-07
5.7882775e-07
5.6509287e-07
5.5689222e-07
5.4661052e-07
5.3742808e-07
5.319393e-07
5.2522199e-07
5.2146469e-07
5.1799832e-07
5.1793151e-07
5.1965609e-07
5.2284391e-07
3.1679524e-06
2.4611165e-06
1.9388597e-06
1.6482946e-06
1.471872e-06
1.3451552e-06
1.2279307e-06
1.1291605e-06
1.0340503e-06
9.4892842e-07
8.7222453e-07
8.0683083e-07
7.5205929e-07
7.0677282e-07
6.7234535e-07
6.4534674e-07
6.2436462e-07
6.071585e-07
5.9223388e-07
5.8026869e-07
5.6762515e-07
5.578431e-07
5.5004409e-07
5.4164441e-07
5.3681246e-07
5.299707e-07
5.2453871e-07
5.2142988e-07
5.2204486e-07
5.2342212e-07
5.2519758e-07
3.1695646e-06
2.4723698e-06
1.9446139e-06
1.6578264e-06
1.4630243e-06
1.3183772e-06
1.1882456e-06
1.0805973e-06
9.8991078e-07
9.1874126e-07
8.6187709e-07
8.1470491e-07
7.7267884e-07
7.3385273e-07
7.0128752e-07
6.7601394e-07
6.5419493e-07
6.3689744e-07
6.2014597e-07
6.0606215e-07
5.9157999e-07
5.782841e-07
5.6974715e-07
5.6082474e-07
5.5157303e-07
5.4219822e-07
5.3437781e-07
5.303481e-07
5.3054265e-07
5.3037037e-07
5.2982975e-07
3.172984e-06
2.4694854e-06
1.9840078e-06
1.7391164e-06
1.5547782e-06
1.4042752e-06
1.2447361e-06
1.1073877e-06
9.9852478e-07
9.1978732e-07
8.623203e-07
8.2473533e-07
7.9986391e-07
7.8381786e-07
7.7172001e-07
7.6393897e-07
7.5186442e-07
7.4167387e-07
7.307836e-07
7.1860655e-07
6.990799e-07
6.7940424e-07
6.646416e-07
6.5238484e-07
6.3211319e-07
6.1010704e-07
5.8816796e-07
5.7361635e-07
5.6252265e-07
5.5788717e-07
5.50454e-07
3.1622642e-06
2.4130366e-06
1.9539809e-06
1.734181e-06
1.6051601e-06
1.49399e-06
1.3425836e-06
1.1862175e-06
1.0500597e-06
9.4773789e-07
8.7278056e-07
8.2463865e-07
7.9654387e-07
7.8081817e-07
7.7250839e-07
7.716108e-07
7.7044759e-07
7.6755204e-07
7.6360015e-07
7.5922602e-07
7.4994639e-07
7.2965782e-07
7.1715952e-07
7.1033223e-07
6.9785205e-07
6.8055761e-07
6.6151785e-07
6.4963579e-07
6.3622775e-07
6.301658e-07
6.1790824e-07
3.1844467e-06
2.4666838e-06
1.9201948e-06
1.6639051e-06
1.5277522e-06
1.4210216e-06
1.3001854e-06
1.1708945e-06
1.0525379e-06
9.5498805e-07
8.7878046e-07
8.2239406e-07
7.816437e-07
7.5140477e-07
7.3267059e-07
7.2036664e-07
7.1391521e-07
7.0538724e-07
6.9870918e-07
6.965738e-07
6.9159477e-07
6.7542558e-07
6.6489092e-07
6.6487503e-07
6.6388324e-07
6.5862893e-07
6.4828147e-07
6.3812206e-07
6.310569e-07
6.2693573e-07
6.2664473e-07
3.1585346e-06
2.4631339e-06
1.9276055e-06
1.6326817e-06
1.4526252e-06
1.3217242e-06
1.2035577e-06
1.0979827e-06
1.0093989e-06
9.3229218e-07
8.6922086e-07
8.1700327e-07
7.7361056e-07
7.3709457e-07
7.0530202e-07
6.7918044e-07
6.5977326e-07
6.4163503e-07
6.2466817e-07
6.1353211e-07
6.0336366e-07
5.9146015e-07
5.8221624e-07
5.7518847e-07
5.7291629e-07
5.7088868e-07
5.694923e-07
5.6911883e-07
5.7031702e-07
5.7196149e-07
5.7813028e-07
3.1678984e-06
2.52869e-06
1.9929608e-06
1.6971542e-06
1.5116135e-06
1.3793803e-06
1.2526877e-06
1.1384277e-06
1.0429591e-06
9.6149803e-07
8.9843379e-07
8.4399351e-07
8.0264564e-07
7.6052679e-07
7.2807329e-07
6.9936032e-07
6.7208949e-07
6.4832993e-07
6.3007645e-07
6.2155673e-07
6.0777016e-07
5.8812944e-07
5.8141318e-07
5.8150324e-07
5.7926712e-07
5.7568964e-07
5.6913606e-07
5.5540035e-07
5.5101031e-07
5.525449e-07
5.5134307e-07
3.208299e-06
2.8466309e-06
2.4212019e-06
2.2048847e-06
2.0089959e-06
1.8871637e-06
1.756216e-06
1.6347281e-06
1.5218885e-06
1.4159596e-06
1.3237769e-06
1.2513184e-06
1.1892285e-06
1.1327138e-06
1.0895663e-06
1.0488473e-06
1.0002434e-06
9.5602094e-07
9.2598012e-07
9.1413986e-07
8.976828e-07
8.7411856e-07
9.0177051e-07
9.3091203e-07
9.1839177e-07
8.9318645e-07
8.400005e-07
7.7100104e-07
7.4729476e-07
7.4541865e-07
7.0684963e-07
4.4926819e-06
1.05709e-05
7.6373532e-06
8.0279143e-06
6.9915337e-06
6.7638347e-06
6.081177e-06
5.8125934e-06
5.3536596e-06
5.2821061e-06
4.805485e-06
4.8812387e-06
4.5683641e-06
4.3557488e-06
4.6604075e-06
4.2508504e-06
4.0208845e-06
3.8830119e-06
3.9750106e-06
4.1608046e-06
3.7879138e-06
3.6415021e-06
4.195467e-06
4.6806498e-06
4.3479481e-06
4.1514775e-06
3.5810044e-06
2.8989094e-06
2.8899817e-06
2.9924737e-06
2.8740076e-06
2.0278722e-05
8.3937565e-05
5.0256635e-05
3.9872869e-05
4.6532198e-05
3.7026319e-05
4.1962134e-05
3.4090573e-05
3.7605495e-05
3.0418472e-05
3.2629722e-05
2.7833385e-05
2.975702e-05
2.6069769e-05
2.5344399e-05
2.7029372e-05
2.2773429e-05
2.2759679e-05
2.0772917e-05
2.1471776e-05
2.0504129e-05
1.8619413e-05
1.7914983e-05
1.9992585e-05
1.9349922e-05
1.8399237e-05
1.9164234e-05
1.701188e-05
1.4196451e-05
1.4114406e-05
1.3081871e-05
1.1620358e-05
3.5515248e-06
8.3366641e-07
5.6299378e-07
5.7460393e-07
6.2100389e-07
6.2003674e-07
5.6282054e-07
5.3611723e-07
5.2911838e-07
5.2683853e-07
5.2727535e-07
5.2938069e-07
5.299871e-07
5.3119009e-07
5.3814718e-07
5.4873315e-07
5.5590848e-07
5.6323157e-07
5.7641714e-07
5.9323096e-07
6.1464348e-07
6.3689684e-07
1.2281556e-05
4.0812847e-06
1.0129463e-06
6.0224127e-07
5.7732624e-07
6.1868198e-07
6.2348249e-07
5.8245852e-07
5.4625742e-07
5.3442214e-07
5.3142466e-07
5.3229291e-07
5.3705733e-07
5.4077073e-07
5.4184951e-07
5.4725713e-07
5.5983767e-07
5.6821364e-07
5.7490172e-07
5.8874701e-07
6.0815575e-07
6.3135095e-07
6.4936285e-07
1.1462297e-05
3.8535533e-06
1.0365492e-06
6.1442603e-07
5.7811948e-07
6.0943756e-07
6.2182278e-07
5.9481615e-07
5.5803222e-07
5.4405982e-07
5.3984089e-07
5.4146168e-07
5.4662344e-07
5.4924584e-07
5.5180662e-07
5.5689066e-07
5.6941825e-07
5.82426e-07
5.9238421e-07
6.0612429e-07
6.216266e-07
6.5313652e-07
6.7276515e-07
9.3057561e-06
3.7274032e-06
1.0542854e-06
6.2117622e-07
5.7899988e-07
6.0099615e-07
6.2034149e-07
6.0390325e-07
5.6695165e-07
5.5191108e-07
5.5031045e-07
5.5379488e-07
5.6123726e-07
5.6583842e-07
5.6706015e-07
5.7090183e-07
5.8055521e-07
5.9482275e-07
6.0791881e-07
6.2340839e-07
6.3704954e-07
6.7037931e-07
6.9248796e-07
7.5420785e-06
3.7427879e-06
1.0907941e-06
6.2962994e-07
5.8325413e-07
6.0037247e-07
6.2247343e-07
6.1493852e-07
5.8671018e-07
5.6983425e-07
5.6485184e-07
5.6685047e-07
5.719964e-07
5.7817738e-07
5.8311924e-07
5.8889275e-07
6.0001985e-07
6.1665562e-07
6.2897103e-07
6.3916685e-07
6.4869902e-07
6.7380685e-07
7.0636652e-07
6.8804966e-06
3.7743224e-06
1.1637135e-06
6.4580736e-07
5.9060856e-07
6.0242466e-07
6.2993246e-07
6.2816734e-07
6.1045252e-07
5.8989205e-07
5.8200652e-07
5.8328634e-07
5.9044666e-07
5.9730416e-07
6.0197321e-07
6.0645881e-07
6.1379928e-07
6.3037654e-07
6.4878059e-07
6.6281512e-07
6.735727e-07
6.9466664e-07
7.3487709e-07
7.0626823e-06
3.8736773e-06
1.3289395e-06
6.8030075e-07
6.0531829e-07
6.1015982e-07
6.3857281e-07
6.4491747e-07
6.3567747e-07
6.1523578e-07
6.0189087e-07
5.991245e-07
6.0424554e-07
6.1557406e-07
6.2355658e-07
6.2834762e-07
6.325417e-07
6.4471688e-07
6.6501991e-07
6.8385423e-07
6.9690503e-07
7.213132e-07
7.4971715e-07
7.7865691e-06
4.0731953e-06
1.5551395e-06
7.5094156e-07
6.2711117e-07
6.2487729e-07
6.49213e-07
6.5875918e-07
6.5314791e-07
6.3396377e-07
6.2199202e-07
6.2098672e-07
6.2494714e-07
6.3706151e-07
6.4332159e-07
6.4533909e-07
6.4869216e-07
6.5826077e-07
6.8450365e-07
7.0789326e-07
7.2068134e-07
7.4324117e-07
7.6303398e-07
9.1323934e-06
4.1987331e-06
1.6975766e-06
8.1675406e-07
6.4417034e-07
6.3876414e-07
6.627584e-07
6.7107416e-07
6.6882315e-07
6.5431274e-07
6.4373408e-07
6.3961123e-07
6.412858e-07
6.5312703e-07
6.6379765e-07
6.6737482e-07
6.6954559e-07
6.7475952e-07
6.9380251e-07
7.2271807e-07
7.3935417e-07
7.6185086e-07
7.7767239e-07
1.1186577e-05
4.3054288e-06
1.7760416e-06
8.5949846e-07
6.5632118e-07
6.5050557e-07
6.7476677e-07
6.8516466e-07
6.8392274e-07
6.7338655e-07
6.6408443e-07
6.5721969e-07
6.5552107e-07
6.6356324e-07
6.7569191e-07
6.8117788e-07
6.8741744e-07
6.9542553e-07
7.0948395e-07
7.3754922e-07
7.6479939e-07
7.8630501e-07
7.9811865e-07
1.4049159e-05
4.4627515e-06
1.829881e-06
8.9116836e-07
6.6605599e-07
6.5768373e-07
6.8416021e-07
7.0075945e-07
7.007466e-07
6.9023942e-07
6.7480236e-07
6.696316e-07
6.6913236e-07
6.7712362e-07
6.9332719e-07
7.0168231e-07
7.0881574e-07
7.16917e-07
7.2932839e-07
7.5897591e-07
7.8677585e-07
8.1060824e-07
8.2256632e-07
1.7786686e-05
4.7068763e-06
1.880618e-06
9.1718391e-07
6.7370311e-07
6.5993245e-07
6.8789937e-07
7.104106e-07
7.1316365e-07
7.0595189e-07
6.915196e-07
6.8617438e-07
6.8765502e-07
6.9617347e-07
7.151741e-07
7.2491093e-07
7.2977604e-07
7.3679782e-07
7.5043959e-07
7.7831719e-07
8.015901e-07
8.2052571e-07
8.3138288e-07
2.2417922e-05
5.0218132e-06
1.9213058e-06
9.3560763e-07
6.7837435e-07
6.5883976e-07
6.8623584e-07
7.1622932e-07
7.2554423e-07
7.2271409e-07
7.1076958e-07
7.0455258e-07
7.0657464e-07
7.1439148e-07
7.3247726e-07
7.4310629e-07
7.473094e-07
7.5074429e-07
7.5956033e-07
7.8020321e-07
8.0832561e-07
8.3510752e-07
8.5300052e-07
2.7818813e-05
5.3424808e-06
1.9511342e-06
9.4775571e-07
6.8128306e-07
6.5686975e-07
6.8375594e-07
7.2452562e-07
7.3482802e-07
7.3425524e-07
7.2523503e-07
7.1824009e-07
7.1869435e-07
7.2465101e-07
7.4042103e-07
7.5047957e-07
7.576366e-07
7.6239567e-07
7.6850279e-07
7.8265498e-07
8.1374334e-07
8.57717e-07
8.8643065e-07
3.3719841e-05
5.7092781e-06
1.9894115e-06
9.6261388e-07
6.857173e-07
6.5694763e-07
6.8572164e-07
7.3130097e-07
7.4172034e-07
7.3997958e-07
7.3137126e-07
7.2876743e-07
7.320783e-07
7.3629655e-07
7.469323e-07
7.5563412e-07
7.6283393e-07
7.7191293e-07
7.8140885e-07
7.9701708e-07
8.3286842e-07
8.7828911e-07
9.0143888e-07
3.9691796e-05
6.28382e-06
2.057146e-06
9.8962247e-07
6.9650367e-07
6.6154923e-07
6.9075814e-07
7.3829167e-07
7.4979274e-07
7.4850461e-07
7.3966185e-07
7.3795139e-07
7.4362558e-07
7.5022399e-07
7.5914101e-07
7.6604879e-07
7.703354e-07
7.7881711e-07
7.9146053e-07
8.1429947e-07
8.5191264e-07
8.8321746e-07
9.0503925e-07
4.5360138e-05
7.269766e-06
2.1638185e-06
1.0197028e-06
7.101596e-07
6.6547928e-07
6.9587912e-07
7.4668246e-07
7.5970895e-07
7.5457016e-07
7.4495081e-07
7.43008e-07
7.5122007e-07
7.5975047e-07
7.7165255e-07
7.7609565e-07
7.7604893e-07
7.8062812e-07
7.9323297e-07
8.1837141e-07
8.5547454e-07
8.9638411e-07
9.2067469e-07
4.8471933e-05
7.8996127e-06
2.2515177e-06
1.0299357e-06
7.1414769e-07
6.6660808e-07
6.9884029e-07
7.5073966e-07
7.6242497e-07
7.5503025e-07
7.4635382e-07
7.4657801e-07
7.555949e-07
7.6476036e-07
7.746335e-07
7.7744725e-07
7.7827431e-07
7.8494787e-07
7.9965706e-07
8.2846294e-07
8.6673884e-07
9.0855145e-07
9.3196943e-07
5.3712667e-05
8.3318474e-06
2.2732111e-06
1.021417e-06
7.10005e-07
6.658814e-07
7.0156953e-07
7.5278747e-07
7.6350062e-07
7.5376698e-07
7.4601041e-07
7.4943812e-07
7.6102282e-07
7.7036557e-07
7.7652755e-07
7.788685e-07
7.8597167e-07
8.0033882e-07
8.1681314e-07
8.3529038e-07
8.7222709e-07
9.1562345e-07
9.4227661e-07
5.8330682e-05
8.7275358e-06
2.2550785e-06
1.0019379e-06
7.0380732e-07
6.6371537e-07
7.0425987e-07
7.5493046e-07
7.6234481e-07
7.492006e-07
7.4409101e-07
7.5052359e-07
7.670472e-07
7.7894251e-07
7.81554e-07
7.8254375e-07
7.9174056e-07
8.0986218e-07
8.2943926e-07
8.53422e-07
8.9193314e-07
9.2389377e-07
9.459941e-07
6.1573742e-05
9.1602815e-06
2.2377876e-06
9.790937e-07
6.9640772e-07
6.6447899e-07
7.1099601e-07
7.5835598e-07
7.6058898e-07
7.4397102e-07
7.3974312e-07
7.5090459e-07
7.7320685e-07
7.8633775e-07
7.8657597e-07
7.8584131e-07
7.9619396e-07
8.2030588e-07
8.4460658e-07
8.7332486e-07
9.06867e-07
9.3373894e-07
9.5594434e-07
6.3494215e-05
9.5273043e-06
2.1958837e-06
9.5157846e-07
6.9200861e-07
6.6778858e-07
7.228218e-07
7.6127352e-07
7.5844531e-07
7.4054888e-07
7.3819493e-07
7.5461907e-07
7.8296701e-07
7.9173867e-07
7.8882588e-07
7.8757407e-07
8.0001661e-07
8.259526e-07
8.5868621e-07
8.9447571e-07
9.3210623e-07
9.5271812e-07
9.7065886e-07
6.4934089e-05
9.6803157e-06
2.1356262e-06
9.2405942e-07
6.9014822e-07
6.7398608e-07
7.4031404e-07
7.6588804e-07
7.5347447e-07
7.3755228e-07
7.4037083e-07
7.6864388e-07
7.9305184e-07
7.9522186e-07
7.887804e-07
7.8903229e-07
8.071456e-07
8.4600135e-07
8.8191907e-07
9.2111558e-07
9.4789957e-07
9.6028982e-07
9.8769241e-07
6.5308136e-05
9.3250502e-06
2.0163556e-06
8.8701375e-07
6.8932294e-07
6.8746298e-07
7.531155e-07
7.6533576e-07
7.4621116e-07
7.3692464e-07
7.4881091e-07
7.8697481e-07
7.9965929e-07
7.9589007e-07
7.8881238e-07
7.9354818e-07
8.2596962e-07
8.6047385e-07
8.9622792e-07
9.3278238e-07
9.5804562e-07
9.7708774e-07
1.0262019e-06
6.5222378e-05
8.7727787e-06
1.8750295e-06
8.4864877e-07
6.8983633e-07
6.944852e-07
7.5675148e-07
7.5959325e-07
7.4018028e-07
7.3800109e-07
7.6505467e-07
7.9900274e-07
8.0406772e-07
7.948757e-07
7.9039513e-07
8.0273543e-07
8.401507e-07
8.8762278e-07
9.2906093e-07
9.5890096e-07
9.7554072e-07
1.0062238e-06
1.0695327e-06
6.464316e-05
8.2870123e-06
1.7281236e-06
8.1161289e-07
6.9082357e-07
7.0980555e-07
7.5362812e-07
7.515103e-07
7.3703737e-07
7.4294255e-07
7.8564056e-07
8.0368698e-07
8.0399204e-07
7.9616088e-07
7.9556773e-07
8.2523607e-07
8.8101034e-07
9.2643904e-07
9.5353946e-07
9.7030274e-07
9.9663335e-07
1.0555333e-06
1.1808045e-06
6.370143e-05
7.6627633e-06
1.5629061e-06
7.8068103e-07
6.911219e-07
7.1833034e-07
7.5202821e-07
7.4704616e-07
7.3937961e-07
7.5863522e-07
7.9865017e-07
8.0809215e-07
8.0518832e-07
8.0014026e-07
8.1266595e-07
8.5860587e-07
9.137534e-07
9.4205562e-07
9.656459e-07
1.0003829e-06
1.0696727e-06
1.1844895e-06
1.3172522e-06
6.241258e-05
7.0578335e-06
1.4348734e-06
7.5647267e-07
6.9403548e-07
7.3497284e-07
7.5535511e-07
7.4499132e-07
7.4337655e-07
7.7242871e-07
8.0657866e-07
8.1083908e-07
8.0668611e-07
8.0523468e-07
8.304644e-07
8.9306885e-07
9.3839574e-07
9.6123387e-07
9.9738034e-07
1.0599145e-06
1.1460047e-06
1.2773767e-06
1.4242984e-06
6.1043986e-05
6.7820319e-06
1.3254275e-06
7.464681e-07
7.0652331e-07
7.492115e-07
7.5756085e-07
7.4705107e-07
7.5260058e-07
7.9661217e-07
8.1159893e-07
8.110509e-07
8.1062525e-07
8.2518448e-07
8.7411289e-07
9.3452725e-07
9.6027568e-07
9.8300576e-07
1.0360712e-06
1.1122396e-06
1.2575118e-06
1.4300793e-06
1.5307928e-06
5.9537916e-05
6.2846185e-06
1.2352789e-06
7.394618e-07
7.209603e-07
7.5863978e-07
7.6197458e-07
7.5458367e-07
7.743932e-07
8.0356658e-07
8.1011841e-07
8.1323095e-07
8.2157585e-07
8.5251879e-07
9.2256954e-07
9.5797056e-07
9.8256455e-07
1.026056e-06
1.0966114e-06
1.2452725e-06
1.419711e-06
1.5169003e-06
1.6775218e-06
5.7752362e-05
5.6428758e-06
1.1335915e-06
7.3811744e-07
7.2963575e-07
7.6665565e-07
7.6722428e-07
7.6548154e-07
7.9602781e-07
8.1397406e-07
8.1695704e-07
8.2259226e-07
8.5266212e-07
9.1636527e-07
9.6825007e-07
9.9207788e-07
1.0280474e-06
1.097563e-06
1.2483096e-06
1.4056957e-06
1.5036356e-06
1.6646891e-06
2.0084094e-06
5.6140784e-05
5.3329408e-06
1.0720881e-06
7.409055e-07
7.3854181e-07
7.6595108e-07
7.6932479e-07
7.7724277e-07
8.1182573e-07
8.2158296e-07
8.242875e-07
8.3512372e-07
8.7587284e-07
9.4664204e-07
9.9104661e-07
1.0222421e-06
1.0919332e-06
1.2474029e-06
1.3936094e-06
1.4916397e-06
1.6683442e-06
2.0419492e-06
2.9680226e-06
5.4301376e-05
4.7430988e-06
9.9081092e-07
7.4335339e-07
7.4765466e-07
7.7345044e-07
7.8160138e-07
8.0252345e-07
8.279856e-07
8.3568643e-07
8.4604808e-07
8.7871176e-07
9.3663932e-07
9.9976873e-07
1.0420125e-06
1.1134331e-06
1.2493412e-06
1.3903238e-06
1.50297e-06
1.6960235e-06
2.1232965e-06
3.230829e-06
6.4216206e-06
5.2323542e-05
4.6214765e-06
9.7706389e-07
7.5198165e-07
7.5480388e-07
7.7748065e-07
7.8840427e-07
8.1788756e-07
8.3658631e-07
8.4530765e-07
8.6342092e-07
9.0533845e-07
9.6452462e-07
1.0246815e-06
1.0792993e-06
1.1769046e-06
1.3263155e-06
1.4875204e-06
1.7158409e-06
2.2740482e-06
3.847003e-06
8.4655152e-06
2.2007734e-05
5.0422798e-05
3.8753242e-06
9.0093743e-07
7.5449544e-07
7.6527322e-07
7.9421471e-07
8.1164143e-07
8.3910336e-07
8.532387e-07
8.7240876e-07
9.1433937e-07
9.7854206e-07
1.0403187e-06
1.1139298e-06
1.2431363e-06
1.5061157e-06
2.0506785e-06
3.2555105e-06
6.1401491e-06
1.302564e-05
2.9126364e-05
6.598631e-05
0.00014819914
5.0375854e-05
4.2854553e-06
9.2667981e-07
7.5434301e-07
7.6328656e-07
7.9544162e-07
8.1637628e-07
8.4588139e-07
8.5600023e-07
8.7213696e-07
9.2202039e-07
1.0060454e-06
1.0807102e-06
1.1711685e-06
1.3768363e-06
1.8471416e-06
2.9435072e-06
5.7192393e-06
1.2683377e-05
2.9219065e-05
6.6058078e-05
0.0001392952
0.00023569948
4.9982763e-05
5.1297947e-06
9.9789797e-07
7.5874294e-07
7.6016858e-07
7.8986922e-07
8.1439527e-07
8.4815176e-07
8.6112179e-07
8.7566154e-07
9.2201929e-07
1.0085866e-06
1.1103457e-06
1.2064608e-06
1.4385236e-06
2.0071804e-06
3.3996947e-06
7.151047e-06
1.7045906e-05
4.1614192e-05
0.00010010161
0.00023795901
0.00062787711
4.9143957e-05
6.202433e-06
1.1114972e-06
7.6578887e-07
7.5921784e-07
7.8758755e-07
8.1302235e-07
8.4823364e-07
8.6412415e-07
8.8092032e-07
9.2769425e-07
1.0185099e-06
1.1500894e-06
1.3160421e-06
1.5948421e-06
2.3250476e-06
4.2714587e-06
9.8776939e-06
2.5702854e-05
6.8362889e-05
0.00018274378
0.00051047466
0.0009110303
4.7707874e-05
7.1244028e-06
1.2155383e-06
7.7550754e-07
7.5981067e-07
7.8774525e-07
8.1612542e-07
8.5177734e-07
8.6729557e-07
8.8253182e-07
9.2832111e-07
1.0240037e-06
1.168432e-06
1.413391e-06
1.9544497e-06
3.2616532e-06
6.7690851e-06
1.7404412e-05
4.8813106e-05
0.00013719358
0.00036644929
0.00075995408
0.00097303086
4.5645324e-05
8.3277629e-06
1.3747659e-06
7.932253e-07
7.6366752e-07
7.8980712e-07
8.2276843e-07
8.6111477e-07
8.7485355e-07
8.8691771e-07
9.2733937e-07
1.0221091e-06
1.1701118e-06
1.4307573e-06
2.0744453e-06
3.864491e-06
9.1313841e-06
2.613007e-05
8.1037178e-05
0.00023607229
0.00055816889
0.00088447174
0.00099535354
4.3047292e-05
9.9492865e-06
1.7259965e-06
8.3302804e-07
7.7078835e-07
7.9430681e-07
8.2964402e-07
8.7206031e-07
8.8765847e-07
8.9752512e-07
9.2926245e-07
1.0090956e-06
1.1483297e-06
1.4161547e-06
2.0610635e-06
3.8720111e-06
9.2381215e-06
2.6429096e-05
8.3258188e-05
0.00025084254
0.00060613584
0.0009303769
0.0010106748
3.9547442e-05
1.1421855e-05
2.0417157e-06
8.8925318e-07
7.8471345e-07
8.0090508e-07
8.3805176e-07
8.8542913e-07
9.1429999e-07
9.223288e-07
9.4247718e-07
1.0071369e-06
1.1156187e-06
1.3464543e-06
1.9341675e-06
3.6247554e-06
8.6927345e-06
2.4731319e-05
7.7297327e-05
0.00023644589
0.00058872075
0.00093348144
0.0010332626
3.5176558e-05
1.264229e-05
2.4800729e-06
9.8247613e-07
8.0771448e-07
8.1431712e-07
8.467754e-07
9.077867e-07
9.4283646e-07
9.5968185e-07
9.7486008e-07
1.016109e-06
1.1116802e-06
1.2625038e-06
1.6478504e-06
2.8503621e-06
6.8114441e-06
1.9533398e-05
5.9582747e-05
0.00018697468
0.00051341699
0.0008992274
0.0010878758
3.0298328e-05
1.4000408e-05
3.4485919e-06
1.2271376e-06
8.6440205e-07
8.4698865e-07
8.6725082e-07
9.2650889e-07
9.6412569e-07
9.8447644e-07
1.0044603e-06
1.0367005e-06
1.1154665e-06
1.2328925e-06
1.4653237e-06
2.1097721e-06
4.2378239e-06
1.1433404e-05
3.4432981e-05
0.00010485439
0.00031343021
0.00075727022
0.0010770377
2.5240866e-05
1.4793325e-05
4.1259637e-06
1.4819385e-06
9.389236e-07
8.9283637e-07
9.0242758e-07
9.5777068e-07
1.0080645e-06
1.0256227e-06
1.0406741e-06
1.066158e-06
1.1256148e-06
1.232933e-06
1.3791538e-06
1.7157115e-06
2.6987431e-06
5.9997419e-06
1.68725e-05
5.0074458e-05
0.00014550577
0.00040144141
0.0007727414
2.0319518e-05
1.4806612e-05
4.7153226e-06
1.758283e-06
1.0448483e-06
9.3732601e-07
9.5526803e-07
1.0007905e-06
1.0787302e-06
1.1076517e-06
1.1219527e-06
1.1337805e-06
1.1602127e-06
1.2389515e-06
1.3599029e-06
1.5398206e-06
1.9838594e-06
3.3208881e-06
7.6745791e-06
2.1296996e-05
6.036523e-05
0.00016417865
0.00041637277
1.6570937e-05
1.4331984e-05
6.2367741e-06
2.4093309e-06
1.2791118e-06
1.0188909e-06
1.003251e-06
1.0363511e-06
1.1127373e-06
1.1744562e-06
1.2056218e-06
1.2275317e-06
1.2448414e-06
1.2762173e-06
1.3617576e-06
1.4986003e-06
1.7141085e-06
2.2567061e-06
3.8575597e-06
8.7863395e-06
2.3290188e-05
6.2202982e-05
0.0001924432
1.4873747e-05
1.3871859e-05
9.4997496e-06
4.4554804e-06
1.9899495e-06
1.2213548e-06
1.0721348e-06
1.0717549e-06
1.1202657e-06
1.1931319e-06
1.2408752e-06
1.2771737e-06
1.298757e-06
1.3237626e-06
1.3758773e-06
1.4843936e-06
1.6367741e-06
1.8750848e-06
2.4608635e-06
4.1112474e-06
8.9431321e-06
2.2356469e-05
8.3258318e-05
1.5046544e-05
1.389007e-05
1.1189727e-05
6.3640841e-06
3.4876699e-06
1.8285979e-06
1.2620312e-06
1.145816e-06
1.1511154e-06
1.2012926e-06
1.2539052e-06
1.2963407e-06
1.3315547e-06
1.3552184e-06
1.3957358e-06
1.482367e-06
1.5937052e-06
1.731416e-06
1.973115e-06
2.5348677e-06
4.0330171e-06
8.2543637e-06
3.4510172e-05
1.4965945e-05
1.3253105e-05
1.1419942e-05
7.1272797e-06
4.4680629e-06
2.8462006e-06
1.8533799e-06
1.4096162e-06
1.2561393e-06
1.2431787e-06
1.2755703e-06
1.3244913e-06
1.3730038e-06
1.4067716e-06
1.4356235e-06
1.4903292e-06
1.573715e-06
1.6817745e-06
1.8187105e-06
2.0381747e-06
2.5287945e-06
3.7976929e-06
1.3693874e-05
1.4299418e-05
1.0791913e-05
1.0928495e-05
7.1620066e-06
4.7975085e-06
3.4441106e-06
2.4477419e-06
1.830395e-06
1.5040869e-06
1.368203e-06
1.350753e-06
1.3684606e-06
1.4053404e-06
1.4376824e-06
1.4828001e-06
1.5138455e-06
1.5775083e-06
1.6618081e-06
1.7559789e-06
1.8955808e-06
2.078286e-06
2.4801974e-06
5.8484531e-06
1.2934452e-05
8.0481878e-06
8.5627835e-06
6.5854095e-06
4.7938806e-06
3.6318393e-06
2.6788885e-06
2.0247733e-06
1.6457861e-06
1.4619009e-06
1.4110326e-06
1.414162e-06
1.434617e-06
1.4629655e-06
1.5095837e-06
1.5417889e-06
1.5873909e-06
1.6538587e-06
1.7376823e-06
1.8319748e-06
1.9487218e-06
2.1010234e-06
3.2323176e-06
1.1837249e-05
6.9720397e-06
6.5909009e-06
5.6298083e-06
4.7309979e-06
3.7784005e-06
2.9039496e-06
2.2401359e-06
1.8289804e-06
1.6066239e-06
1.5163922e-06
1.494476e-06
1.4994994e-06
1.515513e-06
1.5522034e-06
1.5869232e-06
1.6196138e-06
1.6632587e-06
1.740496e-06
1.8142119e-06
1.9182665e-06
2.0012273e-06
2.4311613e-06
1.1250522e-05
6.7991816e-06
6.3306477e-06
5.6847668e-06
5.0696982e-06
4.4075244e-06
3.5901438e-06
2.815198e-06
2.2976479e-06
1.9752494e-06
1.795286e-06
1.7161582e-06
1.6804589e-06
1.663741e-06
1.6696002e-06
1.6887226e-06
1.7061688e-06
1.7247231e-06
1.7723703e-06
1.8277933e-06
1.9209314e-06
1.9833239e-06
2.1976506e-06
9.6522125e-06
6.9259407e-06
6.9340845e-06
7.6071889e-06
8.0741713e-06
7.9802528e-06
6.6519274e-06
4.9239431e-06
3.832592e-06
3.1403619e-06
2.6911943e-06
2.4622917e-06
2.2796863e-06
2.1686576e-06
2.0611014e-06
2.011256e-06
1.9635007e-06
1.9356681e-06
1.9227859e-06
1.9364016e-06
1.9788924e-06
2.0235164e-06
2.1883035e-06
9.961643e-06
7.8591679e-06
8.5751274e-06
1.0449634e-05
1.3383239e-05
1.5053299e-05
1.4202929e-05
1.1812193e-05
9.2981031e-06
7.3244754e-06
5.814267e-06
4.9754174e-06
4.3051621e-06
3.95407e-06
3.4824826e-06
3.2526205e-06
2.9212255e-06
2.7588687e-06
2.5360487e-06
2.4421911e-06
2.3325687e-06
2.3181992e-06
2.2973885e-06
1.7775702e-05
9.4615404e-06
9.7880597e-06
1.1802245e-05
1.5632889e-05
1.8575647e-05
1.9303609e-05
1.8418787e-05
1.6888006e-05
1.5314382e-05
1.3718947e-05
1.1846078e-05
1.0129663e-05
9.0671976e-06
7.9755265e-06
7.4311198e-06
6.4888617e-06
6.1593206e-06
5.2352148e-06
4.8673845e-06
4.0890903e-06
3.8547781e-06
3.1492495e-06
1.4646354e-05
1.0036295e-05
1.0580426e-05
1.2334293e-05
1.5977632e-05
1.9353313e-05
2.1208756e-05
2.1744063e-05
2.1420396e-05
2.0857264e-05
2.0106398e-05
1.8982565e-05
1.7434236e-05
1.575672e-05
1.4363159e-05
1.3104546e-05
1.2076736e-05
1.1302133e-05
1.0486569e-05
9.8532007e-06
8.8782584e-06
8.3705446e-06
7.0586029e-06
2.4905074e-05
1.1333139e-05
1.1274679e-05
1.255081e-05
1.5414219e-05
1.8950547e-05
2.1245616e-05
2.2493835e-05
2.3102534e-05
2.3182306e-05
2.3031377e-05
2.266409e-05
2.1928141e-05
2.0462632e-05
1.8920262e-05
1.7089494e-05
1.5769874e-05
1.4181184e-05
1.3307431e-05
1.200168e-05
1.1390825e-05
1.0060154e-05
9.3273193e-06
2.5984736e-05
1.6421928e-05
1.2990324e-05
1.3279223e-05
1.4680814e-05
1.7219447e-05
2.0214007e-05
2.1966826e-05
2.2979777e-05
2.3393597e-05
2.3358672e-05
2.3199876e-05
2.2781208e-05
2.1724248e-05
2.019796e-05
1.8203311e-05
1.6725188e-05
1.484642e-05
1.3815582e-05
1.2164007e-05
1.1487657e-05
9.8338973e-06
9.9506916e-06
6.1421947e-05