/*--------------------------------*- C++ -*----------------------------------*\
| =========                 |                                                 |
| \\      /  F ield         | OpenFOAM: The Open Source CFD Toolbox           |
|  \\    /   O peration     | Version:  2406                                  |
|   \\  /    A nd           | Website:  www.openfoam.com                      |
|    \\/     M anipulation  |                                                 |
\*---------------------------------------------------------------------------*/
FoamFile
{
    version     2.0;
    format      ascii;
    arch        "LSB;label=32;scalar=64";
    class       volScalarField;
    location    "40";
    object      p_0;
}
// * * * * * * * * * * * * * * * * * * * * * * * * * * * * * * * * * * * * * //

dimensions      [1 -1 -2 0 0 0 0];

internalField   nonuniform List<scalar> 
20580
(
1.0019245
1.003567
1.0048296
1.0058034
1.007032
1.0058664
1.006902
1.0061008
1.0047191
1.0035761
1.0041225
1.0026131
1.0021921
1.0007324
1.0012028
1.0012454
1.0000256
0.99972772
1.0011956
0.99795945
1.0004853
1.0020656
1.0003215
0.99878227
1.0025448
1.0025479
0.99818165
0.99598613
0.99890856
0.99770927
0.99945276
1.0013963
1.0030423
1.0048268
1.0053833
1.0075552
1.0052977
1.0071171
1.0057999
1.0048088
1.0031437
1.0037737
1.0029837
1.0027734
1.0011291
1.0014852
1.0009163
0.99936537
1.0006479
1.0009554
0.9972709
1.0014578
1.0008755
0.99981364
1.0006711
1.0037353
1.0005909
0.99566819
0.99533569
1.000654
1.0006535
0.99961462
1.0019929
1.0036653
1.0051744
1.0048122
1.0069556
1.0046676
1.0061934
1.0047262
1.0046021
1.0033264
1.0027493
1.0028889
1.0027257
1.0017466
1.0016383
1.0007651
0.99901764
1.0007934
1.0005173
0.99771064
1.002151
0.99927646
0.99756006
1.0001794
1.003588
0.99941464
0.99432924
0.99671297
1.0018822
1.0009127
0.9988791
1.0033868
1.005099
1.0054571
1.0044968
1.0055595
1.0043663
1.00476
1.0037372
1.004173
1.0040362
1.0020728
1.0025128
1.0019701
1.0020283
1.0018024
1.0013015
0.99988575
1.0011954
1.0001777
0.99910746
1.0025496
0.99877155
0.99674615
0.99887306
1.0011343
0.99860053
0.99462279
0.9983497
1.0038945
1.000607
0.99589646
1.0050961
1.0067006
1.0052246
1.0045797
1.0040826
1.0046171
1.0036581
1.0036963
1.0038361
1.0044634
1.0023314
1.0023838
1.0012595
1.0019098
1.0018106
1.0014787
1.0008307
1.0018822
0.99938473
1.0001503
1.0022178
0.99884805
0.99947032
1.0001285
0.99819967
0.99760312
0.99776875
0.99980783
1.0047977
1.0019794
0.99613546
1.0064494
1.0077915
1.0043984
1.005024
1.0031589
1.0053129
1.0034795
1.0046695
1.0039342
1.0041292
1.0033002
1.0027324
1.0015432
1.0020259
1.0016471
1.0010169
1.0010447
1.0021147
0.99888525
1.000931
1.0013713
0.99715393
1.0013688
1.002927
0.99694833
0.99648
1.0015357
1.0010737
1.0010425
1.0011268
0.99979532
1.0066944
1.0078118
1.0034698
1.0055529
1.0032873
1.00608
1.0042088
1.0057501
1.0043172
1.0033426
1.0041817
1.0031378
1.0025016
1.0027184
1.0016954
1.0003302
1.0006572
1.0011216
0.99891773
1.0013692
1.0004002
0.99559046
1.001501
1.0036985
0.99785157
0.99622518
1.0037513
1.0041826
0.99714977
0.99637215
0.99880834
1.00564
1.0067372
1.0031405
1.00571
1.0044404
1.0064072
1.0053299
1.0058645
1.004496
1.0027556
1.0043507
1.0031766
1.0031921
1.0029028
1.0015432
1.0001829
1.001217
1.0002198
0.99975555
1.0018845
0.99998249
0.99676882
1.0014131
1.0016199
0.99896006
0.99751766
1.0020555
1.0055504
0.99696494
0.99336147
0.99445633
1.003996
1.0051213
1.0037775
1.0053425
1.0058986
1.0059724
1.006189
1.0048562
1.0042296
1.0030754
1.0036723
1.0028681
1.0029767
1.0022441
1.001075
1.0011546
1.0024869
1.0003251
1.0009403
1.0024204
1.0000756
1.0001862
1.0030122
1.000123
0.99917797
1.0001569
0.9996351
1.0022361
0.99869372
0.99616305
0.99560144
1.002456
1.0037411
1.005224
1.0047449
1.0068703
1.005018
1.0062849
1.0036813
1.0038355
1.0042323
1.0028132
1.0024068
1.0023344
1.0014237
1.0009948
1.001937
1.0026327
1.0007399
1.0018709
1.0019961
0.99915802
1.0027976
1.0038185
0.9996691
0.99896799
1.0026528
1.0002575
0.9980227
0.99778326
0.99926615
0.9991718
1.0015842
1.0032721
1.0066299
1.0042445
1.0069499
1.0040399
1.0055965
1.0033683
1.0038147
1.0051615
1.0025632
1.0022735
1.0021707
1.0013617
1.0017611
1.0023649
1.0016181
1.0007029
1.002471
1.0009989
0.99797305
1.0035115
1.0014418
0.99809345
0.99910292
1.0024941
1.0017075
0.99680164
0.99648776
0.99932763
1.000029
1.0018273
1.0038475
1.0070551
1.0041981
1.0060664
1.0034902
1.0045774
1.004206
1.0043388
1.0049965
1.0028797
1.0028527
1.0027145
1.0019847
1.0029703
1.0026834
1.0006462
0.99993243
1.0030827
1.0005384
0.99764439
1.0035559
0.99920603
0.99563802
0.99967796
1.0010536
1.001969
0.99757414
0.99800533
1.0003418
1.0015132
1.003293
1.0051598
1.0059791
1.0046022
1.0046844
1.0037966
1.003824
1.0053589
1.0050376
1.0037783
1.0032482
1.0034353
1.003289
1.0024988
1.0034302
1.0024083
1.0008736
0.99974248
1.0030385
1.0007056
0.99899244
1.0041343
1.000348
0.99515386
1.0010984
1.0018233
1.0009129
0.99710456
0.99877487
1.0020121
1.0036336
1.0051255
1.0066818
1.0038788
1.005187
1.0035927
1.0049165
1.0038136
1.0057034
1.005241
1.0026537
1.0035019
1.0035408
1.0031431
1.0026784
1.0026751
1.001702
1.0016637
1.0010643
1.0020626
1.0011454
1.0008454
1.0037707
1.002236
0.99793184
1.0023829
1.0035645
1.0000458
0.99710945
0.99890811
1.001182
1.003106
1.0063687
1.0075201
1.0019505
1.0057234
1.0032877
1.0060092
1.0044786
1.0049724
1.0044969
1.0025497
1.0037191
1.0032768
1.0024693
1.0025572
1.0017274
1.0012556
1.0018333
1.00289
1.0011888
1.0011917
1.0016262
1.0019522
1.0011335
1.0012768
1.0023903
1.0032209
1.0002677
0.99954382
1.0007583
0.99974189
1.0001101
1.0063971
1.0071904
1.0013872
1.005697
1.0037512
1.00647
1.0053764
1.0038027
1.0031889
1.0033835
1.0038503
1.0030453
1.0024252
1.0025325
1.0016484
1.0016943
1.0013428
1.0035535
1.0005803
1.0010663
1.0027113
1.0006839
0.99775563
1.0028561
1.0031825
1.000932
0.99936884
1.0016504
1.0030972
1.000188
0.99875912
1.0050975
1.006062
1.0027857
1.005109
1.0047561
1.0062654
1.0058294
1.0032459
1.0024163
1.004416
1.0036698
1.0030017
1.0028275
1.0029484
1.0019427
1.0023289
1.0007311
1.0031623
0.99982623
1.0009853
1.0036695
1.0007993
0.9960231
1.002743
1.0042914
0.99904155
0.99741543
1.0015321
1.0040763
1.0014494
1.0000634
1.0033132
1.004561
1.0054616
1.0046252
1.0058611
1.004905
1.0052905
1.0037775
1.0030744
1.0048428
1.0033864
1.003154
1.0029248
1.0031984
1.0020134
1.0025388
1.0009075
1.0028306
0.99959887
1.0011876
1.0037666
1.0014692
0.99773609
1.0027038
1.0043561
0.99910425
0.99726866
1.0005107
1.002772
1.0010907
1.0002095
1.0017691
1.0036223
1.0077867
1.0043519
1.0064115
1.0033454
1.004464
1.0048266
1.0048119
1.0043859
1.0034353
1.0033253
1.0028358
1.0029167
1.0018784
1.002338
1.0018857
1.0028805
1.0002925
1.0014771
1.0036714
1.000801
1.0002742
1.0032589
1.0037656
0.99955596
0.99836833
1.0003712
1.0010673
1.000667
1.0002091
1.0016473
1.0036054
1.0081004
1.004213
1.0061386
1.0028722
1.00388
1.0055153
1.0062407
1.0036181
1.0036772
1.0031742
1.0026204
1.0027083
1.0019971
1.0022143
1.0029153
1.0030667
1.0016721
1.0019949
1.0032871
0.99911433
1.0013539
1.0032712
1.0025578
0.99915292
0.999695
1.0012727
1.0005508
1.0012056
1.0015062
1.003002
1.0045924
1.0062349
1.0047385
1.0053908
1.0035037
1.0039347
1.0052853
1.006129
1.003239
1.0037306
1.0028467
1.0025488
1.0025057
1.0024898
1.0022851
1.0034796
1.002384
1.0027983
1.0019548
1.0023371
0.99907401
1.0018874
1.0021927
1.0007876
0.99933638
1.0013394
1.0023912
1.0000471
1.0007765
1.0011593
1.0049876
1.0061329
1.0029643
1.0053492
1.0042624
1.0051068
1.00487
1.0043728
1.0039523
1.0035366
1.0034855
1.0030337
1.0031926
1.0022951
1.0029716
1.0021076
1.0030656
1.0003734
1.0029757
1.0021571
1.0002048
1.0006827
1.0032891
1.0018246
0.9992048
1.0002393
1.0029845
1.0027128
0.99947761
0.99973335
0.9986101
1.0060977
1.0072423
1.0010694
1.0054602
1.0033785
1.0068939
1.0055317
1.0034315
1.0018427
1.0042026
1.0032801
1.0035401
1.003967
1.0023792
1.0031415
1.0017469
1.0023928
0.99907435
1.0024681
1.0024463
0.99869188
1.0021675
1.0044094
1.0020405
0.9981002
1.0001803
1.0039802
1.0032393
1.0001654
0.99997356
0.99611859
1.0003232
1.0017537
1.0007066
0.99836552
0.99768395
0.99869748
0.99810533
0.99592384
0.99734748
1.001904
1.002693
0.99959564
1.000283
1.0025272
0.99966121
0.99926071
1.0025023
0.99823343
0.99065274
0.99087176
0.99604215
0.9989482
1.0017555
1.0026708
1.000756
0.99797675
0.99848123
1.0017214
1.0031097
1.0003213
0.99731173
0.99848124
0.99975184
0.99658266
0.99347999
0.99662679
1.0012237
1.001009
0.99952449
1.0003631
0.9991982
0.99764125
0.99931523
0.99976646
0.99753508
0.99462911
0.99840838
0.99762945
0.99871576
1.0011607
1.0023472
1.000928
0.99918183
0.99963693
1.0008958
0.99910203
0.99562218
0.9955692
0.99844553
0.99956769
0.99774001
0.99582013
0.99539406
0.99558307
0.99851828
1.0038724
1.0051855
1.0008151
0.99322018
0.99569479
0.99752106
0.99985953
1.0008869
1.0002947
0.99961473
0.99940378
0.99842965
0.9967213
0.99692398
1.0004066
1.0040927
1.0029198
0.99761986
0.99385602
0.99399988
0.99587468
0.99641083
0.99677835
0.99841127
0.99818311
0.99626557
0.99396147
1.0009702
1.0001719
0.9983267
0.99706435
0.99737393
0.99871676
0.99906964
0.99741312
0.99597546
0.99777049
1.0013
1.0022653
0.99904459
0.99510078
0.99455338
0.99760255
1.0007829
1.0005101
0.99774709
0.9942628
0.99030371
0.98891795
0.99108655
1.0033954
1.0005379
0.99690445
0.99522334
0.99585948
0.99756344
0.99867159
0.99879856
0.99898473
0.99918763
0.99800671
0.99521185
0.99292789
0.99360549
0.99741649
1.001733
1.0027682
1.0002411
0.99702343
0.9942705
0.99204996
0.99222274
0.99344744
0.99866171
0.99725248
0.99681344
0.99764039
0.99903848
0.9999313
1.0000015
0.99959196
0.99899624
0.99758437
0.99518457
0.99296681
0.99322434
0.99624239
0.99970043
1.0011712
0.99914261
0.99528225
0.99240916
0.99247816
0.99525259
0.99895129
1.0004986
0.99408342
0.99549962
0.99795648
0.99997471
1.0005226
0.99951038
0.99770892
0.99618709
0.99545604
0.99533379
0.99571175
0.99678379
0.998302
0.99962067
0.99958919
0.99735454
0.99353809
0.99029071
0.98976157
0.99217543
0.99624496
1.0000596
1.0019167
0.99622706
0.9974761
0.99867348
0.99870711
0.99738875
0.99509087
0.99304562
0.99249805
0.99394401
0.99676282
0.99955797
1.0008568
1.0002077
0.99848639
0.99627416
0.99355285
0.9909827
0.99010024
0.99153568
0.99461455
0.99756515
0.99882313
0.99837292
0.99897895
0.99862698
0.99755299
0.99592425
0.99424706
0.9931534
0.99325808
0.99458925
0.99663686
0.99866306
0.99962343
0.99892209
0.99698818
0.99431824
0.99185473
0.99070957
0.99180989
0.99448256
0.99733004
0.99897122
0.99854424
0.99635556
0.99302645
0.99593653
0.99546554
0.99484307
0.99450644
0.99493131
0.99613845
0.99781417
0.99913508
0.99920954
0.99800204
0.99575326
0.99329747
0.99127126
0.99018524
0.99055165
0.9923403
0.99548197
0.99881639
1.0004835
0.99980879
0.99703245
0.993323
0.98940629
0.99167365
0.99205355
0.99305223
0.99486237
0.99730563
0.99964895
1.0009607
1.0004454
0.99823722
0.99512598
0.99186726
0.98940316
0.98858791
0.98968243
0.99236184
0.99574173
0.99881291
1.000269
0.99963457
0.99743428
0.994159
0.99052942
0.98738874
0.99143962
0.99261279
0.99414787
0.9959941
0.99752486
0.99862323
0.99867085
0.99733161
0.99496628
0.99231375
0.99020672
0.98942954
0.99035967
0.99272263
0.99563924
0.99798489
0.99893707
0.99826011
0.99641602
0.99389649
0.99106619
0.98875672
0.98795138
0.99492778
0.9954561
0.9957388
0.99583558
0.99559521
0.99472877
0.99326628
0.99173684
0.99060458
0.99033953
0.99118734
0.99301969
0.99530593
0.9972959
0.99820861
0.99778051
0.99627649
0.99422332
0.99202756
0.99004328
0.98869384
0.98845067
0.98974313
0.99748718
0.99750429
0.99691948
0.99567278
0.99374892
0.99135424
0.9889825
0.98753247
0.98760762
0.9895588
0.99290402
0.99673517
0.9998601
1.0012685
1.0006226
0.99777319
0.99384468
0.98983927
0.98704526
0.98611626
0.98711692
0.98937375
0.99192218
0.99774746
0.99731569
0.9964308
0.99491198
0.9928235
0.99051254
0.98847197
0.98743847
0.98805483
0.99044829
0.99404016
0.9979081
1.0008948
1.0018591
1.0002764
0.99652838
0.99176663
0.98760351
0.98531516
0.98548683
0.98757995
0.9906526
0.99357722
0.99550368
0.99546631
0.99532613
0.99459364
0.99312391
0.99145294
0.99011431
0.98951643
0.98997755
0.99161891
0.99411389
0.99656077
0.99813167
0.99818192
0.99677683
0.99404275
0.99084072
0.98837855
0.98743555
0.98792824
0.99006023
0.99312131
0.99571837
0.99390307
0.99397446
0.99400894
0.993869
0.99352832
0.99299697
0.99258617
0.99261122
0.99280697
0.99320138
0.99371222
0.99423342
0.99451922
0.99413009
0.99303966
0.99159827
0.99036841
0.98996402
0.99056112
0.99178597
0.99322257
0.99469353
0.99594249
0.99098079
0.99135623
0.99198472
0.99267029
0.99353788
0.99464122
0.9958431
0.99681889
0.99700835
0.99617238
0.99447725
0.9925731
0.99106209
0.9901575
0.98992241
0.99025247
0.99104324
0.99216881
0.99339167
0.99436475
0.99477708
0.99466169
0.9943663
0.98777731
0.98849612
0.98985531
0.99164172
0.99367802
0.99603849
0.99828766
0.99984429
1.0000059
0.99850551
0.99559858
0.99229299
0.98970053
0.98844492
0.98860533
0.98984037
0.9916961
0.99359554
0.99496213
0.99542111
0.99497674
0.9940761
0.99314819
0.98733236
0.98802545
0.98963544
0.9918171
0.9943815
0.99744758
1.0000084
1.0014322
1.0008959
0.99852104
0.99494207
0.99121879
0.98850628
0.98745618
0.98799511
0.98964268
0.99198029
0.99442306
0.99605841
0.99637094
0.99563391
0.99457588
0.99384746
0.9868214
0.98829082
0.99071267
0.99357107
0.99676214
0.999426
1.0014313
1.0018337
0.99993584
0.99612832
0.9915707
0.98777879
0.98591389
0.98625683
0.98831463
0.99111529
0.99384478
0.99601009
0.99713962
0.99719409
0.9965448
0.99570847
0.99490467
0.98606863
0.9884806
0.99216759
0.9959578
0.99888608
1.0004776
1.0010505
1.0001235
0.99769806
0.99420184
0.99044528
0.98753399
0.98646651
0.98761742
0.99037757
0.99339899
0.99557626
0.9967089
0.99718098
0.99693251
0.99589589
0.99468002
0.99382865
0.98948801
0.9907777
0.99321732
0.99589814
0.99762978
0.99845582
0.99802404
0.99683855
0.99542277
0.99399415
0.99271731
0.9918187
0.99150245
0.99208933
0.99335058
0.99440212
0.99471864
0.99477655
0.99535862
0.99609335
0.99595075
0.99451368
0.99257859
0.99497388
0.99504138
0.99588219
0.99613666
0.99603011
0.99470418
0.99296492
0.99178058
0.99203954
0.99372313
0.99581006
0.99714035
0.99721138
0.99584884
0.99374725
0.99231762
0.99228605
0.99377699
0.99607928
0.99723762
0.99602028
0.99330072
0.99147976
1.00115
0.99939619
0.99771922
0.99562322
0.99317114
0.99061133
0.98869264
0.98854844
0.99049384
0.99410982
0.99815196
1.0005833
1.0001904
0.99727654
0.99344331
0.99069808
0.9904258
0.99201435
0.99405297
0.99556419
0.99637398
0.99656207
0.99606934
1.0056552
1.0022441
0.99729781
0.9919922
0.98787866
0.98630185
0.98729347
0.98968139
0.99327412
0.99776066
1.0018237
1.0040024
1.0031428
0.99876956
0.9923679
0.98718621
0.9856121
0.98764355
0.99185814
0.99639758
0.99986665
1.0014672
1.0014159
1.002076
1.0009559
0.99723765
0.99207537
0.98760323
0.98594045
0.98759973
0.99183795
0.99690921
1.0014247
1.0041703
1.0044115
1.0019783
0.99766578
0.99271505
0.98815258
0.98564346
0.9864937
0.99053944
0.99654785
1.0022387
1.0050523
1.0033913
0.99282042
0.99537973
0.99770645
0.99807211
0.99571622
0.99249022
0.99116423
0.99280464
0.99614317
0.99886906
0.99954606
0.99864914
0.99793623
0.99759412
0.99668339
0.99419667
0.98981591
0.98671089
0.9891053
0.99603829
1.0020914
1.0031557
0.99906949
0.98837462
0.98956589
0.99382183
0.99962427
1.0042395
1.0049003
1.0014674
0.99590507
0.99117233
0.98951806
0.99111702
0.99452603
0.99768997
0.99935705
0.99961541
0.998317
0.99545984
0.99218468
0.9915201
0.99409519
0.99623079
0.99626343
0.99533217
0.98923827
0.99081788
0.99435393
0.99913488
1.0040525
1.0067077
1.0048782
0.99908966
0.9918776
0.98700761
0.98640639
0.98925415
0.9941176
0.99970337
1.0039144
1.0049531
1.0024974
0.99680432
0.99047801
0.98723307
0.9894331
0.99491663
0.9995574
0.99926381
0.99695068
0.99673359
0.99706561
0.99674305
0.99687907
0.9984921
0.99968273
0.99822868
0.99441373
0.99032952
0.98946745
0.99277795
0.99879253
1.0043072
1.0057448
1.0016705
0.99380682
0.98718351
0.98620655
0.99011749
0.99671038
1.0021176
1.0045446
1.0016106
0.99549352
0.99070542
0.99037345
0.9929068
0.99531835
0.99691737
0.99846773
1.0000549
1.0002957
0.99836774
0.99518052
0.99331367
0.99386076
0.99631428
0.99824716
0.99803897
0.99605598
0.99361687
0.99133865
0.99099596
0.99630882
0.99430292
0.99829549
1.0009265
0.99885746
0.99346232
0.98962549
0.99061601
0.99572911
1.0015504
1.0043995
1.0038872
0.9995841
0.99243702
0.98711989
0.98804372
0.99364055
0.99998836
1.0045623
1.0058588
1.0012282
0.99356897
0.98920527
0.99069479
0.99595743
0.99440359
0.99556911
0.99948764
1.0018578
0.99897496
0.99379248
0.99271174
0.9967251
1.0013946
1.0017525
0.99832281
0.99372347
0.9911117
0.99201808
0.99559122
0.99933233
1.0019586
1.0033148
1.0018601
0.99786721
0.99449224
0.99176043
0.9971394
0.99656729
0.99571087
0.99653064
0.99977529
1.0028772
1.0031591
0.99817208
0.99204376
0.9896009
0.99362032
1.0009394
1.0042791
1.0007923
0.99399505
0.98995182
0.99176403
0.99662527
1.0003031
1.0027448
1.0044194
1.0042173
1.0024683
0.99880989
0.9986977
0.99880377
0.99799332
0.99694782
0.99717622
0.9989093
1.0001638
0.99871978
0.99426017
0.9904789
0.99132276
0.99728514
1.0033026
1.0038198
0.99924606
0.99399338
0.99195999
0.99167725
0.99166051
0.99402009
0.9980197
1.0017568
1.0001441
0.99939314
0.99842841
0.99763228
0.99673247
0.9956336
0.99533523
0.99664681
0.99874212
0.99957742
0.99792865
0.99414024
0.99100714
0.99264432
0.99794687
1.001742
1.0018678
1.0000192
0.99708391
0.99336215
0.99020152
0.98982034
0.99257217
0.99820221
0.99904216
0.99871319
0.99776892
0.9971903
0.9969392
0.99717841
0.99695979
0.99619911
0.99682726
0.99840499
0.99891061
0.99770557
0.99510913
0.99322231
0.99335203
0.99529098
0.99728864
0.99861236
0.99928119
0.99738233
0.99572313
0.996789
0.99593676
0.99748322
0.99943322
1.0010116
1.0007614
0.99890402
0.99736936
0.99654996
0.99572739
0.99557888
0.99693042
1.0002823
1.002849
1.0016504
0.99754926
0.9924586
0.98980777
0.98956215
0.99053525
0.99224404
0.99319088
0.99454444
0.99752909
1.0010916
0.99916898
0.9977948
0.99819398
0.99923329
1.0001496
1.0006842
1.0003354
0.99959942
0.99810959
0.99612578
0.99607104
0.99744011
0.99834393
0.9975893
0.99517983
0.99290875
0.99151736
0.99056462
0.99027708
0.99082564
0.99209482
0.9931515
1.0016332
1.0016627
1.0004918
0.99911321
0.99784342
0.99831156
0.99992744
1.0012656
1.0024148
1.0017036
0.99852831
0.99493297
0.99178817
0.99105112
0.99152534
0.99172204
0.99234746
0.99330885
0.99504585
0.99640392
0.99742328
0.99638831
0.99261695
0.99829048
1.0002279
1.0029927
1.0035661
1.0011328
0.99830196
0.99647434
0.99627499
0.99801437
0.99928022
0.99905553
0.99703392
0.99426988
0.99331594
0.99392536
0.99543244
0.99603139
0.99599428
0.99582023
0.99638328
0.99535062
0.99279538
0.98819122
0.99896378
0.9990584
1.0022688
1.0044536
1.0037065
1.0016059
0.99879065
0.99673617
0.99659408
0.99753288
0.99879685
0.9992759
0.99904373
0.99922193
1.0002796
1.0023245
1.0019555
0.99922092
0.99436395
0.99017912
0.98662784
0.98340833
0.98039605
1.002958
1.0009989
1.0013595
1.0022138
1.0022224
1.0021164
1.0011136
1.000679
1.0008332
1.0010968
1.0022805
1.0026123
1.0018578
0.99915267
0.9966494
0.99693454
0.99704939
0.9957029
0.99190696
0.98740927
0.98489915
0.98257017
0.98297649
1.0041159
1.0027913
1.0023065
1.0017756
1.0019237
1.0028177
1.0025189
1.0021819
1.0025213
1.0027206
1.0028075
1.0022273
1.0007174
0.99695018
0.99303723
0.99072679
0.99094529
0.99201302
0.99215474
0.99113848
0.99148161
0.9917493
0.9920271
1.0062486
1.0054037
1.004023
1.0025209
1.0022994
1.0028726
1.0028983
1.0018977
1.0005223
0.99999775
0.99816821
0.99722176
0.99766566
0.99746065
0.99817715
0.99708439
0.9973232
0.99822596
1.0002282
1.0005864
1.0000237
0.99831003
0.99526334
1.003993
1.0045031
1.0036252
1.0024091
1.0024967
1.0018788
1.0013093
1.0011052
1.0004055
1.0009043
1.0007212
1.0000591
1.0010895
1.0026526
1.0056385
1.0056437
1.0051557
1.0029474
1.0008969
0.99890192
0.99612069
0.99241722
0.9890123
1.0015372
1.0022997
1.0031066
1.003737
1.0052873
1.0053871
1.005735
1.0072502
1.0072016
1.0076425
1.0070315
1.0054152
1.0036784
1.0023746
1.0022226
1.0004205
0.99849948
0.99606096
0.99421334
0.99403399
0.99284025
0.99249833
0.99148422
1.0085214
1.00663
1.0065111
1.0067011
1.0063117
1.0042384
1.0035375
1.0039574
1.002837
1.0026917
1.0021786
1.0021982
1.0021334
0.99995446
0.99902172
0.99787182
0.99867965
0.99939965
0.99896987
0.99973453
0.99930148
0.99961539
0.99953322
1.0050124
1.0047583
1.0044961
1.0050371
1.0053028
1.0041193
1.0040687
1.0036917
1.0022061
1.0019664
1.0016508
1.0027091
1.0040335
1.0033697
1.0028106
1.0022838
1.0055538
1.0066178
1.0051334
1.003919
1.0027952
1.0005144
0.9986695
1.0049582
1.0049526
1.004584
1.0044436
1.0057494
1.0060191
1.0073235
1.0070509
1.0058587
1.0061039
1.0056695
1.0059862
1.0054023
1.0047276
1.004921
1.0040829
1.0049829
1.0032977
1.0011375
0.99929391
0.9992011
0.99823151
0.99691478
1.0080017
1.008081
1.0077513
1.006826
1.0053755
1.004134
1.0060523
1.0063295
1.0041994
1.0043313
1.0048401
1.0062503
1.0062452
1.0050687
1.0053921
1.0050619
1.0038337
1.0013852
1.00229
1.002376
1.0021602
1.0019134
1.0024291
1.0061258
1.0060079
1.0058946
1.0064095
1.0063275
1.0054697
1.0065394
1.0078909
1.0072067
1.006766
1.0055376
1.0060663
1.0071681
1.0052883
1.0053824
1.0048487
1.0038317
1.0023236
1.0038874
1.005412
1.0039681
1.0023206
1.0028193
1.006798
1.006989
1.0068753
1.0070042
1.0073505
1.0071835
1.0061735
1.0067739
1.0069868
1.0071851
1.0057902
1.004283
1.0054431
1.0040568
1.0045905
1.004537
1.0048594
1.00532
1.005994
1.0072319
1.0052268
1.0039864
1.0047741
1.0068307
1.0074355
1.0072036
1.0071404
1.0076142
1.0072651
1.0058516
1.0050494
1.0059528
1.0072169
1.0075052
1.0061056
1.0070599
1.007632
1.0076414
1.0075376
1.0078864
1.0080856
1.004834
1.0041034
1.0043336
1.0043349
1.0032999
1.0068175
1.008099
1.0080336
1.0071839
1.007465
1.0083395
1.0080457
1.0067869
1.0067904
1.007874
1.007597
1.0056205
1.0056501
1.0071392
1.0071575
1.0065221
1.0047595
1.0056294
1.0056594
1.0047502
1.0045018
1.0047005
1.0050422
1.0081589
1.0091687
1.0092631
1.0072259
1.0054639
1.0063443
1.0079515
1.0072725
1.0063674
1.0071109
1.0076238
1.0070431
1.0072732
1.0077721
1.0062754
1.0058837
1.0056535
1.0064784
1.006918
1.0063721
1.006177
1.0066701
1.006834
1.0084325
1.0073869
1.0076144
1.0087686
1.0086261
1.0089214
1.0090549
1.0082258
1.0083771
1.0073033
1.0065099
1.0076784
1.0074449
1.0069656
1.0057887
1.0067608
1.008162
1.0071265
1.0062908
1.0065363
1.0073954
1.0065948
1.0047839
1.0105246
1.0093215
1.0075832
1.0084474
1.0095772
1.0099451
1.0083973
1.005884
1.007874
1.0096045
1.0072855
1.006441
1.0081522
1.009044
1.0064987
1.0059223
1.0083531
1.0074652
1.0054992
1.0054644
1.0079466
1.0067588
1.0044855
1.0090408
1.0099392
1.0094055
1.008584
1.0077485
1.0084797
1.0098127
1.0081573
1.0079218
1.0100467
1.0096321
1.0073782
1.0068288
1.0087739
1.0081036
1.0058108
1.0073648
1.0074364
1.0066121
1.0067738
1.0088553
1.0074004
1.0046056
1.0093529
1.0084877
1.0081257
1.0091322
1.0097733
1.0090233
1.0086776
1.0089981
1.0094317
1.008316
1.0073702
1.0083975
1.0086296
1.0083034
1.0075482
1.006998
1.0088207
1.0089092
1.0066968
1.0056058
1.0070115
1.0072102
1.0045145
1.0092267
1.0092335
1.0077765
1.007419
1.0089454
1.0105865
1.0094146
1.006984
1.0080407
1.0102231
1.0087331
1.007193
1.0079636
1.0092215
1.0087407
1.0073906
1.0081253
1.0088655
1.0067725
1.0055527
1.0074736
1.0081484
1.0050941
1.0078923
1.0091556
1.0096214
1.0085863
1.0078759
1.0086815
1.0100301
1.0086906
1.0067493
1.0088255
1.0107849
1.0092122
1.0073691
1.0076269
1.0089138
1.0084379
1.0075213
1.0077753
1.0071265
1.0065712
1.0075943
1.0076191
1.0057551
1.0078561
1.0082046
1.0091312
1.0092675
1.0085805
1.0077572
1.0085128
1.0096173
1.0080191
1.0067925
1.0084699
1.0095557
1.0087309
1.0075553
1.0080719
1.0087515
1.0077547
1.0073939
1.0078465
1.0073571
1.0065493
1.0067803
1.0071914
1.0081101
1.007751
1.0077279
1.0079917
1.0080886
1.0078363
1.0079959
1.0086851
1.0084906
1.0075371
1.0083448
1.0097297
1.0085631
1.0060625
1.0060185
1.0085464
1.0090064
1.0067979
1.0065155
1.0082464
1.0078642
1.0059717
1.006022
1.0084997
1.0071075
1.006617
1.0079608
1.0090474
1.0078464
1.0059828
1.006589
1.008876
1.009045
1.0069675
1.0062524
1.0078799
1.008774
1.0075459
1.0071914
1.0080694
1.007337
1.0062477
1.0076243
1.0086225
1.0065189
1.0049213
1.007287
1.0078466
1.006799
1.0055503
1.0068423
1.0087449
1.0080059
1.0059226
1.0065543
1.0091161
1.0088369
1.0059513
1.0056134
1.0083729
1.0089646
1.0062929
1.0056336
1.0078465
1.0080512
1.0059407
1.0057096
1.0067167
1.0061914
1.0052655
1.0075678
1.0086291
1.0069876
1.0051131
1.0061796
1.0085289
1.008152
1.0058997
1.005896
1.008122
1.0081671
1.0056971
1.0054729
1.0077889
1.0078806
1.005611
1.0059905
1.0081165
1.0068425
1.004625
1.0061827
1.0082913
1.0060971
1.0061181
1.0072043
1.0072619
1.0060468
1.0055016
1.006931
1.0082583
1.0066823
1.0042161
1.0051014
1.0081347
1.0084129
1.0058284
1.0051806
1.007287
1.0076882
1.0056534
1.0053397
1.0068785
1.0065359
1.0053347
1.0059912
1.0071793
1.0056078
1.0048216
1.0060388
1.0074325
1.0067192
1.0051226
1.0052658
1.0067474
1.0070791
1.005931
1.0054422
1.0065144
1.0072181
1.0062694
1.0055196
1.0061248
1.0062429
1.0054207
1.0054623
1.0061051
1.0059018
1.0052579
1.0059117
1.006169
1.0057293
1.0054524
1.0058239
1.0062226
1.0058368
1.0052815
1.0059815
1.0072396
1.0070173
1.0054429
1.0047576
1.0059786
1.0067808
1.0055831
1.0044938
1.0054292
1.0068004
1.0059997
1.0048038
1.0055221
1.0066929
1.005762
1.00566
1.0059229
1.0059539
1.0057567
1.0059024
1.0062511
1.0061461
1.0055478
1.0051102
1.0054827
1.0060017
1.0058051
1.0052591
1.0054021
1.0058782
1.0059322
1.0056798
1.0056251
1.0054155
1.0047471
1.0045772
1.0051756
1.0058726
1.0055587
1.0055788
1.0059009
1.0060961
1.0058681
1.0054925
1.0053391
1.0055581
1.0055438
1.0053569
1.0055847
1.0059861
1.0058229
1.0053709
1.0051969
1.0053399
1.0053683
1.0050811
1.0047061
1.0049897
1.0052132
1.0052871
1.0055914
1.0057655
1.0057687
1.0056044
1.0053438
1.0053905
1.0054099
1.0054144
1.0057892
1.0057209
1.0054774
1.0054236
1.0053505
1.0053336
1.0056409
1.0055686
1.0050825
1.005063
1.0049364
1.0052076
1.0053763
1.004883
1.0043932
1.0062909
1.0052589
1.0050195
1.0051168
1.0054404
1.0057595
1.0058227
1.005784
1.005375
1.0050272
1.0054934
1.0058166
1.0058264
1.0054706
1.0050732
1.0044797
1.0049618
1.0056259
1.0053688
1.0049716
1.004384
1.0047149
1.0051575
1.0049621
1.0057962
1.0065413
1.0064766
1.0052551
1.004425
1.0050698
1.0060372
1.0063706
1.0058769
1.0051436
1.0047716
1.0050646
1.0056285
1.0052865
1.0052587
1.0050896
1.005125
1.0051646
1.0053005
1.0046455
1.0046285
1.0045126
1.0069272
1.0051285
1.0046706
1.0054513
1.0060542
1.0059451
1.005488
1.0050935
1.0055985
1.0061634
1.0056481
1.0049464
1.004981
1.0053584
1.0056075
1.0050022
1.004522
1.005304
1.0058294
1.0058869
1.0046468
1.0043342
1.0047401
1.0053159
1.006181
1.0059929
1.0053018
1.0053475
1.0062426
1.006773
1.005955
1.0043736
1.0042595
1.0060361
1.0067528
1.0055557
1.0041585
1.0047508
1.005846
1.0059602
1.0053676
1.0046283
1.0044565
1.0046316
1.0051224
1.0057411
1.0065183
1.0054639
1.0058523
1.006376
1.0058495
1.0048719
1.0051855
1.0065826
1.0071986
1.0059765
1.0044928
1.0046924
1.005919
1.0058472
1.0047485
1.0046608
1.0053294
1.0054959
1.0052321
1.0059427
1.0058914
1.003985
1.0028486
1.0071623
1.0059991
1.0044052
1.0047809
1.0069239
1.0082867
1.0070358
1.0047332
1.0040208
1.0051892
1.0062766
1.005826
1.0052757
1.0059455
1.0057452
1.0046984
1.0046302
1.0062444
1.006092
1.0042514
1.003589
1.0053261
1.0065073
1.0061795
1.0068532
1.0076463
1.0062385
1.0039321
1.0039062
1.0062217
1.0079491
1.0071556
1.005803
1.0056588
1.0056384
1.00477
1.004467
1.0056519
1.0063103
1.0056149
1.004538
1.0052586
1.006214
1.0051479
1.0041575
1.0044341
1.0088333
1.0057151
1.0039739
1.0049828
1.0071078
1.0078979
1.0071569
1.0063818
1.0061862
1.0055741
1.0047994
1.0049823
1.0056606
1.0060894
1.0059576
1.0059171
1.0060248
1.0053845
1.0041013
1.0043422
1.0054808
1.0052147
1.0043423
1.007899
1.0078022
1.0061295
1.0046008
1.0048632
1.0066165
1.0077963
1.0075111
1.0068173
1.0064295
1.0057807
1.0046199
1.0043552
1.0060794
1.0070889
1.0057725
1.0044825
1.005446
1.0059873
1.0045358
1.0033282
1.0051353
1.0070572
1.0081309
1.0074834
1.0069366
1.0054604
1.0043238
1.0055176
1.0083057
1.0096124
1.0078536
1.0051144
1.0042805
1.0051884
1.0052391
1.0047727
1.0065772
1.0084082
1.0075032
1.0046694
1.0027982
1.003395
1.0052076
1.0058997
1.0059729
1.0073547
1.006661
1.0063849
1.0074751
1.0079829
1.0068084
1.0059749
1.0068954
1.0077327
1.0067963
1.0049611
1.0048392
1.0063519
1.0072341
1.0068014
1.0067498
1.0066116
1.0049341
1.0030489
1.0030929
1.0054135
1.0067641
1.0063536
1.0072311
1.0078276
1.0074118
1.0073666
1.0077967
1.0071091
1.0053126
1.0047721
1.0069893
1.0095291
1.0089786
1.0061199
1.0044173
1.0050067
1.005941
1.0054797
1.0057747
1.0071106
1.0065608
1.0041348
1.0031718
1.0048121
1.0066217
1.0062588
1.0082037
1.0086629
1.0075044
1.0066517
1.0072525
1.0079756
1.0071272
1.0057104
1.0060495
1.0078358
1.0078521
1.0057082
1.0045187
1.0054919
1.0068629
1.0067239
1.0062607
1.0059146
1.0047535
1.003463
1.0041793
1.0062077
1.0061784
1.006906
1.0091986
1.0098638
1.00854
1.0072018
1.0069863
1.0071554
1.0061229
1.0045343
1.0055329
1.0085738
1.0096084
1.0071966
1.0047924
1.0053596
1.0061271
1.0047945
1.0038704
1.0056595
1.0075112
1.006531
1.004324
1.0082465
1.0068422
1.0072766
1.0090827
1.0102353
1.0089429
1.0066752
1.0057701
1.0063578
1.0067799
1.0065353
1.0072575
1.0084946
1.0083167
1.0061956
1.0046493
1.0050225
1.0048109
1.0046442
1.0059705
1.0077065
1.0063812
1.0031203
1.0078916
1.0085792
1.0074559
1.0075149
1.0091335
1.0097779
1.0078191
1.0055031
1.0061887
1.0083502
1.0083644
1.0064198
1.0060995
1.0080361
1.0081288
1.0048416
1.0028245
1.0054101
1.0082206
1.0066555
1.0037416
1.0041618
1.0063736
1.0056432
1.0091987
1.0102829
1.0083625
1.0065863
1.0072926
1.0085316
1.0078084
1.0060913
1.0061686
1.0079161
1.0086898
1.0072234
1.0057945
1.0060459
1.0059394
1.0047082
1.0045466
1.0058505
1.0063896
1.0056379
1.0046038
1.0043532
1.0051372
1.0069056
1.0091176
1.0077775
1.005371
1.0053705
1.0078619
1.0086671