/*--------------------------------*- C++ -*----------------------------------*\
| =========                 |                                                 |
| \\      /  F ield         | OpenFOAM: The Open Source CFD Toolbox           |
|  \\    /   O peration     | Version:  2406                                  |
|   \\  /    A nd           | Website:  www.openfoam.com                      |
|    \\/     M anipulation  |                                                 |
\*---------------------------------------------------------------------------*/
FoamFile
{
    version     2.0;
    format      ascii;
    arch        "LSB;label=32;scalar=64";
    class       surfaceScalarField;
    location    "40";
    object      phi;
}
// * * * * * * * * * * * * * * * * * * * * * * * * * * * * * * * * * * * * * //

dimensions      [1 0 -1 0 0 0 0];

oriented        oriented;

internalField   nonuniform List<scalar> 
40800
(
0.00082133442
0.0010526491
-0.0010087352
0.00088909719
0.0010892377
-0.0010393175
0.00094549076
0.0010567179
-0.00095831544
0.0010054714
0.00091691042
-0.00088493644
0.0010542566
0.00089054465
-0.00097035763
0.0011171425
0.00088029649
-0.00080071625
0.0011665968
0.00081427923
-0.00087665845
0.0012217363
0.00081922676
-0.00081673126
0.0012688347
0.00077668018
-0.00082361997
0.0013213864
0.00076105472
-0.00077303882
0.0013740722
0.00078491175
-0.00077592408
0.0014184243
0.000749312
-0.00081011113
0.0014726515
0.00074554576
-0.00078964453
0.0015210171
0.00076330024
-0.00086881757
0.0015640311
0.00077149282
-0.00086153159
0.00162296
0.0007710645
-0.00081026429
0.0016883408
0.00086675589
-0.00093803552
0.0017149466
0.00087699142
-0.00095367468
0.0017972502
0.00087416077
-0.00091633192
0.0018543506
0.0010395443
-0.0011287859
0.0018770146
0.001005017
-0.0010979279
0.0019686239
0.0010707817
-0.0010951452
0.0020568766
0.0012163357
-0.0012480267
0.0020934904
0.0012407762
-0.0013080681
0.0021494135
0.001216197
-0.0012829813
0.0022744314
0.0013677257
-0.0014138576
0.0024421767
0.0015628224
-0.0015966164
0.0024946126
0.0016475454
-0.0017757423
0.0026214068
0.0016828425
-0.0018104586
0.0027265214
0.0016549269
-0.0017943869
0.0017735781
0.0028391546
-0.0018963705
0.00082387846
0.0010596733
0.00089940926
0.0010995829
0.00095363566
0.0011507004
0.0010113653
0.00098257338
0.0010577938
0.00082773282
0.0011169536
0.0009518547
0.0011652413
0.00077253624
0.0012180105
0.00080780529
0.0012644476
0.00072970909
0.0013183254
0.00073644021
0.0013677763
0.00076847735
0.0014115768
0.00070754771
0.0014636693
0.00071055142
0.0015089623
0.00068967006
0.0015521309
0.00069178802
0.0016168334
0.00074421359
0.0016733652
0.0007931678
0.0016989221
0.00080510833
0.0017981574
0.00085656891
0.0018286438
0.00092192027
0.0018677848
0.00091253566
0.0019741902
0.0010218591
0.0020424472
0.0011700056
0.0020657154
0.0011889882
0.0021578765
0.0012105071
0.0022978284
0.0013288377
0.002432578
0.0015019276
0.0024632733
0.0014899821
0.0025536436
0.0015224997
0.0026808355
0.0015380329
0.0016948228
0.0028445342
0.00082246303
0.0010131865
0.00090600519
0.0010509388
0.0009622113
0.0011674536
0.0010169618
0.001017807
0.001065535
0.00077711822
0.0011180017
0.00094034166
0.0011662078
0.00073947827
0.0012143575
0.00075438995
0.001261501
0.00068728746
0.001314247
0.0007029311
0.0013584728
0.00069853417
0.0014038119
0.00066393311
0.0014531558
0.00068318967
0.0014971691
0.00066054843
0.0015431956
0.00064694093
0.0016059844
0.00071425417
0.0016573818
0.00073792577
0.0016874305
0.00073406529
0.0017874891
0.00085625264
0.0018076236
0.00084299796
0.0018595639
0.00084662573
0.0019738879
0.00096349548
0.0020237651
0.0010536984
0.0020505016
0.0010638346
0.0021594126
0.0011849892
0.0023109501
0.0013128139
0.0023904734
0.0013845628
0.0024239507
0.0013490438
0.0025042121
0.0013561139
0.0026533403
0.0013845764
0.0015769558
0.0028498883
0.00081826149
0.00090057425
0.00090603769
0.00093543765
0.0009644541
0.0010762665
0.0010163388
0.00098269151
0.0010697752
0.00073579111
0.0011153474
0.00082245502
0.0011653481
0.00071159383
0.0012102878
0.00066647857
0.0012597672
0.00065074146
0.001308655
0.00067506724
0.0013492971
0.00060799953
0.0013965186
0.00061265351
0.0014433081
0.00063541972
0.0014868218
0.00063270227
0.0015377783
0.00063264318
0.0015964728
0.00069808003
0.0016422153
0.00071017107
0.0016841825
0.00067103373
0.0017696301
0.00083143705
0.001791334
0.00080288298
0.0018556071
0.00081928412
0.0019620236
0.00095228659
0.0019922449
0.00096622162
0.0020420641
0.00091920337
0.0021583977
0.0011022278
0.0022921723
0.0012709971
0.002339634
0.0012386217
0.0023795342
0.0012048174
0.0024651831
0.0012655817
0.0026343107
0.001290271
0.0014211921
0.0028237899
0.0008113174
0.00073564745
0.00089989894
0.00076180145
0.00096089656
0.00089903777
0.0010127606
0.00087992029
0.0010688057
0.000704156
0.0011114042
0.00064645974
0.0011625236
0.00068095805
0.0012069998
0.00058522422
0.0012581387
0.00062125368
0.0013018563
0.00064334452
0.0013426954
0.00054423807
0.0013895511
0.00055598488
0.0014341118
0.00057668437
0.0014781888
0.00057642538
0.0015332732
0.00061388472
0.0015874667
0.00066010559
0.0016251868
0.000672326
0.0016837566
0.00063492316
0.0017487211
0.00075993393
0.001776821
0.00074401903
0.0018562794
0.0007861592
0.001947568
0.0009402524
0.00195685
0.00093924964
0.0020405327
0.00085984466
0.0021580311
0.00099688747
0.0022414396
0.0011639786
0.0022852269
0.0011039556
0.0023514556
0.0010490851
0.0024360049
0.0011943065
0.0026041426
0.001287331
0.0013610658
0.002752215
0.00080889057
0.00056098908
0.00089329731
0.00057501882
0.00095498724
0.00069430215
0.0010075189
0.00072939312
0.0010625481
0.00067430095
0.0011060304
0.00049917656
0.0011561342
0.00064162404
0.0012036188
0.00054916847
0.0012546967
0.00059963016
0.0012940772
0.0005842006
0.0013380837
0.00052528519
0.0013837933
0.00052588311
0.0014254039
0.00054064306
0.0014712221
0.00052165159
0.0015258799
0.00057945071
0.0015756052
0.00061115675
0.0016075926
0.00060843325
0.0016795936
0.0006259647
0.0017265245
0.00068465188
0.0017613208
0.00065879597
0.0018564147
0.00074912858
0.0019277073
0.00085433225
0.0019240178
0.00084814215
0.0020365037
0.00086023665
0.0021562866
0.00092244553
0.0021830181
0.0010003669
0.0022224561
0.00097630625
0.0023422373
0.0009303187
0.0024297888
0.0010585316
0.002579006
0.0012308274
0.0013415112
0.0026700705
0.0008200402
0.00041477144
0.00089512436
0.00043360873
0.00094864168
0.00054457706
0.00099913015
0.00056573427
0.0010501848
0.00063668415
0.0010979925
0.00044433293
0.0011463662
0.00058856592
0.0011986925
0.00055362462
0.0012464355
0.00056905855
0.0012852428
0.00050023024
0.0013333543
0.00052809022
0.0013789707
0.0005234186
0.0014174621
0.00052614135
0.0014657023
0.00051783218
0.0015164744
0.00055352217
0.0015606129
0.00054636188
0.0015941884
0.00051604379
0.0016700797
0.00059940329
0.0017027871
0.00062409639
0.0017489138
0.00056616516
0.0018426298
0.00069193864
0.0018954425
0.00072832788
0.0018995901
0.00068999749
0.0020184878
0.00080738501
0.002135087
0.00087545438
0.0021368501
0.00084137928
0.0021699061
0.00087654466
0.0023284039
0.00092946079
0.002439222
0.00095926833
0.0025633876
0.0010670718
0.0011739764
0.0026122993
0.00084882137
0.00031863862
0.00089560551
0.00037864557
0.00094059597
0.00049895483
0.00098784981
0.00044648304
0.001034816
0.00059174886
0.0010871449
0.00049199529
0.001133503
0.00052055779
0.0011878447
0.00055561556
0.0012312409
0.00051387731
0.0012749946
0.00041653564
0.0013254109
0.00051469675
0.0013715535
0.00051021155
0.0014096358
0.0004942582
0.0014589678
0.00051901716
0.0015035454
0.00051508526
0.0015431647
0.00048802624
0.0015866329
0.00047443319
0.0016587928
0.00056252163
0.001678252
0.00057979179
0.0017439869
0.00051937986
0.001821603
0.0006638171
0.0018573391
0.00063430549
0.0018848902
0.00056890164
0.0019954082
0.00071249907
0.0020932424
0.00082877501
0.0021104728
0.00073857947
0.0021517901
0.00077238885
0.0022959782
0.00094726083
0.0024258592
0.0009620278
0.0025236207
0.00095104824
0.00095757388
0.0025564569
0.00088099039
0.00029384862
0.00090168093
0.00040100851
0.00094148611
0.00054865072
0.00098716657
0.00041468955
0.0010304813
0.00054144915
0.001081951
0.00058356416
0.0011237233
0.0004543976
0.0011735937
0.00051302547
0.0012132334
0.00043643014
0.0012637178
0.00037272843
0.0013115671
0.00046218463
0.0013566007
0.00046883655
0.0013971826
0.00042437994
0.0014447918
0.00047450801
0.0014870381
0.00046104169
0.0015290044
0.00045213075
0.0015803906
0.0004818049
0.0016465928
0.00052935291
0.0016562631
0.00052202569
0.0017476543
0.00052076595
0.0018013539
0.00066279655
0.0018267922
0.00058541479
0.0018835204
0.00055923299
0.001987423
0.00068524864
0.0020449433
0.00077783954
0.002085262
0.00071081068
0.0021670105
0.0007019721
0.002264448
0.00086938553
0.0023895099
0.00095387018
0.0024650746
0.00092404464
0.00086811615
0.0025033709
0.00090894391
0.00033806673
0.00091477765
0.00046850824
0.00095070604
0.000647813
0.00099547025
0.00046012734
0.0010362614
0.00048355975
0.0010825699
0.00062158097
0.0011228525
0.00040724887
0.00116547
0.00043335171
0.0012019879
0.00036457877
0.0012533881
0.00039547162
0.0012943433
0.00039499356
0.0013342473
0.00040016936
0.0013780866
0.00034909041
0.0014230112
0.00038972815
0.0014681476
0.000400591
0.0015158448
0.00039707828
0.0015684618
0.00045552513
0.0016278705
0.00048805491
0.0016365409
0.0004271502
0.0017485745
0.00049318318
0.0017743342
0.00059480852
0.0018086414
0.00052656723
0.00189033
0.00057248054
0.0019846658
0.00069882967
0.0020116952
0.00071995283
0.0020570778
0.00069496413
0.0021734211
0.00068659548
0.0022427852
0.00073953345
0.0023436113
0.00082830825
0.0023982394
0.00083079883
0.00078075316
0.0024637058
0.00094632573
0.00041949195
0.00094153092
0.00055805696
0.00097171555
0.00072714661
0.0010146796
0.00053006293
0.0010528583
0.00043160749
0.0010895886
0.00056354528
0.0011291596
0.00038539506
0.0011650945
0.00035793422
0.001203793
0.00032806379
0.0012501039
0.00043812267
0.001284556
0.0003498407
0.0013173589
0.00033544763
0.0013613398
0.00031431529
0.0014029223
0.00031737889
0.0014468485
0.00034995394
0.0014973833
0.00034313418
0.0015488077
0.00038329854
0.0015983661
0.00043469859
0.0016178063
0.00034702224
0.0017340615
0.00045799389
0.0017373993
0.00048761135
0.0017886448
0.00045022969
0.0018896163
0.00050585966
0.0019654866
0.00064144094
0.0019844819
0.00061974171
0.002027356
0.00059391631
0.0021491391
0.00064522293
0.0022175346
0.00066224757
0.0022931896
0.00070295671
0.0023161753
0.00067975577
0.00065642075
0.0024073288
0.00096072404
0.00045835075
0.00097456721
0.00059576228
0.0010024971
0.0007307463
0.001045426
0.00058668577
0.0010837452
0.00039265989
0.0011117854
0.00041932633
0.0011500238
0.00038328254
0.0011801365
0.00032263662
0.0012181351
0.00033402223
0.0012521477
0.00042838318
0.0012833628
0.00032346537
0.0013133089
0.00030707106
0.001354645
0.00032972218
0.0013927969
0.00030077343
0.0014289941
0.00031984958
0.0014755048
0.00032068279
0.0015245415
0.00031468167
0.0015610688
0.00035695911
0.0015997956
0.0003244306
0.0017036287
0.00043751096
0.0016958742
0.00036867825
0.0017556129
0.00039170576
0.0018734175
0.00042859224
0.0019235659
0.0005145322
0.0019387137
0.00048973894
0.0019960071
0.00046323323
0.0021147273
0.00056630145
0.0021929971
0.00061084309
0.0022473788
0.00063745
0.002254269
0.00058551006
0.00059619921
0.0023435441
0.00094101011
0.00040543762
0.0010076129
0.00051532001
0.001039159
0.00063692307
0.0010834064
0.00058193534
0.0011222249
0.00036043011
0.0011485258
0.00024217701
0.0011854204
0.000379758
0.0012117776
0.00032615007
0.0012433954
0.00035905435
0.0012632932
0.00034503524
0.0012925969
0.00030292019
0.0013205606
0.00029075008
0.0013547082
0.00034298995
0.0013894419
0.00031475913
0.0014195116
0.000292261
0.0014591788
0.00031163155
0.0015047382
0.00030851481
0.0015309962
0.00029162734
0.0015843875
0.00032155572
0.0016598419
0.00042641245
0.0016650203
0.00030295829
0.0017203471
0.00037072499
0.0018408721
0.0004437311
0.0018717297
0.00040720638
0.0018859078
0.00039379622
0.0019691819
0.00040458619
0.0020764129
0.00048820129
0.0021574859
0.00051998054
0.0021969493
0.00053201203
0.0022207305
0.00051027124
0.00056678736
0.0023081029
0.00092145829
0.00028933603
0.0010060904
0.00038115552
0.0010542798
0.00047702956
0.0011044397
0.00047207709
0.0011464087
0.00032862343
0.0011780636
0.00015242352
0.0012140609
0.00036078649
0.0012429119
0.00033088619
0.0012681687
0.0003662662
0.0012807911
0.00024509477
0.0013063893
0.00028869396
0.0013315691
0.00026245652
0.0013580524
0.00030319842
0.0013871663
0.00030970466
0.0014150032
0.00025790351
0.0014521657
0.00029320732
0.0014933761
0.00032727317
0.0015181317
0.00026464373
0.0015781979
0.0002887071
0.0016216903
0.00039357902
0.0016512829
0.00027289814
0.0017041608
0.00032825323
0.001798769
0.00047506765
0.0018294054
0.00037599383
0.0018479741
0.00032042918
0.0019416246
0.00039398352
0.002029438
0.00044915063
0.0021026354
0.00043843174
0.0021380849
0.00040666214
0.0021875015
0.00039754289
0.00048592846
0.0022936872
0.00091363736
0.00013544043
0.00099568754
0.00024125568
0.0010510805
0.00032390313
0.0011047644
0.00030531643
0.0011487735
0.00030107149
0.0011905898
0.00017998079
0.0012241429
0.00031550748
0.0012567025
0.00030793901
0.0012760523
0.00032583108
0.0012933908
0.00019495296
0.0013173436
0.00027321678
0.0013419726
0.00023403601
0.0013644925
0.00023074906
0.0013878035
0.00025985488
0.0014185332
0.00023249447
0.0014548754
0.0002623116
0.0014873661
0.00030964588
0.0015136546
0.00025553405
0.0015787892
0.00025375893
0.0015937421
0.00032668609
0.0016407311
0.0002254327
0.0017089124
0.00025689687
0.0017638261
0.00041392542
0.0017958096
0.0003524147
0.0018315217
0.00024500119
0.0019187797
0.00035943673
0.0019852174
0.00043312351
0.0020425753
0.00040979295
0.002073831
0.00033304142
0.0021439489
0.00031212251
0.00038636416
0.0022523803
0.00090628892
-1.483879e-05
0.00098269657
9.6557629e-05
0.0010368289
0.00022871051
0.0010930571
0.00015301435
0.0011395665
0.00026046047
0.0011894058
0.00027124475
0.0012195572
0.00024777727
0.0012533765
0.00025581846
0.0012729735
0.00024190624
0.0013034579
0.00021024011
0.0013262649
0.00024626315
0.0013527276
0.00022528856
0.0013765627
0.00020182359
0.0013978082
0.00019283242
0.0014337739
0.00022674266
0.001469262
0.00024463716
0.0014923066
0.00024755505
0.0015194163
0.00021919343
0.0015878498
0.00022837601
0.001579811
0.00024809962
0.0016370385
0.00019742937
0.0017189267
0.00020833826
0.0017410215
0.00028306579
0.0017600531
0.00028027126
0.0018340091
0.00022032525
0.0019134364
0.00028950071
0.001957846
0.00036648152
0.001994036
0.00037180416
0.0020303285
0.00030936243
0.0021139112
0.00030178251
0.00035209856
0.0022005842
0.00090685072
-0.00011981951
0.00097216738
1.7508643e-05
0.0010158919
0.00022529733
0.001069705
3.896249e-05
0.0011161036
0.00020473642
0.0011665072
0.00036989964
0.0011987791
0.00018116546
0.0012360352
0.00019201725
0.0012649407
0.00015011153
0.0013060025
0.00025698039
0.0013316255
0.00020806724
0.0013646396
0.00021439866
0.0013925665
0.00020626955
0.0014204422
0.00015876762
0.0014589519
0.00020519782
0.0014917185
0.00022190005
0.0015115576
0.00017168982
0.0015419446
0.0001641132
0.0016119023
0.00019496497
0.0015949619
0.00017100417
0.0016553527
0.00017937912
0.0017403616
0.00021502022
0.0017482351
0.00018454317
0.0017553447
0.00017892981
0.0018480424
0.00021772978
0.0019248552
0.00024175141
0.0019529475
0.00027318261
0.0019705788
0.0002910858
0.0020218989
0.00029286802
0.0021139761
0.00030449878
0.00034194943
0.0021801257
0.00093783572
-0.00013468414
0.00097876198
7.5704489e-06
0.0010035287
0.00028961036
0.0010494004
3.0873873e-05
0.0010907395
0.00015904624
0.0011313412
0.00036684134
0.0011675866
0.00011990827
0.0012075162
0.00014841309
0.0012491339
0.00010200794
0.0012917027
0.00026996321
0.0013225818
0.00017533252
0.0013611517
0.00019991777
0.0013922294
0.00019599957
0.0014285171
0.00015304018
0.0014722761
0.00015648255
0.0015037199
0.0001674592
0.0015289498
0.00012527685
0.0015641772
0.00012948242
0.0016304506
0.00016723421
0.00161926
0.00011141617
0.0016848319
0.00015067769
0.0017586387
0.00025243458
0.0017630491
0.00015005442
0.0017753598
0.00010789053
0.0018648963
0.00019041854
0.0019446205
0.00024013836
0.0019701229
0.00021567035
0.0019795497
0.00019902572
0.0020308047
0.00023385456
0.002121957
0.00025033107
0.00025941545
0.0021802997
0.00097196986
-0.0001137963
0.00098454875
6.97195e-05
0.001001195
0.00036058074
0.0010440961
0.00010128923
0.0010804486
0.0001292505
0.0011090716
0.00022049766
0.001148927
9.4129556e-05
0.0011864046
0.00013016757
0.001235813
0.00011273144
0.0012716881
0.00020832689
0.0013096553
0.0001492227
0.0013509839
0.00017442662
0.0013803128
0.00015845827
0.0014207023
0.0001460122
0.0014614881
0.00010675978
0.0014899267
0.00010726929
0.0015234963
0.00010686635
0.0015652339
0.0001128073
0.0016236953
0.00015829737
0.0016202128
6.7790604e-05
0.0016948089
0.00014341833
0.0017483358
0.00023431667
0.0017596355
0.00011104569
0.0017825647
8.1577349e-05
0.0018646873
0.00016862979
0.0019288389
0.00022952388
0.0019529091
0.00016455241
0.0019734578
0.0001321346
0.0020184356
0.00016128752
0.002098939
0.00018543004
0.00017193181
0.002159969
0.00098914155
-6.7908013e-05
0.0010076782
0.00010743102
0.00101489
0.00038775839
0.0010553717
0.00016507744
0.0010861177
9.389862e-05
0.0011077861
2.335352e-05
0.0011517067
0.00010158155
0.0011876897
0.00012519081
0.0012343411
0.00014455479
0.0012612989
9.9401689e-05
0.0013025688
0.00011594533
0.0013400302
0.0001181451
0.0013722039
8.2901828e-05
0.0014086167
0.00013235978
0.0014546856
7.0478045e-05
0.0014831406
7.1550791e-05
0.0015177692
0.00010002491
0.0015596652
0.00011219982
0.001600273
0.00015355871
0.0016218585
6.7863784e-06
0.0016923414
0.00015682949
0.0017050565
0.00017152955
0.001727599
4.8033351e-05
0.0017744697
3.1664016e-05
0.001854553
0.00015309216
0.0018963753
0.00016884509
0.0019294515
0.00010292509
0.0019574668
9.4256908e-05
0.0019934494
0.00011460799
0.0020542015
0.00013773308
0.00014961992
0.0021106222
0.0010358709
-4.5625566e-05
0.0010365921
0.00012730076
0.0010427682
0.00036337424
0.0010852801
0.00018653207
0.0011093056
7.2833771e-05
0.0011323615
-0.00011440068
0.0011738852
0.00010276096
0.0012056823
0.00010871988
0.0012450138
0.00015495061
0.0012681331
1.4089662e-05
0.0013063625
7.7752323e-05
0.001339128
4.5224178e-05
0.0013707194
1.7982515e-05
0.0014065181
9.369817e-05
0.0014470198
4.7588289e-05
0.0014790235
5.6125379e-05
0.0015139268
9.5249876e-05
0.0015597953
8.8788348e-05
0.0015830355
0.00011927851
0.0016114571
-4.0407818e-05
0.0016779563
0.00014586693
0.0016797638
9.9470281e-05
0.0017248546
-1.6635268e-05
0.001772222
-1.5604608e-05
0.0018327821
0.00012602664
0.001857339
0.00010475214
0.0018906195
5.6094565e-05
0.0019330277
6.6606679e-05
0.0019768348
5.7279547e-05
0.00202939
7.4794955e-05
0.00012716179
0.0020717887
0.0010531727
-4.3597213e-05
0.0010287445
0.00012531919
0.0010427742
0.00029077136
0.0010931245
0.00010680392
0.0011209161
4.1866558e-05
0.0011582544
-0.00012198321
0.0011982579
7.5397997e-05
0.0012291624
7.1592695e-05
0.0012592604
9.1084375e-05
0.0012916022
-1.1979721e-05
0.0013244043
4.3778908e-05
0.0013553203
9.9433335e-06
0.0014001472
-1.3471851e-05
0.0014207024
5.8048825e-05
0.0014744859
-7.685949e-07
0.0015013436
3.9029747e-05
0.0015314424
7.1461458e-05
0.0015711777
4.5200203e-05
0.0015659671
6.5625571e-05
0.0016795039
-9.8113398e-05
0.0016863949
0.00011102603
0.0016573693
8.5606569e-05
0.0017162268
-5.2574807e-05
0.0018301776
-8.7851632e-05
0.0018365381
0.00010909603
0.0018600301
4.4944223e-05
0.0019169358
-5.2692018e-06
0.0019210819
9.8336007e-05
0.0019679993
2.1503719e-05
0.0020330968
2.8218859e-06
8.1400665e-05
0.0020536416
0.00084592774
0.00091905217
0.0011960902
0.001185011
0.0012225555
0.0012749036
0.001298235
0.0013499056
0.0013752867
0.0014387669
0.0014880078
0.0015163741
0.0015480394
0.0016097124
0.0015915625
0.0016272167
0.0016928558
0.0017585355
0.0017416887
0.001773539
0.0018464631
0.0018827878
0.0018825139
0.0018681421
0.0019382191
0.0019240306
0.0019132333
0.0020506742
0.0021333299
0.0021621273
0.0021998096
5.7287815e-05
0.0020661158
0.00012790089
0.0019915086
0.00024641437
0.0020172871
0.00030403826
0.0020425118
0.00029175347
0.0020775697
0.00033376513
0.0020939314
0.00045446853
0.0021086322
0.00050613529
0.0021394284
0.00046434123
0.0021914634
0.00053749941
0.0022517973
0.00075217657
0.0023019721
0.00086786177
0.0023396599
0.00087220454
0.0023694722
0.00094996008
0.0023914723
0.0010180678
0.0023991593
0.00096362272
0.002425269
0.0010438673
0.0024944303
0.001250855
0.0025755868
0.0013076418
0.0026456704
0.00124624
0.0026989338
0.0012782255
0.002755888
0.001367527
0.0028146562
0.0028762607
0.0014653292
0.00012850949
0.0019516247
0.00020514648
0.0019735091
0.00025668589
0.00196841
0.00024680342
0.0019878979
0.00026742031
0.0020126975
0.00037446684
0.0020286983
0.00047553731
0.0020363794
0.0004611425
0.0020515107
0.00042697989
0.0020944059
0.00053663851
0.0021684411
0.00071224111
0.0022384016
0.00074999615
0.0022746399
0.00072789675
0.0022944194
0.00080468793
0.0023264753
0.00092466878
0.0023761621
0.00097831769
0.0024326129
0.0010898128
0.002487679
0.0012604039
0.0025228172
0.0012815224
0.0025339386
0.0012276611
0.0025492139
0.0012422908
0.0025954222
0.0013284703
0.0026842214
0.0027947908
0.0014431512
4.0283036e-05
0.0019695993
0.00011038415
0.0019091282
0.0001305016
0.0018944563
0.00015746083
0.0019164697
0.00024836991
0.0019439763
0.00035043439
0.0019688803
0.00040202487
0.0019775884
0.00042529525
0.0019961413
0.00050938525
0.0020389221
0.00062184892
0.0020883037
0.00064293148
0.0021240265
0.00059933625
0.0021501246
0.00063743972
0.0021955664
0.00077431756
0.0022631549
0.00090289724
0.0023359381
0.0009522199
0.0024011782
0.0010096722
0.0024463799
0.0010837641
0.0024702642
0.0011089858
0.0024854291
0.0011785039
0.0025098498
0.0012979542
0.0025471082
0.0014475171
0.0025999422
0.0026509346
0.0015154588
-4.1947839e-05
0.0019462546
-2.0239917e-05
0.00185058
4.4552318e-05
0.0018448256
0.00015468879
0.001880904
0.00025351302
0.0019037007
0.00030924164
0.0019247037
0.00035938488
0.0019379264
0.00043825016
0.0019611725
0.00050704526
0.0019953712
0.00051957709
0.0020307703
0.00051464978
0.0020640727
0.00058621023
0.0020978116
0.00073413002
0.0021406619
0.00086616254
0.0021911514
0.00091356908
0.0022399586
0.00089008364
0.0022799034
0.0008892075
0.0023148112
0.00091990783
0.0023545821
0.00095725803
0.0024101405
0.001082976
0.0024837276
0.0012569431
0.0025541323
0.0014355179
0.0026075047
0.0026130627
0.0015022638
-2.035531e-06
0.001874161
3.0696705e-05
0.0017841745
9.8938164e-05
0.0017880152
0.00016189803
0.0018280101
0.00021710921
0.0018589154
0.00028497244
0.0018837483
0.00037208347
0.0018953454
0.0004312271
0.0019074168
0.00041219427
0.0019291425
0.00037197712
0.0019659443
0.00043079486
0.0020169287
0.00060377485
0.002070631
0.00077722333
0.0021128905
0.00084862066
0.0021426972
0.000818036
0.0021617611
0.00078086287
0.0021818113
0.00082929004
0.0022163379
0.00091483494
0.0022646393
0.00098883596
0.002325
0.001099301
0.0024006492
0.0011986887
0.0024768425
0.0012715041
0.0025454304
0.0025754539
0.0012997041
9.7367229e-05
0.0018308934
0.00017238637
0.0017451019
0.00019630993
0.0017363943
0.00019637113
0.0017657687
0.00019909482
0.0017948815
0.00024113424
0.001817788
0.00030674039
0.0018325718
0.00034107295
0.0018481033
0.0003445799
0.0018753832
0.00038458007
0.0019181371
0.00049583258
0.0019704204
0.00062115743
0.0020197572
0.00068273501
0.0020563067
0.00066052156
0.0020822133
0.00062724428
0.0021059327
0.00068668201
0.0021374246
0.00082634928
0.0021809173
0.00095814252
0.0022297787
0.001065779
0.002278568
0.001162397
0.002327265
0.0011928529
0.0023674226
0.0011761637
0.0024110866
0.0024472836
0.0011439851
0.00012557627
0.0018018363
0.00018577898
0.0017278521
0.00018951912
0.0017103693
0.0001729572
0.0017236985
0.0001704221
0.0017451095
0.00019797047
0.0017661067
0.00024670662
0.0017875486
0.00030502914
0.0018130247
0.00037895624
0.0018449023
0.00047213407
0.0018804438
0.00055468358
0.0019151135
0.00057147797
0.0019464026
0.00052889333
0.0019761788
0.00048361565
0.0020089636
0.00051571161
0.0020483833
0.00065887383
0.002094174
0.00083746581
0.0021410528
0.00096431085
0.0021872687
0.0010281331
0.0022273895
0.0010568686
0.0022608424
0.0010643256
0.002283881
0.0010870039
0.0023118642
0.0023412754
0.0011182067
3.7746006e-05
0.0017403012
4.3746148e-05
0.0016882967
5.5841305e-05
0.0016781895
9.3300344e-05
0.0016918158
0.00015018997
0.0017171641
0.00021835188
0.0017414063
0.00028196982
0.0017645869
0.00033778271
0.0017866842
0.00039320179
0.001808819
0.00044348927
0.0018303882
0.00046600459
0.0018523647
0.00045349518
0.0018784918
0.00043091336
0.0019116936
0.00045086084
0.001952372
0.00054128518
0.0019973304
0.00068773273
0.0020426537
0.00083427663
0.0020867734
0.00090971497
0.0021280736
0.00089756509
0.0021598855
0.00084875009
0.0021865869
0.00084838883
0.0022141472
0.0009371921
0.0022551584
0.0022964737
0.0010751444
-1.0507906e-05
0.0016788509
-1.1578898e-05
0.0016459599
3.069114e-05
0.0016450225
0.00011414958
0.0016616242
0.00020652236
0.0016887694
0.00026815776
0.0017117464
0.00028367141
0.0017315168
0.00027324179
0.0017491969
0.00026756651
0.0017665892
0.00028844657
0.0017852813
0.00033464555
0.0018075135
0.00039156806
0.001835906
0.00044391817
0.0018714288
0.00050560372
0.0019129474
0.00059853127
0.0019565939
0.00071270914
0.0019954944
0.00078721567
0.0020267462
0.00078431326
0.002053749
0.00072342862
0.0020788567
0.00067794474
0.0021102033
0.00071318944
0.0021501457
0.00083644797
0.0022041862
0.0022585271
0.0010193679
2.6115685e-05
0.0016479574
6.578784e-05
0.0016235002
0.00012832853
0.0016186045
0.00019935694
0.0016288529
0.00024612126
0.0016511562
0.00024337528
0.0016713169
0.00019445433
0.0016887315
0.00013153765
0.0017060106
0.00010796
0.0017272502
0.00015854121
0.0017530347
0.00027551086
0.0017826572
0.00040925294
0.0018135865
0.00051533307
0.0018451813
0.00057902868
0.0018774185
0.00061064791
0.0019091959
0.00062194824
0.0019389924
0.00061868316
0.0019650597
0.00060268072
0.0019889823
0.00059466732
0.0020140578
0.00062356403
0.0020464083
0.00069834962
0.0020876054
0.00082418353
0.0021415371
0.0021978812
0.00097543185
4.5928603e-05
0.0016250773
9.7998065e-05
0.0016093863
0.00015660279
0.0015997117
0.00019759542
0.0016028745
0.00020034399
0.0016173852
0.00015907911
0.0016331607
0.00010373055
0.0016512229
7.8094338e-05
0.0016732184
0.00010134828
0.0016989675
0.00018019074
0.001727248
0.00029747391
0.0017566482
0.0004192701
0.0017855753
0.0005053359
0.001812801
0.00053268307
0.0018385522
0.00050838624
0.0018628687
0.00045534745
0.0018868853
0.0004189863
0.0019118758
0.00043310298
0.0019396637
0.000503657
0.0019698478
0.0006134438
0.0020046533
0.00072972269
0.002043048
0.00084525408
0.0020885265
0.0021359726
0.00093797217
9.8745663e-06
0.0016002016
1.4927789e-05
0.0015959372
2.8833728e-05
0.0015856897
5.0407328e-05
0.0015888311
7.8305252e-05
0.0016024641
0.00010525238
0.0016170976
0.00013009065
0.0016327078
0.00015375687
0.0016503222
0.00018814885
0.0016720444
0.00024692064
0.0016982068
0.00031900721
0.0017255568
0.00037781742
0.0017519124
0.00039891031
0.0017759053
0.0003745529
0.0017985481
0.00032053572
0.0018216682
0.00027190567
0.0018473168
0.00027663232
0.0018765689
0.00034653238
0.0019085803
0.00046372277
0.0019410692
0.00060184969
0.0019736591
0.00072804386
0.0020057931
0.00082114713
0.0020411414
0.0020772991
0.00085036186
-6.7181099e-05
0.0015692302
-0.00011354961
0.0015785024
-0.0001183848
0.0015718138
-7.5413003e-05
0.0015796083
-4.9090626e-06
0.0015944706
8.2474687e-05
0.0016085348
0.00016625704
0.0016225341
0.00022630566
0.0016374219
0.00026234296
0.0016549417
0.00028357048
0.0016751522
0.00028823191
0.0016971748
0.00027345815
0.0017201965
0.00024061859
0.0017423306
0.00019897772
0.0017650461
0.00016805113
0.0017899599
0.00017123876
0.0018178245
0.00022108401
0.0018484825
0.00030961836
0.0018806749
0.0004232356
0.0019128881
0.00054116948
0.0019440428
0.00063857078
0.0019718971
0.0006903217
0.0020000842
0.002028159
0.00068101146
-9.7105018e-05
0.0015398605
-0.00016151168
0.001558955
-0.00016707297
0.0015544135
-0.00011617387
0.0015659047
-2.1713011e-05
0.0015842778
8.6148428e-05
0.0016018936
0.00017420358
0.0016168826
0.0002227326
0.0016308609
0.0002292993
0.001645891
0.00020677064
0.0016626455
0.00016958908
0.0016810891
0.00013035929
0.0017010917
9.9252173e-05
0.0017217088
8.7587577e-05
0.0017438281
0.00010120246
0.0017671917
0.00014114931
0.001793374
0.00020395579
0.0018229538
0.00028374815
0.001854708
0.00036714178
0.0018856556
0.00043414457
0.0019153627
0.00046917736
0.0019411959
0.00046462141
0.0019662638
0.0019926012
0.00043240278
-6.2851268e-05
0.0015188656
-9.6187861e-05
0.0015478503
-7.9154853e-05
0.0015459845
-1.9424218e-05
0.0015607356
5.8922885e-05
0.0015815602
0.0001275443
0.0016004627
0.00015739496
0.0016151634
0.00014209565
0.0016275929
8.8985668e-05
0.0016405801
2.7267868e-05
0.0016552558
-1.9391422e-05
0.0016728358
-3.4347053e-05
0.0016925892
-1.6837537e-05
0.0017137107
2.1212097e-05
0.0017348869
8.2131181e-05
0.0017571408
0.00014601956
0.001780938
0.00020999976
0.0018064501
0.00025830495
0.0018339298
0.00028479642
0.0018620371
0.00028318387
0.0018891282
0.00025844154
0.0019137112
0.00022383557
0.0019394694
0.001966619
0.00018918532
2.7396019e-05
0.0015136159
5.5052209e-05
0.0015502207
9.2803792e-05
0.0015489424
0.00013026366
0.0015623048
0.00015039929
0.0015811773
0.00013963239
0.0015993239
8.9881744e-05
0.0016131046
6.2079945e-06
0.0016244885
-8.8434784e-05
0.001636646
-0.00016802269
0.0016521545
-0.00020602026
0.0016708097
-0.00019175219
0.001691873
-0.00012756216
0.0017139914
-3.4191115e-05
0.0017365712
5.629369e-05
0.0017591679
0.00013481152
0.001781311
0.00017336172
0.0018045196
0.000174032
0.0018280284
0.00014308608
0.0018509264
9.3629866e-05
0.001874575
3.8979205e-05
0.0018980015
-5.6103898e-06
0.0019230502
0.0019505943
-3.2252119e-05
9.1636001e-05
0.0015224688
0.00016135728
0.0015691815
0.00021069993