/*--------------------------------*- C++ -*----------------------------------*\
| =========                 |                                                 |
| \\      /  F ield         | OpenFOAM: The Open Source CFD Toolbox           |
|  \\    /   O peration     | Version:  2406                                  |
|   \\  /    A nd           | Website:  www.openfoam.com                      |
|    \\/     M anipulation  |                                                 |
\*---------------------------------------------------------------------------*/
FoamFile
{
    version     2.0;
    format      ascii;
    arch        "LSB;label=32;scalar=64";
    class       volScalarField;
    location    "60";
    object      alphat;
}
// * * * * * * * * * * * * * * * * * * * * * * * * * * * * * * * * * * * * * //

dimensions      [1 -1 -1 0 0 0 0];

internalField   nonuniform List<scalar> 
20580
(
8.9553557e-07
8.7427197e-07
8.6399544e-07
8.6729455e-07
8.6336016e-07
8.5772177e-07
8.4977488e-07
8.4405974e-07
8.3497782e-07
8.2680463e-07
8.1740382e-07
8.1081523e-07
8.0314473e-07
7.999282e-07
7.9088334e-07
7.8683319e-07
7.8284872e-07
7.7833701e-07
7.7464781e-07
7.8278705e-07
7.8203604e-07
7.8563525e-07
7.849021e-07
7.9486101e-07
8.0058744e-07
8.136355e-07
8.3288342e-07
8.4212611e-07
8.5819202e-07
8.9172336e-07
9.298178e-07
8.9543621e-07
8.9581525e-07
8.7297658e-07
8.6955148e-07
8.6370815e-07
8.5714084e-07
8.5108675e-07
8.4662618e-07
8.3708219e-07
8.306811e-07
8.2123993e-07
8.1318872e-07
8.0632658e-07
8.0145306e-07
7.923895e-07
7.880128e-07
7.8368368e-07
7.7736705e-07
7.7700199e-07
7.8162317e-07
7.8323823e-07
7.896085e-07
7.9123907e-07
7.9919999e-07
8.0294291e-07
8.1820617e-07
8.4383549e-07
8.6132209e-07
8.6613863e-07
8.9448577e-07
9.3842268e-07
8.9443603e-07
9.0630111e-07
8.8089978e-07
8.742509e-07
8.648932e-07
8.5617402e-07
8.5014166e-07
8.458321e-07
8.3653252e-07
8.3053582e-07
8.227875e-07
8.1390213e-07
8.0828003e-07
8.0364642e-07
7.9324217e-07
7.9060621e-07
7.8486507e-07
7.7752865e-07
7.7946451e-07
7.7934223e-07
7.8061812e-07
7.8908082e-07
7.9240707e-07
7.9802639e-07
8.0142578e-07
8.1537619e-07
8.4089899e-07
8.6053733e-07
8.6573801e-07
8.8640424e-07
9.369044e-07
8.938881e-07
9.0855838e-07
8.8828708e-07
8.8001515e-07
8.6888291e-07
8.5751596e-07
8.5135268e-07
8.4582328e-07
8.3497721e-07
8.294683e-07
8.2107353e-07
8.1391916e-07
8.0803858e-07
8.0364778e-07
7.951338e-07
7.9107849e-07
7.8690979e-07
7.7787068e-07
7.829061e-07
7.7835246e-07
7.7802795e-07
7.8946946e-07
7.9248757e-07
7.9604192e-07
8.0308244e-07
8.1233148e-07
8.3580299e-07
8.5298556e-07
8.598405e-07
8.6988301e-07
9.1652127e-07
8.9328732e-07
9.1112249e-07
9.0273035e-07
8.9374188e-07
8.7986311e-07
8.646232e-07
8.5617345e-07
8.4881019e-07
8.373398e-07
8.2939894e-07
8.2033589e-07
8.136716e-07
8.0707918e-07
8.0292833e-07
7.9548891e-07
7.9222062e-07
7.8649455e-07
7.8026839e-07
7.8451503e-07
7.7874724e-07
7.7839938e-07
7.8990372e-07
7.9474967e-07
7.9403977e-07
8.0723381e-07
8.1204387e-07
8.3108235e-07
8.5440042e-07
8.6337915e-07
8.6871356e-07
8.9306688e-07
8.9205e-07
9.1560934e-07
9.1489027e-07
9.1802087e-07
9.0708499e-07
8.8493708e-07
8.6925516e-07
8.5725884e-07
8.4424466e-07
8.3275547e-07
8.2282357e-07
8.1522553e-07
8.0785478e-07
8.0164693e-07
7.9590929e-07
7.9118028e-07
7.8530567e-07
7.8019947e-07
7.8590628e-07
7.7657584e-07
7.8051914e-07
7.9117694e-07
7.9357192e-07
7.9296198e-07
8.0945609e-07
8.1414304e-07
8.232034e-07
8.5390839e-07
8.7112416e-07
8.9117384e-07
8.985766e-07
8.9062794e-07
9.1919707e-07
9.1758905e-07
9.264113e-07
9.2724987e-07
9.1762592e-07
9.0477159e-07
8.8718982e-07
8.7027455e-07
8.4890348e-07
8.3411978e-07
8.227496e-07
8.1309356e-07
8.049382e-07
7.9840603e-07
7.9243192e-07
7.8546365e-07
7.8176606e-07
7.8478105e-07
7.7601436e-07
7.7978566e-07
7.9036933e-07
7.9013125e-07
7.8958573e-07
8.0371827e-07
8.1340089e-07
8.1270393e-07
8.3626692e-07
8.7079777e-07
8.9804155e-07
9.1655318e-07
8.9114321e-07
9.1859447e-07
9.1849852e-07
9.2946828e-07
9.3035038e-07
9.291388e-07
9.2850916e-07
9.1976321e-07
9.0830063e-07
8.8907707e-07
8.6905982e-07
8.4833155e-07
8.3296503e-07
8.1728223e-07
8.0762965e-07
7.9793847e-07
7.8936096e-07
7.8634041e-07
7.8512664e-07
7.7780797e-07
7.8080745e-07
7.8862999e-07
7.8915361e-07
7.89116e-07
7.9953671e-07
8.085962e-07
8.0639431e-07
8.1336653e-07
8.4594174e-07
8.7839388e-07
9.1540268e-07
8.9838614e-07
9.2220567e-07
9.2062763e-07
9.2620689e-07
9.2822856e-07
9.2958955e-07
9.2972826e-07
9.2470434e-07
9.1392536e-07
9.0326733e-07
8.9031896e-07
8.7723236e-07
8.6551782e-07
8.5067432e-07
8.393982e-07
8.2272203e-07
8.1049248e-07
8.0350589e-07
7.9267181e-07
7.8487553e-07
7.8507471e-07
7.8750512e-07
7.9155571e-07
7.9168063e-07
7.9878667e-07
8.0713079e-07
8.0964169e-07
8.1196901e-07
8.3290787e-07
8.6329644e-07
8.9022798e-07
9.2153458e-07
1.0177626e-06
9.7211239e-07
9.5774944e-07
9.4411229e-07
9.3630675e-07
9.3037401e-07
9.2377852e-07
9.1153526e-07
9.010635e-07
8.896001e-07
8.8015841e-07
8.7058116e-07
8.6242176e-07
8.5501057e-07
8.4527459e-07
8.3382231e-07
8.3048657e-07
8.1804497e-07
8.1210924e-07
8.0956447e-07
8.0208415e-07
8.0388587e-07
8.0660609e-07
8.1293349e-07
8.1647508e-07
8.2192197e-07
8.2350539e-07
8.3522306e-07
8.6090737e-07
8.9103451e-07
1.0860439e-06
1.2165909e-06
1.2262669e-06
1.1715961e-06
1.0813081e-06
1.02256e-06
9.8572768e-07
9.5857301e-07
9.3243635e-07
9.1197448e-07
8.9631329e-07
8.8497704e-07
8.7540445e-07
8.677269e-07
8.5890613e-07
8.5112486e-07
8.409929e-07
8.3724057e-07
8.2684496e-07
8.2285861e-07
8.2388655e-07
8.1604629e-07
8.2149866e-07
8.2634968e-07
8.2787388e-07
8.3145323e-07
8.4513926e-07
8.503932e-07
8.5687203e-07
8.7666006e-07
9.0931272e-07
8.9866341e-07
1.0645094e-06
1.2204445e-06
1.2935964e-06
1.312799e-06
1.2942501e-06
1.2475181e-06
1.1842363e-06
1.1128653e-06
1.0372798e-06
9.7917451e-07
9.4083075e-07
9.1366541e-07
8.9697955e-07
8.8020653e-07
8.6863213e-07
8.571156e-07
8.4848402e-07
8.3910175e-07
8.3657216e-07
8.3700584e-07
8.245755e-07
8.3079396e-07
8.3954765e-07
8.3784046e-07
8.3467846e-07
8.5037289e-07
8.6066937e-07
8.6224141e-07
8.6803043e-07
8.9869583e-07
8.905144e-07
9.6015818e-07
1.0619977e-06
1.1465896e-06
1.2185407e-06
1.2581509e-06
1.2798827e-06
1.2700601e-06
1.2370295e-06
1.2035297e-06
1.1678139e-06
1.1350466e-06
1.0989866e-06
1.0681496e-06
1.0343854e-06
1.0025846e-06
9.7947906e-07
9.4695073e-07
9.2102145e-07
9.0552431e-07
8.9403748e-07
8.6855373e-07
8.6451107e-07
8.6994733e-07
8.6334793e-07
8.5082328e-07
8.5438055e-07
8.7121419e-07
8.7331264e-07
8.686153e-07
8.7743168e-07
9.4944932e-07
1.0531806e-06
1.0660661e-06
1.0936935e-06
1.0956162e-06
1.1176531e-06
1.133725e-06
1.1331971e-06
1.1276344e-06
1.1199845e-06
1.1278989e-06
1.1229847e-06
1.1216149e-06
1.1193501e-06
1.1089996e-06
1.0976498e-06
1.0866901e-06
1.0713545e-06
1.0575673e-06
1.0497039e-06
1.0383231e-06
1.0148065e-06
9.9804757e-07
9.9540651e-07
9.7766906e-07
9.4895547e-07
9.2835237e-07
9.2109154e-07
9.1459704e-07
9.0323935e-07
8.9104977e-07
8.9670679e-07
9.6761974e-07
1.0346026e-06
1.0848395e-06
1.1027491e-06
1.1111374e-06
1.1063415e-06
1.0918408e-06
1.0694701e-06
1.0477464e-06
1.0298874e-06
1.028287e-06
1.0322283e-06
1.0346386e-06
1.034898e-06
1.0350027e-06
1.0313832e-06
1.033026e-06
1.0303107e-06
1.0300435e-06
1.0305382e-06
1.024778e-06
1.0239438e-06
1.0302426e-06
1.0333624e-06
1.0246558e-06
1.0195939e-06
1.0223975e-06
1.0257611e-06
1.0210723e-06
1.0023309e-06
9.5635183e-07
1.054291e-06
1.0532159e-06
1.0546918e-06
1.0578141e-06
1.0691995e-06
1.0708147e-06
1.0698383e-06
1.057592e-06
1.0431846e-06
1.0274901e-06
1.0169521e-06
1.0130844e-06
1.0075807e-06
1.0048642e-06
9.9877251e-07
9.9594242e-07
9.8424666e-07
9.8310297e-07
9.787284e-07
9.7851819e-07
9.7866443e-07
9.8507511e-07
9.9094335e-07
1.0019218e-06
1.011594e-06
1.0131267e-06
1.0146425e-06
1.0294629e-06
1.0473559e-06
1.0573291e-06
8.5179781e-07
9.2048991e-07
1.0044976e-06
1.030909e-06
1.0410991e-06
1.0488206e-06
1.036629e-06
1.0193403e-06
1.002802e-06
9.8948288e-07
9.8093839e-07
9.7607005e-07
9.7703921e-07
9.7894091e-07
9.856537e-07
9.8611865e-07
9.8528972e-07
9.7465686e-07
9.7712738e-07
9.7315793e-07
9.6462885e-07
9.6437932e-07
9.6859769e-07
9.6148307e-07
9.6491909e-07
9.7892549e-07
9.8175608e-07
9.7867484e-07
9.8436777e-07
1.0059949e-06
1.0363668e-06
8.8376361e-07
9.6283256e-07
9.5817493e-07
9.7044227e-07
9.9062829e-07
1.0078896e-06
1.0145621e-06
1.0106477e-06
9.9742241e-07
9.8326756e-07
9.6603576e-07
9.51208e-07
9.3948388e-07
9.3061474e-07
9.2948479e-07
9.2874608e-07
9.2314043e-07
9.1843806e-07
9.2462945e-07
9.2097199e-07
9.1392877e-07
9.2140134e-07
9.2650048e-07
9.1618951e-07
9.1449364e-07
9.306954e-07
9.3733789e-07
9.2765337e-07
9.1923376e-07
9.2956191e-07
9.5458135e-07
8.8271966e-07
9.3565651e-07
9.3430029e-07
9.5823947e-07
9.5372973e-07
9.4725196e-07
9.5209193e-07
9.5614344e-07
9.5592872e-07
9.5155588e-07
9.4692773e-07
9.435973e-07
9.3860692e-07
9.3671902e-07
9.358161e-07
9.3244814e-07
9.2757163e-07
9.2244715e-07
9.2249096e-07
9.1660749e-07
9.0635213e-07
9.1180819e-07
9.171354e-07
9.0601716e-07
8.9885786e-07
9.1177201e-07
9.2388818e-07
9.2138333e-07
9.1501841e-07
9.2054798e-07
9.3472353e-07
8.8440906e-07
9.3950474e-07
9.34325e-07
9.5991292e-07
9.6214275e-07
9.548931e-07
9.5379753e-07
9.5227703e-07
9.5282346e-07
9.5174982e-07
9.5315822e-07
9.5891461e-07
9.6805572e-07
9.7554509e-07
9.8649958e-07
9.9463248e-07
9.962986e-07
1.0091302e-06
1.0100099e-06
1.0095014e-06
1.0073792e-06
1.0106329e-06
1.0159392e-06
1.0085574e-06
9.9913204e-07
1.007004e-06
6.8795055e-07
1.003582e-06
9.607677e-07
1.019987e-06
1.0040366e-06
8.8038225e-07
9.5860793e-07
1.0105536e-06
1.1062557e-06
1.1676227e-06
1.2173616e-06
1.2493033e-06
1.2788321e-06
1.3151629e-06
1.3449675e-06
1.3784885e-06
1.4034161e-06
1.4234228e-06
1.4477084e-06
1.4683997e-06
1.4981723e-06
1.556073e-06
1.5572705e-06
1.5825501e-06
1.610679e-06
1.6201345e-06
1.6420594e-06
1.1965339e-06
1.6919103e-06
1.6962139e-06
1.7229201e-06
9.2336837e-07
1.0968523e-06
1.826245e-06
1.8441613e-06
1.7839622e-06
1.0831318e-06
1.7246085e-06
1.9459782e-06
2.2202991e-06
2.2261035e-06
2.3149453e-06
2.369067e-06
2.3826415e-06
2.5527865e-06
2.5602212e-06
2.7009185e-06
2.6992075e-06
2.7899799e-06
2.8137564e-06
2.8290386e-06
2.9387253e-06
3.1273816e-06
3.0562952e-06
2.801782e-06
3.1370989e-06
3.2240199e-06
3.2489685e-06
2.4693714e-06
3.3827723e-06
3.4417758e-06
3.4886581e-06
2.5150917e-06
2.7399613e-06
3.6785466e-06
3.7520373e-06
3.7586759e-06
1.0632073e-06
2.2329051e-06
2.8175378e-06
2.073142e-06
1.8735903e-06
1.9342163e-06
1.833656e-06
1.863946e-06
1.9184065e-06
1.7670853e-06
1.9479028e-06
1.823529e-06
2.0555578e-06
1.8352877e-06
2.1612093e-06
2.1512411e-06
2.258821e-06
1.9162805e-06
2.5102117e-06
2.104285e-06
2.3906794e-06
2.2105026e-06
3.0941496e-06
2.5361699e-06
2.5890399e-06
2.583358e-06
3.8246774e-06
3.8927156e-06
3.3027653e-06
2.8486914e-06
3.8179014e-06
3.5847447e-06
3.7928482e-06
1.2636785e-06
6.8655338e-07
9.5294181e-07
9.6476835e-07
1.0342215e-06
1.0679763e-06
1.0288756e-06
9.2845892e-07
9.1243179e-07
9.3283438e-07
9.4041564e-07
9.146193e-07
9.0097268e-07
9.1970863e-07
9.4293253e-07
9.4945298e-07
9.4873361e-07
9.6067997e-07
9.7768315e-07
9.6511855e-07
9.4351859e-07
2.5846083e-06
2.6616656e-06
1.5988524e-06
1.2576367e-06
9.7674959e-07
9.5411984e-07
1.0146833e-06
1.085126e-06
1.0754864e-06
9.8958999e-07
9.6064166e-07
9.7887857e-07
9.8469784e-07
9.5818984e-07
9.2140305e-07
9.3417214e-07
9.8462484e-07
1.0052861e-06
9.9728212e-07
9.8817001e-07
9.943726e-07
1.0139722e-06
1.0059027e-06
7.6211354e-07
1.689244e-06
2.521688e-06
8.0780332e-07
8.7593699e-07
9.5434774e-07
1.009972e-06
1.1159753e-06
1.1350398e-06
1.0625695e-06
9.8293816e-07
9.8915118e-07
1.010114e-06
1.000644e-06
9.7207638e-07
9.8253218e-07
1.0274629e-06
1.0416978e-06
1.0262188e-06
1.0051278e-06
1.0097143e-06
1.0447012e-06
1.0598957e-06
7.7847406e-07
1.1314477e-06
2.6380143e-06
1.0434313e-06
5.1053394e-07
6.966603e-07
1.0502643e-06
1.1706179e-06
1.1805746e-06
1.1078286e-06
1.0024598e-06
1.0020324e-06
1.0434794e-06
1.0637941e-06
1.0594088e-06
1.0486408e-06
1.0661896e-06
1.1010997e-06
1.0849028e-06
1.0578675e-06
1.0540792e-06
1.087309e-06
1.1106633e-06
1.4618114e-06
3.3913788e-06
2.1637095e-06
6.9571534e-07
6.2782292e-07
1.0669189e-06
1.1019338e-06
1.2062755e-06
1.2155808e-06
1.1550906e-06
1.0488977e-06
1.0416117e-06
1.0855285e-06
1.1206358e-06
1.118853e-06
1.0822131e-06
1.0832513e-06
1.1333523e-06
1.1398346e-06
1.1388109e-06
1.1357041e-06
1.1538261e-06
1.1830586e-06
2.4151163e-06
3.6285023e-06
1.9388391e-06
9.7553113e-07
7.7484439e-07
6.9997907e-07
1.1108613e-06
1.2398186e-06
1.2744553e-06
1.2510463e-06
1.1477468e-06
1.1211399e-06
1.1741017e-06
1.184877e-06
1.1607516e-06
1.1080013e-06
1.0929986e-06
1.134216e-06
1.1851615e-06
1.2140549e-06
1.223758e-06
1.2364528e-06
1.2581859e-06
1.7765722e-06
3.7430432e-06
2.3114218e-06
9.3510456e-07
6.3255309e-07
8.9042313e-07
1.0999154e-06
1.25706e-06
1.3483843e-06
1.3613085e-06
1.2896691e-06
1.2141195e-06
1.2395176e-06
1.2741026e-06
1.2390903e-06
1.195208e-06
1.1514059e-06
1.1704969e-06
1.2436241e-06
1.2665482e-06
1.2709677e-06
1.263103e-06
1.2679602e-06
1.7483304e-06
3.7393593e-06
1.9425558e-06
6.6241457e-07
4.3174476e-07
4.6933048e-07
6.5235224e-07
1.3044377e-06
1.4338935e-06
1.4374634e-06
1.3728836e-06
1.2642124e-06
1.2536762e-06
1.3086423e-06
1.3164298e-06
1.3151684e-06
1.2818711e-06
1.2792469e-06
1.3307639e-06
1.3539267e-06
1.3482188e-06
1.3313273e-06
1.3133319e-06
6.4956153e-07
1.4681393e-06
2.7111569e-06
2.7001724e-06
8.29903e-07
5.8463169e-07
6.8906478e-07
1.4117247e-06
1.5290796e-06
1.5035478e-06
1.4210067e-06
1.2894886e-06
1.265974e-06
1.3447299e-06
1.381514e-06
1.3926767e-06
1.3927413e-06
1.3899226e-06
1.4348593e-06
1.4507588e-06
1.4187176e-06
1.3857344e-06
1.3671881e-06
1.6537735e-06
2.9916559e-06
3.6196676e-06
2.5955829e-06
1.900473e-06
2.2886313e-06
1.7770865e-06
1.6205614e-06
1.6724039e-06
1.6390973e-06
1.565382e-06
1.4106117e-06
1.3593214e-06
1.4161999e-06
1.4550418e-06
1.4515619e-06
1.4520245e-06
1.4547168e-06
1.4749902e-06
1.5337562e-06
1.5337303e-06
1.5099805e-06
1.4876183e-06
3.3947226e-06
7.1223582e-06
8.9571287e-06
8.4066359e-06
4.5639383e-06
2.4149354e-06
1.4574715e-06
1.3965662e-06
1.9550846e-06
1.8943011e-06
1.8281255e-06
1.6457479e-06
1.5113406e-06
1.5280765e-06
1.5684526e-06
1.5404044e-06
1.4948969e-06
1.4890306e-06
1.4925275e-06
1.5674276e-06
1.5813284e-06
1.5756553e-06
1.59774e-06
3.2314147e-06
8.6843195e-06
1.0659052e-05
9.4658473e-06
7.6243337e-06
3.0632984e-06
2.0479865e-06
1.8079444e-06
2.148678e-06
2.0555904e-06
1.9784824e-06
1.8332203e-06
1.6801693e-06
1.664141e-06
1.7045965e-06
1.663494e-06
1.5785158e-06
1.5304705e-06
1.5166834e-06
1.5638563e-06
1.6128452e-06
1.6337082e-06
1.6478922e-06
5.0144722e-06
1.509757e-05
7.4093961e-06
4.6404222e-06
3.6599744e-06
3.7502751e-06
2.989771e-06
2.220679e-06
2.2353765e-06
2.1761388e-06
2.0303749e-06
1.9472287e-06
1.8313097e-06
1.8088169e-06
1.9080784e-06
1.8779267e-06
1.7399042e-06
1.6532604e-06
1.6016631e-06
1.6188092e-06
1.7467775e-06
1.7812736e-06
1.7799655e-06
4.4232374e-06
1.2661529e-05
7.9007446e-06
4.3994265e-06
2.5935344e-06
1.7821081e-06
1.5058173e-06
1.4351883e-06
1.8708385e-06
2.2682516e-06
2.067083e-06
2.0054598e-06
1.9361979e-06
1.9384447e-06
2.0571644e-06
2.0428913e-06
1.9197971e-06
1.8350656e-06
1.7869033e-06
1.7698461e-06
1.8651167e-06
1.8754641e-06
1.8751977e-06
3.6234211e-06
9.1713622e-06
7.9067522e-06
7.9882026e-06
3.02135e-06
1.4583192e-06
1.1322125e-06
1.06457e-06
1.407349e-06
2.3137327e-06
2.1073208e-06
2.0402185e-06
2.0008778e-06
2.0240679e-06
2.119807e-06
2.124667e-06
2.069046e-06
2.0352513e-06
2.0713542e-06
2.0820869e-06
2.1033128e-06
2.0522698e-06
1.9737106e-06
3.055687e-06
9.3655818e-06
8.3754144e-06
7.3698387e-06
3.6366638e-06
1.9652398e-06
1.5278558e-06
1.3657069e-06
1.6289526e-06
2.4163874e-06
2.1668599e-06
2.0884391e-06
2.0485361e-06
2.0840906e-06
2.1658865e-06
2.1726436e-06
2.1581443e-06
2.1730287e-06
2.2685764e-06
2.2796663e-06
2.3169313e-06
2.3075561e-06
2.2295918e-06
2.9350721e-06
1.2260937e-05
1.0035055e-05
5.2015795e-06
3.475469e-06
3.6559993e-06
3.9608904e-06
3.4533538e-06
2.8219621e-06
2.5830705e-06
2.2937437e-06
2.1953661e-06
2.1413309e-06
2.1558656e-06
2.2260636e-06
2.2192545e-06
2.2025678e-06
2.2250378e-06
2.3879691e-06
2.4916171e-06
2.6177984e-06
2.5676494e-06
2.3870128e-06
3.8052439e-06
1.9380559e-05
1.4925715e-05
9.3652797e-06
6.865136e-06
8.3404268e-06
8.3383223e-06
6.2595002e-06
4.4334197e-06
3.2328284e-06
2.6245923e-06
2.4319472e-06
2.3401265e-06
2.3227851e-06
2.3694249e-06
2.3159505e-06
2.259721e-06
2.2588105e-06
2.442966e-06
2.5891181e-06
2.7756208e-06
2.746296e-06
2.5716737e-06
4.0264015e-06
1.6139717e-05
2.0411484e-05
2.0758621e-05
2.1159129e-05
2.1566411e-05
1.7834541e-05
1.2984085e-05
8.4432185e-06
5.401419e-06
3.6325552e-06
3.0696183e-06
2.894058e-06
2.8023303e-06
2.7409927e-06
2.5178654e-06
2.3832986e-06
2.3472801e-06
2.5714015e-06
2.7757354e-06
2.9509433e-06
2.888542e-06
2.6936319e-06
4.3971017e-06
1.4573826e-05
2.1609563e-05
2.8052572e-05
3.1810334e-05
3.1744285e-05
2.7636514e-05
2.2452055e-05
1.5685115e-05
9.9382421e-06
6.0504205e-06
4.4148237e-06
3.7040515e-06
3.3720902e-06
3.2270906e-06
3.0130357e-06
2.7278411e-06
2.6596835e-06
2.9129303e-06
3.0517889e-06
3.16834e-06
3.1289354e-06
2.8755018e-06
4.7427016e-06
1.2673715e-05
2.0482466e-05
2.7061539e-05
3.1823764e-05
3.3962671e-05
3.051106e-05
2.538534e-05
1.8865929e-05
1.2281211e-05
7.4247244e-06
5.1502882e-06
4.1720612e-06
3.7548649e-06
3.6021171e-06
3.359191e-06
2.9354516e-06
2.8313794e-06
3.1430752e-06
3.3918449e-06
3.4958654e-06
3.340131e-06
2.9487839e-06
4.3086275e-06
1.1245169e-05
1.8296472e-05
2.6045566e-05
3.1026261e-05
3.346972e-05
3.0069302e-05
2.5033853e-05
1.8743817e-05
1.2298144e-05
7.4549817e-06
5.2224819e-06
4.3031567e-06
3.9005348e-06
3.7368594e-06
3.4643307e-06
3.070664e-06
3.097235e-06
3.5911675e-06
3.8330592e-06
3.8221927e-06
3.4720158e-06
3.0636595e-06
4.1690772e-06
1.1353048e-05
1.8488107e-05
2.4109334e-05
2.7654782e-05
2.8370425e-05
2.433744e-05
2.015909e-05
1.4957549e-05
9.7692746e-06
6.0957162e-06
4.8515626e-06
4.3529236e-06
3.9841854e-06
3.8446927e-06
3.5311817e-06
3.1583919e-06
3.2667212e-06
3.7953034e-06
4.0945833e-06
4.0757762e-06
3.551527e-06
3.1744137e-06
4.3921966e-06
1.1392532e-05
1.9387665e-05
2.4284275e-05
2.4538907e-05
2.1802954e-05
1.8259506e-05
1.4789912e-05
1.0461977e-05
6.9083429e-06
5.1356788e-06
4.7364676e-06
4.4048953e-06
4.1457935e-06
4.0768963e-06
3.5916777e-06
3.2765479e-06
3.6822211e-06
4.3329072e-06
4.492919e-06
4.2798681e-06
3.5817413e-06
3.3447613e-06
4.7295928e-06
1.1672866e-05
1.9916287e-05
2.4626729e-05
2.3863722e-05
1.8826762e-05
1.577152e-05
1.2777318e-05
8.6762821e-06
5.9790987e-06
5.0698673e-06
4.7931805e-06
4.6283306e-06
4.6144588e-06
4.3613981e-06
3.6981881e-06
3.5265882e-06
4.0299137e-06
4.6537019e-06
4.7264049e-06
4.2723465e-06
3.636508e-06
3.5900528e-06
4.7838311e-06
1.1673941e-05
2.0165775e-05
2.24965e-05
1.7944793e-05
1.6031118e-05
1.5643197e-05
1.2749719e-05
8.6926865e-06
6.1035297e-06
5.3342921e-06
5.4470025e-06
5.5462092e-06
5.4029823e-06
4.6585064e-06
3.9116631e-06
3.8542869e-06
4.7631111e-06
5.0904701e-06
4.9427232e-06
4.2221871e-06
3.7960301e-06
4.1881269e-06
4.2459571e-06
1.1989827e-05
1.8692945e-05
1.5509836e-05
1.7082652e-05
2.0336817e-05
1.9158138e-05
1.4047978e-05
9.5717495e-06
6.9335295e-06
6.3270269e-06
6.4829614e-06
6.50745e-06
6.3096252e-06
5.0594269e-06
4.341441e-06
4.7253322e-06
5.2172514e-06
5.2989089e-06
5.1182661e-06
4.2478248e-06
4.0828172e-06
4.6887388e-06
3.3782183e-06
9.7483786e-06
1.7990061e-05
1.5123e-05
1.824487e-05
2.4077453e-05
1.9203823e-05
1.4291439e-05
1.0010282e-05
7.5441491e-06
6.9397592e-06
7.0002401e-06
7.3318768e-06
7.0406047e-06
5.4725011e-06
4.8018686e-06
4.9305685e-06
5.539728e-06
5.6836765e-06
5.1027827e-06
4.5105534e-06
4.9682177e-06
5.5662912e-06
3.3627587e-06
7.2853356e-06
1.3895166e-05
1.8991902e-05
2.1466194e-05
2.1974438e-05
1.7577499e-05
1.3189483e-05
9.6687719e-06
7.6040083e-06
7.2205988e-06
7.5790124e-06
7.8500097e-06
7.2337849e-06
5.6722437e-06
5.2121149e-06
5.6287852e-06
6.0123928e-06
5.9764474e-06
5.2837168e-06
5.1509491e-06
5.7621787e-06
6.0883567e-06
2.2230368e-06
4.9757487e-06
1.0251032e-05
1.3857396e-05
1.5931832e-05
1.4897066e-05
1.2650378e-05
1.0384841e-05
8.3138496e-06
7.1994781e-06
7.0865051e-06
7.4769287e-06
7.8388039e-06
7.3831704e-06
6.1165266e-06
5.881881e-06
6.0402423e-06
6.5087345e-06
6.4264691e-06
5.7588361e-06
5.8534755e-06
6.5278838e-06
6.6494363e-06
1.1277506e-06
3.156347e-06
6.7061243e-06
9.4476381e-06
1.0954058e-05
1.0161511e-05
8.9293859e-06
8.2824625e-06
7.3558833e-06
6.7638304e-06
6.7265865e-06
7.4510635e-06
7.9281789e-06
7.4505714e-06
6.4586408e-06
6.3840691e-06
7.1725636e-06
7.4851279e-06
6.7196453e-06
6.1464289e-06
6.3955437e-06
6.8698588e-06
6.5447156e-06
1.3609038e-06
2.1772158e-06
4.3612141e-06
6.2934502e-06
7.2143139e-06
6.7697101e-06
6.6258833e-06
6.873166e-06
6.9483271e-06
6.5726399e-06
6.7516629e-06
7.5741005e-06
7.9603495e-06
7.6191852e-06
7.1454931e-06
7.2659262e-06
7.8724741e-06
7.8020787e-06
6.8908769e-06
6.5351227e-06
6.681293e-06
6.9927838e-06
6.6022706e-06
1.5910035e-06
1.7411719e-06
3.1641187e-06
4.6538865e-06
5.298709e-06
5.2107075e-06
5.6411144e-06
6.3620084e-06
7.043976e-06
6.8885421e-06
7.0429927e-06
7.9039853e-06
8.3689571e-06
7.8798708e-06
7.2956352e-06
7.3789251e-06
8.2154185e-06
8.1316366e-06
7.0423959e-06
6.5718313e-06
7.0494805e-06
7.4008863e-06
7.0478001e-06
9.3140664e-07
1.5878874e-06
2.6160031e-06
3.7784933e-06
4.287323e-06
4.5506164e-06
5.3611743e-06
6.4917258e-06
7.2028834e-06
7.2152443e-06
7.4161057e-06
8.3815165e-06
8.6662163e-06
7.7780106e-06
7.0101181e-06
7.4071034e-06
8.4063662e-06
8.1397792e-06
7.2268845e-06
7.0975151e-06
7.709463e-06
7.729233e-06
7.3508106e-06
6.3499846e-07
1.5420021e-06
2.5329234e-06
3.6547012e-06
4.1168264e-06
4.749568e-06
5.8588226e-06
6.9683617e-06
7.355535e-06
7.1720625e-06
7.4417261e-06
8.4738439e-06
8.5491802e-06
7.4597485e-06
6.8132354e-06
7.6655641e-06
8.5948594e-06
8.3941226e-06
7.662222e-06
7.934337e-06
8.2321699e-06
7.7601998e-06
7.4552875e-06
7.5851215e-07
1.5696624e-06
2.2959239e-06
3.2982892e-06
3.9048897e-06
4.5123426e-06
5.7079693e-06
7.1012271e-06
7.2272036e-06
6.9683565e-06
7.0510894e-06
7.9008801e-06
8.5830315e-06
8.0557869e-06
7.0614668e-06
7.3691801e-06
8.4320665e-06
8.5132321e-06
7.9123962e-06
7.9851369e-06
8.3763667e-06
8.1810533e-06
7.6429482e-06
1.159222e-06
1.6880669e-06
2.164213e-06
2.945044e-06
3.6400061e-06
4.2184395e-06
4.9878782e-06
6.4507553e-06
6.9831791e-06
6.7923219e-06
6.7485371e-06
7.1859829e-06
8.2344336e-06
8.243419e-06
7.569755e-06
7.4936017e-06
8.0920901e-06
8.3346404e-06
8.0753301e-06
7.644303e-06
7.8257457e-06
8.1898514e-06
7.9907922e-06
1.494495e-06
2.1047087e-06
2.0559181e-06
2.6868428e-06
3.4124509e-06
3.9239428e-06
4.4407673e-06
5.589072e-06
6.5476151e-06
6.5989382e-06
6.5825235e-06
6.7793183e-06
7.7248567e-06
8.0284386e-06
7.7114099e-06
7.430594e-06
7.6133962e-06
8.1533347e-06
7.9301128e-06
7.4695683e-06
7.4334925e-06
7.8051091e-06
8.0696545e-06
1.292117e-06
2.7634501e-06
2.1212866e-06
2.6398035e-06
3.3613503e-06
3.8544256e-06
4.2863543e-06
5.0061183e-06
6.0629155e-06
6.2604753e-06
6.3580486e-06
6.4458352e-06
6.9212094e-06
7.5890602e-06
7.4593391e-06
7.0570279e-06
7.09869e-06
7.5180863e-06
7.8573764e-06
7.6445531e-06
7.4041517e-06
7.4907866e-06
7.8499807e-06
1.2881214e-06
3.1410058e-06
2.2909501e-06
2.7737866e-06
3.5073585e-06
4.03146e-06
4.4076873e-06
4.7325089e-06
5.4658721e-06
5.6598369e-06
5.7882603e-06
5.86514e-06
6.1118954e-06
6.7592772e-06
7.0369974e-06
6.7717849e-06
6.6528112e-06
6.847278e-06
7.4425718e-06
7.6879864e-06
7.5794774e-06
7.5620413e-06
7.7172403e-06
1.5851232e-06
3.4126703e-06
2.6478681e-06
3.2220592e-06
3.9381437e-06
4.3088847e-06
4.4290437e-06
4.5219364e-06
4.980596e-06
5.059734e-06
5.1013714e-06
5.1765179e-06
5.3293701e-06
5.7095162e-06
6.3688349e-06
6.4571913e-06
6.3926541e-06
6.4283772e-06
6.6859209e-06
7.2899724e-06
7.4122716e-06
7.4373233e-06
7.4617255e-06
1.8707586e-06
3.7382064e-06
3.3464871e-06
4.0410988e-06
4.5214867e-06
4.4173264e-06
4.327942e-06
4.4072047e-06
4.8043471e-06
4.846152e-06
4.8279016e-06
4.7726541e-06
4.827351e-06
5.012234e-06
5.4954088e-06
5.8331898e-06
5.8813996e-06
5.9121115e-06
6.0049433e-06
6.2746583e-06
6.7511836e-06
6.9358904e-06
7.2448378e-06
1.7685124e-06
4.0940714e-06
4.5765755e-06
5.212129e-06
5.0793915e-06
4.5591926e-06
4.4079415e-06
4.4797114e-06
4.8035831e-06
4.879084e-06
4.8716733e-06
4.7277967e-06
4.7013635e-06
4.722813e-06
4.8754553e-06
5.1427441e-06
5.2864657e-06
5.3692751e-06
5.4358178e-06
5.5348551e-06
5.8421234e-06
6.0944312e-06
6.7227487e-06
1.4433394e-06
4.22e-06
5.1371807e-06
6.1757749e-06
6.0840673e-06
5.1083143e-06
4.6270981e-06
4.6086232e-06
4.7950517e-06
4.824412e-06
4.8187982e-06
4.6870197e-06
4.6437893e-06
4.627089e-06
4.659395e-06
4.8120865e-06
4.9031162e-06
5.0247204e-06
5.0767854e-06
5.1077707e-06
5.2039811e-06
5.3726572e-06
5.9524759e-06
1.4207669e-06
4.3692055e-06
5.1429387e-06
5.9450919e-06
6.0825952e-06
5.3685157e-06
4.6287729e-06
4.4285932e-06
4.4080755e-06
4.4952408e-06
4.5435958e-06
4.4577078e-06
4.4397418e-06
4.4525503e-06
4.4887024e-06
4.5353581e-06
4.5851521e-06
4.7049651e-06
4.8584939e-06
4.9347727e-06
4.9597984e-06
5.019445e-06
5.3614406e-06
1.9983283e-06
6.0248382e-06
4.8175862e-06
4.9179542e-06
5.1513181e-06
4.8409048e-06
4.2567533e-06
3.6672696e-06
3.5478994e-06
3.5872173e-06
3.756083e-06
3.8702002e-06
3.9187011e-06
4.0170039e-06
4.0890217e-06
4.1787536e-06
4.3185829e-06
4.4132705e-06
4.6273353e-06
4.6511204e-06
4.756219e-06
4.775261e-06
4.9424906e-06
2.5567e-06
6.7330556e-06
4.6606394e-06
4.4362817e-06
4.5457422e-06
4.2464176e-06
3.4216675e-06
2.9643304e-06
2.8944122e-06
2.9610598e-06
3.0515071e-06
3.2473598e-06
3.3182123e-06
3.4159897e-06
3.4579152e-06
3.5506247e-06
3.6560291e-06
3.7121905e-06
3.8304345e-06
4.0138506e-06
4.0331367e-06
4.191222e-06
4.4454285e-06
2.834089e-06
6.8174073e-06
4.3753554e-06
3.4953111e-06
3.2005114e-06
2.9877529e-06
2.6601585e-06
2.5441459e-06
2.5018959e-06
2.5173003e-06
2.5634595e-06
2.689531e-06
2.7552075e-06
2.8135883e-06
2.8298096e-06
2.8854913e-06
2.960578e-06
3.1515466e-06
3.3234206e-06
3.7462673e-06
3.9188478e-06
4.4463439e-06
2.9631324e-06
3.2246283e-06
6.8533675e-06
3.7939773e-06
2.5938537e-06
2.3969758e-06
2.4355333e-06
2.3626346e-06
2.2702075e-06
2.2313485e-06
2.2499452e-06
2.3623688e-06
2.5084874e-06
2.6462228e-06
2.7779401e-06
2.8786435e-06
3.0391404e-06
3.2533292e-06
3.6882697e-06
4.1229228e-06
5.2900236e-06
6.0994583e-06
8.0541031e-06
2.4260771e-06
3.5692219e-06
6.8263104e-06
3.3803235e-06
2.1622137e-06
2.0715307e-06
2.1506928e-06
2.0914561e-06
2.0680394e-06
2.1212172e-06
2.2698044e-06
2.4662081e-06
2.7138776e-06
3.1348184e-06
3.9237254e-06
5.2000207e-06
7.4841076e-06
1.0713674e-05
1.6276019e-05
2.2202508e-05
3.1319472e-05
3.8370457e-05
5.636465e-05
3.908199e-05
3.5670025e-06
6.3699524e-06
2.8337324e-06
1.8648649e-06
1.890998e-06
1.955343e-06
2.0133548e-06
2.1081389e-06
2.3056043e-06
2.8121576e-06
4.0219661e-06
6.6947687e-06
1.2175723e-05
2.1097551e-05
3.3025108e-05
4.8342444e-05
6.6798503e-05
9.0869412e-05
0.00011824885
0.00014694667
0.00017273973
0.00020345787
0.00021848664
3.4530384e-06
5.2618034e-06
2.3324787e-06
1.7452387e-06
1.8909642e-06
2.0410819e-06
2.2419016e-06
2.9725603e-06
5.2163562e-06
1.0705992e-05
2.1691201e-05
3.8973735e-05
6.3615714e-05
9.6674878e-05
0.00013337228
0.00017068911
0.0002055201
0.0002359323
0.00025986256
0.00027876646
0.00029281922
0.00030211718
0.00030921162
3.3935243e-06
4.3192032e-06
1.9654344e-06
1.8198327e-06
2.0788206e-06
2.694882e-06
5.2571157e-06
1.2631737e-05
2.7272314e-05
5.1550604e-05
8.9769572e-05
0.00013633722
0.00018154497
0.00022028446
0.0002517382
0.00027749891
0.00029725726
0.00031004238
0.0003151892
0.00031366136
0.00030679007
0.00029686717
0.00029190427
3.3246255e-06
3.3180887e-06
1.8377644e-06
2.0693861e-06
3.4849078e-06
9.4878762e-06
2.4657176e-05
5.2102165e-05
9.8188458e-05
0.00015081808
0.0001996818
0.00023986627
0.00027243829
0.00029694011
0.00031323066
0.00032118695
0.00032114864
0.00031457387
0.00030240115
0.00028271043
0.00025441053
0.00021590992
0.00017814674
3.1814096e-06
2.6782665e-06
2.1069234e-06
4.1396858e-06
1.4366127e-05
3.8249638e-05
8.404806e-05
0.00014389931
0.00019692449
0.00024079419
0.00027623974
0.00030244861
0.00031951933
0.00032684419
0.00032564207
0.00031732716
0.00030249823
0.00027759217
0.00023934548
0.00018668585
0.00012540087
8.0260652e-05
6.1191886e-05
2.9985669e-06
2.5857157e-06
3.7791148e-06
1.7105963e-05
4.8455375e-05
0.00011089226
0.00017351756
0.00022479617
0.00026570857
0.0002971559
0.00031902607
0.00032957288
0.00033104806
0.00032416205
0.00031026618
0.00028510763
0.00024491858
0.00019182835
0.00012768761
6.7675721e-05
3.7286209e-05
2.6571711e-05
2.4027254e-05
2.8049257e-06
2.999664e-06
1.3929209e-05
5.3050965e-05
0.00012377347
0.00018746619
0.00023898643
0.00027924433
0.00030895542
0.00032776021
0.00033486241
0.00033259689
0.00032192704
0.00030079998
0.00026437524
0.00021458448
0.00015420957
8.6341044e-05
4.1380438e-05
2.1743847e-05
1.6065544e-05
1.5034931e-05
1.6535967e-05
2.5840015e-06
5.7818138e-06
4.5447779e-05
0.00012414931
0.0001898245
0.00024316899
0.00028464747
0.00031449812
0.00033206234
0.0003383329
0.00033331632
0.00031907619
0.00029081768
0.00024759836
0.00019316983
0.00012904224
6.318484e-05
2.9122776e-05
1.5531727e-05
1.178795e-05
1.108713e-05
1.1377765e-05
1.3321563e-05
2.38393e-06
1.8364637e-05
0.0001041783
0.00018089137
0.00023834511
0.0002829959
0.00031541892
0.00033383617
0.00034008738
0.00033511103
0.00031954504
0.00028733034
0.00024023709
0.00018222024
0.00011530438
5.3377621e-05
2.396466e-05
1.3154416e-05
1.011866e-05
9.5032169e-06
9.4053246e-06
9.7110936e-06
1.0488961e-05
2.2896938e-06
4.3419211e-05
0.00015179874
0.00022318677
0.00027359542
0.00031086513
0.00033313375
0.00034104617
0.0003380831
0.00032359458
0.00029160608
0.00024454863
0.00018555602
0.00011723256
5.2803221e-05
2.3724948e-05
1.3509166e-05
1.0298085e-05
9.2057709e-06
8.7082706e-06
8.3476185e-06
8.1905447e-06
8.1990915e-06
2.4472715e-06
7.5970512e-05