/*--------------------------------*- C++ -*----------------------------------*\
| =========                 |                                                 |
| \\      /  F ield         | OpenFOAM: The Open Source CFD Toolbox           |
|  \\    /   O peration     | Version:  2406                                  |
|   \\  /    A nd           | Website:  www.openfoam.com                      |
|    \\/     M anipulation  |                                                 |
\*---------------------------------------------------------------------------*/
FoamFile
{
    version     2.0;
    format      ascii;
    arch        "LSB;label=32;scalar=64";
    class       volScalarField;
    location    "60";
    object      k;
}
// * * * * * * * * * * * * * * * * * * * * * * * * * * * * * * * * * * * * * //

dimensions      [0 2 -2 0 0 0 0];

internalField   nonuniform List<scalar> 
20580
(
3.1665621e-06
2.3258391e-06
1.8666738e-06
1.5705409e-06
1.3492982e-06
1.1807513e-06
1.0520721e-06
9.5117409e-07
8.6583801e-07
7.9663646e-07
7.3788976e-07
6.8987936e-07
6.4877029e-07
6.1510242e-07
5.8279895e-07
5.5703004e-07
5.3425989e-07
5.1503769e-07
4.9844487e-07
4.8978922e-07
4.8058753e-07
4.7164679e-07
4.6110875e-07
4.6039235e-07
4.6250715e-07
4.6958391e-07
4.7685302e-07
4.8039538e-07
4.9116938e-07
5.1471126e-07
5.5120408e-07
3.1845183e-06
2.3878538e-06
1.8903461e-06
1.580922e-06
1.3586342e-06
1.1868894e-06
1.0597406e-06
9.5888363e-07
8.7238262e-07
8.0387136e-07
7.4494063e-07
6.9518349e-07
6.5405951e-07
6.1914408e-07
5.8640923e-07
5.6005957e-07
5.3671205e-07
5.1705916e-07
5.0092199e-07
4.9090281e-07
4.8493271e-07
4.7981335e-07
4.6868128e-07
4.6661187e-07
4.6796024e-07
4.7600186e-07
4.882786e-07
4.9980549e-07
5.0460625e-07
5.2295632e-07
5.5628877e-07
3.1827508e-06
2.4196781e-06
1.9076927e-06
1.5920521e-06
1.3639483e-06
1.1914738e-06
1.063268e-06
9.6252386e-07
8.7648183e-07
8.0765557e-07
7.4941026e-07
6.9901123e-07
6.5758258e-07
6.2320952e-07
5.891443e-07
5.637118e-07
5.3948467e-07
5.194708e-07
5.0352316e-07
4.9076123e-07
4.8408683e-07
4.8081002e-07
4.7226818e-07
4.6715487e-07
4.6758057e-07
4.7456101e-07
4.8610153e-07
4.9853246e-07
5.072021e-07
5.2297418e-07
5.5725809e-07
3.1835607e-06
2.425763e-06
1.923828e-06
1.6040625e-06
1.3709672e-06
1.1966734e-06
1.0674709e-06
9.6602679e-07
8.7870911e-07
8.106955e-07
7.5123976e-07
7.021459e-07
6.6043702e-07
6.2580939e-07
5.9316018e-07
5.6595533e-07
5.4311277e-07
5.2159389e-07
5.0747095e-07
4.9184755e-07
4.8342797e-07
4.8103958e-07
4.7439647e-07
4.6767456e-07
4.6780955e-07
4.7265946e-07
4.8387293e-07
4.9346784e-07
5.02394e-07
5.1220916e-07
5.4282018e-07
3.188761e-06
2.4303275e-06
1.9569306e-06
1.6322322e-06
1.3909482e-06
1.2099055e-06
1.0767151e-06
9.7250223e-07
8.8342921e-07
8.1396879e-07
7.5398439e-07
7.0536389e-07
6.6292319e-07
6.2863502e-07
5.9605375e-07
5.6981298e-07
5.4534282e-07
5.2515083e-07
5.1088935e-07
4.9466054e-07
4.8466294e-07
4.8209194e-07
4.7762845e-07
4.697241e-07
4.7007717e-07
4.7291575e-07
4.8412276e-07
4.9813573e-07
5.0577131e-07
5.1282053e-07
5.2788363e-07
3.1930541e-06
2.4422944e-06
1.9819527e-06
1.6810343e-06
1.4408441e-06
1.2436836e-06
1.0987089e-06
9.8750389e-07
8.9480699e-07
8.2107997e-07
7.5965776e-07
7.0965018e-07
6.6633775e-07
6.3070265e-07
5.9895648e-07
5.7220099e-07
5.4781436e-07
5.272761e-07
5.1503975e-07
4.9666262e-07
4.8822969e-07
4.8453914e-07
4.7981308e-07
4.7249626e-07
4.729939e-07
4.7420222e-07
4.8158142e-07
5.0199933e-07
5.1527932e-07
5.3424537e-07
5.4003629e-07
3.1914916e-06
2.4523558e-06
1.9822654e-06
1.6939901e-06
1.4716682e-06
1.2926866e-06
1.1494552e-06
1.0295033e-06
9.2944446e-07
8.4266713e-07
7.7453378e-07
7.1926781e-07
6.7384258e-07
6.3550506e-07
6.0332988e-07
5.7508698e-07
5.5053362e-07
5.2975912e-07
5.168044e-07
4.9904542e-07
4.8972924e-07
4.8575875e-07
4.8013747e-07
4.727442e-07
4.7129821e-07
4.7223392e-07
4.7476086e-07
4.9113973e-07
5.137654e-07
5.3658114e-07
5.5815351e-07
3.1944693e-06
2.4461451e-06
1.9673931e-06
1.681412e-06
1.4666413e-06
1.3051932e-06
1.1813072e-06
1.0709895e-06
9.7557527e-07
8.884421e-07
8.1352722e-07
7.4735695e-07
6.9591077e-07
6.4977943e-07
6.1420411e-07
5.8235987e-07
5.5633385e-07
5.3463023e-07
5.1915339e-07
5.0238247e-07
4.9143749e-07
4.8571048e-07
4.8060103e-07
4.7492626e-07
4.7119506e-07
4.6951173e-07
4.680675e-07
4.7326006e-07
4.92393e-07
5.1451133e-07
5.5061434e-07
3.2308013e-06
2.4581644e-06
1.971605e-06
1.6587777e-06
1.4402437e-06
1.2849841e-06
1.1694639e-06
1.0690532e-06
9.7870466e-07
9.0195874e-07
8.3508369e-07
7.7662177e-07
7.2752637e-07
6.817371e-07
6.4340567e-07
6.0595631e-07
5.7623251e-07
5.5067868e-07
5.2839978e-07
5.1112306e-07
4.9705159e-07
4.8801879e-07
4.8395461e-07
4.7987367e-07
4.7642685e-07
4.7266165e-07
4.707539e-07
4.7281555e-07
4.8401774e-07
5.0075219e-07
5.2252386e-07
3.490789e-06
2.825478e-06
2.1298599e-06
1.7393213e-06
1.4736045e-06
1.2900342e-06
1.1552118e-06
1.0475231e-06
9.5799634e-07
8.8550935e-07
8.2467027e-07
7.7378376e-07
7.2925705e-07
6.9057816e-07
6.5587477e-07
6.2388393e-07
5.9451105e-07
5.7170216e-07
5.4809635e-07
5.3133745e-07
5.1525835e-07
5.0128068e-07
4.9463238e-07
4.9203266e-07
4.9022279e-07
4.8701348e-07
4.8498209e-07
4.8586184e-07
4.9268021e-07
5.0697797e-07
5.2533598e-07
4.2073827e-06
3.8988786e-06
3.058913e-06
2.367103e-06
1.8092432e-06
1.4703395e-06
1.2546735e-06
1.1024201e-06
9.8599643e-07
8.9679425e-07
8.2668615e-07
7.715006e-07
7.2566507e-07
6.8816093e-07
6.5398703e-07
6.2426746e-07
5.9634258e-07
5.7457124e-07
5.5297291e-07
5.3722103e-07
5.2407911e-07
5.1134381e-07
5.0569593e-07
5.0344643e-07
4.9997647e-07
4.9865748e-07
5.0082083e-07
5.0453039e-07
5.1226796e-07
5.2839145e-07
5.5152761e-07
3.1962933e-06
3.3160911e-06
3.2305643e-06
2.9316508e-06
2.5618306e-06
2.1816896e-06
1.8299178e-06
1.5339511e-06
1.2883435e-06
1.0833516e-06
9.3916858e-07
8.4132104e-07
7.7034602e-07
7.187589e-07
6.7497564e-07
6.4000344e-07
6.0897093e-07
5.8364059e-07
5.6190535e-07
5.4578405e-07
5.3244145e-07
5.1711795e-07
5.1071014e-07
5.0947488e-07
5.0490008e-07
5.0052339e-07
5.0220709e-07
5.0606699e-07
5.1157181e-07
5.2176048e-07
5.4835396e-07
3.3491646e-06
2.8094234e-06
2.6727195e-06
2.493088e-06
2.3513342e-06
2.1813159e-06
2.0060486e-06
1.8107298e-06
1.6071208e-06
1.4321215e-06
1.2759796e-06
1.1451447e-06
1.0322647e-06
9.4015647e-07
8.5941758e-07
7.9140296e-07
7.3626932e-07
6.825689e-07
6.4010982e-07
6.0766816e-07
5.8186802e-07
5.541189e-07
5.3806871e-07
5.3152635e-07
5.2258237e-07
5.1180704e-07
5.0569442e-07
5.0848533e-07
5.1061843e-07
5.1381938e-07
5.2532209e-07
3.6375499e-06
3.1968367e-06
2.6760341e-06
2.35093e-06
2.0366399e-06
1.8488836e-06
1.6949818e-06
1.5489115e-06
1.4163955e-06
1.3115593e-06
1.2351815e-06
1.1613221e-06
1.1014898e-06
1.0470656e-06
9.9271968e-07
9.4135699e-07
8.9467779e-07
8.5182437e-07
8.1237918e-07
7.7676935e-07
7.4426225e-07
7.0717442e-07
6.7378093e-07
6.5252667e-07
6.2716218e-07
5.9806372e-07
5.6923031e-07
5.514338e-07
5.4122451e-07
5.3667391e-07
5.3292993e-07
3.2371634e-06
2.7704781e-06
2.5140196e-06
2.3043782e-06
2.0484416e-06
1.8336518e-06
1.6445128e-06
1.4750206e-06
1.3211338e-06
1.1913327e-06
1.0930694e-06
1.029335e-06
9.8069696e-07
9.3921205e-07
9.0254996e-07
8.6869463e-07
8.3630865e-07
8.1472002e-07
7.8846355e-07
7.6684113e-07
7.4859615e-07
7.3218206e-07
7.1644188e-07
7.090364e-07
7.0080528e-07
6.8873959e-07
6.7472038e-07
6.6596597e-07
6.5493077e-07
6.4693899e-07
6.2945037e-07
3.680935e-06
3.177819e-06
2.563357e-06
2.1673697e-06
1.8874628e-06
1.6990067e-06
1.5419051e-06
1.4117193e-06
1.2884166e-06
1.1790007e-06
1.0859708e-06
1.0137806e-06
9.5704325e-07
9.0846713e-07
8.6720763e-07
8.2946242e-07
7.9547963e-07
7.6289118e-07
7.3717948e-07
7.1548336e-07
6.9849833e-07
6.8614681e-07
6.7817262e-07
6.7480059e-07
6.7603361e-07
6.7630682e-07
6.7341577e-07
6.7087938e-07
6.7771712e-07
6.8632347e-07
6.9160197e-07
3.059406e-06
2.7047632e-06
2.4764066e-06
2.1589707e-06
1.8796139e-06
1.6616804e-06
1.4645171e-06
1.298875e-06
1.170898e-06
1.07284e-06
9.9751037e-07
9.4035713e-07
8.9782066e-07
8.6465649e-07
8.3787131e-07
8.1077975e-07
7.8159679e-07
7.5059698e-07
7.2959593e-07
7.0845629e-07
6.8672602e-07
6.7022916e-07
6.6009524e-07
6.4726736e-07
6.4333553e-07
6.4228902e-07
6.4042704e-07
6.3763571e-07
6.4086145e-07
6.5131547e-07
6.6888187e-07
3.3718662e-06
2.8337042e-06
2.3424115e-06
2.0131598e-06
1.7837008e-06
1.605538e-06
1.4533441e-06
1.3173782e-06
1.1905563e-06
1.0812424e-06
9.8805996e-07
9.1102521e-07
8.5015838e-07
8.0024087e-07
7.6424693e-07
7.3494499e-07
7.0519288e-07
6.8043075e-07
6.6594871e-07
6.4777821e-07
6.3193656e-07
6.2135988e-07
6.1336857e-07
6.0031648e-07
5.9279526e-07
5.9246261e-07
5.8954056e-07
5.8206798e-07
5.7666629e-07
5.7845025e-07
5.9000854e-07
3.2388931e-06
2.6852404e-06
2.2313404e-06
1.9511711e-06
1.6857716e-06
1.485941e-06
1.3472189e-06
1.2393705e-06
1.1438138e-06
1.0620259e-06
9.8917619e-07
9.2553196e-07
8.7062068e-07
8.260194e-07
7.8744531e-07
7.5180834e-07
7.2181452e-07
6.9347251e-07
6.7098116e-07
6.493863e-07
6.2905192e-07
6.1649365e-07
6.0679319e-07
5.934307e-07
5.8085392e-07
5.7853734e-07
5.7945407e-07
5.7667716e-07
5.7349499e-07
5.7398217e-07
5.7753816e-07
3.2631742e-06
2.7244357e-06
2.2377956e-06
1.9595073e-06
1.7096213e-06
1.5113295e-06
1.3623566e-06
1.2445524e-06
1.1516302e-06
1.0767809e-06
1.0171783e-06
9.7224536e-07
9.3580316e-07
9.0953392e-07
8.8211112e-07
8.5620363e-07
8.4197295e-07
8.2320362e-07
7.9589031e-07
7.7917641e-07
7.6004479e-07
7.3922137e-07
7.2688786e-07
7.135087e-07
6.9564238e-07
6.8745081e-07
6.8890003e-07
6.8806869e-07
6.8354463e-07
6.8303907e-07
6.6246688e-07
3.3348771e-06
2.9867342e-06
2.5564261e-06
2.4459765e-06
2.2892497e-06
2.1410722e-06
2.0155348e-06
1.9008876e-06
1.8346984e-06
1.7783364e-06
1.7405967e-06
1.7064217e-06
1.6738635e-06
1.6524182e-06
1.6259727e-06
1.6139819e-06
1.6574421e-06
1.6296486e-06
1.6192243e-06
1.6257996e-06
1.610199e-06
1.6028984e-06
1.6078587e-06
1.6105581e-06
1.5916438e-06
1.5917194e-06
1.6076403e-06
1.6284017e-06
1.6714732e-06
1.6808844e-06
1.5869943e-06
4.7660151e-06
1.1438276e-05
7.9028933e-06
8.236891e-06
7.5271037e-06
7.3697568e-06
7.1711335e-06
6.8574098e-06
7.1871372e-06
6.9258971e-06
7.1628159e-06
6.9105109e-06
6.9881556e-06
6.8406101e-06
6.7292645e-06
6.8990947e-06
7.4569507e-06
6.9302897e-06
7.0381744e-06
6.9285503e-06
7.0204582e-06
6.9163744e-06
7.0987923e-06
7.1579717e-06
7.1702307e-06
7.114568e-06
7.1799998e-06
7.3103673e-06
7.4905617e-06
7.5512358e-06
7.3808059e-06
2.2638047e-05
9.6505441e-05
5.3211502e-05
4.1101591e-05
4.408285e-05
3.6177633e-05
3.5659647e-05
3.4024989e-05
3.1345112e-05
3.2312181e-05
3.0336479e-05
3.1616638e-05
2.9910706e-05
3.0746867e-05
2.9173681e-05
2.8752611e-05
2.8813452e-05
3.0750549e-05
2.825812e-05
2.945122e-05
2.7272946e-05
2.8109157e-05
2.5627423e-05
2.6163599e-05
2.4395041e-05
2.4643506e-05
2.2724886e-05
2.256555e-05
2.1498916e-05
2.148323e-05
2.0768616e-05
2.0766383e-05
7.7987922e-06
1.7904697e-06
7.087348e-07
5.8631783e-07
5.9110832e-07
6.6260753e-07
7.0382434e-07
6.584265e-07
5.6117708e-07
5.4790855e-07
5.7076482e-07
5.7779881e-07
5.5204667e-07
5.4055184e-07
5.6318184e-07
5.8429999e-07
5.8135926e-07
5.6721571e-07
5.7415217e-07
5.9136038e-07
5.8990999e-07
5.7577452e-07
1.905715e-05
1.0488389e-05
2.813983e-06
9.1310496e-07
6.105151e-07
5.8870103e-07
6.5076159e-07
7.2416668e-07
7.0109219e-07
6.0269341e-07
5.7597491e-07
6.0006386e-07
6.2006902e-07
6.0221066e-07
5.6773233e-07
5.7847689e-07
6.2145761e-07
6.3090931e-07
6.1391174e-07
6.0445194e-07
6.1532514e-07
6.3947235e-07
6.3264165e-07
2.2452093e-05
9.6338104e-06
2.7292325e-06
9.6041012e-07
6.3243334e-07
5.958497e-07
6.4544307e-07
7.5026896e-07
7.5662635e-07
6.6784231e-07
5.9758926e-07
6.1428284e-07
6.5181722e-07
6.4410111e-07
6.0808878e-07
6.1095431e-07
6.509359e-07
6.6767504e-07
6.5752979e-07
6.3753909e-07
6.4447538e-07
6.764086e-07
6.833661e-07
2.5178554e-05
1.1065388e-05
3.0923974e-06
1.1030997e-06
6.8267046e-07
6.2683292e-07
6.7012721e-07
7.9327341e-07
8.0493743e-07
7.2607782e-07
6.2946458e-07
6.3705456e-07
6.8847481e-07
7.0154935e-07
6.8268712e-07
6.5892945e-07
6.7798195e-07
7.2434866e-07
7.2036069e-07
6.9700422e-07
6.9095071e-07
7.1773158e-07
7.3358186e-07
2.5974907e-05
1.5579085e-05
5.0050037e-06
1.6567274e-06
8.1492115e-07
6.8477171e-07
7.0877004e-07
8.2618378e-07
8.4697206e-07
7.8720324e-07
6.7738772e-07
6.7161772e-07
7.227707e-07
7.5701032e-07
7.4885672e-07
7.0393766e-07
7.0910952e-07
7.6853542e-07
7.7888984e-07
7.7226669e-07
7.5552185e-07
7.6856139e-07
8.0164065e-07
2.3602242e-05
1.4089605e-05
4.9412626e-06
1.8213911e-06
8.9781402e-07
7.1541944e-07
7.3463307e-07
8.7437641e-07
9.2099962e-07
8.832958e-07
7.569559e-07
7.2533325e-07
7.8886751e-07
8.1784889e-07
8.0311434e-07
7.5691937e-07
7.4514427e-07
7.9347521e-07
8.3767137e-07
8.5113838e-07
8.4108402e-07
8.4341262e-07
8.7096296e-07
1.8089938e-05
1.2396632e-05
4.828673e-06
1.8947198e-06
9.4734845e-07
7.4028173e-07
7.5828389e-07
9.1387245e-07
1.0084639e-06
1.000214e-06
8.9550882e-07
8.060411e-07
8.4149782e-07
9.0738054e-07
8.8795792e-07
8.5436763e-07
8.0797932e-07
8.2775977e-07
9.0282907e-07
9.1840607e-07
9.1302708e-07
8.9492679e-07
9.0131862e-07
1.9595437e-05
1.2440556e-05
4.9916466e-06
2.1104278e-06
1.0783261e-06
8.10702e-07
8.0652294e-07
9.6421934e-07
1.0992751e-06
1.0905402e-06
1.0011682e-06
8.8057818e-07
8.7915859e-07
9.6651958e-07
9.7860881e-07
9.71005e-07
9.2317813e-07
9.1317404e-07
9.7678918e-07
1.0083206e-06
1.0077378e-06
9.9531093e-07
9.8468464e-07
2.7170218e-05
1.6008935e-05
6.9009132e-06
3.213767e-06
1.6326167e-06
1.0643449e-06
9.3364678e-07
1.0521035e-06
1.192425e-06
1.1717822e-06
1.0790479e-06
9.3929645e-07
9.2379965e-07
1.033612e-06
1.0747545e-06
1.0663952e-06
1.0388099e-06
1.0160005e-06
1.0652602e-06
1.1027322e-06
1.086984e-06
1.0642532e-06
1.0564521e-06
3.6630339e-05
2.5975756e-05
1.5037109e-05
9.0663222e-06
4.7691106e-06
2.4294534e-06
1.4269795e-06
1.258122e-06
1.3555772e-06
1.3436385e-06
1.2673897e-06
1.0881321e-06
1.0320848e-06
1.1168621e-06
1.1715157e-06
1.1552703e-06
1.134758e-06
1.1168841e-06
1.1320028e-06
1.2134291e-06
1.2236101e-06
1.2013852e-06
1.1778081e-06
8.6032047e-05
8.5130765e-05
5.1936645e-05
2.7155476e-05
1.4193458e-05
6.7800231e-06
3.1260115e-06
1.8721455e-06
1.7184851e-06
1.6594471e-06
1.5831975e-06
1.3527655e-06
1.1771216e-06
1.2092012e-06
1.2876384e-06
1.2615821e-06
1.2125217e-06
1.1986609e-06
1.2032648e-06
1.2997158e-06
1.3154154e-06
1.2903595e-06
1.2900119e-06
0.00010370609
0.00012407657
6.1137217e-05
2.9644349e-05
1.5834802e-05
7.7349374e-06
3.795799e-06
2.2146512e-06
2.0671377e-06
1.9413844e-06
1.7921517e-06
1.5530374e-06
1.3323633e-06
1.3204643e-06
1.4184954e-06
1.398686e-06
1.3182014e-06
1.2799339e-06
1.2702958e-06
1.3363491e-06
1.4107984e-06
1.4146653e-06
1.3912889e-06
9.5076656e-05
0.00011749195
6.0213042e-05
2.8598249e-05
1.5090461e-05
7.3642262e-06
3.7213879e-06
2.3459193e-06
2.301012e-06
2.1698096e-06
1.8812634e-06
1.7128886e-06
1.5160348e-06
1.4861323e-06
1.6690005e-06
1.6590912e-06
1.5084226e-06
1.4322073e-06
1.3855202e-06
1.4158772e-06
1.5852415e-06
1.6122772e-06
1.5789855e-06
8.7978621e-05
9.0157196e-05
5.1442851e-05
2.3540303e-05
1.1871666e-05
6.0781017e-06
3.5271445e-06
2.4884943e-06
2.4591718e-06
2.2838845e-06
1.9393719e-06
1.8333282e-06
1.7088426e-06
1.6960819e-06
1.8925266e-06
1.888924e-06
1.7384322e-06
1.6472216e-06
1.6050461e-06
1.593795e-06
1.7283543e-06
1.7431442e-06
1.7246571e-06
9.2637908e-05
7.957307e-05
3.7121607e-05
1.7129169e-05
9.0691165e-06
5.4745477e-06
3.6265636e-06
2.7111441e-06
2.6385119e-06
2.3405984e-06
1.9881184e-06
1.9176433e-06
1.8690756e-06
1.9051379e-06
2.0755937e-06
2.0786728e-06
1.9779066e-06
1.909414e-06
1.9565037e-06
1.9672527e-06
2.0300281e-06
1.9808643e-06
1.8855472e-06
0.00011106606
8.3897874e-05
3.4987793e-05
1.604102e-05
8.9556554e-06
5.8189605e-06
4.131008e-06
3.1993784e-06
2.9274846e-06
2.393169e-06
2.0585201e-06
2.0018595e-06
1.9855499e-06
2.0775819e-06
2.2357305e-06
2.2295249e-06
2.1577903e-06
2.1138173e-06
2.2134885e-06
2.2063245e-06
2.286795e-06
2.3067478e-06
2.2157727e-06
0.00014078097
0.00012023045
4.7941662e-05
2.0294879e-05
1.1763849e-05
8.5310206e-06
6.6510051e-06
4.839865e-06
3.5446795e-06
2.5812543e-06
2.2119504e-06
2.1531853e-06
2.1405657e-06
2.2307691e-06
2.374743e-06
2.345111e-06
2.2544861e-06
2.2104814e-06
2.3989818e-06
2.5010485e-06
2.6988004e-06
2.6666214e-06
2.4501721e-06
0.00022776628
0.00022421351
0.00012105486
4.9811856e-05
3.0176654e-05
2.3262851e-05
1.7474777e-05
1.116718e-05
5.7790527e-06
3.4229497e-06
2.6482884e-06
2.5045976e-06
2.4800369e-06
2.5506171e-06
2.6494229e-06
2.514695e-06
2.3607161e-06
2.2784385e-06
2.4966466e-06
2.6509951e-06
2.9334881e-06
2.9397371e-06
2.7189837e-06
0.00026857211
0.00023977862
0.00020776724
0.00015112844
0.00011104967
8.5284004e-05
6.1302998e-05
3.6248632e-05
1.5372739e-05
6.8798686e-06
4.1570707e-06
3.5457233e-06
3.4024978e-06
3.3223281e-06
3.270073e-06
2.8781541e-06
2.5889823e-06
2.449636e-06
2.7470172e-06
2.9981845e-06
3.2718943e-06
3.2024818e-06
2.9155713e-06
0.00024973619
0.00023093367
0.00021364823
0.00020624803
0.00019540987
0.00017085349
0.00012871805
8.6434162e-05
4.4084059e-05
1.7404304e-05
8.2249953e-06
5.6977307e-06
4.7796945e-06
4.3202265e-06
4.1328043e-06
3.7330307e-06
3.128296e-06
2.8982039e-06
3.2713518e-06
3.4694255e-06
3.6648411e-06
3.6349571e-06
3.2266349e-06
0.00019331485
0.00019734193
0.00020420416
0.00021043281
0.00021348878
0.00020005521
0.00015545568
0.00010892136
6.2501586e-05
2.5363301e-05
1.1061115e-05
7.0842728e-06
5.6934502e-06
5.0326348e-06
4.7989048e-06
4.3363222e-06
3.4551144e-06
3.1743809e-06
3.7321779e-06
4.1213961e-06
4.291214e-06
4.0438873e-06
3.3650938e-06
0.00013720572
0.00015359956
0.00017015641
0.00019726119
0.00020488461
0.00019382796
0.00015113748
0.00010703749
6.265665e-05
2.5656026e-05
1.1199971e-05
7.2946715e-06
5.9994426e-06
5.3430914e-06
5.0980687e-06
4.5185135e-06
3.619877e-06
3.5419169e-06
4.4146814e-06
4.8775195e-06
4.8840191e-06
4.2630673e-06
3.5747868e-06
0.00012347792
0.00012644731
0.00013692249
0.00015147012
0.00015234548
0.00013688403
0.00010521277
7.6386917e-05
4.3427333e-05
1.7556018e-05
8.5949388e-06
6.7828165e-06
6.1524688e-06
5.5835488e-06
5.375312e-06
4.6019942e-06
3.7178211e-06
3.7994021e-06
4.8297709e-06
5.4052886e-06
5.4141727e-06
4.3783779e-06
3.7878068e-06
0.00011872927
0.00011494481
0.00012304736
0.00012340458
0.00010813058
8.7044891e-05
6.7451301e-05
4.7021245e-05
2.3088168e-05
1.0515972e-05
6.9902136e-06
6.6703406e-06
6.3987915e-06
6.0827327e-06
5.8831575e-06
4.6438201e-06
3.8565603e-06
4.526994e-06
5.8548455e-06
6.2029217e-06
5.8126848e-06
4.4611343e-06
4.1290918e-06
0.00011456609
0.0001110557
0.00011938918
0.00011825935
0.00010052364
7.8788625e-05
5.9086678e-05
3.7631973e-05
1.680501e-05
8.8087798e-06
6.9793795e-06
7.0092818e-06
7.0896772e-06
7.097983e-06
6.4033287e-06
4.757297e-06
4.2351693e-06
5.3404901e-06
6.5887145e-06
6.7528138e-06
5.86106e-06
4.6425511e-06
4.6798423e-06
0.0001102351
0.00010904355
0.00011867966
0.00012029184
0.0001086588
8.8361343e-05
6.2432087e-05
3.8114804e-05
1.7133682e-05
9.3644094e-06
7.8272435e-06
8.653853e-06
9.0078496e-06
8.6176896e-06
6.8182755e-06
5.0656843e-06
4.9850017e-06
6.9589162e-06
7.7044328e-06
7.4620134e-06
5.7929057e-06
5.0186035e-06
6.0678028e-06
9.4824053e-05
0.00010271764
0.00011609011
0.00012103549
0.00011886802
0.0001058839
7.335634e-05
4.4701373e-05
2.0782694e-05
1.1761548e-05
1.0135682e-05
1.0696644e-05
1.0831989e-05
1.0378069e-05
7.4101551e-06
5.8812903e-06
6.7655054e-06
8.1804342e-06
8.4590361e-06
7.9737466e-06
5.9989366e-06
5.6861895e-06
7.2044549e-06
5.9470263e-05
7.9664857e-05
0.00010460408
0.00011592427
0.00011603451
0.00010504822
7.4134137e-05
4.6791304e-05
2.3268828e-05
1.3519433e-05
1.1478489e-05
1.1675297e-05
1.257201e-05
1.1937976e-05
8.205405e-06
6.9189811e-06
7.6409254e-06
9.3654497e-06
9.7462839e-06
8.0441309e-06
6.545994e-06
7.4673218e-06
8.8840072e-06
3.5164335e-05
5.2588413e-05
7.5532697e-05
9.1436378e-05
9.4341373e-05
8.5741048e-05
6.0904232e-05
4.0013757e-05
2.1642199e-05
1.3540202e-05
1.2168049e-05
1.297724e-05
1.380955e-05
1.2498067e-05
8.9237822e-06
8.2020582e-06
9.5866325e-06
1.0726948e-05
1.0539621e-05
8.3660226e-06
7.7452382e-06
9.0581738e-06
9.819528e-06
2.133131e-05
3.2090105e-05
4.7884685e-05
5.5634401e-05
5.5133667e-05
4.6669522e-05
3.4962025e-05
2.5951924e-05
1.6529222e-05
1.2543882e-05
1.2049393e-05
1.3165519e-05
1.4416597e-05
1.3236104e-05
1.0146907e-05
9.8186131e-06
1.0651165e-05
1.1846507e-05
1.1240013e-05
9.1739989e-06
9.2095484e-06
1.0801876e-05
1.1244285e-05
1.3193524e-05
1.8578184e-05
2.8300034e-05
3.2699849e-05
3.1464564e-05
2.5358061e-05
2.0937263e-05
1.7880619e-05
1.3489488e-05
1.167071e-05
1.1592435e-05
1.364847e-05
1.5102943e-05
1.3642736e-05
1.0959539e-05
1.0711269e-05
1.2852504e-05
1.3718453e-05
1.1640314e-05
1.0191255e-05
1.0718379e-05
1.2049559e-05
1.1380692e-05
1.0051226e-05
1.1325766e-05
1.6455486e-05
1.9293222e-05
1.83972e-05
1.5139579e-05
1.4190972e-05
1.3901278e-05
1.2336767e-05
1.1259399e-05
1.1598949e-05
1.3939565e-05
1.5106343e-05
1.38442e-05
1.2202808e-05
1.2191689e-05
1.4034373e-05
1.4335296e-05
1.2205867e-05
1.1414413e-05
1.1874106e-05
1.2811087e-05
1.167453e-05
9.8088591e-06
7.7614327e-06
1.0058071e-05
1.2189183e-05
1.2028888e-05
1.0667954e-05
1.1300262e-05
1.2263652e-05
1.2271266e-05
1.1460768e-05
1.157262e-05
1.3995736e-05
1.5487624e-05
1.413604e-05
1.2364766e-05
1.244783e-05
1.5106636e-05
1.5375265e-05
1.2698023e-05
1.1608842e-05
1.2936632e-05
1.3793076e-05
1.2384305e-05
1.1993953e-05
5.9157789e-06
6.9267812e-06
8.52627e-06
8.6917097e-06
8.4678426e-06
9.8920352e-06
1.1857947e-05
1.2286145e-05
1.1484404e-05
1.143979e-05
1.4307876e-05
1.5862372e-05
1.392836e-05
1.1864172e-05
1.2943834e-05
1.594873e-05
1.5408318e-05
1.2851684e-05
1.2495355e-05
1.4337246e-05
1.4275357e-05
1.2882743e-05
1.1798453e-05
4.8415671e-06
5.6295088e-06
7.0180448e-06
7.2444766e-06
7.9882176e-06
9.9597081e-06
1.1902833e-05
1.203663e-05
1.1069495e-05
1.1466067e-05
1.4537587e-05
1.5505663e-05
1.2969947e-05
1.1368838e-05
1.3809762e-05
1.63759e-05
1.5428452e-05
1.3090038e-05
1.3955529e-05
1.5353104e-05
1.4379955e-05
1.3353539e-05
1.2813509e-05
4.7646115e-06
4.8681666e-06
5.953783e-06
6.3633155e-06
7.0408585e-06
8.9932132e-06
1.1479226e-05
1.1678118e-05
1.0760387e-05
1.0767038e-05
1.2873557e-05
1.5058365e-05
1.3863266e-05
1.1472933e-05
1.2439618e-05
1.5619668e-05
1.5506558e-05
1.3412796e-05
1.3576171e-05
1.5208492e-05
1.5095628e-05
1.3805628e-05
1.4697982e-05
5.1376443e-06
4.6123024e-06
5.3265305e-06
5.8412605e-06
6.2866909e-06
7.4466809e-06
9.8648837e-06
1.0841773e-05
1.031626e-05
1.0155018e-05
1.1116756e-05
1.3834976e-05
1.3800389e-05
1.1956482e-05
1.1887909e-05
1.3719965e-05
1.4899796e-05
1.39853e-05
1.271247e-05
1.3293467e-05
1.475833e-05
1.435119e-05
2.170954e-05
6.827013e-06
4.6406656e-06
4.9999505e-06
5.5433423e-06
5.7507001e-06
6.373488e-06
8.1054426e-06
9.6004944e-06
9.5408705e-06
9.403769e-06
9.8599973e-06
1.2131837e-05
1.2915046e-05
1.1996013e-05
1.1195005e-05
1.1791976e-05
1.3788702e-05
1.3542568e-05
1.2406995e-05
1.2329048e-05
1.330399e-05
1.4067377e-05
2.9316823e-05
9.2453256e-06
4.9038383e-06
4.9718512e-06
5.4300989e-06
5.5450458e-06
5.8907725e-06
6.8682248e-06
8.3422627e-06
8.4962421e-06
8.4284427e-06
8.6385733e-06
9.7307187e-06
1.1618896e-05
1.1378072e-05
1.0452291e-05
1.0529458e-05
1.1550244e-05
1.2809003e-05
1.2388622e-05
1.1796013e-05
1.2004036e-05
1.2941719e-05
3.5585951e-05
1.0422258e-05
5.2010057e-06
5.118865e-06
5.4786591e-06
5.4844593e-06
5.6346643e-06
6.045136e-06
6.9971812e-06
7.1726957e-06
7.1334705e-06
7.2297118e-06
7.7172366e-06
9.2621276e-06
1.014863e-05
9.7081054e-06
9.5236717e-06
9.911729e-06
1.1264332e-05
1.1903423e-05
1.1588707e-05
1.1567883e-05
1.2079272e-05
4.2505474e-05
1.0331596e-05
5.2758399e-06
5.3483983e-06
5.5603761e-06
5.2537159e-06
5.1616824e-06
5.3348846e-06
5.9210357e-06
5.9918895e-06
5.8803199e-06
5.9171156e-06
6.1244611e-06
6.788683e-06
8.1988837e-06
8.5201619e-06
8.4977821e-06
8.6506334e-06
9.2050263e-06
1.0540655e-05
1.0877283e-05
1.0993902e-05
1.1316553e-05
4.4690232e-05
9.3541217e-06
5.4873436e-06
5.6636101e-06
5.6179212e-06
4.8712751e-06
4.7093859e-06
4.8716463e-06
5.4023132e-06
5.4354973e-06
5.2939411e-06
5.1305992e-06
5.1899334e-06
5.4393654e-06
6.2271043e-06
6.8898911e-06
7.0583571e-06
7.2162632e-06
7.4884419e-06
8.1108336e-06
9.1604274e-06
9.6399744e-06
1.0593663e-05
4.2207419e-05
8.5377787e-06
6.5699632e-06
6.6511208e-06
5.9242999e-06
4.8341133e-06
4.5747767e-06
4.7408001e-06
5.2469767e-06
5.2831151e-06
5.1626203e-06
4.8673755e-06
4.8487357e-06
4.9136704e-06
5.1657942e-06
5.6398806e-06
5.8998164e-06
6.0895759e-06
6.265184e-06
6.5076004e-06
7.1478761e-06
7.6711469e-06
9.0926686e-06
3.5000685e-05
8.8657343e-06
7.2546465e-06
7.7922138e-06
7.0200836e-06
5.3805762e-06
4.5769476e-06
4.6133176e-06
4.9315737e-06
5.0339021e-06
4.9636332e-06
4.7034925e-06
4.6606525e-06
4.6924026e-06
4.8063105e-06
5.0947532e-06
5.2695104e-06
5.4733063e-06
5.5896946e-06
5.6495353e-06
5.8346262e-06
6.1389324e-06
7.2512496e-06
2.942735e-05
1.1872863e-05
8.091137e-06
8.059217e-06
7.5248698e-06
5.8871006e-06
4.4982709e-06
4.0536075e-06
4.0786714e-06
4.2633789e-06
4.4037526e-06
4.3006998e-06
4.2818629e-06
4.3285907e-06
4.4062092e-06
4.5209131e-06
4.6134349e-06
4.8077599e-06
5.0340413e-06
5.1332073e-06
5.1926536e-06
5.3155675e-06
5.9341137e-06
5.0896407e-05
2.0891217e-05
9.8056894e-06
8.109211e-06
7.4939711e-06
5.8653772e-06
4.1877287e-06
3.1683058e-06
2.9188357e-06
2.9730802e-06
3.1669055e-06
3.3138958e-06
3.3725738e-06
3.4904193e-06
3.6004706e-06
3.7285613e-06
3.9430653e-06
4.1204288e-06
4.4847512e-06
4.5960457e-06
4.7560701e-06
4.818186e-06
5.1350667e-06
7.8241643e-05
2.3466071e-05
1.0057857e-05
7.7935843e-06
6.8727525e-06
5.2612121e-06
3.3702886e-06
2.4393611e-06
2.1650554e-06
2.151732e-06
2.2226214e-06
2.3886402e-06
2.4883151e-06
2.6138016e-06
2.7210511e-06
2.84056e-06
3.033911e-06
3.1528397e-06
3.40563e-06
3.646657e-06
3.8020373e-06
3.9912493e-06
4.3583106e-06
9.4441079e-05
2.2506717e-05
9.226459e-06
5.9679305e-06
4.59837e-06
3.4887179e-06
2.4293714e-06
1.8909313e-06
1.6840755e-06
1.6395353e-06
1.6697694e-06
1.7796036e-06
1.8710686e-06
1.9501502e-06
1.9950848e-06
2.0558184e-06
2.1509974e-06
2.3370451e-06
2.5689485e-06
3.0300216e-06
3.2830808e-06
3.8662286e-06
2.7022727e-06
0.00010789245
2.1735705e-05
7.0384003e-06
3.6856384e-06
2.731097e-06
2.2605772e-06
1.7588647e-06
1.4567804e-06
1.3450699e-06
1.3445061e-06
1.4310427e-06
1.5584081e-06
1.6774721e-06
1.7759315e-06
1.8458405e-06
1.9610049e-06
2.1384248e-06
2.529282e-06
2.9978245e-06
4.0795002e-06
4.9103008e-06
6.9500107e-06
2.0933918e-06
0.0001192405
2.122325e-05
5.2049749e-06
2.3011226e-06
1.7693711e-06
1.5466754e-06
1.2843996e-06
1.171157e-06
1.1827567e-06
1.2879191e-06
1.4467568e-06
1.6434489e-06
1.9444573e-06
2.4591906e-06
3.2900564e-06
4.8214421e-06
7.1921513e-06
1.1677004e-05
1.7102734e-05
2.5634286e-05
3.3324234e-05
5.1454789e-05
3.8570758e-05
0.00012471099
1.9015737e-05
3.5959971e-06
1.5451372e-06
1.2740628e-06
1.1521133e-06
1.0898569e-06
1.1219438e-06
1.2502561e-06
1.5863769e-06
2.3606926e-06
4.1123511e-06
7.8176816e-06
1.4155455e-05
2.3504304e-05
3.7137273e-05
5.5691979e-05
8.11596e-05
0.00011143643
0.00014422966
0.00017651254
0.00021459519
0.00024114666
0.00012475414
1.4746231e-05
2.437376e-06
1.1864776e-06
1.0756538e-06
1.072031e-06
1.1630704e-06
1.5754697e-06
2.8929567e-06
6.3688748e-06
1.4109317e-05
2.8234036e-05
5.0280233e-05
8.1748283e-05
0.00011900338
0.00015852892
0.00019778279
0.00023430975
0.00026533671
0.00029200387
0.00031475256
0.00033395389
0.00035664806
0.00012234811
1.1343478e-05
1.7226172e-06
1.0774184e-06
1.0930186e-06
1.3847406e-06
2.7870891e-06
7.2787795e-06
1.8087347e-05
3.8883666e-05
7.3913284e-05
0.00011805815
0.00016307528
0.00020424372
0.00024011777
0.00027134527
0.00029734632
0.00031705968
0.00032927688
0.00033485417
0.00033471379
0.00033270844
0.00034258584
0.0001184632
8.1354999e-06
1.3743436e-06
1.1480472e-06
1.8295603e-06
5.1868357e-06
1.5928477e-05
3.9302848e-05
8.0388361e-05
0.00012945453
0.00017805209
0.00022096911
0.00025721979
0.00028615865
0.0003074304
0.00032077802
0.0003262605
0.00032506182
0.00031796961
0.00030249791
0.00027706207
0.00024042069
0.00021111638
0.00011279968
6.1545805e-06
1.4125568e-06
2.3011364e-06
8.2848258e-06
2.7177558e-05
6.7189461e-05
0.00012102682
0.00017332503
0.00021984056
0.00025926748
0.00028971682
0.00031070554
0.00032174739
0.00032423737
0.00031945352
0.00030814172
0.00028646664
0.00025036441
0.00019771089
0.00013405652
8.5845898e-05
6.9007003e-05
0.00010554321
5.6131942e-06
2.4949281e-06
1.0368311e-05
3.6287267e-05
9.0071705e-05
0.00014993128
0.00020283634
0.00024763082
0.00028344557
0.00030929284
0.00032304614
0.00032675778
0.00032156282
0.00030927468
0.00028592492
0.00024740798
0.00019519823
0.0001304665
6.8269201e-05
3.7011938e-05
2.6257723e-05
2.4945358e-05
9.7063634e-05
6.0618098e-06
9.5784519e-06
3.9934836e-05
0.00010264867
0.00016538771
0.00022018849
0.00026503747
0.00029916718
0.00032136336
0.00033066611
0.00032946643
0.00031902253
0.00029786168
0.00026172515
0.00021231796
0.00015234221
8.4343857e-05
3.9059917e-05
2.0212003e-05
1.4916294e-05
1.4122202e-05
1.616478e-05
8.7891718e-05
9.6903776e-06
3.478878e-05
0.00010379346
0.00016994453
0.00022768745
0.00027453564
0.00030902314
0.00032956382
0.0003371065
0.00033239186
0.00031734735
0.00028785423
0.00024360317
0.00018831988
0.00012402907
5.8641737e-05
2.5877887e-05
1.3617747e-05
1.0328813e-05
9.8105445e-06
1.0269196e-05
1.2370363e-05
7.9226638e-05
2.4281842e-05
9.0315679e-05
0.0001632209
0.00022627008
0.00027713706
0.00031447349
0.00033581212
0.00034304151
0.00033739395
0.00032000918
0.00028550445
0.00023637154
0.0001767084
0.0001092911
4.8129962e-05
2.0334781e-05
1.0949926e-05
8.4007297e-06
7.9170471e-06
7.9177355e-06
8.3259806e-06
9.2050505e-06
7.3331325e-05
5.7174745e-05
0.00014510074
0.0002148288
0.00027243736
0.00031518432
0.00034035568
0.00034901041
0.00034449764
0.00032710847
0.00029175847
0.00024153778
0.0001800791
0.00011104965
4.7889593e-05
1.9991063e-05
1.0890963e-05
8.2038036e-06
7.3233172e-06
6.9407237e-06
6.6858598e-06
6.6326135e-06
6.738974e-06