/*--------------------------------*- C++ -*----------------------------------*\
| =========                 |                                                 |
| \\      /  F ield         | OpenFOAM: The Open Source CFD Toolbox           |
|  \\    /   O peration     | Version:  2406                                  |
|   \\  /    A nd           | Website:  www.openfoam.com                      |
|    \\/     M anipulation  |                                                 |
\*---------------------------------------------------------------------------*/
FoamFile
{
    version     2.0;
    format      ascii;
    arch        "LSB;label=32;scalar=64";
    class       volScalarField;
    location    "60";
    object      omega;
}
// * * * * * * * * * * * * * * * * * * * * * * * * * * * * * * * * * * * * * //

dimensions      [0 0 -1 0 0 0 0];

internalField   nonuniform List<scalar> 
20580
(
3.5506157
2.6723091
2.1645671
1.8161402
1.5663329
1.3807498
1.2392203
1.1279611
1.0385808
0.96504696
0.90459502
0.85288595
0.80971587
0.77168057
0.73907978
0.71019008
0.68599878
0.66355228
0.64517387
0.62969105
0.61668486
0.60143678
0.58978793
0.58264688
0.57774562
0.57742582
0.57574883
0.57165003
0.57389439
0.58245366
0.59390884
3.5718434
2.678477
2.169117
1.8236999
1.5766849
1.3889419
1.2466911
1.1338118
1.0433663
0.96934464
0.90903283
0.85665956
0.81329828
0.77524557
0.74203159
0.71341563
0.68840446
0.66610688
0.64744683
0.63196493
0.62000328
0.60894881
0.59476931
0.58640177
0.58185588
0.58179865
0.58381719
0.58355671
0.58232019
0.58779932
0.59763203
3.5704262
2.6816282
2.1690701
1.8256904
1.5802363
1.3947377
1.2528628
1.1397084
1.0486049
0.97419554
0.91274044
0.86031917
0.81610421
0.77802808
0.74454484
0.71592139
0.69084782
0.66863844
0.64953052
0.63345091
0.62021119
0.61121376
0.59879486
0.58786004
0.5827458
0.58190342
0.58361751
0.58441561
0.58452575
0.58932346
0.6005964
3.5673456
2.6787441
2.1692261
1.8257102
1.5803392
1.3968817
1.256346
1.1443401
1.053256
0.97908209
0.91697503
0.86413316
0.8200892
0.78116199
0.74794328
0.7184615
0.6933087
0.67107095
0.65223057
0.63521512
0.6212866
0.61212291
0.60163765
0.59013088
0.58350182
0.58219636
0.5833696
0.58389379
0.58330653
0.58512853
0.59506167
3.5699396
2.6724998
2.1715428
1.8279151
1.5828342
1.3994964
1.2598366
1.1479086
1.0564264
0.98290066
0.9211322
0.86864928
0.82402936
0.78521238
0.75143484
0.72240306
0.69612063
0.67410249
0.65541298
0.63772724
0.62289352
0.61405675
0.60386439
0.59409605
0.58544223
0.5836474
0.58514575
0.58729915
0.58613982
0.58598733
0.58998346
3.5768877
2.6697559
2.1702702
1.8322408
1.5905205
1.4057178
1.2656838
1.1535823
1.0618586
0.98732122
0.92495554
0.872761
0.8270585
0.78889315
0.75488234
0.72615257
0.69978122
0.67777041
0.65940042
0.6412588
0.6264091
0.61689305
0.60692359
0.59750228
0.58900915
0.58511514
0.58545173
0.59025061
0.59411933
0.59749881
0.59751893
3.5809566
2.6696965
2.1640694
1.8299154
1.5898376
1.4105136
1.271774
1.1614868
1.0702832
0.99404831
0.92996131
0.876773
0.83065533
0.79159035
0.7582723
0.72839118
0.70273804
0.68056458
0.66223403
0.64407755
0.62964026
0.61937561
0.60944933
0.5987697
0.59122845
0.58474857
0.5830717
0.58708339
0.59419287
0.60067336
0.60686418
3.5855452
2.6664501
2.145336
1.8116784
1.5797639
1.4082764
1.273616
1.1654113
1.0762376
1.0009453
0.93749139
0.88345237
0.83747119
0.79705058
0.76341155
0.7323679
0.70624271
0.68359306
0.66453195
0.64645571
0.63165616
0.62049072
0.6105649
0.6007186
0.59298964
0.58554058
0.57947723
0.57947489
0.58565473
0.59326558
0.60424293
3.6025944
2.6724496
2.1446271
1.7953489
1.555203
1.3867606
1.2596108
1.1576551
1.07246
1.0004389
0.93954591
0.88752409
0.84281294
0.80339311
0.76946235
0.73901328
0.71232008
0.68953007
0.6692124
0.65183153
0.63606127
0.62358364
0.6131527
0.6051602
0.5985255
0.59006403
0.58196567
0.57942169
0.58250647
0.58800693
0.59415252
3.8008396
2.787523
2.1940887
1.8214435
1.5643194
1.3816332
1.2438547
1.1362012
1.0519676
0.98455917
0.9287726
0.88101961
0.83992671
0.80276838
0.76991808
0.74075068
0.71448316
0.69275612
0.67209429
0.65534065
0.63999734
0.62761374
0.61755333
0.6106901
0.60392064
0.5997029
0.59242629
0.58882302
0.58920924
0.59307011
0.59728499
3.8903591
3.221429
2.498909
2.0262517
1.6765413
1.4401018
1.2752963
1.1527362
1.058412
0.98482442
0.92418838
0.87354111
0.83107544
0.79521907
0.7639148
0.7361813
0.71116101
0.6903324
0.67035254
0.65469795
0.64021435
0.62780416
0.61796111
0.61264194
0.60462201
0.60109328
0.59614984
0.59563753
0.5968591
0.60165604
0.60971411
3.5701526
3.1306179
2.6529122
2.2720737
1.9548518
1.686361
1.4696202
1.2981374
1.1592358
1.0456754
0.96109954
0.89628218
0.84500944
0.80383714
0.76882896
0.73934192
0.71331581
0.69116972
0.67081668
0.65522366
0.64070753
0.62715774
0.61670886
0.61252681
0.60436177
0.59911744
0.59394422
0.59376541
0.59444384
0.59721598
0.60689805
3.7696782
2.9366556
2.5226458
2.1785213
1.9328081
1.7339634
1.5700602
1.4279945
1.3016201
1.1913425
1.0949175
1.0114151
0.94120789
0.88331443
0.83280621
0.7919135
0.75525898
0.72360641
0.69618671
0.67448039
0.65567951
0.63753637
0.62367964
0.61754064
0.60857405
0.59990058
0.59368101
0.59060499
0.58916629
0.58869066
0.5923429
3.8328606
3.0417081
2.5154158
2.1519508
1.8619592
1.6558245
1.4974428
1.3682704
1.2586683
1.1727383
1.0975196
1.03636
0.98423205
0.93895588
0.89759593
0.86027652
0.82758278
0.79766849
0.76978587
0.74382661
0.72188586
0.69690158
0.6758019
0.66160787
0.64586115
0.62895074
0.61307035
0.60390751
0.59819323
0.59485014
0.59316006
3.6079698
2.8657158
2.4340554
2.1260511
1.8609485
1.6543887
1.4889286
1.3522748
1.2374659
1.1392771
1.0637043
1.0026554
0.95249039
0.91083285
0.87488008
0.84179905
0.81491542
0.79065831
0.76761423
0.74837678
0.73049362
0.71581485
0.70073316
0.69220919
0.68213561
0.6727327
0.66113286
0.65321811
0.64373273
0.63770177
0.62769299
3.8476346
3.0165359
2.4378752
2.0580179
1.7880603
1.5949273
1.4425752
1.3215515
1.2198651
1.1327973
1.0590978
0.99853486
0.94743438
0.90395304
0.86598103
0.83281981
0.80234623
0.77694046
0.7530463
0.73450234
0.71614796
0.70395298
0.69099062
0.68249944
0.67665488
0.67135073
0.66569922
0.66020486
0.65905047
0.65986052
0.6588965
3.5946283
2.9440617
2.4697445
2.0986341
1.8096388
1.5899315
1.4154849
1.2769595
1.1690995
1.0865302
1.018569
0.96543455
0.92175412
0.88509587
0.85311068
0.82457163
0.79660871
0.77204432
0.75071434
0.73118102
0.71266194
0.6988535
0.68591292
0.67351114
0.66644853
0.66037427
0.65630473
0.65041439
0.64772849
0.64908419
0.65223946
3.8247288
2.9538938
2.4492475
2.0800775
1.8047847
1.5966332
1.435215
1.3065727
1.1954912
1.1015168
1.024068
0.96016662
0.90753442
0.86150489
0.82507472
0.79388892
0.76687365
0.74273694
0.72477338
0.70671312
0.69125351
0.678218
0.6678337
0.65562802
0.64676051
0.64107788
0.63549014
0.62835143
0.62330656
0.62061214
0.62332877
3.6834241
2.8840872
2.3922342
2.0423757
1.7716004
1.5695746
1.4174324
1.2988368
1.1989508
1.1176042
1.0459316
0.9835285
0.92999334
0.88360515
0.8443156
0.80909167
0.78100333
0.75387664
0.73184333
0.71205803
0.69383606
0.67926738
0.66802583
0.65630251
0.64495167
0.63809473
0.63459293
0.62932161
0.6244772
0.62099598
0.62010447
3.7042037
2.9145392
2.3986839
2.047061
1.7808297
1.5823323
1.4305637
1.3089337
1.2113689
1.1327012
1.0690209
1.0166531
0.96902919
0.93465052
0.89723752
0.86395749
0.8478945
0.81849333
0.79205026
0.77543473
0.75554287
0.73409288
0.72121885
0.7100059
0.69643312
0.68547255
0.68165594
0.67831854
0.67224996
0.66881277
0.66001566
3.7983246
3.1281363
2.5335481
2.216469
1.9645984
1.7594677
1.6159136
1.4883997
1.3978704
1.3238594
1.2653735
1.2187643
1.1785511
1.1447243
1.110885
1.0813616
1.068405
1.0507855
1.0273226
1.0134026
0.99818031
0.97978504
0.96571406
0.95601834
0.94187164
0.92758388
0.92552772
0.92565375
0.92028993
0.91496607
0.89007226
4.4040644
5.2489813
4.0678911
3.7174112
3.3882272
3.1911598
3.0332906
2.8830988
2.8201602
2.7101355
2.6581551
2.5654728
2.5104623
2.4396724
2.385358
2.3567077
2.3923525
2.279219
2.2535919
2.215059
2.1929193
2.1393871
2.1434535
2.1233379
2.0983646
2.0504441
2.0573546
2.0638108
2.0492451
2.0308217
1.9711206
13.074906
14.341622
12.431157
11.449156
10.995917
10.268166
9.8359105
9.4067607
8.9897078
8.7032578
8.3661935
8.1512992
7.8677217
7.6766646
7.4441593
7.2493681
7.0882648
6.9826437
6.7837787
6.6927195
6.4897053
6.4119348
6.2596485
6.171954
6.0090633
5.9387389
5.8359336
5.7655027
5.6343456
5.5497191
5.481739
5.7719798
2.048412
0.92224158
0.66856238
0.62191851
0.62044603
0.64699617
0.66105769
0.63756604
0.60085371
0.59897523
0.61420145
0.61930288
0.60721586
0.59927097
0.60787836
0.615643
0.61360788
0.60485391
0.60656142
0.61067856
0.60971854
0.60332226
6.2954395
2.68387
1.1129754
0.71124155
0.62530595
0.61552704
0.63873788
0.66587197
0.65408492
0.61525556
0.60806404
0.62058348
0.63279766
0.62554917
0.60939478
0.61276791
0.62904972
0.63135419
0.62236449
0.61713845
0.62073492
0.62817737
0.62498834
7.0285144
2.4415546
1.0858331
0.71865278
0.63197874
0.61615186
0.63314661
0.67121447
0.67078995
0.63516549
0.61340436
0.62282737
0.64335646
0.64088726
0.62524677
0.62537233
0.63969958
0.64579948
0.64065581
0.62879535
0.63094936
0.64214718
0.64471191
7.8442787
3.0900035
1.1720363
0.75443811
0.65407822
0.62884619
0.64239719
0.68266858
0.68432121
0.65289855
0.62066788
0.62594686
0.65176492
0.65820691
0.65145745
0.64040508
0.64716233
0.66309108
0.6610472
0.65069229
0.64728324
0.65550052
0.66055865
8.8137827
4.5551503
1.6174482
0.88697003
0.70545527
0.65427464
0.65560786
0.69318585
0.69781144
0.67576422
0.63705375
0.63663205
0.66149831
0.67630859
0.67363297
0.65478125
0.65580696
0.67552428
0.67911941
0.6763804
0.66810512
0.67233585
0.6830901
9.6659419
3.8574966
1.572155
0.93168709
0.73291502
0.66414847
0.66202702
0.70301307
0.71907463
0.70533509
0.66355484
0.65520212
0.68120338
0.69642812
0.69175706
0.67543223
0.66840418
0.6847938
0.69688575
0.70082742
0.69684592
0.69611547
0.70347064
10.330209
3.3502857
1.5171523
0.9411903
0.74719608
0.68086218
0.67416611
0.71241651
0.73944988
0.73602282
0.70472633
0.67881579
0.69384161
0.72195551
0.71726508
0.7075049
0.69020025
0.69580713
0.71823985
0.72275782
0.72086848
0.71260842
0.713195
11.42405
3.3718006
1.5456262
0.9937192
0.79550809
0.71625389
0.69775905
0.73182027
0.76199625
0.75732942
0.73058989
0.69850501
0.70126902
0.73610277
0.74024136
0.73776501
0.72404415
0.7210332
0.74132046
0.7484383
0.74532171
0.73893626
0.73532325
12.906624
4.8382008
1.9786694
1.1887212
0.90863535
0.79413012
0.74411161
0.75745155
0.78757526
0.77928779
0.75143712
0.71395219
0.71096055
0.74895369
0.76368552
0.76244044
0.75523383
0.74885753
0.76187895
0.77415602
0.76947957
0.75990473
0.75601631
14.621855
8.4890422
4.0963913
2.1942439
1.3484388
0.98648902
0.82602787
0.79744555
0.82535658
0.82394174
0.80303338
0.75670645
0.74103438
0.7694209
0.78990615
0.78753425
0.78168213
0.77443403
0.7772889
0.80068074
0.80331667
0.7961602
0.78819562
17.346987
11.751569
5.7426077
3.2204561
2.0244385
1.3941926
1.0376736
0.88678223
0.88190416
0.8765765
0.8656381
0.82216596
0.78074766
0.79313237
0.82096149
0.81523168
0.80353869
0.79467501
0.79466247
0.81611217
0.82154861
0.81577941
0.81364778
18.739354
10.693616
5.3795985
3.1170666
2.0504767
1.4798327
1.1571697
0.96211939
0.94103649
0.93044938
0.90479198
0.85998768
0.81519078
0.81771435
0.85138275
0.84909572
0.83048145
0.81982761
0.81203136
0.82432303
0.84711726
0.84884986
0.84259975
19.470937
7.9620905
4.7223341
2.934575
1.983998
1.4608353
1.2028278
1.0184372
0.99537448
0.9735613
0.9191396
0.88881536
0.84985412
0.84990782
0.90284939
0.90150905
0.87043859
0.85568396
0.84350437
0.84676326
0.87783915
0.88166806
0.87496538
20.32771
7.2440274
3.9492429
2.5189731
1.8044326
1.4486753
1.2497026
1.0760894
1.0450128
0.98798287
0.92779122
0.91303784
0.89030044
0.88809439
0.93501241
0.9379227
0.91341154
0.89872697
0.89276749
0.88986133
0.91215977
0.91322724
0.90398108
21.558296
7.2139001
3.3728903
2.1424947
1.6700046
1.4777588
1.3181456
1.1418115
1.0890402
0.9918001
0.9361363
0.93154471
0.92577064
0.93224615
0.97075779
0.97251563
0.95592884
0.94510811
0.95637146
0.95666313
0.97158502
0.96390695
0.94632151
22.997338
7.468168
3.2052548
2.0032353
1.6483434
1.5256974
1.4283852
1.2427439
1.1305942
0.99818755
0.94646102
0.94547118
0.94820106
0.96982439
1.0027462
1.0014309
0.98647728
0.97619969
0.99530383
0.99547954
1.0135596
1.0156608
0.99385007
24.39233
8.1752009
3.4426175
2.0892987
1.7303012
1.6639028
1.6525434
1.4380256
1.1923636
1.0165196
0.96505268
0.96668896
0.97295906
0.99900829
1.0265549
1.0207521
1.0012972
0.99117682
1.0244519
1.0392054
1.0706652
1.0669551
1.034617
26.887018
11.134312
4.8737152
2.8406141
2.2920038
2.2108
2.1864274
1.8663037
1.3521058
1.0809474
1.0116795
1.0159728
1.0315011
1.0596812
1.0747714
1.0462826
1.0183181
1.003125
1.0406119
1.0612754
1.1011005
1.1043818
1.0705204
27.631317
14.301288
8.2461898
5.4287283
4.3350805
3.9566259
3.5910531
2.9248467
1.8886645
1.2991628
1.1467603
1.1400943
1.1469988
1.1470983
1.1488601
1.1020457
1.0585876
1.0372825
1.087388
1.1191905
1.1553145
1.1444396
1.0974807
26.598192
15.284481
9.6578391
7.2941419
6.2168995
5.5535834
4.8721149
4.0411149
2.9212908
1.786386
1.3603272
1.2727003
1.2591668
1.2418422
1.2370246
1.1973244
1.1191217
1.0849593
1.144661
1.179572
1.2055684
1.1980654
1.1356958
24.303123
15.071393
9.7496984
7.7147549
6.7858962
6.0803189
5.3406483
4.5179357
3.4543194
2.1096442
1.4898857
1.3546272
1.3323252
1.3015509
1.2904932
1.2520744
1.1521994
1.1192778
1.2136568
1.2632473
1.279709
1.2445101
1.1504705
21.92288
13.2591
9.1105262
7.5285193
6.6919001
5.9878943
5.2780588
4.5096629
3.4883194
2.1307354
1.4996359
1.3719619
1.3584362
1.3301371
1.3236982
1.2680968
1.1587043
1.1480824
1.2644753
1.328451
1.3315044
1.2571652
1.1703234
20.526015
10.845273
7.2767506
6.2603922
5.596498
5.0049211
4.5516245
3.9960868
3.020194
1.8270783
1.4019015
1.3689397
1.3735662
1.3586165
1.3555261
1.2695877
1.163447
1.178889
1.3224013
1.3869875
1.3836636
1.2554004
1.1877204
19.278568
9.8569146
6.266787
5.0888094
4.4930833
4.1440307
3.8769968
3.3328455
2.2787929
1.538973
1.3493058
1.3782518
1.4116948
1.4229445
1.4009485
1.2662932
1.1751313
1.2614669
1.415796
1.4521173
1.4050797
1.2550741
1.2179583
17.884554
9.4016181
5.9623115
4.8281433
4.293309
3.9967545
3.6743892
3.0434161
1.9759414
1.4796462
1.3640826
1.436717
1.4981098
1.5041073
1.4404762
1.275241
1.2140133
1.3695392
1.4816828
1.4909946
1.4009852
1.2704282
1.2737125
16.330163
9.0842424
5.9237877
4.8918467
4.4168318
4.1078662
3.6835377
3.0230355
1.9777422
1.5280183
1.4570557
1.5790657
1.6175784
1.5932099
1.4640622
1.3030738
1.3164137
1.5046457
1.5651975
1.5466069
1.3751761
1.2998648
1.4108788
14.434162
8.8562298
5.9793208
5.0968388
4.6847723
4.2921817
3.7830083
3.1458466
2.1445673
1.680263
1.6040316
1.6785654
1.7104213
1.6892285
1.490391
1.3692552
1.4461996
1.5868052
1.610337
1.5536404
1.3920043
1.3693304
1.5173412
12.239342
8.4806467
5.9264161
5.0821197
4.6701383
4.2457793
3.753555
3.1980538
2.2892792
1.7878848
1.6853499
1.7397241
1.8095178
1.7712994
1.5289624
1.4388674
1.5338654
1.665807
1.685888
1.5460104
1.434899
1.5147663
1.6301389
10.642134
7.3325122
5.4829841
4.8101517
4.3484624
3.8402522
3.4161138
3.0070013
2.2369126
1.8008988
1.7365397
1.7984362
1.8559084
1.7904998
1.5818702
1.54508
1.6540023
1.7309265
1.7211278
1.5664721
1.5282943
1.638714
1.6901006
9.4526374
6.3796749
4.6496105
4.0226825
3.5017904
3.0706481
2.8377323
2.55385
2.0177091
1.7618801
1.7276024
1.8021112
1.8834645
1.8125256
1.6464611
1.6349736
1.7238854
1.7917435
1.7408998
1.61432
1.6311717
1.7356642
1.7586519
8.3128829
5.8060336
4.1920636
3.4880341
2.9521669
2.609919
2.4682467
2.2409501
1.858516
1.7132527
1.6966454
1.8075447
1.8892663
1.8200014
1.694405
1.6932371
1.8253206
1.8695048
1.7553625
1.6806808
1.7132427
1.7912742
1.7500491
7.2405721
5.262064
3.7911725
3.0776673
2.5804284
2.2954446
2.2173777
2.0743988
1.7839338
1.6836902
1.6739815
1.7978427
1.871054
1.8184721
1.7485551
1.756644
1.8694079
1.8899757
1.7764063
1.7292996
1.7597905
1.8171263
1.7579049
6.4207925
4.5838231
3.2123298
2.6030477
2.2400827
2.0261583
1.9986755
1.9316655
1.7475829
1.6690215
1.6522005
1.7828175
1.865706
1.8170653
1.7385759
1.75389
1.902033
1.9086223
1.7765944
1.7220493
1.7983045
1.8521
1.7836217
5.9413334
3.7786939
2.6647192
2.246499
2.000221
1.8333579
1.8231504
1.8170975
1.7197634
1.6343865
1.6072816
1.7714846
1.863932
1.7931113
1.6861197
1.7546353
1.9147941
1.8972912
1.7698094
1.7524203
1.8567982
1.8526681
1.7842456
5.4489154
3.1129027
2.2180866
1.9341724
1.7897081
1.7143763
1.7193385
1.715056
1.6451725
1.5721443
1.5927194
1.7699477
1.8287946
1.7133862
1.6336038
1.7775535
1.9104815
1.8773906
1.7628365
1.8056538
1.8822032
1.8451521
1.7846061
5.1886724
3.0163617
2.1086972
1.8169237
1.6695999
1.6172022
1.6262671
1.6380696
1.6079128
1.5303306
1.5285984
1.6486897
1.7780075
1.7259333
1.6138027
1.6739287
1.8519884
1.848156
1.7505758
1.763665
1.8576485
1.8504943
1.7890586
5.185774
3.0843378
2.1307133
1.8010626
1.6132512
1.5198391
1.5314333
1.5573679
1.5510799
1.4937139
1.4783408
1.5339177
1.6910379
1.70509
1.6165344
1.6167507
1.714859
1.7975509
1.7427727
1.6796197
1.7157949
1.8129246
1.8028279
5.3980378
3.3130898
2.2698672
1.8428218
1.5998864
1.45298
1.4394816
1.4661503
1.4801897
1.4481009
1.4218469
1.4471345
1.5744959
1.6318599
1.5965202
1.5529173
1.5861047
1.7081892
1.701612
1.6432985
1.6394226
1.6935953
1.748576
5.6995492
3.369972
2.3203093
1.8765978
1.5983234
1.4214107
1.3656415
1.3770941
1.3943345
1.3813751
1.3497407
1.3591232
1.4185836
1.539576
1.5339819
1.493596
1.4975941
1.5501364
1.6376094
1.6206315
1.5907282
1.6023107
1.6584834
5.9461033
3.2984498
2.2719885
1.8569996
1.5768227
1.3731781
1.2875737
1.2848407
1.2893141
1.2801111
1.2495159
1.2519834
1.2794659
1.3789963
1.438359
1.4217812
1.4194096
1.4426472
1.5214507
1.569907
1.5589979
1.558571
1.5894286
6.1410637
3.0169232
1.9938228
1.6728435
1.4347482
1.2436448
1.1851139
1.1908372
1.1902587
1.1778825
1.1447935
1.139409
1.1525993
1.1985511
1.2982452
1.3260209
1.3299992
1.3442588
1.3817175
1.4626352
1.4952117
1.5072413
1.5333054
6.1833214
2.5192912
1.6438727
1.4034178
1.2465909
1.1083981
1.0945815
1.1108902
1.1262616
1.1183176
1.0897798
1.0673173
1.070861
1.0889588
1.1462589
1.2000708
1.2193113
1.2347706
1.2543297
1.2974228
1.3640952
1.3979249
1.4658674
6.1421169
2.0985207
1.4402358
1.2756705
1.1621653
1.054302
1.0316354
1.0544455
1.0941222
1.090888
1.0714418
1.0400866
1.0375992
1.0425998
1.0614358
1.1019404
1.1245977
1.1427715
1.1572501
1.1747581
1.2197599
1.2564135
1.3545236
6.0030306
2.0948185
1.4117917
1.2648469
1.1590278
1.0577421
0.99024932
0.99970497
1.0283224
1.047718
1.0405882
1.0174584
1.0147105
1.0176463
1.0279295
1.0518866
1.0693428
1.0883165
1.1036671
1.109541
1.1237173
1.145665
1.2256488
5.8644663
2.7100787
1.5693091
1.3574536
1.2449705
1.1078442
0.98229796
0.92160649
0.9261177
0.94535586
0.96589428
0.96421363
0.96611349
0.97371246
0.98153836
0.99551564
1.0058448
1.0252979
1.0439991
1.0504971
1.057502
1.0674045
1.1128742
6.427971
3.4929902
2.0381481
1.6442101
1.4504009
1.2115678
0.98732665
0.86856611
0.8256177
0.82831445
0.83975207
0.85247568
0.85868541
0.87029246
0.8851239
0.89897015
0.92110778
0.94141672
0.97515066
0.99264346
1.0023531
1.0091522
1.0380639
7.12118
3.5052166
2.1621622
1.7520141
1.5028969
1.2316893
0.98199194
0.82374634
0.75131234
0.7306087
0.73135142
0.7375553
0.7514944
0.76698848
0.78978505
0.8040739
0.83419671
0.85209913
0.8887679
0.90455141
0.93617274
0.94685106
0.97816569
7.5294929
3.301582
2.1100726
1.7090399
1.4385904
1.1698533
0.91567716
0.74575071
0.6756585
0.65377668
0.65336502
0.66311949
0.67993964
0.69289157
0.70384734
0.7107843
0.72478536
0.74053678
0.77269441
0.80850908
0.83800711
0.87101489
0.91622035
7.8406757
3.1761731
1.857102
1.4232206
1.1431186
0.93303683
0.74883973
0.64440044
0.60334874
0.59617092
0.60329661
0.61896962
0.63284087
0.63962851
0.64196514
0.64555249
0.65726358
0.6861514
0.72901637
0.77500387
0.81038633
0.86813651
0.86694232
8.0908775
3.1231759
1.5412547
1.0625997
0.85271043
0.71889873
0.61472868
0.56704846
0.55762616
0.56626762
0.58479142
0.60428605
0.62064255
0.62923303
0.63668244
0.64779034
0.67354974
0.71805017
0.76995146
0.81866683
0.86881193
0.91274323
0.98495305
8.2335191
2.9918503
1.2693135
0.82744842
0.6724417
0.58836546
0.54122864
0.53290507
0.5436931
0.56597475
0.58874079
0.61569521
0.64348046
0.67236207
0.71315969
0.76917083
0.83308125
0.89092862
0.93916222
0.97865372
1.0201165
1.0539029
1.1025745
8.2661825
2.8032632
1.0457874
0.68106233
0.57035141
0.52657824
0.51974855
0.53080395
0.55551889
0.59612596
0.65181555
0.72516958
0.79008116
0.84431562
0.89007089
0.92675548
0.96081748
0.99212609
1.0215172
1.048822
1.0774479
1.1080704
1.1554196
8.2393705
2.627884
0.87727069
0.59333549
0.52733958
0.51516203
0.53068145
0.575872
0.66221776
0.75316494
0.82270058
0.86584592
0.89835528
0.927409
0.95438094
0.97889535
1.0024118
1.0252898
1.0475339
1.0695906
1.0918487
1.1201921
1.1717625
8.1799628
2.4552011
0.74825692
0.55505123
0.52528073
0.54671858
0.64583003
0.75423519
0.81876035
0.85886808
0.89314065
0.92352759
0.94670892
0.96601852
0.98332061
1.0000139
1.0168206
1.0338971
1.05125
1.0685758
1.0863734
1.1103247
1.1822776
8.0873399
2.3004336
0.67080486
0.55621698
0.57691511
0.71064798
0.80014477
0.84257624
0.88188239
0.91501802
0.9409629
0.95969671
0.97335095
0.98455759
0.99493068
1.005534
1.0174042
1.0310765
1.0456178
1.0586377
1.0683421
1.0686716
1.1271241
7.9585658
2.1727032
0.6608304
0.60693597
0.7496709
0.81303282
0.86553536
0.90393029
0.93301793
0.95484857
0.97034567
0.98019199
0.98667244
0.9917187
0.9967139
1.0033391
1.0109331
1.0188227
1.0233153
1.0096412
0.99267249
0.98725384
1.0366165
7.7976558
2.0230202
0.68867047
0.75401901
0.8302622
0.88336491
0.9230484
0.95040171
0.96913165
0.9816644
0.98860849
0.99137451
0.99198425
0.99164318
0.99179705
0.99134092
0.98909978
0.97733737
0.94355897
0.928191
0.92652948
0.9373681
0.97594775
7.6177931
1.6779419
0.76697124
0.83751212
0.8963415
0.93787671
0.96640678
0.98385339
0.99373457
0.99842889
0.99916325
0.99590467
0.99085392
0.98481546
0.97568935
0.96148386
0.92770164
0.88751794
0.87534639
0.87463119
0.88343224
0.90161524
0.9286809
7.4436215
1.3242676
0.86897772
0.90397956
0.95093115
0.98178884
0.99944713
1.0073091
1.0099893
1.0084925
1.0029225
0.99481368
0.98454395
0.97015158
0.94823107
0.9012503
0.84788748
0.83210097
0.83043552
0.83368575
0.84234089
0.85760693
0.87751942
7.3281809
1.3201351
0.95812409
0.96386808
0.99758881
1.0167768
1.0241272
1.0247928
1.0202217
1.0120676
1.0016016
0.98861417
0.97128889
0.94864482
0.90806207
0.84295175
0.80642277
0.79670366
0.79551435
0.79646407
0.80054275
0.80921972
0.82080332
7.4041239
1.3967715
1.0407201
1.0195606
1.0374061
1.045562
1.0451656
1.0372474
1.0256921
1.0117185
0.99545281
0.97482795
0.95164161
0.91885504
0.86975933
0.82009398
0.79117648
0.77697209
0.76660278
0.76350859
0.76341717
0.76519667
0.76839982
7.6066614
1.5870652
1.1339372
1.0765236
1.07395
1.0713944
1.0611417
1.0451879
1.0264205
1.0056469
0.98198331
0.95695822
0.92893241
0.89345642
0.85196651
0.81534806
0.79026287
0.77031708
0.75189509
0.73807092
0.73195281
0.72966686
0.72826508
7.884886
1.7770189
1.227187
1.1303992
1.1086777
1.0949456
1.0755171
1.0519962
1.0269966
0.998506
0.96840939
0.93909457
0.90960559
0.87911636
0.84696658
0.81670544
0.79150319
0.77007123
0.74875673
0.7298958
0.71433492
0.70341812
0.69943493
8.1620445
1.9296316
1.3155061
1.1873075
1.1489016
1.1240793
1.0960606
1.0647407
1.0315942
0.99745561
0.96156046
0.92951875
0.90200889
0.87573064
0.84734385
0.81874684
0.79421865
0.77170082
0.74949378
0.72991378
0.71226614
0.69562188
0.68141
8.4266529
2.0435991
1.3793934
1.2309951
1.1816055
1.1489924
1.1144398
1.0772818
1.0383871
0.99821545
0.96018323
0.9282747
0.90158361
0.87634713
0.84989929
0.82398033
0.80011362
0.77726989
0.75456828
0.73369013
0.71432646
0.6961527
0.67806371
8.5931125
2.167981
1.4769132
1.3094324
1.2473291
1.2009776
1.1521561
1.1007177
1.050962
1.0060374
0.96713681
0.9359352
0.90978613
0.88504018
0.85977965
0.83546869
0.81247286
0.78984488
0.76649284
0.74436127
0.72335343
0.70361135
0.68330772
8.8435173
2.3016801
1.5645477
1.3804075
1.3093871
1.2563646
1.1996297
1.1390398
1.078996
1.0297644
0.99512291
0.96857166
0.9448031
0.92133522
0.89689611
0.87204776
0.84713461
0.82203053
0.79585198
0.76964276
0.74462932
0.72135033
0.6978907
9.0178345
2.4394509
1.6711254
1.4638116
1.3791945
1.3091286
1.2389733
1.1743696
1.1238659
1.0856742
1.0565335
1.032993
1.0098141
0.98642237
0.96141819
0.93578301
0.91044691
0.88490295
0.85805288
0.82997676
0.80068598
0.77057008
0.73865163
9.2802258
2.6103358
1.7612522
1.5265485
1.4315369
1.3478164
1.2728091
1.2139645
1.172603
1.1386212
1.1093753
1.0834386
1.0587246
1.0343858
1.0093777
0.98519734
0.96194279
0.93915284
0.91576528
0.89316979
0.87084989
0.84755377
0.82178467
9.71358
2.6646211
1.7848445
1.5430715
1.4483106
1.3632832
1.2909139
1.23832
1.2023275
1.1701433
1.1392018
1.1108273
1.0847698
1.0601297
1.0352813
1.0120378
0.99077398
0.97107478
0.95093775
0.93234244
0.91541211
0.89929919
0.88088706
9.8616809
2.7821429
1.855569
1.5927899
1.4873019
1.4083772
1.3429867
1.293745
1.2487815
1.2055959
1.1657957
1.1311556
1.1009234
1.0726408
1.0455453
1.0215747
1.0007575
0.98175928
0.96328988
0.94754091
0.93369093
0.920661
0.90722422
10.065942
3.01293
1.9139137
1.641405
1.5419462
1.4614745
1.3943151
1.335804
1.2817612
1.2299726
1.1827356
1.1421781
1.1077568
1.0765156
1.0478474
1.0228951
1.0013909
0.98182543
0.96354644
0.9486018
0.93650388
0.92597394
0.91506572
10.822218
2.9066499
1.8975716
1.6332678
1.539174
1.4604011
1.3941563
1.3341276
1.2791279
1.2278787
1.180444
1.1388496
1.1035596
1.0723778
1.0435957
1.0177199
0.99505911
0.97524585
0.95759676
0.94254768
0.92971722
0.91865489
0.91110934
11.127794
2.9804199
1.9326262
1.6500281
1.5409839
1.4579448
1.3877828
1.3251753
1.2681035
1.2151902
1.1675286
1.1260297
1.0893445
1.0554913
1.0241184
0.99654611
0.97198563
0.95022714
0.93170714
0.91664533
0.90457249
0.89555576
0.88908527
11.014731
3.4007656
1.9990862
1.669228
1.5408652
1.4513948
1.3726123
1.3044154
1.2443682
1.1904785
1.1425028
1.0994101
1.0606991
1.0240664
0.99045756
0.96153105
0.93647118
0.91480476
0.89652035
0.88173415
0.86858257
0.85713528
0.84802473
11.902022
3.2468263
1.9813409
1.6500301
1.5199099
1.419844
1.3267653
1.2549297
1.1992291
1.1497404
1.1024414
1.0586424
1.0194028
0.98380427
0.95193697
0.92441964
0.90052127
0.87945238
0.86111026
0.84694404
0.83622648
0.82728724
0.81820467
12.601172
3.1191919
1.9337399
1.5878905
1.4527396
1.3528876
1.2772571
1.218243
1.1674007
1.1193015
1.0721772
1.0282112
0.98825599
0.95230129
0.92035403
0.89258848
0.86887214
0.84865985
0.83146694
0.81683281
0.80393989
0.79325649
0.7857379
12.948661
3.1943127
1.9454564
1.5553171
1.3842047
1.2849532
1.2183842
1.1697024
1.1267485
1.0834974
1.0401393
0.99907246
0.9611838
0.92625934
0.89473026
0.86675436
0.84214211
0.82053715
0.80232813
0.78814398
0.77769537
0.76912492
0.75964615
13.157708
3.4999181
2.0024037
1.5654246
1.3758449
1.2614191
1.1826558
1.1242034
1.0762501
1.0320623
0.99029804
0.95183282
0.9168762
0.88484969
0.85579321
0.82985192
0.80687052
0.78659494
0.76893575
0.75411529
0.74246434
0.73425951
0.72850244
13.191415
4.0049742
2.1363485
1.607398
1.3892055
1.2671507
1.1838195
1.1202902
1.0661173
1.016909
0.97152718
0.93035636
0.89357123
0.86082407
0.83178922
0.80623197
0.78370803
0.76405024
0.74715424
0.7331853
0.72185885
0.71174288
0.70096479
12.79928
5.0746974
2.4492283
1.7256194
1.4406604
1.2954713
1.2018006
1.1323687
1.0753373
1.0243085
0.97746728
0.93471647
0.89641419
0.86240634
0.83248131
0.80619495
0.78303944
0.762745
0.74527816
0.73080778
0.71941373
0.71043191
0.69711207
11.753234
6.6984421
3.2899159
2.0658062
1.6019737
1.3846341
1.259294
1.1732986
1.1069057
1.0506534
1.0004737
0.95503551
0.91416243
0.8776061
0.84524755
0.81671606
0.79173721
0.76986064
0.75104978
0.73533649
0.72300176
0.71370899
0.69841009
9.9477424
6.9227518
4.7139616
3.208375
2.2203263
1.7174295
1.4596718
1.3060706
1.2014763
1.1228671
1.0587629
1.0040432
0.95628113
0.91429967
0.87732638
0.844877
0.81645694
0.79149727
0.76974079
0.75105728
0.73637998
0.72450242
0.7089752
8.0636301
6.2080562
4.8925273
4.1297637
3.4948654
2.8692849
2.3413168
1.9247511
1.6049303
1.399317
1.2574176
1.1531048
1.0719422
1.0064963
0.95241217
0.90728948
0.86920629
0.83665495
0.80869267
0.7842915
0.7652505
0.74827514
0.73048816
7.3073528
5.1681227
4.4365653
4.0302395
3.6656136
3.3733629
3.1083194
2.8597337
2.6104791
2.3265172
2.0492971
1.7951839
1.5698643
1.3751488
1.2246568
1.1134675
1.0289249
0.96315601
0.91101544
0.86805095
0.83403392
0.80931834
0.75480332
7.4624163
4.3993077
2.9073272
2.8131272
2.8629863
2.9344296
2.9241675
2.8593777
2.7703324
2.6717977
2.5577044
2.430279
2.2885778
2.13352
1.9598572
1.777306
1.6024178
1.4409058
1.2996496
1.1763387
1.0707838
1.004718
0.90234998
7.6856737
2.9294648
1.5446559
1.3770169
1.4196378
1.5634662
1.8071848
2.0576102
2.2629262
2.3995736
2.4441079
2.4202934
2.3753299
2.307847
2.2286667
2.1421649
2.0424789
1.9397704
1.8240679
1.7225979
1.5976433
1.5128395
1.3661589
7.6079814
1.9247903
1.0410582
0.95799192
0.96995217
1.0418469
1.1469437
1.2799909
1.4293986
1.6024055
1.8134468
2.0076168
2.144558
2.1906494
2.1801837
2.1507463
2.1044772
2.0592251
2.0016874
1.9546105
1.8825131
1.8419121
1.7498632
7.432848
1.5543033
0.923883
0.86430265
0.87156838
0.9190616
0.9746778
1.0423253
1.1151923
1.196456
1.2942661
1.4121943
1.5507129
1.7132946
1.8494926
1.9450563
1.9870224
1.9933693
1.9788431
1.9564351
1.9231705
1.8939816
1.8853922
7.2653559
1.3737625
0.86489991
0.81528198
0.83363472
0.88198357
0.9316623
0.98499582
1.0372306
1.0867637
1.1334873
1.1783279
1.2258004
1.288914
1.3751241
1.4608497
1.5582825
1.6435287
1.7198832
1.766591
1.7922219
1.7932056
1.855262
7.1338301
1.3386263
0.86716455
0.81721135
0.83976779
0.89268305
0.94958658
1.0096731
1.0678856
1.1195565
1.1609732
1.1900049
1.2058819
1.2050154
1.2153082
1.2345694
1.2524934
1.2574239
1.2675082
1.2751017
1.3085491
1.3332478
1.3811863
7.048186
1.4763119
0.97214063
0.91749865
0.96123187
1.0430318
1.1404975
1.2429414