/*--------------------------------*- C++ -*----------------------------------*\
| =========                 |                                                 |
| \\      /  F ield         | OpenFOAM: The Open Source CFD Toolbox           |
|  \\    /   O peration     | Version:  2406                                  |
|   \\  /    A nd           | Website:  www.openfoam.com                      |
|    \\/     M anipulation  |                                                 |
\*---------------------------------------------------------------------------*/
FoamFile
{
    version     2.0;
    format      ascii;
    arch        "LSB;label=32;scalar=64";
    class       volScalarField;
    location    "60";
    object      rho;
}
// * * * * * * * * * * * * * * * * * * * * * * * * * * * * * * * * * * * * * //

dimensions      [1 -3 0 0 0 0 0];

internalField   nonuniform List<scalar> 
20580
(
1.0041498
1.0045084
1.0018762
1.002921
1.0022317
1.0030047
1.0009373
1.0009383
1.0015637
1.0015927
1.002073
1.0023969
1.0023872
1.0035549
1.0029632
1.0031795
1.0051911
1.0027757
1.0026836
1.0063798
1.0035004
1.0018301
1.0039406
1.0059318
1.0000621
1.0004903
1.0056173
1.0020942
1.0027327
1.0090852
1.0018558
1.0043459
1.004844
1.0017151
1.0030861
1.0023269
1.0030579
1.0012283
1.0010753
1.0011471
1.0016731
1.002139
1.0020748
1.0026366
1.0035192
1.0026753
1.0037872
1.0051784
1.0014513
1.0042831
1.0062245
1.0013972
1.0021213
1.0041039
1.0043728
0.99836912
1.0000617
1.0089438
1.0056518
0.99953184
1.0053959
1.008166
1.0033829
1.0044157
1.0015939
1.0025498
1.0020436
1.0022362
1.0017332
1.0015357
1.0008104
1.0017937
1.0021099
1.001723
1.0031299
1.0032894
1.0024783
1.0040803
1.0050746
1.0007984
1.005487
1.0059373
1.0001265
1.0030928
1.004703
1.0042234
0.99881718
0.99980863
1.0095902
1.0087838
0.99772097
0.99886156
1.009768
1.0016482
1.0033113
1.0015945
1.0016147
1.0015774
1.0009819
1.0019885
1.0019489
1.0008372
1.0017541
1.0022152
1.0016929
1.0033715
1.0031475
1.0026212
1.0042479
1.0045269
1.0007909
1.0062355
1.0052327
0.99989734
1.0046
1.0050462
1.0044782
1.0016898
1.000586
1.0076655
1.0092917
0.99832119
0.99372173
1.0047281
1.0000692
1.0019122
1.0017308
1.0008896
1.0012432
1.0001088
1.0017865
1.0019067
1.0013116
1.0015332
1.0021929
1.0020293
1.0032187
1.0029178
1.0028594
1.0043692
1.0039466
1.0015806
1.0064436
1.003978
1.0004065
1.006127
1.0047999
1.0042829
1.0053429
1.0021812
1.0045062
1.0073332
1.0005726
0.9926575
0.99812659
0.99928237
1.000884
1.0018196
1.0005955
1.0013139
1.0002318
1.0013591
1.0014326
1.0018568
1.0013606
1.0018659
1.0026025
1.0027094
1.002713
1.0031077
1.0040486
1.003154
1.0028828
1.0061882
1.0026647
1.0014227
1.0072903
1.0038024
1.002752
1.0079983
1.004566
1.0007568
1.0040252
1.00441
0.9966868
0.99422305
0.9993133
1.0006612
1.001746
1.0007463
1.0017045
1.0012666
1.0010525
1.0009286
1.0021472
1.001405
1.0015046
1.0029152
1.002312
1.0026377
1.0034464
1.003675
1.0026185
1.0043098
1.0056198
1.001539
1.0025631
1.0077749
1.0029314
1.0000757
1.0082387
1.0072021
0.99811231
0.99963083
1.0071169
1.0053086
0.99654178
1.0002395
1.001325
1.001573
1.0014783
1.0021087
1.0025215
1.0010641
1.0008524
1.0020213
1.0016607
1.001486
1.0028147
1.0024047
1.0025175
1.0038256
1.0034766
1.0020609
1.0054367
1.0049857
1.0008677
1.0035902
1.0074676
1.0025561
0.99812687
1.0062011
1.0084219
0.99833279
0.99591221
1.0061674
1.0128462
1.0045608
1.0017703
1.002597
1.0014192
1.0024637
1.0023191
1.0032173
1.0013954
1.0013428
1.0014752
1.0018904
1.0016907
1.002502
1.002671
1.0024772
1.0038539
1.0033768
1.0019047
1.0061066
1.00391
1.0009461
1.0046354
1.0062631
1.002872
0.99837444
1.0034997
1.0076105
1.0009129
0.99504438
1.0023893
1.0137236
1.0122623
1.0033849
1.0040909
1.0014278
1.0029697
1.0022317
1.0027893
1.0017644
1.001981
1.0009491
1.0018531
1.0018989
1.0021363
1.0026977
1.0025294
1.0036796
1.0036125
1.0020873
1.0063363
1.0031144
1.0016388
1.0055521
1.0042259
1.0036593
1.0011253
1.0014779
1.0053982
1.0040127
0.99801815
0.99886528
1.0071018
1.0130689
1.0042111
1.0052021
1.0017707
1.002892
1.0019978
1.0015309
1.0019299
1.0023237
1.0009183
1.0014948
1.0020276
1.0020262
1.002566
1.0027204
1.0032785
1.0037079
1.0029157
1.0059228
1.0023595
1.0027974
1.0064587
1.0019037
1.0038725
1.0055816
1.0011487
1.002253
1.0060077
1.0039556
0.99836787
0.99821415
1.0052458
1.003777
1.00497
1.0022188
1.0025567
1.0017553
1.0004049
1.0018909
1.0021841
1.0013426
1.0012059
1.0020397
1.0022926
1.0022196
1.0031535
1.0025966
1.0034573
1.0039791
1.0048075
1.0017407
1.0043201
1.0072017
1.0000405
1.0032266
1.0093637
1.002889
0.99909501
1.0057087
1.0098183
1.0019201
0.99356248
0.99464358
1.0023254
1.0036415
1.0023664
1.001918
1.0016464
1.0001245
1.0017169
1.0016065
1.0018802
1.0011832
1.0021006
1.0024961
1.0020442
1.0035691
1.0023563
1.0032314
1.0047415
1.0038835
1.0017076
1.0050854
1.0074485
0.99930646
1.0020615
1.0107266
1.0054131
0.99726917
1.0030356
1.011914
1.0076534
0.99518573
0.98937478
1.000428
1.0020743
1.0020797
1.0011249
1.0016462
1.0009486
1.0015968
1.0010385
1.0020631
1.0014405
1.0021937
1.0021479
1.0022147
1.003777
1.0027337
1.0031076
1.0051954
1.0032417
1.0021187
1.005186
1.0071057
1.0000648
1.0010412
1.0092596
1.0068185
0.99796431
0.99985068
1.0087414
1.0108665
1.0011518
0.99175352
0.99942161
1.0008825
1.0016947
1.0008879
1.0018148
1.0025094
1.0016727
1.0009818
1.0017402
1.0019648
1.0022197
1.0016346
1.0025396
1.003376
1.0031707
1.0029581
1.0049998
1.0025169
1.0030662
1.0052417
1.0056177
1.0018701
1.0014928
1.0057923
1.0058333
1.0008419
0.99906132
1.0028268
1.0082226
1.006493
0.99953242
0.99966241
1.0007828
1.0016587
1.0014787
1.0021048
1.0037014
1.0018326
1.0015067
1.0013218
1.0023036
1.0020642
1.0016587
1.0029128
1.0025741
1.0034429
1.0028152
1.0045394
1.0023724
1.004263
1.004745
1.0032433
1.0040617
1.0036938
1.0022491
1.0028426
1.0041809
1.0015175
0.99849829
1.001108
1.0069725
1.0073286
1.0008141
1.0019284
1.0017953
1.0020983
1.0023406
1.0035341
1.0019225
1.0021413
1.0012617
1.0021094
1.0016471
1.0020999
1.0030844
1.0020818
1.003581
1.0028932
1.0042139
1.0025064
1.0054107
1.0043733
1.0010605
1.0055663
1.0064815
1.0004669
0.99958557
1.0064896
1.0060961
0.9982882
0.9949156
1.0025486
1.010581
1.0024585
1.0036704
1.0018767
1.0026999
1.0023378
1.0022995
1.0019064
1.002358
1.0015568
1.0017048
1.0012412
1.0025169
1.0028884
1.0018598
1.0034642
1.0032332
1.0038843
1.0025383
1.0063039
1.0047621
0.99971502
1.005715
1.0087707
1.0006047
0.99774478
1.0070648
1.0103953
1.0014162
0.99358059
0.99731552
1.0084905
1.003871
1.0049435
1.0016693
1.003031
1.0022876
1.0005664
1.0017125
1.0020202
1.0020088
1.001353
1.0012591
1.0027259
1.002616
1.0020222
1.0034019
1.0034951
1.0036325
1.0027959
1.0061666
1.0050685
0.99969458
1.004652
1.0096853
1.0020064
0.99804762
1.0056342
1.0118022
1.0054958
0.99636116
0.99594834
1.0036155
1.0039401
1.0050607
1.0014991
1.0028033
1.0022175
0.9997543
1.0015499
1.0015388
1.0022494
1.001177
1.0017378
1.0027134
1.0024269
1.0024846
1.003416
1.00364
1.0033055
1.003356
1.0051368
1.0046537
1.0014123
1.0036214
1.0080158
1.0036061
1.0002678
1.0041062
1.0085977
1.0070337
1.0013501
0.99874273
1.0003215
1.0027289
1.0039917
1.0015099
1.002455
1.0020356
1.0003905
1.0016032
1.0013287
1.0020325
1.0012435
1.0021292
1.002351
1.0022182
1.0029101
1.0032292
1.0037697
1.0030614
1.0041166
1.0040545
1.0039776
1.0043394
1.0037225
1.0043611
1.0043085
1.0037521
1.0040418
1.0027118
1.0039193
1.0055051
1.0038436
1.0005426
1.0008744
1.0022723
1.0016619
1.0020485
1.0020514
1.0023886
1.0020827
1.0017472
1.0016877
1.0018264
1.0023237
1.0020595
1.0022873
1.0035134
1.0028243
1.0038587
1.0033323
1.0051479
1.0033145
1.0029312
1.007059
1.0049776
1.0012455
1.0034642
1.007234
1.0054438
0.99853154
0.99858047
1.0063656
1.0090691
1.0037933
0.99959025
1.0016967
1.0027598
1.0023795
1.0024693
1.0046363
1.0029335
1.0027519
1.0016929
1.0027028
1.002519
1.0022871
1.0028103
1.0040149
1.0026841
1.0040956
1.0037632
1.0064743
1.0034751
1.002093
1.0084769
1.0069094
1.0002379
1.0016622
1.0088361
1.0080182
0.99812579
0.99458963
1.0039812
1.0113577
1.0077098
0.99637349
0.9962204
0.99941382
1.0052875
1.0108036
1.0126514
1.0098547
1.0030826
0.99627846
0.99410329
0.9974731
1.0038254
1.007967
1.0060224
0.99884364
0.99270062
0.99351329
1.0021201
1.0116878
1.0149076
1.0096215
0.99752621
0.98866091
1.0006046
1.0011289
1.0019457
1.0017187
1.0004131
0.9975973
0.99593564
0.9977744
1.0033765
1.0102164
1.0141616
1.012352
1.0049115
0.99532424
0.98901927
0.9895481
0.99665362
1.0059949
1.0110134
1.0089102
1.0031149
0.99606244
0.99373394
1.0130439
1.0101978
1.0032609
0.99520504
0.98839493
0.98686486
0.99073081
0.99838702
1.0062739
1.0105791
1.0089515
1.00291
0.99700249
0.99565113
0.99950475
1.0057191
1.009727
1.0075678
0.99988332
0.99134261
0.98852275
0.99178499
0.99994333
1.0135762
1.0050773
0.9998225
0.99717292
0.99928424
1.0036036
1.0068041
1.0074006
1.0036709
0.99617375
0.98845048
0.98456092
0.98784048
0.99807181
1.0109459
1.0191605
1.0177228
1.0079806
0.99557344
0.9875783
0.98746232
0.99303364
1.0001042
0.98966003
0.99160126
0.99613006
1.0044212
1.0133714
1.0194025
1.0192819
1.0120909
1.0015043
0.99157225
0.98644271
0.98735239
0.99350355
1.0011694
1.0064626
1.0066415
1.0018251
0.99618963
0.99382961
0.99741369
1.0042988
1.0093646
1.0081021
0.98907441
0.99342285
0.99847223
1.0022217
1.0049031
1.004809
1.0010715
0.99683466
0.99503678
0.99899357
1.0061259
1.0127389
1.0138611
1.0089659
0.9998055
0.98871802
0.98043406
0.97886369
0.98597398
0.99965289
1.0138949
1.0205134
1.0162279
1.0145066
1.0115863
1.0054909
0.99676485
0.98835593
0.98158579
0.97789981
0.97995104
0.98869444
1.0017397
1.0149133
1.0224832
1.0220215
1.0137372
1.000899
0.98975601
0.98356561
0.9839088
0.98935715
0.99673518
1.0034758
1.0057781
1.003311
1.0192686
1.0134896
1.0058229
0.99729436
0.98971079
0.98587216
0.98675915
0.99003814
0.99394725
0.99825143
1.0018445
1.0028169
1.0000065
0.99666398
0.99577667
0.99925874
1.0053653
1.0100807
1.0099646
1.0049686
0.99714109
0.9884007
0.98074392
1.0008706
0.99625846
0.9957696
0.9987508
1.0058999
1.0132768
1.017451
1.0163573
1.0099296
0.99992683
0.98957347
0.98013061
0.97429951
0.97438919
0.98165887
0.99572191
1.0125484
1.0244621
1.026218
1.0184827
1.0043148
0.98945075
0.97838457
0.97382802
0.97769216
0.98606551
0.9981452
1.0112292
1.0226286
1.0286924
1.0271734
1.0182597
1.0051221
0.99184488
0.98096445
0.97598946
0.97563859
0.98107649
0.98951276
1.0002322
1.0086831
1.012801
1.0120485
1.0069148
1.0006668
0.99552235
0.97433328
0.98318022
0.99038504
0.99697026
1.0011152
1.0041073
1.0063766
1.00571
1.003324
1.0006344
0.99955634
1.0002309
1.0024246
1.0022873
1.0000006
0.99540604
0.99066881
0.98718108
0.98569792
0.98421267
0.98762571
0.99614652
1.0077409
1.0058965
1.0061654
1.0029007
0.99532212
0.98728854
0.98148887
0.97797309
0.97620383
0.97815659
0.985185
0.99886355
1.0151377
1.0279918
1.0305405
1.023101
1.0098518
0.99448242
0.98030221
0.96953364
0.96466019
0.96843674
0.98028343
0.99800521
1.0269237
1.0231188
1.0114056
0.99673702
0.98329161
0.97318334
0.96635444
0.96406645
0.96698179
0.97640109
0.99199187
1.0104141
1.02659
1.0344487
1.0321791
1.0204188
1.0040155
0.98775392
0.97509212
0.96812645
0.96729093
0.97408316
0.98633471
1.0220016
1.0173393
1.0101138
1.0001969
0.99074178
0.98263589
0.97774293
0.97599457
0.9773162
0.98122026
0.98888794
0.99876316
1.0087517
1.0149993
1.0163525
1.0143733
1.0087047
1.001215
0.9939211
0.9881557
0.98433779
0.98254918
0.98288711
0.99762133
0.99805919
0.99810289
0.99915421
1.0008745
1.0021292
1.0016256
1.0000832
0.99775275
0.99497626
0.99226456
0.9910888
0.99105353
0.99044248
0.99143643
0.99403422
0.99997684
1.0073941
1.0125123
1.0125063
1.0066596
0.99865355
0.99056907
0.97313172
0.97781452
0.98518572
0.99581278
1.0081948
1.0190599
1.0250909
1.0245612
1.0179455
1.0078719
0.99627323
0.9863624
0.97828018
0.97286264
0.97142053
0.97588159
0.98663911
1.0035446
1.0200743
1.0285709
1.0269167
1.0160167
1.0000484
0.96018148
0.96702218
0.97711769
0.99192469
1.009956
1.0269159
1.0386544
1.0407655
1.0321485
1.0172348
1.0007383
0.98562633
0.97330687
0.96546416
0.96228366
0.96597075
0.97823847
0.99770388
1.0197491
1.0352867
1.0385302
1.027355
1.0079472
0.95399312
0.96242723
0.97446465
0.99056679
1.0104005
1.029853
1.0432829
1.0461127
1.0372725
1.0209082
1.0026273
0.98650266
0.97330929
0.96502592
0.96118672
0.96359149
0.97475282
0.99448349
1.0182376
1.0365042
1.0418441
1.031711
1.0125214
0.95427012
0.96263274
0.9752423
0.99157523
1.011213
1.0310974
1.0447252
1.047666
1.0373172
1.0199792
1.0020686
0.98700723
0.97560123
0.96755899
0.96298062
0.96409108
0.97448728
0.99394055
1.0178717
1.0361526
1.0419859
1.03225
1.0139382
0.95924063
0.96457724
0.97684723
0.99210376
1.0120351
1.0318463
1.0460714
1.0497161
1.0393957
1.0200659
1.0006755
0.98613779
0.97579847
0.96930196
0.96592779
0.96639472
0.97586227
0.99566783
1.0192476
1.0375795
1.0422417
1.0312829
1.0121057
0.96574854
0.96791665
0.97793242
0.99211307
1.0115415
1.0322344
1.0482012
1.0529554
1.0426766
1.0215147
1.0000792
0.98481818
0.97630473
0.97109127
0.96866012
0.96993646
0.97890405
0.99833647
1.0220881
1.0396329
1.0425233
1.0279284
1.008141
0.96807527
0.97071124
0.97963098
0.99403508
1.0133735
1.0339744
1.0500873
1.0547168
1.0435352
1.021362
0.99819528
0.98223016
0.97435116
0.97101952
0.97026433
0.97224599
0.98290402
1.0039426
1.0286003
1.0439797
1.0420243
1.0238866
1.0029891
0.9696601
0.97374086
0.9825511
0.99645983
1.0159142
1.0373141
1.0528654
1.0545978
1.0402366
1.0167015
0.99425884
0.97916503
0.97180969
0.96945154
0.96954024
0.97417438
0.98838041
1.0136073
1.039162
1.0506628
1.0416187
1.0183197
0.99538231
0.97174693
0.97694896
0.98741142
1.0014056
1.01965
1.0379944
1.0495283
1.0483026
1.0325929
1.0110101
0.991329
0.97866744
0.97180348
0.96983287
0.97082591
0.97939128
0.99839587
1.0260672
1.0477668
1.051802
1.0345573
1.0076699
0.98660429
0.98550159
0.98818727
0.99462202
1.0054289
1.0192063
1.0314289
1.0370068
1.0333419
1.0201615
1.0043333
0.9908786
0.98247495
0.97800612
0.9778329
0.98112879
0.99133624
1.0108982
1.0334491
1.0465334
1.0435715
1.0212307
0.99512575
0.97710452
1.0153565
1.0099031
1.0065564
1.0053952
1.0084474
1.0124271
1.0137085
1.0112306
1.0033974
0.9959309
0.99298823
0.99391275
0.99595668
0.99888544
1.0003032
1.0062186
1.0178203
1.0298722
1.0341567
1.0244487
1.0023037
0.98320697
0.97381861
1.0470645
1.033753
1.0169345
1.0012809
0.99210832
0.98761033
0.98799088
0.98862255
0.98770934
0.99052885
1.0012894
1.0173354
1.0275565
1.0270118
1.0175933
1.0107545
1.0100906
1.0120199
1.0087472
0.99726586
0.98567311
0.98321126
0.98750242
1.0490217
1.0377544
1.0192392
0.99795144
0.98168496
0.97314887
0.97232678
0.97677955
0.98485108
0.99768012
1.0189427
1.0430986
1.0552936
1.0446511
1.019724
0.99859386
0.98977914
0.9853363
0.98314823
0.98070946
0.9887251
1.0078163
1.0213665
1.0177053
1.0158095
1.0086622
0.99909831
0.989438
0.98421219
0.98592063
0.9911789
0.99935307
1.0113623
1.0304739
1.0503289
1.0549872
1.0363275
1.0054877
0.9818431
0.97114643
0.97017438
0.97595827
0.98933453
1.0163878
1.0424356
1.0479053
0.98510407
0.98920396
0.99537686
1.0019683
1.0119032
1.0223483
1.0267822
1.0219407
1.014865
1.0112194
1.0160398
1.0234505
1.0241049
1.0110365
0.99248205
0.97943771
0.97761001
0.98442372
0.99535818
1.0133644
1.0367526
1.0489117
1.0399989
0.98621692
0.98641808
0.99337336
1.0077626
1.027766
1.0458497
1.0526652
1.0380281
1.0134578
0.99292596
0.98448965
0.98678683
0.99175642
0.99393922
0.99854135
1.0091935
1.0186519
1.0200481
1.0133243
1.0136323
1.0222738
1.0212656
1.006404
1.0211415
1.0115562
1.0047783
1.0039353
1.0118942
1.0264152
1.0353122
1.0256386
1.0047491
0.982849
0.97441232
0.97686275
0.98595961
1.0008001
1.0238863
1.0469137
1.04863
1.0286317
1.0028781
0.99008023
0.99019466
0.99185736
0.99414403
1.0414568
1.0283184
1.0105509
0.99385568
0.98675337
0.98966665
0.99774299
1.0020891
1.003151
1.0031723
1.0055144
1.0068326
1.0081606
1.0128891
1.0258193
1.039685
1.0343797
1.009428
0.98530942
0.97486189
0.97993921
0.99377268
1.0150435
1.0151667
1.0142604
1.0063713
0.99555625
0.98664057
0.98524603
0.98809061
0.99478421
1.0082296
1.0268272
1.0419571
1.0377311
1.0183368
1.0013267
0.99626833
1.0040893
1.0092628
1.0022853
0.99521648
0.99539628
0.9984426
1.0031065
1.0180791
0.9900451
0.9914357
0.9979989
1.0072352
1.0170393
1.0193196
1.011405
1.0040576
1.0053581
1.0186117
1.0337094
1.0316884
1.0083216
0.98546511
0.97900312
0.98668972
1.0027125
1.0214276
1.031872
1.0265943
1.0092172
0.99574365
0.99634648
1.0013344
0.99371574
0.99450346
1.0065432
1.0245607
1.0364319
1.0321876
1.0133353
0.99508442
0.99103216
1.0010444
1.0118493
1.0134363
1.0029203
0.99327818
0.99162864
0.9997709
1.0146534
1.0326892
1.0373401
1.0231353
1.0028726
0.9904426
1.0271058
1.0134155
0.99978646
0.99580932
1.0053043
1.0198289
1.0257728
1.0183799
0.99904959
0.98347512
0.98243433
0.99153987
1.0064881
1.0185055
1.0234423
1.0191268
1.0114307
1.0055131
1.0063041
1.0099942
1.0100732
1.0060476
1.0038208
1.0293744
1.0213968
1.0056017
0.99028432
0.98488127
0.99142891
1.0029677
1.0109774
1.0095014
1.0015782
0.99527545
0.99498866
1.0025485
1.0144205
1.0262928
1.0307364
1.024056
1.0100616
0.99641184
0.98933952
0.98844905
0.99358882
1.0030587
1.0052021
1.0072928
1.0037119
0.99637928
0.98939726
0.98803907
0.99369367
1.0037377
1.013362
1.0178694
1.0181854
1.0141355
1.0090019
1.0055976
1.0056617
1.0084248
1.0096395
1.0089881
1.0045523
1.0000308
0.99847239
0.99987769
1.0059763
0.98981088
0.99406962
1.0007704
1.0062623
1.0094591
1.0093816
1.0071979
1.0058534
1.0071522
1.0101112
1.0138856
1.0156778
1.0133111
1.0063582
0.99734926
0.99174827
0.99153608
0.99661787
1.0052532
1.0139456
1.0196469
1.0188535
1.0154588
0.99825969
0.99653179
1.000671
1.0077785
1.0161623
1.019987
1.0169012
1.0093733
1.0012096
0.99463986
0.99314607
0.99679839
1.0029663
1.0080228
1.0084677
1.004954
1.0005228
0.99893291
1.003588
1.0115662
1.0189047
1.0196417
1.0110061
1.0116373
1.0067894
1.0025249
1.0013666
1.0032971
1.0051078
1.0059242
1.0049828
1.001599
0.99706371
0.99384366
0.9928541
0.99604783
1.0034473
1.0115715
1.0160161
1.0159952
1.011618
1.0058405
1.003705
1.0053305
1.0057967
1.0024835
1.0084589
1.0062914
1.0032549
0.99967496
0.99642032
0.99434277
0.99401323
0.99637437
1.0016639
1.0074613
1.0110591
1.0102606
1.0060624
1.002103
1.0017788
1.004808
1.0076834
1.0075997
1.0040568
0.99915724
0.99693777
0.99817224
1.0014795
0.99658998
0.99711246
0.99972191
1.0024635
1.0044899
1.0042194
1.0010997
0.9986877
0.99985504
1.0041163
1.0102247
1.013895
1.0110391
1.0034817
0.99650853
0.99352596
0.99499033
0.99911934
1.0023948
1.0031411
1.0022585
1.0026606
1.0061224
1.0004814
0.99730713
0.99749402
1.0013611
1.0063498
1.0102561
1.010796
1.0068612
1.0009134
0.99676859
0.9965667
0.99941472
1.0017356
1.0015971
0.99991477
0.99869646
0.99967841
1.003376
1.0075927
1.009888
1.0100803
1.007941
1.0054761
1.0122513
1.0073468
1.0013528
0.99715616
0.99699829
0.9999501
1.0036003
1.0053531
1.0035538
0.99941601
0.99598124
0.99558093
0.99773397
1.0015898
1.0052272
1.0075132
1.0088294
1.0083238
1.0061537
1.0045384
1.0023845
1.0001617
0.99913428
1.0072097
1.0057422
1.0019091
0.99728543
0.99403865
0.99411825
0.99696209
1.0010229
1.004412
1.0054115
1.0040954
1.0027075
1.0021311
1.0023809
1.0036598
1.0050711
1.0052528
1.0032715
0.9996292
0.9956336
0.99307617
0.99429093
0.99771815
0.99957925
1.0000672
1.000635
1.0009543
1.0012733
1.0018673
1.0026653
1.0033673
1.0037716
1.0037919
1.0030575
1.0021785
1.0012326
0.99967257
0.99833045
0.99763768
0.99757608
0.9986269
0.99962631
0.99962691
1.0002868
1.0017079
1.0046663
1.0032667
1.0014619
1.0010517
1.0016246
1.0032699
1.0052487
1.0058958
1.0042164
1.0009006
0.99765404
0.99592348
0.99632281
0.99831046
1.000517
1.0011639
1.000469
0.99993921
1.0005651
1.0026198
1.0049733
1.0066425
1.0060504
1.0047182
1.0073522
1.0045478
1.0009538
0.99845513
0.99832974
0.99964756
1.0009954
1.0012992
1.0000757
0.99797936
0.99686234
0.99787607
1.0005885
1.0039635
1.0062934
1.0055358
1.0033427
1.0008558
0.9995392
1.0002312
1.0003744
0.99983798
0.99800799
1.0034449
1.0022196
1.0002496
0.99866829
0.99805596
0.99856173
0.99984254
1.0013318
1.0026275
1.0032989
1.0030512
1.002331
1.0021948
1.0021008
1.0020367
1.0012474
0.99922075
0.99751798
0.99657583
0.99708966
0.9983124
0.9992062
0.99896794
1.0006007
1.0002705
1.0007799
1.0018026
1.0026591
1.002573
1.0018526
1.0015088
1.0016688
1.0020796
1.0020798
1.0010105
0.99962897
0.99848103
0.99754131
0.99784361
0.99840486
0.9989964
1.0004423
1.0012758
1.0023665
1.0024351
1.0017415
1.0020015
1.0006071
1.0009293
1.0021839
1.0029513
1.0025711
1.000992
0.99937962
0.99849972
0.99851973
0.99919089
0.99990575
1.0001018
1.0002451
1.0005679
1.001095
1.0021116
1.0025977
1.0027165
1.0018965
1.0007604
0.99951854
0.99841396
1.003195
1.0013613
1.0005649
1.0004948
1.0005436
1.0000699
0.99974053
0.99985849
1.0000554
1.0006049
1.0016391
1.0025072
1.0027213
1.0024147
1.0018728
1.0012887
1.000889
1.000539
0.99977861
0.99867638
0.99755567
0.99712769
0.99764359
1.0023104
1.0010714
1.0005505
1.0006202
1.0003874
1.0001645
1.0009102
1.0018121
1.001957
1.002231
1.0025605
1.0018712
1.000962
1.000154
0.99924101
0.99884095
0.99877078
0.99913471
0.99959855
0.99960447
0.99936229
0.9991424
0.9994761
1.001781
1.0008549
1.0009723
1.0013419
1.0010559
1.0009697
1.0016961
1.0017932
1.0011308
1.0010348
1.0008818
0.99999553
0.9996273
0.99973489
0.99990926
1.0004711
1.0007612
1.0012338
1.001519
1.0008642
1.0000285
0.99905938
0.99846426
1.001984
1.001084
1.0014807
1.0016677
1.0011278
1.0012899
1.0018509
1.0013463
1.00084
1.0012048
1.0011544
1.0007942
1.0010157
1.0014254
1.0018394
1.0019236
1.0012238
1.0004798
0.99961511
0.9985375
0.99791544
0.9979509
0.99835816
1.0015505
1.0011527
1.001965
1.001764
1.0011948
1.0016474
1.0020019
1.0012844
1.0012684
1.0020612
1.0019422
1.0013301
1.0010547
1.0009668
1.000817
1.0003464
0.99957271
0.99880589
0.99837668
0.99818903
0.99838785
0.99894535
1.0000904
1.001505
1.0015589
1.0023578
1.0018454
1.0016781
1.0025445
1.0024518
1.001382
1.0012917
1.0016687
1.0014679
1.0011758
1.0006449
1.0004123
1.0004035
0.99951455
0.99924044
0.9996234
1.0002577
1.0007136
1.0006004
1.0002787
0.99991493
1.0022542
1.002527
1.0023521
1.0013676
1.0018293
1.0028432
1.0023965
1.0014076
1.0012252
1.0011957
1.0010785
1.0009376
1.0008297
1.0014625
1.0012322
1.0003963
1.000288
1.0000876
1.0000008
0.99929415
0.99951624
0.99929692
0.99864484
1.0027393
1.0031973
1.0024163
1.0013866
1.001767
1.0023236
1.0020214
1.001783
1.0023137
1.0028156
1.0021177
1.0009538
1.0007669
1.0006213
1.0005309
1.0006151
0.99998963
0.99967971
0.99985232
0.99973125
0.9997902
0.99957221
0.9997035
1.0021748
1.0029547
1.0026322
1.0025062
1.0030138
1.0027446
1.0019427
1.0020042
1.0025973
1.0027771
1.0019418
1.0009348
1.001106
1.001166
1.0006904
1.0002946
1.0002359
1.000651
0.99991152
0.99982034
1.0000425
1.0003495
1.0006582
1.0019374
1.0028024
1.0027475
1.0030831
1.0038619
1.0038234
1.0028205
1.0022909
1.0024097
1.0022922
1.0015474
1.0011143
1.0011799
1.0008017
1.0009729
1.0009582
1.0011008
1.0015929
1.0012003
1.0009047
0.9997369
0.99916128
0.99894106
1.0035443
1.0033741
1.0028323
1.0032779
1.0038126
1.003343
1.0021755
1.0015087
1.0021352
1.0023394
1.0015302
1.0017342
1.0025909
1.0029002
1.0016803
0.99990827
1.0000859
1.0004855
0.9998789
1.0007946
1.0013773
1.0012428
1.0002759
1.0039026
1.0033036
1.0027415
1.0033337
1.0039393
1.0036091
1.0030828
1.0031094
1.0032473
1.0020837
1.0006313
1.0009413
1.0017232
1.002325
1.0023579
1.0013116
1.001434
1.0013875
1.0006495
1.0003048
1.0004949
1.000806
0.99983724
1.0050879
1.004577
1.0035643
1.0033454
1.0034716
1.0027099
1.0017675
1.002401
1.0040937
1.0040878
1.0026805
1.0023773
1.0025045
1.0021138
1.0008362
1.0000211
1.0017024
1.0025957
1.0013197
1.0007358
1.0012981
1.0009741
0.99926374
1.0033168
1.0038226
1.0040386
1.0048532
1.0055729
1.0048636
1.0035165
1.0033689
1.0036081
1.0030066
1.0025578
1.0026604
1.0026501
1.0028304
1.0018505
1.0009987
1.0018331
1.0024722
1.001832
1.001563
1.0019595
1.0014851
0.99987879
1.0057344
1.0046587
1.0039912
1.0046748
1.0057599
1.0053126
1.0035594
1.0030986
1.0040855
1.0036366
1.0022728
1.0021964
1.0031828
1.0042562
1.0038028
1.0024519
1.0028719
1.0030411
1.00149
1.0006933
1.0012996
1.0016404
1.0008774
1.0060469
1.0053326
1.0043177
1.0045008
1.0050795
1.0043898
1.0032921
1.0035202
1.0049744
1.0052852
1.0039962
1.0034568
1.0039885
1.0037227
1.0025182
1.0016313
1.0027219
1.0032466
1.0022997
1.0017527
1.0027847
1.0027068
1.0008186
1.0050417
1.004933
1.0043627
1.0046549
1.005884
1.0053852
1.0036076
1.0034409
1.004707
1.0047688
1.0034911
1.0027652
1.0035665
1.0041332
1.0030331
1.0017323
1.0028863
1.0038843
1.0029093
1.0017689
1.0024448
1.0025876
1.0002548
1.0041157
1.0045755
1.0045088
1.0042407
1.0046378
1.0044938
1.0033823
1.0035882
1.004757
1.0039779
1.0023446
1.0025841
1.0040867
1.0043216
1.0027884
1.0017503
1.0030628
1.0033428
1.0016784
1.0012358
1.0020698
1.0018599
0.99995855
1.003318
1.0039289
1.0038602
1.0032753
1.0032286
1.0037624
1.0033505
1.0031
1.0044308
1.0041961
1.0025014
1.0023249
1.0032847
1.0032696
1.0021141
1.0013396
1.0023568
1.0021837
1.0004239
1.000385
1.0020035
1.0018767
0.99988751
1.0026454
1.0017126
1.0022748
1.0020141
1.0021489
1.0028808
1.0026065
1.0016082
1.0025148
1.003597
1.002293
1.0008499
1.0010915
1.0017464
1.0014859
1.0006547
1.0007479
1.0009384
1.0004048
0.99996001
1.0003457
1.000357
0.99928409
1.0006188
1.0004303
1.0005999
1.0011957
1.0014948
1.0012586
1.0009031
1.0007881
1.0013313
1.0013907
1.0001087
0.99951872
1.0000176
0.99978067
0.99929281
0.9997355
0.99972541
0.9988054
0.99847365
0.99862197
0.99800295
0.99780614
0.99835298
0.99938918
0.99937496
0.99924066
1.0002767
1.0007836
1.0000728
0.99894686
0.99907573
1.0000014
0.99957493
0.99798536
0.99796966
0.99908327
0.99832756
0.99682806
0.99712403
0.99776723
0.99684286
0.99557742
0.99597934
0.99645018
0.9961526
0.99583145
0.99860269
0.99690225
0.9970695
0.99768927
0.99880704
0.99895739
0.99757932
0.99656516
0.99743419
0.99807805
0.99680486
0.99597241
0.99655522
0.99640268
0.99509322
0.99446837
0.99469309
0.99443903
0.99350908
0.99380023
0.99429011
0.99365194
0.99244389
0.99719361
0.99614178
0.99601216
0.9959937
0.99652614
0.99696306
0.99643348
0.99552653
0.99566375
0.99603591
0.9952403
0.99433117
0.99410227
0.99381563
0.99303863
0.99232405
0.99205615
0.99176401
0.99130958
0.99140657
0.9913177
0.99071719
0.98963112
0.99628832
0.9960955
0.99615696
0.99600721
0.99562242
0.99533003
0.99527354
0.99527053
0.99492154
0.99419215
0.99328457
0.99290208
0.99273504
0.99194388
0.99098844
0.99043721
0.9901684
0.98959249
0.98889027
0.98852143
0.98818637
0.98778477
0.9870679
0.99565056
0.99544496
0.99563391
0.99575244
0.99562385
0.99510865
0.99471596
0.99456783
0.994213
0.99327999
0.9923306
0.99184496
0.99152252
0.99064116
0.9895903
0.98895063
0.98858719
0.98785938
0.98691396
0.98630123
0.9859453
0.98550402
0.98473772
0.99571569
0.9954337
0.99530999
0.99528329
0.9954205
0.99508665
0.99478064
0.99437376
0.99396962
0.99331762
0.99256383
0.99182213
0.9909112
0.98975623
0.98870053
0.98808382
0.98749928
0.98666097
0.98555202
0.98483281
0.98444023
0.98391339
0.98301987
0.99670741
0.99654153
0.99644755
0.99613956
0.9958297
0.99552816
0.99529374
0.99474154
0.99425443
0.99357752
0.99307259
0.99235363
0.99145069
0.99034342
0.98939638
0.98849299
0.98757367
0.98634433
0.98520824
0.98449916
0.98390531
0.98301949
0.98189582
0.99787962
0.9979813
0.99827677
0.99794448
0.99733436
0.99706195
0.99666523
0.99620717
0.99548218
0.99463929
0.99396217
0.99322386
0.99244863
0.99142268
0.99057991
0.98970248
0.98876906
0.98746339
0.98634898
0.98568134
0.98489382
0.98347148
0.98202898
0.99849164
0.99924704
0.9999806
0.99955244
0.99887183
0.99880505
0.99854591
0.9985083
0.99735778
0.99636485
0.99545146
0.99507747
0.99428362
0.99303641
0.99164593
0.990858
0.99020942
0.98911836
0.98782637
0.98699602
0.98645763
0.98528991
0.98361498
1.0011363
1.0019293
1.0025028
1.0020656
1.0012514
1.001072
1.0007752
1.000865
0.99971606
0.99873194
0.9977657
0.99760019
0.99698557
0.99581947
0.99414643
0.99313378
0.99248043
0.99145806
0.98999384
0.98874212
0.9881358
0.98736698
0.98567094
1.0023887
1.0035727
1.0042729
1.0039726
1.0033147
1.00306
1.003045
1.0032473
1.0025052
1.0016096
1.0006427
1.0004669
1.0001258
0.99914499
0.99759984
0.9965065
0.99618632
0.99560501
0.99409632
0.99226901
0.99122507
0.99078185
0.98949556
1.0022452
1.003244
1.0040113
1.0036664
1.0031272
1.0029381
1.0031887
1.0037679
1.0037047
1.00339
1.0025423
1.0021515
1.001924
1.0016804
1.0009264
0.99973033
0.99897296
0.99857698
0.99782277
0.99668485
0.99562272
0.99501068
0.99404059
1.0016232
1.002714
1.0033184
1.0027268
1.0017085
1.0014267
1.0018153
1.0024096
1.0024469
1.0020017
1.0016023
1.001587
1.0018614
1.0020567
1.0016677
1.0008911
1.0004897
1.0004544
1.0000396
0.99942068
0.9983649
0.99712543
0.99659528
1.0023027
1.002716
1.0028713
1.0023745
1.001482
1.001173
1.0018194
1.0022497
1.0017086
1.0008845
1.0007371
1.0011792
1.0016953
1.0013031
1.0005345
1.0005061
1.0010622
1.0015973
1.0009028
0.99997486
0.99964838
0.99950495
0.99954342
1.0022469
1.0028917
1.0035068
1.0033492
1.0025019
1.0020314
1.0025462
1.0031973
1.0028877
1.0020239
1.0016604
1.002089
1.0026338
1.0023648
1.0015813
1.0014158
1.0023775
1.0031109
1.0022591
1.0010864
1.0015377
1.0026668
1.0033592
1.0020408
1.002694
1.0033729
1.0031207
1.0021493
1.0016384
1.0023116
1.003422
1.0036387
1.002835
1.0021418
1.0024729
1.0034283
1.0037826
1.0032159
1.0027336
1.0034291
1.0039767
1.0035106
1.0027643
1.0032279
1.0041073
1.0047865
1.0017094
1.0021701
1.002597
1.0024442
1.0019322
1.0018086
1.0023066
1.0030096
1.0030761
1.0024231
1.0019471
1.0023886
1.0033039
1.0035596
1.0028754
1.0023318
1.0030223
1.0041022
1.0039636
1.0026626
1.0026374
1.0042641
1.0055892
1.0017859
1.0017662
1.0016564
1.0016971
1.0017617
1.0019172
1.0021168
1.0024271
1.0025104
1.0021238
1.0018294
1.0024137
1.003223
1.0033846
1.0029985
1.0024986
1.0022896
1.0025735
1.0032932
1.0039379
1.0033639
1.0019131
1.0018086
1.0017489
1.001357
1.0015364
1.0021141
1.0024666
1.0021761
1.0017463
1.001897
1.0024385
1.0027674
1.0026544
1.0025464
1.0029036
1.0028371
1.0018331
1.0016802
1.0030026
1.0038571
1.0023996
1.0003622
1.0010039
1.0033906