/*--------------------------------*- C++ -*----------------------------------*\
| =========                 |                                                 |
| \\      /  F ield         | OpenFOAM: The Open Source CFD Toolbox           |
|  \\    /   O peration     | Version:  2406                                  |
|   \\  /    A nd           | Website:  www.openfoam.com                      |
|    \\/     M anipulation  |                                                 |
\*---------------------------------------------------------------------------*/
FoamFile
{
    version     2.0;
    format      ascii;
    arch        "LSB;label=32;scalar=64";
    class       volScalarField;
    location    "20";
    object      alphat;
}
// * * * * * * * * * * * * * * * * * * * * * * * * * * * * * * * * * * * * * //

dimensions      [1 -1 -1 0 0 0 0];

internalField   nonuniform List<scalar> 
96472
(
8.6301268e-07
9.4387769e-07
9.7831779e-07
9.3748019e-07
8.7966176e-07
8.527932e-07
8.5698675e-07
8.6928752e-07
8.6877968e-07
8.4968228e-07
8.1999571e-07
7.932414e-07
7.7919029e-07
7.7970793e-07
7.9155292e-07
8.0677423e-07
8.1927689e-07
8.2351142e-07
8.1929937e-07
8.0561797e-07
7.8769069e-07
7.6652405e-07
7.4861737e-07
7.3372124e-07
7.2668787e-07
7.2408073e-07
7.2902279e-07
7.3625837e-07
7.4743926e-07
7.5796483e-07
7.7247421e-07
7.8349523e-07
7.953512e-07
8.0474049e-07
8.1434422e-07
8.2245959e-07
8.2744471e-07
8.3326698e-07
8.3792506e-07
8.407182e-07
8.5159504e-07
8.6382169e-07
8.8165735e-07
8.9170204e-07
9.0636508e-07
9.1296163e-07
9.2222022e-07
9.2611977e-07
9.3191054e-07
9.3976068e-07
9.5269157e-07
9.7286039e-07
9.9354618e-07
1.0276391e-06
1.0695751e-06
8.625083e-07
9.4142341e-07
9.7550624e-07
9.3645306e-07
8.7907583e-07
8.5123349e-07
8.5471506e-07
8.6743393e-07
8.6808287e-07
8.5016124e-07
8.2103645e-07
7.9386974e-07
7.7883948e-07
7.782326e-07
7.8924117e-07
8.0421969e-07
8.1733062e-07
8.2262563e-07
8.1992275e-07
8.0773098e-07
7.9073309e-07
7.6960205e-07
7.5128197e-07
7.3449716e-07
7.2639838e-07
7.2228173e-07
7.261605e-07
7.3249803e-07
7.4220688e-07
7.5153407e-07
7.6405787e-07
7.7605414e-07
7.8912051e-07
7.9815333e-07
8.0845334e-07
8.1599366e-07
8.1811843e-07
8.176641e-07
8.1954946e-07
8.1982751e-07
8.2373576e-07
8.2912954e-07
8.3857171e-07
8.5599324e-07
8.7104739e-07
8.908948e-07
9.0888194e-07
9.2568827e-07
9.3302636e-07
9.4897052e-07
9.5662548e-07
9.7279256e-07
9.8741563e-07
1.0031694e-06
1.0388088e-06
8.6204544e-07
9.3811667e-07
9.7336501e-07
9.3605967e-07
8.7876453e-07
8.4987886e-07
8.5274759e-07
8.6600138e-07
8.6791116e-07
8.5114123e-07
8.2252144e-07
7.9504242e-07
7.790461e-07
7.7746048e-07
7.8774183e-07
8.027551e-07
8.1634194e-07
8.2271265e-07
8.2078879e-07
8.0957212e-07
7.9279791e-07
7.7191615e-07
7.5334119e-07
7.3632282e-07
7.2730678e-07
7.2195254e-07
7.2531579e-07
7.3003311e-07
7.4039019e-07
7.479809e-07
7.6045117e-07
7.7181499e-07
7.8490628e-07
7.9462007e-07
8.0502792e-07
8.1311402e-07
8.1757784e-07
8.1743248e-07
8.1785312e-07
8.1880692e-07
8.1881583e-07
8.2232188e-07
8.2484484e-07
8.3035004e-07
8.3601213e-07
8.4776764e-07
8.594747e-07
8.8649874e-07
9.0063415e-07
9.2818045e-07
9.4532763e-07
9.6402751e-07
9.8106132e-07
9.9269409e-07
1.019081e-06
8.6162e-07
9.3545092e-07
9.716611e-07
9.3590997e-07
8.7874133e-07
8.4900332e-07
8.5137609e-07
8.6502408e-07
8.6806941e-07
8.5234117e-07
8.2415252e-07
7.96274e-07
7.7929287e-07
7.7665232e-07
7.861813e-07
8.0110087e-07
8.1513473e-07
8.2257512e-07
8.216604e-07
8.1157112e-07
7.9536822e-07
7.7488708e-07
7.5573434e-07
7.3827356e-07
7.2786897e-07
7.2205923e-07
7.2361999e-07
7.2843086e-07
7.3783166e-07
7.4565457e-07
7.5720637e-07
7.6828603e-07
7.8136381e-07
7.9095316e-07
8.0133178e-07
8.0964841e-07
8.1539072e-07
8.158006e-07
8.1553955e-07
8.17494e-07
8.1636513e-07
8.1914608e-07
8.2184965e-07
8.2468426e-07
8.2740015e-07
8.3422643e-07
8.3986987e-07
8.4932813e-07
8.6223606e-07
8.7512383e-07
9.0121311e-07
9.1861957e-07
9.5156228e-07
9.6544187e-07
9.9964713e-07
8.6128262e-07
9.3291911e-07
9.6994291e-07
9.356697e-07
8.7871096e-07
8.4821099e-07
8.5013954e-07
8.6416276e-07
8.6824813e-07
8.5353217e-07
8.2577176e-07
7.9755191e-07
7.7961402e-07
7.7599579e-07
7.8471438e-07
7.9952154e-07
8.1390309e-07
8.2233073e-07
8.2236608e-07
8.1343857e-07
7.9766749e-07
7.7774127e-07
7.5809408e-07
7.4051447e-07
7.2856372e-07
7.2241533e-07
7.2240391e-07
7.2676641e-07
7.3517425e-07
7.4340052e-07
7.5366196e-07
7.648329e-07
7.7748458e-07
7.8824502e-07
7.9834296e-07
8.0693165e-07
8.1414826e-07
8.1588837e-07
8.1460952e-07
8.1561629e-07
8.1598029e-07
8.1558376e-07
8.1918417e-07
8.2084887e-07
8.2370577e-07
8.2701449e-07
8.3315003e-07
8.3811547e-07
8.4765527e-07
8.5437002e-07
8.6928686e-07
8.795199e-07
9.0198593e-07
9.1544408e-07
9.4990568e-07
8.6093687e-07
9.3019661e-07
9.6809642e-07
9.3542819e-07
8.7876661e-07
8.4758612e-07
8.490342e-07
8.6341039e-07
8.6845458e-07
8.5474477e-07
8.2741041e-07
7.9890737e-07
7.8002095e-07
7.7546383e-07
7.8332474e-07
7.9800621e-07
8.1268308e-07
8.220438e-07
8.2293397e-07
8.1523535e-07
7.9998155e-07
7.8064192e-07
7.605132e-07
7.428008e-07
7.2960163e-07
7.227435e-07
7.2139876e-07
7.2541432e-07
7.3268533e-07
7.4127127e-07
7.5048871e-07
7.6170415e-07
7.7350789e-07
7.8455965e-07
7.9480826e-07
8.0344226e-07
8.1128234e-07
8.1438363e-07
8.1366398e-07
8.1314846e-07
8.1445688e-07
8.1365876e-07
8.1371297e-07
8.1694859e-07
8.1838264e-07
8.2075632e-07
8.2633639e-07
8.2979255e-07
8.3760651e-07
8.4285089e-07
8.5376132e-07
8.6104067e-07
8.755993e-07
8.8486908e-07
9.1030518e-07
8.6049855e-07
9.2709295e-07
9.6567501e-07
9.3476447e-07
8.786168e-07
8.4688715e-07
8.4793618e-07
8.6264019e-07
8.6859809e-07
8.5584526e-07
8.2900126e-07
8.0029528e-07
7.8057505e-07
7.7503174e-07
7.8211911e-07
7.9647152e-07
8.1148672e-07
8.2168381e-07
8.2350239e-07
8.1683608e-07
8.0234409e-07
7.8339743e-07
7.6314779e-07
7.4501413e-07
7.3097825e-07
7.2316459e-07
7.2077727e-07
7.2389223e-07
7.3049487e-07
7.3892856e-07
7.4756584e-07
7.5825447e-07
7.6995895e-07
7.8112192e-07
7.9155494e-07
8.0067142e-07
8.0859268e-07
8.1358165e-07
8.1343682e-07
8.1237473e-07
8.1229134e-07
8.1280001e-07
8.11979e-07
8.1294145e-07
8.1523087e-07
8.169343e-07
8.2028851e-07
8.2322504e-07
8.2963465e-07
8.3354956e-07
8.4243515e-07
8.4727908e-07
8.5964299e-07
8.6618245e-07
8.8391575e-07
8.5979763e-07
9.2161284e-07
9.6141358e-07
9.3327189e-07
8.781949e-07
8.4618613e-07
8.4691341e-07
8.619471e-07
8.687853e-07
8.5697835e-07
8.3063698e-07
8.0173717e-07
7.812349e-07
7.7471983e-07
7.8103257e-07
7.950157e-07
8.1027101e-07
8.2120344e-07
8.2405756e-07
8.183779e-07
8.0466696e-07
7.8618938e-07
7.6585338e-07
7.4741744e-07
7.3243136e-07
7.2376895e-07
7.2041843e-07
7.2248987e-07
7.2853158e-07
7.3665013e-07
7.4495014e-07
7.5498891e-07
7.6639998e-07
7.7771972e-07
7.8775084e-07
7.9755955e-07
8.0555312e-07
8.119873e-07
8.1243865e-07
8.1165493e-07
8.1071277e-07
8.1071379e-07
8.1111741e-07
8.0936042e-07
8.1120011e-07
8.1292636e-07
8.1500344e-07
8.1757111e-07
8.2236923e-07
8.2558932e-07
8.3253871e-07
8.3773329e-07
8.4632572e-07
8.522189e-07
8.6557739e-07
8.5883008e-07
9.1749487e-07
9.5802353e-07
9.3201407e-07
8.7787493e-07
8.4562428e-07
8.4601308e-07
8.613405e-07
8.6897153e-07
8.5811057e-07
8.3228689e-07
8.0322466e-07
7.819891e-07
7.7451553e-07
7.8002634e-07
7.936293e-07
8.0908012e-07
8.2067876e-07
8.2447655e-07
8.1980129e-07
8.0694032e-07
7.8894936e-07
7.6856141e-07
7.4992056e-07
7.3412496e-07
7.2444819e-07
7.2030967e-07
7.2133339e-07
7.2661565e-07
7.3440256e-07
7.4247285e-07
7.5188824e-07
7.6287635e-07
7.7432498e-07
7.84464e-07
7.9417046e-07
8.0272062e-07
8.0972689e-07
8.1217077e-07
8.109401e-07
8.1028793e-07
8.0923356e-07
8.0937648e-07
8.0915041e-07
8.0804417e-07
8.1006835e-07
8.1152676e-07
8.1293876e-07
8.1636128e-07
8.1924748e-07
8.2501964e-07
8.2806374e-07
8.3585172e-07
8.4046491e-07
8.5143714e-07
8.5662539e-07
9.134712e-07
9.5475207e-07
9.3084662e-07
8.7768423e-07
8.4522591e-07
8.4526611e-07
8.6086605e-07
8.6925445e-07
8.593101e-07
8.3399219e-07
8.048199e-07
7.8286667e-07
7.7444857e-07
7.7914007e-07
7.9233383e-07
8.0791837e-07
8.2013563e-07
8.2479498e-07
8.2105031e-07
8.0910662e-07
7.9161822e-07
7.7139568e-07
7.5245709e-07
7.3613821e-07
7.2538755e-07
7.2032185e-07
7.2043481e-07
7.2490336e-07
7.3233395e-07
7.4014614e-07
7.4906948e-07
7.5952068e-07
7.7090344e-07
7.8125795e-07
7.9084225e-07
7.9952488e-07
8.0733749e-07
8.1148427e-07
8.1032864e-07
8.0960362e-07
8.0861784e-07
8.0767593e-07
8.0773401e-07
8.0752023e-07
8.0619097e-07
8.0825997e-07
8.0939363e-07
8.117573e-07
8.1348641e-07
8.1788837e-07
8.2080743e-07
8.2716994e-07
8.3073875e-07
8.3947542e-07
8.5683465e-07
9.1341823e-07
9.5489233e-07
9.314707e-07
8.7828666e-07
8.4519585e-07
8.4472429e-07
8.6049379e-07
8.6957623e-07
8.6048145e-07
8.356894e-07
8.0642834e-07
7.8382803e-07
7.7446915e-07
7.7835566e-07
7.9110481e-07
8.0674915e-07
8.1950475e-07
8.2507481e-07
8.2223246e-07
8.1117864e-07
7.9426155e-07
7.742517e-07
7.5506458e-07
7.3821042e-07
7.2657047e-07
7.205128e-07
7.197208e-07
7.2332593e-07
7.3021989e-07
7.3787637e-07
7.4635333e-07
7.5626503e-07
7.6754812e-07
7.7789091e-07
7.8783913e-07
7.9622103e-07
8.0458259e-07
8.1013544e-07
8.1040757e-07
8.0927539e-07
8.0853499e-07
8.0725172e-07
8.0611617e-07
8.0631604e-07
8.0572727e-07
8.0486115e-07
8.0698523e-07
8.0759025e-07
8.0921014e-07
8.1241333e-07
8.1533163e-07
8.1928355e-07
8.2270733e-07
8.294132e-07
8.5637974e-07
9.1220874e-07
9.5397608e-07
9.3155285e-07
8.7872478e-07
8.4517555e-07
8.4427147e-07
8.6018793e-07
8.6996791e-07
8.6173244e-07
8.3747824e-07
8.0814157e-07
7.8492358e-07
7.7465102e-07
7.7769594e-07
7.8995808e-07
8.0561587e-07
8.1879548e-07
8.2523215e-07
8.2333804e-07
8.131975e-07
7.9696712e-07
7.771197e-07
7.5784064e-07
7.4042957e-07
7.2791899e-07
7.2093833e-07
7.1921551e-07
7.2196633e-07
7.2826726e-07
7.3573997e-07
7.4390205e-07
7.5317621e-07
7.6437306e-07
7.7453486e-07
7.84664e-07
7.9323648e-07
8.0138808e-07
8.0819322e-07
8.101411e-07
8.0911753e-07
8.0783462e-07
8.0703286e-07
8.0542861e-07
8.0488673e-07
8.0456165e-07
8.0411625e-07
8.0320841e-07
8.0514335e-07
8.0599877e-07
8.0832601e-07
8.0902897e-07
8.1374732e-07
8.1591477e-07
8.2142121e-07
8.5845756e-07
9.1674374e-07
9.5781281e-07
9.340664e-07
8.8019957e-07
8.4564616e-07
8.4407031e-07
8.600177e-07
8.7038757e-07
8.6297471e-07
8.39241e-07
8.0984332e-07
7.8602029e-07
7.7486033e-07
7.7707373e-07
7.8884217e-07
8.0449661e-07
8.1812051e-07
8.2535001e-07
8.2432562e-07
8.1515671e-07
7.9949555e-07
7.799852e-07
7.6052062e-07
7.4279006e-07
7.293857e-07
7.214491e-07
7.1887905e-07
7.2073445e-07
7.2641072e-07
7.3358654e-07
7.4152578e-07
7.5017624e-07
7.6097275e-07
7.7135674e-07
7.813244e-07
7.9024057e-07
7.9841741e-07
8.0563538e-07
8.0971849e-07
8.0905545e-07
8.0785908e-07
8.0694554e-07
8.0571272e-07
8.0428236e-07
8.0296636e-07
8.0326847e-07
8.0256938e-07
8.019233e-07
8.0347014e-07
8.0388079e-07
8.0584139e-07
8.0855688e-07
8.0976649e-07
8.1485939e-07
8.5852478e-07
9.1835238e-07
9.5903495e-07
9.3515309e-07
8.8113527e-07
8.4598378e-07
8.4385756e-07
8.5991007e-07
8.7089339e-07
8.6431752e-07
8.4113121e-07
8.1173838e-07
7.8731876e-07
7.7526164e-07
7.7661756e-07
7.8787642e-07
8.0342338e-07
8.1743958e-07
8.2544082e-07
8.2526229e-07
8.1705337e-07
8.0201956e-07
7.8295557e-07
7.6336662e-07
7.4532351e-07
7.3118228e-07
7.2222093e-07
7.1875542e-07
7.1969694e-07
7.2472712e-07
7.3161605e-07
7.393247e-07
7.474534e-07
7.577771e-07
7.6810485e-07
7.7825465e-07
7.8702317e-07
7.9557596e-07
8.029254e-07
8.0856315e-07
8.0899504e-07
8.0794289e-07
8.0692761e-07
8.055568e-07
8.0453421e-07
8.0256237e-07
8.0181423e-07
8.0162409e-07
8.0095264e-07
8.0037096e-07
8.0175384e-07
8.0264775e-07
8.0373127e-07
8.0581106e-07
8.085644e-07
8.6098894e-07
9.2789532e-07
9.6610196e-07
9.3898631e-07
8.83265e-07
8.4691367e-07
8.4399466e-07
8.5994468e-07
8.7143957e-07
8.6559653e-07
8.4292526e-07
8.1351525e-07
7.8856147e-07
7.7566154e-07
7.7618844e-07
7.8694972e-07
8.0238976e-07
8.167479e-07
8.2545978e-07
8.2617493e-07
8.1878602e-07
8.0447588e-07
7.8572679e-07
7.6617186e-07
7.4778105e-07
7.3294842e-07
7.2308696e-07
7.1875946e-07
7.1877979e-07
7.230825e-07
7.2966457e-07
7.3713684e-07
7.4486442e-07
7.5452894e-07
7.6477203e-07
7.7500497e-07
7.8400065e-07
7.9255056e-07
8.0018066e-07
8.0663765e-07
8.0932839e-07
8.0796106e-07
8.0727011e-07
8.0583209e-07
8.047696e-07
8.029749e-07
8.01596e-07
8.002332e-07
8.0044595e-07
7.9940392e-07
7.9917994e-07
7.9988358e-07
8.0094023e-07
8.0223285e-07
8.0388207e-07
8.6081022e-07
9.2949447e-07
9.6764964e-07
9.4041036e-07
8.8446047e-07
8.4746693e-07
8.4401069e-07
8.5994846e-07
8.7200852e-07
8.6693711e-07
8.4486564e-07
8.1547669e-07
7.9001925e-07
7.7629106e-07
7.7598394e-07
7.862078e-07
8.0145807e-07
8.1610442e-07
8.2541526e-07
8.2702507e-07
8.2054119e-07
8.0700243e-07
7.8867192e-07
7.6917324e-07
7.5054929e-07
7.3500577e-07
7.2425137e-07
7.1903797e-07
7.181851e-07
7.216674e-07
7.2778019e-07
7.3508333e-07
7.4243384e-07
7.5149291e-07
7.6159167e-07
7.718375e-07
7.8103708e-07
7.8971096e-07
7.9732602e-07
8.0449583e-07
8.0895887e-07
8.0846663e-07
8.0737446e-07
8.0613092e-07
8.0499061e-07
8.0320231e-07
8.021081e-07
8.0020103e-07
7.9883615e-07
7.9872274e-07
7.9812795e-07
7.9790895e-07
7.9871576e-07
7.9866359e-07
8.0066045e-07
8.6161648e-07
9.3541131e-07
9.7206008e-07
9.429394e-07
8.8604585e-07
8.4831954e-07
8.4427821e-07
8.6014938e-07
8.72613e-07
8.6822159e-07
8.4663784e-07
8.1729799e-07
7.9133246e-07
7.7684111e-07
7.7575237e-07
7.8548384e-07
8.0057854e-07
8.155189e-07
8.2546403e-07
8.2780225e-07
8.2212715e-07
8.0922018e-07
7.9139096e-07
7.7193239e-07
7.5313615e-07
7.3707697e-07
7.2540328e-07
7.1933944e-07
7.176997e-07
7.2032898e-07
7.25864e-07
7.3295588e-07
7.4006324e-07
7.4849606e-07
7.5834987e-07
7.6862908e-07
7.7786389e-07
7.8686615e-07
7.9441784e-07
8.0187283e-07
8.0764366e-07
8.0909226e-07
8.0780479e-07
8.0635698e-07
8.0545297e-07
8.0354921e-07
8.0249066e-07
8.0058675e-07
7.9895677e-07
7.9728846e-07
7.979842e-07
7.9658379e-07
7.9632972e-07
7.9687557e-07
7.9776535e-07
8.6194786e-07
9.3648529e-07
9.7272125e-07
9.4373498e-07
8.8699099e-07
8.4890814e-07
8.4443851e-07
8.602992e-07
8.7322933e-07
8.6954877e-07
8.485261e-07
8.1932097e-07
7.9294885e-07
7.7768419e-07
7.7582512e-07
7.8501009e-07
7.9985097e-07
8.1493366e-07
8.2547589e-07
8.2862692e-07
8.2373185e-07
8.1162758e-07
7.9431122e-07
7.7497637e-07
7.5600378e-07
7.3943143e-07
7.2693072e-07
7.1990569e-07
7.1742951e-07
7.1920013e-07
7.2415057e-07
7.309269e-07
7.379062e-07
7.4578586e-07
7.5522997e-07
7.6543694e-07
7.7477759e-07
7.8382528e-07
7.9166427e-07
7.9895773e-07
8.0546716e-07
8.0914834e-07
8.0811136e-07
8.0667069e-07
8.0536659e-07
8.03916e-07
8.0243455e-07
8.0082639e-07
7.9917692e-07
7.9717187e-07
7.9626941e-07
7.9556169e-07
7.9518957e-07
7.94816e-07
7.9507917e-07
8.6230603e-07
9.3945261e-07
9.7485601e-07
9.4513503e-07
8.88006e-07
8.4950892e-07
8.4472496e-07
8.6056634e-07
8.7391463e-07
8.7078703e-07
8.5022367e-07
8.2102519e-07
7.9426299e-07
7.7830021e-07
7.7573445e-07
7.8443749e-07
7.9911664e-07
8.1440164e-07
8.2545345e-07
8.293073e-07
8.2503044e-07
8.1363158e-07
7.9668346e-07
7.775542e-07
7.5849972e-07
7.4146638e-07
7.283007e-07
7.203495e-07
7.1708925e-07
7.1798118e-07
7.2226748e-07
7.2869109e-07
7.3551863e-07
7.4297083e-07
7.5177412e-07
7.6182861e-07
7.7124995e-07
7.8035574e-07
7.8835018e-07
7.9568243e-07
8.0233935e-07
8.0741557e-07
8.0781392e-07
8.0609119e-07
8.0500072e-07
8.0316797e-07
8.0205529e-07
8.0024417e-07
7.9834377e-07
7.966841e-07
7.9543924e-07
7.9395768e-07
7.9362167e-07
7.9275427e-07
7.9283671e-07
8.6279637e-07
9.406709e-07
9.7546061e-07
9.4581762e-07
8.8892928e-07
8.5027898e-07
8.452649e-07
8.6110059e-07
8.747732e-07
8.721981e-07
8.5211977e-07
8.2304909e-07
7.9591112e-07
7.7926935e-07
7.7591979e-07
7.8404459e-07
7.9836054e-07
8.1370387e-07
8.2522045e-07
8.2971359e-07
8.2622348e-07
8.1550476e-07
7.991086e-07
7.8015447e-07
7.6100768e-07
7.4357662e-07
7.2964803e-07
7.2069959e-07
7.165456e-07
7.1655566e-07
7.2023144e-07
7.2617815e-07
7.3276837e-07
7.3983501e-07
7.4811412e-07
7.5778837e-07
7.6711115e-07
7.7615971e-07
7.840673e-07
7.9140433e-07
7.9790341e-07
8.0355287e-07
8.0547549e-07
8.0391401e-07
8.0254829e-07
8.0092828e-07
8.0000756e-07
7.9794088e-07
7.9646507e-07
7.9393189e-07
7.9373721e-07
7.9072455e-07
7.9121371e-07
7.8906805e-07
7.8982906e-07
8.6294782e-07
9.4203776e-07
9.7643063e-07
9.464976e-07
8.8950577e-07
8.5082945e-07
8.4579288e-07
8.6185089e-07
8.7574307e-07
8.7343511e-07
8.5352337e-07
8.2443006e-07
7.9683813e-07
7.7939733e-07
7.7529771e-07
7.8289905e-07
7.9693718e-07
8.1245927e-07
8.2442885e-07
8.2946261e-07
8.2646399e-07
8.1608044e-07
7.9998068e-07
7.8120302e-07
7.6190248e-07
7.4417415e-07
7.2960919e-07
7.1978139e-07
7.1465284e-07
7.1377983e-07
7.167739e-07
7.2213876e-07
7.2830987e-07
7.3488712e-07
7.4278346e-07
7.5214242e-07
7.6114321e-07
7.6985188e-07
7.7750782e-07
7.8442313e-07
7.906112e-07
7.9627434e-07
7.9942217e-07
7.9820919e-07
7.9696799e-07
7.9530529e-07
7.9468786e-07
7.9312241e-07
7.9128564e-07
7.8906765e-07
7.8795402e-07
7.8663638e-07
7.8576055e-07
7.8341901e-07
7.8383815e-07
8.6355794e-07
9.4329588e-07
9.7692393e-07
9.4696671e-07
8.9042583e-07
8.5170005e-07
8.46571e-07
8.6257377e-07
8.7663543e-07
8.7464425e-07
8.5487366e-07
8.2544314e-07
7.9708928e-07
7.7839951e-07
7.7329315e-07
7.8030945e-07
7.9400733e-07
8.1022093e-07
8.236053e-07
8.3026052e-07
8.2826392e-07
8.1760988e-07
8.0097916e-07
7.817348e-07
7.6159826e-07
7.430585e-07
7.2761087e-07
7.1706541e-07
7.110912e-07
7.0992695e-07
7.125561e-07
7.1741235e-07
7.2258183e-07
7.2880474e-07
7.3808425e-07
7.4772666e-07
7.5688378e-07
7.6526762e-07
7.7249889e-07
7.7846152e-07
7.8440145e-07
7.8936792e-07
7.9276362e-07
7.9320284e-07
7.9152405e-07
7.9011955e-07
7.8969833e-07
7.8880476e-07
7.8677404e-07
7.8512153e-07
7.8350192e-07
7.8339985e-07
7.8098675e-07
7.8085006e-07
7.7840054e-07
8.6387803e-07
9.4321938e-07
9.7704967e-07
9.4726251e-07
8.9068823e-07
8.5082032e-07
8.4455785e-07
8.6138312e-07
8.7704726e-07
8.7663671e-07
8.5665602e-07
8.2483644e-07
7.94846e-07
7.7508195e-07
7.7003919e-07
7.7886222e-07
7.9685471e-07
8.1569036e-07
8.3523216e-07
8.523829e-07
8.6042817e-07
8.4739656e-07
8.2490355e-07
8.0014809e-07
7.7532015e-07
7.5424537e-07
7.3804589e-07
7.2781074e-07
7.2436314e-07
7.2683371e-07
7.3022899e-07
7.3519031e-07
7.4480505e-07
7.6126551e-07
7.761168e-07
7.9336119e-07
8.0781529e-07
8.1798256e-07
8.2657601e-07
8.3335864e-07
8.4076433e-07
8.4590452e-07
8.4894358e-07
8.5223633e-07
8.5259056e-07
8.4953166e-07
8.4883673e-07
8.4886824e-07
8.4862972e-07
8.4449323e-07
8.4189804e-07
8.4067796e-07
8.4036211e-07
8.4061625e-07
8.3225068e-07
8.7094643e-07
9.4920679e-07
9.8393254e-07
9.540184e-07
8.9605489e-07
8.5142304e-07
8.4148263e-07
8.675687e-07
8.9959558e-07
9.1805745e-07
9.0434157e-07
8.6348866e-07
8.2917341e-07
8.2183894e-07
8.3839731e-07
8.5645078e-07
8.9967693e-07
9.6589555e-07
1.0076741e-06
1.0383259e-06
1.0592928e-06
1.0795797e-06
1.0605446e-06
1.0025418e-06
9.537939e-07
9.2485036e-07
9.120869e-07
9.0855704e-07
9.0946829e-07
9.1303176e-07
9.3347529e-07
9.5966701e-07
1.0123663e-06
1.063207e-06
1.0897648e-06
1.126456e-06
1.1680023e-06
1.1865274e-06
1.1943697e-06
1.2081366e-06
1.2194356e-06
1.228798e-06
1.2332369e-06
1.2341305e-06
1.2350024e-06
1.2301016e-06
1.2285181e-06
1.2299012e-06
1.2308646e-06
1.2303823e-06
1.2248156e-06
1.2199442e-06
1.2212393e-06
1.2211831e-06
1.1976947e-06
9.0832288e-07
9.5825219e-07
1.0041504e-06
1.0077997e-06
9.6037114e-07
9.450268e-07
9.8534875e-07
1.0395814e-06
1.1721252e-06
1.2475313e-06
1.3121284e-06
1.3121003e-06
1.2756339e-06
1.2773492e-06
1.2976533e-06
1.3925537e-06
1.513688e-06
1.6490882e-06
1.7084293e-06
1.7545133e-06
1.769131e-06
1.7748117e-06
1.7709394e-06
1.7202245e-06
1.6432849e-06
1.5982016e-06
1.5846223e-06
1.5847117e-06
1.592384e-06
1.6171552e-06
1.7058456e-06
1.7684122e-06
1.8573305e-06
1.9617955e-06
2.0101559e-06
2.06715e-06
2.1399851e-06
2.1742961e-06
2.1826071e-06
2.1958788e-06
2.2162828e-06
2.2410655e-06
2.2613371e-06
2.2672737e-06
2.2674012e-06
2.262779e-06
2.2584303e-06
2.2620274e-06
2.2792962e-06
2.2819614e-06
2.280378e-06
2.2733409e-06
2.2742201e-06
2.2771397e-06
2.1898211e-06
7.1488601e-07
9.0842689e-07
1.221709e-06
1.5007748e-06
1.6476621e-06
1.699056e-06
1.7604792e-06
1.9326799e-06
2.1853152e-06
2.3207651e-06
2.3346583e-06
2.3342769e-06
2.338654e-06
2.3619835e-06
2.4370773e-06
2.6273664e-06
2.6997952e-06
2.8364455e-06
2.8711605e-06
2.9407678e-06
2.9530561e-06
2.9760289e-06
2.9473421e-06
2.9475777e-06
2.8576963e-06
2.85233e-06
2.8254442e-06
2.7832661e-06
2.8768467e-06
2.8153767e-06
2.9991292e-06
3.1459672e-06
3.0964633e-06
3.3305478e-06
3.4348517e-06
3.4296257e-06
3.6017211e-06
3.6024736e-06
3.5940762e-06
3.6434175e-06
3.6525154e-06
3.5002181e-06
3.5807377e-06
3.7873629e-06
3.6209708e-06
3.7773176e-06
3.4830014e-06
3.708846e-06
3.6429882e-06
3.8557971e-06
3.6484865e-06
3.8329191e-06
3.5536167e-06
3.8328129e-06
3.5642546e-06
3.3463987e-07
8.046774e-07
1.5073039e-06
1.9177193e-06
2.2358764e-06
2.2321854e-06
2.1423545e-06
2.0648052e-06
2.046744e-06
2.080189e-06
2.1117746e-06
2.1280866e-06
2.1206343e-06
2.1067794e-06
2.0912986e-06
2.0883133e-06
2.0860466e-06
2.1017734e-06
2.1035543e-06
2.1319401e-06
2.1458696e-06
2.1676408e-06
2.1137907e-06
2.1828077e-06
2.0602897e-06
2.1687209e-06
2.0368626e-06
2.1198676e-06
2.0298823e-06
2.0596936e-06
2.0531753e-06
1.994221e-06
2.0257705e-06
2.0234646e-06
1.9850718e-06
2.0267869e-06
2.0368789e-06
1.9735844e-06
2.0414199e-06
2.0324209e-06
2.0101284e-06
2.0870725e-06
2.116921e-06
2.0536469e-06
2.1301432e-06
2.062309e-06
2.1995973e-06
2.1461678e-06
2.2289849e-06
2.1471867e-06
2.2709155e-06
2.1979459e-06
2.3192943e-06
2.2328729e-06
2.3576874e-06
2.1693482e-06
3.8001937e-06
2.3446303e-06
1.269743e-06
8.5227593e-07
7.79161e-07
7.8196153e-07
7.8870034e-07
7.924589e-07
7.9541502e-07
7.9864639e-07
8.0149681e-07
8.0563823e-07
8.1084171e-07
8.1663242e-07
8.2399661e-07
8.3283261e-07
8.4295289e-07
8.5539535e-07
8.7039133e-07
8.8901268e-07
9.1352815e-07
9.4891973e-07
9.9854197e-07
1.0281877e-06
1.0497951e-06
1.0771294e-06
2.3357108e-06
3.8009674e-06
2.512106e-06
1.3958758e-06
8.9119611e-07
7.8353789e-07
7.8144516e-07
7.881137e-07
7.9245157e-07
7.9603038e-07
7.9944087e-07
8.0280922e-07
8.0738929e-07
8.1238209e-07
8.1916405e-07
8.2640458e-07
8.3522943e-07
8.4596616e-07
8.5827884e-07
8.7332141e-07
8.9144248e-07
9.1520089e-07
9.484556e-07
9.9871973e-07
1.0327831e-06
1.0603459e-06
1.0812515e-06
2.0794922e-06
3.7898178e-06
2.6048621e-06
1.4750047e-06
9.1817231e-07
7.8769085e-07
7.8125385e-07
7.8829864e-07
7.9281727e-07
7.96929e-07
8.0123632e-07
8.0522997e-07
8.1028103e-07
8.1626385e-07
8.2291621e-07
8.3124707e-07
8.40363e-07
8.5089789e-07
8.6352358e-07
8.7784174e-07
8.9582846e-07
9.1764163e-07
9.4981263e-07
9.9807916e-07
1.0386947e-06
1.0689676e-06
1.0905852e-06
2.2779139e-06
3.8076944e-06
2.6180516e-06
1.5372931e-06
9.4992693e-07
7.9483191e-07
7.8135059e-07
7.8876902e-07
7.9379738e-07
7.9860666e-07
8.041044e-07
8.0840046e-07
8.1415851e-07
8.200714e-07
8.2767207e-07
8.3587408e-07
8.4573781e-07
8.5722913e-07
8.7026403e-07
8.854858e-07
9.029048e-07
9.2423983e-07
9.5163588e-07
9.9942055e-07
1.0403853e-06
1.0797036e-06
1.0988258e-06
2.1124975e-06
3.790829e-06
2.7295266e-06
1.648057e-06
1.0173932e-06
7.4839111e-07
7.8270845e-07
7.8965654e-07
7.9562542e-07
8.0104259e-07
8.0664432e-07
8.1159056e-07
8.1714808e-07
8.2365847e-07
8.3117174e-07
8.3958845e-07
8.4941563e-07
8.6067962e-07
8.7424357e-07
8.897964e-07
9.0809192e-07
9.3017044e-07
9.5457939e-07
1.0033671e-06
1.0417431e-06
1.0858738e-06
1.1096788e-06
2.1998223e-06
3.8041132e-06
2.9211503e-06
1.8724879e-06
1.0816358e-06
7.0752222e-07
7.3247713e-07
7.9227122e-07
7.9823457e-07
8.027706e-07
8.0896227e-07
8.1357171e-07
8.195841e-07
8.2603118e-07
8.3405163e-07
8.433224e-07
8.5376807e-07
8.6552494e-07
8.7864231e-07
8.9404615e-07
9.1183238e-07
9.3398751e-07
9.5670188e-07
1.0050607e-06
1.0446996e-06
1.0911799e-06
1.1182485e-06
2.1001144e-06
3.5121661e-06
3.0701104e-06
1.9746791e-06
1.0063887e-06
6.4260469e-07
6.5334949e-07
7.9400938e-07
8.000285e-07
8.0444467e-07
8.1120813e-07
8.1647207e-07
8.2274244e-07
8.2992051e-07
8.3864602e-07
8.4806846e-07
8.5925795e-07
8.715487e-07
8.8534029e-07
9.0049206e-07
9.1785011e-07
9.3832871e-07
9.5909791e-07
1.0045977e-06
1.0507999e-06
1.0968791e-06
1.1233467e-06
1.8566067e-06
3.3952391e-06
3.1012927e-06
1.7228855e-06
1.000851e-06
6.2593337e-07
6.5431729e-07
7.9525712e-07
8.0190575e-07
8.0711029e-07
8.1570584e-07
8.2227875e-07
8.2971551e-07
8.3740842e-07
8.4618498e-07
8.5533207e-07
8.6561166e-07
8.7761924e-07
8.9143615e-07
9.075752e-07
9.2512495e-07
9.4793708e-07
9.6583793e-07
1.004857e-06
1.0562131e-06
1.1042532e-06
1.130168e-06
1.8461859e-06
3.4272868e-06
3.0325291e-06
2.016509e-06
1.0655626e-06
6.5709958e-07
6.3669849e-07
7.2754727e-07
8.0597353e-07
8.1379798e-07
8.2594347e-07
8.3346479e-07
8.4076033e-07
8.4867084e-07
8.5676808e-07
8.6604819e-07
8.7618305e-07
8.8771263e-07
9.0116955e-07
9.1593181e-07
9.3322201e-07
9.5581192e-07
9.7394253e-07
1.0084469e-06
1.0597052e-06
1.1139571e-06
1.143064e-06
1.7577377e-06
3.4244133e-06
3.0872201e-06
2.0984895e-06
1.1126642e-06
6.7162509e-07
5.5871365e-07
6.4545866e-07
8.174468e-07
8.2587523e-07
8.3649477e-07
8.4413431e-07
8.5070066e-07
8.583198e-07
8.664439e-07
8.76187e-07
8.8666279e-07
8.9864927e-07
9.1222299e-07
9.2724054e-07
9.4318821e-07
9.6500153e-07
9.8169909e-07
1.0121908e-06
1.0598031e-06
1.1212343e-06
1.1557572e-06
1.3497117e-06
3.3783253e-06
3.0793759e-06
2.2279671e-06
1.3146893e-06
7.335663e-07
5.297734e-07
6.0503592e-07
7.693497e-07
8.33943e-07
8.4133481e-07
8.4947265e-07
8.5609707e-07
8.634434e-07
8.7211186e-07
8.8222447e-07
8.9388843e-07
9.0671251e-07
9.2101748e-07
9.3742463e-07
9.5415419e-07
9.7728441e-07
9.9263813e-07
1.0193583e-06
1.0601497e-06
1.1222946e-06
1.1670164e-06
1.2287139e-06
2.8581818e-06
3.0566453e-06
2.4362239e-06
1.4955779e-06
7.1080221e-07
5.077308e-07
5.6295331e-07
6.9076435e-07
8.3753987e-07
8.4343582e-07
8.5194777e-07
8.5917022e-07
8.6640772e-07
8.7566056e-07
8.8590558e-07
8.9790447e-07
9.1139991e-07
9.2630839e-07
9.4384969e-07
9.6165879e-07
9.8649929e-07
1.0043035e-06
1.0299108e-06
1.0657006e-06
1.1212672e-06
1.1763063e-06
1.0286999e-06
2.6626523e-06
3.0547357e-06
2.4995148e-06
1.4746089e-06
6.9998899e-07
4.9425672e-07
5.2702685e-07
6.4149377e-07
8.3948692e-07
8.4636084e-07
8.5571605e-07
8.6389792e-07
8.7156349e-07
8.8175321e-07
8.9301031e-07
9.0536025e-07
9.1944057e-07
9.3350533e-07
9.5099933e-07
9.6635852e-07
9.9151191e-07
1.0096458e-06
1.0349814e-06
1.0697359e-06
1.1204404e-06
1.1779211e-06
9.2300875e-07
2.4833808e-06
3.0324755e-06
2.2572785e-06
1.4216102e-06
6.5659919e-07
4.871819e-07
4.8631762e-07
5.8409788e-07
7.9692765e-07
8.5255605e-07
8.6453323e-07
8.7384363e-07
8.83978e-07
8.9449726e-07
9.0605957e-07
9.1806044e-07
9.3165085e-07
9.4642585e-07
9.6267322e-07
9.7703814e-07
1.0006119e-06
1.0176444e-06
1.0397025e-06
1.0715834e-06
1.1192423e-06
1.1767699e-06
7.9337656e-07
2.3985757e-06
2.9879355e-06
2.246677e-06
1.3071962e-06
6.9035971e-07
4.9002206e-07
4.8013932e-07
5.3959399e-07
7.2086729e-07
8.6724533e-07
8.8179244e-07
8.9172001e-07
9.0061554e-07
9.1060928e-07
9.2028371e-07
9.3074525e-07
9.425864e-07
9.5599007e-07
9.7347359e-07
9.8721706e-07
1.0117607e-06
1.0299798e-06
1.0511988e-06
1.0778265e-06
1.1193071e-06
1.1751076e-06
8.2260613e-07
2.3560803e-06
2.9558006e-06
2.4530155e-06
1.4905924e-06
8.0431928e-07
5.1403535e-07
4.6578924e-07
5.1619163e-07
6.6348294e-07
8.869985e-07
9.0000947e-07
9.0985405e-07
9.1750896e-07
9.2630075e-07
9.3484809e-07
9.440855e-07
9.5430701e-07
9.6534794e-07
9.8161573e-07
9.9471788e-07
1.0190905e-06
1.0378542e-06
1.0605366e-06
1.0839907e-06
1.1218257e-06
1.1737176e-06
5.446229e-07
2.2885336e-06
2.9041795e-06
2.4544332e-06
1.3163348e-06
8.4769197e-07
4.7465873e-07
4.3345811e-07
4.6936629e-07
5.9190609e-07
8.1848724e-07
9.1237858e-07
9.2217964e-07
9.2959078e-07
9.3739851e-07
9.4650711e-07
9.5616341e-07
9.6757303e-07
9.7834989e-07
9.9356282e-07
1.0050235e-06
1.0278679e-06
1.0445627e-06
1.068309e-06
1.0904408e-06
1.1255919e-06
1.1725442e-06
4.7230601e-07
1.4091114e-06
2.1975782e-06
1.7217575e-06
1.0903663e-06
6.8988002e-07
4.6330809e-07
4.1908488e-07
4.4934928e-07
5.5651184e-07
7.4216298e-07
9.1559886e-07
9.2566672e-07
9.3341435e-07
9.4169323e-07
9.5148644e-07
9.6299041e-07
9.7621369e-07
9.889343e-07
1.0053813e-06
1.0167473e-06
1.0395782e-06
1.0554484e-06
1.0795701e-06
1.099647e-06
1.1322485e-06
1.1739006e-06
3.4519282e-07
1.5028661e-06
2.093567e-06
2.2454596e-06
1.9217292e-06
1.0530809e-06
6.5646771e-07
5.0159785e-07
5.0424654e-07
5.7587507e-07
7.2832539e-07
9.1566918e-07
9.2630638e-07
9.3506957e-07
9.4383293e-07
9.5403694e-07
9.6666319e-07
9.8024913e-07
9.9408273e-07
1.0126491e-06
1.0255188e-06
1.0501309e-06
1.0675046e-06
1.0911694e-06
1.1096398e-06
1.1398793e-06
1.1764646e-06
4.35239e-07
7.5453751e-07
2.5815085e-06
2.4448514e-06
1.9247626e-06
9.302998e-07
4.8170309e-07
4.0135107e-07
4.3050737e-07
4.917513e-07
6.2634773e-07
8.1702829e-07
9.2994145e-07
9.39665e-07
9.4903959e-07
9.6022226e-07
9.7265429e-07
9.8696973e-07
1.000808e-06
1.021325e-06
1.0345321e-06
1.0594592e-06
1.0771245e-06
1.1014543e-06
1.1195901e-06
1.147119e-06
1.1800908e-06
5.8803788e-07
1.0079801e-06
2.164982e-06
1.6677155e-06
1.0304431e-06
6.2098056e-07
3.7533743e-07
3.4397464e-07
3.671845e-07
4.4383098e-07
5.4317697e-07
7.2241692e-07
9.4092417e-07
9.5354465e-07
9.6401306e-07
9.7634132e-07
9.8907906e-07
1.0029867e-06
1.0171636e-06
1.0355068e-06
1.047471e-06
1.0699399e-06
1.0874001e-06
1.1123007e-06
1.1310971e-06
1.1558345e-06
1.1864092e-06
3.7669225e-07
1.0036704e-06
2.2391957e-06
1.8477334e-06
1.27644e-06
8.4855148e-07
4.9390604e-07
4.4676059e-07
4.4492597e-07
5.0441893e-07
5.9248702e-07
7.4913474e-07
9.6569224e-07
9.7947266e-07
9.9127041e-07
1.0023219e-06
1.0128646e-06
1.025113e-06
1.0356774e-06
1.0524393e-06
1.0623783e-06
1.0829426e-06
1.0998841e-06
1.124321e-06
1.1444822e-06
1.1683578e-06
1.1956966e-06
3.237525e-07
1.1257022e-06
2.2895454e-06
2.3672975e-06
1.9610194e-06
1.3860674e-06
5.9720748e-07
5.1787739e-07
4.6911594e-07
5.2398319e-07
6.067466e-07
7.4668445e-07
9.8399801e-07
9.9853483e-07
1.0107469e-06
1.0221055e-06