/*--------------------------------*- C++ -*----------------------------------*\
| =========                 |                                                 |
| \\      /  F ield         | OpenFOAM: The Open Source CFD Toolbox           |
|  \\    /   O peration     | Version:  2406                                  |
|   \\  /    A nd           | Website:  www.openfoam.com                      |
|    \\/     M anipulation  |                                                 |
\*---------------------------------------------------------------------------*/
FoamFile
{
    version     2.0;
    format      ascii;
    arch        "LSB;label=32;scalar=64";
    class       volScalarField;
    location    "20";
    object      alphat;
}
// * * * * * * * * * * * * * * * * * * * * * * * * * * * * * * * * * * * * * //

dimensions      [1 -1 -1 0 0 0 0];

internalField   nonuniform List<scalar> 
62344
(
1.034563e-06
1.0822477e-06
1.0651189e-06
1.0218462e-06
9.8337544e-07
9.6445591e-07
9.7536453e-07
9.8292005e-07
1.0048426e-06
9.9876844e-07
9.781037e-07
9.6548256e-07
9.371235e-07
9.4232798e-07
9.6915947e-07
9.9889678e-07
1.0398361e-06
1.0806873e-06
1.1177667e-06
1.1366599e-06
1.1380236e-06
1.1496142e-06
1.17788e-06
1.1777013e-06
1.162446e-06
1.1778926e-06
1.2470885e-06
1.3585157e-06
1.4872194e-06
1.5821781e-06
1.7168912e-06
1.8346938e-06
2.1398035e-06
2.4928386e-06
3.075241e-06
3.4224409e-06
3.8207304e-06
4.3895851e-06
4.990197e-06
6.4604061e-06
8.2678479e-06
9.9151834e-06
1.2322099e-05
1.4697144e-05
1.6534744e-05
1.8957456e-05
2.3501822e-05
2.9637078e-05
3.7952253e-05
4.6677335e-05
5.2462012e-05
5.6605809e-05
5.9938814e-05
6.5193405e-05
7.5336904e-05
1.0324968e-06
1.0809399e-06
1.0685412e-06
1.0232819e-06
9.8200884e-07
9.6032418e-07
9.6845142e-07
9.8278073e-07
9.9936109e-07
1.0004056e-06
9.711748e-07
9.5851739e-07
9.3532703e-07
9.3681328e-07
9.6455133e-07
9.8941573e-07
1.0259115e-06
1.07194e-06
1.0928112e-06
1.1013322e-06
1.1172356e-06
1.1368012e-06
1.1611558e-06
1.1499472e-06
1.1170321e-06
1.1205011e-06
1.1515462e-06
1.2313491e-06
1.3560879e-06
1.4563031e-06
1.5854925e-06
1.6856156e-06
1.9193315e-06
2.2871368e-06
2.7973e-06
3.0541311e-06
3.492941e-06
3.9272219e-06
4.8848857e-06
6.0102247e-06
7.8502648e-06
9.3264849e-06
1.1940809e-05
1.3918186e-05
1.5873066e-05
1.7614361e-05
2.1828555e-05
2.7154033e-05
3.5945235e-05
4.563349e-05
5.4862756e-05
6.135053e-05
6.6329891e-05
6.6853322e-05
7.3852856e-05
1.0316657e-06
1.0807634e-06
1.0706916e-06
1.0276366e-06
9.8621894e-07
9.6549071e-07
9.6671041e-07
9.8416639e-07
9.9846722e-07
1.005937e-06
9.8200928e-07
9.5775757e-07
9.3974237e-07
9.3423517e-07
9.5572501e-07
9.8671769e-07
1.0266203e-06
1.0735757e-06
1.0920393e-06
1.0947948e-06
1.1138206e-06
1.1405772e-06
1.1645224e-06
1.1466353e-06
1.1070298e-06
1.105963e-06
1.1319609e-06
1.2031489e-06
1.33145e-06
1.4332512e-06
1.5551454e-06
1.6662412e-06
1.8928268e-06
2.2738896e-06
2.7364471e-06
2.9338718e-06
3.3551116e-06
3.7629659e-06
4.6440229e-06
5.718284e-06
7.4469113e-06
8.8106115e-06
1.1365288e-05
1.3431619e-05
1.6368065e-05
2.0023422e-05
2.5094593e-05
3.0275939e-05
3.8593055e-05
4.5747788e-05
5.3528684e-05
5.8613055e-05
6.1710095e-05
6.1633302e-05
6.5702803e-05
1.0320103e-06
1.081047e-06
1.0711225e-06
1.0327163e-06
9.8914152e-07
9.6872727e-07
9.6696901e-07
9.8485359e-07
1.0019635e-06
1.0036964e-06
9.843868e-07
9.5865158e-07
9.3773925e-07
9.3477436e-07
9.549821e-07
9.8996158e-07
1.0339479e-06
1.0743739e-06
1.0983234e-06
1.1051216e-06
1.1187021e-06
1.1421341e-06
1.1667081e-06
1.1390121e-06
1.1078702e-06
1.106227e-06
1.1275571e-06
1.1890146e-06
1.3130881e-06
1.4063792e-06
1.5266815e-06
1.6587141e-06
1.8901391e-06
2.300754e-06
2.7196959e-06
2.8975048e-06
3.2828247e-06
3.799654e-06
4.5547684e-06
5.5966201e-06
7.1764212e-06
8.1963866e-06
1.0356691e-05
1.3166043e-05
1.6687415e-05
2.3683413e-05
2.7744399e-05
3.5613722e-05
4.2111645e-05
5.0168032e-05
5.7724975e-05
6.5177776e-05
6.782141e-05
7.1615952e-05
7.3816136e-05
1.0322127e-06
1.0836921e-06
1.0717212e-06
1.0370044e-06
9.9236788e-07
9.6939339e-07
9.6878717e-07
9.8250545e-07
1.0035381e-06
1.0045358e-06
9.8445473e-07
9.6548593e-07
9.3796319e-07
9.3461366e-07
9.5553104e-07
9.900736e-07
1.0320077e-06
1.0680434e-06
1.0960138e-06
1.1062878e-06
1.1153868e-06
1.1333562e-06
1.1549927e-06
1.1310289e-06
1.1114308e-06
1.1119688e-06
1.1297566e-06
1.1786538e-06
1.2782301e-06
1.3548113e-06
1.4524101e-06
1.6102122e-06
1.8565718e-06
2.2367984e-06
2.5916308e-06
2.7546445e-06
3.1001764e-06
3.6281178e-06
4.2085841e-06
5.2097026e-06
6.7942709e-06
7.5745685e-06
9.555683e-06
1.3023995e-05
1.6781492e-05
2.4068762e-05
2.8272296e-05
3.6483382e-05
4.2825907e-05
5.3062983e-05
6.1911508e-05
7.5346498e-05
8.3489656e-05
9.7460423e-05
9.8679581e-05
1.0316443e-06
1.0856692e-06
1.0727352e-06
1.0366494e-06
9.9572162e-07
9.7070828e-07
9.698722e-07
9.7994985e-07
1.0113057e-06
1.0064095e-06
9.9486977e-07
9.7057119e-07
9.439046e-07
9.3476944e-07
9.6149196e-07
9.9224422e-07
1.022969e-06
1.070727e-06
1.1055608e-06
1.1236684e-06
1.1344737e-06
1.1471254e-06
1.156738e-06
1.1329464e-06
1.12317e-06
1.1247169e-06
1.136293e-06
1.1743079e-06
1.2459365e-06
1.3169778e-06
1.4039018e-06
1.55188e-06
1.8167604e-06
2.1727118e-06
2.4799096e-06
2.662067e-06
3.0487236e-06
3.5389517e-06
4.0518268e-06
4.7353316e-06
5.9367481e-06
6.7013305e-06
8.4886775e-06
1.2305543e-05
1.5267035e-05
2.0918653e-05
2.5233747e-05
3.3565198e-05
3.9373962e-05
4.9036835e-05
5.7978004e-05
7.1763805e-05
8.3421245e-05
0.00010226351
0.00011590506
1.0309005e-06
1.0874275e-06
1.0761787e-06
1.0355282e-06
9.9437707e-07
9.6754843e-07
9.6954866e-07
9.8375591e-07
1.0116964e-06
1.0106248e-06
9.9923375e-07
9.6932926e-07
9.4314489e-07
9.3154166e-07
9.6438708e-07
9.9228424e-07
1.0139811e-06
1.0619784e-06
1.1054436e-06
1.1381598e-06
1.1481584e-06
1.1530191e-06
1.1553159e-06
1.1271891e-06
1.1227409e-06
1.1281575e-06
1.1425032e-06
1.1728677e-06
1.2199431e-06
1.2758851e-06
1.3626096e-06
1.4749137e-06
1.7365784e-06
2.0947686e-06
2.348782e-06
2.5967961e-06
2.9798044e-06
3.4963188e-06
3.9708451e-06
4.6780791e-06
5.2895441e-06
5.9546792e-06
7.869243e-06
1.0793786e-05
1.3141756e-05
1.8163375e-05
2.2828149e-05
2.9019644e-05
3.1837433e-05
3.8599952e-05
4.871079e-05
6.1211849e-05
7.3825099e-05
9.0925644e-05
0.0001096264
1.0299874e-06
1.08816e-06
1.0791931e-06
1.0364867e-06
9.9169206e-07
9.6518142e-07
9.6720796e-07
9.8514544e-07
1.0047516e-06
1.0168966e-06
1.0015751e-06
9.6728895e-07
9.4691306e-07
9.2946461e-07
9.6225323e-07
9.8955779e-07
1.0071724e-06
1.0568572e-06
1.10046e-06
1.1231952e-06
1.1366716e-06
1.1445367e-06
1.1452972e-06
1.1207229e-06
1.1180774e-06
1.1245497e-06
1.138269e-06
1.165721e-06
1.2034424e-06
1.2427817e-06
1.3397567e-06
1.457146e-06
1.6661612e-06
2.0056284e-06
2.2472103e-06
2.5519643e-06
2.9512909e-06
3.4878787e-06
3.9492135e-06
4.678521e-06
5.27094e-06
5.7652802e-06
7.2682268e-06
9.3810579e-06
1.1311173e-05
1.5842608e-05
1.9683984e-05
2.5398466e-05
2.782121e-05
3.3116513e-05
4.0484317e-05
4.9314288e-05
5.9051446e-05
7.0469784e-05
8.7583467e-05
1.0295509e-06
1.0883815e-06
1.0804732e-06
1.0386188e-06
9.9241118e-07
9.6798235e-07
9.6548285e-07
9.822581e-07
1.0068926e-06
1.0212499e-06
1.0034711e-06
9.7237536e-07
9.5250097e-07
9.3050117e-07
9.6022837e-07
9.8873396e-07
1.0086204e-06
1.0672504e-06
1.1038248e-06
1.115454e-06
1.1300127e-06
1.1465566e-06
1.1465872e-06
1.1252429e-06
1.1172761e-06
1.1156721e-06
1.1217606e-06
1.1458755e-06
1.1874204e-06
1.2302548e-06
1.3234718e-06
1.4552301e-06
1.6313894e-06
1.9327474e-06
2.1535985e-06
2.5022043e-06
2.8695534e-06
3.5179529e-06
3.9678933e-06
4.7242121e-06
5.2401515e-06
5.8892488e-06
7.1857433e-06
8.950602e-06
1.071052e-05
1.500865e-05
1.8560314e-05
2.4066648e-05
2.7127581e-05
3.3232034e-05
3.9701277e-05
4.778055e-05
5.6180173e-05
6.6821024e-05
7.9704209e-05
1.0295339e-06
1.0876654e-06
1.0811252e-06
1.040655e-06
9.9443781e-07
9.6900326e-07
9.6537591e-07
9.8278833e-07
1.0094022e-06
1.022286e-06
1.0055884e-06
9.7666272e-07
9.5179034e-07
9.3596261e-07
9.5870935e-07
9.9145074e-07
1.0135307e-06
1.0706686e-06
1.1066531e-06
1.1275501e-06
1.1442415e-06
1.1667064e-06
1.1683954e-06
1.1396687e-06
1.1198869e-06
1.1151142e-06
1.1203141e-06
1.1424362e-06
1.1833701e-06
1.2202033e-06
1.2936848e-06
1.4331527e-06
1.6025446e-06
1.8924464e-06
2.1060466e-06
2.4782847e-06
2.8056266e-06
3.5110257e-06
3.948923e-06
4.6970114e-06
5.1429646e-06
6.0270535e-06
7.2708605e-06
8.8638846e-06
1.061962e-05
1.4837243e-05
1.8267011e-05
2.3593689e-05
2.8061261e-05
3.5485811e-05
4.2552587e-05
5.1500101e-05
6.04009e-05
7.3537659e-05
8.5593736e-05
1.0295931e-06
1.0869906e-06
1.0811187e-06
1.043769e-06
9.9650318e-07
9.6837634e-07
9.6600926e-07
9.8301451e-07
1.0066885e-06
1.0197037e-06
1.0076474e-06
9.7300794e-07
9.5102185e-07
9.4078974e-07
9.5529072e-07
9.899618e-07
1.0153319e-06
1.0584664e-06
1.0982389e-06
1.130264e-06
1.1474894e-06
1.1684816e-06
1.1752129e-06
1.1465358e-06
1.1220554e-06
1.124465e-06
1.1319441e-06
1.1613826e-06
1.1993445e-06
1.2159533e-06
1.2536739e-06
1.401102e-06
1.5703936e-06
1.8602586e-06
2.0619679e-06
2.4460633e-06
2.7667435e-06
3.44148e-06
3.8664228e-06
4.5715982e-06
5.0218945e-06
6.006333e-06
7.4142554e-06
8.8073351e-06
1.0831679e-05
1.5022336e-05
1.840729e-05
2.3041667e-05
2.9454458e-05
3.7817967e-05
4.5860697e-05
5.6080184e-05
6.8280219e-05
8.4446296e-05
9.6813206e-05
1.0294155e-06
1.0865066e-06
1.0800469e-06
1.0468443e-06
9.9983554e-07
9.7037037e-07
9.657683e-07
9.8148351e-07
1.006135e-06
1.0174257e-06
1.0096434e-06
9.7078728e-07
9.5232067e-07
9.4303042e-07
9.4956867e-07
9.8440837e-07
1.0133228e-06
1.0479021e-06
1.0889417e-06
1.1192228e-06
1.1367804e-06
1.1497088e-06
1.1621618e-06
1.1439552e-06
1.123387e-06
1.1273036e-06
1.1344749e-06
1.1664683e-06
1.2040073e-06
1.2145993e-06
1.2437737e-06
1.3855695e-06
1.5474382e-06
1.8160316e-06
2.002772e-06
2.3977729e-06
2.7311675e-06
3.3387388e-06
3.7519138e-06
4.3014685e-06
4.8190216e-06
5.8612129e-06
7.3714837e-06
8.787534e-06
1.1279167e-05
1.4949608e-05
1.8218417e-05
2.2492055e-05
2.9374123e-05
3.7780788e-05
4.6390679e-05
5.8146276e-05
7.2591013e-05
8.8563937e-05
0.00010022264
1.0288989e-06
1.0866396e-06
1.0785865e-06
1.0485452e-06
1.0032096e-06
9.7433509e-07
9.6572867e-07
9.8019853e-07
1.0116234e-06
1.0215445e-06
1.015754e-06
9.765208e-07
9.5733133e-07
9.4303671e-07
9.4521128e-07
9.8153487e-07
1.0115243e-06
1.0488093e-06
1.0850703e-06
1.1163939e-06
1.1385079e-06
1.1472771e-06
1.1532514e-06
1.1340215e-06
1.1180906e-06
1.1211386e-06
1.1264984e-06
1.1500153e-06
1.190412e-06
1.205071e-06
1.2393667e-06
1.3836577e-06
1.5358211e-06
1.7648172e-06
1.9588376e-06
2.3146274e-06
2.6328843e-06
3.1535193e-06
3.6119511e-06
3.9616809e-06
4.5598692e-06
5.5979433e-06
7.2438763e-06
8.6672124e-06
1.1259703e-05
1.4610692e-05
1.7712943e-05
2.1797874e-05
2.8592986e-05
3.6520536e-05
4.5313218e-05
5.8004862e-05
7.3241445e-05
8.7864943e-05
9.8952345e-05
1.0281427e-06
1.0867261e-06
1.0781622e-06
1.0478875e-06
1.0045246e-06
9.7494561e-07
9.6675341e-07
9.8030183e-07
1.0149698e-06
1.0253497e-06
1.018279e-06
9.8799443e-07
9.5989251e-07
9.4461751e-07
9.4520687e-07
9.8188885e-07
1.0107509e-06
1.0486155e-06
1.0840407e-06
1.1213626e-06
1.1492202e-06
1.1640206e-06
1.1559518e-06
1.1315874e-06
1.1078496e-06
1.1085986e-06
1.1148412e-06
1.1352188e-06
1.1746646e-06
1.1919237e-06
1.23248e-06
1.3804426e-06
1.5227769e-06
1.691413e-06
1.9423578e-06
2.2015539e-06
2.5299766e-06
2.9328558e-06
3.4790948e-06
3.7925604e-06
4.3948347e-06
5.1589492e-06
6.9299521e-06
8.4137359e-06
1.1029516e-05
1.3822739e-05
1.6980846e-05
2.0758259e-05
2.7073585e-05
3.3742101e-05
4.1778293e-05
5.385751e-05
6.8618874e-05
8.1826073e-05
9.1210685e-05
1.027197e-06
1.0867542e-06
1.0796426e-06
1.046351e-06
1.0036586e-06
9.7227236e-07
9.6592667e-07
9.7994073e-07
1.0115861e-06
1.025183e-06
1.017658e-06
9.8956734e-07
9.6034426e-07
9.4228476e-07
9.4792615e-07
9.8204779e-07
1.0073953e-06
1.0415987e-06
1.080545e-06
1.1172115e-06
1.1452433e-06
1.1691892e-06
1.1613452e-06
1.1333861e-06
1.1030358e-06
1.1027356e-06
1.1108543e-06
1.1328327e-06
1.1692769e-06
1.1818507e-06
1.2137671e-06
1.3499645e-06
1.4956502e-06
1.6324466e-06
1.9053957e-06
2.090069e-06
2.4652279e-06
2.7768069e-06
3.3469909e-06
3.6624139e-06
4.2701184e-06
4.8963268e-06
6.5224565e-06
7.948219e-06
1.0312776e-05
1.2546791e-05
1.5436236e-05
1.8673041e-05
2.4077569e-05
2.9272723e-05
3.5575408e-05
4.5630084e-05
5.922153e-05
7.1854834e-05
8.1709707e-05
1.0262692e-06
1.0868602e-06
1.0820058e-06
1.0455601e-06
1.0018965e-06
9.6982086e-07
9.6309215e-07
9.784586e-07
1.0061738e-06
1.0202153e-06
1.0153934e-06
9.8330044e-07
9.5413633e-07
9.3662429e-07
9.4703412e-07
9.7847284e-07
1.0011443e-06
1.0323409e-06
1.073895e-06
1.1038734e-06
1.1295181e-06
1.1552835e-06
1.158443e-06
1.1331799e-06
1.0997658e-06
1.0971044e-06
1.1064732e-06
1.1270519e-06
1.1607518e-06
1.1720135e-06
1.2001395e-06
1.3180064e-06
1.4523279e-06
1.570883e-06
1.8396445e-06
1.9589653e-06
2.333937e-06
2.6176204e-06
3.1720282e-06
3.4934589e-06
4.1272664e-06
4.6787425e-06
6.1234764e-06
7.3503086e-06
9.2097042e-06
1.0744185e-05
1.3208141e-05
1.5392511e-05
1.9281383e-05
2.3726008e-05
2.8736272e-05
3.6388966e-05
4.8021562e-05
5.9959271e-05
6.9830755e-05
1.0254836e-06
1.0872812e-06
1.0842761e-06
1.0459545e-06
1.0009427e-06
9.6946661e-07
9.6080629e-07
9.7742054e-07
1.0035413e-06
1.018624e-06
1.0172396e-06
9.8017164e-07
9.4836241e-07
9.3361928e-07
9.454234e-07
9.7491854e-07
9.964936e-07
1.0270566e-06
1.0695326e-06
1.0945164e-06
1.1188611e-06
1.1408329e-06
1.1471665e-06
1.1269783e-06
1.0989573e-06
1.0891086e-06
1.0968791e-06
1.1090351e-06
1.1327857e-06
1.1449916e-06
1.1724312e-06
1.2674034e-06
1.391988e-06
1.481897e-06
1.7032674e-06
1.8080861e-06
2.1205564e-06
2.3554421e-06
2.8675956e-06
3.1606303e-06
3.8402983e-06
4.3698778e-06
5.5976597e-06
6.5612132e-06
8.2952555e-06
9.3622953e-06
1.1441448e-05
1.2919293e-05
1.5220942e-05
1.8661221e-05
2.3255482e-05
2.8925521e-05
3.7344671e-05
4.7345996e-05
5.6639601e-05
1.0250225e-06
1.0874884e-06
1.0855213e-06
1.0468366e-06
1.0013069e-06
9.7070471e-07
9.6085403e-07
9.7833751e-07
1.0054371e-06
1.0241983e-06
1.0266887e-06
9.854982e-07
9.4746379e-07
9.3488477e-07
9.4628536e-07
9.7439131e-07
9.9392791e-07
1.0280981e-06
1.0692711e-06
1.0824819e-06
1.1078514e-06
1.1266798e-06
1.1286702e-06
1.1040147e-06
1.0763408e-06
1.060432e-06
1.0631769e-06
1.0689782e-06
1.0746104e-06
1.0768942e-06
1.1017673e-06
1.1588709e-06
1.2695999e-06
1.3167814e-06
1.4560217e-06
1.5392035e-06
1.7884189e-06
1.9376429e-06
2.3687252e-06
2.6338328e-06
3.2973022e-06
3.7957959e-06
4.826633e-06
5.650125e-06
6.6746702e-06
7.9613601e-06
9.5636785e-06
1.1012059e-05
1.2595012e-05
1.4750877e-05
1.7797533e-05
2.2105974e-05
2.7658216e-05
3.493938e-05
4.3164673e-05
1.0247235e-06
1.0876657e-06
1.085891e-06
1.0476853e-06
1.0021149e-06
9.7015965e-07
9.6223477e-07
9.7771397e-07
1.0053449e-06
1.0294768e-06
1.0303869e-06
9.8918214e-07
9.4814865e-07
9.34942e-07
9.4234214e-07
9.6482593e-07
9.8136363e-07
1.0137714e-06
1.0521231e-06
1.0575141e-06
1.0747056e-06
1.0903466e-06
1.0844107e-06
1.0599161e-06
1.0351137e-06
1.0148036e-06
1.0094232e-06
1.0085206e-06
1.002778e-06
9.9429451e-07
1.0003036e-06
8.3635819e-07
1.1163662e-06
1.1324883e-06
1.1962585e-06
1.234705e-06
1.4098446e-06
1.4924037e-06
1.7892809e-06
1.9947147e-06
2.5122744e-06
2.9976513e-06
3.700486e-06
4.6089861e-06
5.2224899e-06
6.3556474e-06
7.9744907e-06
9.5672564e-06
1.0809286e-05
1.2513781e-05
1.4283456e-05
1.6939064e-05
2.0069186e-05
2.4165206e-05
3.088212e-05
1.0246595e-06
1.0864975e-06
1.0845952e-06
1.0467492e-06
1.0009812e-06
9.6629692e-07
9.5886315e-07
9.7080025e-07
9.9691024e-07
1.0198542e-06
1.0179836e-06
9.7663756e-07
9.349117e-07
9.2161151e-07
9.2346107e-07
9.3958173e-07
9.5187497e-07
9.7566817e-07
1.0092074e-06
1.0092992e-06
1.0180646e-06
1.0354971e-06
1.032259e-06
9.1408787e-07
9.3652071e-07
9.7417018e-07
9.6651809e-07
9.6129717e-07
9.5078937e-07
7.9419424e-07
8.5815794e-07
6.0766539e-07
1.0277844e-06
1.0300764e-06
1.0676876e-06
1.0925469e-06
1.2243729e-06
1.2909501e-06
1.5162462e-06
1.6888554e-06
2.0271453e-06
2.5443606e-06
3.0105346e-06
3.7838615e-06
4.4401048e-06
5.0025758e-06
6.3077266e-06
7.8460818e-06
9.1060314e-06
1.0346748e-05
1.1878575e-05
1.3371515e-05
1.5543366e-05
1.7166858e-05
2.1357886e-05
1.0242269e-06
1.0846985e-06
1.0810033e-06
1.0420553e-06
9.9436514e-07
9.5452555e-07
9.431269e-07
9.4939323e-07
9.6830114e-07
9.8801989e-07
9.8327889e-07
9.4703856e-07
9.0957936e-07
8.9586909e-07
8.9669863e-07
9.1223488e-07
9.2224005e-07
9.4309382e-07
9.7447854e-07
9.8160787e-07
9.8864365e-07
1.0057379e-06
1.0263385e-06
7.6580678e-07
8.0699431e-07
1.0081288e-06
1.0208709e-06
1.0292095e-06
8.7497369e-07
7.5403075e-07
8.8040893e-07
6.6016432e-07
1.1217663e-06
1.1249152e-06
1.1576082e-06
1.1909534e-06
1.2792277e-06
1.3095e-06
1.2350997e-06
1.6209108e-06
1.8369166e-06
2.3203067e-06
2.6934407e-06
3.2949744e-06
4.012104e-06
4.3727871e-06
5.3211171e-06
6.2294546e-06
7.407923e-06
8.2302083e-06
9.5567505e-06
1.0249088e-05
1.1957639e-05
1.2733712e-05
1.4571262e-05
1.0224977e-06
1.076631e-06
1.0665683e-06
1.0240786e-06
9.7255093e-07
9.2820853e-07
9.1075586e-07
9.1314835e-07
9.300004e-07
9.4902221e-07
9.5016147e-07
9.2917684e-07
9.0509074e-07
9.0046065e-07
9.1220457e-07
9.2956429e-07
9.4749938e-07
9.8839334e-07
1.0309638e-06
1.0509504e-06
1.0748327e-06
1.1139304e-06
1.16012e-06
8.0743132e-07
9.2524135e-07
1.2008283e-06
1.2479506e-06
1.2958759e-06
1.065032e-06
9.8752658e-07
1.2526094e-06
1.1810476e-06
1.4994166e-06
1.297055e-06
1.410457e-06
1.6717113e-06
1.7718695e-06
1.7998646e-06
1.3114339e-06
1.5734434e-06
2.1275505e-06
2.4510075e-06
2.7417083e-06
3.1499182e-06
3.7721998e-06
4.0671706e-06
4.7949813e-06
5.3600117e-06
6.37553e-06
6.9718921e-06
7.890168e-06
8.2476314e-06
9.3068875e-06
9.7091433e-06
1.0654366e-05
1.0128472e-06
1.05047e-06
1.029533e-06
9.8905368e-07
9.4365198e-07
9.0158993e-07
8.8511792e-07
8.8823246e-07
9.0776498e-07
9.320658e-07
9.6434746e-07
9.7799812e-07
9.9213333e-07
1.0143538e-06
1.0404334e-06
1.084569e-06
1.1109342e-06
1.1713443e-06
1.0762561e-06
1.2470057e-06
1.2905951e-06
1.3597841e-06
1.4421259e-06
1.0673059e-06
1.1951338e-06
1.5380409e-06
1.6258652e-06
1.7263672e-06
1.5176586e-06
1.5254237e-06
1.8545977e-06
2.0221267e-06
2.1277123e-06
1.9121895e-06
2.0627135e-06
2.5254864e-06
2.7014653e-06
2.7819415e-06
2.2343504e-06
2.3428294e-06
2.7720561e-06
3.5127301e-06
3.7016108e-06
3.8425521e-06
3.7843963e-06
3.6126503e-06
4.6554108e-06
5.0405928e-06
5.7971032e-06
6.2827223e-06
6.9108446e-06
7.1301007e-06
7.8346339e-06
7.7035187e-06
7.6987736e-06
9.9368541e-07
1.0069998e-06
9.9325881e-07
9.7096555e-07
9.5456663e-07
9.2787624e-07
9.3459286e-07
9.4414712e-07
9.7309685e-07
1.0215506e-06
1.0974146e-06
1.1610567e-06
1.2277344e-06
1.2874543e-06
1.1539824e-06
1.3701344e-06
1.4018376e-06
1.4610918e-06
1.2154494e-06
1.3365254e-06
1.5941441e-06
1.6908301e-06
1.7009832e-06
1.4708107e-06
1.565815e-06
1.9069214e-06
2.0699161e-06
2.2125678e-06
2.0892505e-06
2.1415237e-06
2.4324412e-06
2.65066e-06
2.8333107e-06
2.978202e-06
3.1637138e-06
3.5212388e-06
3.8003559e-06
3.9819106e-06
3.86486e-06
3.7717336e-06
4.044846e-06
5.1052717e-06
5.441507e-06
5.4691318e-06
4.3781865e-06
3.8287529e-06
4.3304564e-06
5.4404893e-06
5.6820242e-06
5.9272478e-06
6.23394e-06
6.3081576e-06
5.8117367e-06
6.0004762e-06
5.9670271e-06
9.6909408e-07
1.0025794e-06
1.0292811e-06
1.0688187e-06
1.101923e-06
1.1222708e-06
1.1451234e-06
1.1696965e-06
1.2082029e-06
1.2445391e-06
1.2999434e-06
1.404469e-06
1.4674923e-06
1.3878013e-06
1.3409467e-06
1.4332022e-06
1.5496205e-06
1.489023e-06
1.395731e-06
1.4532508e-06
1.6362812e-06
1.754834e-06
1.7589787e-06
1.6898259e-06
1.7381169e-06
1.9033864e-06
2.1352806e-06
2.2606047e-06
2.2392241e-06
2.267845e-06
2.4718152e-06
2.7062007e-06
2.8224886e-06
2.8852907e-06
2.9700619e-06
3.1104484e-06
3.2501146e-06
3.3542381e-06
3.4369784e-06
3.455115e-06
3.7432095e-06
4.1442206e-06
4.4767497e-06
4.5729272e-06
4.476333e-06
4.081251e-06
4.2921606e-06
4.3824314e-06
4.5400689e-06
4.6859228e-06
4.7896683e-06
4.7797011e-06
4.7829747e-06
4.708664e-06
4.6728885e-06
7.3974077e-07
1.0811489e-06
1.2336795e-06
1.2705174e-06
1.3310214e-06
1.3462394e-06
1.3321891e-06
1.3261229e-06
1.2838415e-06
1.262752e-06
1.2400548e-06
1.2499034e-06
1.2537545e-06
1.2455478e-06
1.2339929e-06
1.206469e-06
1.2023095e-06
1.1715916e-06
1.1161303e-06
1.1211077e-06
1.1395047e-06
1.176154e-06
1.2419451e-06
1.255747e-06
1.2757632e-06
1.318379e-06
1.37657e-06
1.4351025e-06
1.4458259e-06
1.4714908e-06
1.5327561e-06
1.5852825e-06
1.6225459e-06
1.6442999e-06
1.6562572e-06
1.7033429e-06
1.7443037e-06
1.7927785e-06
1.7896149e-06
1.8011121e-06
1.8169769e-06
1.8703263e-06
2.1826633e-06
2.2733515e-06
2.2470261e-06
2.1812974e-06
2.1678109e-06
2.2183624e-06
2.3273058e-06
2.4339321e-06
2.5092862e-06
2.5549066e-06
2.5715269e-06
2.5363784e-06
2.4800383e-06
8.1288334e-07
1.2273141e-06
9.5946977e-07
7.5620038e-07
6.4980423e-07
5.7577222e-07
5.0926722e-07
4.5344748e-07
4.2496681e-07
4.1548472e-07
4.2693081e-07
4.3414911e-07
4.2560746e-07
4.1279185e-07
4.0948396e-07
4.3902467e-07
4.8180525e-07
5.272188e-07
5.7229227e-07
6.1179422e-07
6.3601877e-07
6.8160859e-07
7.4825872e-07
7.8816193e-07
7.6881618e-07
7.3931337e-07
7.2594197e-07
7.3056226e-07
7.1552384e-07
6.8213346e-07
6.5718056e-07
6.5801659e-07
6.7597955e-07
6.9096163e-07
6.935649e-07
6.9760687e-07
7.083189e-07
7.0251367e-07
6.7086628e-07
6.3757293e-07
6.2933054e-07
6.7592342e-07
7.4783227e-07
7.0159922e-07
7.8721005e-07
9.1879785e-07
9.2425325e-07
9.501964e-07
9.9901493e-07
1.0544055e-06
1.1059875e-06
1.1307866e-06
1.128952e-06
1.1022368e-06
1.0706007e-06
1.020888e-06
2.3065802e-06
4.583147e-06
6.0194038e-06
7.8178054e-06
1.1295464e-05
1.699067e-05
2.4138819e-05
3.4304532e-05
4.7394362e-05
6.2186864e-05
7.6622564e-05
8.6503273e-05
9.2537522e-05
0.00011081457
0.00011563123
0.0001142845
0.00010752927
9.8397731e-05
0.00010487721
0.00012562074
0.00013147719
0.000111641
7.9165966e-05
7.1482378e-05
8.2407917e-05
9.248773e-05
9.6220451e-07
2.2215003e-06
4.7014257e-06
6.3366516e-06
8.7298293e-06
1.3336908e-05
1.8029759e-05
2.5112164e-05
3.5832512e-05
5.1297359e-05
6.8097697e-05
8.3796176e-05
9.6570737e-05
0.00011145489
0.00012321859
0.00013275442
0.00013592796
0.00013547111
0.00012772452
0.00013062967
0.0001438634
0.00015113379
0.00013576504
9.5311668e-05
7.7837455e-05
8.6872344e-05
9.9010528e-05
9.242538e-07
2.214551e-06
4.9621474e-06
7.6162499e-06
1.0915118e-05
1.3870554e-05
1.8540564e-05
2.6382475e-05
4.0374445e-05
5.9130275e-05
7.6850676e-05
9.2292227e-05
0.00010700445
0.00012174779
0.00013583329
0.00015030369
0.00015980614
0.00016319192
0.00015915537
0.00015742496
0.00016491634
0.00017470047
0.00016294892
0.00012041536
9.319357e-05
9.6689707e-05
0.00010819663
9.0903431e-07
2.153789e-06
4.9921848e-06
8.4500791e-06
1.1200081e-05
1.4345818e-05
1.9586618e-05
3.0008158e-05
4.7604953e-05
6.6352756e-05
8.2719926e-05
9.739864e-05
0.00011302022
0.00013043898
0.0001484244
0.00016842918
0.00018474822
0.00019140467
0.00018865596
0.00018218632
0.00018271438
0.00019310649
0.00018716419
0.00015253934
0.00011718042
0.00011906396
0.00012296082
9.1301579e-07
2.0286984e-06
4.8472817e-06
8.4459567e-06
1.1432175e-05
1.475902e-05
2.1245325e-05
3.4587757e-05
5.2870443e-05
6.9583304e-05
8.4551904e-05
0.00010007248
0.00011817298
0.00013943189
0.00014606544
0.00016702397
0.00020797861
0.00021612874
0.00021419134
0.00019318577
0.00019299222
0.00020987488
0.00021173329
0.00018710561
0.00014522505
0.00014686034
0.00012300016
9.1253921e-07
1.9155192e-06
4.6384893e-06
8.388443e-06
1.1553426e-05
1.5502391e-05
2.3620945e-05
3.8416946e-05
5.502711e-05
6.9410676e-05
8.3975027e-05
0.00010193261
0.00012423272
0.00011493293
0.00013219241
0.00018716124
0.00022882976
0.00023466511
0.0001623399
0.0001485474
0.00021387901
0.00022897251
0.00023757068
0.00022300069
0.00017554301
0.00017432206
0.00013607324
8.6369225e-07
1.7502366e-06
4.3224723e-06
6.8565872e-06
8.6707666e-06
1.2680729e-05
2.07071e-05
3.4021127e-05
4.8830127e-05
6.3545437e-05
7.9750155e-05
9.147283e-05
9.8579871e-05
0.00011969314
0.00017476421
0.00022616205
0.00021227375
0.00015025022
0.0001340058
0.00015205666
0.00023955537
0.0002527616
0.00026711735
0.00025794136
0.00020872482
0.00019282922
0.00018130758
7.5461721e-07
1.5317999e-06
3.8702835e-06
5.7285479e-06
7.2861734e-06
1.0481316e-05
1.6020413e-05
2.3254995e-05
2.962778e-05
3.5892917e-05
4.4580765e-05
5.9228201e-05
9.083591e-05
0.00018080833
0.00021819026
0.00024191983
0.00015323081
0.00013465716
0.00014390544
0.00018682578
0.00024005856
0.00024521758
0.0003035029
0.00029168627
0.00023723005
0.00015926475
0.00015004525
6.1846282e-07
1.2950378e-06
3.3442179e-06
6.0103299e-06
7.3318562e-06
9.6754512e-06
1.3360943e-05
1.7996157e-05
2.2888827e-05
2.8512608e-05
3.8416912e-05
5.7457136e-05
0.00010690035
0.00019137575
0.00019047917
0.00014592481
0.00013855858
0.00015653792
0.00020597614
0.00026429923
0.00021748048
0.00020556032
0.00028818768
0.00033040174
0.00026450638
0.00016152992
0.00013531743
5.1911386e-07
1.1061627e-06
2.9361644e-06
5.7978453e-06
6.7034699e-06
8.2114411e-06
1.0903041e-05
1.5167026e-05
2.1609939e-05
3.0811553e-05
4.8266468e-05
8.8051835e-05
0.00014331773
0.00012880938
0.00011050981
0.00011601884
0.00014371646
0.00021508191
0.0002987434
0.00031910521
0.00023418173
0.00022709548
0.00032164699
0.00037698389
0.00026708944
0.00019683143
0.0001984455
4.779415e-07
1.0080661e-06
2.5763036e-06
4.4333214e-06
5.1639072e-06
6.7220958e-06
9.9748269e-06
1.631764e-05
2.7554173e-05
4.8141332e-05
8.0844745e-05
0.00011407574
0.00011037212
9.8120418e-05
0.00010246135
0.00012641454
0.00017795295
0.00028920089
0.00031348432
0.00034904097
0.00029649026
0.00035741375
0.00045606819
0.00036662741
0.00020869346
0.00019684768
0.00021064238
4.537062e-07
9.5700714e-07
1.9000304e-06
3.6500956e-06
4.9099145e-06
7.5960502e-06
1.3359425e-05
2.6752638e-05
4.3440252e-05
5.8203873e-05
7.872701e-05
9.2699823e-05
8.9407195e-05
9.9993741e-05
0.0001264004
0.0001911754
0.00026363165
0.00029440181
0.00030179258
0.00028268619
0.00036956483
0.00047311032
0.00049428214
0.00039890981
0.00024469554
0.00021138939
0.00018419917
4.750252e-07
9.3942823e-07
2.0675537e-06
4.5774926e-06
7.3677115e-06
1.4231614e-05
1.9999405e-05
2.8062941e-05
3.9901757e-05
5.3420304e-05
7.469945e-05
8.1114771e-05
9.4822036e-05
0.00012223317
0.00019584646
0.00024185147
0.00027192876
0.00030971181
0.00029160167
0.0003333183
0.00045333129
0.00048892169
0.00047913285
0.00040689037
0.00041188789
0.00032911037
0.00015438162
5.7237366e-07
9.6475233e-07
2.5292778e-06
5.6493487e-06
9.6245917e-06
1.3463426e-05
1.7604246e-05
2.4124816e-05
3.4602627e-05
4.9816988e-05
7.6809628e-05
9.3436718e-05
0.00011922539
0.00017150087
0.00022805137
0.00026019605
0.00024900403
0.00027863676
0.0003831605
0.00042546914
0.00046215389
0.00037491709
0.0003080799
0.00040605588
0.00043970791
0.00038657713
0.00020888426
6.1434276e-07
9.7234517e-07
2.2797264e-06
4.692962e-06
8.2504231e-06
1.1100561e-05
1.4383331e-05
2.0389093e-05
3.1979633e-05
5.3822903e-05
9.1595173e-05
0.00013422431
0.00016724567
0.00018934169
0.00018511428
0.00018178469
0.00021361676
0.00032686996
0.00041536423
0.00044312989
0.00046172543
0.00029993467
0.00030007388
0.00046509353
0.00045103731
0.00042343582
0.00035225967
8.1263716e-07
9.1557385e-07
1.8780819e-06
3.4564246e-06
5.9979417e-06
8.5968729e-06
1.2163267e-05
1.8846331e-05
3.6689103e-05
7.0058197e-05
0.00011933061
0.00017228261
0.00018611518
0.00017505663
0.0001767691
0.00020464743
0.00028478448
0.00042556723
0.00044691131
0.00041757637
0.00032382613
0.00031040724
0.00044692576
0.00045922838
0.00046547487
0.00041142846
0.00042462836
1.0682102e-06
9.0455321e-07
1.6131285e-06
2.7752197e-06
4.5906979e-06
7.1080769e-06
1.2019581e-05
2.4449738e-05
5.44591e-05
0.0001016091
0.00015778247
0.00021616747
0.00019822916
0.00019703205
0.00023266823
0.00032855935
0.00044927349
0.00045238966
0.00036077748
0.00030397638
0.00030091449
0.00041849463
0.00045024018
0.0004704024
0.00049171536
0.00049398883
0.00044390885
1.0897639e-06
9.6814849e-07
1.5396442e-06
2.5582768e-06
4.23545e-06
7.7942468e-06
1.3630398e-05
3.3104495e-05
7.3613365e-05
0.00012997048
0.0001805703
0.00021273895
0.0002501225
0.0003015125
0.00043306287
0.00047754991
0.00049790556
0.00039236957
0.00032193219
0.00030894632
0.00036890013
0.00046937001
0.00047163676
0.00049720017
0.00052389893
0.00051847272
0.00045820448
1.0485291e-06
1.023165e-06
1.6399876e-06
2.9365753e-06
6.3372114e-06
1.0958522e-05
2.6986645e-05
5.6823957e-05
9.333375e-05
0.00013315158
0.00018027434
0.00024597242
0.00037008173
0.00044034645
0.00048900938
0.00051811064
0.00046824558
0.00038096059
0.00035663449
0.00040075147
0.00050055675
0.00049834321
0.00050949666
0.00053574909
0.00055710233
0.00054317056
0.00047142073
9.8420467e-07
1.0838067e-06
2.1686792e-06
5.4916755e-06
1.1838057e-05
3.2388045e-05
6.2028242e-05
9.3286952e-05
0.00012604621
0.00016738606
0.00023084204
0.00034158522
0.00041856
0.00046975058
0.00051060614
0.00049424006
0.00044714945
0.00043309708
0.00047931981
0.00053720611
0.00053432245
0.00051694796
0.00046222802
0.00057480908
0.00058273401
0.00055984254
0.00040383342
9.7402686e-07
1.3409187e-06
4.0480632e-06
1.1325982e-05
3.3352768e-05
6.5069318e-05
9.8716464e-05
0.00013581308
0.00018643896
0.00026008902
0.00033231816
0.00038408068
0.00043208766
0.00043400223
0.00039100782
0.00040308633
0.00045197492
0.0005648038
0.00056723493
0.00056989157
0.00057491583
0.00045392795
0.00046754166
0.00060986113
0.00060200799
0.00056436141
0.00033472998
1.058629e-06
2.2872064e-06
8.1412523e-06
2.733142e-05
6.0735011e-05
9.9352791e-05
0.00014550632
0.00021282742
0.00025983784
0.00030507099
0.00034888742
0.00039113611
0.00040022834
0.00036272123
0.00035266139
0.00037804265
0.00046581515
0.00056884099
0.00058288391
0.00059917623
0.00061916126
0.00048229057
0.00050736203
0.00064581692
0.0006201586
0.00056255607
0.000302808
1.3253489e-06
4.1228518e-06
1.5037953e-05
4.7401923e-05
9.3037161e-05
0.00014725172
0.00019589373
0.0002408559
0.00028189771
0.000319761
0.00035528194
0.00038947715
0.00041219953
0.00037464665
0.00037240982
0.00042310941