/*--------------------------------*- C++ -*----------------------------------*\
| =========                 |                                                 |
| \\      /  F ield         | OpenFOAM: The Open Source CFD Toolbox           |
|  \\    /   O peration     | Version:  2406                                  |
|   \\  /    A nd           | Website:  www.openfoam.com                      |
|    \\/     M anipulation  |                                                 |
\*---------------------------------------------------------------------------*/
FoamFile
{
    version     2.0;
    format      ascii;
    arch        "LSB;label=32;scalar=64";
    class       volScalarField;
    location    "20";
    object      k;
}
// * * * * * * * * * * * * * * * * * * * * * * * * * * * * * * * * * * * * * //

dimensions      [0 2 -2 0 0 0 0];

internalField   nonuniform List<scalar> 
62344
(
4.5057237e-06
3.6254174e-06
2.8968451e-06
2.353919e-06
1.982954e-06
1.7445809e-06
1.6102589e-06
1.4940052e-06
1.4087605e-06
1.3043e-06
1.1995426e-06
1.1233296e-06
1.0492458e-06
1.0100109e-06
1.0061619e-06
1.0172131e-06
1.0390454e-06
1.0546164e-06
1.0603289e-06
1.0702576e-06
1.0681589e-06
1.0704148e-06
1.0766054e-06
1.0591826e-06
1.0529244e-06
1.0788122e-06
1.154624e-06
1.2948364e-06
1.472332e-06
1.6212334e-06
1.8428225e-06
2.0724738e-06
2.533753e-06
3.045124e-06
3.9934369e-06
4.77943e-06
6.0914067e-06
7.7266381e-06
9.6753287e-06
1.3439504e-05
1.8772749e-05
2.4750971e-05
3.4928617e-05
4.7600103e-05
6.2098726e-05
8.029257e-05
0.00010852413
0.00014463028
0.00019385855
0.0002509411
0.00029708575
0.00034003246
0.00037403881
0.00041815944
0.00051071664
4.5062936e-06
3.631674e-06
2.9123618e-06
2.366008e-06
1.9874311e-06
1.7450287e-06
1.6057227e-06
1.5005609e-06
1.4074838e-06
1.3053995e-06
1.1897369e-06
1.1227022e-06
1.0430107e-06
1.0030103e-06
1.0002246e-06
1.0114827e-06
1.0301977e-06
1.0373519e-06
1.0343724e-06
1.0336021e-06
1.0353913e-06
1.0417192e-06
1.0488784e-06
1.0240734e-06
9.876108e-07
9.9109087e-07
1.0198172e-06
1.1081622e-06
1.2645444e-06
1.4210171e-06
1.6397235e-06
1.8132414e-06
2.138752e-06
2.67667e-06
3.4564138e-06
4.0745967e-06
5.2012993e-06
6.4162129e-06
9.0672283e-06
1.2009219e-05
1.7678693e-05
2.29827e-05
3.364953e-05
4.4680009e-05
5.7680536e-05
7.1621005e-05
9.6644992e-05
0.0001260557
0.00017261514
0.00022794834
0.00029162281
0.00035413355
0.00042497497
0.00045838162
0.00055417868
4.5097074e-06
3.6403454e-06
2.9229722e-06
2.3760919e-06
2.0002372e-06
1.7583712e-06
1.6107996e-06
1.502892e-06
1.4147137e-06
1.3179153e-06
1.2096459e-06
1.1252452e-06
1.0556326e-06
1.001381e-06
9.9290088e-07
1.0064184e-06
1.0236938e-06
1.0440798e-06
1.0407959e-06
1.03074e-06
1.0391642e-06
1.0510092e-06
1.0513745e-06
1.0206519e-06
9.7665832e-07
9.7391822e-07
9.9809159e-07
1.0731068e-06
1.2263594e-06
1.3857287e-06
1.6005734e-06
1.788003e-06
2.0962043e-06
2.6466148e-06
3.3541674e-06
3.8866118e-06
4.8655516e-06
5.9887473e-06
8.2594229e-06
1.1138589e-05
1.6413399e-05
2.1346625e-05
3.1777941e-05
4.2739513e-05
5.9224547e-05
8.1615835e-05
0.00011259739
0.00014391092
0.00019024207
0.00023018101
0.0002795168
0.00032186743
0.00036597744
0.00038778865
0.00045319577
4.5142023e-06
3.650552e-06
2.9344173e-06
2.3902537e-06
2.0070281e-06
1.7648271e-06
1.6158278e-06
1.5111411e-06
1.4245683e-06
1.3211762e-06
1.2142612e-06
1.1241601e-06
1.0564313e-06
1.0066161e-06
9.9745201e-07
1.010641e-06
1.0369181e-06
1.0532757e-06
1.0501553e-06
1.049622e-06
1.053146e-06
1.0596093e-06
1.0544e-06
1.0111135e-06
9.7540211e-07
9.7273792e-07
9.9408759e-07
1.0567903e-06
1.2008071e-06
1.3494815e-06
1.5626757e-06
1.7810727e-06
2.1026717e-06
2.7015097e-06
3.3628709e-06
3.8708418e-06
4.719811e-06
5.9552076e-06
7.8943996e-06
1.0741825e-05
1.5536669e-05
1.9847554e-05
2.8595206e-05
4.0641992e-05
5.8482064e-05
9.421386e-05
0.00012351493
0.00017287731
0.00021855184
0.00027225058
0.00032311705
0.00037426362
0.00039995465
0.00043519654
0.00047566524
4.5190168e-06
3.6633892e-06
2.9439421e-06
2.4051494e-06
2.0148995e-06
1.7674693e-06
1.6200045e-06
1.5140464e-06
1.4251123e-06
1.3305996e-06
1.2155689e-06
1.1350351e-06
1.0587349e-06
1.00918e-06
9.9934085e-07
1.0126592e-06
1.0382399e-06
1.0513115e-06
1.0498291e-06
1.0440392e-06
1.0462723e-06
1.0464952e-06
1.0384089e-06
1.0019041e-06
9.7772854e-07
9.7705401e-07
9.967037e-07
1.0448704e-06
1.1508774e-06
1.273092e-06
1.4565998e-06
1.7127417e-06
2.0505366e-06
2.5962677e-06
3.1714389e-06
3.6217195e-06
4.3611565e-06
5.40129e-06
6.8438077e-06
9.647868e-06
1.4159496e-05
1.8079419e-05
2.5861828e-05
3.9065178e-05
5.6225722e-05
9.0195908e-05
0.00012008491
0.00017524677
0.00022611105
0.00029927976
0.00036326272
0.00045357399
0.00050890125
0.00060708781
0.00062762059
4.5218113e-06
3.6745143e-06
2.952202e-06
2.4105175e-06
2.0274418e-06
1.7798168e-06
1.6247983e-06
1.5123812e-06
1.444622e-06
1.3355336e-06
1.23905e-06
1.1437207e-06
1.0722988e-06
1.0167163e-06
1.0059861e-06
1.0154949e-06
1.0348499e-06
1.0630741e-06
1.0720471e-06
1.0721391e-06
1.0682347e-06
1.0630062e-06
1.0450511e-06
1.0111473e-06
9.9640678e-07
9.9382687e-07
1.0043551e-06
1.0387058e-06
1.1111844e-06
1.218409e-06
1.3760595e-06
1.611076e-06
1.9721075e-06
2.4726047e-06
2.9855523e-06
3.454449e-06
4.2439864e-06
5.1680141e-06
6.2451506e-06
8.1230255e-06
1.1611518e-05
1.5257534e-05
2.1794143e-05
3.4933848e-05
4.7581355e-05
7.1596969e-05
9.7946095e-05
0.000149558
0.0001962969
0.0002675786
0.00033482042
0.0004302122
0.00050763197
0.0006316425
0.00072183717
4.524395e-06
3.6853183e-06
2.9660433e-06
2.4151488e-06
2.0298319e-06
1.7785425e-06
1.629618e-06
1.5254681e-06
1.4505591e-06
1.3432079e-06
1.2458642e-06
1.142828e-06
1.070746e-06
1.0189654e-06
1.0083212e-06
1.0152646e-06
1.0299238e-06
1.0605382e-06
1.0768016e-06
1.0931553e-06
1.0850833e-06
1.0712599e-06
1.0470825e-06
1.0079587e-06
1.0014272e-06
1.0061881e-06
1.0150325e-06
1.0385772e-06
1.081761e-06
1.1622325e-06
1.3116468e-06
1.4914498e-06
1.8325773e-06
2.3267054e-06
2.7787481e-06
3.333514e-06
4.092365e-06
5.0746587e-06
6.050356e-06
7.7687141e-06
9.8299315e-06
1.2675382e-05
1.8795557e-05
2.8523947e-05
3.8293562e-05
5.7901078e-05
8.1044624e-05
0.00011591634
0.00014311906
0.00019247546
0.00026134574
0.00034268765
0.00042179677
0.00052494652
0.00064101386
4.5262598e-06
3.6939206e-06
2.9778583e-06
2.4261469e-06
2.0305932e-06
1.777178e-06
1.6316356e-06
1.5306429e-06
1.4412491e-06
1.3570264e-06
1.2494823e-06
1.1441794e-06
1.0779545e-06
1.0205795e-06
1.0063493e-06
1.0110605e-06
1.0234793e-06
1.0550192e-06
1.0725114e-06
1.0726291e-06
1.0656159e-06
1.0538318e-06
1.0359618e-06
1.0055379e-06
1.0017364e-06
1.0059075e-06
1.0124534e-06
1.032623e-06
1.0635252e-06
1.1231115e-06
1.2744741e-06
1.4565395e-06
1.7180689e-06
2.1740957e-06
2.6026245e-06
3.24944e-06
4.0370218e-06
5.077288e-06
6.0476624e-06
7.8181057e-06
9.7500993e-06
1.1893439e-05
1.6365127e-05
2.3274008e-05
3.0814807e-05
4.7283066e-05
6.4953256e-05
9.332141e-05
0.00011367954
0.00014898821
0.00019701474
0.00025154465
0.00030949349
0.00037127864
0.00046874752
4.528682e-06
3.7020235e-06
2.9845465e-06
2.4355838e-06
2.0391956e-06
1.7892264e-06
1.6329367e-06
1.5262092e-06
1.4543217e-06
1.3676302e-06
1.2573553e-06
1.1586763e-06
1.0890932e-06
1.022653e-06
1.0091508e-06
1.0145158e-06
1.0285342e-06
1.0707627e-06
1.0814451e-06
1.0711426e-06
1.061765e-06
1.0538619e-06
1.0391904e-06
1.0179671e-06
1.0053383e-06
9.9148867e-07
9.9025966e-07
1.0091692e-06
1.0461309e-06
1.109468e-06
1.2528058e-06
1.4446623e-06
1.6630031e-06
2.0767004e-06
2.4640255e-06
3.150478e-06
3.8942289e-06
5.1690413e-06
6.1961177e-06
8.0213486e-06
9.788371e-06
1.2063315e-05
1.5929006e-05
2.183736e-05
2.8875893e-05
4.46505e-05
6.0758736e-05
8.6800285e-05
0.00010723022
0.00014289217
0.00018333056
0.00023312332
0.00028445168
0.0003468006
0.00042296579
4.5314985e-06
3.7079306e-06
2.9936032e-06
2.4424177e-06
2.0472452e-06
1.7945514e-06
1.6362045e-06
1.5332941e-06
1.4663362e-06
1.3723266e-06
1.2688145e-06
1.1705851e-06
1.0873469e-06
1.0304315e-06
1.0157008e-06
1.0209189e-06
1.0350224e-06
1.0776916e-06
1.0881066e-06
1.0996939e-06
1.1004004e-06
1.0899272e-06
1.0707198e-06
1.0357459e-06
1.0064328e-06
9.8801594e-07
9.880506e-07
1.004044e-06
1.0396995e-06
1.0968281e-06
1.2129846e-06
1.4037904e-06
1.6203771e-06
2.0325153e-06
2.4126832e-06
3.1088359e-06
3.78001e-06
5.1531294e-06
6.1967683e-06
7.9952256e-06
9.6566156e-06
1.2307699e-05
1.5999889e-05
2.1504656e-05
2.8865582e-05
4.4972663e-05
6.0961579e-05
8.6412101e-05
0.00011205583
0.00015236959
0.00019481409
0.00025133542
0.00031072962
0.00039920574
0.00047955635
4.5344441e-06
3.7122872e-06
3.0029223e-06
2.4523986e-06
2.0519891e-06
1.7926108e-06
1.6410401e-06
1.540308e-06
1.4629673e-06
1.3708298e-06
1.2781638e-06
1.1639787e-06
1.0839079e-06
1.0391611e-06
1.0174689e-06
1.020761e-06
1.0346929e-06
1.0641207e-06
1.082985e-06
1.1038986e-06
1.1080205e-06
1.0985318e-06
1.0811158e-06
1.0408103e-06
1.0061213e-06
1.0015155e-06
1.0085711e-06
1.0313073e-06
1.0613014e-06
1.093696e-06
1.1608968e-06
1.3484384e-06
1.5811357e-06
2.0017785e-06
2.3707107e-06
3.0703951e-06
3.7030727e-06
5.0035537e-06
6.023264e-06
7.7205031e-06
9.3707941e-06
1.2179149e-05
1.6283099e-05
2.1386295e-05
2.9851792e-05
4.6647993e-05
6.3280377e-05
8.6978054e-05
0.00012085708
0.00016540739
0.00021273266
0.00027733706
0.00036022014
0.00047526404
0.00056188542
4.5367009e-06
3.7171448e-06
3.0083462e-06
2.4642034e-06
2.0598674e-06
1.7987846e-06
1.6432116e-06
1.5409697e-06
1.4631049e-06
1.372374e-06
1.283638e-06
1.159346e-06
1.0853906e-06
1.0432872e-06
1.0138121e-06
1.0152607e-06
1.0271158e-06
1.0528154e-06
1.0807206e-06
1.0844107e-06
1.0800987e-06
1.0729893e-06
1.0637631e-06
1.0348746e-06
1.0066744e-06
1.0054304e-06
1.0125732e-06
1.0389256e-06
1.068758e-06
1.0930587e-06
1.1457553e-06
1.3190122e-06
1.5524348e-06
1.9463249e-06
2.2993633e-06
2.9945276e-06
3.6312368e-06
4.7917876e-06
5.7385935e-06
7.104453e-06
8.8523088e-06
1.173418e-05
1.6175748e-05
2.1508754e-05
3.1446616e-05
4.7350325e-05
6.4480044e-05
8.7878815e-05
0.00012332573
0.00016763365
0.00021712965
0.00028824671
0.00038148462
0.00049284637
0.00057366269
4.5383584e-06
3.7243886e-06
3.0105637e-06
2.4732094e-06
2.070379e-06
1.8113637e-06
1.6458058e-06
1.5415821e-06
1.4758739e-06
1.3894195e-06
1.2938279e-06
1.1730086e-06
1.0960418e-06
1.0433309e-06
1.0107393e-06
1.0123179e-06
1.0227283e-06
1.0567026e-06
1.0835923e-06
1.085211e-06
1.0760324e-06
1.065517e-06
1.0517682e-06
1.0247834e-06
1.0023542e-06
9.9814941e-07
1.000727e-06
1.019992e-06
1.055147e-06
1.0852274e-06
1.1424461e-06
1.3197469e-06
1.5356592e-06
1.8771943e-06
2.2413508e-06
2.8605786e-06
3.4363715e-06
4.4204966e-06
5.4283109e-06
6.4116876e-06
8.1696425e-06
1.1071924e-05
1.5863695e-05
2.1381434e-05
3.1564667e-05
4.6704843e-05
6.4079356e-05
8.6818573e-05
0.00012133472
0.00016269459
0.0002122299
0.00028578189
0.00037746162
0.00047039831
0.00054087828
4.5393407e-06
3.7305678e-06
3.0145627e-06
2.4767635e-06
2.0777038e-06
1.814967e-06
1.6521152e-06
1.5454948e-06
1.4843742e-06
1.4041115e-06
1.2998905e-06
1.1960253e-06
1.1061663e-06
1.0459223e-06
1.0162579e-06
1.0175043e-06
1.0249354e-06
1.0602073e-06
1.0837439e-06
1.0991341e-06
1.1005958e-06
1.0866875e-06
1.055215e-06
1.0230046e-06
9.9267667e-07
9.8563688e-07
9.8978864e-07
1.0075598e-06
1.0434106e-06
1.0769388e-06
1.1385298e-06
1.3209153e-06
1.5156502e-06
1.7816846e-06
2.2157307e-06
2.7127645e-06
3.2738696e-06
4.0562177e-06
5.2005257e-06
6.1072406e-06
7.7709813e-06
1.0110386e-05
1.515951e-05
2.0719272e-05
3.0821245e-05
4.4135878e-05
6.1696718e-05
8.3178949e-05
0.00011554976
0.0001502504
0.00019506381
0.00026251574
0.00034561206
0.00041982157
0.00047907256
4.5399443e-06
3.7349754e-06
3.0236247e-06
2.478505e-06
2.0802315e-06
1.810549e-06
1.6540398e-06
1.5482748e-06
1.480731e-06
1.4055323e-06
1.3005586e-06
1.1992281e-06
1.1092287e-06
1.0473757e-06
1.0209044e-06
1.0218342e-06
1.0258694e-06
1.0510106e-06
1.0743644e-06
1.0970696e-06
1.1061897e-06
1.0976538e-06
1.064395e-06
1.0271633e-06
9.9032194e-07
9.8301907e-07
9.9054536e-07
1.0125291e-06
1.0486729e-06
1.0763865e-06
1.1263714e-06
1.2943586e-06
1.4858397e-06
1.7115921e-06
2.1724311e-06
2.5788288e-06
3.1899706e-06
3.8285427e-06
5.0120489e-06
5.9142281e-06
7.5308481e-06
9.5605869e-06
1.4298018e-05
1.9542928e-05
2.8714216e-05
4.0070191e-05
5.6000787e-05
7.4904104e-05
0.00010316064
0.00013086557
0.00016599552
0.00022101915
0.00029523606
0.0003621279
0.00041696286
4.5401537e-06
3.7387472e-06
3.034626e-06
2.4830458e-06
2.0812194e-06
1.8088484e-06
1.6508828e-06
1.5482753e-06
1.4741756e-06
1.39399e-06
1.2981609e-06
1.1881157e-06
1.097853e-06
1.0441998e-06
1.0187624e-06
1.0188891e-06
1.0219429e-06
1.0366373e-06
1.0657997e-06
1.0825543e-06
1.0886528e-06
1.0866841e-06
1.0665503e-06
1.0305993e-06
9.9407694e-07
9.8591841e-07
9.9358277e-07
1.0159061e-06
1.0530287e-06
1.0802741e-06
1.125399e-06
1.2728808e-06
1.4484713e-06
1.6548499e-06
2.1107125e-06
2.4263218e-06
3.0483882e-06
3.6434174e-06
4.8188575e-06
5.753567e-06
7.3671735e-06
9.1988488e-06
1.3558836e-05
1.8179569e-05
2.5670396e-05
3.4246509e-05
4.7737704e-05
6.1386966e-05
8.2401221e-05
0.00010671946
0.0001348893
0.00017720462
0.00024061558
0.00030405224
0.00035839892
4.5409046e-06
3.7447278e-06
3.0446805e-06
2.4911217e-06
2.0847836e-06
1.8151314e-06
1.6490994e-06
1.550224e-06
1.4756108e-06
1.3901504e-06
1.3037772e-06
1.1855366e-06
1.0869199e-06
1.0436898e-06
1.0178264e-06
1.0144178e-06
1.0185165e-06
1.0348248e-06
1.06879e-06
1.0806717e-06
1.0798054e-06
1.0782466e-06
1.0634869e-06
1.0355724e-06
1.0094927e-06
9.9400278e-07
9.9685982e-07
1.0110049e-06
1.0414923e-06
1.0757401e-06
1.1251893e-06
1.2567118e-06
1.4222672e-06
1.603152e-06
2.0000708e-06
2.2759909e-06
2.8384239e-06
3.3727572e-06
4.4951846e-06
5.4281669e-06
7.1117059e-06
8.8076877e-06
1.268269e-05
1.6550745e-05
2.3342057e-05
2.9935e-05
4.1382947e-05
5.1429475e-05
6.482959e-05
8.4309889e-05
0.00011026276
0.00014270525
0.00018972735
0.00024592211
0.00029771371
4.5415029e-06
3.7505819e-06
3.0511219e-06
2.4995344e-06
2.091728e-06
1.8259518e-06
1.6543444e-06
1.5582227e-06
1.4882353e-06
1.4052704e-06
1.3264428e-06
1.2020806e-06
1.0897472e-06
1.049694e-06
1.027309e-06
1.0195181e-06
1.0221741e-06
1.0482544e-06
1.0856246e-06
1.0950917e-06
1.0913228e-06
1.0820372e-06
1.0640248e-06
1.0374449e-06
1.0146425e-06
9.9310892e-07
9.9057947e-07
9.984624e-07
1.0136894e-06
1.0421217e-06
1.1034235e-06
1.2062592e-06
1.3663379e-06
1.5002235e-06
1.78764e-06
2.0182076e-06
2.4970251e-06
2.9336654e-06
3.8913018e-06
4.7557822e-06
6.4985395e-06
8.041639e-06
1.1298996e-05
1.4732602e-05
1.9143736e-05
2.5656201e-05
3.4761592e-05
4.410429e-05
5.3914276e-05
6.724621e-05
8.5606246e-05
0.00011168565
0.00014375333
0.00018786309
0.00023473712
4.5429122e-06
3.7575096e-06
3.0561574e-06
2.5066726e-06
2.0997546e-06
1.8316553e-06
1.6643193e-06
1.5657523e-06
1.4983069e-06
1.4288241e-06
1.3455653e-06
1.2240596e-06
1.105352e-06
1.0618861e-06
1.0384085e-06
1.0281345e-06
1.0264434e-06
1.0554431e-06
1.0934937e-06
1.1011005e-06
1.0977227e-06
1.0773712e-06
1.0526446e-06
1.030019e-06
1.0114922e-06
9.8794317e-07
9.7932802e-07
9.8217167e-07
9.8853583e-07
1.0088325e-06
1.0613479e-06
1.1604213e-06
1.2809404e-06
1.3697905e-06
1.5448225e-06
1.7182845e-06
2.0926539e-06
2.4190412e-06
3.1374061e-06
3.8235798e-06
5.2540109e-06
6.8213732e-06
9.0073559e-06
1.2504105e-05
1.54907e-05
2.0870085e-05
2.921809e-05
3.8791783e-05
4.6789928e-05
5.7792809e-05
6.9801754e-05
8.8337906e-05
0.00010759944
0.00013466491
0.00017442926
4.5431372e-06
3.7578897e-06
3.0576375e-06
2.5086778e-06
2.1037223e-06
1.8299875e-06
1.6672138e-06
1.5655187e-06
1.4971252e-06
1.4354396e-06
1.3461579e-06
1.229262e-06
1.1136986e-06
1.0687686e-06
1.0397268e-06
1.0300522e-06
1.0254601e-06
1.0484603e-06
1.0859792e-06
1.0894369e-06
1.0865432e-06
1.0689179e-06
1.0492471e-06
1.0325773e-06
1.0197131e-06
1.0040011e-06
9.9442993e-07
9.9501443e-07
1.0007227e-06
1.0197847e-06
1.0702436e-06
1.1666732e-06
1.2708972e-06
1.3420212e-06
1.471793e-06
1.6187573e-06
1.9411636e-06
2.2303118e-06
2.8579981e-06
3.4787901e-06
4.5077073e-06
6.1789777e-06
7.781574e-06
1.0696803e-05
1.379359e-05
1.7056333e-05
2.351892e-05
3.2186883e-05
3.9766452e-05
4.8262995e-05
5.8500387e-05
7.1052863e-05
8.5699545e-05
9.873812e-05
0.00012519323
4.5449693e-06
3.7593498e-06
3.0586293e-06
2.5074736e-06
2.1028117e-06
1.8210486e-06
1.6573846e-06
1.5520999e-06
1.4764679e-06
1.4197717e-06
1.3295112e-06
1.2215872e-06
1.1208578e-06
1.0724014e-06
1.0462462e-06
1.0452407e-06
1.0453815e-06
1.0686586e-06
1.1132346e-06
1.127433e-06
1.131124e-06
1.134398e-06
1.1376124e-06
1.1394598e-06
1.1483333e-06
1.1551512e-06
1.1695089e-06
1.1854846e-06
1.2093456e-06
1.2423439e-06
1.3089725e-06
1.436963e-06
1.5471863e-06
1.6330342e-06
1.7735381e-06
1.9496305e-06
2.2494922e-06
2.5029341e-06
3.0349262e-06
3.6562887e-06
4.4312787e-06
6.0612809e-06
7.4690232e-06
9.8808124e-06
1.3075664e-05
1.5639402e-05
2.0569156e-05
2.6110499e-05
3.2794502e-05
3.8842298e-05
4.7468254e-05
5.4632036e-05
6.6835514e-05
7.4450861e-05
9.0635465e-05
4.5431443e-06
3.7489658e-06
3.0469936e-06
2.4969711e-06
2.0933786e-06
1.8090954e-06
1.639823e-06
1.5352307e-06
1.4622535e-06
1.4142474e-06
1.3429535e-06
1.2633022e-06
1.1922497e-06
1.1597267e-06
1.1607196e-06
1.1784146e-06
1.2022662e-06
1.2693071e-06
1.3530332e-06
1.3968046e-06
1.4353259e-06
1.4826823e-06
1.5511758e-06
1.6129917e-06
1.6797769e-06
1.7273477e-06
1.8165072e-06
1.9146928e-06
2.0226895e-06
2.098574e-06
2.2102197e-06
2.4675426e-06
2.6439658e-06
2.8474977e-06
3.0775615e-06
3.4582697e-06
3.8899671e-06
4.2067122e-06
4.8004868e-06
5.4069335e-06
5.9575936e-06
7.2761351e-06
8.5551966e-06
1.043004e-05
1.3492299e-05
1.569846e-05
1.9789631e-05
2.3371159e-05
2.9159139e-05
3.3679138e-05
3.9957434e-05
4.4445169e-05
5.2451753e-05
5.7530524e-05
6.7685592e-05
4.5401458e-06
3.7260652e-06
3.0236161e-06
2.4948023e-06
2.1103901e-06
1.8459493e-06
1.6882293e-06
1.6052767e-06
1.5679928e-06
1.5615621e-06
1.5765845e-06
1.5844259e-06
1.6114895e-06
1.655442e-06
1.7140296e-06
1.823723e-06
1.9008762e-06
2.0908419e-06
2.2773072e-06
2.3842156e-06
2.5054269e-06
2.6840233e-06
2.9288737e-06
3.1127245e-06
3.3161424e-06
3.4659051e-06
3.7698669e-06
4.0889283e-06
4.4423398e-06
4.6233517e-06
4.8329032e-06
5.4282992e-06
5.8240442e-06
6.3408467e-06
6.9141169e-06
7.9108527e-06
8.889772e-06
9.597383e-06
1.0760817e-05
1.1817002e-05
1.2438142e-05
1.3461505e-05
1.4522234e-05
1.5591267e-05
1.7905968e-05
1.9457906e-05
2.2304783e-05
2.4595402e-05
2.9273411e-05
3.2858049e-05
3.7599203e-05
4.0658044e-05
4.6302946e-05
5.0465892e-05
5.580309e-05
4.5277225e-06
3.7079968e-06
3.1259368e-06
2.7358171e-06
2.4715362e-06
2.3110797e-06
2.2703111e-06
2.2861319e-06
2.3709195e-06
2.5356041e-06
2.803216e-06
3.0700054e-06
3.3725665e-06
3.6512614e-06
3.8683944e-06
4.1364145e-06
4.3056202e-06
4.7156463e-06
5.111219e-06
5.3126731e-06
5.645235e-06
6.1202629e-06
6.7336692e-06
7.1688655e-06
7.6635486e-06
8.048425e-06
8.7521758e-06
9.5298397e-06
1.0328489e-05
1.0839814e-05
1.1284034e-05
1.2425699e-05
1.3435893e-05
1.4599953e-05
1.5978559e-05
1.8272167e-05
2.0417359e-05
2.1950487e-05
2.4332881e-05
2.6483035e-05
2.8222883e-05
3.0046466e-05
3.1458093e-05
3.2104152e-05
3.2932077e-05
3.3434407e-05
3.4141895e-05
3.4691645e-05
3.6217582e-05
3.8009187e-05
4.1070362e-05
4.2387193e-05
4.5304853e-05
4.7963395e-05
5.0980626e-05
4.5552894e-06
4.5145833e-06
4.7143025e-06
4.9634852e-06
5.2010676e-06
5.4459852e-06
5.715079e-06
6.0017674e-06
6.3935497e-06
6.9131172e-06
7.6178801e-06
8.1793982e-06
8.9884494e-06
9.6275281e-06
1.0030903e-05
1.0305988e-05
1.0610478e-05
1.1178424e-05
1.1723447e-05
1.2018375e-05
1.2702658e-05
1.3603158e-05
1.4681708e-05
1.5400175e-05
1.6152611e-05
1.6988144e-05
1.8015362e-05
1.9267952e-05
2.0405254e-05
2.1380324e-05
2.2144177e-05
2.3621229e-05
2.491325e-05
2.592615e-05
2.714055e-05
2.8695436e-05
3.0308534e-05
3.1686226e-05
3.3338551e-05
3.473609e-05
3.6880785e-05
3.9350851e-05
4.1315006e-05
4.2001037e-05
4.1881615e-05
4.165186e-05
4.1476897e-05
4.1663101e-05
4.2089574e-05
4.2751121e-05
4.3682589e-05
4.3603622e-05
4.3963041e-05
4.4134656e-05
4.4445829e-05
6.4197277e-06
1.2770956e-05
1.5987312e-05
1.6751715e-05
1.7811638e-05
1.8277144e-05
1.8477967e-05
1.8605428e-05
1.8510321e-05
1.8570897e-05
1.8773422e-05
1.8867179e-05
1.9152428e-05
1.9531549e-05
1.9554721e-05
1.9135252e-05
1.8986174e-05
1.8906438e-05
1.8741336e-05
1.8731071e-05
1.8908881e-05
1.9538304e-05
2.0713002e-05
2.1490522e-05
2.2046605e-05
2.2881318e-05
2.3867043e-05
2.5115296e-05
2.6011276e-05
2.6773221e-05
2.7655363e-05
2.8615594e-05
2.9285136e-05
2.9807263e-05
3.0546435e-05
3.1173717e-05
3.1817009e-05
3.2840848e-05
3.3593519e-05
3.4408162e-05
3.5742866e-05
3.7260408e-05
3.9047263e-05
4.0281426e-05
4.0640426e-05
4.0425378e-05
4.0173232e-05
4.0309931e-05
4.1023374e-05
4.1857309e-05
4.2321512e-05
4.2484785e-05
4.2478901e-05
4.1916042e-05
4.1023928e-05
4.4807044e-05
6.8777465e-05
5.3947198e-05
4.2119026e-05
3.6042893e-05
3.1813045e-05
2.8361425e-05
2.5291367e-05
2.3487079e-05
2.2962929e-05
2.3617815e-05
2.4069162e-05
2.3817028e-05
2.3172292e-05
2.2901842e-05
2.4064477e-05
2.6128841e-05
2.8629958e-05
3.1426741e-05
3.3897961e-05
3.4938236e-05
3.6825805e-05
4.0215331e-05
4.3403304e-05
4.363785e-05
4.2318466e-05
4.1144263e-05
4.0932935e-05
4.0665322e-05
3.9391356e-05
3.7818513e-05
3.7035102e-05
3.732909e-05
3.8219432e-05
3.8783955e-05
3.9020419e-05
3.9413982e-05
3.9253708e-05
3.8351471e-05
3.6958912e-05
3.5832648e-05
3.6655669e-05
3.9512766e-05
4.3559447e-05
4.6756434e-05
4.8605349e-05
4.9543145e-05
5.059941e-05
5.1944084e-05
5.3565401e-05
5.5455092e-05
5.6547711e-05
5.6796652e-05
5.5888851e-05
5.4376451e-05
5.3135771e-05
4.0039843e-05
4.4335131e-05
5.4372535e-05
6.2607717e-05
7.7036643e-05
0.00010342395
0.00014387901
0.0001995639
0.00026716208
0.00033758902
0.00040274817
0.00046647057
0.00053785024
0.00061723741
0.00067438146
0.00067577213
0.00061811278
0.00053177959
0.0005620109
0.00071943345
0.00081816984
0.00072696704
0.00052813057
0.00050818321
0.00065133864
0.00071600648
5.2511825e-05
4.0032153e-05
4.5210418e-05
5.8118349e-05
6.9202473e-05
8.4565741e-05
0.00011308382
0.00015699756
0.00022177976
0.00030715803
0.00038582851
0.00045168643
0.00052032087
0.00060117985
0.00069312876
0.00077955439
0.00081379285
0.00079729593
0.00071242916
0.00071607449
0.00082845578
0.00095238607
0.00090673772
0.00064618539
0.0005453381
0.00067354476
0.00079460347
5.239005e-05
4.0429716e-05
4.7410694e-05
6.2268939e-05
7.4245596e-05
9.105639e-05
0.0001220863
0.00017521057
0.00026544324
0.00037141427
0.00044961495
0.0005111149
0.00058237767
0.00067328245
0.0007824041
0.00089923711
0.00097139975
0.00097782624
0.00091169689
0.00089525889
0.00098897776
0.001160424
0.0011446774
0.00083339158
0.00063381264
0.0007287264
0.00088788271
5.3267982e-05
4.0149063e-05
4.8661054e-05
6.5471005e-05
7.8457371e-05
9.8230784e-05
0.00013573847
0.00021027884
0.00032796657
0.00043297927
0.00049875287
0.00055203728
0.00062636374
0.00073176894
0.00086717565
0.0010212092
0.0011340659
0.0011610099
0.0011067379
0.00107827
0.0011541872
0.0013602648
0.0013939106
0.0010824223
0.00077574857
0.00087290601
0.001033857
5.5479192e-05
3.8686493e-05
4.8174525e-05
6.7337184e-05
8.3510025e-05
0.00010601892
0.00015466717
0.00025516196
0.00038254439
0.00047500782
0.00052881826
0.00058033739
0.00066230264
0.00078206781
0.00093891317
0.0011221762
0.0012754233
0.0013269255
0.0012945477
0.0012681029
0.0013290258
0.0015497998
0.0016628122
0.0013945713
0.00096921901
0.0010539461
0.0012356206
5.8452597e-05
3.6840185e-05
4.6958685e-05
6.9085909e-05
8.8163479e-05
0.00011711527
0.00018152862
0.00029897405
0.00041832472
0.00049787139
0.00054764149
0.0006070085
0.00070239575
0.00083669402
0.0010094695
0.0012077171
0.0013949098
0.0014896104
0.0014892991
0.0014753035
0.0015186809
0.0017413983
0.0019322667
0.0017648377
0.0012312213
0.0012382616
0.0014630602
5.9987726e-05
3.5420054e-05
4.56812e-05
7.0459804e-05
9.1805312e-05
0.00012790084
0.00020406022
0.00031970613
0.00042830167
0.00050511086
0.00056123271
0.00063681777
0.00075349081
0.00090891286
0.001101296
0.0013157026
0.0015340277
0.0016743895
0.0016986586
0.0016920112
0.0017399829
0.0019564895
0.0022125753
0.0021345794
0.0015631521
0.0014133454
0.0016551864
5.7791398e-05
3.3923976e-05
4.3796839e-05
6.9235851e-05
9.2462917e-05
0.00013007095
0.00020590671
0.000314458
0.00042261296
0.00051005639
0.00058257779
0.00067616143
0.00081431383
0.00099573509
0.0012114771
0.001457286
0.0017083561
0.0018752704
0.0019221093
0.0019309084
0.0019923515
0.0022147553
0.0025256651
0.0024697968
0.0018851787
0.0015858563
0.0017917651
5.2453187e-05
3.2295224e-05
4.1211777e-05
6.6107736e-05
8.9828307e-05
0.00012720078
0.00019873017
0.00030130692
0.00041659826
0.00052707698
0.00062172054
0.00072930577
0.00088378326
0.001082123
0.001316481
0.0015950958
0.0018677355
0.0020511788
0.002138906
0.0021911863
0.0022817805
0.0025201423
0.0028662076
0.0028049691
0.0021882172
0.0017470968
0.0018902118
4.8427544e-05
3.077083e-05
3.8616733e-05
6.2626308e-05
8.7570977e-05
0.00012460407
0.0001921641
0.00029215808
0.00042533987
0.00055865078
0.00066405071
0.0007822502
0.00095084292
0.0011583884
0.0013990923
0.0016842694
0.0019667434
0.002187977
0.0023263081
0.0024551839
0.00261342
0.0028764828
0.0032247233
0.0031965168
0.0025550432
0.0019305885
0.0019787305
4.7794397e-05
2.9750486e-05
3.6972929e-05
6.0709237e-05
8.7243106e-05
0.0001249258
0.00019204003
0.00029664139
0.00044576269
0.00058075626
0.00068392766
0.00081713347
0.0010017507
0.0012152368
0.0014533059
0.0017292021
0.0020177666
0.0022855516
0.0024994058
0.0027194274
0.0029594221
0.0032416817
0.0035962979
0.0036922118
0.0030766416
0.0022249068
0.0021284447
4.6345281e-05
2.8652124e-05
3.5735413e-05
5.9363783e-05
8.7733975e-05
0.00012742402
0.00019350606
0.0003002547
0.00044800093
0.00057172748
0.00068144246
0.00084032845
0.001041815
0.0012591453
0.0014957471
0.0017616892
0.0020612501
0.0023846908
0.0026981503
0.003009939
0.0032969751
0.0035662322
0.0039263155
0.0041934866
0.0036811246
0.0026702212
0.0023744372
4.6010655e-05
2.8584751e-05
3.5088345e-05
5.7643e-05
8.8807309e-05
0.00012942899
0.00018935893
0.00028720269
0.00041676891
0.00053986654
0.00068184715
0.00087967542
0.0011008795
0.0013235935
0.0015572042
0.0018157101
0.0021313859
0.0025190047
0.0029293053
0.0032974481
0.003583414
0.003814182
0.0041692535
0.0045702376
0.0042328335
0.0032322395
0.0027574316
5.4658882e-05
2.9283356e-05
3.5070047e-05
5.5657786e-05
8.7978474e-05
0.00012416387
0.00016781216
0.00024803534
0.00037279332
0.00052149426
0.00072123972
0.00096934674
0.0012171251
0.001446861
0.0016789433
0.0019452938
0.0022888326
0.0027332798
0.0031952675
0.0035728203
0.0038157194
0.0039915076
0.0043118943
0.0047847356
0.0046504211
0.0038278109
0.0032168991
7.459636e-05
2.9926234e-05
3.3343419e-05
4.924287e-05
7.877752e-05
0.00010514672
0.0001402785
0.00021636288
0.00035559427
0.00056386158
0.00084503406
0.001144494
0.0014191803
0.0016604959
0.0019000635
0.0021905853
0.0025712111
0.0030473712
0.0034939678
0.0038298972
0.0040117608
0.0041244482
0.0043902012
0.0049097046
0.0049692031
0.0044366729
0.0036745565
0.00010145487
3.026257e-05
3.1080929e-05
4.0205594e-05
6.1428277e-05
8.6430478e-05
0.00012662517
0.00021275423
0.0004049286
0.00070578501
0.0010589903
0.0013975773
0.0016950742
0.0019598332
0.0022314682
0.0025711454
0.0029911185
0.0034496515
0.0038319299
0.0040920295
0.0042155688
0.0042789733
0.0045047343
0.0050201297
0.0052696909
0.0049872887
0.0041207781
0.00012470512
3.4439713e-05
3.0380602e-05
3.5592083e-05
5.0936218e-05
7.8419792e-05
0.00013834626
0.00028055841
0.00058082598
0.00096399561
0.001360355
0.0017300893
0.0020600236
0.0023672767
0.0027013886
0.0031022281
0.0035404728
0.0039417866
0.0042201418
0.0043699409
0.0044400648
0.0045033643
0.0047146658
0.0052145394
0.0055700628
0.0053921956
0.0044929301
0.00014557256
4.2357972e-05
3.1970456e-05
3.5841834e-05
5.2733024e-05
9.9661382e-05
0.00021704761
0.00050935505
0.00090278157
0.0013225418
0.0017374954
0.0021316572
0.0024957256
0.0028610392
0.0032649524
0.0037131478
0.0041382197
0.0044621064
0.0046167153
0.0046694049
0.0047103941
0.0048011989
0.0050517582
0.0055244242
0.0058594252
0.0056389218
0.0047560207
0.00015540393
4.9856288e-05
3.6974709e-05
4.6092913e-05
8.9064876e-05
0.00020777212
0.00050786391
0.0008992192
0.0013185163
0.001741057
0.0021573836
0.0025600679
0.0029542371
0.0033645994
0.0038095893
0.0042627781
0.0046721865
0.0049238944
0.0050097616
0.0050207862
0.0050663101
0.0051841963
0.0054884275
0.0059147286
0.006146436
0.0058629991
0.0049523848
0.00015598573
5.6781467e-05
5.3635941e-05
9.2796485e-05
0.00023038388
0.00054453557
0.00091864361
0.001318886
0.0017296329
0.002143254
0.0025545112
0.0029593162
0.0033627772
0.0037792772
0.0042241187
0.004671938
0.0050522267
0.0052836975
0.0053775013
0.0054185275
0.0054808203
0.0056142298
0.0059223232
0.0062539003
0.0063491599
0.0060125656
0.0051087807
0.00015795959
7.2779335e-05
0.0001010607
0.00023553942
0.00054365566
0.00089341423
0.0012677841
0.0016601909
0.0020630399
0.0024697027
0.0028770613
0.0032738528
0.0036620326
0.004071474
0.0045026966
0.0049248843
0.0052795899
0.0055254694
0.0056819323
0.0057988266
0.0059016208
0.0060554957
0.0063027965
0.0064985068
0.00645672
0.0060304141
0.0051574738
0.00016631643
0.00011936011
0.00021284071
0.00047266172
0.00081173844
0.0011767982
0.0015635117
0.0019613461
0.0023539358
0.0027360549
0.0031120347
0.0034848545
0.0038644334
0.0042624178
0.00467437
0.0050672366
0.0054088323
0.0056708429
0.0058856404
0.0060838465
0.0062843554
0.0064669087
0.0066411537
0.0067082918
0.0065176269
0.0059792144
0.0051226326
0.00018811375
0.00019253786
0.00035544022
0.00067915584
0.0010554231
0.0014515951
0.0018458082
0.0022229939
0.0025762506
0.0029170732
0.0032564045
0.0036032774
0.0039741686
0.0043655074
0.0047619729
0.0051388122
0.005472292
0.0057496986
0.0060041978
0.0062832164
0.0065892285
0.006844554
0.007003907
0.0069840178
0.006647625
0.0059877009
0.00511509
0.00021687251
0.00028485832
0.0005449133
0.00093998237
0.001348339
0.0017405125
0.0020984788
0.0024240053
0.0027267164
0.0030241011
0.0033359749
0.0036700773
0.0040277666