/*--------------------------------*- C++ -*----------------------------------*\
| =========                 |                                                 |
| \\      /  F ield         | OpenFOAM: The Open Source CFD Toolbox           |
|  \\    /   O peration     | Version:  2406                                  |
|   \\  /    A nd           | Website:  www.openfoam.com                      |
|    \\/     M anipulation  |                                                 |
\*---------------------------------------------------------------------------*/
FoamFile
{
    version     2.0;
    format      ascii;
    arch        "LSB;label=32;scalar=64";
    class       volScalarField;
    location    "20";
    object      k;
}
// * * * * * * * * * * * * * * * * * * * * * * * * * * * * * * * * * * * * * //

dimensions      [0 2 -2 0 0 0 0];

internalField   nonuniform List<scalar> 
20580
(
3.1034589e-06
2.2742637e-06
1.8019092e-06
1.5145604e-06
1.3228599e-06
1.176018e-06
1.0588682e-06
9.5887961e-07
8.7832946e-07
8.1577692e-07
7.6739452e-07
7.2965982e-07
6.9731943e-07
6.6567457e-07
6.3487779e-07
6.0458894e-07
5.7619637e-07
5.5183973e-07
5.3453978e-07
5.2297922e-07
5.1428421e-07
5.1090841e-07
5.1111825e-07
5.1398224e-07
5.1923106e-07
5.2723256e-07
5.3740053e-07
5.4968243e-07
5.5971278e-07
5.7758021e-07
6.1218815e-07
3.1217519e-06
2.300601e-06
1.8159329e-06
1.5245313e-06
1.3353284e-06
1.1846172e-06
1.066744e-06
9.6468941e-07
8.8254235e-07
8.1952759e-07
7.7094347e-07
7.3299786e-07
7.0073105e-07
6.6860179e-07
6.376474e-07
6.0753901e-07
5.7925661e-07
5.5393046e-07
5.353109e-07
5.2306254e-07
5.1461155e-07
5.0996999e-07
5.0982514e-07
5.1144825e-07
5.1411673e-07
5.2193208e-07
5.296782e-07
5.4287457e-07
5.52461e-07
5.6249183e-07
5.9229804e-07
3.1260985e-06
2.3280292e-06
1.830336e-06
1.5344939e-06
1.344669e-06
1.195233e-06
1.0741581e-06
9.7117109e-07
8.8806331e-07
8.2427488e-07
7.7523648e-07
7.3620493e-07
7.0339008e-07
6.7135119e-07
6.4063958e-07
6.1090408e-07
5.8303905e-07
5.5767637e-07
5.3769664e-07
5.2444565e-07
5.1500096e-07
5.0973363e-07
5.0822605e-07
5.090873e-07
5.1096395e-07
5.1638193e-07
5.2267525e-07
5.3173574e-07
5.4459923e-07
5.5233123e-07
5.7958244e-07
3.1285079e-06
2.3356701e-06
1.8347934e-06
1.5376569e-06
1.3459195e-06
1.1992786e-06
1.078381e-06
9.7707311e-07
8.9438039e-07
8.296873e-07
7.7972677e-07
7.3918091e-07
7.0629047e-07
6.7537614e-07
6.442722e-07
6.1492983e-07
5.8705246e-07
5.6188384e-07
5.4062138e-07
5.271312e-07
5.1566426e-07
5.1009497e-07
5.0666294e-07
5.0622612e-07
5.0751373e-07
5.1082736e-07
5.1694235e-07
5.2216204e-07
5.341588e-07
5.4164474e-07
5.6315505e-07
3.1347206e-06
2.3444159e-06
1.8402748e-06
1.5440138e-06
1.3497367e-06
1.203052e-06
1.0838931e-06
9.842216e-07
9.0149735e-07
8.3588541e-07
7.8633644e-07
7.4594464e-07
7.1194433e-07
6.8110002e-07
6.4968269e-07
6.1944668e-07
5.9138104e-07
5.6548653e-07
5.4342871e-07
5.287709e-07
5.1679027e-07
5.0997128e-07
5.0717998e-07
5.0453646e-07
5.0519959e-07
5.071852e-07
5.1219445e-07
5.1595127e-07
5.2385374e-07
5.3053364e-07
5.4771158e-07
3.1433672e-06
2.3657274e-06
1.851491e-06
1.5591416e-06
1.3611306e-06
1.2113571e-06
1.0913133e-06
9.9002682e-07
9.0606544e-07
8.3990577e-07
7.9055173e-07
7.5133695e-07
7.1647795e-07
6.8622156e-07
6.5429671e-07
6.2501683e-07
5.9642993e-07
5.7048308e-07
5.4818286e-07
5.3221902e-07
5.1914666e-07
5.1068444e-07
5.0701598e-07
5.0414853e-07
5.0406901e-07
5.0473149e-07
5.0758992e-07
5.1126952e-07
5.1645358e-07
5.2154185e-07
5.3450569e-07
3.1407582e-06
2.3769536e-06
1.8584026e-06
1.5695e-06
1.3751437e-06
1.22693e-06
1.1023361e-06
9.9744579e-07
9.1246366e-07
8.4613885e-07
7.9444835e-07
7.5452708e-07
7.1941196e-07
6.8987809e-07
6.5930057e-07
6.3036101e-07
6.027288e-07
5.7691331e-07
5.5362763e-07
5.3731841e-07
5.2381348e-07
5.1307376e-07
5.0733251e-07
5.0368536e-07
5.0278051e-07
5.0308923e-07
5.0353159e-07
5.068181e-07
5.110172e-07
5.1527315e-07
5.262094e-07
3.1337487e-06
2.3657232e-06
1.8545868e-06
1.5638875e-06
1.3725194e-06
1.2263727e-06
1.106048e-06
1.0036434e-06
9.1988219e-07
8.5379345e-07
8.0073361e-07
7.5993077e-07
7.2487566e-07
6.9382819e-07
6.6436941e-07
6.3522227e-07
6.0777336e-07
5.8262012e-07
5.600033e-07
5.4147688e-07
5.2885675e-07
5.1814785e-07
5.0967419e-07
5.0438812e-07
5.0263503e-07
5.0318534e-07
5.0196055e-07
5.0333327e-07
5.0634958e-07
5.0990615e-07
5.1835206e-07
3.1296815e-06
2.3463433e-06
1.8466446e-06
1.5549845e-06
1.3633371e-06
1.2203092e-06
1.1051972e-06
1.0048945e-06
9.222542e-07
8.5712749e-07
8.053744e-07
7.6408188e-07
7.2966137e-07
6.9794244e-07
6.6850146e-07
6.3982223e-07
6.1248226e-07
5.8773538e-07
5.6593126e-07
5.4623487e-07
5.3246314e-07
5.2267471e-07
5.1433066e-07
5.0796714e-07
5.0444946e-07
5.0426179e-07
5.0319496e-07
5.0253241e-07
5.04615e-07
5.0753184e-07
5.1134014e-07
3.1356508e-06
2.3601458e-06
1.8523036e-06
1.5603518e-06
1.3679894e-06
1.2211412e-06
1.1052893e-06
1.0048401e-06
9.2264508e-07
8.5778088e-07
8.0644089e-07
7.6415197e-07
7.3064625e-07
6.9957326e-07
6.7112357e-07
6.4340301e-07
6.1695393e-07
5.9229267e-07
5.7104651e-07
5.510354e-07
5.3601037e-07
5.254648e-07
5.1768326e-07
5.1168938e-07
5.0749462e-07
5.0538833e-07
5.0520608e-07
5.0410462e-07
5.0529905e-07
5.0734865e-07
5.1005529e-07
3.1510806e-06
2.4163758e-06
1.8818269e-06
1.5800471e-06
1.3841675e-06
1.2304864e-06
1.1089639e-06
1.0073868e-06
9.2440705e-07
8.5885848e-07
8.0664613e-07
7.6454205e-07
7.3071394e-07
7.0071436e-07
6.7257162e-07
6.4573799e-07
6.2000169e-07
5.9513328e-07
5.7446592e-07
5.5495205e-07
5.3928239e-07
5.2756874e-07
5.1899058e-07
5.1413293e-07
5.1007279e-07
5.0625089e-07
5.0543543e-07
5.0557495e-07
5.0655681e-07
5.0725023e-07
5.0977714e-07
3.1446045e-06
2.4157365e-06
1.8973436e-06
1.5923427e-06
1.3907515e-06
1.2404055e-06
1.1194455e-06
1.0163754e-06
9.3056197e-07
8.6232672e-07
8.0887246e-07
7.6675589e-07
7.3268438e-07
7.0328891e-07
6.7548468e-07
6.4832713e-07
6.2269837e-07
5.9821884e-07
5.7597644e-07
5.5722151e-07
5.4158311e-07
5.2894496e-07
5.1920803e-07
5.1495938e-07
5.1144009e-07
5.0674926e-07
5.0488031e-07
5.0552529e-07
5.0644517e-07
5.0618658e-07
5.0830086e-07
3.1174538e-06
2.3541615e-06
1.8805069e-06
1.5859734e-06
1.3859781e-06
1.2414627e-06
1.1237011e-06
1.0218412e-06
9.368354e-07
8.6900172e-07
8.148249e-07
7.7235257e-07
7.3713396e-07
7.0770012e-07
6.7899386e-07
6.5299439e-07
6.2655508e-07
6.033753e-07
5.7958988e-07
5.6117304e-07
5.452442e-07
5.3205853e-07
5.2146927e-07
5.163912e-07
5.127635e-07
5.0793101e-07
5.0438539e-07
5.0451955e-07
5.0497822e-07
5.0437863e-07
5.0506872e-07
3.1243932e-06
2.3552475e-06
1.8720416e-06
1.5847309e-06
1.3864309e-06
1.24214e-06
1.1234267e-06
1.0229978e-06
9.3939168e-07
8.7168549e-07
8.1717904e-07
7.7434943e-07
7.3946893e-07
7.0936727e-07
6.8216958e-07
6.5562785e-07
6.3098239e-07
6.0690281e-07
5.8433661e-07
5.6442252e-07
5.4926324e-07
5.348833e-07
5.2451898e-07
5.18388e-07
5.1392439e-07
5.0954848e-07
5.051997e-07
5.0422596e-07
5.0419696e-07
5.0395762e-07
5.0395996e-07
3.1365735e-06
2.3949674e-06
1.8880975e-06
1.5992673e-06
1.3989953e-06
1.2499607e-06
1.128718e-06
1.0275939e-06
9.4309123e-07
8.7379697e-07
8.1899772e-07
7.7564847e-07
7.4077812e-07
7.109232e-07
6.8430866e-07
6.5802599e-07
6.3264516e-07
6.0984847e-07
5.8643486e-07
5.6753893e-07
5.5077568e-07
5.3733257e-07
5.2583931e-07
5.2050741e-07
5.1440061e-07
5.1128661e-07
5.0824611e-07
5.058433e-07
5.0510645e-07
5.0572029e-07
5.0572849e-07
3.1296855e-06
2.3900016e-06
1.897128e-06
1.6134265e-06
1.4078408e-06
1.2619818e-06
1.1444062e-06
1.0408333e-06
9.5372944e-07
8.8197768e-07
8.2549656e-07
7.8090025e-07
7.449183e-07
7.1529152e-07
6.8776727e-07
6.6246186e-07
6.363148e-07
6.1310673e-07
5.8993845e-07
5.710343e-07
5.5311754e-07
5.3901137e-07
5.2769697e-07
5.2053375e-07
5.1495541e-07
5.1134605e-07
5.0927167e-07
5.0750063e-07
5.0704781e-07
5.0772844e-07
5.0887989e-07
3.1276428e-06
2.3725021e-06
1.8892507e-06
1.6015128e-06
1.3993668e-06
1.2575857e-06
1.1433496e-06
1.0413405e-06
9.5710414e-07
8.8671371e-07
8.3049951e-07
7.8468954e-07
7.495819e-07
7.1894432e-07
6.9273301e-07
6.6641743e-07
6.4282409e-07
6.1751e-07
5.9584261e-07
5.7507686e-07
5.5741515e-07
5.4143882e-07
5.3090718e-07
5.2135841e-07
5.1596247e-07
5.1145196e-07
5.099191e-07
5.0811522e-07
5.0649979e-07
5.064604e-07
5.0787875e-07
3.1268384e-06
2.3730244e-06
1.8873897e-06
1.5955064e-06
1.399595e-06
1.254373e-06
1.1385079e-06
1.0392578e-06
9.555032e-07
8.8544178e-07
8.2940925e-07
7.8389164e-07
7.4895562e-07
7.1923954e-07
6.9365852e-07
6.6878985e-07
6.4485489e-07
6.196996e-07
5.9815562e-07
5.7871223e-07
5.6017574e-07
5.4382022e-07
5.3347191e-07
5.2340778e-07
5.1563608e-07
5.1113698e-07
5.0934361e-07
5.0749816e-07
5.0541874e-07
5.0479743e-07
5.0516634e-07
3.1412369e-06
2.4207731e-06
1.9127639e-06
1.6201692e-06
1.4207741e-06
1.2700335e-06
1.1504472e-06
1.0485213e-06
9.613943e-07
8.9032956e-07
8.3266052e-07
7.865552e-07
7.5142884e-07
7.2160201e-07
6.9513667e-07
6.7095015e-07
6.4693589e-07
6.2236288e-07
6.0058227e-07
5.8136774e-07
5.6227145e-07
5.4612198e-07
5.3468871e-07
5.2443011e-07
5.1583078e-07
5.1160066e-07
5.0990883e-07
5.0792859e-07
5.0541144e-07
5.0422346e-07
5.0431755e-07
3.13177e-06
2.4118707e-06
1.9217486e-06
1.6373433e-06
1.4345974e-06
1.2880106e-06
1.1716103e-06
1.070145e-06
9.8303498e-07
9.1296506e-07
8.5337256e-07
8.0815704e-07
7.7217383e-07
7.3948037e-07
7.1337905e-07
6.8929327e-07
6.6446839e-07
6.3971355e-07
6.1728379e-07
5.9700788e-07
5.7525182e-07
5.568258e-07
5.4442441e-07
5.3359617e-07
5.2257757e-07
5.1722913e-07
5.1626464e-07
5.1550319e-07
5.1393804e-07
5.1249149e-07
5.1014947e-07
3.1544049e-06
2.4908948e-06
2.0287714e-06
1.76302e-06
1.5678959e-06
1.4220363e-06
1.3382331e-06
1.2634388e-06
1.1976162e-06
1.144751e-06
1.0910342e-06
1.0694334e-06
1.0293364e-06
9.8300369e-07
9.5814748e-07
9.3094714e-07
9.0245498e-07
8.7489374e-07
8.4028667e-07
8.1739301e-07
7.8018308e-07
7.4694347e-07
7.2402123e-07
6.9041955e-07
6.6466134e-07
6.6080525e-07
6.6888698e-07
6.7315133e-07
6.691832e-07
6.598847e-07
6.2848918e-07
3.5875449e-06
4.3741573e-06
4.4049779e-06
4.4836675e-06
4.3746428e-06
3.993949e-06
4.2187108e-06
4.0595865e-06
4.0106535e-06
3.9451598e-06
3.6313476e-06
4.3176183e-06
4.0418395e-06
3.6424594e-06
4.0076901e-06
3.8386978e-06
3.6830643e-06
3.5379195e-06
3.30447e-06
3.4290432e-06
3.2278131e-06
3.2392219e-06
3.1572267e-06
3.0670042e-06
2.8625239e-06
2.9268217e-06
3.1390382e-06
3.2559398e-06
3.1912992e-06
3.0523372e-06
2.6570282e-06
1.4716636e-05
3.319719e-05
4.1730032e-05
3.6126001e-05
3.679196e-05
3.6002381e-05
3.3044887e-05
3.4962424e-05
3.3087465e-05
3.5047902e-05
3.3732537e-05
3.4127962e-05
3.6866873e-05
3.3845455e-05
3.3129685e-05
3.5727885e-05
3.2820707e-05
3.4402247e-05
3.2120272e-05
2.9991376e-05
3.1213092e-05
2.7710077e-05
2.8779438e-05
2.5291604e-05
2.5448541e-05
2.3270173e-05
2.3755618e-05
2.241901e-05
2.3342148e-05
2.1647258e-05
2.1909011e-05
2.040625e-05
2.7396188e-06
6.4623332e-07
5.1238005e-07
5.0604212e-07
5.0639959e-07
5.0924411e-07
5.0985311e-07
5.0712139e-07
5.0620712e-07
5.0726774e-07
5.0963909e-07
5.1166204e-07
5.1233937e-07
5.1368374e-07
5.1926773e-07
5.2990864e-07
5.4042923e-07
5.5213953e-07
5.6808616e-07
5.8500878e-07
6.0097163e-07
6.1392955e-07
1.9217392e-05
4.3937888e-06
8.5344726e-07
5.3352838e-07
5.0962344e-07
5.0851942e-07
5.1024208e-07
5.1358293e-07
5.1246625e-07
5.1111036e-07
5.1143027e-07
5.1225566e-07
5.1427952e-07
5.1557055e-07
5.1649265e-07
5.2010278e-07
5.3022348e-07
5.4190091e-07
5.5384657e-07
5.6893299e-07
5.8631023e-07
6.0839826e-07
6.199746e-07
2.111875e-05
5.2306819e-06
1.0888308e-06
5.7733832e-07
5.1479952e-07
5.0959594e-07
5.1096112e-07
5.1615044e-07
5.1808901e-07
5.1556518e-07
5.1250856e-07
5.1426521e-07
5.1942649e-07
5.2211968e-07
5.2251671e-07
5.2430288e-07
5.3319974e-07
5.4571076e-07
5.5715489e-07
5.6998413e-07
5.8630317e-07
6.1433021e-07
6.2909012e-07
1.9755966e-05
4.796799e-06
1.1711937e-06
5.959459e-07
5.218085e-07
5.1245771e-07
5.1344942e-07
5.1898459e-07
5.2029568e-07
5.1747197e-07
5.1518151e-07
5.1676965e-07
5.2237466e-07
5.2832545e-07
5.2899192e-07
5.3125855e-07
5.3849929e-07
5.5056915e-07
5.6009883e-07
5.7240788e-07
5.8792636e-07
6.1684427e-07
6.4144255e-07
1.6709624e-05
5.1467932e-06
1.3482743e-06
6.3849742e-07
5.3587066e-07
5.1913471e-07
5.2072176e-07
5.2379346e-07
5.2481532e-07
5.2188506e-07
5.1955749e-07
5.2233673e-07
5.2671069e-07
5.3278141e-07
5.3438346e-07
5.3620966e-07
5.4159757e-07
5.5406222e-07
5.6418766e-07
5.7794483e-07
5.9186122e-07
6.1978484e-07
6.5227489e-07
1.6378208e-05
6.3628938e-06
1.9527297e-06
7.9033831e-07
5.7514396e-07
5.314213e-07
5.3428507e-07
5.3444275e-07
5.3725647e-07
5.3535526e-07
5.2916823e-07
5.3103594e-07
5.3519547e-07
5.4095721e-07
5.4281923e-07
5.4193781e-07
5.4474317e-07
5.5529056e-07
5.6940073e-07
5.8734495e-07
5.983922e-07
6.1993677e-07
6.5565754e-07
2.0231275e-05
9.2401297e-06
2.765131e-06
1.0430407e-06
6.3888021e-07
5.5773725e-07
5.4491682e-07
5.4253757e-07
5.4550581e-07
5.4668589e-07
5.4188383e-07
5.4109719e-07
5.4223535e-07
5.4608352e-07
5.5179681e-07
5.5034544e-07
5.508643e-07
5.5749451e-07
5.734235e-07
5.9162268e-07
6.0496929e-07
6.1905535e-07
6.4980018e-07
2.6632781e-05
9.0475376e-06
2.6669026e-06
1.0367851e-06
6.4292539e-07
5.6169671e-07
5.4510067e-07
5.421078e-07
5.4469046e-07
5.4723121e-07
5.4424056e-07
5.4246469e-07
5.4379051e-07
5.4893706e-07
5.5641435e-07
5.5933318e-07
5.6016798e-07
5.6412816e-07
5.7655294e-07
5.9767604e-07
6.1203235e-07
6.2369011e-07
6.480405e-07
1.7177911e-05
6.4270384e-06
2.0599721e-06
9.0915887e-07
6.1800136e-07
5.5531482e-07
5.413679e-07
5.3972686e-07
5.426544e-07
5.4646139e-07
5.4402244e-07
5.4175573e-07
5.4298366e-07
5.4921886e-07
5.5710419e-07
5.6369606e-07
5.6914866e-07
5.7233421e-07
5.8057092e-07
6.0365858e-07
6.167921e-07
6.261016e-07
6.4749568e-07
9.6796621e-06
5.6770018e-06
1.8523487e-06
8.5481963e-07
6.0458022e-07
5.4913599e-07
5.4040287e-07
5.3991786e-07
5.4333361e-07
5.4739665e-07
5.4709486e-07
5.4503243e-07
5.454455e-07
5.5127754e-07
5.6113109e-07
5.6778589e-07
5.7232867e-07
5.7648065e-07
5.8455105e-07
6.0584766e-07
6.2877386e-07
6.3708017e-07
6.5212097e-07
7.4015177e-06
5.6925555e-06
1.8744465e-06
8.5622197e-07
6.052668e-07
5.4662927e-07
5.4201507e-07
5.4354113e-07
5.4833897e-07
5.5087693e-07
5.5191461e-07
5.5180597e-07
5.5382986e-07
5.58884e-07
5.7001369e-07
5.7465045e-07
5.7659993e-07
5.8134593e-07
5.8951569e-07
6.065029e-07
6.3118153e-07
6.4806061e-07
6.628467e-07
7.606228e-06
5.8420676e-06
1.9048556e-06
8.5826477e-07
6.0507841e-07
5.4360864e-07
5.4401396e-07
5.4517117e-07
5.5000515e-07
5.5182611e-07
5.5451796e-07
5.5829594e-07
5.6101535e-07
5.64853e-07
5.7501565e-07
5.8356159e-07
5.8484877e-07
5.8758792e-07
5.9543612e-07
6.1220666e-07
6.3703603e-07
6.5355789e-07
6.7291376e-07
8.5875361e-06
6.0047757e-06
1.9565844e-06
8.6751014e-07
6.0698674e-07
5.4222625e-07
5.4450304e-07
5.4543255e-07
5.5117422e-07
5.5312221e-07
5.5601996e-07
5.5992596e-07
5.6377399e-07
5.6800414e-07
5.7857471e-07
5.8950387e-07
5.9265904e-07
5.9400847e-07
6.0063905e-07
6.1810532e-07
6.4597475e-07
6.6313944e-07
6.7798279e-07
9.9438166e-06
5.992299e-06
2.0851554e-06
8.9907621e-07
6.1640608e-07
5.4548946e-07
5.4893538e-07
5.500582e-07
5.5924156e-07
5.5968647e-07
5.5974557e-07
5.6281084e-07
5.7062547e-07
5.7638236e-07
5.8520952e-07
5.9457073e-07
6.0285768e-07
6.0889612e-07
6.1436545e-07
6.2843624e-07
6.5513149e-07
6.7548925e-07
6.8558408e-07
1.128918e-05
5.8962504e-06
2.3572554e-06
9.9143221e-07
6.4483116e-07
5.5563771e-07
5.6159377e-07
5.645867e-07
5.760861e-07
5.7352287e-07
5.6873038e-07
5.6967166e-07
5.8019736e-07
5.9253879e-07
5.9932245e-07
6.0059694e-07
6.0632414e-07
6.1859431e-07
6.2645183e-07
6.3762024e-07
6.6337901e-07
6.8528191e-07
6.9524407e-07
1.2342798e-05
5.6037505e-06
2.4817878e-06
1.1218124e-06
6.9662309e-07
5.7836996e-07
5.7573739e-07
5.8015085e-07
5.9068845e-07
5.8594545e-07
5.774209e-07
5.7652531e-07
5.8826577e-07
6.0092684e-07
6.0530029e-07
6.0468816e-07
6.0986628e-07
6.2092305e-07
6.2938537e-07
6.4288266e-07
6.7357307e-07
6.9371554e-07
7.0036058e-07
1.293021e-05
4.8743142e-06
2.4838034e-06
1.1659069e-06
7.167243e-07
5.9025256e-07
5.8180976e-07
5.9000812e-07
5.9740883e-07
5.9025335e-07
5.8136627e-07
5.8158143e-07
5.9642346e-07
6.0824877e-07
6.1079715e-07
6.0986712e-07
6.1775164e-07
6.2702139e-07
6.3416027e-07
6.4747399e-07
6.8251275e-07
6.9999934e-07
7.0429514e-07
1.3145292e-05
4.3143712e-06
2.3604425e-06
1.1622273e-06
7.1824303e-07
5.9242658e-07
5.8255572e-07
5.9257661e-07
5.9717782e-07
5.8959664e-07
5.8185179e-07
5.8446939e-07
5.9928918e-07
6.1159317e-07
6.1547565e-07
6.1626949e-07
6.2234421e-07
6.3237651e-07
6.4227133e-07
6.6036818e-07
6.9192224e-07
7.0821274e-07
7.1210535e-07
1.2040512e-05
3.5214201e-06
2.0083488e-06
1.0794154e-06
6.9426722e-07
5.8892787e-07
5.8134781e-07
5.9232172e-07
5.9599743e-07
5.8939212e-07
5.8257217e-07
5.8535821e-07
6.030569e-07
6.181701e-07
6.2159453e-07
6.1979085e-07
6.2220741e-07
6.3608053e-07
6.5092461e-07
6.7021635e-07
7.0064725e-07
7.1434162e-07
7.2020979e-07
1.2975209e-05
3.2072e-06
1.6476767e-06
9.3726285e-07
6.5348084e-07
5.8258851e-07
5.8038793e-07
5.9132877e-07
5.9379165e-07
5.8955995e-07
5.8459918e-07
5.8711626e-07
6.0556063e-07
6.215588e-07
6.2566785e-07
6.2255937e-07
6.2260854e-07
6.3706264e-07
6.5660318e-07
6.8461604e-07
7.091144e-07
7.1622313e-07
7.2178356e-07
1.2587386e-05
3.0588205e-06
1.445789e-06
8.368523e-07
6.1916388e-07
5.7484689e-07
5.7875779e-07
5.8904014e-07
5.8974368e-07
5.8526583e-07
5.8190864e-07
5.8666953e-07
6.0706496e-07
6.2139529e-07
6.2629016e-07
6.2504853e-07
6.2684251e-07
6.4193915e-07
6.6293303e-07
6.9550425e-07
7.1402861e-07
7.1791037e-07
7.2283989e-07
1.2153776e-05
2.7363181e-06
1.2694917e-06
7.5614063e-07
5.9562135e-07
5.6967695e-07
5.7696164e-07
5.8607853e-07
5.8532598e-07
5.794448e-07
5.7799491e-07
5.8697213e-07
6.0843492e-07
6.2044652e-07
6.2456739e-07
6.2595225e-07
6.3276349e-07
6.4492175e-07
6.711443e-07
7.0703425e-07
7.1779417e-07
7.1993117e-07
7.317865e-07
1.393002e-05
2.7459032e-06
1.1423891e-06
7.0114471e-07
5.8540978e-07
5.7011509e-07
5.7978413e-07
5.865429e-07
5.8594125e-07
5.8228141e-07
5.8272648e-07
5.9557087e-07
6.1343044e-07
6.2119889e-07
6.2529111e-07
6.2791046e-07
6.357025e-07
6.5359194e-07
6.9563183e-07
7.1517e-07
7.1997874e-07
7.2284615e-07
7.4753518e-07
1.2735473e-05
2.7780994e-06
1.0799012e-06
6.6927222e-07
5.8248784e-07
5.7669824e-07
5.8990704e-07
5.9146888e-07
5.9206743e-07
5.9518847e-07
5.991386e-07
6.1235432e-07
6.2704374e-07
6.3221968e-07
6.3623627e-07
6.3851231e-07
6.4979529e-07
6.8288395e-07
7.1021713e-07
7.1994536e-07
7.2355546e-07
7.3451218e-07
7.8685182e-07
1.3174608e-05
2.5252315e-06
9.562703e-07
6.3557042e-07
5.8071784e-07
5.8008714e-07
5.931e-07
5.9327036e-07
5.9580303e-07
6.0122326e-07
6.0903724e-07
6.2732611e-07
6.3768157e-07
6.4348813e-07
6.47839e-07
6.5394497e-07
6.7698846e-07
7.1460222e-07
7.2974577e-07
7.3579817e-07
7.4585507e-07
7.8578034e-07
8.5062224e-07
1.5936644e-05
2.4545734e-06
8.7869631e-07
6.1329636e-07
5.7893125e-07
5.8095419e-07
5.9177572e-07
5.9301076e-07
5.965862e-07
6.027666e-07
6.1394116e-07
6.3326054e-07
6.4149205e-07
6.4664549e-07
6.5046661e-07
6.6251942e-07
7.0180758e-07
7.3115762e-07
7.4354219e-07
7.5416708e-07
7.7866834e-07
8.3510723e-07
9.1672206e-07
1.4394659e-05
2.4154765e-06
8.5047595e-07
6.0538223e-07
5.7854439e-07
5.8745265e-07
5.9434373e-07
5.9473374e-07
5.9824221e-07
6.0686907e-07
6.265771e-07
6.3726876e-07
6.4170311e-07
6.4544653e-07
6.5318929e-07
6.8033557e-07
7.1887878e-07
7.3736847e-07
7.5349573e-07
7.7490967e-07
8.2616377e-07
9.1943107e-07
9.820591e-07
1.5865681e-05
2.2254664e-06
7.9460843e-07
6.0610128e-07
5.8878037e-07
5.9938865e-07
6.0144775e-07
6.0092343e-07
6.0603643e-07
6.1840697e-07
6.3399853e-07
6.4033174e-07
6.4308514e-07
6.5020089e-07
6.746191e-07
7.0916872e-07
7.2641161e-07
7.4521238e-07
7.7072358e-07
8.2460881e-07
9.1078433e-07
9.741212e-07
1.023471e-06
1.8153435e-05
2.1985302e-06
7.591445e-07
6.1172541e-07
6.0587735e-07
6.182634e-07
6.1795061e-07
6.1619901e-07
6.2633015e-07
6.4328442e-07
6.491708e-07
6.5185271e-07
6.587088e-07
6.743343e-07
7.0203881e-07
7.2488597e-07
7.4112169e-07
7.6825092e-07
8.3218356e-07
9.0973582e-07
9.6190062e-07
1.0201157e-06
1.1050503e-06
1.674949e-05
2.1484595e-06
7.300601e-07
6.1904827e-07
6.2097283e-07
6.3193185e-07
6.3122817e-07
6.316904e-07
6.4715627e-07
6.6260166e-07
6.6585502e-07
6.6807393e-07
6.8486413e-07
7.1266546e-07
7.3570897e-07
7.5826048e-07
7.9732747e-07
8.4257432e-07
8.9351288e-07
9.5594755e-07
1.0276693e-06
1.1336193e-06
1.3361807e-06
1.9689131e-05
1.900546e-06
7.0148578e-07
6.2508097e-07
6.3099179e-07
6.4003055e-07
6.4313503e-07
6.5240549e-07
6.677908e-07
6.8037684e-07
6.9016668e-07
7.0625682e-07
7.284006e-07
7.5874502e-07
7.8496979e-07
8.0975458e-07
8.5012604e-07
8.9541971e-07
9.6108564e-07
1.0644109e-06
1.2393292e-06
1.6252309e-06
2.5998318e-06
2.1287376e-05
1.9063508e-06
6.8621914e-07
6.2690722e-07
6.3463013e-07
6.4461856e-07
6.5081752e-07
6.6533054e-07
6.8089015e-07
6.8879219e-07
6.989194e-07
7.1848627e-07
7.4499704e-07
7.8278507e-07
8.2051779e-07
8.4896295e-07
9.1243676e-07
1.0054665e-06
1.1738875e-06
1.5866656e-06
2.6727431e-06
5.5936169e-06
1.3361582e-05
2.0635541e-05
1.8324272e-06
6.7830258e-07
6.3280361e-07
6.374691e-07
6.4555389e-07
6.5855432e-07
6.7646487e-07
6.8841502e-07
6.984963e-07
7.1746391e-07
7.4796507e-07
7.8947689e-07
8.3065431e-07
8.6694463e-07
9.3688968e-07
1.0990806e-06
1.5048547e-06
2.6325836e-06
5.9094537e-06
1.5030649e-05
3.9058366e-05
9.8583359e-05
2.2489337e-05
1.6879297e-06
6.7043741e-07
6.3651634e-07
6.4232662e-07
6.4687215e-07
6.5788685e-07
6.7609454e-07
6.9189505e-07
7.0941301e-07
7.3392126e-07
7.7133002e-07
8.1663704e-07
8.5553908e-07
9.3526839e-07
1.1955574e-06
2.0318967e-06
4.771141e-06
1.315642e-05
3.659636e-05
9.6705776e-05
0.0002399024
0.00055399903
2.3475488e-05
1.5280651e-06
6.5693675e-07
6.3808286e-07
6.4923002e-07
6.5789937e-07
6.7681931e-07
6.9715337e-07
7.1024607e-07
7.3719168e-07
7.8276923e-07
8.5854709e-07
1.0322329e-06
1.5171561e-06
3.0221277e-06
7.4630437e-06
1.9589283e-05
5.0187778e-05
0.00012094022
0.00026300689
0.00050335992
0.0008105352
0.00099286038
2.3525708e-05
1.9840727e-06
6.8118336e-07
6.4601133e-07
6.5430968e-07
6.6284536e-07
6.8462538e-07
7.1021097e-07
7.2707118e-07
7.5751775e-07
8.1918637e-07
9.4326427e-07
1.275846e-06
2.2859721e-06
5.4145473e-06
1.4557859e-05
3.93128e-05
0.00010005251
0.00022954821
0.00045673876
0.00076513711
0.0010343859
0.0011461815
2.2954161e-05
1.8169966e-06
6.8311204e-07
6.5055575e-07
6.5968122e-07
6.6643958e-07
6.8628592e-07
7.1088183e-07
7.3162188e-07
7.7166003e-07
8.6270596e-07
1.0353733e-06
1.4178287e-06
2.5896113e-06
6.2510869e-06
1.7121551e-05
4.7269306e-05
0.00012318444
0.00028949661
0.00059194578
0.00097191062
0.0012097114
0.0012974451
2.6676488e-05
1.8815067e-06
6.8287357e-07
6.4954107e-07
6.5834062e-07
6.6639824e-07
6.8733391e-07
7.1139924e-07
7.3118707e-07
7.7324785e-07
8.8360222e-07
1.1445855e-06
1.7809357e-06
3.4864309e-06
8.4537996e-06
2.319816e-05
6.4995652e-05
0.00017145239
0.00040041376
0.00077876938
0.0011820596
0.0013965506
0.001456883
2.5970627e-05
2.4658581e-06
6.9657786e-07
6.5034017e-07
6.5659355e-07
6.6397032e-07
6.8592113e-07
7.123113e-07
7.3358811e-07
7.7527086e-07
8.878073e-07
1.179395e-06
1.9628383e-06
4.1175236e-06
1.0133694e-05
2.6798742e-05
7.1322571e-05
0.00018576805
0.00044154141
0.0008550005
0.0012769422
0.0015168051
0.0015762835
2.8616896e-05
2.644222e-06
7.1853219e-07
6.5404608e-07
6.5968197e-07
6.6587749e-07
6.8574793e-07
7.1106709e-07
7.3322629e-07
7.7465346e-07
8.8943853e-07
1.1907936e-06
2.0167806e-06
4.3012457e-06
1.0549686e-05
2.7090863e-05
7.0667181e-05
0.00018225332
0.0004342293
0.00084654699
0.0012719838
0.0015454622
0.0016234231
2.9665815e-05
3.102398e-06
7.3759128e-07
6.6344739e-07
6.6496169e-07
6.7156687e-07
6.9063817e-07
7.1312875e-07
7.3358399e-07
7.7166141e-07
8.7674801e-07
1.1858384e-06
2.0278318e-06
4.3560758e-06
1.0632771e-05
2.6911573e-05
6.8143618e-05
0.00017169229
0.00040927765
0.0008111072
0.0012355444
0.0015279605
0.0015946748
2.8103014e-05
2.899999e-06
7.4041714e-07
6.6828003e-07
6.7017802e-07
6.7764394e-07
6.9690017e-07
7.174426e-07
7.3627337e-07
7.7326868e-07
8.7469517e-07
1.1545469e-06
1.9675485e-06
4.3008188e-06
1.0596937e-05
2.6590709e-05
6.510716e-05
0.00015484175
0.00035877772
0.00073231404
0.0011397252
0.0014426876
0.001458628
3.3675859e-05
2.9647038e-06
7.4433661e-07
6.7528235e-07
6.7600192e-07
6.8324893e-07
7.0289497e-07
7.2326961e-07
7.4186767e-07
7.8062022e-07
8.8377407e-07
1.1632028e-06
1.946972e-06
4.1418986e-06
1.0150906e-05
2.5043417e-05
5.818486e-05
0.00013011631
0.00028368307
0.00056597884
0.00090494725
0.0012070815
0.0012722632
2.9114912e-05
3.2209868e-06
7.5900546e-07
6.9230616e-07
6.9185945e-07
6.9564762e-07
7.1786706e-07
7.392931e-07
7.6136981e-07
8.0389011e-07
9.1427516e-07
1.2093695e-06
2.0213169e-06
4.3102091e-06
1.0487397e-05
2.5701409e-05
5.9340545e-05
0.00013013058
0.00027294135
0.00052400501
0.00082391625
0.0011035473
0.0012351381
3.7355617e-05
3.1422605e-06
7.7359247e-07
7.2174363e-07
7.2884367e-07
7.3109814e-07
7.5619924e-07
7.6908228e-07
7.9215062e-07
8.4617769e-07
9.8739747e-07
1.3257917e-06
2.275105e-06
4.9412818e-06
1.2012319e-05
2.9154423e-05
6.6905223e-05
0.0001453091
0.00030095675
0.0005615472
0.00086143497
0.0011273813
0.0013085361
3.2563941e-05
2.8170891e-06
7.7722121e-07
7.3982597e-07
7.545979e-07
7.6429365e-07
7.9669941e-07
8.2820704e-07
8.5928464e-07
9.3100623e-07
1.1078354e-06
1.5754867e-06
2.9289289e-06
6.7589445e-06
1.6998939e-05
4.2314461e-05
9.9946774e-05
0.00021963423
0.0004402529
0.00076129648
0.0010953761
0.0013118668
0.0014134486
4.7829487e-05
2.6625118e-06
7.7957611e-07
7.5352327e-07
7.6431194e-07
7.8438006e-07
8.1923174e-07
8.6461574e-07
9.203814e-07
1.0357172e-06
1.3179386e-06
2.1790304e-06
4.8736966e-06
1.3083399e-05
3.6519468e-05
9.7748066e-05
0.00023975799
0.000512995
0.0009326076
0.0012647285
0.0014211628
0.0014571504
0.0014011652
5.7439417e-05
3.4884158e-06
7.9539992e-07
7.9695756e-07
7.8945205e-07
8.3732536e-07
8.6686672e-07
9.2499048e-07
1.0028734e-06
1.2021411e-06
1.8193101e-06
4.0395045e-06
1.2053408e-05
3.8685471e-05
0.00011661192
0.00031111549
0.00071586518
0.0011503487
0.0014063057
0.0015164507
0.0015298569
0.0014161443
0.0012158001
5.3892665e-05
3.5604933e-06
8.3957009e-07
8.3344661e-07
8.6623258e-07
9.0677512e-07
9.7421498e-07
1.0586716e-06
1.1947032e-06
1.5472834e-06
3.1846195e-06
1.0273673e-05
3.8166488e-05
0.00013220054
0.00039082217
0.00084460392
0.001242057
0.0014825491
0.0015749193
0.0015840626
0.0014836372
0.0012761983
0.0010327319
6.3192347e-05
3.1884472e-06
8.4580114e-07
8.3648419e-07
8.9629428e-07
9.4077271e-07
1.0370891e-06
1.116863e-06
1.3553219e-06
2.2656775e-06
6.8653e-06
2.8652124e-05
0.00011466388
0.00038636924
0.00083870993
0.0012306356
0.00148377
0.0015916865
0.0016126985
0.0015537822
0.0013902278
0.0011902265
0.0009719894
7.2712585e-05
3.1595531e-06
8.4671344e-07
8.3416131e-07
8.9643917e-07
9.5404837e-07
1.0788386e-06
1.2374949e-06
1.7003343e-06
3.9225395e-06
1.6606354e-05
7.8765994e-05
0.00029857586
0.0006980059
0.0011001966
0.0013990502
0.001550753
0.0016021241
0.0016021127
0.0015118093
0.0013624378
0.0011926295
0.0010137801
9.5492153e-05
3.872085e-06
8.54479e-07
8.2060487e-07
8.9219781e-07
9.5287497e-07
1.0833177e-06
1.3155205e-06
2.3456288e-06
8.8943381e-06
4.4784412e-05
0.00017719494
0.00046392004
0.00084139935
0.0011760985
0.0014212639
0.0015497582
0.0015923782
0.0015887632
0.0015149665
0.0013852193
0.0012463525
0.0011096322
0.00012123518
7.1188608e-06
9.5028617e-07
8.1207835e-07
8.7389398e-07
9.4548737e-07
1.0743756e-06
1.3015845e-06
2.2886296e-06
8.9872602e-06
4.8202411e-05
0.00019061918
0.00048177999
0.00084232863
0.0011641506
0.0013984046
0.0015280057
0.0015795507
0.001591513
0.0015642424
0.0014835197
0.0013745628
0.001241742
0.00012804326
1.3163069e-05
1.3265254e-06
8.2532142e-07
8.5229353e-07
9.2129878e-07
1.0506468e-06
1.2592294e-06
1.9925569e-06
7.3510273e-06
4.2610568e-05
0.00017674559
0.00045760687
0.00080509252
0.0011101199
0.0013355516
0.0014760015
0.0015517358
0.0015891007
0.0016038547
0.0015932447
0.0015317483
0.0014236143
0.00012293951
2.6583462e-05
2.5846914e-06
9.1568112e-07
8.5727532e-07
9.0267993e-07
1.0082998e-06
1.1721601e-06
1.6241713e-06
4.3988185e-06
2.6564813e-05
0.00013246424
0.00038895079
0.00071514189
0.00098767316
0.0012061991
0.0013708189
0.0014866767
0.0015568312
0.0015919426
0.0016013637
0.0015874406
0.0015310302
0.00011049826
3.7823408e-05
5.1495204e-06
1.2153248e-06
8.9096956e-07
9.1024467e-07
9.8527164e-07
1.1120593e-06
1.3891142e-06
2.6317841e-06
1.2042959e-05
6.4559446e-05
0.00022916337
0.00053586061
0.00082412933
0.0010394046
0.0012037131
0.0013420757
0.001461794
0.00153527
0.0015715078
0.0015759674
0.0015429458
9.4787722e-05
4.6298904e-05
9.5415299e-06
1.9559361e-06
1.005875e-06
9.418505e-07
9.9035532e-07
1.1047345e-06
1.2681438e-06
1.8154428e-06
5.3023233e-06
2.6003154e-05
0.0001014928
0.0002876843
0.00058312195
0.00083759079
0.0010207193
0.0011562291
0.0012725471
0.0013881485
0.0014819288
0.0015346128
0.001541284
7.7550299e-05
5.3702606e-05
1.4453578e-05
3.8593639e-06
1.3923059e-06
1.0315487e-06
1.0266439e-06
1.1070765e-06
1.2313584e-06
1.4979251e-06
2.7067643e-06
9.6998604e-06
3.8231399e-05
0.00011924336
0.00029654405
0.00055067476
0.00078109509
0.00095588767
0.0010823006
0.0011830674
0.0012788202
0.0013934512
0.0014395902
6.1503006e-05
5.3502028e-05
1.8172263e-05
5.4213442e-06
1.9625151e-06
1.2141143e-06
1.1084103e-06
1.1324889e-06
1.2327562e-06
1.3780534e-06
1.8234411e-06
3.989844e-06
1.32726e-05
4.2623437e-05
0.00011475359
0.00026198546
0.00046504982
0.00066864293
0.00084237975
0.00097438795
0.0010741429
0.0011713005
0.0012431039
5.1634423e-05
5.0958759e-05
2.4063779e-05
7.3440767e-06
2.6542806e-06
1.4564063e-06
1.1966762e-06
1.1885416e-06
1.2415154e-06
1.3503494e-06
1.5480785e-06
2.2328919e-06
5.0188586e-06
1.4436453e-05
3.9820474e-05
9.7260033e-05
0.00020722612
0.00036403716
0.00052926387
0.00069213366
0.00083093735
0.00094491244
0.0010475612
3.9090223e-05
4.8885209e-05
3.4353295e-05
1.1157265e-05
4.0582446e-06
1.959693e-06
1.3774702e-06
1.2576307e-06
1.2713536e-06
1.344633e-06