/*--------------------------------*- C++ -*----------------------------------*\
| =========                 |                                                 |
| \\      /  F ield         | OpenFOAM: The Open Source CFD Toolbox           |
|  \\    /   O peration     | Version:  2406                                  |
|   \\  /    A nd           | Website:  www.openfoam.com                      |
|    \\/     M anipulation  |                                                 |
\*---------------------------------------------------------------------------*/
FoamFile
{
    version     2.0;
    format      ascii;
    arch        "LSB;label=32;scalar=64";
    class       volScalarField;
    location    "20";
    object      k_0;
}
// * * * * * * * * * * * * * * * * * * * * * * * * * * * * * * * * * * * * * //

dimensions      [0 2 -2 0 0 0 0];

internalField   nonuniform List<scalar> 
158064
(
3.9198894e-06
2.9950843e-06
2.4205936e-06
2.0345933e-06
1.756859e-06
1.5442551e-06
1.3757576e-06
1.240395e-06
1.1318415e-06
1.0432326e-06
9.6931274e-07
9.0664927e-07
8.5299969e-07
8.0754593e-07
7.6942867e-07
7.3752582e-07
7.1024727e-07
6.8632176e-07
6.6413078e-07
6.4330993e-07
6.2334456e-07
6.0390641e-07
5.8507017e-07
5.6703006e-07
5.4988627e-07
5.3429931e-07
5.202773e-07
5.0779938e-07
4.9685772e-07
4.8780821e-07
4.8013626e-07
4.7393979e-07
4.6891113e-07
4.6516018e-07
4.6219355e-07
4.603597e-07
4.5913129e-07
4.5895989e-07
4.5897663e-07
4.5898747e-07
4.5939269e-07
4.5984008e-07
4.6107728e-07
4.6194867e-07
4.6336569e-07
4.6393092e-07
4.6594187e-07
4.6717395e-07
4.6891525e-07
4.6972965e-07
4.7204991e-07
4.7314e-07
4.7494944e-07
4.7624271e-07
4.7903326e-07
4.8023306e-07
4.812978e-07
4.8420514e-07
4.8633842e-07
4.8870942e-07
4.8945229e-07
4.9200299e-07
4.929141e-07
4.9673456e-07
4.9861077e-07
5.0342879e-07
5.0640015e-07
5.1275883e-07
5.1759895e-07
5.287858e-07
5.389856e-07
5.6120803e-07
5.7656343e-07
6.0846686e-07
6.2884288e-07
6.7162728e-07
6.991289e-07
7.602083e-07
7.9963533e-07
8.7796085e-07
9.2663045e-07
1.0259036e-06
1.0868216e-06
1.1437422e-06
1.1756765e-06
1.2241688e-06
1.3126051e-06
1.3716351e-06
1.5284581e-06
3.921379e-06
2.9972331e-06
2.4227729e-06
2.0367074e-06
1.7589548e-06
1.5463012e-06
1.3776701e-06
1.2421805e-06
1.133485e-06
1.0448033e-06
9.7093734e-07
9.0827961e-07
8.5459159e-07
8.0908097e-07
7.7083374e-07
7.3884176e-07
7.1152007e-07
6.8748742e-07
6.6527255e-07
6.4442824e-07
6.2453418e-07
6.0512142e-07
5.8621166e-07
5.6812761e-07
5.509771e-07
5.3536476e-07
5.2123629e-07
5.0879917e-07
4.9784293e-07
4.8867064e-07
4.8077104e-07
4.7459381e-07
4.6946524e-07
4.6567891e-07
4.6257335e-07
4.6065907e-07
4.5935557e-07
4.59067e-07
4.5906673e-07
4.5912362e-07
4.5947169e-07
4.5968088e-07
4.6037041e-07
4.6119688e-07
4.6225649e-07
4.6318522e-07
4.6502201e-07
4.6579584e-07
4.6730807e-07
4.6857169e-07
4.7081921e-07
4.7149659e-07
4.7310076e-07
4.7408629e-07
4.7603614e-07
4.771375e-07
4.7828237e-07
4.80783e-07
4.822917e-07
4.8493407e-07
4.8583228e-07
4.8834883e-07
4.8987952e-07
4.9393986e-07
4.9599738e-07
5.0105017e-07
5.0303792e-07
5.0768322e-07
5.1013887e-07
5.1710793e-07
5.2125373e-07
5.3129026e-07
5.3701539e-07
5.5110195e-07
5.6015453e-07
5.8342414e-07
5.9839625e-07
6.3417388e-07
6.579495e-07
7.123072e-07
7.5035427e-07
8.0186198e-07
8.8813078e-07
9.5143677e-07
1.0287787e-06
1.0714505e-06
1.1630912e-06
1.2212999e-06
1.3654817e-06
3.9226016e-06
2.9992351e-06
2.4249635e-06
2.0388819e-06
1.7611174e-06
1.5484158e-06
1.3797393e-06
1.2441012e-06
1.1352596e-06
1.0464713e-06
9.7250185e-07
9.0966464e-07
8.5580633e-07
8.101892e-07
7.7172262e-07
7.3966013e-07
7.1228787e-07
6.8824594e-07
6.6611855e-07
6.4530305e-07
6.2538192e-07
6.0593462e-07
5.8703274e-07
5.6896328e-07
5.5185075e-07
5.361152e-07
5.2183957e-07
5.092278e-07
4.9809527e-07
4.8878826e-07
4.8071144e-07
4.7436832e-07
4.6910835e-07
4.6520601e-07
4.6208179e-07
4.6003764e-07
4.5871212e-07
4.5827158e-07
4.5821078e-07
4.5827389e-07
4.5851014e-07
4.5894387e-07
4.5965597e-07
4.6069083e-07
4.6163651e-07
4.6241867e-07
4.643687e-07
4.651158e-07
4.6650579e-07
4.6791273e-07
4.6985233e-07
4.7057123e-07
4.7221951e-07
4.7362084e-07
4.7533858e-07
4.7603877e-07
4.7784817e-07
4.7945966e-07
4.814666e-07
4.8283069e-07
4.8392525e-07
4.8596276e-07
4.8725399e-07
4.8979778e-07
4.9152817e-07
4.9462279e-07
4.9657685e-07
5.0117775e-07
5.0406019e-07
5.1069826e-07
5.1429857e-07
5.2281165e-07
5.275096e-07
5.3845663e-07
5.4462781e-07
5.5877567e-07
5.7214961e-07
5.8931984e-07
6.0474767e-07
6.2828033e-07
6.6054072e-07
6.8293375e-07
7.3434605e-07
7.7196971e-07
8.4702775e-07
8.8229064e-07
9.5383113e-07
9.9538175e-07
1.1203312e-06
3.9239698e-06
3.0012765e-06
2.4270819e-06
2.0409607e-06
1.7631718e-06
1.5504789e-06
1.3816887e-06
1.2459361e-06
1.136966e-06
1.0480969e-06
9.7406077e-07
9.1119077e-07
8.5730202e-07
8.1154896e-07
7.7297757e-07
7.4084295e-07
7.133926e-07
6.8929646e-07
6.6718783e-07
6.4637304e-07
6.2648867e-07
6.0708539e-07
5.8816274e-07
5.7006564e-07
5.5292487e-07
5.371267e-07
5.228356e-07
5.1018192e-07
4.9907538e-07
4.8974021e-07
4.8163587e-07
4.7531474e-07
4.6995573e-07
4.6594495e-07
4.6281874e-07
4.6054828e-07
4.5920182e-07
4.5880348e-07
4.5871238e-07
4.5874518e-07
4.5893135e-07
4.5941592e-07
4.6003557e-07
4.6109341e-07
4.6195699e-07
4.6284607e-07
4.6457451e-07
4.653098e-07
4.6672781e-07
4.6828043e-07
4.6985586e-07
4.7054418e-07
4.7219016e-07
4.7333515e-07
4.7479769e-07
4.7550051e-07
4.7721037e-07
4.7863442e-07
4.8067971e-07
4.8150656e-07
4.8314821e-07
4.8409694e-07
4.8626848e-07
4.8761723e-07
4.897678e-07
4.9117896e-07
4.9405598e-07
4.9592483e-07
4.9959996e-07
5.0241671e-07
5.0807075e-07
5.1122237e-07
5.1867607e-07
5.2321289e-07
5.3152878e-07
5.3774098e-07
5.5228773e-07
5.6263325e-07
5.8014185e-07
5.910773e-07
6.1363517e-07
6.2876305e-07
6.6369289e-07
6.8557359e-07
7.3256037e-07
7.6081332e-07
8.1501802e-07
8.4167183e-07
9.2232844e-07
3.925179e-06
3.0031833e-06
2.4291157e-06
2.0429836e-06
1.7651951e-06
1.5524518e-06
1.3835596e-06
1.2477085e-06
1.1385999e-06
1.0496463e-06
9.7555896e-07
9.1260102e-07
8.5856884e-07
8.1266675e-07
7.7397499e-07
7.4173776e-07
7.1423705e-07
6.9014054e-07
6.680618e-07
6.4723445e-07
6.273174e-07
6.079261e-07
5.8900785e-07
5.7090778e-07
5.5375435e-07
5.3794048e-07
5.235369e-07
5.1084193e-07
4.9955993e-07
4.9020875e-07
4.8198492e-07
4.7560488e-07
4.7008395e-07
4.6603457e-07
4.6270186e-07
4.6035312e-07
4.5887934e-07
4.5834252e-07
4.5816237e-07
4.5824124e-07
4.5837645e-07
4.5881801e-07
4.5929256e-07
4.6043281e-07
4.6116322e-07
4.6217305e-07
4.6379663e-07
4.6446793e-07
4.6582515e-07
4.6745607e-07
4.6869567e-07
4.6944185e-07
4.7119635e-07
4.7230447e-07
4.7357547e-07
4.7426391e-07
4.7594224e-07
4.7718487e-07
4.7904395e-07
4.7983711e-07
4.8141999e-07
4.8242004e-07
4.8479551e-07
4.8621436e-07
4.8851881e-07
4.8985945e-07
4.9230685e-07
4.9429568e-07
4.9807918e-07
5.0045375e-07
5.0557524e-07
5.0845638e-07
5.1511152e-07
5.1892006e-07
5.2646964e-07
5.3092708e-07
5.4217201e-07
5.5036302e-07
5.6522413e-07
5.736925e-07
5.9033592e-07
6.0061662e-07
6.2573818e-07
6.4023024e-07
6.7070125e-07
6.8895737e-07
7.2601827e-07
7.4744472e-07
8.0609249e-07
3.9264216e-06
3.0050727e-06
2.4311173e-06
2.0449359e-06
1.7671187e-06
1.5543446e-06
1.3853729e-06
1.2494106e-06
1.1401783e-06
1.0511555e-06
9.7700089e-07
9.1395808e-07
8.5985947e-07
8.1386155e-07
7.7504861e-07
7.4275879e-07
7.1523136e-07
6.9109892e-07
6.6906729e-07
6.4825357e-07
6.2837178e-07
6.0902746e-07
5.9012594e-07
5.7199819e-07
5.5481585e-07
5.3891285e-07
5.2443976e-07
5.1164812e-07
5.0037221e-07
4.9090951e-07
4.8270094e-07
4.7621651e-07
4.7062017e-07
4.6649935e-07
4.6310112e-07
4.6070498e-07
4.5922985e-07
4.5866064e-07
4.5845074e-07
4.5850507e-07
4.5866119e-07
4.5922503e-07
4.5969478e-07
4.6081038e-07
4.6151004e-07
4.6267027e-07
4.6413679e-07
4.6479179e-07
4.6619733e-07
4.677939e-07
4.6879953e-07
4.6964013e-07
4.7136607e-07
4.7263236e-07
4.7336998e-07
4.7415253e-07
4.7608976e-07
4.7691202e-07
4.7832649e-07
4.7895467e-07
4.8038808e-07
4.8123716e-07
4.8323478e-07
4.8427562e-07
4.8578478e-07
4.8674739e-07
4.8862994e-07
4.9014107e-07
4.9309174e-07
4.9514872e-07
4.9958018e-07
5.0231175e-07
5.0719115e-07
5.1082613e-07
5.1881982e-07
5.2315011e-07
5.3264485e-07
5.3857388e-07
5.5060357e-07
5.5838585e-07
5.7488925e-07
5.8482526e-07
6.0697168e-07
6.1675113e-07
6.3883685e-07
6.5214653e-07
6.7958454e-07
6.9797377e-07
7.4357134e-07
3.9275632e-06
3.0068662e-06
2.4330247e-06
2.0468522e-06
1.769009e-06
1.556197e-06
1.3871425e-06
1.2510725e-06
1.1417305e-06
1.0526344e-06
9.7840868e-07
9.1529578e-07
8.611378e-07
8.1500375e-07
7.7605143e-07
7.4367214e-07
7.1610264e-07
6.9192121e-07
6.6989798e-07
6.4905026e-07
6.2916445e-07
6.0985002e-07
5.9095559e-07
5.7283027e-07
5.5562085e-07
5.3971074e-07
5.2521838e-07
5.1239381e-07
5.0097863e-07
4.914104e-07
4.8310682e-07
4.765242e-07
4.7087337e-07
4.666103e-07
4.6322654e-07
4.6073554e-07
4.5922001e-07
4.5857131e-07
4.5827956e-07
4.5836228e-07
4.5845739e-07
4.5890197e-07
4.5935801e-07
4.6042467e-07
4.6104142e-07
4.6228889e-07
4.6356964e-07
4.6421989e-07
4.6561893e-07
4.6709668e-07
4.6793183e-07
4.6887024e-07
4.7051362e-07
4.7179315e-07
4.7254718e-07
4.7339544e-07
4.7529908e-07
4.7615086e-07
4.7745833e-07
4.7796814e-07
4.7927757e-07
4.8022447e-07
4.8226802e-07
4.8329163e-07
4.848807e-07
4.8569168e-07
4.8730327e-07
4.8851868e-07
4.9125826e-07
4.9298328e-07
4.9652595e-07
4.9856239e-07
5.0302336e-07
5.0591725e-07
5.1214098e-07
5.1602705e-07
5.2378938e-07
5.2829187e-07
5.3971191e-07
5.463621e-07
5.6038564e-07
5.6829619e-07
5.8537407e-07
5.9479039e-07
6.1482201e-07
6.2476804e-07
6.4683877e-07
6.6168157e-07
6.9731583e-07
3.9287061e-06
3.0086264e-06
2.4348883e-06
2.0486812e-06
1.7708062e-06
1.5579674e-06
1.3888301e-06
1.2526742e-06
1.1432156e-06
1.0540396e-06
9.7975684e-07
9.1657475e-07
8.6233766e-07
8.1610965e-07
7.7707326e-07
7.446329e-07
7.1702383e-07
6.9282232e-07
6.7083336e-07
6.5002984e-07
6.3014883e-07
6.1081667e-07
5.9194826e-07
5.7384857e-07
5.5661225e-07
5.4065093e-07
5.2610156e-07
5.1317087e-07
5.0165462e-07
4.9203867e-07
4.8372849e-07
4.7711694e-07
4.7145383e-07
4.6709437e-07
4.6361373e-07
4.6104507e-07
4.5938961e-07
4.5867619e-07
4.5837841e-07
4.5848682e-07
4.5862605e-07
4.590528e-07
4.594799e-07
4.6059419e-07
4.6122924e-07
4.6252826e-07
4.6363738e-07
4.6460374e-07
4.6579194e-07
4.6708859e-07
4.6811196e-07
4.6884546e-07
4.7037195e-07
4.7173851e-07
4.7256535e-07
4.7333221e-07
4.7501533e-07
4.7575912e-07
4.7702932e-07
4.7755626e-07
4.7868833e-07
4.7936948e-07
4.8105537e-07
4.8174846e-07
4.8312004e-07
4.8380604e-07
4.8541216e-07
4.8639301e-07
4.8863955e-07
4.8984773e-07
4.9327648e-07
4.9495971e-07
4.9876575e-07
5.0106324e-07
5.064359e-07
5.0948577e-07
5.1670322e-07
5.211564e-07
5.2780409e-07
5.372726e-07
5.5087153e-07
5.5663466e-07
5.6929122e-07
5.7837109e-07
5.997089e-07
6.1038284e-07
6.2580067e-07
6.3578858e-07
6.6070047e-07
3.9297768e-06
3.0103074e-06
2.4366914e-06
2.0504688e-06
1.772564e-06
1.5596973e-06
1.3904879e-06
1.2542475e-06
1.1446717e-06
1.0554173e-06
9.8106218e-07
9.1783148e-07
8.6354186e-07
8.1720675e-07
7.7806208e-07
7.4553887e-07
7.1786527e-07
6.9358493e-07
6.7164078e-07
6.508276e-07
6.3093256e-07
6.1162139e-07
5.9277768e-07
5.7470841e-07
5.5742996e-07
5.4141833e-07
5.2682727e-07
5.1386514e-07
5.0224225e-07
4.9254233e-07
4.8413079e-07
4.7746106e-07
4.7171671e-07
4.6729328e-07
4.6374661e-07
4.6116652e-07
4.5944226e-07
4.5867366e-07
4.5833068e-07
4.5837932e-07
4.5850388e-07
4.5894209e-07
4.5940686e-07
4.6041431e-07
4.6102465e-07
4.6238193e-07
4.630927e-07
4.6453326e-07
4.6527894e-07
4.6666867e-07
4.6786363e-07
4.6854866e-07
4.698333e-07
4.7136146e-07
4.7202037e-07
4.7279861e-07
4.7436404e-07
4.7540909e-07
4.7627861e-07
4.7689027e-07
4.7814473e-07
4.7879692e-07
4.8026922e-07
4.8087008e-07
4.8198368e-07
4.8258307e-07
4.8404859e-07
4.8492814e-07
4.8717702e-07
4.882805e-07
4.9118667e-07
4.9264984e-07
4.9595342e-07
4.9800941e-07
5.0245703e-07
5.0538365e-07
5.1121358e-07
5.1480879e-07
5.2258444e-07
5.2805943e-07
5.3873501e-07
5.4417925e-07
5.5676686e-07
5.6372511e-07
5.8022487e-07
5.8877558e-07
6.0435084e-07
6.1377595e-07
6.3418209e-07
3.9308337e-06
3.0119454e-06
2.4384185e-06
2.0521725e-06
1.774237e-06
1.5613595e-06
1.3920712e-06
1.2557461e-06
1.1460669e-06
1.0567265e-06
9.8230692e-07
9.1902124e-07
8.6466691e-07
8.1825183e-07
7.7902805e-07
7.4642965e-07
7.1871171e-07
6.9443525e-07
6.7249011e-07
6.5167647e-07
6.3179392e-07
6.1250415e-07
5.9370068e-07
5.7565052e-07
5.5836393e-07
5.4230875e-07
5.2767554e-07
5.1465981e-07
5.0294191e-07
4.9317523e-07
4.8472687e-07
4.7801123e-07
4.7219761e-07
4.676881e-07
4.6406615e-07
4.6139608e-07
4.5959574e-07
4.5877865e-07
4.5842744e-07
4.5849134e-07
4.5854919e-07
4.5899506e-07
4.5944966e-07
4.604147e-07
4.6102207e-07
4.6245529e-07
4.6322138e-07
4.6468924e-07
4.6540608e-07
4.666612e-07
4.6787937e-07
4.6850962e-07
4.697492e-07
4.7118517e-07
4.7178964e-07
4.727032e-07
4.7390439e-07
4.7516115e-07
4.7582427e-07
4.7640013e-07
4.7774061e-07
4.7833584e-07
4.7949117e-07
4.7999809e-07
4.8085121e-07
4.8142438e-07
4.8276689e-07
4.8352881e-07
4.8532602e-07
4.8647225e-07
4.8875712e-07
4.8995244e-07
4.9274806e-07
4.9482217e-07
4.9884742e-07
5.0151981e-07
5.0707051e-07
5.1040506e-07
5.1704193e-07
5.2328576e-07
5.2921143e-07
5.3459847e-07
5.493692e-07
5.5596915e-07
5.6769502e-07
5.7340127e-07
5.8611924e-07
5.9616233e-07
6.1386489e-07
3.9318345e-06
3.0135164e-06
2.4401009e-06
2.0538427e-06
1.7758706e-06
1.5629658e-06
1.3936222e-06
1.257215e-06
1.1474327e-06
1.0580164e-06
9.8353269e-07
9.2019179e-07
8.6578221e-07
8.1928211e-07
7.7996361e-07
7.4728242e-07
7.1951422e-07
6.9518195e-07
6.7328298e-07
6.5248358e-07
6.3258909e-07
6.1328092e-07
5.9450456e-07
5.7647335e-07
5.5916598e-07
5.4306692e-07
5.2839089e-07
5.1531355e-07
5.0351736e-07
4.9363511e-07
4.851576e-07
4.7834729e-07
4.72494e-07
4.6791377e-07
4.6424676e-07
4.6153466e-07
4.5967637e-07
4.588015e-07
4.5838006e-07
4.5846355e-07
4.5853405e-07
4.5896419e-07
4.5935832e-07
4.6034207e-07
4.6092162e-07
4.6225572e-07
4.6296583e-07
4.6446202e-07
4.6514845e-07
4.665367e-07
4.6743073e-07
4.6831323e-07
4.6955366e-07
4.7088625e-07
4.7140985e-07
4.7256395e-07
4.734185e-07
4.7469104e-07
4.7530418e-07
4.7597715e-07
4.772512e-07
4.7777672e-07
4.7882328e-07
4.7936457e-07
4.8033377e-07
4.808068e-07
4.8173896e-07
4.8255873e-07
4.840739e-07
4.8503157e-07
4.8700592e-07
4.8814043e-07
4.9055218e-07
4.9219211e-07
4.9599004e-07
4.9781265e-07
5.0280457e-07
5.0629136e-07
5.1218357e-07
5.1561033e-07
5.2278735e-07
5.2864086e-07
5.4015643e-07
5.4437459e-07
5.5380286e-07
5.6028766e-07
5.732082e-07
5.8085998e-07
5.9600686e-07
3.9328122e-06
3.0150381e-06
2.4417121e-06
2.0554251e-06
1.7774301e-06
1.5645032e-06
1.3951068e-06
1.2586353e-06
1.1487383e-06
1.0592375e-06
9.8468581e-07
9.2129599e-07
8.6683483e-07
8.2025482e-07
7.8087402e-07
7.4813271e-07
7.2028879e-07
6.9594174e-07
6.7405597e-07
6.5327004e-07
6.3336856e-07
6.1407816e-07
5.9534034e-07
5.7733736e-07
5.6003759e-07
5.4391587e-07
5.2920818e-07
5.1605272e-07
5.0418099e-07
4.9422105e-07
4.8572546e-07
4.7884846e-07
4.7292988e-07
4.682754e-07
4.6452578e-07
4.6179596e-07
4.5984536e-07
4.5893345e-07
4.5848865e-07
4.5854486e-07
4.5865494e-07
4.5900707e-07
4.5938948e-07
4.6041061e-07
4.6103328e-07
4.6236958e-07
4.630046e-07
4.6447808e-07
4.6509103e-07
4.6653676e-07
4.6721983e-07
4.6836796e-07
4.6935291e-07
4.7064652e-07
4.7118167e-07
4.7248984e-07
4.7317978e-07
4.7441144e-07
4.7493967e-07
4.7583626e-07
4.7681517e-07
4.7730307e-07
4.7836479e-07
4.7880414e-07
4.7973556e-07
4.8020421e-07
4.8101649e-07
4.8161326e-07
4.8284219e-07
4.8360282e-07
4.8534616e-07
4.8629526e-07
4.8858188e-07
4.9000877e-07
4.9355937e-07
4.955094e-07
5.0005253e-07
5.0245209e-07
5.0759651e-07
5.1141604e-07
5.1621697e-07
5.2445342e-07
5.3436265e-07
5.3673632e-07
5.4298553e-07
5.5144908e-07
5.6430398e-07
5.7153071e-07
5.8715754e-07
3.9337453e-06
3.0165084e-06
2.4432857e-06
2.0569714e-06
1.7789433e-06
1.5660037e-06
1.3965354e-06
1.2600064e-06
1.1500145e-06
1.0604332e-06
9.8581267e-07
9.2238213e-07
8.6787081e-07
8.2120817e-07
7.81753e-07
7.4892747e-07
7.2104666e-07
6.9668062e-07
6.7480063e-07
6.5400768e-07
6.3411222e-07
6.1482844e-07
5.9610901e-07
5.7812904e-07
5.6082841e-07
5.4467332e-07
5.2991101e-07
5.1667458e-07
5.0472742e-07
4.9471406e-07
4.8615502e-07
4.7918579e-07
4.7318245e-07
4.6847505e-07
4.6465382e-07
4.6189725e-07
4.5985141e-07
4.588969e-07
4.584297e-07
4.584787e-07
4.5862055e-07
4.5893044e-07
4.5931898e-07
4.6025503e-07
4.6086433e-07
4.6222331e-07
4.6288671e-07
4.6440122e-07
4.6502745e-07
4.6646256e-07
4.67039e-07
4.6829356e-07
4.689621e-07
4.7035012e-07
4.7091129e-07
4.7222035e-07
4.7284798e-07
4.740678e-07
4.7458309e-07
4.7537178e-07
4.7633193e-07
4.7676984e-07
4.7771917e-07
4.7813892e-07
4.7899502e-07
4.794538e-07
4.8030208e-07
4.8077121e-07
4.8199746e-07
4.8249044e-07
4.8393332e-07
4.8473212e-07
4.8693512e-07
4.8835464e-07
4.911619e-07
4.9295794e-07
4.9653108e-07
4.9863331e-07
5.038783e-07
5.0731825e-07
5.1382456e-07
5.1786413e-07
5.2552481e-07
5.2918554e-07
5.3754803e-07
5.4351689e-07
5.5371112e-07
5.6381285e-07
5.7803134e-07
3.9346512e-06
3.0179141e-06
2.4447544e-06
2.0584431e-06
1.7804034e-06
1.5674327e-06
1.3979157e-06
1.2613135e-06
1.1512318e-06
1.0615906e-06
9.8689287e-07
9.2341389e-07
8.688422e-07
8.2211609e-07
7.825967e-07
7.4970557e-07
7.2175562e-07
6.9740032e-07
6.7551331e-07
6.54753e-07
6.3486615e-07
6.1557355e-07
5.9687711e-07
5.7892059e-07
5.6163284e-07
5.4545949e-07
5.3065815e-07
5.1734617e-07
5.0533444e-07
4.952712e-07
4.8666216e-07
4.7963041e-07
4.7362087e-07
4.6882706e-07
4.6496513e-07
4.6219914e-07
4.6007331e-07
4.5905736e-07
4.5857506e-07
4.5860718e-07
4.5869348e-07
4.5900058e-07
4.5938476e-07
4.6027656e-07
4.608781e-07
4.6221153e-07
4.6288803e-07
4.6431343e-07
4.6495762e-07
4.6634107e-07
4.6695363e-07
4.6829766e-07
4.6889541e-07
4.7023631e-07
4.7084563e-07
4.7208858e-07
4.7268709e-07
4.7385929e-07
4.7447937e-07
4.750308e-07
4.7613952e-07
4.7667438e-07
4.7729744e-07
4.7768333e-07
4.7843345e-07
4.7884284e-07
4.7981752e-07
4.8021893e-07
4.8116327e-07
4.8160493e-07
4.8282854e-07
4.8360278e-07
4.8564148e-07
4.8691537e-07
4.8898559e-07
4.9100609e-07
4.9399067e-07
4.9612756e-07
5.0072883e-07
5.0377188e-07
5.1083184e-07
5.1388323e-07
5.1913312e-07
5.2323583e-07
5.317058e-07
5.3687527e-07
5.4542766e-07
5.5602778e-07
5.6681724e-07
3.9355209e-06
3.0192713e-06
2.4462477e-06
2.0598811e-06
1.7817833e-06
1.5688112e-06
1.3992564e-06
1.2626008e-06
1.152409e-06
1.0626993e-06
9.8795163e-07
9.2441154e-07
8.6980873e-07
8.2299131e-07
7.8341783e-07
7.5046287e-07
7.2246369e-07
6.9808294e-07
6.7618654e-07
6.5542981e-07
6.3553161e-07
6.1626087e-07
5.97589e-07
5.796421e-07
5.6237422e-07
5.4618632e-07
5.313265e-07
5.1794917e-07
5.0589296e-07
4.9577915e-07
4.8710275e-07
4.7998129e-07
4.7389829e-07
4.6904212e-07
4.651495e-07
4.6230867e-07
4.6010663e-07
4.5904928e-07
4.5852121e-07
4.5859878e-07
4.5862235e-07
4.5893902e-07
4.5930418e-07
4.6022259e-07
4.6082582e-07
4.621278e-07
4.6280838e-07
4.6414737e-07
4.6481934e-07
4.6616356e-07
4.6677145e-07
4.6807869e-07
4.6869775e-07
4.7002187e-07
4.7059074e-07
4.7170009e-07
4.7229621e-07
4.7354019e-07
4.7402708e-07
4.7466078e-07
4.7558201e-07
4.7621251e-07
4.7687115e-07
4.7717422e-07
4.7773355e-07
4.7811823e-07
4.790413e-07
4.7945838e-07
4.8029208e-07
4.8084497e-07
4.8176058e-07
4.8263727e-07
4.8424616e-07
4.85075e-07
4.872076e-07
4.8897974e-07
4.9191845e-07
4.9351821e-07
4.9738846e-07
5.0204412e-07
5.057459e-07
5.0846705e-07
5.1576407e-07
5.1905614e-07
5.2631951e-07
5.3093564e-07
5.4098614e-07
5.4929215e-07
5.5687424e-07
3.9363581e-06
3.0205858e-06
2.4475912e-06
2.0612317e-06
1.7831486e-06
1.5701505e-06
1.4005342e-06
1.2638233e-06
1.1535419e-06
1.0637425e-06
9.8893691e-07
9.253778e-07
8.7071796e-07
8.2384259e-07
7.8421081e-07
7.5118274e-07
7.2313213e-07
6.987595e-07
6.7684342e-07
6.5610539e-07
6.3620663e-07
6.1698082e-07
5.9831894e-07
5.8036848e-07
5.6312969e-07
5.4692498e-07
5.3201243e-07
5.1857983e-07
5.0645957e-07
4.9628233e-07
4.8752655e-07
4.8031496e-07
4.7420903e-07
4.6931758e-07
4.6536092e-07
4.6250119e-07
4.6022025e-07
4.5911158e-07
4.5856282e-07
4.5859602e-07
4.5864881e-07
4.5891383e-07
4.5924844e-07
4.6014973e-07
4.607628e-07
4.6207177e-07
4.6272252e-07
4.6405073e-07
4.6474086e-07
4.6602464e-07
4.6665283e-07
4.6796216e-07
4.6856764e-07
4.6981163e-07
4.7040101e-07
4.715491e-07
4.721093e-07
4.7325268e-07
4.7385593e-07
4.7447784e-07
4.7528319e-07
4.7584259e-07
4.7661941e-07
4.7688847e-07
4.7730205e-07
4.7765404e-07
4.7844254e-07
4.7892082e-07
4.7969348e-07
4.8008126e-07
4.80762e-07
4.8156479e-07
4.8308814e-07
4.8393454e-07
4.8635174e-07
4.8730326e-07
4.8988261e-07
4.9195124e-07
4.9606332e-07
4.9887077e-07
5.0272799e-07
5.0537389e-07
5.1137109e-07
5.1400968e-07
5.2115724e-07
5.2706266e-07
5.3623172e-07
5.4302611e-07
5.4957417e-07
3.9371697e-06
3.0218306e-06
2.44897e-06
2.0625632e-06
1.7844064e-06
1.5714312e-06
1.4018036e-06
1.2650099e-06
1.1546238e-06
1.0647587e-06
9.8988122e-07
9.2630116e-07
8.7160731e-07
8.2465112e-07
7.8495652e-07
7.518532e-07
7.237658e-07
6.9936397e-07
6.7745893e-07
6.5673021e-07
6.3684171e-07
6.1765452e-07
5.9898611e-07
5.8102302e-07
5.6381468e-07
5.4759898e-07
5.3262027e-07
5.1912108e-07
5.0696917e-07
4.9670445e-07
4.8790578e-07
4.8060829e-07
4.7445998e-07
4.6954945e-07
4.6547294e-07
4.6254525e-07
4.6019689e-07
4.590618e-07
4.58477e-07
4.5849621e-07
4.5854217e-07
4.5878406e-07
4.5905704e-07
4.5992701e-07
4.6052756e-07
4.6179572e-07
4.624425e-07
4.6379776e-07
4.6446908e-07
4.657393e-07
4.6627752e-07
4.6750272e-07
4.6807139e-07
4.6927252e-07
4.6992738e-07
4.7082721e-07
4.7179832e-07
4.7255606e-07
4.7319465e-07
4.7388392e-07
4.7464129e-07
4.750298e-07
4.7585597e-07
4.7620971e-07
4.7663425e-07
4.768825e-07
4.7746661e-07
4.7804263e-07
4.7871019e-07
4.7899665e-07
4.796464e-07
4.803957e-07
4.8188951e-07
4.8254913e-07
4.8468173e-07
4.8560887e-07
4.8785897e-07
4.9011111e-07
4.936971e-07
4.9554413e-07
5.0031917e-07
5.0308169e-07
5.0750983e-07
5.0998606e-07
5.168598e-07
5.2222032e-07
5.3069537e-07
5.3854317e-07
5.4651089e-07
3.9379434e-06
3.0230587e-06
2.4502404e-06
2.0638263e-06
1.785678e-06
1.5726989e-06
1.4029996e-06
1.2661417e-06
1.1556545e-06
1.0657299e-06
9.9080562e-07
9.2718504e-07
8.7246642e-07
8.25436e-07
7.8568015e-07
7.5250126e-07
7.2437635e-07
6.9997669e-07
6.780371e-07
6.573254e-07
6.3744311e-07
6.1828199e-07
5.996145e-07
5.816524e-07
5.6446666e-07
5.4824703e-07
5.3321085e-07
5.1964221e-07
5.0746951e-07
4.9714819e-07
4.8829448e-07
4.8087118e-07
4.7465055e-07
4.6969011e-07
4.6556288e-07
4.6260565e-07
4.6018095e-07
4.5896537e-07
4.5832487e-07
4.582902e-07
4.5837379e-07
4.5855182e-07
4.5886117e-07
4.5967263e-07
4.6026539e-07
4.615104e-07
4.6216566e-07
4.6354183e-07
4.6410341e-07
4.6536835e-07
4.6586509e-07
4.6698657e-07
4.6757886e-07
4.6869466e-07
4.6939556e-07
4.7017444e-07
4.7108265e-07
4.7208647e-07
4.7246982e-07
4.7321622e-07
4.7388704e-07
4.7434937e-07
4.7504114e-07
4.7535006e-07
4.7577773e-07
4.7611231e-07
4.7664042e-07
4.7710346e-07
4.7771557e-07
4.7805074e-07
4.7864649e-07
4.7929368e-07
4.8050267e-07
4.8130563e-07
4.8297701e-07
4.8416109e-07
4.8630521e-07
4.8845931e-07
4.9177244e-07
4.9403187e-07
4.9727316e-07
4.9944419e-07
5.041163e-07
5.0787529e-07
5.1551309e-07
5.2035907e-07
5.2655707e-07
5.3179416e-07
5.4140291e-07
3.9387004e-06
3.0242126e-06
2.4515009e-06
2.0650532e-06
1.7868663e-06
1.5738785e-06
1.4041443e-06
1.2672427e-06
1.1566639e-06
1.0666579e-06
9.9168537e-07
9.2804092e-07
8.7327823e-07
8.2618904e-07
7.8636749e-07
7.5311724e-07
7.2492041e-07
7.0051993e-07
6.785758e-07
6.5787277e-07
6.3798359e-07
6.1884398e-07
6.0018701e-07
5.8220581e-07
5.650383e-07
5.4881436e-07
5.3372228e-07
5.2007618e-07
5.0784221e-07
4.974e-07
4.8844492e-07
4.8092796e-07
4.7466554e-07
4.6966048e-07
4.6549263e-07
4.6243227e-07
4.5995041e-07
4.586475e-07
4.5791474e-07
4.5788497e-07
4.5793669e-07
4.5807666e-07
4.5833963e-07
4.5906686e-07
4.5961024e-07
4.6081931e-07
4.6145046e-07
4.6273735e-07
4.6328654e-07
4.6452833e-07
4.6503906e-07
4.6602926e-07
4.6678955e-07
4.6779371e-07
4.6831107e-07
4.6910558e-07
4.6987552e-07
4.7086907e-07
4.7118948e-07
4.717819e-07
4.7246622e-07
4.7297831e-07
4.7358646e-07
4.7386779e-07
4.7410781e-07
4.745257e-07
4.7504309e-07
4.7549752e-07
4.7589386e-07
4.7623306e-07
4.7701152e-07
4.774712e-07
4.7868343e-07
4.7960075e-07
4.8103586e-07
4.8210645e-07
4.8455469e-07
4.8640747e-07
4.8893645e-07
4.9103665e-07
4.9419404e-07
4.9693447e-07
5.0149045e-07
5.044063e-07
5.1141429e-07
5.1823593e-07
5.2313164e-07
5.2695804e-07
5.3506979e-07
3.9394133e-06
3.0253396e-06
2.4526881e-06
2.0662186e-06
1.7880018e-06
1.5750268e-06
1.4052569e-06
1.2682886e-06
1.1576082e-06
1.0675368e-06
9.9251019e-07
9.288298e-07
8.7402671e-07
8.2686728e-07
7.8697863e-07
7.5366485e-07
7.2542348e-07
7.0099716e-07
6.7903741e-07
6.5835106e-07
6.3844617e-07
6.1932422e-07
6.0066754e-07
5.8266131e-07
5.6547537e-07
5.4919623e-07
5.3400189e-07
5.2023968e-07
5.0793834e-07
4.9741393e-07
4.8833877e-07
4.8070458e-07
4.7433861e-07
4.6922537e-07
4.6503352e-07
4.6187288e-07
4.5933869e-07
4.5791622e-07
4.5709346e-07
4.5697748e-07
4.5699486e-07
4.5713432e-07
4.5733569e-07
4.5797597e-07
4.5845059e-07
4.5956471e-07
4.6019342e-07
4.6134574e-07
4.6182747e-07
4.6296698e-07
4.6338095e-07
4.6419411e-07
4.6499395e-07
4.6592574e-07
4.6636813e-07
4.6703621e-07
4.679538e-07
4.6868575e-07
4.6899147e-07
4.6962871e-07
4.7034595e-07
4.7075261e-07
4.7124092e-07
4.7155585e-07
4.7174296e-07
4.7205137e-07
4.7258752e-07
4.7306886e-07
4.7332964e-07
4.7370832e-07
4.7449037e-07
4.7474795e-07
4.7622453e-07
4.7704615e-07
4.7842577e-07
4.7944721e-07
4.8212142e-07
4.8346901e-07
4.8507167e-07
4.87197e-07
4.9136704e-07
4.9410811e-07
4.9850498e-07
5.0109214e-07
5.0740049e-07
5.120084e-07
5.1823497e-07
5.2517393e-07
5.313874e-07
3.9401218e-06
3.0264342e-06
2.4538353e-06
2.0673159e-06
1.7891203e-06
1.5761301e-06
1.4063218e-06
1.2692699e-06
1.1584874e-06
1.0683489e-06
9.9327982e-07
9.2954245e-07
8.7468937e-07
8.2746102e-07
7.8748315e-07
7.5409745e-07
7.2578761e-07
7.0131794e-07
6.7931638e-07
6.5861294e-07
6.3867686e-07
6.1953283e-07
6.0084317e-07
5.8277021e-07
5.6553988e-07
5.4921584e-07
5.3390517e-07
5.2001262e-07
5.0761604e-07
4.969363e-07
4.8766905e-07
4.7988945e-07
4.7335935e-07
4.6812488e-07
4.6381235e-07
4.6054029e-07
4.5792549e-07
4.5635374e-07
4.5539159e-07
4.5513631e-07
4.5514078e-07
4.5523418e-07
4.5538754e-07
4.5582151e-07
4.5619618e-07
4.5716057e-07
4.5778621e-07
4.587985e-07
4.5927441e-07
4.6022161e-07
4.6052184e-07
4.6124355e-07
4.6198509e-07
4.6275098e-07
4.6315723e-07
4.6374088e-07
4.6457376e-07
4.6502807e-07
4.6530727e-07
4.6595842e-07
4.6644996e-07
4.6682849e-07
4.6721317e-07
4.6746714e-07
4.6775315e-07
4.6799299e-07
4.684254e-07
4.6886891e-07
4.6916691e-07
4.6968195e-07
4.7029097e-07
4.7081515e-07
4.7186623e-07
4.7269609e-07
4.7454223e-07
4.7544181e-07
4.774796e-07
4.7889455e-07
4.8129697e-07
4.8360119e-07
4.8698808e-07
4.8901619e-07
4.9379702e-07
4.9735629e-07
5.0371603e-07
5.0762477e-07
5.1298672e-07
5.1865176e-07
5.2544966e-07
3.9407766e-06
3.0274486e-06
2.454919e-06
2.0684057e-06
1.7901644e-06
1.5771731e-06
1.4073218e-06
1.2701948e-06
1.1593014e-06
1.0690861e-06
9.9395272e-07
9.3016004e-07
8.7520213e-07
8.2787792e-07
7.8776311e-07
7.5426799e-07
7.2584647e-07
7.0128807e-07
6.7923244e-07
6.5848181e-07
6.3848152e-07
6.1928921e-07
6.0054707e-07
5.823618e-07
5.6502805e-07
5.485624e-07
5.3305666e-07
5.1896732e-07
5.064167e-07
4.9550621e-07
4.8601087e-07
4.7804091e-07
4.7130229e-07
4.65872e-07
4.6140503e-07
4.579982e-07
4.5526773e-07
4.5347861e-07
4.5232589e-07
4.5191315e-07
4.5174204e-07
4.5178012e-07
4.5189136e-07
4.5217197e-07
4.524628e-07
4.5324798e-07
4.5377817e-07
4.545458e-07
4.5492593e-07
4.5559065e-07
4.5580636e-07
4.5632407e-07
4.5695072e-07
4.5759293e-07
4.578404e-07
4.5830523e-07
4.5890703e-07
4.5928579e-07
4.5958917e-07
4.6006895e-07
4.6042776e-07
4.6081604e-07
4.6112505e-07
4.6135519e-07
4.6165143e-07
4.6177289e-07
4.6209505e-07
4.6250161e-07
4.6282507e-07
4.6338644e-07
4.6386603e-07
4.6456027e-07
4.656115e-07
4.6636339e-07
4.6802472e-07
4.6921329e-07
4.7147571e-07
4.7249157e-07
4.7512446e-07
4.770256e-07
4.8047053e-07
4.8242352e-07
4.8693278e-07
4.9049235e-07
4.9719758e-07
5.0146333e-07
5.0609106e-07
5.0937047e-07
5.1537321e-07
3.9414433e-06
3.0284554e-06
2.4559661e-06
2.0694302e-06
1.7911593e-06
1.5781114e-06
1.4082195e-06
1.2709987e-06
1.1599421e-06
1.0696026e-06
9.9432452e-07
9.304056e-07
8.7531469e-07
8.278624e-07
7.8755519e-07
7.5387602e-07
7.252775e-07
7.005515e-07
6.7835823e-07
6.5749851e-07
6.3735563e-07
6.1802333e-07
5.9917404e-07
5.8081096e-07
5.6328833e-07
5.4655876e-07
5.3078914e-07
5.1641139e-07
5.0364526e-07
4.923881e-07
4.8260893e-07
4.7435165e-07
4.6737172e-07
4.6169528e-07
4.5701874e-07
4.5343333e-07
4.5055664e-07
4.4853323e-07
4.4715682e-07
4.4650165e-07
4.4612603e-07
4.4605499e-07
4.4608713e-07
4.46176e-07
4.4635063e-07
4.4687513e-07
4.4728621e-07
4.4776796e-07
4.4801948e-07
4.4843324e-07
4.4857885e-07
4.4886119e-07
4.4942079e-07
4.4984314e-07
4.4998879e-07
4.5035466e-07
4.5066352e-07
4.5089068e-07
4.5113454e-07
4.5141213e-07
4.5156239e-07
4.5185672e-07
4.5219889e-07
4.5238299e-07
4.5256459e-07
4.5266875e-07
4.5296181e-07
4.5330183e-07
4.5371292e-07
4.5426541e-07
4.5453825e-07
4.5546638e-07
4.5657648e-07
4.5735526e-07
4.5877599e-07
4.6025471e-07
4.6276859e-07
4.6342579e-07
4.656156e-07
4.676893e-07
4.7098375e-07
4.7315597e-07
4.7856753e-07
4.8191269e-07
4.8719884e-07
4.8978e-07
4.9395048e-07
4.9712291e-07
5.0352525e-07
3.9420374e-06
3.0293986e-06
2.4569545e-06
2.0703463e-06
1.7920393e-06
1.5789206e-06
1.4088801e-06
1.2714655e-06
1.1601348e-06
1.0695789e-06
9.9412637e-07
9.2994805e-07
8.7463446e-07
8.2689261e-07
7.8619997e-07
7.5217123e-07
7.2326333e-07
6.9822356e-07
6.7580643e-07
6.5474181e-07
6.3444537e-07
6.1491588e-07
5.9590565e-07
5.7728037e-07
5.595209e-07
5.424224e-07
5.2635953e-07
5.1160816e-07
4.9856949e-07
4.8689689e-07
4.7678378e-07
4.6809779e-07
4.6085431e-07
4.5479035e-07
4.4993947e-07
4.4604316e-07
4.4299495e-07
4.4069432e-07
4.3909443e-07
4.3814609e-07
4.3755932e-07
4.3720985e-07
4.3707417e-07
4.3701297e-07
4.3703479e-07