/*--------------------------------*- C++ -*----------------------------------*\
| =========                 |                                                 |
| \\      /  F ield         | OpenFOAM: The Open Source CFD Toolbox           |
|  \\    /   O peration     | Version:  2406                                  |
|   \\  /    A nd           | Website:  www.openfoam.com                      |
|    \\/     M anipulation  |                                                 |
\*---------------------------------------------------------------------------*/
FoamFile
{
    version     2.0;
    format      ascii;
    arch        "LSB;label=32;scalar=64";
    class       volScalarField;
    location    "20";
    object      p;
}
// * * * * * * * * * * * * * * * * * * * * * * * * * * * * * * * * * * * * * //

dimensions      [1 -1 -2 0 0 0 0];

internalField   nonuniform List<scalar> 
96472
(
1.0100401
1.0200833
1.0187622
1.0168676
1.0164326
1.0178153
1.0177714
1.0170133
1.0159983
1.0146903
1.0131996
1.0121834
1.0115378
1.0111587
1.0108136
1.0101671
1.0093522
1.0086359
1.0080418
1.0075125
1.007113
1.0067957
1.0066004
1.0065746
1.0065969
1.0065707
1.0063181
1.006453
1.0066139
1.0066803
1.0068145
1.0070205
1.0072456
1.0074569
1.0076903
1.0079643
1.0082355
1.0084804
1.0087256
1.0089361
1.0091567
1.0091752
1.0096561
1.0094144
1.0095462
1.0097863
1.0095496
1.0097784
1.0094335
1.0097065
1.0095612
1.0094104
1.0093151
1.0091711
1.0091752
1.0099895
1.0199275
1.0185826
1.0167323
1.0163392
1.0177732
1.0178503
1.0171982
1.0162262
1.0149578
1.0134515
1.0124145
1.0117723
1.0113878
1.0110042
1.0103982
1.0095573
1.0087414
1.0081922
1.0076537
1.00722
1.0068896
1.0066876
1.0067052
1.0065693
1.006609
1.0065019
1.0064241
1.0065863
1.006782
1.0069039
1.0070414
1.0071997
1.0074191
1.0076081
1.0078695
1.0081231
1.0083977
1.0086246
1.0088314
1.0089696
1.0092678
1.0091846
1.0095174
1.0094599
1.009534
1.0095903
1.0094803
1.0096171
1.0095566
1.0093927
1.0094059
1.0092498
1.0092697
1.0090156
1.0099401
1.0197701
1.0184016
1.0165979
1.0162503
1.0177408
1.0179326
1.0174024
1.0164653
1.0152094
1.0137029
1.0126594
1.0120054
1.0116151
1.0112097
1.0105691
1.0097699
1.0089223
1.0082497
1.0077389
1.0072891
1.0069165
1.0067416
1.0066699
1.0067023
1.0065194
1.0065738
1.0065351
1.0065615
1.0067271
1.0069079
1.0070522
1.0071979
1.0073717
1.0075797
1.0077997
1.0080456
1.0082688
1.0085237
1.0086944
1.0089327
1.0089904
1.0092844
1.009172
1.0094627
1.00929
1.0094038
1.0095185
1.0094541
1.0093504
1.0093539
1.009456
1.0092168
1.0092118
1.0088618
1.0098911
1.0196224
1.0182394
1.0164855
1.0161685
1.0177128
1.0180303
1.0175785
1.0166991
1.0154404
1.0139401
1.0129003
1.0122383
1.0118421
1.0114213
1.0107476
1.0099094
1.009106
1.008386
1.0077992
1.0073405
1.0069807
1.006774
1.0066725
1.0067644
1.0066284
1.006508
1.0065597
1.00665
1.0067343
1.0068771
1.0070387
1.0072035
1.0073509
1.0075284
1.0077538
1.0079689
1.0082433
1.0084081
1.0086287
1.0087564
1.0090074
1.0089671
1.0093022
1.0090694
1.009391
1.0093992
1.0092297
1.0092968
1.0093498
1.00941
1.0091485
1.0091768
1.0089131
1.0094167
1.0098468
1.0194767
1.0180756
1.0163665
1.0160953
1.017683
1.0181336
1.0177811
1.0169281
1.0156863
1.0141783
1.0131211
1.0124756
1.0120668
1.0116273
1.0109539
1.0100769
1.0092148
1.0085544
1.0079184
1.0074308
1.0070892
1.0068415
1.0068214
1.0067079
1.0067298
1.0065829
1.0065318
1.0066517
1.0067952
1.006903
1.0070353
1.0071688
1.007305
1.0074739
1.0076666
1.0079015
1.008099
1.0083695
1.0084902
1.0087178
1.0087781
1.0090393
1.0089122
1.0092854
1.0091801
1.0089988
1.0093645
1.0093238
1.009228
1.0091555
1.0091114
1.0092141
1.0094293
1.0085727
1.0097992
1.0193385
1.0179206
1.0162624
1.0160176
1.0176679
1.0182112
1.0179803
1.0171571
1.0159537
1.0144409
1.0133624
1.0126949
1.012291
1.0118251
1.011144
1.0102821
1.0093628
1.0086306
1.0080112
1.0075132
1.0071208
1.0068883
1.0068314
1.0067839
1.0066586
1.006657
1.0066173
1.0066288
1.0067843
1.0069137
1.0070358
1.0071432
1.0073124
1.0074438
1.0076164
1.007815
1.008068
1.008212
1.0084733
1.0085639
1.00878
1.0087725
1.0090855
1.0089644
1.0089409
1.0093855
1.0090708
1.0089992
1.0091838
1.00911
1.0094312
1.0089374
1.0088396
1.0091456
1.0097558
1.0192036
1.0177737
1.0161585
1.0159553
1.0176484
1.0183177
1.0181938
1.017396
1.0161724
1.0146674
1.0136068
1.012926
1.0125189
1.01203
1.0113142
1.0104486
1.0095618
1.0087338
1.0080596
1.0075565
1.0071408
1.0069402
1.0067725
1.0068666
1.0066897
1.0066259
1.0066475
1.0066802
1.0067787
1.0069004
1.0070235
1.0071584
1.0072935
1.0074288
1.0076089
1.0078155
1.0079347
1.0082385
1.0083165
1.0085347
1.0086227
1.0088346
1.0087904
1.0089067
1.009197
1.0088741
1.0089453
1.0092596
1.0091035
1.0092649
1.0085335
1.0094659
1.0089398
1.0091158
1.0097115
1.0190793
1.017632
1.0160819
1.0159007
1.0176332
1.018412
1.0183848
1.0176392
1.0164065
1.0149149
1.013828
1.0131583
1.0127441
1.012239
1.0115049
1.0105964
1.0096868
1.0089
1.0081755
1.0076209
1.0072442
1.0069972
1.0068867
1.0068173
1.0067982
1.0066729
1.006621
1.006694
1.0068118
1.0069191
1.0070251
1.0071483
1.0072603
1.0073801
1.0075501
1.0077067
1.007977
1.0080453
1.008341
1.0084183
1.0085668
1.0086497
1.0087955
1.0089561
1.0087606
1.0089385
1.0092147
1.0089575
1.0088895
1.0087126
1.0096911
1.0087155
1.0090656
1.0088599
1.0096714
1.0189558
1.0174962
1.0159865
1.0158368
1.0176237
1.0185054
1.0185857
1.0178529
1.016638
1.0151491
1.0140533
1.0133754
1.012964
1.0124436
1.0116946
1.0107907
1.0098123
1.0090015
1.0082868
1.0077161
1.0073308
1.0070159
1.006969
1.0068394
1.0067761
1.006734
1.0066855
1.0066828
1.0068185
1.0069186
1.007029
1.0071632
1.0072301
1.0073862
1.0075183
1.0076938
1.0078143
1.0081048
1.0081769
1.0083606
1.0085189
1.0085914
1.0087039
1.0086627
1.00895
1.0090257
1.0088273
1.0087126
1.0091322
1.0093433
1.0086383
1.0089963
1.009033
1.0090871
1.0096308
1.0188389
1.0173604
1.0159082
1.0157868
1.0176179
1.0185872
1.0187857
1.0180739
1.0168722
1.015376
1.0142933
1.0135851
1.01318
1.0126438
1.0118771
1.0109734
1.0100104
1.0091036
1.0083464
1.0077947
1.007326
1.0070869
1.0069138
1.0069353
1.0067696
1.0067184
1.0067309
1.0067197
1.0068181
1.0069163
1.0070278
1.0071379
1.0072642
1.007377
1.0075241
1.0076637
1.0078677
1.0079674
1.0081807
1.0083461
1.0083882
1.0085627
1.00859
1.0088419
1.0087177
1.0087609
1.0087529
1.009276
1.0088642
1.0086907
1.0088646
1.0092146
1.0090358
1.0089652
1.0095896
1.0187188
1.0172373
1.0158346
1.0157445
1.0176092
1.0186699
1.0189836
1.0183075
1.0170811
1.0156041
1.0145245
1.0138084
1.0133863
1.0128456
1.0120611
1.0111382
1.0101718
1.0092676
1.0084485
1.0078452
1.0073941
1.0071646
1.0069603
1.0069285
1.0068549
1.0067521
1.0067165
1.0067416
1.0068286
1.0069324
1.0070223
1.0071453
1.00723
1.0073694
1.0074835
1.0076367
1.0077928
1.0079403
1.0081276
1.0082074
1.0084296
1.0084674
1.0086105
1.0085162
1.0088032
1.0087732
1.0091053
1.0085787
1.0088476
1.0087946
1.0095687
1.0085302
1.0090501
1.0087109
1.0095495
1.0186106
1.0171135
1.0157629
1.0156997
1.0175902
1.0187555
1.0191479
1.0185119
1.0172806
1.0158133
1.0147286
1.0140233
1.0136038
1.013044
1.0122474
1.0113265
1.0103017
1.0093923
1.0085909
1.0079258
1.007533
1.0071701
1.0070868
1.0069245
1.0068722
1.0068101
1.0067581
1.0067536
1.0068363
1.0069403
1.0070313
1.0071407
1.0072627
1.0073309
1.0075003
1.0076151
1.0077404
1.007957
1.0080072
1.0082552
1.0083237
1.0084058
1.0084501
1.0087191
1.0086128
1.0087967
1.0085784
1.0089498
1.008867
1.0094508
1.0080614
1.0092812
1.0090172
1.0090502
1.0095055
1.0184993
1.0169986
1.0156988
1.0156354
1.0175692
1.018826
1.0193279
1.018716
1.0175
1.016034
1.0149412
1.0142167
1.013796
1.0132406
1.012436
1.0115109
1.0104846
1.0095052
1.0086729
1.0080421
1.0075655
1.0072326
1.0070926
1.0070074
1.0068663
1.0068113
1.0068131
1.0067913
1.0068592
1.0069401
1.0070327
1.0071611
1.0072421
1.0073901
1.0074695
1.0076324
1.0077802
1.0078525
1.0080926
1.0081407
1.0082421
1.0084378
1.0085271
1.0084472
1.0086332
1.0086974
1.0088564
1.0088415
1.0089056
1.0082948
1.0093669
1.0091614
1.0084251
1.0094363
1.0094667
1.0183949
1.016889
1.0156327
1.0155981
1.0175753
1.0188845
1.0195073
1.0189114
1.0177005
1.0162281
1.0151776
1.0144234
1.0139855
1.0134328
1.0126168
1.0116891
1.0106778
1.0096786
1.0087724
1.008133
1.0075917
1.0073473
1.0070976
1.0070366
1.0069307
1.0068407
1.0068222
1.0068143
1.0068758
1.0069553
1.0070398
1.0071511
1.0072711
1.0073387
1.0075066
1.0076162
1.0077365
1.0079153
1.0079904
1.0080749
1.0083047
1.008323
1.0083776
1.008548
1.0086457
1.008618
1.0087263
1.0086104
1.0088462
1.0090599
1.0090765
1.0084631
1.0094009
1.0086949
1.0094257
1.0182913
1.016793
1.0156027
1.0155717
1.0175538
1.018934
1.0196393
1.0190937
1.0178823
1.0164124
1.0153623
1.0146179
1.0141764
1.0136182
1.0127961
1.0118773
1.0108428
1.0098278
1.0089372
1.0082034
1.0077347
1.0073805
1.0072155
1.0070396
1.0069746
1.0069037
1.0068523
1.0068464
1.0068894
1.0069684
1.0070577
1.007177
1.0072617
1.0073826
1.0074693
1.0076273
1.0077371
1.0078544
1.007941
1.0081276
1.0081757
1.0083249
1.008439
1.0084842
1.0085289
1.0086052
1.0086437
1.0089466
1.0086688
1.0090364
1.0085238
1.0089842
1.0093918
1.0087349
1.0093892
1.0181962
1.0167014
1.015548
1.0155299
1.0175256
1.0189982
1.0197674
1.0192752
1.0180575
1.0166164
1.0155399
1.0148
1.0143492
1.0137924
1.0129698
1.0120649
1.0110258
1.0099544
1.0090469
1.0083166
1.0078439
1.0074198
1.0072858
1.007107
1.0069836
1.0069265
1.0068975
1.0068924
1.0069207
1.0069828
1.0070761
1.0071695
1.007292
1.0073742
1.0075159
1.0076168
1.0077593
1.0078378
1.0079966
1.0080418
1.0082073
1.0082782
1.008328
1.008454
1.0085165
1.0086151
1.0088042
1.0084814
1.0089941
1.0084337
1.0092789
1.0092198
1.0083739
1.0094127
1.009354
1.0181053
1.0166119
1.0154969
1.0154709
1.0174984
1.0190397
1.0199203
1.0194257
1.0182323
1.0167822
1.0157463
1.0149576
1.0145178
1.0139594
1.0131391
1.0122362
1.0112097
1.0101203
1.0091419
1.0084434
1.0078672
1.0075421
1.0072956
1.0071592
1.0070308
1.0069532
1.0069272
1.0069231
1.0069519
1.0070024
1.0070869
1.0071848
1.0072825
1.0073895
1.007495
1.0076506
1.0077489
1.0078722
1.0079448
1.0080886
1.0081117
1.008225
1.0083602
1.0084451
1.0084599
1.0086511
1.0084576
1.0088319
1.0085916
1.0093092
1.0084266
1.0090597
1.0090383
1.0090715
1.0093185
1.0180205
1.0165381
1.0154676
1.0154502
1.0174805
1.0190735
1.0200502
1.0195834
1.018402
1.0169378
1.0159261
1.0151353
1.0146643
1.0141229
1.0133018
1.0124007
1.0113809
1.0102821
1.009299
1.0085235
1.0079622
1.0076208
1.0073729
1.0071816
1.0070836
1.0070094
1.0069673
1.0069516
1.0069784
1.0070233
1.0070997
1.0072075
1.0072978
1.0074003
1.0075033
1.0076354
1.0077597
1.0078703
1.00795
1.0079982
1.0081482
1.0082389
1.0083202
1.0082981
1.0086042
1.0084394
1.0086738
1.0087185
1.0087999
1.0085424
1.009157
1.0087098
1.0092488
1.0090304
1.0092936
1.0179322
1.0164688
1.0154402
1.015423
1.0174392
1.0191187
1.0201404
1.0197328
1.018553
1.01713
1.0160743
1.015291
1.014815
1.0142795
1.013448
1.012565
1.0115511
1.0104257
1.0094502
1.0086172
1.0081063
1.0076559
1.0074716
1.0072447
1.0071162
1.0070441
1.0070031
1.0069914
1.0070142
1.0070509
1.0071151
1.0072168
1.0073142
1.0073827
1.0075496
1.0076361
1.0077703
1.0078726
1.0079197
1.0080611
1.0081063
1.0082029
1.0082165
1.0084978
1.008343
1.0085385
1.0087004
1.0084884
1.0088895
1.008606
1.0091729
1.0087468
1.0091891
1.0088978
1.0092586
1.0178622
1.0164046
1.01541
1.0153772
1.0174086
1.0191356
1.0202243
1.01985
1.0186919
1.0172788
1.0162221
1.0154053
1.0149583
1.0144044
1.013586
1.0127142
1.0117207
1.0105944
1.0095543
1.0087551
1.0081661
1.0077543
1.0075129
1.0073037
1.0071529
1.0070744
1.007037
1.0070325
1.0070424
1.0070799
1.0071338
1.0072178
1.0073162
1.0074169
1.0075
1.0076614
1.0078009
1.007873
1.0079759
1.0080038
1.0081092
1.0081785
1.0083493
1.0082357
1.0084351
1.0085983
1.0084354
1.0088136
1.0084419
1.0092518
1.0082365
1.0094415
1.0087979
1.0090677
1.0092436
1.0177791
1.0163405
1.0153756
1.0153312
1.0173863
1.0191241
1.0203148
1.0199543
1.0188223
1.0173845
1.0163743
1.015536
1.0150618
1.0145355
1.0137288
1.0128535
1.0118784
1.0107546
1.0096896
1.0088654
1.0082202
1.0078543
1.0075688
1.0073385
1.0071972
1.0071178
1.0070802
1.0070707
1.0070672
1.0071042
1.0071542
1.0072315
1.0073254
1.0074075
1.0075237
1.0076421
1.0077876
1.0078998
1.007946
1.0080265
1.008098
1.0081909
1.0081839
1.0083148
1.0084536
1.0084009
1.0086181
1.0085548
1.0088533
1.0085524
1.0089365
1.0091802
1.0084476
1.0095425
1.0092116
1.0177192
1.0162984
1.0153515
1.01532
1.0173516
1.0191298
1.0203803
1.0200592
1.0189292
1.0175018
1.016489
1.0156625
1.0151637
1.0146608
1.0138447
1.0129857
1.0120258
1.0108909
1.0098437
1.0089457
1.0083397
1.0078995
1.007652
1.0073901
1.0072428
1.0071475
1.0071122
1.0071021
1.0070947
1.007129
1.0071608
1.0072428
1.0073302
1.0074029
1.0075252
1.0076437
1.0078005
1.0078699
1.0079674
1.008044
1.0080746
1.008137
1.0082048
1.0083692
1.0082775
1.0085015
1.0085047
1.0086306
1.0087428
1.0085085
1.0093278
1.0082521
1.0094207
1.0089521
1.0092041
1.017636
1.0162612
1.0153346
1.0152968
1.0172965
1.0191442
1.0204247
1.0201497
1.0190256
1.0176405
1.0166017
1.0157425
1.0152667
1.0147516
1.0139563
1.0131112
1.012168
1.0110385
1.0099664
1.0090627
1.0084357
1.0079669
1.0077158
1.0074461
1.0072832
1.0071709
1.0071429
1.0071333
1.0071192
1.0071519
1.0071902
1.0072456
1.0073223
1.0074259
1.0074985
1.0076599
1.0077802
1.007887
1.0079889
1.0080255
1.0081004
1.0081127
1.0082679
1.008164
1.0084186
1.0084007
1.0085195
1.0086439
1.0084606
1.0090156
1.0085799
1.0087837
1.0093895
1.0086206
1.0091807
1.0175861
1.0162331
1.015323
1.0152491
1.0172585
1.0191269
1.0204727
1.0202117
1.0191318
1.017736
1.0167154
1.015819
1.015337
1.0148298
1.0140525
1.0132151
1.0122938
1.0111829
1.0100829
1.009193
1.0084931
1.0080517
1.0077664
1.0074896
1.0073171
1.0071963
1.007171
1.0071595
1.0071356
1.0071661
1.0071981
1.0072458
1.0073116
1.0074068
1.0075075
1.0076261
1.0077585
1.0078849
1.0079691
1.0080472
1.0080699
1.0081654
1.0081178
1.0082987
1.0082962
1.0083962
1.0085039
1.0084567
1.0087487
1.0086687
1.0086261
1.0092551
1.0085129
1.0091985
1.0091734
1.0175065
1.0162078
1.0153161
1.015227
1.0172393
1.0190856
1.0204964
1.0202739
1.01922
1.0178055
1.0167932
1.0159208
1.0153978
1.0149196
1.0141452
1.0133194
1.0124119
1.0113079
1.0102191
1.0092886
1.0085799
1.0081067
1.007826
1.007535
1.0073547
1.0072206
1.0071936
1.0071832
1.00715
1.0071877
1.007218
1.0072517
1.0073148
1.0074073
1.0074908
1.007613
1.0077422
1.0078531
1.0079654
1.0080256
1.0081091
1.0081067
1.008175
1.0082214
1.0082697
1.008411
1.0083685
1.0085911
1.0085802
1.0086301
1.0088848
1.0087583
1.0088108
1.0090753
1.00917
1.0174791
1.0161838
1.015321
1.0152031
1.0171997
1.0190683
1.0204923
1.0203276
1.0192704
1.0178838
1.0168521
1.0159836
1.0154611
1.0149838
1.0142207
1.0134028
1.0125161
1.0114218
1.0103394
1.0093766
1.0086597
1.008152
1.0078711
1.0075759
1.00739
1.0072391
1.0072091
1.0071964
1.007164
1.0071773
1.0072085
1.0072485
1.0073023
1.0073764
1.0074753
1.0075978
1.0077204
1.0078415
1.0079292
1.0079991
1.008094
1.0081321
1.0081809
1.0081621
1.0083013
1.0082543
1.008484
1.0084735
1.0085383
1.008678
1.008714
1.0087157
1.0090351
1.0088263
1.0091563
1.0173894
1.0161824
1.0153239
1.0151806
1.0171531
1.0190264
1.0204892
1.0203459
1.0193232
1.0179475
1.0169206
1.0160135
1.0154976
1.0150184
1.0142829
1.0134781
1.0126086
1.0115354
1.010436
1.0094876
1.008732
1.0082128
1.0079258
1.007595
1.0074161
1.0072433
1.0072065
1.0072017
1.0071607
1.0072103
1.0072157
1.0072245
1.0073177
1.0073616
1.0074412
1.0075857
1.0076659
1.007793
1.0079626
1.0080028
1.0080298
1.0081279
1.0081297
1.0082162
1.0081932
1.0083238
1.0083715
1.008448
1.0085608
1.0085304
1.008776
1.0086514
1.0089164
1.0089049
1.0089354
1.0090491
1.0090618
1.0090626
1.0092209
1.0091576
1.009054
1.0092115
1.0092704
1.0090446
1.0091553
1.0090709
1.0090471
1.0092471
1.0088186
1.0089724
1.0091619
1.0088733
1.008926
1.0089791
1.00881
1.008927
1.0089638
1.008764
1.0089485
1.0088628
1.0088158
1.0091236
1.0091115
1.0091693
1.0092706
1.0092063
1.0092885
1.0093078
1.009197
1.0092184
1.0093013
1.0091168
1.0091554
1.0092478
1.008879
1.0092442
1.0089547
1.0089119
1.0090412
1.0087957
1.0089014
1.0087965
1.0087903
1.0087088
1.0087364
1.0086481
1.0086631
1.0086091
1.0091671
1.0093786
1.0092541
1.0093359
1.0094768
1.009254
1.0093886
1.0094002
1.0092468
1.0093131
1.0092687
1.0092293
1.0090868
1.0093054
1.0088973
1.0091444
1.0089519
1.0088434
1.0089695
1.0086298
1.0088774
1.0085212
1.0087252
1.00844
1.0085442
1.0084058
1.00834
1.0093807
1.0093292
1.00958
1.0093852
1.0094002
1.0096411
1.0092741
1.0094742
1.0094622
1.0091987
1.0094596
1.0091638
1.0092929
1.0090486
1.0091953
1.00893
1.0089604
1.0089033
1.0086799
1.008874
1.0084164
1.0087756
1.0082261
1.0085716
1.0081486
1.0083043
1.0082363
1.009567
1.0094715
1.0094971
1.0096502
1.0094912
1.0094903
1.0096644
1.0093515
1.0094719
1.0095171
1.009157
1.0094745
1.0090951
1.0091814
1.0090361
1.0089829
1.0088816
1.0087661
1.0087632
1.0085075
1.0086304
1.0082535
1.0084515
1.0080522
1.0082672
1.0078969
1.0079169
1.0096493
1.0095403
1.0095824
1.0097046
1.009613
1.0095595
1.0096292
1.0095612
1.0094453
1.0094277
1.0094557
1.0091852
1.0092934
1.009087
1.0089553
1.0089922
1.0087435
1.0087317
1.0085972
1.0084998
1.0083349
1.0082675
1.0081562
1.0079821
1.0078959
1.0078928
1.0076433
1.0095811
1.0099026
1.0096428
1.0096259
1.0098951
1.009587
1.0095822
1.0097199
1.0094457
1.0094777
1.009401
1.00926
1.0091921
1.0090627
1.0090029
1.0087187
1.0088534
1.0085416
1.0085281
1.0083149
1.0082958
1.0080073
1.0079918
1.0078571
1.0077333
1.0075222
1.0076434
1.009642
1.009806
1.0098629
1.0096864
1.0097226
1.0098253
1.0095498
1.0096094
1.0095899
1.0094165
1.0093931
1.0092493
1.0092464
1.0088872
1.0090284
1.0087865
1.0085203
1.0086624
1.0081738
1.0084311
1.0078306
1.0081888
1.007529
1.0078411
1.0073419
1.0074788
1.0071275
1.0098602
1.009746
1.009917
1.0097703
1.0096321
1.0098165
1.0096782
1.0094963
1.0096134
1.0093773
1.0092981
1.0092955
1.009011
1.0090813
1.0087393
1.0087533
1.0085511
1.0083394
1.0082725
1.0080578
1.0078901
1.0077991
1.007566
1.0074697
1.0072746
1.0071882
1.0068947
1.0098971
1.0097359
1.0098902
1.0098714
1.0096004
1.0097059
1.00971
1.009449
1.0095333
1.0093162
1.00927
1.0092012
1.0088799
1.009021
1.008593
1.0086792
1.0084117
1.008191
1.0081991
1.0077582
1.007901
1.007409
1.0075871
1.0070801
1.007188
1.006828
1.0068
1.0098231
1.0098036
1.0096988
1.0098946
1.0096165
1.0095105
1.0096856
1.0093725
1.0093272
1.0093362
1.0090866
1.0090529
1.008876
1.0087742
1.0085135
1.0084794
1.0083017
1.0079732
1.0080614
1.007597
1.0076756
1.0073636
1.0071713
1.0070993
1.006783
1.0066731
1.0064064
1.0098072
1.0097655
1.0095305
1.0097868
1.0096526
1.0092749
1.009574
1.0093512
1.009002
1.0093095
1.0089003
1.0087746
1.0088895
1.0084082
1.0084618
1.0082646
1.0080778
1.0078149
1.0078513
1.0074105
1.0074185
1.0071757
1.0069533
1.0068581
1.0065897
1.0063404
1.0062938
1.009699
1.0096473
1.0094528
1.0095212
1.0095135
1.0092078
1.0093362
1.0092525
1.0087875
1.0091383
1.0087159
1.0084681
1.0088587
1.0080201
1.0083199
1.0080459
1.0076869
1.0078897
1.0071992
1.0076269
1.006809
1.0071611
1.0065578
1.0066198
1.0063127
1.0061401
1.0059738
1.0094544
1.0095505
1.009312
1.0093169
1.0092203
1.009032
1.0091709
1.008887
1.0088179
1.0087478
1.0084202
1.0084421
1.0082263
1.0081446
1.0078195
1.0077766
1.0076448
1.0072909
1.0072891
1.0069957
1.0068388
1.006587
1.0065462
1.0060937
1.0061263
1.00581
1.0055817
1.009391
1.0092852
1.0090906
1.0090866
1.0090048
1.008694
1.0088832
1.0087462
1.0083586
1.0086558
1.0081718
1.0079136
1.0082264
1.0075577
1.0077445
1.0074025
1.0072564
1.0071985
1.0066941
1.0069509
1.0062917
1.0064828
1.0060293
1.0059603
1.0056361
1.0055074
1.0052795
1.0086195
1.0089565
1.0088116
1.0087169
1.0087536
1.0084875
1.0084955
1.0082849
1.0082023
1.0083206
1.00777
1.0077667
1.0077472
1.0072743
1.0074132
1.0071057
1.0068677
1.006822
1.0065323
1.0064157
1.0060676
1.0060809
1.0055882
1.005762
1.0051782
1.0051339
1.0049731
1.008081
1.0082432
1.0085174
1.0082825
1.0084251
1.0084069
1.0079126
1.0080661
1.0079406
1.0076409
1.0077574
1.0072883
1.0072969
1.0070447
1.0068593
1.0069001
1.0063523
1.006592
1.006023
1.0061356
1.0057094
1.0056198
1.0053049
1.0052444
1.0049487
1.0046869
1.0045346
1.0104835
1.0091014
1.0086586
1.0081875
1.0081733
1.0078721
1.0076951
1.0076978
1.0073583
1.0073353
1.0072611
1.0069502
1.0069127
1.006503
1.0065853
1.0062989
1.0060991
1.0060315
1.0056847
1.0056935
1.0052737
1.005339
1.0046859
1.0050265
1.0044485
1.004342
1.004124
1.0059079
1.0072265
1.0070498
1.0073987
1.0074039
1.0072604
1.0074134
1.0070595
1.0069432
1.0069724
1.0065031
1.0067265
1.0063147
1.0061073
1.0061557
1.0056522
1.0059739
1.0052482
1.0054478
1.0050915
1.0049485
1.004909
1.0042489
1.0046145
1.0038729
1.0039916
1.003696
1.0073829
1.0062404
1.0070743
1.0068657
1.0069962
1.0069312
1.0068181
1.00663
1.0065497
1.0063553
1.0061264
1.0060214
1.0059972
1.0056201
1.005488
1.0054016
1.0052487
1.0050483
1.0048102
1.0046399
1.0044327
1.004527
1.0038602
1.0040237
1.0034947
1.0035227
1.003146
1.0083881
1.0082844
1.0075102
1.0070877
1.0067426
1.0064926
1.0064684
1.0059928
1.0061954
1.0057961
1.0054492
1.0057161
1.0051464
1.0053218
1.0049085
1.0047867
1.0049235
1.0042471
1.0046789
1.0038787
1.004053
1.0037919
1.0035622
1.0034596
1.0030796
1.0029619
1.0026615
1.0057433
1.0057467
1.0058652
1.005883
1.0059052
1.0056337
1.0054828
1.0055582
1.0053438
1.0051526
1.0049014
1.0048666
1.0048669
1.0044225
1.0044094
1.0044527
1.004019
1.0038395
1.0039572
1.0035952
1.00332
1.0032273
1.0030779
1.0028645
1.0025296
1.0024588
1.002167
1.0053701
1.0052984
1.0052487
1.0051493
1.0051911
1.0048753
1.0046877
1.0049538
1.0045781
1.004525
1.0043287
1.0041362
1.0044917
1.0036208
1.0039161
1.0039364
1.0032966
1.0034699
1.0029644
1.0033613
1.00258
1.0027268
1.0024379
1.0023232
1.0020019
1.0017711
1.001612
1.0050699
1.0048258
1.0047247
1.0045799
1.0046159
1.0042411
1.0041838
1.0042531
1.004021
1.0040345
1.0036276
1.0036956
1.0037422
1.003124
1.0033399
1.0031553
1.0028791
1.002759
1.002349
1.0026954
1.0021294
1.0021564
1.0017525
1.0017175
1.0015878
1.0012013
1.0009325
1.0042684
1.0040031
1.0038284
1.003835
1.0040047
1.0035433
1.0034889
1.0035353
1.0033093
1.0034778
1.0028935
1.0030866
1.0030252
1.0024715
1.0027546
1.0022322
1.0024581
1.0021149
1.0017507
1.0019351
1.0014928
1.0016741
1.0010798
1.0012035
1.0007871
1.0007409
1.0004165
1.0035023
1.0030289
1.0030293
1.0030718
1.0031033
1.0029404
1.0025381
1.0027442
1.00269
1.0024918
1.0024429
1.002014
1.0023854
1.001925
1.0019148
1.0017406
1.0013607
1.0018862
1.0010049
1.00136
1.0007126
1.0008846
1.0007184
1.0003756
1.0002976
0.99989134
0.99994574
1.0026119
1.0022957
1.0023177
1.0023035
1.0022981
1.0021953
1.0018322
1.0020278
1.0018141
1.0017107
1.0017933
1.0012037
1.0017133
1.00118
1.0011747
1.0011643
1.0005045
1.0013348
1.0002433
1.0007385
1.0001934
1.000048
1.0001754
0.99952696
0.99988233
0.99914255
0.99936101
1.0019084
1.0017107
1.0016393
1.0016527
1.0016118
1.0015007
1.0013914
1.0012765
1.0010898
1.0012482
1.000873
1.0007828
1.0007802
1.0005066
1.0006511
1.000219
1.0002027
1.0002135
0.99979799
0.99985694
0.99966795
0.99945075
0.99930264
0.99902322
0.99897191
0.99878436
0.99856729
1.0005781
1.0008591
1.000898
1.0008974
1.000908
1.0008596
1.0006699
1.0006973
1.0006273
1.0004151
1.0004243
0.99994916
1.0001484
0.99995168
0.99972296
0.99963553
0.9993457
0.99960066
0.99912754
0.99936169
0.9987175
0.99870147
0.99863157
0.99853874
0.99835228
0.99802269
0.99780656
1.0017748
1.0008229
1.0006378
1.0004732
1.000231
0.99995285
0.99996234
1.0000255
0.99971967
0.99972177
0.99952083
0.99929593
0.99952923
0.99914179
0.99916448
0.99872165
0.99867864
0.99881506
0.9984176
0.99871891
0.99796299
0.9980673
0.99782846
0.99783764
0.99768823
0.99737848
0.99709193
1.0000446
1.0000636
0.99998762
0.99955724
0.99931061
0.99926777
0.9990548
0.99916571
0.9989521
0.99899885
0.9985316
0.9985592
0.99850686
0.99836064
0.99852376
0.99782486
0.99809805
0.9978546
0.99788178
0.99774848
0.99729004
0.99736897
0.99701361
0.99724364
0.99681586
0.99678986
0.9964
0.9977851
0.99781532
0.99830834
0.99819126
0.99813692
0.99820616
0.99803926
0.99819538
0.99812075
0.9977286
0.99776866
0.99764751
0.99762719
0.99764131
0.99755923
0.99725346
0.99717355
0.99704153
0.99710787
0.99691318
0.99661269
0.9965472
0.99641627
0.9963377
0.99615081
0.99604816
0.99576191
0.99726605
0.99740655
0.99747825
0.99740243
0.9973375
0.99731364
0.99714085
0.99719548
0.99718552
0.99698014
0.9970718
0.99683313
0.996846
0.99661287
0.99675698
0.99659091
0.99641644
0.99635739
0.99603761
0.99625903
0.99575829
0.99590482
0.99578077
0.99554413
0.99536048
0.99533364
0.99500867
0.99703155
0.9969025
0.99682127
0.99671759
0.99671285
0.99665191
0.99647708
0.99646943
0.99635964
0.99633841
0.99630894
0.99615455
0.99614137
0.99576541
0.99594167
0.99575599
0.99574965
0.99565042
0.99525711
0.99545554
0.99497763
0.99517763
0.99498656
0.99490144
0.99457723
0.99454894
0.99427471
0.99608112
0.99596254
0.99589864
0.99582607
0.99584867
0.99580115
0.99569357
0.99559027
0.99547967
0.99551091
0.99540236
0.99540325
0.99530096
0.99503451
0.99508064
0.9948686
0.99496313
0.99481567
0.99455982
0.99457365
0.99423939
0.99434042
0.99413356
0.99415568
0.99384826
0.99377701
0.99355156
0.99504478
0.99497522
0.99491242
0.99484502
0.99483059
0.99480812
0.99477954
0.99466318
0.99458075
0.99454069
0.99449557
0.99444841
0.99435456
0.99422408
0.99416774
0.99401319
0.99406102
0.99388945
0.99378506
0.99366446
0.99349582
0.99349047
0.99329623
0.99331955
0.9930564
0.99300347
0.99282297
0.99415575
0.99398713
0.99401699
0.99378733
0.99391744
0.99387737
0.99384268
0.99377105
0.99359078
0.99357524
0.99348092
0.99350117
0.99340944
0.99337657
0.9932456
0.99316425
0.99305354
0.99300268
0.99290808
0.99282267
0.99266117
0.99266112
0.99247604
0.99249352
0.99228598
0.99222683
0.99204705
0.99315333
0.99304129
0.99297659
0.992878
0.99295362
0.99293789
0.99290501
0.99277022
0.9926591
0.99265901
0.9926332
0.9925845
0.9925168
0.99239581
0.99234656
0.99220928
0.99224189
0.99213978
0.99210566
0.991941
0.99182524
0.99175699
0.99172008
0.99164042
0.9915067
0.99137151
0.99125497
0.99219103
0.99193868
0.99196689
0.99191002
0.99194464
0.99200822
0.991835
0.99181138
0.99168849
0.99170438
0.99171592
0.99166126
0.99163612
0.99142989
0.99147377
0.99132832
0.99140184
0.99124192
0.99121381
0.99098283
0.99098577
0.99090349
0.99098172
0.99080513
0.99068988
0.99051887
0.99048258
0.99096501
0.99085436
0.99085745
0.99092696
0.99081624
0.99102334
0.99069714
0.99080431
0.99067887
0.99074685
0.99076178
0.99060882
0.99069963
0.9904149
0.9905716
0.99041033
0.99051075
0.9902978
0.99034975
0.99008068
0.99011024
0.99005928
0.99017781
0.98990559
0.9898508
0.98970459
0.98969894
0.98976906
0.98965391
0.98964777
0.9897207
0.98968565
0.98987667
0.98966102
0.98970598
0.98966122
0.98968044
0.98979727
0.98958698
0.98974125
0.98942764
0.98964397
0.98937439
0.98965924
0.98930223
0.98951006
0.98920845
0.98929421
0.98914244
0.98924667
0.98913036
0.98898645
0.98893418
0.98883363
0.98869555
0.98856093
0.98848923
0.98854301
0.98860616
0.98874905
0.98874658
0.98864284
0.9885977
0.98850959
0.98874504
0.98862191
0.98880646
0.98846148
0.98868619
0.98832014
0.98874937
0.98839091
0.98863877
0.98836841
0.98838816
0.98834618
0.98822976
0.98840408
0.98812533
0.98820099
0.98800932
0.98744316
0.98756726
0.98753116
0.98752931
0.98758695
0.98768499
0.98774812
0.98762899
0.9876986
0.98740999
0.98779643
0.98755119
0.98792005
0.98750886
0.98766198
0.98749012
0.9875557
0.98777714
0.98745311
0.98779457
0.98722992
0.98769646
0.98722381
0.98765612
0.98730946
0.98742824
0.98723899
0.98645356
0.98641312
0.98653583
0.98650889
0.98655258
0.9865571
0.98665408
0.98657664
0.98680453
0.98649832
0.98679272
0.98658592
0.98677156
0.98678302
0.98652645
0.98693375
0.98633841
0.98708844
0.98635179
0.98701272
0.98640444
0.98672309
0.98658887
0.98656229
0.98671612
0.98647542
0.98655646
0.98542817
0.98547812
0.98547955
0.98551828
0.9855822
0.98554417
0.98563113
0.98563036
0.98556756
0.98587561
0.9854685
0.98603982
0.98545692
0.98604217
0.98563428
0.98580235
0.98593521
0.98549696
0.98622716
0.98530231
0.98628295
0.98530671
0.98610711
0.98554529
0.98589527
0.9857103
0.98572757
0.98443069
0.98448332
0.98446143
0.9845845
0.98457376
0.98469518
0.98467621
0.98454317
0.98481243
0.98453812
0.98503242
0.98466752
0.9849514
0.98474411
0.98481375
0.9849829
0.98474863
0.98521949
0.98457876
0.98527647
0.98453015
0.98527998
0.9846714
0.98517022
0.98482639
0.98499327
0.98488984
0.98340076
0.98335237
0.98350886
0.98345371
0.98361136
0.98374293
0.98359846
0.98382938
0.98361983
0.9838753
0.98382837
0.98394116
0.98389758
0.98385253
0.98399189
0.98381537
0.98432292
0.98376923
0.98439857
0.98369197
0.98433232
0.98391874
0.98430822
0.98411544
0.98414288
0.98412282
0.98411148
0.98227354
0.98249641
0.98225365
0.98258735
0.98258083
0.98256897
0.98289185
0.98248247
0.98298089
0.98270287
0.98295303
0.9830662
0.98277437
0.98324662
0.98272303
0.98339467
0.98294395
0.98334642
0.98311003
0.98317657
0.98326601
0.98325281
0.98343042
0.98331615
0.98336393
0.98330758
0.98339074
0.98129677
0.98131969
0.9814546
0.98125532
0.98187423
0.98138979
0.98193518
0.98164272
0.98164013
0.98216349
0.98158398
0.98249347
0.98167319
0.98227284
0.98212407
0.98200216
0.98273206
0.9817921
0.98290109
0.98178809
0.98288551
0.98217494
0.98277614
0.98246631
0.98257421
0.98261092
0.98265442
0.98036509
0.98025357
0.98030384
0.98054887
0.98030436
0.98110402
0.98048472
0.98092261
0.98082916
0.98064852
0.98149255
0.98067508
0.9816626
0.98073559
0.98143924
0.9813816
0.98124976
0.98201253
0.98082105
0.98218243
0.98094342
0.98232375
0.98147283
0.98202773
0.98166907
0.9818354
0.98196543
0.97939941
0.9792598
0.97943796
0.97936862
0.97959986
0.98002861
0.97974286
0.97984334
0.9799413
0.97977133
0.98041009
0.98028041
0.98017273
0.98054306
0.98001988
0.98081204
0.98051137
0.98075072
0.9808032
0.98045645
0.98114064
0.98064638
0.98138242
0.9807875
0.981234
0.98102218
0.98133698
0.9783164
0.97860115
0.97840018
0.97853309
0.97883627
0.97861691
0.97934051
0.97875741
0.97895804
0.97932227
0.97889184
0.98003705
0.97910088
0.97955707
0.97960073
0.97932787
0.9804699
0.97942529
0.9803305