/*--------------------------------*- C++ -*----------------------------------*\
| =========                 |                                                 |
| \\      /  F ield         | OpenFOAM: The Open Source CFD Toolbox           |
|  \\    /   O peration     | Version:  2406                                  |
|   \\  /    A nd           | Website:  www.openfoam.com                      |
|    \\/     M anipulation  |                                                 |
\*---------------------------------------------------------------------------*/
FoamFile
{
    version     2.0;
    format      ascii;
    arch        "LSB;label=32;scalar=64";
    class       volScalarField;
    location    "20";
    object      p;
}
// * * * * * * * * * * * * * * * * * * * * * * * * * * * * * * * * * * * * * //

dimensions      [1 -1 -2 0 0 0 0];

internalField   nonuniform List<scalar> 
62344
(
1.0042125
1.0015138
0.99457365
0.99177745
0.99518004
0.99689191
0.99858407
0.99210799
1.0012215
1.0006152
0.9978594
1.0010927
0.99281033
0.99514613
1.0055708
1.0127003
1.0143978
1.0137706
1.018955
1.0152604
1.0036343
0.9998623
1.0105388
1.0103552
0.98937473
0.98186481
0.99295909
0.99991075
1.0067857
1.007874
0.98163876
0.95901808
0.97692167
1.0284145
1.07184
1.0603904
0.99422825
0.93905591
0.93972562
0.98310911
1.0475476
1.0927043
1.0785195
1.0106629
0.93375949
0.90204605
0.91990404
0.97008548
1.0303079
1.0647568
1.060093
1.0245994
1.0010668
1.0059352
1.0243002
1.0027617
1.0004585
0.99652591
0.99130023
0.99366708
0.99399873
0.99498501
0.99282722
0.99778533
1.0049893
0.99654528
0.99427886
0.99548657
0.99783231
1.0068775
1.0110258
1.0077678
1.0182898
1.0152649
1.0051024
1.0059116
1.0094641
1.0162677
1.0062196
0.98502252
0.98086458
0.990205
1.0024744
1.0102552
1.0070262
0.97667926
0.95779249
0.97655776
1.0266506
1.0604182
1.050743
0.9989492
0.96361215
0.97174568
1.0081158
1.0409267
1.0539889
1.0401454
0.9976001
0.94086306
0.90888227
0.91941481
0.97016132
1.0442745
1.1134484
1.1355597
1.1056883
1.0362973
0.9689881
0.92969162
1.0025996
0.99880171
0.99671029
0.99407683
0.99511998
0.99667945
0.9922863
0.99549696
0.99398467
1.005034
0.99992972
0.99030581
0.99405231
0.99783944
1.0021256
1.013622
1.013662
1.0212529
1.0141044
0.99942223
1.0031452
1.0117128
1.0183602
1.0039358
0.98189993
0.97749809
0.98644246
1.0014001
1.0135817
1.0090209
0.97639549
0.95811932
0.98148724
1.0303892
1.0586782
1.0435036
1.0016622
0.97647711
0.99012776
1.0166816
1.023686
1.015939
1.0116042
0.99753326
0.97807471
0.96291145
0.96480017
0.98992799
1.0376458
1.0907374
1.1184166
1.0982615
1.0367413
0.96252921
0.90175946
1.0034896
0.99864454
0.99566277
0.99718272
0.99752883
1.0004281
0.99297677
0.99500284
0.99541194
1.0014519
1.0014323
0.9929438
0.99219383
0.99679562
0.99802534
1.0148194
1.0229916
1.0212389
1.014173
1.0019112
1.00063
1.0083453
1.0171056
1.0045236
0.98534112
0.97988503
0.98556654
0.99911803
1.0120635
1.0064665
0.97543663
0.95967986
0.98500279
1.0310822
1.0525617
1.0343918
1.0002618
0.99287094
1.012498
1.0259325
1.0094771
0.98626957
0.98317461
1.001626
1.0201325
1.0253839
1.022538
1.0233197
1.0246442
1.0297489
1.0412379
1.0457468
1.0302277
0.99278586
0.94873231
1.004108
1.0000709
0.99439789
0.99853929
0.99963064
1.0009878
0.99522245
0.99188631
0.99875163
0.99923736
1.0008982
0.99677008
0.99065805
0.99653054
0.99986887
1.0157831
1.024551
1.0173264
1.0147729
1.0095883
1.003286
1.0048974
1.0151639
1.005628
0.9915142
0.98620031
0.98765294
0.99855594
1.0098562
1.0011692
0.97197155
0.96020216
0.98780742
1.0307303
1.0433282
1.0235325
0.9998922
1.0053539
1.0306401
1.0345253
1.0062566
0.97129008
0.96557748
0.99786364
1.044054
1.0710152
1.0697829
1.0401564
0.99997346
0.96842803
0.96167142
0.97890406
1.003217
1.0158155
1.0179826
1.00402
1.0016389
0.99448193
0.99682901
1.000133
0.99883658
0.99619807
0.99045137
1.0009689
0.99991723
1.0021978
0.9983747
0.98977369
0.99488931
1.0049948
1.0165883
1.0177467
1.0124591
1.0154223
1.0163211
1.0101888
1.0052707
1.0123153
1.0044049
0.99546358
0.99103532
0.98988368
0.99819784
1.0083134
0.99637236
0.96944165
0.96249435
0.99297013
1.0309964
1.035798
1.0131461
0.99851484
1.0143347
1.0411457
1.0400357
1.0066589
0.96687057
0.95853511
0.99248199
1.0504646
1.0929898
1.0935235
1.0481457
0.98635592
0.93876329
0.92050677
0.93282269
0.97029361
1.0160672
1.0563168
1.00366
1.0022561
0.99588051
0.99413431
0.99810708
0.99673908
0.99499813
0.99158552
1.0002292
1.0019211
1.0049033
0.99791271
0.98990861
0.99116102
1.0080792
1.0173737
1.0105497
1.0113867
1.0155483
1.0186163
1.0159036
1.0088289
1.010278
1.0002078
0.99345977
0.99003043
0.98845863
0.99663913
1.0071094
0.99319874
0.96882678
0.96695795
0.99911497
1.0333001
1.0316041
1.007046
0.99684019
1.0176127
1.0443468
1.0410139
1.0069285
0.97080099
0.96240666
0.99235265
1.0491693
1.0978016
1.1004137
1.053765
0.99044317
0.93988179
0.91659759
0.922306
0.95359093
1.0052086
1.0616055
1.0033256
1.0022656
0.99749687
0.99261458
0.99523368
0.99566121
0.99325474
0.99374779
0.99787338
1.0040109
1.0059925
0.99604564
0.99030216
0.98822289
1.0087595
1.0178499
1.0086474
1.0132566
1.015584
1.0157536
1.0165275
1.0120803
1.0098436
0.99644387
0.98900215
0.98622122
0.98466452
0.99381366
1.0062079
0.99207314
0.96935441
0.97142958
1.0045804
1.0342557
1.0289715
1.0048732
0.99730103
1.0190618
1.0427908
1.0365045
1.0061745
0.9774285
0.97307588
0.99999973
1.0473111
1.0867661
1.090122
1.0559594
1.0076661
0.96596095
0.94075601
0.93679174
0.95533273
0.99373505
1.0424668
1.0034504
1.0017406
0.99827175
0.99311107
0.99367201
0.99557137
0.99250634
0.99482316
0.99546921
1.0052962
1.0042889
0.9943817
0.99054916
0.98842714
1.0075156
1.0165805
1.0098554
1.0164982
1.0161404
1.0101448
1.0121663
1.0132903
1.0112128
0.99563785
0.98661834
0.98354383
0.98139043
0.99168975
1.0058102
0.99197519
0.97024721
0.97493669
1.0065757
1.0310317
1.0243608
1.0040637
1.0006354
1.0217089
1.0395667
1.0290531
1.0038629
0.98533583
0.98726244
1.012696
1.0457625
1.0678977
1.0693292
1.0510448
1.0252715
1.000581
0.98137519
0.9730132
0.97903545
0.99672093
1.0209947
1.0038695
1.0008244
0.99789297
0.99454816
0.99436216
0.99619959
0.99284068
0.99427744
0.99443575
1.00552
1.0018289
0.99335463
0.99066221
0.99183584
1.0045373
1.0136685
1.0128055
1.0197378
1.0164633
1.0065918
1.007656
1.0128558
1.0133701
0.99777663
0.98786224
0.98388928
0.98064147
0.99126605
1.0064693
0.99330716
0.97176
0.9780726
1.0065599
1.0242829
1.0167922
1.0010603
1.0050078
1.0259718
1.0369224
1.023169
1.0021416
0.99186275
1.0022966
1.0273722
1.0473591
1.051813
1.04638
1.0386059
1.0341551
1.0316139
1.0242567
1.0151803
1.0084308
1.0046054
1.0040458
1.0042873
1.0001147
0.9964914
0.9963275
0.99634848
0.99739334
0.99355768
0.99307558
0.99490862
1.0045075
1.0003831
0.99382248
0.99134624
0.99581941
1.0008964
1.0103066
1.0161012
1.0208765
1.0160051
1.0070987
1.0068763
1.0126749
1.0152274
1.0006585
0.99059111
0.98575024
0.98177659
0.99208547
1.0077448
0.99494824
0.97443648
0.98157003
1.0065986
1.0173182
1.007126
0.99607838
1.0065575
1.0294563
1.0348852
1.0190735
1.0009702
0.99824718
1.015722
1.0405162
1.0501748
1.0423338
1.0253043
1.0199741
1.0313918
1.046386
1.0534035
1.0500975
1.0358543
1.0163522
0.99730825
1.0044903
0.99974072
0.99480201
0.9974367
0.99884354
0.99891263
0.99414279
0.99213671
0.99615044
1.0025517
1.000347
0.99493484
0.99218485
0.9977183
0.99773109
1.0086339
1.0185835
1.0202352
1.0145554
1.0093939
1.0101361
1.0142909
1.0162273
1.0027418
0.99273506
0.98783831
0.9834052
0.99249154
1.0082196
0.99621882
0.97739856
0.9856781
1.0083324
1.0132251
0.99852497
0.99018746
1.0057299
1.031204
1.0335241
1.0158129
1.0001903
1.0034026
1.0267322
1.0507212
1.0560639
1.0369767
1.008807
1.0017064
1.019157
1.0451732
1.0662774
1.0709035
1.056618
1.0312731
1.0002394
1.0043661
0.9997058
0.99355249
0.9975558
1.0002312
1.0001508
0.99443256
0.99179641
0.99801174
1.0006373
1.0004882
0.99642403
0.99277859
0.99673869
0.99595974
1.0089428
1.0193095
1.0194327
1.0127156
1.0113691
1.0142971
1.0171419
1.0169343
1.0035243
0.99324226
0.98874039
0.98475128
0.99174912
1.0064505
0.99517607
0.9791874
0.9892848
1.0109672
1.0125567
0.99368058
0.9853726
1.0041448
1.0307185
1.0316523
1.0128757
0.99867825
1.0067071
1.0358651
1.0604394
1.0610815
1.0342042
1.0007952
0.98877036
1.0056034
1.0362012
1.065698
1.0798998
1.0709972
1.0455175
1.0140256
1.0039452
0.9997376
0.99317056
0.99656763
1.0002205
1.0007055
0.99439362
0.99205067
0.99957785
0.9994653
1.0009109
0.99744357
0.99318149
0.99387745
0.99580928
1.0101145
1.0187824
1.0188757
1.0121182
1.0118981
1.0159701
1.0197125
1.0175432
1.0035799
0.99242465
0.98843029
0.98578348
0.9904953
1.0031837
0.99191414
0.97889272
0.99126833
1.0131198
1.0139081
0.99231969
0.98224152
1.0017195
1.0283012
1.0290905
1.0105693
0.99686818
1.0093204
1.0418069
1.0681181
1.0663395
1.0353248
1.0001014
0.98337747
0.99607254
1.0258767
1.0572374
1.0773818
1.0766937
1.0582718
1.0299875
1.0033159
0.99993643
0.9938257
0.99507345
0.99904629
1.0003605
0.99421938
0.99247763
0.99992356
0.9992423
1.0018936
0.99764909
0.99309621
0.99079529
0.9970058
1.0113126
1.0174297
1.0188838
1.013337
1.0106035
1.0147954
1.0207728
1.0184127
1.0035166
0.99118767
0.98761435
0.98690474
0.98981099
0.99947946
0.98796665
0.97701423
0.99141299
1.0138026
1.0153308
0.99281155
0.98054056
0.99833173
1.0239465
1.026442
1.0088882
0.9968213
1.0110444
1.0451132
1.073535
1.071565
1.0386994
1.0035409
0.98408802
0.99221907
1.0170329
1.0449926
1.0670415
1.0741827
1.0659802
1.0454365
1.0027121
1.0002828
0.99505786
0.99361767
0.99726693
0.99914979
0.99390025
0.99285953
0.99903122
1.0002749
1.0031563
0.99725499
0.99281078
0.98892656
0.9991417
1.0120323
1.0154332
1.0190755
1.0160465
1.0088119
1.0115841
1.020007
1.0196048
1.0038233
0.99007296
0.98695367
0.9886551
0.99055263
0.9966216
0.98478364
0.97510447
0.9905674
1.0130715
1.0157838
0.99377356
0.97973613
0.99440636
1.0185379
1.0226099
1.0084529
0.99836866
1.01256
1.0464923
1.075823
1.0744583
1.0439533
1.0103628
0.99045059
0.99375979
1.0114029
1.0333698
1.0541454
1.0656309
1.066129
1.055998
1.0022907
1.0006345
0.9964776
0.99259783
0.99557862
0.99750762
0.99358394
0.99307841
0.99743994
1.0019647
1.0046562
0.99638077
0.99248307
0.98843952
1.0011619
1.0119286
1.012631
1.0195736
1.0192553
1.0078777
1.0077637
1.0182862
1.0208955
1.0047308
0.98921418
0.98654714
0.99089762
0.99242119
0.99503115
0.98300377
0.97470293
0.98986853
1.0114688
1.0151108
0.99475875
0.97986337
0.99080627
1.0115097
1.0174968
1.0080267
1.0012589
1.0150058
1.0467932
1.0752637
1.0752481
1.0486638
1.0182209
0.99913195
0.99955147
1.0103351
1.0245836
1.0411273
1.0544409
1.0609923
1.0601776
1.0021268
1.0008786
0.99766455
0.99215637
0.9944224
0.99598801
0.99335176
0.99315132
0.99559486
1.0036427
1.0060057
0.99552918
0.99174733
0.98918953
1.0026771
1.011301
1.0101271
1.0199752
1.0219033
1.0079049
1.0045097
1.0165891
1.022081
1.0061087
0.9887081
0.98629603
0.99313353
0.99523599
0.99447977
0.98242252
0.97566059
0.99013092
1.0097867
1.0136411
0.99553361
0.9807492
0.98768209
1.0034313
1.0102795
1.0066486
1.0047657
1.0189425
1.0475041
1.0723525
1.0735698
1.0510254
1.025004
1.0092946
1.0081481
1.0124926
1.0198051
1.0300516
1.0423869
1.0516481
1.057479
1.0022911
1.001016
0.9982887
0.99223308
0.99394503
0.99497359
0.99324082
0.99302606
0.99396544
1.0045056
1.006772
0.99517586
0.99110377
0.99022685
1.0033112
1.0103783
1.0086779
1.0199286
1.023439
1.008367
1.002981
1.0155398
1.0232527
1.0076111
0.98857695
0.98606518
0.99470591
0.9978357
0.99457818
0.98262201
0.97746414
0.99135181
1.0087671
1.0121199
0.9962465
0.98247089
0.98586998
0.99565612
1.0018348
1.0035896
1.0080668
1.0238096
1.0492741
1.0685331
1.0694881
1.0504523
1.0290184
1.0185566
1.0164835
1.0180731
1.0189877
1.0230821
1.0307598
1.0403289
1.0495326
1.0026719
1.0010771
0.99824969
0.99273935
0.99407012
0.9946574
0.99324942
0.99272493
0.99303169
1.0045743
1.0067827
0.99528507
0.99050967
0.99111165
1.0029941
1.0095224
1.0084668
1.0193173
1.0236682
1.0086939
1.0028548
1.0159474
1.0245417
1.0089229
0.98864127
0.98570566
0.99539727
0.99972848
0.99466386
0.98276128
0.97929484
0.99313687
1.008439
1.0111619
0.99724486
0.9851116
0.98596023
0.98944893
0.99256244
0.99809764
1.0094817
1.0291207
1.051449
1.0656699
1.0638346
1.0467531
1.0306922
1.0255455
1.0247027
1.0243638
1.0218104
1.0196258
1.0218928
1.0292357
1.0389958
1.0031242
1.0011212
0.99761752
0.99347347
0.99463987
0.9950285
0.99326201
0.99232666
0.992986
1.0039292
1.0061464
0.99561711
0.99019719
0.99152559
1.0018871
1.0090804
1.0094623
1.0186622
1.0225495
1.0087666
1.0040205
1.0174565
1.0260817
1.0098596
0.9887177
0.98516204
0.99539033
1.0007469
0.9941025
0.98230912
0.98055596
0.99490919
1.0086024
1.0105628
0.99860898
0.9883904
0.98786806
0.98556346
0.98406771
0.99102143
1.0086708
1.0335371
1.0548771
1.0643583
1.0585306
1.0413645
1.0304036
1.029676
1.0318813
1.0313103
1.0265306
1.0200398
1.0169087
1.020028
1.0282835
1.0036439
1.0011087
0.99663502
0.99430386
0.99545564
0.99589625
0.99323794
0.99188343
0.99365601
1.0028406
1.0048771
0.9959989
0.9901584
0.99149439
1.0001676
1.0091409
1.0112029
1.0181777
1.0203138
1.0085421
1.0059621
1.0195559
1.0277529
1.0105303
0.98874689
0.98455606
0.99506996
1.0009125
0.9929054
0.98130929
0.9811423
0.99632218
1.009298
1.010011
1.0001277
0.99225711
0.9910675
0.98436163
0.97749894
0.9831933
1.0053474
1.0358499
1.0591792
1.0649432
1.0535208
1.0355525
1.0275785
1.0310618
1.0373911
1.0381943
1.0322708
1.0229497
1.0151975
1.0132317
1.0183602
1.0041495
1.0010294
0.99554961
0.99511515
0.99635893
0.99703202
0.9931851
0.99142765
0.99472362
1.0015714
1.0032272
0.99637908
0.99028269
0.99105875
0.99817283
1.00935
1.0133215
1.0181757
1.0176047
1.0078643
1.0081201
1.0219404
1.0292887
1.0111538
0.98868363
0.98401668
0.99448866
1.0007275
0.99127853
0.97946605
0.98078061
0.99697611
1.01011
1.0097024
1.0013782
0.99625347
0.99501088
0.98562483
0.97334966
0.97572007
1.0001046
1.0356489
1.0633962
1.0671184
1.0502408
1.0304295
1.023105
1.030153
1.0408684
1.0443965
1.0385161
1.0273545
1.0159366
1.0091168
1.0103551
1.0046043
1.0009095
0.99453705
0.99582039
0.9972093
0.99818694
0.99311706
0.9910007
0.99587132
1.0003997
1.0014588
0.99681636
0.99051969
0.99046282
0.99614552
1.0094524
1.0154739
1.0184002
1.0150484
1.0068776
1.0100169
1.0244461
1.0306807
1.0118952
0.9889602
0.98345535
0.99359095
1.0003923
0.98962493
0.97710394
0.9795562
0.99689278
1.0107362
1.0098313
1.0021088
0.99954799
0.99889514
0.98864992
0.97152733
0.9693749
0.99329424
1.0326887
1.0663005
1.0703908
1.0497541
1.0268099
1.0184636
1.0271712
1.0418485
1.0488624
1.0455976
1.0333515
1.0184735
1.0081909
1.0052047
1.0049393
1.0007933
0.99369815
0.99636144
0.99793068
0.99921427
0.99306183
0.99067276
0.99695144
0.99957608
0.99992135
0.99722143
0.99079729
0.98996594
0.99444772
1.0093127
1.0173368
1.0188704
1.0130375
1.0056042
1.011134
1.0265431
1.0320236
1.0127137
0.98916625
0.98304616
0.99312747
1.0001567
0.9887501
0.97503159
0.97806134
0.99662287
1.0113202
1.0103522
1.0021626
1.001549
1.0018945
0.99249768
0.971741
0.9648438
0.98591639
1.0278005
1.0675456
1.0740551
1.0523866
1.0247387
1.012915
1.0228953
1.0398641
1.0512264
1.0513131
1.0397758
1.023377
1.0094604
1.0026582
1.0051649
1.000708
0.99311321
0.99670552
0.99842931
0.9999635
0.99304448
0.99040053
0.99766922
0.99903411
0.99881053
0.99751112
0.99109154
0.98965165
0.9931838
1.009024
1.0186608
1.0193291
1.0119038
1.0046486
1.0116812
1.0278661
1.0334255
1.0139224
0.98898666
0.98251543
0.99191323
1.0004595
0.98866095
0.97363194
0.97603015
0.99502907
1.0113887
1.0112608
1.0026863
1.0025776
1.0041771
0.99635274
0.97357818
0.96144967
0.97875121
1.020543
1.0661563
1.0812967
1.0580784
1.0266717
1.0112771
1.0179322
1.0354908
1.0511565
1.0551351
1.0465165
1.0300513
1.0127914
1.0027184
1.0052591
1.0006746
0.99285119
0.99686114
0.99866389
1.0003452
0.99305066
0.99028882
0.99799343
0.99873228
0.99825147
0.99768272
0.99134351
0.98942669
0.99222836
1.0085629
1.0188596
1.0198205
1.0114307
1.0041727
1.0116892
1.0273001
1.0343861
1.0157107
0.99068474
0.982712
0.9907389
1.0006958
0.98919306
0.97424201
0.97466579
0.99257085
1.0097479
1.0120627
1.0036264
1.0030127
1.0054438
0.99961417
0.97817089
0.96229469
0.972987
1.0105649
1.0560515
1.0791751
1.0632857
1.031673
1.0148722
1.0156499
1.0308542
1.0472815
1.0540519
1.0498097
1.0366734
1.0197827
1.0076741
1.0016471
1.0010892
1.0050531
1.0113594
1.0198715
1.0302629
1.0407477
1.0499243
1.0563116
1.0571896
1.0504929
1.036545
1.0168611
0.99654802
0.97951024
0.97286194
0.98376337
1.0091693
1.048512
1.0907871
1.1131363
1.0931532
1.0223968
0.91844188
0.86830748
0.91783407
1.0332487
1.0108052
1.0151068
1.0229984
1.0315787
1.0405339
1.0490659
1.0555812
1.0586877
1.0567216
1.0480193
1.0321921
1.0120718
0.98964764
0.96738953
0.95357509
0.95388124
0.97317869
1.0122509
1.0655472
1.114078
1.132448
1.1070354
1.0403373
0.94110251
0.88831343
0.92228246
1.0044253
1.0328333
1.0404456
1.047632
1.0544974
1.0603059
1.0639786
1.0644372
1.0607216
1.0508574
1.0355887
1.0153904
0.99264783
0.97028647
0.95201027
0.94363187
0.95226739
0.97957893
1.0231437
1.0726267
1.1025191
1.1052308
1.0775109
1.0386714
0.99479523
0.95786009
0.95785838
0.98315054
1.0599621
1.0673736
1.0711783
1.0736299
1.073779
1.0706994
1.0639627
1.0533608
1.0392148
1.0219683
1.0018535
0.98081728
0.96270968
0.95256291
0.95453315
0.97236034
1.0066268
1.0477
1.0754966
1.0748072
1.0484909
1.0187723
1.0100834
1.0340479
1.050336
1.0310316
0.9969013
1.080966
1.0848924
1.0833235
1.0803582
1.0748373
1.0663552
1.055425
1.0419153
1.0272487
1.0114914
0.99548622
0.9809682
0.97161373
0.97250074
0.98660181
1.0136493
1.0458845
1.0704599
1.0715346
1.0385937
0.98706679
0.95786959
0.97041618
1.0320995
1.1142933
1.128156
1.0433256
1.0827392
1.080575
1.0743843
1.0669512
1.0579818
1.0482013
1.0379802
1.0276831
1.0176536
1.0082062
1.0003253
0.99603977
0.99928277
1.0140488
1.0395836
1.0671694
1.0862472
1.0843325
1.0523296
0.9962813
0.94071751
0.9202392
0.94316204
1.0090182
1.1182656
1.1922257
1.1031078
1.0555835
1.0481282
1.0392318
1.0307962
1.0223428
1.0150281
1.0096407
1.0063501
1.0051179
1.0064067
1.0114461
1.0227841
1.0435419
1.0730208
1.1023444
1.1188666
1.1152853
1.0788467
1.0221921
0.9605361
0.92082849
0.91015195
0.9383862
0.99397191
1.0877659
1.1696874
1.1288445
1.0047388
0.99355783
0.98615426
0.98049427
0.97649389
0.97479292
0.97584316
0.98019596
0.98870181
1.0022726
1.0228616
1.052464
1.0892223
1.1246753
1.1446799
1.1435084
1.1128638
1.0599169
0.99901027
0.94760049
0.92778366
0.9306566
0.96173739
0.99935389
1.0485108
1.0929469
1.0788042
0.95411549
0.94340942
0.9394281
0.93818411
0.93951395
0.94397138
0.95192321
0.96420441
0.98206214
1.0069393
1.0386362
1.0753028
1.1097166
1.1304902
1.1340078
1.1120117
1.0732016
1.0295485
0.98969501
0.96521548
0.96504163
0.98412876
1.0158999
1.0311245
1.0254923
1.0018996
0.98277671
0.92022165
0.91561569
0.91727376
0.92150315
0.92849169
0.93937026
0.9549142
0.97575096
1.0011719
1.0306722
1.0605332
1.0834647
1.0933278
1.0871396
1.0654684
1.035024
1.0078736
0.99092754
0.98651927
1.0013698
1.03024
1.0673013
1.0938483
1.0821253
1.0243734
0.93238005
0.90380213
0.91471505
0.91601882
0.92530949
0.93640706
0.95177237
0.97162103
0.99425939
1.0188961
1.0423898
1.061392
1.0700371
1.0648845
1.0454933
1.014134
0.97985473
0.95518103
0.94418329
0.95157497
0.98236857
1.0366364
1.0987356
1.1548776
1.1740856
1.136285
1.0389354
0.9143888
0.88052381
0.9461558
0.95597569
0.97281516
0.99084331
1.0117709
1.0333373
1.0527739
1.06709
1.0731253
1.0684082
1.0508887
1.0226568
0.98725414
0.95056294
0.91919862
0.90111229
0.90206257
0.92928844
0.98443744
1.0613674
1.1444804
1.2055452
1.2142585
1.1637442
1.0608673
0.94830724
0.91911164
1.0282595
1.0436952
1.0575285
1.0717372
1.0841211
1.0921239
1.0939798
1.0876616
1.0726474
1.0480976
1.0172496
0.98208827
0.94594764
0.9130649
0.88898838
0.88110072
0.89855673
0.94109829
1.0033322
1.0790923
1.1494605
1.1932405
1.1866836
1.1305702
1.0612057
1.01356
1.0132546
1.1231654
1.1348913
1.1388054
1.1380064
1.1322004
1.1208547
1.1034734
1.0799324
1.0520832
1.021676
0.99014776
0.95883316
0.92920924
0.90659455
0.89764249
0.90832457
0.9402003
0.9872724
1.040325
1.0881808
1.1205039
1.1288848
1.1008445
1.0525562
1.031945
1.0688108
1.1285353
1.1650199
1.1689123
1.1603406
1.1494464
1.1327907
1.1108441
1.0861468
1.0601008
1.0335138
1.0072046
0.98142046
0.95840646
0.94224212
0.9371347
0.94777048
0.97449138
1.0135268
1.0544846
1.0808195
1.0869641
1.0740315
1.0396083
0.99516881
0.97462064
0.99781746
1.0818325
1.2001726
1.1402193
1.1328844
1.1189747
1.1043006
1.0875276
1.0698209
1.0521666
1.0351456
1.0189162
1.0038644
0.99190247
0.98512523
0.98706328
1.0007776
1.0273605
1.0627332
1.0963216
1.1123725
1.1043835
1.0731651
1.0239844
0.96911088
0.9239334
0.925868
0.97663593
1.0756597
1.1993152
1.0601276
1.0508099
1.0411516
1.0324929
1.0237331
1.0152465
1.00843
1.0038127
1.002208
1.0050278
1.0137764
1.0296041
1.0534272
1.0847986
1.1186391
1.1477204
1.158635
1.1440043
1.1068275
1.0506762
0.98591198
0.93166286
0.8992596
0.91902356
0.98536093
1.0776706
1.1672421
0.98114638
0.97130543
0.96555271
0.96249577
0.96196356
0.96380512
0.96773071
0.97506384
0.98841044
1.009888
1.0400352
1.0775244
1.1193391
1.1586192
1.1859043
1.1985226
1.1828922
1.1464157
1.0923753
1.0288046
0.96889078
0.92685667
0.9117188
0.94580148
1.0160902
1.093432
1.1457315
0.92662159
0.92022573
0.91821007
0.91843333
0.92099609
0.92800372
0.94016441
0.95851661
0.98479138
1.0201895
1.0635289
1.1112833
1.1573429
1.1924322
1.209848
1.2010922
1.17289
1.1283679
1.0727924
1.0161367
0.97235268
0.94539299
0.94890134
0.98884226
1.0532738
1.1134209
1.1365877
0.89830884
0.89649797
0.89837542
0.9025817
0.90924209
0.91990819
0.93645357
0.96049274
0.99280239
1.0323788
1.0759398
1.1179273
1.1546802
1.1775781
1.1826962
1.168598
1.1406485
1.1034811
1.0609644
1.0206823
0.99194017
0.97856926
0.99600192
1.0335198
1.0811635
1.1198131
1.1220336
0.89804432
0.89928872
0.90476404
0.91224618
0.92304173
0.93792322
0.95614638
0.97885209
1.006646
1.0373515
1.0686896
1.0950322
1.114209
1.1239952
1.1219205
1.1133944
1.0977797
1.0784131
1.0565284
1.0373113
1.0244881
1.0266024
1.0469492
1.0732178
1.0978421
1.1081202
1.0853555
0.92416288
0.9285534
0.93741275
0.94736482
0.95938436
0.97433666
0.99051928
1.0062872
1.0205163
1.0331966
1.0442826
1.0521842
1.0562191
1.0557048
1.0536593
1.0506194
1.0489516
1.0492824
1.0513489
1.0565124
1.0678753
1.084189
1.1014407
1.1127005
1.1110608
1.086301
1.0367637
0.97710965
0.98236427
0.98891661
0.99721174
1.0069096
1.0163442
1.0240391
1.0283216
1.0283476
1.0238532
1.0166117
1.0077684
0.9997668
0.99368805
0.99117175
0.99297719
1.0004284
1.014813
1.0368819
1.0667582
1.1020312
1.1350045
1.1575214
1.1573306
1.1298037
1.071497
0.99357024
1.0397298
1.0442752
1.0484036
1.0513346
1.0527101
1.0519719
1.0480022
1.0399303
1.0277698
1.0120219
0.99409022
0.97602741
0.96026587
0.94922775
0.94430636
0.94754192
0.95941155
0.9815661
1.0160721
1.0623828
1.1153287
1.1644689
1.1968286
1.1935632
1.1502406
1.0679718
0.96875438
1.0952817
1.0978802
1.0977743
1.0942428
1.0870922
1.0763872
1.0622933
1.0451213
1.0253823
1.0037512
0.98166156
0.96023988
0.9417301
0.92820003
0.92115541
0.92277418
0.93483021
0.9600167
1.000032
1.0532164
1.1137447
1.169403
1.2059888
1.2035953
1.1554208
1.0646602
0.95912725
1.1326742
1.1326307
1.1284884
1.1199634
1.107111
1.0902327
1.0701204
1.047743
1.0240185
0.99998177
0.97673698
0.95528521
0.93676985
0.9227644
0.91525316
0.91592784
0.92864605
0.95561792
0.99773032
1.052099
1.1099209
1.1610796
1.188626
1.1832958
1.1359026
1.0524518
0.96078086
1.1539454
1.1518382
1.1446359
1.1324996
1.1158208
1.0952377
1.0718492
1.0467808
1.0211939
0.99624112
0.97277432
0.95177686
0.93446352
0.92244865
0.91614128
0.92036613
0.93637748
0.96616493
1.0090385
1.0603668
1.1117659
1.1479859
1.1622408
1.1469586
1.1004251
1.0325484
0.96558311
1.1671738
1.1638871
1.1549217
1.1405363
1.1212888
1.0980609
1.0720388
1.044638
1.0170681
0.99051135
0.96615204
0.94509151
0.92891357
0.91921015
0.91649574
0.92527269
0.94598661
0.97899969
1.021784
1.0677147
1.1083395
1.1326611
1.1345388
1.1127108
1.0714887
1.0207347
0.97447322
1.1803841
1.1763641
1.1663114
1.150376
1.1291171
1.1035766
1.075115
1.045105
1.0151179
0.98644575
0.96044538
0.93859932
0.92260908
0.91402351
0.91405024
0.92489795
0.94695568
0.97915702
1.0179356
1.0576253
1.0900207
1.107012
1.1077575
1.0921395
1.0630899
1.0262029
0.99028979
1.1932156
1.1887907
1.1781907
1.161547
1.1394115
1.1127864
1.0831023
1.0517801
1.0202233
0.98982153
0.9620738
0.93883581
0.92183272
0.91242241
0.91166489
0.92016437
0.93748321
0.96241595
0.99176268
1.0220479
1.0491104
1.0703242
1.0845838
1.0885377
1.0778758
1.0519531
1.0157911
1.2058753
1.2022846
1.1913985
1.1743173
1.1519652
1.1251477
1.0950317
1.063118
1.0308795
0.99974656
0.97123661
0.94690589
0.92805316
0.91557141
0.9101005
0.91127472
0.91840124
0.93026234
0.94827798
0.96928671
0.99584623
1.0284876
1.0653742
1.0977998
1.1107106
1.0936046
1.054502
1.2247407
1.2207111
1.2088065
1.1906548
1.1671006
1.1389816
1.1076184
1.0746329
1.0417149
1.0103435
0.98166153
0.95636223
0.93490846
0.9176765
0.90479965
0.89622635
0.89208566
0.89258901
0.89926785
0.91516152
0.94520797
0.99217137
1.0521599
1.1134303
1.1514086
1.1440701
1.0980724
1.2518798
1.2460346
1.2324659
1.2119651
1.1855953
1.154642
1.1205971
1.0851435
1.0499591
1.0164496
0.98550569
0.9574602
0.93233042
0.91014221
0.89100485
0.875134
0.86329482
0.85674011
0.85867995
0.87372479
0.90820521
0.96671183
1.0459471
1.1325547
1.1934253
1.194642
1.1383737
1.2824345
1.2749099
1.2585574
1.2343784
1.2037539
1.1684834
1.1303279
1.0910109
1.0522286
1.0153129
0.9809295
0.94940162
0.92068319
0.89468654
0.87153688
0.85151982
0.83606074
0.82747834
0.82925742
0.84651127
0.88592551
0.95298705
1.0466935
1.1528009
1.2321125
1.2413659
1.1772919
1.3101668
1.3005191
1.2808389
1.2523532
1.2170805
1.1773801
1.1352653
1.0924005
1.050269
1.0102089
0.97277066
0.93802692
0.90593163
0.87654989
0.85042736
0.82849131
0.81227386
0.80463305
0.80933294
0.8312546
0.87484674
0.94663754
1.0480558
1.1678442
1.2660063
1.2872118
1.218557
1.32415
1.3133348
1.2921395
1.2617544
1.2242713
1.1821468
1.1375322
1.0922405
1.0478109
1.0055704
0.96605067
0.92887429
0.89394128
0.86159396
0.83273583
0.80888362
0.79226433
0.78620887
0.79426172
0.82074697
0.86843986
0.94255493
1.046443
1.1729164
1.2871463
1.3272211
1.2693302
1.3100379
1.3004898
1.2825271
1.2567017
1.2241765
1.1864362
1.1449619
1.1013471
1.05716
1.0137982
0.97222162
0.93231533
0.89322828
0.85490491
0.82120131
0.79453329
0.7779378
0.77384936
0.78475992
0.8143956
0.86479463
0.93772156
1.0370293
1.1598246
1.2836407
1.3523638
1.3216985
1.2406406
1.2369473
1.2312005
1.2230349
1.2107644
1.1926554
1.167386
1.1342731
1.0934432
1.0461343
0.99431882
0.94024113
0.88912695
0.84473759
0.80803203
0.7804808
0.76572383
0.7659753
0.78388942
0.82004278
0.87018007
0.93569409
1.0189443
1.1218374
1.2379278
1.3352081
1.3566178
1.0301311
1.0331049
1.0417668
1.0548428
1.0701838
1.0854396
1.0969917
1.1004372
1.0934024
1.0737222
1.0416112
0.99892535
0.94690092
0.89712992
0.85425864
0.8347912
0.8285036
0.83252643
0.84590717
0.86793454
0.89984603
0.93973481
0.98867242
1.0522371
1.1367113
1.2433881
1.3316986
0.77212571
0.77689963
0.78597701
0.79982142
0.82096278
0.85081556
0.89133408
0.94558304
1.013259
1.0874853
1.1557922
1.2049077
1.2252924
1.2129649
1.1651193
1.1023513
1.0382236
0.98137089
0.94075826
0.91548303
0.90175133
0.89922214
0.91019923
0.93980291
1.000539
1.1036845
1.2376035
0.69797486
0.70102664
0.7089198
0.72103318
0.73939583
0.76738398
0.80844171
0.86728015
0.94958564
1.0555943
1.1840002
1.321152
1.4432744
1.4899282
1.443804
1.3229642
1.1723737
1.0326675
0.92551214
0.85870441
0.82310522
0.81250318
0.82045424
0.84540492
0.89588807
0.98734652
1.1236849
0.76804721
0.77187225
0.77922972
0.7905153
0.80812105
0.83404081
0.86974021
0.91766861
0.9807559
1.0609205
1.1585285
1.2623794
1.3484097
1.3852478
1.3438313
1.2393385
1.1108653
0.98618909
0.88356378
0.81628395
0.78725907
0.78399974
0.80061924
0.83255723
0.87728132
0.93982314
1.0362022
0.84978379
0.85047097
0.85426102
0.86218406
0.87530955
0.89487376
0.92194023
0.95793019
1.0037208
1.0588462
1.120318
1.1808365
1.2274069
1.2411605
1.2095787
1.1383327
1.0499575
0.96452869
0.89111928
0.83699936
0.80804223
0.8084952
0.82070662
0.84247735
0.86642328
0.89944222
0.96390349
0.88960719
0.89073598
0.89543665
0.90385625
0.91674851
0.9349002
0.95893599
0.98924139
1.0254905
1.0659445
1.1071496
1.1440042
1.1691348
1.1730865
1.1505696
1.1059845
1.0503194
0.99388068
0.94173924
0.89953328
0.87306929
0.86488403
0.87143367
0.88734613
0.90320612
0.93430226
0.99938178
0.94207391
0.94321679
0.94762397
0.95591797
0.96854047
0.98561905
1.0068679
1.0314316
1.0576149
1.0829389
1.1043159
1.1186658
1.1227706
1.1140206
1.0957412
1.0713826
1.0450043
1.0185383
0.99317108
0.97122665
0.95589402
0.95509588
0.9699332
0.99674832
1.0380927
1.1007654
1.1880699
1.0098802
1.0112204
1.015486
1.022745
1.0331188
1.0462615
1.061099
1.0759235
1.0885436
1.0966429
1.098087
1.0913284
1.076865
1.0582631
1.0389613
1.0220003
1.0085056
0.99885887
0.99277318
0.98966553
0.99379525
1.0129948
1.046168
1.0988542
1.1748506
1.265197
1.3386678
1.0496555
1.0515449
1.0548382
1.0602477
1.0675534
1.075907
1.0841157
1.0905438
1.0935731
1.0913672
1.0826277
1.0676015
1.0482688
1.0272811
1.0074734
0.99122632
0.97994635
0.9743005
0.97373308
0.97838397
0.98896258
1.0129457
1.0515475
1.1082167
1.1811248
1.2505262
1.2691473
1.0406186
1.0427237
1.04533
1.0491355
1.0538339
1.0590037
1.0640086
1.0679694
1.0697485
1.068202
1.0625376
1.0527156
1.0395195
1.0245221
1.0098036
0.99724702
0.98804008
0.98278727
0.98127027
0.98369471
0.99217596
1.0130547
1.0438566
1.0850775
1.1288143
1.1459176
1.1101099
1.0122291
1.0135678
1.0149461
1.0166067
1.0186398
1.0210839
1.0238621
1.0268634
1.0299391
1.0328735
1.0353071
1.0367908
1.0368683
1.0352368
1.0318918
1.0273633
1.0225816
1.0187346
1.0170695
1.0191566
1.0265932
1.0413763
1.0622282
1.08146
1.0854588
1.0589303
1.0086929
0.98781411
0.98852128
0.98930389
0.99029542
0.99151167
0.99309077
0.99527652
0.99835649
1.0026506
1.0083741
1.0155478
1.0238371
1.0325159
1.040507
1.046629
1.0500626
1.0508815