/*--------------------------------*- C++ -*----------------------------------*\
| =========                 |                                                 |
| \\      /  F ield         | OpenFOAM: The Open Source CFD Toolbox           |
|  \\    /   O peration     | Version:  2406                                  |
|   \\  /    A nd           | Website:  www.openfoam.com                      |
|    \\/     M anipulation  |                                                 |
\*---------------------------------------------------------------------------*/
FoamFile
{
    version     2.0;
    format      ascii;
    arch        "LSB;label=32;scalar=64";
    class       volScalarField;
    location    "20";
    object      p_0;
}
// * * * * * * * * * * * * * * * * * * * * * * * * * * * * * * * * * * * * * //

dimensions      [1 -1 -2 0 0 0 0];

internalField   nonuniform List<scalar> 
62344
(
1.0041369
1.0016625
0.99547157
0.99208537
0.99466961
0.99594834
0.99802298
0.99107013
0.99978023
1.0013685
0.99682648
1.0008912
0.99407817
0.99515413
1.0054933
1.0126803
1.0142766
1.0129576
1.0172506
1.015518
1.0052909
1.0001972
1.0088348
1.0117031
0.99124307
0.97937025
0.98836373
0.99768504
1.0046374
1.010986
0.98985014
0.96196224
0.96839122
1.0133906
1.0659328
1.0729538
1.0163746
0.94825109
0.92944737
0.96021619
1.0218024
1.0844873
1.0955365
1.0457002
0.96235448
0.90861612
0.90598815
0.94279683
0.99805374
1.0420253
1.0526224
1.0266429
0.99509645
0.99251089
1.0096558
1.0027788
0.99997956
0.99710237
0.99231425
0.99478985
0.99456008
0.99446229
0.99262848
0.99622029
1.0046309
0.99794402
0.99349184
0.99475405
0.99665856
1.0064135
1.0129472
1.0070651
1.0154362
1.0166719
1.0048974
1.0043108
1.0079288
1.0160825
1.0098814
0.98723365
0.97944235
0.98743026
1.0000782
1.0091769
1.0113605
0.98485141
0.95834423
0.96707903
1.0133905
1.0557476
1.0601703
1.0146711
0.96794023
0.96189268
0.99253865
1.032344
1.0578736
1.0564873
1.0220023
0.96159956
0.91170639
0.90112129
0.93524863
1.0008268
1.0783697
1.1257238
1.1215598
1.0714849
1.0024577
0.94793088
1.0029254
0.9983345
0.99666139
0.99459128
0.99613777
0.99798357
0.9927905
0.99570072
0.99388549
1.0033166
1.0013998
0.99054747
0.99335788
0.99747267
1.0008286
1.0128478
1.0130049
1.0197967
1.0180719
1.0009682
1.0008574
1.0092321
1.018622
1.0089195
0.98530886
0.97778837
0.98547721
0.99992885
1.0135768
1.0147148
0.98542378
0.9580872
0.97101427
1.0170716
1.0552612
1.0520275
1.0130688
0.97921948
0.98084625
1.008573
1.0252436
1.0226219
1.0185149
1.0057361
0.98275176
0.9600036
0.95201761
0.9661077
1.0073567
1.0656945
1.1158465
1.1225424
1.0809218
1.0083226
0.93500782
1.0037096
0.99891829
0.99511104
0.99653229
0.99766139
1.001062
0.99443723
0.99517021
0.99546098
1.0006704
1.0014086
0.99314695
0.9916496
0.99709155
0.99713296
1.0113084
1.0212022
1.0221274
1.0173485
1.0043145
0.99993873
1.0058971
1.0166341
1.0085029
0.98833397
0.98075051
0.98497294
0.99751528
1.0120105
1.0123697
0.98419542
0.95940993
0.97448206
1.0199264
1.0515838
1.0430602
1.0082059
0.99004953
1.0041863
1.0245546
1.0188307
0.99428168
0.98301196
0.99341852
1.0111886
1.0180194
1.0158821
1.0172746
1.024237
1.0337516
1.0465028
1.0575755
1.0517999
1.0206746
0.97443292
1.0040527
1.0007759
0.99403182
0.99756522
0.99904658
1.0008476
0.99652578
0.99186532
0.99789877
1.0000451
1.0000296
0.99661288
0.98932295
0.99619687
0.99921787
1.0121677
1.0241621
1.0192029
1.0152054
1.0108704
1.0040766
1.0031903
1.0134486
1.007497
0.99251854
0.98632852
0.98676589
0.99610533
1.0088807
1.0059822
0.97866856
0.95872264
0.97763091
1.0222155
1.0452123
1.0323069
1.0050735
0.99978636
1.0230341
1.0379729
1.0192922
0.9822528
0.96325418
0.98172722
1.0253983
1.0599627
1.0710974
1.055266
1.0237645
0.98941062
0.97173692
0.97750026
0.99650427
1.0124441
1.0180926
1.003768
1.0020943
0.99460114
0.9963261
0.99948617
0.99858375
0.99667414
0.99023836
0.99976607
1.0008369
1.001509
0.99880718
0.98884128
0.99372479
1.0037095
1.0155489
1.0198019
1.0135458
1.0138931
1.0154036
1.0112003
1.004794
1.0110655
1.005127
0.99551196
0.99095067
0.98898839
0.99532406
1.0072229
1.0002768
0.9737347
0.9588671
0.98224071
1.0246184
1.0399771
1.0218953
0.99995438
1.0063336
1.034807
1.0453555
1.0220264
0.97883586
0.9561897
0.97456031
1.0270865
1.0790932
1.1004161
1.0741625
1.0192856
0.96263283
0.93005494
0.92554354
0.94998268
0.99030602
1.0318741
1.0033586
1.0021918
0.99627018
0.9945069
0.99800321
0.99677243
0.9949207
0.99128975
0.99939663
1.0012473
1.0042171
0.99939703
0.99077938
0.98984369
1.0057212
1.0183563
1.0131884
1.0109631
1.0141646
1.0169441
1.0161586
1.0093727
1.0109645
1.0018278
0.9937336
0.99077292
0.98825716
0.99414624
1.0066035
0.99767958
0.97199533
0.96191059
0.98812416
1.028016
1.0370863
1.0146875
0.99600254
1.0079329
1.0390499
1.0471208
1.0216437
0.98143717
0.96023685
0.97537574
1.0248728
1.0823317
1.1084636
1.0817846
1.0212926
0.96203581
0.92239362
0.91309619
0.92997476
0.97155968
1.0263418
1.003247
1.0017174
0.99784034
0.99349784
0.99570669
0.99596268
0.99318618
0.99326462
0.99775574
1.0017612
1.0052293
0.99787006
0.99232775
0.98731368
1.0056678
1.0190734
1.0102131
1.0118526
1.0154281
1.0145116
1.0162331
1.012768
1.012102
0.99947287
0.98983428
0.98726599
0.98464319
0.99132548
1.006239
0.99758342
0.97265183
0.96621456
0.99426027
1.0300135
1.0347339
1.0113272
0.99562889
1.0091731
1.0381291
1.0431477
1.018567
0.98500003
0.96975858
0.98428321
1.026926
1.0748246
1.0974166
1.0773408
1.0310149
0.98298397
0.9466298
0.92998659
0.93579405
0.9651836
1.011111
1.0036287
1.0009819
0.99852966
0.99402134
0.99433628
0.99602419
0.99267225
0.99444967
0.99544346
1.0027011
1.0044543
0.99516619
0.99205903
0.98751681
1.0043687
1.0174464
1.0101966
1.0142581
1.0171318
1.0104814
1.0113382
1.0130736
1.0135178
0.9991642
0.98769304
0.98415118
0.98083817
0.98836858
1.0054785
0.99782453
0.97361735
0.97047949
0.99803416
1.0289344
1.0301824
1.0093628
0.99820608
1.0127108
1.0368224
1.0356432
1.0129796
0.9893743
0.98203816
0.99866238
1.0319631
1.0617202
1.0743189
1.063433
1.0379183
1.0092234
0.9844997
0.96803717
0.96677502
0.9805285
1.0040141
1.0041761
1.0004681
0.99799329
0.99488989
0.99490121
0.99677864
0.99319338
0.99423855
0.99389373
1.0041619
1.0032465
0.99311559
0.99033472
0.99033082
1.0024062
1.0137809
1.0119972
1.017232
1.0180387
1.0078072
1.0071541
1.0115534
1.0144944
1.0006984
0.98875626
0.9840439
0.97944629
0.98691894
1.0051439
0.99833604
0.97466426
0.97382134
0.99976518
1.0238933
1.0224448
1.0053142
1.0013693
1.018576
1.0363011
1.0299526
1.0087292
0.9925036
0.99431608
1.0151902
1.0399384
1.0516995
1.0510716
1.044136
1.0356071
1.0316013
1.0240501
1.0143208
1.0071568
1.0042225
1.0033101
1.0045731
1.0004797
0.99652794
0.99595149
0.99643672
0.99808545
0.99408419
0.99340949
0.99402647
1.0048961
1.0022576
0.99302072
0.9892473
0.99399116
1.0001143
1.0094553
1.0146224
1.0195586
1.0170271
1.0081856
1.0069292
1.0111711
1.0152429
1.0025125
0.99114786
0.98589595
0.98052194
0.98717988
1.0055651
0.99904251
0.97605633
0.97665322
1.0008706
1.0182415
1.0124136
0.99862336
1.0016652
1.0235327
1.0366389
1.0259701
1.0059481
0.99579752
1.0052486
1.0298023
1.0470401
1.0468773
1.0328484
1.0215538
1.0258146
1.0397766
1.0499733
1.0517893
1.0441159
1.0287579
1.0096661
1.0046766
1.0006977
0.99494154
0.99660901
0.99852327
0.99963469
0.99501612
0.99265627
0.99527411
1.0038946
1.0015049
0.99421604
0.98954023
0.99632106
0.99770817
1.00666
1.0171509
1.0207114
1.015084
1.0095081
1.0101301
1.0132721
1.0161361
1.0038976
0.99322511
0.98831456
0.9829761
0.98816449
1.0061358
0.99990896
0.97808683
0.97998789
1.0029362
1.0146337
1.0034919
0.99040453
0.99915926
1.0260047
1.0370374
1.0232137
1.0041359
0.99897606
1.0151224
1.0417483
1.0561676
1.0468273
1.0204524
1.0021369
1.0099005
1.0341035
1.058348
1.0716903
1.0690287
1.0494466
1.0206519
1.0044284
1.000853
0.99385444
0.9967353
0.99976731
1.0007901
0.99574749
0.99222677
0.99728615
1.0016763
1.0003574
0.99612439
0.99118058
0.99650616
0.99580123
1.0061763
1.0181356
1.0211238
1.013336
1.0106563
1.0138479
1.0170484
1.0174783
1.0047728
0.99398158
0.98975999
0.98554927
0.98885295
1.00561
0.99955474
0.97984675
0.98334076
1.0060214
1.0141906
0.99825022
0.98360398
0.99563538
1.0255998
1.0360699
1.0209317
1.0022465
1.0006146
1.0234849
1.0527678
1.065119
1.0475718
1.0143159
0.99076595
0.9956961
1.0223987
1.0535146
1.0775811
1.0813725
1.0642799
1.0351224
1.0038881
1.0007311
0.99354694
0.99603749
0.99992374
1.0011466
0.9959453
0.99224897
0.99911405
0.99963611
0.99949433
0.99764117
0.99316896
0.99479035
0.99507937
1.0073301
1.0179319
1.0207748
1.0131179
1.0108207
1.0152328
1.0197787
1.0188449
1.0054378
0.99351502
0.98952339
0.98731295
0.98914705
1.0036402
0.99724932
0.98010137
0.985804
1.008722
1.0161113
0.99712482
0.97979129
0.99203985
1.022594
1.033275
1.0190976
0.99986648
1.0013422
1.0292218
1.0612141
1.0727057
1.0508267
1.0142165
0.98709553
0.9870464
1.0111958
1.0431968
1.071783
1.0827838
1.0733058
1.0490075
1.0032065
1.0005225
0.9940768
0.99505029
0.99893349
1.0005191
0.99562519
0.99242629
0.99980289
0.99857019
0.99973092
0.9982679
0.9942391
0.99224095
0.99557633
1.0092599
1.0167167
1.0202423
1.0146015
1.0100666
1.0139084
1.0202424
1.0200063
1.006084
0.99252506
0.9884105
0.98812587
0.98921731
1.0008355
0.99365915
0.97867901
0.98667595
1.00988
1.0182355
0.99841075
0.97847153
0.988781
1.0176095
1.0295882
1.0167326
0.9984947
1.0023832
1.0320628
1.0661609
1.0783388
1.0555651
1.018286
0.98956689
0.98492544
1.0039596
1.0311542
1.0589549
1.0749999
1.0744962
1.059642
1.0026258
1.0002851
0.99514743
0.994055
0.99739026
0.99912219
0.99485387
0.99259485
0.99915403
0.99875496
1.0013188
0.99803534
0.99427819
0.9901328
0.99723937
1.0109476
1.0147021
1.019199
1.0173274
1.009412
1.0105354
1.0186889
1.0209389
1.0069255
0.99151365
0.98713362
0.98896862
0.9900028
0.99810621
0.9900082
0.97654422
0.9863533
1.009482
1.0190003
1.0002789
0.97907193
0.98605247
1.0116701
1.0245071
1.014611
0.9992025
1.0034993
1.0327616
1.0679233
1.0808257
1.0598962
1.0252759
0.99678674
0.98902125
1.0015084
1.0217932
1.0446916
1.0623657
1.0684145
1.0632872
1.0022835
1.0000083
0.99638827
0.99336266
0.99590931
0.9975064
0.99389637
0.99268875
0.99742163
1.0000139
1.0038687
0.99723909
0.99350518
0.98873571
0.9991438
1.0118269
1.0122236
1.0182331
1.0202445
1.009579
1.0066371
1.0160068
1.0215719
1.0081046
0.99084112
0.98603993
0.99004538
0.99153936
0.99606902
0.9872504
0.97507353
0.98559997
1.0079751
1.0182345
1.0017551
0.9807625
0.9844206
1.0055118
1.0181874
1.0122913
1.0013834
1.0060291
1.0329287
1.0665149
1.0802033
1.0629804
1.0322446
1.0054603
0.9965994
1.0043944
1.0168042
1.0329032
1.0490382
1.0586735
1.0617881
1.0021913
0.99979679
0.99742716
0.99302937
0.99490086
0.99617031
0.99306929
0.99272631
0.99518683
1.0016643
1.0064272
0.99640817
0.99204848
0.98820799
1.0007457
1.0118425
1.0101807
1.0174042
1.0226586
1.0104437
1.0035592
1.0135125
1.0220532
1.0095451
0.99068448
0.98528135
0.99126028
0.99403569
0.9948902
0.9854826
0.97463863
0.98539234
1.0061332
1.016335
1.0025348
0.98300932
0.98391518
0.99914835
1.0103889
1.0088256
1.0038826
1.0101924
1.034496
1.0635781
1.0767827
1.0629691
1.0367883
1.014366
1.0067292
1.00987
1.0156498
1.0244559
1.0367956
1.047201
1.0552169
1.0024021
0.99978358
0.99798187
0.99301135
0.99446972
0.9954111
0.99258718
0.99264699
0.99323244
1.0028829
1.0082599
0.99600491
0.99060214
0.98829059
1.0015373
1.0111486
1.009052
1.0167994
1.0237938
1.0112045
1.0022257
1.0121832
1.0227325
1.01098
0.99090083
0.98482445
0.99218585
0.99655676
0.99456121
0.98454207
0.975186
0.98608962
1.0048967
1.0140435
1.0026101
0.98537248
0.98463243
0.9937744
1.0014706
1.0037695
1.0054586
1.0154583
1.0375382
1.0611761
1.0712265
1.0599913
1.0379442
1.02205
1.016548
1.0174038
1.0182416
1.0210938
1.0267852
1.0357007
1.0452036
1.0027678
1.0000016
0.99793444
0.99332672
0.99452354
0.99530253
0.9924993
0.99244138
0.99210205
1.0033329
1.0088542
0.99610492
0.98947836
0.9885839
1.0014039
1.0102592
1.008968
1.0163722
1.0238154
1.0113876
1.0022046
1.0126458
1.023996
1.0122305
0.99117314
0.98449088
0.9925249
0.99858937
0.99475429
0.98385806
0.97616044
0.98747549
1.0045855
1.0122549
1.0024164
0.98804115
0.98642031
0.99000897
0.99232317
0.99683948
1.0050746
1.020778
1.041831
1.0602116
1.0657736
1.0542676
1.0363837
1.0271355
1.0250335
1.0248594
1.0233865
1.0207816
1.0207611
1.0256198
1.0340677
1.0032155
1.0003987
0.99741245
0.99380544
0.99494486
0.99577517
0.99270687
0.99215622
0.99197994
1.0030635
1.0081177
0.99641019
0.98904011
0.98893893
1.00044
1.0093918
1.009915
1.0163425
1.0226022
1.0110204
1.0032089
1.0143646
1.02591
1.013249
0.99122919
0.98406609
0.99230712
0.99988201
0.9948892
0.98296973
0.97702041
0.9890958
1.0049322
1.011275
1.0024567
0.99068996
0.98895019
0.98804722
0.98466096
0.98851238
1.0020175
1.0244157
1.0471684
1.0613069
1.0615541
1.0475306
1.0331106
1.0293122
1.0312243
1.0321668
1.0295798
1.0236122
1.0184151
1.0182646
1.0236295
1.0037041
1.0008527
0.99662644
0.99436575
0.99556451
0.99660189
0.99313586
0.99183281
0.99277175
1.0023065
1.0062301
0.99667131
0.98924668
0.98933367
0.99878945
1.0087699
1.0114241
1.0168446
1.0205614
1.0101223
1.0047103
1.0167597
1.028175
1.014171
0.9911478
0.98350652
0.99192354
1.0006076
0.99473082
0.981996
0.97755053
0.99067394
1.0060844
1.0109243
1.0029066
0.99351903
0.99213379
0.9880799
0.97936284
0.9797685
0.99645999
1.0252438
1.0524728
1.0648197
1.059055
1.0414519
1.0283912
1.0283698
1.0351152
1.03899
1.0364485
1.0282484
1.0191
1.0139694
1.0149536
1.0041871
1.0012733
0.99575
0.99492738
0.99629622
0.99761948
0.99366694
0.99150563
0.99402913
1.0013621
1.0036783
0.99689324
0.98986024
0.98973833
0.99679788
1.0082645
1.0131349
1.0177824
1.0183214
1.0086353
1.0063502
1.0193945
1.0303963
1.0151195
0.99099106
0.98288811
0.99147753
1.0007578
0.99415503
0.98051623
0.97761136
0.99178563
1.0076272
1.0108954
1.00346
0.99649116
0.99571218
0.98999653
0.97661143
0.97214307
0.98949472
1.0231005
1.0562523
1.0696689
1.0586617
1.0369356
1.0234209
1.0252957
1.0365591
1.0442688
1.0431347
1.0342197
1.0221246
1.0122003
1.0087246
1.0046125
1.0016114
0.9949268
0.99543662
0.99699671
0.99860084
0.99417343
0.99118595
0.99540223
1.0004406
1.0010582
0.99704712
0.99062381
0.99015598
0.99472766
1.0077337
1.0147769
1.0188428
1.0163768
1.0070179
1.0078314
1.0219615
1.0323503
1.0162787
0.99115332
0.98236193
0.9909389
1.0007331
0.99335246
0.97878785
0.97691708
0.9921888
1.0090065
1.0113979
1.0038891
0.99915733
0.99917746
0.9932082
0.97615772
0.96632186
0.98167086
1.0179734
1.0575097
1.0743646
1.060385
1.0349908
1.0189142
1.0214951
1.0354817
1.0474942
1.0490865
1.0411698
1.0268349
1.0131708
1.0055931
1.0049271
1.0018536
0.9942542
0.99585459
0.99761205
0.99945695
0.99460123
0.99094569
0.99666963
0.99973295
0.99886461
0.99713116
0.99135815
0.99056488
0.99301003
1.0070948
1.0161416
1.0198393
1.0149038
1.0051629
1.0086379
1.0240886
1.0338849
1.0174233
0.99149235
0.98186557
0.99068851
1.0005409
0.99275378
0.9773475
0.97589006
0.99214998
1.0101374
1.0127575
1.0038994
1.000966
1.0017783
0.996946
0.97745377
0.96269969
0.97424538
1.0106732
1.0561907
1.0781041
1.0645431
1.0355277
1.0150005
1.0157788
1.0321763
1.0474956
1.0535286
1.0476409
1.032489
1.0163313
1.0047049
1.0051329
1.0020165
0.99377497
0.99612458
0.99802589
1.0000575
0.99490158
0.99072963
0.99753097
0.9992813
0.99731821
0.99714817
0.99192663
0.99088608
0.99180452
1.0064224
1.0171407
1.0208723
1.014285
1.0038706
1.0087354
1.0253752
1.0356786
1.0188387
0.99188888
0.98088108
0.98942644
1.0007265
0.9931101
0.97655139
0.97391306
0.99098078
1.0102357
1.01484
1.004495
1.0018298
1.0034621
1.0004923
0.98018252
0.96081742
0.96738591
1.0020061
1.0518485
1.0822745
1.0725348
1.0399375
1.01506
1.0123975
1.0264986
1.0447142
1.0555847
1.0530388
1.0398733
1.0213797
1.0064559
1.0052126
1.0021043
0.99355372
0.99625566
0.99822315
1.0003561
0.99509785
0.99066472
0.99796251
0.99904793
0.99657113
0.99712234
0.9924099
0.99111606
0.99104031
1.0058318
1.0172287
1.021269
1.014046
1.0036948
1.0085568
1.0249419
1.0360876
1.0205188
0.99387574
0.98143381
0.98831314
1.0004671
0.99386751
0.97734901
0.97305177
0.98924717
1.0079321
1.0154539
1.0054797
1.0024538
1.0042522
1.0029535
0.9848399
0.96357489
0.96355099
0.99295702
1.0397237
1.0766413
1.0757606
1.0461272
1.0203167
1.0131634
1.021979
1.0397085
1.05295
1.0540462
1.0452233
1.0287823
1.0129218
1.0008114
0.99836818
1.0008448
1.0057872
1.0132335
1.0229806
1.0339328
1.0445969
1.0532964
1.0577469
1.0559891
1.0470807
1.0315975
1.0143434
0.99869271
0.99051336
0.99415721
1.0085276
1.0346611
1.0666499
1.086987
1.0758729
1.0210592
0.92944844
0.87775936
0.9230191
1.0338138
1.0049834
1.008153
1.0144612
1.0224631
1.0316067
1.0413005
1.0498598
1.0558085
1.0571354
1.0517827
1.0393963
1.0217124
1.0001048
0.97817702
0.96324
0.96014061
0.97558461
1.0088409
1.0558017
1.106371
1.1295434
1.1112595
1.041279
0.932502
0.8706166
0.90956686
1.0168535
1.0233713
1.0298566
1.0380449
1.0462905
1.0537819
1.0600587
1.0634519
1.0623127
1.0547972
1.0408175
1.0215687
0.99898069
0.97669855
0.9563062
0.94396608
0.94790612
0.97081006
1.0112434
1.0646997
1.1077616
1.1253914
1.104373
1.0539222
0.97564235
0.9192181
0.92838868
0.9846463
1.0498325
1.0579288
1.063517
1.0680631
1.0709096
1.0709568
1.0670747
1.0586799
1.0453998
1.0276157
1.0062772
0.98411494
0.96421771
0.95047465
0.94683248
0.95873467
0.98876012
1.0312048
1.0705938
1.0871494
1.0806071
1.0543729
1.0339043
1.0255863
1.0069178
0.98585649
0.98090303
1.0745533
1.080053
1.0810932
1.0808224
1.0778813
1.0717824
1.0624144
1.0495529
1.0340404
1.0161902
0.99737079
0.97997344
0.96677469
0.96206103
0.96925619
0.99196348
1.0255551
1.0589378
1.0728297
1.0564346
1.0156483
0.98696056
0.99182598
1.0406177
1.0924391
1.0791352
1.0166517
1.0853745
1.0860489
1.0815505
1.0765221
1.0695866
1.0607133
1.0499241
1.0377134
1.0248176
1.0114795
0.99906867
0.98952605
0.98606842
0.99310747
1.0129521
1.0417709
1.0685
1.0816053
1.0642169
1.0168078
0.9573326
0.93088836
0.95021961
1.019402
1.1248911
1.1722072
1.0795385
1.071367
1.0657715
1.058269
1.0504317
1.0419154
1.0336777
1.0261891
1.0196811
1.0141746
1.0102146
1.0085344
1.0116922
1.0232018
1.0448687
1.073545
1.0981883
1.1092039
1.0878648
1.0384252
0.97460383
0.91997665
0.90152005
0.92826267
0.99576916
1.1050473
1.1969177
1.137872
1.0269361
1.0179847
1.0098219
1.00299
0.99723282
0.99333585
0.99179175
0.99293206
0.99727314
1.0054752
1.0192363
1.040782
1.0707037
1.1053076
1.1324682
1.1429791
1.125764
1.0778151
1.0115933
0.94670675
0.90990373
0.9045215
0.93484189
0.98732789
1.0677484
1.144006
1.1287552
0.97326482
0.96201233
0.95658447
0.9534897
0.9525019
0.95430816
0.95935121
0.96838976
0.98233465
1.0024965
1.0303487
1.0661407
1.1054039
1.1369347
1.1520587
1.1425412
1.1059372
1.0526175
0.99631724
0.94975592
0.93286271
0.94145293
0.97456138
1.0070416
1.0366386
1.0575131
1.0449332
0.93102892
0.92420583
0.92308685
0.92435881
0.92808451
0.93553781
0.94755519
0.96480312
0.98793487
1.0171803
1.0507296
1.0836232
1.1085936
1.1179559
1.111647
1.0854006
1.0515391
1.018127
0.99086296
0.97938702
0.98683945
1.0127689
1.0468119
1.055355
1.0304435
0.97031763
0.94308478
0.91276852
0.91163065
0.9170345
0.92473703
0.93573349
0.95112474
0.9709284
0.99556542
1.0225375
1.0492391
1.0708399
1.08062
1.0758519
1.056802
1.0283838
1.0012131
0.98236412
0.97701105
0.98644473
1.0169683
1.0576348
1.1056047
1.1341903
1.1177802
1.0433789
0.92616334
0.88335379
0.9266459
0.93217088
0.94622254
0.96138241
0.98056921
1.0025441
1.0256705
1.0469616
1.0632689
1.0714023
1.0661311
1.0482035
1.0193205
0.98438467
0.95161961
0.93191491
0.92582901
0.941187
0.98336744
1.0482453
1.120567
1.1839091
1.2052757
1.1690438
1.0679477
0.93374701
0.88423398
0.98540344
0.99897885
1.0156134
1.0334496
1.0512159
1.0668773
1.0779618
1.0823661
1.0777145
1.0614204
1.0360408
1.0032982
0.9669818
0.93238382
0.90437755
0.89096059
0.89963571
0.93347722
0.99213899
1.0691416
1.1497303
1.2061933
1.2158013
1.1695626
1.0778473
0.98292277
0.95051992
1.0805475
1.0943486
1.1029761
1.1091844
1.1120988
1.1100681
1.101632
1.0857275
1.0622429
1.0342166
1.0024924
0.96876574
0.93630644
0.90849904
0.89206378
0.89405509
0.91823915
0.9629301
1.0207841
1.0833294
1.1373673
1.169512
1.158775
1.1057048
1.0581067
1.0445131
1.0583786
1.1491729
1.1565701
1.1539551
1.1470793
1.1347112
1.1170305
1.0948429
1.0687116
1.040728
1.0117436
0.98266269
0.9555336
0.93318726
0.92066184
0.92262336
0.94113606
0.97597903
1.0203026
1.0621783
1.0898485
1.1008058
1.0893447
1.0553842
1.0189641
1.01872
1.0727207
1.1577642
1.1558834
1.1539293
1.1401732
1.1270454
1.1099525
1.0902834
1.0693114
1.0477314
1.0257801
1.0038384
0.98404952
0.96935029
0.96254911
0.9677442
0.98695664
1.0181787
1.0548144
1.0839346
1.0945288
1.083545
1.0533918
1.0074339
0.96067287
0.94808524
0.98186486
1.0704948
1.1963294
1.1003185
1.0913528
1.0803905
1.0681689
1.0549855
1.0425222
1.031204
1.0210089
1.0120121
1.0050797
1.0021296
1.0059953
1.0182931
1.0408252
1.0725924
1.1059501
1.1287984
1.1304952
1.1087847
1.0651976
1.007519
0.95088789
0.91060885
0.91705517
0.97388989
1.071683
1.1807203
1.0194061
1.0108327
1.0037901
0.99924659
0.99565005
0.99241377
0.99052279
0.99151608
0.9974396
1.0094023
1.0284289
1.0544204
1.0858348
1.1202009
1.1513499
1.1740028
1.1739685
1.149317
1.1041886
1.0431441
0.97801711
0.92890545
0.90124661
0.92585718
0.99473211
1.0846034
1.1605781
0.95674095
0.94893872
0.94524213
0.9436573
0.94461306
0.94881468
0.95654704
0.96947157
0.98960887
1.0179754
1.0539833
1.0954717
1.13831
1.1745432
1.1977029
1.2020412
1.1819795
1.142003
1.0857714
1.0238459
0.96966551
0.93406072
0.92377162
0.95983802
1.0305219
1.1078971
1.1562442
0.91671939
0.91278509
0.91250414
0.91421919
0.91815069
0.92624457
0.94035713
0.96181169
0.99165953
1.029193
1.0719728
1.1163321
1.1569289
1.1869061
1.2009371
1.1900645
1.1624609
1.12077
1.0689231
1.0179256
0.97887984
0.95538793
0.96337048
1.0033699
1.0645994
1.1239722
1.1529
0.90152826
0.90097289
0.90406962
0.90956823
0.91773012
0.92974394
0.94653894
0.97014413
1.0005389
1.0358281
1.0736536
1.1082707
1.1367376
1.1557155
1.1598504
1.1503743
1.1284322
1.0977
1.0603469
1.0270805
1.0013125
0.99155664
1.0096975
1.0444835
1.0877041
1.124655
1.1274854
0.91119619
0.91332781
0.92140544
0.93018845
0.94116777
0.9559204
0.97230129
0.9914232
1.0125403
1.0349096
1.0569018
1.0763595
1.0902812
1.0968691
1.0974341
1.0930697
1.0839141
1.0709492
1.0574826
1.0449607
1.0378644
1.0427759
1.059959
1.082539
1.1033255
1.1082297
1.082426
0.94668634
0.95152649
0.95906385
0.96882924
0.98051866
0.99295022
1.0052436
1.016037
1.0237965
1.0293061
1.0332015
1.0350552
1.0342346
1.0335726
1.0336331
1.0325306
1.0340465
1.0386811
1.0467979
1.0593172
1.076482
1.0979379
1.1174328
1.1277572
1.1227742
1.0918756
1.0335495
1.000258
1.0046903
1.0101664
1.0167145
1.023606
1.0296414
1.0332847
1.0335711
1.0300967
1.0224596
1.011663
0.99959981
0.98819635
0.98040616
0.9768085
0.97803146
0.98671986
1.0027951
1.0268505
1.0599691
1.1003689
1.1413316
1.170392
1.1759772
1.1490732
1.0862253
0.99714447
1.0542681
1.0575655
1.0601123
1.0612007
1.0606741
1.0581543
1.052953
1.0443728
1.0320939
1.0165018
0.99844879
0.97953988
0.96218563
0.94884267
0.94151732
0.94185006
0.95162046
0.97278692
1.0061467
1.0513687
1.1059067
1.1604845
1.1998885
1.2073752
1.1693292
1.0857713
0.97842097
1.0955386
1.0970305
1.0962405
1.092724
1.08637
1.0772598
1.0654566
1.0508875
1.0335121
1.0137994
0.99275294
0.97144121
0.95196958
0.93642001
0.92677534
0.92483225
0.93460832
0.95787268
0.99543029
1.0457886
1.1047197
1.1610792
1.1995832
1.2075016
1.1663835
1.0804501
0.97323036
1.1223271
1.1219137
1.118244
1.1111695
1.1007733
1.0871727
1.0707204
1.0518093
1.0310956
1.0092888
0.98739429
0.96621611
0.94732913
0.93265647
0.92393991
0.92388698
0.93539182
0.96081868
1.0004717
1.0515901
1.1072935
1.1549519
1.1830878
1.1805556
1.1399398
1.063977
0.97669763
1.1414639
1.1397094
1.1337425
1.1234935
1.1094157
1.0917474
1.0712556
1.048558
1.0247214
1.0007055
0.97765354
0.95670185
0.93945219
0.92774081
0.92219818
0.92694225
0.94328148
0.97282181
1.0142497
1.0631726
1.1108507
1.1457049
1.158583
1.145353
1.106349
1.0485118
0.98442396
1.1612333
1.1583329
1.1503229
1.1372017
1.1193514
1.0975081
1.0726407
1.0458398
1.0182132
0.9910374
0.96566116
0.94373242
0.92706099
0.91732935
0.9155078
0.92434151
0.94488044
0.97756617
1.0196956
1.0649883
1.1041119
1.1282131
1.1326304
1.1173366
1.0858931
1.0454102
0.99882928
1.1819127
1.1780152
1.1684486
1.1530958
1.1325255
1.1076659
1.0796446
1.0496593
1.0189019
0.988609
0.96038549
0.93616719
0.91796648
0.90760628
0.90647329
0.91551166
0.93578515
0.96656441
1.004354
1.0430616
1.0759046
1.0979853
1.1072622
1.1039198
1.0877733
1.0601799
1.0227784
1.2019587
1.1977519
1.1874123
1.1709593
1.1489607
1.1224378
1.0925943
1.0606731
1.0278761
0.99547342
0.96512576
0.93867316
0.9180461
0.90467582
0.89967595
0.90405951
0.91700893
0.93813596
0.96695279
0.99758399
1.0282569
1.0572473
1.0835057
1.1040588
1.1105943
1.0950158
1.059543
1.2247811
1.2198601
1.2083844
1.1905392
1.166999
1.1388468
1.1073135
1.0737674
1.0396633
1.0063641
0.97502638
0.94688688
0.92335864
0.90549333
0.89395721
0.88935276
0.89176566
0.90110609
0.9178201
0.94202538
0.97445285
1.0155362
1.0636411
1.1126919
1.1460464
1.1432131
1.1054144
1.2523679
1.2464276
1.2332983
1.2132661
1.1871813
1.1564103
1.1223978
1.0866245
1.0506312
1.0156348
0.98242393
0.95181419
0.92453619
0.90130849
0.88274786
0.86960975
0.86276991
0.86309473
0.87278376
0.89338489
0.92890515
0.9813527
1.0485529
1.123615
1.1832311
1.1938949
1.153181
1.2790436
1.2717294
1.2564024
1.233682
1.2047066
1.1711736
1.1346871
1.0965086
1.0579565
1.0202849
0.98422215
0.950247
0.91878224
0.89058764
0.86650605
0.8474235
0.83469683
0.83070273
0.83731595
0.85826844
0.89780269
0.95828164
1.0388096
1.1333539
1.2154168
1.2408817
1.1941849
1.2951627
1.2868107
1.2702728
1.2462245
1.2158713
1.1809095
1.1429274
1.1031446
1.0625953
1.0223983
0.9834193
0.94594469
0.91036179
0.87772748
0.84917043
0.82623316
0.81089308
0.80574334
0.81371293
0.83803908
0.88112567
0.94533518
1.0309783
1.1353026
1.2333909
1.2777139
1.2376844
1.2891842
1.2814692
1.2668571
1.2454904
1.2179174
1.1853523
1.1489845
1.1098516
1.0688452
1.0270929
0.9856023
0.94466687
0.90500968
0.86808702
0.83559616
0.80980938
0.79326066
0.788603
0.79924769
0.82762016
0.87450652
0.93933696
1.0227819
1.125958
1.2307007
1.2953777
1.2812082
1.2518027
1.2467805
1.2382608
1.2257218
1.2081814
1.1853745
1.1572934
1.1241753
1.0865382
1.045023
1.0009362
0.95566456
0.91055869
0.86777925
0.83058517
0.80191883
0.785776
0.78319488
0.79699071
0.82771822
0.8751573
0.93663949
1.0104609
1.0995999
1.198196
1.2824141
1.3112505
1.1644769
1.1654988
1.1689872
1.1740988
1.1781691
1.1774481
1.1689265
1.1504537
1.1207931
1.0799978
1.0302193
0.97540972
0.92080233
0.87221331
0.83390401
0.80616327
0.79440308
0.79664293
0.81498155
0.84626569
0.88753528
0.93544597
0.98870029
1.0522064
1.1301643
1.2241713
1.3045737
0.95968663
0.96291936
0.97101462
0.98439669
1.0020147
1.0225726
1.0448708
1.0663363
1.0839386
1.0916326
1.0850436
1.0608462
1.0208103
0.97627209
0.93419888
0.91181872
0.9002859
0.89380162
0.89267233
0.89956539
0.91334471
0.92955974
0.94772061
0.97539815
1.0257752
1.1168138
1.2432942
0.72885998
0.73096561
0.73746034
0.74871512
0.76636023
0.79546271
0.83981854
0.90325092
0.98517676
1.0834615
1.1881593
1.2843795
1.3473672
1.3570381
1.3030029
1.2126857
1.1161889
1.031398
0.96833049
0.92271585
0.89232165
0.87435425
0.86656293
0.87706532
0.91565837
0.99800684
1.13597
0.67171066
0.67537443
0.68264005
0.69380858
0.71270768
0.74307777
0.78899271
0.85555713
0.95002423
1.0730342
1.2225771
1.3815277
1.510417
1.5568502
1.4916871
1.3509145
1.1874945
1.0413949
0.93049258
0.86026674
0.82222364
0.80637232
0.80661854
0.82007241
0.85571162
0.9285924
1.0535712
0.75549361
0.76024026
0.76896134
0.78286666
0.80408478
0.83366652
0.87345877
0.92691736
0.99651979
1.0832124
1.1825028
1.2824057
1.3574872
1.3718279
1.3125271
1.2071551
1.0925129
0.98745238
0.89826782
0.83389467
0.80759586
0.80271362
0.81269337
0.83256648
0.86005994
0.90545155
0.98759723
0.84675248
0.84854131
0.85395319
0.8642565
0.88038508
0.90321513
0.93396882
0.97350038
1.0216284
1.0763752
1.1330656
1.1830872
1.2140378
1.2105085
1.1707896
1.1060636
1.0347671
0.96786721
0.90965162
0.86320964
0.83590732
0.8332499
0.83837626
0.84976169
0.86230946
0.89121791
0.9564233
0.89745141
0.89939321
0.90530171
0.91562664
0.93100879
0.95198448
0.978687
1.0105411
1.0460293
1.0819571
1.1145131
1.1386627
1.1487549
1.1397949
1.1140998
1.0783443
1.0384893
0.99891863
0.96134373
0.92875073
0.90653972
0.8981899
0.90446575
0.91811472
0.93962633
0.9857367
1.0618658
0.95798984
0.9600318
0.96569527
0.97561311
0.9900071
1.0085397
1.0302672
1.0535928
1.0761235
1.0948755
1.1067874
1.1092786
1.1011628
1.0838636
1.0638577
1.0445168
1.0282043
1.0140722
1.0020765
0.99266607
0.98771314
0.99613025
1.0190887
1.0574822
1.1205492
1.2034453
1.2813045
1.0269992
1.0290487
1.0337424
1.0412855
1.0517561
1.0641576
1.0770476
1.0886698
1.0969274
1.0996268
1.0947605
1.0814327
1.0621431
1.0411406
1.0220038
1.0071973
0.99758371
0.99336554
0.99440479
0.99900282
1.0117601
1.0387364
1.0778163
1.1398661
1.2249252
1.3094823
1.3403077
1.0566094
1.0583491
1.0613221
1.0661317
1.0722907
1.0787086
1.0843852
1.0883537
1.0894598
1.0860513
1.0769449
1.0626822
1.0452174
1.0266307
1.009117
0.99469562
0.98474523
0.98025104
0.98140326
0.9876736
1.003128
1.0289198
1.0676292
1.1204425
1.1808994
1.2174895
1.1866194
1.0385904
1.040802
1.0425864
1.044916
1.0476677
1.0506638
1.053641
1.0561557
1.057635
1.0574685
1.0551963
1.0506091
1.0437027
1.0348699
1.0249551
1.0152316
1.0070433
1.0015859
0.9994861
1.0020434
1.0114588
1.0310986
1.0568088
1.0853947
1.104326
1.0830097
1.0254355
1.0092614
1.0101375
1.0107538
1.011282
1.0118957
1.012736
1.0140076
1.0160191
1.0190959
1.023439
1.02898
1.035283
1.041446
1.0462423
1.0484797
1.0476376
1.0443571
1.0403287
1.0379279
1.0396547
1.047333
1.0609898
1.0748855
1.0782578
1.0586531
1.0133304
0.96417645
0.9858271
0.98644771
0.98726007
0.98817672
0.98928944
0.99084094
0.9931108
0.99645423
1.0012555
1.0078085
1.016201
1.0261072
1.0367208
1.0467707
1.0548069
1.0597765
1.0616506
1.0618703
1.0633404
1.0690121
1.080379