/*--------------------------------*- C++ -*----------------------------------*\
| =========                 |                                                 |
| \\      /  F ield         | OpenFOAM: The Open Source CFD Toolbox           |
|  \\    /   O peration     | Version:  2406                                  |
|   \\  /    A nd           | Website:  www.openfoam.com                      |
|    \\/     M anipulation  |                                                 |
\*---------------------------------------------------------------------------*/
FoamFile
{
    version     2.0;
    format      ascii;
    arch        "LSB;label=32;scalar=64";
    class       surfaceScalarField;
    location    "20";
    object      phi;
}
// * * * * * * * * * * * * * * * * * * * * * * * * * * * * * * * * * * * * * //

dimensions      [1 0 -1 0 0 0 0];

oriented        oriented;

internalField   nonuniform List<scalar> 
123996
(
0.0019847866
-3.1733261e-05
1.3400395e-05
0.0019971747
-7.8991976e-07
4.8338249e-05
0.0020074699
-0.00018497013
0.00036255279
0.0019896454
-0.00039556474
0.00042650427
0.0019786973
-0.0005771888
0.00044265836
0.0019963399
-0.00055430207
0.0003133193
0.0020423674
-0.0003656081
0.00026839018
0.0019889221
-0.00041592769
0.00020083741
0.0018400508
-0.00029896844
0.0002795326
0.0017481689
-0.00042982174
0.00063083258
0.0016876693
-0.00066676412
0.00049559467
0.0016915806
-0.00020497251
0.00027441933
0.0016415088
-0.00016067056
0.00042756672
0.0014811103
-0.00025991371
0.00041995964
0.0012955726
-0.00031118145
0.00050175262
0.0012078895
-0.00042053062
0.000456868
0.0012315804
-0.00021302406
0.00018367786
0.0010886454
-0.00045071637
0.00049241392
0.0010483603
-0.00075026227
0.00060963369
0.0011650452
-0.00027200086
0.00024706507
0.0011907409
-0.00013414714
0.0002902872
0.001013009
-0.0004096452
0.00058761322
0.00084214682
-0.00073548638
0.00074332012
0.0010981292
-0.00064200394
0.00056967796
0.0013314218
-0.00028436374
0.0002275638
0.0012070466
-0.00021046097
8.7201763e-05
0.0009707882
-0.00027401024
0.00013575934
0.00081097081
-0.00035347382
0.00032091659
0.00064120204
-0.00053471308
0.00052744664
0.00089298003
-0.00048275148
0.00052579536
0.0014262251
-8.4483774e-05
0.00011005397
0.0014942403
0.00031709415
-0.00034873361
0.00089462109
0.00028380674
-0.00037134652
4.5003169e-05
-0.00021339456
4.0819503e-05
-0.00017440915
-0.00053869232
0.00060929824
0.00060338308
-0.0003951634
0.00060155032
0.0017471291
0.00010930083
-5.7188606e-07
0.0021971904
0.00041322793
-0.00064311477
0.001854416
0.00026503455
-0.00069145273
0.00099983484
-0.00015756011
-0.00029054843
0.00011663157
-0.00049509582
0.00012267171
0.00014965064
-0.00040687604
0.00041056087
0.0010585325
-4.029998e-05
0.00028029044
0.0024833468
0.00042200415
-0.00013867888
0.0033942214
0.00072984419
-0.00060644061
0.0034922781
0.00087751392
-0.0010143938
0.0029920495
0.00088386281
-0.0012123192
0.0021253113
0.00080277149
-0.0012326066
0.0013016554
0.0006060941
-0.0010616285
0.0010930308
0.00024722859
-0.0007588542
0.0015352215
-3.0231038e-05
-0.00046736248
0.0021017021
-0.00010698584
-0.00032130523
0.0022132859
-7.1902488e-05
-0.00025505572
0.001952533
8.7377577e-05
-0.0001500388
0.00017951577
0.0015726237
-0.00010175145
0.0018945672
-6.2591297e-05
0.0018936498
-8.9150281e-05
0.0019051326
-5.1718526e-05
0.0018855745
-0.00022171632
0.0018777564
-0.00039038099
0.0019023864
-0.00055529106
0.0019316577
-0.00050643309
0.0018960163
-0.00044489022
0.0017604805
-0.00042246564
0.0016554556
-0.00031870903
0.0016418839
-0.00048778902
0.0016246641
-0.00034351973
0.0015702607
-0.00016748395
0.0014411137
-0.00025845939
0.0012693196
-0.00012690236
0.0012168739
-0.00013937579
0.0011595267
-0.0003761236
0.0010016883
-0.00060161849
0.0010860384
-0.00066757284
0.0011483026
-0.00041340293
0.0011072574
-0.00023598768
0.00093729891
-0.00035281007
0.00083490317
-0.00057798991
0.0010708949
-0.00052625153
0.0012088736
-0.0002859595
0.0011080151
-0.00025272721
0.00091486752
-0.00031185391
0.00075284473
-0.0003583207
0.00064136183
-0.00047597892
0.00092472024
-0.0003938388
0.0013788988
-1.8415837e-05
0.0013401911
0.00027296685
0.00076097708
0.00013778294
0.00011720716
-0.00031813699
1.1685355e-05
-0.00057552071
0.00058569548
-0.00028816115
0.0012575179
0.00019151926
0.0013905438
0.00031256501
0.0010179373
-4.6714504e-06
0.00055410802
-0.00043697253
0.00038534157
-0.00052174753
0.00058955733
-0.00018241392
0.0011794589
0.00024647227
0.0020557487
0.00058644568
0.0027649947
0.00065189037
0.0029558781
0.00046416143
0.0026290473
0.0001974455
0.0019108465
3.0438594e-07
0.00099046154
-0.00012938296
0.00042952647
-0.00017571443
0.00058072717
-0.00013677266
0.001352177
1.6879008e-06
0.0023990171
0.00016796383
0.0031037066
0.00034644231
0.00045604598
0.0032321033
0.001801049
-2.3327286e-05
0.0018034512
-0.00021990526
0.0018096661
-4.5704386e-05
0.0017915317
-0.00011047597
0.0017863796
-0.0002130518
0.0018119241
-0.00035682318
0.0018438864
-0.00050680206
0.0018080763
-0.00032479698
0.0016889273
-0.0003849657
0.0015721795
-0.00041565328
0.0015730085
-0.00024883161
0.0015551447
-0.00037472666
0.0014866055
-0.000187331
0.0013928627
-0.00019987798
0.0012365237
-0.00014459873
0.0011285282
-0.0001131156
0.0010639585
-0.00043856247
0.00094001763
-0.00059276049
0.0010561741
-0.00035377085
0.0010924072
-0.00039156833
0.001017636
-0.00040180046
0.00086301853
-0.00038997261
0.00081389471
-0.00043538309
0.0010429974
-0.00032794269
0.0011489768
-0.00019142279
0.0010831411
-0.000219426
0.0009303053
-0.00025351769
0.0007488979
-0.00027329707
0.00067515301
-0.00033381035
0.00098254872
-0.00021891912
0.0014158462
0.00011010452
0.0013136999
0.00026696077
0.00072168311
3.1530228e-05
0.00013751838
-0.00043293132
0.00010124091
-0.00058991124
0.00057232693
-0.00020951711
0.0010500919
0.00022614982
0.0010354133
0.00029409199
0.00060667879
-0.00011513986
0.00037343871
-0.00047368302
0.00049200664
-0.00040795111
0.0006849294
-3.5533596e-05
0.00090685803
0.00031640019
0.0012355038
0.00049762847
0.0015837233
0.00032884269
0.0017646415
1.2102152e-06
0.0016813249
-0.000316648
0.0013153159
-0.00059064556
0.00079254225
-0.00062472173
0.00039954997
-0.00038758973
0.00057612468
3.3207427e-05
0.0013005152
0.00033288124
0.0023127686
0.00057365315
0.0032124416
0.00062332688
0.00056102438
0.0037842526
0.001710305
1.4517579e-05
0.0017238439
-0.00021004606
0.001725507
-0.00015032561
0.0017043415
-0.00018532117
0.0017017818
-0.00018636039
0.0017207063
-0.0002152253
0.0017692975
-0.00034269392
0.0017253725
-0.00021139775
0.0016085534
-0.00028392832
0.0015111157
-0.00044445473
0.001492548
-0.00020428432
0.001495747
-0.00036925399
0.0014183919
-0.00017776359
0.0013427863
-8.7260149e-05
0.0012007256
-0.00017817046
0.0010380975
-0.00034428044
0.00099928859
-0.00051764142
0.00094836109
-0.00038830243
0.0010190907
-0.0001127475
0.0010464672
-0.00024494681
0.00098018347
-0.00044407806
0.00083676418
-0.00046202219
0.00080887165
-0.00040378064
0.0010165241
-0.00021172454
0.0011043793
-9.4161029e-05
0.0010607519
-0.00014925604
0.00092579153
-0.00018552243
0.00073197318
-0.00019907566
0.00067169904
-0.00022699476
0.00097594293
-6.5748348e-05
0.0013506456
0.00025877307
0.0011933098
0.000316671
0.00059087653
-3.10358e-05
0.00012161521
-0.00049088212
0.00017208606
-0.00056477392
0.0006242651
-0.00015778802
0.00091881723
0.00021796172
0.00075396697
0.00020422145
0.00041295466
-0.00014060043
0.00044233346
-0.00041044846
0.00079705872
-0.00028502718
0.0010153943
1.5896775e-05
0.00091288623
0.00028662093
0.00065544392
0.00033519694
0.00051803586
0.00010939754
0.00053814769
-0.00028495759
0.00061209607
-0.0006120248
0.0006932983
-0.00073997694
0.00083839287
-0.00057852704
0.00095380246
-0.0002042606
0.001076356
0.0001531307
0.0013236404
0.00051896422
0.0018001104
0.00076263116
0.0023890822
0.00075962299
0.00063248838
0.0028648249
0.0016222903
1.1645635e-05
0.0016416032
-9.8968809e-05
0.0016400646
-0.0002427822
0.0016239612
-0.00028630524
0.0016179802
-0.00025389097
0.0016355351
-0.00021297917
0.0016934339
-0.00017919627
0.0016479223
-0.00019775907
0.0015291993
-0.00027083523
0.0014573655
-0.00029321716
0.0014112169
-0.00030188953
0.0014405684
-0.00039382073
0.0013675083
-0.00028352722
0.0012845538
-2.8100675e-05
0.0011301253
-0.00013801548
0.0009595998
-0.00055795386
0.0009768633
-0.00046651561
0.00096879327
-0.00017607178
0.00096320923
-8.1115377e-05
0.00096654136
-0.00012961933
0.00093441659
-0.00038078274
0.00080646291
-0.0005147274
0.00078722865
-0.00049212209
0.00096965041
-0.0002364682
0.0010380494
-0.00010037426
0.0010274842
-0.00012907414
0.00092454447
-0.00015043473
0.00073407713
-0.00016938041
0.00069816277
-0.00021187251
0.00099733253
-2.6020608e-05
0.0013045921
0.00030035136
0.0011115416
0.00032230902
0.00053009716
-6.9617661e-05
0.00018355688
-0.00049762009
0.00030438157
-0.00049712783
0.00067410028
-9.1403582e-05
0.00079255813
0.00024612602
0.00050790028
0.00015263966
0.00026324417
-0.00015053425
0.00043913632
-0.00029867045
0.00088323831
-0.00014194716
0.0011204749
0.0001190471
0.00091548511
0.00022862555
0.00036664386
0.00016430742
-6.5616822e-05
-7.3150063e-05
-0.00022946779
-0.00041022478
-3.8465807e-06
-0.00060194585
0.0004979675
-0.00055938109
0.00107892
-0.00030678296
0.0014547872
1.2327493e-05
0.0015359149
0.00025921984
0.0014533245
0.00044585066
0.0013614286
0.00060441185
0.0014123788
0.00057377968
0.00051269037
0.0014986894
0.0015433073
-2.9232814e-05
0.0015584312
-1.4996108e-05
0.0015586188
-0.00025067241
0.0015457032
-0.00033660408
0.0015387527
-0.00030446973
0.001558833
-0.00027374132
0.0016132043
-0.00012992688
0.0015660476
-0.00023077445
0.0014620776
-0.00028430725
0.0013932823
-0.00011944372
0.0013359285
-0.00034459815
0.0013738787
-0.00035144821
0.0013260416
-0.0003649612
0.0012309525
-3.8159791e-05
0.0010527813
-8.2333308e-05
0.0009263368
-0.00051746809
0.00096741725
-0.00027611984
0.00094561448
-0.00010263009
0.00091937869
-0.00020182078
0.00089309736
-0.00014833486
0.00088161304
-0.00027042487
0.00078062068
-0.00048588295
0.00077020265
-0.00056158421
0.00092155935
-0.00032317335
0.00097964808
-0.0001270955
0.00098796067
-0.00010740157
0.00090084564
-0.00010484946
0.00070640511
-0.00015175468
0.00068785353
-0.00021678713
0.00096744032
-6.2663793e-05
0.0012007441
0.00023919154
0.00097940684
0.00024161357
0.00044652377
-0.00014291009
0.00020746393
-0.0004845997
0.00038685134
-0.00040541506
0.00068829357
-2.6437767e-05
0.00068262343
0.00021393396
0.00035161933
0.00010139141
0.0002151477
-0.00016006919
0.00044705848
-0.00019054833
0.00093272501
1.5029636e-05
0.0011743685
0.0001959953
0.00096033719
0.00018102548
0.00035772556
1.0701422e-05
-0.00021908346
-0.0002339347
-0.00048136356
-0.00045697965
-0.00012984065
-0.00047748777
0.0005260115
-0.00028360797
0.0012375176
-6.2886756e-05
0.0016624263
0.00012827279
0.001783648
0.00022129193
0.0015759623
0.00024800781
0.001220085
0.00028076413
0.00083902033
0.00023547573
0.00020689371
0.00055619527
0.0014705647
-8.6092906e-05
0.0014767302
-1.9730581e-05
0.0014799801
-0.00019601807
0.0014690569
-0.00028792056
0.0014622568
-0.00029256315
0.0014857429
-0.00030970026
0.0015335003
-0.00018441235
0.0014929367
-0.00025188701
0.0014102022
-0.00027707816
0.0013201624
-0.00011399807
0.0012724921
-0.0003455653
0.0013097305
-0.00019613307
0.0012873136
-0.00025154173
0.0011770217
-8.5221238e-05
0.00098568383
-9.6033003e-05
0.00092013467
-0.00032054765
0.00094819118
-0.00011670758
0.0008833815
-0.00012036274
0.00087148603
-0.0003116074
0.0008411905
-0.00020371146
0.00081995733
-0.00017843805
0.00074045948
-0.00036581615
0.00075043068
-0.00050940759
0.00088096742
-0.00034848128
0.00092080804
-0.00013655416
0.00094743268
-6.1821701e-05
0.0008800647
-4.1114692e-05
0.00068394487
-9.9773214e-05
0.00067663856
-0.00019446153
0.00094952887
-8.2350061e-05
0.0011243659
0.00016604955
0.00089250165
0.00013168961
0.00041778221
-0.00021642133
0.0002678575
-0.00047642706
0.00048586961
-0.00031121628
0.00071330636
2.5478491e-05
0.00062591225
0.00016268693
0.00027847852
2.4203677e-05
0.00019089978
-0.00015639797
0.00044487621
-9.8829123e-05
0.0008814949
0.00013362812
0.0010810313
0.00026845842
0.00087974383
0.00015710469
0.0003229591
-0.00011398222
-0.00026562454
-0.00039422059
-0.00052548987
-0.00049495298
-0.00015269909
-0.00034719366
0.00054998808
-8.5301223e-05
0.0011745356
8.4689138e-05
0.0015876733
0.00012083555
0.0016806336
8.2987003e-05
0.0015203033
8.079249e-06
0.0011530734
-7.8508404e-05
0.00065641932
-0.0001507244
-0.00016135372
0.00025372501
0.0014030968
-0.00011347727
0.0014014708
-9.1197145e-05
0.0014079317
-0.00013367393
0.0013978498
-0.0001862933
0.0013898204
-0.00023837075
0.0014149029
-0.00031214039
0.0014555453
-0.00025651489
0.0014224183
-0.00026490186
0.001353444
-0.00021129823
0.0012459975
-0.00025831944
0.0012254904
-0.00036771658
0.0012520377
-2.6826191e-05
0.0012442068
-2.63589e-05
0.0011266591
-0.0001086008
0.00093676403
-0.00016687231
0.00091313939
-0.00014088114
0.00091301467
-3.4312137e-05
0.00082077061
-0.00016617327
0.00083666613
-0.00033771322
0.00080498153
-0.00023846619
0.00077117161
-0.00011401744
0.00070115341
-0.00022774551
0.00073415065
-0.00037549409
0.00085483403
-0.00029510771
0.00088288459
-0.00013399141
0.00091380532
-3.3406327e-05
0.00085584318
-2.8788734e-06
0.00065593456
-5.4455346e-05
0.00064826418
-0.00014145966
0.00090707891
-4.4981759e-05
0.0010315415
0.00014967447
0.00079075851
5.8842842e-05
0.00038715993
-0.00027401741
0.00029654372
-0.00045952683
0.00052569579
-0.00022878373
0.00069689199
6.8791821e-05
0.00056877768
0.0001302466
0.00024064189
-5.0567074e-05
0.00019831847
-0.00018031862
0.00045692424
-3.2157811e-05
0.00081752518
0.00019458001
0.00094642974
0.00029357391
0.00075463636
0.00011661316
0.00027861344
-0.00021814737
-0.00018432999
-0.00049735292
-0.00036706301
-0.00049370667
-7.4963507e-05
-0.00023884399
0.00045033298
2.0392958e-05
0.00092829671
0.00014073929
0.0012565778
9.5082313e-05
0.0013773813
-3.3840343e-05
0.0012864061
-0.00020596038
0.0010089322
-0.00038557333
0.00063220421
-0.00048201547
-0.00047364367
0.00029913379
0.0013371072
-9.7768017e-05
0.001332596
-0.00019909097
0.0013412676
-7.879963e-05
0.0013305442
-6.6103677e-05
0.0013204309
-0.00018274648
0.0013469685
-0.00029563744
0.0013826604
-0.00029497019
0.0013577947
-0.00025539085
0.0012873615
-0.00016159812
0.0011821455
-0.00042706803
0.0011868667
-0.0003377937
0.001201814
1.7001226e-05
0.0011914201
0.00013909479
0.001076569
-0.00013190031
0.00090361955
-0.00024793468
0.00088771857
-1.2715489e-05
0.00086252536
-2.0973141e-05
0.0007654967
-0.00024705783
0.00080698551
-0.00028326872
0.00078451572
-0.00021065172
0.00073673068
-0.00013062904
0.00066757471
-0.00016068377
0.00071309246
-0.00025675083
0.00082565279
-0.00021476339
0.00084823184
-0.00012916292
0.00087869677
-5.2983491e-05
0.00082914265
-2.0372489e-05
0.00063408999
-6.3422869e-05
0.00063048058
-0.00011710325
0.00087757782
2.4785795e-06
0.00096177782
0.00017001744
0.00072735644
4.3750917e-05
0.0003893846
-0.00028157512
0.00035409526
-0.00040365265
0.00056568485
-0.00014770133
0.00068312678
0.00012044914
0.00052325907
0.00012450832
0.00022484823
-8.1516045e-05
0.00022789326
-0.00018681261
0.00046816898
-2.914438e-06
0.00071231307
0.00021984767
0.00076802206
0.00028212482
0.00056020204
6.8520517e-05
0.00018317006
-0.0002955703
-8.9439952e-05
-0.00054569243
-0.00014488283
-0.00049614891
6.1479204e-05
-0.00020943319
0.00036848413
5.237217e-05
0.000629829
0.00014764318
0.00081023907
4.3116122e-05
0.00089789691
-0.00012465352
0.00085678754
-0.00036139764
0.00073527877
-0.00057336406
0.00057335309
-0.00064413477
-0.00063539095
0.00044912739
0.0012722084
-5.7604989e-05
0.0012709659
-0.0002573688
0.001279632
-5.0091036e-05
0.0012660809
-1.5683798e-05
0.001255845
-0.00013169783
0.0012828487
-0.00026408472
0.0013179622
-0.0002999262
0.0012980283
-0.0002246962
0.0012175042
-0.00017320462
0.0011289519
-0.00045485351
0.0011481997
-0.00022114964
0.0011536569
-3.2222344e-05
0.0011267501
0.00012297312
0.0010266999
-0.00018100372
0.00088139349
-0.00026454593
0.00084506389
4.025632e-05
0.00080220891
-6.0237087e-05
0.00072597656
-0.0003352098
0.00077683741
-0.00019013545
0.0007592768
-0.000155246
0.00070595936
-0.00016003233
0.00063704288
-0.00018576608
0.00068682078
-0.00021978909
0.00079316029
-0.00016118156
0.00081380381
-0.00012008453
0.00083908894
-8.5532546e-05
0.00079604244
-7.6579825e-05
0.0006075593
-0.00012044229
0.00060687712
-0.0001432835
0.00083794622
1.3789641e-05
0.00088978273
0.00019119907
0.00065891393
5.4216022e-05
0.00038854724
-0.00026460523
0.00039241566
-0.00034678036
0.00058406162
-8.2022085e-05
0.0006478765
0.00017572231
0.00045646439
0.00014376392
0.00021788303
-8.0074817e-05
0.0002557001
-0.00016688839
0.00047236265
2.4033493e-05
0.00063604716
0.00021674618
0.00060944851
0.00024097299
0.00036727966
1.2183953e-05
8.4327518e-05
-0.00033995968
-1.5278685e-05
-0.00054750485
4.4661819e-05
-0.00048764421
0.00020800876
-0.00021749856
0.00034242437
4.926971e-05
0.00034963816
0.00012775872
0.00035595713
1.9400529e-05
0.00038491206
-0.00017973296
0.00040516605
-0.00040710871
0.00041540884
-0.00058212751
0.00045380967
-0.00063564883
-0.00063477637
0.00048298618
0.001208673
-1.6351012e-05
0.0012135078
-0.00022068028
0.0012205441
-4.6987322e-05
0.001205574
-3.7118315e-05
0.0011944078
-0.00012225752
0.0012207232
-0.00021658359
0.0012580603
-0.00028119895
0.0012404301
-0.00017379481
0.0011533422
-0.00020007471
0.0010872012
-0.00031763454
0.0011010512
-6.6831813e-05
0.0011015432
-0.00012509844
0.0010578695
-3.6607957e-05
0.00098130192
-0.00023315704
0.0008636965
-0.00020439092
0.00079507845
2.0363082e-05
0.00074392741
-0.00012435333
0.00070081191
-0.00035501472
0.00074565398
-0.00014669341
0.00072752428
-9.5015227e-05
0.00067244146
-0.00014983243
0.00060291942
-0.0002318694
0.0006512094
-0.00024849624
0.00075200892
-0.00015904012
0.00077436156
-0.00011565475
0.00079378183
-0.00010087233
0.00075920179
-0.00013208221
0.00058467948
-0.00019684196
0.0005876565
-0.00020217485
0.00080358302
-6.8173524e-06
0.00083584656
0.00017342047
0.00061205434
4.2812565e-05
0.00039800329
-0.00025209965
0.0004381372
-0.00030559673
0.00061119757
-5.4767975e-05
0.00062613535
0.00020422311
0.00040271361
0.00016938256
0.00021823462
-5.0178215e-05
0.00028661388
-0.00011555776
0.0004720013
6.4671113e-05
0.00056522667
0.00021844694
0.00045779593
0.00020101936
0.00018133236
-4.503516e-05
-1.6320592e-05
-0.00037159241
-1.548182e-05
-0.0005574728
0.00014603936
-0.00046940133
0.00032259796
-0.00021371223
0.00032453362
1.7872821e-05
0.00019450068
8.8380143e-05
6.6514561e-05
1.6774428e-05
9.2671627e-07
-0.00014965965
2.7083096e-05
-0.00033673623
0.00014305511
-0.00046508493
0.00030093633
-0.00050883882
-0.00052199262
0.00043298664
0.0011485742
1.435219e-05
0.0011583206
-0.0001122654
0.0011629071
-4.701309e-05
0.0011479886
-0.00010380823
0.0011373048
-0.000131512
0.0011623348
-0.00015527109
0.0012024323
-0.0002259031
0.0011832984
-0.00011276612
0.0010992331
-0.0002167343
0.0010500838
-0.00012049489
0.0010475128
3.7433844e-05
0.0010492205
-0.00020120677
0.00099811425
-0.00022133901
0.00094434981
-0.00024469787
0.00084246909
-0.0001169284
0.00074612738
-5.7951474e-05
0.00069460162
-0.0001510896
0.00068214652
-0.00029071713
0.00071845897
-0.00014938114
0.00069821944
-7.7923981e-05
0.00063960819
-0.0001034598
0.00057059144
-0.0002340569
0.0006145416
-0.00028190039
0.00071158039
-0.00019125771
0.00073762819
-0.00010839914
0.00074884497
-7.8551881e-05
0.00072149353
-0.0001399267
0.00056186169
-0.00023941619
0.00056630113
-0.00024295336
0.00076630552
-2.9174185e-05
0.00077986087
0.00014291944
0.00055904688
1.6735247e-05
0.00038828879
-0.00025508409
0.00046005157
-0.00029660883
0.00062285041
-6.7409649e-05
0.00059758191
0.00017515507
0.00035978561
0.0001622367
0.00021809517
-8.8775509e-06
0.00031393902
-4.5677664e-05
0.00048211814
0.00011248708
0.0005217184
0.00023878335
0.00034700774
0.00018992705
4.4241897e-05
-7.2260238e-05
-0.00011087651
-0.00038598493
-3.8332024e-05
-0.00053531312
0.00020437198
-0.00041505028
0.00040255869
-0.00018212299
0.00035110737
-1.8462003e-05
0.00014212333
3.8268119e-05
-4.6804464e-05
-1.1713067e-05
-0.00019565915
-0.00011737103
-0.00019565576
-0.00023787589
-4.7757739e-05
-0.00029919737
0.00011804736
-0.0003191946
-0.00036191812
0.00031610101
0.0010928924
2.9919285e-05
0.0011041746
1.8397853e-05
0.0011065253
-3.7113206e-05
0.0010936685
-0.00015851411
0.0010840674
-0.00014277381
0.0011063874
-9.2724243e-05
0.0011495908
-0.0001290053
0.0011271472
-6.3191861e-05
0.0010539549
-0.00020506656
0.001010402
7.2806085e-06
0.00098983702
4.1697435e-05
0.0009964238
-0.00022878257
0.000949182
-0.00030604476
0.00091205913
-0.00018502644
0.00081043361
-5.4748582e-05
0.00070485509
-0.0001686072
0.00065914905
-0.00015826886
0.00066052285
-0.00016789116
0.00068777568
-0.00016292246
0.00066962965
-9.5891236e-05
0.00061057829
-4.7991504e-05
0.00054380314
-0.00016036735
0.00058244781
-0.00027562613
0.00067623254
-0.00022023438
0.0007036425
-9.1743744e-05
0.00070450808
-1.944266e-05
0.00068531545
-8.9337005e-05
0.00054576144
-0.00022872428
0.0005518711
-0.00022938862
0.00073396563
-1.150819e-05
0.00073280042
0.00013727043
0.00051770591
-2.3432271e-06
0.00037543
-0.00025044779
0.00046842468
-0.00030429925
0.00062910341
-0.00010975544
0.00058060151
9.9842904e-05
0.00034123975
0.00011450025
0.00022965376
1.8689645e-05
0.00033306768
3.1144954e-05
0.00048806668
0.00017190442
0.00049060637
0.00027746249
0.00026600961
0.00019215362
-4.0912732e-05
-7.244054e-05
-0.00018372673
-0.00036237979
-5.6006187e-05
-0.00046856238
0.00020652134
-0.00034570906
0.0004152883
-0.00014640814
0.00037159326
-3.9491893e-05
0.00014674566
-1.4885087e-05
-8.4089591e-05
-5.0213974e-05
-0.00029658739
-0.00010268859
-0.00033552802
-0.00014531717
-0.00021164855
-0.00015463763
-1.1215728e-05
-0.00017013454
-0.00019016374
0.00015934297
0.0010416432
2.7984227e-05
0.0010513136
0.00012300648
0.0010521203
-2.3294957e-05
0.0010417613
-0.00019208991
0.001033881
-0.00013373139
0.0010545115
-4.4539514e-05
0.0010988515
-1.8237635e-05
0.0010735109
-2.7375848e-05
0.0010134303
-0.00015759339
0.00096388178
5.6327425e-05
0.00093249041
-5.6996325e-05
0.00094603684
-0.00021301909
0.00091141914
-0.00025928512
0.00088098475
-7.3557912e-05
0.00077298184
-2.850261e-05
0.00067302814
-0.00025961362
0.0006326645
-0.00014789826
0.00063378373
-4.7673526e-05
0.00065754294
-0.00015955871
0.0006442263
-0.00013073315
0.00058616714
3.9780362e-06
0.00051752864
-5.8088383e-05
0.00055202697
-0.00023205447
0.00064822243
-0.0002280841
0.00067945982
-7.2468594e-05
0.00067110936
4.2050116e-05
0.00065480278
-9.7579475e-06
0.00053594521
-0.0001713755
0.00054403043
-0.00017381908
0.00070365384
4.5184916e-05
0.0006891823
0.00016716812
0.00048319186
5.4789668e-06
0.00035507882
-0.0002264237
0.00045666722
-0.00029428834
0.00061650017
-0.0001443366
0.00056091838
2.0170481e-05
0.00033383727
4.0891839e-05
0.00024235454
1.6982887e-05
0.00034077249
8.8785771e-05
0.00048981164
0.00023859891
0.0004615202
0.00031325359
0.00020929463
0.00018886493
-7.320661e-05
-6.1900163e-05
-0.0002228434
-0.00030608254
-8.3628141e-05
-0.00037108011
0.00017800934
-0.00026508707
0.00038628152
-0.00010797714
0.00036161819
-4.0110824e-05
0.0001500692
-5.8257897e-05
-7.9317545e-05
-0.00010009779
-0.00030035544
-0.00011061613
-0.00037053436
-9.0648291e-05
-0.00029682802
-5.2891133e-05
-0.00014310014
-4.2729579e-05
-5.0858023e-05
1.3283457e-05
0.00099427102
1.4298202e-05
0.0010001611
0.00018026714
0.00099998065
-1.6320317e-05
0.00099248364
-0.00018537902
0.00098597377
-0.0001192553
0.0010052367
-2.5579256e-05
0.0010485266
7.1619413e-05
0.0010228319
-8.0352607e-06
0.00097487331
-8.5018367e-05
0.00091568409
3.5769033e-05
0.00088228117
-0.00021000341
0.00090015256
-0.00016991231
0.00087753731
-0.00013870117
0.00084541636
4.3046794e-05
0.00073164137
-3.4679326e-05
0.00064828855
-0.00029400788
0.00061247895
-0.00013572758
0.00060150675
4.6642565e-05
0.00062685305
-0.00013758088
0.00062426034
-0.00015558249
0.00056570789
4.1762972e-05
0.00049104107
1.943764e-05
0.00052227303
-0.00017674721
0.00062392988
-0.00021663409
0.00065974837
-5.6415363e-05
0.00064307531
8.7822021e-05
0.00062067271
5.5951172e-05
0.0005274814
-0.00011512842
0.00053998944
-0.00010357221
0.00067806794
0.00011230078
0.00065188471
0.00021674195
0.00046033533
3.2224294e-05
0.00033787758
-0.00018737474
0.00043623306
-0.00025501954
0.000594801
-0.00015001916
0.00054709351
-5.0133738e-05
0.00034638757
-3.6933222e-05
0.00025882969
-8.4498293e-06
0.000348835
0.00012338415
0.00048219321
0.00028565181
0.0004349508
0.00032829729
0.00018134741
0.0001890285
-9.3352359e-05
-4.9916233e-05
-0.00024079319
-0.00024863516
-9.9067091e-05
-0.00027363651
0.00013370565
-0.00016495189
0.00033150756
-5.4637663e-05
0.00032470395
-1.8452688e-05
0.00014121274
-8.1563011e-05
-5.9284261e-05
-0.00014152678
-0.00025366777
-0.00013773802
-0.00034290452
-8.0421819e-05
-0.00031977517
-7.392515e-06
-0.00022760271
3.4470459e-05
5.0756824e-05
-0.00010743354
0.00094957343
-2.0608016e-06
0.00095088304
0.0001796069
0.00095099348
-1.5788364e-05
0.00094592447
-0.00014766707
0.00093993635
-0.0001005794
0.00095929805
-3.6721957e-05
0.00099837575
0.00011636618
0.00097548486
-5.7337491e-06
0.00093501968
-7.0954212e-06
0.00086626627
-3.270145e-05
0.00083935105
-0.00033140046
0.00086048758
-0.00012448841
0.000847509
-1.3509663e-05
0.00080799581
0.00013750052
0.00069261977
-4.4915664e-05
0.00062790173
-0.00026931713
0.00059541422
-0.00013203379
0.00056686683
7.9961168e-05
0.00059450199
-0.00010129826
0.0006070676
-0.00015016816
0.00054630398
6.3832544e-05
0.00046355952
5.8587077e-05
0.00049205539
-0.0001342205
0.00060043081
-0.00019652111
0.00064141514
-4.9370815e-05
0.0006172007
0.00010933923
0.00058767359
9.1265086e-05
0.00051971375
-8.1005131e-05
0.00053625183
-4.7841772e-05
0.00065405966
0.0001633881
0.00061717498
0.00025719785
0.00043956232
6.5722146e-05
0.00032324229
-0.00014430978
0.00041092882
-0.00020106885
0.00056361806
-0.00012599571
0.00053108502
-8.558241e-05
0.0003657107
-0.00010605296
0.00027952601
-4.853679e-05
0.00035222862
0.00013633205
0.00046157043
0.00031002454
0.00041092045
0.00033254828
0.00017084471
0.00017720206
-9.4133979e-05
-5.1901103e-05
-0.00023001628
-0.00020289583
-0.00010141618
-0.00018957449
0.00010196034
-6.9879545e-05
0.0002704347
2.3234659e-05
0.00027453033
1.5038252e-05
0.00013227252
-7.9945825e-05
-2.6922373e-05
-0.00016416234
-0.00017630117
-0.00016531116
-0.00027375993
-9.8649523e-05
-0.0002874065
-3.8266672e-06
-0.00024707904
5.7698174e-05
0.00010530846
-0.00018670805
0.0009073311
-1.2119804e-05
0.00090415474
0.00012050433
0.00090524611
-2.0597459e-05
0.00090146746
-8.8289305e-05
0.0008953935
-7.7632505e-05
0.00091563858
-6.0804604e-05
0.00094873842
0.00010421914
0.00093114065
-1.6289596e-05
0.0008924251
4.1935915e-05
0.00081815362
-0.00010850887
0.00080346756
-0.00036735511
0.00082484065
-8.7578002e-05
0.00081742326
7.1440258e-05
0.00076892606
0.00017626715
0.00065786159
-4.7487249e-05
0.00060797864
-0.00019888492
0.00057555145
-0.00012854743
0.00053099669
5.3315956e-05
0.00056486477
-7.3676782e-05
0.00059199956
-0.00010829348
0.00052646239
6.5804271e-05
0.00043328489
5.2195736e-05
0.00046024539
-0.00012134638
0.00057466026
-0.00017654885
0.00062098659
-4.6822107e-05
0.00058976204
0.00010885214
0.00055227222
9.5077776e-05
0.00050505485
-7.3479855e-05
0.00053038004
-2.589246e-05
0.000632013
0.00018714218
0.00058499023
0.0002730727
0.00042163197
8.4293326e-05
0.0003132817
-0.00011041006
0.0003870275
-0.00014625005
0.00052810849
-8.2867203e-05
0.00051158508
-8.746539e-05
0.0003835295
-0.00014934271
0.00031057646
-8.3668026e-05
0.00036301091
0.00013782813
0.00043700641
0.00032536966
0.00038331098
0.00033688047
0.00016312599
0.00016094002
-8.3046729e-05
-6.9343121e-05
-0.00020638996
-0.00018227384
-9.6220518e-05
-0.00012890928
8.7068373e-05
9.5356445e-06
0.00023565643
9.6127135e-05
0.00023712551
5.7792771e-05
0.00012062225
-5.2449867e-05
1.1145116e-05
-0.00015359681
-9.4975944e-05
-0.00017379357
-0.00018385991
-0.00011781465
-0.00021985586
-1.914046e-05
-0.00022798248
5.4816164e-05
0.00012627721
-0.00020798913
0.00086634335
-1.7236794e-05
0.00086021629
2.1427107e-05
0.00086273307
-2.8664233e-05
0.00085913036
-2.3765557e-05
0.00085251661
-4.8937294e-05
0.0008736977
-8.2089535e-05
0.00090145602
4.5659704e-05
0.00088896111
-3.1026695e-05
0.00084883344
4.7195706e-05
0.00077556062
-0.00016031473
0.00077205767
-0.00031490409
0.00079102207
-6.0488889e-05
0.00078454709
9.9475654e-05
0.00073060025
0.00015321986
0.00062837615
-3.4933154e-05
0.00058539051
-0.00010486782
0.00055366192
-0.00011529447
0.00049938721
-1.9199916e-05
0.00053834208
-4.9932127e-05
0.00057630659
-3.4051012e-05
0.00050589985
6.3122836e-05
0.00040504122
8.4069075e-06
0.00043019815
-0.00013885938
0.00054873434
-0.00016049838
0.00059951976
-3.9007312e-05
0.00056356174
9.5758402e-05
0.00051654441
8.1023841e-05
0.00048782378
-8.0441549e-05
0.00052017238
-3.5652977e-05
0.0006079619
0.00018173049
0.00055478807
0.00025753194
0.00040469048
8.1658238e-05
0.00030569562
-9.5986935e-05
0.00036529674
-0.00010311249
0.0004905362
-3.256133e-05
0.00048583421
-6.3049817e-05
0.00039934539
-0.00016344203
0.00035005827
-0.00011123317
0.00038314503
0.00013685485
0.00041824394
0.00033406338
0.00035759558
0.00034276016
0.00016099689
0.00014525797
-5.2752217e-05
-8.8665592e-05
-0.00015620559
-0.00018555301
-5.7880124e-05
-9.9301415e-05
0.00010839954
5.7588418e-05
0.00022062258
0.00015872557
0.00020662357
0.00010648019
0.00012329378
-1.8655252e-05
4.9527437e-05
-0.00012208509
-2.2228378e-05
-0.00016237164
-8.5329561e-05
-0.00013498259
-0.00012499982
-4.1506878e-05
-0.00015381177
3.7547854e-05
0.00012332704
-0.00016062625
0.00082690552
-1.3893578e-05
0.00081947199
-8.6185892e-05
0.00082290383
-3.7082956e-05
0.00081890622
2.9600239e-05
0.00081177478
-1.7607032e-05
0.00083296944
-9.0127311e-05
0.00085673075
-3.5943924e-05
0.00084865168
-4.4950687e-05
0.00080577895
1.8811846e-05
0.00073756612
-0.0001777191