/*--------------------------------*- C++ -*----------------------------------*\
| =========                 |                                                 |
| \\      /  F ield         | OpenFOAM: The Open Source CFD Toolbox           |
|  \\    /   O peration     | Version:  2406                                  |
|   \\  /    A nd           | Website:  www.openfoam.com                      |
|    \\/     M anipulation  |                                                 |
\*---------------------------------------------------------------------------*/
FoamFile
{
    version     2.0;
    format      ascii;
    arch        "LSB;label=32;scalar=64";
    class       surfaceScalarField;
    location    "20";
    object      phi;
}
// * * * * * * * * * * * * * * * * * * * * * * * * * * * * * * * * * * * * * //

dimensions      [1 0 -1 0 0 0 0];

oriented        oriented;

internalField   nonuniform List<scalar> 
40800
(
0.00089113171
0.0013716881
-0.0016934162
0.00095822696
0.0012343151
-0.0013749091
0.0010157156
0.0012175342
-0.001107812
0.0010671076
0.0011304222
-0.0011028206
0.0011009071
0.001142051
-0.0013101493
0.0011372443
0.0010302595
-0.001100432
0.0011739868
0.00095096915
-0.00096810821
0.0011976483
0.00091286897
-0.00099894138
0.0012292183
0.00076152923
-0.00078417509
0.001258387
0.00070518124
-0.0007461071
0.0012918187
0.00065704186
-0.00067461751
0.0013260101
0.00056564236
-0.00058394975
0.001354258
0.00051784296
-0.000536638
0.0013907579
0.00046574225
-0.00045653563
0.0014177895
0.00042995492
-0.00045363717
0.0014583568
0.00043029178
-0.00042589515
0.0014801315
0.00041849604
-0.00047266574
0.0015041021
0.0004091105
-0.00045358449
0.0015456724
0.00048973714
-0.00049014571
0.0015629948
0.00049045564
-0.00050912688
0.0015978433
0.00052084867
-0.0005791564
0.0016335531
0.00059648437
-0.00063526122
0.0016676073
0.00067646629
-0.00070122703
0.0016737022
0.00067368968
-0.00064913914
0.0017909767
0.00076372851
-0.0007526963
0.0018186776
0.00088202585
-0.00094335051
0.0018446451
0.00092261962
-0.00099782922
0.0018796637
0.0009118422
-0.00094352382
0.0019700346
0.0009080565
-0.00093027872
0.0020023327
0.0010367001
-0.0010866679
0.0012231502
0.0022413314
-0.0011908776
0.00089301175
0.0010327432
0.00096551246
0.0010869821
0.0010238431
0.001330594
0.0010723188
0.0011912094
0.0011007304
0.00098291051
0.0011369802
0.00096141453
0.0011724396
0.00094725106
0.0011917931
0.00080233746
0.0012260949
0.0007502625
0.0012542016
0.00066890921
0.0012850001
0.00062215529
0.0013203111
0.00055396911
0.0013482955
0.00049417224
0.0013838689
0.00047383302
0.0014121466
0.0004183753
0.0014496121
0.0004333913
0.0014687725
0.00039237092
0.0015026958
0.00038081585
0.0015374106
0.00047465928
0.0015574943
0.00047925467
0.0015999219
0.0004989506
0.0016387828
0.00057616381
0.0016673268
0.00060440314
0.0016917596
0.00067753656
0.001810522
0.00078022704
0.0018224993
0.0007856144
0.0018360063
0.00078095812
0.001870967
0.00081909843
0.0020141338
0.00091231331
0.0020487639
0.00093352693
0.0011295538
0.0021474913
0.00089333462
0.00076344107
0.00097341224
0.00094922063
0.0010327794
0.0013585903
0.0010765091
0.0012331328
0.0011040503
0.00086757367
0.0011401351
0.0009172171
0.0011705006
0.00093277394
0.001190412
0.00072599374
0.0012234226
0.00074421211
0.0012500956
0.00064493457
0.0012792414
0.00058746168
0.0013142194
0.00054041453
0.0013439182
0.00046981812
0.0013768184
0.00046100743
0.0014081615
0.00041135779
0.0014411468
0.00041644499
0.001460705
0.00039201011
0.0015038169
0.00038915662
0.0015293461
0.00044831898
0.0015523758
0.00045334307
0.0016070605
0.0004976136
0.0016362199
0.00058815527
0.001675003
0.00055382142
0.0017092131
0.00062794614
0.0018013647
0.00073316659
0.0018115632
0.0007081354
0.0018309049
0.00069446118
0.001886413
0.0007023683
0.002007335
0.00087240136
0.0020998532
0.00085535751
0.00093210941
0.0021000017
0.00089177905
0.00063716107
0.00097711616
0.0008264916
0.0010374868
0.0012589678
0.0010767822
0.0012013134
0.0011092707
0.0008148099
0.0011449524
0.00089430245
0.0011692957
0.00089089462
0.0011935205
0.00070116506
0.0012220308
0.00073141308
0.0012472863
0.00062516572
0.0012750459
0.00055385484
0.0013077523
0.00051628082
0.0013394025
0.00045825274
0.0013695981
0.00043545497
0.0014032099
0.00040748178
0.0014334801
0.00038652446
0.0014547381
0.00038524406
0.0015015676
0.00040792044
0.0015178366
0.00041294367
0.0015457053
0.00040457872
0.0016149704
0.00048102222
0.0016239165
0.00057151431
0.0016773976
0.00053298514
0.001715786
0.00057093791
0.001776202
0.00063362084
0.0018017595
0.00062786461
0.0018196314
0.0006765284
0.0019255923
0.00067140685
0.0019844732
0.0008058479
0.0021111059
0.00084377201
0.00084222277
0.0020933202
0.0008931231
0.00068917
0.00097832608
0.00075107816
0.0010377083
0.0010568808
0.0010755058
0.0010814901
0.0011133397
0.00083250355
0.0011471183
0.00088305325
0.0011679496
0.00081121125
0.0011972224
0.00071347432
0.0012205393
0.00069767863
0.0012451746
0.0006053213
0.0012725001
0.00052471757
0.0013032366
0.0004940482
0.0013347695
0.00044757655
0.0013635045
0.0004027415
0.0013958837
0.00040007524
0.0014261055
0.00035813795
0.001450305
0.00035564083
0.0014935936
0.00040247412
0.00150439
0.00037269702
0.0015404146
0.00037086642
0.0016166168
0.00045421498
0.0016061988
0.00049204962
0.001672925
0.00049505321
0.0017150588
0.0005459339
0.0017539127
0.00058770989
0.0018046138
0.00055230053
0.0018055283
0.00062704793
0.0019512332
0.00069531585
0.0019807623
0.00073607723
0.002097783
0.00080636573
0.00081749593
0.0021101313
0.00089742743
0.00086757969
0.00097815684
0.00075174696
0.0010341011
0.0008269435
0.0010738711
0.00090203597
0.0011171971
0.00088152155
0.0011468006
0.00086650841
0.001166788
0.00071442165
0.0011982886
0.00073886137
0.0012184464
0.00064690375
0.0012432007
0.00057914752
0.0012716641
0.00050580956
0.0013013047
0.00047010043
0.001330741
0.00043755121
0.0013595719
0.00038327905
0.0013875491
0.0003837669
0.0014183043
0.00034837335
0.0014449915
0.00032236366
0.001480323
0.00037263883
0.0014934526
0.00033470859
0.0015377667
0.00036545758
0.0016057283
0.00043257924
0.0015890019
0.00039511399
0.0016649464
0.0004259321
0.0017158885
0.00050495272
0.0017328645
0.00057497985
0.0018108145
0.00053371673
0.0018131375
0.00053205744
0.0019463959
0.00069266199
0.0019837015
0.00068427894
0.0020651868
0.0007035083
0.00070693047
0.0021028101
0.00090520391
0.0010366773
0.00098004185
0.00078598523
0.0010311172
0.00065321476
0.0010712919
0.00070901791
0.0011159005
0.00089870854
0.001141615
0.00081169523
0.0011660451
0.00064376833
0.0011954751
0.00073003452
0.0012149818
0.00058959773
0.0012394817
0.00054613167
0.0012690398
0.00049366778
0.0012987172
0.00045232643
0.0013265997
0.00042403919
0.0013575189
0.00038200782
0.0013821075
0.00036362209
0.0014108045
0.00035113089
0.0014411426
0.00030911372
0.0014667032
0.00034225689
0.0014869673
0.00029902136
0.0015341086
0.00035315269
0.0015865833
0.00041461785
0.0015754658
0.00035712132
0.0016566787
0.00038651049
0.001717972
0.00044022818
0.001713824
0.00051387286
0.0017926978
0.00054426948
0.0018431952
0.00046894768
0.0019246986
0.00064775036
0.0019707493
0.00065809736
0.0020221126
0.00062678032
0.00057964448
0.0020655563
0.00091826855
0.0010828352
0.00098406336
0.00077402103
0.0010288239
0.00058417191
0.0010669387
0.00056576842
0.0011090289
0.00085266386
0.0011323387
0.00071940965
0.0011627443
0.00061065411
0.0011874258
0.0006616641
0.0012093688
0.00053608406
0.0012345243
0.0005119925
0.0012644166
0.00048468578
0.0012938904
0.00043733977
0.0013210195
0.00041070249
0.0013525048
0.0003786777
0.0013777097
0.00034132077
0.0014030785
0.00034539832
0.0014383004
0.00030835304
0.0014546632
0.00032683209
0.0014835087
0.00029146935
0.0015298756
0.00033942196
0.0015679666
0.00037467539
0.0015700522
0.00033951285
0.0016462709
0.00040741139
0.0017128298
0.00041817772
0.0017069259
0.00040627131
0.001753056
0.00050974195
0.0018755744
0.00047274935
0.0019145153
0.00056454226
0.0019512018
0.00060079697
0.0019821978
0.00059339207
0.00054629364
0.0020329797
0.00093372875
0.00097422081
0.00098945292
0.00068939642
0.001032135
0.0006100724
0.0010703406
0.00053090503
0.0011043427
0.00075884499
0.0011265665
0.00061675511
0.0011592696
0.00061040274
0.0011778345
0.00056103215
0.0012029517
0.00049874226
0.0012285493
0.00048129233
0.0012572247
0.00046389365
0.0012866711
0.00040952468
0.001313011
0.00038769668
0.0013429011
0.0003579001
0.001370711
0.00031904037
0.0013931901
0.00031518225
0.0014341074
0.00030411152
0.0014449806
0.00031082098
0.0014814288
0.0002909978
0.0015221943
0.00032938622
0.0015495039
0.0003216978
0.0015725897
0.00029363037
0.0016382618
0.0004257674
0.001692475
0.00045721383
0.0017128831
0.00034513381
0.0017192129
0.0004208736
0.0018741561
0.00050424862
0.0018982749
0.00047049851
0.0019301346
0.00047329735
0.0019512233
0.00051264973
0.00053015701
0.0020248012
0.00094385823
0.00072706305
0.0009954864
0.00054743618
0.0010388925
0.00067313231
0.0010791248
0.0005924092
0.0011040285
0.0006404263
0.0011280418
0.0005264676
0.0011571911
0.00062714573
0.0011719467
0.00047569035
0.0011983522
0.00046918511
0.0012226622
0.00044805622
0.0012477398
0.00042773798
0.0012770824
0.00038499422
0.0013021844
0.00034534462
0.0013314402
0.00032408309
0.0013606754
0.00029208995
0.0013821503
0.00026913809
0.0014264065
0.00028713016
0.001435765
0.00026933039
0.0014783785
0.0002748776
0.0015115503
0.00031860197
0.0015308422
0.00029747988
0.0015813226
0.0002486871
0.0016371529
0.00038771527
0.0016601965
0.00043855071
0.0017135201
0.00034297049
0.0017170141
0.00032707302
0.0018352174
0.00050802939
0.0018611354
0.0004167962
0.0019032418
0.00034999527
0.0019177932
0.00038553771
0.00045558542
0.0020118014
0.00095787726
0.00039619793
0.001004186
0.00036584812
0.0010477974
0.0006960154
0.0010875779
0.00067371352
0.0011070113
0.00052233857
0.0011344475
0.00048332722
0.0011568969
0.0006074117
0.0011722856
0.00043311232
0.0011963613
0.00044359887
0.0012178291
0.00041643552
0.0012413286
0.00038142771
0.0012695815
0.0003632864
0.0012942192
0.00030190495
0.0013222472
0.00030045033
0.0013507149
0.00026711981
0.0013747028
0.00023570475
0.0014150667
0.00027191581
0.0014252273
0.00021475464
0.0014739798
0.00024040918
0.0015014463
0.00028727514
0.0015120868
0.00028654462
0.0015870278
0.00024248241
0.00163149
0.00033989512
0.0016264548
0.0003305584
0.0016899808
0.00032039857
0.001744582
0.00027436268
0.0017905921
0.000445342
0.0018128563
0.00038760088
0.0018782745
0.00032005954
0.0018978338
0.0003178707
0.00040041269
0.0019917205
0.00098595671
0.00012382978
0.0010192604
0.00019538987
0.0010594673
0.00064433174
0.0010938551
0.00072093386
0.0011121975
0.00044207948
0.0011410103
0.00048945199
0.0011564566
0.00052244781
0.0011748238
0.00042973007
0.0011954675
0.00042298712
0.0012148285
0.00038666718
0.0012382385
0.00034094055
0.0012635203
0.00033484168
0.0012899442
0.00027405391
0.0013155075
0.00028277572
0.0013426343
0.00024887616
0.0013712938
0.00022697412
0.0014018486
0.00027006831
0.0014163579
0.00018732191
0.0014665546
0.00021679012
0.0014918886
0.00024026375
0.0014948498
0.000256135
0.0015887819
0.00025845016
0.0016120795
0.00032060034
0.001603977
0.00024551616
0.0016570789
0.00026341216
0.0017649221
0.00027926442
0.0017564496
0.00033563531
0.0017791693
0.00033951454
0.0018608917
0.00034669823
0.0019044121
0.00031922446
0.00039290548
0.0019949105
0.0010128351
2.3863033e-05
0.0010400851
0.00011599248
0.0010757139
0.00053820545
0.0011021114
0.0006981982
0.0011233113
0.00040757487
0.0011491359
0.00050516519
0.0011588527
0.00040636254
0.0011789212
0.00042733523
0.0011969812
0.00040063967
0.0012139965
0.00035421862
0.0012373183
0.00030986152
0.0012591546
0.00029997057
0.0012880104
0.00026305072
0.0013103044
0.0002535597
0.0013368871
0.00023479061
0.0013700934
0.00022182512
0.0013895906
0.0002531045
0.0014113518
0.00019188221
0.0014567807
0.00021835542
0.001480941
0.00019632113
0.0014803916
0.00019846999
0.0015839101
0.00025566457
0.0015863608
0.00027743895
0.0015892968
0.000213483
0.0016375281
0.00021972956
0.001757378
0.00030942182
0.001735531
0.00025556161
0.0017647321
0.00028360238
0.0018384927
0.00035264046
0.0019092665
0.00032507941
0.0003583163
0.0020060783
0.0010245511
0.00011312556
0.001054591
0.00015052244
0.0010880111
0.00041051311
0.0011089394
0.00056512729
0.0011339687
0.00039488155
0.001154013
0.00049336707
0.0011639966
0.00030551502
0.001183464
0.00039374804
0.0011992353
0.00036981667
0.0012144678
0.00031577813
0.0012371335
0.00028836489
0.0012571731
0.00026256076
0.0012861658
0.00025303058
0.0013062761
0.00021836504
0.0013323979
0.0002197353
0.0013666834
0.0002053452
0.0013778926
0.00020330103
0.0014075322
0.00019184631
0.0014437224
0.00023174105
0.0014679156
0.00016738597
0.0014696878
0.00014055672
0.0015672968
0.00023750216
0.0015608205
0.00019089763
0.0015726838
0.00017940185
0.0016349963
0.00020104963
0.0017230223
0.00031235991
0.0017236892
0.00021761128
0.0017615411
0.00023281155
0.0018048921
0.00031707657
0.0018880497
0.0003199699
0.00032035805
0.0019808656
0.0010370606
0.00032395667
0.001063201
0.00025629291
0.0010946514
0.00030811022
0.0011134343
0.00036771294
0.0011413326
0.00039056071
0.001154292
0.00042817384
0.0011687424
0.00026136473
0.0011849734
0.00033347391
0.0011982764
0.00032517652
0.0012140305
0.00027022855
0.0012366299
0.00027041216
0.0012562278
0.00023155985
0.0012817176
0.00023528705
0.0013027438
0.00018842389
0.0013273411
0.00019663186
0.0013589309
0.00018550944
0.0013675085
0.00014153234
0.0014034417
0.00016038791
0.0014270822
0.0002183762
0.0014518703
0.00014720561
0.0014676394
0.00011196961
0.0015387228
0.0002417382
0.0015403167
0.00012368854
0.0015563778
0.00012375657
0.0016372547
0.00019725406
0.0016777507
0.00028316393
0.0017042316
0.00019134509
0.0017568853
0.00017896608
0.0017775751
0.00024233868
0.0018564698
0.00029117668
0.00031645916
0.0019205725
0.0010571605
0.00056150449
0.0010750647
0.00037567221
0.0011023706
0.00026515834
0.0011191325
0.00021624
0.0011468688
0.00038404486
0.0011552464
0.00032228416
0.0011742356
0.0002843898
0.0011859103
0.00026990783
0.0011965554
0.00026153595
0.0012133731
0.0002364475
0.0012333704
0.00023580287
0.0012538449
0.00020108603
0.0012764463
0.00021325528
0.0012989718
0.00016598939
0.0013205524
0.00016897266
0.0013465915
0.00016675092
0.0013568872
0.00010597624
0.0013983977
0.00011967018
0.001408417
0.00016985047
0.0014348108
0.00011499423
0.001475408
0.00010555091
0.0015056302
0.00024696485
0.0015207447
0.00012742281
0.0015486913
8.097919e-05
0.0016348247
0.00019115674
0.0016346969
0.00024176069
0.0016736199
0.00017408989
0.0017417149
0.00013953908
0.0017591209
0.00015385878
0.0018382501
0.00022538646
0.00029363713
0.0018629194
0.0010631597
0.00064228765
0.0010852716
0.0004275406
0.0011103259
0.00026350659
0.0011281768
0.00013272526
0.0011534197
0.0003458988
0.0011612613
0.00021845148
0.0011791871
0.00031913763
0.0011879771
0.00022445097
0.0011979669
0.00019355812
0.0012142247
0.00021257038
0.0012313542
0.00018359164
0.0012532352
0.0001683041
0.0012703031
0.0001877054
0.0012943691
0.00015203219
0.0013156459
0.00014093678
0.0013370137
0.00014769845
0.0013509218
0.00010908894
0.0013930464
0.0001097426
0.0013906648
0.00012351187
0.0014205105
9.5708766e-05
0.0014830673
0.00010555258
0.0014807775
0.00019592197
0.0014995043
0.00015881173
0.0015519109
7.3493394e-05
0.0016287141
0.00017750274
0.0016051075
0.00018471925
0.0016433166
0.00016178632
0.0017179268
0.0001290837
0.0017444521
9.0663785e-05
0.0018311915
0.00015549676
0.00021918531
0.0018255977
0.0010666046
0.0004965536
0.0010891074
0.00033050379
0.0011139045
0.0002607582
0.0011362779
0.00013222079
0.0011548813
0.00027529289
0.0011659619
0.00015595059
0.001179612
0.00031020031
0.0011871994
0.00019449926
0.0011979229
0.00014643412
0.0012120589
0.00018136632
0.0012276464
0.00014066069
0.0012517418
0.00013447065
0.0012670952
0.00014669061
0.0012910924
0.00014815756
0.0013110945
0.00011557
0.0013283776
0.00012086484
0.0013440782
0.00011549957
0.0013867933
0.00012644221
0.0013797654
9.8795507e-05
0.0014101903
0.00010098619
0.0014801054
0.00011512964
0.0014650397
9.8702231e-05
0.0014726252
0.00013962395
0.0015537547
9.9822503e-05
0.0016109391
0.00015572769
0.0015858408
0.00010758082
0.00161531
0.00013171851
0.0016793197
0.00013281432
0.0017304016
7.8690161e-05
0.0018153984
0.00012029276
0.00012969102
0.0017927434
0.0010796361
0.00018418341
0.001094098
0.00012687544
0.0011189177
0.00022985765
0.0011459271
0.00020446176
0.0011567597
0.00019738579
0.0011711557
0.00015476029
0.0011792612
0.00022837379
0.0011865839
0.00016351673
0.0011984739
0.00012839394
0.0012087501
0.00014435906
0.0012257295
0.00011911297
0.0012483675
0.00010342166
0.0012614807
9.6780938e-05
0.0012841708
0.00014169721
0.0013062469
8.6534366e-05
0.0013236592
8.1895447e-05
0.0013412837
0.00010091476
0.001376345
0.00013448829
0.0013726677
7.1638601e-05
0.0014006798
0.00010292454
0.0014606366
0.00013231705
0.0014555393
2.3485332e-05
0.0014498612
5.8999739e-05
0.0015463041
0.00012375388
0.0015800487
0.00012339806
0.0015724987
3.5893065e-05
0.0015962277
6.458202e-05
0.0016391857
0.00011595437
0.0017174775
0.00011179512
0.0017891049
0.0001214993
6.5896904e-05
0.0017521735
0.0011002557
-9.9893384e-05
0.0011069341
-5.7602955e-05
0.0011307522
0.00015859583
0.001155471
0.00029380706
0.0011644179
0.00011020323
0.0011784428
0.00018006254
0.0011810366
0.00010296637
0.0011884347
0.00011943119
0.0011996659
0.00013390393
0.001207385
0.00010020567
0.0012215575
0.00011428654
0.001243701
7.7313527e-05
0.00126041
4.7764203e-05
0.0012770548
0.00012193785
0.0012986429
5.0381568e-05
0.0013151341
5.1565336e-05
0.0013327289
7.2638706e-05
0.0013631794
0.00010149671
0.0013659634
3.3385571e-05
0.001393353
7.3897331e-05
0.0014280452
0.00013133577
0.0014404918
5.2111037e-06
0.0014384784
-2.1429443e-05
0.0015231339
0.00012461593
0.0015348257
9.2455646e-05
0.00154818
-5.5955553e-06
0.0015784609
-1.6549759e-05
0.0016092905
6.2668113e-05
0.0016975326
0.00013738996
0.001748208
0.00012937705
2.5677336e-05
0.0017260556
0.0011036401
-0.00024358373
0.0011134641
-0.0001676074
0.0011363013
8.1214377e-05
0.0011549358
0.00031435053
0.0011671269
3.1286923e-05
0.0011786163
0.0001726341
0.0011813217
1.2045326e-05
0.001191383
6.3533192e-05
0.0012016086
0.00013083327
0.0012090234
5.1221489e-05
0.001223753
0.00010557173
0.0012413265
5.6382435e-05
0.0012585758
1.8254568e-05
0.0012691376
8.9591749e-05
0.0012963844
1.4453434e-05
0.0013138933
3.111376e-05
0.0013327745
4.095914e-05
0.0013425762
5.960234e-05
0.0013596472
-1.943238e-06
0.0013922711
2.7908765e-05
0.0014035786
9.0204858e-05
0.0014253261
2.9232987e-05
0.001449656
-4.910028e-05
0.0015006931
0.00010407012
0.0014987825
6.4490551e-05
0.0015221001
-1.7894186e-05
0.0015710912
-5.4097841e-05
0.0016075663
7.6971002e-06
0.0016751966
0.00012313994
0.0016912985
0.0001257124
8.6480332e-06
0.0017123641
0.001092308
-0.00018747596
0.001117751
-0.00014299608
0.0011423145
3.0641008e-05
0.0011545131
0.00022460408
0.0011754415
-4.7747679e-06
0.0011815761
0.00011653948
0.001192977
-1.9250185e-05
0.0012057827
1.1451289e-05
0.0012129322
9.0144748e-05
0.0012272805
1.0147477e-05
0.0012386351
7.225934e-05
0.0012571195
2.327413e-05
0.0012823679
7.4679422e-07
0.001281675
6.6606483e-05
0.0013115921
-1.2703582e-05
0.0013270723
1.3594244e-05
0.0013458877
2.2395985e-05
0.0013597036
1.1379431e-05
0.001376468
1.8804864e-05
0.0014136878
-8.3960211e-06
0.0014107204
4.3465568e-05
0.0014290913
3.4354188e-05
0.0014882144
-3.0320996e-05
0.0015067065
6.6253562e-05
0.0014935191
4.4782315e-05
0.0015190425
-1.2889405e-05
0.0015891398
-4.528523e-05
0.0016428693
-2.5974614e-05
0.0016882616
5.2240913e-05
0.0016515422
9.3553527e-05
-8.171337e-06
0.0017305982
0.0011250913
0.0011462981
0.0011851428
0.0012422014
0.0012621468
0.0012859038
0.0012998073
0.0013055953
0.0013163791
0.0013276682
0.0013516616
0.0013335676
0.0013478824
0.0014025799
0.0014072903
0.0014181646
0.0014604277
0.0014403037
0.0015321381
0.0015444725
0.0015500444
0.0015596331
0.001635797
0.001658957
0.0016590496
0.0016767264
0.0017331444
0.0017896835
0.0018054709
0.0017315127
0.0018122932
6.5043408e-05
0.0018393789
0.00015911677
0.0016672307
0.00024827119
0.0016635816
0.00035885656
0.0016659479
0.00039812943
0.0016865269
0.00038920729
0.0017131626
0.00046986713
0.0017430596
0.00062060828
0.0017814548
0.0006952898
0.0018278213
0.00066459436
0.0018656131
0.00068479356
0.0018980011
0.0007986575
0.0019263345
0.00087356526
0.0019656218
0.00093520889
0.002019788
0.0010898981
0.0020455645
0.0012161015
0.0020257265
0.0012064384
0.0020198793
0.0011823365
0.0020316396
0.0012545833
0.0020455673
0.0012967443
0.0020374498
0.0013000327
0.0020432234
0.0013977448
0.0020939014
0.0021646795
0.0014783493
6.0708899e-05
0.0016758666
7.083761e-05
0.0016380108
0.0001818517
0.0016513767
0.00029946983
0.0016624386
0.00033026997
0.001684802
0.0003800238
0.0017110167
0.00054142956
0.0017368486
0.00068137564
0.0017554404
0.00068259753
0.0017667378
0.00063374515
0.001779818
0.00068225534
0.0018014757
0.00081783667
0.0018285539
0.00088880808
0.0018618247
0.00086673793
0.0019096062
0.000937535
0.0019737745
0.001086998
0.0020181087
0.0011276753
0.0020168512
0.0011231901
0.0020006924
0.0011648734
0.0020070447
0.0012453566
0.0020439727
0.0013644078
0.0020898588
0.001495122
0.0021016738
0.0020771619
0.0014892751
6.139751e-05
0.0015159809
8.0156283e-05
0.0015990859
0.00017221567
0.0015634808
0.00021565396
0.001619744
0.00026158869
0.0016557669
0.00035363444
0.0017013076
0.00049158593
0.0017215304
0.00055008943
0.0017132514
0.00054335449
0.0017065856
0.00058046289
0.0017309844
0.00069359228
0.0017761577
0.00082782613
0.0018063198
0.00090897893
0.0018134295
0.0009365544
0.0018169435
0.00096889635
0.0018396604
0.00096465937
0.0018821198
0.00094490671
0.0019271968
0.0010178666
0.0019704211
0.0011635986
0.0020214338
0.0012860979
0.0020669111
0.0013137026
0.0020913688
0.0013559639
0.0020824352
0.0020371402
0.0013769414
-2.2727627e-05
0.0016305601
0.00016127374
0.001499574
0.00025104492
0.0015018682
0.00030913636
0.0015147667
0.00031632752
0.0015466751
0.00028908772
0.0015853116
0.00027409795
0.0016199759
0.00034621195
0.0016539548
0.00049317502
0.0016875016
0.00063188569
0.0017220099
0.00069038564
0.0017581175
0.00070295031
0.0017873768
0.00075528413
0.0018038507
0.00087676389
0.0018118555
0.00098611851
0.0018151273
0.00099086552
0.00182325
0.00096881902
0.0018431753
0.0010542172
0.0018827803
0.001197895
0.0019350004
0.0012528206
0.0019759455
0.0011744313
0.0019986987
0.0011315159
0.0020165492
0.0020296282
0.0012105736
4.7923959e-05
0.001626244
0.0001340518
0.0014937839
0.00025077769
0.0014927628
0.00035337057
0.0014890007
0.00035772384
0.0015016119
0.00031215748
0.0015190273
0.00032136536
0.0015483894
0.00041320407
0.0015858688
0.00055097823
0.0016269172
0.00064164394
0.0016612777
0.00063620265
0.0016949151
0.0005958374
0.0017276956
0.00061090191
0.0017563151
0.00071430385
0.001783592
0.00083261162
0.0018039055
0.00090463135
0.001821084
0.00099238925
0.0018371642
0.0011189915
0.001855102
0.0012068914
0.0018742552
0.0011975252
0.0018910527
0.0011078554
0.0019066377
0.0010821934
0.001932543
0.0019674617
0.0011705521
6.1423663e-05
0.0014713816
8.7080858e-05
0.0014363005
0.00014745808
0.0014753515
0.00021022277
0.0014877824
0.00025106608
0.0015162293
0.0003185911
0.0015372279
0.00043158419
0.0015549659
0.00054883752
0.0015685316
0.0006244993
0.0015819919
0.0006367959
0.0015951335
0.00060588939
0.0016142459
0.00057162073
0.0016373709
0.00058173271
0.0016663774
0.00063592458
0.0017053294
0.00070612339
0.0017502245
0.00079576584
0.0017973765
0.00092476902
0.0018342318
0.0010423168
0.0018503559
0.0011007549
0.0018535851
0.0010899125
0.0018557487
0.0010560922
0.0018647156
0.0011128348
0.0018905169
0.0019178927
0.001234505
0.00018676905
0.0012502804
0.00019154795
0.0014098296
0.00020044114
0.001451046
0.00018651971
0.0014762571
0.00019216379
0.0015019405
0.00025049025
0.0015282984
0.00035231956
0.0015521324
0.00044608974
0.0015673089
0.00049521672
0.0015760037
0.00051489408
0.0015807649
0.00053985471
0.0015885414
0.00058865112
0.0016013117
0.00065545612
0.0016185988
0.00071836004
0.0016437093
0.00075993599
0.0016789461
0.00079121338
0.0017229242
0.00082485944
0.0017665648
0.00086004377
0.0017959622
0.0008928246
0.001813721
0.00091896507
0.0018304018
0.00098025996
0.0018526747
0.0011055477
0.0018829411
0.0019036843
0.001246019
8.8825464e-05
0.0012416399
0.00018037884
0.0013843376
0.00021504422
0.0014137856
0.00020808845
0.0014337529
0.00019063797
0.0014524784
0.00020455219
0.0014754012
0.00023772569
0.001498192
0.00025574823
0.0015160466
0.00026284199
0.0015352748
0.00030543591
0.0015575624
0.00040602701
0.0015806942
0.00053080585
0.0016010764
0.00065242928
0.0016157725
0.00075981301
0.0016292118
0.00082956389
0.001645027
0.00083639607
0.0016633845
0.00079427699
0.0016856261
0.00075191308
0.0017108772
0.00074927905
0.0017395244
0.00079739978
0.0017749584
0.00090104361
0.001816488
0.0010381442
0.0018609573
0.0018928186
0.0011526469
-6.0905458e-05
0.0014116632
6.0355411e-05
0.0013462354
0.00013682685
0.0013665759
0.00016322801
0.0013887958
0.00017388481
0.0014030307
0.00017725099
0.0014189522
0.00017552912
0.0014338321
0.00018078315
0.0014528241
0.00021135469
0.0014799901
0.00027081859
0.0015110036
0.00035451575
0.0015418757
0.000451982
0.0015717771
0.00055230634
0.0015952585
0.00063436792
0.001611776
0.00069077154
0.0016240167
0.00072022134
0.0016338205
0.00073005343
0.001643844
0.00073928343
0.0016584982
0.00076348036
0.0016793565
0.0008169488
0.0017112864
0.00090701707
0.0017536568
0.00099921265
0.0018022645
0.0018418316
0.0010343202
-2.0515321e-05
0.0014783841
1.6180913e-05
0.0013388619
5.1153337e-05
0.0013489225
7.5138597e-05
0.0013694014
0.00010032135
0.0013776255
0.00013811591
0.0013919712
0.00019389317
0.0014043961
0.00025591724
0.0014219895
0.00031191134
0.0014448074
0.00036635928
0.0014717676
0.00041602742
0.0014992993
0.00045187947
0.0015264784
0.00046669531
0.0015502286
0.00046262443
0.0015699531
0.00046528659
0.0015881244
0.00049722888
0.0016058046
0.0005688263
0.0016246556
0.00066654133
0.0016440087
0.00076955441
0.001661351
0.00086361482
0.0016806645
0.00094728073
0.0017058922
0.00099550106
0.0017395319
0.0017717025
0.00097266705
-4.2091143e-05
0.0014503264
-8.3377352e-05
0.0013191624
-9.2755747e-05
0.0013269753
-5.1186118e-05
0.001351612
2.9289779e-05
0.0013684607
0.00013310869
0.0013861328
0.00024055886
0.0013993073
0.00032668714
0.0014142115
0.00039092316
0.0014308276
0.00043363803
0.0014484201
0.00044518471
0.0014677866
0.00043377088
0.0014889388
0.00040452648
0.0015095385
0.00036323873
0.0015279321
0.00033685333
0.0015470189
0.0003598262
0.0015699554
0.00044218658
0.0015978031
0.0005572364
0.0016261565
0.00068386459
0.0016519474
0.0008003685
0.0016734358
0.00088772282
0.0016889125
0.00092331011
0.0017043755
0.0017213144
0.00090565234
-6.5012241e-05
0.0014133179
-0.00012018245
0.0013027979
-0.00011388302
0.0013054372
-6.3217564e-05
0.001332109
1.742203e-05
0.0013548838
0.00012220627
0.0013767607
0.0002115041
0.0013916319
0.00028079643
0.0014051401
0.00032906032
0.0014171917
0.00036268234
0.0014306472
0.00037611838
0.0014462344
0.00035978095
0.0014621913
0.00032619251
0.0014792365
0.00030632838
0.0014964235
0.00031203499
0.0015154702
0.00035031894
0.0015387034
0.00041813722
0.0015668906
0.00050509279
0.0015985132
0.00058692241
0.0016274832
0.00064119162
0.0016527143
0.00067767112
0.0016725403
0.00070883306
0.0016867372
0.0016957015
0.00073648846
1.2262852e-05
0.0013992519
9.7142612e-06
0.0013065944
2.6535011e-05
0.0012967074
5.0192808e-05
0.0013177388
8.0798458e-05
0.0013404849
0.00010542661
0.0013622348
0.00013169572
0.0013787999
0.00016051638
0.0013915536
0.00019003648
0.0014020518
0.00021341107
0.0014140432
0.00022431883
0.0014276333
0.00022701005
0.0014459076
0.00024026355
0.0014650972
0.00027242729
0.0014830726
0.00032141098
0.0014990426
0.00038291899
0.0015155822
0.00044726252
0.0015371066
0.00050038293
0.001564374
0.00052183259
0.0015926904
0.00049963036
0.0016183637
0.00044615553
0.0016408958
0.0004073208
0.0016623914
0.0016823435
0.00043706983
9.1013908e-05
0.0013911383
0.00015297096
0.0013170297
0.00019662646
0.0012969708
0.00019751158
0.0013089922
0.00015345955
0.0013286832
8.8533332e-05
0.001348223
3.555064e-05
0.0013649474
1.6565284e-05
0.0013776484
3.2815621e-05
0.0013879854
7.4027409e-05
0.0013999018
0.00011924528
0.0014148295
0.00015308921
0.00143335
0.00017615218
0.0014537425
0.00020870003
0.0014735818
0.0002605477
0.0014920157
0.00034429726
0.0015089755
0.00043013563
0.0015258821
0.00047750732
0.0015440492
0.00046583835
0.001565155
0.00039766679
0.001588192
0.00030231074
0.0016107913
0.00021744623
0.0016353846
0.0016617218
0.000203393
0.00015755997
0.0013851138
0.00025822273
0.0013299015
0.00029835212
0.0013006184
0.00026560488
0.0013028163
0.00016729314
0.0013188014
4.5545133e-05
0.0013359056
-5.6885383e-05
0.0013539727
-9.840872e-05
0.0013707241
-7.3976381e-05
0.0013865906
-1.0696519e-05
0.0014019116
6.0336859e-05
0.001416962
0.00011851472
0.0014329982
0.00015246354
0.0014507566
0.00016941528
0.0014674607
0.00019434181
0.0014837486
0.00024111419
0.0015010658
0.00030240695
0.0015177234
0.00035463973
0.0015356551
0.00036737552
0.0015540694
0.00030938274
0.0015722074
0.00020967783
0.0015905648
0.00012228732
0.001614767
0.0016398784
8.6712683e-05
0.00015217253
0.0013825852
0.00024533996
0.0013472002
0.00027665114
0.0013138275
0.00023948072
0.0013080928
0.00014343483
0.0013201504
3.0298053e-05
0.0013340596
-7.344595e-05
0.001352049
-0.00012604207
0.0013700049
-0.00012397227
0.0013895777
-7.2739246e-05
0.0014080486
-4.6702842e-06
0.0014259669
5.5311575e-05
0.001442057
8.8515278e-05
0.0014565578
9.4488721e-05
0.0014710677
9.8085232e-05
0.001485338
0.0001151708
0.0014999615
0.00014445421
0.0015149928
0.00018605015
0.0015325738
0.00020321328
0.0015485691
0.00018056103
0.0015634534
0.00011914672
0.0015786536
3.9822279e-05
0.0015979091
0.0016247963
-4.0044745e-06
8.0032622e-05
0.0013741795
0.00012642193
0.0013576977
0.00014224839
0.001329833
0.00012572222