/*--------------------------------*- C++ -*----------------------------------*\
| =========                 |                                                 |
| \\      /  F ield         | OpenFOAM: The Open Source CFD Toolbox           |
|  \\    /   O peration     | Version:  2406                                  |
|   \\  /    A nd           | Website:  www.openfoam.com                      |
|    \\/     M anipulation  |                                                 |
\*---------------------------------------------------------------------------*/
FoamFile
{
    version     2.0;
    format      ascii;
    arch        "LSB;label=32;scalar=64";
    class       surfaceScalarField;
    location    "20";
    object      phi_0;
}
// * * * * * * * * * * * * * * * * * * * * * * * * * * * * * * * * * * * * * //

dimensions      [1 0 -1 0 0 0 0];

oriented        oriented;

internalField   nonuniform List<scalar> 
40800
(
0.00089000171
0.0013715438
-0.0016136597
0.00095885256
0.0012156585
-0.0013066869
0.0010152111
0.0012102658
-0.0011137815
0.0010665346
0.001110567
-0.0010929199
0.0010994955
0.0011612544
-0.0013267523
0.0011382469
0.0010196209
-0.0010757528
0.0011722689
0.00095212614
-0.001005095
0.0011979935
0.00090499334
-0.00097244462
0.001230374
0.0007568807
-0.00077412754
0.0012580391
0.00071035452
-0.00075863372
0.0012930425
0.00064823147
-0.00065443244
0.0013261336
0.00056442167
-0.00059362659
0.0013549914
0.00051660369
-0.00053693054
0.0013900737
0.00046478874
-0.00045759412
0.0014182381
0.00043253417
-0.00044516943
0.0014564981
0.00042442636
-0.00041995488
0.0014826883
0.0004226303
-0.00046626441
0.0015023823
0.00040521187
-0.00045969355
0.0015465876
0.00048327246
-0.00049666212
0.0015630444
0.00049881044
-0.00051548909
0.0015982215
0.00052015972
-0.00057631326
0.0016312985
0.00057969665
-0.00063260725
0.0016732462
0.00067295499
-0.00071583936
0.0016680835
0.00067397768
-0.00066838264
0.0017789874
0.00074161036
-0.00071562217
0.0018243105
0.00086835736
-0.00091129788
0.001851532
0.00092967092
-0.0010130093
0.0018878712
0.00093359478
-0.00097880568
0.0019652613
0.00091533733
-0.00093473805
0.0020027171
0.0010027523
-0.0010583412
0.0012262074
0.0022049832
-0.0011914934
0.00089238581
0.001114954
0.00096644028
0.001122364
0.0010231546
0.0013135199
0.0010721614
0.0011816261
0.0010991505
0.00098870723
0.0011379446
0.00097339628
0.0011703822
0.00091846405
0.0011927959
0.00081556889
0.0012275754
0.00075701765
0.0012536021
0.00066255405
0.0012865898
0.00063134279
0.0013200832
0.00054440844
0.001348816
0.00049120008
0.0013836591
0.00046857964
0.0014122631
0.0004229272
0.001449176
0.00042930244
0.0014708518
0.00040232652
0.0014997431
0.00037626447
0.0015393614
0.00046176373
0.0015566375
0.0004821766
0.0015977703
0.00049970539
0.0016374496
0.00056784629
0.0016709772
0.00060184928
0.0016818776
0.0006544407
0.0018030545
0.00077474962
0.0018344169
0.00080539699
0.0018448581
0.00079407451
0.0018732217
0.00080954248
0.0019908523
0.0009085668
0.002064859
0.00092204181
0.0011140001
0.0021348527
0.00089325928
0.00089701833
0.00097413497
0.0010262851
0.0010319722
0.0013379674
0.0010765101
0.0012394707
0.0011027633
0.0008539509
0.0011403418
0.0009433206
0.001169211
0.00088913051
0.001191904
0.00074840195
0.0012244756
0.00075332671
0.0012500724
0.00062911772
0.0012802928
0.00060011257
0.0013141288
0.00053016553
0.0013440347
0.00046689088
0.0013769272
0.00045447038
0.0014074395
0.00041025749
0.0014417852
0.00041239282
0.001461856
0.00039548609
0.0015000417
0.00038445705
0.0015327926
0.00044492428
0.0015509136
0.00045215988
0.0016039046
0.00048846955
0.0016378708
0.0005865019
0.0016753691
0.00056969922
0.0017037156
0.000611481
0.0018016947
0.00073302845
0.0018245396
0.00073466889
0.0018332515
0.00071573186
0.0018901443
0.00069520527
0.0019808534
0.00084782609
0.0021124496
0.00087201832
0.00092259873
0.002110786
0.00089199474
0.00075858172
0.00097712679
0.00091817875
0.0010365549
0.0012421315
0.0010764287
0.0012123333
0.0011085709
0.00078739929
0.0011439823
0.00091923333
0.0011693444
0.00085613959
0.0011947293
0.00071711587
0.0012221795
0.0007333882
0.0012480167
0.0006127225
0.0012752446
0.00055736503
0.0013082525
0.00051638134
0.001339286
0.00045468266
0.0013696872
0.00042991191
0.0014018149
0.00039915798
0.0014340422
0.00038299207
0.0014547005
0.00037943328
0.0014983074
0.00039962757
0.0015219331
0.00042074822
0.0015426632
0.0004026004
0.0016119489
0.00046759343
0.0016301453
0.00057072358
0.0016746419
0.00055152908
0.0017155891
0.00057489829
0.0017811364
0.00064061206
0.0018122858
0.00063172834
0.0018158707
0.00067644578
0.0019243234
0.00067721289
0.0019739987
0.00077350552
0.0021121032
0.00085611575
0.00085448513
0.0021113135
0.00089344088
0.00074932657
0.00097740076
0.00082008338
0.0010366777
0.0010474959
0.0010745596
0.0010932647
0.0011132727
0.00080146054
0.0011453181
0.0008915617
0.0011692949
0.00081056355
0.0011976443
0.00071831474
0.001220127
0.00068987989
0.0012463058
0.00060212591
0.0012726056
0.00051778123
0.0013039826
0.00050219721
0.0013346191
0.00044444356
0.0013632327
0.00039946825
0.0013946752
0.00038908883
0.0014261355
0.00035914464
0.0014494033
0.00034806535
0.0014921002
0.00039252176
0.0015081308
0.00038585203
0.0015363138
0.00036989873
0.0016145587
0.00044570706
0.0016147383
0.00049338714
0.0016678571
0.00049235138
0.0017167801
0.0005440085
0.0017570691
0.00060052042
0.0018104086
0.00055739377
0.0018030371
0.00060358148
0.0019370787
0.00069379656
0.0019852135
0.00071700083
0.0020948877
0.0007986922
0.00082146016
0.0021252839
0.00089772479
0.0008607113
0.00097642194
0.00076370993
0.0010331782
0.00082292306
0.0010724164
0.00091344739
0.0011174776
0.00086303191
0.001145001
0.00084962276
0.0011686105
0.00074267585
0.0011979028
0.00073004226
0.0012181497
0.00063601212
0.0012442724
0.00058365097
0.0012722368
0.00049711281
0.0013016056
0.00047261309
0.0013308533
0.00043561622
0.0013590776
0.00038349926
0.0013876278
0.00037898842
0.001418154
0.00035425593
0.001443924
0.00032133201
0.0014809812
0.00036581098
0.0014955141
0.00034072274
0.0015332519
0.0003548751
0.0016055106
0.00043238613
0.0015962501
0.00041006286
0.0016573098
0.00041338251
0.0017181965
0.00048348473
0.0017352129
0.00057362507
0.0018081234
0.00055192141
0.0018166384
0.0005114107
0.0019260998
0.00067292925
0.0019911843
0.00068818186
0.002062636
0.00070369175
0.00070424452
0.0021116841
0.00090506115
0.0009713225
0.00097789605
0.00073369266
0.0010304171
0.00065337808
0.0010695248
0.00070677015
0.0011159512
0.00090592813
0.0011404689
0.00077767801
0.001167109
0.00067684462
0.0011946409
0.00070921414
0.0012152066
0.00058375702
0.0012403118
0.00055124918
0.0012698223
0.00049176014
0.0012984082
0.00044076716
0.0013269654
0.00042124271
0.0013571436
0.00038083331
0.001383411
0.00036604695
0.0014107071
0.00035461555
0.0014401142
0.00031109435
0.0014687641
0.00034251185
0.0014863851
0.0003043767
0.0015307527
0.00033528071
0.0015896456
0.0004186136
0.0015799245
0.00037500507
0.0016465355
0.00038219638
0.0017200921
0.00041985692
0.0017204878
0.00049488257
0.0017815814
0.00055509279
0.0018470708
0.00046837736
0.0019128861
0.0006161873
0.0019800535
0.00067336308
0.0020230719
0.00065486026
0.00059851987
0.0020711564
0.00091729845
0.00097032202
0.00098207929
0.00068237088
0.0010282849
0.00059103283
0.0010653287
0.00054052669
0.0011084564
0.00088115093
0.0011321411
0.00068764686
0.0011624083
0.00063281055
0.0011868064
0.00064204657
0.0012099381
0.00053464339
0.001235239
0.00051167652
0.0012645862
0.0004871111
0.0012934142
0.00041613146
0.0013211648
0.00040544805
0.0013522882
0.00037128465
0.0013789533
0.00034439525
0.0014026514
0.00034188851
0.0014372419
0.00030534577
0.0014578917
0.00032936028
0.0014804069
0.00029686984
0.0015288488
0.00032670907
0.0015718575
0.00037485928
0.0015721206
0.00033821969
0.0016357463
0.00040442442
0.0017140698
0.00042429602
0.0017196499
0.00040061468
0.0017405308
0.0004962664
0.0018701965
0.00048216409
0.0019162558
0.00053959282
0.0019664223
0.00060663117
0.0019868919
0.0006161175
0.00057271061
0.0020351636
0.00093212649
0.0008563075
0.00098821309
0.00059876575
0.0010316334
0.00062229522
0.0010695169
0.00049760671
0.0011031021
0.00079207098
0.0011272287
0.00060418427
0.0011577868
0.00060736526
0.0011778351
0.00055245883
0.0012035458
0.00049847767
0.0012291773
0.00047741146
0.0012563753
0.00046010232
0.0012867703
0.00039942587
0.0013125959
0.00037990306
0.0013428625
0.00034828179
0.0013707938
0.00031612565
0.0013920022
0.00030359537
0.0014328348
0.00029510529
0.0014483996
0.00030885266
0.0014765262
0.00028909736
0.0015229326
0.00032280282
0.0015513487
0.00032947953
0.0015728415
0.00027768011
0.0016307242
0.00040323906
0.0016937741
0.00047104092
0.0017245845
0.00037309663
0.0017131239
0.00039176556
0.001858599
0.0005049305
0.0019077796
0.00047635817
0.0019474446
0.00047926458
0.0019564351
0.00050426469
0.00052958001
0.0020197738
0.00094214477
0.00066920335
0.00099524297
0.00049280793
0.001038304
0.00068637073
0.0010792627
0.00057224512
0.0011023671
0.00066015729
0.0011288758
0.00054113282
0.0011553685
0.000597123
0.0011724545
0.0004791524
0.0011988431
0.00046776611
0.001222975
0.00044641163
0.0012468997
0.00041520099
0.0012778582
0.000393578
0.0013017206
0.00034161221
0.0013316542
0.00032079624
0.0013596915
0.00028709485
0.0013808328
0.00025817224
0.0014249728
0.00028072694
0.0014384106
0.00026478019
0.0014724595
0.00026257057
0.0015148518
0.00031304091
0.00152983
0.00031238167
0.0015786813
0.00023897088
0.0016335594
0.0003567878
0.0016651262
0.00043482658
0.001713324
0.00037302757
0.0017199322
0.00030626373
0.0018223946
0.00049518358
0.0018721158
0.00044845994
0.0019135009
0.00037267891
0.001921131
0.00036452349
0.00042605032
0.001997438
0.00095640897
0.0004282514
0.0010047245
0.00037406999
0.0010469466
0.00070603789
0.0010881991
0.00067811269
0.0011054426
0.00051490842
0.0011346187
0.0005160671
0.0011557209
0.00057210141
0.0011729528
0.00044649817
0.0011968744
0.00043983471
0.0012176801
0.00041682823
0.0012415971
0.0003697936
0.0012704915
0.00037598891
0.0012943944
0.00030535413
0.0013228043
0.00030435533
0.0013496856
0.00026515759
0.0013744174
0.00023151065
0.0014142227
0.00027527312
0.0014269183
0.00021865111
0.0014679078
0.0002233362
0.0015072867
0.00028090609
0.0015092486
0.00029637795
0.0015818044
0.0002448025
0.0016311731
0.00032625617
0.0016367744
0.00033238618
0.0016789523
0.00032702419
0.0017493187
0.0002742452
0.0017905529
0.00042380816
0.0018238282
0.00041284515
0.0018757132
0.00034662551
0.0018981075
0.00030768727
0.00037588982
0.0019801001
0.00098495751
0.00021252077
0.0010200141
0.00026292405
0.0010584297
0.00064224406
0.0010942559
0.00074943036
0.0011111072
0.00040591414
0.0011400505
0.00051652376
0.001156496
0.00050361779
0.0011752764
0.00044385788
0.0011961509
0.00042199714
0.0012144482
0.00038584039
0.001239525
0.00033807427
0.0012641267
0.00033846743
0.0012904967
0.00027877748
0.0013160349
0.00028396219
0.0013420108
0.00024877987
0.001372314
0.00022654291
0.0014021296
0.00027427587
0.0014168667
0.0002006931
0.0014615077
0.00020264833
0.0014991428
0.0002409976
0.0014913912
0.00025517485
0.0015823621
0.00025514577
0.0016164556
0.00032209488
0.0016160475
0.00027106846
0.0016455391
0.00025397808
0.0017637187
0.00028688286
0.0017672876
0.00032499267
0.001789835
0.00034475508
0.0018477327
0.00034866638
0.0019008402
0.00031643256
0.00037462234
0.0019936567
0.0010125501
0.00012419424
0.0010403964
0.00020475242
0.0010746892
0.00051879571
0.0011015651
0.00073748549
0.0011227811
0.00036217757
0.0011472677
0.0005060158
0.0011597114
0.00040827577
0.0011789224
0.00042817222
0.0011976497
0.00040504766
0.0012137154
0.00034677792
0.0012387747
0.00031699849
0.0012593891
0.00029206606
0.0012880205
0.0002615074
0.0013105434
0.00024726643
0.0013362318
0.00023375051
0.001370986
0.00021707029
0.0013907461
0.00024799007
0.0014098985
0.00019929917
0.0014540396
0.00020988163
0.0014875866
0.00020779893
0.001475691
0.00018697009
0.0015769665
0.00023974291
0.00159566
0.00027811048
0.0015959618
0.00023649117
0.0016307593
0.00020612557
0.0017506333
0.00030763301
0.0017489576
0.00025993832
0.0017725499
0.000278719
0.0018236267
0.00033293731
0.0018990381
0.000326079
0.00035175106
0.002005812
0.0010248313
0.00018908569
0.0010539696
0.00021866333
0.0010871911
0.00038687455
0.0011071159
0.00059462863
0.0011338048
0.00036861944
0.001152009
0.00046690113
0.0011648328
0.00032822193
0.0011831874
0.00037891547
0.0011993436
0.00037546797
0.001214655
0.00030021328
0.0012379519
0.00029860251
0.0012572304
0.0002525897
0.0012853918
0.00024487101
0.0013064791
0.00021024888
0.0013311145
0.0002143875
0.0013665143
0.00019944352
0.0013789724
0.00019090168
0.0014040098
0.00018231006
0.0014438241
0.00022467339
0.0014718374
0.00018720759
0.0014643068
0.0001237413
0.0015613503
0.00022591916
0.0015720102
0.00019602361
0.0015717278
0.00017777309
0.0016306273
0.0001859479
0.0017156018
0.00030051184
0.0017330011
0.0002228964
0.0017641373
0.00022529359
0.0017981069
0.00029149016
0.0018765521
0.00032146939
0.00033645031
0.0019746948
0.0010374413
0.00034172818
0.0010616638
0.0002794517
0.0010941382
0.00029382306
0.001110749
0.00036334402
0.0011411425
0.0003943412
0.0011531637
0.00039452898
0.0011688576
0.00028765283
0.001184839
0.00031727458
0.0011975488
0.00032402332
0.0012149972
0.00026147082
0.0012366487
0.00027233315
0.001256367
0.00022763982
0.0012808437
0.00022892471
0.0013029104
0.00018298147
0.0013258702
0.00018698858
0.0013580586
0.00018440113
0.0013680092
0.0001336918
0.0013989681
0.00014325152
0.0014299443
0.00020864691
0.0014514344
0.00016232552
0.0014644174
9.4355352e-05
0.0015364065
0.00024161002
0.0015490655
0.000146597
0.0015518647
0.00010607026
0.0016328415
0.00017888348
0.0016729573
0.00027040214
0.0017093598
0.00020106162
0.0017539289
0.00017535091
0.0017803627
0.00022293013
0.0018529279
0.00028221266
0.00033330131
0.0019141124
0.0010571617
0.00049108481
0.001072983
0.00032773713
0.0011020102
0.00026549269
0.0011165845
0.00017509308
0.0011463731
0.0004141137
0.001155283
0.00030233299
0.0011735222
0.00029445846
0.0011859827
0.00026404061
0.0011956096
0.00025010167
0.0012146274
0.00024184302
0.0012329156
0.00022385279
0.0012542112
0.0002004772
0.0012760283
0.00021381121
0.0012989714
0.00016685975
0.0013198834
0.00015916808
0.0013460701
0.00017237037
0.0013574111
0.00011075596
0.0013943847
0.00011156399
0.0014135972
0.00016560474
0.0014301236
0.00012252489
0.0014747922
8.7150563e-05
0.0015091548
0.0002466466
0.001522987
0.00016200154
0.0015441597
6.6440987e-05
0.0016314335
0.00017083988
0.0016360766
0.00023554676
0.001677483
0.0001968594
0.0017354501
0.00014513756
0.0017639833
0.00014466027
0.0018425023
0.00020878393
0.00028875545
0.0018643012
0.0010623987
0.00053586491
0.0010833714
0.00033515282
0.0011097114
0.00028000649
0.0011266805
8.0885477e-05
0.0011525762
0.0003899599
0.0011619109
0.0002261168
0.0011780827
0.00031048737
0.0011880197
0.00023282179
0.0011976432
0.00017713903
0.0012149294
0.00022552827
0.0012311258
0.00017233319
0.0012537734
0.00016625696
0.0012703518
0.00018845571
0.0012940774
0.00015933523
0.0013163353
0.00013467366
0.0013373234
0.00015433553
0.0013518336
0.00011917426
0.0013903352
0.00011173074
0.0013978249
0.00013115603
0.0014128434
0.00010204513
0.0014832174
9.2143446e-05
0.0014895809
0.00018711497
0.0014947027
0.00017466558
0.001546826
7.3545401e-05
0.0016280427
0.00016075445
0.00161477
0.00018358729
0.0016464291
0.00018698452
0.0017099094
0.00014346156
0.0017463426
9.1068931e-05
0.0018361508
0.00014448923
0.00019999821
0.0018336866
0.0010649766
0.00041895089
0.0010880256
0.00025462286
0.0011127754
0.0002797075
0.001136256
9.2458412e-05
0.0011537863
0.00030671995
0.0011662956
0.00018387862
0.0011786335
0.0002833074
0.0011868795
0.00020721502
0.0011986453
0.00013522909
0.0012122043
0.00019442838
0.0012279276
0.00014062729
0.0012521163
0.00012953088
0.0012675114
0.00014066273
0.0012903038
0.00015402296
0.0013126123
0.00011556602
0.0013287134
0.00011930699
0.0013446554
0.00011933693
0.0013849029
0.00012509214
0.0013874654
0.00010612573
0.0014009133
9.8468054e-05
0.0014798134
0.00011372763
0.0014753042
9.6620549e-05
0.0014654889
0.00012755357
0.0015460667
0.00010787717
0.0016127219
0.00015150623
0.0016014654
0.00011055954
0.0016175011
0.00014360149
0.0016702221
0.00013988201
0.0017287145
8.5849935e-05
0.0018168259
0.00012096377
0.0001242339
0.0018031639
0.0010775683
0.00017250545
0.0010939674
0.00011178487
0.0011173144
0.00023614261
0.0011469703
0.00019606225
0.0011555067
0.00019159635
0.0011703294
0.00017772118
0.0011788522
0.00020522439
0.0011858539
0.00016879388
0.001200083
0.00013038708
0.0012086214
0.00014877491
0.0012260853
0.00012385555
0.0012484006
9.8449306e-05
0.0012621118
8.7129376e-05
0.0012829391
0.00013967483
0.0013073887
8.8703538e-05
0.0013236554
7.5288374e-05
0.0013405515
9.7693e-05
0.0013742637
0.00012393167
0.0013782526
7.3628806e-05
0.0013916813
7.9937006e-05
0.0014606564
0.0001403406
0.0014624044
3.0527378e-05
0.0014465486
3.2236129e-05
0.0015367139
0.00012342219
0.0015826324
0.00013465122
0.0015885279
4.4872369e-05
0.0015965032
5.8511577e-05
0.0016299797
0.00010293757
0.0017137553
0.00011448606
0.0017899324
0.00013179799
8.0893186e-05
0.0017638255
0.0010985736
-4.7809963e-05
0.0011072303
-1.8640255e-05
0.0011291057
0.00014877901
0.0011566226
0.00033610909
0.0011630978
7.8394083e-05
0.001176594
0.00018049802
0.0011811535
0.00010147118
0.0011876451
0.00011099534
0.0012013284
0.00014652103
0.0012070243
8.9973164e-05
0.0012217421
0.00011647129
0.0012437324
8.0523356e-05
0.0012611624
4.3744974e-05
0.0012757382
0.00011260928
0.0012990715
5.3418448e-05
0.0013150569
4.6179337e-05
0.0013305714
6.5451796e-05
0.0013616218
9.0989711e-05
0.001367451
4.0374373e-05
0.0013879019
4.1192962e-05
0.0014294392
0.00014048258
0.0014416419
2.1070671e-05
0.0014409607
-3.5472215e-05
0.0015157463
0.00010942509
0.0015371697
0.00011068304
0.0015594221
9.1472917e-06
0.0015748827
-3.3929905e-05
0.0016022152
3.0626606e-05
0.0016947209
0.00013146719
0.0017512311
0.00014027613
4.1931487e-05
0.0017355109
0.0011027417
-0.00015891758
0.0011135311
-8.4496602e-05
0.0011352768
6.3593826e-05
0.0011550339
0.00038066074
0.0011657379
-9.288186e-06
0.0011766954
0.00015006981
0.0011815199
1.9654925e-05
0.0011910529
4.7386508e-05
0.0012024384
0.0001478653
0.0012086692
3.6100351e-05
0.0012240649
0.0001013188
0.0012417025
6.7367697e-05
0.0012592747
2.3732703e-05
0.0012684884
8.1329109e-05
0.0012963458
1.7698425e-05
0.0013137393
2.6170011e-05
0.0013303761
3.3409931e-05
0.001343658
5.6823439e-05
0.0013572602
1.7921127e-05
0.0013917577
2.9384218e-06
0.0014075193
9.8303072e-05
0.0014229984
5.045918e-05
0.0014527252
-4.4171365e-05
0.0014988691
8.1023837e-05
0.0015026066
7.5376817e-05
0.0015253584
4.5782517e-06
0.0015628215
-6.8426605e-05
0.0016060501
-2.3177486e-05
0.0016758904
0.00011189742
0.0016952354
0.00013456881
1.3191261e-05
0.0017151257
0.0010924237
-0.00011543803
0.0011170475
-7.4780705e-05
0.0011421349
2.083797e-05
0.0011528128
0.0002733441
0.001174161
-3.5244864e-05
0.0011807221
8.9226161e-05
0.0011927684
-6.4773394e-06
0.0012061821
3.4182856e-06
0.0012126676
0.00010148568
0.0012270877
1.9684051e-06
0.0012393028
6.508148e-05
0.0012577868
3.1023025e-05
0.0012825826
1.1208562e-05
0.0012820517
6.3403476e-05
0.0013110671
-8.4793357e-06
0.0013269677
1.042959e-05
0.0013444527
1.7601405e-05
0.0013646737
1.7015597e-05
0.0013706879
3.6147847e-05
0.0014176078
-1.8535938e-05
0.0014160153
5.0734172e-05
0.0014259069
4.4139745e-05
0.001485947
-1.8646716e-05
0.0015099829
4.7760259e-05
0.0015012295
4.3923544e-05
0.0015142825
8.5099833e-06
0.0015783057
-5.1368783e-05
0.0016453621
-4.1731145e-05
0.0016936894
4.3686005e-05
0.0016532564
9.3647756e-05
-7.3888695e-06
0.0017271259
0.0011254989
0.0011445058
0.0011852982
0.0012391926
0.0012613232
0.0012865706
0.0012986906
0.0013061819
0.0013155436
0.0013276384
0.0013526506
0.0013339091
0.0013474042
0.0014037662
0.0014062019
0.0014185153
0.001459814
0.0014474592
0.0015227869
0.001549983
0.0015546102
0.0015575973
0.0016267208
0.0016653904
0.0016712288
0.0016671761
0.0017220089
0.0017926057
0.0018112652
0.0017374276
0.0018095064
7.4847547e-05
0.0018322822
0.00017203788
0.001663439
0.00025017297
0.0016617137
0.00036017796
0.0016646501
0.0004154147
0.0016848117
0.00039806991
0.0017113978
0.00043585347
0.0017422365
0.00057174709
0.0017843551
0.00068552105
0.0018398836
0.00068772959
0.0018856133
0.00069632703
0.0019158267
0.00080325362
0.001935451
0.0008988446
0.001962073
0.00094693564
0.0020067274
0.0010782935
0.0020355141
0.0012158478
0.0020165266
0.001219294
0.0020086177
0.0011891696
0.002025986
0.0012569369
0.0020445641
0.0013020354
0.0020385415
0.0012668563
0.0020432004
0.0013432442
0.0021025098
0.0021879223
0.001484527
6.8338111e-05
0.001687699
7.8999428e-05
0.0016486874
0.00018961052
0.0016536717
0.00032141665
0.0016564968
0.00035812134
0.0016726616
0.00037742251
0.0016965454
0.00051439995
0.0017278741
0.00068329994
0.0017568155
0.00071136536
0.0017733385
0.00064018739
0.0017822976
0.00065131553
0.0017993491
0.00078163613
0.0018292507
0.00088871039
0.0018704137
0.0008804497
0.0019211689
0.00092377144
0.0019810331
0.001087381
0.0020221545
0.0011603832
0.0020194988
0.0011402256
0.0019993615
0.0011695273
0.0020017345
0.0012490208
0.0020300532
0.0013553521
0.0020714886
0.0014724918
0.0020962108
0.002088389
0.0015042471
4.2379919e-05
0.001521999
3.3222232e-05
0.0016052918
0.00014056241
0.001574061
0.00021852452
0.0016284122
0.00027585556
0.0016580459
0.0003701682
0.0017004825
0.00052156543
0.001720492
0.00058993321
0.0017112053
0.00055522677
0.0016999124
0.00055931254
0.0017212097
0.00067248404
0.0017670341
0.00082938705
0.001801096
0.00092542199
0.0018128436
0.00092890409
0.0018180734
0.00093716475
0.0018436931
0.00096064813
0.0018955318
0.00096590404
0.0019476617
0.0010243384
0.001984819
0.001144434
0.0020199957
0.0012765328
0.0020549808
0.0013371812
0.0020796363
0.0013750424
0.002073467
0.0020305942
0.0013988915
-3.8374358e-05
0.0016218917
0.00013293068
0.0014956366
0.0002161835
0.0015036951
0.00028012696
0.0015211164
0.00031122912
0.0015562446
0.00030141293
0.0015969728
0.00029564269
0.0016330906
0.00035425833
0.001662651
0.00048275991
0.0016886031
0.00061482864
0.0017184106
0.00069367663
0.0017546977
0.00073060579
0.0017856365
0.00078089057
0.0018011474
0.00088201684
0.0018067865
0.00099549627
0.0018114156
0.0010127637
0.0018229379
0.00096017459
0.0018430111
0.0010019337
0.0018798454
0.0011445142
0.0019330693
0.001247389
0.0019822102
0.0012074697
0.0020143113
0.0011578106
0.002034626
0.0020368369
0.0012271176
6.3368747e-05
0.001625181
0.00014564482
0.0014928829
0.0002612907
0.0014902276
0.00036754454
0.0014841473
0.0003837537
0.0014962742
0.00032512943
0.0015148483
0.00029026856
0.0015475645
0.00035869931
0.0015898747
0.00051260694
0.0016350439
0.00063855562
0.0016708301
0.00065613696
0.0017038938
0.00061460559
0.0017346343
0.00061545929
0.0017600707
0.00072671539
0.0017830674
0.00086697405
0.0017974448
0.00093088927
0.0018086677
0.00096790552
0.0018215147
0.0010690135
0.0018438661
0.0011862465
0.0018734164
0.0012274629
0.0019002878
0.001148959
0.0019211291
0.0010697964
0.0019452339
0.001975675
0.0011276579
5.1130206e-05
0.0014767608
7.2258966e-05
0.0014433592
0.00015365927
0.0014813801
0.00024666963
0.0014887377
0.00029816912
0.0015104854
0.00034106731
0.0015270526
0.00041714286
0.0015443555
0.00052088473
0.0015609488
0.00060911817
0.001579015
0.00064251595
0.0015975997
0.00061388427
0.0016217374
0.00055987089
0.0016472128
0.00055101362
0.0016758132
0.00061632005
0.0017129319
0.0007150356
0.0017535283
0.00080733647
0.0017932508
0.00092039839
0.0018260518
0.0010423281
0.0018449789
0.0011275349
0.0018534624
0.0011425711
0.0018583902
0.0010890335
0.001864601
0.0010850962
0.0018852883
0.0019107671
0.0011732456
0.00015925113
0.0012520115
0.00015245192
0.0014155895
0.00017115536
0.0014570179
0.00017655938
0.0014815798
0.00019645708
0.0015053656
0.00025380908
0.001529769
0.00035863159
0.0015518121
0.0004692271
0.00156487
0.00054046607
0.0015719217
0.00056403105
0.0015757002
0.00055676184
0.0015826742
0.00056188767
0.001596003
0.0006084525
0.0016167819
0.00067389065
0.0016467383
0.00072524309
0.0016861062
0.00077626064
0.0017334604
0.00083511976
0.0017782122
0.00088937199
0.0018050216
0.00093591838
0.0018173914
0.00096041848
0.0018264693
0.00099020762
0.0018421038
0.0010725622
0.0018695433
0.0018920587
0.001202398
6.9819886e-05
0.0012395387
0.00015081822
0.0013821449
0.00018897029
0.0014129895
0.00018324776
0.0014349963
0.00016480007
0.001455883
0.00018213327
0.0014806332
0.00023236337
0.0015046007
0.00028036847
0.0015223027
0.00030626309
0.0015392768
0.00034107311
0.0015572663
0.00041611058
0.0015758149
0.00052450485
0.0015929784
0.00064150735
0.001606397
0.00074923791
0.0016213988
0.00082272744
0.0016419073
0.00082997603
0.0016663461
0.00078629937
0.0016940395
0.0007455163
0.0017220949
0.00074603944
0.0017489131
0.00080017054
0.0017792389
0.00089663223
0.0018143976
0.001018005
0.0018541878
0.0018855862
0.0011399976
-5.7831477e-05
0.0014083775
6.8291737e-05
0.0013424601
0.000146927
0.0013639087
0.00016338186
0.0013883066
0.00016298595
0.001405389
0.00016907528
0.0014237158
0.00017570104
0.0014388828
0.00018504123
0.001456419
0.00020384572
0.0014815165
0.00024956498
0.0015114814
0.00032721434
0.0015421744
0.00043705969
0.0015721288
0.00056298869
0.0015948597
0.00067159728
0.0016091359
0.00074082727
0.0016190178
0.00075923488
0.0016276641
0.00073945253
0.0016382747
0.00071568795
0.0016555427
0.000721496
0.0016808748
0.00077460288
0.0017162908
0.00087335377
0.0017595219
0.00098105696
0.0018081221
0.0018471378
0.0010385107
7.0738688e-06
0.0014768316
5.9060402e-05
0.0013360172
9.4534532e-05
0.0013463055
0.00010512793
0.0013682392
0.00011033402
0.0013782149
0.00013074474
0.0013932467
0.00017846217
0.0014051242
0.00023579537
0.0014214966
0.00028671015
0.0014436333
0.00033619047
0.0014715601
0.00038569417
0.0015012929
0.00043297867
0.0015311563
0.00046584306
0.0015566381
0.00048732541
0.0015760012
0.00050971248
0.0015911792
0.00054050446
0.0016040902
0.00059582212
0.0016187758
0.00067294637
0.001635926
0.00074944883
0.0016535616
0.00082440339
0.0016756679
0.00091452124
0.001705773
0.00098022688
0.0017435769
0.0017781263
0.00097110436
-8.3049377e-06
0.0014528957
-2.934544e-05
0.0013200271
-3.8492177e-05
0.0013261707
-2.1653378e-05
0.0013492456
2.6780796e-05
0.0013651747
0.00010859113
0.0013827763
0.0002109294
0.0013961131
0.00030488208
0.0014114109
0.00038368675
0.001428907
0.00043389748
0.0014478961
0.00044879409
0.0014692706
0.00043680531
0.001492548
0.000401833
0.0015149109
0.00035659626
0.0015340426
0.00032900925
0.0015517154
0.00035595726
0.0015716903
0.00044640702
0.0015964081
0.0005660212
0.0016222873
0.00068843924
0.0016463973
0.00080244086
0.0016673358
0.00089334539
0.0016839748
0.00093293536
0.0017018843
0.0017221195
0.00091884986
-4.9736122e-05
0.0014182046
-0.0001023574
0.0013066785
-0.00010879548
0.0013075946
-7.3379718e-05
0.0013325126
-1.2176172e-06
0.0013539269
9.7681663e-05
0.001374756
0.00019876767
0.0013891051
0.00028814214
0.0014025219
0.00035551443
0.0014144906
0.00040070284
0.0014280979
0.0004140076
0.0014442083
0.00038451327
0.0014611115
0.00032548638
0.0014794719
0.0002733507
0.0014980593
0.00026074023
0.0015184559
0.00030585005
0.0015424153
0.00039421744
0.0015699094
0.00049960723
0.0015996662
0.00059124732
0.0016266326
0.00065856742
0.0016507976
0.00071064302
0.0016699437
0.00075144467
0.0016834342
0.0016928887
0.00077268508
-1.156713e-06
0.0014011367
-1.9973971e-05
0.0013087683
-1.907928e-05
0.0012987601
2.6188616e-06
0.0013193049
3.4726496e-05
0.0013416184
7.9523418e-05
0.001363214
0.00013139376
0.001379597
0.00018297208
0.001391916
0.0002331559
0.00140182
0.00027053789
0.0014127169
0.00028104254
0.0014248129
0.0002648257
0.0014417535
0.00024394092
0.0014605276
0.00024171385
0.0014797294
0.00026903229
0.0014979106
0.00032703094
0.0015173928
0.00040462337
0.001541441
0.00048112107
0.0015696168
0.00052446993
0.001597162
0.00051578723
0.0016208343
0.00047146467
0.0016410412
0.00044778179
0.0016606255
0.0016788612
0.00048257282
7.3386153e-05
0.0013895751
0.00011662792
0.0013155044
0.00014533073
0.0012956754
0.00014659317
0.0013082101
0.00011367001
0.0013285886
6.5467858e-05
0.0013489209
2.9879747e-05
0.0013666058
2.9028089e-05
0.0013803748
6.2709945e-05
0.0013913704
0.00011455761
0.0014029128
0.00015977051
0.0014162533
0.00018152989
0.0014324358
0.00018578473
0.0014503806
0.00019480526
0.0014688354
0.00023565756
0.0014878019
0.0003175565
0.0015065841
0.00040563162
0.0015259297
0.00046320142
0.0015465056
0.00046061314
0.0015689047
0.00039747537
0.0015912486
0.00030482458
0.0016122142
0.00022347565
0.0016352277
0.0016600444
0.000220146
0.00014890882
0.0013835197
0.00024380712
0.0013281557
0.00028472117
0.0012991103
0.00025280971
0.001301546
0.00015717296
0.0013180921
3.8547084e-05
0.0013360474
-5.6622525e-05
0.0013550714
-8.8035301e-05
0.0013730284
-6.0487757e-05
0.0013894966
7.829343e-07
0.0014048167
6.7123196e-05
0.0014190199
0.00011285338
0.0014334545
0.00014160165
0.001449342
0.00015768654
0.0014648394
0.00018613925
0.0014810923
0.00024507185
0.0014994251
0.00031561628
0.0015169113
0.00037045606
0.0015358557
0.00037168286
0.0015546615
0.00030078432
0.0015728421
0.0001930955
0.0015911202
9.7923479e-05
0.0016147954
0.0016396366
6.9292415e-05
0.00016571741
0.0013818577
0.00026869264
0.0013461781
0.00030404773
0.0013129361
0.00026555731
0.0013074884
0.00016004941
0.0013198999
3.6070026e-05
0.0013344947
-7.0879826e-05
0.0013529969
-0.0001281722
0.0013709314
-0.0001282662
0.0013900551
-8.1775409e-05
0.0014074528
-1.7822946e-05
0.0014241202
2.9247272e-05
0.0014395634
6.8750687e-05
0.0014543328
8.2758175e-05
0.0014689465
0.00010014684
0.0014839328
0.00012702606
0.0014997279
0.00017222508
0.0015163356
0.00021723608
0.0015347989
0.00022340227
0.0015505549
0.00018255954
0.0015647302
9.8501612e-05
0.0015788107
6.3144576e-06
0.0015975568
0.0016242482
-4.2706492e-05
0.00011098698
0.001374837
0.0001782889
0.0013579138
0.00020184179
0.0013296517