/*--------------------------------*- C++ -*----------------------------------*\
| =========                 |                                                 |
| \\      /  F ield         | OpenFOAM: The Open Source CFD Toolbox           |
|  \\    /   O peration     | Version:  2406                                  |
|   \\  /    A nd           | Website:  www.openfoam.com                      |
|    \\/     M anipulation  |                                                 |
\*---------------------------------------------------------------------------*/
FoamFile
{
    version     2.0;
    format      ascii;
    arch        "LSB;label=32;scalar=64";
    class       volScalarField;
    location    "20";
    object      T;
}
// * * * * * * * * * * * * * * * * * * * * * * * * * * * * * * * * * * * * * //

dimensions      [0 0 0 1 0 0 0];

internalField   nonuniform List<scalar> 
96472
(
1.00368
1.0063469
1.0063863
1.0056802
1.0053709
1.005651
1.0056482
1.005548
1.0053587
1.004993
1.004478
1.0040253
1.0036655
1.0034413
1.0033298
1.0032403
1.0031755
1.0031474
1.0031166
1.0030228
1.0028805
1.0026823
1.0024651
1.0022696
1.0020813
1.0019211
1.001742
1.0017086
1.0017307
1.0017621
1.0018382
1.0019565
1.0020921
1.0022236
1.0023505
1.0024774
1.0025859
1.0026715
1.0027361
1.0027771
1.0028119
1.0027689
1.0028547
1.0027562
1.0027294
1.0027935
1.0026854
1.0027482
1.0026165
1.0027021
1.0026281
1.002595
1.0025508
1.0025098
1.0024957
1.0036667
1.0062991
1.0063331
1.0056441
1.0053485
1.005638
1.0056673
1.0055927
1.0054165
1.0050659
1.0045508
1.0040953
1.003736
1.0035051
1.0033739
1.0032875
1.0032146
1.0031568
1.0031399
1.0030558
1.0029126
1.0027192
1.0025093
1.0023313
1.0021073
1.0019564
1.0018146
1.0017105
1.001718
1.0017762
1.0018475
1.0019425
1.0020532
1.0021849
1.0023016
1.0024311
1.0025428
1.0026434
1.0027126
1.0027613
1.0027701
1.0028247
1.0027563
1.0028005
1.0027484
1.002732
1.00272
1.0026731
1.0026975
1.0026661
1.0026163
1.0026093
1.0025699
1.0025573
1.0024598
1.0036491
1.0062435
1.0062748
1.0056065
1.0053253
1.0056241
1.0056802
1.0056373
1.0054749
1.0051335
1.0046256
1.004173
1.0038095
1.0035715
1.0034256
1.0033214
1.0032563
1.0031915
1.0031455
1.0030763
1.0029368
1.0027398
1.002543
1.0023409
1.0021678
1.0019485
1.0018431
1.0017514
1.0017146
1.0017557
1.0018375
1.0019316
1.0020376
1.002155
1.0022786
1.0023986
1.0025126
1.0026052
1.0026858
1.0027313
1.0027753
1.0027628
1.0028035
1.002737
1.0027642
1.00268
1.0026891
1.0026945
1.0026568
1.0026083
1.0026043
1.0026152
1.002546
1.002518
1.0024272
1.0036321
1.0061896
1.0062212
1.0055736
1.0053027
1.0056109
1.0056969
1.0056751
1.0055324
1.0051951
1.004696
1.0042489
1.0038825
1.0036378
1.0034797
1.0033595
1.0032776
1.0032238
1.0031741
1.0030901
1.0029558
1.0027721
1.0025717
1.0023663
1.0022047
1.0020001
1.0018373
1.0017648
1.0017418
1.0017552
1.0018184
1.0019118
1.0020198
1.002129
1.0022451
1.0023675
1.0024784
1.0025884
1.0026533
1.0027151
1.0027375
1.00278
1.0027389
1.0027827
1.0026811
1.0027386
1.0027085
1.0026331
1.0026395
1.0026261
1.0026303
1.0025207
1.0025432
1.0024458
1.0025742
1.0036165
1.0061376
1.0061676
1.0055391
1.0052835
1.0055988
1.0057175
1.0057217
1.0055887
1.0052617
1.0047667
1.0043191
1.0039577
1.0037039
1.003533
1.0034054
1.0033094
1.0032362
1.0032084
1.0031194
1.0029852
1.0028146
1.0026101
1.002431
1.0022111
1.0020452
1.0018742
1.0017686
1.0017429
1.0017688
1.0018165
1.0018962
1.0019915
1.0020967
1.0022105
1.0023261
1.002445
1.0025397
1.0026367
1.0026794
1.0027349
1.0027284
1.0027714
1.0026955
1.0027694
1.0026858
1.0026225
1.0026904
1.0026563
1.0025955
1.00256
1.0025429
1.0025525
1.0025955
1.0023359
1.0035991
1.0060855
1.0061154
1.0055078
1.005262
1.0055905
1.0057308
1.0057688
1.0056456
1.0053344
1.0048448
1.004395
1.0040272
1.0037706
1.0035849
1.0034473
1.0033514
1.0032626
1.0032161
1.0031389
1.0030107
1.0028336
1.002641
1.0024531
1.0022579
1.0020444
1.0019078
1.0018037
1.0017414
1.0017629
1.0018096
1.0018822
1.0019674
1.0020801
1.0021844
1.0022945
1.0024065
1.0025188
1.0025895
1.0026721
1.0026973
1.0027386
1.002714
1.0027643
1.0026879
1.002655
1.0027494
1.0026158
1.0025794
1.0026011
1.0025701
1.0026214
1.0024974
1.0024317
1.0025267
1.0035804
1.0060319
1.006064
1.005476
1.0052451
1.0055823
1.0057544
1.0058201
1.0057056
1.0053946
1.0049124
1.0044717
1.0041003
1.0038395
1.0036398
1.0034846
1.0033821
1.0033023
1.0032328
1.0031478
1.0030268
1.0028516
1.0026747
1.0024609
1.0023032
1.0020786
1.0019136
1.0018203
1.0017615
1.0017615
1.0017981
1.0018653
1.0019547
1.002055
1.0021588
1.0022747
1.0023899
1.002471
1.0025887
1.0026271
1.0026916
1.0027027
1.0027439
1.0026934
1.0027052
1.0027344
1.0026088
1.0026073
1.0026743
1.0025827
1.0026112
1.002396
1.0026465
1.0024837
1.0025079
1.0035546
1.0059739
1.0060116
1.00545
1.0052293
1.0055748
1.0057741
1.0058657
1.0057673
1.0054598
1.004986
1.0045416
1.0041731
1.003907
1.0036965
1.0035287
1.0034092
1.0033207
1.0032652
1.0031769
1.0030497
1.002893
1.0027083
1.0025181
1.0023117
1.0021306
1.0019446
1.0018241
1.0017707
1.0017709
1.0017964
1.0018534
1.0019355
1.0020261
1.0021268
1.0022378
1.0023415
1.0024684
1.0025256
1.0026294
1.0026592
1.0026951
1.0027011
1.002717
1.0027225
1.0026296
1.0026619
1.0026999
1.0025857
1.0025467
1.0024772
1.0027352
1.0024307
1.0025208
1.0024572
1.0035281
1.0059152
1.0059642
1.0054207
1.0052115
1.0055696
1.0057944
1.0059146
1.0058198
1.0055255
1.0050559
1.004614
1.0042413
1.0039732
1.0037529
1.0035728
1.0034505
1.0033419
1.0032788
1.0032018
1.0030796
1.0029263
1.0027309
1.0025613
1.0023441
1.0021451
1.001978
1.001855
1.0017757
1.0017727
1.0017897
1.0018427
1.0019238
1.0020005
1.0021087
1.0022121
1.0023223
1.0024075
1.0025338
1.0025761
1.0026438
1.002685
1.0026952
1.0026982
1.0026642
1.0027044
1.0026935
1.0025966
1.0025564
1.0026289
1.0026673
1.002415
1.002544
1.0025248
1.0025296
1.0035026
1.0058569
1.0059168
1.0053959
1.0051982
1.0055664
1.0058119
1.0059636
1.0058756
1.0055923
1.0051229
1.0046908
1.0043086
1.0040383
1.0038091
1.0036164
1.0034878
1.0033836
1.003296
1.0032122
1.0031032
1.0029343
1.0027693
1.0025674
1.002395
1.002168
1.0019924
1.0018775
1.0017948
1.0017737
1.0017847
1.0018317
1.0019019
1.0019918
1.0020877
1.0021935
1.0022952
1.0024097
1.0024791
1.0025735
1.0026359
1.0026508
1.0026928
1.0026833
1.0027251
1.0026527
1.0026404
1.0026133
1.002719
1.0025621
1.0024784
1.0025433
1.002591
1.0025262
1.0024987
1.0034907
1.0058196
1.0058813
1.0053767
1.0051887
1.0055634
1.0058312
1.0060122
1.005935
1.0056498
1.0051896
1.0047644
1.0043805
1.0041015
1.0038662
1.003661
1.0035217
1.0034137
1.0033299
1.0032351
1.0031188
1.0029653
1.0028067
1.002605
1.0024159
1.0022156
1.0020242
1.0018848
1.0018094
1.0017786
1.0017863
1.001821
1.0018908
1.0019656
1.0020654
1.0021636
1.0022688
1.0023682
1.0024628
1.0025463
1.002593
1.0026656
1.0026684
1.0026953
1.0026497
1.0026995
1.0026648
1.0027168
1.0025332
1.0025838
1.0025586
1.0027091
1.002417
1.002549
1.0024428
1.0034769
1.0057785
1.0058431
1.0053565
1.0051775
1.0055574
1.0058509
1.0060519
1.0059863
1.0057051
1.0052532
1.0048298
1.0044498
1.0041681
1.0039237
1.0037079
1.0035634
1.0034367
1.0033514
1.0032663
1.0031431
1.0030133
1.0028229
1.0026609
1.0024402
1.0022428
1.0020614
1.0019108
1.0018227
1.0017844
1.0017868
1.0018159
1.0018774
1.0019592
1.002038
1.0021485
1.0022444
1.0023395
1.0024494
1.0025047
1.0026032
1.0026293
1.0026574
1.0026617
1.0027217
1.0026577
1.0026868
1.0025869
1.0026735
1.0026032
1.0027266
1.0023107
1.0026617
1.0025404
1.002561
1.0034791
1.0057634
1.0058177
1.0053439
1.0051645
1.0055531
1.0058682
1.006097
1.0060385
1.005765
1.00532
1.0048978
1.0045139
1.0042266
1.0039814
1.0037565
1.0036042
1.0034758
1.0033717
1.0032795
1.0031757
1.0030292
1.0028569
1.0026811
1.0024881
1.002266
1.0020829
1.0019407
1.0018427
1.0017956
1.0017864
1.0018094
1.0018717
1.0019387
1.0020367
1.0021217
1.0022306
1.0023318
1.0024056
1.0025173
1.002558
1.002609
1.0026671
1.0026894
1.0026512
1.0026871
1.0026749
1.0026913
1.0026385
1.0026322
1.0024213
1.0027324
1.002608
1.0024033
1.0026671
1.0034742
1.0057356
1.0057901
1.0053291
1.0051582
1.0055556
1.005881
1.0061414
1.0060881
1.005819
1.0053789
1.0049715
1.0045824
1.0042855
1.0040383
1.0038045
1.0036446
1.0035171
1.0034092
1.0032996
1.0031997
1.0030455
1.0029033
1.0027043
1.0025192
1.0023092
1.0021138
1.0019613
1.0018577
1.0018055
1.0017922
1.0018065
1.001859
1.0019336
1.0020054
1.0021137
1.0022073
1.0023012
1.0024077
1.0024712
1.0025358
1.0026191
1.0026349
1.0026523
1.0026974
1.002698
1.0026687
1.0026599
1.0026076
1.0026286
1.0026864
1.0026127
1.0024466
1.0027155
1.0024569
1.0034844
1.005731
1.0057779
1.0053297
1.0051572
1.0055525
1.0058942
1.0061736
1.0061344
1.0058682
1.0054359
1.0050289
1.0046472
1.0043448
1.0040932
1.0038529
1.0036888
1.0035517
1.0034386
1.0033375
1.0032181
1.0030936
1.002925
1.0027582
1.0025443
1.0023454
1.0021533
1.0019897
1.0018765
1.0018165
1.0017978
1.0018084
1.0018578
1.0019179
1.0020031
1.0020851
1.002192
1.0022841
1.0023713
1.0024471
1.002537
1.0025776
1.0026367
1.0026747
1.0026798
1.0026811
1.0026782
1.0026637
1.0027098
1.0026056
1.0026578
1.0025155
1.0026292
1.002682
1.0025123
1.0034805
1.0057104
1.0057604
1.0053202
1.0051499
1.0055462
1.0059102
1.0062049
1.0061801
1.0059156
1.0054979
1.0050859
1.0047085
1.0044004
1.0041456
1.0039001
1.0037336
1.0035924
1.0034631
1.0033586
1.003248
1.0031284
1.0029505
1.0027956
1.0025873
1.002373
1.002182
1.0020221
1.0019
1.001834
1.0018049
1.0018116
1.0018475
1.0019155
1.0019852
1.0020825
1.0021711
1.0022717
1.0023521
1.0024467
1.0025025
1.0025799
1.002619
1.0026422
1.0026842
1.0026838
1.0026949
1.002716
1.0025958
1.0027129
1.0025351
1.0027349
1.0026944
1.0024295
1.0027091
1.0034784
1.005692
1.0057456
1.0053132
1.00514
1.0055422
1.0059216
1.0062443
1.0062186
1.0059634
1.0055476
1.0051508
1.0047627
1.0044551
1.0041965
1.0039467
1.0037746
1.0036337
1.0034999
1.0033784
1.00328
1.0031398
1.0029986
1.0028167
1.0026242
1.0024119
1.0022137
1.0020507
1.0019207
1.0018517
1.0018143
1.0018136
1.0018459
1.0019016
1.0019768
1.0020588
1.002163
1.0022511
1.0023442
1.0024165
1.0025022
1.002543
1.002601
1.0026564
1.0026776
1.0026797
1.0027121
1.0026334
1.0027225
1.0026111
1.0027962
1.0025087
1.0026649
1.0026524
1.0026153
1.0034703
1.0056673
1.0057295
1.005309
1.0051397
1.0055393
1.0059301
1.0062761
1.0062592
1.0060086
1.0055952
1.0052083
1.0048225
1.0045052
1.004247
1.0039921
1.0038152
1.0036722
1.0035348
1.0034161
1.0032987
1.0031738
1.0030326
1.0028578
1.0026534
1.0024516
1.0022538
1.0020827
1.001945
1.0018683
1.0018245
1.0018176
1.0018471
1.0018977
1.0019666
1.0020483
1.0021415
1.0022368
1.002327
1.0024022
1.0024629
1.0025447
1.0025983
1.0026369
1.0026445
1.0027225
1.0026625
1.002718
1.0026882
1.0027014
1.0025812
1.0027597
1.0025811
1.0027098
1.002626
1.0034661
1.0056435
1.005716
1.0053057
1.0051371
1.005532
1.0059436
1.0062987
1.0062982
1.0060501
1.0056526
1.0052566
1.0048742
1.0045564
1.0042948
1.0040325
1.0038561
1.0037115
1.0035664
1.0034516
1.0033231
1.003219
1.0030546
1.0029019
1.0026935
1.0024856
1.0022878
1.0021141
1.0019752
1.0018864
1.0018375
1.0018234
1.0018457
1.0018931
1.0019504
1.0020462
1.0021266
1.0022236
1.0023107
1.0023783
1.002467
1.0025186
1.0025792
1.0026091
1.0026974
1.0026506
1.0027061
1.0027232
1.0026503
1.0027292
1.002646
1.002742
1.0026299
1.0027103
1.0026018
1.0034573
1.0056194
1.0057003
1.0052996
1.0051291
1.0055262
1.0059479
1.00632
1.0063281
1.0060885
1.0056972
1.0053067
1.0049163
1.0046061
1.0043343
1.0040715
1.0038939
1.0037514
1.0036059
1.0034752
1.0033607
1.0032397
1.0030952
1.0029302
1.0027321
1.0025217
1.0023222
1.0021462
1.0020063
1.0019041
1.001853
1.0018315
1.0018435
1.0018867
1.0019499
1.002019
1.0021185
1.0022159
1.0022954
1.0023787
1.0024339
1.0025088
1.0025634
1.0026384
1.0026177
1.0026886
1.002722
1.0026651
1.0027524
1.0026249
1.0028236
1.0025133
1.0028419
1.0026002
1.0026854
1.0034532
1.0055969
1.0056872
1.0052943
1.0051219
1.0055246
1.0059476
1.0063453
1.0063577
1.0061265
1.0057306
1.0053565
1.004962
1.0046441
1.0043754
1.004111
1.0039288
1.0037878
1.0036425
1.0035087
1.0033897
1.0032593
1.0031329
1.0029633
1.0027637
1.0025593
1.0023608
1.0021824
1.0020373
1.0019232
1.0018673
1.0018401
1.0018456
1.0018822
1.0019358
1.0020139
1.0020974
1.0021949
1.0022857
1.0023526
1.0024273
1.0024899
1.0025553
1.0025804
1.0026454
1.0026855
1.0026725
1.0027255
1.0026849
1.0027594
1.0026307
1.0027541
1.0027481
1.0025496
1.0028257
1.0034457
1.0055722
1.0056757
1.0052878
1.0051238
1.0055174
1.0059506
1.0063625
1.0063872
1.0061574
1.0057691
1.0053973
1.0050068
1.0046831
1.0044145
1.0041434
1.003961
1.0038199
1.0036704
1.0035442
1.0034098
1.0032962
1.0031559
1.003004
1.0028009
1.0025976
1.0023949
1.0022156
1.0020667
1.0019458
1.0018826
1.0018452
1.0018475
1.0018765
1.0019245
1.0019996
1.0020824
1.0021813
1.0022578
1.0023412
1.0024113
1.0024678
1.0025238
1.0025814
1.0026453
1.0026368
1.0027047
1.0026933
1.0027221
1.0027234
1.0026578
1.0028451
1.002518
1.0028526
1.0026519
1.0034392
1.0055488
1.005668
1.0052866
1.0051213
1.0055057
1.0059545
1.0063721
1.0064085
1.0061823
1.0058086
1.005433
1.0050353
1.0047194
1.0044409
1.0041691
1.0039829
1.0038391
1.0036888
1.0035571
1.0034281
1.0033123
1.0031758
1.0030312
1.0028322
1.0026308
1.0024273
1.0022497
1.0020962
1.001968
1.0018939
1.0018525
1.0018413
1.0018598
1.0019101
1.001967
1.002057
1.0021429
1.0022321
1.0023138
1.0023762
1.0024436
1.00249
1.0025671
1.0025688
1.002663
1.0026601
1.0026953
1.0027153
1.0026578
1.0027962
1.0026346
1.0027088
1.0028095
1.0025972
1.003428
1.0055051
1.0056438
1.0052698
1.005104
1.0054879
1.0059311
1.0063564
1.0063929
1.0061838
1.0058169
1.0054594
1.0050609
1.0047436
1.0044573
1.0041766
1.0039734
1.0038171
1.003659
1.0035189
1.0034011
1.0032791
1.0031706
1.003035
1.002848
1.002653
1.002452
1.0022753
1.0021162
1.0019811
1.0018884
1.0018389
1.0018163
1.0018184
1.0018536
1.0019106
1.0019794
1.0020647
1.0021548
1.002231
1.002306
1.0023623
1.0024321
1.0024572
1.0025471
1.0025698
1.0026184
1.0026467
1.0026327
1.0027105
1.0026651
1.0026559
1.0027985
1.0025621
1.0027585
1.0033474
1.0053713
1.0055564
1.0052291
1.0050844
1.0054581
1.0058648
1.0062698
1.0062962
1.0060945
1.0057408
1.0054128
1.0050491
1.0047352
1.0044461
1.004139
1.0038976
1.0037012
1.0035013
1.0033372
1.0032135
1.0031188
1.0030543
1.0029726
1.0028219
1.0026537
1.0024671
1.0022968
1.0021314
1.0019823
1.0018716
1.0017928
1.0017456
1.0017212
1.001729
1.0017587
1.0018082
1.0018806
1.0019611
1.0020425
1.002108
1.0021813
1.0022224
1.0022862
1.0023421
1.0023976
1.0024627
1.0024691
1.0025417
1.0025378
1.0025596
1.0026277
1.0025703
1.0026056
1.0026442
1.0032167
1.0050468
1.0052924
1.0050337
1.0049667
1.0053516
1.0057127
1.0060492
1.0060421
1.0058213
1.0054881
1.0052029
1.0049032
1.0046261
1.0043338
1.0040022
1.0037375
1.0034801
1.0031636
1.0028798
1.0027145
1.0027114
1.0027868
1.0028435
1.0027882
1.0026686
1.0024988
1.0023364
1.0021699
1.0020133
1.0018658
1.0017589
1.0016665
1.0015905
1.00156
1.0015541
1.0015596
1.0015969
1.0016589
1.0017038
1.001782
1.0018459
1.0018894
1.0019388
1.0019797
1.0020708
1.0020999
1.002181
1.0021864
1.0022275
1.0022833
1.0023148
1.0023306
1.0024307
1.0023785
1.0031545
1.0047113
1.0049084
1.0045496
1.0045214
1.0050459
1.0054136
1.0057607
1.0057748
1.0054834
1.0050708
1.0048358
1.0046189
1.0043995
1.0041613
1.0038671
1.0036462
1.0033328
1.0028257
1.0021432
1.0017322
1.0021765
1.0027979
1.0030102
1.0029422
1.0028095
1.0025942
1.0024814
1.002311
1.0022025
1.0020572
1.0018697
1.0017331
1.0015928
1.0014711
1.0014798
1.0014159
1.0013591
1.0014515
1.0014822
1.0014312
1.0015443
1.0015193
1.0015521
1.0016675
1.0016147
1.0017362
1.0017639
1.0018305
1.0018343
1.0018558
1.0019284
1.0019316
1.0019989
1.0020353
1.0020182
1.0024418
1.0026181
1.0026624
1.0027193
1.0026948
1.0026484
1.0026745
1.0026785
1.0025973
1.0026098
1.0025767
1.0025516
1.0026037
1.0024712
1.0024931
1.0025451
1.0024548
1.0024559
1.0024669
1.0024092
1.0024269
1.0024305
1.0023636
1.00242
1.0024089
1.0023865
1.0021644
1.0024477
1.0026137
1.0026857
1.0026735
1.0026904
1.0026844
1.0026424
1.0026337
1.0026416
1.0025818
1.002575
1.0025999
1.0024828
1.0025771
1.0024987
1.0024662
1.0025045
1.0024245
1.0024478
1.0024135
1.0024045
1.0023694
1.0023683
1.0023388
1.0023546
1.002329
1.002161
1.0025123
1.0026073
1.0026639
1.0027153
1.0026483
1.0026713
1.0026684
1.002609
1.0026232
1.0026024
1.0025895
1.0025371
1.0026009
1.0024823
1.00254
1.0024951
1.0024452
1.0024867
1.0023782
1.0024465
1.0023411
1.0023909
1.0022955
1.0023108
1.0022779
1.002268
1.0023045
1.0024843
1.0026697
1.0026536
1.0026591
1.0027346
1.0026203
1.0026552
1.0026558
1.0025643
1.0026329
1.0025477
1.0025819
1.0025129
1.0025522
1.0024831
1.0024766
1.002473
1.0023921
1.0024558
1.0023128
1.0024162
1.0022484
1.0023319
1.00219
1.0022368
1.0022357
1.0023007
1.0025337
1.0026134
1.0026971
1.002676
1.0026648
1.0027159
1.0026223
1.002635
1.0026545
1.0025378
1.0026211
1.0025152
1.0025312
1.0024952
1.0024756
1.0024573
1.0024151
1.0024272
1.0023437
1.0023812
1.0022638
1.0023188
1.002184
1.0022265
1.0021121
1.0021333
1.0024377
1.0025608
1.0026076
1.0026664
1.0026738
1.002669
1.0026901
1.0026718
1.0026364
1.0026245
1.0026326
1.0025493
1.0025697
1.0025138
1.0024634
1.0024739
1.0024055
1.002406
1.0023701
1.0023425
1.0022936
1.0022664
1.0022253
1.0021653
1.0021224
1.0021099
1.0020443
1.0024473
1.002571
1.0025498
1.0025895
1.0027102
1.0026574
1.0026532
1.0027039
1.0026282
1.0026308
1.0026128
1.0025681
1.0025509
1.0025045
1.0024837
1.0023989
1.0024306
1.0023439
1.0023314
1.0022797
1.0022627
1.0021816
1.0021574
1.0021241
1.0020675
1.0019962
1.0020288
1.0024821
1.0025014
1.0025846
1.0025989
1.0026622
1.0027241
1.002657
1.0026706
1.0026729
1.0026201
1.0026129
1.00257
1.0025657
1.002461
1.0024919
1.00243
1.0023356
1.0023877
1.0022347
1.0023098
1.0021338
1.0022305
1.0020441
1.0021193
1.0019726
1.0019813
1.0018708
1.0024801
1.0025062
1.0026049
1.0026402
1.0026526
1.0027219
1.002703
1.0026447
1.0026785
1.002618
1.0025852
1.0025917
1.0025072
1.0025199
1.0024266
1.0024245
1.0023738
1.0023005
1.0022864
1.0022161
1.0021669
1.0021346
1.0020671
1.0020277
1.0019631
1.0019074
1.0018132
1.0024032
1.0025437
1.0025957
1.0026914
1.0026486
1.0026963
1.0027158
1.0026382
1.0026581
1.0026046
1.0025817
1.0025702
1.0024702
1.0025099
1.0023944
1.0024024
1.0023462
1.0022611
1.0022745
1.0021319
1.0021766
1.0020241
1.0020697
1.0019141
1.0019399
1.0018134
1.001804
1.0025114
1.0025473
1.0025368
1.002677
1.0026475
1.0026416
1.0027067
1.0026287
1.0026068
1.0026173
1.0025449
1.0025351
1.0024835
1.0024511
1.0023829
1.0023631
1.0023253
1.0022175
1.0022454
1.0021095
1.0021221
1.0020369
1.0019698
1.0019405
1.0018375
1.0017821
1.001704
1.0026175
1.0025001
1.0024591
1.0025874
1.0026399
1.0025609
1.0026576
1.0026241
1.0025081
1.0026004
1.0025
1.0024431
1.002489
1.0023524
1.0023601
1.0023104
1.0022563
1.0021808
1.0021823
1.0020666
1.0020429
1.0019896
1.0019002
1.0018777
1.0017811
1.001707
1.001687
1.0025905
1.0024228
1.002377
1.0024724
1.0025743
1.0025281
1.0025741
1.002581
1.0024368
1.0025313
1.0024364
1.0023331
1.0024628
1.0022296
1.002288
1.0022409
1.0021098
1.0021894
1.0019773
1.0021087
1.0018766
1.0019618
1.0018015
1.0017955
1.0017122
1.0016482
1.001598
1.0025089
1.002305
1.0022934
1.0023842
1.0024772
1.002462
1.0025213
1.0024572
1.0024255
1.0024154
1.002313
1.0023146
1.0022545
1.0022295
1.0021375
1.0021137
1.0020886
1.0019802
1.0019814
1.0019004
1.0018634
1.0017816
1.0017818
1.0016404
1.0016476
1.0015466
1.0014774
1.0019361
1.0021279
1.0021882
1.0023194
1.0024114
1.0023707
1.0024335
1.0024203
1.0022978
1.0023796
1.0022625
1.0021546
1.00226
1.0020694
1.0021031
1.0020241
1.0019588
1.0019645
1.0018008
1.0018849
1.0016951
1.0017423
1.0016245
1.0015883
1.0015041
1.0014465
1.0013936
1.0019252
1.0020241
1.002168
1.0022361
1.0023479
1.0023199
1.0023315
1.0022862
1.002253
1.0022941
1.0021461
1.0021224
1.0021317
1.0019906
1.0020197
1.0019426
1.0018566
1.0018541
1.0017615
1.0017303
1.0016216
1.0016269
1.0014811
1.0015219
1.0013669
1.0013319
1.0012983
1.0019905
1.0021969
1.0021417
1.0021843
1.0022428
1.0022937
1.0021595
1.0021938
1.0021803
1.0020823
1.0021209
1.0019922
1.0019803
1.0019259
1.0018534
1.0018803
1.0017108
1.0017738
1.0016188
1.0016314
1.0015276
1.0014762
1.0014037
1.0013595
1.0013041
1.0011984
1.0011641
1.0010583
1.0014045
1.001714
1.0018596
1.0020382
1.0020947
1.0020697
1.0020949
1.0020095
1.0019962
1.0019871
1.0018933
1.0018851
1.0017699
1.0017803
1.0017144
1.0016365
1.0016278
1.0015152
1.0015209
1.001397
1.0014157
1.0012292
1.0013064
1.0011657
1.0011053
1.0010481
1.0020091
1.0016824
1.001868
1.0018752
1.0019894
1.0019411
1.0020239
1.0019431
1.0018965
1.0019206
1.0017822
1.0018372
1.0017397
1.0016512
1.0016825
1.0015236
1.0016124
1.001417
1.0014375
1.001369
1.001289
1.0013138
1.0010946
1.0012061
1.0009986
1.001017
1.000928
1.0013942
1.0018929
1.0017315
1.0018126
1.0018592
1.0018785
1.0018658
1.0018126
1.0017973
1.0017443
1.0016821
1.0016436
1.0016457
1.0015415
1.0014911
1.0014682
1.0014177
1.0013646
1.0012816
1.0012433
1.0011625
1.0012032
1.0010049
1.0010388
1.0009038
1.0008946
1.000774
1.0010082
1.0008045
1.0010787
1.0013433
1.0015456
1.0016332
1.0016949
1.0015879
1.0016512
1.0015783
1.0014547
1.001547
1.0013939
1.0014333
1.0013417
1.0012684
1.0013394
1.0011224
1.0012465
1.0010354
1.0010442
1.0010015
1.0009122
1.0008958
1.0007707
1.0007464
1.0006426
1.0010086
1.0011725
1.0012412
1.0013965
1.0015014
1.0014833
1.0014533
1.0014884
1.0014411
1.001392
1.0013188
1.0012983
1.0013145
1.0011937
1.0011709
1.0011991
1.00108
1.0010096
1.0010424
1.0009554
1.0008568
1.0008273
1.0007818
1.0007252
1.0006162
1.0005953
1.000505
1.0008146
1.001116
1.0011648
1.0013088
1.0013538
1.0013222
1.0012546
1.0013421
1.0012504
1.0012161
1.0011806
1.0010887
1.001216
1.0009755
1.0010126
1.0010666
1.0008604
1.0009147
1.0007584
1.0008672
1.0006684
1.0006641
1.0006067
1.0005445
1.0004756
1.000393
1.0003409
1.0005176
1.0008481
1.0009605
1.0010726
1.0011431
1.0011028
1.0010877
1.0011257
1.0010625
1.0010699
1.0009676
1.0009579
1.0010029
1.0008216
1.0008612
1.0008366
1.000736
1.0007239
1.0005819
1.0006764
1.0005338
1.0005132
1.0004147
1.0003632
1.0003525
1.0002335
1.0001455
1.0004249
1.000521
1.0006403
1.0007526
1.000913
1.0008558
1.0008548
1.0009023
1.0008291
1.0008962
1.0007449
1.0007658
1.0007928
1.0006149
1.0006999
1.0005656
1.0005954
1.0005432
1.0003965
1.0004636
1.0003252
1.0003781
1.0002093
1.0002206
1.0001165
1.0000953
1.0000046
1.0004107
1.000302
1.0003955
1.0005192
1.0006432
1.0006798
1.0005924
1.0006581
1.0006726
1.0006102
1.000614
1.0004785
1.00058
1.000484
1.0004452
1.0004417
1.0002792
1.0004662
1.0002137
1.0002843
1.0001319
1.0001254
1.0001278
0.99998029
0.9999882
0.99984409
0.99986659
1.000144
1.0000793
1.0001198
1.0002977
1.000413
1.0004874
1.0004113
1.0004716
1.0004475
1.0003938
1.0004488
1.0002625
1.0003926
1.0002876
1.0002314
1.0002919
1.0000445
1.0003022
1.0000173
1.000095
1.0000109
0.99987916
0.99998134
0.99974282
0.99987508
0.99964217
0.99969768
1.0006957
0.99975704
1.0000147
1.0000532
1.0002478
1.0002704
1.0002974
1.000281
1.0002293
1.0002805
1.0001918
1.0001375
1.0001512
1.0000653
1.0001085
1.0000033
0.9999668
0.99999029
0.99986994
0.99987421
0.99983643
0.99975794
0.99970218
0.99962255
0.99960082
0.99956016
0.99948137
0.99988051
1.0000851
0.99996883
1.000062
1.0000783
1.0001489
1.0001043
1.0001041
1.0001042
1.0000238
1.0000493
0.99990396
0.99993454
0.99990994
0.99982088
0.999828
0.99971561
0.99980535
0.99966254
0.99972419
0.99956811
0.99953627
0.99953416
0.99947372
0.99943965
0.9993373
0.99927861
0.99899195
0.99933468
0.99946069
0.99969229
0.99975271
0.9998116
0.99983871
0.99988116
0.9998151
0.99980613
0.99977059
0.99969214
0.99976022
0.99965575
0.99965097
0.99956299
0.99950577
0.99958632
0.99945003
0.99953988
0.99935046
0.99933852
0.99931636
0.99926924
0.99926143
0.99915115
0.9990745
0.99862455
0.99871674
0.99892493
0.99905571
0.99920309
0.99943069
0.99946506
0.99955909
0.99954556
0.99956636
0.99945089
0.99944449
0.99947577
0.99939648
0.99947392
0.99927933
0.99933952
0.99930429
0.99928021
0.99927762
0.99912338
0.99915537
0.99905577
0.9991213
0.99898705
0.998993
0.99886717
0.99893166
0.99892294
0.99894508
0.99901406
0.99909695
0.99926191
0.99928117
0.99935348
0.9993718
0.99925132
0.99926273
0.99924352
0.99922229
0.99921577
0.99920013
0.99912408
0.9990948
0.99905827
0.99906649
0.99902614
0.99893596
0.9989159
0.99888916
0.99886711
0.99878657
0.99878978
0.99867459
0.99914295
0.99892612
0.99886966
0.99889878
0.99894523
0.99904151
0.99905848
0.99910778
0.99913665
0.99907254
0.99910179
0.99903865
0.9990234
0.99895797
0.99897489
0.99895981
0.99887918
0.99888585
0.99876308
0.99883736
0.99870418
0.99872044
0.99871158
0.99863364
0.9985676
0.99857479
0.99846458
0.99872749
0.99872117
0.99864342
0.99861891
0.99867441
0.99876187
0.99879768
0.99885021
0.99885905
0.99885966
0.99887331
0.99882371
0.99883023
0.99871314
0.99874309
0.99871468
0.99868499
0.99868834
0.99854253
0.99860597
0.99847546
0.99851087
0.99847931
0.9984423
0.99835175
0.99833416
0.9982603
0.99841237
0.99838592
0.9983179
0.99826252
0.99831438
0.99842062
0.99848971
0.99853893
0.99855142
0.99859031
0.99858584
0.99858727
0.99857954
0.99849145
0.99849936
0.99844591
0.99845704
0.99844247
0.99834401
0.99835509
0.9982549
0.99827985
0.99822724
0.99822855
0.99814129
0.99811134
0.99805283
0.99837825
0.99802393
0.99801688
0.99798537
0.99806224
0.99816479
0.99824235
0.99827844
0.99829196
0.99831444
0.99832263
0.99832
0.99830212
0.99825915
0.99824416
0.99820005
0.99821105
0.99817477
0.99812874
0.99810151
0.99803941
0.9980458
0.99798439
0.99799013
0.99791159
0.99789057
0.99784092
0.99857915
0.99773774
0.99777648
0.99777853
0.9979224
0.99801538
0.9980695
0.99809718
0.99805341
0.99807764
0.99805059
0.99806553
0.99803479
0.99802599
0.99798273
0.997964
0.99792969
0.99791811
0.99788324
0.99786004
0.99780435
0.99781005
0.99775253
0.99775576
0.99769375
0.99767262
0.99761994
0.99901234
0.99773155
0.99754593
0.99764273
0.99775236
0.99785002
0.99788437
0.99787804
0.9978365
0.99784728
0.99782084
0.99781477
0.99777309
0.99774879
0.99771924
0.99769201
0.99769431
0.99767646
0.99765367
0.99760993
0.99757317
0.99755541
0.9975459
0.99751804
0.99747259
0.99743091
0.99739387
0.99935664
0.99769373
0.99733811
0.99738771
0.99745573
0.99757528
0.99757923
0.99761106
0.99758491
0.99757907
0.99758026
0.99755556
0.99753143
0.99747449
0.99747153
0.99744499
0.99745231
0.99742415
0.9974004
0.99734573
0.99733505
0.99732246
0.99733769
0.99728351
0.99724203
0.99719351
0.99717495
0.99894169
0.99764423
0.99705631
0.99700276
0.99695925
0.99709033
0.99711679
0.99724462
0.99728261
0.99729883
0.99733181
0.99726506
0.99729287
0.99720128
0.99723298
0.99719622
0.99720867
0.99716337
0.99715578
0.99710086
0.99708458
0.99708576
0.99710144
0.99703763
0.99700228
0.996968
0.99694681
0.9981289
0.99749962
0.99679771
0.99652091
0.99631468
0.99636105
0.99649644
0.99672593
0.99690045
0.99695973
0.99705296
0.99698275
0.99704614
0.99694205
0.99699978
0.99691625
0.99698423
0.99688977
0.99691754
0.99685927
0.99684813
0.99683164
0.99682234
0.99682638
0.99675123
0.99675197
0.99669698
0.99727715
0.99717708
0.99649124
0.9959904
0.9955956
0.99556594
0.99579309
0.99611067
0.99640105
0.99653124
0.99668912
0.99667565
0.996761
0.99665317
0.99672499
0.99660319
0.99671111
0.99662359
0.99665358
0.99661354
0.99657239
0.99660297
0.99652536
0.99660866
0.99650416
0.99653635
0.99646242
0.99646863
0.99668126
0.99610388
0.99552623
0.99506979
0.99502327
0.99523016
0.99555183
0.99592992
0.99608674
0.99630175
0.99630614
0.99641855
0.996354
0.99635789
0.99635948
0.99631875
0.99643435
0.99629719
0.99643051
0.99625103
0.99638749
0.9962578
0.9963602
0.9962816
0.99629613
0.99624257
0.99583996
0.99597673
0.99559235
0.99510476
0.99480904
0.99477726
0.99496526
0.99525333
0.99562661
0.99577024
0.99593928
0.99598103
0.99601951
0.99611378
0.99599489
0.99617024
0.99596566
0.99619012
0.99599918
0.99615074
0.99603718
0.99605318
0.99608689
0.99600996
0.99611093
0.99600535
0.99603646
0.99572957
0.99533755
0.99504645
0.99474338
0.9946581
0.99468918
0.9948895
0.99517399
0.99535155
0.99562391
0.99556927
0.99578388
0.9956663
0.99580608
0.99577274
0.99573889
0.99587466
0.99566138
0.99593949
0.99563222
0.99592134
0.99566416
0.99584752
0.99575545
0.99580159
0.99580332
0.99576736
0.99589442
0.995001
0.9946528
0.99452285
0.99453446
0.9946887
0.99490757
0.99505114
0.99529792
0.99530449
0.9954859
0.99543823
0.99549697
0.99548866
0.99546016
0.99556477
0.99545085
0.99563414
0.99541518
0.99562994
0.99541367
0.99561255
0.99547356
0.99558349
0.99553469
0.9955512
0.99553427
0.99584528
0.99481925
0.99442817
0.99434489
0.99444522
0.99468378
0.9948321
0.99505683
0.9950989
0.99520164
0.99522297
0.99525266
0.99526345
0.99522152
0.99529086
0.99520379
0.99538215
0.9952044
0.99538566
0.99519322
0.99534189
0.99526593
0.99533793
0.99533016
0.99530187
0.99531929
0.99529148
0.99565708
0.99475048
0.99417853
0.99416339
0.99431028
0.99451035
0.99482394
0.99482172
0.99500399
0.99496809
0.99499241
0.9950754
0.99494418
0.99510164
0.99493785
0.99511395
0.99501313
0.99508803
0.99505617
0.99503444
0.99507879
0.99505638
0.99512002
0.9950814
0.99509669
0.99506471
0.99508545
0.99541369
0.99456818
0.99401619
0.99374619
0.99404236
0.99418871
0.99453898
0.99465392
0.99462109
0.99484114
0.99462301
0.99487911
0.99467389
0.99476471
0.99481266
0.99467531
0.99497568
0.99464511
0.99498415
0.99466466
0.99493487
0.99478899
0.99488676
0.99487045
0.99482928
0.99487829
0.99486006
0.99508223
0.99437876
0.99360243
0.99340659
0.99333391
0.99387795
0.99402626
0.99427753
0.99440184
0.99429227
0.99458641
0.9943255
0.99459173
0.99437429
0.9944836
0.99457246
0.99442129
0.99474407
0.99432519
0.99474037
0.9943915
0.9947439
0.99457189
0.99465689
0.99461784
0.99460873
0.99468096
0.99471611
0.99403405
0.99322955
0.99283994
0.99290695
0.99336854
0.99363837
0.9938754
0.99404421
0.9940287
0.99421096
0.99422379
0.99415235
0.99429346
0.994129
0.99433744
0.99429096
0.99430784
0.99437775
0.99422004
0.99445246
0.9942899
0.99451642
0.99434862
0.99446107
0.99440543
0.99448958
0.99430042
0.99366772
0.99280975
0.99248856
0.9926852
0.99291474
0.99344573
0.99354841
0.99366211
0.99388678
0.99373401
0.99409013