/*--------------------------------*- C++ -*----------------------------------*\
| =========                 |                                                 |
| \\      /  F ield         | OpenFOAM: The Open Source CFD Toolbox           |
|  \\    /   O peration     | Version:  2406                                  |
|   \\  /    A nd           | Website:  www.openfoam.com                      |
|    \\/     M anipulation  |                                                 |
\*---------------------------------------------------------------------------*/
FoamFile
{
    version     2.0;
    format      ascii;
    arch        "LSB;label=32;scalar=64";
    class       volVectorField;
    location    "20";
    object      U;
}
// * * * * * * * * * * * * * * * * * * * * * * * * * * * * * * * * * * * * * //

dimensions      [0 1 -1 0 0 0 0];

internalField   nonuniform List<vector> 
96472
(
(0.085934942 -0.00041432908 3.7893556e-22)
(0.084887201 0.00023939049 -3.6849435e-21)
(0.09243505 -0.00080537298 -2.0465997e-21)
(0.095094926 -0.002246924 -3.8183367e-21)
(0.095968738 -0.0031108309 3.3155229e-21)
(0.094605321 -0.0035804729 9.9998515e-22)
(0.093193568 -0.0036899439 6.6346482e-22)
(0.092480789 -0.0032670047 4.2247745e-21)
(0.092155908 -0.0025812002 5.0210842e-21)
(0.092076765 -0.0018448862 -3.7217917e-21)
(0.092016056 -0.0011543729 -3.321699e-21)
(0.091606092 -0.00047704985 -3.3459781e-21)
(0.090786555 0.00020624821 -2.0309414e-21)
(0.089727664 0.00090595906 -1.6288829e-21)
(0.088618023 0.0015869434 2.5953828e-24)
(0.08760949 0.0021422184 -5.0726751e-24)
(0.086750082 0.0025526682 -1.3596868e-21)
(0.085796292 0.0028454161 -1.4749034e-21)
(0.08466221 0.0030766467 3.2704876e-22)
(0.083500963 0.0032020264 -6.1880734e-22)
(0.082261061 0.0032131287 -6.9439917e-23)
(0.080962544 0.0031407652 3.5953767e-22)
(0.07961977 0.0030040871 1.4281987e-22)
(0.07822164 0.0028492 -1.2368223e-21)
(0.076920658 0.0025777117 -1.2210115e-22)
(0.075595585 0.0023187992 1.3121038e-21)
(0.074491903 0.0020126665 -3.3887617e-22)
(0.073380227 0.0016130366 1.2157388e-22)
(0.072232365 0.0012820285 8.8033297e-22)
(0.071173441 0.00097455711 1.8943386e-22)
(0.070229281 0.00055964135 1.7126356e-23)
(0.069326874 0.00012502673 -3.7533531e-23)
(0.068488227 -0.00038915721 7.1534593e-23)
(0.067686074 -0.00092364437 5.4085191e-22)
(0.06699871 -0.0015979208 0)
(0.066362415 -0.0023758927 1.0868855e-22)
(0.065877014 -0.0033453875 -2.9772167e-22)
(0.065402499 -0.0044183963 2.2188696e-22)
(0.065157126 -0.0057038327 9.5628488e-23)
(0.064825782 -0.0070764069 2.8871872e-22)
(0.064888316 -0.0086452051 -1.8614442e-22)
(0.064738098 -0.010366608 8.752925e-22)
(0.065033346 -0.012158422 4.5537133e-22)
(0.064960064 -0.014011717 2.500512e-21)
(0.06560592 -0.016140898 6.5334441e-22)
(0.06565628 -0.018092073 -7.8941354e-22)
(0.066590786 -0.020244054 9.6390831e-22)
(0.067018322 -0.02238646 -6.323617e-22)
(0.068275546 -0.024545234 -1.0407303e-21)
(0.068928755 -0.026861478 -1.2401337e-22)
(0.070435003 -0.029007 6.9495358e-22)
(0.071292034 -0.031260979 1.3786679e-22)
(0.072879005 -0.033457212 -8.8119234e-22)
(0.074178756 -0.035421381 -2.8004253e-22)
(0.075612151 -0.038701284 -3.4490808e-22)
(0.086297477 -0.00039233487 4.1048543e-22)
(0.084876782 0.00030275427 -2.2006954e-21)
(0.092459682 -0.00077736148 0)
(0.095342967 -0.0021609775 -3.5546666e-21)
(0.096241078 -0.0030784668 -2.3928735e-21)
(0.094825081 -0.0035305703 7.9380813e-23)
(0.093363558 -0.0036223839 -2.2017463e-23)
(0.092572519 -0.0032023275 -4.4085556e-21)
(0.092219371 -0.0025150428 5.0690308e-21)
(0.0921351 -0.0018193855 0)
(0.09207953 -0.0011769416 2.0825121e-22)
(0.091683347 -0.00054425258 -4.4683679e-21)
(0.090877601 8.9080187e-05 -2.1707629e-21)
(0.089841001 0.00076990637 -2.7078788e-23)
(0.088761424 0.0014373627 3.0368934e-24)
(0.087774864 0.0019606863 -3.0883739e-21)
(0.086901618 0.0023887363 -7.8172085e-23)
(0.085978251 0.0027141304 -6.1300722e-23)
(0.084909815 0.0029047892 -1.41647e-21)
(0.083755706 0.0030326868 0)
(0.08254442 0.0030505531 -2.1803823e-21)
(0.081255562 0.0029859735 7.1461301e-22)
(0.079897263 0.0028766866 2.7741202e-23)
(0.078512386 0.0026893908 -1.5921682e-24)
(0.077167348 0.0025293044 5.1043783e-22)
(0.07591405 0.0021956576 1.4538456e-23)
(0.074778152 0.0018753644 4.843784e-23)
(0.07368649 0.0015809217 -3.4536739e-22)
(0.072611511 0.0012092286 -2.9434609e-22)
(0.0715859 0.0008501314 9.5840318e-23)
(0.070664764 0.00047204595 -1.8127247e-22)
(0.069811125 9.7978423e-05 -1.0480891e-22)
(0.069047285 -0.00035112903 -4.4065415e-22)
(0.068304182 -0.0008366612 8.6998276e-23)
(0.067669528 -0.0014400695 2.4863522e-22)
(0.067048851 -0.0021196679 -5.0879789e-22)
(0.066585828 -0.0029851338 -2.4672789e-22)
(0.066148678 -0.0039510781 1.9680218e-23)
(0.065917146 -0.0051025186 2.1880763e-22)
(0.065692534 -0.0063630965 1.2513856e-21)
(0.065737487 -0.0077765423 -2.8535405e-22)
(0.06569471 -0.0093019969 1.1727319e-23)
(0.066072953 -0.010976571 -1.5633653e-23)
(0.066166594 -0.012779997 -1.9533471e-22)
(0.066819023 -0.014550705 5.4085054e-22)
(0.067133667 -0.016619551 6.077768e-22)
(0.067922908 -0.018439337 -3.5380585e-22)
(0.068369336 -0.020548357 4.2034516e-24)
(0.069365797 -0.022466569 -6.4613759e-24)
(0.070151756 -0.024624792 1.2960793e-22)
(0.071180245 -0.026593318 -1.983931e-22)
(0.072409337 -0.028631753 -2.4359729e-24)
(0.073332341 -0.030856386 3.637277e-23)
(0.075133268 -0.032496303 1.4911457e-22)
(0.076019635 -0.035459892 5.5464361e-22)
(0.086573119 -0.00026879871 -1.5910635e-24)
(0.085286087 0.00031675594 0)
(0.092901475 -0.00077570529 -4.8203081e-21)
(0.095754386 -0.002128893 0)
(0.09659 -0.0030139376 -3.3145888e-21)
(0.095122514 -0.0034797549 -1.5702891e-24)
(0.093589801 -0.0035829344 1.4623279e-23)
(0.092721467 -0.0031627216 -1.406916e-23)
(0.092310914 -0.0024737488 -5.2003968e-21)
(0.092179326 -0.0018192018 -2.4896412e-21)
(0.092086694 -0.0012181912 1.4007927e-22)
(0.091666133 -0.00063621414 4.6173427e-21)
(0.090854247 -1.4094976e-05 2.0602608e-21)
(0.089823428 0.00064604914 5.8070689e-21)
(0.088774035 0.0013113946 8.4605695e-23)
(0.087819539 0.0018473706 1.3416857e-21)
(0.086967125 0.0022529715 1.1048882e-21)
(0.086072512 0.0025982568 -1.2937753e-21)
(0.085031191 0.0028381771 0)
(0.083883264 0.0029303112 1.1194651e-22)
(0.082670136 0.0029482866 -9.8013972e-24)
(0.081385534 0.0028958218 5.8886303e-24)
(0.080036841 0.0027469422 3.2383188e-23)
(0.078648561 0.002594186 -5.689713e-24)
(0.077319635 0.0023465776 -2.5895352e-23)
(0.076114538 0.0021090429 -9.3584451e-23)
(0.074996818 0.0017157077 2.6712641e-23)
(0.073931805 0.0014066644 2.9825505e-22)
(0.072923116 0.0010957902 -1.1761986e-22)
(0.07195188 0.00074508552 -3.044249e-23)
(0.071070781 0.0003488487 1.0826871e-25)
(0.070269234 -4.3067071e-05 1.4099408e-22)
(0.069566768 -0.00049908082 4.1650977e-23)
(0.06889841 -0.00098599631 -1.3068363e-22)
(0.068295228 -0.0015772607 1.7101859e-22)
(0.067735733 -0.0022563522 -3.7337578e-22)
(0.067296689 -0.0030678147 -4.2232744e-22)
(0.066912221 -0.0039998362 -4.1665758e-22)
(0.066691587 -0.0050713284 -1.8129739e-23)
(0.066519635 -0.006279182 2.0245794e-23)
(0.06655356 -0.0076039225 -3.5303647e-22)
(0.066636245 -0.0090884381 -1.2322981e-21)
(0.066929163 -0.010629309 0)
(0.0672545 -0.012308566 -7.8883586e-22)
(0.067822957 -0.014073384 -4.7724266e-22)
(0.068332245 -0.015772808 1.9647123e-22)
(0.069070296 -0.01765648 -1.4163885e-22)
(0.06989989 -0.019486563 -9.5357774e-25)
(0.070667554 -0.021415813 0)
(0.071764102 -0.023183638 -7.2395391e-25)
(0.07250799 -0.025246737 1.373116e-23)
(0.07397587 -0.026960167 1.9699078e-22)
(0.074687134 -0.029109402 5.3656972e-23)
(0.076330419 -0.030420585 8.7828217e-23)
(0.077066594 -0.033141338 4.4455775e-22)
(0.086876373 -0.00023441904 4.1060145e-22)
(0.085699427 0.00034966748 3.0900222e-22)
(0.093337801 -0.00077049115 -2.6554624e-24)
(0.096149758 -0.0020940608 5.8407233e-23)
(0.09691038 -0.002962688 -4.4348212e-23)
(0.09538416 -0.0034328145 6.7090633e-24)
(0.093773685 -0.0035391663 -6.1071498e-24)
(0.092826497 -0.0031075822 4.3299078e-21)
(0.092360908 -0.0024402604 3.2277833e-23)
(0.092189488 -0.0018099857 -2.5927487e-21)
(0.092071243 -0.0012520424 5.5511705e-24)
(0.091644077 -0.00070177116 5.2822686e-25)
(0.090841032 -0.00010954245 6.2140234e-21)
(0.089831568 0.00053301329 -1.9105359e-21)
(0.088808944 0.0011791585 7.8900071e-23)
(0.087888461 0.0017250017 9.4506542e-24)
(0.087055223 0.0021354143 -1.0629622e-21)
(0.086174279 0.0024535283 -8.1868254e-24)
(0.085163534 0.0027039488 1.9910618e-21)
(0.084041882 0.0028162268 0)
(0.082833734 0.0028384332 8.7236633e-22)
(0.081559572 0.0027807046 0)
(0.080219679 0.002658202 1.1640675e-21)
(0.078863275 0.0025097474 1.6149172e-21)
(0.077544258 0.0022450058 -8.7340042e-24)
(0.076360376 0.0019940572 -1.0224001e-21)
(0.075295679 0.0016805914 -4.1849174e-23)
(0.074252145 0.0013415542 -3.0731855e-23)
(0.073274376 0.0010134959 -5.9311598e-22)
(0.072356173 0.00070672123 3.0679848e-23)
(0.0715199 0.00033642137 -3.4944928e-24)
(0.070765332 -5.1203507e-05 -7.841013e-23)
(0.070099939 -0.00048279559 4.7457957e-23)
(0.069486851 -0.00092485459 4.0700176e-22)
(0.068938207 -0.0014717702 4.7551643e-23)
(0.068443108 -0.0020943719 -1.4966058e-23)
(0.068031124 -0.0028289995 -2.1420189e-22)
(0.067705775 -0.0036803654 -9.5430102e-22)
(0.067482491 -0.0046594418 4.1458775e-22)
(0.067376106 -0.0057590885 -8.4341811e-22)
(0.067363836 -0.006992846 2.2981633e-22)
(0.067491639 -0.0083285074 -1.4178389e-22)
(0.067708946 -0.0097911366 -2.1917912e-22)
(0.068121336 -0.011343681 5.2576501e-22)
(0.068488907 -0.012914491 -8.3224389e-22)
(0.069246273 -0.014667035 2.5971947e-22)
(0.069775782 -0.01643311 -7.3987947e-22)
(0.070731319 -0.018066626 9.0583736e-23)
(0.071374347 -0.019990787 1.0187226e-22)
(0.072655067 -0.021636764 1.2189371e-23)
(0.073406064 -0.023694218 2.5897864e-23)
(0.074843432 -0.025089982 1.6197833e-22)
(0.075537909 -0.027221208 -2.0923653e-22)
(0.077354259 -0.028557531 -1.9258746e-23)
(0.078077988 -0.031112127 3.0668164e-22)
(0.087088153 -0.00011656802 -7.0189829e-22)
(0.086066909 0.00040819548 0)
(0.093739071 -0.0007480761 8.910615e-21)
(0.096519136 -0.0020403383 2.9916913e-21)
(0.097206705 -0.0029025033 0)
(0.095617472 -0.0033864914 -5.5209874e-22)
(0.093923429 -0.0034908657 0)
(0.092897924 -0.0030516365 0)
(0.0923831 -0.0024085242 4.9717753e-21)
(0.092183653 -0.0018040474 -2.6355829e-21)
(0.092051854 -0.001283106 7.6988476e-23)
(0.091624056 -0.00076755133 6.3615856e-21)
(0.09082858 -0.00020731407 -2.0161501e-21)
(0.089836039 0.00042152585 -5.6924661e-21)
(0.08883477 0.0010523117 -3.2256087e-21)
(0.087939939 0.0015869717 -1.4941379e-21)
(0.087128049 0.0020114929 2.5234456e-21)
(0.086271593 0.0023513679 2.4950396e-21)
(0.08528178 0.0025610936 -8.0837122e-22)
(0.084179106 0.0026785463 1.217189e-22)
(0.082988122 0.0027033095 -1.0577648e-21)
(0.081723819 0.0026343925 -8.1722835e-23)
(0.080394727 0.0025266575 -3.4721584e-23)
(0.079051673 0.002333153 2.6193332e-23)
(0.077756809 0.0021637021 2.9518534e-23)
(0.076580742 0.0018421689 2.3257204e-23)
(0.07553644 0.0015596789 -7.3080963e-22)
(0.074544821 0.0012593112 7.291649e-24)
(0.073597923 0.00092091119 -7.4839646e-23)
(0.072712884 0.00059510979 0)
(0.071924795 0.00025039646 3.5048e-23)
(0.071221252 -0.00013572449 -3.311753e-24)
(0.070595087 -0.00053987692 -2.4114486e-22)
(0.070043784 -0.0009881491 5.0735269e-23)
(0.069531353 -0.0014988014 6.6073632e-23)
(0.069096573 -0.0020963268 -1.8817456e-22)
(0.068715571 -0.0027836761 2.4121887e-22)
(0.068460846 -0.0035896427 2.2845558e-22)
(0.068254227 -0.0045015114 3.4603111e-23)
(0.06820965 -0.0055315251 7.7716272e-22)
(0.068215644 -0.0066827622 3.023644e-22)
(0.068431266 -0.0079283107 5.3511192e-22)
(0.06862116 -0.0093001556 -9.1383704e-23)
(0.069085642 -0.010657182 4.8519197e-22)
(0.069482238 -0.012289272 1.0019018e-22)
(0.070237155 -0.013711131 -7.2975533e-22)
(0.070650035 -0.015356559 2.3952474e-23)
(0.071722918 -0.016939244 -7.9352563e-22)
(0.072296779 -0.01872579 -6.1413462e-24)
(0.073527599 -0.020193665 -2.6736119e-22)
(0.074148387 -0.021996346 -6.0186773e-24)
(0.075657642 -0.023480384 6.4163981e-22)
(0.076463921 -0.025442044 -1.5321672e-22)
(0.078052832 -0.026723167 -5.2114195e-23)
(0.078835249 -0.028860431 -2.2228017e-23)
(0.087357197 -6.2004919e-05 0)
(0.086518821 0.00044373227 -2.0812723e-22)
(0.094204414 -0.00075649331 -4.1088946e-21)
(0.096928212 -0.0020158459 -5.2876528e-23)
(0.097518213 -0.0028584059 4.7152206e-23)
(0.095845641 -0.0033387223 -4.2352332e-22)
(0.094055599 -0.0034333125 0)
(0.09295029 -0.0030007055 4.6149818e-21)
(0.09239114 -0.0023656384 -4.9029198e-21)
(0.092167869 -0.0017989985 -1.6449787e-23)
(0.092025265 -0.0013151013 -2.7872453e-22)
(0.091600963 -0.00083232394 4.6037134e-21)
(0.090815092 -0.00028681266 -3.9177282e-21)
(0.089833828 0.00032000145 3.8693741e-21)
(0.088854216 0.00093328675 -1.0515414e-23)
(0.087981942 0.001456359 3.9180689e-21)
(0.087179327 0.001862538 1.1489611e-21)
(0.086349159 0.0022207995 -9.6526799e-22)
(0.085393597 0.0024569086 1.2618587e-22)
(0.084310479 0.0025550226 7.1474156e-23)
(0.083133284 0.002575113 -1.0711375e-23)
(0.0818785 0.0025367155 -7.998375e-23)
(0.080569111 0.0024289831 -5.0647684e-22)
(0.079230612 0.0022567011 -2.6589215e-25)
(0.077955812 0.0020627186 -2.9155587e-23)
(0.07681439 0.0018055108 2.336311e-23)
(0.075777547 0.001473986 3.9644252e-22)
(0.074813772 0.0011848655 -2.600055e-22)
(0.073913474 0.00089101966 3.8212008e-23)
(0.073061903 0.00056939161 -2.9919115e-23)
(0.07230138 0.00023431625 -7.9449096e-24)
(0.071635793 -0.00012743296 2.9062003e-24)
(0.071048198 -0.00050260022 -3.8183499e-24)
(0.070543334 -0.00093982361 5.9195143e-23)
(0.070084066 -0.0014117341 3.8841141e-22)
(0.06970073 -0.0019604693 1.8142027e-23)
(0.069359965 -0.0025936572 -2.8295883e-22)
(0.069138257 -0.0033207937 5.7017753e-22)
(0.068966412 -0.0041574538 -4.8434428e-22)
(0.068951188 -0.0051051399 4.7012278e-22)
(0.068968997 -0.0061566868 2.8511535e-22)
(0.06919123 -0.007307669 0)
(0.069393494 -0.0085515011 -7.0641949e-22)
(0.069914135 -0.0098972297 1.1371774e-23)
(0.070229166 -0.011290695 7.2322117e-22)
(0.071003653 -0.012640754 -2.006732e-22)
(0.071527352 -0.014371757 2.8665523e-22)
(0.07249991 -0.015666008 1.7612201e-22)
(0.073046782 -0.017302947 5.5846853e-23)
(0.074230364 -0.018741063 0)
(0.075017771 -0.020540539 2.1569167e-22)
(0.076323686 -0.0218272 1.336533e-21)
(0.077091296 -0.023598999 -7.6313196e-23)
(0.07861872 -0.024688586 -3.379426e-23)
(0.079422959 -0.026928199 7.0994717e-22)
(0.087662136 4.9038548e-05 0)
(0.087075065 0.00053348561 2.0769771e-21)
(0.094737266 -0.00072140647 -1.0184002e-23)
(0.097356565 -0.0019604721 4.697712e-23)
(0.097823462 -0.0027934832 5.437834e-23)
(0.096057087 -0.0032853946 -7.699743e-24)
(0.094167032 -0.0033810411 1.6369246e-24)
(0.092982884 -0.002950846 5.4910066e-23)
(0.092384408 -0.0023206799 1.2058965e-22)
(0.092147253 -0.0017865493 -1.3251059e-22)
(0.091998763 -0.0013442029 -6.6547193e-23)
(0.091577168 -0.00090043859 -6.4928655e-21)
(0.090798181 -0.00037027066 2.0567142e-21)
(0.089827369 0.00021783133 5.7466686e-21)
(0.088863527 0.00081350225 7.1032733e-24)
(0.088011936 0.0013394998 1.3908642e-21)
(0.087223263 0.0017381513 -2.2296956e-21)
(0.086408527 0.0020729652 -2.4582942e-21)
(0.085486353 0.0023376276 -5.7092981e-23)
(0.084435549 0.0024450606 -9.179911e-22)
(0.083271126 0.0024644007 1.3937195e-24)
(0.082032289 0.0024327628 -7.1594147e-22)
(0.080738755 0.0023090501 -5.6334399e-23)
(0.07942273 0.0021830931 2.9310098e-22)
(0.0781532 0.0019264129 3.2678281e-23)
(0.07702995 0.0017037215 -7.2311879e-22)
(0.076024985 0.0014063851 -2.5150676e-24)
(0.075071747 0.0011041439 -1.9360995e-23)
(0.074197457 0.00081121149 1.5493917e-23)
(0.073389596 0.0005210126 5.4996548e-23)
(0.072664944 0.00019647948 -1.027623e-23)
(0.072035518 -0.00015636736 -6.0952978e-23)
(0.071489892 -0.00052690591 3.660949e-24)
(0.071032199 -0.00095305641 -4.177409e-24)
(0.070605742 -0.0013889157 1.4341925e-22)
(0.070264839 -0.0019132886 3.0273806e-22)
(0.069964819 -0.0025042434 -7.9855823e-23)
(0.069782681 -0.0031728888 1.0307042e-22)
(0.069644847 -0.0039592798 -4.4318321e-22)
(0.069649334 -0.0048186334 -1.0744931e-24)
(0.06970903 -0.005806454 3.5426931e-22)
(0.069943597 -0.0068553623 2.1983945e-22)
(0.07019609 -0.0080473708 -1.3314069e-22)
(0.070653019 -0.009212036 -7.4303844e-22)
(0.071063969 -0.010558719 3.7969363e-22)
(0.07188659 -0.011903927 -5.2858486e-23)
(0.072286022 -0.013271184 5.4610464e-22)
(0.07324414 -0.014523502 -4.4412898e-22)
(0.073941053 -0.016230784 9.5093465e-23)
(0.075079057 -0.0174559 4.7082603e-22)
(0.075683984 -0.0190426 1.2474626e-21)
(0.077021317 -0.020137014 3.8346794e-23)
(0.077792992 -0.022016297 1.0230275e-21)
(0.079314433 -0.022955794 -1.203414e-21)
(0.080099238 -0.025018526 1.8343668e-22)
(0.088526616 0.00014919598 -4.1045579e-22)
(0.087872855 0.00059189084 1.5882668e-21)
(0.095365406 -0.00076110989 3.8957875e-21)
(0.097765114 -0.0019663544 2.2348906e-21)
(0.098090902 -0.0027712966 1.5587672e-21)
(0.096241566 -0.0032509861 3.0126499e-22)
(0.094259446 -0.0033416211 2.1813074e-21)
(0.093000439 -0.0028927357 -4.3617864e-21)
(0.092366769 -0.0022826514 1.0700165e-22)
(0.09212022 -0.0017728801 2.3451826e-21)
(0.091971476 -0.0013654086 -2.3959384e-21)
(0.091552821 -0.00094755167 -4.138878e-21)
(0.09077855 -0.00045391377 3.861827e-21)
(0.089818745 0.00011922809 8.0922041e-23)
(0.088864506 0.00069280496 7.6431402e-23)
(0.088027913 0.0012134897 -1.3125522e-22)
(0.087258448 0.0016191516 0)
(0.086458422 0.0019549948 9.624778e-22)
(0.085562308 0.0021911098 -1.628548e-21)
(0.084545538 0.0023096335 6.7528031e-23)
(0.083402834 0.0023437902 -2.063837e-24)
(0.082182817 0.0022918359 -9.0325701e-23)
(0.080900971 0.0022055394 -5.0067205e-23)
(0.079607062 0.0020505477 -2.0721824e-21)
(0.078357406 0.0018734593 1.5730398e-23)
(0.077234509 0.0015936251 4.4224294e-22)
(0.076250152 0.0013456636 -5.1546277e-22)
(0.075331216 0.0010802673 5.8567541e-24)
(0.074477691 0.00078051645 1.6864978e-23)
(0.073694616 0.00049630725 -1.8953599e-22)
(0.073002824 0.00019018083 2.4162717e-24)
(0.072405333 -0.0001428387 3.4199161e-23)
(0.071891078 -0.00050315509 -3.2660975e-23)
(0.07146074 -0.00088195055 3.6739471e-24)
(0.071079641 -0.0012965433 -7.2502791e-23)
(0.070779213 -0.0017820914 5.6885733e-24)
(0.070511313 -0.002315388 -2.8969843e-22)
(0.07035197 -0.0029485672 1.8781208e-22)
(0.070250804 -0.0036370538 -1.4017367e-22)
(0.07027365 -0.0044466064 -4.0506798e-22)
(0.070351678 -0.0053228851 2.246942e-22)
(0.070599131 -0.0062983136 1.5312817e-22)
(0.070849466 -0.0073626966 1.0833926e-21)
(0.071345609 -0.0084764702 -1.8444499e-22)
(0.071752296 -0.0097435663 -2.265996e-22)
(0.072446008 -0.010837996 3.0939876e-24)
(0.072980245 -0.01223227 2.6710934e-22)
(0.074018472 -0.013566963 -2.8155003e-24)
(0.074564227 -0.014883342 -5.3578832e-22)
(0.075616971 -0.016033792 -2.6609001e-23)
(0.076359372 -0.017549725 1.3529943e-21)
(0.077701464 -0.018892049 3.0399941e-22)
(0.078442143 -0.020250286 6.4244358e-22)
(0.079770015 -0.02124126 1.0706156e-22)
(0.080608218 -0.023052456 -3.8792796e-23)
(0.089927483 0.00021748968 -4.1100171e-22)
(0.088243096 0.00067287453 -1.7162237e-21)
(0.095629835 -0.00075226146 -3.7041606e-21)
(0.097998937 -0.0019227067 -4.5499789e-21)
(0.098297673 -0.0027133239 6.3422349e-23)
(0.096404474 -0.0031812434 1.925909e-22)
(0.094343125 -0.003268458 1.3522651e-24)
(0.093011982 -0.0028237827 5.9037819e-23)
(0.092346062 -0.0022317149 -4.6165756e-21)
(0.092092142 -0.0017527782 2.3039433e-21)
(0.091943124 -0.0013770025 -6.5440514e-21)
(0.091528292 -0.00098340012 -1.7337185e-22)
(0.090758841 -0.00051978147 -5.3467511e-23)
(0.08980401 2.4527619e-05 -5.4332081e-21)
(0.088859434 0.00057642567 -3.234382e-21)
(0.088034111 0.0010848128 0)
(0.087280484 0.0014812358 0)
(0.086500353 0.0018338904 0)
(0.085633659 0.0020653431 6.7745267e-22)
(0.084643808 0.0021708834 1.085834e-21)
(0.083529753 0.0022024772 1.0528754e-21)
(0.082325509 0.0021548445 4.7348819e-22)
(0.081065527 0.0020984 -4.3869847e-22)
(0.079780422 0.0019184315 -2.7076038e-24)
(0.078550069 0.001774496 -6.2315687e-22)
(0.077447862 0.001519543 -1.3712693e-22)
(0.076460463 0.0012548317 4.2603208e-22)
(0.075566194 0.00099912276 5.3221697e-24)
(0.074743904 0.00074285684 -1.2426119e-22)
(0.073985387 0.00045898773 9.7058204e-24)
(0.073317596 0.00017182895 5.2814578e-23)
(0.072750389 -0.00014782528 -9.9659298e-24)
(0.072264263 -0.00048922883 -3.5929171e-23)
(0.07186675 -0.00084745739 -1.283401e-23)
(0.071523119 -0.0012433796 -6.9415637e-23)
(0.071251182 -0.001686651 -3.3938274e-23)
(0.071029866 -0.0021845365 1.2819071e-22)
(0.07089698 -0.0027505183 -3.0346814e-22)
(0.070829159 -0.0034271878 4.1146967e-22)
(0.070871517 -0.0041347126 -6.1028073e-22)
(0.070976531 -0.0049637064 -1.7545704e-22)
(0.071233802 -0.0058562727 2.475083e-22)
(0.071526504 -0.0068333618 1.1868729e-23)
(0.071987363 -0.0078477293 2.3605084e-23)
(0.072405129 -0.0089678342 1.2618013e-22)
(0.073167199 -0.010077415 1.6474107e-22)
(0.073705127 -0.011405842 -2.5778197e-22)
(0.074545162 -0.012363045 -1.3271226e-23)
(0.075198006 -0.013698083 1.9309735e-22)
(0.07631452 -0.014918177 -4.0629662e-23)
(0.077097721 -0.016397854 -3.2292745e-23)
(0.078169993 -0.017166728 7.4451566e-22)
(0.07887275 -0.018642555 4.3588344e-22)
(0.080379262 -0.01967507 2.422261e-22)
(0.081156331 -0.021359958 1.7248142e-22)
(0.091647651 0.00024902791 -1.2261541e-21)
(0.088542148 0.00051908111 -1.6974638e-21)
(0.095817589 -0.00082528967 3.4687898e-21)
(0.098179969 -0.0019320563 -2.0097952e-21)
(0.098473286 -0.0026865437 -1.227358e-21)
(0.096550064 -0.0031342632 -1.7413415e-22)
(0.094421944 -0.0032020169 -4.089568e-24)
(0.093024424 -0.002767121 -4.3654036e-21)
(0.092328199 -0.0021802473 4.8337907e-21)
(0.092068047 -0.0017405725 7.2979231e-23)
(0.09191649 -0.0013883551 2.1683024e-21)
(0.09150448 -0.0010267303 -2.318762e-21)
(0.090739659 -0.00057688213 -5.700554e-21)
(0.089788928 -5.52265e-05 -1.6324734e-21)
(0.088850276 0.00047100289 -4.8917852e-21)
(0.088034856 0.0009642213 -1.6654182e-21)
(0.087291423 0.0013483968 -1.2626985e-21)
(0.086524274 0.001687368 -1.2466303e-21)
(0.085692197 0.0019443466 -8.8023e-22)
(0.08473867 0.00205854 1.0212338e-21)
(0.083647004 0.0020733867 0)
(0.082458767 0.0020694548 1.0064661e-22)
(0.081224758 0.0019810215 -8.2259585e-22)
(0.079961423 0.00186559 -4.4392898e-23)
(0.07873388 0.0016592117 -3.1687668e-24)
(0.077648066 0.0014661033 -8.1635242e-23)
(0.076681457 0.0012116198 4.717441e-24)
(0.075793364 0.00094881956 -6.750017e-23)
(0.074988948 0.00071253056 1.107914e-22)
(0.074258691 0.00045191739 9.4223768e-23)
(0.073613878 0.0001801045 -4.9746777e-24)
(0.073069595 -0.00012488911 1.0222438e-22)
(0.0726062 -0.00044591261 -5.5352563e-23)
(0.072231296 -0.0007936907 1.7964884e-23)
(0.071920605 -0.0011633508 8.9243633e-23)
(0.071677107 -0.0015703885 -3.4149196e-22)
(0.071479196 -0.0020228783 -1.5786892e-22)
(0.071391832 -0.0025503439 -8.5886515e-23)
(0.071341044 -0.0031287433 4.4905291e-22)
(0.071397775 -0.0037927291 2.1740663e-22)
(0.071533227 -0.0045441918 -1.3738724e-22)
(0.071786906 -0.0053262195 1.3110185e-23)
(0.072080833 -0.0062419825 -1.3057137e-22)
(0.072563975 -0.0071550494 -1.2449667e-22)
(0.073006151 -0.0082243496 -1.9641283e-22)
(0.073699505 -0.009186507 2.4811771e-22)
(0.074196916 -0.010321854 1.6820578e-23)
(0.075140383 -0.011349645 2.4743884e-22)
(0.075837428 -0.012731037 1.1293659e-22)
(0.076853768 -0.013648471 -5.7261155e-22)
(0.077398208 -0.014769957 -8.632542e-22)
(0.078679689 -0.015839483 -8.0413637e-22)
(0.079592508 -0.017347179 -1.005092e-21)
(0.080745352 -0.018051836 -4.7183162e-22)
(0.081521646 -0.019540598 9.7479265e-22)
(0.091375113 0.00017085257 -8.2693432e-22)
(0.088680029 0.00045284989 2.8635357e-21)
(0.096013486 -0.00082214403 3.3833601e-21)
(0.098369048 -0.0018744841 1.8720092e-21)
(0.098646464 -0.0026089369 6.6034589e-23)
(0.09669287 -0.0030395655 1.0215201e-22)
(0.094497487 -0.003118607 -1.0823095e-22)
(0.093033011 -0.0026924256 -3.9764237e-21)
(0.092308425 -0.0021227702 9.131231e-21)
(0.092042905 -0.0017042438 2.0552329e-21)
(0.091888258 -0.0013896851 4.430244e-21)
(0.09147963 -0.0010583495 -1.9588605e-21)
(0.090715303 -0.00063881859 -1.9901178e-21)
(0.089770169 -0.00013587812 7.2180316e-23)
(0.08883667 0.00036457517 6.3612775e-21)
(0.088027213 0.0008416217 -1.4192421e-22)
(0.087296575 0.0012271559 -2.7557912e-24)
(0.086541366 0.0015504895 -1.0087365e-21)
(0.085733932 0.0017968904 -1.2458803e-21)
(0.084820182 0.001923486 -6.2880241e-23)
(0.083752035 0.0019561439 9.1604577e-22)
(0.082588878 0.0019360232 9.7404363e-23)
(0.08137181 0.0018475583 4.501209e-22)
(0.080134007 0.0017480708 -3.6071785e-23)
(0.078923861 0.0015694773 -5.4131281e-23)
(0.077835258 0.0013495023 0)
(0.076886016 0.00113415 -5.9434805e-22)
(0.076013128 0.00091158198 5.8383282e-23)
(0.075222804 0.00066988597 2.7502442e-23)
(0.074510305 0.00043136119 1.5446626e-25)
(0.073887584 0.00017150555 -5.8612152e-23)
(0.073364095 -0.00011345526 1.7984948e-23)
(0.072922944 -0.0004142322 -5.2310971e-23)
(0.072574831 -0.00074197178 8.4687335e-23)
(0.072287965 -0.0010807841 3.8922966e-22)
(0.072074879 -0.0014621695 -1.5465673e-25)
(0.071920333 -0.0018831217 -1.5335233e-22)
(0.071832996 -0.0023549875 -3.1228127e-22)
(0.071826916 -0.0028932376 2.8844263e-23)
(0.071914665 -0.0035063484 1.5259839e-22)
(0.072046031 -0.0041613402 2.189883e-22)
(0.072332245 -0.0049275718 -2.9688511e-22)
(0.07265331 -0.0057283679 0)
(0.073101962 -0.0065729504 -2.9466085e-22)
(0.073543784 -0.0074964155 -3.2096188e-22)
(0.074238796 -0.0084159337 -2.8378453e-22)
(0.074807731 -0.009497706 3.2330201e-22)
(0.075683139 -0.010484546 1.3726077e-22)
(0.076282477 -0.011471794 1.3596781e-22)
(0.077196067 -0.01238594 4.2840958e-22)
(0.078112372 -0.013714439 -7.4269114e-22)
(0.079207674 -0.014725573 1.1123608e-21)
(0.079831233 -0.01561948 0)
(0.081126107 -0.01654017 -2.8364353e-22)
(0.081941284 -0.017847493 -2.7533705e-22)
(0.092051509 0.00022068149 1.0559027e-21)
(0.088838474 0.00028030366 -1.7910526e-22)
(0.096159195 -0.0008920591 -6.6075694e-21)
(0.09851598 -0.0018673441 -1.8230069e-21)
(0.098789646 -0.0025781955 1.3692273e-21)
(0.096816778 -0.0029786007 9.612753e-22)
(0.094565984 -0.0030517325 -1.8576479e-21)
(0.093041548 -0.0026183408 3.7591086e-21)
(0.0922904 -0.0020624405 -6.9780495e-23)
(0.092022128 -0.0016628214 4.4010509e-21)
(0.09186731 -0.001385804 -1.9170389e-21)
(0.091459711 -0.0010661606 -3.5304331e-25)
(0.090695972 -0.00068071119 1.742217e-21)
(0.089752489 -0.00021025888 1.6652419e-21)
(0.088819686 0.00027279141 7.7866595e-21)
(0.088011499 0.00073101018 1.4205545e-21)
(0.087288798 0.001104106 1.4413888e-21)
(0.086551579 0.0014334869 1.1699653e-21)
(0.085770183 0.0016670168 -9.7107811e-23)
(0.084887152 0.0017761948 -1.6750201e-21)
(0.083855502 0.0018296135 1.3696183e-23)
(0.082718086 0.0017777083 -8.7823097e-22)
(0.081521592 0.0017563635 7.9965332e-25)
(0.080298896 0.0016101543 -6.8883084e-22)
(0.079109829 0.0014981172 0)
(0.078031138 0.0012755322 1.1644069e-23)
(0.077076661 0.0010675464 -1.2753738e-24)
(0.07621943 0.00086704135 7.9244985e-24)
(0.075447335 0.00064883084 -1.2230938e-22)
(0.074749778 0.00042492881 5.2504718e-23)
(0.074143805 0.00018134876 5.4716432e-23)
(0.073637222 -8.5297959e-05 1.8659509e-23)
(0.073213515 -0.00036919266 8.3332964e-23)
(0.072878114 -0.00066995249 5.4514082e-23)
(0.07262361 -0.00098157755 -1.5879525e-22)
(0.072435521 -0.0013364978 -6.4567974e-23)
(0.072292109 -0.0017105176 1.7215706e-23)
(0.072251228 -0.0021343399 -1.5891621e-22)
(0.072258169 -0.002644006 -2.1168345e-22)
(0.072349248 -0.0031513375 7.4413802e-23)
(0.072531459 -0.0038014862 2.2931715e-22)
(0.072796754 -0.004438169 9.415968e-23)
(0.073112632 -0.0051648347 7.8207252e-24)
(0.073579542 -0.0059250426 1.5364039e-22)
(0.074046741 -0.0068219739 7.980212e-23)
(0.074707962 -0.0075999408 -1.7252044e-22)
(0.075258268 -0.008613019 5.1913208e-23)
(0.076055046 -0.0093648689 0)
(0.076748217 -0.010490819 -2.2246241e-22)
(0.077788554 -0.011395348 1.0137019e-25)
(0.078451246 -0.012576308 2.6146462e-21)
(0.079398071 -0.012970488 1.4871411e-22)
(0.080315052 -0.014470189 2.9366489e-22)
(0.081454176 -0.015051488 4.2721001e-22)
(0.082233065 -0.016407087 1.1804861e-21)
(0.090233279 0.00012819896 4.1476884e-22)
(0.088746863 0.00020892249 1.8136764e-21)
(0.096279319 -0.00089450917 -9.2518829e-23)
(0.09866232 -0.0017866648 8.3857425e-23)
(0.098930095 -0.0024691463 -1.398511e-21)
(0.096940532 -0.0028611037 3.0215728e-22)
(0.094633367 -0.0029325824 6.7477087e-23)
(0.093047495 -0.0025217586 3.9336347e-21)
(0.09227076 -0.0019778953 -4.2724069e-21)
(0.092000525 -0.0016191268 -2.0009761e-21)
(0.091841839 -0.001370661 2.3329868e-21)
(0.091434813 -0.0010749163 1.9702119e-21)
(0.090675093 -0.00071889199 -1.8410696e-21)
(0.089730236 -0.00027832965 -7.0721141e-23)
(0.088797633 0.00017368018 1.5592603e-23)
(0.087991881 0.00061495116 1.4245633e-22)
(0.087272299 0.00097401348 0)
(0.086549401 0.0012981758 1.399292e-21)
(0.08579704 0.0015433194 2.8052975e-21)
(0.084945086 0.0016549517 1.0514837e-21)
(0.083944601 0.001680332 -1.0900784e-21)
(0.08282358 0.0016623614 1.0800273e-22)
(0.081656045 0.0016262987 -2.0846952e-24)
(0.080458738 0.0015079859 -3.874908e-23)
(0.079278729 0.0013668444 -3.9608336e-23)
(0.078218502 0.0011921471 0)
(0.077270541 0.00099747768 8.0224105e-23)
(0.076417131 0.00079119354 1.5261599e-24)
(0.075654726 0.0006014917 5.1073511e-22)
(0.074972945 0.00039496961 1.7468146e-22)
(0.074382403 0.00017420571 -8.2821584e-23)
(0.073890835 -7.0745516e-05 2.8748326e-24)
(0.073483698 -0.00033891879 1.6766673e-23)
(0.07316474 -0.00061584322 -5.9047571e-26)
(0.072927047 -0.00091736234 9.5566172e-23)
(0.072761316 -0.0012290484 -1.8189155e-23)
(0.072650391 -0.0015772918 -2.9668755e-22)
(0.072624606 -0.0019769014 9.2017877e-24)
(0.072655886 -0.0023991897 1.1821412e-22)
(0.072782744 -0.0029195128 0)
(0.072952269 -0.0034385998 -4.3195674e-22)
(0.073236322 -0.0040239415 4.3770198e-23)
(0.073585101 -0.0047225975 -2.281244e-22)
(0.074040502 -0.0053943944 1.5114725e-22)
(0.074475867 -0.0061416427 5.1845288e-23)