/*--------------------------------*- C++ -*----------------------------------*\
| =========                 |                                                 |
| \\      /  F ield         | OpenFOAM: The Open Source CFD Toolbox           |
|  \\    /   O peration     | Version:  2406                                  |
|   \\  /    A nd           | Website:  www.openfoam.com                      |
|    \\/     M anipulation  |                                                 |
\*---------------------------------------------------------------------------*/
FoamFile
{
    version     2.0;
    format      ascii;
    arch        "LSB;label=32;scalar=64";
    class       volVectorField;
    location    "20";
    object      U_0;
}
// * * * * * * * * * * * * * * * * * * * * * * * * * * * * * * * * * * * * * //

dimensions      [0 1 -1 0 0 0 0];

internalField   nonuniform List<vector> 
62344
(
(0.10829129 0.00038836157 -1.7211224e-21)
(0.10331941 -0.00045607516 -8.9256069e-22)
(0.11162189 0.0022138553 -1.8529865e-21)
(0.11193224 0.0054487507 9.6906106e-22)
(0.11036788 0.007133094 0)
(0.11077657 0.0068296516 4.1735355e-21)
(0.11209883 0.0044299769 -4.3451047e-21)
(0.11231081 0.0043508486 2.2621061e-21)
(0.10753618 0.0037087562 0)
(0.10066516 0.0066691805 0)
(0.096652629 0.010668308 1.0215456e-20)
(0.094491995 0.004776951 -2.1833676e-20)
(0.093252574 0.0028521558 7.1745039e-22)
(0.088897659 0.0050736087 2.3702103e-20)
(0.080112718 0.0072583369 -1.1926688e-20)
(0.071903082 0.011527445 1.1719122e-20)
(0.068997265 0.0075266305 -1.3002903e-20)
(0.067077492 0.010025622 0)
(0.063292555 0.017539925 0)
(0.062647229 0.0095598154 -9.1139836e-22)
(0.065687541 0.0032449576 -4.7252955e-22)
(0.065745979 0.0088470604 4.8995328e-22)
(0.059121305 0.017966395 1.0305242e-21)
(0.057002231 0.018562594 -3.3777846e-20)
(0.066492024 0.0075726389 3.5663075e-20)
(0.072221287 0.0019773757 0)
(0.065479775 0.0045863324 0)
(0.056872697 0.0099681276 -3.1175396e-22)
(0.049871952 0.01825024 -4.1739073e-20)
(0.046999001 0.021135531 4.3321522e-20)
(0.057702137 0.0078635072 4.4350988e-20)
(0.072581972 -0.015164641 -4.6737329e-20)
(0.068476897 -0.020025021 -3.7112937e-22)
(0.040845369 0.0013564095 5.1636608e-20)
(0.010841362 0.030848663 -5.1377288e-20)
(0.0063027911 0.035455759 -4.2579353e-22)
(0.037940971 0.0052863546 -5.4732039e-20)
(0.080300875 -0.035756934 1.1521397e-19)
(0.09823782 -0.046823146 -1.1711703e-19)
(0.086512543 -0.0241978 -2.9329824e-21)
(0.055805414 0.011087453 -4.1824042e-21)
(0.02661475 0.037150819 1.330839e-19)
(0.022030725 0.03463562 -6.9417994e-20)
(0.052873287 0.0044475081 0)
(0.10140499 -0.035144416 -7.0049423e-20)
(0.13627275 -0.068365371 1.4800723e-19)
(0.1361995 -0.081974318 1.4305046e-21)
(0.1100484 -0.079971271 -1.5755644e-19)
(0.071978313 -0.06694892 8.2753821e-20)
(0.045658821 -0.048190544 0)
(0.046219121 -0.03105564 0)
(0.072239663 -0.019509295 9.361598e-20)
(0.099631304 -0.010318884 -1.0086238e-19)
(0.11585269 0.0015658344 -1.9821709e-22)
(0.089720127 0.014462341 -1.0411114e-19)
(0.10849477 0.00061602569 -9.0760182e-22)
(0.10333128 0.00076201874 9.4333072e-22)
(0.11109238 0.00077913046 2.9351122e-21)
(0.11133633 0.0033181177 -3.0681941e-21)
(0.10999239 0.0062658651 0)
(0.11094948 0.0074209658 4.4240919e-21)
(0.11248769 0.0072707777 -5.7331293e-21)
(0.11243235 0.0055642752 -5.9534422e-21)
(0.10799796 0.0069259138 6.2033529e-21)
(0.10055993 0.0050865456 0)
(0.096829511 0.0087415321 0)
(0.096121657 0.0063634739 7.0278742e-22)
(0.093953015 0.0020673543 -7.2812862e-22)
(0.089019897 0.0037097399 1.0675943e-20)
(0.080516403 0.0041955036 -1.259811e-20)
(0.072830773 0.0037967965 0)
(0.070084766 0.0049809875 0)
(0.065767829 0.0088280046 0)
(0.06321427 0.015051863 1.475345e-20)
(0.066093245 0.0096475368 3.9077756e-22)
(0.067103045 0.0034869331 2.4821486e-23)
(0.063411276 0.0065291859 -5.0639062e-20)
(0.056703973 0.014691262 3.4099037e-20)
(0.057132786 0.016270541 0)
(0.066952848 0.0098448336 3.7069136e-20)
(0.072012053 0.0085859913 9.9900401e-24)
(0.066224504 0.010400898 -8.0608227e-20)
(0.056846994 0.011105064 4.2232809e-20)
(0.048884756 0.015448669 -3.4460779e-22)
(0.047587116 0.015887481 -4.5418071e-20)
(0.060710582 0.0046795539 4.7717551e-20)
(0.075178442 -0.0099650043 3.8000998e-22)
(0.067772011 -0.0091875789 -5.1241368e-20)
(0.039446312 0.0059453481 1.0641191e-19)
(0.010556416 0.020599607 -5.4897145e-20)
(0.0067808657 0.015960339 4.5640011e-22)
(0.032310298 -0.004053087 0)
(0.064732602 -0.016833518 0)
(0.076045644 -0.0083609331 2.4742466e-22)
(0.066277258 0.014509206 6.6992203e-20)
(0.048652186 0.031620059 -1.3771218e-19)
(0.03495449 0.025232838 7.1096798e-20)
(0.032921337 -0.00011853263 7.2092647e-20)
(0.049277642 -0.028698354 -1.4899186e-19)
(0.08432826 -0.04902961 7.8973218e-20)
(0.12107301 -0.055966971 0)
(0.13714381 -0.052197822 0)
(0.12334457 -0.040841554 0)
(0.0898388 -0.026453123 1.7474666e-22)
(0.051246822 -0.011498165 -1.8219063e-22)
(0.030147415 0.0033881597 0)
(0.037408868 0.013236518 -8.2555391e-24)
(0.070371745 0.015279185 -2.0455172e-22)
(0.12049511 0.0056330601 3.1358292e-22)
(0.13829386 -0.0062528108 -1.0644199e-22)
(0.10820806 0.00016281474 9.5780966e-22)
(0.1032682 0.0020050836 -9.9465508e-22)
(0.11099408 0.00031680014 -1.0324148e-21)
(0.11074543 0.00019151963 1.0719753e-21)
(0.10933948 0.0029502348 -1.1203439e-21)
(0.1104381 0.0044985454 1.1696424e-21)
(0.11264551 0.007054154 2.4232805e-21)
(0.11258928 0.004735166 0)
(0.10840169 0.0060350445 3.9575982e-21)
(0.10082525 0.0061999607 -6.1419357e-21)
(0.096430987 0.0051283428 0)
(0.096488354 0.0061004342 -7.3602405e-22)
(0.094509861 0.0036289307 1.2025217e-24)
(0.089501479 0.0040378862 -1.6178437e-25)
(0.081700587 0.0040009674 1.344237e-20)
(0.073021393 0.00077487218 -1.2987699e-20)
(0.068256051 0.0048979265 0)
(0.064161687 0.012225894 0)
(0.062835546 0.012403083 0)
(0.067386704 0.010573393 0)
(0.068279823 0.0092204644 0)
(0.06276621 0.010238139 1.8242334e-20)
(0.055497673 0.014020938 -1.8258043e-20)
(0.057116008 0.013233459 -5.9370024e-22)
(0.067033659 0.0080282899 6.147692e-22)
(0.072107116 0.0073256313 0)
(0.068109453 0.0085463694 0)
(0.05878265 0.0091621991 3.4784543e-22)
(0.049721704 0.011801705 3.6288872e-22)
(0.049630051 0.010781539 0)
(0.06464679 -0.00056204076 0)
(0.07919969 -0.012708746 -5.1787172e-20)
(0.069640414 -0.0092008875 1.0664938e-19)
(0.039912222 0.0085318421 -5.5079031e-20)
(0.01351993 0.022260124 -2.3050589e-22)
(0.011549045 0.015577666 6.018125e-20)
(0.032036834 -0.0054218916 -6.41687e-20)
(0.054609274 -0.017165578 0)
(0.05790417 -0.0047138515 5.6810715e-24)
(0.046782159 0.018744663 0)
(0.038840679 0.030781888 7.3087465e-20)
(0.037366064 0.019659303 -7.5811779e-20)
(0.036749772 -0.0041744443 -7.7304173e-20)
(0.041132416 -0.027041144 8.0293526e-20)
(0.057121639 -0.037084408 -4.0867629e-24)
(0.081196327 -0.030566504 0)
(0.10096878 -0.012618372 0)
(0.10480754 0.0071026711 -1.819447e-22)
(0.088996891 0.020626592 -9.7463991e-20)
(0.060060551 0.025801851 9.5864037e-20)
(0.032814161 0.017952635 0)
(0.027271276 0.0026435213 1.045723e-19)
(0.048958421 -0.015790132 -1.1097653e-19)
(0.096239109 -0.032198177 1.0747738e-19)
(0.13792997 -0.043017558 -1.17718e-19)
(0.10815628 -0.00048414281 -5.068386e-22)
(0.10320176 0.0020979484 -1.5747415e-21)
(0.1113194 0.0015108748 3.2699619e-21)
(0.11069882 0.00060946647 -2.2653838e-21)
(0.10895084 0.0014092376 -3.5511461e-21)
(0.10978114 0.0029018223 3.6895183e-21)
(0.11255867 0.0053408767 -6.4057106e-21)
(0.11289504 0.0045585001 1.0634785e-20)
(0.10824028 0.0040943341 -6.2257387e-21)
(0.10134547 0.0076469759 1.4459187e-21)
(0.096815249 0.0036302682 7.4968526e-22)
(0.096536631 0.0053396465 1.2442991e-20)
(0.094868803 0.0038949549 -1.1377274e-20)
(0.090009538 0.0027619948 1.4378179e-20)
(0.083248172 0.0032050106 1.0239666e-22)
(0.073887026 0.0033305595 -3.0314484e-20)
(0.066874509 0.0070852539 1.4775428e-20)
(0.063594947 0.010718103 -4.9580209e-22)
(0.063274097 0.0053133227 1.6424868e-20)
(0.067136068 0.0053970811 -1.6709584e-20)
(0.06841239 0.0097428178 0)
(0.063601887 0.011332674 0)
(0.05615371 0.01144676 -1.8694508e-20)
(0.057500263 0.0075756004 2.0811401e-20)
(0.066559836 0.0022682837 2.0061861e-20)
(0.071452734 0.0032030528 -2.1599643e-20)
(0.068679305 0.0059306844 -2.2558185e-20)
(0.05954329 0.0075571882 2.2997654e-20)
(0.049683995 0.010189458 0)
(0.050031162 0.008204737 0)
(0.065606125 -0.0032588754 0)
(0.07886366 -0.011235168 0)
(0.067419473 -0.0034730238 0)
(0.038196945 0.016588239 0)
(0.015454807 0.026597712 2.4414883e-22)
(0.017559747 0.015286138 -6.3522434e-20)
(0.036436954 -0.0063158551 6.7511398e-20)
(0.049739986 -0.016523497 2.6837953e-22)
(0.045301369 -0.0021136587 -5.5674159e-22)
(0.03675756 0.017518635 7.4468853e-20)
(0.039348191 0.02147829 -7.7175722e-20)
(0.049904794 0.007452571 7.8396929e-20)
(0.05210583 -0.013593838 -8.2603299e-20)
(0.04162013 -0.027360783 8.6028178e-20)
(0.03229963 -0.024715627 -1.7635793e-19)
(0.036710781 -0.0073721637 -2.0337051e-22)
(0.050681876 0.016244106 2.2224609e-22)
(0.064275077 0.037573571 -2.2040805e-22)
(0.071416345 0.047414727 -8.1120056e-22)
(0.069107952 0.038093326 -9.0487037e-22)
(0.059786866 0.014761287 1.0603963e-19)
(0.049320298 -0.015449378 0)
(0.04819272 -0.042625961 1.1237292e-19)
(0.064880681 -0.05772612 -4.4273677e-21)
(0.096636448 -0.066365441 -1.2213548e-19)
(0.10805311 -0.00047161524 1.0663029e-21)
(0.10284248 0.0010039073 1.1066856e-21)
(0.11119381 0.0024113663 1.1486614e-21)
(0.11077866 0.0029701662 0)
(0.10877958 0.0021532382 0)
(0.10933156 0.0030640615 0)
(0.1122196 0.0028629343 -6.7403724e-22)
(0.11309525 0.003641692 5.6246032e-21)
(0.10819376 0.0027256901 -5.0964633e-21)
(0.10158746 0.0057672256 -7.6323113e-22)
(0.097232468 0.003857809 -6.3381005e-21)
(0.096698706 0.0054089283 6.6041161e-21)
(0.095742901 0.0043818759 -1.4570378e-20)
(0.090487253 0.00068793758 1.4198353e-20)
(0.082983192 0.00099674044 0)
(0.073358699 0.0082250616 0)
(0.066934345 0.011089209 1.0078284e-21)
(0.06547284 0.007668161 5.2630315e-22)
(0.064522455 0.001453245 -1.7449714e-20)
(0.064975208 0.0011548629 1.7588582e-20)
(0.0663387 0.0081145514 0)
(0.063822463 0.012644874 0)
(0.057720577 0.012753897 -6.380836e-22)
(0.058808075 0.0068265066 0)
(0.066333944 0.0009306304 -2.158399e-20)
(0.070242948 0.0015081261 2.2818331e-20)
(0.068865404 0.0035919858 0)
(0.060707213 0.0051231041 0)
(0.050849032 0.0074749351 0)
(0.051967389 0.0040484872 0)
(0.067180239 -0.0081479609 0)
(0.078652853 -0.013871676 0)
(0.065314346 -0.0033864184 -2.3320674e-22)
(0.037368462 0.015990572 -2.4632274e-22)
(0.019840804 0.023443238 0)
(0.024140572 0.0097337746 -2.6435876e-22)
(0.039340392 -0.0092677059 3.4913636e-20)
(0.043624664 -0.013755207 -3.6527541e-20)
(0.033346906 0.00047182712 2.9245696e-22)
(0.026444357 0.015686104 3.0932756e-22)
(0.036206384 0.014881946 0)
(0.054978793 0.0025302964 3.2741755e-22)
(0.063289992 -0.011702108 2.319334e-24)
(0.048326229 -0.016544279 9.2290613e-20)
(0.021798754 -0.008036945 3.5942279e-21)
(0.0045582413 0.011492014 -9.6902512e-20)
(0.0083701544 0.033182396 -1.9401581e-22)
(0.028808215 0.047059785 0)
(0.056222187 0.045868559 -2.0727697e-22)
(0.078472173 0.027623674 -2.0884196e-22)
(0.086493003 0.0022036893 1.1128656e-19)
(0.078559685 -0.023294565 -1.1435038e-19)
(0.064284018 -0.044978644 1.1955033e-22)
(0.054745494 -0.054854942 -1.82131e-24)
(0.063306371 -0.061225789 -1.1994673e-22)
(0.10814143 1.3183878e-05 0)
(0.10254157 -1.9422751e-05 0)
(0.11081354 0.0025385902 -1.2140438e-21)
(0.11083904 0.0046602564 0)
(0.10880677 0.0038943631 2.6229103e-21)
(0.10935476 0.0040648149 -2.047928e-21)
(0.11227253 0.0021916308 7.1099306e-22)
(0.11300895 0.0031213424 0)
(0.10823878 0.003832517 7.7095358e-22)
(0.10155274 0.0024256282 0)
(0.097105245 0.0045504731 -8.3711554e-22)
(0.096626523 0.0061636184 -6.0384323e-21)
(0.09667841 0.0059963976 1.4412285e-20)
(0.091801654 0.0013919255 -7.4860032e-21)
(0.082553545 6.9303809e-05 0)
(0.072358329 0.0099383447 0)
(0.067871266 0.010387003 -2.8687264e-24)
(0.067440331 0.0042132163 -5.5168833e-22)
(0.065904654 0.0028597736 0)
(0.064031059 0.0011880746 0)
(0.063946903 0.0052081583 6.2232753e-22)
(0.063147225 0.011514431 2.010871e-20)
(0.059257672 0.014568878 -4.3166568e-20)
(0.061028896 0.0092012855 2.2732361e-20)
(0.067149354 0.0032084176 2.28274e-20)
(0.07016621 0.0026064246 -2.4090749e-20)
(0.068817627 0.0031788075 -2.5027768e-20)
(0.061167026 0.0048473117 2.6021642e-20)
(0.051645882 0.0078126098 -2.7155396e-20)
(0.05349398 0.0046874562 5.6027147e-20)
(0.067770309 -0.0075982144 -2.9871333e-20)
(0.076436624 -0.012128361 2.3409903e-22)
(0.061925189 -0.00044445995 4.9159647e-22)
(0.035579526 0.017283597 5.1845815e-22)
(0.022552676 0.021944703 0)
(0.030092338 0.0079456668 -3.5086276e-20)
(0.042581023 -0.0083637239 7.4252056e-20)
(0.040568075 -0.0089012614 -3.8064356e-20)
(0.026725716 0.0035816382 -3.1235862e-22)
(0.020817304 0.01210743 -3.2324635e-22)
(0.03423625 0.007385449 0)
(0.057409291 -0.0057032968 -4.3527891e-20)
(0.069873988 -0.014199208 2.5832574e-22)
(0.056399595 -0.011798311 4.6254489e-20)
(0.025088927 0.00071873365 0)
(-0.0056281861 0.017695706 0)
(-0.012791424 0.030984793 -5.3153415e-20)
(0.005995515 0.03340081 5.6216065e-20)
(0.043434629 0.022838989 2.4880618e-25)
(0.079878826 0.0047816296 1.1246237e-19)
(0.10163412 -0.012221549 -2.3479787e-19)
(0.10230149 -0.024962026 2.4248462e-19)
(0.086844667 -0.035430707 -1.2381627e-19)
(0.063485941 -0.038026739 -1.2952533e-22)
(0.048329431 -0.041006882 1.3239811e-22)
(0.10813425 0.00067404451 5.9265847e-22)
(0.10230058 -0.00019328982 -6.1673817e-22)
(0.11027692 0.0019372432 -2.5613721e-21)
(0.11058735 0.0046584875 2.6646371e-21)
(0.10881072 0.0047173665 3.4546964e-21)
(0.10945302 0.0044234878 -7.2083787e-21)
(0.11239637 0.002709519 2.2575486e-21)
(0.11303656 0.00268127 -7.7972592e-22)
(0.10874164 0.0046977946 -8.1262435e-22)
(0.10190712 0.00047436541 -6.8022848e-21)
(0.096494157 0.0048259739 7.0607933e-21)
(0.096249155 0.0051174893 0)
(0.097353313 0.0050610478 0)
(0.093004694 0.0020912436 -4.933784e-22)
(0.08237781 0.00055440287 -5.1753127e-22)
(0.071664049 0.0078584983 8.6128873e-21)
(0.069060396 0.0059466022 -2.7414048e-20)
(0.068235306 0.0021221274 1.976052e-20)
(0.066004696 0.0055754268 -1.9429596e-20)
(0.064319867 0.0045572472 4.0443317e-20)
(0.062544446 0.0045157161 -7.3344733e-22)
(0.061221227 0.0095073325 -4.3316957e-20)
(0.059324784 0.014638631 2.3371051e-20)
(0.06246926 0.011220769 2.3417225e-20)
(0.067870734 0.0056295338 -2.459014e-20)
(0.070145324 0.0039005751 0)
(0.069415892 0.0029474803 -2.6438765e-20)
(0.061991712 0.0039038311 2.7373824e-20)
(0.052286197 0.0068161545 4.4880596e-22)
(0.05524903 0.0043301945 4.6353724e-22)
(0.069609781 -0.0065988406 7.1785453e-22)
(0.075888621 -0.010638533 -2.4659512e-22)
(0.060179579 0.0012138102 -5.1920133e-22)
(0.035988143 0.015704537 -2.7336026e-22)
(0.026286984 0.016454394 0)
(0.035383841 0.0027459639 0)
(0.045085084 -0.009063294 -3.9107497e-20)
(0.039049423 -0.0063116213 8.1363554e-20)
(0.023050162 0.0052852105 -4.0826584e-20)
(0.017181609 0.010034353 -1.7047383e-22)
(0.031225029 0.00067960665 0)
(0.054220164 -0.011904384 0)
(0.06746531 -0.01422388 -4.8132454e-20)
(0.057934589 -0.0045173473 4.912106e-20)
(0.02822402 0.011353502 -5.377598e-20)
(-0.0043494007 0.02602057 5.3228737e-20)
(-0.017252934 0.029676388 2.195325e-22)
(-0.00094967602 0.020764914 -5.7098295e-20)
(0.035039592 0.005426898 6.1409096e-20)
(0.074114989 -0.0072762749 0)
(0.10215059 -0.014252409 1.1362564e-24)
(0.11244244 -0.015376609 -6.4064211e-20)
(0.10218774 -0.013770252 1.3103882e-19)
(0.082268998 -0.01010283 -1.3673605e-19)
(0.055107382 -0.0089004968 7.0727632e-20)
(0.1081431 0.0010178978 0)
(0.1022632 0.00062969088 1.2970061e-21)
(0.1099158 0.0014081416 -3.6084577e-24)
(0.11031868 0.0031575754 -1.407948e-21)
(0.1088225 0.0042909096 -1.3371529e-24)
(0.10957401 0.0043356759 7.6077587e-22)
(0.11243176 0.003545135 -1.5837854e-21)
(0.11296411 0.0030316585 4.1107079e-21)
(0.10918358 0.0045111439 0)
(0.10216902 0.0020718146 0)
(0.096405015 0.0061461056 -6.4747238e-21)
(0.096394608 0.0026771868 7.7453969e-21)
(0.097667316 0.0024601738 0)
(0.094121675 0.0021007957 5.2118261e-22)
(0.082607276 0.0022461962 5.4578786e-22)
(0.071857123 0.004789039 0)
(0.070020336 0.0016698952 -9.4658704e-21)
(0.068090873 0.0018508286 -6.3906921e-22)
(0.065962052 0.0067838965 1.0848456e-20)
(0.06472055 0.0067508207 0)
(0.062320467 0.0047430151 2.2085627e-20)
(0.059520262 0.0070073806 -4.6157633e-20)
(0.058619409 0.011763483 2.3555288e-20)
(0.063211655 0.010240686 -2.5072727e-20)
(0.068737849 0.0056173032 2.6318374e-20)
(0.070649616 0.0030392871 0)
(0.070226302 0.0019543626 0)
(0.062866617 0.0028555562 0)
(0.052457949 0.0059107926 -4.7357313e-22)
(0.055563275 0.0037606436 -4.8901901e-22)
(0.069751148 -0.004998632 -3.2420425e-20)
(0.074325986 -0.0065897262 3.3558864e-20)
(0.058622875 0.005723567 2.7344168e-22)
(0.03661369 0.017682045 0)
(0.02949987 0.014760707 0)
(0.039333361 0.00061753976 3.0943996e-22)
(0.046398476 -0.007754257 0)
(0.038476849 -0.0022738987 -3.3207759e-22)
(0.02221896 0.0084259877 -4.5041389e-20)
(0.017680749 0.0085171962 4.6190464e-20)
(0.030947336 -0.0041275083 4.6591539e-20)
(0.050480158 -0.016344951 -4.9888193e-20)
(0.061652419 -0.014819403 5.101242e-20)
(0.054534642 -0.00010841021 -5.2189637e-20)
(0.029992197 0.019075946 -5.6637714e-20)
(0.0026133963 0.030749642 -2.0925369e-21)
(-0.010391297 0.026941765 1.1748841e-19)
(-0.0016567655 0.01074845 -6.160426e-20)
(0.025416956 -0.005554609 0)
(0.057550881 -0.013002138 -6.2908486e-20)
(0.086154468 -0.011030728 1.3194961e-19)
(0.10315775 -0.00243125 -6.8311908e-20)
(0.10364105 0.0094385071 0)
(0.092957719 0.018712299 -1.4398849e-22)
(0.06999164 0.024437359 7.7955486e-20)
(0.10801382 0.00092441126 0)
(0.10223725 0.0019408156 0)
(0.10981454 0.0011514778 0)
(0.11012628 0.0010080658 2.2204106e-21)
(0.10862168 0.0029076062 -3.8507932e-21)
(0.10946801 0.0040281654 3.2094292e-21)
(0.1124502 0.0039279205 -4.1832278e-21)
(0.11294243 0.0037188166 -8.6697044e-22)
(0.10944179 0.003411922 -9.0211444e-22)
(0.10223078 0.0049429655 -8.5060329e-21)
(0.096743009 0.0065725783 6.8450046e-21)
(0.097119845 0.00042200728 0)
(0.097730522 -0.0013488672 8.4297038e-21)
(0.094178733 0.0010390113 5.6598484e-23)
(0.083151033 0.0044909495 -1.8957912e-20)
(0.072776274 0.0023461711 9.5419947e-21)
(0.07030221 -0.00071435052 -6.2237281e-22)
(0.067151763 0.0029901182 -6.4838766e-22)
(0.065296583 0.0069524569 8.5974729e-25)
(0.065600266 0.0071775571 3.4886033e-22)
(0.063180338 0.0049213516 3.6324265e-22)
(0.059216665 0.0051004837 3.8015133e-22)
(0.057899895 0.0083106898 0)
(0.063136164 0.0075741426 0)
(0.069107083 0.0044538091 -2.7552303e-20)
(0.071115255 0.001989353 2.872153e-20)
(0.07096581 0.00071098011 0)
(0.063734222 0.0014275687 0)
(0.053170088 0.004273108 0)
(0.056079791 0.0016868341 2.5799733e-22)
(0.069712917 -0.0058739663 0)
(0.072919094 -0.0054787484 3.5877097e-20)
(0.057577718 0.0077753459 -3.6565653e-20)
(0.039018678 0.017938659 3.034497e-22)
(0.034625749 0.011408988 -4.0373068e-20)
(0.042807088 -0.0024337681 4.1899846e-20)
(0.047048335 -0.0093267093 0)
(0.036823547 -0.00075618553 4.5338249e-20)
(0.022023216 0.0093470906 -4.6538128e-20)
(0.019799276 0.0061958925 1.8943165e-22)
(0.031368167 -0.0070411181 4.9908648e-20)
(0.045739518 -0.016817938 -5.2458962e-20)
(0.052735756 -0.012797456 0)
(0.04581783 0.0054113771 5.6658204e-20)
(0.028196064 0.026024096 -5.7460384e-20)
(0.010659042 0.033875876 4.7087725e-22)
(0.0027986322 0.024875095 0)
(0.0067561499 0.006169611 6.3486853e-20)
(0.020367852 -0.010148585 -6.6968546e-20)
(0.039234544 -0.013746652 6.7319863e-20)
(0.059990585 -0.0059139235 -7.0984406e-20)
(0.077384074 0.0092620676 -7.2215785e-20)
(0.086134739 0.026693624 1.4986105e-19)
(0.08675456 0.039404 1.6270225e-21)
(0.074671276 0.049192291 1.9503611e-21)
(0.10787611 0.00054791088 -6.9501234e-22)
(0.10223302 0.0029004978 -7.2043928e-22)
(0.11004271 0.001141587 -1.4972297e-21)
(0.11006504 -0.00051479065 1.6183699e-24)
(0.10832433 0.0013266225 1.6236327e-21)
(0.109291 0.0033326584 3.3826742e-21)
(0.1124843 0.0039121031 -3.5291759e-21)
(0.11316407 0.0038276038 9.1397194e-22)
(0.10938906 0.0026513563 4.7770619e-21)
(0.10214881 0.0068640473 -1.0916139e-20)
(0.097502788 0.0055192397 5.6204496e-22)
(0.098216469 6.6717068e-05 8.6090382e-21)
(0.09766104 -0.0030252292 5.5608127e-22)
(0.093615462 0.00073858449 0)
(0.083736303 0.0059177593 6.0608178e-22)
(0.074071596 0.00080991833 -6.3067761e-22)
(0.070010365 -0.00074541515 -1.4406957e-24)
(0.066284076 0.0053012591 1.3654926e-21)
(0.064700024 0.0057297262 -7.0934689e-22)
(0.066066078 0.0051484967 1.1378814e-20)
(0.0641622 0.004580923 -2.4952378e-20)
(0.059637501 0.0045965727 1.2798233e-20)
(0.057601804 0.0060112088 0)
(0.062884902 0.0049633506 -1.3686917e-20)
(0.069171874 0.0031414978 1.3946057e-20)
(0.071462004 0.0017967992 -4.643516e-22)
(0.071811997 0.001128333 -4.8084828e-22)
(0.064709095 0.0018080127 0)
(0.053892114 0.003824343 0)
(0.056209666 0.00030718005 -2.7193418e-22)
(0.068888039 -0.0066718834 0)
(0.070662631 -0.0046209203 0)
(0.055853959 0.009083032 -3.9601457e-20)
(0.040759581 0.017813028 -7.6511035e-22)
(0.039100849 0.010146213 8.5241695e-20)
(0.046434498 -0.0036607248 -4.4793564e-20)
(0.046781186 -0.0089099483 0)
(0.034475833 0.00045143705 1.8523645e-22)
(0.022085584 0.0092547129 -1.9418248e-22)
(0.022541593 0.0038376237 -2.0066699e-22)
(0.032876468 -0.0084296343 -5.2392173e-20)
(0.043000287 -0.016778002 5.523601e-20)
(0.043814408 -0.010440192 0)
(0.035138964 0.0086631135 0)
(0.023491162 0.028110539 -2.4191255e-22)
(0.016035422 0.034079952 -2.4891918e-22)
(0.01522361 0.02284559 -6.5218487e-20)
(0.017881486 0.0046577815 6.8084573e-20)
(0.020726068 -0.0090464089 6.9817011e-20)
(0.023930343 -0.0097509479 -7.232537e-20)
(0.032505014 0.00067042054 -1.4745721e-22)
(0.04542839 0.017518132 7.6975714e-20)
(0.057831396 0.03662754 -7.9795379e-20)
(0.066766162 0.049703583 0)
(0.067905461 0.058005826 -8.4446754e-20)
(0.10769841 0.00017063012 1.0975282e-21)
(0.10218779 0.0028965933 -3.809522e-22)
(0.11033013 0.0011836915 7.912729e-22)
(0.11013502 -0.00057060675 8.22261e-22)
(0.10804165 0.00040143916 3.4179516e-21)
(0.10894659 0.0025531888 -6.2241436e-21)
(0.11241656 0.0038137361 3.7201567e-21)
(0.11340959 0.0033507485 0)
(0.10935378 0.0024805762 4.5337536e-21)
(0.10214506 0.0066393172 -3.6457231e-21)
(0.098423242 0.002807962 -1.0905443e-21)
(0.098766233 0.0010153323 0)
(0.097637908 -0.0012285934 -1.1731135e-21)
(0.093153862 0.0023138676 6.1118731e-22)
(0.084567771 0.0057228563 -6.3699784e-22)
(0.075346221 1.6910668e-05 2.3343953e-24)
(0.069579472 0.0004882973 -1.0428978e-20)
(0.065685571 0.0072154635 2.2316747e-20)
(0.064965257 0.0046022539 -1.1987834e-20)
(0.066175249 0.0024251343 0)
(0.064323447 0.0030173716 -4.0461118e-22)
(0.0598312 0.0048733913 0)
(0.057336333 0.0060937006 -4.3878599e-22)
(0.062327257 0.0041644074 0)
(0.06870963 0.0027451641 -1.0607688e-24)
(0.071384886 0.0020943312 4.8986769e-22)
(0.072245327 0.0023883696 5.0594215e-22)
(0.065951508 0.0038973825 1.7057955e-20)
(0.055468141 0.0052891214 1.0033044e-22)
(0.057180272 0.00020342803 -1.8420948e-20)
(0.068769371 -0.0075011094 3.7930895e-20)
(0.069096937 -0.0049905317 -7.9357669e-20)
(0.054875174 0.0080690281 4.1097966e-20)
(0.042447735 0.015403002 -3.3667152e-22)
(0.043567162 0.0077902171 -3.4821142e-22)
(0.050084203 -0.005948531 3.6426164e-22)
(0.046840276 -0.0092491942 0)
(0.032302256 -0.00022372127 1.9652676e-22)
(0.022058128 0.0072694741 2.0495843e-22)
(0.024609909 0.0012948029 0)
(0.03412797 -0.0093778559 -4.3548762e-22)
(0.039805007 -0.015025996 0)
(0.03502855 -0.0068376911 2.3533357e-22)
(0.023423931 0.012946941 -6.3380508e-20)
(0.01519916 0.030664153 6.4952608e-20)
(0.016627029 0.035036641 0)
(0.024274007 0.023749154 -1.3349829e-22)
(0.028388147 0.0065483378 0)
(0.024372776 -0.004778179 7.4446955e-20)
(0.016122719 -0.0045315552 -7.6174741e-20)
(0.012098354 0.0045004948 1.5373978e-22)
(0.015426962 0.019843214 0)
(0.026540184 0.03569395 -8.3903631e-23)
(0.040429657 0.04574724 0)
(0.051118602 0.053349481 8.6891514e-23)
(0.10761709 -0.0001185043 -3.8499847e-22)
(0.10213427 0.0019326411 1.2026217e-21)
(0.11053583 0.0011784486 -8.3040836e-22)
(0.11023814 0.00049546517 1.7357099e-21)
(0.10788749 0.00057482264 -2.7060351e-21)
(0.10869054 0.0017732952 1.26514e-24)
(0.11233146 0.0033219372 -3.9074124e-21)
(0.11362874 0.0023433313 4.061648e-21)
(0.10927406 0.0022390162 3.7159457e-21)
(0.10250118 0.0043388722 -9.3687542e-21)
(0.098941743 2.7026268e-05 5.9541371e-22)
(0.09890339 0.0021165524 4.7612731e-21)
(0.097773409 0.0019215707 -9.2916904e-21)
(0.093250444 0.0040763603 9.6280583e-21)
(0.085728439 0.00403355 6.7229159e-22)
(0.076363058 0.00026478543 -1.0569515e-20)
(0.068900917 0.0019463481 1.1637378e-20)
(0.065363416 0.0073929448 0)
(0.065828781 0.0043655684 1.2966422e-20)
(0.066803493 0.00084661136 -2.6289558e-20)
(0.064244309 0.00079882221 -2.726619e-23)
(0.059507571 0.0045305095 1.3780571e-20)
(0.057038275 0.0069766603 1.562827e-20)
(0.061980194 0.0049909902 -3.0167234e-20)
(0.068392016 0.0031044317 1.6493024e-20)
(0.071287394 0.002117569 -2.570897e-22)
(0.072207824 0.0034097929 2.6720989e-22)
(0.066774798 0.0062105787 1.7673816e-20)
(0.056997432 0.0075626283 -1.8817093e-20)
(0.058475329 0.001717944 3.0271262e-22)
(0.068968237 -0.0065695417 0)
(0.067515991 -0.0041046476 2.1057763e-20)
(0.053215701 0.0077453403 3.7431919e-22)
(0.043375229 0.014101591 -2.2419431e-20)
(0.04726538 0.0072835195 5.5279421e-22)
(0.05339481 -0.0058514876 -2.456236e-20)
(0.047418262 -0.008846307 2.52511e-20)
(0.031171312 -0.00064716133 -2.0675989e-22)
(0.021552707 0.0050082526 2.1586968e-22)
(0.026542852 -0.0011017694 0)
(0.035967417 -0.010657574 -5.8799878e-20)
(0.037824245 -0.014250502 6.1054313e-20)
(0.027654814 -0.0043009785 -1.2244331e-22)
(0.012970773 0.015072403 -6.6941981e-20)
(0.0057186372 0.031192546 6.8340236e-20)
(0.013243232 0.032917607 1.382888e-22)
(0.02847513 0.021093168 1.4262906e-22)
(0.036514324 0.0064939668 7.5201783e-20)
(0.029566452 -0.0016788212 -7.7496734e-20)
(0.014177383 -0.0016124805 -3.1625176e-22)
(0.00039116737 0.0052518543 0)
(-0.0061909616 0.016470744 0)
(-0.00021127304 0.027140824 -1.5204145e-24)
(0.013312885 0.033965584 0)
(0.028146996 0.040482971 -9.2308301e-23)
(0.10768092 -0.0002163132 -8.125409e-22)
(0.10208272 0.00048583736 -8.4105476e-22)
(0.11055001 0.00086247226 3.5144595e-21)
(0.11031554 0.0018640482 -1.8241118e-21)
(0.10792779 0.0014026851 1.8973464e-21)
(0.10851275 0.0012547593 -2.9615142e-21)
(0.11218534 0.0024169708 -4.1080056e-21)
(0.11378517 0.0013066614 4.2793282e-21)
(0.10937358 0.0021737158 4.4622706e-21)
(0.1029549 0.0014966762 -8.7135753e-21)
(0.099025131 -0.0010960467 4.2261299e-21)
(0.098646592 0.0030747045 0)
(0.097809858 0.0044212726 6.5346581e-22)
(0.093786972 0.0048809782 0)
(0.086846227 0.0020276529 0)
(0.076794824 0.0015449224 1.1512573e-20)
(0.068658684 0.0030403106 -1.2252079e-20)
(0.065285794 0.0053204655 -3.9973632e-22)
(0.066265198 0.004211708 -3.9474828e-25)
(0.06748727 0.0014435536 0)
(0.064509592 0.00016906665 1.4892065e-20)
(0.059114482 0.0034072236 -1.4061796e-20)
(0.056742584 0.0073541723 6.4855741e-25)
(0.061868593 0.006284915 1.5302656e-20)
(0.068228163 0.0034606721 -3.3612604e-20)
(0.07086639 0.0016199775 1.6904932e-20)
(0.071583234 0.0032540267 -1.8330476e-20)
(0.067182269 0.0074003931 1.0016013e-22)
(0.058396242 0.0088201771 1.9814732e-20)
(0.060079258 0.0026962429 1.9579683e-20)
(0.069550182 -0.0055346799 -2.1040883e-20)
(0.066629197 -0.003067205 0)
(0.052157175 0.0073608075 -3.5800023e-22)
(0.043793239 0.012882571 -1.4166225e-25)
(0.050311658 0.0067370794 -1.9393943e-22)
(0.057038581 -0.0048994326 2.608249e-20)
(0.049326732 -0.0078223122 5.6848612e-22)
(0.031547002 -0.0016064562 -2.7556217e-20)
(0.021798758 0.0017608889 2.8477879e-20)
(0.027734996 -0.0040611043 -6.0320872e-20)
(0.037046995 -0.012668148 5.5327703e-22)
(0.03641507 -0.014176917 6.4754788e-20)
(0.022188616 -0.0030758342 -3.3403961e-20)
(0.0043084376 0.015415396 -1.3706188e-22)
(-0.0024367734 0.028641106 -3.6038212e-20)
(0.0081307452 0.028033014 3.7597936e-20)
(0.028021864 0.016690887 0)
(0.039606709 0.0057116117 -3.9721623e-20)
(0.034333364 0.00025587227 4.0658249e-20)
(0.016643624 0.00080014901 3.3236466e-22)
(-0.0033974031 0.0056423619 0)
(-0.017957959 0.012713207 -9.2493271e-20)
(-0.019307321 0.017257993 7.8956153e-22)
(-0.010218363 0.021240385 9.8067499e-20)
(0.0051402667 0.024407267 9.5683918e-23)
(0.1078536 -0.00015828896 5.2240087e-25)
(0.10208639 -0.00098522336 -1.7780595e-21)
(0.11042375 0.00020643615 0)
(0.11034886 0.0027644856 9.6073376e-22)
(0.10805191 0.0020915477 1.5019398e-21)
(0.10846334 0.00089719574 1.5583405e-21)
(0.11222891 0.0010513938 -6.4933561e-21)
(0.11384129 0.00039256536 -5.7003284e-22)
(0.10961935 0.0020841104 -6.0372016e-22)
(0.10338976 -0.00033457863 9.1848299e-21)
(0.098586852 -0.00027428536 -4.4556645e-21)
(0.098247424 0.0035817561 -5.2801682e-21)
(0.097854377 0.0049501259 4.1358335e-21)
(0.094525813 0.0037898551 0)
(0.087667258 0.00025651379 0)
(0.077245287 0.0032627287 -1.2509863e-20)
(0.068746622 0.0035726495 -8.4720505e-23)
(0.065468503 0.0026083239 1.3873832e-20)
(0.066537528 0.0035535368 -4.3710889e-22)
(0.068021798 0.0029071961 1.4563508e-20)
(0.064886351 0.00020621826 -1.5116432e-20)
(0.05867982 0.0017774235 -4.940238e-22)
(0.05595096 0.0066601791 -2.5604015e-22)
(0.061620442 0.0069337376 -1.6909933e-20)
(0.068619572 0.0032977746 1.7787615e-20)
(0.070887769 0.00017583876 2.8702185e-22)
(0.070924676 0.0010107848 0)
(0.067087562 0.0064844648 0)
(0.059516984 0.0083611639 0)
(0.061600065 0.0021216966 6.7022215e-22)
(0.069918073 -0.005190928 -3.4658766e-22)
(0.065946148 -0.0021658323 0)
(0.0513374 0.0076937247 1.8914479e-22)
(0.043752384 0.012515055 3.9414066e-22)
(0.051873863 0.0074582695 0)
(0.060286997 -0.0016940383 2.7024955e-20)
(0.051866885 -0.0044419844 -2.7795016e-20)
(0.033391766 -0.0011474987 0)
(0.023207022 -0.0010185872 2.4025634e-22)
(0.028489983 -0.0076863685 2.4793327e-22)
(0.037668428 -0.015186171 0)