/*--------------------------------*- C++ -*----------------------------------*\
| =========                 |                                                 |
| \\      /  F ield         | OpenFOAM: The Open Source CFD Toolbox           |
|  \\    /   O peration     | Version:  2406                                  |
|   \\  /    A nd           | Website:  www.openfoam.com                      |
|    \\/     M anipulation  |                                                 |
\*---------------------------------------------------------------------------*/
FoamFile
{
    version     2.0;
    format      ascii;
    arch        "LSB;label=32;scalar=64";
    class       volVectorField;
    location    "20";
    object      U_0;
}
// * * * * * * * * * * * * * * * * * * * * * * * * * * * * * * * * * * * * * //

dimensions      [0 1 -1 0 0 0 0];

internalField   nonuniform List<vector> 
20580
(
(0.10469869 -0.0019532666 -4.0504868e-22)
(0.10218748 -0.0011194765 1.045441e-19)
(0.10494624 -0.00081803543 -5.1902277e-22)
(0.10373539 -0.00065265596 -3.9197132e-21)
(0.10217161 -0.0025305162 4.3521104e-23)
(0.099761342 -0.0013893008 -1.5393995e-20)
(0.098438616 -0.0012695392 -7.431766e-20)
(0.096933064 -0.0013940127 9.767366e-21)
(0.095317753 3.9758018e-05 -6.9422162e-21)
(0.094519348 -4.6901354e-05 0)
(0.093545561 0.00052919413 -7.1255794e-21)
(0.09336329 0.0011179061 6.2504945e-21)
(0.0930007 0.0014902447 -1.8416416e-21)
(0.092676161 0.002069202 2.5671986e-22)
(0.092708892 0.002101464 1.6168922e-22)
(0.092555971 0.0020492711 5.0410022e-21)
(0.092741777 0.0013366889 8.2651439e-21)
(0.09206556 0.0011156306 1.3400743e-21)
(0.091484324 -0.00042325721 1.3600372e-22)
(0.091047394 -0.0012858275 5.1884533e-21)
(0.090693487 -0.0026020547 2.8111741e-23)
(0.090267521 -0.0043387679 -8.5825766e-21)
(0.08999088 -0.0070576207 1.5899039e-21)
(0.08859503 -0.0074312083 -2.6641723e-20)
(0.088903314 -0.0093033018 -4.1207136e-20)
(0.090524534 -0.014171396 -2.3086295e-20)
(0.090348332 -0.01764925 -3.2134579e-20)
(0.089615635 -0.018706666 -1.2103421e-21)
(0.090199575 -0.018788617 1.03091e-20)
(0.090229369 -0.022808313 3.9974561e-20)
(0.091891887 -0.030398048 1.4335747e-20)
(0.1036424 -0.0010850968 0)
(0.10234627 -0.0009956218 -4.3273869e-20)
(0.10572205 -0.0020560656 -4.0793716e-20)
(0.10441822 -0.0015828464 -2.1778467e-20)
(0.10175893 -0.001541146 -3.0458997e-20)
(0.099692908 -0.0014170174 -1.4065552e-22)
(0.098377801 -0.0013234625 1.048907e-19)
(0.096699222 -0.0010697193 5.9155515e-21)
(0.095371151 -0.00038608523 -1.0578057e-21)
(0.094391266 3.7396399e-05 -1.9473265e-21)
(0.093625576 0.00017828452 5.6340725e-21)
(0.093287189 0.00099121691 -7.8128019e-21)
(0.092983346 0.0013529822 -3.8671564e-21)
(0.092824542 0.0015769421 -7.0082228e-23)
(0.092737719 0.0018884467 1.0405008e-20)
(0.092759942 0.0015818829 9.3118923e-23)
(0.092605777 0.0015224251 8.0583313e-21)
(0.092091588 0.0015889527 -2.597441e-21)
(0.091963127 -0.00033377853 0)
(0.091489467 -0.0011450467 7.7279812e-21)
(0.091141593 -0.0019933601 0)
(0.091214055 -0.0038939756 -1.9739497e-20)
(0.091052971 -0.0058824904 9.7151416e-21)
(0.090046427 -0.0072177782 7.9397368e-24)
(0.091192166 -0.010344588 -2.5127881e-20)
(0.092719645 -0.013199763 5.3791138e-22)
(0.091870858 -0.014789554 6.4415751e-22)
(0.090943809 -0.015964808 -9.5233376e-21)
(0.092372397 -0.018322504 7.0126823e-22)
(0.094306387 -0.020990936 -1.7068984e-20)
(0.094371254 -0.028635169 2.5714248e-20)
(0.10255815 0.00038789383 0)
(0.10210702 -0.00077959406 0)
(0.10622682 -0.0031827482 1.5515264e-19)
(0.10479656 -0.0027704395 5.5814636e-20)
(0.10199128 -0.00054277164 -1.3734636e-20)
(0.099990036 -0.0015600133 -4.8606011e-23)
(0.098523193 -0.0015300056 -1.6517728e-19)
(0.096746942 -0.00071496842 3.1411257e-20)
(0.095444044 -0.00091018728 0)
(0.094363008 1.1061067e-06 -4.21686e-20)
(0.093565062 -3.2059337e-05 1.0513952e-20)
(0.093213185 0.00066918083 2.6971064e-20)
(0.09299395 0.0011726604 0)
(0.092835386 0.001117377 3.0666492e-22)
(0.092729683 0.0014994052 2.615587e-21)
(0.092776364 0.001135798 2.8065308e-22)
(0.092547906 0.0011746604 4.5481838e-22)
(0.092324231 0.0011692426 -5.8829291e-22)
(0.092366933 -0.00054787783 1.9673077e-20)
(0.09179635 -0.0012428086 0)
(0.091761171 -0.0022251149 0)
(0.092118136 -0.0045417961 1.2504109e-20)
(0.092107423 -0.0053477049 1.0874617e-20)
(0.09176488 -0.0070561871 -3.3459842e-20)
(0.092798266 -0.010662687 -2.64958e-21)
(0.093859781 -0.011886123 -1.0969374e-21)
(0.093201922 -0.012429733 -3.8388227e-20)
(0.093008048 -0.013204461 -2.8015867e-21)
(0.094497214 -0.017707439 -1.0590193e-20)
(0.097527081 -0.019541396 7.8265104e-21)
(0.097392739 -0.024316974 -8.3136817e-21)
(0.10117942 0.0012263012 0)
(0.10138451 -0.00040155904 3.1147939e-22)
(0.10626755 -0.0034493984 3.1361598e-21)
(0.10474784 -0.0035095926 1.3305157e-22)
(0.10210326 -4.7881938e-05 1.648963e-20)
(0.10039856 -0.0018022042 4.2182924e-20)
(0.098773476 -0.0017181964 -1.8523036e-19)
(0.097001837 -0.00064854692 0)
(0.095649072 -0.0012904247 2.8985693e-22)
(0.094453724 -0.00019733552 1.8715832e-20)
(0.093617149 -5.5585634e-05 2.2762095e-20)
(0.093182461 0.000348646 7.4853941e-21)
(0.093006197 0.0009338624 -1.6313941e-22)
(0.092857409 0.00089997917 8.3545085e-21)
(0.092800197 0.0011961124 8.6572875e-21)
(0.092843036 0.0010218644 7.1590326e-24)
(0.092556618 0.00089740093 -5.7128003e-21)
(0.092545318 0.00048257597 -2.004816e-23)
(0.092591881 -0.00066182682 1.406097e-23)
(0.091974361 -0.00095170144 9.238379e-22)
(0.092429558 -0.002381393 1.5188618e-21)
(0.092825115 -0.00501668 1.5330354e-20)
(0.092794383 -0.0051776336 -7.2000416e-22)
(0.093216765 -0.0065669817 -4.5534503e-21)
(0.093960375 -0.0095137579 0)
(0.094533672 -0.010072332 -2.7382861e-21)
(0.093946822 -0.011239199 6.015564e-21)
(0.09496787 -0.011869715 4.5547469e-21)
(0.09673064 -0.016272536 -4.0316041e-20)
(0.099466561 -0.01889363 1.2990744e-20)
(0.10007488 -0.020626493 2.9545303e-21)
(0.10018345 0.0012660117 0)
(0.10059836 -0.00012164335 -1.8354085e-19)
(0.10585096 -0.0027326649 -1.4009161e-19)
(0.10440182 -0.0033890444 -3.3384901e-21)
(0.10208827 -0.00033793034 3.1218259e-22)
(0.10063287 -0.0020704751 5.18053e-20)
(0.098868481 -0.0018426559 0)
(0.097255394 -0.0010065506 -1.6146023e-20)
(0.095822394 -0.0014088084 8.0678488e-21)
(0.094605255 -0.00053972864 2.4187776e-20)
(0.093765842 5.5289936e-08 -5.8598557e-21)
(0.093268696 4.2617477e-05 3.7287291e-23)
(0.093074567 0.00057973161 4.508119e-21)
(0.092908876 0.00082361381 -5.0363291e-21)
(0.092856595 0.00086547979 1.0432946e-20)
(0.092896787 0.00095719426 1.7642466e-22)
(0.09269114 0.00080672101 -1.4854825e-20)
(0.092751583 -7.9294942e-05 2.1060233e-20)
(0.092665614 -0.00058070514 1.5384813e-20)
(0.0921835 -0.00060222679 0)
(0.093181314 -0.0023957109 2.044657e-21)
(0.093407368 -0.0044569105 -2.518735e-21)
(0.093152723 -0.0047580282 -7.9448227e-21)
(0.094133393 -0.0061939516 -2.4859846e-21)
(0.094807257 -0.0083338981 0)
(0.095569145 -0.0082217822 -8.9407819e-21)
(0.095093406 -0.010005855 -1.380031e-20)
(0.096358184 -0.012132825 -9.704153e-21)
(0.098651226 -0.014768664 -3.5743913e-20)
(0.10088615 -0.018101331 2.2907839e-21)
(0.10179882 -0.019603799 -4.3785936e-21)
(0.099635643 0.0001776643 1.7014096e-19)
(0.099964821 3.5453705e-05 -1.7966596e-21)
(0.10507707 -0.0013531947 3.197039e-23)
(0.10393197 -0.0025204253 -1.1382802e-20)
(0.10208955 -0.0013130322 -7.4412652e-20)
(0.10068124 -0.0022470899 -1.3736408e-22)
(0.098843529 -0.0017262434 -2.0854659e-20)
(0.097347418 -0.00158943 -1.6558813e-22)
(0.095920046 -0.0013156212 1.4110193e-20)
(0.094752846 -0.00085789822 -6.5246999e-21)
(0.093984258 -7.8581235e-05 -2.029208e-20)
(0.093512741 -0.00013780632 4.2812784e-21)
(0.093251491 0.00024557097 3.6264944e-21)
(0.093063887 0.00069817425 -2.1443687e-22)
(0.092926121 0.00053804975 9.0770918e-21)
(0.092940119 0.00071113144 6.3821554e-23)
(0.092842707 0.00082468718 -5.7298425e-21)
(0.092893603 -0.00027470517 1.9944692e-20)
(0.092643266 -0.00029786613 8.605077e-22)
(0.092439366 -0.00059982096 0)
(0.093698519 -0.0025279255 2.4099801e-21)
(0.093759276 -0.0032662336 2.0629444e-20)
(0.093619075 -0.0036398062 -1.079943e-20)
(0.094983773 -0.0054586667 0)
(0.09534018 -0.0078601018 -1.5927542e-21)
(0.096238755 -0.0077542824 2.5337095e-20)
(0.096688067 -0.0083603209 1.7248459e-20)
(0.097830009 -0.012501043 3.5312818e-20)
(0.10007432 -0.014070716 3.797334e-21)
(0.10210527 -0.0163545 2.8617021e-21)
(0.10296329 -0.01764577 4.7749186e-21)
(0.099689053 -0.0012783151 -6.2895545e-21)
(0.099814336 -9.5872412e-05 -3.9710383e-20)
(0.10457721 -1.564082e-06 2.6623999e-22)
(0.10339574 -0.0011556135 4.6008842e-20)
(0.10174917 -0.0024461467 -2.1836431e-20)
(0.10029212 -0.0021656659 9.1678451e-20)
(0.098614139 -0.0015059731 1.0199155e-19)
(0.097283357 -0.0020669342 -1.2887244e-23)
(0.095904599 -0.0011821311 1.5260579e-22)
(0.094731321 -0.0010328118 -2.589222e-21)
(0.094052484 -0.0004057721 -5.8677977e-22)
(0.09364367 -0.0001864517 -4.4677641e-22)
(0.09337077 -6.3829447e-05 -3.5434229e-21)
(0.093252931 0.00035884934 7.6882025e-25)
(0.093118847 0.00023911167 -2.3145906e-21)
(0.093008502 0.00026578256 7.1663638e-23)
(0.092996236 0.00067332178 1.1567178e-24)
(0.093057416 -0.00028824509 -1.8128155e-20)
(0.092726399 2.5599343e-05 0)
(0.092806502 -0.00069322708 -2.3999541e-20)
(0.093953983 -0.0026931466 -9.7759975e-22)
(0.093858521 -0.0023749928 2.8743566e-20)
(0.094055176 -0.0028773741 1.2689679e-21)
(0.095993429 -0.0044733769 1.4048028e-21)
(0.096097128 -0.0069061419 2.3887467e-20)
(0.09630773 -0.0081480842 -1.3297698e-21)
(0.097999123 -0.0070529476 7.9430732e-21)
(0.099554642 -0.011879838 -9.5362167e-22)
(0.10101427 -0.013776598 -2.464188e-20)
(0.10265152 -0.014710569 2.0069691e-20)
(0.10352822 -0.014745839 1.6068589e-21)
(0.10071242 -0.0020408362 1.3551933e-18)
(0.10016505 -0.00020270509 0)
(0.10428064 0.00056010845 -1.4371289e-19)
(0.10277871 0.00021251834 -9.4293937e-21)
(0.10103992 -0.0031090208 -2.2658195e-20)
(0.099518172 -0.0018530823 3.8707344e-23)
(0.098131769 -0.0013924269 4.7492742e-20)
(0.096956556 -0.0020792262 -4.414396e-23)
(0.09564486 -0.0010399186 -4.0579965e-21)
(0.094581077 -0.0010481111 -2.4046133e-21)
(0.093968943 -0.00082441659 5.2823461e-21)
(0.093615511 -0.0002571515 -2.9295318e-22)
(0.093352555 -0.00032643866 -6.1557828e-21)
(0.093263298 -2.7140478e-05 -1.2025892e-20)
(0.093213499 4.0704881e-05 -4.1317833e-21)
(0.093040974 -0.00010511813 4.7415109e-21)
(0.093114183 0.0003448971 -4.3843131e-21)
(0.093174704 -0.00042271775 -5.28941e-22)
(0.092861997 -2.1878844e-05 8.8951268e-24)
(0.093250757 -0.00090552705 4.1812127e-22)
(0.094151802 -0.0025614049 -7.8619546e-22)
(0.093868203 -0.0020261873 1.5116588e-22)
(0.094285667 -0.003259529 0)
(0.096578215 -0.0043524293 2.2567619e-21)
(0.097145157 -0.0053097551 -2.3524912e-20)
(0.096387982 -0.0078038931 2.5716879e-20)
(0.098719788 -0.0071472806 1.5127493e-20)
(0.10149484 -0.010566922 -7.5752887e-20)
(0.10207475 -0.012966839 8.1878991e-21)
(0.10270301 -0.013711071 -4.6295459e-20)
(0.10323865 -0.013016612 -4.3623892e-20)
(0.10259756 -0.0019915623 -6.1078127e-19)
(0.10053741 5.2942621e-05 3.4438578e-23)
(0.1043044 0.00018625637 -4.5204442e-20)
(0.10279956 0.00075629323 2.3628712e-20)
(0.10084403 -0.0030253773 -1.3492133e-21)
(0.099066945 -0.0014207292 1.4269029e-22)
(0.097781148 -0.0015468412 -3.6268697e-20)
(0.096591879 -0.0016406217 4.3172337e-24)
(0.095275751 -0.0010047239 -1.2217937e-21)
(0.094350245 -0.0010643217 -4.6949723e-21)
(0.093726521 -0.0011060602 1.3328549e-20)
(0.093431578 -0.00046184742 0)
(0.093213111 -0.00050655377 4.1557317e-22)
(0.093073909 -0.0002508686 -2.063431e-22)
(0.093091069 -2.5136955e-05 1.1595307e-21)
(0.092926329 -0.00014087295 -1.9842988e-20)
(0.093165498 2.606532e-05 -9.2807325e-22)
(0.093265671 -0.00057800108 5.9351667e-21)
(0.092997338 -0.00034046159 -4.5835307e-21)
(0.093596407 -0.0012643304 1.6224544e-20)
(0.094275745 -0.0021253361 -2.707884e-21)
(0.094244171 -0.0013650777 -2.1545007e-23)
(0.094754051 -0.0038460584 2.0732571e-21)
(0.096596162 -0.0054388918 2.603037e-21)
(0.097914379 -0.0043732498 -1.9839322e-21)
(0.097014325 -0.0061107652 -4.4628251e-20)
(0.098883118 -0.0080459228 -1.764895e-20)
(0.10238242 -0.0091768959 -1.0719928e-20)
(0.10326931 -0.010703354 -2.9258346e-20)
(0.10300726 -0.011781172 -2.5594968e-20)
(0.10341445 -0.01235519 1.0595065e-20)
(0.10371327 -0.0011574144 -1.6507857e-18)
(0.10071332 0.00034976517 -6.3001349e-23)
(0.10442751 -0.00078860146 6.7815125e-20)
(0.10320935 6.260954e-05 -7.0738328e-20)
(0.1010661 -0.002370297 8.6122212e-22)
(0.099129581 -0.0010964847 0)
(0.097868409 -0.0017745102 2.6843011e-20)
(0.096396126 -0.0011314498 4.9064833e-21)
(0.09511677 -0.0010596738 2.8861853e-21)
(0.094219753 -0.0011112678 -6.0586081e-21)
(0.093437028 -0.0010739959 -4.3712098e-23)
(0.093106225 -0.00076834025 9.5997574e-23)
(0.092911763 -0.00049402586 0)
(0.092808224 -0.00032657619 1.5780868e-20)
(0.092897504 -1.7090459e-05 -4.6839177e-21)
(0.092791776 0.00012337309 2.168566e-22)
(0.093180347 -0.00021070859 1.5170754e-20)
(0.093333808 -0.00041548598 1.205746e-20)
(0.093207738 -0.0004228313 1.3377565e-20)
(0.09387822 -0.0015260575 1.3384737e-20)
(0.094283838 -0.0018889123 -2.0136188e-20)
(0.094781501 -0.00073501946 1.4112393e-20)
(0.095877188 -0.0037753574 5.4371567e-20)
(0.096612898 -0.0059613532 7.097037e-21)
(0.097858197 -0.0044993786 7.8282434e-20)
(0.098098045 -0.0041286508 -1.7586368e-21)
(0.099377371 -0.0086246085 -7.0865102e-22)
(0.10200053 -0.0083319799 1.3238587e-20)
(0.10365166 -0.0077709066 3.1076772e-20)
(0.1036652 -0.0082577329 -3.2623356e-20)
(0.10410279 -0.010329182 -4.2893866e-20)
(0.10538943 0.00019910768 6.5915825e-20)
(0.1010403 0.00090989685 -2.8677963e-22)
(0.10472306 -0.0017184079 -2.5890886e-21)
(0.10370987 -0.001392637 2.9390751e-22)
(0.10139888 -0.0013642773 -4.4634979e-22)
(0.099458361 -0.0010773887 -1.948378e-19)
(0.098174019 -0.0020421683 5.8597654e-20)
(0.096557278 -0.00095360491 -4.8580481e-24)
(0.095254981 -0.0011710167 4.9393712e-21)
(0.094181019 -0.0011760799 2.7678586e-21)
(0.093343392 -0.00091980313 -1.5890896e-20)
(0.092997454 -0.0010764143 -1.0223082e-20)
(0.092790567 -0.00039212335 0)
(0.092710019 -0.0004356322 -3.283476e-22)
(0.092794664 -5.7462409e-05 -6.8991263e-21)
(0.092811903 0.00029231674 -1.0192043e-22)
(0.093247327 -0.00049959799 -3.4291791e-22)
(0.093360654 -3.2728624e-05 -7.0949241e-23)
(0.09346635 -0.00023189028 4.8417005e-22)
(0.094198739 -0.0015349273 -1.9495302e-22)
(0.09412812 -0.0019827639 1.9440333e-20)
(0.095078627 -0.00086179665 -8.1144121e-21)
(0.096922615 -0.0034030436 7.5651402e-22)
(0.096932271 -0.0047074038 1.0967825e-20)
(0.097330745 -0.0042428978 1.3967555e-20)
(0.099106345 -0.0030716782 2.1986012e-21)
(0.10054689 -0.0080237187 -4.7947558e-20)
(0.10127742 -0.0077409919 -4.3291405e-20)
(0.10304977 -0.0061682358 5.7322591e-22)
(0.10423948 -0.0057134771 1.4450865e-20)
(0.10536154 -0.0082309553 1.6646055e-21)
(0.10902839 0.0019934357 -9.0098409e-19)
(0.1020054 0.0016112589 0)
(0.10554312 -0.0018986367 2.030346e-20)
(0.10413456 -0.0026870798 -2.6757713e-20)
(0.10168878 -0.00041043395 -6.0335501e-20)
(0.099878327 -0.0013831325 -5.3660047e-20)
(0.09842621 -0.0019349127 -7.5098997e-23)
(0.096806509 -0.0011897118 6.6939011e-24)
(0.095426176 -0.0012907744 -4.8316282e-21)
(0.094273731 -0.0011908328 2.1994059e-21)
(0.093487101 -0.00079995759 9.2925755e-21)
(0.093065796 -0.001099964 6.757164e-23)
(0.092806073 -0.00034311459 1.2816802e-20)
(0.092756338 -0.00057967401 0)
(0.092774895 -0.00016018142 -9.0093239e-22)
(0.092951616 0.00015469634 -1.7295175e-21)
(0.093293588 -0.00085695803 3.6459444e-21)
(0.093301523 0.00013958049 -2.4310421e-20)
(0.09371352 -7.2431003e-05 -1.088372e-22)
(0.094557497 -0.0012263966 -9.9949001e-21)
(0.09404718 -0.0017781193 -2.2479804e-21)
(0.095170269 -0.0014408392 -3.0043981e-22)
(0.097371805 -0.0034292786 -1.625375e-20)
(0.097127371 -0.003204552 1.7154034e-20)
(0.096995426 -0.0031232672 2.5968554e-21)
(0.099715469 -0.0032118348 1.2035694e-20)
(0.10147976 -0.0061782984 3.632876e-20)
(0.1010699 -0.0066597095 1.3108781e-21)
(0.1023677 -0.0061511328 -6.566267e-20)
(0.10461095 -0.0054976981 3.2176112e-21)
(0.10699949 -0.0079886969 1.7693988e-20)
(0.11139056 0.0030109712 5.7144248e-19)
(0.10345846 0.001912396 -1.8580001e-19)
(0.10684232 -0.0014992511 7.9178785e-22)
(0.10491505 -0.0035034968 -9.4888259e-22)
(0.10231186 -2.0507159e-05 -4.8848441e-23)
(0.10063452 -0.0017881313 7.6476961e-20)
(0.098860581 -0.001471154 -4.0455599e-20)
(0.097123535 -0.0015094822 7.2603454e-23)
(0.095757266 -0.0015294954 -2.6588941e-22)
(0.094534424 -0.0011715199 -7.6384111e-21)
(0.093751029 -0.00088499154 2.4292255e-22)
(0.093214671 -0.00091580213 -4.4392332e-21)
(0.092969412 -0.00042023285 -5.0685248e-23)
(0.092923036 -0.00053691595 -1.2968029e-22)
(0.092828691 -0.00032507611 0)
(0.093133975 -0.00017476068 0)
(0.093328382 -0.0010473316 1.0665021e-20)
(0.093207816 -0.00010578673 5.9929491e-22)
(0.093863651 -0.00038786398 -1.731705e-20)
(0.094794243 -0.000945482 1.159478e-21)
(0.094081243 -0.0010322819 -1.8082527e-20)
(0.095241176 -0.0018288285 -1.0448373e-20)
(0.097354437 -0.003302598 0)
(0.096973703 -0.0024915073 0)
(0.096929474 -0.0020824735 0)
(0.09998285 -0.0041826258 2.2444067e-21)
(0.10188569 -0.0043298838 1.2263678e-22)
(0.10146416 -0.0051655959 -9.0414701e-21)
(0.10219271 -0.0064175136 8.3042891e-22)
(0.10461423 -0.0063356026 -7.2676467e-21)
(0.10821897 -0.0083276219 3.8576841e-21)
(0.11097989 0.0025728636 2.7406932e-19)
(0.10412889 0.0017712714 -2.8186282e-21)
(0.10762807 -0.00062837036 -6.3089666e-22)
(0.10543085 -0.0031069324 8.4987464e-20)
(0.10288012 -0.00023914268 0)
(0.10130003 -0.0018878926 -4.2873009e-22)
(0.099331953 -0.00080201172 2.7279119e-20)
(0.097632636 -0.001498085 3.392216e-20)
(0.096188723 -0.0016180276 8.0340658e-23)
(0.09491393 -0.00098059096 3.3830518e-20)
(0.094064076 -0.00098240962 9.5752965e-21)
(0.093491799 -0.00066747765 0)
(0.093232673 -0.00059374357 2.6585448e-20)
(0.093147643 -0.00036774645 1.7242626e-20)
(0.0930113 -0.00043747783 8.274796e-21)
(0.093370367 -0.00031038347 1.6567999e-22)
(0.093417307 -0.00064972917 2.7390186e-20)
(0.09317807 -0.00029203535 -2.2286215e-22)
(0.093855257 -0.0010256727 -1.5576918e-20)
(0.094738533 -0.00081855099 8.1861686e-22)
(0.094217136 -2.1379971e-05 1.9978525e-22)
(0.095450372 -0.0019424379 2.3303685e-20)
(0.09726295 -0.0022264527 -4.8474757e-22)
(0.096700304 -0.0016708059 0)
(0.097178935 -0.0015842749 4.2874019e-22)
(0.099941184 -0.0047569216 6.1931506e-21)
(0.10175219 -0.0033846323 1.3904771e-20)
(0.10209223 -0.0038539325 1.1527968e-20)
(0.1025184 -0.0059491807 -4.7805229e-20)
(0.1042843 -0.0068160606 5.119555e-21)
(0.10808634 -0.0083284919 1.0254997e-20)
(0.11116036 0.0010738035 -3.6811952e-19)
(0.1042768 0.00086688424 1.0109325e-19)
(0.10775955 -1.5718615e-05 1.6130196e-22)
(0.10562569 -0.0017316422 -5.483303e-20)
(0.10323416 -0.000944048 4.3892027e-20)
(0.1015284 -0.0017263276 2.7482696e-22)
(0.099614468 -0.00055646848 -1.0063146e-19)
(0.098011829 -0.0012878011 -2.6030761e-20)
(0.096376499 -0.0015526096 -1.9336541e-22)
(0.095095341 -0.00084341107 -2.2268045e-23)
(0.094345124 -0.0011134744 -3.6583994e-21)
(0.093768019 -0.00062387748 -2.9622769e-22)
(0.093469008 -0.00070294841 -2.5958367e-22)
(0.093363367 -0.00021677898 -9.5725732e-23)
(0.093206996 -0.00046486848 1.8649173e-20)
(0.093501894 -0.00049093411 4.13668e-23)
(0.093503357 -5.4498513e-05 -2.2261834e-20)
(0.09334092 -0.0001298027 -4.5372745e-22)
(0.093828456 -0.0013798134 -3.1320532e-22)
(0.094389284 -0.00071165421 0)
(0.094367474 0.0006162705 2.3369971e-20)
(0.095589804 -0.002453153 9.0987913e-22)
(0.097018128 -0.0012248797 -3.4596208e-20)
(0.096656169 -0.00040130308 1.8879816e-21)
(0.097686008 -0.0016759328 1.4493382e-20)
(0.099693167 -0.0047444184 -3.9767048e-20)
(0.10127813 -0.0030069856 -9.3448032e-21)
(0.1025555 -0.0028398771 1.2569017e-22)
(0.10333744 -0.0046647994 2.3943606e-21)
(0.10442177 -0.0064130469 6.1506181e-21)
(0.10693277 -0.0082026836 4.8380652e-21)
(0.11269749 -0.00073589709 2.6176244e-19)
(0.10481636 4.5719041e-05 -2.9087302e-22)
(0.10822569 0.00020036179 -1.3431174e-20)
(0.10596627 0.00016483158 8.9495835e-22)
(0.10354094 -0.0015825273 -1.2507367e-21)
(0.10171833 -0.0011558303 -4.4853999e-20)
(0.099943845 -0.00072699375 0)
(0.098399811 -0.00090775811 -1.7963929e-24)
(0.096589105 -0.001061797 7.7999997e-24)
(0.095291518 -0.0007939893 -5.8270362e-21)
(0.094526038 -0.00091419355 -3.9754384e-24)
(0.093880645 -0.00060359606 1.006698e-22)
(0.093582523 -0.00092122509 -1.0300044e-20)
(0.093514772 -0.00030547831 -3.0834203e-21)
(0.093361595 -0.00034367589 -2.3345305e-20)
(0.093467399 -0.00055421354 -3.0177669e-22)
(0.093435689 0.00032230834 -4.9727185e-23)
(0.093574916 0.00011110022 2.2120945e-22)
(0.093874174 -0.0012297605 0)
(0.093972927 -0.00041186023 -2.3860828e-20)
(0.09470366 0.00068023488 2.4316128e-20)
(0.095705728 -0.0028828525 -9.5819377e-21)
(0.096296092 -0.0011480866 -3.2326791e-20)
(0.096754309 0.00071967351 9.0996308e-24)
(0.098470037 -0.0017547905 1.6732145e-20)
(0.099617958 -0.0041377746 1.3162288e-20)
(0.10044101 -0.0029739893 -1.6075441e-21)
(0.10261707 -0.0021086748 3.6225649e-21)
(0.10394402 -0.0028891026 1.3458462e-20)
(0.10542103 -0.0050177779 1.7359919e-20)
(0.10651631 -0.0075968943 1.7933054e-22)
(0.11201528 -0.0017622351 5.3742738e-19)
(0.10513453 -0.00063969946 8.078391e-23)
(0.108673 -0.00022715012 -1.1716009e-21)
(0.10647238 0.0013196709 -1.4689411e-19)
(0.10404459 -0.0020096841 1.2216779e-21)
(0.10216962 -0.00071848443 -5.8989577e-21)
(0.10032112 -0.0013735846 0)
(0.098706203 -0.00088317537 0)
(0.096975611 -0.00058026123 -1.8076755e-20)
(0.095664181 -0.0010024381 0)
(0.094769242 -0.000639321 -4.9456209e-20)
(0.094171139 -0.00052859565 6.2460185e-21)
(0.09374909 -0.00088470889 0)
(0.093575819 -0.00045526846 2.4681138e-20)
(0.09346709 -0.00037199297 -1.8851641e-20)
(0.093451263 -0.00080833023 1.0212182e-20)
(0.093418873 -1.1746236e-05 2.0123212e-22)
(0.093855472 1.4227411e-05 -1.053998e-21)
(0.093960963 -0.00078057663 1.6069021e-21)
(0.093627814 -0.00018298983 -1.9711544e-20)
(0.095042997 0.00022418679 -2.1682643e-20)
(0.095890838 -0.0026794951 -3.9278772e-22)
(0.095374351 -0.0019351196 2.1202651e-20)
(0.096582336 0.00042997467 -6.824691e-21)
(0.099213722 -0.002111367 2.3465617e-21)
(0.099846456 -0.0034049208 3.2997648e-20)
(0.099637675 -0.0032364068 2.156747e-20)
(0.10200507 -0.0021898761 3.6715204e-21)
(0.10418077 -0.0013778749 9.7895812e-21)
(0.10653627 -0.0033162394 -4.2018275e-20)
(0.10734191 -0.0056701568 -4.2559424e-20)
(0.11174312 -0.0021720151 -5.4855021e-19)
(0.10494905 -0.00048101389 -2.1702593e-22)
(0.10851527 -0.00069678865 8.0435518e-20)
(0.10667051 0.0014774132 1.3930776e-19)
(0.10429057 -0.0017835187 -1.5298992e-19)
(0.10230355 -0.00030003844 2.9864386e-22)
(0.10049573 -0.0014730529 -7.2057863e-24)
(0.098785972 -0.00078539644 3.3246633e-20)
(0.097189016 -8.0844553e-05 4.3939922e-20)
(0.095859271 -0.0010148121 -1.3383283e-20)
(0.094897027 -0.00037392825 5.3703897e-21)
(0.094377028 -0.00039642377 -4.0223417e-22)
(0.093937678 -0.00082553408 1.4314626e-20)
(0.09375073 -0.00075477915 1.6248979e-20)
(0.093726633 -0.00023061361 -8.0562184e-21)
(0.093543447 -0.00051617581 2.5502942e-22)
(0.093309653 -0.00034519811 1.327618e-20)
(0.093865586 -0.00054236116 5.7344652e-21)
(0.094004074 -0.0006152338 -1.3988429e-21)
(0.093488439 -0.00030939261 6.5312065e-21)
(0.09524695 -0.0004292161 -6.7494614e-21)
(0.096234376 -0.0013167878 6.2587048e-21)
(0.094897579 -0.0016646411 -2.0973032e-20)
(0.096234284 -0.00045686935 1.8027884e-22)
(0.099496342 -0.002251411 -9.7059304e-21)
(0.10009962 -0.0020708505 -8.1986371e-21)
(0.09931869 -0.0027566286 -4.0107303e-22)
(0.10075876 -0.0024359322 -2.1460752e-20)
(0.10362337 -0.001009859 -1.5040808e-20)
(0.10691283 -0.0023939463 -2.4461342e-21)
(0.10809472 -0.003398547 -4.301171e-20)
(0.11329996 -0.00069485582 -6.2170023e-19)
(0.10495235 -5.1107705e-05 3.6585829e-23)
(0.10832577 -0.00088532975 3.5160149e-22)
(0.10689375 0.00012623832 8.7547484e-22)
(0.1045434 -0.0011842855 3.3084383e-20)
(0.10234315 -0.0005903026 -1.5316034e-19)
(0.10062544 -0.0014022624 5.0485258e-20)
(0.098803705 -0.00091863134 -1.1370625e-20)
(0.097278618 -0.00029195801 2.0190937e-21)
(0.095950769 -0.00088991984 3.8269347e-22)
(0.094950992 -0.0004497818 -1.0146705e-20)
(0.094569634 -0.00023631858 -2.68484e-20)
(0.094133155 -0.00018154452 5.3036015e-22)
(0.093727915 -0.0009503658 -9.4186668e-22)
(0.093651944 -0.00042395034 -1.0275374e-23)
(0.093683513 -0.00039313595 1.1244506e-20)
(0.093508468 -0.00062067815 3.1196468e-21)
(0.093910733 -0.00087005885 0)
(0.093957423 -0.00036584279 -6.8212534e-23)
(0.093395925 -0.00046122552 3.5300652e-22)
(0.094921375 -0.001547492 -1.8502921e-20)
(0.096305777 -6.5569686e-05 -6.9106462e-21)
(0.095033881 -0.00017938914 -2.4709008e-20)
(0.096044309 -0.0015462771 6.8260673e-21)
(0.099085433 -0.002520298 5.5660167e-21)
(0.10010756 -0.00069990369 -2.503086e-21)
(0.099620509 -0.0012580579 -5.2758174e-21)
(0.099902217 -0.0021257943 -2.3120206e-21)
(0.10277141 -0.0016891686 -4.8122036e-20)
(0.10663788 -0.0027577702 -1.3507967e-20)
(0.10782441 -0.0019129271 -8.134503e-21)
(0.11528181 0.0006488038 8.2440094e-20)
(0.10564452 0.0008618422 -4.3988482e-20)
(0.10888289 -0.00068209979 -2.112072e-20)
(0.10745079 -0.0015056501 9.1452186e-20)
(0.10497522 -0.0001672335 -4.742255e-22)
(0.10284231 -0.00076507551 -1.4286763e-22)
(0.10107713 -0.00054519105 6.2607546e-23)
(0.099050123 -0.00048301732 9.9132752e-21)
(0.097529581 -0.00060633436 1.9756091e-20)
(0.096123818 -0.00048129042 -6.5313916e-21)
(0.095002851 -0.00055328675 -4.6763297e-21)
(0.094516934 -0.00023668356 -1.1769238e-23)
(0.094312879 -2.8173872e-05 7.922594e-21)
(0.093980549 -0.00088661789 -1.4593445e-23)
(0.093732918 6.9189588e-05 -1.3596504e-20)
(0.093759441 0.00017514331 -1.3922361e-20)
(0.09350198 -0.00031890732 -1.4009866e-22)
(0.09377042 -0.001139553 8.539376e-23)
(0.093963914 7.7475307e-05 -1.0709405e-20)
(0.093715316 9.7968461e-05 6.3827813e-20)
(0.094605603 -0.0018574029 -9.9130454e-22)
(0.095803006 0.00069520435 4.9165097e-20)
(0.095390099 0.0016644661 1.78787e-21)
(0.096216895 -0.001652631 -2.2970821e-20)
(0.098215163 -0.0020747553 5.5641662e-21)
(0.099309499 0.00053506209 -1.5264866e-20)
(0.099822245 0.0011761769 6.4427565e-20)
(0.099890562 -0.00063618142 -2.3969793e-20)
(0.10212146 -0.0027075535 -7.5834963e-21)
(0.10581725 -0.003592469 2.1211697e-20)
(0.10692575 -0.0010292988 -1.0506229e-21)
(0.1142155 0.0025129849 -1.1002867e-18)
(0.10544823 0.0014587669 -3.0053078e-21)
(0.10895412 -5.028086e-05 -8.428655e-22)
(0.10714265 -0.0030558934 1.8434133e-21)
(0.10471948 0.00065521432 8.464815e-22)
(0.10285161 -0.0011915312 -7.5933241e-22)
(0.10104664 2.441418e-06 1.1441461e-22)
(0.099254064 -0.00021481819 -1.5878885e-22)
(0.097802648 -0.0012423808 1.2458617e-23)
(0.096435591 -1.1819852e-05 -2.0527542e-22)
(0.095357708 -0.00082327073 -3.4357164e-25)
(0.094855148 -0.00034864191 -3.0355719e-20)
(0.094685123 0.00048893934 1.1832655e-20)
(0.093982004 -0.00092875834 7.5624419e-23)
(0.093773392 -2.5540267e-05 8.9676596e-23)
(0.094145799 4.2480732e-05 3.2786433e-22)
(0.094152528 -0.00018920991 8.6626805e-22)
(0.093945896 -0.00033893251 2.8201184e-22)
(0.093812257 3.0956588e-05 4.015883e-20)
(0.094114947 0.00030611444 -5.9614135e-20)
(0.094501239 -0.0020775503 6.1046378e-21)
(0.095052104 -0.00027448436 -3.1758338e-22)
(0.095867369 0.0019121649 2.0101975e-22)
(0.096911296 -0.0016024047 5.9998829e-22)
(0.097433333 -0.0018740284 -1.2554159e-20)
(0.098288856 0.00051195419 2.5803247e-20)
(0.099993323 0.0027931485 -1.1520382e-21)
(0.10133635 0.0011535008 1.3814753e-21)
(0.10280012 -0.002814704 -1.5545236e-20)
(0.10459518 -0.0039759212 -7.69223e-21)
(0.10577518 -0.00012517494 1.4329867e-20)
(0.11004257 0.0016929079 -1.4676295e-20)
(0.10494572 0.001407307 2.0637523e-19)
(0.1087038 4.9690765e-05 1.9109073e-20)
(0.10686661 -0.0032387081 -1.7429035e-19)
(0.10477083 0.0010699901 -1.2587128e-19)
(0.10332457 -0.00049245737 5.6473374e-20)
(0.1018068 0.00048976494 1.079924e-19)
(0.100457 0.00039492894 3.3197517e-23)
(0.099032203 -0.0011727219 6.5121195e-21)
(0.097859761 0.00030562582 -2.4207853e-20)
(0.0969462 -0.00065385713 -3.018471e-20)
(0.096312358 -0.00034533022 4.3972389e-22)
(0.096435212 -0.00025289507 3.9858372e-20)
(0.095960622 -0.00039827149 2.6185896e-20)
(0.095453174 0.00061924519 -1.675394e-22)
(0.09580743 0.00026981407 2.1700692e-20)
(0.095620245 9.1045717e-05 -1.1703978e-22)
(0.095731166 -0.00099540752 -1.4654261e-22)
(0.095619216 0.000312025 -6.8724773e-22)
(0.096343738 0.00078085114 -2.8792508e-20)
(0.096550693 -0.0011076941 -7.2293571e-21)
(0.096087954 -0.00060995737 1.4205859e-22)
(0.097648336 0.0011274871 -1.753739e-21)
(0.099269131 -0.00087503054 8.5183928e-20)
(0.098866514 -0.00079892778 -2.5066307e-21)
(0.098715343 0.00018853534 -2.7911529e-20)
(0.10091144 0.0022749888 4.1582655e-21)
(0.10415767 0.0018658613 0)
(0.10597623 -0.0019815699 2.1085412e-20)
(0.10524982 -0.003144049 3.2175758e-20)
(0.10630526 0.00019105263 -1.7810125e-20)
(0.10872028 0.00077920744 2.3062384e-19)
(0.11095216 0.00040884291 0)
(0.10708496 0.00013594135 2.7261749e-22)
(0.11388395 -0.0012627233 -1.7922562e-20)
(0.11205461 0.00034780688 -1.0721262e-20)
(0.1099993 -0.000441969 1.2924423e-21)
(0.11251875 5.5965519e-05 6.8870089e-20)
(0.10711172 0.00018202616 -1.8358248e-21)
(0.10865837 -0.00040849634 -4.8667789e-22)
(0.10384046 0.00029592989 -5.8585084e-21)
(0.10599081 -0.00033738429 -1.0066126e-21)
(0.10525766 0.00025989921 -3.7988301e-22)
(0.099207293 0.0005944843 -9.524016e-21)
(0.10465846 -0.001333095 3.7831411e-21)
(0.10600821 0.000260614 -8.2164452e-21)
(0.098793353 8.3056057e-05 5.5226209e-23)
(0.10684181 -0.00020028125 -2.0200173e-21)
(0.10038556 0.0009609449 1.2607904e-21)
(0.10470688 -0.0017796058 -3.6158288e-20)
(0.10979624 0.00050527482 1.3925105e-22)
(0.10230471 -0.00061905684 5.1022192e-21)
(0.10988749 -0.00031762273 9.7987343e-22)
(0.10339546 0.00023455558 4.0213283e-21)
(0.11381364 -0.00038062669 9.0752175e-21)