-0.5 	1.0244754
-0.48412699 	1.0192338
-0.46825397 	1.0143648
-0.45238095 	1.0103764
-0.43650794 	1.0076914
-0.42063492 	1.0065463
-0.40476191 	1.0050151
-0.3888889 	1.0029785
-0.37301588 	1.0005764
-0.35714287 	0.99832652
-0.34126985 	0.99568769
-0.32539684 	0.99405746
-0.30952379 	0.99316083
-0.29365078 	0.99234959
-0.27777776 	0.99179239
-0.26190475 	0.99156987
-0.24603173 	0.99111614
-0.23015872 	0.98884031
-0.2142857 	0.98675092
-0.19841269 	0.98573426
-0.18253967 	0.98574141
-0.16666666 	0.98615689
-0.15079364 	0.98652174
-0.13492063 	0.98656139
-0.11904758 	0.98620199
-0.10317457 	0.98523723
-0.087301552 	0.98475786
-0.071428537 	0.98496729
-0.055555522 	0.98597026
-0.039682507 	0.98770229
-0.023809493 	0.9894668
-0.0079364777 	0.99094036
0.0079365373 	0.99122039
0.023809552 	0.99060986
0.039682567 	0.9904457
0.055555582 	0.99137323
0.071428597 	0.99238464
0.087301612 	0.99271848
0.10317463 	0.99256271
0.11904764 	0.99250805
0.13492066 	0.99227547
0.15079367 	0.99228852
0.16666669 	0.99270646
0.1825397 	0.99339137
0.19841272 	0.99289031
0.21428573 	0.99239264
0.23015875 	0.99266786
0.24603176 	0.99446828
0.26190484 	0.99495681
0.27777785 	0.99425864
0.29365087 	0.99307779
0.30952388 	0.99197181
0.3253969 	0.99157295
0.34126991 	0.99241756
0.35714292 	0.99315465
0.37301594 	0.99196714
0.38888895 	0.9901064
0.40476197 	0.9898172
0.42063499 	0.99129577
0.436508 	0.99126961
0.45238101 	0.99150549
0.46825403 	0.99149908
0.48412704 	0.98052252
0.5 	0.9747308
