/*--------------------------------*- C++ -*----------------------------------*\
| =========                 |                                                 |
| \\      /  F ield         | OpenFOAM: The Open Source CFD Toolbox           |
|  \\    /   O peration     | Version:  2406                                  |
|   \\  /    A nd           | Website:  www.openfoam.com                      |
|    \\/     M anipulation  |                                                 |
\*---------------------------------------------------------------------------*/
FoamFile
{
    version     2.0;
    format      ascii;
    arch        "LSB;label=32;scalar=64";
    class       volScalarField;
    location    "70";
    object      k_0;
}
// * * * * * * * * * * * * * * * * * * * * * * * * * * * * * * * * * * * * * //

dimensions      [0 2 -2 0 0 0 0];

internalField   nonuniform List<scalar> 
20580
(
3.115087e-06
2.2879508e-06
1.844495e-06
1.5592026e-06
1.3500858e-06
1.1849051e-06
1.0563162e-06
9.5548051e-07
8.7577932e-07
8.1116005e-07
7.575967e-07
7.1134357e-07
6.7522538e-07
6.4121184e-07
6.1394034e-07
5.8948377e-07
5.7077988e-07
5.5200151e-07
5.415755e-07
5.2863233e-07
5.1965233e-07
5.1387288e-07
5.000147e-07
5.0098042e-07
5.05888e-07
5.1607137e-07
5.2600621e-07
5.3814885e-07
5.6091176e-07
5.9354346e-07
6.5735921e-07
3.1652379e-06
2.3404682e-06
1.8618012e-06
1.5711217e-06
1.3593644e-06
1.1919696e-06
1.0618584e-06
9.6234092e-07
8.8247352e-07
8.1676871e-07
7.6312579e-07
7.1553496e-07
6.8014257e-07
6.4461233e-07
6.1743463e-07
5.9228514e-07
5.7269192e-07
5.5546624e-07
5.4531601e-07
5.3400605e-07
5.2651194e-07
5.2295213e-07
5.0997109e-07
5.0754277e-07
5.1099779e-07
5.2270461e-07
5.3665612e-07
5.4930184e-07
5.6672752e-07
5.9302988e-07
6.5154836e-07
3.1629018e-06
2.3897044e-06
1.891023e-06
1.5875357e-06
1.3684418e-06
1.1984192e-06
1.0686274e-06
9.6830389e-07
8.8827573e-07
8.2146878e-07
7.6836011e-07
7.2063626e-07
6.8498424e-07
6.4901104e-07
6.2135393e-07
5.9688325e-07
5.74658e-07
5.5831858e-07
5.4712969e-07
5.3556336e-07
5.2879249e-07
5.2641966e-07
5.180066e-07
5.1220006e-07
5.1422903e-07
5.2319276e-07
5.3578487e-07
5.4910695e-07
5.6750769e-07
5.9073771e-07
6.4325312e-07
3.1609697e-06
2.3933702e-06
1.9141996e-06
1.6068559e-06
1.3829882e-06
1.2112736e-06
1.0781315e-06
9.75636e-07
8.9303765e-07
8.266001e-07
7.7232044e-07
7.2446306e-07
6.8867738e-07
6.5317376e-07
6.2446526e-07
6.0088889e-07
5.7798824e-07
5.6107652e-07
5.4935602e-07
5.3742525e-07
5.3039266e-07
5.2715034e-07
5.2230235e-07
5.1688252e-07
5.1775469e-07
5.237038e-07
5.3757736e-07
5.4737964e-07
5.6392833e-07
5.8278512e-07
6.235293e-07
3.1630931e-06
2.3888597e-06
1.9344998e-06
1.6468234e-06
1.4194924e-06
1.2381034e-06
1.0936122e-06
9.8699071e-07
8.9972935e-07
8.3238758e-07
7.7672102e-07
7.296811e-07
6.9131953e-07
6.5832754e-07
6.2814116e-07
6.0470254e-07
5.8236177e-07
5.6574337e-07
5.52006e-07
5.4061807e-07
5.3299217e-07
5.2838489e-07
5.2451909e-07
5.2254217e-07
5.2333812e-07
5.2721032e-07
5.44068e-07
5.5451503e-07
5.7012964e-07
5.8815895e-07
6.1627577e-07
3.1628913e-06
2.3844991e-06
1.9375875e-06
1.6775301e-06
1.4645993e-06
1.2802832e-06
1.1274925e-06
1.0116722e-06
9.1479289e-07
8.4224414e-07
7.8338683e-07
7.3538945e-07
6.9385235e-07
6.6143086e-07
6.3158231e-07
6.0737432e-07
5.856372e-07
5.699389e-07
5.5621772e-07
5.4410556e-07
5.3660566e-07
5.315121e-07
5.2680041e-07
5.2637522e-07
5.2752965e-07
5.297533e-07
5.4288978e-07
5.675836e-07
5.8538278e-07
6.1458578e-07
6.2847512e-07
3.1624247e-06
2.3858539e-06
1.9336592e-06
1.677615e-06
1.4686092e-06
1.2986987e-06
1.1581224e-06
1.0456158e-06
9.4772851e-07
8.658709e-07
7.9827317e-07
7.4585935e-07
7.0036021e-07
6.6603813e-07
6.3519503e-07
6.0980856e-07
5.8779768e-07
5.7161385e-07
5.5840113e-07
5.4731431e-07
5.3937968e-07
5.3393667e-07
5.2865815e-07
5.273643e-07
5.2789134e-07
5.2781373e-07
5.3619138e-07
5.6165391e-07
5.8579286e-07
6.160627e-07
6.4315403e-07
3.1663383e-06
2.3813707e-06
1.913144e-06
1.6422963e-06
1.4470897e-06
1.2920948e-06
1.1642053e-06
1.0622463e-06
9.7446888e-07
9.0060273e-07
8.3109956e-07
7.6868715e-07
7.1604506e-07
6.7586194e-07
6.4268807e-07
6.1478495e-07
5.9168699e-07
5.7371225e-07
5.5952462e-07
5.494282e-07
5.4077202e-07
5.3408592e-07
5.2955704e-07
5.2872144e-07
5.2868053e-07
5.2646215e-07
5.2864412e-07
5.4350347e-07
5.6965742e-07
5.9549543e-07
6.3556831e-07
3.2068579e-06
2.4237993e-06
1.9259439e-06
1.6310547e-06
1.4223593e-06
1.2673457e-06
1.1494184e-06
1.0568462e-06
9.7680318e-07
9.0964207e-07
8.529464e-07
7.9946884e-07
7.50895e-07
7.0163224e-07
6.6158326e-07
6.2819024e-07
6.0158779e-07
5.7959017e-07
5.6299302e-07
5.5257306e-07
5.4253084e-07
5.349184e-07
5.3236368e-07
5.3282637e-07
5.3303182e-07
5.3175597e-07
5.3265068e-07
5.4359584e-07
5.6458449e-07
5.8111557e-07
6.1236732e-07
3.3718336e-06
2.8539995e-06
2.1126625e-06
1.7295409e-06
1.4703194e-06
1.2817988e-06
1.1463428e-06
1.0397889e-06
9.6116061e-07
8.9862859e-07
8.4944678e-07
8.0745247e-07
7.744866e-07
7.4036428e-07
7.0582115e-07
6.706203e-07
6.3813678e-07
6.0446545e-07
5.7902781e-07
5.6332351e-07
5.4897633e-07
5.3874139e-07
5.376683e-07
5.3744355e-07
5.3962276e-07
5.4291212e-07
5.4590935e-07
5.5453605e-07
5.7377856e-07
5.9363918e-07
6.2065027e-07
3.2583749e-06
2.9849941e-06
2.5647092e-06
2.1783654e-06
1.7695993e-06
1.4353153e-06
1.2187711e-06
1.0702634e-06
9.6936102e-07
8.9514196e-07
8.4209881e-07
8.0205665e-07
7.7362048e-07
7.4609424e-07
7.2098072e-07
6.9689987e-07
6.7395106e-07
6.4976635e-07
6.2429078e-07
6.0221985e-07
5.7920813e-07
5.6050336e-07
5.5202221e-07
5.4705289e-07
5.4464084e-07
5.491951e-07
5.5493765e-07
5.6320701e-07
5.8216839e-07
6.1081391e-07
6.4351181e-07
2.9817309e-06
2.7110446e-06
2.5586584e-06
2.3980496e-06
2.1516207e-06
1.8832521e-06
1.5817506e-06
1.2867666e-06
1.0920011e-06
9.6600245e-07
8.8257483e-07
8.2452407e-07
7.8393429e-07
7.5271221e-07
7.2557426e-07
7.0170752e-07
6.8114211e-07
6.6051663e-07
6.4126397e-07
6.2401889e-07
6.0518947e-07
5.8977781e-07
5.8175138e-07
5.7187575e-07
5.6201987e-07
5.5926794e-07
5.6363757e-07
5.6738487e-07
5.7708449e-07
5.9705456e-07
6.3782441e-07
3.2704455e-06
2.5799703e-06
2.2723586e-06
2.1055575e-06
2.0062846e-06
1.8679669e-06
1.7405e-06
1.6349941e-06
1.5000461e-06
1.3391948e-06
1.1863816e-06
1.0418572e-06
9.4109581e-07
8.701539e-07
8.1492467e-07
7.6944089e-07
7.3228622e-07
7.0044768e-07
6.7584405e-07
6.537304e-07
6.3149011e-07
6.1400915e-07
6.0431537e-07
5.9407153e-07
5.8226684e-07
5.7519715e-07
5.7501074e-07
5.7607956e-07
5.7913892e-07
5.871342e-07
6.1081482e-07
3.2587784e-06
2.7273744e-06
2.2543911e-06
1.9903294e-06
1.7667671e-06
1.6255455e-06
1.5340561e-06
1.5178241e-06
1.4778031e-06
1.461521e-06
1.4507059e-06
1.4436925e-06
1.4174872e-06
1.3680736e-06
1.2994038e-06
1.2138195e-06
1.1182006e-06
1.0250761e-06
9.3822726e-07
8.5139775e-07
7.7828276e-07
7.235604e-07
6.8683779e-07
6.5981011e-07
6.3542661e-07
6.2100581e-07
6.1035113e-07
6.0716035e-07
6.0427901e-07
6.0762154e-07
6.1892952e-07
3.1378373e-06
2.5092823e-06
2.1893234e-06
1.9803206e-06
1.7534481e-06
1.5785822e-06
1.4205546e-06
1.2859266e-06
1.2626229e-06
1.2679575e-06
1.2910846e-06
1.3420929e-06
1.3960266e-06
1.423436e-06
1.4320867e-06
1.4311131e-06
1.4113197e-06
1.3708085e-06
1.3175566e-06
1.2690355e-06
1.1985027e-06
1.119783e-06
1.0423847e-06
9.7285292e-07
8.9995595e-07
8.3965191e-07
7.8880679e-07
7.4909522e-07
7.1383007e-07
7.0157853e-07
6.8429071e-07
3.132502e-06
2.4207094e-06
2.0363605e-06
1.841179e-06
1.6554022e-06
1.5008949e-06
1.3625899e-06
1.2407214e-06
1.1579609e-06
1.1050317e-06
1.0794548e-06
1.0813641e-06
1.1062026e-06
1.1432563e-06
1.1754779e-06
1.2023749e-06
1.2193543e-06
1.2278892e-06
1.2260815e-06
1.2165128e-06
1.2015549e-06
1.178891e-06
1.1445628e-06
1.1262591e-06
1.1039202e-06
1.0857154e-06
1.0572878e-06
1.0459846e-06
1.0206651e-06
1.0010363e-06
9.5734059e-07
3.1926224e-06
2.4720506e-06
2.0044272e-06
1.7336839e-06
1.5391235e-06
1.3943406e-06
1.2732187e-06
1.1707228e-06
1.0912124e-06
1.0330199e-06
9.9362376e-07
9.7158329e-07
9.5385426e-07
9.4425938e-07
9.3567755e-07
9.3069232e-07
9.2784195e-07
9.2516744e-07
9.2985578e-07
9.3560069e-07
9.5978628e-07
9.8258444e-07
9.8998139e-07
1.0030573e-06
1.024285e-06
1.038112e-06
1.0338892e-06
1.0306564e-06
1.0400792e-06
1.051059e-06
1.0467199e-06
3.1830472e-06
2.4904048e-06
2.0298635e-06
1.7625686e-06
1.5592526e-06
1.3965202e-06
1.2648448e-06
1.1575293e-06
1.0713553e-06
1.0040079e-06
9.5526468e-07
9.227801e-07
8.9793226e-07
8.7919358e-07
8.6289771e-07
8.4767629e-07
8.3440756e-07
8.2205521e-07
8.1109722e-07
8.0016996e-07
7.9883889e-07
8.0073885e-07
7.9666907e-07
7.9617125e-07
8.1042046e-07
8.2981077e-07
8.4712386e-07
8.5989605e-07
8.8802068e-07
9.1561175e-07
9.5674013e-07
3.195042e-06
2.469136e-06
1.9946234e-06
1.7557248e-06
1.56128e-06
1.4063853e-06
1.276268e-06
1.1698755e-06
1.0796549e-06
1.0079504e-06
9.4965982e-07
9.0299583e-07
8.6389303e-07
8.3411327e-07
8.0925004e-07
7.8774976e-07
7.7136278e-07
7.5680744e-07
7.4436374e-07
7.3375879e-07
7.3085923e-07
7.3133896e-07
7.2738471e-07
7.2381235e-07
7.2996373e-07
7.4069403e-07
7.4895355e-07
7.552597e-07
7.7106364e-07
7.8531439e-07
8.1217532e-07
3.2852676e-06
2.7366283e-06
2.1188823e-06
1.8283508e-06
1.6003367e-06
1.4374883e-06
1.3057014e-06
1.20203e-06
1.1138709e-06
1.041815e-06
9.8229947e-07
9.3417006e-07
8.8980863e-07
8.5765105e-07
8.2702161e-07
8.0489025e-07
7.8648638e-07
7.6812093e-07
7.5781794e-07
7.5262989e-07
7.5270993e-07
7.5583893e-07
7.5656307e-07
7.5531618e-07
7.6222871e-07
7.7571622e-07
7.921056e-07
8.0140754e-07
8.0936339e-07
8.1940078e-07
8.2105426e-07
3.3019941e-06
2.9624752e-06
2.55261e-06
2.3574313e-06
2.1578661e-06
2.0233659e-06
1.8963737e-06
1.7960096e-06
1.7148656e-06
1.6237922e-06
1.5466554e-06
1.4767577e-06
1.4145847e-06
1.3650402e-06
1.3190177e-06
1.2896712e-06
1.2551917e-06
1.2317994e-06
1.2343736e-06
1.2526584e-06
1.2578084e-06
1.2639524e-06
1.2503081e-06
1.2343062e-06
1.2414697e-06
1.2729342e-06
1.3040832e-06
1.3064541e-06
1.2943296e-06
1.2804132e-06
1.2052477e-06
4.5575323e-06
1.0515053e-05
7.8395364e-06
7.8417778e-06
7.3215558e-06
6.8914712e-06
6.9641447e-06
6.3869469e-06
6.6742652e-06
6.026961e-06
6.1313418e-06
5.6453987e-06
5.7300007e-06
5.3864993e-06
5.3856424e-06
5.2915137e-06
5.1436614e-06
5.0952506e-06
5.2663086e-06
5.4097754e-06
5.3768938e-06
5.3219304e-06
5.0639583e-06
4.8972009e-06
4.8503285e-06
4.8952815e-06
4.9144339e-06
4.8749616e-06
4.7685321e-06
4.6118027e-06
4.220299e-06
2.0689058e-05
8.6456603e-05
4.7462739e-05
5.560573e-05
3.9015459e-05
4.2374602e-05
3.2726576e-05
3.6504865e-05
3.0226553e-05
3.4119894e-05
2.8624922e-05
3.1549459e-05
2.6819726e-05
2.8941617e-05
2.503969e-05
2.5538544e-05
2.4358475e-05
2.2841409e-05
2.1223513e-05
2.0508275e-05
2.0586282e-05
1.9963352e-05
1.9150057e-05
1.7648533e-05
1.6764507e-05
1.5567787e-05
1.475789e-05
1.4254853e-05
1.3673182e-05
1.3091921e-05
1.212388e-05
1.1218589e-05
4.2983706e-06
1.2976297e-06
8.5079949e-07
8.248268e-07
9.3815043e-07
1.0464648e-06
9.8736873e-07
7.4348077e-07
6.5887387e-07
6.4711624e-07
6.705553e-07
6.7561891e-07
6.4898771e-07
6.360316e-07
6.5816117e-07
6.9175271e-07
6.8639739e-07
6.6879465e-07
6.6315557e-07
6.8185139e-07
6.9741006e-07
6.9576623e-07
9.9782132e-06
4.529761e-06
1.3852753e-06
8.7637254e-07
8.2948992e-07
9.0385573e-07
1.0511147e-06
1.0498503e-06
8.3504745e-07
7.019018e-07
6.7447515e-07
7.0919237e-07
7.3687289e-07
7.2129506e-07
6.8985214e-07
6.9907342e-07
7.4686164e-07
7.4393726e-07
7.1138034e-07
7.0530799e-07
7.2790694e-07
7.5863416e-07
7.5273361e-07
8.7280203e-06
4.8332124e-06
1.5863737e-06
9.3885189e-07
8.6773556e-07
9.242122e-07
1.0774705e-06
1.1190582e-06
9.8219968e-07
7.8320056e-07
7.0926979e-07
7.2712004e-07
7.8485383e-07
7.8634448e-07
7.561677e-07
7.5007483e-07
8.0136577e-07
8.1920117e-07
7.9602822e-07
7.7546712e-07
7.8113437e-07
8.2538322e-07
8.3782007e-07
7.6266535e-06
5.0047606e-06
1.8354197e-06
1.0512227e-06
9.3665747e-07
9.7305651e-07
1.1244257e-06
1.2011827e-06
1.0973706e-06
8.6445007e-07
7.5723448e-07
7.6369598e-07
8.3762316e-07
8.5006769e-07
8.2428898e-07
8.0776984e-07
8.3721634e-07
8.8549285e-07
8.8319237e-07
8.6447818e-07
8.5946012e-07
8.9935186e-07
9.033526e-07
7.2008813e-06
5.1647714e-06
2.0117933e-06
1.132851e-06
9.8837439e-07
1.0140527e-06
1.156613e-06
1.2714699e-06
1.2200582e-06
1.0156226e-06
8.7154269e-07
8.4602256e-07
9.1611317e-07
9.33338e-07
9.1064633e-07
8.7078601e-07
8.7341714e-07
9.4482806e-07
9.604921e-07
9.5852441e-07
9.3189692e-07
9.5253314e-07
9.6476268e-07
7.550679e-06
5.3113869e-06
2.1748731e-06
1.2018825e-06
1.0254932e-06
1.0526895e-06
1.1850049e-06
1.3696577e-06
1.3374914e-06
1.1304352e-06
9.8205883e-07
9.3393666e-07
1.0183421e-06
1.052778e-06
1.0265581e-06
9.9092854e-07
9.5920653e-07
1.0422445e-06
1.0777528e-06
1.0660743e-06
1.0345809e-06
1.0121246e-06
1.0542068e-06
8.2072711e-06
5.410232e-06
2.403055e-06
1.3432341e-06
1.1117976e-06
1.1264911e-06
1.242462e-06
1.5127253e-06
1.5254997e-06
1.3373695e-06
1.0872766e-06
1.0024257e-06
1.0554277e-06
1.1516935e-06
1.1441553e-06
1.1360538e-06
1.1217711e-06
1.1494125e-06
1.2056757e-06
1.1917174e-06
1.1801987e-06
1.1466613e-06
1.1731104e-06
9.1849881e-06
5.5396085e-06
2.641175e-06
1.5234495e-06
1.2566207e-06
1.2802268e-06
1.353166e-06
1.6505641e-06
1.6705959e-06
1.4943443e-06
1.2404213e-06
1.1077263e-06
1.1190605e-06
1.235637e-06
1.2481761e-06
1.2367235e-06
1.2356444e-06
1.2288663e-06
1.3129197e-06
1.3166859e-06
1.2924698e-06
1.2806225e-06
1.2596629e-06
1.0936416e-05
5.7718543e-06
2.8470666e-06
1.6805051e-06
1.3873022e-06
1.4315712e-06
1.4894948e-06
1.8410067e-06
1.9576831e-06
1.8050175e-06
1.5202977e-06
1.3238086e-06
1.2572338e-06
1.4004889e-06
1.4029311e-06
1.3697937e-06
1.3386896e-06
1.3035622e-06
1.3917676e-06
1.430332e-06
1.4046388e-06
1.4100749e-06
1.3835899e-06
1.3539977e-05
6.1052691e-06
3.0322879e-06
1.8147121e-06
1.4985215e-06
1.566888e-06
1.6283834e-06
2.0672622e-06
2.1606939e-06
2.0287983e-06
1.7238871e-06
1.5250332e-06
1.453211e-06
1.58698e-06
1.6394293e-06
1.5688988e-06
1.5511939e-06
1.503634e-06
1.527758e-06
1.6133454e-06
1.5808195e-06
1.5863838e-06
1.5710885e-06
1.6835345e-05
6.5791106e-06
3.2487107e-06
1.9855919e-06
1.6422981e-06
1.6857413e-06
1.7277158e-06
2.2061377e-06
2.4505347e-06
2.3370928e-06
1.9837727e-06
1.7452757e-06
1.6378459e-06
1.7521611e-06
1.8585093e-06
1.7823933e-06
1.7523398e-06
1.7252244e-06
1.7084766e-06
1.833348e-06
1.8724191e-06
1.8363035e-06
1.8588435e-06
2.0536061e-05
7.2591592e-06
3.5137855e-06
2.2503745e-06
1.9392587e-06
1.9655871e-06
1.9417788e-06
2.3878995e-06
2.7952911e-06
2.7140092e-06
2.3674705e-06
2.0128658e-06
1.8169834e-06
1.8879485e-06
2.0234459e-06
1.9768649e-06
1.9079223e-06
1.9063612e-06
1.8833563e-06
2.0038778e-06
2.0844896e-06
2.0070199e-06
2.0151833e-06
2.4917416e-05
8.5558968e-06
3.9016983e-06
2.5960456e-06
2.3537842e-06
2.4346871e-06
2.3302187e-06
2.7315333e-06
3.2548485e-06
3.1370585e-06
2.702536e-06
2.3794306e-06
2.1251488e-06
2.1193294e-06
2.2822604e-06
2.259394e-06
2.1414398e-06
2.1535341e-06
2.1177389e-06
2.1853072e-06
2.2835264e-06
2.2453969e-06
2.1910508e-06
3.032332e-05
1.0150869e-05
4.3245209e-06
2.8868737e-06
2.7455808e-06
2.9956016e-06
2.9613423e-06
3.3414774e-06
3.9145206e-06
3.7453715e-06
3.1704448e-06
2.8037984e-06
2.5285446e-06
2.474261e-06
2.7242465e-06
2.7716846e-06
2.6162358e-06
2.6261744e-06
2.553977e-06
2.5115487e-06
2.6386628e-06
2.5644008e-06
2.3820271e-06
3.8100113e-05
1.2454473e-05
4.8719208e-06
3.1287485e-06
2.9882699e-06
3.305722e-06
3.3209498e-06
3.9096712e-06
4.5773177e-06
4.3211574e-06
3.5573892e-06
3.1348576e-06
2.8626343e-06
2.7833375e-06
3.1095732e-06
3.2529824e-06
3.1197297e-06
3.1088967e-06
3.1119915e-06
3.0637916e-06
3.2065369e-06
3.1471397e-06
2.8715237e-06
4.6832521e-05
1.5116016e-05
5.5802216e-06
3.4256474e-06
3.2462109e-06
3.7670172e-06
3.9693978e-06
4.6345202e-06
5.2144691e-06
4.908658e-06
3.9846451e-06
3.4848077e-06
3.163605e-06
3.0490881e-06
3.3811663e-06
3.5306779e-06
3.4159778e-06
3.3796266e-06
3.4275195e-06
3.3981249e-06
3.5202411e-06
3.5471869e-06
3.3079271e-06
5.6779067e-05
1.9233568e-05
6.7189502e-06
3.9725847e-06
3.7345622e-06
4.385305e-06
4.6624175e-06
5.5922939e-06
6.3833194e-06
5.9517421e-06
4.7273881e-06
4.1195599e-06
3.6547486e-06
3.4811003e-06
3.7688772e-06
3.8692378e-06
3.6713327e-06
3.6058756e-06
3.6449816e-06
3.6250021e-06
3.8393847e-06
3.9269121e-06
3.8140159e-06
6.4721517e-05
2.4442006e-05
9.2018459e-06
5.3107041e-06
4.9278714e-06
5.6356639e-06
5.9060178e-06
7.2797941e-06
8.2447247e-06
7.6688019e-06
6.1136262e-06
5.429604e-06
4.7506624e-06
4.498989e-06
4.6953831e-06
4.6876471e-06
4.2442938e-06
4.123405e-06
4.1466328e-06
4.0806445e-06
4.1708239e-06
4.2633386e-06
4.1010983e-06
6.7992804e-05
2.7977191e-05
1.1715536e-05
6.9899412e-06
6.4775915e-06
7.6003297e-06
8.2005831e-06
9.2501192e-06
9.7696866e-06
8.6148525e-06
6.7727596e-06
6.430086e-06
5.9980115e-06
5.8675271e-06
6.1479719e-06
6.0181779e-06
5.2250956e-06
5.0912919e-06
5.1023989e-06
5.0705538e-06
5.1236188e-06
5.1278682e-06
4.6630005e-06
6.3975476e-05
2.8469889e-05
1.2611864e-05
7.9499093e-06
7.5497429e-06
9.2965392e-06
1.0211234e-05
1.0609714e-05
1.0596123e-05
8.9649433e-06
7.0140737e-06
6.8870416e-06
6.6943293e-06
6.6560157e-06
6.9256301e-06
6.610987e-06
5.7215433e-06
5.7465701e-06
5.9962724e-06
6.0330671e-06
6.0693129e-06
5.9768219e-06
5.128062e-06
5.5117129e-05
2.8026692e-05
1.2708006e-05
8.5707809e-06
8.3627224e-06
1.0547711e-05
1.1954287e-05
1.2126606e-05
1.1635145e-05
9.21195e-06
7.246789e-06
7.3107998e-06
7.3164877e-06
7.3847514e-06
7.5524324e-06
6.9888984e-06
5.8867434e-06
6.0740311e-06
6.6632991e-06
7.0465774e-06
7.1616919e-06
6.6552014e-06
5.507821e-06
4.4410796e-05
2.5360871e-05
1.2210436e-05
9.0383086e-06
9.2977635e-06
1.2781844e-05
1.5310153e-05
1.5367031e-05
1.3979888e-05
9.6732269e-06
7.9092678e-06
8.5119477e-06
8.6931063e-06
8.8196353e-06
8.9090453e-06
7.4207563e-06
6.1332686e-06
6.3978786e-06
7.2443111e-06
7.6577123e-06
7.7409047e-06
6.9261667e-06
5.9810147e-06
3.4520049e-05
2.2303869e-05
1.191321e-05
9.6837072e-06
1.1305566e-05
1.8811831e-05
2.4314522e-05
2.3985587e-05
1.8400915e-05
1.0577065e-05
9.0904787e-06
1.0183857e-05
1.1538043e-05
1.1909907e-05
1.0687925e-05
7.6617407e-06
6.7222739e-06
7.3219422e-06
8.6743076e-06
8.9516584e-06
8.7317492e-06
7.0121629e-06
6.7019203e-06
2.6636009e-05
2.0142645e-05
1.206374e-05
1.0471171e-05
1.3392093e-05
2.5408166e-05
3.3281485e-05
3.1318185e-05
2.0393395e-05
1.2122361e-05
1.1383101e-05
1.3688171e-05
1.4759113e-05
1.42387e-05
1.1952441e-05
8.5555306e-06
8.44333e-06
1.0054146e-05
1.0983533e-05
1.1083675e-05
8.7953044e-06
7.4077711e-06
8.0309169e-06
2.1226393e-05
1.8705097e-05
1.2424361e-05
1.1420273e-05
1.5127512e-05
2.9256038e-05
3.7235265e-05
3.4012809e-05
2.0768453e-05
1.347324e-05
1.3169974e-05
1.5686552e-05
1.6361427e-05
1.5932225e-05
1.2585307e-05
1.0021233e-05
1.0651005e-05
1.3683772e-05
1.4242384e-05
1.2290905e-05
9.0654765e-06
8.54601e-06
9.5994317e-06
1.8390224e-05
1.7729556e-05
1.3113235e-05
1.2750231e-05
1.7536826e-05
3.3659484e-05
4.0706454e-05
3.6423569e-05
2.1082402e-05
1.5349415e-05
1.5443881e-05
1.8690731e-05
1.9768215e-05
1.8012709e-05
1.3340514e-05
1.2187604e-05
1.5243122e-05
1.742953e-05
1.6357637e-05
1.2330954e-05
9.9997832e-06
1.0247526e-05
1.175551e-05
1.7101219e-05
1.7413025e-05
1.4515094e-05
1.4457975e-05
2.0656563e-05
4.1325883e-05
4.8449114e-05
4.0236587e-05
2.3206316e-05
2.0046493e-05
2.2362666e-05
2.463985e-05
2.2696198e-05
1.8445369e-05
1.4549658e-05
1.4863219e-05
1.9062266e-05
1.9747786e-05
1.7814285e-05
1.2922724e-05
1.1850508e-05
1.36989e-05
1.4061921e-05
1.6339975e-05
1.7642334e-05
1.6137413e-05
1.7245605e-05
2.9012607e-05
5.3287629e-05
5.7225597e-05
4.1499016e-05
2.6085406e-05
2.4001213e-05
2.7970072e-05
3.0043076e-05
2.8009048e-05
1.9085873e-05
1.6589673e-05
1.9389777e-05
2.3637235e-05
2.3866475e-05
1.7574703e-05
1.4773184e-05
1.6108087e-05
1.6597033e-05
1.4793233e-05
1.6443834e-05
1.8727744e-05
1.9104232e-05
2.2797308e-05
3.9107826e-05
5.6255331e-05
5.7960129e-05
4.1584272e-05
2.9974119e-05
3.0076963e-05
3.6668251e-05
3.7491826e-05
2.8411278e-05
2.1254656e-05
2.1758975e-05
2.7233054e-05
2.8195983e-05
2.3175912e-05
1.8847166e-05
1.8257531e-05
1.9258359e-05
1.7760688e-05
1.6769462e-05
1.6786315e-05
2.0098485e-05
2.1152378e-05
2.5838677e-05
4.2412108e-05
5.561414e-05
5.7215672e-05
4.3197895e-05
3.7061509e-05
3.7276172e-05
4.0659447e-05
3.9726907e-05
3.0656684e-05
2.8455333e-05
2.9535722e-05
3.0329216e-05
2.8585871e-05
2.3496182e-05
2.1786486e-05
2.2445875e-05
2.1677276e-05
2.0416076e-05
2.0835778e-05
1.6882242e-05
2.0530793e-05
2.1457601e-05
2.6434353e-05
4.417124e-05
5.54566e-05
5.6078847e-05
4.4515686e-05
4.1095276e-05
4.3162474e-05
4.5257205e-05
4.0674315e-05
3.4342497e-05
3.2315673e-05
3.2612576e-05
3.2869631e-05
2.8362498e-05
2.6282588e-05
2.6086576e-05
2.5495325e-05
2.4571739e-05
2.5056806e-05
3.0226624e-05
1.7211094e-05
2.0609218e-05
2.168564e-05
2.6823658e-05
4.4236003e-05
5.3383522e-05
5.2265613e-05
4.7457294e-05
4.8571839e-05
4.8619021e-05
4.4550681e-05
3.8455409e-05
3.5841608e-05
3.7008997e-05
3.7349268e-05
3.2258096e-05
2.8968128e-05
2.8178215e-05
2.8427707e-05
2.7694264e-05
2.8496946e-05
3.3601936e-05
3.4677623e-05
1.8215799e-05
2.1736577e-05
2.2537239e-05
2.8154276e-05
4.3698685e-05
4.988089e-05
5.1189791e-05
4.9996476e-05
4.9596056e-05
4.6582628e-05
4.0946656e-05
3.8926546e-05
4.1946869e-05
4.301222e-05
3.6986382e-05
3.2772506e-05
3.2323754e-05
3.4200658e-05
3.083847e-05
3.0139069e-05
3.4495871e-05
3.8254888e-05
3.7995327e-05
1.970417e-05
2.6054472e-05
2.7111116e-05
3.5195526e-05
4.5192739e-05
4.8181085e-05
4.8142772e-05
4.8202483e-05
4.75815e-05
4.4503986e-05
4.0978072e-05
4.0764874e-05
4.3649678e-05
4.3233417e-05
3.7485353e-05
3.6120016e-05
3.6767004e-05
3.3949464e-05
3.0804135e-05
3.1067868e-05
3.7295035e-05
4.1622297e-05
4.3588053e-05
2.0165782e-05
2.9720437e-05
3.4755293e-05
4.5960685e-05
4.9434733e-05
4.7055129e-05
4.5915952e-05
4.7715503e-05
4.8180469e-05
4.4640984e-05
4.254678e-05
4.5034454e-05
4.6299092e-05
4.1997732e-05
3.7565958e-05
3.7141014e-05
3.7709499e-05
3.5641085e-05
3.4675061e-05
3.803258e-05
4.7509115e-05
5.5955712e-05
7.050629e-05
1.8384141e-05
2.9827995e-05
3.572279e-05
4.7630389e-05
5.2040066e-05
5.0321092e-05
4.6758578e-05
4.8477077e-05
4.9232579e-05
4.5622775e-05
4.3623315e-05
4.6751745e-05
4.9266658e-05
4.3833161e-05
3.7613218e-05
3.7707699e-05
4.0453405e-05
4.0288008e-05
3.7492115e-05
3.8641638e-05
4.6872472e-05
5.5279823e-05
6.4381676e-05
1.7186285e-05
2.8317445e-05
3.5028518e-05
4.7457123e-05
5.3300634e-05
5.3411047e-05
5.2277123e-05
5.3368635e-05
5.3386826e-05
4.7633992e-05
4.4049961e-05
4.6215173e-05
4.947475e-05
4.6128468e-05
3.9026723e-05
3.752951e-05
4.0211428e-05
4.188523e-05
3.9740413e-05
3.9275491e-05
4.4844929e-05
5.4676073e-05
5.7910356e-05
1.7360221e-05
2.5157441e-05
3.2991452e-05
4.4555421e-05
5.2718101e-05
5.418992e-05
5.4843988e-05
5.7778876e-05
5.813892e-05
5.2623499e-05
4.4435017e-05
4.5169095e-05
4.8795327e-05
4.8232326e-05
4.183829e-05
3.8317489e-05
3.9636677e-05
4.2144383e-05
4.0591752e-05
3.9079336e-05
4.1398971e-05
5.0535165e-05
5.2868042e-05
1.8778955e-05
2.3190563e-05
3.1111374e-05
3.7463978e-05
4.7407501e-05
5.1473405e-05
5.4050593e-05
5.783056e-05
5.8709344e-05
5.5642515e-05
4.7042647e-05
4.5132682e-05
4.7729481e-05
4.9648678e-05
4.6228471e-05
4.0046216e-05
4.0095909e-05
4.2432568e-05
4.2042963e-05
3.9413087e-05
3.9616302e-05
4.5326748e-05
4.8052309e-05
2.0565908e-05
2.2804685e-05
2.9859024e-05
3.2626467e-05
3.8403225e-05
4.2807925e-05
4.9052273e-05
5.5650926e-05
5.8154798e-05
5.6561706e-05
4.995115e-05
4.6387089e-05
4.7436038e-05
4.9655365e-05
4.8743242e-05
4.2172975e-05
4.0311587e-05
4.1656308e-05
4.2916477e-05
4.1256195e-05
3.9658034e-05
4.1549134e-05
4.4399392e-05
2.1431738e-05
2.1712925e-05
2.8024185e-05
2.9638668e-05
3.3375379e-05
3.6729308e-05
4.1632495e-05
5.0035917e-05
5.522013e-05
5.5350354e-05
5.1068299e-05
4.7358181e-05
4.7638878e-05
4.9637078e-05
4.9388545e-05
4.5510787e-05
4.0425443e-05
4.0457521e-05
4.2081008e-05
4.2676065e-05
4.1026319e-05
4.1456161e-05
4.2617646e-05
2.2678279e-05
2.0622246e-05
2.5669625e-05
2.751497e-05
3.0076146e-05
3.394309e-05
3.8329867e-05
4.5645457e-05
5.1340938e-05
5.1915977e-05
5.0099902e-05
4.6772055e-05
4.6628385e-05
4.8336114e-05
4.9109616e-05
4.7509411e-05
4.2019121e-05
4.0262826e-05
4.1023802e-05
4.2629885e-05
4.2634754e-05
4.2031056e-05
4.2263359e-05
3.351374e-05
2.1831344e-05
2.4715987e-05
2.5314643e-05
2.6697767e-05
2.9931091e-05
3.4250445e-05
4.2551735e-05
4.9076331e-05
5.0102839e-05
4.8923952e-05
4.5912068e-05
4.5084103e-05
4.607079e-05
4.8009712e-05
4.7657149e-05
4.4977765e-05
4.13331e-05
4.1202031e-05
4.2246774e-05
4.3143663e-05
4.3363496e-05
4.2809849e-05
4.8647999e-05
2.5582108e-05
2.5023122e-05
2.3426979e-05
2.3399132e-05
2.4924244e-05
2.8268441e-05
3.5992404e-05
4.5628922e-05
4.874771e-05
4.8380001e-05
4.622807e-05
4.4825964e-05
4.5179417e-05
4.6681565e-05
4.714694e-05
4.6229948e-05
4.277029e-05
4.1573632e-05
4.1856003e-05
4.272362e-05
4.359301e-05
4.3319044e-05
5.5341318e-05
2.7498045e-05
2.5850173e-05
2.2966696e-05
2.0739955e-05
2.1217485e-05
2.3202313e-05
2.8386695e-05
3.8869197e-05
4.5849202e-05
4.7383529e-05
4.6312165e-05
4.5027933e-05
4.5129758e-05
4.6213741e-05
4.6749812e-05
4.6359115e-05
4.4812582e-05
4.2046682e-05
4.1386486e-05
4.1586563e-05
4.2490859e-05
4.3256441e-05
5.4863788e-05
2.745457e-05
2.7029714e-05
2.2900646e-05
1.9544808e-05
1.9606486e-05
2.0825982e-05
2.4373326e-05
3.3129854e-05
4.1229502e-05
4.4324143e-05
4.4613965e-05
4.4294319e-05
4.4363814e-05
4.5238091e-05
4.5987606e-05
4.5969306e-05
4.5532756e-05
4.394569e-05
4.1946832e-05
4.1551047e-05
4.1928228e-05
4.2986364e-05
5.2436129e-05
2.7027812e-05
2.7259335e-05
2.2632142e-05
1.9328029e-05
1.9312015e-05
2.0360649e-05
2.3394581e-05
3.114468e-05
3.8933708e-05
4.2288727e-05
4.2694278e-05
4.2502406e-05
4.2753529e-05
4.3571333e-05
4.4919717e-05
4.5484067e-05
4.5573697e-05
4.5183614e-05
4.3754472e-05
4.2551215e-05
4.2455084e-05
4.3024716e-05
4.8192556e-05
2.6210206e-05
2.7167352e-05
2.2719077e-05
1.9811684e-05
1.9572418e-05
2.0547135e-05
2.3506334e-05
3.1076272e-05
3.870849e-05
4.2110049e-05
4.2531851e-05
4.1990789e-05
4.1447249e-05
4.1812839e-05
4.3020993e-05
4.4534154e-05
4.5180814e-05
4.5094993e-05
4.4252384e-05
4.3155558e-05
4.2785055e-05
4.2900743e-05
4.3472684e-05
2.5647213e-05
2.6894954e-05
2.3334713e-05
2.1248231e-05
2.1069886e-05
2.2172852e-05
2.5287522e-05
3.2756206e-05
4.0032291e-05
4.3303561e-05
4.3535752e-05
4.232181e-05
4.0360416e-05
3.9847817e-05
4.0102849e-05
4.0895365e-05
4.2223209e-05
4.3029086e-05
4.3189236e-05
4.2651886e-05
4.2367733e-05
4.263981e-05
3.9107565e-05
2.5044298e-05
2.7098677e-05
2.5125475e-05
2.3991214e-05
2.4860697e-05
2.7728662e-05
3.2023169e-05
3.8924276e-05
4.4428725e-05
4.6122624e-05
4.5211996e-05
4.2086647e-05
3.9295561e-05
3.8482955e-05
3.8515257e-05
3.8955594e-05
3.993527e-05
4.0655306e-05
4.105379e-05
4.1340156e-05
4.1460132e-05
4.2003215e-05
3.5191047e-05
2.4017566e-05
2.8795729e-05
3.0134476e-05
3.0514745e-05
3.2825331e-05
3.6570382e-05
4.0286739e-05
4.4273296e-05
4.6562401e-05
4.651007e-05
4.4799927e-05
4.0881995e-05
3.850924e-05
3.8265883e-05
3.8544879e-05
3.938095e-05
4.0283222e-05
4.0808447e-05
4.0996989e-05
4.1032197e-05
4.0931261e-05
4.1128116e-05
2.9688122e-05
2.34674e-05
2.8756831e-05
3.2295228e-05
3.472245e-05
3.7633638e-05
4.1095746e-05
4.3802621e-05
4.580682e-05
4.6651781e-05
4.6072414e-05
4.3472162e-05
4.0022716e-05
3.8241615e-05
3.7972353e-05
3.8560417e-05
4.0123043e-05
4.129607e-05
4.1645017e-05
4.158002e-05
4.1425037e-05
4.0981064e-05
4.0995811e-05
4.269818e-05
2.5832474e-05
2.7785109e-05
3.1886418e-05
3.506462e-05
3.8344763e-05
4.176884e-05
4.4276829e-05
4.5876017e-05
4.6328666e-05
4.5672099e-05
4.3392305e-05
4.0260455e-05
3.8413302e-05
3.7679461e-05
3.7446925e-05
3.8573988e-05
3.9906411e-05
4.0761106e-05
4.0916857e-05
4.0930521e-05
4.0493193e-05
4.1675518e-05
6.0324418e-05
2.5823681e-05
2.5658515e-05
2.9402306e-05
3.3832028e-05
3.7556354e-05
4.1125169e-05
4.374815e-05
4.534957e-05
4.571836e-05
4.5399738e-05
4.4202274e-05
4.2002412e-05
4.0169205e-05
3.8480793e-05
3.6615902e-05
3.5104314e-05
3.3543138e-05
3.3423011e-05
3.3050756e-05
3.3484801e-05
3.3518205e-05
3.5607634e-05
6.4263115e-05
2.0785596e-05
1.8802322e-05
2.1186358e-05
2.6629897e-05
3.2061524e-05
3.6781825e-05
4.0356066e-05
4.2735671e-05
4.3876656e-05
4.4273308e-05
4.3834396e-05
4.2495204e-05
4.0826473e-05
3.9177745e-05
3.65534e-05
3.3474675e-05
2.878331e-05
2.4037418e-05
2.0162814e-05
1.8345414e-05
1.7585365e-05
1.9790691e-05
5.9319271e-05
1.8157328e-05
1.2004875e-05
1.2830724e-05
1.5246182e-05
1.9382032e-05
2.3754999e-05
2.8441637e-05
3.2813026e-05
3.6626192e-05
3.9168939e-05
3.995426e-05
3.9574882e-05
3.8511169e-05
3.6903097e-05
3.403903e-05
2.8436959e-05
2.1029254e-05
1.5687719e-05
1.2115815e-05
1.0311345e-05
9.6360202e-06
1.0749927e-05
5.5130045e-05
2.4386414e-05
1.1576736e-05
1.0102139e-05
1.0791846e-05
1.2533265e-05
1.4798861e-05
1.7671352e-05
2.0604664e-05
2.3164552e-05
2.4963034e-05
2.5746395e-05
2.5748296e-05
2.5168438e-05
2.3661419e-05
2.1005014e-05
1.7118196e-05
1.4155465e-05
1.194733e-05
1.0239447e-05
9.2711066e-06
9.0922048e-06
8.1269629e-06
7.6781288e-05
2.7618619e-05
1.3863008e-05
1.1101831e-05
1.0871268e-05
1.1525078e-05
1.2434736e-05
1.3566032e-05
1.4617607e-05
1.5453375e-05
1.6006496e-05
1.6346089e-05
1.6476278e-05
1.6491173e-05
1.6373161e-05
1.6112486e-05
1.5564596e-05
1.4668657e-05
1.3999517e-05
1.3900349e-05
1.4325612e-05
1.6485168e-05
9.2035105e-06
7.3322352e-05
3.2443067e-05
1.9774615e-05
1.5798723e-05
1.3394612e-05
1.2866212e-05
1.3181577e-05
1.3808088e-05
1.4586588e-05
1.5458013e-05
1.6325331e-05
1.7299064e-05
1.8334289e-05
1.9638914e-05
2.1213764e-05
2.3350418e-05
2.5938281e-05
2.9845985e-05
3.4433253e-05
4.1777418e-05
4.7533834e-05
5.930894e-05
5.7754911e-05
7.62343e-05
4.974415e-05
3.1583835e-05
2.2736863e-05
1.9579388e-05
1.8384028e-05
1.864828e-05
1.9887668e-05
2.2596559e-05
2.6258033e-05
3.0618713e-05
3.5943922e-05
4.2420909e-05
5.0366046e-05
5.9215784e-05
6.8494071e-05
7.7628649e-05
8.6447479e-05
9.3853288e-05
0.00010003292
0.00010374185
0.00010801315
0.00010847707