/*--------------------------------*- C++ -*----------------------------------*\
| =========                 |                                                 |
| \\      /  F ield         | OpenFOAM: The Open Source CFD Toolbox           |
|  \\    /   O peration     | Version:  2406                                  |
|   \\  /    A nd           | Website:  www.openfoam.com                      |
|    \\/     M anipulation  |                                                 |
\*---------------------------------------------------------------------------*/
FoamFile
{
    version     2.0;
    format      ascii;
    arch        "LSB;label=32;scalar=64";
    class       volScalarField;
    location    "70";
    object      rho_0;
}
// * * * * * * * * * * * * * * * * * * * * * * * * * * * * * * * * * * * * * //

dimensions      [1 -3 0 0 0 0 0];

internalField   nonuniform List<scalar> 
20580
(
1.0040174
1.0059119
1.0031058
1.0013244
1.0018222
1.0023826
1.002935
1.0015565
1.0027624
1.0037185
1.0032683
1.0036971
1.0039313
1.0042415
1.0032346
1.0040336
1.0046455
1.001405
1.0039975
1.0032965
1.0009238
1.0029479
1.0026209
1.0000515
0.9981986
1.0060217
1.0066221
0.99936014
1.0002868
0.9993849
0.99058452
1.0045215
1.0061324
1.0029567
1.0016308
1.0015515
1.002406
1.0028662
1.0016597
1.0028518
1.0038516
1.0029344
1.0035964
1.0043616
1.0038634
1.0033298
1.0046266
1.0036185
1.0013054
1.0053427
1.0021926
1.0008435
1.0038005
1.0018588
1.000224
1.0001623
1.0083317
1.0078366
0.99693792
0.99530358
1.0019688
0.998254
1.003911
1.0054053
1.0026022
1.0022601
1.001792
1.0024735
1.002412
1.0023629
1.0029368
1.0036575
1.0030985
1.0035196
1.0047196
1.0033311
1.0036823
1.0049202
1.0029821
1.0014191
1.0060102
1.0015721
1.0015349
1.0046492
1.0007999
1.0009351
1.0014189
1.0077646
1.0075444
0.99619286
0.99191835
1.002006
1.0058673
1.00238
1.0040702
1.0023087
1.0030184
1.0024251
1.0025556
1.0018122
1.0029962
1.0029673
1.0032724
1.0033778
1.0035565
1.0046831
1.0032372
1.0041422
1.0049636
1.0028625
1.0019353
1.0054758
1.0011841
1.002578
1.0050552
0.99944166
1.002167
1.0025843
1.0041536
1.0049949
0.99696883
0.99220762
1.0006119
1.0098991
1.0008392
1.0026417
1.0023642
1.0037113
1.0031319
1.0025438
1.0014822
1.0030847
1.0029376
1.0029067
1.0036231
1.0037159
1.0041715
1.0035993
1.0042121
1.004625
1.0028823
1.0029071
1.004129
1.0012618
1.0038943
1.004296
0.99810678
1.0033615
1.0038986
0.99971211
1.0012183
0.99910114
0.9953319
0.99975645
1.0092655
1.0000545
1.0018283
1.0029249
1.003916
1.0034185
1.0023344
1.0016592
1.0027644
1.0027737
1.0026533
1.0039107
1.0041061
1.0034925
1.0042252
1.0039033
1.0039595
1.0029827
1.003951
1.0026245
1.0014545
1.0047563
1.0033383
0.99681874
1.004145
1.0057331
0.99652554
0.99712939
1.0022709
1.0009346
0.99914719
1.0033574
1.0000394
1.002117
1.0037761
1.0034756
1.0030202
1.0019634
1.0023374
1.0023646
1.0025967
1.0027544
1.0040481
1.0043615
1.0031829
1.0046972
1.0037137
1.0033391
1.0031976
1.0047693
1.0012066
1.0018413
1.0046363
1.0023859
0.99654136
1.0040951
1.0076354
0.9962321
0.99366361
1.004408
1.0088012
1.0013488
0.995839
1.0008222
1.0032852
1.0044511
1.0028517
1.0022939
1.0016528
1.0031165
1.0021977
1.0026005
1.0031312
1.0040297
1.0041506
1.0035679
1.0045964
1.0039211
1.0029299
1.0034686
1.0051848
1.0004599
1.0030265
1.003856
1.001124
0.99740486
1.0032545
1.0079712
0.99874588
0.99260552
1.0035418
1.0138736
1.0069495
0.99360778
1.002186
1.0046881
1.0043983
1.0023259
1.0017611
1.0016673
1.0034288
1.0022962
1.0028178
1.0033104
1.0037281
1.0037537
1.0042791
1.0042883
1.0042461
1.0028219
1.0033357
1.004943
1.0004793
1.0040663
1.0027477
1.0003614
1.0000164
1.0025658
1.0058029
1.0019056
0.99509056
1.0008143
1.0116491
1.0110663
0.99752864
1.0037864
1.0058221
1.0034224
1.0019603
1.0016184
1.0021541
1.002865
1.0024405
1.0030218
1.0032952
1.0033092
1.0036102
1.0048014
1.0039324
1.0044159
1.0033378
1.0033422
1.0040072
1.0012666
1.0053482
1.0011702
0.99985467
1.0035803
1.0022176
1.0019526
1.0033301
1.0002149
0.9990972
1.0038155
1.0085207
1.0029818
1.0045293
1.0062785
1.0021376
1.0020348
1.0020659
1.002904
1.0018867
1.0026031
1.0030115
1.003316
1.0031194
1.0037604
1.0048177
1.0037895
1.0042581
1.004176
1.0034985
1.0026631
1.0021523
1.0062834
0.99998985
0.99917359
1.007032
1.0031049
0.99750729
1.0023056
1.0058113
1.0000976
0.99605628
0.9993825
1.0044666
1.0039336
1.0054663
1.0012665
1.0025671
1.0028006
1.0034951
1.0013606
1.0026531
1.0027997
1.0034759
1.0031634
1.003945
1.0044267
1.0039317
1.0037765
1.0047369
1.0035774
1.0015075
1.0028861
1.0062208
0.99969918
0.99875539
1.0091175
1.0049157
0.99444494
0.99957553
1.0092328
1.0042629
0.99275865
0.99020463
1.0004895
1.0025519
1.0039521
1.0013876
1.003112
1.00331
1.0035121
1.0017138
1.002529
1.0024713
1.0035043
1.0034267
1.0040659
1.0041364
1.0041908
1.0032645
1.0047074
1.0036576
1.0011061
1.0038002
1.005333
0.99975442
0.99875697
1.0089032
1.0060067
0.99421898
0.99677773
1.008965
1.008895
0.99503315
0.98722387
0.99454369
1.0009496
1.0026123
1.0026527
1.0033122
1.003245
1.0026738
1.0025094
1.0024304
1.0022968
1.0032462
1.0037609
1.003939
1.0042653
1.0042208
1.0033031
1.0044397
1.003835
1.001573
1.0043896
1.0034093
1.0006416
0.99987115
1.0066688
1.005412
0.99648474
0.9958804
1.0055846
1.010102
1.0010022
0.99123472
0.99256852
1.0000807
1.0019416
1.0044758
1.0034257
1.0028818
1.0017015
1.0031704
1.0023781
1.0025686
1.0029505
1.0039938
1.0036935
1.0045002
1.0040623
1.0039325
1.0041369
1.0038391
1.002385
1.0046067
1.0012061
1.0019442
1.0022057
1.0035817
1.0029121
0.99965634
0.9981779
1.0015889
1.0059519
1.005675
0.99977062
0.99631357
1.00022
1.0023383
1.0056291
1.0035294
1.0025378
1.001215
1.0033615
1.0024227
1.003234
1.0030249
1.0038293
1.0037592
1.0045479
1.0039914
1.0045105
1.0038191
1.0032076
1.0030317
1.0050468
0.99935904
1.0027103
1.0052709
1.0011818
0.99904851
1.00228
1.0031156
0.99958083
0.99865842
1.0046923
1.0074299
1.0041062
1.0011333
1.0036633
1.0052241
1.0032499
1.0023393
1.0014921
1.0029303
1.0026617
1.003695
1.0031964
1.0034052
1.00415
1.0043212
1.0041219
1.0048853
1.0035247
1.002553
1.0036419
1.0054849
0.99819805
1.0028963
1.008005
1.0004489
0.99548685
1.0035689
1.0085221
1.0006377
0.99318092
0.99863584
1.0097149
1.0108167
1.0028542
1.0052351
1.0033266
1.0027856
1.0022806
1.0024752
1.0022228
1.0028514
1.0035595
1.0031052
1.0032532
1.0045927
1.0038878
1.0043762
1.005154
1.0036438
1.0024462
1.0040472
1.0056042
0.9982867
1.0026371
1.0093398
1.0010694
0.9939956
1.0031727
1.0118454
1.0037687
0.99220918
0.99309342
1.0059265
1.0124891
1.0042586
1.0062764
1.0012867
1.0026535
1.002463
1.0035871
1.0018233
1.0029125
1.0027958
1.0028948
1.0033595
1.0048571
1.0036321
1.0046895
1.0052911
1.0039223
1.0026479
1.0041672
1.0051878
0.99951543
1.0022964
1.0085291
1.0023799
0.99507446
1.0019795
1.0114666
1.0064198
0.99460938
0.99242114
1.0001798
1.0086484
1.004325
1.0061673
1.0005449
1.0026794
1.0027148
1.0039325
1.0019795
1.0028578
1.0019442
1.0029075
1.0035924
1.0047895
1.0037398
1.0048689
1.0050881
1.0038316
1.0030629
1.0040955
1.0039402
1.0013271
1.0022925
1.0054865
1.0033806
0.99821433
1.0016975
1.0068203
1.0059568
0.99912623
0.99607532
0.99779384
1.0022514
1.0031525
1.0048024
1.001472
1.002785
1.0027926
1.0033161
1.002308
1.0025313
1.0018308
1.003029
1.0037835
1.004372
1.0041296
1.0049038
1.0045332
1.0036864
1.0037629
1.0041429
1.0020362
1.0035449
1.0032197
1.0019675
1.0026971
1.0025015
1.0030731
1.0014696
1.001119
1.0028665
1.0023882
0.99985761
0.99731234
1.0012668
1.0031144
1.0037284
1.0030884
1.0028567
1.0021312
1.0027575
1.0024649
1.0027833
1.0033369
1.0039023
1.0036316
1.0047648
1.0048814
1.0039038
1.0040999
1.0047509
1.0042361
1.0003042
1.0054845
1.0050598
0.99945051
1.0004943
1.0061973
1.0058237
0.9987128
0.99529858
1.0031356
1.0090977
1.0052688
0.99708678
1.0000333
1.0029561
1.0058283
1.0044581
1.0031585
1.0019535
1.003589
1.0031671
1.0043261
1.0038523
1.0041492
1.0033738
1.0054452
1.0051435
1.0038594
1.0045634
1.0059479
1.0049344
0.99933779
1.0063833
1.0073389
0.99887779
0.99842616
1.0074294
1.0092166
0.99911758
0.9922171
1.0001073
1.0118575
1.0106337
1.00027
0.99278455
0.99507496
0.99947463
1.0039332
1.0063687
1.0054132
1.0015954
0.99857853
0.99994915
1.005292
1.0102608
1.0099441
1.0034523
0.9937221
0.98708299
0.98827487
0.99704201
1.0064877
1.0080543
1.0034713
0.99918209
0.99751109
0.99940225
1.0064756
1.0059109
1.0028322
0.99791351
0.99184361
0.98789385
0.98854638
0.99405602
1.0031084
1.010932
1.0129806
1.0089089
1.0022944
0.99806997
0.9979887
1.001039
1.0035539
1.0005435
0.99269584
0.98707208
0.98902883
0.99601788
1.0062302
1.0147694
1.0097793
1.0034934
0.99784399
0.99544931
0.99621697
0.99844406
1.0006627
1.0005843
0.99752947
0.99360049
0.99215047
0.99536471
1.0028833
1.0107437
1.0139209
1.0101724
1.0011552
0.99160627
0.98855595
0.99166649
0.99628471
0.99916464
0.99632258
0.99416888
0.99693222
1.0043572
1.0126083
1.0175895
1.0171695
1.0111645
1.000831
0.99099545
0.98635498
0.98767739
0.99312472
0.99880243
1.0016887
1.0008581
0.99892355
0.99832625
1.0014449
1.0081006
1.012367
1.0079558
0.99609221
0.98359874
0.9880586
0.99558209
1.0033119
1.0096421
1.0127473
1.0099538
1.0044919
1.0005433
1.0014294
1.0054564
1.0085413
1.0064116
0.99928195
0.98966212
0.98214329
0.98084324
0.98704601
0.99942005
1.0131631
1.0197212
1.0136851
1.000328
1.0043417
1.0048182
1.0024479
0.99843423
0.9926586
0.98742082
0.98506961
0.98697899
0.99499722
1.0065079
1.0169654
1.0214063
1.0176912
1.0074613
0.99587579
0.98903585
0.98823616
0.99113716
0.99462397
0.99660826
0.99593947
0.99345875
0.99186108
1.0228943
1.0171669
1.0080719
0.99884402
0.99060976
0.98583207
0.98582022
0.98812398
0.99186362
0.99593795
1.0002868
1.0018137
1.0017719
1.0022119
1.0057328
1.0119219
1.0163951
1.0135441
1.0036493
0.99020035
0.97769218
0.97031099
0.97100719
1.0061646
1.0032425
1.0026225
1.0038333
1.006898
1.0112585
1.0119928
1.0089896
1.0011149
0.99112692
0.98237414
0.97766862
0.97870918
0.98556181
0.99804179
1.0128499
1.0243907
1.0257925
1.0164796
1.0001297
0.98481357
0.97676076
0.97677019
0.98423036
0.98559368
0.9917559
1.0024137
1.0144264
1.0236018
1.0270009
1.0215932
1.012118
1.0003541
0.9901513
0.98539576
0.984078
0.98601606
0.98904532
0.99402973
0.99886667
1.0017708
1.0015652
1.0017103
1.0027484
1.0057554
1.0080614
0.98828176
0.99176991
0.99533937
0.99841901
1.0010694
1.0041799
1.0058878
1.0067006
1.0073307
1.0085757
1.0118632
1.0158091
1.0151403
1.0092362
0.99786243
0.98509624
0.97454043
0.970213
0.97118764
0.98049158
0.99721938
1.0179561
1.0346806
1.0163825
1.0119996
1.0039198
0.99508553
0.98763326
0.98297865
0.98117417
0.98279835
0.98875325
1.0011854
1.0177198
1.0329821
1.0389808
1.0307494
1.0136539
0.99329755
0.97574744
0.96596432
0.96396194
0.97040599
0.98319084
1.0017738
1.0211677
1.0299359
1.02172
1.0093579
0.99740098
0.98827142
0.98296724
0.98124437
0.98205462
0.98626312
0.9937805
1.0043141
1.015705
1.0238122
1.0255873
1.0189168
1.006516
0.99499804
0.98820448
0.98727613
0.98703078
0.98745871
0.99066772
0.9947319
1.0140841
1.0093977
1.0054898
1.0030466
1.0021635
1.0033593
1.0048431
1.0040537
0.99997324
0.99455229
0.99025737
0.99015495
0.99335759
0.99517526
0.99845181
1.0037578
1.0110199
1.0189063
1.0234113
1.0210169
1.0107443
0.99469689
0.98017331
0.99172404
0.9917056
0.99492888
1.0022168
1.0136798
1.0257494
1.0325216
1.0293301
1.0172404
1.0011092
0.98586597
0.97560739
0.97102479
0.97213735
0.97758362
0.98845448
1.0072376
1.0311335
1.0496314
1.0520579
1.0363067
1.0095972
0.98161249
0.98328542
0.98514411
0.99069285
1.001834
1.0169715
1.0323336
1.0414209
1.0398282
1.0259051
1.0059245
0.98761503
0.97499103
0.96884416
0.96827344
0.97302332
0.98367723
1.000965
1.0239996
1.0462086
1.0573081
1.049153
1.0243469
0.99422949
0.99152231
0.9934904
0.99590046
1.0020226
1.0122182
1.023569
1.0308257
1.0301031
1.0211619
1.0071398
0.99427082
0.9861072
0.98205222
0.98225047
0.98377571
0.98822932
0.99840637
1.013031
1.029475
1.0407639
1.0392049
1.0249122
1.0042341
1.0100108
1.0086238
1.0050181
1.0030046
1.0051077
1.0096079
1.0130365
1.0134585
1.0097238
1.0039345
0.99975942
0.99949986
1.0023366
1.0045942
1.0041051
1.0006973
0.99909523
1.0026984
1.0100968
1.0172636
1.0189654
1.0154491
1.0078348
1.0290282
1.0236473
1.0129677
1.0034149
0.99817283
0.99664016
0.99758929
0.9996593
1.0001899
1.0006975
1.0047373
1.0122902
1.0209712
1.0259012
1.0235756
1.0141894
1.0024552
0.9947626
0.9944209
0.99716183
1.0009292
1.0036298
1.0054583
1.0450435
1.035038
1.0184273
1.0026165
0.99301484
0.98923078
0.98916012
0.99203821
0.9944937
0.99839663
1.0074627
1.0215879
1.036099
1.0433268
1.0389152
1.0227656
1.0033486
0.98975739
0.98454304
0.98573066
0.99066591
0.99519223
1.002849
1.05579
1.0429388
1.0224016
1.0027634
0.99064798
0.98663015
0.98743997
0.9906137
0.9930421
0.99759742
1.0094084
1.0283268
1.0465725
1.0548561
1.0475894
1.0258723
1.0024901
0.98688371
0.98094359
0.98104799
0.98633898
0.99283166
1.0048516
1.0618587
1.0472358
1.0251946
1.0041292
0.99109685
0.98739796
0.98911011
0.99308364
0.99465821
0.99810789
1.0108729
1.0319641
1.0527194
1.0606889
1.051068
1.0260217
1.0006946
0.98580793
0.98082993
0.9815661
0.98804419
0.99407679
1.0089744
1.0626438
1.0473225
1.0252124
1.0050987
0.99422553
0.99295591
0.99610158
0.99909916
0.99849712
1.0019341
1.0139762
1.0345751
1.0545309
1.0619083
1.0491666
1.022205
0.99858412
0.98747082
0.98495504
0.98715799
0.99271599
0.999837
1.0168579
1.0544536
1.0421255
1.0233178
1.0069154
1.0000332
1.0027122
1.0077256
1.0103964
1.0071671
1.0061394
1.0154679
1.0336552
1.0507791
1.0558548
1.0403421
1.0164667
0.99877693
0.99345395
0.9954947
0.99906275
1.0028684
1.0082985
1.0255811
1.0395048
1.0316219
1.0188641
1.009563
1.0100645
1.0188453
1.0256793
1.0263409
1.0181226
1.0114427
1.015058
1.0289779
1.0401687
1.0415361
1.0259558
1.0087716
1.0032536
1.0071631
1.0141072
1.0185642
1.014414
1.0153003
1.0284149
1.0208687
1.0170913
1.0117363
1.0128735
1.0259134
1.0438666
1.0524318
1.0460179
1.0269058
1.01224
1.0099555
1.0168355
1.0212082
1.0193976
1.0084709
1.006797
1.0184111
1.0326256
1.0411844
1.0360242
1.0222474
1.0188131
1.0187429
1.0056146
1.0049351
1.0061979
1.0173856
1.0431272
1.069716
1.0780958
1.0608378
1.0300821
1.00791
1.0009424
1.002046
1.0023491
0.99881574
0.99885273
1.0184217
1.0485103
1.0667291
1.0634496
1.0396072
1.0187432
1.0099577
0.99813281
1.0098756
1.0065745
1.0079933
1.0227525
1.0528409
1.0826081
1.0876398
1.0620507
1.026561
1.0009732
0.99306295
0.98974859
0.99052265
0.98981188
1.0052077
1.0435939
1.0819751
1.0917004
1.0687699
1.0297237
1.0036981
0.98686845
0.97415637
1.0358964
1.0242789
1.0181907
1.0260173
1.0497279
1.0710639
1.0722057
1.0461389
1.0158345
0.99863817
0.99447472
0.99380125
0.9964046
1.0028079
1.0285934
1.0684843
1.0927669
1.0871775
1.0503855
1.0113099
0.98480141
0.96861675
0.96605079
1.0660707
1.0461066
1.0266038
1.0207921
1.0310698
1.0402975
1.0406124
1.0221435
1.0093605
1.0093852
1.0184598
1.0269278
1.0264164
1.0277239
1.0454905
1.0658909
1.0705909
1.0490433
1.0190122
0.9996357
0.98584361
0.97921787
0.98627728
1.0785177
1.0542243
1.0271119
1.0115558
1.0140914
1.0157191
1.0128082
1.0048737
1.0163177
1.0446625
1.0666449
1.0674269
1.0498397
1.0365641
1.0355447
1.0290869
1.0177228
1.0059964
1.0053963
1.0156753
1.0235927
1.0251693
1.0258196
1.0552434
1.0407361
1.0220859
1.0138575
1.0163914
1.0177705
1.0155404
1.0172123
1.039028
1.0741875
1.0930408
1.080713
1.0454771
1.0175012
1.0005961
0.98696621
0.98175249
0.99226537
1.0266584
1.0634216
1.08056
1.0680867
1.0370895
1.0245007
1.0172884
1.0153959
1.0289617
1.0491359
1.0564017
1.0449452
1.0384739
1.0495032
1.0653549
1.0678305
1.0479721
1.0221976
1.0041529
0.99133921
0.98691315
0.99207107
1.0180254
1.0614076
1.0916551
1.0893488
1.0577145
1.018291
1.0233274
1.0148063
1.0197283
1.0433298
1.0739574
1.0824585
1.0623466
1.0398947
1.0321259
1.0262545
1.01711
1.0068711
1.0113354
1.0287279
1.0360066
1.0344335
1.0333945
1.0405844
1.0488858
1.0499673
1.0401137
1.0274056
1.0154164
1.0580149
1.0363606
1.0281491
1.0404262
1.0569226
1.0618458
1.0467869
1.0304507
1.0193753
1.0061712
0.99795562
1.0015212
1.028808
1.0688946
1.0880688
1.0741261
1.041951
1.018362
0.99983237
0.99465018
1.002057
1.0243396
1.0501082
1.0698559
1.0481436
1.0295079
1.0273437
1.0268351
1.0207764
1.0172443
1.0269837
1.0414968
1.0408113
1.0309555
1.0301985
1.0493069
1.0693923
1.0702755
1.0519445
1.0239106
0.99535655
0.98113184
0.98891959
1.0157709
1.0519412
1.0733978
1.0455076
1.0371127
1.0305042
1.032197
1.0287649
1.0169485
1.0098126
1.0258498
1.0561534
1.0739353
1.0687422
1.0477459
1.0346898
1.0297753
1.0275234
1.0261461
1.028878
1.0316787
1.0248198
1.0210959
1.0232404
1.0305126
1.0325625
1.0243116
1.019369
1.0236768
1.0403588
1.0552672
1.0506626
1.0326965
1.0278401
1.0455906
1.0677015
1.0705025
1.0550741
1.0364706
1.018291
1.0066075
1.0027512
1.0114176
1.032519
1.0533871
1.0624145
1.0611583
1.0513908
1.0287753
1.0384498
1.0233748
1.0204953
1.0389093
1.0645848
1.0763847
1.0627785
1.0431122
1.0345057
1.0374189
1.0370091
1.0323479
1.0283355
1.0281123
1.0262672
1.0220565
1.0229767
1.0331697
1.0468286
1.0539337
1.0526472
1.0473585
1.0300049
1.0707393
1.0486945
1.0280182
1.0252459
1.0411278
1.0595357
1.058284
1.045976
1.0338652
1.0275468
1.0223623
1.0164409
1.0160157
1.0283865
1.0475338
1.0579275
1.0587045
1.0536537
1.0446188
1.0332342
1.0209802
1.0164759
1.0117437
1.0737002
1.0571594
1.0330771
1.0159738
1.0158683
1.0281689
1.0328213
1.0326257
1.0335368
1.0402636
1.0447025
1.0392046
1.0312819
1.0333336
1.0446825
1.0568571
1.0610092
1.0554442
1.0430988
1.0265268
1.0120487
1.0056322
1.0102972
1.0485915
1.0407041
1.0286218
1.0204567
1.0210732
1.0304635
1.0324171
1.0309854
1.032064
1.044364
1.0614723
1.0671959
1.0607866
1.0486858
1.0401635
1.0370658
1.0336949
1.0295741
1.025584
1.0203585
1.0178468
1.0203106
1.0295051
1.0398747
1.0327668
1.0259766
1.0281243
1.0397401
1.0577428
1.0619863
1.0531628
1.0396909
1.0364748
1.0442059
1.053822
1.0558865
1.0491127
1.0395526
1.0309687
1.0244899
1.0208797
1.0207417
1.0244823
1.0303902
1.0376776
1.0451602
1.058769
1.0478126
1.0340341
1.0296528
1.0383274
1.0575969
1.0689405
1.0645186
1.0476077
1.032191
1.0263623
1.0285047
1.0316371
1.0339612
1.0340878
1.0349425
1.0368227
1.038443
1.0422794
1.0472713
1.0511144
1.051441
1.0475248
1.0637419
1.0579827
1.0433625
1.0287361
1.0254157
1.0330387
1.0435077
1.0467108
1.0422921
1.0343854
1.0309902
1.0333199
1.0365792
1.0391933
1.0408585
1.0427596
1.046373
1.0489721
1.051033
1.0527222
1.0522766
1.0483973
1.0382551
1.0394965
1.0419723
1.0400782
1.0326319
1.0278818
1.0286606
1.0343924
1.0366663
1.0372204
1.0375576
1.0422416
1.0497471
1.0563752
1.0579551
1.0558208
1.0509575
1.0469359
1.0428947
1.0387394
1.0352917
1.0324269
1.0310653
1.027005
1.0254825
1.0258448
1.0310503
1.0337435
1.0372379
1.0423867
1.0492597
1.0491029
1.0455694
1.0428214
1.0442139
1.0478504
1.0522424
1.0521885
1.0481765
1.0425108
1.0377942
1.0342639
1.0327053
1.0313976
1.031239
1.0321902
1.0338079
1.0364746
1.0295055
1.0271142
1.0279204
1.0324031
1.0403502
1.0499567
1.0513079
1.0477595
1.0424061
1.0386633
1.0383585
1.039138
1.0385356
1.0361094
1.0333545
1.0328423
1.0353244
1.0402965
1.0455923
1.0490265
1.0496356
1.0483451
1.0404182
1.0332723
1.0279956
1.0245905
1.0250405
1.0308447
1.0391648
1.0416952
1.0411964
1.037847
1.0351737
1.0363468
1.039183
1.0423562
1.0440954
1.0448367
1.0446634
1.0459186
1.0482049
1.0504993
1.0512254
1.0488604
1.0435454
1.028089
1.0249578
1.0250646
1.0264259
1.0302177
1.0364296
1.0425918
1.0452462
1.0452182
1.0417985
1.0387046
1.0380407
1.0390934
1.0428842
1.0466342
1.0485277
1.0482382
1.0468318
1.0436619
1.0411671
1.038644
1.0369038
1.0353865
1.0258679
1.0235141
1.0268251
1.0328467
1.0388664
1.0441317
1.0466799
1.04609
1.0436565
1.0392836
1.0352081
1.0334596
1.0327241
1.034221
1.037846
1.0400585
1.0418413
1.0425669
1.0407379
1.0385381
1.0376192
1.0382579
1.0414744
1.0308536
1.0282035
1.0308939
1.0358119
1.0392894
1.0404675
1.0378691
1.0332695
1.028455
1.0250787
1.024174
1.0260759
1.0296493
1.0343203
1.0393137
1.0420362
1.0447314
1.0446476
1.0428551
1.0394074
1.0369024
1.0370206
1.0395119
1.0300585
1.0272991
1.0285528
1.0324303
1.0351047
1.0356541
1.0332649
1.0292256
1.0254188
1.0235222
1.0235092
1.0259375
1.03062
1.0352487
1.0382381
1.0385086
1.0393539
1.0369631
1.0349115
1.0318667
1.0300891
1.0298017
1.0333919
1.0294212
1.0266454
1.0272243
1.0296168
1.0308015
1.0318967
1.0320249
1.0300165
1.0280991
1.026638
1.0256269
1.0251295
1.0261672
1.0269791
1.0260531
1.0252395
1.0245149
1.0237657
1.0262843
1.0276804
1.0300934
1.0314179
1.0344639
1.0260552
1.0258442
1.026548
1.0271163
1.0277309
1.0294032
1.029527
1.028442
1.0282426
1.0266799
1.0253422
1.0241048
1.0228485
1.0230713
1.0214752
1.0203504
1.0188698
1.0181912
1.0203416
1.0218757
1.0247023
1.0257869
1.02609
1.0212284
1.0219593
1.0237604
1.024895
1.0254662
1.0269781
1.0269197
1.025934
1.0261845
1.0243723
1.0226621
1.0214445
1.0191796
1.0191852
1.0177142
1.0168662
1.0160385
1.013796
1.0127231
1.0119432
1.0128516
1.0126174
1.0137805
1.0183725
1.0172093
1.0170763
1.0180785
1.0182145
1.0190596
1.0188314
1.0180422
1.018393
1.0179309
1.0179779
1.0174564
1.0161615
1.0154512
1.012948
1.0128383
1.0120628
1.0098001
1.0092965
1.0080863
1.0067344
1.0081283
1.0095751
1.0156712
1.0121508
1.0096981
1.0096813
1.0100531
1.0109607
1.0109931
1.0105494
1.0109098
1.0107103
1.0124324
1.0125181
1.0118208
1.0121457
1.0086881
1.0078482
1.0062966
1.0043991
1.0050149
1.0043793
1.0046342
1.0048706
1.0056734
1.0149139
1.010957
1.0074132
1.0056215
1.0057303
1.0064433
1.0062873
1.0060135
1.0067342
1.0055812
1.0059382
1.0057429
1.0040659
1.0051491
1.0028004
1.0025668
1.0021244
1.0006231
1.0025294
1.0014233
1.0035383
1.0022111
1.002238
1.0116611
1.0086755
1.0063677
1.0041921
1.0027985
1.0022012
1.0026153
1.0027766
1.0038855
1.0033766
1.0025602
1.0027106
1.0006533
1.000891
1.000907
1.0001409
1.0017288
1.0010015
1.0020652
1.0010367
1.0012678
1.0003172
0.99990006
1.0075185
1.0058376
1.0046614
1.0040231
1.0035212
1.0020248
1.0019461
1.0017649
1.0012588
1.0021505
1.0013599
1.0011278
1.0009326
0.9995435
1.0005348
0.99991401
1.0009406
1.0008765
1.0006794
1.0004396
0.99897427
0.99926019
0.99928549
1.0068556
1.0043367
1.002915
1.0020527
1.0026017
1.0019311
1.0011191
1.00114
0.99968524
0.99971098
1.0001267
0.99963205
1.0009001
1.0006325
1.0008505
1.0014502
1.0009843
1.0010045
1.0001245
0.99958682
0.9980373
0.99853586
0.99815553
1.0051162
1.0023835
1.0010617
1.0000659
1.0000129
0.99995095
0.99954164
1.0004457
1.0001905
0.99979326
1.0011523
1.0007259
1.0009893
1.0014956
0.99981258
0.99964494
0.99924168
0.99818128
0.9982435
0.99837485
0.99804463
0.99831516
0.99919487
1.0027165
1.0008413
1.0002869
0.99916185
0.9988858
0.99964468
0.99926163
0.99944791
1.0006167
0.99990271
1.0000125
1.0002215
0.99874327
0.99886106
0.99854658
0.99760324
0.99832611
0.99801619
0.99874603
0.99933601
0.99853228
0.99912985
0.99799941
1.0014542
0.99945275
0.99910149
0.99922432
0.99871915
0.99919797
0.9995674
0.99888682
0.99938226
0.99908961
0.99820487
0.99864773
0.9977481
0.9978859
0.99892681
0.9980152
0.99906886
0.99896645
0.99823982
0.99891117
0.99745586
0.99693891
0.99629308
0.99956021
0.99841769
0.99860622
0.99914236
0.99848804
0.99848924
0.99920323
0.99853484
0.99848675
0.99860275
0.99729452
0.99778171
0.99847834
0.99768106
0.9979808
0.99756754
0.99783496
0.99779874
0.99627222
0.99653812
0.99639042
0.99647043
0.99727939
0.99796941
0.99818512
0.99854064
0.99856772
0.99808908
0.99800987
0.99819282
0.99753465
0.99719026
0.99748138
0.99689377
0.99693939
0.9975745
0.99673181
0.99710114
0.99753963
0.99634732
0.99690136
0.996859
0.99635761
0.99658883
0.99696419
0.99697246
0.99764497
0.99739305
0.99759436
0.99773017
0.99765566
0.99755636
0.9976317
0.99746185
0.99689118
0.99676361
0.99682207
0.99652878
0.99678636
0.99687345
0.99655438
0.99676424
0.9963217
0.99584865
0.9961014
0.9966107
0.99683201
0.99678489
0.99584017
0.99737592
0.99722699
0.9973284
0.99756678
0.99748343
0.9969948
0.99648074
0.99653167
0.99678292
0.99671155
0.99651542
0.99614317
0.9959203
0.99626501
0.99613685
0.99576034
0.9962497
0.9965054
0.99604752
0.9960792
0.99600127
0.99609151
0.99576078
0.99637098
0.99693856
0.99749171
0.99755076
0.99714438
0.99664827
0.99638642
0.99628633
0.99626127
0.9961777
0.99605274
0.99596954
0.99592673
0.99596704
0.99590102
0.9957678
0.99572519
0.99598387
0.9962952
0.99613669
0.99563195
0.99523858
0.99532199
0.99709941
0.99680958
0.99679294
0.99694793
0.99690845
0.9967616
0.99659465
0.99615388
0.99561546
0.99554976
0.9957188
0.99586441
0.99606081
0.99574629
0.99537493
0.9955504
0.9957876
0.99597374
0.99580408
0.99550698
0.99522033
0.99537433
0.99556444
0.99674625
0.99689192
0.99715401
0.99698943
0.99636348
0.99601534
0.99582698
0.99583218
0.99611269
0.99585544
0.99524801
0.99542327
0.99595431
0.99608367
0.9957441
0.99528239
0.99515921
0.99545234
0.99579501
0.99584448
0.99531713
0.99514114
0.99552146
0.99776327
0.99718408
0.99648675
0.99589614
0.99600572
0.99635849
0.99621584
0.99623646
0.99618732
0.99555536
0.99532427
0.99557556
0.99580266
0.99603922
0.99569083
0.99493435
0.99494408
0.99549393
0.99601893
0.99558407
0.99553413
0.99499004
0.99474021
0.99738392
0.99690675
0.99689384
0.99670414
0.99658155
0.9963363
0.99602844
0.99595481
0.99626102
0.99626781
0.99613664
0.9958564
0.99497789
0.99507421
0.99561028
0.99560165
0.99579922
0.99589636
0.99581313
0.99535782
0.99481419
0.99515281
0.99588373
0.99694586
0.99753954
0.9975569
0.99706298
0.99670055
0.99669882
0.99677806
0.99676561
0.99642342
0.99589935
0.99559558
0.99584274
0.99604892
0.99597738
0.9959919
0.99541593
0.99536101
0.99540915
0.99592845
0.99627995
0.99593392
0.99516233
0.9950544
0.99850225
0.99731193
0.99691689
0.99762328
0.99812355
0.99764843
0.99692523
0.9965423
0.99640652
0.99637065
0.99595085
0.99593822
0.99669535
0.99661543
0.99615594
0.99583492
0.9962457
0.99631052
0.99580659
0.99544085
0.99544205
0.9957596
0.99615411
0.99796023
0.99886795
0.99889812
0.99794714
0.99718275
0.9972099
0.99724894
0.9968639
0.9967788
0.99762847
0.99807441
0.99719708
0.99628638
0.9964629
0.99689888
0.99667709
0.99580035
0.99550716
0.99668891
0.99709263
0.9964654
0.99620036
0.99634724
0.99876368
0.99796414
0.99834991
0.99900754
0.99888389
0.99813365
0.99774996
0.99802293
0.99791512
0.99702377
0.99673379
0.997638
0.99795062
0.9971407
0.99633681
0.99683614
0.99764919
0.99725565
0.99642522
0.99654469
0.99710793
0.99653417
0.99573361
0.99906831
0.9994647
0.99880706
0.99832493
0.99852113
0.99866886
0.99826044
0.99763213
0.99762092
0.99839876
0.99875322
0.99781441
0.99710445
0.99782205
0.99834502
0.99740455
0.99656415
0.99692919
0.99793889
0.99762302
0.996909
0.99714308
0.99752415
0.9990873
0.99884118
0.99888836
0.99899809
0.99902143
0.99909787
0.99930417
0.99888498
0.99762344
0.99714787
0.99825631
0.99927963
0.99864375
0.99730957
0.99724487
0.99818803
0.99868991
0.99803536
0.9971011
0.99757359
0.99778703
0.99722047
0.99671955
0.99883785
0.99976629
0.99943014
0.99908696
0.99932636
0.99913762
0.99816572
0.99779008
0.99875861
0.99964823
0.99892258
0.99786573
0.99835335
0.99921411
0.99875043
0.99751237
0.99717026
0.99781815
0.99853437
0.9984575
0.99789003
0.99757617
0.99735463
0.99898508
0.99945833
0.99975859
0.99945196
0.99924717
0.9996698
1.0000097
0.9991716
0.99781588
0.99773468
0.99891807
0.99957012
0.9990752
0.99835508
0.99823198
0.99874446
0.99869054
0.99825356
0.99811411
0.99788084
0.99796883
0.99822786
0.99851842
1.0004958
0.99979694
0.99949718
0.99967424
0.99951717
0.99906125
0.99881991
0.99922365
0.99961089
0.99927293
0.99901589
0.99925435
0.99904625
0.99865719
0.99876912
0.99893106
0.99874859
0.99831511
0.99831442
0.99898945
0.99922455
0.99783975
0.99686804
1.0001515
0.99995142
0.99999004
1.0000439
0.99990676
0.99973036
0.9998282
1.0000957
1.0000028
0.99901335
0.9979628
0.9983878
1.0000343
1.0008238
0.99947754
0.99799764
0.9983858
0.99978717
0.9996542
0.99782035
0.99727966
0.99914881
1.0004776
1.0015917
1.0004761
1.0002201
1.0002105
0.99976816
0.99966749
1.0001329
1.0002028
0.99994814
0.99999169
1.0001455
1.0000739
0.9992161
0.99857479
0.99920825
1.0000503
0.9997796
0.99897203
0.99911161
0.99971807
0.99921927
0.99775296
0.99763987
1.0012484
1.0000361
1.0004188
1.001952
1.0021171
1.0003382
0.99904648
0.99977194
1.0012356
1.0014005
1.0000875
0.99922322
0.99970127
1.0003233
1.0000808
0.9995033
0.99950036
0.99956722
0.99945639
0.99954248
0.99965954
0.99862387
0.99784714
1.0023601
1.0009242
1.0003153
1.0013296
1.0025755
1.0023353
1.0008801
1.0000945
1.0006297
1.00088
1.0000087
0.99944566
1.0007363
1.0022007
1.0014915
0.99931302
0.99868041
1.0000481
1.0002451
0.99877227
0.99866498
1.0007363
1.0018454
1.0028913
1.0026475
1.0016913
1.0006942
1.000878
1.0019135
1.0024684
1.0016243
1.0008279
1.0017229
1.0026408
1.0015437
0.99953753
0.99941391
1.0012832
1.002092
1.000627
0.99922725
0.99961894
1.0007119
1.0008921
0.9999859
0.99891934
1.001738
1.002993
1.003496
1.0025634
1.0014689
1.0016336
1.0032995
1.0037106
1.0020168
1.0007854
1.0013942
1.0024855
1.0019613
1.0005865
1.0004885
1.0018519
1.0021547
1.0003127
0.99929389
1.0006127
1.0013943
0.99996138
0.99863664
1.0015392
1.0027069
1.0038743
1.0043443
1.0038436
1.00294
1.0026617
1.003143
1.0030073
1.001494
1.0002165
1.0009018
1.0029904
1.0039202
1.0023903
1.0000483
0.99966291
1.0009813
1.0014592
1.000453
0.99980449
1.0009732
1.0019609
1.0028764
1.0033878
1.0043356
1.0036551
1.0022832
1.0016359
1.0022672
1.0033108
1.0032485
1.0019444
1.0009992
1.0014685
1.002755
1.0030437
1.0017978
1.0003006
0.99971633
1.0002402
1.0007409
1.0010242
1.0010908
1.0008088
1.0000799
1.0025223
1.0024722
1.003096
1.0030797
1.0022939
1.0017653
1.0021159
1.0028444
1.0029241
1.0022863
1.0018306
1.0018679
1.0016225
1.0007645
1.0003503
1.0008029
1.0010949
1.0004939
0.99937973
0.9995205
1.0003214
0.99979663
0.99818339
0.99987313
1.0016193
1.002778
1.0026361
1.0017934
1.001298
1.0017723
1.0023548
1.0021378
1.0013996
1.0010134
1.001134
1.0006952
0.99945218
0.99885477
0.99975344
1.0007741
1.000013
0.9980391
0.99729805
0.99791424
0.99778614
0.9964813
1.0012031
1.0010383
1.0017817
1.0015225
1.0007987
1.0005087
1.0008851
1.0011075
1.0006546
1.0000348
0.99985925
0.99991542
0.99944511
0.99830362
0.99753361
0.99774816
0.99830992
0.99797926