/*--------------------------------*- C++ -*----------------------------------*\
| =========                 |                                                 |
| \\      /  F ield         | OpenFOAM: The Open Source CFD Toolbox           |
|  \\    /   O peration     | Version:  2406                                  |
|   \\  /    A nd           | Website:  www.openfoam.com                      |
|    \\/     M anipulation  |                                                 |
\*---------------------------------------------------------------------------*/
FoamFile
{
    version     2.0;
    format      ascii;
    arch        "LSB;label=32;scalar=64";
    class       volScalarField;
    location    "1000";
    object      alphat;
}
// * * * * * * * * * * * * * * * * * * * * * * * * * * * * * * * * * * * * * //

dimensions      [1 -1 -1 0 0 0 0];

internalField   nonuniform List<scalar> 
132739
(
8.7042837e-07
8.5528745e-07
8.4231985e-07
8.3148257e-07
8.2235989e-07
8.1455138e-07
8.0775302e-07
8.0174828e-07
7.963828e-07
7.9154378e-07
7.8714643e-07
7.8312529e-07
7.7942884e-07
7.7601561e-07
7.728519e-07
7.699099e-07
7.6716654e-07
7.6460246e-07
7.6220134e-07
7.5994933e-07
7.5783461e-07
7.5584705e-07
7.5397798e-07
7.5221994e-07
7.5056656e-07
7.4901237e-07
7.4755276e-07
7.4618387e-07
7.449025e-07
7.4370608e-07
7.4259261e-07
7.4156059e-07
7.4060903e-07
7.3973733e-07
7.3894533e-07
7.382332e-07
7.3760144e-07
7.3705084e-07
7.3658246e-07
7.3619757e-07
7.3589765e-07
7.3568433e-07
7.3555941e-07
7.3552478e-07
7.3558248e-07
7.3573457e-07
7.3598318e-07
7.3633042e-07
7.367784e-07
7.3732903e-07
7.3798437e-07
7.3874463e-07
7.3961765e-07
7.4058966e-07
7.4164218e-07
7.4274029e-07
7.4392167e-07
7.4500962e-07
7.4608694e-07
7.4710945e-07
7.4821448e-07
7.4925561e-07
7.5044801e-07
7.5167554e-07
7.5317567e-07
7.5467808e-07
7.5690406e-07
7.5937413e-07
7.6216002e-07
7.6534564e-07
7.686158e-07
7.7190925e-07
7.7520957e-07
7.7849024e-07
7.8179713e-07
7.8516232e-07
7.8864087e-07
7.9242231e-07
7.9652651e-07
8.0092839e-07
8.0556395e-07
8.1040374e-07
8.1602145e-07
8.2248597e-07
8.3015213e-07
8.3937252e-07
8.5045882e-07
8.6397581e-07
8.7996601e-07
8.990513e-07
9.2148635e-07
9.4723494e-07
9.7604067e-07
1.007561e-06
1.0415379e-06
1.0779557e-06
1.1171369e-06
1.1598256e-06
1.2063571e-06
1.2574333e-06
1.3140445e-06
1.3763778e-06
1.4480088e-06
1.5197473e-06
8.7040372e-07
8.5527203e-07
8.4231173e-07
8.3147994e-07
8.2236153e-07
8.1455638e-07
8.0776086e-07
8.0175875e-07
7.963959e-07
7.9155963e-07
7.8716526e-07
7.8314749e-07
7.7945487e-07
7.7604607e-07
7.7288746e-07
7.6995134e-07
7.6721468e-07
7.6465813e-07
7.6226539e-07
7.6002257e-07
7.5791778e-07
7.5594083e-07
7.5408291e-07
7.5233644e-07
7.5069492e-07
7.4915275e-07
7.4770522e-07
7.4634833e-07
7.4507877e-07
7.4389383e-07
7.4279138e-07
7.4176976e-07
7.4082777e-07
7.3996463e-07
7.3917995e-07
7.3847368e-07
7.3784609e-07
7.3729777e-07
7.3682961e-07
7.3644275e-07
7.3613856e-07
7.3591864e-07
7.3578478e-07
7.3573893e-07
7.3578315e-07
7.359196e-07
7.3615049e-07
7.3647801e-07
7.3690432e-07
7.3743135e-07
7.3806146e-07
7.3879392e-07
7.3964207e-07
7.4053956e-07
7.4145872e-07
7.4238684e-07
7.433969e-07
7.445427e-07
7.4583747e-07
7.4726189e-07
7.4882392e-07
7.5048187e-07
7.5224607e-07
7.5411001e-07
7.5609661e-07
7.5821194e-07
7.6041918e-07
7.6276369e-07
7.6519028e-07
7.6793573e-07
7.7073948e-07
7.7356058e-07
7.7634102e-07
7.7935652e-07
7.8246157e-07
7.8571097e-07
7.8897723e-07
7.9176537e-07
7.9587049e-07
8.0043772e-07
8.0448985e-07
8.0902987e-07
8.1400902e-07
8.1998309e-07
8.2691437e-07
8.3468554e-07
8.429561e-07
8.5225258e-07
8.6301024e-07
8.7580744e-07
8.9129052e-07
9.1011126e-07
9.3282806e-07
9.5980299e-07
9.911044e-07
1.0265266e-06
1.0656742e-06
1.108275e-06
1.1540504e-06
1.2028014e-06
1.2540089e-06
1.3083758e-06
1.3655262e-06
1.4371886e-06
8.7038129e-07
8.5525821e-07
8.4230434e-07
8.3147694e-07
8.2236157e-07
8.1455849e-07
8.0776428e-07
8.0176288e-07
7.9640016e-07
7.9156343e-07
7.8716794e-07
7.8314832e-07
7.7945302e-07
7.7604062e-07
7.728774e-07
7.6993557e-07
7.6719197e-07
7.646272e-07
7.6222482e-07
7.5997083e-07
7.5785328e-07
7.5586186e-07
7.5398775e-07
7.5222336e-07
7.5056219e-07
7.4899874e-07
7.4752832e-07
7.4614705e-07
7.4485168e-07
7.4363959e-07
7.4250871e-07
7.4145744e-07
7.4048464e-07
7.3958959e-07
7.3877194e-07
7.3803173e-07
7.3736931e-07
7.3678536e-07
7.3628085e-07
7.3585703e-07
7.3551536e-07
7.3525754e-07
7.3508541e-07
7.3500098e-07
7.3500632e-07
7.3510358e-07
7.3529491e-07
7.3558239e-07
7.3596805e-07
7.3645366e-07
7.3704085e-07
7.3773114e-07
7.3852308e-07
7.3942204e-07
7.4043225e-07
7.4155779e-07
7.427937e-07
7.441301e-07
7.4556271e-07
7.4708708e-07
7.4870291e-07
7.5039875e-07
7.5217279e-07
7.5402786e-07
7.5596607e-07
7.5797218e-07
7.6003192e-07
7.621595e-07
7.6435397e-07
7.6656328e-07
7.6880441e-07
7.7106689e-07
7.7347483e-07
7.7615342e-07
7.7886857e-07
7.8158299e-07
7.8435108e-07
7.8721101e-07
7.9041201e-07
7.9384762e-07
7.9752647e-07
8.0145504e-07
8.0595386e-07
8.1123424e-07
8.1746817e-07
8.2461966e-07
8.3277691e-07
8.4198182e-07
8.5228742e-07
8.6378074e-07
8.7662177e-07
8.9110975e-07
9.0773069e-07
9.2715953e-07
9.5014689e-07
9.7735773e-07
1.0091941e-06
1.0457689e-06
1.0868881e-06
1.1322221e-06
1.1811307e-06
1.2336819e-06
1.2853913e-06
1.3544053e-06
8.7036192e-07
8.5524701e-07
8.422992e-07
8.3147592e-07
8.2236349e-07
8.1456252e-07
8.0776995e-07
8.0176995e-07
7.9640856e-07
7.915732e-07
7.8717924e-07
7.831614e-07
7.7946822e-07
7.7605836e-07
7.7289816e-07
7.699599e-07
7.6722049e-07
7.6466055e-07
7.622637e-07
7.60016e-07
7.5790552e-07
7.5592205e-07
7.5405682e-07
7.5230231e-07
7.506521e-07
7.491007e-07
7.4764347e-07
7.462765e-07
7.4499654e-07
7.4380089e-07
7.426874e-07
7.4165442e-07
7.4070071e-07
7.3982545e-07
7.3902823e-07
7.3830899e-07
7.3766799e-07
7.3710583e-07
7.3662339e-07
7.3622183e-07
7.3590252e-07
7.3566704e-07
7.3551712e-07
7.3545464e-07
7.3548156e-07
7.3559986e-07
7.3581154e-07
7.3611854e-07
7.3652269e-07
7.3702561e-07
7.3762877e-07
7.3833302e-07
7.3913934e-07
7.4004615e-07
7.4105264e-07
7.4215816e-07
7.4336113e-07
7.4466604e-07
7.4606792e-07
7.4756566e-07
7.4915303e-07
7.5082702e-07
7.5257577e-07
7.5440513e-07
7.5630258e-07
7.5825334e-07
7.6024435e-07
7.6228286e-07
7.6436431e-07
7.6648673e-07
7.6864694e-07
7.7085104e-07
7.7310139e-07
7.7541147e-07
7.7773844e-07
7.8034271e-07
7.8291512e-07
7.8553254e-07
7.883943e-07
7.915123e-07
7.9492679e-07
7.9869151e-07
8.0288089e-07
8.0755849e-07
8.1279807e-07
8.18711e-07
8.2544687e-07
8.3317544e-07
8.420676e-07
8.5226955e-07
8.6388171e-07
8.7696464e-07
8.9158786e-07
9.0791664e-07
9.2628112e-07
9.4719688e-07
9.713102e-07
9.9928461e-07
1.0316793e-06
1.0688329e-06
1.11068e-06
1.1581081e-06
1.2049686e-06
1.2693915e-06
8.7034522e-07
8.5523819e-07
8.4229614e-07
8.3147676e-07
8.2236706e-07
8.1456799e-07
8.0777674e-07
8.0177767e-07
7.9641689e-07
7.9158187e-07
7.8718799e-07
7.8316994e-07
7.7947624e-07
7.760655e-07
7.7290405e-07
7.6996409e-07
7.6722252e-07
7.6465993e-07
7.622599e-07
7.6000848e-07
7.5789373e-07
7.5590543e-07
7.5403483e-07
7.5227437e-07
7.5061763e-07
7.4905908e-07
7.4759406e-07
7.4621861e-07
7.4492945e-07
7.4372385e-07
7.4259967e-07
7.4155521e-07
7.4058927e-07
7.3970105e-07
7.3889013e-07
7.3815649e-07
7.3750042e-07
7.3692254e-07
7.3642375e-07
7.3600521e-07
7.356683e-07
7.354146e-07
7.3524583e-07
7.3516383e-07
7.3517052e-07
7.3526784e-07
7.3545773e-07
7.3574202e-07
7.3612246e-07
7.3660055e-07
7.3717755e-07
7.3785446e-07
7.3863121e-07
7.3950872e-07
7.4048781e-07
7.4156872e-07
7.4274772e-07
7.4402206e-07
7.4538592e-07
7.4683671e-07
7.4836977e-07
7.4998109e-07
7.5166156e-07
7.5341142e-07
7.552231e-07
7.5708813e-07
7.5899622e-07
7.6094742e-07
7.629398e-07
7.6495845e-07
7.6699749e-07
7.6905973e-07
7.7114947e-07
7.7327551e-07
7.7543779e-07
7.7770639e-07
7.7999288e-07
7.8240659e-07
7.8496917e-07
7.8772043e-07
7.907113e-07
7.9400138e-07
7.9765656e-07
8.0177691e-07
8.0648234e-07
8.1187117e-07
8.1803329e-07
8.2506067e-07
8.3305847e-07
8.4215191e-07
8.5248396e-07
8.6419186e-07
8.7738704e-07
8.9215052e-07
9.0855816e-07
9.2673213e-07
9.4690441e-07
9.6944693e-07
9.9488304e-07
1.0238417e-06
1.0566624e-06
1.0950582e-06
1.1341245e-06
1.18962e-06
8.7033135e-07
8.5523182e-07
8.422952e-07
8.3147949e-07
8.2237238e-07
8.1457511e-07
8.0778519e-07
8.0178715e-07
7.9642725e-07
7.9159305e-07
7.8719999e-07
7.8318281e-07
7.7949007e-07
7.760804e-07
7.7292017e-07
7.6998164e-07
7.6724174e-07
7.6468109e-07
7.6228333e-07
7.6003454e-07
7.579228e-07
7.559379e-07
7.5407109e-07
7.5231481e-07
7.5066262e-07
7.4910899e-07
7.4764921e-07
7.4627931e-07
7.4499598e-07
7.437965e-07
7.4267868e-07
7.4164082e-07
7.4068168e-07
7.3980045e-07
7.3899668e-07
7.3827031e-07
7.3762158e-07
7.3705107e-07
7.3655963e-07
7.3614835e-07
7.3581855e-07
7.3557172e-07
7.354095e-07
7.3533365e-07
7.35346e-07
7.3544837e-07
7.356426e-07
7.3593042e-07
7.3631344e-07
7.3679304e-07
7.3737037e-07
7.3804618e-07
7.3882068e-07
7.3969391e-07
7.4066519e-07
7.4173349e-07
7.4289573e-07
7.4415105e-07
7.4549577e-07
7.4692732e-07
7.484405e-07
7.5003042e-07
7.5168811e-07
7.5341079e-07
7.5519043e-07
7.5701635e-07
7.5887678e-07
7.6076779e-07
7.6268494e-07
7.6461925e-07
7.6656672e-07
7.6852788e-07
7.7050522e-07
7.725031e-07
7.745299e-07
7.7659745e-07
7.7872539e-07
7.8093855e-07
7.8326879e-07
7.857555e-07
7.8844619e-07
7.913965e-07
7.9467141e-07
7.9833418e-07
8.0245536e-07
8.0712356e-07
8.1244202e-07
8.1852413e-07
8.254887e-07
8.334545e-07
8.4254718e-07
8.528928e-07
8.6462153e-07
8.7785229e-07
8.9268056e-07
9.0917302e-07
9.2738412e-07
9.4738903e-07
9.6933319e-07
9.9352917e-07
1.0201635e-06
1.0505921e-06
1.0820996e-06
1.1262874e-06
8.7031992e-07
8.5522772e-07
8.4229633e-07
8.3148419e-07
8.2237963e-07
8.1458418e-07
8.0779555e-07
8.017985e-07
7.9643937e-07
7.9160578e-07
7.8721321e-07
7.8319641e-07
7.7950391e-07
7.7609436e-07
7.729341e-07
7.6999539e-07
7.6725514e-07
7.6469398e-07
7.6229553e-07
7.6004584e-07
7.5793299e-07
7.5594675e-07
7.5407832e-07
7.5232016e-07
7.5066579e-07
7.4910967e-07
7.4764709e-07
7.4627408e-07
7.4498733e-07
7.437841e-07
7.4266223e-07
7.4162001e-07
7.4065622e-07
7.3977001e-07
7.3896097e-07
7.3822902e-07
7.3757439e-07
7.3699764e-07
7.364996e-07
7.3608134e-07
7.3574415e-07
7.3548949e-07
7.3531895e-07
7.3523425e-07
7.3523715e-07
7.3532945e-07
7.3551288e-07
7.3578911e-07
7.3615967e-07
7.3662584e-07
7.3718865e-07
7.3784877e-07
7.3860627e-07
7.3946111e-07
7.4041284e-07
7.4146082e-07
7.4260232e-07
7.4383502e-07
7.4515414e-07
7.4655563e-07
7.4803396e-07
7.4958378e-07
7.511968e-07
7.5286825e-07
7.5459042e-07
7.5635383e-07
7.5814823e-07
7.5996781e-07
7.6180732e-07
7.6365773e-07
7.6551209e-07
7.6736784e-07
7.6922552e-07
7.7108818e-07
7.7296228e-07
7.7485875e-07
7.7679377e-07
7.7878941e-07
7.8087418e-07
7.8308348e-07
7.8546007e-07
7.8805434e-07
7.9092234e-07
7.9414414e-07
7.9780955e-07
8.020017e-07
8.0680258e-07
8.1229683e-07
8.1857477e-07
8.2573247e-07
8.3387501e-07
8.4311089e-07
8.5355837e-07
8.6534055e-07
8.7857972e-07
8.9338734e-07
9.0985207e-07
9.2803315e-07
9.4796049e-07
9.6970583e-07
9.9324215e-07
1.01919e-06
1.0460469e-06
1.08157e-06
8.7031196e-07
8.5522703e-07
8.4230077e-07
8.3149219e-07
8.2239024e-07
8.1459663e-07
8.0780932e-07
8.0181324e-07
7.9645485e-07
7.9162185e-07
7.872298e-07
7.8321347e-07
7.7952145e-07
7.7611241e-07
7.7295271e-07
7.7001461e-07
7.6727505e-07
7.6471467e-07
7.6231709e-07
7.6006838e-07
7.5795661e-07
7.5597156e-07
7.5410444e-07
7.523477e-07
7.5069486e-07
7.4914039e-07
7.4767956e-07
7.463084e-07
7.4502359e-07
7.4382239e-07
7.4270259e-07
7.416625e-07
7.4070084e-07
7.3981678e-07
7.3900984e-07
7.382799e-07
7.3762718e-07
7.3705219e-07
7.3655571e-07
7.3613877e-07
7.3580259e-07
7.3554858e-07
7.353783e-07
7.3529338e-07
7.3529554e-07
7.3538649e-07
7.3556792e-07
7.358414e-07
7.3620838e-07
7.3667005e-07
7.3722735e-07
7.3788087e-07
7.3863061e-07
7.3947636e-07
7.4041738e-07
7.4145241e-07
7.4257853e-07
7.4379323e-07
7.4509228e-07
7.4647175e-07
7.4792622e-07
7.4944994e-07
7.5103472e-07
7.5267437e-07
7.5436081e-07
7.5608413e-07
7.5783354e-07
7.5960115e-07
7.613801e-07
7.6316166e-07
7.6493888e-07
7.6670849e-07
7.6846987e-07
7.7022475e-07
7.7197809e-07
7.7373901e-07
7.755217e-07
7.7734595e-07
7.7923781e-07
7.8122994e-07
7.8336209e-07
7.8568127e-07
7.8824159e-07
7.9110376e-07
7.9433562e-07
7.9801239e-07
8.0221693e-07
8.0703942e-07
8.1257427e-07
8.1891837e-07
8.2616984e-07
8.3442409e-07
8.4377944e-07
8.543347e-07
8.6619183e-07
8.7945528e-07
8.9422853e-07
9.1060572e-07
9.2865659e-07
9.4843721e-07
9.6991323e-07
9.933505e-07
1.0175906e-06
1.0483553e-06
8.7030937e-07
8.5523111e-07
8.4230943e-07
8.3150392e-07
8.2240411e-07
8.1461197e-07
8.0782566e-07
8.0183029e-07
7.9647242e-07
7.9163981e-07
7.8724804e-07
7.8323192e-07
7.7954002e-07
7.7613104e-07
7.7297134e-07
7.7003317e-07
7.6729349e-07
7.6473292e-07
7.6233507e-07
7.6008601e-07
7.5797381e-07
7.5598822e-07
7.5412046e-07
7.5236296e-07
7.5070925e-07
7.4915379e-07
7.4769184e-07
7.4631943e-07
7.4503323e-07
7.4383049e-07
7.42709e-07
7.4166705e-07
7.4070336e-07
7.3981707e-07
7.390077e-07
7.3827513e-07
7.3761953e-07
7.3704141e-07
7.3654152e-07
7.3612085e-07
7.3578062e-07
7.355222e-07
7.3534711e-07
7.3525695e-07
7.3525338e-07
7.3533808e-07
7.3551266e-07
7.3577865e-07
7.3613742e-07
7.3659009e-07
7.3713751e-07
7.3778017e-07
7.3851799e-07
7.3935065e-07
7.4027725e-07
7.4129647e-07
7.4240555e-07
7.4360164e-07
7.4488032e-07
7.4623693e-07
7.4766559e-07
7.4916002e-07
7.5071208e-07
7.5231462e-07
7.5395927e-07
7.5563613e-07
7.5733465e-07
7.5904614e-07
7.6076295e-07
7.6247629e-07
7.6417844e-07
7.6586444e-07
7.6753203e-07
7.6918153e-07
7.7081646e-07
7.7244437e-07
7.7407759e-07
7.7573373e-07
7.774363e-07
7.7921505e-07
7.8110636e-07
7.8315363e-07
7.854054e-07
7.8792794e-07
7.9079361e-07
7.9407371e-07
7.9784089e-07
8.0217133e-07
8.071445e-07
8.1284506e-07
8.1935989e-07
8.2677781e-07
8.3519064e-07
8.4468866e-07
8.5536182e-07
8.6729863e-07
8.8058768e-07
8.9531675e-07
9.1157082e-07
9.294271e-07
9.489105e-07
9.7023479e-07
9.9242038e-07
1.0202454e-06
8.7030923e-07
8.552373e-07
8.4231996e-07
8.3151732e-07
8.2241946e-07
8.1462856e-07
8.0784308e-07
8.0184826e-07
7.9649076e-07
7.916584e-07
7.872668e-07
7.8325079e-07
7.7955898e-07
7.7615006e-07
7.7299041e-07
7.7005232e-07
7.6731272e-07
7.6475226e-07
7.6235457e-07
7.6010569e-07
7.5799372e-07
7.560084e-07
7.5414094e-07
7.5238379e-07
7.5073046e-07
7.491754e-07
7.4771389e-07
7.4634192e-07
7.4505617e-07
7.4385387e-07
7.427328e-07
7.4169122e-07
7.4072784e-07
7.3984178e-07
7.3903254e-07
7.3829995e-07
7.3764418e-07
7.3706569e-07
7.3656522e-07
7.3614372e-07
7.3580237e-07
7.355425e-07
7.3536559e-07
7.3527321e-07
7.3526697e-07
7.3534848e-07
7.355193e-07
7.3578091e-07
7.3613459e-07
7.3658142e-07
7.3712214e-07
7.3775718e-07
7.3848641e-07
7.3930933e-07
7.402249e-07
7.4123157e-07
7.4232647e-07
7.4350645e-07
7.4476702e-07
7.461034e-07
7.4750966e-07
7.489793e-07
7.5050417e-07
7.5207649e-07
7.5368745e-07
7.5532701e-07
7.5698435e-07
7.5864985e-07
7.6031479e-07
7.6197002e-07
7.6360729e-07
7.6522087e-07
7.6680755e-07
7.6836669e-07
7.6990068e-07
7.7141574e-07
7.7292264e-07
7.7443724e-07
7.7598108e-07
7.7758168e-07
7.7927294e-07
7.8109557e-07
7.8309583e-07
7.8533053e-07
7.8786193e-07
7.9075594e-07
7.9408278e-07
7.9791829e-07
8.0234086e-07
8.0743261e-07
8.1327435e-07
8.199477e-07
8.2753489e-07
8.3611677e-07
8.4577292e-07
8.5658016e-07
8.6861306e-07
8.8194244e-07
8.9664014e-07
9.1277382e-07
9.3038645e-07
9.4969108e-07
9.6984767e-07
9.9516095e-07
8.7031024e-07
8.5524435e-07
8.4233105e-07
8.3153103e-07
8.2243492e-07
8.1464513e-07
8.0786032e-07
8.0186591e-07
7.9650866e-07
7.9167642e-07
7.8728487e-07
7.8326884e-07
7.7957697e-07
7.7616795e-07
7.7300818e-07
7.7006993e-07
7.6733017e-07
7.6476952e-07
7.6237162e-07
7.6012251e-07
7.5801027e-07
7.5602465e-07
7.5415685e-07
7.523993e-07
7.5074552e-07
7.4918995e-07
7.4772785e-07
7.4635522e-07
7.4506872e-07
7.4386559e-07
7.4274357e-07
7.4170094e-07
7.4073638e-07
7.3984899e-07
7.3903826e-07
7.3830402e-07
7.3764641e-07
7.3706588e-07
7.3656313e-07
7.3613911e-07
7.3579496e-07
7.3553198e-07
7.3535164e-07
7.3525544e-07
7.3524497e-07
7.3532178e-07
7.354874e-07
7.3574322e-07
7.3609049e-07
7.365302e-07
7.3706302e-07
7.3768928e-07
7.3840881e-07
7.3922098e-07
7.4012461e-07
7.4111799e-07
7.4219823e-07
7.4336202e-07
7.446048e-07
7.4592145e-07
7.473058e-07
7.4875093e-07
7.5024858e-07
7.5179042e-07
7.533673e-07
7.5496899e-07
7.5658455e-07
7.5820384e-07
7.5981751e-07
7.6141611e-07
7.62991e-07
7.6453555e-07
7.6604551e-07
7.6751912e-07
7.6895765e-07
7.7036606e-07
7.7175369e-07
7.7313477e-07
7.7452895e-07
7.7596166e-07
7.7746441e-07
7.7907516e-07
7.8083678e-07
7.8280642e-07
7.8504609e-07
7.8761832e-07
7.9058769e-07
7.9402293e-07
7.979944e-07
8.0257745e-07
8.0784531e-07
8.1387373e-07
8.2073939e-07
8.2851753e-07
8.3728175e-07
8.4710244e-07
8.5804681e-07
8.7017544e-07
8.8354852e-07
8.9821659e-07
9.142155e-07
9.317286e-07
9.5002647e-07
9.7293016e-07
8.7031173e-07
8.5525144e-07
8.4234189e-07
8.3154427e-07
8.2244973e-07
8.1466088e-07
8.0787662e-07
8.0188252e-07
7.965254e-07
7.9169321e-07
7.8730162e-07
7.8328552e-07
7.7959354e-07
7.761844e-07
7.7302449e-07
7.7008611e-07
7.6734621e-07
7.6478545e-07
7.6238745e-07
7.6013826e-07
7.5802594e-07
7.5604025e-07
7.5417239e-07
7.5241478e-07
7.5076094e-07
7.492053e-07
7.4774312e-07
7.4637039e-07
7.4508376e-07
7.4388045e-07
7.4275822e-07
7.4171529e-07
7.4075036e-07
7.3986251e-07
7.390512e-07
7.3831623e-07
7.3765775e-07
7.3707616e-07
7.3657214e-07
7.3614662e-07
7.3580072e-07
7.3553569e-07
7.3535296e-07
7.3525401e-07
7.3524036e-07
7.3531353e-07
7.3547497e-07
7.3572607e-07
7.3606796e-07
7.3650161e-07
7.3702761e-07
7.376462e-07
7.3835711e-07
7.3915962e-07
7.4005243e-07
7.4103369e-07
7.4210042e-07
7.4324909e-07
7.4447504e-07
7.4577295e-07
7.471365e-07
7.485586e-07
7.5003088e-07
7.5154462e-07
7.5309036e-07
7.5465769e-07
7.5623552e-07
7.5781318e-07
7.593807e-07
7.609282e-07
7.6244657e-07
7.6392853e-07
7.6536903e-07
7.6676554e-07
7.6811842e-07
7.6943164e-07
7.7071333e-07
7.7197638e-07
7.7323891e-07
7.7452462e-07
7.7586305e-07
7.7729014e-07
7.7884648e-07
7.805844e-07
7.8256075e-07
7.8483433e-07
7.8746717e-07
7.9052525e-07
7.9407695e-07
7.9819428e-07
8.029458e-07
8.0840289e-07
8.1463557e-07
8.217123e-07
8.2970012e-07
8.3866284e-07
8.4866154e-07
8.5975027e-07
8.7198283e-07
8.8539893e-07
9.0002978e-07
9.1602093e-07
9.3273956e-07
9.5349812e-07
8.7031267e-07
8.5525779e-07
8.4235179e-07
8.3155642e-07
8.2246334e-07
8.1467535e-07
8.0789156e-07
8.018977e-07
7.9654068e-07
7.9170847e-07
7.8731681e-07
7.8330058e-07
7.7960844e-07
7.7619911e-07
7.73039e-07
7.7010042e-07
7.6736033e-07
7.6479936e-07
7.6240115e-07
7.6015174e-07
7.5803919e-07
7.5605325e-07
7.5418511e-07
7.524272e-07
7.5077302e-07
7.4921699e-07
7.4775439e-07
7.4638118e-07
7.45094e-07
7.4389007e-07
7.4276713e-07
7.4172343e-07
7.407576e-07
7.3986873e-07
7.3905627e-07
7.3832e-07
7.3766005e-07
7.3707679e-07
7.3657091e-07
7.3614329e-07
7.3579501e-07
7.3552732e-07
7.353416e-07
7.352393e-07
7.3522189e-07
7.3529083e-07
7.3544756e-07
7.3569337e-07
7.3602936e-07
7.3645641e-07
7.3697505e-07
7.3758543e-07
7.3828722e-07
7.390796e-07
7.3996116e-07
7.4092988e-07
7.4198274e-07
7.4311605e-07
7.4432503e-07
7.4560419e-07
7.4694701e-07
7.4834615e-07
7.4979307e-07
7.5127877e-07
7.5279343e-07
7.5432644e-07
7.5586655e-07
7.5740272e-07
7.5892449e-07
7.6042167e-07
7.6188479e-07
7.6330603e-07
7.6467966e-07
7.6600236e-07
7.6727368e-07
7.6849665e-07
7.6967836e-07
7.708305e-07
7.7196982e-07
7.7311851e-07
7.7430437e-07
7.7556142e-07
7.7692793e-07
7.7845496e-07
7.8019754e-07
7.8221185e-07
7.8455664e-07
7.8729324e-07
7.9048606e-07
7.9420172e-07
7.9850477e-07
8.0346135e-07
8.0913754e-07
8.1559744e-07
8.2290335e-07
8.3111409e-07
8.4028566e-07
8.5046659e-07
8.6170626e-07
8.7403721e-07
8.8748994e-07
9.0218096e-07
9.1756227e-07
9.3650503e-07
8.7031359e-07
8.5526377e-07
8.423611e-07
8.3156781e-07
8.2247604e-07
8.1468879e-07
8.0790539e-07
8.0191169e-07
7.9655468e-07
7.917224e-07
7.873306e-07
7.833142e-07
7.7962185e-07
7.762123e-07
7.7305197e-07
7.7011316e-07
7.6737284e-07
7.6481166e-07
7.6241324e-07
7.6016362e-07
7.5805086e-07
7.560647e-07
7.5419634e-07
7.5243819e-07
7.5078375e-07
7.4922744e-07
7.4776453e-07
7.4639098e-07
7.4510341e-07
7.4389904e-07
7.4277559e-07
7.417313e-07
7.4076481e-07
7.3987516e-07
7.3906178e-07
7.3832446e-07
7.3766328e-07
7.3707862e-07
7.3657111e-07
7.3614161e-07
7.357912e-07
7.3552107e-07
7.3533255e-07
7.3522707e-07
7.3520605e-07
7.3527093e-07
7.3542305e-07
7.3566367e-07
7.3599382e-07
7.3641432e-07
7.3692561e-07
7.3752776e-07
7.3822037e-07
7.3900251e-07
7.3987268e-07
7.4082871e-07
7.4186748e-07
7.4298515e-07
7.4417683e-07
7.4543683e-07
7.4675847e-07
7.4813421e-07
7.4955539e-07
7.5101272e-07
7.5249622e-07
7.5399496e-07
7.554976e-07
7.5699278e-07
7.5846962e-07
7.5991758e-07
7.6132684e-07
7.6268911e-07
7.6399811e-07
7.6524991e-07
7.6644344e-07
7.6758099e-07
7.6866885e-07
7.6971775e-07
7.7074337e-07
7.7176666e-07
7.7281402e-07
7.7391782e-07
7.751148e-07
7.7645294e-07
7.7798444e-07
7.7976261e-07
7.8184385e-07
7.8428698e-07
7.8715411e-07
7.9050872e-07
7.9441173e-07
7.9892629e-07
8.0411323e-07
8.1003263e-07
8.1674227e-07
8.2429638e-07
8.327465e-07
8.4213638e-07
8.5251132e-07
8.6389828e-07
8.7632783e-07
8.8989534e-07
9.0412268e-07
9.215275e-07
8.7031466e-07
8.5526965e-07
8.4237007e-07
8.3157868e-07
8.2248808e-07
8.1470146e-07
8.0791833e-07
8.0192471e-07
7.9656765e-07
7.9173523e-07
7.8734323e-07
7.8332659e-07
7.7963397e-07
7.7622414e-07
7.7306351e-07
7.7012441e-07
7.673838e-07
7.6482233e-07
7.6242362e-07
7.601737e-07
7.5806063e-07
7.5607414e-07
7.5420543e-07
7.524469e-07
7.5079205e-07
7.4923531e-07
7.477719e-07
7.463978e-07
7.4510963e-07
7.4390457e-07
7.4278037e-07
7.4173521e-07
7.4076775e-07
7.3987703e-07
7.3906242e-07
7.383237e-07
7.3766093e-07
7.3707447e-07
7.3656493e-07
7.3613314e-07
7.3578014e-07
7.3550709e-07
7.353153e-07
7.3520612e-07
7.3518095e-07
7.3524118e-07
7.3538807e-07
7.3562284e-07
7.3594644e-07
7.363596e-07
7.3686272e-07
7.3745577e-07
7.3813827e-07
7.3890918e-07
7.3976687e-07
7.4070905e-07
7.4173249e-07
7.4283319e-07
7.4400613e-07
7.4524545e-07
7.4654429e-07
7.478949e-07
7.4928844e-07
7.5071538e-07
7.5216548e-07
7.5362769e-07
7.5509044e-07
7.56542e-07
7.579712e-07
7.5936721e-07
7.6071997e-07
7.6202086e-07
7.6326315e-07
7.644425e-07
7.655573e-07
7.6660933e-07
7.6760423e-07
7.6855203e-07
7.6946754e-07
7.7037076e-07
7.7128697e-07
7.7224722e-07
7.7328677e-07
7.744519e-07
7.7579321e-07
7.7736196e-07
7.7921195e-07
7.8139905e-07
7.839824e-07
7.8702142e-07
7.9057421e-07
7.947005e-07
7.9945811e-07
8.0490326e-07
8.1109016e-07
8.1806938e-07
8.2588883e-07
8.3458834e-07
8.4420961e-07
8.5477507e-07
8.6631425e-07
8.7890731e-07
8.9213117e-07
9.0821679e-07
8.7031626e-07
8.5527574e-07
8.4237902e-07
8.3158934e-07
8.2249975e-07
8.1471362e-07
8.0793066e-07
8.0193701e-07
7.965798e-07
7.9174715e-07
7.8735487e-07
7.833379e-07
7.7964494e-07
7.7623474e-07
7.7307374e-07
7.7013427e-07
7.6739328e-07
7.6483144e-07
7.6243235e-07
7.6018205e-07
7.5806858e-07
7.5608168e-07
7.5421253e-07
7.5245354e-07
7.507982e-07
7.4924091e-07
7.4777692e-07
7.4640219e-07
7.4511331e-07
7.4390747e-07
7.427824e-07
7.4173627e-07
7.4076771e-07
7.3987574e-07
7.3905978e-07
7.383195e-07
7.3765496e-07
7.3706649e-07
7.3655468e-07
7.3612032e-07
7.3576442e-07
7.354881e-07
7.3529261e-07
7.3517928e-07
7.3514944e-07
7.3520441e-07
7.353454e-07
7.3557354e-07
7.3588973e-07
7.3629467e-07
7.3678857e-07
7.3737133e-07
7.3804238e-07
7.3880056e-07
7.3964411e-07
7.4057059e-07
7.4157663e-07
7.4265806e-07
7.438097e-07
7.4502549e-07
7.4629838e-07
7.4762039e-07
7.4898251e-07
7.5037495e-07
7.5178723e-07
7.532081e-07
7.546258e-07
7.5602853e-07
7.574046e-07
7.5874307e-07
7.6003367e-07
7.6126752e-07
7.6243765e-07
7.6353941e-07
7.6457096e-07
7.6553377e-07
7.6643315e-07
7.6727871e-07
7.6808477e-07
7.6887069e-07
7.6966092e-07
7.7048553e-07
7.7137869e-07
7.7238474e-07
7.735521e-07
7.7493027e-07
7.7657085e-07
7.785281e-07
7.8085824e-07
7.8361779e-07
7.8686263e-07
7.9064915e-07
7.9503197e-07
8.0006399e-07
8.0579607e-07
8.1227543e-07
8.1954673e-07
8.2764647e-07
8.3661321e-07
8.4646582e-07
8.5723224e-07
8.6898093e-07
8.8133236e-07
8.9628314e-07
8.7031847e-07
8.5528226e-07
8.4238815e-07
8.3159999e-07
8.2251126e-07
8.1472547e-07
8.0794254e-07
8.0194873e-07
7.9659125e-07
7.9175825e-07
7.8736557e-07
7.8334816e-07
7.7965473e-07
7.7624405e-07
7.7308255e-07
7.7014258e-07
7.674011e-07
7.6483875e-07
7.6243915e-07
7.6018831e-07
7.5807429e-07
7.5608681e-07
7.5421704e-07
7.5245739e-07
7.5080134e-07
7.4924329e-07
7.4777847e-07
7.4640282e-07
7.4511295e-07
7.4390603e-07
7.4277974e-07
7.4173227e-07
7.4076222e-07
7.3986859e-07
7.3905076e-07
7.3830846e-07
7.3764161e-07
7.3705055e-07
7.3653583e-07
7.3609821e-07
7.3573865e-07
7.3545822e-07
7.3525813e-07
7.3513963e-07
7.3510402e-07
7.3515252e-07
7.3528631e-07
7.355064e-07
7.3581357e-07
7.3620836e-07
7.36691e-07
7.3726127e-07
7.3791841e-07
7.3866115e-07
7.3948755e-07
7.4039498e-07
7.4137991e-07
7.4243796e-07
7.4356374e-07
7.4475095e-07
7.459923e-07
7.4727955e-07
7.4860346e-07
7.4995396e-07
7.513203e-07
7.5269103e-07
7.5405418e-07
7.5539775e-07
7.5671002e-07
7.5797983e-07
7.5919659e-07
7.603515e-07
7.6143759e-07
7.6245023e-07
7.6338761e-07
7.6425122e-07
7.6504636e-07
7.6578258e-07
7.6647403e-07
7.6713974e-07
7.6780377e-07
7.6849543e-07
7.692481e-07
7.7010464e-07
7.7111202e-07
7.7231801e-07
7.7377253e-07
7.7552719e-07
7.7763642e-07
7.8015361e-07
7.8313172e-07
7.866243e-07
7.9068312e-07
7.9535817e-07
8.0069738e-07
8.067451e-07
8.1354317e-07
8.2112526e-07
8.2952702e-07
8.3876444e-07
8.4886353e-07
8.5988395e-07
8.7147944e-07
8.8545935e-07
8.7032204e-07
8.5528961e-07
8.423977e-07
8.3161075e-07
8.2252259e-07
8.1473694e-07
8.0795386e-07
8.0195974e-07
7.9660184e-07
7.9176835e-07
7.8737513e-07
7.8335715e-07
7.7966311e-07
7.762518e-07
7.7308966e-07
7.7014903e-07
7.6740689e-07
7.6484386e-07
7.6244356e-07
7.60192e-07
7.5807721e-07
7.5608892e-07
7.542183e-07
7.5245773e-07
7.508007e-07
7.4924159e-07
7.4777563e-07
7.4639875e-07
7.4510752e-07
7.438991e-07
7.4277118e-07
7.417219e-07
7.4074985e-07
7.3985401e-07
7.3903373e-07
7.3828868e-07
7.3761889e-07
7.3702448e-07
7.3650599e-07
7.3606416e-07
7.3569988e-07
7.3541417e-07
7.3520818e-07
7.3508308e-07
7.3504006e-07
7.350803e-07
7.3520485e-07
7.3541462e-07
7.357103e-07
7.360923e-07
7.3656066e-07
7.3711497e-07
7.3775434e-07
7.3847732e-07
7.3928174e-07
7.4016472e-07
7.4112248e-07
7.4215037e-07
7.4324271e-07
7.443929e-07
7.4559334e-07
7.4683546e-07
7.481097e-07
7.4940572e-07
7.5071246e-07
7.5201827e-07
7.5331105e-07
7.5457869e-07
7.5580941e-07
7.5699204e-07
7.5811647e-07
7.5917361e-07
7.6015698e-07
7.6106227e-07
7.6188805e-07
7.6263623e-07
7.6331252e-07
7.639268e-07
7.6449344e-07
7.650316e-07
7.6556513e-07
7.6612309e-07
7.6673824e-07
7.67452e-07
7.6830979e-07
7.6935792e-07
7.7064441e-07
7.7221928e-07
7.7413498e-07
7.7644172e-07
7.7919084e-07
7.8243303e-07
7.8621622e-07
7.9058807e-07
7.9559422e-07
8.0127568e-07
8.0767071e-07
8.1481067e-07
8.2272949e-07
8.3144138e-07
8.4097004e-07
8.5136895e-07
8.6231464e-07
8.7547556e-07
8.7032513e-07
8.552965e-07
8.4240674e-07
8.3162093e-07
8.2253328e-07
8.1474765e-07
8.079643e-07
8.0196973e-07
7.9661127e-07
7.9177715e-07
7.8738323e-07
7.8336451e-07
7.7966969e-07
7.7625757e-07
7.7309459e-07
7.701531e-07
7.6741007e-07
7.6484613e-07
7.6244487e-07
7.601923e-07
7.5807645e-07
7.5608702e-07
7.5421518e-07
7.5245331e-07
7.5079488e-07
7.4923426e-07
7.4776665e-07
7.4638799e-07
7.4509481e-07
7.4388427e-07
7.4275401e-07
7.4170217e-07
7.4072729e-07
7.3982833e-07
7.390046e-07
7.3825575e-07
7.3758171e-07
7.3698274e-07
7.3645911e-07
7.3601152e-07
7.356408e-07
7.3534791e-07
7.351339e-07
7.3499984e-07
7.3494683e-07
7.3497592e-07
7.3508801e-07
7.3528388e-07
7.3556404e-07
7.3592872e-07
7.3637776e-07
7.3691053e-07
7.3752589e-07
7.3822207e-07
7.3899661e-07
7.3984631e-07
7.4076703e-07
7.4175374e-07
7.4280036e-07
7.4389989e-07
7.4504432e-07
7.4622468e-07
7.4743108e-07
7.4865284e-07
7.4987866e-07
7.5109671e-07
7.5229486e-07
7.5346106e-07
7.5458371e-07
7.5565197e-07
7.5665611e-07
7.5758801e-07
7.5844174e-07
7.5921329e-07
7.5990236e-07
7.6051178e-07
7.6104812e-07
7.6152202e-07
7.6194845e-07
7.6234693e-07
7.6274155e-07
7.6316112e-07
7.6363819e-07
7.6421285e-07
7.6492933e-07
7.658322e-07
7.66968e-07
7.6838512e-07
7.7013342e-07
7.722613e-07
7.7481763e-07
7.7784897e-07
7.8140482e-07
7.8552322e-07
7.9024778e-07
7.9562108e-07
8.016871e-07
8.0847029e-07
8.1599254e-07
8.2426347e-07
8.3330709e-07
8.4317723e-07
8.5356453e-07
8.6604594e-07
8.7032943e-07
8.5530397e-07
8.4241588e-07
8.3163083e-07
8.2254338e-07
8.1475754e-07
8.0797372e-07
8.0197852e-07
7.966193e-07
7.9178436e-07
7.8738955e-07
7.8336988e-07
7.7967405e-07
7.7626088e-07
7.730968e-07
7.7015416e-07
7.6740993e-07
7.6484473e-07
7.6244214e-07
7.6018815e-07
7.5807079e-07
7.5607975e-07
7.5420617e-07
7.5244243e-07
7.5078197e-07
7.4921917e-07
7.4774919e-07
7.4636794e-07
7.4507195e-07
7.4385833e-07
7.4272469e-07
7.4166915e-07
7.406902e-07
7.3978675e-07
7.3895808e-07
7.3820378e-07
7.3752372e-07
7.3691807e-07
7.3638723e-07
7.3593155e-07
7.3555179e-07
7.352488e-07
7.3502353e-07
7.3487692e-07
7.3480991e-07
7.3482335e-07
7.3491797e-07
7.3509431e-07
7.3535265e-07
7.3569293e-07
7.3611469e-07
7.3661699e-07
7.371983e-07
7.3785647e-07
7.385886e-07
7.39391e-07
7.4025903e-07
7.4118714e-07
7.4216876e-07
7.4319636e-07
7.4426144e-07
7.4535462e-07
7.4646564e-07
7.4758358e-07
7.4869701e-07
7.4979414e-07
7.5086304e-07
7.5189205e-07
7.5287014e-07
7.5378723e-07
7.5463453e-07
7.5540504e-07
7.560939e-07
7.5669908e-07
7.572206e-07
7.5766303e-07
7.5803412e-07
7.583456e-07
7.5861332e-07
7.5885745e-07
7.5910241e-07
7.593771e-07
7.5971377e-07
7.6015142e-07
7.6073266e-07
7.6150077e-07
7.6250076e-07
7.6377876e-07
7.6538353e-07
7.6736065e-07
7.6975558e-07
7.7262013e-07
7.7595604e-07
7.8002431e-07
7.8437374e-07
7.8948922e-07
7.9527288e-07
8.0176533e-07
8.0897633e-07
8.1690036e-07
8.2555417e-07
8.3499341e-07
8.4491235e-07
8.5685021e-07
8.7033324e-07
8.5531093e-07
8.4242439e-07
8.3163998e-07
8.2255259e-07
8.1476636e-07
8.0798187e-07
8.0198582e-07
7.9662564e-07
7.9178963e-07
7.8739367e-07
7.8337276e-07
7.7967562e-07
7.7626104e-07
7.7309548e-07