/*--------------------------------*- C++ -*----------------------------------*\
| =========                 |                                                 |
| \\      /  F ield         | OpenFOAM: The Open Source CFD Toolbox           |
|  \\    /   O peration     | Version:  2406                                  |
|   \\  /    A nd           | Website:  www.openfoam.com                      |
|    \\/     M anipulation  |                                                 |
\*---------------------------------------------------------------------------*/
FoamFile
{
    version     2.0;
    format      ascii;
    arch        "LSB;label=32;scalar=64";
    class       volScalarField;
    location    "1000";
    object      k;
}
// * * * * * * * * * * * * * * * * * * * * * * * * * * * * * * * * * * * * * //

dimensions      [0 2 -2 0 0 0 0];

internalField   nonuniform List<scalar> 
132739
(
3.341653e-06
2.6796313e-06
2.2228274e-06
1.8992077e-06
1.6605973e-06
1.4779535e-06
1.3337361e-06
1.216976e-06
1.1205161e-06
1.0394953e-06
9.7049444e-07
9.1103643e-07
8.5928215e-07
8.1383622e-07
7.7362128e-07
7.3779173e-07
7.0567503e-07
6.767293e-07
6.5051333e-07
6.2666414e-07
6.0488052e-07
5.8491043e-07
5.6654144e-07
5.4959328e-07
5.339121e-07
5.1936572e-07
5.0584017e-07
4.9323653e-07
4.8146876e-07
4.7046154e-07
4.6014886e-07
4.5047254e-07
4.4138122e-07
4.3282939e-07
4.2477662e-07
4.1718692e-07
4.1002815e-07
4.0327151e-07
3.9689123e-07
3.9086409e-07
3.8516922e-07
3.7978772e-07
3.7470256e-07
3.6989825e-07
3.6536079e-07
3.6107737e-07
3.5703637e-07
3.532271e-07
3.4963976e-07
3.4626519e-07
3.4309517e-07
3.4012054e-07
3.3733902e-07
3.3473134e-07
3.3227555e-07
3.2993799e-07
3.277431e-07
3.2554805e-07
3.2341491e-07
3.213067e-07
3.1932538e-07
3.173562e-07
3.1555789e-07
3.1384391e-07
3.1236293e-07
3.1102071e-07
3.101397e-07
3.0949972e-07
3.0912003e-07
3.090652e-07
3.0910121e-07
3.0917773e-07
3.0928497e-07
3.0941579e-07
3.0959551e-07
3.0984671e-07
3.102058e-07
3.1075905e-07
3.1154309e-07
3.1255408e-07
3.1381947e-07
3.1542317e-07
3.1748281e-07
3.2010071e-07
3.2348926e-07
3.2787975e-07
3.3354976e-07
3.408367e-07
3.5010061e-07
3.6166191e-07
3.7573007e-07
3.9236031e-07
4.1146385e-07
4.3288066e-07
4.5650045e-07
4.8239525e-07
5.1091278e-07
5.4278389e-07
5.7843653e-07
6.1866808e-07
6.645913e-07
7.1672666e-07
7.788843e-07
8.4136198e-07
3.3417012e-06
2.6800192e-06
2.2233683e-06
1.8998092e-06
1.6612161e-06
1.4785695e-06
1.3343404e-06
1.2175651e-06
1.1210895e-06
1.0400537e-06
9.7103921e-07
9.1156939e-07
8.5980514e-07
8.1435131e-07
7.7413046e-07
7.3829703e-07
7.0617831e-07
6.7723236e-07
6.5101779e-07
6.2717147e-07
6.0539202e-07
5.8542721e-07
5.6706443e-07
5.5012323e-07
5.3444956e-07
5.1991109e-07
5.0639364e-07
4.9379817e-07
4.8203841e-07
4.7103889e-07
4.6073337e-07
4.5106349e-07
4.4197768e-07
4.3343021e-07
4.2538047e-07
4.1779227e-07
4.1063331e-07
4.0387471e-07
3.9749058e-07
3.914577e-07
3.8575517e-07
3.8036417e-07
3.7526774e-07
3.7045053e-07
3.6589862e-07
3.6159939e-07
3.5754131e-07
3.5371383e-07
3.5010725e-07
3.4671249e-07
3.4352148e-07
3.4052447e-07
3.3772373e-07
3.3505758e-07
3.3249785e-07
3.3002948e-07
3.2770539e-07
3.2556187e-07
3.2360267e-07
3.2180676e-07
3.2017488e-07
3.1867054e-07
3.1729786e-07
3.160478e-07
3.1493542e-07
3.1395695e-07
3.1308733e-07
3.1235687e-07
3.1172201e-07
3.113523e-07
3.1105605e-07
3.1080018e-07
3.1056246e-07
3.1046003e-07
3.1044367e-07
3.1054576e-07
3.1072818e-07
3.1081119e-07
3.1151552e-07
3.1252152e-07
3.1347261e-07
3.1476674e-07
3.1655117e-07
3.1888824e-07
3.2172284e-07
3.2504392e-07
3.289116e-07
3.3350368e-07
3.3912203e-07
3.4617133e-07
3.5512826e-07
3.6650048e-07
3.8076413e-07
3.9828735e-07
4.1926345e-07
4.4371208e-07
4.7151673e-07
5.0263878e-07
5.3701935e-07
5.7462174e-07
6.1513348e-07
6.59193e-07
7.0699651e-07
7.6785152e-07
3.3417565e-06
2.6803938e-06
2.2238801e-06
1.9003688e-06
1.6617828e-06
1.4791255e-06
1.3348779e-06
1.218081e-06
1.1215827e-06
1.0405239e-06
9.7148661e-07
9.1199422e-07
8.6020757e-07
8.1473145e-07
7.7448827e-07
7.3863237e-07
7.064909e-07
6.7752182e-07
6.5128362e-07
6.2741312e-07
6.0560886e-07
5.8561861e-07
5.6722974e-07
5.5026183e-07
5.3456085e-07
5.1999451e-07
5.0644868e-07
4.9382434e-07
4.8203526e-07
4.7100601e-07
4.6067037e-07
4.5097002e-07
4.4185341e-07
4.3327489e-07
4.251939e-07
4.1757434e-07
4.1038398e-07
4.0359402e-07
3.9717868e-07
3.9111481e-07
3.853816e-07
3.799603e-07
3.7483398e-07
3.6998732e-07
3.654064e-07
3.6107855e-07
3.5699219e-07
3.5313666e-07
3.4950214e-07
3.4607942e-07
3.4285989e-07
3.3983559e-07
3.3699677e-07
3.343399e-07
3.3186095e-07
3.2955606e-07
3.2741468e-07
3.2542314e-07
3.2357296e-07
3.2185576e-07
3.202669e-07
3.1879368e-07
3.1743123e-07
3.1617856e-07
3.1503388e-07
3.1398323e-07
3.1301408e-07
3.1213491e-07
3.1134265e-07
3.105982e-07
3.0991108e-07
3.0928118e-07
3.0876199e-07
3.0840637e-07
3.0812487e-07
3.0790863e-07
3.0778688e-07
3.0778453e-07
3.0801024e-07
3.0843961e-07
3.0907931e-07
3.1001804e-07
3.1132488e-07
3.1311665e-07
3.1552104e-07
3.1860669e-07
3.2241955e-07
3.2698802e-07
3.3234172e-07
3.3853734e-07
3.4569453e-07
3.5404073e-07
3.6394585e-07
3.7591891e-07
3.9054633e-07
4.0839858e-07
4.2991809e-07
4.553903e-07
4.8491123e-07
5.1845912e-07
5.5578924e-07
5.9700806e-07
6.3897205e-07
6.9600766e-07
3.3418274e-06
2.680767e-06
2.2243822e-06
1.900915e-06
1.662335e-06
1.4796671e-06
1.3354023e-06
1.218586e-06
1.1220682e-06
1.040991e-06
9.7193673e-07
9.124291e-07
8.6062902e-07
8.1514127e-07
7.7488824e-07
7.3902424e-07
7.0687637e-07
6.7790256e-07
6.5166126e-07
6.2778926e-07
6.0598506e-07
5.8599637e-07
5.6761053e-07
5.5064704e-07
5.3495179e-07
5.2039239e-07
5.0685461e-07
4.942393e-07
4.8246014e-07
4.7144156e-07
4.6111726e-07
4.5142881e-07
4.4232459e-07
4.3375886e-07
4.2569099e-07
4.180848e-07
4.1090801e-07
4.0413177e-07
3.977302e-07
3.9168011e-07
3.859606e-07
3.8055286e-07
3.7543988e-07
3.7060624e-07
3.6603795e-07
3.6172225e-07
3.5764745e-07
3.5380282e-07
3.5017841e-07
3.4676492e-07
3.4355368e-07
3.4053623e-07
3.3770484e-07
3.3505037e-07
3.3256487e-07
3.3024107e-07
3.280715e-07
3.2605403e-07
3.2417948e-07
3.2244205e-07
3.2083245e-07
3.1934437e-07
3.1796524e-07
3.1669624e-07
3.1552484e-07
3.1443749e-07
3.1342264e-07
3.1248392e-07
3.1161616e-07
3.1081635e-07
3.1008123e-07
3.0941368e-07
3.0881543e-07
3.082929e-07
3.0783162e-07
3.0753881e-07
3.0729853e-07
3.0715002e-07
3.0718212e-07
3.0741227e-07
3.0787169e-07
3.0859932e-07
3.0964601e-07
3.1105369e-07
3.1286156e-07
3.1514539e-07
3.180072e-07
3.2156598e-07
3.2594304e-07
3.3124443e-07
3.3754897e-07
3.4491519e-07
3.5341516e-07
3.6318865e-07
3.7449298e-07
3.8772561e-07
4.0340127e-07
4.2208694e-07
4.4433316e-07
4.7057378e-07
5.0104127e-07
5.3655462e-07
5.7291217e-07
6.2405418e-07
3.3419106e-06
2.6811386e-06
2.2248756e-06
1.901449e-06
1.6628732e-06
1.4801938e-06
1.3359108e-06
1.219074e-06
1.1225354e-06
1.0414379e-06
9.7236417e-07
9.1283805e-07
8.6102042e-07
8.1551604e-07
7.7524719e-07
7.393681e-07
7.0720578e-07
6.7821807e-07
6.5196331e-07
6.2807821e-07
6.0626117e-07
5.8625982e-07
5.6786137e-07
5.5088526e-07
5.3517728e-07
5.2060498e-07
5.0705404e-07
4.9442532e-07
4.8263243e-07
4.7159984e-07
4.6126122e-07
4.5155819e-07
4.4243913e-07
4.3385834e-07
4.2577524e-07
4.1815365e-07
4.1096135e-07
4.0416947e-07
3.9775219e-07
3.916863e-07
3.8595091e-07
3.8052719e-07
3.7539813e-07
3.7054829e-07
3.6596365e-07
3.6163141e-07
3.5753982e-07
3.536781e-07
3.5003621e-07
3.466048e-07
3.4337505e-07
3.4033862e-07
3.3748696e-07
3.34813e-07
3.3231009e-07
3.299716e-07
3.2778837e-07
3.2575247e-07
3.2385422e-07
3.2208682e-07
3.2044239e-07
3.1891395e-07
3.1749111e-07
3.1617098e-07
3.1494498e-07
3.1380427e-07
3.1273926e-07
3.1174823e-07
3.1082803e-07
3.0996633e-07
3.0915789e-07
3.0840382e-07
3.0770642e-07
3.070704e-07
3.0649812e-07
3.0602115e-07
3.0561024e-07
3.0531586e-07
3.0515586e-07
3.0515723e-07
3.0535352e-07
3.0578383e-07
3.0649167e-07
3.075421e-07
3.0901317e-07
3.1096953e-07
3.134707e-07
3.1657911e-07
3.2036813e-07
3.2492738e-07
3.3036005e-07
3.3677162e-07
3.4425654e-07
3.5289465e-07
3.6276764e-07
3.7399308e-07
3.8677034e-07
4.0140604e-07
4.1833566e-07
4.3808962e-07
4.6107944e-07
4.8863603e-07
5.1757878e-07
5.5959456e-07
3.3420086e-06
2.6815094e-06
2.2253606e-06
1.9019711e-06
1.6633979e-06
1.4807064e-06
1.3364055e-06
1.2195492e-06
1.1229911e-06
1.0418752e-06
9.7278447e-07
9.1324293e-07
8.6141153e-07
8.1589495e-07
7.7561539e-07
7.3972699e-07
7.0755664e-07
6.7856205e-07
6.523015e-07
6.2841155e-07
6.0659053e-07
5.8658595e-07
5.6818497e-07
5.5120693e-07
5.3549755e-07
5.2092434e-07
5.0737296e-07
4.9474419e-07
4.8295164e-07
4.7191974e-07
4.6158216e-07
4.5188046e-07
4.4276302e-07
4.341841e-07
4.2610307e-07
4.1848374e-07
4.1129382e-07
4.0450442e-07
3.9808965e-07
3.9202626e-07
3.8629331e-07
3.8087191e-07
3.7574498e-07
3.7089704e-07
3.66314e-07
3.6198299e-07
3.5789222e-07
3.5403081e-07
3.5038867e-07
3.4695636e-07
3.4372501e-07
3.4068612e-07
3.3783141e-07
3.351531e-07
3.3264343e-07
3.3029484e-07
3.2809874e-07
3.2604882e-07
3.2413705e-07
3.223567e-07
3.2069944e-07
3.1915764e-07
3.1772101e-07
3.1638438e-07
3.1513892e-07
3.1397424e-07
3.1287973e-07
3.1185088e-07
3.1088291e-07
3.0996802e-07
3.0910237e-07
3.0828554e-07
3.075185e-07
3.0680365e-07
3.0614613e-07
3.0555388e-07
3.0503957e-07
3.0461963e-07
3.0431518e-07
3.0415216e-07
3.0416179e-07
3.0438042e-07
3.0485085e-07
3.0561267e-07
3.0671007e-07
3.0820096e-07
3.1015363e-07
3.1264423e-07
3.1575334e-07
3.1956453e-07
3.2416579e-07
3.2965145e-07
3.361211e-07
3.4367283e-07
3.5239587e-07
3.623666e-07
3.7365943e-07
3.863676e-07
4.0064089e-07
4.1674461e-07
4.34903e-07
4.5609779e-07
4.7866966e-07
5.1089369e-07
3.3421176e-06
2.6818784e-06
2.2258371e-06
1.9024817e-06
1.6639105e-06
1.4812075e-06
1.3368897e-06
1.2200148e-06
1.1234383e-06
1.0423047e-06
9.7319738e-07
9.1364045e-07
8.6179478e-07
8.1626495e-07
7.7597305e-07
7.4007304e-07
7.0789169e-07
6.7888659e-07
6.5261591e-07
6.2871615e-07
6.0688557e-07
5.8687166e-07
5.6846152e-07
5.5147445e-07
5.3575618e-07
5.2117418e-07
5.076141e-07
4.9497672e-07
4.8317564e-07
4.7213528e-07
4.6178931e-07
4.520793e-07
4.4295361e-07
4.343665e-07
4.2627734e-07
4.1864991e-07
4.1145192e-07
4.0465446e-07
3.9823162e-07
3.9216013e-07
3.8641902e-07
3.8098938e-07
3.7585411e-07
3.7099767e-07
3.6640595e-07
3.6206604e-07
3.5796609e-07
3.5409519e-07
3.5044319e-07
3.4700059e-07
3.4375843e-07
3.4070819e-07
3.3784148e-07
3.3515048e-07
3.3262766e-07
3.3026577e-07
3.2805652e-07
3.2599243e-07
3.2406467e-07
3.2226541e-07
3.2058614e-07
3.1901898e-07
3.1755424e-07
3.1618534e-07
3.1490382e-07
3.1370028e-07
3.1256523e-07
3.1149281e-07
3.1047772e-07
3.0951221e-07
3.0859034e-07
3.0770957e-07
3.0686966e-07
3.0607219e-07
3.0532118e-07
3.0462381e-07
3.0399079e-07
3.0343675e-07
3.0298056e-07
3.0264553e-07
3.024597e-07
3.0245593e-07
3.0267096e-07
3.0315562e-07
3.0396695e-07
3.0515873e-07
3.0678436e-07
3.0889986e-07
3.1156573e-07
3.1484821e-07
3.1882005e-07
3.2356114e-07
3.2915933e-07
3.3570962e-07
3.433118e-07
3.5206425e-07
3.620571e-07
3.7336712e-07
3.8605958e-07
4.0022761e-07
4.1592166e-07
4.3358872e-07
4.5236044e-07
4.7764279e-07
3.3422472e-06
2.6822545e-06
2.2263148e-06
1.9029918e-06
1.6644228e-06
1.481709e-06
1.3373753e-06
1.2204825e-06
1.1238878e-06
1.0427365e-06
9.7361251e-07
9.1404003e-07
8.6217999e-07
8.1663695e-07
7.7633292e-07
7.4042179e-07
7.0823026e-07
6.7921583e-07
6.5293662e-07
6.2902907e-07
6.0719137e-07
5.8717096e-07
5.6875489e-07
5.5176244e-07
5.3603927e-07
5.2145285e-07
5.0788875e-07
4.9524775e-07
4.8344341e-07
4.724001e-07
4.6205147e-07
4.5233905e-07
4.4321116e-07
4.3462204e-07
4.2653099e-07
4.1890179e-07
4.1170209e-07
4.0490294e-07
3.9847841e-07
3.9240516e-07
3.8666221e-07
3.812306e-07
3.7609319e-07
3.7123441e-07
3.666401e-07
3.6229732e-07
3.5819417e-07
3.543197e-07
3.5066371e-07
3.4721665e-07
3.4396951e-07
3.409137e-07
3.3804084e-07
3.3534299e-07
3.3281236e-07
3.3044132e-07
3.2822144e-07
3.2614516e-07
3.242041e-07
3.2239058e-07
3.2069622e-07
3.1911283e-07
3.1763083e-07
3.162426e-07
3.1493945e-07
3.1371172e-07
3.1254956e-07
3.1144565e-07
3.1039365e-07
3.0938613e-07
3.0841726e-07
3.0748405e-07
3.0658553e-07
3.0572246e-07
3.0489791e-07
3.041179e-07
3.0339186e-07
3.0273298e-07
3.0215855e-07
3.0169011e-07
3.0135375e-07
3.0118012e-07
3.0120466e-07
3.0146505e-07
3.0200354e-07
3.0286841e-07
3.041134e-07
3.0579738e-07
3.0798295e-07
3.1073516e-07
3.1412095e-07
3.1820936e-07
3.2307222e-07
3.2878523e-07
3.3542966e-07
3.4309278e-07
3.5186651e-07
3.6184227e-07
3.7310302e-07
3.8572552e-07
3.997439e-07
4.1536492e-07
4.3191864e-07
4.5337774e-07
3.3424114e-06
2.6826515e-06
2.2268075e-06
1.9035131e-06
1.6649428e-06
1.482215e-06
1.3378623e-06
1.2209493e-06
1.1243345e-06
1.0431641e-06
9.7402221e-07
9.1443308e-07
8.6255761e-07
8.1700026e-07
7.7668295e-07
7.4075949e-07
7.0855646e-07
6.795313e-07
6.5324202e-07
6.2932499e-07
6.0747835e-07
5.8744946e-07
5.6902533e-07
5.5202519e-07
5.3629467e-07
5.2170119e-07
5.0813031e-07
4.9548277e-07
4.8367209e-07
4.7262265e-07
4.6226806e-07
4.5254981e-07
4.4341624e-07
4.3482153e-07
4.2672499e-07
4.1909037e-07
4.1188529e-07
4.050808e-07
3.9865092e-07
3.9257232e-07
3.8682398e-07
3.8138692e-07
3.7624397e-07
3.7137953e-07
3.6677943e-07
3.6243068e-07
3.5832135e-07
3.5444044e-07
3.5077772e-07
3.4732359e-07
3.4406898e-07
3.4100524e-07
3.3812396e-07
3.3541709e-07
3.3287677e-07
3.3049532e-07
3.2826449e-07
3.2617647e-07
3.2422275e-07
3.2239512e-07
3.2068489e-07
3.1908353e-07
3.1758156e-07
3.1617068e-07
3.1484207e-07
3.1358616e-07
3.1239333e-07
3.1125569e-07
3.101664e-07
3.0911805e-07
3.0810428e-07
3.0712099e-07
3.0616611e-07
3.0523951e-07
3.0434337e-07
3.0348269e-07
3.0266573e-07
3.0190429e-07
3.0121402e-07
3.0061458e-07
3.0012986e-07
2.9978811e-07
2.996211e-07
2.9967018e-07
2.9998072e-07
3.005981e-07
3.0156894e-07
3.0294229e-07
3.0477032e-07
3.0710846e-07
3.1001562e-07
3.1355427e-07
3.1778973e-07
3.2278956e-07
3.2862373e-07
3.3536485e-07
3.4308957e-07
3.5187829e-07
3.6181533e-07
3.7298305e-07
3.8544353e-07
3.9936504e-07
4.141841e-07
4.3318296e-07
3.3425884e-06
2.6830482e-06
2.2272944e-06
1.9040263e-06
1.6654534e-06
1.4827108e-06
1.3383387e-06
1.2214051e-06
1.1247701e-06
1.0435805e-06
9.7442066e-07
9.1481496e-07
8.6292423e-07
8.1735284e-07
7.7702262e-07
7.4108728e-07
7.0887332e-07
6.7983811e-07
6.5353958e-07
6.2961403e-07
6.0775953e-07
5.8772338e-07
5.6929255e-07
5.5228621e-07
5.3654995e-07
5.2195114e-07
5.0837531e-07
4.9572315e-07
4.8390817e-07
4.7285469e-07
4.624963e-07
4.5277447e-07
4.4363749e-07
4.3503952e-07
4.2693984e-07
4.1930216e-07
4.1209409e-07
4.0528663e-07
3.9885379e-07
3.9277221e-07
3.8702083e-07
3.8158065e-07
3.7643448e-07
3.7156669e-07
3.6696306e-07
3.6261058e-07
3.5849729e-07
3.5461215e-07
3.5094488e-07
3.4748585e-07
3.4422593e-07
3.4115644e-07
3.3826891e-07
3.3555524e-07
3.3300744e-07
3.3061769e-07
3.2837769e-07
3.2627941e-07
3.2431435e-07
3.2247422e-07
3.2075034e-07
3.1913404e-07
3.1761588e-07
3.1618709e-07
3.148386e-07
3.1356074e-07
3.1234375e-07
3.111791e-07
3.1005924e-07
3.0897655e-07
3.0792441e-07
3.0689818e-07
3.0589521e-07
3.0491476e-07
3.0395828e-07
3.0302994e-07
3.0213699e-07
3.0129011e-07
3.0050368e-07
2.9979594e-07
2.991892e-07
2.9870992e-07
2.9838837e-07
2.9825957e-07
2.9836215e-07
2.9873781e-07
2.9943151e-07
3.0049156e-07
3.0196902e-07
3.0391678e-07
3.0638918e-07
3.0944223e-07
3.1313342e-07
3.1752173e-07
3.2266771e-07
3.286331e-07
3.3548141e-07
3.4327718e-07
3.5209013e-07
3.6198936e-07
3.730395e-07
3.8540016e-07
3.9859319e-07
4.1552441e-07
3.3427674e-06
2.6834372e-06
2.2277682e-06
1.9045238e-06
1.6659475e-06
1.4831901e-06
1.3387988e-06
1.2218448e-06
1.12519e-06
1.0439816e-06
9.7480419e-07
9.1518222e-07
8.6327646e-07
8.1769123e-07
7.7734824e-07
7.4140111e-07
7.0917627e-07
6.8013098e-07
6.5382309e-07
6.2988882e-07
6.0802619e-07
5.8798243e-07
5.6954444e-07
5.5253137e-07
5.3678874e-07
5.221839e-07
5.0860234e-07
4.9594473e-07
4.8412454e-07
4.7306607e-07
4.6270287e-07
4.529764e-07
4.4383492e-07
4.3523258e-07
4.2712863e-07
4.1948676e-07
4.1227457e-07
4.0546304e-07
3.9902615e-07
3.9294052e-07
3.8718508e-07
3.817408e-07
3.7659046e-07
3.7171842e-07
3.6711041e-07
3.6275341e-07
3.5863542e-07
3.5474537e-07
3.5107293e-07
3.4760843e-07
3.443427e-07
3.4126701e-07
3.3837285e-07
3.3565204e-07
3.3309651e-07
3.3069836e-07
3.2844927e-07
3.2634113e-07
3.243654e-07
3.2251356e-07
3.2077679e-07
3.1914615e-07
3.1761214e-07
3.1616565e-07
3.1479736e-07
3.1349757e-07
3.1225645e-07
3.1106513e-07
3.0991564e-07
3.0880022e-07
3.0771195e-07
3.0664562e-07
3.0559787e-07
3.0456726e-07
3.0355451e-07
3.0256296e-07
3.0159895e-07
3.0067211e-07
2.9979559e-07
2.9898627e-07
2.9826489e-07
2.9765619e-07
2.9718815e-07
2.9689612e-07
2.9681854e-07
2.9699484e-07
2.9746609e-07
2.982755e-07
2.9946861e-07
3.0109289e-07
3.031975e-07
3.0583343e-07
3.0905311e-07
3.1291006e-07
3.1745886e-07
3.2275442e-07
3.288524e-07
3.3580709e-07
3.4367622e-07
3.5251279e-07
3.6237027e-07
3.733823e-07
3.8513721e-07
4.0017249e-07
3.3429444e-06
2.6838135e-06
2.2282249e-06
1.9050027e-06
1.6664226e-06
1.4836503e-06
1.3392402e-06
1.2222666e-06
1.1255924e-06
1.0443657e-06
9.7517134e-07
9.1553367e-07
8.6361347e-07
8.1801496e-07
7.7765977e-07
7.4170142e-07
7.0946625e-07
6.8041144e-07
6.5409479e-07
6.3015243e-07
6.082823e-07
5.882316e-07
5.6978718e-07
5.527681e-07
5.3701989e-07
5.2240983e-07
5.0882338e-07
4.9616119e-07
4.8433667e-07
4.7327412e-07
4.6290705e-07
4.5317691e-07
4.4403191e-07
4.3542619e-07
4.2731897e-07
4.1967393e-07
4.1245862e-07
4.0564402e-07
3.9920408e-07
3.931154e-07
3.8735688e-07
3.8190947e-07
3.7675592e-07
3.7188056e-07
3.6726912e-07
3.6290851e-07
3.5878673e-07
3.5489265e-07
3.5121592e-07
3.4774684e-07
3.444762e-07
3.413952e-07
3.3849531e-07
3.3576829e-07
3.33206e-07
3.3080044e-07
3.2854326e-07
3.2642623e-07
3.2444074e-07
3.2257816e-07
3.2082959e-07
3.1918597e-07
3.1763778e-07
3.1617564e-07
3.1479008e-07
3.1347125e-07
3.1220925e-07
3.1099486e-07
3.0981968e-07
3.0867569e-07
3.0755568e-07
3.0645402e-07
3.0536682e-07
3.042921e-07
3.0323002e-07
3.0218324e-07
3.0115733e-07
3.0016101e-07
2.9920645e-07
2.983094e-07
2.9748933e-07
2.9676957e-07
2.9617671e-07
2.9574289e-07
2.9550313e-07
2.9549439e-07
2.9575586e-07
2.9632905e-07
2.9725764e-07
2.985866e-07
3.0036173e-07
3.0262983e-07
3.0543819e-07
3.0883473e-07
3.1286801e-07
3.1758662e-07
3.2303974e-07
3.2927443e-07
3.3634092e-07
3.4428136e-07
3.5314121e-07
3.6302552e-07
3.7357969e-07
3.8697541e-07
3.3431108e-06
2.6841727e-06
2.2286613e-06
1.9054601e-06
1.6668762e-06
1.4840899e-06
1.3396618e-06
1.2226692e-06
1.1259766e-06
1.0447325e-06
9.7552189e-07
9.1586922e-07
8.6393518e-07
8.1832394e-07
7.7795705e-07
7.4198795e-07
7.0974288e-07
6.8067894e-07
6.5435385e-07
6.3040366e-07
6.0852627e-07
5.8846879e-07
5.7001804e-07
5.5299303e-07
5.3723925e-07
5.2262394e-07
5.0903254e-07
4.9636565e-07
4.8453669e-07
4.734699e-07
4.6309878e-07
4.5336474e-07
4.4421599e-07
4.3560665e-07
4.2749591e-07
4.1984743e-07
4.1262875e-07
4.0581082e-07
3.9936758e-07
3.932756e-07
3.8751376e-07
3.82063e-07
3.7690604e-07
3.7202718e-07
3.6741213e-07
3.6304777e-07
3.5892207e-07
3.5502387e-07
3.513428e-07
3.478691e-07
3.4459353e-07
3.4150725e-07
3.386017e-07
3.3586857e-07
3.3329967e-07
3.308869e-07
3.286219e-07
3.2649635e-07
3.2450159e-07
3.2262888e-07
3.208692e-07
3.1921337e-07
3.1765175e-07
3.1617478e-07
3.1477278e-07
3.1343581e-07
3.1215386e-07
3.1091748e-07
3.0971796e-07
3.0854706e-07
3.0739735e-07
3.0626278e-07
3.0513903e-07
3.0402357e-07
3.02916e-07
3.0181835e-07
3.0073546e-07
2.9967526e-07
2.9864899e-07
2.9767138e-07
2.9676075e-07
2.9593914e-07
2.9523161e-07
2.9466947e-07
2.9428672e-07
2.9411854e-07
2.9420168e-07
2.9457473e-07
2.9527812e-07
2.9635345e-07
2.9784312e-07
2.9979032e-07
3.0223878e-07
3.0523251e-07
3.0881573e-07
3.1303222e-07
3.1792594e-07
3.235381e-07
3.2991325e-07
3.3708593e-07
3.4509724e-07
3.5403058e-07
3.6358105e-07
3.7560994e-07
3.3432718e-06
2.6845175e-06
2.2290798e-06
1.9058987e-06
1.667311e-06
1.484511e-06
1.3400655e-06
1.2230548e-06
1.1263444e-06
1.0450835e-06
9.7585728e-07
9.161902e-07
8.6424292e-07
8.1861952e-07
7.7824146e-07
7.4226209e-07
7.1000757e-07
6.8093494e-07
6.5460183e-07
6.3064424e-07
6.0875999e-07
5.8869615e-07
5.7023947e-07
5.5320895e-07
5.3745001e-07
5.2282989e-07
5.0923396e-07
4.9656281e-07
4.8472982e-07
4.7365922e-07
4.6328449e-07
4.5354701e-07
4.4439497e-07
4.3578244e-07
4.2766863e-07
4.2001716e-07
4.1279556e-07
4.0597474e-07
3.9952863e-07
3.9343378e-07
3.8766905e-07
3.8221535e-07
3.7705538e-07
3.7217342e-07
3.6755515e-07
3.6318743e-07
3.590582e-07
3.5515627e-07
3.5147123e-07
3.4799329e-07
3.4471318e-07
3.4162202e-07
3.3871121e-07
3.3597239e-07
3.3339732e-07
3.3097783e-07
3.2870552e-07
3.2657197e-07
3.2456848e-07
3.2268621e-07
3.2091605e-07
3.192487e-07
3.1767448e-07
3.1618366e-07
3.1476641e-07
3.1341269e-07
3.1211239e-07
3.1085588e-07
3.0963412e-07
3.0843867e-07
3.0726184e-07
3.0609728e-07
3.0494023e-07
3.0378775e-07
3.0263895e-07
3.0149535e-07
3.0036119e-07
2.992437e-07
2.9815336e-07
2.9710402e-07
2.9611302e-07
2.9520133e-07
2.9439284e-07
2.9371701e-07
2.932058e-07
2.9289269e-07
2.9281276e-07
2.9300297e-07
2.9350193e-07
2.9434912e-07
2.9558446e-07
2.9724817e-07
2.9938053e-07
3.0202192e-07
3.0521269e-07
3.0899242e-07
3.1340069e-07
3.1847381e-07
3.2425154e-07
3.3076249e-07
3.3804437e-07
3.4616506e-07
3.5486066e-07
3.65744e-07
3.3434281e-06
2.6848508e-06
2.2294831e-06
1.9063206e-06
1.6677289e-06
1.4849154e-06
1.340453e-06
1.2234246e-06
1.1266971e-06
1.0454201e-06
9.7617881e-07
9.1649786e-07
8.645378e-07
8.1890268e-07
7.7851385e-07
7.425246e-07
7.1026102e-07
6.8118004e-07
6.5483922e-07
6.308745e-07
6.0898364e-07
5.8891365e-07
5.7045125e-07
5.5341537e-07
5.3765142e-07
5.2302658e-07
5.0942622e-07
4.9675089e-07
4.8491395e-07
4.7383959e-07
4.6346127e-07
4.5372036e-07
4.4456502e-07
4.3594932e-07
4.2783242e-07
4.2017794e-07
4.1295338e-07
4.0612965e-07
3.9968064e-07
3.9358289e-07
3.8781523e-07
3.8235857e-07
3.7719557e-07
3.723105e-07
3.67689e-07
3.6331792e-07
3.5918515e-07
3.552795e-07
3.5159052e-07
3.4810839e-07
3.4482378e-07
3.417278e-07
3.3881181e-07
3.360674e-07
3.3348627e-07
3.3106018e-07
3.287807e-07
3.2663933e-07
3.2462732e-07
3.2273573e-07
3.2095539e-07
3.1927686e-07
3.1769041e-07
3.1618614e-07
3.147541e-07
3.1338413e-07
3.1206603e-07
3.1078998e-07
3.0954673e-07
3.0832762e-07
3.0712476e-07
3.0593153e-07
3.0474283e-07
3.0355534e-07
3.0236774e-07
3.011811e-07
2.9999913e-07
2.9882845e-07
2.9767888e-07
2.9656352e-07
2.9549884e-07
2.9450486e-07
2.936044e-07
2.9282586e-07
2.9220013e-07
2.9175925e-07
2.9153666e-07
2.9156739e-07
2.918879e-07
2.9253532e-07
2.9354724e-07
2.9496141e-07
2.9681547e-07
2.9914693e-07
3.019931e-07
3.0539029e-07
3.0937455e-07
3.1397831e-07
3.1923728e-07
3.2517535e-07
3.3182698e-07
3.3924826e-07
3.4720813e-07
3.5711722e-07
3.3435837e-06
2.6851742e-06
2.2298731e-06
1.906728e-06
1.6681318e-06
1.485305e-06
1.3408261e-06
1.2237805e-06
1.1270363e-06
1.0457435e-06
9.7648764e-07
9.1679324e-07
8.6482086e-07
8.1917441e-07
7.787752e-07
7.4277642e-07
7.1050407e-07
6.8141502e-07
6.5506677e-07
6.310952e-07
6.0919798e-07
5.8912209e-07
5.7065419e-07
5.536132e-07
5.3784446e-07
5.2321515e-07
5.0961058e-07
4.9693128e-07
4.850906e-07
4.7401269e-07
4.63631e-07
4.5388687e-07
4.4472844e-07
4.3610976e-07
4.2798998e-07
4.2033268e-07
4.1310536e-07
4.0627889e-07
3.9982717e-07
3.9372669e-07
3.8795629e-07
3.8249683e-07
3.7733096e-07
3.7244292e-07
3.6781834e-07
3.6344403e-07
3.5930787e-07
3.5539862e-07
3.5170581e-07
3.4821959e-07
3.4493059e-07
3.4182988e-07
3.3890879e-07
3.3615885e-07
3.3357172e-07
3.3113909e-07
3.2885249e-07
3.2670334e-07
3.2468283e-07
3.2278194e-07
3.209914e-07
3.193017e-07
3.1770299e-07
3.1618529e-07
3.1473849e-07
3.1335235e-07
3.1201657e-07
3.1072118e-07
3.0945673e-07
3.0821438e-07
3.0698606e-07
3.0576489e-07
3.0454551e-07
3.0332427e-07
3.0209955e-07
3.0087201e-07
2.9964497e-07
2.9842456e-07
2.9722006e-07
2.9604393e-07
2.9491195e-07
2.938433e-07
2.9285992e-07
2.9198894e-07
2.9125989e-07
2.9070353e-07
2.9035199e-07
2.9023895e-07
2.9039925e-07
2.9086831e-07
2.9168177e-07
2.9287519e-07
2.9448388e-07
2.9654285e-07
2.9908672e-07
3.0214897e-07
3.057627e-07
3.0995713e-07
3.1476463e-07
3.2020538e-07
3.2631086e-07
3.33128e-07
3.404523e-07
3.4952637e-07
3.3437386e-06
2.6854901e-06
2.2302517e-06
1.9071222e-06
1.6685212e-06
1.4856811e-06
1.3411858e-06
1.2241233e-06
1.1273628e-06
1.0460547e-06
9.7678458e-07
9.1707708e-07
8.6509265e-07
8.1943516e-07
7.7902584e-07
7.4301779e-07
7.1073694e-07
6.8164008e-07
6.5528464e-07
6.313064e-07
6.0940303e-07
5.8932142e-07
5.7084819e-07
5.5380222e-07
5.3802883e-07
5.2339515e-07
5.0978648e-07
4.9710332e-07
4.8525898e-07
4.741776e-07
4.6379261e-07
4.5404531e-07
4.4488384e-07
4.3626222e-07
4.2813958e-07
4.2047949e-07
4.1324941e-07
4.0642023e-07
3.9996579e-07
3.9386258e-07
3.8808941e-07
3.8262713e-07
3.7745835e-07
3.7256731e-07
3.679396e-07
3.6356201e-07
3.5942239e-07
3.5550947e-07
3.5181273e-07
3.4832229e-07
3.4502877e-07
3.4192318e-07
3.389968e-07
3.3624114e-07
3.3364777e-07
3.3120833e-07
3.2891428e-07
3.2675699e-07
3.2472755e-07
3.2281687e-07
3.2101559e-07
3.1931408e-07
3.1770241e-07
3.161705e-07
3.1470809e-07
3.1330485e-07
3.1195037e-07
3.1063456e-07
3.0934782e-07
3.0808113e-07
3.0682629e-07
3.0557625e-07
3.0432544e-07
3.0306998e-07
3.0180801e-07
3.0053993e-07
2.9926872e-07
2.9800017e-07
2.9674309e-07
2.9550947e-07
2.9431447e-07
2.9317659e-07
2.9211699e-07
2.9116182e-07
2.9033963e-07
2.8968007e-07
2.8921403e-07
2.8897379e-07
2.8899266e-07
2.8930436e-07
2.8994274e-07
2.9094145e-07
2.9233383e-07
2.9415279e-07
2.9643081e-07
2.9919902e-07
3.0248808e-07
3.0632463e-07
3.1073822e-07
3.1574609e-07
3.2137703e-07
3.2767084e-07
3.3444454e-07
3.4280102e-07
3.3438995e-06
2.6858012e-06
2.2306209e-06
1.907505e-06
1.6688982e-06
1.4860443e-06
1.3415328e-06
1.2244536e-06
1.1276769e-06
1.0463537e-06
9.770697e-07
9.173494e-07
8.6535325e-07
8.1968504e-07
7.7926588e-07
7.4324882e-07
7.109597e-07
6.8185525e-07
6.5549281e-07
6.3150813e-07
6.0959877e-07
5.8951162e-07
5.7103323e-07
5.5398245e-07
5.3820457e-07
5.2356667e-07
5.0995404e-07
4.9726714e-07
4.8541926e-07
4.7433453e-07
4.6394633e-07
4.5419597e-07
4.4503155e-07
4.3640707e-07
4.2828164e-07
4.2061882e-07
4.1338605e-07
4.0655418e-07
4.0009705e-07
3.9399112e-07
3.8821519e-07
3.8275006e-07
3.7757835e-07
3.7268425e-07
3.6805332e-07
3.6367234e-07
3.5952911e-07
3.5561234e-07
3.5191147e-07
3.4841658e-07
3.4511824e-07
3.4200741e-07
3.3907533e-07
3.3631345e-07
3.3371327e-07
3.3126636e-07
3.289641e-07
3.2679777e-07
3.2475838e-07
3.2283674e-07
3.2102338e-07
3.1930856e-07
3.1768226e-07
3.1613427e-07
3.1465422e-07
3.1323167e-07
3.1185616e-07
3.1051746e-07
3.0920586e-07
3.0791224e-07
3.0662832e-07
3.0534695e-07
3.0406241e-07
3.0277073e-07
3.014699e-07
3.0016016e-07
2.988443e-07
2.9752787e-07
2.9621937e-07
2.949304e-07
2.9367564e-07
2.92473e-07
2.91343e-07
2.9031077e-07
2.8940387e-07
2.8865091e-07
2.8808171e-07
2.8772744e-07
2.876201e-07
2.8779196e-07
2.8827537e-07
2.8910229e-07
2.9030427e-07
2.9191239e-07
2.9395718e-07
2.9646778e-07
2.9947275e-07
3.0299655e-07
3.0706638e-07
3.1169719e-07
3.1691531e-07
3.2275514e-07
3.2905075e-07
3.3679031e-07
3.3440516e-06
2.6860999e-06
2.2309758e-06
1.9078729e-06
1.6692604e-06
1.4863933e-06
1.3418658e-06
1.2247703e-06
1.1279781e-06
1.0466402e-06
9.7734266e-07
9.1760992e-07
8.6560236e-07
8.199237e-07
7.7949499e-07
7.4346918e-07
7.1117206e-07
6.8206025e-07
6.5569103e-07
6.3170008e-07
6.0978493e-07
5.8969239e-07
5.7120899e-07
5.5415353e-07
5.3837126e-07
5.2372925e-07
5.1011275e-07
4.9742219e-07
4.8557084e-07
4.7448281e-07
4.6409145e-07
4.5433805e-07
4.4517068e-07
4.3654333e-07
4.284151e-07
4.2074951e-07
4.1351398e-07
4.0667935e-07
4.0021942e-07
3.9411066e-07
3.883318e-07
3.8286365e-07
3.7768879e-07
3.7279138e-07
3.6815696e-07
3.6377225e-07
3.5962503e-07
3.5570396e-07
3.5199845e-07
3.4849852e-07
3.4519468e-07
3.4207784e-07
3.3913917e-07
3.3637004e-07
3.3376188e-07
3.3130613e-07
3.2899412e-07
3.2681698e-07
3.2476564e-07
3.2283076e-07
3.2100277e-07
3.1927181e-07
3.1762774e-07
3.1606024e-07
3.1455884e-07
3.1311299e-07
3.1171219e-07
3.1034616e-07
3.0900512e-07
3.0767993e-07
3.063623e-07
3.0504507e-07
3.0372255e-07
3.0239074e-07
3.0104762e-07
2.9969341e-07
2.9833082e-07
2.9696528e-07
2.9560507e-07
2.9426151e-07
2.929489e-07
2.9168465e-07
2.904887e-07
2.8938532e-07
2.8840117e-07
2.8756393e-07
2.8690241e-07
2.864467e-07
2.8622758e-07
2.8627604e-07
2.8662295e-07
2.8729874e-07
2.8833346e-07
2.8975652e-07
2.9159677e-07
2.9388175e-07
2.9663844e-07
2.9988943e-07
3.0365968e-07
3.0796222e-07
3.1282107e-07
3.1826677e-07
3.2414633e-07
3.3135607e-07
3.3442088e-06
2.6863929e-06
2.2313204e-06
1.9082285e-06
1.6696094e-06
1.4867288e-06
1.3421855e-06
1.2250741e-06
1.1282664e-06
1.0469142e-06
9.7760344e-07
9.1785858e-07
8.6583993e-07
8.2015112e-07
7.7971313e-07
7.4367883e-07
7.113739e-07
6.8225493e-07
6.5587911e-07
6.3188207e-07
6.0996128e-07
5.8986349e-07
5.7137519e-07
5.5431516e-07
5.3852861e-07
5.2388256e-07
5.1026225e-07
4.9756809e-07
4.8571331e-07
4.7462198e-07
4.6422746e-07
4.54471e-07
4.4530065e-07
4.3667038e-07
4.2853925e-07
4.2087077e-07
4.1363234e-07
4.0679477e-07
4.0033185e-07
3.9421999e-07
3.8843793e-07
3.8296642e-07
3.7778802e-07
3.7288685e-07
3.682484e-07
3.6385936e-07
3.5970745e-07
3.5578129e-07
3.5207021e-07
3.4856416e-07
3.452536e-07
3.4212934e-07
3.3918247e-07
3.3640424e-07
3.3378598e-07
3.3131901e-07
3.2899451e-07
3.2680349e-07
3.2473673e-07
3.2278477e-07
3.2093789e-07
3.191861e-07
3.1751916e-07
3.1592665e-07
3.1439803e-07
3.1292272e-07
3.1149021e-07
3.1009024e-07
3.0871307e-07
3.0734965e-07
3.0599177e-07
3.0463241e-07
3.0326599e-07
3.0188866e-07
3.004985e-07
2.9909582e-07
2.9768337e-07
2.9626654e-07
2.9485353e-07
2.9345541e-07
2.9208619e-07
2.9076282e-07
2.8950472e-07
2.8833531e-07
2.8728036e-07
2.8636665e-07
2.8562205e-07
2.8507566e-07
2.8475723e-07
2.8469648e-07
2.8492307e-07
2.8546616e-07
2.8635407e-07
2.8761573e-07
2.892771e-07
2.9136456e-07
2.9390396e-07
2.9691674e-07
3.0042602e-07
3.0444315e-07
3.0898976e-07
3.1409369e-07
3.1961096e-07
3.263671e-07
3.3443577e-06
2.6866742e-06
2.2316512e-06
1.9085696e-06
1.669944e-06
1.4870501e-06
1.3424913e-06
1.2253642e-06
1.1285416e-06
1.0471755e-06
9.7785183e-07
9.1809515e-07
8.6606568e-07