/*--------------------------------*- C++ -*----------------------------------*\
| =========                 |                                                 |
| \\      /  F ield         | OpenFOAM: The Open Source CFD Toolbox           |
|  \\    /   O peration     | Version:  2406                                  |
|   \\  /    A nd           | Website:  www.openfoam.com                      |
|    \\/     M anipulation  |                                                 |
\*---------------------------------------------------------------------------*/
FoamFile
{
    version     2.0;
    format      ascii;
    arch        "LSB;label=32;scalar=64";
    class       volScalarField;
    location    "1000";
    object      omega;
}
// * * * * * * * * * * * * * * * * * * * * * * * * * * * * * * * * * * * * * //

dimensions      [0 0 -1 0 0 0 0];

internalField   nonuniform List<scalar> 
132739
(
3.8479849
3.1402809
2.6450748
2.2894595
2.0240514
1.8187311
1.6551067
1.5215575
1.4104303
1.316483
1.2360005
1.1662731
1.1052765
1.0514658
1.0036421
0.96085941
0.92236204
0.88753822
0.85588773
0.82699737
0.8005229
0.7761752
0.7537097
0.73291812
0.71362203
0.69566762
0.67892179
0.66326856
0.64860667
0.63484712
0.62191154
0.60973059
0.59824271
0.58739313
0.57713293
0.56741829
0.55820988
0.54947227
0.54117355
0.53328478
0.52577979
0.51863475
0.51182801
0.50533979
0.49915204
0.49324818
0.48761305
0.48223263
0.47709403
0.47218523
0.46749524
0.46301294
0.45873167
0.45463499
0.4507053
0.44691856
0.44328537
0.43971761
0.43624908
0.43285488
0.42959222
0.42639092
0.42334119
0.42039312
0.41761405
0.41502888
0.4126721
0.41051548
0.40854688
0.40680717
0.4051553
0.40355711
0.40200787
0.40051129
0.3990759
0.39771365
0.39644267
0.39527744
0.39425425
0.39337957
0.39271746
0.39238336
0.39224108
0.39237954
0.39288166
0.39384742
0.39544031
0.39775957
0.4011452
0.40559072
0.41110018
0.41761418
0.42500548
0.43311751
0.44182298
0.45107896
0.46095034
0.47163519
0.48317543
0.49573015
0.5095184
0.52452718
0.54173594
0.55747583
3.8481515
3.1407944
2.645746
2.2901936
2.0248031
1.8194794
1.6558417
1.5222753
1.4111298
1.3171647
1.2366654
1.166923
1.1059128
1.0520905
1.0042568
0.96146606
0.92296222
0.88813353
0.85647964
0.82758723
0.80111196
0.77676459
0.75430044
0.73351111
0.71421804
0.69626735
0.67952571
0.66387708
0.64921996
0.63546521
0.62253426
0.61035758
0.59887347
0.58802695
0.57776895
0.56805554
0.55884728
0.55010867
0.54180772
0.53391552
0.52640588
0.51925503
0.51244138
0.50594524
0.49974863
0.49383511
0.48818957
0.48279811
0.47764792
0.47272705
0.46802462
0.46352918
0.4592368
0.45510582
0.45111508
0.44725167
0.44354329
0.44000773
0.4366435
0.43343469
0.43037853
0.42745054
0.42465064
0.42197062
0.41941827
0.41698553
0.41465921
0.41245462
0.4103444
0.40842485
0.40658301
0.40479681
0.40306711
0.40140249
0.39981457
0.39831671
0.39692399
0.39565368
0.39452507
0.39355934
0.3927856
0.392209
0.39203304
0.39206139
0.39224008
0.39260635
0.39338438
0.39452726
0.39617165
0.39849365
0.40169512
0.40597533
0.41148955
0.41831122
0.42641162
0.43567673
0.44593681
0.45705857
0.46890682
0.48135176
0.49418704
0.507511
0.52145836
0.53801953
3.8483161
3.1412864
2.6463803
2.2908781
2.0254954
1.8201604
1.6565031
1.5229138
1.4117443
1.3177551
1.2372323
1.1674668
1.1064343
1.0525903
1.0047354
0.96192383
0.92339948
0.88855052
0.85687648
0.82796402
0.80146874
0.7771014
0.75461729
0.733808
0.71449493
0.69652416
0.67976234
0.66409337
0.64941572
0.63564022
0.62268829
0.6104904
0.59898485
0.58811671
0.57783698
0.56810177
0.5588717
0.55011136
0.54178885
0.5338753
0.52634461
0.51917306
0.51233909
0.50582306
0.49960698
0.49367441
0.48801022
0.48260048
0.47743227
0.47249362
0.46777333
0.46326102
0.45894565
0.45482025
0.45087785
0.44711187
0.44351198
0.44006631
0.43676638
0.43360401
0.43057346
0.42766448
0.42487164
0.42219199
0.41962214
0.41715199
0.41477238
0.41248655
0.4102909
0.40816171
0.40610184
0.40411617
0.4022094
0.40038594
0.39865089
0.39701105
0.39547547
0.39405612
0.39276691
0.39162941
0.3906468
0.38992619
0.38939584
0.38909744
0.38910278
0.38950572
0.39030864
0.39151134
0.39310676
0.39510096
0.39753455
0.40050092
0.4041513
0.40867954
0.41428555
0.42113275
0.42930444
0.43879738
0.44952151
0.46132668
0.4740081
0.48740964
0.50061212
0.51743589
3.8484848
3.1417669
2.6469959
2.2915409
2.0261651
1.8208191
1.6571433
1.5235327
1.4123415
1.3183312
1.2377886
1.1680049
1.1069556
1.0530964
1.005228
0.96240445
0.92386965
0.88901173
0.85733022
0.82841174
0.80191186
0.77754127
0.75505517
0.73424505
0.71493221
0.69696259
0.68020272
0.6645364
0.64986201
0.63609029
0.6231426
0.61094937
0.59944884
0.58858608
0.57831202
0.56858274
0.55935885
0.55060489
0.54228891
0.53438201
0.52685804
0.51969322
0.51286596
0.50635653
0.50014692
0.49422061
0.48856242
0.48315834
0.47799543
0.47306162
0.46834569
0.46383698
0.45952565
0.45540137
0.45145487
0.44767757
0.44406108
0.44060044
0.43728678
0.43411342
0.43107188
0.42815565
0.42535477
0.42266754
0.42008438
0.41759537
0.41519201
0.41287477
0.4106391
0.40848186
0.40640001
0.40439374
0.40246376
0.40061119
0.39883891
0.39715221
0.39555897
0.39406978
0.39269812
0.39146027
0.39037558
0.3894662
0.38875857
0.38827239
0.38801793
0.38803163
0.38836167
0.38906392
0.39019144
0.39178424
0.39386465
0.39644297
0.3995338
0.40317808
0.40746057
0.41251419
0.41850404
0.42559296
0.4339131
0.44351599
0.45438501
0.46660357
0.47877819
0.49497522
3.8486558
3.1422369
2.6475945
2.2921838
2.0268137
1.8214563
1.6577616
1.5241293
1.4129159
1.3188838
1.2383202
1.1685166
1.1074486
1.0535719
1.005687
0.96284798
0.9242987
0.88942718
0.85773283
0.82880219
0.80229068
0.77790887
0.75541183
0.73459094
0.71526737
0.69728701
0.68051633
0.66483909
0.65015366
0.63637079
0.62341185
0.61120729
0.59969539
0.58882121
0.57853572
0.56879503
0.55955974
0.55079443
0.54246714
0.53454898
0.52701379
0.51983781
0.51299943
0.50647892
0.50025824
0.49432088
0.48865161
0.48323642
0.47806231
0.47311721
0.4683898
0.46386952
0.45954604
0.45541031
0.45145382
0.4476684
0.44404463
0.44057415
0.43724776
0.43405827
0.43099806
0.42806026
0.42523624
0.42252195
0.41991018
0.4173938
0.41496543
0.41262246
0.41036152
0.40817412
0.40605606
0.40400684
0.40202688
0.40011738
0.39828112
0.39652285
0.39484957
0.39327064
0.39179803
0.39044629
0.3892328
0.38817748
0.38730253
0.38664009
0.38622811
0.38609636
0.38627035
0.38677571
0.38764225
0.38890565
0.39060517
0.3927778
0.39545195
0.39864569
0.40237362
0.40666119
0.41156274
0.4171675
0.42360477
0.43101392
0.43949047
0.44936863
0.45952627
0.47358192
3.8488309
3.1426968
2.6481763
2.2928069
2.0274414
1.8220723
1.6583593
1.5247064
1.4134721
1.3194199
1.2388375
1.1690165
1.1079329
1.0540419
1.0061444
0.9632941
0.92473477
0.8898543
0.85815198
0.8292142
0.80269628
0.7783087
0.75580644
0.73498082
0.71565296
0.69766871
0.68089453
0.66521415
0.65052594
0.63674064
0.6237796
0.61157325
0.60005986
0.58918446
0.57889801
0.56915658
0.55992075
0.55115505
0.54282749
0.53490917
0.52737388
0.52019783
0.51335936
0.50683872
0.50061784
0.49468015
0.48901041
0.48359455
0.47841956
0.4734733
0.46874444
0.46422232
0.4598968
0.45575838
0.45179791
0.44800669
0.44437567
0.44089744
0.43756382
0.43436767
0.4313011
0.42835688
0.42552644
0.42280441
0.42018348
0.4176556
0.41521286
0.41285104
0.41056593
0.40835169
0.40620496
0.40412444
0.40210971
0.40016124
0.398281
0.39647292
0.39474309
0.39309996
0.3915545
0.39012024
0.38881338
0.38765264
0.38666012
0.38585431
0.38525532
0.38489085
0.38479332
0.38499793
0.38554045
0.38645592
0.38777879
0.38954329
0.39178282
0.39452654
0.39779589
0.40160258
0.40595382
0.41086033
0.41635291
0.42249566
0.42934346
0.43717089
0.4453866
0.45665309
3.8490076
3.1431462
2.6487415
2.2934108
2.0280495
1.8226698
1.6589399
1.525268
1.4140144
1.3199435
1.2393434
1.1695059
1.1084069
1.0545017
1.0065909
0.96372822
0.92515716
0.89026551
0.85855248
0.82960438
0.8030765
0.77867925
0.75616761
0.73533286
0.71599613
0.69800323
0.68122061
0.665532
0.65083575
0.63704261
0.6240739
0.61186006
0.60033934
0.58945677
0.57916329
0.56941497
0.56017236
0.55140001
0.54306589
0.53514109
0.52759939
0.52041699
0.51357221
0.50704528
0.50081812
0.49487413
0.48919806
0.48377581
0.47859434
0.47364147
0.46890586
0.46437681
0.46004413
0.45589832
0.45193037
0.44813176
0.44449364
0.44100793
0.43766596
0.43445996
0.43138197
0.42842463
0.42557974
0.42284114
0.42020176
0.41765418
0.41519112
0.41280763
0.41049921
0.40826007
0.40608566
0.40397351
0.40192252
0.39993276
0.39800571
0.39614469
0.39435504
0.39264424
0.39102214
0.38950092
0.38809526
0.38682225
0.38570107
0.38475689
0.38401754
0.38350904
0.38325645
0.38328514
0.38362152
0.3842934
0.38532996
0.38676153
0.38861943
0.39093517
0.39373888
0.39705613
0.40090486
0.405293
0.41022138
0.41569522
0.42171038
0.42837749
0.43539081
0.44456182
3.8491927
3.1435915
2.6492977
2.294005
2.0286491
1.8232603
1.6595153
1.5258256
1.4145535
1.3204643
1.2398467
1.1699926
1.108878
1.0549584
1.0070341
0.96415885
0.92557613
0.89067366
0.85895055
0.82999309
0.80345651
0.77905117
0.75653201
0.73569027
0.71634703
0.6983481
0.68155989
0.66586608
0.651165
0.63736737
0.6243945
0.61217678
0.60065244
0.58976648
0.57946982
0.56971849
0.56047303
0.55169795
0.54336121
0.53543386
0.52788966
0.52070479
0.51385755
0.50732814
0.50109846
0.49515189
0.48947316
0.48404814
0.47886375
0.47390783
0.46916896
0.46463644
0.46030008
0.45615031
0.45217798
0.44837435
0.4447305
0.4412383
0.43788939
0.4346761
0.43159054
0.42862519
0.42577193
0.42302401
0.42037424
0.41781506
0.41533902
0.41294033
0.4106139
0.40835418
0.4061567
0.40401874
0.40193886
0.39991665
0.39795311
0.39605094
0.39421479
0.39245145
0.39076992
0.38918155
0.38770007
0.38634154
0.3851247
0.38406773
0.38319089
0.38251796
0.38207514
0.38189048
0.38199287
0.38241096
0.38317265
0.38430485
0.3858335
0.38778369
0.39018014
0.39304704
0.39640708
0.40027873
0.40467379
0.40959571
0.41503523
0.42102701
0.4273211
0.43532764
3.8493937
3.1440439
2.6498585
2.2946024
2.0292499
1.8238497
1.660087
1.5263776
1.4150853
1.3209766
1.2403404
1.1704688
1.1093379
1.0554029
1.0074644
0.9645758
0.92598063
0.89106649
0.85933243
0.83036467
0.80381836
0.77940384
0.75687598
0.73602598
0.71667489
0.69866848
0.68187311
0.66617247
0.65146485
0.63766094
0.62468203
0.6124585
0.60092855
0.59003718
0.57973527
0.56997886
0.56072846
0.55194856
0.54360712
0.53567517
0.52812645
0.52093713
0.5140855
0.50755174
0.50131773
0.49536684
0.48968377
0.48425438
0.47906557
0.47410514
0.46936166
0.46482439
0.46048312
0.45632824
0.45235056
0.44854131
0.4448917
0.44139346
0.43803815
0.4348178
0.43172437
0.42875016
0.4258871
0.42312807
0.42046583
0.41789289
0.41540195
0.41298689
0.41064237
0.40836287
0.40614362
0.40398127
0.40187378
0.39982025
0.3978212
0.39587879
0.39399706
0.39218205
0.39044193
0.38878708
0.38723014
0.385786
0.38447159
0.38330747
0.38231606
0.38152
0.38094215
0.38060594
0.38053552
0.38075561
0.3812913
0.3821679
0.38341016
0.38504176
0.38708498
0.38956052
0.39248789
0.3958848
0.39976773
0.40414709
0.40902709
0.41443563
0.4201508
0.42738021
3.8495983
3.1444881
2.6504064
2.2951852
2.0298354
1.8244235
1.6606432
1.526914
1.4156017
1.3214735
1.2408188
1.1709299
1.1097829
1.055833
1.0078805
0.96497902
0.92637185
0.89144657
0.85970217
0.83072479
0.80416953
0.77974667
0.75721104
0.73635379
0.71699593
0.69898319
0.68218189
0.6664757
0.65176286
0.63795405
0.62497052
0.61274264
0.60120858
0.59031332
0.58000771
0.57024776
0.56099398
0.55221083
0.54386625
0.53593125
0.52837957
0.52118733
0.51433282
0.5077962
0.50155934
0.49560559
0.48991961
0.48448727
0.47929544
0.47433188
0.46958516
0.46504451
0.46069971
0.45654109
0.45255942
0.44874586
0.44509157
0.44158819
0.43822729
0.43500086
0.43190089
0.42891959
0.42604896
0.4232816
0.42061013
0.41802704
0.41552494
0.41309735
0.41073855
0.40844289
0.40620547
0.40402266
0.40189207
0.39981248
0.397784
0.39580835
0.39388901
0.39203142
0.39024307
0.38853363
0.38691492
0.38540099
0.38400806
0.3827534
0.38165605
0.38073705
0.38001894
0.37952541
0.37928087
0.37930968
0.37963569
0.38028217
0.38127147
0.38262477
0.38436191
0.38650097
0.38905833
0.39204797
0.39548373
0.39937468
0.40372974
0.40857972
0.41373083
0.42027739
3.8498
3.1449198
2.6509367
2.2957482
2.0304004
1.8249771
1.6611794
1.5274308
1.4160989
1.3219518
1.2412791
1.1713734
1.1102106
1.0562461
1.00828
0.96536588
0.92674695
0.89181071
0.86005609
0.83106916
0.80450498
0.78007374
0.75753024
0.73666559
0.71730075
0.69928141
0.68247389
0.66676179
0.65204335
0.63822921
0.62524061
0.6130079
0.60146922
0.59056953
0.58025968
0.57049565
0.56123795
0.55245101
0.54410276
0.5361642
0.52860904
0.52141341
0.51455557
0.50801568
0.50177558
0.49581859
0.4901294
0.48469382
0.47949871
0.47453182
0.46978169
0.46523753
0.4608891
0.4567267
0.45274106
0.44892328
0.44526456
0.44175646
0.43839056
0.43515873
0.43205286
0.42906507
0.42618729
0.42341195
0.42073155
0.41813856
0.41562557
0.41318591
0.41081362
0.40850297
0.40624891
0.40404746
0.40189584
0.39979242
0.39773692
0.39573056
0.39377633
0.39187908
0.39004565
0.38828497
0.38660806
0.38502808
0.38356013
0.38222186
0.3810325
0.38001218
0.37918164
0.37856231
0.37817619
0.37804549
0.37819224
0.37863827
0.37940465
0.38051144
0.38197731
0.38381914
0.38605194
0.38868769
0.39173786
0.39520794
0.39910556
0.40345657
0.40809122
0.41398568
3.8499972
3.1453364
2.6514475
2.2962899
2.0309437
1.8255088
1.6616943
1.5279269
1.4165761
1.3224106
1.2417206
1.1717987
1.1106208
1.0566422
1.008663
0.96573684
0.92710669
0.89216005
0.86039577
0.83139987
0.80482733
0.78038831
0.75783755
0.73696611
0.71759493
0.69956965
0.68275655
0.66703922
0.65231586
0.63849709
0.62550413
0.61326729
0.60172472
0.59082134
0.58050798
0.57074062
0.56147973
0.55268974
0.54433855
0.53639715
0.52883925
0.52164094
0.51478048
0.508238
0.50199534
0.49603582
0.49034407
0.48490592
0.47970821
0.47473868
0.46998583
0.46543885
0.46108751
0.45692206
0.4529332
0.449112
0.44544964
0.44193762
0.4385675
0.43533109
0.43222025
0.42922703
0.42634337
0.42356158
0.42087405
0.4182732
0.41575156
0.41330229
0.41091915
0.40859628
0.40632846
0.40411145
0.40194217
0.39981867
0.39774033
0.39570798
0.39372416
0.39179321
0.38992141
0.38811706
0.38639052
0.38475419
0.38322251
0.38181148
0.38053867
0.37942309
0.37848481
0.37774477
0.37722451
0.37694553
0.3769289
0.37719511
0.37776369
0.37865307
0.37988038
0.38146105
0.38340888
0.38573457
0.38844862
0.39155434
0.39505857
0.39897995
0.4031697
0.40848093
3.8501844
3.1457354
2.6519366
2.2968084
2.0314637
1.8260179
1.6621871
1.5284018
1.4170329
1.3228499
1.2421434
1.1722059
1.1110135
1.0570215
1.0090299
0.96609211
0.92745126
0.89249468
0.86072116
0.83171666
0.8051361
0.78068959
0.75813182
0.73725382
0.71787647
0.6998454
0.68302686
0.66730439
0.6525762
0.63875285
0.62575556
0.61351461
0.60196814
0.59106106
0.58074419
0.57097347
0.56170937
0.5529163
0.54456216
0.53661792
0.52905726
0.52185629
0.51499322
0.50844821
0.50220305
0.49624107
0.49054688
0.4851063
0.47990615
0.47493416
0.47017881
0.46562929
0.46127533
0.45710718
0.4531155
0.44929133
0.44562585
0.44211052
0.43873688
0.43549669
0.43238178
0.4293841
0.42649556
0.42370835
0.42101479
0.41840723
0.41587816
0.41342059
0.4110281
0.40869472
0.40641504
0.40418463
0.40200008
0.39985915
0.39776083
0.3957056
0.39369552
0.39173447
0.38982819
0.38798437
0.38621274
0.38452501
0.38293477
0.38145775
0.38011115
0.3789132
0.37788287
0.37703984
0.37640432
0.37599652
0.37583632
0.37594312
0.37633549
0.37703094
0.37804568
0.37939414
0.3810892
0.38314051
0.38555784
0.38834326
0.39150378
0.3950526
0.39885943
0.40366885
3.8503654
3.1461188
2.6524064
2.2973064
2.0319629
1.8265064
1.6626601
1.5288575
1.4174712
1.3232714
1.2425489
1.1725965
1.1113903
1.0573854
1.009382
0.96643317
0.9277821
0.89281604
0.86103374
0.83202108
0.80543293
0.78097936
0.75841501
0.73753086
0.71814776
0.70011132
0.68328773
0.66756055
0.65282791
0.6390004
0.6259992
0.61375456
0.6022046
0.59129423
0.58097424
0.57120058
0.56193369
0.55313797
0.54478129
0.53683463
0.52927165
0.52206843
0.51520321
0.50865609
0.50240889
0.49644491
0.49074876
0.48530623
0.48010415
0.47513022
0.47037293
0.46582145
0.4614655
0.45729531
0.45330152
0.44947515
0.44580736
0.44228959
0.43891337
0.4356704
0.43255248
0.42955152
0.42665941
0.42386825
0.42117027
0.4185578
0.41602328
0.41355958
0.41116011
0.40881876
0.40652998
0.40428907
0.4020924
0.39993741
0.39782277
0.39574861
0.3937166
0.39173014
0.38979448
0.3879168
0.38610621
0.38437383
0.38273261
0.38119733
0.37978418
0.37851067
0.37739508
0.37645648
0.37571449
0.37518863
0.37489803
0.37486117
0.3750956
0.37561784
0.3764432
0.37758517
0.37905581
0.38086389
0.38301853
0.38552087
0.38837796
0.39159955
0.39507115
0.3994465
3.8505403
3.1464889
2.652859
2.2977855
2.0324429
1.8269761
1.6631147
1.5292954
1.4178923
1.3236764
1.2429386
1.1729719
1.1117524
1.0577352
1.0097203
0.9667609
0.92810006
0.89312495
0.86133425
0.83231379
0.80571839
0.78125807
0.75868742
0.73779739
0.7184088
0.70036721
0.68353881
0.66780711
0.65307024
0.63923875
0.62623381
0.61398565
0.60243238
0.59151886
0.58119593
0.57141949
0.56214998
0.55335177
0.54499275
0.53704386
0.52947876
0.52227353
0.51540639
0.50885744
0.50260848
0.49664281
0.49094504
0.48550096
0.48029736
0.47532196
0.47056324
0.46601035
0.46165302
0.45748145
0.4534863
0.44965853
0.44598932
0.44247007
0.43909232
0.43584773
0.43272808
0.42972523
0.42683104
0.42403756
0.42133694
0.41872142
0.4161834
0.41371571
0.41131159
0.40896477
0.40666954
0.40442102
0.40221528
0.40004949
0.39792202
0.39583259
0.39378249
0.39177468
0.38981393
0.38790687
0.38606208
0.38429008
0.38260316
0.38101565
0.37954322
0.3782027
0.37701166
0.37598848
0.37515186
0.37452048
0.3741127
0.3739463
0.37403813
0.37440405
0.37505869
0.37601497
0.37728432
0.37887487
0.38079519
0.38304572
0.38563346
0.38856522
0.39174011
0.39573432
3.8507118
3.1468466
2.6532957
2.2982476
2.0329056
1.8274285
1.6635524
1.529717
1.4182977
1.3240661
1.2433136
1.1733331
1.1121008
1.0580718
1.0100459
0.9670764
0.92840617
0.89342238
0.86162364
0.83259573
0.80599343
0.78152668
0.75895006
0.73805447
0.7186607
0.70061428
0.68378138
0.66804547
0.65330467
0.63946952
0.62646115
0.61420979
0.60265353
0.59173724
0.58141167
0.57163279
0.562361
0.55356068
0.54519969
0.53724897
0.52968217
0.52247536
0.51560675
0.50905644
0.50280624
0.49683943
0.49114061
0.48569557
0.48049113
0.47551497
0.47075557
0.46620209
0.46184425
0.45767227
0.45367677
0.44984872
0.4461793
0.44265991
0.43928205
0.4360374
0.43291769
0.42991477
0.42702049
0.42422683
0.4215259
0.4189099
0.41637118
0.41390239
0.41149677
0.40914782
0.40684969
0.40459728
0.4023864
0.40021393
0.39807788
0.39597763
0.39391405
0.39188966
0.38990874
0.38797743
0.38610376
0.38429768
0.38257092
0.38093715
0.37941138
0.37800983
0.37674955
0.3756483
0.37472442
0.37399599
0.3734808
0.37319598
0.37315783
0.37338161
0.37388144
0.37466966
0.37575727
0.37715192
0.37886176
0.38088674
0.38323376
0.38590733
0.38881835
0.3924742
3.8508798
3.1471939
2.6537182
2.2986938
2.0333522
1.8278651
1.6639746
1.5301235
1.4186884
1.3244417
1.2436749
1.1736811
1.1124364
1.0583959
1.0103594
0.96738018
0.92870095
0.89370885
0.86190242
0.83286739
0.8062585
0.78178564
0.75920335
0.73830249
0.71890383
0.70085287
0.68401573
0.6682759
0.65353146
0.63969293
0.62668142
0.61442716
0.60286822
0.59194943
0.58162159
0.57184056
0.56256682
0.55376474
0.54540216
0.53745
0.52988193
0.522674
0.51580442
0.5092533
0.50300243
0.4970351
0.49133593
0.48589069
0.4806862
0.47571015
0.47095104
0.46639802
0.46204082
0.45786967
0.45387518
0.45004835
0.44638034
0.44286255
0.43948652
0.43624389
0.43312642
0.43012591
0.42723421
0.42444329
0.42174519
0.41913206
0.4165962
0.41413019
0.41172702
0.40938008
0.40708346
0.40483175
0.40262049
0.40044619
0.39830652
0.39620047
0.39412846
0.39209255
0.39009653
0.38814603
0.38624851
0.3844134
0.38265185
0.38097703
0.37940349
0.37794694
0.37662391
0.37545165
0.37444787
0.37363014
0.37301596
0.37262191
0.37246383
0.37255661
0.37291401
0.37354805
0.37446942
0.37568544
0.377204
0.37902478
0.38115455
0.38359596
0.38627061
0.38962335
3.8510485
3.1475325
2.6541281
2.299126
2.033784
1.8282866
1.664382
1.5305154
1.419065
1.3248036
1.2440229
1.1740162
1.1127596
1.058708
1.0106614
0.9676728
0.92898493
0.89398487
0.86217111
0.83312933
0.80651419
0.78203558
0.75944797
0.7385422
0.719139
0.70108384
0.68424285
0.66849946
0.65375176
0.63991022
0.62689598
0.61463922
0.60307802
0.5921572
0.58182752
0.57204488
0.56276966
0.55396632
0.54560269
0.53764969
0.53008098
0.52287261
0.51600279
0.50945164
0.50320096
0.49723404
0.4915355
0.48609114
0.48088777
0.47591311
0.47115567
0.46660461
0.46224968
0.45808114
0.45408963
0.45026613
0.44660185
0.44308822
0.43971678
0.43647919
0.4333672
0.43037265
0.42748737
0.4247033
0.42201246
0.41940694
0.41687897
0.41442101
0.4120259
0.40968685
0.40739756
0.4051526
0.40294704
0.40077706
0.39863991
0.39653413
0.39445969
0.39241814
0.39041274
0.38844858
0.38653259
0.38467365
0.38288236
0.38117138
0.37955477
0.37804779
0.37666656
0.37542799
0.37434935
0.37344789
0.37274061
0.37224377
0.37197336
0.37194372
0.37216814
0.3726587
0.3734263
0.37447799
0.37582106
0.37745483
0.37938607
0.3816159
0.38407621
0.38715354
3.8512093
3.1478581
2.6545225
2.2995416
2.0341993
1.8286921
1.6647738
1.5308924
1.4194273
1.3251516
1.2443576
1.1743386
1.1130705
1.0590084
1.010952
0.96795448
0.92925842
0.89425084
0.86243018
0.83338205
0.80676109
0.78227713
0.75968461
0.73877434
0.71936702
0.7013081
0.68446368
0.66871719
0.65396668
0.64012263
0.62710614
0.61484741
0.60328447
0.59236217
0.58203126
0.57224761
0.56297163
0.55416767
0.54580371
0.53785065
0.53028213
0.52307423
0.51620516
0.50965506
0.50340573
0.49744048
0.49174396
0.48630198
0.48110138
0.47612991
0.47137611
0.46682918
0.4624789
0.45831557
0.45432987
0.45051282
0.44685569
0.44334992
0.4399871
0.43675894
0.43365721
0.43067375
0.42780041
0.42502911
0.4223518
0.41976051
0.41724736
0.41480466
0.41242503
0.41010142
0.40782726
0.40559658
0.40340415
0.40124596
0.39911866
0.39702025
0.39495016
0.3929094
0.39090069
0.38892856
0.38699941
0.38512156
0.3833051
0.38156224
0.3799067
0.37835331
0.37691786
0.37561693
0.3744675
0.37348655
0.37269069
0.3720965
0.37171785
0.3715722
0.37167235
0.37202853
0.37264799
0.37353986
0.37471552
0.37617532
0.37792461
0.37996147
0.38222723
0.38505148
3.8513704
3.1481749
2.6549044
2.2999433
2.0346
1.8290829
1.6651512
1.5312554
1.4197759
1.3254865
1.2446797
1.1746487
1.1133697
1.0592975
1.0112319
0.96822595
0.92952216
0.89450753
0.86268044
0.83362646
0.80700017
0.78251135
0.75991444
0.73900019
0.71958929
0.70152717
0.68467991
0.6689309
0.65417821
0.64033228
0.62731423
0.61505423
0.60349032
0.59256733
0.58223602
0.57245225
0.56317645
0.55437298
0.54600967
0.53805764
0.53049053
0.52328443
0.51641755
0.50987005
0.50362377
0.49766206
0.49196959
0.48653222
0.48133685
0.47637126
0.47162404
0.46708447
0.46274239
0.45858815
0.45461251
0.45080656
0.44716162
0.44366922
0.44032099
0.4371087
0.43402415
0.43105919
0.42820567
0.42545544
0.42280037
0.42023236
0.41774336
0.41532542
0.41297087
0.41067232
0.4084228
0.40621588
0.40404589
0.40190796
0.39979872
0.39771539
0.39565686
0.39362359
0.39161772
0.38964323
0.38770598
0.38581379
0.38397623
0.38220515
0.38051391
0.37891706
0.37743008
0.37606933
0.37485162
0.37379367
0.37291243
0.3722209
0.37175405
0.37142281
0.37147279
0.37170271
0.3721868
0.37292623
0.37393694
0.37522541
0.37679866
0.37865205
0.3807364
0.38332248
3.8515241
3.1484798
2.6552716
2.3003293
2.0349852
1.8294586
1.665514
1.5316042
1.4201109
1.3258084
1.2449893
1.1749471
1.1136576
1.0595759
1.0115017
0.96848783
0.92977692
0.89475585
0.86292293
0.83386371
0.80723271
0.7827397
0.76013905
0.73922151
0.71980775
0.70174317
0.68489383
0.66914313
0.6543891
0.64054221
0.62752354
0.61526327
0.60369944
0.59277689
0.58244637
0.57266377
0.5633895
0.55458796
0.54622702
0.5382776
0.53071367
0.52351124
0.51664861
0.51010601
0.50386531
0.49790991
0.49222456
0.48679517
0.4816087
0.47665304
0.47191685
0.46738949
0.46306092
0.45892159
0.45496234
0.45117436
0.44754907
0.44407807
0.44075307
0.43756587
0.43450828
0.43157212
0.42874917
0.42603117
0.4234098
0.42087674
0.41842361
0.41604214
0.41372421
0.41146197
0.40924793
0.40707512
0.40493729
0.40282905
0.40074607
0.39868516
0.39664514
0.39462563
0.39262819
0.39065626
0.3887152
0.38681238
0.38495693
0.38316037
0.38143584
0.37979766
0.37826109
0.37684231
0.375558
0.37442484
0.37345949
0.37267673
0.37209809
0.37171968
0.3715296
0.37168483
0.37205315
0.37266223
0.37352535
0.37465075
0.37605176
0.37772577
0.37963602
0.38199182
3.8516745
3.1487737
2.6556254
2.300701
2.0353556
1.8298198
1.6658626
1.5319395
1.4204329
1.3261179
1.2452872
1.1752342
1.1139351
1.0598446
1.0117624
0.96874138
0.93002405
0.89499725
0.86315929
0.83409562
0.80746075
0.7829644
0.76036092
0.73944105
0.72002541
0.70195941
0.6851091
0.66935786
0.65460372
0.64075715
0.62773923
0.61548015
0.60391796
0.59299749
0.58266953
0.57288998
0.56361929
0.55482187
0.54646562
0.53852156
0.53096344
0.52376733
0.51691216
0.51037799
0.50414675
0.49820191
0.49252831
0.48711198
0.48193999
0.47700034
0.47228184
0.46777397
0.46346681
0.45935094
0.45541734
0.45165729
0.4480623
0.44462403
0.44133422
0.43818465
0.43516705
0.43227314
0.42949449
0.42682259
0.42424881
0.42176443
0.41936064
0.41702864
0.41475977
0.41254559
0.41037799
0.4082494
0.40615293
0.40408259
0.40203345
0.40000188
0.39798551
0.39598443
0.39399937
0.39203333
0.39009128
0.38818018
0.38630883
0.38448847
0.3827321
0.38105384
0.37946885
0.3779932
0.37664347
0.37543637
0.37438839
0.37351555
0.37283266
0.37236032
0.37207847
0.37205104
0.37227397
0.37275514
0.37348365
0.37446486
0.37571036
0.37721672
0.3789627
0.3810937
3.8518195
3.1490572
2.6559655
2.3010578
2.0357113
1.8301664
1.6661973
1.5322613
1.4207423
1.3264155
1.245574
1.1755111
1.1142031
1.0601046
1.0120153
0.96898806
0.9302653
0.89523382
0.86339186
0.83432485
0.80768726
0.78318879
0.76058377
0.7396629
0.72024682
0.7021809
0.68533121
0.66958111
0.65482866
0.64098432
0.62796918
0.61571346
0.60415521
0.59323932
0.58291658
0.57314295
0.56387891
0.55508893
0.54674098
0.53880613
0.53125821
0.5240735
0.5172303
0.51070976
0.50449373
0.49856579
0.49291091
0.48751526
0.48236606
0.47745146
0.47276042
0.4682826
0.46400821
0.45992797
0.45603295
0.4523145
0.44876415
0.44537353
0.44213429
0.43903806
0.43607637
0.43324062
0.43052204
0.42791169
0.42540043
0.42297897
0.42063791
0.41836784
0.41615941
0.41400353
0.41189146
0.40981499
0.40776665
0.40573989
0.40372928
0.4017307
0.39974149
0.39776074
0.39578904
0.39383009
0.39188797
0.38996933
0.38808274
0.38623922
0.38445172
0.38273423
0.38110183
0.37957052
0.37815687
0.3768776
0.37574924
0.37478785
0.37400841
0.37342747
0.37305512
0.37290416
0.37298865
0.3733211
0.37390543
0.37473959
0.37583479
0.37718123
0.3787721
0.38068241
3.8519574
3.1493279
2.6562913
2.3014001
2.0360523
1.8304989
1.6665184
1.5325705
1.4210398
1.3267022
1.2458508
1.1757791
1.1144632
1.0603579
1.0122627
0.96923052
0.93050363
0.89546885
0.86362437
0.83455559
0.80791694
0.7834181
0.76081339
0.73989351
0.72047907
0.70241548
0.68556877
0.66982235
0.65507428
0.64123503
0.62822575
0.61597668
0.60442591
0.59351838
0.58320495
0.57344162
0.56418898
0.55541156
0.54707745
0.53915782
0.53162662
0.52446024
0.51763729
0.5111381
0.50494597
0.49904444
0.49341859
0.48805475
0.4829403
0.47806359
0.47341375
0.46898056
0.46475436
0.46072587
0.45688617
0.45322654
0.44973837
0.44641311
0.44324213
0.4402167
0.43732795
0.43456676
0.43192381
0.42938952
0.42695411
0.42460761
0.42233992
0.42014092
0.41800062
0.4159093
0.41385762
0.41183686
0.40983908
0.40785733
0.40588583
0.40392018
0.40195748
0.39999655
0.39803797
0.39608437
0.39413998
0.39221276
0.3903104
0.38844364
0.38662538
0.38486952
0.38319111
0.38160612
0.38013109
0.37878279
0.37757779
0.37653209
0.37566104
0.37497944
0.37450204
0.37424054
0.37420641
0.37440892
0.37485682
0.37554984
0.37649695
0.3776862
0.37912811
0.38081646
3.8520908
3.1495886
2.6566039
2.3017279
2.0363792
1.8308178
1.6668268
1.5328678
1.4213266
1.3269794
1.2461193
1.1760401
1.1147179
1.0606073
1.0125079
0.96947247
0.93074339
0.89570735
0.86386251
0.83479425
0.80815699
0.7836604
0.76105879
0.74014285
0.72073323
0.70267532
0.68583521
0.67009632
0.65535675
0.64152703
0.62852835
0.616291
0.60475317
0.59385987
0.58356205
0.57381584
0.56458192
0.55582497
0.54751322
0.53961799
0.5321134
0.52497603
0.51818461
0.51171991
0.50556408
0.49970256
0.49412001
0.48880319
0.48373967
0.47891795
0.47432717
0.46995707
0.46579789
0.46184023
0.45807498
0.45449315
0.45108579
0.4478439
0.44475835
0.44181984
0.43901883
0.43634555
0.43378994
0.43134172
0.42899037
0.42672522
0.4245355
0.42241049
0.42033966
0.41831279
0.41632017
0.41435275
0.41240234
0.41046184
0.40852533
0.40658832
0.40464788
0.40270278
0.40075361
0.39880285
0.39685506
0.39491643
0.39299705
0.39110684
0.38925851
0.38746593
0.38574413
0.38410903
0.38257717
0.38116534
0.3798901
0.3787674
0.37781257
0.3770404
0.37646535
0.3761005
0.37595753
0.37604491
0.3763712
0.37693657
0.37775043
0.37879659
0.38010507
0.38157964
3.8522159
3.1498363
2.6569025
2.3020418
2.0366925
1.8311239
1.6671235
1.5331548
1.4216045
1.3272491
1.2463822
1.1762975
1.1149709
1.0608573
1.0127561
0.96972008
0.93099157
0.89595725
0.86411528
0.835051
0.80841884
0.78392846
0.76133418
0.74042674
0.7210268
0.7029798
0.68615187
0.67042649
0.65570183
0.64188849
0.62890776
0.61669003
0.60517361
0.59430362
0.58403116
0.5743125
0.5651085
0.55638399
0.54810739
0.5402502
0.53278673
0.52569373
0.51895014
0.51253681
0.50643629
0.50063277
0.49511111
0.48986069
0.48486816
0.48012167
0.4756101
0.47132297
0.4672503
0.46338237
0.45970961
0.45622251
0.4529115
0.44976689
0.44677885
0.44393733
0.44123204
0.43865249
0.43618788
0.43382726
0.43155949
0.42937332
0.42725752
0.425201
0.42319292
0.42122286
0.41928101
0.41735828
0.41544653
0.41353871
0.41162903
0.40971313
0.40778819
0.40585312
0.40390858
0.40195715
0.40000333
0.3980536
0.39611653
0.39420229
0.39232619
0.39050081
0.3887408
0.38706207
0.38548114
0.38401473
0.38267937
0.38149091
0.3804646
0.37961522
0.37895722
0.37850392
0.37826736
0.3782561
0.37847847
0.37893411
0.3796332
0.3805552
0.3817513
0.38303011
3.8523355
3.1500736
2.6571881