/*--------------------------------*- C++ -*----------------------------------*\
| =========                 |                                                 |
| \\      /  F ield         | OpenFOAM: The Open Source CFD Toolbox           |
|  \\    /   O peration     | Version:  2406                                  |
|   \\  /    A nd           | Website:  www.openfoam.com                      |
|    \\/     M anipulation  |                                                 |
\*---------------------------------------------------------------------------*/
FoamFile
{
    version     2.0;
    format      ascii;
    arch        "LSB;label=32;scalar=64";
    class       volScalarField;
    location    "1000";
    object      p;
}
// * * * * * * * * * * * * * * * * * * * * * * * * * * * * * * * * * * * * * //

dimensions      [1 -1 -2 0 0 0 0];

internalField   nonuniform List<scalar> 
132739
(
1.0031493
1.0031506
1.0031622
1.0031772
1.0031955
1.0032186
1.0032462
1.0032778
1.0033135
1.0033531
1.0033965
1.0034437
1.0034947
1.0035492
1.0036074
1.0036691
1.0037344
1.003803
1.0038752
1.0039507
1.0040295
1.0041117
1.0041972
1.0042859
1.0043779
1.004473
1.0045712
1.0046725
1.0047768
1.0048841
1.0049943
1.0051073
1.0052231
1.0053415
1.0054624
1.0055859
1.0057117
1.0058398
1.00597
1.0061023
1.0062364
1.0063722
1.0065096
1.0066485
1.0067887
1.0069299
1.0070721
1.0072151
1.0073586
1.0075026
1.0076467
1.0077909
1.007935
1.0080789
1.0082223
1.008365
1.0085066
1.0086472
1.0087866
1.0089247
1.0090611
1.0091964
1.0093282
1.0094584
1.0095865
1.009712
1.0098336
1.0099513
1.0100696
1.0101831
1.0102936
1.0104005
1.0105035
1.0106024
1.0106971
1.0107872
1.0108725
1.0109526
1.0110272
1.0110959
1.0111582
1.0112138
1.0112621
1.0113024
1.0113336
1.0113545
1.0113646
1.0113631
1.0113493
1.0113226
1.011282
1.0112269
1.0111565
1.01107
1.0109669
1.0108464
1.0107081
1.0105514
1.010376
1.0101812
1.0099679
1.0097346
1.009487
1.0092217
1.0031501
1.0031517
1.0031635
1.0031784
1.0031967
1.0032199
1.0032474
1.003279
1.0033146
1.0033542
1.0033976
1.0034447
1.0034956
1.0035501
1.0036082
1.0036699
1.003735
1.0038036
1.0038757
1.0039511
1.0040299
1.004112
1.0041973
1.004286
1.0043778
1.0044728
1.0045709
1.0046721
1.0047763
1.0048835
1.0049935
1.0051064
1.005222
1.0053403
1.0054611
1.0055844
1.0057101
1.005838
1.005968
1.0061001
1.006234
1.0063696
1.0065068
1.0066454
1.0067853
1.0069262
1.0070681
1.0072107
1.0073538
1.0074973
1.0076409
1.0077846
1.007928
1.008071
1.0082135
1.0083552
1.0084958
1.0086348
1.0087728
1.0089089
1.0090438
1.0091762
1.0093069
1.0094345
1.0095616
1.0096853
1.0098057
1.0099224
1.0100376
1.0101484
1.010255
1.0103581
1.0104574
1.0105525
1.0106432
1.0107291
1.0108101
1.0108856
1.0109556
1.0110195
1.0110771
1.0111278
1.0111714
1.0112072
1.0112346
1.0112527
1.0112609
1.0112585
1.0112449
1.0112192
1.0111809
1.0111292
1.0110637
1.0109835
1.0108882
1.0107772
1.01065
1.010506
1.0103449
1.010166
1.0099691
1.0097532
1.0095159
1.0092602
1.0031508
1.0031528
1.0031646
1.0031795
1.0031979
1.0032211
1.0032487
1.0032803
1.0033159
1.0033555
1.003399
1.0034462
1.0034971
1.0035517
1.0036099
1.0036716
1.0037369
1.0038056
1.0038777
1.0039532
1.0040321
1.0041143
1.0041999
1.0042886
1.0043806
1.0044757
1.004574
1.0046754
1.0047798
1.0048871
1.0049973
1.0051104
1.0052262
1.0053447
1.0054657
1.0055892
1.0057151
1.0058432
1.0059735
1.0061057
1.0062399
1.0063757
1.0065131
1.0066518
1.0067918
1.0069329
1.0070749
1.0072175
1.0073607
1.0075041
1.0076477
1.0077912
1.0079344
1.0080769
1.0082188
1.0083598
1.0084999
1.0086386
1.0087759
1.0089113
1.009045
1.0091765
1.0093059
1.0094323
1.009557
1.0096785
1.0097966
1.0099109
1.0100227
1.0101312
1.0102349
1.0103346
1.0104304
1.0105217
1.0106082
1.0106898
1.0107662
1.010837
1.010902
1.0109607
1.0110129
1.0110582
1.0110961
1.0111262
1.0111473
1.0111588
1.01116
1.0111506
1.01113
1.0110977
1.011053
1.0109954
1.0109244
1.0108393
1.0107397
1.010625
1.0104948
1.0103486
1.0101862
1.010007
1.0098107
1.0095981
1.0093654
1.009124
1.0031515
1.0031538
1.0031657
1.0031806
1.0031989
1.0032222
1.0032497
1.0032814
1.003317
1.0033566
1.0034
1.0034472
1.0034982
1.0035527
1.0036109
1.0036726
1.0037378
1.0038065
1.0038786
1.0039542
1.004033
1.0041152
1.0042007
1.0042895
1.0043814
1.0044765
1.0045748
1.0046761
1.0047805
1.0048878
1.004998
1.0051111
1.0052269
1.0053453
1.0054664
1.0055899
1.0057157
1.0058438
1.005974
1.0061063
1.0062403
1.0063761
1.0065134
1.0066521
1.006792
1.0069329
1.0070747
1.0072172
1.0073601
1.0075033
1.0076466
1.0077897
1.0079325
1.0080746
1.0082161
1.0083566
1.008496
1.0086337
1.00877
1.0089043
1.0090368
1.0091669
1.0092948
1.0094196
1.0095424
1.009662
1.0097781
1.0098905
1.0099998
1.0101054
1.0102064
1.0103031
1.0103956
1.0104834
1.0105664
1.0106442
1.0107166
1.0107832
1.0108439
1.0108983
1.010946
1.0109867
1.01102
1.0110455
1.0110623
1.0110697
1.0110672
1.0110543
1.0110303
1.0109948
1.010947
1.0108865
1.0108128
1.0107254
1.0106238
1.0105076
1.0103763
1.0102297
1.0100674
1.0098891
1.0096944
1.0094838
1.0092553
1.0090116
1.003152
1.0031547
1.0031667
1.0031815
1.0031999
1.0032232
1.0032508
1.0032824
1.0033181
1.0033577
1.0034011
1.0034483
1.0034993
1.0035539
1.0036121
1.0036738
1.0037391
1.0038078
1.0038799
1.0039555
1.0040344
1.0041167
1.0042022
1.004291
1.004383
1.0044782
1.0045765
1.0046779
1.0047824
1.0048898
1.005
1.0051132
1.005229
1.0053476
1.0054687
1.0055923
1.0057182
1.0058464
1.0059767
1.0061089
1.006243
1.0063789
1.0065162
1.0066549
1.0067948
1.0069358
1.0070775
1.0072199
1.0073627
1.0075058
1.0076489
1.0077918
1.0079343
1.0080761
1.008217
1.008357
1.0084957
1.0086329
1.0087684
1.0089019
1.0090334
1.0091625
1.0092891
1.0094127
1.0095338
1.0096516
1.0097659
1.0098763
1.0099832
1.0100863
1.0101848
1.0102789
1.0103684
1.0104532
1.0105328
1.0106071
1.0106759
1.0107388
1.0107956
1.0108459
1.0108895
1.010926
1.010955
1.0109762
1.0109886
1.0109914
1.0109843
1.0109669
1.0109387
1.0108993
1.0108481
1.0107847
1.0107086
1.0106193
1.0105165
1.0103997
1.0102685
1.0101227
1.0099618
1.0097858
1.0095941
1.009387
1.0091636
1.0089236
1.0031525
1.0031556
1.0031676
1.0031824
1.0032009
1.0032241
1.0032517
1.0032833
1.003319
1.0033586
1.003402
1.0034493
1.0035002
1.0035548
1.003613
1.0036747
1.00374
1.0038087
1.0038808
1.0039564
1.0040353
1.0041175
1.0042031
1.0042919
1.0043839
1.0044791
1.0045774
1.0046788
1.0047832
1.0048906
1.0050009
1.005114
1.0052299
1.0053484
1.0054695
1.0055931
1.005719
1.0058472
1.0059775
1.0061098
1.0062439
1.0063796
1.0065169
1.0066556
1.0067954
1.0069363
1.0070779
1.0072201
1.0073628
1.0075057
1.0076485
1.0077911
1.0079332
1.0080747
1.0082152
1.0083547
1.0084928
1.0086293
1.0087641
1.0088967
1.0090272
1.0091552
1.0092805
1.0094029
1.0095223
1.0096385
1.0097511
1.0098597
1.0099645
1.0100654
1.0101616
1.0102531
1.0103399
1.0104218
1.0104984
1.0105695
1.0106349
1.0106944
1.0107475
1.0107942
1.010834
1.0108666
1.0108918
1.0109091
1.0109176
1.0109168
1.0109063
1.0108857
1.0108544
1.010812
1.0107581
1.0106922
1.0106139
1.0105228
1.0104185
1.0103008
1.0101692
1.0100235
1.0098634
1.0096888
1.0094994
1.0092952
1.0090757
1.0088414
1.0031529
1.0031564
1.0031685
1.0031832
1.0032017
1.003225
1.0032526
1.0032842
1.0033198
1.0033595
1.0034029
1.0034501
1.0035011
1.0035557
1.0036139
1.0036756
1.0037409
1.0038096
1.0038817
1.0039573
1.0040362
1.0041185
1.004204
1.0042928
1.0043849
1.0044801
1.0045784
1.0046798
1.0047843
1.0048917
1.005002
1.0051152
1.0052311
1.0053496
1.0054708
1.0055944
1.0057203
1.0058485
1.0059788
1.006111
1.0062451
1.0063809
1.0065182
1.0066568
1.0067966
1.0069374
1.0070789
1.007221
1.0073636
1.0075062
1.0076489
1.0077912
1.0079331
1.0080742
1.0082143
1.0083533
1.0084909
1.0086268
1.0087608
1.0088927
1.0090223
1.0091493
1.0092736
1.0093948
1.009513
1.0096277
1.0097386
1.0098456
1.0099485
1.0100473
1.0101414
1.0102307
1.0103151
1.0103943
1.0104682
1.0105365
1.0105989
1.0106553
1.0107053
1.0107486
1.0107851
1.0108144
1.0108361
1.01085
1.0108551
1.0108508
1.0108368
1.0108128
1.0107784
1.0107331
1.0106766
1.0106084
1.0105282
1.0104356
1.0103303
1.0102119
1.0100803
1.009935
1.009776
1.009603
1.0094158
1.0092145
1.0089986
1.0087689
1.0031531
1.0031572
1.0031693
1.0031839
1.0032025
1.0032258
1.0032533
1.003285
1.0033206
1.0033602
1.0034037
1.0034509
1.0035018
1.0035564
1.0036146
1.0036764
1.0037416
1.0038103
1.0038825
1.003958
1.0040369
1.0041192
1.0042047
1.0042935
1.0043855
1.0044807
1.0045791
1.0046805
1.0047849
1.0048924
1.0050027
1.0051158
1.0052317
1.0053503
1.0054714
1.005595
1.0057209
1.005849
1.0059793
1.0061116
1.0062456
1.0063813
1.0065186
1.0066571
1.0067968
1.0069375
1.0070789
1.0072209
1.0073633
1.0075058
1.0076482
1.0077903
1.0079319
1.0080726
1.0082124
1.0083509
1.008488
1.0086233
1.0087567
1.0088879
1.0090166
1.0091427
1.009266
1.0093861
1.009503
1.0096163
1.0097258
1.0098312
1.0099324
1.0100293
1.0101215
1.0102087
1.0102908
1.0103677
1.0104391
1.0105048
1.0105645
1.010618
1.0106651
1.0107054
1.0107388
1.0107649
1.0107835
1.0107942
1.0107962
1.0107889
1.0107721
1.0107455
1.0107085
1.0106609
1.0106022
1.0105322
1.0104504
1.0103565
1.0102503
1.0101315
1.0099998
1.0098551
1.009697
1.0095256
1.0093406
1.0091421
1.0089295
1.0087043
1.0031533
1.0031579
1.00317
1.0031846
1.0032032
1.0032265
1.0032541
1.0032857
1.0033213
1.0033609
1.0034044
1.0034516
1.0035025
1.0035571
1.0036153
1.003677
1.0037423
1.003811
1.0038831
1.0039587
1.0040376
1.0041198
1.0042054
1.0042942
1.0043862
1.0044814
1.0045797
1.0046811
1.0047856
1.004893
1.0050033
1.0051164
1.0052323
1.0053508
1.0054719
1.0055955
1.0057214
1.0058496
1.0059798
1.006112
1.0062461
1.0063817
1.0065189
1.0066574
1.006797
1.0069376
1.007079
1.0072208
1.007363
1.0075054
1.0076476
1.0077894
1.0079307
1.0080711
1.0082105
1.0083486
1.0084852
1.00862
1.0087528
1.0088833
1.0090113
1.0091366
1.009259
1.0093781
1.0094938
1.0096059
1.0097141
1.0098181
1.0099178
1.0100129
1.0101033
1.0101887
1.0102688
1.0103436
1.0104128
1.0104761
1.0105334
1.0105843
1.0106288
1.0106665
1.0106971
1.0107205
1.0107364
1.0107443
1.0107435
1.0107335
1.0107141
1.0106849
1.0106455
1.0105956
1.010535
1.0104632
1.01038
1.0102851
1.0101782
1.010059
1.0099274
1.0097832
1.0096261
1.0094562
1.0092732
1.0090775
1.0088679
1.008647
1.0031535
1.0031586
1.0031707
1.0031852
1.0032039
1.0032272
1.0032547
1.0032863
1.003322
1.0033616
1.003405
1.0034522
1.0035032
1.0035577
1.0036159
1.0036776
1.0037429
1.0038115
1.0038837
1.0039592
1.0040381
1.0041203
1.0042059
1.0042946
1.0043866
1.0044818
1.0045801
1.0046815
1.0047859
1.0048933
1.0050036
1.0051167
1.0052326
1.0053511
1.0054722
1.0055957
1.0057216
1.0058497
1.00598
1.0061121
1.0062461
1.0063817
1.0065188
1.0066573
1.0067968
1.0069373
1.0070785
1.0072202
1.0073623
1.0075044
1.0076464
1.007788
1.007929
1.0080692
1.0082082
1.0083459
1.0084821
1.0086164
1.0087486
1.0088785
1.0090058
1.0091303
1.0092518
1.00937
1.0094847
1.0095957
1.0097026
1.0098053
1.0099036
1.0099972
1.010086
1.0101696
1.010248
1.0103208
1.0103879
1.0104491
1.0105042
1.0105529
1.010595
1.0106302
1.0106584
1.0106793
1.0106926
1.010698
1.0106947
1.0106823
1.0106606
1.0106292
1.0105878
1.0105362
1.0104739
1.0104007
1.0103163
1.0102206
1.0101131
1.0099937
1.0098623
1.0097187
1.0095626
1.0093942
1.0092132
1.0090199
1.0088133
1.0085962
1.0031535
1.0031593
1.0031714
1.0031858
1.0032045
1.0032278
1.0032553
1.0032869
1.0033226
1.0033622
1.0034056
1.0034528
1.0035037
1.0035583
1.0036164
1.0036781
1.0037434
1.003812
1.0038842
1.0039597
1.0040385
1.0041208
1.0042063
1.004295
1.004387
1.0044822
1.0045805
1.0046818
1.0047862
1.0048936
1.0050039
1.0051169
1.0052328
1.0053513
1.0054723
1.0055958
1.0057217
1.0058498
1.0059799
1.0061121
1.006246
1.0063815
1.0065186
1.0066569
1.0067964
1.0069368
1.0070779
1.0072195
1.0073614
1.0075033
1.0076451
1.0077865
1.0079272
1.0080671
1.0082058
1.0083432
1.0084789
1.0086127
1.0087444
1.0088737
1.0090004
1.0091243
1.009245
1.0093623
1.009476
1.009586
1.0096918
1.0097934
1.0098904
1.0099826
1.0100699
1.010152
1.0102287
1.0102998
1.0103651
1.0104244
1.0104775
1.0105241
1.0105641
1.0105972
1.0106232
1.0106418
1.0106529
1.0106561
1.0106507
1.0106362
1.0106124
1.010579
1.0105358
1.0104825
1.0104187
1.0103443
1.0102589
1.0101624
1.0100545
1.009935
1.0098039
1.0096608
1.0095058
1.0093388
1.0091596
1.0089688
1.0087649
1.0085514
1.0031536
1.0031599
1.003172
1.0031864
1.003205
1.0032284
1.0032559
1.0032875
1.0033231
1.0033627
1.0034061
1.0034533
1.0035042
1.0035588
1.0036169
1.0036786
1.0037438
1.0038124
1.0038845
1.00396
1.0040389
1.0041211
1.0042066
1.0042953
1.0043873
1.0044824
1.0045807
1.004682
1.0047864
1.0048937
1.0050039
1.005117
1.0052328
1.0053512
1.0054723
1.0055957
1.0057215
1.0058496
1.0059797
1.0061117
1.0062456
1.0063811
1.0065181
1.0066563
1.0067957
1.006936
1.0070769
1.0072184
1.0073601
1.0075019
1.0076435
1.0077847
1.0079252
1.0080648
1.0082032
1.0083402
1.0084755
1.0086089
1.0087401
1.0088689
1.008995
1.0091182
1.0092382
1.0093547
1.0094676
1.0095766
1.0096815
1.0097819
1.0098778
1.0099688
1.0100548
1.0101355
1.0102107
1.0102802
1.0103439
1.0104015
1.0104527
1.0104975
1.0105356
1.0105667
1.0105907
1.0106074
1.0106165
1.0106176
1.0106103
1.0105939
1.0105683
1.0105332
1.0104885
1.0104337
1.0103687
1.0102933
1.0102071
1.01011
1.0100018
1.0098823
1.0097515
1.0096091
1.0094551
1.0092895
1.0091121
1.0089235
1.0087221
1.008512
1.0031536
1.0031605
1.0031725
1.0031868
1.0032056
1.0032289
1.0032564
1.003288
1.0033236
1.0033632
1.0034066
1.0034538
1.0035046
1.0035592
1.0036173
1.003679
1.0037441
1.0038128
1.0038849
1.0039603
1.0040392
1.0041213
1.0042068
1.0042955
1.0043874
1.0044825
1.0045808
1.0046821
1.0047864
1.0048937
1.0050039
1.0051169
1.0052327
1.0053511
1.0054721
1.0055955
1.0057212
1.0058492
1.0059793
1.0061113
1.0062451
1.0063805
1.0065174
1.0066555
1.0067948
1.006935
1.0070758
1.0072171
1.0073587
1.0075004
1.0076418
1.0077827
1.007923
1.0080623
1.0082004
1.0083371
1.0084721
1.0086051
1.0087359
1.0088641
1.0089897
1.0091123
1.0092316
1.0093475
1.0094596
1.0095677
1.0096717
1.0097712
1.0098659
1.0099558
1.0100406
1.0101201
1.0101939
1.0102621
1.0103243
1.0103803
1.01043
1.0104731
1.0105095
1.0105389
1.0105611
1.010576
1.0105833
1.0105827
1.0105736
1.0105556
1.0105284
1.0104919
1.0104457
1.0103897
1.0103237
1.0102473
1.0101604
1.0100629
1.0099545
1.0098351
1.0097046
1.0095629
1.00941
1.0092458
1.00907
1.0088836
1.0086846
1.0084776
1.0031535
1.003161
1.0031731
1.0031873
1.003206
1.0032294
1.0032569
1.0032884
1.0033241
1.0033636
1.003407
1.0034542
1.003505
1.0035595
1.0036176
1.0036793
1.0037445
1.0038131
1.0038851
1.0039606
1.0040394
1.0041215
1.0042069
1.0042956
1.0043875
1.0044826
1.0045808
1.004682
1.0047863
1.0048936
1.0050038
1.0051167
1.0052324
1.0053508
1.0054717
1.0055951
1.0057208
1.0058487
1.0059787
1.0061106
1.0062443
1.0063797
1.0065165
1.0066546
1.0067937
1.0069338
1.0070745
1.0072157
1.0073571
1.0074986
1.0076398
1.0077806
1.0079206
1.0080597
1.0081975
1.0083339
1.0084685
1.0086012
1.0087315
1.0088594
1.0089844
1.0091064
1.0092252
1.0093404
1.0094518
1.0095592
1.0096623
1.0097609
1.0098547
1.0099436
1.0100273
1.0101056
1.0101783
1.0102452
1.010306
1.0103607
1.010409
1.0104506
1.0104855
1.0105133
1.010534
1.0105473
1.010553
1.0105508
1.0105402
1.0105207
1.0104921
1.0104543
1.010407
1.0103499
1.010283
1.0102059
1.0101185
1.0100206
1.0099121
1.0097929
1.0096628
1.0095219
1.0093699
1.009207
1.0090329
1.0088485
1.0086518
1.0084476
1.0031535
1.0031615
1.0031735
1.0031877
1.0032065
1.0032298
1.0032573
1.0032889
1.0033245
1.003364
1.0034074
1.0034545
1.0035054
1.0035599
1.0036179
1.0036796
1.0037447
1.0038133
1.0038853
1.0039607
1.0040395
1.0041216
1.004207
1.0042957
1.0043875
1.0044826
1.0045807
1.0046819
1.0047862
1.0048934
1.0050035
1.0051164
1.0052321
1.0053504
1.0054713
1.0055946
1.0057202
1.0058481
1.005978
1.0061099
1.0062435
1.0063788
1.0065155
1.0066534
1.0067925
1.0069324
1.007073
1.0072141
1.0073554
1.0074967
1.0076377
1.0077783
1.0079181
1.008057
1.0081945
1.0083306
1.0084649
1.0085972
1.0087272
1.0088546
1.0089792
1.0091007
1.0092189
1.0093336
1.0094443
1.009551
1.0096534
1.0097512
1.0098442
1.0099321
1.0100149
1.0100922
1.0101638
1.0102295
1.0102892
1.0103426
1.0103896
1.0104299
1.0104635
1.0104899
1.0105092
1.0105211
1.0105254
1.0105219
1.0105099
1.0104891
1.0104593
1.0104204
1.010372
1.0103141
1.0102464
1.0101687
1.0100809
1.0099828
1.0098743
1.0097553
1.0096256
1.0094854
1.0093344
1.0091728
1.0090003
1.0088178
1.0086233
1.0084217
1.0031534
1.0031619
1.003174
1.0031881
1.0032069
1.0032302
1.0032577
1.0032892
1.0033248
1.0033643
1.0034077
1.0034548
1.0035057
1.0035601
1.0036182
1.0036798
1.0037449
1.0038135
1.0038855
1.0039609
1.0040396
1.0041217
1.004207
1.0042956
1.0043875
1.0044825
1.0045806
1.0046818
1.004786
1.0048931
1.0050032
1.0051161
1.0052317
1.0053499
1.0054707
1.005594
1.0057195
1.0058473
1.0059772
1.006109
1.0062425
1.0063777
1.0065143
1.0066522
1.0067911
1.006931
1.0070714
1.0072124
1.0073535
1.0074946
1.0076355
1.0077759
1.0079155
1.0080541
1.0081915
1.0083273
1.0084613
1.0085932
1.0087229
1.0088499
1.0089741
1.0090952
1.0092129
1.0093269
1.0094371
1.0095432
1.0096449
1.009742
1.0098342
1.0099213
1.0100032
1.0100796
1.0101502
1.0102149
1.0102736
1.0103259
1.0103718
1.0104109
1.0104432
1.0104685
1.0104865
1.0104972
1.0105003
1.0104955
1.0104824
1.0104605
1.0104296
1.0103897
1.0103405
1.0102818
1.0102135
1.0101353
1.0100472
1.0099489
1.0098405
1.0097217
1.0095926
1.0094531
1.0093031
1.0091427
1.0089718
1.008791
1.0085987
1.0083995
1.0031533
1.0031624
1.0031744
1.0031884
1.0032073
1.0032306
1.003258
1.0032896
1.0033251
1.0033646
1.003408
1.0034551
1.0035059
1.0035604
1.0036184
1.00368
1.0037451
1.0038136
1.0038856
1.0039609
1.0040396
1.0041217
1.004207
1.0042956
1.0043873
1.0044823
1.0045804
1.0046815
1.0047857
1.0048928
1.0050028
1.0051156
1.0052312
1.0053493
1.0054701
1.0055933
1.0057188
1.0058465
1.0059763
1.006108
1.0062414
1.0063765
1.006513
1.0066508
1.0067897
1.0069294
1.0070697
1.0072105
1.0073515
1.0074925
1.0076332
1.0077734
1.0079128
1.0080512
1.0081883
1.0083239
1.0084576
1.0085893
1.0087186
1.0088453
1.0089691
1.0090897
1.009207
1.0093205
1.0094302
1.0095357
1.0096368
1.0097332
1.0098247
1.0099111
1.0099922
1.0100678
1.0101376
1.0102014
1.0102591
1.0103105
1.0103553
1.0103935
1.0104247
1.0104489
1.0104658
1.0104754
1.0104774
1.0104716
1.0104574
1.0104345
1.0104028
1.0103621
1.0103121
1.0102528
1.010184
1.0101054
1.0100171
1.0099188
1.0098104
1.009692
1.0095634
1.0094246
1.0092756
1.0091165
1.008947
1.008768
1.0085776
1.0083807
1.0031531
1.0031628
1.0031748
1.0031888
1.0032076
1.0032309
1.0032583
1.0032899
1.0033254
1.0033649
1.0034083
1.0034553
1.0035061
1.0035606
1.0036186
1.0036801
1.0037452
1.0038137
1.0038856
1.003961
1.0040396
1.0041216
1.0042069
1.0042954
1.0043872
1.0044821
1.0045801
1.0046812
1.0047853
1.0048924
1.0050023
1.0051151
1.0052306
1.0053487
1.0054694
1.0055925
1.0057179
1.0058455
1.0059752
1.0061069
1.0062402
1.0063752
1.0065117
1.0066493
1.0067881
1.0069277
1.0070679
1.0072086
1.0073494
1.0074903
1.0076308
1.0077708
1.00791
1.0080482
1.0081851
1.0083204
1.0084539
1.0085853
1.0087143
1.0088407
1.0089641
1.0090844
1.0092012
1.0093143
1.0094235
1.0095285
1.009629
1.0097249
1.0098158
1.0099016
1.009982
1.0100568
1.0101258
1.0101888
1.0102457
1.0102962
1.0103402
1.0103774
1.0104077
1.010431
1.010447
1.0104555
1.0104566
1.0104499
1.0104348
1.0104111
1.0103786
1.0103371
1.0102866
1.0102268
1.0101575
1.0100787
1.0099902
1.0098919
1.0097838
1.0096657
1.0095377
1.0093996
1.0092516
1.0090936
1.0089255
1.0087482
1.0085597
1.008365
1.003153
1.0031632
1.0031751
1.003189
1.0032079
1.0032312
1.0032586
1.0032902
1.0033257
1.0033652
1.0034085
1.0034556
1.0035063
1.0035607
1.0036187
1.0036803
1.0037453
1.0038138
1.0038857
1.003961
1.0040396
1.0041216
1.0042068
1.0042953
1.004387
1.0044818
1.0045798
1.0046808
1.0047849
1.0048919
1.0050018
1.0051145
1.0052299
1.005348
1.0054686
1.0055916
1.005717
1.0058445
1.0059741
1.0061057
1.006239
1.0063739
1.0065102
1.0066478
1.0067864
1.0069259
1.007066
1.0072065
1.0073473
1.0074879
1.0076283
1.0077682
1.0079072
1.0080452
1.0081819
1.008317
1.0084502
1.0085814
1.0087101
1.0088361
1.0089592
1.0090792
1.0091956
1.0093083
1.0094171
1.0095216
1.0096217
1.009717
1.0098073
1.0098925
1.0099723
1.0100465
1.0101148
1.0101772
1.0102333
1.010283
1.0103262
1.0103626
1.0103921
1.0104146
1.0104297
1.0104375
1.0104377
1.0104301
1.0104144
1.0103899
1.0103568
1.0103147
1.0102637
1.0102034
1.0101339
1.0100549
1.0099663
1.0098681
1.0097602
1.0096425
1.009515
1.0093778
1.0092306
1.0090739
1.0089071
1.0087314
1.0085446
1.008352
1.0031528
1.0031635
1.0031754
1.0031893
1.0032082
1.0032315
1.0032589
1.0032904
1.0033259
1.0033654
1.0034087
1.0034557
1.0035065
1.0035609
1.0036188
1.0036803
1.0037453
1.0038138
1.0038857
1.0039609
1.0040395
1.0041214
1.0042066
1.0042951
1.0043867
1.0044815
1.0045795
1.0046804
1.0047844
1.0048914
1.0050012
1.0051139
1.0052292
1.0053472
1.0054677
1.0055907
1.005716
1.0058435
1.005973
1.0061044
1.0062376
1.0063725
1.0065087
1.0066461
1.0067847
1.006924
1.007064
1.0072044
1.007345
1.0074856
1.0076258
1.0077655
1.0079044
1.0080422
1.0081787
1.0083135
1.0084466
1.0085774
1.0087059
1.0088317
1.0089545
1.0090741
1.0091902
1.0093026
1.0094109
1.009515
1.0096146
1.0097095
1.0097993
1.009884
1.0099632
1.0100368
1.0101046
1.0101663
1.0102218
1.0102709
1.0103133
1.0103491
1.0103779
1.0103996
1.010414
1.010421
1.0104205
1.0104123
1.0103958
1.0103708
1.0103371
1.0102946
1.0102431
1.0101826
1.0101128
1.0100337
1.0099451
1.009847
1.0097394
1.0096222
1.0094953
1.0093588
1.0092126
1.0090569
1.0088915
1.0087172
1.0085322
1.0083415
1.0031525
1.0031639
1.0031757
1.0031896
1.0032085
1.0032317
1.0032591
1.0032906
1.0033262
1.0033656
1.0034089
1.0034559
1.0035066
1.003561
1.0036189
1.0036804
1.0037454
1.0038138
1.0038856
1.0039608
1.0040394
1.0041213
1.0042064
1.0042948
1.0043864
1.0044812
1.0045791
1.00468
1.0047839
1.0048908
1.0050006
1.0051132
1.0052285
1.0053464
1.0054668
1.0055897
1.0057149
1.0058423
1.0059718
1.0061031
1.0062363
1.006371
1.0065071
1.0066445
1.0067829
1.0069221
1.007062
1.0072023
1.0073427
1.0074831
1.0076232
1.0077627
1.0079015
1.0080391
1.0081754
1.0083101
1.0084429
1.0085735
1.0087018
1.0088273
1.0089498
1.0090691
1.0091849
1.009297
1.009405
1.0095087
1.0096079
1.0097023
1.0097918
1.0098759
1.0099547
1.0100278
1.010095
1.0101562
1.0102111
1.0102596
1.0103015
1.0103366
1.0103648
1.0103859
1.0103997
1.0104061
1.010405
1.0103961
1.0103791
1.0103536
1.0103194
1.0102766
1.0102248
1.010164
1.010094
1.0100149
1.0099264
1.0098285
1.0097212
1.0096044
1.0094781
1.0093423
1.0091971
1.0090425
1.0088784
1.0087056
1.0085222
1.0083332
1.0031523
1.0031642
1.003176
1.0031898
1.0032087
1.003232
1.0032594
1.0032908
1.0033263
1.0033658
1.003409
1.003456
1.0035067
1.0035611
1.003619
1.0036804
1.0037454
1.0038137
1.0038855
1.0039607
1.0040393
1.0041211
1.0042062
1.0042946
1.0043861
1.0044808
1.0045786
1.0046795
1.0047834
1.0048902
1.0049999
1.0051124
1.0052277
1.0053455
1.0054659
1.0055887
1.0057138
1.0058412
1.0059705
1.0061018
1.0062348
1.0063694
1.0065055
1.0066427
1.006781
1.0069202
1.0070599
1.0072001
1.0073404
1.0074807
1.0076206
1.00776
1.0078985
1.008036
1.0081721
1.0083066
1.0084392
1.0085697
1.0086977
1.008823
1.0089453
1.0090643
1.0091798
1.0092916
1.0093992
1.0095026
1.0096015
1.0096955
1.0097846
1.0098684
1.0099467
1.0100193
1.0100861
1.0101468
1.0102012
1.0102492
1.0102906
1.0103252
1.0103528
1.0103734
1.0103866
1.0103925
1.0103909
1.0103815
1.0103641
1.0103381
1.0103036
1.0102604
1.0102084
1.0101474
1.0100774
1.0099983
1.0099099
1.0098122
1.0097053
1.009589
1.0094633
1.0093283
1.0091839
1.0090304
1.0088675
1.0086961
1.0085143
1.008327
1.0031521
1.0031645
1.0031763
1.00319
1.0032089
1.0032322
1.0032596
1.003291
1.0033265
1.0033659
1.0034091
1.0034561
1.0035068
1.0035611
1.003619
1.0036804
1.0037453
1.0038137
1.0038855
1.0039606
1.0040391
1.0041209
1.004206
1.0042943
1.0043858
1.0044804
1.0045782
1.004679
1.0047828
1.0048896
1.0049992
1.0051117
1.0052268
1.0053446
1.0054649
1.0055877
1.0057127
1.0058399
1.0059692
1.0061004
1.0062333
1.0063679
1.0065038
1.0066409
1.0067791
1.0069182
1.0070578
1.0071978
1.007338
1.0074782
1.007618
1.0077572
1.0078956
1.0080329
1.0081689
1.0083032
1.0084356
1.0085659
1.0086937
1.0088187
1.0089408
1.0090596
1.0091749
1.0092863
1.0093937
1.0094968
1.0095953
1.0096891
1.0097778
1.0098612
1.0099391
1.0100114
1.0100777
1.010138
1.010192
1.0102396
1.0102805
1.0103147
1.0103418
1.0103619
1.0103748
1.0103802
1.0103781
1.0103683
1.0103505
1.0103242
1.0102894
1.010246
1.0101938
1.0101327
1.0100627
1.0099836
1.0098954
1.009798
1.0096914
1.0095756
1.0094506
1.0093163
1.0091729
1.0090204
1.0088587
1.0086886
1.0085083
1.0083227
1.0031518
1.0031648
1.0031765
1.0031902
1.0032091
1.0032324
1.0032597
1.0032912
1.0033267
1.003366
1.0034093
1.0034562
1.0035069
1.0035612
1.003619
1.0036804
1.0037453
1.0038136
1.0038853
1.0039605
1.0040389
1.0041207
1.0042057
1.0042939
1.0043854
1.00448
1.0045777
1.0046785
1.0047823
1.004889
1.0049985
1.0051109
1.005226
1.0053437
1.0054639
1.0055866
1.0057116
1.0058387
1.0059679
1.006099
1.0062318
1.0063663
1.0065021
1.0066391
1.0067772
1.0069161
1.0070557
1.0071956
1.0073357
1.0074757
1.0076153
1.0077544
1.0078927
1.0080299
1.0081657
1.0082998
1.0084321
1.0085621
1.0086897
1.0088146
1.0089364
1.009055
1.0091701
1.0092813
1.0093884
1.0094912
1.0095895
1.0096829
1.0097713
1.0098544
1.009932
1.0100039
1.0100699
1.0101299
1.0101835
1.0102307
1.0102712
1.010305
1.0103318
1.0103515
1.010364
1.010369
1.0103666
1.0103564
1.0103383
1.0103118
1.0102767
1.0102332
1.0101809
1.0101198
1.0100498
1.0099708
1.0098828
1.0097857
1.0096795
1.0095642
1.0094398
1.0093063
1.0091637
1.0090122
1.0088517
1.0086829
1.0085041
1.0083199
1.0031516
1.0031651
1.0031767
1.0031904
1.0032093
1.0032326
1.0032599
1.0032913
1.0033268
1.0033662
1.0034093
1.0034563
1.0035069
1.0035612
1.003619
1.0036804
1.0037452
1.0038135
1.0038852
1.0039603
1.0040387
1.0041204
1.0042054
1.0042936
1.004385
1.0044796
1.0045772
1.0046779
1.0047816
1.0048883
1.0049978
1.0051101
1.0052251
1.0053428
1.0054629
1.0055855
1.0057104
1.0058374
1.0059665
1.0060976
1.0062303
1.0063646
1.0065004
1.0066373
1.0067753
1.0069141
1.0070535
1.0071933
1.0073333
1.0074732
1.0076127
1.0077517
1.0078898
1.0080268
1.0081625
1.0082965
1.0084285
1.0085584
1.0086859
1.0088105
1.0089322
1.0090506
1.0091654
1.0092764
1.0093833
1.0094859
1.0095839
1.0096771
1.0097652
1.009848
1.0099253
1.0099969
1.0100626
1.0101222
1.0101756
1.0102224
1.0102627
1.0102961
1.0103226
1.010342
1.0103542
1.0103589
1.0103561
1.0103457
1.0103273
1.0103006
1.0102654
1.0102218
1.0101694
1.0101083
1.0100384
1.0099596
1.0098719
1.0097751
1.0096693
1.0095545
1.0094307
1.009298
1.0091563
1.0090058
1.0088463
1.0086788
1.0085014
1.0083187
1.0031513
1.0031653
1.0031769
1.0031905
1.0032095
1.0032327
1.00326
1.0032915
1.0033269
1.0033663
1.0034094
1.0034563
1.003507
1.0035612
1.003619
1.0036803
1.0037451
1.0038134
1.0038851
1.0039601
1.0040385
1.0041201
1.0042051
1.0042932
1.0043846
1.0044791
1.0045767
1.0046774
1.004781
1.0048876
1.004997
1.0051093
1.0052242
1.0053418
1.0054619
1.0055844
1.0057092
1.0058362
1.0059652
1.0060961
1.0062287
1.006363
1.0064986
1.0066355
1.0067733
1.006912
1.0070514
1.007191
1.0073309
1.0074706
1.0076101
1.0077489
1.0078869
1.0080238
1.0081593
1.0082931
1.0084251
1.0085548
1.0086821
1.0088066
1.008928
1.0090462
1.0091609
1.0092717
1.0093784
1.0094807
1.0095785
1.0096715
1.0097593
1.0098419
1.009919
1.0099904
1.0100558
1.0101152
1.0101682
1.0102148
1.0102548
1.010288
1.0103142
1.0103333
1.0103452
1.0103497
1.0103467
1.0103361
1.0103175
1.0102907
1.0102554
1.0102117
1.0101593
1.0100983
1.0100285
1.0099499
1.0098624
1.009766
1.0096607
1.0095464
1.0094233
1.0092912
1.0091504
1.0090008
1.0088425
1.0086761
1.0085001
1.0083187
1.0031511
1.0031656
1.0031771
1.0031907
1.0032096
1.0032329
1.0032602
1.0032916
1.003327
1.0033663
1.0034095
1.0034564
1.003507
1.0035612
1.003619
1.0036803
1.0037451
1.0038133
1.0038849
1.0039599
1.0040382
1.0041199
1.0042048
1.0042929
1.0043842
1.0044786
1.0045762
1.0046768
1.0047804
1.0048869
1.0049963
1.0051085
1.0052233
1.0053408
1.0054608
1.0055833
1.005708
1.0058349
1.0059638
1.0060946
1.0062272
1.0063613
1.0064969
1.0066336
1.0067714
1.00691
1.0070492
1.0071888
1.0073285
1.0074681
1.0076074
1.0077461
1.007884
1.0080208
1.0081561
1.0082898
1.0084216
1.0085512
1.0086783
1.0088027
1.008924
1.009042
1.0091565
1.0092671
1.0093736
1.0094758
1.0095734
1.0096661
1.0097538
1.0098362
1.009913
1.0099842
1.0100494
1.0101085
1.0101614
1.0102077
1.0102475
1.0102805
1.0103065
1.0103254
1.0103371
1.0103415
1.0103383
1.0103274
1.0103087
1.0102818
1.0102465
1.0102028
1.0101505
1.0100896
1.0100199
1.0099416
1.0098544
1.0097583
1.0096535
1.0095397
1.0094172
1.0092859
1.0091458
1.0089973
1.00884
1.0086747
1.0085001
1.00832
1.0031508
1.0031658
1.0031772
1.0031908
1.0032098
1.003233
1.0032603
1.0032917
1.0033271
1.0033664
1.0034095
1.0034564
1.003507
1.0035612
1.0036189
1.0036802
1.003745
1.0038131
1.0038847
1.0039597
1.004038
1.0041196
1.0042044
1.0042925
1.0043838
1.0044782
1.0045757
1.0046762
1.0047797
1.0048862
1.0049955
1.0051076
1.0052224
1.0053398
1.0054598
1.0055821
1.0057068
1.0058336
1.0059624
1.0060932
1.0062256
1.0063597
1.0064951
1.0066318
1.0067694
1.0069079
1.007047
1.0071865
1.0073261
1.0074656
1.0076048
1.0077434
1.0078812
1.0080178
1.008153
1.0082866
1.0084183
1.0085477
1.0086747
1.0087989
1.0089201
1.0090379
1.0091522
1.0092627
1.009369
1.0094711
1.0095685
1.009661
1.0097485
1.0098307
1.0099074
1.0099784
1.0100434
1.0101024
1.010155
1.0102012
1.0102408
1.0102736
1.0102994
1.0103182
1.0103298
1.010334
1.0103306
1.0103197
1.0103009
1.0102739
1.0102386
1.0101949
1.0101427
1.010082
1.0100125
1.0099344
1.0098475
1.0097519
1.0096475
1.0095343
1.0094124
1.0092818
1.0091426
1.0089949
1.0088386
1.0086745
1.0085011
1.0083222
1.0031505
1.003166
1.0031774
1.003191
1.0032099
1.0032331
1.0032604
1.0032918
1.0033272
1.0033665
1.0034096
1.0034564
1.003507
1.0035611
1.0036189
1.0036801
1.0037448
1.003813
1.0038846
1.0039595
1.0040377
1.0041193
1.0042041
1.0042921
1.0043833
1.0044777
1.0045751
1.0046756
1.0047791
1.0048855