/*--------------------------------*- C++ -*----------------------------------*\
| =========                 |                                                 |
| \\      /  F ield         | OpenFOAM: The Open Source CFD Toolbox           |
|  \\    /   O peration     | Version:  2406                                  |
|   \\  /    A nd           | Website:  www.openfoam.com                      |
|    \\/     M anipulation  |                                                 |
\*---------------------------------------------------------------------------*/
FoamFile
{
    version     2.0;
    format      ascii;
    arch        "LSB;label=32;scalar=64";
    class       volScalarField;
    location    "1000";
    object      pMean;
}
// * * * * * * * * * * * * * * * * * * * * * * * * * * * * * * * * * * * * * //

dimensions      [1 -1 -2 0 0 0 0];

internalField   nonuniform List<scalar> 
132739
(
1.0031384
1.0031304
1.0031424
1.0031627
1.0031856
1.0032119
1.0032428
1.0032779
1.003317
1.0033599
1.0034067
1.0034572
1.0035114
1.0035693
1.0036308
1.0036959
1.0037645
1.0038365
1.003912
1.0039909
1.0040732
1.0041589
1.0042479
1.0043401
1.0044356
1.0045343
1.0046361
1.0047411
1.0048491
1.0049601
1.0050741
1.0051909
1.0053104
1.0054327
1.0055576
1.005685
1.0058148
1.0059468
1.0060811
1.0062173
1.0063554
1.0064953
1.0066368
1.0067798
1.006924
1.0070694
1.0072157
1.0073628
1.0075105
1.0076587
1.0078071
1.0079556
1.0081038
1.0082519
1.0083993
1.0085459
1.0086914
1.0088358
1.0089788
1.0091203
1.0092601
1.0093982
1.0095341
1.0096673
1.0097981
1.0099261
1.0100512
1.0101726
1.0102905
1.0104052
1.010516
1.0106223
1.0107241
1.0108209
1.0109125
1.0109983
1.0110779
1.0111508
1.0112165
1.0112745
1.0113244
1.0113655
1.0113973
1.0114191
1.0114302
1.0114298
1.0114171
1.0113912
1.0113515
1.0112972
1.0112273
1.0111412
1.011038
1.0109169
1.0107771
1.0106181
1.0104393
1.01024
1.01002
1.0097785
1.0095169
1.0092339
1.0089377
1.0086216
1.0031391
1.0031315
1.0031437
1.0031639
1.0031868
1.0032131
1.0032439
1.003279
1.003318
1.0033609
1.0034076
1.0034581
1.0035123
1.0035701
1.0036315
1.0036965
1.003765
1.003837
1.0039124
1.0039912
1.0040734
1.0041589
1.0042478
1.0043399
1.0044353
1.0045339
1.0046356
1.0047404
1.0048483
1.0049591
1.0050729
1.0051896
1.005309
1.0054311
1.0055558
1.005683
1.0058126
1.0059444
1.0060784
1.0062144
1.0063523
1.0064919
1.0066331
1.0067757
1.0069195
1.0070645
1.0072104
1.007357
1.0075041
1.0076516
1.0077994
1.007947
1.0080944
1.0082414
1.0083878
1.0085331
1.0086776
1.0088207
1.0089622
1.0091022
1.0092403
1.0093763
1.0095099
1.0096409
1.0097693
1.0098951
1.0100177
1.0101367
1.0102519
1.0103635
1.0104708
1.0105734
1.0106712
1.010764
1.0108514
1.0109331
1.0110085
1.0110774
1.0111392
1.0111936
1.0112401
1.0112782
1.0113074
1.0113271
1.0113369
1.0113361
1.011324
1.0113001
1.0112636
1.0112138
1.0111499
1.0110713
1.0109773
1.0108673
1.0107405
1.0105964
1.0104345
1.0102541
1.010055
1.0098363
1.0095982
1.0093383
1.0090565
1.0087476
1.0031397
1.0031325
1.0031448
1.003165
1.003188
1.0032143
1.0032452
1.0032803
1.0033193
1.0033622
1.003409
1.0034595
1.0035138
1.0035717
1.0036332
1.0036982
1.0037668
1.0038389
1.0039144
1.0039933
1.0040756
1.0041613
1.0042502
1.0043425
1.004438
1.0045367
1.0046386
1.0047435
1.0048516
1.0049626
1.0050766
1.0051934
1.005313
1.0054353
1.0055602
1.0056875
1.0058173
1.0059493
1.0060835
1.0062196
1.0063577
1.0064974
1.0066387
1.0067815
1.0069254
1.0070704
1.0072162
1.0073628
1.0075098
1.0076571
1.0078046
1.0079519
1.0080989
1.0082453
1.0083911
1.0085358
1.0086796
1.0088221
1.0089628
1.0091017
1.0092386
1.0093732
1.0095053
1.0096346
1.0097611
1.0098845
1.0100045
1.0101208
1.0102331
1.0103414
1.0104454
1.0105446
1.0106387
1.0107275
1.0108107
1.0108878
1.0109585
1.0110222
1.0110787
1.0111276
1.0111684
1.0112006
1.0112238
1.0112375
1.0112412
1.0112342
1.0112161
1.0111861
1.0111438
1.0110885
1.0110195
1.0109364
1.0108385
1.0107252
1.0105959
1.0104502
1.0102874
1.0101072
1.0099092
1.009693
1.0094583
1.0092059
1.0089322
1.0086509
1.0031402
1.0031335
1.0031459
1.003166
1.0031891
1.0032154
1.0032462
1.0032813
1.0033204
1.0033633
1.00341
1.0034605
1.0035148
1.0035726
1.0036341
1.0036991
1.0037677
1.0038397
1.0039152
1.0039941
1.0040764
1.004162
1.004251
1.0043432
1.0044387
1.0045373
1.0046392
1.0047441
1.0048521
1.0049631
1.005077
1.0051938
1.0053134
1.0054356
1.0055604
1.0056878
1.0058175
1.0059494
1.0060835
1.0062196
1.0063575
1.0064971
1.0066383
1.0067809
1.0069247
1.0070694
1.0072151
1.0073613
1.0075081
1.007655
1.007802
1.0079488
1.0080953
1.0082411
1.0083862
1.0085302
1.0086731
1.0088145
1.008954
1.0090916
1.0092272
1.0093603
1.0094906
1.0096182
1.0097426
1.0098639
1.0099815
1.0100953
1.010205
1.0103105
1.0104113
1.0105072
1.0105979
1.0106831
1.0107625
1.0108358
1.0109025
1.0109623
1.0110148
1.0110597
1.0110964
1.0111247
1.0111439
1.0111538
1.0111537
1.0111431
1.0111215
1.0110884
1.0110432
1.0109853
1.010914
1.0108289
1.0107295
1.0106151
1.0104853
1.0103397
1.0101779
1.0099993
1.0098038
1.0095912
1.0093608
1.0091137
1.0088469
1.0085664
1.0031406
1.0031343
1.0031469
1.003167
1.00319
1.0032164
1.0032472
1.0032823
1.0033214
1.0033643
1.0034111
1.0034616
1.0035158
1.0035737
1.0036352
1.0037003
1.0037689
1.0038409
1.0039164
1.0039954
1.0040777
1.0041634
1.0042524
1.0043446
1.0044402
1.0045389
1.0046408
1.0047458
1.0048538
1.0049649
1.0050789
1.0051957
1.0053153
1.0054376
1.0055625
1.0056899
1.0058196
1.0059516
1.0060857
1.0062218
1.0063598
1.0064994
1.0066406
1.0067831
1.0069268
1.0070715
1.007217
1.0073631
1.0075097
1.0076564
1.0078031
1.0079496
1.0080957
1.0082411
1.0083856
1.008529
1.0086711
1.0088116
1.0089503
1.0090869
1.0092213
1.009353
1.009482
1.009608
1.0097307
1.00985
1.0099656
1.0100772
1.0101845
1.0102874
1.0103854
1.0104785
1.0105661
1.0106481
1.0107242
1.0107939
1.0108569
1.0109129
1.0109614
1.0110022
1.0110348
1.011059
1.0110741
1.0110799
1.0110759
1.0110616
1.0110365
1.0110001
1.0109518
1.0108913
1.010818
1.0107314
1.0106311
1.0105166
1.0103874
1.0102431
1.0100834
1.009908
1.0097164
1.0095087
1.0092841
1.0090433
1.0087847
1.0085096
1.003141
1.0031352
1.0031479
1.0031679
1.0031909
1.0032173
1.0032481
1.0032833
1.0033223
1.0033652
1.0034119
1.0034625
1.0035167
1.0035746
1.0036361
1.0037011
1.0037697
1.0038417
1.0039172
1.0039962
1.0040785
1.0041641
1.0042531
1.0043454
1.0044409
1.0045396
1.0046415
1.0047465
1.0048545
1.0049655
1.0050795
1.0051963
1.0053159
1.0054382
1.0055631
1.0056904
1.0058201
1.0059521
1.0060861
1.0062222
1.0063601
1.0064996
1.0066407
1.0067831
1.0069267
1.0070712
1.0072165
1.0073624
1.0075087
1.0076552
1.0078016
1.0079477
1.0080933
1.0082381
1.0083821
1.0085248
1.0086662
1.0088059
1.0089436
1.0090792
1.0092124
1.0093429
1.0094705
1.0095949
1.009716
1.0098335
1.0099471
1.0100566
1.0101617
1.0102621
1.0103576
1.0104479
1.0105327
1.0106117
1.0106846
1.0107511
1.0108108
1.0108633
1.0109085
1.0109458
1.010975
1.0109956
1.0110074
1.0110098
1.0110025
1.010985
1.010957
1.0109178
1.0108672
1.0108045
1.0107294
1.0106414
1.0105401
1.0104251
1.010296
1.0101525
1.0099942
1.0098209
1.0096322
1.0094282
1.0092084
1.0089732
1.0087215
1.0084552
1.0031412
1.003136
1.0031487
1.0031687
1.0031918
1.0032181
1.003249
1.0032841
1.0033231
1.003366
1.0034128
1.0034633
1.0035175
1.0035754
1.0036369
1.0037019
1.0037705
1.0038426
1.0039181
1.003997
1.0040793
1.004165
1.004254
1.0043463
1.0044418
1.0045405
1.0046424
1.0047474
1.0048554
1.0049665
1.0050805
1.0051973
1.0053169
1.0054392
1.005564
1.0056913
1.0058211
1.005953
1.006087
1.006223
1.0063609
1.0065004
1.0066414
1.0067837
1.0069272
1.0070716
1.0072168
1.0073625
1.0075086
1.0076548
1.0078009
1.0079466
1.0080919
1.0082363
1.0083797
1.0085219
1.0086626
1.0088015
1.0089385
1.0090731
1.0092053
1.0093347
1.009461
1.0095841
1.0097037
1.0098196
1.0099315
1.0100391
1.0101422
1.0102405
1.0103337
1.0104216
1.0105039
1.0105802
1.0106504
1.010714
1.0107707
1.0108202
1.0108621
1.0108962
1.0109222
1.0109396
1.0109482
1.0109475
1.0109372
1.0109168
1.010886
1.0108443
1.0107913
1.0107266
1.0106499
1.0105607
1.0104586
1.0103433
1.0102145
1.0100718
1.0099151
1.009744
1.0095582
1.0093579
1.0091425
1.0089127
1.008667
1.0084084
1.0031414
1.0031367
1.0031495
1.0031694
1.0031925
1.0032189
1.0032497
1.0032849
1.0033239
1.0033668
1.0034135
1.003464
1.0035182
1.0035761
1.0036376
1.0037026
1.0037712
1.0038432
1.0039187
1.0039977
1.00408
1.0041656
1.0042546
1.0043468
1.0044423
1.0045411
1.0046429
1.0047479
1.0048559
1.004967
1.0050809
1.0051977
1.0053173
1.0054395
1.0055644
1.0056916
1.0058213
1.0059532
1.0060872
1.0062231
1.0063609
1.0065003
1.0066412
1.0067835
1.0069268
1.0070711
1.0072161
1.0073616
1.0075074
1.0076534
1.0077992
1.0079446
1.0080895
1.0082334
1.0083763
1.008518
1.008658
1.0087962
1.0089324
1.0090661
1.0091974
1.0093257
1.0094509
1.0095727
1.009691
1.0098053
1.0099156
1.0100215
1.0101227
1.010219
1.0103101
1.0103958
1.0104756
1.0105495
1.0106171
1.0106781
1.0107321
1.0107788
1.0108179
1.0108492
1.0108723
1.0108869
1.0108927
1.0108893
1.0108764
1.0108535
1.0108204
1.0107766
1.0107217
1.0106554
1.0105774
1.0104873
1.0103847
1.0102693
1.0101409
1.0099991
1.0098439
1.0096749
1.0094919
1.009295
1.0090838
1.008859
1.0086188
1.0083675
1.0031415
1.0031374
1.0031503
1.0031701
1.0031932
1.0032196
1.0032504
1.0032855
1.0033246
1.0033674
1.0034142
1.0034647
1.0035189
1.0035768
1.0036382
1.0037033
1.0037718
1.0038438
1.0039193
1.0039982
1.0040805
1.0041662
1.0042551
1.0043474
1.0044429
1.0045416
1.0046434
1.0047484
1.0048564
1.0049674
1.0050813
1.0051981
1.0053177
1.0054399
1.0055647
1.0056919
1.0058216
1.0059534
1.0060874
1.0062232
1.0063609
1.0065003
1.0066411
1.0067832
1.0069264
1.0070706
1.0072154
1.0073607
1.0075064
1.0076521
1.0077976
1.0079427
1.0080872
1.0082308
1.0083732
1.0085143
1.0086538
1.0087914
1.0089268
1.0090598
1.0091901
1.0093175
1.0094416
1.0095623
1.0096793
1.0097923
1.0099011
1.0100055
1.010105
1.0101995
1.0102887
1.0103724
1.0104502
1.010522
1.0105873
1.0106459
1.0106974
1.0107417
1.0107783
1.010807
1.0108275
1.0108396
1.0108428
1.010837
1.0108217
1.0107966
1.0107613
1.0107156
1.010659
1.0105913
1.0105121
1.0104211
1.010318
1.0102026
1.0100746
1.0099338
1.0097799
1.0096129
1.0094326
1.0092389
1.0090315
1.0088113
1.0085762
1.0083314
1.0031416
1.003138
1.003151
1.0031708
1.0031939
1.0032203
1.0032511
1.0032862
1.0033252
1.0033681
1.0034148
1.0034653
1.0035195
1.0035773
1.0036388
1.0037038
1.0037723
1.0038443
1.0039198
1.0039987
1.004081
1.0041666
1.0042555
1.0043478
1.0044432
1.0045419
1.0046437
1.0047486
1.0048567
1.0049676
1.0050815
1.0051983
1.0053178
1.00544
1.0055647
1.0056919
1.0058215
1.0059533
1.0060872
1.006223
1.0063606
1.0064998
1.0066405
1.0067825
1.0069256
1.0070696
1.0072143
1.0073594
1.0075048
1.0076503
1.0077955
1.0079403
1.0080845
1.0082277
1.0083697
1.0085103
1.0086492
1.0087862
1.008921
1.0090532
1.0091827
1.0093092
1.0094324
1.009552
1.0096678
1.0097796
1.0098871
1.00999
1.010088
1.0101809
1.0102684
1.0103502
1.0104261
1.0104959
1.0105591
1.0106155
1.0106649
1.0107069
1.0107412
1.0107676
1.0107859
1.0107957
1.0107967
1.0107887
1.0107714
1.0107443
1.0107073
1.0106599
1.0106019
1.010533
1.0104528
1.0103612
1.0102579
1.0101426
1.0100151
1.0098751
1.0097227
1.0095576
1.0093796
1.009189
1.0089852
1.0087693
1.0085389
1.0083002
1.0031417
1.0031385
1.0031516
1.0031714
1.0031945
1.0032209
1.0032517
1.0032868
1.0033258
1.0033686
1.0034153
1.0034658
1.00352
1.0035778
1.0036393
1.0037043
1.0037728
1.0038448
1.0039202
1.0039991
1.0040813
1.0041669
1.0042559
1.0043481
1.0044435
1.0045421
1.0046439
1.0047488
1.0048568
1.0049678
1.0050816
1.0051983
1.0053178
1.0054399
1.0055646
1.0056918
1.0058213
1.005953
1.0060868
1.0062226
1.0063601
1.0064993
1.0066399
1.0067817
1.0069247
1.0070685
1.007213
1.007358
1.0075032
1.0076484
1.0077934
1.0079379
1.0080817
1.0082246
1.0083662
1.0085063
1.0086447
1.0087812
1.0089153
1.0090468
1.0091756
1.0093013
1.0094236
1.0095423
1.0096571
1.0097677
1.009874
1.0099756
1.0100722
1.0101636
1.0102496
1.0103298
1.010404
1.010472
1.0105334
1.0105879
1.0106353
1.0106753
1.0107076
1.010732
1.0107482
1.010756
1.010755
1.0107451
1.0107259
1.0106971
1.0106584
1.0106096
1.0105504
1.0104804
1.0103995
1.0103074
1.0102038
1.0100887
1.0099617
1.0098227
1.0096715
1.0095082
1.0093326
1.0091448
1.0089443
1.0087324
1.0085063
1.008273
1.0031417
1.003139
1.0031522
1.0031719
1.003195
1.0032214
1.0032522
1.0032873
1.0033263
1.0033691
1.0034158
1.0034663
1.0035204
1.0035783
1.0036397
1.0037046
1.0037732
1.0038451
1.0039206
1.0039994
1.0040816
1.0041672
1.0042561
1.0043483
1.0044437
1.0045423
1.004644
1.0047489
1.0048568
1.0049677
1.0050815
1.0051982
1.0053176
1.0054397
1.0055643
1.0056914
1.0058209
1.0059525
1.0060863
1.0062219
1.0063594
1.0064984
1.0066389
1.0067807
1.0069235
1.0070672
1.0072115
1.0073563
1.0075013
1.0076463
1.007791
1.0079353
1.0080788
1.0082213
1.0083625
1.0085022
1.0086401
1.008776
1.0089096
1.0090405
1.0091686
1.0092935
1.009415
1.0095329
1.0096467
1.0097563
1.0098615
1.0099619
1.0100573
1.0101473
1.0102319
1.0103106
1.0103833
1.0104496
1.0105093
1.0105622
1.0106078
1.010646
1.0106765
1.010699
1.0107135
1.0107194
1.0107167
1.0107051
1.0106843
1.010654
1.010614
1.0105639
1.0105036
1.0104328
1.0103513
1.0102588
1.0101552
1.0100402
1.0099138
1.0097757
1.0096259
1.0094644
1.0092909
1.0091057
1.0089084
1.0087001
1.0084781
1.0082497
1.0031417
1.0031395
1.0031528
1.0031724
1.0031955
1.0032219
1.0032527
1.0032878
1.0033267
1.0033696
1.0034163
1.0034667
1.0035208
1.0035786
1.00364
1.003705
1.0037735
1.0038454
1.0039208
1.0039996
1.0040818
1.0041674
1.0042562
1.0043484
1.0044438
1.0045423
1.004644
1.0047489
1.0048567
1.0049676
1.0050814
1.005198
1.0053173
1.0054394
1.0055639
1.005691
1.0058204
1.0059519
1.0060856
1.0062211
1.0063585
1.0064975
1.0066378
1.0067795
1.0069222
1.0070657
1.0072099
1.0073545
1.0074993
1.0076441
1.0077886
1.0079325
1.0080757
1.0082179
1.0083588
1.0084981
1.0086356
1.008771
1.008904
1.0090344
1.0091619
1.0092861
1.0094068
1.0095239
1.0096368
1.0097455
1.0098497
1.009949
1.0100433
1.0101321
1.0102154
1.0102928
1.0103641
1.010429
1.0104873
1.0105385
1.0105826
1.0106192
1.0106481
1.010669
1.0106818
1.0106862
1.010682
1.0106689
1.0106466
1.0106151
1.0105738
1.0105227
1.0104615
1.01039
1.0103079
1.0102152
1.0101115
1.0099969
1.0098711
1.0097339
1.0095854
1.0094255
1.009254
1.0090713
1.0088769
1.008672
1.0084538
1.0082297
1.0031416
1.00314
1.0031533
1.0031729
1.003196
1.0032224
1.0032532
1.0032882
1.0033272
1.00337
1.0034166
1.0034671
1.0035212
1.003579
1.0036403
1.0037053
1.0037737
1.0038457
1.003921
1.0039998
1.004082
1.0041675
1.0042563
1.0043484
1.0044438
1.0045423
1.004644
1.0047487
1.0048566
1.0049674
1.0050811
1.0051976
1.0053169
1.0054389
1.0055634
1.0056904
1.0058197
1.0059512
1.0060847
1.0062202
1.0063575
1.0064963
1.0066366
1.0067781
1.0069207
1.0070641
1.0072081
1.0073525
1.0074971
1.0076417
1.0077859
1.0079297
1.0080726
1.0082144
1.008355
1.0084939
1.008631
1.008766
1.0088985
1.0090283
1.0091552
1.0092788
1.0093989
1.0095152
1.0096274
1.0097352
1.0098385
1.0099368
1.0100301
1.0101179
1.0102
1.0102762
1.0103463
1.0104099
1.0104668
1.0105167
1.0105593
1.0105945
1.010622
1.0106415
1.0106529
1.0106559
1.0106503
1.0106359
1.0106124
1.0105797
1.0105374
1.0104854
1.0104234
1.0103513
1.0102689
1.010176
1.0100724
1.0099581
1.0098329
1.0096966
1.0095494
1.0093911
1.0092216
1.0090412
1.0088495
1.0086477
1.0084332
1.0082129
1.0031415
1.0031404
1.0031538
1.0031733
1.0031964
1.0032228
1.0032536
1.0032886
1.0033275
1.0033703
1.003417
1.0034674
1.0035215
1.0035793
1.0036406
1.0037055
1.0037739
1.0038458
1.0039212
1.0039999
1.0040821
1.0041675
1.0042563
1.0043484
1.0044437
1.0045422
1.0046438
1.0047485
1.0048563
1.0049671
1.0050807
1.0051972
1.0053164
1.0054383
1.0055628
1.0056897
1.0058189
1.0059503
1.0060838
1.0062192
1.0063563
1.0064951
1.0066352
1.0067766
1.006919
1.0070623
1.0072061
1.0073504
1.0074948
1.0076392
1.0077832
1.0079267
1.0080694
1.0082109
1.0083511
1.0084898
1.0086265
1.008761
1.0088931
1.0090224
1.0091488
1.0092718
1.0093913
1.0095069
1.0096184
1.0097255
1.0098279
1.0099254
1.0100177
1.0101045
1.0101856
1.0102608
1.0103297
1.0103921
1.0104479
1.0104965
1.0105379
1.0105719
1.0105981
1.0106163
1.0106264
1.0106282
1.0106214
1.0106059
1.0105814
1.0105476
1.0105045
1.0104517
1.0103891
1.0103166
1.0102339
1.0101409
1.0100374
1.0099235
1.0097989
1.0096635
1.0095175
1.0093607
1.0091931
1.0090149
1.0088257
1.0086268
1.0084157
1.0081988
1.0031413
1.0031408
1.0031542
1.0031737
1.0031968
1.0032232
1.003254
1.003289
1.0033279
1.0033707
1.0034173
1.0034677
1.0035218
1.0035795
1.0036408
1.0037057
1.0037741
1.003846
1.0039213
1.004
1.0040821
1.0041675
1.0042563
1.0043483
1.0044436
1.004542
1.0046436
1.0047482
1.004856
1.0049667
1.0050803
1.0051967
1.0053159
1.0054377
1.0055621
1.0056889
1.005818
1.0059494
1.0060827
1.006218
1.0063551
1.0064937
1.0066337
1.006775
1.0069173
1.0070604
1.0072041
1.0073482
1.0074924
1.0076366
1.0077804
1.0079237
1.0080661
1.0082074
1.0083473
1.0084856
1.0086219
1.0087561
1.0088878
1.0090166
1.0091425
1.009265
1.0093839
1.0094989
1.0096098
1.0097162
1.0098178
1.0099145
1.010006
1.010092
1.0101722
1.0102464
1.0103143
1.0103757
1.0104304
1.010478
1.0105182
1.010551
1.0105761
1.0105933
1.0106023
1.010603
1.0105952
1.0105787
1.0105532
1.0105187
1.0104748
1.0104214
1.0103583
1.0102853
1.0102024
1.0101094
1.0100062
1.0098926
1.0097687
1.0096343
1.0094894
1.009334
1.0091681
1.008992
1.0088053
1.0086091
1.0084012
1.0081873
1.0031412
1.0031411
1.0031546
1.003174
1.0031972
1.0032236
1.0032543
1.0032893
1.0033282
1.003371
1.0034176
1.0034679
1.003522
1.0035797
1.003641
1.0037058
1.0037742
1.0038461
1.0039213
1.004
1.0040821
1.0041675
1.0042562
1.0043482
1.0044434
1.0045418
1.0046433
1.0047479
1.0048556
1.0049662
1.0050797
1.0051961
1.0053152
1.005437
1.0055613
1.005688
1.005817
1.0059483
1.0060816
1.0062168
1.0063537
1.0064922
1.0066322
1.0067733
1.0069155
1.0070584
1.007202
1.0073459
1.00749
1.0076339
1.0077776
1.0079206
1.0080627
1.0082038
1.0083434
1.0084814
1.0086174
1.0087512
1.0088825
1.009011
1.0091364
1.0092585
1.0093768
1.0094913
1.0096015
1.0097073
1.0098083
1.0099043
1.0099951
1.0100802
1.0101596
1.0102329
1.0103
1.0103605
1.0104142
1.0104608
1.0105001
1.010532
1.0105561
1.0105722
1.0105803
1.0105801
1.0105714
1.010554
1.0105278
1.0104925
1.010448
1.0103941
1.0103306
1.0102574
1.0101743
1.0100814
1.0099784
1.0098652
1.0097419
1.0096084
1.0094647
1.0093107
1.0091465
1.0089723
1.0087878
1.0085941
1.0083892
1.0081782
1.003141
1.0031415
1.003155
1.0031744
1.0031975
1.0032239
1.0032546
1.0032896
1.0033285
1.0033712
1.0034178
1.0034682
1.0035222
1.0035799
1.0036411
1.0037059
1.0037743
1.0038461
1.0039213
1.004
1.004082
1.0041674
1.004256
1.004348
1.0044431
1.0045415
1.0046429
1.0047475
1.0048551
1.0049657
1.0050792
1.0051955
1.0053145
1.0054362
1.0055604
1.005687
1.005816
1.0059472
1.0060804
1.0062154
1.0063523
1.0064907
1.0066305
1.0067715
1.0069135
1.0070564
1.0071998
1.0073435
1.0074874
1.0076312
1.0077746
1.0079175
1.0080594
1.0082002
1.0083396
1.0084773
1.008613
1.0087465
1.0088774
1.0090055
1.0091305
1.0092521
1.00937
1.009484
1.0095937
1.0096989
1.0097993
1.0098947
1.0099847
1.0100692
1.0101478
1.0102204
1.0102867
1.0103463
1.0103992
1.010445
1.0104835
1.0105144
1.0105377
1.010553
1.0105602
1.0105592
1.0105497
1.0105316
1.0105047
1.0104688
1.0104238
1.0103695
1.0103057
1.0102323
1.0101492
1.0100564
1.0099536
1.009841
1.0097183
1.0095857
1.009443
1.0092904
1.0091277
1.0089554
1.0087731
1.0085817
1.0083796
1.0081714
1.0031408
1.0031418
1.0031554
1.0031747
1.0031978
1.0032242
1.0032549
1.0032899
1.0033287
1.0033715
1.003418
1.0034683
1.0035223
1.00358
1.0036412
1.003706
1.0037743
1.0038461
1.0039213
1.0039999
1.0040819
1.0041672
1.0042559
1.0043477
1.0044429
1.0045411
1.0046426
1.0047471
1.0048546
1.0049651
1.0050785
1.0051948
1.0053137
1.0054353
1.0055595
1.005686
1.0058149
1.005946
1.0060791
1.0062141
1.0063508
1.0064891
1.0066288
1.0067697
1.0069116
1.0070542
1.0071975
1.0073411
1.0074849
1.0076285
1.0077717
1.0079143
1.008056
1.0081966
1.0083357
1.0084732
1.0086086
1.0087418
1.0088724
1.0090001
1.0091247
1.0092459
1.0093634
1.0094769
1.0095862
1.0096909
1.0097907
1.0098855
1.009975
1.0100589
1.0101368
1.0102087
1.0102743
1.0103332
1.0103854
1.0104304
1.0104681
1.0104983
1.0105208
1.0105354
1.0105419
1.0105402
1.0105301
1.0105114
1.0104839
1.0104475
1.0104021
1.0103474
1.0102834
1.0102099
1.0101269
1.0100342
1.0099318
1.0098196
1.0096976
1.0095658
1.0094242
1.0092728
1.0091117
1.0089411
1.0087608
1.0085716
1.0083721
1.0081666
1.0031406
1.0031421
1.0031557
1.0031749
1.0031981
1.0032244
1.0032552
1.0032901
1.0033289
1.0033717
1.0034182
1.0034685
1.0035225
1.0035801
1.0036413
1.0037061
1.0037744
1.0038461
1.0039213
1.0039999
1.0040818
1.0041671
1.0042556
1.0043475
1.0044425
1.0045408
1.0046421
1.0047466
1.0048541
1.0049645
1.0050779
1.005194
1.0053129
1.0054344
1.0055585
1.0056849
1.0058137
1.0059447
1.0060777
1.0062126
1.0063492
1.0064874
1.006627
1.0067678
1.0069095
1.0070521
1.0071952
1.0073386
1.0074822
1.0076257
1.0077687
1.0079112
1.0080527
1.008193
1.0083319
1.0084691
1.0086042
1.0087371
1.0088675
1.0089949
1.0091192
1.00924
1.0093571
1.0094702
1.009579
1.0096832
1.0097826
1.0098769
1.0099658
1.0100491
1.0101265
1.0101978
1.0102628
1.0103211
1.0103726
1.010417
1.010454
1.0104836
1.0105054
1.0105194
1.0105253
1.010523
1.0105123
1.010493
1.0104651
1.0104283
1.0103826
1.0103277
1.0102635
1.01019
1.010107
1.0100145
1.0099124
1.0098007
1.0096794
1.0095484
1.0094079
1.0092577
1.0090981
1.0089291
1.0087507
1.0085636
1.0083665
1.0081636
1.0031403
1.0031424
1.003156
1.0031752
1.0031983
1.0032247
1.0032554
1.0032903
1.0033291
1.0033718
1.0034184
1.0034686
1.0035226
1.0035802
1.0036414
1.0037061
1.0037743
1.0038461
1.0039212
1.0039997
1.0040816
1.0041669
1.0042554
1.0043472
1.0044422
1.0045404
1.0046417
1.0047461
1.0048535
1.0049639
1.0050771
1.0051932
1.005312
1.0054335
1.0055574
1.0056838
1.0058125
1.0059434
1.0060763
1.0062111
1.0063476
1.0064857
1.0066252
1.0067658
1.0069075
1.0070499
1.0071928
1.0073362
1.0074796
1.0076228
1.0077657
1.007908
1.0080493
1.0081894
1.0083281
1.0084651
1.0086
1.0087326
1.0088626
1.0089898
1.0091137
1.0092342
1.009351
1.0094637
1.0095721
1.0096759
1.0097749
1.0098687
1.0099572
1.01004
1.0101169
1.0101877
1.010252
1.0103098
1.0103607
1.0104046
1.0104411
1.01047
1.0104913
1.0105047
1.0105101
1.0105073
1.0104961
1.0104765
1.0104482
1.0104111
1.0103651
1.01031
1.0102458
1.0101723
1.0100894
1.0099971
1.0098955
1.0097843
1.0096636
1.0095335
1.0093939
1.0092449
1.0090866
1.0089192
1.0087426
1.0085575
1.0083626
1.0081621
1.0031401
1.0031426
1.0031563
1.0031754
1.0031986
1.0032249
1.0032556
1.0032905
1.0033293
1.003372
1.0034185
1.0034687
1.0035227
1.0035802
1.0036414
1.0037061
1.0037743
1.003846
1.0039211
1.0039996
1.0040815
1.0041666
1.0042551
1.0043469
1.0044418
1.0045399
1.0046412
1.0047455
1.0048529
1.0049632
1.0050764
1.0051924
1.0053111
1.0054325
1.0055564
1.0056827
1.0058113
1.0059421
1.0060749
1.0062096
1.006346
1.006484
1.0066233
1.0067638
1.0069054
1.0070476
1.0071905
1.0073336
1.0074769
1.00762
1.0077627
1.0079048
1.008046
1.0081859
1.0083244
1.0084611
1.0085958
1.0087282
1.0088579
1.0089848
1.0091085
1.0092287
1.0093451
1.0094575
1.0095656
1.009669
1.0097676
1.009861
1.0099491
1.0100314
1.0101079
1.0101782
1.0102421
1.0102994
1.0103498
1.0103931
1.0104291
1.0104576
1.0104784
1.0104914
1.0104963
1.0104931
1.0104815
1.0104616
1.010433
1.0103956
1.0103495
1.0102943
1.01023
1.0101566
1.0100739
1.0099819
1.0098806
1.0097699
1.0096499
1.0095206
1.009382
1.0092341
1.0090771
1.0089112
1.0087362
1.0085531
1.0083602
1.0081619
1.0031398
1.0031428
1.0031565
1.0031757
1.0031988
1.0032251
1.0032558
1.0032907
1.0033295
1.0033721
1.0034186
1.0034688
1.0035227
1.0035803
1.0036414
1.0037061
1.0037743
1.0038459
1.003921
1.0039994
1.0040812
1.0041664
1.0042548
1.0043465
1.0044414
1.0045395
1.0046407
1.0047449
1.0048522
1.0049625
1.0050756
1.0051916
1.0053102
1.0054315
1.0055553
1.0056815
1.00581
1.0059407
1.0060734
1.006208
1.0063443
1.0064822
1.0066214
1.0067618
1.0069032
1.0070454
1.0071881
1.0073311
1.0074742
1.0076172
1.0077598
1.0079017
1.0080426
1.0081824
1.0083207
1.0084572
1.0085917
1.0087238
1.0088534
1.00898
1.0091034
1.0092233
1.0093394
1.0094515
1.0095593
1.0096624
1.0097606
1.0098537
1.0099414
1.0100233
1.0100994
1.0101693
1.0102328
1.0102896
1.0103396
1.0103826
1.0104181
1.0104462
1.0104666
1.0104792
1.0104838
1.0104802
1.0104683
1.0104481
1.0104193
1.0103818
1.0103355
1.0102802
1.010216
1.0101427
1.0100602
1.0099685
1.0098676
1.0097575
1.0096381
1.0095096
1.0093719
1.0092252
1.0090694
1.0089049
1.0087315
1.0085501
1.0083592
1.0081629
1.0031396
1.0031431
1.0031568
1.0031759
1.003199
1.0032253
1.003256
1.0032908
1.0033296
1.0033722
1.0034187
1.0034689
1.0035228
1.0035803
1.0036414
1.003706
1.0037742
1.0038458
1.0039208
1.0039992
1.004081
1.0041661
1.0042545
1.0043461
1.004441
1.004539
1.0046401
1.0047443
1.0048516
1.0049618
1.0050748
1.0051907
1.0053093
1.0054305
1.0055542
1.0056803
1.0058088
1.0059394
1.006072
1.0062065
1.0063427
1.0064804
1.0066195
1.0067598
1.0069011
1.0070431
1.0071857
1.0073286
1.0074716
1.0076144
1.0077568
1.0078985
1.0080393
1.0081789
1.008317
1.0084533
1.0085876
1.0087196
1.0088489
1.0089753
1.0090984
1.0092181
1.009334
1.0094458
1.0095533
1.0096561
1.009754
1.0098468
1.0099341
1.0100157
1.0100914
1.010161
1.0102241
1.0102806
1.0103302
1.0103728
1.010408
1.0104358
1.0104558
1.0104681
1.0104724
1.0104685
1.0104564
1.010436
1.010407
1.0103694
1.010323
1.0102678
1.0102037
1.0101305
1.0100482
1.0099569
1.0098564
1.0097468
1.0096281
1.0095004
1.0093636
1.0092179
1.0090633
1.0089002
1.0087283
1.0085485
1.0083595
1.0081651
1.0031393
1.0031433
1.003157
1.003176
1.0031992
1.0032255
1.0032561
1.003291
1.0033297
1.0033723
1.0034188
1.0034689
1.0035228
1.0035803
1.0036414
1.003706
1.0037741
1.0038457
1.0039207
1.003999
1.0040808
1.0041658
1.0042542
1.0043457
1.0044405
1.0045385
1.0046396
1.0047437
1.0048509
1.004961
1.005074
1.0051898
1.0053083
1.0054294
1.0055531
1.0056791
1.0058075
1.005938
1.0060705
1.0062049
1.006341
1.0064786
1.0066176
1.0067578
1.0068989
1.0070409
1.0071833
1.0073261
1.0074689
1.0076116
1.0077538
1.0078954
1.0080361
1.0081755
1.0083134
1.0084496
1.0085837
1.0087154
1.0088445
1.0089707
1.0090937
1.0092131
1.0093287
1.0094403
1.0095475
1.0096501
1.0097477
1.0098402
1.0099272
1.0100086
1.010084
1.0101532
1.010216
1.0102722
1.0103215
1.0103638
1.0103987
1.0104262
1.010446
1.010458
1.010462
1.010458
1.0104457
1.0104251
1.010396
1.0103583
1.010312
1.0102568
1.0101928
1.0101198
1.0100378
1.0099468
1.0098468
1.0097378
1.0096197
1.0094927
1.0093568
1.0092121
1.0090587
1.0088968
1.0087264
1.0085481
1.0083609
1.0081682
1.003139
1.0031434
1.0031572
1.0031762
1.0031993
1.0032256
1.0032563
1.0032911
1.0033298
1.0033724
1.0034188
1.003469
1.0035228
1.0035803
1.0036413
1.0037059
1.003774
1.0038455
1.0039205
1.0039988
1.0040805
1.0041655
1.0042538
1.0043453
1.0044401
1.004538
1.004639
1.0047431
1.0048502
1.0049603
1.0050732
1.0051889
1.0053073
1.0054284
1.0055519
1.0056779
1.0058061
1.0059366
1.006069
1.0062033
1.0063393
1.0064768
1.0066157
1.0067558
1.0068968
1.0070386
1.0071809
1.0073236
1.0074663
1.0076088
1.0077509
1.0078924
1.0080328
1.0081721
1.0083099
1.0084459
1.0085798
1.0087114
1.0088403
1.0089662
1.009089
1.0092083
1.0093237
1.009435
1.009542
1.0096443
1.0097417
1.009834
1.0099208
1.0100018
1.010077
1.0101459
1.0102085
1.0102644
1.0103135
1.0103555
1.0103902
1.0104174
1.0104369
1.0104487
1.0104526
1.0104484
1.010436
1.0104153
1.0103861
1.0103485
1.0103021
1.0102471
1.0101832
1.0101104
1.0100288
1.0099381
1.0098386
1.0097301
1.0096127
1.0094864
1.0093514
1.0092077
1.0090554
1.0088947
1.0087256
1.0085488
1.0083633
1.0081722
1.0031387
1.0031436
1.0031574
1.0031764
1.0031995
1.0032258
1.0032564
1.0032912
1.0033299
1.0033725
1.0034189
1.003469
1.0035228
1.0035802
1.0036413
1.0037058
1.0037739
1.0038454
1.0039203
1.0039986
1.0040802
1.0041652
1.0042534
1.0043449
1.0044396
1.0045375
1.0046384
1.0047425
1.0048495
1.0049595
1.0050723
1.005188
1.0053063
1.0054273
1.0055508
1.0056767
1.0058048
1.0059351
1.0060675
1.0062017
1.0063376
1.006475
1.0066138
1.0067537
1.0068947
1.0070363
1.0071785
1.0073211
1.0074636
1.007606
1.007748
1.0078893
1.0080297
1.0081688
1.0083064
1.0084422
1.008576
1.0087074
1.0088361
1.0089619
1.0090845
1.0092036
1.0093188
1.00943
1.0095367
1.0096388
1.009736
1.009828
1.0099146
1.0099955
1.0100704
1.0101391
1.0102014
1.0102572
1.010306
1.0103478
1.0103823
1.0104093
1.0104287
1.0104403
1.0104441
1.0104398
1.0104273
1.0104065
1.0103774
1.0103397
1.0102935
1.0102385
1.0101749
1.0101023
1.010021
1.0099307
1.0098317
1.0097237
1.009607
1.0094814
1.0093472
1.0092045
1.0090532
1.0088937
1.0087259
1.0085505
1.0083666
1.0081769
1.0031385
1.0031438
1.0031575
1.0031765
1.0031996
1.0032259
1.0032565
1.0032913
1.00333
1.0033725
1.0034189
1.003469
1.0035228
1.0035802
1.0036412
1.0037057
1.0037737
1.0038452
1.0039201
1.0039984
1.00408
1.0041649
1.0042531
1.0043445
1.0044392
1.004537
1.0046379
1.0047418
1.0048488
1.0049587
1.0050715
1.0051871
1.0053053
1.0054262
1.0055496
1.0056754
1.0058035
1.0059337
1.006066
1.0062001
1.0063359
1.0064732
1.0066119
1.0067517
1.0068925
1.0070341
1.0071762
1.0073186
1.007461
1.0076033
1.0077452
1.0078864
1.0080265
1.0081655
1.008303
1.0084387
1.0085723
1.0087035
1.0088321
1.0089577
1.0090802
1.009199
1.0093141
1.0094251
1.0095317
1.0096336
1.0097306
1.0098224
1.0099088
1.0099895
1.0100642
1.0101327
1.0101949
1.0102504
1.0102991
1.0103407
1.010375
1.0104019
1.0104212
1.0104327
1.0104363
1.010432
1.0104195
1.0103987
1.0103696
1.010332
1.0102858
1.0102311
1.0101676
1.0100954
1.0100143
1.0099245
1.0098259
1.0097185
1.0096024
1.0094776
1.0093442
1.0092023
1.0090521
1.0088936
1.0087271
1.008553
1.0083706
1.0081824
1.0031382
1.0031439
1.0031577
1.0031766
1.0031997
1.003226
1.0032566
1.0032914
1.0033301
1.0033726
1.0034189
1.003469
1.0035228
1.0035802
1.0036411
1.0037056
1.0037736
1.003845
1.0039199
1.0039981
1.0040797
1.0041645
1.0042527
1.0043441
1.0044387
1.0045364
1.0046373
1.0047412
1.0048481
1.0049579
1.0050706
1.0051861