/*--------------------------------*- C++ -*----------------------------------*\
| =========                 |                                                 |
| \\      /  F ield         | OpenFOAM: The Open Source CFD Toolbox           |
|  \\    /   O peration     | Version:  2406                                  |
|   \\  /    A nd           | Website:  www.openfoam.com                      |
|    \\/     M anipulation  |                                                 |
\*---------------------------------------------------------------------------*/
FoamFile
{
    version     2.0;
    format      ascii;
    arch        "LSB;label=32;scalar=64";
    class       volScalarField;
    location    "1000";
    object      rho;
}
// * * * * * * * * * * * * * * * * * * * * * * * * * * * * * * * * * * * * * //

dimensions      [1 -3 0 0 0 0 0];

internalField   nonuniform List<scalar> 
132739
(
1.0023169
1.002318
1.0023266
1.0023367
1.0023494
1.0023657
1.0023853
1.0024077
1.0024331
1.0024614
1.0024925
1.0025263
1.0025628
1.0026021
1.0026439
1.0026883
1.0027353
1.0027849
1.0028369
1.0028914
1.0029484
1.0030078
1.0030696
1.0031338
1.0032004
1.0032692
1.0033404
1.0034137
1.0034893
1.003567
1.0036468
1.0037286
1.0038124
1.0038982
1.0039858
1.0040751
1.0041662
1.0042589
1.0043531
1.0044488
1.0045458
1.004644
1.0047434
1.0048437
1.004945
1.005047
1.0051497
1.0052529
1.0053564
1.0054602
1.0055641
1.005668
1.0057717
1.0058753
1.0059785
1.0060812
1.0061832
1.0062842
1.0063845
1.0064837
1.0065818
1.0066789
1.0067742
1.0068675
1.0069593
1.0070494
1.0071371
1.0072217
1.0073048
1.0073864
1.0074654
1.0075417
1.0076156
1.0076866
1.0077549
1.0078202
1.0078822
1.0079406
1.0079953
1.0080459
1.0080924
1.0081344
1.0081715
1.0082035
1.0082299
1.0082498
1.0082625
1.0082677
1.0082648
1.0082534
1.0082323
1.0082028
1.008163
1.0081123
1.0080502
1.0079767
1.0078915
1.0077944
1.0076855
1.0075639
1.007431
1.0072844
1.0071308
1.0069654
1.0023174
1.0023188
1.0023274
1.0023375
1.0023502
1.0023665
1.002386
1.0024084
1.0024338
1.002462
1.0024931
1.0025269
1.0025634
1.0026025
1.0026443
1.0026887
1.0027356
1.0027851
1.0028371
1.0028916
1.0029485
1.0030078
1.0030696
1.0031337
1.0032001
1.0032689
1.0033399
1.0034131
1.0034885
1.0035661
1.0036457
1.0037274
1.0038111
1.0038967
1.0039841
1.0040733
1.0041642
1.0042567
1.0043508
1.0044462
1.004543
1.004641
1.0047402
1.0048403
1.0049413
1.005043
1.0051454
1.0052482
1.0053514
1.0054548
1.0055585
1.0056621
1.0057654
1.0058685
1.005971
1.006073
1.0061742
1.0062743
1.0063733
1.0064712
1.0065678
1.0066631
1.0067568
1.0068485
1.0069389
1.0070279
1.0071146
1.0071986
1.0072806
1.0073606
1.0074377
1.0075118
1.0075832
1.0076519
1.0077176
1.00778
1.007839
1.0078945
1.0079461
1.0079937
1.0080371
1.008076
1.0081101
1.0081391
1.0081627
1.0081802
1.0081912
1.0081954
1.0081922
1.008182
1.0081627
1.0081371
1.0081018
1.008057
1.0080021
1.0079368
1.0078611
1.0077745
1.0076771
1.0075682
1.0074479
1.0073152
1.0071691
1.0070118
1.0023179
1.0023195
1.0023282
1.0023382
1.0023509
1.0023673
1.0023868
1.0024093
1.0024347
1.002463
1.0024941
1.0025279
1.0025645
1.0026038
1.0026456
1.0026901
1.0027372
1.0027867
1.0028389
1.0028934
1.0029505
1.00301
1.0030719
1.0031361
1.0032027
1.0032716
1.0033427
1.0034161
1.0034917
1.0035694
1.0036493
1.0037311
1.003815
1.0039008
1.0039884
1.0040778
1.0041689
1.0042617
1.0043559
1.0044516
1.0045486
1.0046468
1.0047461
1.0048464
1.0049476
1.0050495
1.0051521
1.005255
1.0053584
1.0054619
1.0055654
1.0056689
1.0057721
1.0058749
1.0059771
1.0060786
1.0061794
1.0062794
1.0063781
1.0064756
1.0065717
1.0066664
1.0067594
1.0068505
1.0069397
1.007027
1.0071121
1.0071944
1.0072744
1.0073522
1.0074273
1.0074994
1.0075685
1.0076346
1.0076975
1.007757
1.007813
1.0078652
1.0079135
1.0079577
1.0079975
1.0080327
1.0080629
1.0080881
1.0081076
1.0081209
1.0081275
1.0081269
1.0081188
1.0081033
1.0080791
1.0080486
1.0080086
1.0079597
1.0079012
1.0078325
1.0077536
1.0076645
1.007565
1.007455
1.0073342
1.0072032
1.0070588
1.0069112
1.0023183
1.0023202
1.0023289
1.0023389
1.0023516
1.002368
1.0023875
1.00241
1.0024354
1.0024637
1.0024948
1.0025287
1.0025652
1.0026045
1.0026464
1.0026908
1.0027379
1.0027875
1.0028396
1.0028942
1.0029512
1.0030106
1.0030725
1.0031367
1.0032032
1.0032721
1.0033432
1.0034166
1.0034921
1.0035698
1.0036496
1.0037314
1.0038153
1.003901
1.0039886
1.004078
1.0041691
1.0042617
1.004356
1.0044516
1.0045485
1.0046467
1.004746
1.0048462
1.0049473
1.0050491
1.0051515
1.0052543
1.0053575
1.0054608
1.0055641
1.0056673
1.0057703
1.0058727
1.0059746
1.0060758
1.0061762
1.0062755
1.0063735
1.0064701
1.0065653
1.0066588
1.0067506
1.0068404
1.0069283
1.0070144
1.0070982
1.0071794
1.007258
1.0073341
1.0074074
1.0074775
1.0075445
1.0076084
1.0076689
1.0077259
1.0077793
1.0078288
1.0078743
1.0079156
1.0079524
1.0079845
1.0080118
1.0080339
1.0080504
1.008061
1.008065
1.0080622
1.0080521
1.0080344
1.0080092
1.0079767
1.0079349
1.0078841
1.0078241
1.0077543
1.0076747
1.0075851
1.0074853
1.0073755
1.007255
1.0071246
1.0069827
1.0068314
1.0023186
1.0023208
1.0023296
1.0023395
1.0023523
1.0023687
1.0023882
1.0024107
1.0024361
1.0024645
1.0024956
1.0025295
1.0025661
1.0026054
1.0026473
1.0026919
1.0027389
1.0027886
1.0028407
1.0028953
1.0029524
1.0030118
1.0030737
1.003138
1.0032046
1.0032735
1.0033447
1.0034181
1.0034937
1.0035715
1.0036513
1.0037332
1.0038171
1.0039029
1.0039906
1.00408
1.0041712
1.0042639
1.0043582
1.0044539
1.0045509
1.0046491
1.0047484
1.0048487
1.0049498
1.0050517
1.0051541
1.0052569
1.00536
1.0054633
1.0055665
1.0056696
1.0057723
1.0058746
1.0059762
1.0060771
1.0061771
1.006276
1.0063736
1.0064698
1.0065645
1.0066575
1.0067486
1.0068377
1.0069247
1.0070095
1.007092
1.0071717
1.0072487
1.0073231
1.0073946
1.0074629
1.0075279
1.0075897
1.007648
1.0077028
1.0077537
1.0078007
1.0078436
1.0078822
1.0079162
1.0079456
1.00797
1.0079892
1.0080028
1.0080104
1.0080113
1.0080053
1.0079924
1.0079718
1.0079447
1.0079097
1.0078659
1.0078134
1.0077521
1.0076817
1.007602
1.0075129
1.007414
1.0073053
1.0071866
1.0070579
1.0069191
1.0067691
1.0023188
1.0023214
1.0023302
1.0023401
1.0023529
1.0023694
1.0023889
1.0024114
1.0024369
1.0024652
1.0024963
1.0025302
1.0025669
1.0026062
1.0026481
1.0026926
1.0027397
1.0027893
1.0028414
1.002896
1.002953
1.0030125
1.0030744
1.0031386
1.0032052
1.0032741
1.0033453
1.0034187
1.0034943
1.003572
1.0036519
1.0037338
1.0038177
1.0039035
1.0039911
1.0040806
1.0041717
1.0042645
1.0043587
1.0044544
1.0045514
1.0046496
1.0047489
1.0048491
1.0049502
1.0050519
1.0051543
1.005257
1.00536
1.0054631
1.0055662
1.0056691
1.0057717
1.0058737
1.0059751
1.0060756
1.0061751
1.0062735
1.0063705
1.0064661
1.0065599
1.0066521
1.0067423
1.0068304
1.0069164
1.0070002
1.0070815
1.0071601
1.007236
1.007309
1.0073789
1.0074456
1.0075089
1.0075688
1.0076252
1.0076778
1.0077265
1.0077713
1.0078118
1.0078479
1.0078795
1.0079063
1.0079281
1.0079447
1.0079558
1.0079608
1.0079594
1.0079511
1.0079364
1.0079136
1.0078853
1.0078484
1.007803
1.0077492
1.0076868
1.0076156
1.0075354
1.0074462
1.0073477
1.0072398
1.0071223
1.0069952
1.0068586
1.0067116
1.002319
1.002322
1.0023308
1.0023407
1.0023536
1.00237
1.0023896
1.0024121
1.0024375
1.0024659
1.002497
1.002531
1.0025676
1.0026069
1.0026488
1.0026933
1.0027404
1.00279
1.0028421
1.0028967
1.0029538
1.0030132
1.0030751
1.0031394
1.003206
1.0032749
1.0033461
1.0034195
1.0034951
1.0035729
1.0036528
1.0037347
1.0038186
1.0039044
1.0039921
1.0040815
1.0041727
1.0042655
1.0043597
1.0044554
1.0045524
1.0046506
1.0047499
1.0048501
1.0049512
1.0050529
1.0051552
1.0052579
1.0053608
1.0054639
1.0055668
1.0056696
1.0057719
1.0058738
1.0059748
1.006075
1.0061742
1.0062723
1.0063689
1.006464
1.0065574
1.0066491
1.0067387
1.0068262
1.0069113
1.0069941
1.0070743
1.0071517
1.0072262
1.0072978
1.0073662
1.0074314
1.0074931
1.0075513
1.0076058
1.0076566
1.0077033
1.007746
1.0077844
1.0078184
1.0078478
1.0078723
1.0078919
1.0079062
1.007915
1.0079178
1.0079141
1.0079037
1.0078865
1.007862
1.0078319
1.0077936
1.0077471
1.0076925
1.0076292
1.0075573
1.0074768
1.0073874
1.0072892
1.0071821
1.0070659
1.0069405
1.006806
1.0066618
1.0023192
1.0023227
1.0023315
1.0023413
1.0023542
1.0023707
1.0023902
1.0024127
1.0024382
1.0024665
1.0024977
1.0025316
1.0025682
1.0026075
1.0026494
1.0026939
1.0027409
1.0027905
1.0028426
1.0028972
1.0029543
1.0030137
1.0030756
1.0031398
1.0032064
1.0032753
1.0033465
1.0034199
1.0034955
1.0035733
1.0036531
1.0037351
1.003819
1.0039048
1.0039925
1.0040819
1.0041731
1.0042658
1.0043601
1.0044558
1.0045527
1.0046509
1.0047502
1.0048503
1.0049513
1.005053
1.0051552
1.0052579
1.0053607
1.0054636
1.0055664
1.005669
1.0057711
1.0058727
1.0059735
1.0060735
1.0061723
1.0062699
1.0063661
1.0064606
1.0065534
1.0066443
1.0067332
1.0068199
1.0069042
1.0069861
1.0070654
1.0071419
1.0072153
1.0072858
1.007353
1.0074168
1.0074771
1.0075338
1.0075867
1.0076357
1.0076807
1.0077215
1.007758
1.00779
1.0078173
1.0078398
1.0078573
1.0078695
1.0078762
1.0078769
1.0078712
1.0078591
1.0078401
1.0078144
1.0077828
1.0077429
1.0076953
1.0076397
1.0075759
1.0075038
1.0074233
1.0073342
1.0072365
1.0071302
1.0070152
1.0068915
1.0067589
1.0066176
1.0023193
1.0023233
1.0023322
1.0023419
1.0023548
1.0023713
1.0023908
1.0024133
1.0024387
1.0024671
1.0024982
1.0025321
1.0025687
1.002608
1.0026499
1.0026944
1.0027414
1.002791
1.0028431
1.0028977
1.0029547
1.0030142
1.003076
1.0031402
1.0032068
1.0032757
1.0033469
1.0034203
1.0034959
1.0035737
1.0036535
1.0037354
1.0038193
1.0039052
1.0039928
1.0040823
1.0041734
1.0042662
1.0043604
1.0044561
1.0045531
1.0046512
1.0047504
1.0048506
1.0049515
1.0050532
1.0051553
1.0052578
1.0053606
1.0054634
1.0055661
1.0056685
1.0057704
1.0058718
1.0059724
1.006072
1.0061706
1.0062679
1.0063637
1.0064579
1.0065503
1.0066407
1.0067291
1.0068152
1.0068988
1.0069799
1.0070583
1.0071337
1.0072061
1.0072754
1.0073414
1.0074039
1.0074629
1.0075182
1.0075696
1.0076171
1.0076605
1.0076996
1.0077344
1.0077646
1.0077902
1.0078108
1.0078265
1.0078369
1.0078417
1.0078407
1.0078333
1.0078196
1.0077988
1.007772
1.0077389
1.0076978
1.0076492
1.0075927
1.0075283
1.0074559
1.0073754
1.0072866
1.0071895
1.007084
1.0069701
1.0068479
1.0067171
1.0065786
1.0023193
1.002324
1.0023328
1.0023424
1.0023553
1.0023718
1.0023913
1.0024138
1.0024392
1.0024676
1.0024987
1.0025326
1.0025691
1.0026084
1.0026503
1.0026948
1.0027418
1.0027914
1.0028434
1.002898
1.002955
1.0030144
1.0030763
1.0031405
1.003207
1.0032759
1.0033471
1.0034205
1.0034961
1.0035738
1.0036537
1.0037356
1.0038194
1.0039052
1.0039929
1.0040823
1.0041735
1.0042662
1.0043604
1.0044561
1.004553
1.0046511
1.0047503
1.0048504
1.0049513
1.0050529
1.005155
1.0052574
1.00536
1.0054627
1.0055652
1.0056675
1.0057693
1.0058704
1.0059708
1.0060702
1.0061684
1.0062653
1.0063608
1.0064545
1.0065464
1.0066362
1.006724
1.0068094
1.0068924
1.0069727
1.0070503
1.007125
1.0071966
1.0072649
1.0073299
1.0073913
1.0074492
1.0075032
1.0075533
1.0075994
1.0076414
1.007679
1.0077122
1.0077409
1.0077648
1.0077838
1.0077977
1.0078065
1.0078097
1.0078071
1.007798
1.0077829
1.0077608
1.0077331
1.0076987
1.0076566
1.0076071
1.0075499
1.007485
1.0074124
1.007332
1.0072436
1.0071472
1.0070427
1.00693
1.0068094
1.0066802
1.0065441
1.0023193
1.0023245
1.0023334
1.0023429
1.0023558
1.0023723
1.0023918
1.0024143
1.0024397
1.002468
1.0024991
1.0025329
1.0025695
1.0026087
1.0026506
1.0026951
1.0027421
1.0027916
1.0028437
1.0028982
1.0029552
1.0030146
1.0030765
1.0031407
1.0032072
1.0032761
1.0033472
1.0034206
1.0034961
1.0035739
1.0036537
1.0037356
1.0038195
1.0039052
1.0039929
1.0040823
1.0041734
1.0042661
1.0043603
1.0044559
1.0045528
1.0046509
1.0047501
1.0048501
1.004951
1.0050525
1.0051545
1.0052568
1.0053593
1.0054619
1.0055643
1.0056663
1.005768
1.005869
1.0059691
1.0060683
1.0061662
1.0062629
1.006358
1.0064514
1.0065429
1.0066324
1.0067197
1.0068047
1.0068871
1.0069668
1.0070437
1.0071175
1.0071882
1.0072556
1.0073196
1.00738
1.0074367
1.0074895
1.0075385
1.0075833
1.007624
1.0076603
1.0076921
1.0077193
1.0077418
1.0077594
1.0077719
1.0077792
1.007781
1.007777
1.0077664
1.0077501
1.0077266
1.0076982
1.0076628
1.0076195
1.007569
1.0075112
1.0074459
1.0073731
1.0072927
1.0072047
1.007109
1.0070055
1.0068941
1.0067752
1.0066476
1.0065138
1.0023193
1.0023251
1.0023338
1.0023433
1.0023563
1.0023727
1.0023922
1.0024146
1.00244
1.0024683
1.0024994
1.0025332
1.0025698
1.002609
1.0026508
1.0026953
1.0027423
1.0027918
1.0028439
1.0028984
1.0029553
1.0030147
1.0030765
1.0031407
1.0032072
1.0032761
1.0033472
1.0034205
1.0034961
1.0035738
1.0036536
1.0037355
1.0038193
1.0039051
1.0039927
1.0040821
1.0041731
1.0042658
1.00436
1.0044556
1.0045524
1.0046505
1.0047496
1.0048496
1.0049504
1.0050518
1.0051537
1.0052559
1.0053583
1.0054607
1.005563
1.005665
1.0057665
1.0058673
1.0059672
1.0060661
1.0061639
1.0062602
1.006355
1.006448
1.0065391
1.0066281
1.0067149
1.0067993
1.0068811
1.0069602
1.0070365
1.0071096
1.0071796
1.0072463
1.0073094
1.007369
1.0074247
1.0074766
1.0075245
1.0075683
1.0076078
1.0076429
1.0076735
1.0076995
1.0077206
1.0077369
1.007748
1.007754
1.0077546
1.0077493
1.0077378
1.0077202
1.0076958
1.0076667
1.0076299
1.0075861
1.0075353
1.007477
1.0074114
1.0073384
1.007258
1.0071702
1.007075
1.0069723
1.006862
1.0067446
1.0066188
1.0064872
1.0023192
1.0023255
1.0023343
1.0023436
1.0023566
1.0023731
1.0023925
1.0024149
1.0024403
1.0024686
1.0024996
1.0025335
1.00257
1.0026092
1.002651
1.0026955
1.0027424
1.0027919
1.002844
1.0028985
1.0029554
1.0030148
1.0030766
1.0031407
1.0032072
1.003276
1.0033471
1.0034204
1.003496
1.0035736
1.0036534
1.0037352
1.0038191
1.0039048
1.0039924
1.0040817
1.0041728
1.0042654
1.0043596
1.0044551
1.0045519
1.0046499
1.0047489
1.0048489
1.0049496
1.0050509
1.0051528
1.0052549
1.0053572
1.0054595
1.0055617
1.0056635
1.0057648
1.0058655
1.0059652
1.0060639
1.0061614
1.0062575
1.0063521
1.0064448
1.0065356
1.0066243
1.0067107
1.0067947
1.006876
1.0069546
1.0070303
1.0071028
1.0071721
1.007238
1.0073003
1.007359
1.0074138
1.0074648
1.0075117
1.0075545
1.0075929
1.007627
1.0076565
1.0076814
1.0077014
1.0077165
1.0077265
1.0077314
1.0077308
1.0077243
1.0077118
1.0076931
1.0076682
1.0076383
1.0076013
1.0075568
1.0075053
1.0074467
1.0073808
1.0073079
1.0072276
1.0071401
1.0070454
1.0069434
1.0068341
1.0067179
1.0065936
1.0064641
1.0023191
1.0023259
1.0023347
1.0023439
1.0023569
1.0023734
1.0023928
1.0024152
1.0024406
1.0024688
1.0024999
1.0025337
1.0025702
1.0026094
1.0026512
1.0026956
1.0027425
1.002792
1.002844
1.0028985
1.0029554
1.0030148
1.0030765
1.0031406
1.0032071
1.0032759
1.0033469
1.0034202
1.0034957
1.0035734
1.0036531
1.0037349
1.0038187
1.0039044
1.0039919
1.0040813
1.0041723
1.0042649
1.004359
1.0044545
1.0045512
1.0046492
1.0047481
1.004848
1.0049487
1.0050499
1.0051517
1.0052537
1.0053559
1.0054582
1.0055602
1.0056619
1.0057631
1.0058635
1.0059631
1.0060616
1.0061589
1.0062548
1.006349
1.0064414
1.0065319
1.0066202
1.0067062
1.0067897
1.0068706
1.0069486
1.0070237
1.0070957
1.0071644
1.0072296
1.0072913
1.0073493
1.0074034
1.0074536
1.0074997
1.0075416
1.0075792
1.0076123
1.0076409
1.0076648
1.0076838
1.0076979
1.0077069
1.0077108
1.0077092
1.0077017
1.0076884
1.0076687
1.0076431
1.0076126
1.0075746
1.00753
1.0074781
1.0074193
1.0073535
1.0072807
1.0072007
1.0071137
1.0070195
1.0069183
1.0068099
1.0066949
1.006572
1.0064442
1.002319
1.0023263
1.002335
1.0023442
1.0023572
1.0023737
1.0023931
1.0024154
1.0024408
1.002469
1.0025
1.0025338
1.0025703
1.0026095
1.0026512
1.0026956
1.0027426
1.002792
1.002844
1.0028984
1.0029553
1.0030147
1.0030764
1.0031405
1.0032069
1.0032757
1.0033467
1.00342
1.0034954
1.003573
1.0036527
1.0037345
1.0038182
1.0039039
1.0039914
1.0040807
1.0041716
1.0042642
1.0043583
1.0044537
1.0045504
1.0046483
1.0047472
1.004847
1.0049476
1.0050488
1.0051505
1.0052524
1.0053546
1.0054567
1.0055586
1.0056601
1.0057612
1.0058615
1.0059609
1.0060592
1.0061563
1.0062519
1.0063459
1.0064381
1.0065283
1.0066163
1.006702
1.0067852
1.0068657
1.0069433
1.007018
1.0070895
1.0071576
1.0072223
1.0072833
1.0073406
1.007394
1.0074434
1.0074888
1.0075299
1.0075666
1.0075989
1.0076266
1.0076496
1.0076678
1.007681
1.0076891
1.0076921
1.0076897
1.0076815
1.0076674
1.0076471
1.0076213
1.0075899
1.0075511
1.0075057
1.0074536
1.0073947
1.007329
1.0072564
1.0071769
1.0070904
1.0069969
1.0068965
1.006789
1.0066752
1.0065535
1.0064274
1.0023189
1.0023266
1.0023353
1.0023445
1.0023575
1.0023739
1.0023933
1.0024156
1.0024409
1.0024691
1.0025002
1.0025339
1.0025704
1.0026095
1.0026513
1.0026956
1.0027425
1.002792
1.0028439
1.0028983
1.0029552
1.0030145
1.0030762
1.0031403
1.0032067
1.0032754
1.0033464
1.0034196
1.003495
1.0035726
1.0036523
1.003734
1.0038177
1.0039033
1.0039908
1.00408
1.0041709
1.0042634
1.0043574
1.0044528
1.0045495
1.0046473
1.0047462
1.0048459
1.0049464
1.0050476
1.0051491
1.005251
1.005353
1.005455
1.0055569
1.0056583
1.0057592
1.0058594
1.0059586
1.0060568
1.0061537
1.0062491
1.0063429
1.0064348
1.0065247
1.0066124
1.0066977
1.0067805
1.0068606
1.0069378
1.007012
1.007083
1.0071506
1.0072147
1.0072753
1.007332
1.0073849
1.0074337
1.0074784
1.0075189
1.007555
1.0075866
1.0076136
1.0076358
1.0076532
1.0076657
1.0076731
1.0076753
1.0076721
1.0076632
1.0076484
1.0076276
1.0076013
1.0075691
1.0075298
1.0074841
1.0074317
1.0073728
1.0073071
1.0072348
1.0071557
1.0070698
1.006977
1.0068776
1.0067711
1.0066584
1.006538
1.0064134
1.0023187
1.002327
1.0023356
1.0023447
1.0023577
1.0023741
1.0023934
1.0024158
1.0024411
1.0024693
1.0025002
1.002534
1.0025704
1.0026095
1.0026513
1.0026956
1.0027425
1.0027919
1.0028438
1.0028982
1.002955
1.0030143
1.003076
1.00314
1.0032064
1.0032751
1.003346
1.0034192
1.0034946
1.0035721
1.0036517
1.0037334
1.0038171
1.0039026
1.00399
1.0040792
1.0041701
1.0042625
1.0043565
1.0044518
1.0045484
1.0046462
1.004745
1.0048447
1.0049451
1.0050462
1.0051477
1.0052495
1.0053514
1.0054533
1.005555
1.0056563
1.0057571
1.0058571
1.0059562
1.0060542
1.0061509
1.0062462
1.0063397
1.0064315
1.0065211
1.0066086
1.0066937
1.0067762
1.006856
1.0069329
1.0070067
1.0070773
1.0071445
1.0072082
1.0072682
1.0073245
1.0073768
1.007425
1.0074692
1.007509
1.0075445
1.0075754
1.0076018
1.0076234
1.0076401
1.0076519
1.0076586
1.0076602
1.0076564
1.0076469
1.0076317
1.0076103
1.0075837
1.007551
1.0075115
1.0074654
1.0074129
1.0073538
1.0072882
1.0072161
1.0071373
1.0070519
1.0069599
1.0068613
1.0067558
1.0066444
1.0065253
1.006402
1.0023185
1.0023273
1.0023359
1.0023449
1.0023579
1.0023743
1.0023936
1.0024159
1.0024412
1.0024693
1.0025003
1.002534
1.0025704
1.0026095
1.0026512
1.0026955
1.0027424
1.0027918
1.0028437
1.002898
1.0029548
1.0030141
1.0030757
1.0031397
1.003206
1.0032747
1.0033456
1.0034187
1.0034941
1.0035716
1.0036511
1.0037328
1.0038164
1.0039019
1.0039892
1.0040784
1.0041692
1.0042616
1.0043555
1.0044507
1.0045473
1.004645
1.0047437
1.0048433
1.0049437
1.0050447
1.0051461
1.0052478
1.0053497
1.0054515
1.0055531
1.0056544
1.005755
1.0058549
1.0059539
1.0060518
1.0061483
1.0062434
1.0063367
1.0064282
1.0065177
1.0066049
1.0066897
1.0067719
1.0068513
1.0069278
1.0070012
1.0070714
1.0071383
1.0072015
1.0072612
1.007317
1.0073689
1.0074167
1.0074604
1.0074998
1.0075348
1.0075652
1.007591
1.0076121
1.0076283
1.0076396
1.0076458
1.0076469
1.0076425
1.0076326
1.0076169
1.007595
1.0075684
1.0075352
1.0074953
1.007449
1.0073964
1.0073374
1.0072719
1.0072
1.0071216
1.0070368
1.0069454
1.0068476
1.0067432
1.0066328
1.0065151
1.0063931
1.0023183
1.0023276
1.0023361
1.002345
1.0023581
1.0023744
1.0023937
1.002416
1.0024413
1.0024694
1.0025003
1.002534
1.0025704
1.0026095
1.0026512
1.0026954
1.0027422
1.0027916
1.0028435
1.0028978
1.0029546
1.0030138
1.0030754
1.0031393
1.0032056
1.0032742
1.0033451
1.0034182
1.0034935
1.0035709
1.0036505
1.003732
1.0038156
1.0039011
1.0039884
1.0040774
1.0041682
1.0042605
1.0043543
1.0044495
1.004546
1.0046437
1.0047423
1.0048419
1.0049422
1.0050431
1.0051444
1.005246
1.0053478
1.0054496
1.0055511
1.0056522
1.0057528
1.0058526
1.0059514
1.0060491
1.0061455
1.0062404
1.0063336
1.0064249
1.0065142
1.0066012
1.0066857
1.0067677
1.0068469
1.0069232
1.0069964
1.0070663
1.0071329
1.0071958
1.0072551
1.0073105
1.007362
1.0074094
1.0074526
1.0074915
1.0075261
1.0075561
1.0075814
1.007602
1.0076178
1.0076286
1.0076344
1.007635
1.0076303
1.0076199
1.0076037
1.0075817
1.0075547
1.0075213
1.0074815
1.0074352
1.0073826
1.0073236
1.0072582
1.0071865
1.0071085
1.0070241
1.0069334
1.0068364
1.0067329
1.0066237
1.0065072
1.0063865
1.0023181
1.0023279
1.0023364
1.0023452
1.0023582
1.0023745
1.0023938
1.0024161
1.0024413
1.0024694
1.0025003
1.002534
1.0025703
1.0026094
1.002651
1.0026953
1.0027421
1.0027914
1.0028432
1.0028975
1.0029543
1.0030134
1.003075
1.0031389
1.0032051
1.0032737
1.0033445
1.0034176
1.0034929
1.0035702
1.0036497
1.0037313
1.0038148
1.0039002
1.0039874
1.0040764
1.0041671
1.0042594
1.0043531
1.0044483
1.0045447
1.0046422
1.0047408
1.0048403
1.0049405
1.0050413
1.0051426
1.0052442
1.0053459
1.0054475
1.0055489
1.00565
1.0057504
1.0058501
1.0059488
1.0060464
1.0061427
1.0062375
1.0063305
1.0064217
1.0065108
1.0065976
1.006682
1.0067638
1.0068427
1.0069188
1.0069917
1.0070613
1.0071275
1.0071902
1.0072491
1.0073043
1.0073554
1.0074025
1.0074454
1.007484
1.0075182
1.0075478
1.0075729
1.0075932
1.0076086
1.007619
1.0076244
1.0076247
1.0076197
1.0076091
1.0075928
1.0075703
1.0075433
1.00751
1.00747
1.0074236
1.007371
1.0073122
1.007247
1.0071756
1.0070979
1.007014
1.0069239
1.0068276
1.006725
1.0066167
1.0065014
1.0063819
1.0023179
1.0023281
1.0023365
1.0023453
1.0023583
1.0023746
1.0023939
1.0024161
1.0024413
1.0024694
1.0025003
1.0025339
1.0025702
1.0026092
1.0026509
1.0026951
1.0027418
1.0027911
1.0028429
1.0028972
1.0029539
1.003013
1.0030745
1.0031384
1.0032046
1.0032732
1.0033439
1.003417
1.0034922
1.0035695
1.0036489
1.0037304
1.0038139
1.0038992
1.0039864
1.0040754
1.004166
1.0042582
1.0043519
1.0044469
1.0045433
1.0046408
1.0047393
1.0048387
1.0049388
1.0050395
1.0051407
1.0052422
1.0053438
1.0054454
1.0055467
1.0056476
1.005748
1.0058476
1.0059462
1.0060437
1.0061398
1.0062344
1.0063273
1.0064183
1.0065073
1.0065939
1.0066781
1.0067597
1.0068384
1.0069143
1.006987
1.0070564
1.0071224
1.0071848
1.0072435
1.0072984
1.0073493
1.0073962
1.0074389
1.0074773
1.0075112
1.0075407
1.0075655
1.0075855
1.0076007
1.0076109
1.0076161
1.0076161
1.0076109
1.0076
1.0075836
1.007561
1.0075339
1.0075003
1.0074604
1.0074142
1.0073617
1.0073031
1.0072382
1.0071672
1.0070899
1.0070065
1.0069169
1.0068214
1.0067195
1.0066122
1.006498
1.0063795
1.0023176
1.0023284
1.0023367
1.0023454
1.0023584
1.0023747
1.0023939
1.0024161
1.0024413
1.0024693
1.0025002
1.0025338
1.0025701
1.0026091
1.0026507
1.0026948
1.0027416
1.0027908
1.0028426
1.0028968
1.0029535
1.0030126
1.0030741
1.0031379
1.0032041
1.0032726
1.0033433
1.0034163
1.0034914
1.0035687
1.0036481
1.0037295
1.0038129
1.0038982
1.0039853
1.0040742
1.0041648
1.0042569
1.0043505
1.0044455
1.0045418
1.0046392
1.0047376
1.0048369
1.004937
1.0050377
1.0051388
1.0052402
1.0053417
1.0054432
1.0055444
1.0056453
1.0057455
1.005845
1.0059435
1.0060409
1.0061369
1.0062314
1.0063242
1.006415
1.0065038
1.0065903
1.0066744
1.0067558
1.0068344
1.0069101
1.0069826
1.0070519
1.0071178
1.00718
1.0072386
1.0072933
1.0073441
1.0073909
1.0074334
1.0074716
1.0075054
1.0075347
1.0075593
1.0075792
1.0075941
1.0076042
1.0076092
1.0076092
1.0076039
1.0075928
1.0075761
1.0075539
1.0075264
1.007493
1.007453
1.0074069
1.0073547
1.0072962
1.0072317
1.007161
1.0070843
1.0070014
1.0069125
1.0068177
1.0067167
1.0066102
1.0064971
1.0063794
1.0023174
1.0023286
1.0023369
1.0023455
1.0023585
1.0023748
1.0023939
1.0024161
1.0024412
1.0024693
1.0025001
1.0025336
1.0025699
1.0026089
1.0026504
1.0026946
1.0027413
1.0027905
1.0028422
1.0028964
1.002953
1.0030121
1.0030735
1.0031373
1.0032035
1.0032719
1.0033426
1.0034155
1.0034906
1.0035679
1.0036472
1.0037286
1.0038119
1.0038971
1.0039842
1.004073
1.0041635
1.0042556
1.0043491
1.0044441
1.0045403
1.0046376
1.0047359
1.0048352
1.0049352
1.0050357
1.0051368
1.0052381
1.0053395
1.0054409
1.005542
1.0056428
1.005743
1.0058424
1.0059408
1.006038
1.006134
1.0062284
1.006321
1.0064118
1.0065005
1.0065868
1.0066708
1.0067521
1.0068306
1.0069061
1.0069786
1.0070477
1.0071135
1.0071757
1.0072342
1.0072889
1.0073397
1.0073863
1.0074288
1.007467
1.0075007
1.0075299
1.0075544
1.0075742
1.0075891
1.0075991
1.0076041
1.0076038
1.0075985
1.0075875
1.0075708
1.0075484
1.007521
1.0074875
1.0074477
1.0074018
1.0073499
1.0072917
1.0072276
1.0071573
1.007081
1.0069988
1.0069105
1.0068163
1.0067161
1.0066105
1.0064985
1.0063816
1.0023171
1.0023288
1.002337
1.0023456
1.0023586
1.0023748
1.0023939
1.002416
1.0024412
1.0024691
1.0024999
1.0025335
1.0025697
1.0026086
1.0026502
1.0026943
1.0027409
1.0027901
1.0028418
1.002896
1.0029526
1.0030116
1.003073
1.0031367
1.0032028
1.0032712
1.0033419
1.0034147
1.0034898
1.003567
1.0036462
1.0037275
1.0038108
1.003896
1.003983
1.0040718
1.0041622
1.0042542
1.0043477
1.0044425
1.0045387
1.0046359
1.0047342
1.0048334
1.0049333
1.0050338
1.0051347
1.0052359
1.0053373
1.0054386
1.0055396
1.0056403
1.0057404
1.0058397
1.005938
1.0060352
1.006131
1.0062254
1.0063179
1.0064086
1.0064972
1.0065835
1.0066674
1.0067486
1.006827
1.0069025
1.0069749
1.0070441
1.0071098
1.0071721
1.0072306
1.0072854
1.0073362
1.0073828
1.0074253
1.0074634
1.0074971
1.0075263
1.0075508
1.0075706
1.0075856
1.0075956
1.0076006
1.0076005
1.0075951
1.0075843
1.0075674
1.0075454
1.0075178
1.0074843
1.0074447
1.0073991
1.0073474
1.0072897
1.0072259
1.007156
1.0070802
1.0069984
1.0069108
1.0068173
1.0067179
1.0066132
1.0065022
1.006386
1.0023168
1.002329
1.0023371
1.0023456
1.0023586
1.0023747
1.0023938
1.002416
1.002441
1.002469
1.0024997
1.0025332
1.0025695
1.0026083
1.0026498
1.0026939
1.0027406
1.0027897
1.0028414
1.0028955
1.002952
1.003011
1.0030724
1.0031361
1.0032021
1.0032705
1.0033411
1.0034139
1.0034889
1.003566
1.0036452
1.0037265
1.0038097
1.0038948
1.0039818
1.0040705
1.0041608
1.0042528
1.0043462
1.004441
1.004537
1.0046342
1.0047324
1.0048315
1.0049313
1.0050317
1.0051326
1.0052337
1.005335
1.0054362
1.0055372
1.0056378
1.0057378
1.005837
1.0059353
1.0060324
1.0061281
1.0062224
1.0063149
1.0064055
1.0064941
1.0065803
1.0066642
1.0067454
1.0068239
1.0068994
1.0069719
1.0070411
1.007107
1.0071693
1.007228
1.0072828
1.0073336
1.0073804
1.0074229
1.0074611
1.0074949
1.0075242
1.0075488
1.0075687
1.0075838
1.0075939
1.007599
1.007599
1.0075937
1.0075829
1.0075663
1.0075443
1.0075169
1.0074832
1.0074438
1.0073985
1.0073472
1.0072899
1.0072265
1.0071572
1.0070819
1.0070007
1.0069136
1.0068209
1.0067222
1.0066183
1.0065083
1.0063927
1.0023166
1.0023292
1.0023371
1.0023456
1.0023586
1.0023747
1.0023938
1.0024158
1.0024409
1.0024688
1.0024995
1.002533
1.0025692
1.002608
1.0026495
1.0026935
1.0027401
1.0027893
1.0028409
1.0028949
1.0029515
1.0030104
1.0030717
1.0031354
1.0032014
1.0032697
1.0033402
1.003413
1.003488
1.003565
1.0036442
1.0037254
1.0038086
1.0038936
1.0039805
1.0040691
1.0041594
1.0042513
1.0043446
1.0044393
1.0045353
1.0046324
1.0047306
1.0048296
1.0049293
1.0050297
1.0051305
1.0052315
1.0053327
1.0054339
1.0055348
1.0056353
1.0057352
1.0058344
1.0059326
1.0060296
1.0061253
1.0062195
1.006312
1.0064027
1.0064912
1.0065775
1.0066614
1.0067428
1.0068214
1.0068971
1.0069697
1.0070391
1.0071052
1.0071676
1.0072264
1.0072813
1.0073323
1.0073792
1.0074219
1.0074603
1.0074942
1.0075236
1.0075484
1.0075685
1.0075838
1.0075942
1.0075995
1.0075997
1.0075944
1.0075838
1.0075676
1.0075452
1.0075184
1.007485
1.0074458
1.0074007
1.0073496
1.0072927
1.0072298
1.007161
1.0070862
1.0070056
1.0069192
1.0068271
1.0067292
1.0066259
1.006517
1.0064018
1.0023163
1.0023293
1.0023372
1.0023456
1.0023585
1.0023746
1.0023936
1.0024157
1.0024407
1.0024686
1.0024993
1.0025327
1.0025689
1.0026077
1.0026491
1.0026931
1.0027397
1.0027888
1.0028403
1.0028944
1.0029509
1.0030098
1.003071
1.0031347
1.0032006
1.0032689
1.0033394
1.0034121
1.003487
1.003564
1.0036431
1.0037243
1.0038074
1.0038923
1.0039792
1.0040677
1.004158
1.0042498
1.004343
1.0044377
1.0045336
1.0046306
1.0047287
1.0048276
1.0049273
1.0050276
1.0051283
1.0052293
1.0053305
1.0054315
1.0055324
1.0056329
1.0057328
1.0058319
1.00593
1.0060271
1.0061228
1.006217
1.0063096
1.0064003
1.006489
1.0065754
1.0066595
1.006741
1.0068198
1.0068957
1.0069686
1.0070382
1.0071044
1.007167
1.007226
1.0072811
1.0073323
1.0073795
1.0074224
1.007461
1.0074952
1.0075249
1.00755
1.0075703
1.0075859
1.0075965
1.0076022
1.0076027
1.0075975
1.0075873
1.0075712
1.0075491
1.0075224
1.0074892
1.0074502
1.0074055
1.0073548
1.0072983
1.0072358
1.0071674
1.0070932
1.0070132
1.0069273
1.0068359
1.0067387
1.0066362
1.0065282
1.0064135
1.002316
1.0023294
1.0023372
1.0023456
1.0023585
1.0023745
1.0023935
1.0024155
1.0024405
1.0024683
1.002499
1.0025324
1.0025685
1.0026073
1.0026487
1.0026926
1.0027392
1.0027882
1.0028398
1.0028938
1.0029502
1.0030091
1.0030703
1.0031339
1.0031998
1.003268
1.0033384
1.0034111
1.003486
1.0035629
1.003642
1.0037231
1.0038061
1.003891
1.0039778
1.0040663
1.0041565
1.0042482
1.0043414
1.004436
1.0045319
1.0046288
1.0047268
1.0048257
1.0049253
1.0050256
1.0051262
1.0052272
1.0053283
1.0054293
1.0055302
1.0056306
1.0057305
1.0058296
1.0059278
1.0060249
1.0061207
1.0062151
1.0063078
1.0063987
1.0064875
1.0065742
1.0066585
1.0067403
1.0068193
1.0068954
1.0069685
1.0070383
1.0071048
1.0071677
1.007227
1.0072824
1.007334
1.0073814
1.0074247
1.0074637
1.0074982
1.0075282
1.0075536
1.0075743
1.0075902
1.0076012
1.0076072
1.007608
1.0076035
1.0075928
1.0075773
1.0075554
1.0075287
1.0074957
1.0074572
1.0074128
1.0073625
1.0073064
1.0072444
1.0071765
1.0071028
1.0070233
1.0069381
1.0068472
1.0067508
1.0066489
1.006542
1.0064277
1.0023157
1.0023295
1.0023372
1.0023455
1.0023584
1.0023744
1.0023933
1.0024153
1.0024402
1.002468
1.0024986
1.002532
1.0025681
1.0026068
1.0026482
1.0026921
1.0027386
1.0027876
1.0028392
1.0028931
1.0029495
1.0030083
1.0030695
1.0031331
1.0031989
1.0032671
1.0033375
1.0034101
1.0034849
1.0035618