/*--------------------------------*- C++ -*----------------------------------*\
| =========                 |                                                 |
| \\      /  F ield         | OpenFOAM: The Open Source CFD Toolbox           |
|  \\    /   O peration     | Version:  2406                                  |
|   \\  /    A nd           | Website:  www.openfoam.com                      |
|    \\/     M anipulation  |                                                 |
\*---------------------------------------------------------------------------*/
FoamFile
{
    version     2.0;
    format      ascii;
    arch        "LSB;label=32;scalar=64";
    class       volScalarField;
    location    "1000";
    object      TMean;
}
// * * * * * * * * * * * * * * * * * * * * * * * * * * * * * * * * * * * * * //

dimensions      [0 0 0 1 0 0 0];

internalField   nonuniform List<scalar> 
132739
(
1.0007958
1.000785
1.0007846
1.0007902
1.0007955
1.0008011
1.000808
1.0008168
1.0008253
1.0008361
1.0008468
1.0008596
1.0008726
1.0008863
1.0009016
1.0009179
1.0009338
1.0009489
1.0009673
1.0009875
1.0010057
1.0010257
1.0010489
1.0010693
1.0010941
1.0011168
1.0011434
1.00117
1.0011992
1.0012315
1.0012662
1.0013021
1.0013404
1.0013799
1.0014196
1.0014615
1.0015009
1.0015469
1.0015905
1.0016297
1.0016731
1.0017188
1.0017623
1.0018072
1.0018512
1.0018978
1.0019433
1.0019891
1.0020323
1.0020782
1.0021217
1.0021676
1.002207
1.0022523
1.0022931
1.0023359
1.0023734
1.0024136
1.00245
1.0024897
1.0025284
1.0025587
1.0025954
1.0026294
1.0026599
1.0026944
1.0027242
1.0027552
1.0027887
1.0028132
1.0028439
1.0028675
1.0028917
1.0029105
1.002935
1.0029533
1.0029706
1.0029839
1.0029994
1.00301
1.0030174
1.0030227
1.0030204
1.0030131
1.0029953
1.0029694
1.0029359
1.0028946
1.002847
1.0027954
1.002738
1.0026738
1.0026015
1.0025216
1.0024343
1.0023418
1.002244
1.0021468
1.0020523
1.0019544
1.0018435
1.0017275
1.0016065
1.0014764
1.0007963
1.0007849
1.0007846
1.0007902
1.0007957
1.0008014
1.0008088
1.0008178
1.0008265
1.0008364
1.000848
1.0008607
1.0008724
1.000887
1.0009035
1.0009177
1.0009337
1.0009521
1.0009695
1.0009876
1.0010067
1.0010263
1.0010501
1.0010708
1.0010949
1.0011177
1.0011442
1.0011714
1.0012001
1.0012315
1.0012673
1.001302
1.001341
1.0013787
1.001419
1.0014617
1.0015008
1.0015442
1.001585
1.0016305
1.001671
1.0017176
1.0017616
1.0018053
1.0018505
1.0018963
1.0019397
1.0019866
1.0020288
1.0020749
1.0021165
1.0021593
1.002204
1.002246
1.0022842
1.0023265
1.0023642
1.0024018
1.0024376
1.0024791
1.0025121
1.002548
1.0025806
1.0026173
1.0026455
1.002681
1.0027106
1.0027359
1.0027734
1.002794
1.0028173
1.0028447
1.0028627
1.0028866
1.0029043
1.0029243
1.002944
1.0029573
1.0029722
1.0029826
1.0029903
1.0029956
1.0029932
1.002987
1.0029748
1.0029545
1.0029258
1.0028892
1.0028445
1.0027932
1.0027338
1.0026688
1.0025973
1.0025179
1.0024319
1.0023408
1.0022437
1.0021451
1.0020435
1.0019403
1.0018282
1.0017182
1.0015965
1.0014665
1.0007973
1.0007847
1.0007852
1.0007905
1.0007957
1.0008022
1.0008093
1.0008181
1.0008281
1.0008373
1.0008484
1.0008617
1.0008736
1.0008881
1.0009042
1.0009183
1.0009339
1.0009525
1.0009697
1.0009876
1.0010089
1.0010277
1.0010505
1.0010713
1.0010946
1.0011175
1.0011423
1.001172
1.0012004
1.0012316
1.0012643
1.0012998
1.0013384
1.0013763
1.0014173
1.0014595
1.0014982
1.0015415
1.0015811
1.0016278
1.0016679
1.0017159
1.0017596
1.0018022
1.0018496
1.0018926
1.0019372
1.0019825
1.002024
1.0020681
1.0021117
1.0021519
1.0021972
1.0022365
1.0022726
1.0023147
1.0023546
1.0023898
1.0024267
1.0024662
1.0025001
1.0025338
1.0025689
1.0026022
1.0026355
1.0026654
1.0026947
1.0027198
1.0027484
1.0027749
1.002798
1.0028303
1.0028469
1.0028689
1.0028868
1.0029041
1.0029169
1.0029286
1.0029397
1.0029501
1.0029567
1.0029604
1.0029606
1.0029519
1.0029405
1.0029209
1.0028945
1.0028601
1.0028186
1.0027696
1.0027145
1.0026511
1.0025802
1.0025037
1.0024194
1.0023302
1.0022355
1.0021382
1.0020379
1.0019354
1.0018278
1.0017122
1.0015889
1.0014528
1.0007974
1.0007848
1.0007851
1.0007907
1.0007954
1.0008026
1.0008094
1.0008178
1.0008272
1.0008372
1.0008494
1.0008611
1.0008732
1.000888
1.0009024
1.0009171
1.0009325
1.0009512
1.000968
1.0009864
1.0010061
1.0010254
1.001047
1.0010683
1.0010918
1.0011156
1.0011403
1.0011684
1.0011978
1.0012286
1.001264
1.0012982
1.0013375
1.0013751
1.001415
1.0014569
1.0014953
1.0015375
1.0015802
1.0016226
1.0016662
1.0017089
1.0017557
1.0018004
1.0018431
1.0018862
1.0019288
1.0019741
1.0020146
1.0020599
1.0020995
1.0021395
1.0021899
1.0022265
1.0022612
1.0023025
1.0023429
1.0023778
1.0024144
1.0024537
1.0024876
1.0025195
1.0025536
1.0025856
1.0026182
1.0026462
1.0026782
1.0027032
1.0027289
1.0027556
1.0027777
1.0028007
1.0028243
1.0028478
1.0028643
1.00288
1.0028949
1.002906
1.0029136
1.0029267
1.0029305
1.002934
1.0029317
1.0029239
1.002912
1.0028931
1.0028676
1.0028336
1.0027937
1.0027455
1.0026908
1.00263
1.0025631
1.0024892
1.0024083
1.0023223
1.002228
1.0021327
1.002032
1.0019316
1.0018257
1.001716
1.001601
1.0014668
1.0007976
1.0007849
1.0007855
1.0007906
1.0007954
1.000802
1.0008093
1.0008178
1.0008266
1.0008369
1.0008483
1.0008605
1.0008732
1.0008874
1.0009017
1.0009174
1.0009322
1.0009506
1.0009674
1.0009844
1.0010053
1.0010253
1.0010455
1.0010689
1.0010916
1.0011148
1.0011394
1.0011673
1.0011965
1.0012291
1.0012623
1.0012965
1.0013355
1.001373
1.001412
1.0014543
1.0014931
1.0015368
1.0015776
1.0016185
1.0016665
1.0017066
1.0017491
1.001799
1.0018401
1.0018809
1.0019233
1.0019674
1.0020071
1.0020509
1.0020903
1.0021323
1.0021704
1.0022139
1.0022515
1.002293
1.0023325
1.0023679
1.0024069
1.0024442
1.0024761
1.0025131
1.0025428
1.0025781
1.0026084
1.0026362
1.0026652
1.0026924
1.0027149
1.0027419
1.0027612
1.0027841
1.0028018
1.0028265
1.002838
1.0028537
1.0028685
1.0028762
1.0028876
1.0028947
1.0028968
1.0028983
1.0028951
1.0028908
1.0028775
1.0028609
1.0028376
1.0028057
1.0027661
1.0027182
1.0026649
1.0026036
1.0025379
1.0024686
1.0023919
1.0023104
1.0022211
1.0021269
1.0020309
1.0019305
1.001828
1.0017217
1.001607
1.0014811
1.0007976
1.0007849
1.0007855
1.0007914
1.000796
1.0008026
1.0008097
1.0008184
1.0008275
1.0008375
1.000849
1.0008601
1.0008736
1.0008865
1.0009013
1.0009176
1.0009311
1.0009485
1.0009676
1.0009842
1.0010043
1.0010246
1.001044
1.0010665
1.00109
1.0011135
1.0011372
1.0011648
1.0011955
1.0012284
1.0012608
1.0012957
1.0013326
1.0013715
1.0014086
1.0014506
1.0014907
1.0015327
1.0015731
1.0016161
1.001658
1.001701
1.0017472
1.0017873
1.0018301
1.0018746
1.0019153
1.0019571
1.0019978
1.00204
1.0020806
1.0021209
1.0021637
1.0022032
1.0022438
1.0022831
1.0023219
1.002361
1.0023964
1.0024418
1.0024717
1.0025025
1.0025382
1.0025664
1.0026017
1.0026266
1.0026562
1.0026786
1.0027111
1.002731
1.0027494
1.0027685
1.0027911
1.0028038
1.0028226
1.0028336
1.0028483
1.002854
1.002864
1.0028681
1.0028694
1.0028697
1.0028673
1.0028616
1.0028474
1.0028328
1.0028101
1.002779
1.0027419
1.0026975
1.0026436
1.0025821
1.0025142
1.0024428
1.0023684
1.0022874
1.0022038
1.0021146
1.0020229
1.0019249
1.0018257
1.0017245
1.0016137
1.0014923
1.0007973
1.0007857
1.0007856
1.0007909
1.0007962
1.0008025
1.0008097
1.0008181
1.0008274
1.0008372
1.0008485
1.0008606
1.0008727
1.0008874
1.0009007
1.000917
1.0009314
1.0009496
1.0009665
1.0009841
1.0010023
1.0010231
1.0010445
1.0010651
1.0010887
1.0011113
1.0011366
1.0011646
1.0011935
1.0012267
1.0012582
1.0012949
1.0013306
1.0013712
1.0014069
1.0014471
1.0014889
1.0015291
1.0015684
1.0016122
1.0016546
1.0016945
1.0017388
1.0017814
1.001823
1.0018669
1.0019062
1.0019497
1.00199
1.0020331
1.0020739
1.002117
1.0021556
1.0021965
1.0022383
1.0022774
1.0023177
1.0023551
1.0023891
1.0024266
1.0024617
1.0024947
1.0025263
1.0025556
1.0025877
1.0026142
1.0026433
1.0026668
1.0026913
1.0027155
1.0027345
1.0027501
1.0027722
1.0027846
1.0027981
1.0028104
1.0028189
1.002824
1.0028337
1.0028365
1.0028361
1.0028374
1.0028324
1.0028256
1.0028127
1.0027973
1.0027752
1.0027488
1.0027139
1.0026705
1.0026202
1.002562
1.0024972
1.0024263
1.0023522
1.0022732
1.0021873
1.0020981
1.0020071
1.0019138
1.001817
1.0017212
1.0016164
1.0015024
1.0007978
1.0007852
1.0007859
1.000791
1.0007961
1.0008024
1.0008092
1.0008171
1.0008266
1.0008364
1.0008486
1.0008596
1.0008733
1.0008868
1.0008996
1.0009154
1.0009301
1.0009476
1.0009646
1.0009815
1.0010018
1.0010207
1.0010426
1.0010628
1.0010863
1.0011095
1.0011343
1.0011636
1.0011919
1.0012231
1.0012555
1.0012914
1.0013262
1.0013647
1.0014013
1.001442
1.0014822
1.001522
1.0015641
1.0016062
1.0016488
1.0016894
1.0017323
1.0017746
1.0018166
1.0018584
1.0019015
1.0019417
1.0019838
1.0020263
1.0020677
1.002109
1.0021513
1.0021906
1.0022314
1.0022699
1.0023074
1.0023489
1.0023817
1.0024182
1.0024553
1.0024845
1.0025182
1.0025469
1.0025783
1.0026041
1.002631
1.0026573
1.0026786
1.0027115
1.0027279
1.002744
1.0027608
1.0027736
1.0027891
1.0027991
1.0028084
1.0028107
1.0028153
1.0028147
1.0028141
1.0028081
1.0028012
1.0027944
1.0027806
1.0027623
1.0027409
1.0027127
1.002681
1.0026424
1.002593
1.0025368
1.0024733
1.0024057
1.0023334
1.0022597
1.0021776
1.0020933
1.0019986
1.0019057
1.0018074
1.0017132
1.0016129
1.0015056
1.0007977
1.0007855
1.0007861
1.000791
1.000796
1.0008019
1.0008101
1.000817
1.000827
1.0008365
1.0008487
1.00086
1.0008734
1.0008853
1.0009006
1.0009143
1.0009304
1.0009467
1.0009639
1.0009797
1.0009994
1.0010188
1.0010404
1.0010611
1.0010842
1.0011071
1.0011324
1.0011595
1.0011887
1.0012186
1.0012532
1.0012872
1.0013223
1.0013591
1.0013965
1.0014391
1.0014785
1.0015178
1.0015615
1.0016011
1.0016437
1.0016851
1.0017267
1.0017686
1.0018111
1.0018522
1.0018952
1.0019358
1.0019813
1.0020222
1.0020624
1.0021057
1.0021453
1.0021852
1.002225
1.002263
1.0023015
1.0023393
1.0023722
1.0024067
1.0024446
1.0024732
1.0025056
1.0025358
1.0025655
1.0025948
1.002619
1.0026444
1.0026668
1.0026881
1.0027114
1.0027309
1.002748
1.0027603
1.0027756
1.0027835
1.0027949
1.0027984
1.0028001
1.0027993
1.0027958
1.0027879
1.0027834
1.0027678
1.002755
1.0027349
1.0027118
1.0026826
1.0026491
1.0026098
1.0025648
1.0025092
1.0024479
1.0023804
1.0023099
1.0022391
1.0021605
1.0020792
1.0019928
1.0019048
1.0018075
1.0017135
1.0016153
1.001513
1.0007979
1.0007853
1.0007869
1.0007911
1.0007959
1.0008019
1.0008096
1.0008167
1.0008261
1.0008363
1.0008469
1.0008582
1.0008721
1.0008837
1.000899
1.0009137
1.0009277
1.0009444
1.0009606
1.000978
1.0009959
1.0010154
1.001038
1.0010586
1.0010803
1.0011058
1.0011298
1.0011575
1.0011863
1.0012184
1.0012503
1.0012863
1.0013213
1.0013559
1.0013949
1.0014337
1.0014728
1.0015123
1.001556
1.0015956
1.0016373
1.0016798
1.00172
1.0017627
1.0018035
1.001847
1.001889
1.0019307
1.0019719
1.0020131
1.0020545
1.0020967
1.002137
1.0021773
1.0022159
1.0022556
1.0022924
1.0023275
1.0023617
1.0023989
1.0024313
1.0024658
1.002495
1.0025278
1.0025553
1.0025829
1.0026072
1.002634
1.0026553
1.0026766
1.002697
1.0027128
1.0027301
1.0027437
1.0027545
1.0027641
1.0027709
1.0027754
1.0027806
1.0027764
1.0027902
1.0027792
1.0027666
1.0027519
1.0027338
1.0027132
1.0026892
1.0026586
1.0026244
1.0025837
1.0025373
1.0024849
1.0024235
1.0023587
1.0022855
1.0022142
1.0021379
1.0020604
1.0019737
1.0018902
1.0017952
1.0017042
1.0016079
1.0015086
1.000798
1.0007854
1.0007866
1.0007913
1.0007959
1.000802
1.0008091
1.0008162
1.0008253
1.0008359
1.0008462
1.000857
1.0008706
1.0008816
1.000897
1.0009101
1.0009255
1.0009421
1.000958
1.0009749
1.0009931
1.0010151
1.0010346
1.0010549
1.0010776
1.0011024
1.0011261
1.0011558
1.0011851
1.0012162
1.0012493
1.0012834
1.0013176
1.0013552
1.0013916
1.0014304
1.0014683
1.0015088
1.0015502
1.0015898
1.0016297
1.0016737
1.0017133
1.0017573
1.0017979
1.0018393
1.0018828
1.0019241
1.0019663
1.0020065
1.0020504
1.0020911
1.0021304
1.0021711
1.0022083
1.0022462
1.0022848
1.0023195
1.0023545
1.0023963
1.0024266
1.00246
1.0024894
1.0025206
1.0025485
1.0025718
1.0025961
1.002632
1.002647
1.0026767
1.0026896
1.0027052
1.0027196
1.0027317
1.0027433
1.0027489
1.0027595
1.0027614
1.0027623
1.0027592
1.0027579
1.002752
1.0027437
1.0027294
1.0027118
1.0026909
1.0026647
1.0026375
1.0026015
1.0025622
1.0025148
1.0024647
1.0024016
1.0023381
1.0022681
1.0021963
1.0021205
1.0020419
1.0019622
1.0018775
1.0017883
1.0016976
1.0016037
1.0015034
1.0007979
1.0007855
1.000786
1.0007911
1.0007961
1.0008013
1.0008089
1.0008162
1.0008263
1.0008357
1.0008457
1.0008582
1.0008694
1.0008812
1.0008948
1.0009078
1.0009243
1.000939
1.0009565
1.0009725
1.0009933
1.0010104
1.0010311
1.0010509
1.0010735
1.0010987
1.0011223
1.0011525
1.0011821
1.0012133
1.0012452
1.0012815
1.0013141
1.0013519
1.0013861
1.0014275
1.0014633
1.0015049
1.0015458
1.0015845
1.0016234
1.0016684
1.0017069
1.0017512
1.0017921
1.0018335
1.0018757
1.0019176
1.0019579
1.0020004
1.00204
1.002083
1.002124
1.0021617
1.0022022
1.0022393
1.0022778
1.0023133
1.0023504
1.0023831
1.0024154
1.0024471
1.0024852
1.0025122
1.0025345
1.0025606
1.0025936
1.0026127
1.0026344
1.0026569
1.002674
1.0026965
1.0027073
1.0027214
1.0027324
1.002737
1.0027418
1.0027458
1.002744
1.0027425
1.0027358
1.0027281
1.0027185
1.0027047
1.0026861
1.0026651
1.0026388
1.0026082
1.0025763
1.0025343
1.0024893
1.0024385
1.0023813
1.0023182
1.0022461
1.0021728
1.0020972
1.0020182
1.0019385
1.0018543
1.0017675
1.0016781
1.0015842
1.0014934
1.0007976
1.0007858
1.0007855
1.0007902
1.000796
1.0008007
1.0008079
1.0008152
1.0008242
1.0008341
1.0008442
1.0008567
1.000867
1.0008801
1.0008933
1.0009057
1.0009208
1.0009365
1.0009526
1.0009688
1.0009891
1.0010061
1.0010273
1.0010467
1.0010688
1.0010944
1.0011187
1.0011493
1.0011775
1.0012108
1.0012422
1.0012775
1.0013108
1.0013474
1.0013835
1.0014218
1.0014578
1.0014985
1.001538
1.001577
1.0016208
1.00166
1.001701
1.0017437
1.0017855
1.0018273
1.0018695
1.0019104
1.001952
1.0019926
1.0020325
1.002075
1.0021123
1.002153
1.0021918
1.002229
1.0022678
1.0023055
1.0023406
1.0023738
1.0024051
1.0024382
1.0024672
1.0024955
1.002526
1.0025506
1.002573
1.002603
1.0026223
1.0026524
1.002667
1.002679
1.0026933
1.0027183
1.0027244
1.0027286
1.0027342
1.0027384
1.0027372
1.0027312
1.0027252
1.0027142
1.0027008
1.0026845
1.0026649
1.0026438
1.0026161
1.0025837
1.0025495
1.0025104
1.0024647
1.0024152
1.0023552
1.0023042
1.0022377
1.0021629
1.0020831
1.0020022
1.0019195
1.0018353
1.0017495
1.00166
1.0015652
1.0014744
1.0007978
1.0007856
1.0007855
1.0007899
1.0007953
1.0008009
1.0008067
1.0008155
1.0008233
1.000834
1.0008434
1.0008555
1.0008662
1.0008789
1.0008911
1.0009041
1.0009189
1.0009347
1.0009501
1.0009666
1.0009848
1.0010022
1.0010224
1.001042
1.0010665
1.0010897
1.0011166
1.0011471
1.0011752
1.0012079
1.0012393
1.0012733
1.0013078
1.0013421
1.0013806
1.0014152
1.0014552
1.001493
1.0015329
1.001572
1.0016145
1.0016534
1.0016937
1.001737
1.0017785
1.0018194
1.00186
1.0019015
1.0019432
1.0019835
1.0020261
1.002066
1.002104
1.0021446
1.002185
1.0022213
1.0022581
1.002296
1.0023296
1.0023639
1.0023957
1.0024251
1.0024608
1.0024853
1.0025124
1.0025461
1.0025656
1.0025938
1.0026114
1.0026308
1.0026535
1.0026668
1.0026788
1.0026936
1.0027046
1.0027113
1.0027156
1.0027311
1.0027281
1.0027218
1.0027167
1.0027039
1.0026917
1.0026736
1.0026532
1.0026296
1.0026005
1.0025661
1.0025283
1.0024891
1.0024394
1.0023896
1.0023327
1.0022721
1.0022095
1.0021396
1.0020624
1.0019827
1.0018975
1.0018109
1.001724
1.0016382
1.0015427
1.0014511
1.0007981
1.0007854
1.0007857
1.0007899
1.0007954
1.0008006
1.0008067
1.0008148
1.0008231
1.0008318
1.0008419
1.0008543
1.0008647
1.000878
1.0008894
1.0009024
1.0009162
1.0009319
1.0009467
1.000964
1.0009816
1.0009987
1.0010193
1.0010388
1.0010636
1.0010864
1.0011154
1.0011424
1.0011732
1.0012057
1.0012371
1.00127
1.0013055
1.0013383
1.0013752
1.0014106
1.0014507
1.001488
1.0015291
1.0015672
1.001608
1.001647
1.0016887
1.0017295
1.0017698
1.0018108
1.0018521
1.0018944
1.001935
1.0019752
1.0020174
1.0020569
1.0020962
1.0021367
1.002175
1.0022132
1.0022466
1.0022867
1.0023192
1.002352
1.0023855
1.0024136
1.0024485
1.0024735
1.0025059
1.00253
1.0025517
1.0025755
1.0026013
1.002618
1.0026383
1.0026506
1.0026633
1.0026767
1.0026844
1.0026939
1.0027007
1.0027062
1.0027072
1.0027041
1.0027008
1.0026906
1.0026777
1.0026613
1.0026409
1.0026155
1.0025857
1.0025497
1.0025094
1.0024684
1.0024195
1.0023692
1.0023112
1.0022508
1.0021862
1.0021169
1.0020397
1.0019637
1.0018771
1.0017915
1.0017038
1.0016143
1.0015178
1.0014272
1.0007981
1.0007855
1.0007853
1.0007897
1.0007949
1.0008001
1.0008073
1.000814
1.0008231
1.0008312
1.0008425
1.0008529
1.0008637
1.000876
1.0008868
1.000901
1.0009139
1.0009291
1.0009446
1.000961
1.0009779
1.0009961
1.001016
1.001036
1.00106
1.0010839
1.0011123
1.0011393
1.0011708
1.0012021
1.0012326
1.0012681
1.0013006
1.0013351
1.0013709
1.0014063
1.0014456
1.0014831
1.0015215
1.00156
1.0016002
1.0016397
1.0016816
1.0017231
1.0017627
1.0018049
1.0018451
1.0018857
1.0019274
1.0019663
1.0020091
1.0020473
1.0020871
1.0021253
1.0021637
1.0022011
1.0022351
1.0022695
1.0023068
1.0023401
1.0023706
1.0024039
1.0024328
1.0024638
1.00249
1.0025163
1.0025398
1.0025648
1.0025845
1.0026049
1.0026264
1.0026368
1.002652
1.0026675
1.0026744
1.0026843
1.0026915
1.0026942
1.0027002
1.0026961
1.0026931
1.0026824
1.0026699
1.0026527
1.0026326
1.0026079
1.0025752
1.0025382
1.0024933
1.0024489
1.002397
1.0023469
1.0022881
1.0022291
1.0021635
1.0020952
1.0020186
1.0019415
1.0018584
1.0017689
1.0016813
1.0015919
1.0014939
1.0014029
1.0007983
1.0007854
1.0007855
1.0007894
1.0007946
1.0007998
1.000807
1.0008138
1.0008227
1.0008305
1.0008414
1.000851
1.0008633
1.0008736
1.0008862
1.0008988
1.0009118
1.0009279
1.0009419
1.0009593
1.0009761
1.0009938
1.0010123
1.0010336
1.001056
1.0010815
1.0011083
1.001136
1.0011672
1.0011977
1.0012287
1.0012641
1.0012953
1.0013312
1.0013664
1.0014013
1.0014386
1.0014764
1.0015148
1.0015543
1.0015915
1.0016336
1.0016736
1.0017147
1.0017542
1.0017971
1.001837
1.0018774
1.0019185
1.0019591
1.0019986
1.0020379
1.0020777
1.0021161
1.0021521
1.0021886
1.0022266
1.0022601
1.0022933
1.0023284
1.0023604
1.0023903
1.0024219
1.0024481
1.0024767
1.0025011
1.002526
1.0025548
1.0025722
1.0025927
1.0026143
1.0026274
1.0026418
1.0026546
1.0026627
1.0026708
1.0026786
1.0026805
1.0026832
1.002681
1.0026807
1.0026717
1.0026577
1.0026423
1.0026224
1.0025976
1.0025645
1.0025262
1.0024805
1.0024338
1.0023796
1.0023268
1.0022659
1.0022063
1.0021398
1.0020728
1.0019958
1.0019196
1.0018396
1.0017515
1.0016619
1.0015735
1.0014736
1.0013814
1.0007985
1.0007851
1.0007856
1.0007893
1.0007945
1.0007995
1.0008063
1.0008132
1.0008217
1.0008301
1.000839
1.0008511
1.0008611
1.0008732
1.000884
1.0008966
1.0009103
1.0009258
1.0009398
1.0009566
1.0009726
1.0009905
1.0010098
1.0010306
1.0010534
1.0010792
1.001105
1.0011343
1.0011638
1.0011937
1.0012259
1.0012588
1.0012903
1.0013263
1.0013603
1.0013966
1.0014327
1.0014709
1.0015073
1.0015483
1.0015855
1.001626
1.0016657
1.0017062
1.0017475
1.0017878
1.0018281
1.0018702
1.0019111
1.0019503
1.0019896
1.0020276
1.0020679
1.002105
1.0021419
1.0021786
1.0022132
1.0022509
1.0022832
1.0023148
1.0023516
1.00238
1.0024109
1.0024377
1.002463
1.0024909
1.0025131
1.0025415
1.0025588
1.0025765
1.0025976
1.0026098
1.0026235
1.0026379
1.0026464
1.0026522
1.0026589
1.0026618
1.0026637
1.0026594
1.0026576
1.0026493
1.0026358
1.0026244
1.0026052
1.002584
1.0025539
1.0025177
1.0024694
1.0024183
1.0023602
1.0023066
1.0022422
1.0021834
1.002115
1.0020525
1.0019765
1.0019004
1.0018185
1.001732
1.0016427
1.0015553
1.0014549
1.0013618
1.000798
1.0007853
1.0007854
1.0007896
1.0007941
1.0007988
1.0008058
1.0008124
1.00082
1.0008294
1.0008381
1.0008498
1.0008594
1.0008715
1.000882
1.0008941
1.0009077
1.0009227
1.0009362
1.0009527
1.0009687
1.000987
1.0010053
1.0010279
1.0010499
1.0010764
1.0011015
1.0011303
1.0011601
1.0011902
1.0012205
1.0012544
1.0012857
1.0013201
1.0013548
1.0013904
1.0014271
1.0014645
1.0015008
1.0015416
1.0015797
1.001619
1.0016593
1.0016998
1.00174
1.0017805
1.0018198
1.0018616
1.0019019
1.0019404
1.0019794
1.0020196
1.0020567
1.002095
1.0021308
1.0021689
1.0022029
1.0022381
1.0022717
1.0023049
1.0023351
1.0023658
1.0023997
1.0024254
1.0024504
1.002477
1.0024995
1.0025224
1.0025439
1.0025608
1.002582
1.0025927
1.0026068
1.0026242
1.0026297
1.0026332
1.0026376
1.0026393
1.0026429
1.0026398
1.0026363
1.0026272
1.0026137
1.002599
1.0025818
1.0025588
1.0025299
1.0024954
1.0024506
1.0024024
1.0023431
1.0022855
1.0022206
1.0021582
1.0020894
1.0020226
1.0019476
1.0018762
1.001795
1.0017113
1.0016215
1.0015332
1.0014376
1.001347
1.000798
1.0007851
1.0007854
1.0007892
1.0007936
1.0007985
1.0008046
1.0008122
1.0008188
1.0008283
1.0008367
1.0008486
1.0008579
1.0008692
1.0008792
1.000892
1.0009039
1.0009186
1.000932
1.0009483
1.0009648
1.0009817
1.0010016
1.0010235
1.0010462
1.001073
1.0010979
1.0011283
1.0011556
1.0011871
1.001216
1.0012496
1.0012809
1.001315
1.0013496
1.0013853
1.0014205
1.0014588
1.0014959
1.001535
1.0015733
1.0016122
1.0016507
1.0016937
1.0017332
1.0017727
1.0018131
1.0018521
1.0018918
1.0019302
1.0019721
1.0020102
1.0020482
1.002086
1.0021219
1.0021585
1.0021928
1.0022277
1.0022606
1.0022942
1.0023234
1.0023544
1.0023829
1.0024126
1.0024374
1.0024647
1.0024862
1.002505
1.0025285
1.0025457
1.0025612
1.0025749
1.0025888
1.0025989
1.0026099
1.0026158
1.0026178
1.0026188
1.0026213
1.002617
1.0026137
1.0026034
1.0025909
1.0025758
1.002558
1.0025359
1.0025077
1.0024748
1.0024294
1.0023831
1.0023233
1.0022675
1.0021993
1.0021378
1.0020657
1.0019998
1.0019212
1.0018491
1.0017674
1.0016856
1.0015955
1.0015098
1.0014128
1.0013229
1.0007982
1.0007849
1.0007855
1.0007887
1.0007934
1.0007982
1.0008039
1.0008114
1.0008175
1.0008273
1.0008356
1.0008464
1.0008553
1.0008664
1.0008761
1.0008889
1.0009006
1.0009144
1.0009283
1.0009449
1.0009597
1.0009783
1.0009975
1.0010203
1.0010428
1.0010692
1.0010943
1.0011247
1.0011521
1.0011826
1.0012119
1.0012446
1.0012756
1.00131
1.0013437
1.0013792
1.0014155
1.0014527
1.0014901
1.001528
1.001566
1.0016051
1.0016447
1.0016839
1.0017245
1.0017638
1.0018035
1.0018435
1.001882
1.0019212
1.0019608
1.0019993
1.0020382
1.0020746
1.0021118
1.0021473
1.0021824
1.0022163
1.00225
1.0022837
1.0023125
1.0023434
1.0023727
1.002397
1.0024224
1.0024483
1.0024704
1.0024892
1.0025087
1.0025304
1.0025429
1.0025595
1.0025688
1.0025851
1.0025897
1.0025951
1.0025977
1.002596
1.0025983
1.0025928
1.0025892
1.0025793
1.0025656
1.0025551
1.0025355
1.0025108
1.0024859
1.0024523
1.0024088
1.0023614
1.0023026
1.0022455
1.002178
1.0021145
1.0020384
1.0019703
1.0018906
1.0018158
1.0017372
1.0016571
1.0015707
1.001484
1.0013885
1.0013027
1.0007983
1.0007847
1.0007851
1.0007886
1.0007929
1.0007976
1.0008031
1.0008098
1.000816
1.0008252
1.0008343
1.0008433
1.000854
1.0008622
1.0008739
1.0008852
1.0008968
1.0009105
1.0009239
1.0009398
1.0009553
1.0009746
1.0009938
1.0010155
1.0010394
1.0010657
1.0010905
1.0011201
1.0011473
1.0011776
1.001207
1.0012395
1.0012705
1.001304
1.0013392
1.0013734
1.0014099
1.0014457
1.0014835
1.001521
1.0015587
1.0015988
1.0016358
1.0016771
1.0017157
1.0017555
1.0017927
1.0018349
1.0018716
1.0019125
1.001949
1.0019903
1.0020264
1.0020644
1.0020999
1.0021351
1.0021732
1.0022054
1.0022405
1.0022726
1.0023018
1.0023306
1.0023599
1.0023846
1.0024101
1.0024376
1.0024573
1.0024797
1.0024953
1.0025136
1.0025299
1.0025417
1.0025558
1.002563
1.0025751
1.0025764
1.0025797
1.0025788
1.0025762
1.0025725
1.0025629
1.0025556
1.0025384
1.0025275
1.0025082
1.002486
1.0024613
1.0024283
1.0023903
1.0023439
1.0022882
1.0022299
1.0021641
1.0020986
1.0020231
1.0019505
1.0018692
1.001789
1.001705
1.001623
1.0015358
1.0014512
1.00136
1.0012751
1.0007985
1.0007844
1.0007849
1.0007883
1.0007922
1.0007967
1.0008026
1.0008081
1.0008159
1.0008231
1.0008334
1.0008412
1.0008518
1.0008595
1.0008705
1.000882
1.0008924
1.0009066
1.0009197
1.0009343
1.000952
1.0009685
1.0009903
1.0010111
1.0010363
1.0010604
1.0010865
1.0011151
1.001142
1.0011723
1.0012017
1.0012337
1.0012651
1.0012979
1.0013335
1.001366
1.0014044
1.0014391
1.0014762
1.0015142
1.0015509
1.0015916
1.0016277
1.0016692
1.0017056
1.0017454
1.001784
1.0018242
1.0018611
1.0019012
1.001939
1.0019767
1.0020154
1.0020516
1.002089
1.0021242
1.0021597
1.0021941
1.0022266
1.0022575
1.002288
1.0023197
1.002345
1.0023718
1.0023981
1.00242
1.0024418
1.0024663
1.0024822
1.0025007
1.0025149
1.0025297
1.0025396
1.002551
1.0025559
1.0025606
1.0025613
1.0025595
1.0025545
1.0025504
1.0025384
1.0025328
1.0025161
1.0024987
1.0024797
1.0024554
1.0024305
1.0024002
1.0023625
1.0023193
1.0022664
1.0022109
1.0021471
1.0020816
1.0020083
1.0019354
1.0018548
1.0017742
1.0016897
1.0016031
1.0015123
1.0014245
1.0013294
1.0012451
1.0007988
1.0007842
1.000785
1.0007881
1.0007916
1.000796
1.0008019
1.0008067
1.0008148
1.0008214
1.0008314
1.0008389
1.0008485
1.0008565
1.000867
1.0008778
1.0008878
1.0009025
1.000915
1.0009296
1.0009465
1.0009637
1.0009856
1.0010069
1.001032
1.0010559
1.0010818
1.00111
1.001137
1.0011668
1.0011967
1.0012266
1.0012602
1.0012914
1.0013254
1.0013593
1.0013958
1.0014306
1.001468
1.0015054
1.0015432
1.001581
1.0016191
1.0016585
1.0016959
1.0017364
1.0017729
1.0018135
1.0018506
1.0018901
1.0019286
1.0019659
1.0020027
1.0020409
1.0020766
1.0021108
1.0021499
1.002181
1.0022126
1.0022435
1.0022736
1.0023043
1.0023318
1.0023558
1.0023835
1.0024046
1.002425
1.0024475
1.0024639
1.0024847
1.0024966
1.0025114
1.0025239
1.0025311
1.0025354
1.0025409
1.0025403
1.0025403
1.0025364
1.0025284
1.0025174
1.0025086
1.0024916
1.0024731
1.0024511
1.0024256
1.0023992
1.0023681
1.0023307
1.0022906
1.002242
1.0021885
1.00213
1.0020647
1.0019937
1.0019202
1.0018413
1.0017595
1.0016752
1.0015884
1.0014974
1.0014078
1.0013086
1.0012211
1.0007989
1.0007839
1.0007848
1.000788
1.0007908
1.0007953
1.0008005
1.0008057
1.000813
1.0008197
1.0008293
1.0008364
1.0008455
1.000853
1.0008632
1.0008734
1.0008831
1.0008971
1.0009095
1.0009245
1.0009408
1.0009589
1.0009809
1.0010018
1.0010273
1.0010504
1.0010775
1.0011036
1.0011321
1.0011593
1.0011906
1.0012201
1.0012523
1.0012843
1.0013181
1.0013516
1.0013875
1.0014225
1.0014589
1.0014974
1.0015338
1.0015718
1.0016103
1.0016486
1.0016862
1.0017253
1.001763
1.0018023
1.0018402
1.0018784
1.0019165
1.0019538
1.0019904
1.0020272
1.0020622
1.0020968
1.0021327
1.0021642
1.0021964
1.002229
1.0022575
1.0022872
1.0023146
1.0023383
1.0023626
1.0023892
1.002408
1.0024286
1.0024442
1.0024619
1.0024763
1.0024878
1.002502
1.0025089
1.0025138
1.0025196
1.0025216
1.0025181
1.0025163
1.0025059
1.0024966
1.0024846
1.0024658
1.0024498
1.0024251
1.0024017
1.0023696
1.0023391
1.0023009
1.0022609
1.0022133
1.0021631
1.0021066
1.0020443
1.0019773
1.0019041
1.0018285
1.0017476
1.0016623
1.0015754
1.0014841
1.0013931
1.0012947
1.0012054
1.000799
1.0007837
1.0007842
1.0007878
1.0007903
1.0007946
1.0007996
1.0008046
1.0008116
1.000818
1.0008274
1.0008339
1.0008424
1.0008496
1.0008591
1.0008684
1.0008793
1.0008915
1.0009039
1.0009192
1.0009354
1.0009544
1.0009755
1.0009972
1.0010216
1.0010446
1.0010723
1.0010972
1.0011263
1.0011528
1.0011831
1.0012128
1.0012447
1.0012757
1.0013107
1.0013435
1.0013793
1.0014145
1.0014509
1.001487
1.0015252
1.0015624
1.0015998
1.0016386
1.0016766
1.0017148
1.0017518
1.001792
1.0018284
1.001867
1.0019034
1.0019401
1.0019762
1.002012
1.0020475
1.0020816
1.002115
1.0021485
1.0021802
1.0022118
1.0022422
1.00227
1.0022956
1.0023202
1.0023476
1.002367
1.0023906
1.0024088
1.0024247
1.0024413
1.0024552
1.0024657
1.0024758
1.0024863
1.0024899
1.0024988
1.0024985
1.0024965
1.0024937
1.0024863
1.0024747
1.0024633
1.0024441
1.0024261
1.0024014
1.0023753
1.0023443
1.0023117
1.0022736
1.0022331
1.0021877
1.0021369
1.0020842
1.0020243
1.0019605
1.0018904
1.001816
1.0017372
1.0016537
1.0015676
1.0014757
1.0013837
1.0012858
1.001192
1.0007988
1.0007835
1.000784
1.0007873
1.00079
1.0007941
1.0007987
1.0008035
1.0008102
1.0008164
1.000825
1.0008311
1.0008393
1.0008457
1.0008548
1.0008638
1.0008743
1.0008863
1.0008986
1.0009136
1.0009308
1.0009495
1.0009706
1.0009925
1.0010154
1.0010396
1.0010653
1.0010905
1.0011186
1.0011458
1.0011754
1.0012048
1.0012367
1.0012681
1.0013013
1.0013353
1.0013701
1.0014052
1.0014421
1.0014772
1.0015152
1.0015519
1.0015899
1.0016273
1.0016654
1.0017034
1.0017411
1.0017788
1.001816
1.0018536
1.0018907
1.0019262
1.0019625
1.0019975
1.0020334
1.0020665
1.0021004
1.0021317
1.0021634
1.0021951
1.0022233
1.0022523
1.0022767
1.0023016
1.0023288
1.0023477
1.0023719
1.0023894
1.0024043
1.0024225
1.0024344
1.0024454
1.002457
1.0024628
1.0024676
1.0024741
1.0024734
1.0024739
1.0024698
1.0024629
1.0024509
1.0024391
1.0024217
1.0024019
1.0023764
1.0023508
1.0023182
1.0022847
1.0022462
1.002205
1.0021591
1.0021107
1.0020564
1.0019999
1.0019384
1.0018718
1.0018007
1.0017269
1.0016448
1.0015621
1.0014719
1.0013807
1.0012801
1.0011867
1.0007985
1.0007837
1.0007835
1.000787
1.0007896
1.0007933
1.0007978
1.0008027
1.0008089
1.0008146
1.0008224
1.0008281
1.0008355
1.0008417
1.0008502
1.0008594
1.0008686
1.000881
1.0008931
1.0009085
1.0009262
1.0009445
1.0009655
1.0009873
1.0010099
1.0010337
1.0010589
1.0010835
1.0011111
1.0011387
1.0011683
1.0011965
1.0012287
1.00126
1.001293
1.0013265
1.001361
1.0013956
1.0014317
1.001468
1.0015039
1.0015417
1.0015787
1.0016159
1.0016534
1.0016917
1.001728
1.0017663
1.0018036
1.0018388
1.0018775
1.0019119
1.0019482
1.0019844
1.0020184
1.0020509
1.0020848
1.0021159
1.0021477
1.0021762
1.0022065
1.0022323
1.0022611
1.0022834
1.0023084
1.0023275
1.0023479
1.0023693
1.0023838
1.0023992
1.0024118
1.0024253
1.0024327
1.0024416
1.0024449
1.0024494
1.0024496
1.0024479
1.002442
1.0024366
1.0024234
1.0024112
1.0023925
1.0023729
1.002349
1.002321
1.0022919
1.0022569
1.0022182
1.0021786
1.0021306
1.0020809
1.0020269
1.001971
1.0019093
1.0018461
1.0017762
1.001705
1.0016269
1.0015472
1.0014596
1.0013732
1.001275
1.0011819
1.0007982
1.0007838
1.000783
1.0007865
1.0007892
1.0007922
1.0007968
1.0008013
1.0008072
1.0008127
1.0008197
1.0008245
1.0008313
1.0008373
1.0008451
1.0008542
1.0008634
1.0008752
1.0008881
1.0009035
1.0009209
1.0009399
1.00096
1.0009816
1.0010044
1.0010274
1.0010523
1.001077
1.0011043