-0.5 	1.0334158
-0.48412699 	1.0018172
-0.46825397 	1.0281535
-0.45238095 	0.94217133
-0.43650794 	1.0740415
-0.42063492 	0.99733094
-0.40476191 	0.94036107
-0.3888889 	1.1144566
-0.37301588 	1.0152764
-0.35714287 	0.92170266
-0.34126985 	1.10532
-0.32539684 	1.0620827
-0.30952379 	0.79951308
-0.29365078 	0.8561634
-0.27777776 	1.2200168
-0.26190475 	1.3380872
-0.24603173 	1.0831513
-0.23015872 	0.98681213
-0.2142857 	1.0970184
-0.19841269 	1.1595479
-0.18253967 	1.0752134
-0.16666666 	0.97671314
-0.15079364 	0.92396316
-0.13492063 	0.90219347
-0.11904758 	0.90103903
-0.10317457 	0.95335409
-0.087301552 	0.93761804
-0.071428537 	0.99509376
-0.055555522 	0.940903
-0.039682507 	0.96492681
-0.023809493 	1.0244323
-0.0079364777 	1.0097068
0.0079365373 	1.0033424
0.023809552 	1.0262915
0.039682567 	1.0985653
0.055555582 	1.1289764
0.071428597 	1.0504234
0.087301612 	0.86488131
0.10317463 	0.72431402
0.11904764 	0.75692024
0.13492066 	0.89150116
0.15079367 	1.0513037
0.16666669 	1.0654412
0.1825397 	0.98428431
0.19841272 	0.94927162
0.21428573 	1.0318423
0.23015875 	1.1157239
0.24603176 	1.0740632
0.26190484 	0.97637165
0.27777785 	0.9510939
0.29365087 	1.0098463
0.30952388 	1.0450853
0.3253969 	1.0205635
0.34126991 	0.98317772
0.35714292 	0.97255263
0.37301594 	0.99929009
0.38888895 	1.0116948
0.40476197 	0.98643601
0.42063499 	0.98160303
0.436508 	0.99958231
0.45238101 	0.98170685
0.46825403 	1.0142132
0.48412704 	0.99556258
0.5 	0.98198205
