/*--------------------------------*- C++ -*----------------------------------*\
| =========                 |                                                 |
| \\      /  F ield         | OpenFOAM: The Open Source CFD Toolbox           |
|  \\    /   O peration     | Version:  2406                                  |
|   \\  /    A nd           | Website:  www.openfoam.com                      |
|    \\/     M anipulation  |                                                 |
\*---------------------------------------------------------------------------*/
FoamFile
{
    version     2.0;
    format      ascii;
    arch        "LSB;label=32;scalar=64";
    class       volVectorField;
    location    "25";
    object      U;
}
// * * * * * * * * * * * * * * * * * * * * * * * * * * * * * * * * * * * * * //

dimensions      [0 1 -1 0 0 0 0];

internalField   nonuniform List<vector> 
20580
(
(0.091241617 -0.0014874873 -1.3175517e-22)
(0.091383584 -6.8882296e-05 -6.1914053e-20)
(0.097035326 -0.00065871061 2.2518441e-21)
(0.096345373 0.00055231721 -3.1568257e-20)
(0.096731878 0.00079198798 -2.0513567e-23)
(0.096681995 -0.00049473187 1.1693657e-20)
(0.095381991 0.00044075806 3.1024338e-20)
(0.095272121 0.00025730187 1.051739e-21)
(0.094279469 0.00011389763 -1.1315177e-21)
(0.093659818 0.00033190405 0)
(0.0933312 0.00011763261 -1.9494207e-21)
(0.093093278 -0.00034299044 -2.6971085e-20)
(0.092771519 -6.9111297e-05 1.0932237e-21)
(0.092940677 -0.0012610236 4.1836675e-21)
(0.092781198 -0.0022921461 8.2524494e-21)
(0.092711977 -0.0026723525 -6.5503001e-21)
(0.092797088 -0.0040508907 2.1381609e-20)
(0.093016481 -0.0059254196 1.9574752e-21)
(0.092374669 -0.0051041172 -1.3236731e-20)
(0.093126309 -0.0084026038 -3.5293214e-21)
(0.094458444 -0.011423893 -6.8780081e-23)
(0.094281115 -0.012186421 -2.7969114e-21)
(0.094285797 -0.0138287 1.6755359e-21)
(0.096167995 -0.017971389 1.1162923e-20)
(0.098163741 -0.021873442 1.4600574e-20)
(0.098532185 -0.024280111 1.9624308e-20)
(0.10037632 -0.026055015 3.2755813e-21)
(0.10239134 -0.029612375 1.9204959e-22)
(0.1043622 -0.034740318 -9.7180144e-21)
(0.10754763 -0.041233695 2.5041067e-20)
(0.11522484 -0.045992375 1.6175452e-20)
(0.090094374 -0.00030108684 0)
(0.091201239 0.00025169862 5.50268e-20)
(0.097020376 0.00011265458 6.7534732e-20)
(0.097024689 -9.9663129e-05 -4.8484621e-21)
(0.09678217 0.00078342647 1.2758084e-20)
(0.095970547 0.00096284819 9.4240884e-22)
(0.09537959 0.00028237441 -5.1617877e-20)
(0.094856212 0.00078296927 1.6530974e-21)
(0.094195297 0.00033054324 8.2781158e-21)
(0.093721736 0.00018382521 8.2931071e-21)
(0.093452729 -4.2505421e-05 1.8736594e-20)
(0.093080691 -0.00036444823 2.1794786e-21)
(0.092809903 -0.00013078141 -5.2962259e-21)
(0.092961493 -0.00098118381 1.3670462e-22)
(0.09291702 -0.0021157521 1.4904679e-21)
(0.092606204 -0.0020541445 -2.8520642e-22)
(0.092958144 -0.0032542842 -7.0214079e-21)
(0.093120851 -0.0051885489 5.0909458e-21)
(0.092904623 -0.0048047811 0)
(0.094342765 -0.008290836 -2.414294e-20)
(0.094883573 -0.0099876212 0)
(0.094538179 -0.010197951 2.5030374e-20)
(0.095511651 -0.012244372 1.7346935e-20)
(0.097643931 -0.016331901 -2.2471181e-22)
(0.09913217 -0.019490292 8.220655e-21)
(0.099087448 -0.021781375 -7.992853e-21)
(0.1011795 -0.023938334 3.6894623e-21)
(0.10431474 -0.028052044 4.2388566e-21)
(0.10685057 -0.03320894 2.8723669e-20)
(0.10895053 -0.038528107 -1.1666231e-20)
(0.11357056 -0.043842456 -4.7059397e-20)
(0.088817452 0.0012488435 0)
(0.090599706 0.00074724691 0)
(0.096976373 0.0013125052 -3.0407867e-19)
(0.097328023 -0.00041378278 -2.98017e-19)
(0.097016818 0.0004998573 5.7543524e-20)
(0.096188124 0.0022840142 2.1183387e-22)
(0.09566665 0.00012755622 7.0456198e-20)
(0.094959261 0.00082128124 3.7230679e-21)
(0.094225018 0.00052157795 0)
(0.093738425 0.00015135836 2.4835273e-20)
(0.093463884 -9.5628557e-05 -7.1898238e-21)
(0.093066729 -0.0002927205 -1.1408386e-20)
(0.092848942 -0.00040658827 0)
(0.09308348 -0.0010150246 -1.8654387e-22)
(0.092945461 -0.0018496558 7.2803422e-21)
(0.09267004 -0.0018623608 -4.5065669e-22)
(0.09325191 -0.0029482654 -3.184202e-22)
(0.093214912 -0.0044245496 1.3749906e-21)
(0.093288436 -0.0047976526 1.737442e-20)
(0.094887826 -0.0079363866 0)
(0.094986213 -0.0087806901 0)
(0.094787298 -0.0089090271 -2.7867478e-20)
(0.096507569 -0.011261588 -1.7492588e-20)
(0.09886808 -0.014855863 -5.4144761e-21)
(0.10018908 -0.016776281 4.1436525e-21)
(0.10007397 -0.019494412 -2.5002766e-21)
(0.10233475 -0.022613033 1.2545282e-20)
(0.10621715 -0.026604874 4.4630732e-21)
(0.10918892 -0.031690745 -5.0091459e-21)
(0.11085928 -0.034591407 -1.2505105e-20)
(0.11267206 -0.040025145 1.0919513e-21)
(0.087037836 0.0020817128 0)
(0.089214085 0.00092105839 6.2506733e-22)
(0.096420152 0.0019678991 -6.5630222e-21)
(0.097231016 -0.00048708162 -4.6057687e-21)
(0.096850799 0.00014296193 1.4280783e-19)
(0.096300858 0.002479851 3.2983915e-20)
(0.096053581 2.1381404e-05 7.1073321e-20)
(0.095201266 0.00035079731 0)
(0.094407019 0.00054377086 -3.0245888e-22)
(0.093871022 0.00030392897 -2.190734e-21)
(0.093569268 -1.534953e-06 5.4439021e-22)
(0.093160879 -3.6365055e-05 -4.3842355e-21)
(0.092999197 -0.00072710964 1.3868396e-22)
(0.093254844 -0.001270473 -5.2599836e-21)
(0.09299148 -0.0014147964 -1.9590989e-20)
(0.092794348 -0.0018236705 1.4926642e-23)
(0.093476531 -0.003126323 -7.4584671e-21)
(0.093293626 -0.0037258832 7.0601073e-23)
(0.093639843 -0.0047865816 -3.1302165e-22)
(0.09515163 -0.0072042911 -1.3449771e-22)
(0.09493167 -0.0074190901 -5.713638e-21)
(0.095109551 -0.0080569413 -6.7007379e-21)
(0.097228741 -0.011097711 -2.299121e-21)
(0.099334142 -0.013905022 9.7963982e-21)
(0.10089288 -0.014495131 0)
(0.10135967 -0.017686373 -2.064755e-21)
(0.10345451 -0.021929647 -7.4411135e-21)
(0.10764875 -0.025107428 -1.4277639e-20)
(0.11059833 -0.029998294 -3.1309764e-21)
(0.11227345 -0.031261419 3.1590758e-21)
(0.11314646 -0.035658326 2.6036733e-21)
(0.08541851 0.0018834031 0)
(0.087688993 0.00088240531 8.023901e-20)
(0.095722081 0.0017358019 4.6629909e-19)
(0.096974481 -0.00022593834 3.0259078e-19)
(0.09647095 -0.00010442878 5.0651257e-22)
(0.096281407 0.0013869799 -1.6380772e-20)
(0.09619157 6.5536999e-05 0)
(0.095422182 -0.00023368381 9.2420789e-21)
(0.094735077 0.00040475795 1.3849904e-21)
(0.094145969 0.00039799867 1.547714e-20)
(0.093765091 0.00016494401 1.6097061e-20)
(0.093365823 0.00023878312 1.2577624e-23)
(0.093235657 -0.00078849954 3.7386689e-21)
(0.093340146 -0.0013697922 7.0132848e-21)
(0.093051103 -0.00086586759 -9.421501e-21)
(0.093039285 -0.0017116694 5.4187132e-21)
(0.093656108 -0.0033572087 3.7908055e-21)
(0.093407416 -0.0030987518 -1.7446302e-20)
(0.093979147 -0.0047952138 -2.2347652e-20)
(0.095298614 -0.0065386319 0)
(0.094962122 -0.0061169616 -4.8634767e-21)
(0.095708393 -0.007492386 1.520968e-21)
(0.097970546 -0.011159773 2.2024829e-20)
(0.099384651 -0.013483806 7.7299955e-22)
(0.10126399 -0.013372395 0)
(0.10278144 -0.016309049 4.7232728e-20)
(0.10442612 -0.021471476 -9.2322886e-21)
(0.10840798 -0.023669055 -7.6140158e-21)
(0.11127145 -0.027102872 -1.0098064e-20)
(0.11290998 -0.028719819 -3.2965238e-21)
(0.1132479 -0.032992532 -2.2123906e-21)
(0.084873883 0.00065270874 1.0241637e-19)
(0.086919169 0.00079150261 1.7704449e-22)
(0.095003861 0.00073903386 7.4441396e-24)
(0.096299014 0.00033225292 -6.8799198e-20)
(0.095867155 -4.6376709e-06 -1.1219028e-20)
(0.096141928 -0.00022795554 -2.930412e-22)
(0.096077677 0.0003692748 1.5298135e-20)
(0.095422886 -0.00032632194 1.2600127e-22)
(0.094818231 0.00035962216 4.7042175e-21)
(0.094392859 0.00028225554 -3.6677619e-20)
(0.093985782 0.00028012886 1.6033322e-20)
(0.093646612 0.00045276576 1.3394631e-21)
(0.093542167 -0.00042445623 1.9608975e-21)
(0.093424996 -0.00097429795 7.6927995e-21)
(0.093187646 -0.00043718226 -2.0334478e-21)
(0.093422605 -0.0014823105 -3.3534028e-22)
(0.0938219 -0.003096354 5.4502572e-21)
(0.093603624 -0.00235525 -3.0254534e-21)
(0.0944197 -0.0046610492 -4.8572928e-22)
(0.095378321 -0.0062065889 0)
(0.095045497 -0.0051741332 -2.5854428e-21)
(0.096500892 -0.0071900851 -8.4317262e-20)
(0.098857108 -0.010782361 -2.7059893e-20)
(0.099458246 -0.013183023 0)
(0.10136761 -0.013350618 -2.6343297e-20)
(0.10422298 -0.01512929 -2.9742886e-20)
(0.10551394 -0.020242277 1.3262212e-20)
(0.10842128 -0.022489436 -8.9647434e-20)
(0.1116526 -0.023266292 -6.5235109e-21)
(0.11398022 -0.02498351 -1.2308497e-20)
(0.11457707 -0.029880082 2.3611253e-20)
(0.085090406 -0.00084873402 -4.9642437e-21)
(0.086957684 0.00084646426 6.1391431e-20)
(0.094322013 -0.00039905599 5.5795133e-23)
(0.095281318 0.00080973762 -1.523993e-19)
(0.095140763 0.00042581861 3.9866496e-20)
(0.095546951 -0.0013880027 8.8596264e-20)
(0.095650347 0.00065577988 -4.9944399e-20)
(0.095147908 0.00021817572 3.1594733e-23)
(0.09460358 0.00045747901 -3.2208816e-22)
(0.094337404 9.7469548e-05 5.7567103e-21)
(0.094011858 0.0003070237 9.388902e-23)
(0.093831514 0.00047763466 4.3809213e-22)
(0.093801504 3.8822192e-05 -4.5721077e-21)
(0.093556069 -0.00025569298 -2.0804145e-23)
(0.093449844 -0.0002341862 -6.9010248e-21)
(0.093891112 -0.0013932928 -1.3871455e-22)
(0.094028121 -0.0025685047 -1.4023154e-22)
(0.093981095 -0.0018088325 -1.6791088e-20)
(0.095082408 -0.0044010042 0)
(0.095477598 -0.0057538405 1.9227706e-20)
(0.095176844 -0.0047209123 4.203313e-22)
(0.097269358 -0.0074884526 -2.7104595e-20)
(0.099767894 -0.0095414774 -9.2343151e-22)
(0.099834916 -0.011805249 -7.2733726e-21)
(0.1011911 -0.013297318 -1.926227e-20)
(0.10509879 -0.014042693 -2.4623751e-21)
(0.10681005 -0.017462402 -2.3658546e-20)
(0.10824653 -0.021237187 5.1272967e-22)
(0.11115333 -0.020498624 -8.3499867e-20)
(0.1147828 -0.020972053 1.2773339e-20)
(0.11719956 -0.024928114 2.3525963e-21)
(0.085814975 -0.0018267534 1.1004781e-18)
(0.087267578 0.00096734282 0)
(0.093793246 -0.001006993 4.3373781e-19)
(0.094329557 0.001017923 2.9403281e-19)
(0.094349563 0.00099482787 -1.1795518e-19)
(0.094584751 -0.0014220767 -2.7464393e-22)
(0.094792055 0.00069511995 -1.9279956e-20)
(0.094588459 0.00092633974 2.2650111e-22)
(0.094252479 0.00052871101 2.253583e-21)
(0.094081653 0.00010704477 -1.0087807e-20)
(0.093813522 0.00045692262 1.9104222e-20)
(0.093762387 0.00034324151 2.8189298e-22)
(0.093774937 0.00029414575 -6.1487969e-21)
(0.093570983 0.00030160069 -2.4820277e-21)
(0.093661142 -0.00038242666 2.4989589e-20)
(0.094242122 -0.0014549337 1.1502285e-20)
(0.094129834 -0.0021510129 1.9778717e-21)
(0.094386945 -0.0018170962 -5.801457e-21)
(0.095714971 -0.0040278615 8.3587397e-23)
(0.09563063 -0.0047458926 -5.0398183e-22)
(0.095617788 -0.004411899 4.1476379e-22)
(0.097783652 -0.0080743646 -1.7353306e-22)
(0.10015953 -0.0082574662 0)
(0.10058035 -0.0095149271 -3.7177818e-21)
(0.10121775 -0.012225255 -3.9434631e-21)
(0.10503297 -0.01353158 -9.2127266e-20)
(0.10805702 -0.01425132 -1.1093622e-20)
(0.10870723 -0.018820318 -2.3582101e-20)
(0.11009233 -0.019188165 1.4520126e-20)
(0.1143172 -0.019426384 -6.4900939e-20)
(0.11862467 -0.021329718 1.4800823e-21)
(0.086525062 -0.0019609381 -4.8477962e-19)
(0.087510537 0.0012663286 8.0829727e-23)
(0.093720171 -0.00082158652 1.5806613e-19)
(0.094144795 0.00095023286 3.5065141e-19)
(0.094206385 0.0012910121 -1.5123357e-21)
(0.094015858 -0.00034729536 -5.5481153e-22)
(0.094021725 0.00050528216 7.6948497e-21)
(0.094023436 0.0011990426 5.8871373e-24)
(0.093923367 0.00047089784 2.8757231e-21)
(0.093694148 0.00037932163 6.8706352e-21)
(0.09339872 0.00066870738 1.3344002e-20)
(0.093384146 0.00025521893 0)
(0.093419689 0.00035863186 5.7719515e-23)
(0.093425783 0.00036085791 -1.376881e-22)
(0.093695862 -0.00076586037 2.9708354e-20)
(0.094260122 -0.0014256155 -1.0189633e-20)
(0.094039593 -0.0017062065 2.4385495e-21)
(0.094528184 -0.0022405199 -9.7481845e-22)
(0.096004283 -0.0036783399 -6.371069e-21)
(0.095760675 -0.0034440933 -5.0088826e-21)
(0.096362558 -0.0038841938 3.3121401e-20)
(0.098230219 -0.0079089449 3.3159262e-22)
(0.10006786 -0.0075992423 4.8290114e-22)
(0.10119422 -0.0076613209 -1.6980473e-21)
(0.10181243 -0.010272983 -2.0811021e-21)
(0.10440151 -0.012998456 2.5590188e-20)
(0.10836414 -0.012702253 -2.9296939e-20)
(0.10980817 -0.015501293 -3.6585608e-20)
(0.10995053 -0.017766717 -1.1236732e-20)
(0.11341446 -0.019710897 4.026162e-20)
(0.1180909 -0.021142626 -1.9613755e-20)
(0.086946015 -0.0011987416 -1.1012484e-18)
(0.087672028 0.0016239259 6.2312767e-22)
(0.094011973 -1.1373583e-05 -3.1239854e-19)
(0.09430244 0.00069475657 -3.3618476e-19)
(0.094397791 0.001132075 2.8513883e-22)
(0.094182935 0.0012410314 0)
(0.093873608 0.00033882104 -8.8534997e-21)
(0.09372412 0.00083941381 5.8171549e-20)
(0.093489866 0.00028486817 1.5266298e-21)
(0.093098741 0.00077666563 4.2316146e-21)
(0.092844141 0.00071206072 1.5052884e-23)
(0.092844062 0.00035174387 -1.2612585e-22)
(0.092883927 0.0003459228 0)
(0.093100797 0.00022271845 1.3159746e-20)
(0.093445195 -0.00090490623 -7.1815995e-21)
(0.093971401 -0.0012580703 3.8798639e-22)
(0.093869627 -0.0010177588 2.3805717e-21)
(0.094527265 -0.0025329068 8.9134973e-21)
(0.095842081 -0.0033735708 -2.8546043e-20)
(0.09559851 -0.0024857462 -5.2953727e-21)
(0.096987295 -0.0034406594 2.6122075e-20)
(0.098630468 -0.0067674591 2.349235e-20)
(0.099777765 -0.0069966624 -2.5415622e-20)
(0.10139761 -0.0063387286 -1.1212949e-20)
(0.10270194 -0.0084500813 -3.3034826e-20)
(0.10427396 -0.01144818 1.6794944e-21)
(0.10785409 -0.012610085 9.8570511e-23)
(0.1103507 -0.012735327 -4.2913955e-21)
(0.1110578 -0.015530345 -2.7793672e-20)
(0.11339457 -0.019277156 -1.5775798e-20)
(0.11716828 -0.021410039 2.6510916e-20)
(0.088944918 0.00058968238 -1.989553e-20)
(0.088674645 0.0020648932 8.3368741e-22)
(0.094491236 0.001135579 -3.0936057e-21)
(0.094824115 0.00030477509 -1.1882911e-22)
(0.094836205 0.00050488113 4.4511871e-22)
(0.094635274 0.0023264575 -1.7813719e-19)
(0.094245101 0.00029938935 -1.6011059e-20)
(0.093710997 0.00015551501 7.7639777e-23)
(0.093167595 0.00015031002 1.1165124e-20)
(0.092728181 0.0009844805 -2.403701e-21)
(0.092638173 0.000502956 1.2555782e-20)
(0.092663661 0.00039528357 3.7339871e-21)
(0.092702786 0.00021165911 0)
(0.092986424 0.00012807826 3.1123787e-22)
(0.093307081 -0.00071145453 6.6815864e-21)
(0.093644791 -0.0011258709 2.282928e-22)
(0.093781235 -0.00036021593 1.0960759e-21)
(0.094524749 -0.0022388321 1.071949e-23)
(0.095427934 -0.0028944938 -1.1996341e-21)
(0.095266159 -0.0018887413 -4.9132739e-23)
(0.09717239 -0.003376829 -9.6668547e-21)
(0.098791315 -0.0054223156 1.3861564e-20)
(0.099413122 -0.006213561 -1.6167772e-21)
(0.10136457 -0.005171657 -2.8257321e-21)
(0.10343827 -0.0075444875 -7.7850648e-21)
(0.10490351 -0.0095761816 -1.5682229e-21)
(0.10747624 -0.012084835 2.1479154e-20)
(0.11015766 -0.010921717 -5.0157175e-21)
(0.11240204 -0.013066019 -5.1512615e-21)
(0.1141716 -0.017118277 3.7832409e-20)
(0.11640521 -0.020094243 -6.766364e-21)
(0.094811631 0.0028151381 -7.344242e-19)
(0.089984475 0.0025774177 0)
(0.095558504 0.0020174233 -1.0311834e-19)
(0.095673008 5.4294898e-05 -3.4397796e-19)
(0.095359772 -0.00018103744 -1.0677182e-19)
(0.095076943 0.0021142393 -2.0827906e-20)
(0.094782092 0.00044503928 -3.9794864e-22)
(0.09400978 -0.00015658389 -1.4786228e-23)
(0.093317693 0.00032536872 -1.2717393e-20)
(0.092881688 0.00080492183 -5.3212807e-21)
(0.092774601 0.00031554343 -4.9508462e-21)
(0.092713432 0.00032842354 -2.5199932e-23)
(0.092732529 0.00013686421 1.7864131e-20)
(0.093038196 0.00025969599 0)
(0.093406549 -0.00029079395 1.0411272e-20)
(0.093525469 -0.00099276572 2.0928708e-20)
(0.093811217 -0.0001237633 1.7338148e-20)
(0.094630734 -0.0016117696 4.0662585e-20)
(0.095123296 -0.0022747745 1.6535704e-22)
(0.095110844 -0.0015949736 -9.7470974e-21)
(0.097224285 -0.0034354965 6.8519414e-21)
(0.098750136 -0.0044062852 1.95085e-22)
(0.098936063 -0.0054836116 1.6994168e-20)
(0.10121058 -0.0042854729 1.16567e-20)
(0.10393203 -0.0068734505 2.4688142e-20)
(0.10553807 -0.0085508907 -1.2901677e-20)
(0.10729056 -0.01068837 -1.1014517e-20)
(0.1097867 -0.0096933301 -4.2999111e-22)
(0.11341388 -0.011319635 4.7618101e-20)
(0.11561695 -0.014445372 -2.191738e-20)
(0.11662047 -0.018142524 7.7860407e-21)
(0.10095876 0.0040591417 4.0178257e-19)
(0.09225647 0.0025338545 1.341556e-19)
(0.097471667 0.0019668281 -1.2317254e-21)
(0.097255034 7.8393822e-07 -5.7165104e-21)
(0.096375542 -0.00065306413 -8.9739176e-23)
(0.095992253 0.00082960398 -3.2192923e-20)
(0.095614759 0.00051649634 4.647893e-20)
(0.094754307 5.9038658e-05 -1.5534128e-22)
(0.093919386 0.00066962026 3.2387063e-22)
(0.093457604 0.00025959721 8.4104408e-21)
(0.093176092 0.00032074966 -2.6192153e-22)
(0.092997335 0.00022358221 -2.306067e-21)
(0.092912885 0.00014396463 1.8021366e-23)
(0.093214046 0.00026691984 3.2208044e-22)
(0.093672773 5.1905019e-05 0)
(0.093614148 -0.00067541307 0)
(0.093937499 -0.00023884042 -1.6785567e-20)
(0.094856412 -0.0012999149 -6.0385877e-22)
(0.095097219 -0.0016419112 1.5112038e-20)
(0.095203525 -0.0015442904 2.2351519e-22)
(0.097292649 -0.0034908492 5.8905592e-21)
(0.098841133 -0.0036490038 -1.2282757e-20)
(0.0985267 -0.0048158609 0)
(0.10086035 -0.0044440106 0)
(0.10430087 -0.006125899 0)
(0.10597506 -0.0081563103 1.3922798e-21)
(0.1069481 -0.0094994855 3.9184635e-22)
(0.10927247 -0.0092125355 1.61203e-20)
(0.11372751 -0.010455251 3.6432804e-21)
(0.11701912 -0.011758496 1.3673619e-21)
(0.11804748 -0.015231222 -6.5357968e-21)
(0.10302647 0.0034379446 1.8442238e-19)
(0.094149049 0.0020792665 2.0484736e-21)
(0.099321025 0.0010613754 1.5313869e-21)
(0.099046437 0.00010248667 4.5751301e-19)
(0.097856953 -0.00054204928 0)
(0.097328863 -0.00034814447 -3.0748553e-22)
(0.096849308 0.00055645739 1.9697418e-21)
(0.095744796 0.00063478929 2.5563942e-20)
(0.094749625 0.00093218713 -1.0404685e-23)
(0.094240558 -0.00013769061 -1.0418574e-20)
(0.093856352 0.00062834044 -1.0977042e-20)
(0.093674386 0.00037494484 0)
(0.093455923 0.00047308921 4.397965e-20)
(0.093645287 0.0001599081 -4.8333315e-21)
(0.094118092 0.00012360687 9.4164312e-22)
(0.093918533 -0.00037100916 -9.8152897e-22)
(0.094177122 -0.00059594446 -2.6262226e-21)
(0.09510972 -0.0014981032 3.1727057e-22)
(0.095335349 -0.0010745458 1.3592852e-20)
(0.095625399 -0.0013761332 2.3209941e-22)
(0.09746061 -0.0034035356 2.5072603e-22)
(0.099076722 -0.0027334993 -6.0100526e-21)
(0.09866535 -0.0034438929 1.6531141e-20)
(0.10055143 -0.0054561908 0)
(0.10442904 -0.0056286679 3.5687808e-21)
(0.10635426 -0.0072306062 3.2649706e-21)
(0.10688643 -0.008296557 -2.2629247e-20)
(0.10860522 -0.0092354683 -1.299624e-20)
(0.11304472 -0.010432881 3.6383231e-20)
(0.11708886 -0.0097096458 3.4197161e-21)
(0.11942236 -0.011291075 -7.0858826e-21)
(0.10319856 0.0018004381 -2.545725e-19)
(0.09472342 0.0013231409 -1.5031094e-20)
(0.099923036 -2.3632804e-06 -5.7867969e-22)
(0.099887389 -3.7305144e-05 -1.2507879e-19)
(0.09879894 -3.7275543e-05 -1.3388945e-20)
(0.098221754 -0.0009792531 2.4258945e-22)
(0.097639318 0.00039187526 2.0055469e-20)
(0.096368049 0.00087933155 2.3782976e-20)
(0.095446629 0.00077628369 9.2924117e-23)
(0.094845689 -0.00019526155 -1.2363049e-22)
(0.094409387 0.00076993276 6.251621e-21)
(0.094299344 0.0005150474 1.5684277e-22)
(0.094078333 0.00081383828 -1.6296141e-22)
(0.094218065 -7.6800664e-05 -1.7059822e-23)
(0.094628986 9.44151e-05 -6.5903296e-21)
(0.094418174 7.1203557e-05 -8.6568111e-23)
(0.094558744 -0.0006186534 -2.422953e-20)
(0.095292356 -0.0017353883 8.2322251e-22)
(0.095535415 -0.00078139074 1.3137814e-21)
(0.096233666 -0.0012140958 0)
(0.097734502 -0.003567196 1.3049178e-20)
(0.099149222 -0.0023069024 1.7181233e-22)
(0.099452969 -0.0014286978 6.1208518e-20)
(0.10086564 -0.0060532319 -1.2311056e-21)
(0.10405385 -0.0058583131 -8.3156973e-21)
(0.10661187 -0.005730443 3.7431992e-20)
(0.10744578 -0.006246777 2.0702107e-20)
(0.10862279 -0.0086730622 1.0071777e-22)
(0.11187639 -0.010532156 -5.9067039e-21)
(0.11567543 -0.0089059665 -2.3545461e-20)
(0.11925485 -0.0083774048 -2.2520809e-21)
(0.10357143 -0.00039816617 1.8684328e-19)
(0.09521638 0.00093629086 -2.0200854e-22)
(0.1003796 -0.0005239683 1.0997519e-19)
(0.1002842 0.00017550645 3.2254781e-21)
(0.099311892 0.00092360109 -1.9562277e-21)
(0.098670318 -0.00060025727 -1.7331114e-20)
(0.09796248 0.00030514118 0)
(0.096906084 0.00073862626 1.2388823e-22)
(0.096149026 0.00038032802 -1.5156235e-23)
(0.095304611 0.00033860102 -2.4502418e-20)
(0.094731247 0.00075585893 -2.586256e-23)
(0.094578896 0.0006806001 -1.1336394e-22)
(0.094441978 0.0010630756 -6.575598e-21)
(0.094538787 -8.6246805e-05 -9.0757267e-21)
(0.094849609 3.2335661e-05 1.3131534e-20)
(0.094762179 0.00036233461 2.8475205e-22)
(0.09506853 -0.00042680984 3.0254992e-22)
(0.095539616 -0.0014219039 -7.4231314e-23)
(0.095624131 -0.00037377502 0)
(0.096847031 -0.00084231835 2.5513778e-20)
(0.09807112 -0.0034057208 2.6595009e-20)
(0.098667087 -0.0022441818 3.847189e-20)
(0.10028484 0.00022515924 1.2659949e-20)
(0.10188712 -0.0047744792 5.8362045e-22)
(0.10348469 -0.0059368625 -1.3523955e-20)
(0.1061851 -0.0042787545 -2.8778176e-20)
(0.10799348 -0.003445787 -4.2641931e-21)
(0.10977742 -0.0065920557 -2.0926016e-20)
(0.11129365 -0.0093501949 -1.0817653e-21)
(0.11390538 -0.0087508898 -2.4022658e-20)
(0.11756374 -0.0076990763 -1.3957656e-21)
(0.10191322 -0.0015949054 4.160046e-19)
(0.095257604 0.00050532554 8.2732251e-23)
(0.10060827 -0.00034148849 5.0211105e-21)
(0.10039138 0.00035397036 -5.0285556e-19)
(0.099621473 0.0013983992 7.0767885e-22)
(0.099009261 0.00058068752 5.5999586e-20)
(0.098270591 0.00035987951 0)
(0.097516486 0.00017441699 0)
(0.096750885 -0.00030113903 5.5645911e-21)
(0.09580571 0.00084459535 0)
(0.095219405 0.00029699371 2.6310458e-20)
(0.094955339 0.00052014825 -2.0303219e-20)
(0.094887859 0.0007774384 0)
(0.094976233 0.00017596868 -2.9953499e-20)
(0.09511128 0.00022735743 1.093108e-20)
(0.095114355 0.00055267592 1.849771e-20)
(0.095596111 -0.0003475328 -3.2930583e-24)
(0.095744572 -0.00080091477 2.1350559e-21)
(0.095599039 -0.00018094854 1.6929571e-21)
(0.097254396 -0.00078804158 2.204907e-20)
(0.098399125 -0.0028012145 -3.2162567e-20)
(0.097981778 -0.002302224 2.9012816e-22)
(0.10055073 -0.00018364718 1.1947524e-20)
(0.1031898 -0.0027572951 3.7414786e-20)
(0.1034529 -0.0054711515 -6.4122646e-21)
(0.10504646 -0.003624169 -8.178175e-20)
(0.1079742 -0.0017451792 4.9871319e-21)
(0.11119115 -0.0041367164 -3.4340698e-21)
(0.11196669 -0.0068498687 -5.5729444e-20)
(0.11310603 -0.0078588242 1.475727e-20)
(0.11593807 -0.0079696593 3.0633733e-20)
(0.10028961 -0.0020447185 -4.2319507e-19)
(0.0947921 0.00045814421 -6.496066e-22)
(0.10035471 -1.3142209e-05 -3.5517385e-19)
(0.1002299 0.00051921831 5.1344729e-19)
(0.09955808 0.0014805288 -5.9896719e-20)
(0.099151677 0.0018347739 1.6991994e-22)
(0.098552608 0.00064270054 3.998364e-23)
(0.097719078 -7.8317775e-05 -1.7077643e-20)
(0.096774508 -0.00050293878 3.8349447e-20)
(0.096007193 0.0012761546 2.0978982e-21)
(0.095600429 -5.7045247e-05 -1.0575898e-20)
(0.095243985 0.00042975291 1.6522425e-22)
(0.095234147 0.00054374347 -1.8609059e-20)
(0.095238801 0.00060517201 -8.4103979e-21)
(0.095281037 0.00017865659 7.6227611e-21)
(0.095492419 0.00025037523 1.6441715e-20)
(0.096070728 -0.00061552122 -6.0558907e-21)
(0.096014034 -0.00022455301 2.2244389e-20)
(0.095880024 -0.00015794622 4.5447341e-22)
(0.097657107 -0.00069392328 -6.3391775e-21)
(0.098665585 -0.0011892882 -1.1137214e-20)
(0.097588457 -0.0013216221 5.538144e-21)
(0.10015039 -0.0017158664 5.6459437e-20)
(0.10382795 -0.0010861194 -1.5683895e-22)
(0.10379361 -0.0035634609 -9.6002184e-21)
(0.10383953 -0.0031324598 1.2749621e-20)
(0.10726291 -0.0017684199 5.8495131e-22)
(0.11157327 -0.0025521387 2.4560736e-21)
(0.11302487 -0.0037597032 1.536149e-20)
(0.11335482 -0.0055976258 -1.3461329e-20)
(0.1152979 -0.0070987178 2.0351105e-21)
(0.10162239 -0.00051313435 -4.4308161e-19)
(0.094712523 0.00042834403 -2.1044225e-22)
(0.1002921 0.00053883376 1.7209926e-21)
(0.10026465 5.3906143e-05 2.4905947e-21)
(0.099661178 0.00052812592 2.1021797e-20)
(0.099417443 0.001771982 -1.6730318e-19)
(0.098885393 0.00050411765 -1.0451043e-20)
(0.097871279 -0.0002315751 2.9905015e-20)
(0.096701857 -0.00040725031 2.1311142e-20)
(0.096107267 0.00079400665 -2.6064555e-22)
(0.095787409 -0.00026479348 -1.0971427e-20)
(0.09529867 0.00028759972 -6.6834506e-20)
(0.095314829 2.650739e-05 -4.7072066e-22)
(0.095500454 0.0010676048 -1.0849286e-20)
(0.095482899 0.00027407155 -6.2421764e-24)
(0.095639139 -0.00013110182 -3.6502142e-21)
(0.096073708 -0.0010708198 1.1877444e-20)
(0.095975613 -0.00021174195 0)
(0.095969908 -0.00065409321 2.168135e-22)
(0.097619357 -0.001439874 -2.2880092e-22)
(0.09871117 -0.0001103502 -5.0357062e-20)
(0.097989139 0.00039398607 2.8628395e-20)
(0.099682774 -0.0031798705 1.0775117e-21)
(0.10344693 -0.0012583249 1.6750399e-20)
(0.10425207 -0.0013634869 -7.7853726e-21)
(0.10351485 -0.0023121991 2.0657164e-20)
(0.10632176 -0.0031958689 5.6091202e-21)
(0.11080423 -0.0029803406 2.0166646e-20)
(0.11332662 -0.00210051 4.4452568e-20)
(0.11411599 -0.0032098086 2.2981683e-20)
(0.11522448 -0.0050724227 2.499971e-20)
(0.10398301 0.00082486025 7.0058429e-20)
(0.095397852 0.00054856937 6.989734e-20)
(0.10092661 0.00072118737 8.168423e-20)
(0.10098892 5.1793423e-05 3.1343895e-19)
(0.10018131 -0.00027220393 -3.176376e-22)
(0.09994273 0.00079190288 -9.3198902e-23)
(0.099473054 0.00022610727 -1.0799006e-22)
(0.098459605 6.8921036e-05 4.3844042e-20)
(0.09716586 0.00024491975 -2.3140539e-20)
(0.096507665 0.00011054189 1.0161378e-20)
(0.096073809 1.0958564e-05 1.4916374e-21)
(0.095523202 0.00031007086 1.3180127e-22)
(0.095357627 7.8928676e-05 8.1090491e-21)
(0.095431749 0.00094308582 -1.1517599e-23)
(0.095816488 -0.00010077424 3.0057533e-20)
(0.095941331 -0.00041259147 -1.1835993e-21)
(0.096156453 -0.00094921431 -7.70899e-23)
(0.096162981 0.00038157431 -1.4314656e-22)
(0.096344106 -0.00052839154 4.7188664e-20)
(0.097350109 -0.0016486946 -2.772028e-20)
(0.098140502 0.00080146017 1.3519954e-21)
(0.098778591 0.0015243821 -4.433101e-20)
(0.099744889 -0.0028513761 -1.273543e-21)
(0.10239804 -0.0019122909 6.0604467e-20)
(0.10424985 0.00061542791 -4.205023e-21)
(0.10438112 -0.00041251246 2.9687197e-20)
(0.10602435 -0.003893681 6.3603937e-20)
(0.10947583 -0.0041270548 2.7844504e-20)
(0.11231604 -0.0016278663 1.2202765e-20)
(0.1144568 -0.0010774385 -1.06512e-20)
(0.11554344 -0.0021704629 -7.0095012e-21)
(0.10387955 0.0028294505 -9.3522917e-19)
(0.09540312 0.00044323932 1.8927216e-21)
(0.10097387 0.00080022086 1.9785885e-21)
(0.10095726 -0.00021649409 4.4791879e-21)
(0.10009918 -0.0013422402 2.3127231e-22)
(0.09986079 -0.0007953737 -7.1593124e-22)
(0.099484705 -0.00057604661 9.4804658e-23)
(0.098506939 -3.3675891e-05 2.5869569e-22)
(0.097357551 0.00056618265 -8.5256944e-24)
(0.09677772 -0.00096777549 1.1651159e-22)
(0.096294384 0.00052095036 -1.124614e-22)
(0.095856614 0.00015289113 -2.6089165e-20)
(0.095642153 -0.00012441168 -1.6577859e-20)
(0.096040502 0.00094985302 1.6959896e-23)
(0.096246976 -0.00037827368 -2.3399637e-22)
(0.096197338 -0.00080924452 -2.963059e-22)
(0.096139267 -0.0010641559 -6.0018868e-22)
(0.09638029 0.00048311432 -4.626619e-22)
(0.09702376 -0.00021051522 -6.0625448e-20)
(0.097409044 -0.0021217177 1.8674426e-20)
(0.098051482 0.00063877248 4.2582175e-20)
(0.099728331 0.0011421273 1.0987564e-22)
(0.10053586 -0.0022420412 1.1849615e-21)
(0.10180481 -0.0028336143 -7.3251853e-22)
(0.1040114 0.00092496054 -1.6628503e-20)
(0.1056679 0.00071523663 -1.332953e-20)
(0.10708845 -0.0038418921 1.9411763e-22)
(0.10854311 -0.0047096619 -6.4349861e-21)
(0.1108506 -0.0019915214 3.0501945e-20)
(0.11389088 -0.0004425107 -2.9177534e-20)
(0.11525514 -0.00055986893 -2.5485419e-20)
(0.10001394 0.0021022605 -1.2623529e-20)
(0.094854215 0.00032561523 -1.3675495e-19)
(0.10061312 0.00018589155 -2.1961586e-19)
(0.10094716 -0.00026914638 -5.7848878e-19)
(0.1002751 -0.0013609818 -4.5921775e-20)
(0.10033952 -0.0012243377 8.2937575e-20)
(0.10010215 -0.00055243878 -2.1180897e-21)
(0.099326395 9.319014e-05 -7.3305366e-23)
(0.09868876 0.0008885525 2.5243115e-20)
(0.098249522 -0.0011067916 7.9901876e-21)
(0.098010694 0.00062064205 1.9988527e-21)
(0.098060845 8.165067e-05 -3.3667883e-22)
(0.097748458 0.00033154722 2.4667556e-21)
(0.098216452 0.00082098879 -2.6400616e-20)
(0.098807555 -0.00030104344 2.8702097e-22)
(0.098707523 -0.00081618427 6.0700513e-21)
(0.098406073 -0.0004584817 1.6895469e-22)
(0.098790609 0.00075719411 -3.4233701e-20)
(0.10019011 0.00036606098 4.3643821e-22)
(0.10003099 -0.0010601787 5.6382369e-21)
(0.10017853 0.0013122996 -2.4579578e-20)
(0.1026892 0.00040078861 -1.6567371e-22)
(0.10375078 -0.00032367364 1.3254942e-21)
(0.10345733 -0.0019667214 -2.6593483e-20)
(0.10508371 0.00033180762 1.9207736e-21)
(0.10850129 0.0010197817 -1.4315812e-20)
(0.11043102 -0.0025101549 -1.1609531e-19)
(0.11004216 -0.0036397545 0)
(0.11132318 -0.0016630033 -3.2655232e-20)
(0.1149185 -0.00018199003 -9.1591252e-20)
(0.11715577 0.00085424598 2.2155658e-20)
(0.098267658 0.00096687477 1.9188635e-19)
(0.098873418 -4.3028084e-05 0)
(0.10671999 0.00020243883 3.3476634e-22)
(0.1042693 -0.00054085106 -6.433046e-20)
(0.11034807 -0.00047255375 -1.9287519e-21)
(0.10815893 -0.00017172663 1.4217259e-21)
(0.10603239 -0.00049876036 -1.3631667e-20)
(0.11075192 -0.00013028584 1.3855563e-20)
(0.10551575 -0.00012643338 1.2266879e-20)
(0.11163179 -0.00038737472 7.9585881e-22)
(0.10688687 0.00044086157 3.3663975e-22)
(0.11108125 -0.00029389336 1.9459192e-20)
(0.11032167 3.237374e-05 -4.6206078e-21)
(0.10865956 0.0011959922 -1.3448475e-20)
(0.10089666 -0.00043849276 8.1788632e-21)
(0.11154751 -0.00052129886 3.0657677e-22)
(0.10479465 -0.00059089728 9.5605952e-22)
(0.11352259 -5.7233423e-05 -1.7218074e-20)
(0.10909893 0.00052236414 1.1684636e-20)
(0.1122101 -0.0011946775 -3.6993404e-22)
(0.11301425 0.00079492748 -9.7537358e-21)
(0.10739803 0.00084714248 -3.4739102e-23)
(0.11408351 -0.0022234063 -2.0100458e-21)
(0.11581276 0.000573385 5.7272115e-21)
(0.10451751 0.00054691822 5.5209471e-21)
(0.11994505 -0.00043929069 -1.484584e-20)
(0.11416535 -0.00075620333 5.4107326e-22)