-0.5 	1.016489
-0.48412699 	1.0120924
-0.46825397 	1.0053431
-0.45238095 	0.99848454
-0.43650794 	0.99831537
-0.42063492 	0.9997116
-0.40476191 	0.99927599
-0.3888889 	0.99791669
-0.37301588 	0.99720647
-0.35714287 	0.99672432
-0.34126985 	0.99585088
-0.32539684 	0.99418754
-0.30952379 	0.99210017
-0.29365078 	0.99076548
-0.27777776 	0.99057173
-0.26190475 	0.99102391
-0.24603173 	0.99131071
-0.23015872 	0.99071406
-0.2142857 	0.98980482
-0.19841269 	0.98890568
-0.18253967 	0.98811198
-0.16666666 	0.98742858
-0.15079364 	0.98767374
-0.13492063 	0.98832706
-0.11904758 	0.98907116
-0.10317457 	0.98920077
-0.087301552 	0.98916875
-0.071428537 	0.98927883
-0.055555522 	0.98963648
-0.039682507 	0.99008507
-0.023809493 	0.99034654
-0.0079364777 	0.99044391
0.0079365373 	0.99034128
0.023809552 	0.99049038
0.039682567 	0.99096387
0.055555582 	0.99186635
0.071428597 	0.99301822
0.087301612 	0.99399598
0.10317463 	0.99481629
0.11904764 	0.99548948
0.13492066 	0.99569054
0.15079367 	0.99538673
0.16666669 	0.99458053
0.1825397 	0.9936849
0.19841272 	0.9937059
0.21428573 	0.99438069
0.23015875 	0.99528257
0.24603176 	0.9953501
0.26190484 	0.99448994
0.27777785 	0.99416324
0.29365087 	0.99442031
0.30952388 	0.9948046
0.3253969 	0.99481594
0.34126991 	0.99453801
0.35714292 	0.99440709
0.37301594 	0.99484086
0.38888895 	0.9952249
0.40476197 	0.99510712
0.42063499 	0.99518257
0.436508 	0.99665035
0.45238101 	0.99860308
0.46825403 	0.99828578
0.48412704 	1.0019817
0.5 	0.99106037
