/*--------------------------------*- C++ -*----------------------------------*\
| =========                 |                                                 |
| \\      /  F ield         | OpenFOAM: The Open Source CFD Toolbox           |
|  \\    /   O peration     | Version:  2406                                  |
|   \\  /    A nd           | Website:  www.openfoam.com                      |
|    \\/     M anipulation  |                                                 |
\*---------------------------------------------------------------------------*/
FoamFile
{
    version     2.0;
    format      ascii;
    arch        "LSB;label=32;scalar=64";
    class       volScalarField;
    location    "130";
    object      k;
}
// * * * * * * * * * * * * * * * * * * * * * * * * * * * * * * * * * * * * * //

dimensions      [0 2 -2 0 0 0 0];

internalField   nonuniform List<scalar> 
20580
(
3.1927137e-06
2.4718135e-06
1.9330044e-06
1.5815917e-06
1.3462968e-06
1.174949e-06
1.0402751e-06
9.3964558e-07
8.5998436e-07
7.9461705e-07
7.4112855e-07
6.9407132e-07
6.5578861e-07
6.1984235e-07
5.900377e-07
5.6441872e-07
5.4480221e-07
5.2942746e-07
5.2021886e-07
5.0733284e-07
5.0078441e-07
4.8925948e-07
4.8241142e-07
4.8792669e-07
5.0144026e-07
5.2010526e-07
5.2888571e-07
5.2989885e-07
5.4287468e-07
5.7882693e-07
6.1469476e-07
3.205156e-06
2.5003777e-06
1.9865859e-06
1.6456666e-06
1.4001734e-06
1.2164634e-06
1.0662628e-06
9.5775829e-07
8.736994e-07
8.046839e-07
7.5054143e-07
7.0243172e-07
6.6432522e-07
6.2872261e-07
5.9688279e-07
5.6884424e-07
5.4911657e-07
5.3535802e-07
5.284553e-07
5.1723372e-07
5.1441929e-07
5.1100612e-07
5.0275264e-07
5.0707363e-07
5.2616075e-07
5.5930982e-07
6.0541664e-07
6.2089828e-07
6.4703992e-07
6.5654728e-07
6.451781e-07
3.2107552e-06
2.5095943e-06
1.9965114e-06
1.6924506e-06
1.4626358e-06
1.2778854e-06
1.1202005e-06
9.9732715e-07
9.0238522e-07
8.259834e-07
7.6767636e-07
7.1692893e-07
6.7440259e-07
6.3792129e-07
6.0496606e-07
5.7452313e-07
5.5324661e-07
5.3794083e-07
5.3004203e-07
5.1734516e-07
5.1469654e-07
5.1394036e-07
5.0851358e-07
5.1087541e-07
5.2604088e-07
5.5869696e-07
6.033881e-07
6.3525334e-07
6.6443299e-07
7.5070738e-07
7.5598202e-07
3.2202562e-06
2.5177614e-06
1.9932064e-06
1.6983172e-06
1.4878249e-06
1.3185294e-06
1.171825e-06
1.048114e-06
9.4860348e-07
8.6703248e-07
8.0006304e-07
7.4305204e-07
6.9281834e-07
6.5051921e-07
6.1419381e-07
5.8059254e-07
5.5663122e-07
5.4041243e-07
5.3120456e-07
5.182654e-07
5.1469652e-07
5.1350196e-07
5.1028863e-07
5.1285332e-07
5.2592473e-07
5.5635706e-07
6.0540694e-07
6.4922081e-07
6.6662118e-07
7.2594976e-07
7.9985082e-07
3.2290073e-06
2.5347712e-06
1.9915353e-06
1.6933393e-06
1.4858118e-06
1.3265159e-06
1.1873432e-06
1.0762554e-06
9.8247412e-07
9.0350669e-07
8.3475661e-07
7.7388401e-07
7.1792315e-07
6.6875548e-07
6.2849972e-07
5.9056114e-07
5.6242138e-07
5.4397931e-07
5.3228205e-07
5.2020757e-07
5.1590141e-07
5.1411183e-07
5.1302881e-07
5.1728645e-07
5.2947787e-07
5.5953295e-07
6.0188345e-07
6.8181768e-07
7.124131e-07
7.8145289e-07
8.2023757e-07
3.2392036e-06
2.5518822e-06
1.9890204e-06
1.6794813e-06
1.4701279e-06
1.3138638e-06
1.1801576e-06
1.0740112e-06
9.8793877e-07
9.1338816e-07
8.4671881e-07
7.8818157e-07
7.3502585e-07
6.867881e-07
6.4347031e-07
6.0644091e-07
5.7512372e-07
5.5220739e-07
5.3620416e-07
5.2456378e-07
5.1883937e-07
5.1561475e-07
5.1358168e-07
5.1799221e-07
5.2853142e-07
5.5414128e-07
5.9292039e-07
6.8073963e-07
7.3072958e-07
8.6033544e-07
8.9228147e-07
3.2740421e-06
2.5414965e-06
1.9698892e-06
1.6445347e-06
1.4211463e-06
1.2607467e-06
1.1406047e-06
1.0492576e-06
9.7534495e-07
9.0631151e-07
8.4481883e-07
7.8660778e-07
7.3899645e-07
6.9480393e-07
6.5823591e-07
6.2017511e-07
5.9564522e-07
5.71144e-07
5.5021259e-07
5.3626165e-07
5.2666909e-07
5.1971032e-07
5.1308879e-07
5.1479477e-07
5.2099886e-07
5.3210121e-07
5.6005123e-07
6.4724307e-07
7.16333e-07
8.4197017e-07
9.3845626e-07
3.6143734e-06
2.7124606e-06
2.0287561e-06
1.6550688e-06
1.4091244e-06
1.2280018e-06
1.0954631e-06
9.9536987e-07
9.2959702e-07
8.6963642e-07
8.2180434e-07
7.734272e-07
7.3347321e-07
6.9360117e-07
6.6034335e-07
6.3007458e-07
6.0772454e-07
5.9023322e-07
5.7032271e-07
5.6159949e-07
5.4953287e-07
5.3749247e-07
5.239777e-07
5.2108503e-07
5.2425573e-07
5.2631552e-07
5.348067e-07
5.6824192e-07
6.3737094e-07
7.1776407e-07
8.9587112e-07
5.7288028e-06
4.4856365e-06
2.6693465e-06
1.9173015e-06
1.5253782e-06
1.2815159e-06
1.1129681e-06
9.9722791e-07
9.1281982e-07
8.4429784e-07
7.9014537e-07
7.426343e-07
7.0773846e-07
6.7652928e-07
6.4938158e-07
6.2600623e-07
6.0614279e-07
5.9018029e-07
5.7544818e-07
5.7093115e-07
5.6476301e-07
5.5751782e-07
5.5351418e-07
5.5407153e-07
5.5268045e-07
5.5090875e-07
5.5418044e-07
5.7812186e-07
6.3834001e-07
6.9098616e-07
7.891721e-07
4.8576727e-06
4.6599569e-06
3.8390695e-06
2.9707528e-06
2.2038762e-06
1.6421246e-06
1.3041983e-06
1.0981249e-06
9.6736e-07
8.7595184e-07
8.0697313e-07
7.5152585e-07
7.081078e-07
6.7362975e-07
6.4203004e-07
6.1759029e-07
5.9574602e-07
5.7978779e-07
5.6855291e-07
5.6561138e-07
5.625902e-07
5.626944e-07
5.6877878e-07
5.8003615e-07
5.991689e-07
6.1328802e-07
6.3623246e-07
6.6401977e-07
7.0602252e-07
7.5990807e-07
8.3204792e-07
3.1207512e-06
3.2836697e-06
3.4473062e-06
3.3340665e-06
2.9843497e-06
2.5478272e-06
2.0732907e-06
1.6557804e-06
1.3444013e-06
1.1386962e-06
9.9484131e-07
8.9001595e-07
8.0679308e-07
7.4428509e-07
6.9168777e-07
6.5194447e-07
6.1848215e-07
5.932038e-07
5.7655023e-07
5.6876353e-07
5.6284964e-07
5.6397127e-07
5.7331681e-07
5.8775943e-07
6.0083607e-07
6.2974682e-07
6.6056601e-07
7.2922121e-07
7.730921e-07
8.8755118e-07
9.3974282e-07
3.4281928e-06
2.9172598e-06
2.5155746e-06
2.4926506e-06
2.4780789e-06
2.4014496e-06
2.2323565e-06
2.1222342e-06
2.0018159e-06
1.8633706e-06
1.7102895e-06
1.5440234e-06
1.3750244e-06
1.2184376e-06
1.0732689e-06
9.4287758e-07
8.3679035e-07
7.5673106e-07
6.9754547e-07
6.5702082e-07
6.2472992e-07
6.0205279e-07
6.0196826e-07
6.066504e-07
6.1042036e-07
6.2458604e-07
6.4956087e-07
6.9466905e-07
7.4199552e-07
8.4881017e-07
9.7998787e-07
4.1515643e-06
3.5628994e-06
2.6848699e-06
2.2723428e-06
1.972092e-06
1.7847118e-06
1.7355591e-06
1.7428368e-06
1.7712254e-06
1.7694372e-06
1.7381644e-06
1.6862195e-06
1.6245393e-06
1.5496987e-06
1.4845599e-06
1.4108704e-06
1.3340069e-06
1.2560845e-06
1.1694728e-06
1.0997377e-06
1.0126626e-06
9.3295183e-07
8.6383374e-07
8.0392665e-07
7.525567e-07
7.15774e-07
7.0167733e-07
7.1522e-07
7.3846432e-07
7.9218466e-07
8.6581564e-07
3.4100438e-06
3.1519528e-06
2.6825669e-06
2.3380839e-06
2.0189175e-06
1.7624718e-06
1.5731228e-06
1.4374509e-06
1.3546074e-06
1.308012e-06
1.2940672e-06
1.2793555e-06
1.2665576e-06
1.255484e-06
1.2553064e-06
1.2576433e-06
1.2493013e-06
1.2316818e-06
1.2078906e-06
1.1902862e-06
1.175588e-06
1.1625189e-06
1.1651216e-06
1.171748e-06
1.1551518e-06
1.1221413e-06
1.0890747e-06
1.0510558e-06
1.0209388e-06
1.0133565e-06
9.9416833e-07
3.9615548e-06
3.299097e-06
2.5716575e-06
2.1823687e-06
1.9061753e-06
1.678768e-06
1.5031993e-06
1.3729224e-06
1.2831712e-06
1.2135652e-06
1.1523754e-06
1.0959963e-06
1.0492608e-06
1.0053982e-06
9.7342207e-07
9.5050827e-07
9.329535e-07
9.2901764e-07
9.345068e-07
9.4554746e-07
9.6572602e-07
1.0052981e-06
1.0441631e-06
1.1180477e-06
1.1554086e-06
1.2168806e-06
1.2617899e-06
1.3555403e-06
1.4189443e-06
1.5362142e-06
1.5272555e-06
3.4425872e-06
3.129309e-06
2.5466726e-06
2.1426826e-06
1.8219346e-06
1.5564399e-06
1.3553282e-06
1.2348919e-06
1.1462207e-06
1.0901573e-06
1.0495344e-06
1.0136355e-06
9.7962088e-07
9.4591082e-07
9.1767668e-07
8.9067719e-07
8.6603937e-07
8.3736354e-07
8.2253691e-07
8.0350419e-07
8.0442378e-07
8.151373e-07
8.3128842e-07
8.7982511e-07
9.3704336e-07
1.0423851e-06
1.1117015e-06
1.2267144e-06
1.3458329e-06
1.4863033e-06
1.6454748e-06
3.4955757e-06
2.9789441e-06
2.4017477e-06
2.0087311e-06
1.7169773e-06
1.4843096e-06
1.2960841e-06
1.1631137e-06
1.0554737e-06
9.8138834e-07
9.2839795e-07
8.8146565e-07
8.431811e-07
8.2014303e-07
8.0512456e-07
7.9023596e-07
7.7840353e-07
7.6579913e-07
7.5937789e-07
7.4954515e-07
7.520634e-07
7.6230183e-07
7.7114914e-07
7.8476328e-07
8.2057533e-07
8.6634178e-07
9.2264939e-07
9.5703629e-07
1.0459303e-06
1.1392877e-06
1.3684253e-06
3.710982e-06
3.1518332e-06
2.4383047e-06
2.004598e-06
1.6911891e-06
1.4513113e-06
1.2637795e-06
1.1205262e-06
1.0099293e-06
9.2680622e-07
8.6365031e-07
8.1019891e-07
7.641952e-07
7.3071084e-07
7.0129065e-07
6.7976599e-07
6.6021179e-07
6.4484339e-07
6.3123872e-07
6.2618557e-07
6.312493e-07
6.4264191e-07
6.5089072e-07
6.5886754e-07
6.8273293e-07
7.13851e-07
7.4934269e-07
7.6641466e-07
8.0381324e-07
8.4131742e-07
9.289035e-07
3.2241752e-06
2.6610517e-06
2.1819515e-06
1.8402841e-06
1.5760012e-06
1.3658882e-06
1.2072942e-06
1.0866281e-06
9.9258813e-07
9.1765525e-07
8.5826537e-07
8.0585106e-07
7.6235724e-07
7.2468708e-07
6.9401962e-07
6.6507137e-07
6.4346111e-07
6.2177521e-07
6.0618993e-07
5.9347548e-07
5.9128085e-07
5.9821591e-07
6.035289e-07
6.0962343e-07
6.2708202e-07
6.5733104e-07
6.8643901e-07
7.2521836e-07
7.5835433e-07
8.0578429e-07
8.6189677e-07
3.5362044e-06
3.1931801e-06
2.4268442e-06
2.007139e-06
1.7024346e-06
1.4872985e-06
1.326979e-06
1.2002338e-06
1.101207e-06
1.0302354e-06
9.7293904e-07
9.2808232e-07
8.88153e-07
8.591971e-07
8.3177149e-07
8.0515448e-07
7.8419941e-07
7.6691355e-07
7.5717581e-07
7.5267465e-07
7.5783334e-07
7.7846133e-07
7.965225e-07
8.0973476e-07
8.3117279e-07
8.7595725e-07
9.1451985e-07
9.6423748e-07
9.8423671e-07
1.0570612e-06
1.0541077e-06
3.3662175e-06
3.206119e-06
2.7801253e-06
2.5403582e-06
2.3096644e-06
2.1722079e-06
2.0464775e-06
1.9352084e-06
1.8625461e-06
1.8258222e-06
1.7970548e-06
1.8239312e-06
1.8219726e-06
1.8783676e-06
1.9094929e-06
1.9120354e-06
1.9498589e-06
1.9817314e-06
2.0145783e-06
2.0572487e-06
2.0937277e-06
2.1809305e-06
2.2365378e-06
2.25822e-06
2.294569e-06
2.381342e-06
2.4655131e-06
2.5162336e-06
2.517235e-06
2.5571856e-06
2.4579843e-06
4.7549695e-06
1.1909168e-05
8.6817772e-06
8.3342252e-06
7.7166551e-06
7.8965315e-06
7.4492786e-06
7.3081729e-06
7.1692079e-06
7.427212e-06
7.3743714e-06
7.7891449e-06
7.7202847e-06
8.2398266e-06
8.2257427e-06
8.4242437e-06
8.7042207e-06
8.8535335e-06
9.0145657e-06
9.1533705e-06
9.2204881e-06
9.4071186e-06
9.51003e-06
9.4937278e-06
9.4589611e-06
9.5192765e-06
9.5749276e-06
9.5640416e-06
9.4729589e-06
9.3513489e-06
9.0428559e-06
2.33259e-05
9.6765927e-05
5.3708136e-05
5.5853767e-05
4.6589945e-05
4.0750743e-05
4.2619706e-05
3.822376e-05
3.6600701e-05
3.464807e-05
3.3948761e-05
3.2741545e-05
3.2609033e-05
3.1530819e-05
3.1577713e-05
3.0875744e-05
3.0610539e-05
3.026409e-05
2.9986054e-05
2.9755289e-05
2.9534694e-05
2.8895254e-05
2.8533417e-05
2.7930302e-05
2.7845112e-05
2.7061717e-05
2.6560419e-05
2.5600532e-05
2.5467693e-05
2.4617658e-05
2.4175357e-05
2.2687876e-05
9.9070257e-06
2.9502965e-06
1.2445414e-06
9.5124906e-07
9.7681704e-07
1.364414e-06
1.7872786e-06
1.7216922e-06
1.2118418e-06
1.0008763e-06
1.0963279e-06
1.0538576e-06
9.1528577e-07
8.6379861e-07
9.5880139e-07
1.055843e-06
1.0729238e-06
1.0177162e-06
9.0109693e-07
8.5017562e-07
7.4050106e-07
6.8848722e-07
2.2545137e-05
1.0643204e-05
3.4563208e-06
1.4702957e-06
1.0509861e-06
1.0114627e-06
1.3401145e-06
2.0370531e-06
2.1045419e-06
1.7007889e-06
1.2147038e-06
1.3278107e-06
1.299269e-06
1.1630999e-06
9.9582756e-07
1.0473403e-06
1.2167239e-06
1.2369547e-06
1.2072297e-06
1.0911924e-06
1.0509254e-06
9.1604073e-07
8.0075545e-07
2.1282848e-05
1.1658754e-05
4.2655664e-06
1.9115415e-06
1.2738484e-06
1.1136174e-06
1.3946326e-06
2.2495725e-06
2.4878812e-06
2.2900626e-06
1.5004121e-06
1.5411705e-06
1.5786212e-06
1.5228697e-06
1.3344939e-06
1.2555966e-06
1.4362697e-06
1.4966615e-06
1.4537945e-06
1.2838054e-06
1.2321478e-06
1.1380961e-06
9.5931722e-07
1.9919828e-05
1.2080269e-05
4.969871e-06
2.5213145e-06
1.7194242e-06
1.3585006e-06
1.6191168e-06
2.5511687e-06
2.845562e-06
2.752194e-06
1.8952807e-06
1.7819108e-06
1.8546322e-06
1.850126e-06
1.7420552e-06
1.5663086e-06
1.6416357e-06
1.8332991e-06
1.8623226e-06
1.7563153e-06
1.5412899e-06
1.4784383e-06
1.2282434e-06
1.7764081e-05
1.284259e-05
6.0661521e-06
3.2961915e-06
2.2124189e-06
1.6566065e-06
1.8968495e-06
3.1219783e-06
3.457794e-06
3.3920845e-06
2.5912143e-06
2.1256329e-06
2.2176758e-06
2.1903747e-06
2.0491118e-06
1.8342945e-06
1.8321677e-06
2.0516579e-06
2.1570182e-06
2.2288189e-06
2.116458e-06
2.0549023e-06
1.831738e-06
1.6600952e-05
1.3596436e-05
7.3146149e-06
4.471612e-06
2.9161851e-06
2.0770311e-06
2.237342e-06
3.6887609e-06
4.5857749e-06
4.7757227e-06
4.3152923e-06
2.9518709e-06
2.9783517e-06
2.8808537e-06
2.5843802e-06
2.2348524e-06
2.0899509e-06
2.2861673e-06
2.4742344e-06
2.6049e-06
2.6237239e-06
2.4914134e-06
2.3717809e-06
1.6321959e-05
1.4388497e-05
8.9159217e-06
5.9167265e-06
4.1288664e-06
2.9532193e-06
2.7965433e-06
4.0917867e-06
5.6990197e-06
6.4290875e-06
6.6238754e-06
4.9175427e-06
4.5790067e-06
4.4616539e-06
3.8780116e-06
3.3914242e-06
2.7940247e-06
2.8585647e-06
3.0907973e-06
3.1383278e-06
3.1304359e-06
2.9508968e-06
2.8370758e-06
1.6367158e-05
1.4865312e-05
1.0818357e-05
8.0854832e-06
5.8811531e-06
4.0538728e-06
3.5141017e-06
5.1031099e-06
7.2263644e-06
7.8308005e-06
8.5641991e-06
7.1170479e-06
5.8789453e-06
5.9718459e-06
5.5322028e-06
4.9515502e-06
4.3834266e-06
4.2403187e-06
4.7477361e-06
4.5517979e-06
4.2075248e-06
3.7450643e-06
3.4041921e-06
1.6015002e-05
1.5186942e-05
1.3007316e-05
1.0444851e-05
8.2290844e-06
5.9776115e-06
5.1149145e-06
7.6723957e-06
9.9984563e-06
9.9609278e-06
1.0354427e-05
9.3164354e-06
7.3179132e-06
7.4922253e-06
7.3475406e-06
6.4928149e-06
5.9850769e-06
5.7547902e-06
6.2411231e-06
6.893157e-06
6.238763e-06
5.8790504e-06
5.0779118e-06
1.6652834e-05
1.5687418e-05
1.5810292e-05
1.513047e-05
1.2959571e-05
9.4995521e-06
7.8718101e-06
1.2467036e-05
1.5604717e-05
1.4471611e-05
1.4082505e-05
1.3104717e-05
1.0423903e-05
1.0608194e-05
1.059581e-05
9.4515781e-06
8.1119988e-06
7.4175222e-06
7.6321692e-06
8.7539762e-06
8.5736621e-06
7.8438315e-06
7.4394642e-06
1.878349e-05
1.7734096e-05
1.9896764e-05
2.0971309e-05
2.08776e-05
1.6968702e-05
1.2703561e-05
1.8788185e-05
2.5655617e-05
2.4496562e-05
2.2929876e-05
2.2421795e-05
1.85981e-05
1.8271079e-05
1.8622711e-05
1.6572834e-05
1.1955355e-05
9.9177532e-06
9.4253801e-06
1.0656502e-05
1.1074329e-05
1.0527425e-05
1.0073147e-05
2.1335032e-05
2.0723824e-05
2.4461264e-05
2.6322742e-05
2.7169883e-05
2.6519033e-05
2.2276088e-05
3.0326539e-05
4.3275443e-05
4.2192244e-05
3.9313636e-05
4.1208132e-05
3.7246575e-05
3.6213265e-05
3.8200377e-05
3.3480956e-05
2.0675205e-05
1.5229428e-05
1.2978502e-05
1.3769582e-05
1.5606987e-05
1.5546178e-05
1.3988338e-05
2.5506921e-05
2.5908347e-05
3.1579819e-05
3.7118479e-05
4.3487661e-05
4.6019027e-05
4.4588492e-05
5.8885686e-05
8.1311034e-05
7.8063541e-05
6.9758174e-05
7.36041e-05
7.411742e-05
7.4804334e-05
7.9839506e-05
6.8806973e-05
4.0256814e-05
2.6840732e-05
2.1390787e-05
2.1828987e-05
2.7330381e-05
2.789432e-05
2.3423429e-05
2.9266416e-05
3.1024036e-05
4.0419758e-05
4.9748333e-05
6.3656756e-05
7.4171667e-05
8.9377994e-05
0.00012402171
0.00014691
0.00014583427
0.00013696169
0.00014675117
0.00015855941
0.00015316478
0.00016271316
0.00014981784
9.4330267e-05
5.4312474e-05
4.1631425e-05
4.101258e-05
5.7927793e-05
6.1914955e-05
5.0434355e-05
3.6504964e-05
3.8087565e-05
4.642715e-05
5.691089e-05
7.9652732e-05
0.00012027551
0.00017875926
0.00023697153
0.00023975604
0.00021363071
0.00018474516
0.00019670549
0.00025609304
0.00030928489
0.00032901165
0.0002761105
0.00015798655
0.00010626822
8.750102e-05
8.0653801e-05
0.00010931162
0.00011186042
8.8817152e-05
3.9947684e-05
4.3154007e-05
5.2539394e-05
6.5502084e-05
9.846029e-05
0.00017606185
0.00031590912
0.00040779083
0.00039219207
0.00030258615
0.00024074581
0.00025347434
0.00036954474
0.00059571597
0.00064565485
0.00049297863
0.00024924714
0.0001685514
0.00015540618
0.00016097552
0.00021659734
0.00020710151
0.00014102592
4.664871e-05
5.0692286e-05
6.1984403e-05
7.9052968e-05
0.00012532649
0.00024717334
0.00048622539
0.00060925769
0.00057746525
0.00043201395
0.0003579262
0.00040154224
0.00066595811
0.0011057294
0.0012159638
0.00093896826
0.00044462956
0.00029801693
0.00031372655
0.00041841932
0.00056288077
0.00046303809
0.00022802
5.1172046e-05
5.6296661e-05
6.8452512e-05
9.0484239e-05
0.0001525975
0.0003267733
0.00065797373
0.00081029387
0.00076212289
0.00059080957
0.00053339038
0.0006499724
0.0010985121
0.0016118696
0.0017336054
0.0014060753
0.00073667661
0.00051866936
0.00056708689
0.00081438561
0.00095847942
0.00070211498
0.00030826936
5.1986576e-05
5.9935724e-05
7.7337579e-05
0.0001060556
0.00018478743
0.00040444874
0.00080065001
0.00097462671
0.00091038574
0.00073819055
0.00069797377
0.0008868556
0.0014929045
0.0020423522
0.0021422306
0.0017564404
0.00095971649
0.00069274136
0.00075943857
0.0010657971
0.0011980432
0.0008656579
0.00039604262
5.0378816e-05
6.2198762e-05
8.7055321e-05
0.00012841852
0.00023392827
0.00050599843
0.00092959479
0.0011112518
0.0010479547
0.0009171934
0.00090701641
0.0011573082
0.0018902274
0.0024297124
0.0024643953
0.0020058583
0.0012122887
0.00099537714
0.0011866902
0.0016113917
0.001656992
0.0011216601
0.00055819042
4.7917773e-05
6.4250517e-05
9.8279663e-05
0.00016222792
0.00031008699
0.00063464924
0.0010354503
0.0012120942
0.0011834011
0.0011141775
0.0011562542
0.00148471
0.0023049319
0.00281318
0.0027553653
0.0022016192
0.0017095815
0.0017250467
0.0022383064
0.0026850403
0.002462848
0.0015614464
0.00088758893
4.8080291e-05
6.6912922e-05
0.00010922027
0.00019684466
0.00038596299
0.00073566355
0.0011175079
0.0013001249
0.0013207852
0.0013309941
0.001437051
0.0018662811
0.002758019
0.0032040082
0.0030386021
0.0025031082
0.0023128309
0.0025887953
0.0032348957
0.003478682
0.0030496199
0.0019074247
0.0013225895
5.0568908e-05
7.0451206e-05
0.00011954841
0.00022507993
0.00044648158
0.00082246732
0.0011733769
0.0013706099
0.0014576679
0.0015553856
0.001778863
0.0023787221
0.0031869366
0.0035239327
0.0033010403
0.0030082989
0.0029833723
0.0033960488
0.0037752029
0.0038244254
0.003272732
0.0023135082
0.0019962573
5.3541422e-05
7.4360183e-05
0.00013007523
0.00025621733
0.00052066406
0.00092578989
0.0012471742
0.0014755658
0.0016454915
0.001835469
0.0022314481
0.0029393527
0.0036409151
0.0038651453
0.003693483
0.0035470785
0.0036706957
0.0040497874
0.0041997314
0.0040549871
0.0034815239
0.0029733285
0.0030457837
5.5788567e-05
7.7117548e-05
0.00014056109
0.00029090869
0.00061415466
0.0010348257
0.0013712216
0.001674638
0.0019639699
0.0022731707
0.0027916893
0.003403697
0.0039124543
0.0041354957
0.0041382795
0.0041261618
0.0043605657
0.0045126697
0.0045538694
0.0043533989
0.003901939
0.0038775947
0.0041252713
5.8027779e-05
7.9672399e-05
0.00015004385
0.00032748526
0.00072812989
0.0011807578
0.0015923264
0.0020204358
0.0024036773
0.0027640356
0.003200949
0.0035862486
0.0039945131
0.0043658171
0.0045743298
0.0047744153
0.0049696637
0.0050349256
0.0050246586
0.0048477992
0.0046513325
0.0045790931
0.0044265848
6.2316377e-05
9.1455998e-05
0.00018161186
0.00041388915
0.00087269791
0.0013305304
0.0018223012
0.0023524349
0.0027562226
0.00306355
0.0033732684
0.0036759163
0.004117426
0.0046110685
0.0050160566
0.0053732796
0.0055206772
0.0055835983
0.0055792286
0.0053444775
0.0049462969
0.0045061351
0.0041650411
6.9580894e-05
0.00011321799
0.00024278929
0.00054117857
0.00097752924
0.0013979644
0.0019227365
0.0025068894
0.002921772
0.0032358552
0.0035282204
0.0038710056
0.0043840315
0.0048756049
0.0052902645
0.00562324
0.005796296
0.0058544689
0.0056927532
0.0052854993
0.0047490135
0.0042655968
0.0039734085
7.7945218e-05
0.00013776201
0.00030702794
0.00064022625
0.0010375195
0.0014063551
0.0019033965
0.002483208
0.0029735742
0.0033997388
0.0037476796
0.0041649064
0.0046857847
0.0050472281
0.0052774422
0.0053934683
0.0055817043
0.005735634
0.0055385468
0.0051366159
0.0046060723
0.0042022957
0.0039070454
8.1146344e-05
0.00015889313
0.00037082186
0.00074025843
0.001101832
0.001458534
0.0019373731
0.0024670498
0.0029525305
0.0034341727
0.0038443784
0.0043037885
0.0047380886
0.004936179
0.0049507508
0.0049461577
0.0052080546
0.0054936624
0.0054940398
0.0051004527
0.0045467668
0.0041781087
0.0037775692
8.0911118e-05
0.00015890134
0.00039495806
0.00077641463
0.0011406936
0.0015324734
0.0020125004
0.0024927086
0.002895275
0.0032602005
0.0036519917
0.0041528355
0.0045347074
0.004681171
0.0046985815
0.0047705567
0.0050097426
0.0052423391
0.0052313429
0.0048517407
0.0043754484
0.0039685399
0.0033645836
9.2414237e-05
0.0002002696
0.0004570517
0.00078454196
0.0011383617
0.0015350194
0.0019858298
0.0024113644
0.0027489727
0.0030278437
0.0033642205
0.0038451631
0.0042804585
0.0045193951
0.0045954834
0.0047272712
0.0048835473
0.0048708502
0.0046372961
0.0043308792
0.0040515849
0.0036179429
0.0029036921
9.8071474e-05
0.00022737116
0.00048458559
0.00078095793
0.0010887969
0.0014398391
0.0018548347
0.0022704146
0.0026103251
0.002895737
0.0032186695
0.0036196872
0.003992288
0.0042502761
0.0044098812
0.0045532638
0.0045830351
0.004400992
0.004036417
0.0037578387
0.0035673857
0.0031674343
0.0024692277
0.00010729978
0.0001758219
0.00038589355
0.00069200963
0.00099400743
0.0013147427
0.0016675215
0.0020490176
0.0024190253
0.0027516453
0.0030818361
0.0033942247
0.0036331768
0.0038221717
0.0040580935
0.0042725332
0.0042829022
0.0040730697
0.0037486547
0.0034693165
0.0031949386
0.0027453876
0.0020514038
0.00017942955
0.00016569226
0.00021422976
0.00038147857
0.00071527529
0.0011441652
0.0015394559
0.0019114198
0.0022622896
0.0026100721
0.0029549183
0.0032440215
0.0034310847
0.00355207
0.0037078562
0.0038850724
0.0039175188
0.003668166
0.003281734
0.0028938187
0.0024101152
0.0017961236
0.0013036654
0.0003165306
0.00023418677
0.00021993324
0.00025478865
0.00037259653
0.00065424745
0.0011150622
0.0015268127
0.0018766116
0.0022051908
0.0025486979
0.002868778
0.0030934857
0.0032250905
0.003329937
0.0034226259
0.0034515593
0.0033477548
0.003087686
0.0027452723
0.0023022978
0.001768727
0.0012579348
0.00036660751
0.00035286325
0.00031205374
0.00027130127
0.00029596822
0.00039830112
0.00067695473
0.0010999486
0.0014799857
0.0018146244
0.0021331969
0.0024419131
0.0027045357
0.0028879819
0.0030065932
0.0030719461
0.0030637138
0.0029911115
0.0028252466
0.0025910001
0.002258139
0.0018046399
0.0013235633
0.00037997347
0.00043493989
0.00042321807
0.00035767662
0.00030916293
0.00033482915
0.00045524415
0.000757332
0.0011326307
0.0014813747
0.0017949027
0.0020730398
0.0023091851
0.0024995746
0.0026462217
0.0027369769
0.0027479066
0.0026881302
0.0025567678
0.0023614304
0.0021133062
0.0017737143
0.0013583773
0.00037610325
0.00048707636
0.00050047659
0.00045922638
0.00036182748
0.00034791676
0.00041228607
0.00060021809
0.00090306887
0.0012197512
0.0015191755
0.0017809922
0.001993342
0.0021592061
0.0022917073
0.0023932354
0.0024403611
0.0024215518
0.0023365728
0.0021735505
0.0019597902
0.0016920558
0.001343488
0.0003644711
0.00051941376
0.00056407276
0.00055835979
0.00047928232
0.00040737532
0.00044186746
0.00058856751
0.00080358282
0.0010540923
0.001309357
0.0015471154
0.0017484661
0.0019058753
0.0020242662
0.0021100406
0.0021579209
0.0021599796
0.0021136793
0.0019947858
0.0018175509
0.0015921295
0.0013194528
0.00034613797
0.00052449299
0.00060495219
0.00063723527
0.00061650242
0.0005623886
0.00054885865
0.00063036963
0.00080272111
0.00098641117
0.0011825384
0.0013743613
0.0015492463
0.0016965089
0.0018105935
0.0018901345
0.0019326687
0.0019343771
0.0019023962
0.0018153198
0.0016735726
0.0014887253
0.0012646386
0.00032314758
0.00050666152
0.00060884309
0.00067843838
0.00070409827
0.0007015742
0.00070113487
0.00073872102
0.00083546291
0.00097343707
0.0011185274
0.0012623891
0.0013974956
0.0015178921
0.0016175423
0.0016916618
0.0017358535
0.0017448723
0.0017240088
0.0016613679
0.0015490742
0.0013985775
0.001213559
0.00030147434
0.00047146219
0.0005908838
0.00067991187
0.0007355377
0.00076702237
0.00078876039
0.00082235267
0.0008841458
0.00097339489
0.0010793635
0.0011881885
0.0012923833
0.0013862279
0.0014647261
0.001524274
0.0015618592
0.0015737624
0.0015626963
0.0015200442
0.0014348946
0.0013151703
0.0011665698
0.00028494803
0.00043752849
0.0005568336
0.00065960495
0.00072993069
0.00077771168
0.00081601707
0.00085450276
0.00090365297
0.00096958125
0.0010475152
0.0011290057
0.0012090157
0.0012820915
0.0013433845
0.0013888536
0.0014162424
0.0014237812
0.0014143601
0.0013815475
0.0013160116
0.0012224989
0.0011083908
0.00027147152
0.00040648443
0.00051930986
0.00062334238
0.00070625049
0.0007658223
0.00081176899
0.00085488301
0.00090278931
0.0009581198
0.0010150292
0.0010742781
0.0011319047
0.0011848841
0.0012301888
0.0012647039
0.0012856633
0.0012909522
0.0012827847
0.0012556644
0.0012041574
0.0011316084
0.0010462871
0.00025960074
0.0003794269
0.00048259108
0.00058256773
0.00066693295
0.00073611099
0.00079056864
0.00083603767
0.00087885952
0.00092109167
0.00096607756
0.0010119071
0.0010553978
0.0010948071
0.0011285171
0.0011543318
0.001169884
0.0011733995
0.0011660721
0.001143842
0.0011055627
0.0010564745
0.0010085564
0.00025068256
0.00035841687
0.00045122037
0.00054309289
0.00062247578
0.0006891083
0.0007441741
0.00079008512
0.00083001817
0.00086824301
0.00090635412
0.00094360241
0.00097840049
0.001009262
0.0010350905
0.0010545868
0.0010666605
0.0010707455
0.0010676079
0.0010570741
0.0010427485
0.0010339017
0.001024212
0.00024253599
0.00034203084
0.0004260572
0.0005093572
0.00058160056
0.00064315022
0.00069519951
0.00073948264
0.00077809374
0.00081319856
0.0008461026
0.00087681415
0.00090465295
0.00092896456
0.00094936524
0.00096585995
0.00097914453
0.00099072304
0.0010028851
0.0010191986
0.0010397502
0.001062567
0.0011131692
0.00023336522
0.00032698461
0.00040466049
0.00048141302
0.00054765557
0.00060393355
0.00065168643
0.00069240194
0.00072752897
0.00075853744
0.00078649236
0.0008120047
0.0008354442
0.00085731105
0.00087831055
0.00089958812
0.00092310383
0.00095169493
0.0009882239
0.0010288037
0.001077608
0.0011482196
0.0012403262
0.00022566
0.00031626831
0.00038827355
0.00045842753
0.00051838745
0.00056898609
0.00061174836
0.00064814356
0.0006795525
0.00070725589
0.00073234717
0.0007557797
0.00077877978
0.00080294313
0.00083012427
0.00086240101
0.0009021821
0.00094966569
0.0010023959
0.0010676754
0.0011443143
0.0012291993
0.00132552
0.00021741534
0.00030766573
0.00037514023
0.00043940149
0.00049355223
0.00053883601
0.00057686424
0.00060916636
0.00063721238
0.00066248327
0.00068645524
0.00071084342
0.00073760572
0.0007690065
0.00080727412
0.0008534725
0.00090531706
0.0009641976
0.0010332434
0.0011062474
0.001180251
0.0012551229
0.0013370677
0.00020959094
0.0003016947
0.00036559015
0.00042462856
0.00047333318
0.00051346736
0.000546977
0.00057568156
0.00060129819
0.00062573035
0.0006512138
0.00068024029
0.00071529861
0.00075799672
0.00080705614
0.00086124086
0.00092294889
0.00098884264
0.001054369
0.0011168973
0.0011762293
0.0012322064
0.0012844041
0.00020117273
0.00029740734
0.00035870937
0.00041330868
0.00045719066
0.00049257432
0.00052200049
0.00054800466
0.00057309333
0.00059979397
0.00063089316
0.00066898262
0.0007137485
0.00076331486
0.00081932019
0.00088141824
0.00094369345
0.0010016768
0.0010533864
0.0010994491
0.0011352456
0.0011578939
0.0011707933
0.00019366888
0.00029540902
0.00035472248
0.00040527907
0.00044485009
0.00047636726
0.00050306083
0.00052839331
0.00055586548
0.00058865805
0.00062784922
0.00067233805
0.000723253
0.00078120565
0.00084175476
0.00089962541
0.00095106013
0.00099474005
0.0010280182
0.0010451712
0.0010454085
0.0010304655
0.0010066004
0.00018530194
0.00029379142
0.00035193281
0.00039921946
0.00043539497
0.00046451572
0.00049094134
0.00051906711
0.00055207054
0.00059048103
0.00063523133
0.00068768518
0.0007463644
0.00080544816
0.00085987034
0.00090572554
0.0009416927
0.00096326745
0.00096725866
0.0009522316
0.0009173205
0.0008607648
0.00078839387
0.00017783267
0.00029284341
0.00035043586
0.00039540941
0.00042965504
0.00045858478
0.00048750462
0.00051964881
0.00055693656
0.00060204322
0.00065604484
0.00071521879
0.0007732384
0.00082566055
0.00086808816
0.00089752368
0.0009105002
0.00090443449
0.00087853069
0.00083098391
0.00076037154
0.00066459531
0.00054872054
0.00016924984
0.00029150304
0.0003497227
0.00039388796
0.00042819782
0.00045865837
0.00048997025
0.00052688286
0.00057272845
0.00062780345
0.0006869163
0.00074500598
0.00079691286
0.00083826989
0.00086365815
0.00087230377
0.00086039402
0.00082722052
0.00077175913
0.00069296097
0.00058979358
0.00046227678
0.00031029816
0.00016195474
0.00029086158
0.00035000531
0.00039432249
0.00042942556
0.00046225179
0.00049914569
0.00054530498
0.00060056117
0.000660365
0.00071956857
0.00077248663
0.00081425572
0.00083927085
0.00084747431
0.00083449239
0.0007988503
0.00073966104
0.00065653542
0.00054883568
0.00041700741
0.00026034202
0.00010485953
0.00015355514
0.00028982659
0.00035078878
0.00039614358
0.00043388256
0.00047253288
0.00051870799
0.00057332859
0.00063387502
0.00069507449
0.0007509023
0.00079593387
0.0008242231
0.00083381747
0.00082301597
0.00078913549
0.00073111292
0.00064887606
0.00054269786
0.00041385938
0.00026442679
0.0001040305
2.773982e-05
0.00014637541
0.00028915313
0.00035224541
0.00040025862
0.00044356532
0.00049028367
0.00054461958
0.00060593361
0.00066977688
0.00073005307
0.000780568
0.00081503806
0.00082886338
0.00082377221
0.00079460718
0.00074047789
0.00066116532
0.00055743457
0.00043083028
0.00028419929
0.00011958914
3.2141114e-05
8.4742912e-06
0.00013857868
0.00028833362
0.00035516936
0.00040801124
0.00045812387
0.00051297213
0.00057510172
0.00064179146
0.00070716539
0.00076475534
0.00080886651
0.00083178314
0.00083514904
0.00081492321
0.00076838767
0.000695176
0.00059630335
0.00047354937
0.00032913577
0.00016601114
4.8947959e-05
1.3013662e-05
6.2862809e-06
0.00013162901
0.00028772207
0.00035923461
0.00041859831
0.00047667415
0.00053962713
0.00060825439
0.00067864235
0.0007444305
0.00079902739
0.00083558927
0.0008496474
0.00084378177
0.00081198565
0.0007515497
0.00066331343