/*--------------------------------*- C++ -*----------------------------------*\
| =========                 |                                                 |
| \\      /  F ield         | OpenFOAM: The Open Source CFD Toolbox           |
|  \\    /   O peration     | Version:  2406                                  |
|   \\  /    A nd           | Website:  www.openfoam.com                      |
|    \\/     M anipulation  |                                                 |
\*---------------------------------------------------------------------------*/
FoamFile
{
    version     2.0;
    format      ascii;
    arch        "LSB;label=32;scalar=64";
    class       volScalarField;
    location    "130";
    object      omega;
}
// * * * * * * * * * * * * * * * * * * * * * * * * * * * * * * * * * * * * * //

dimensions      [0 0 -1 0 0 0 0];

internalField   nonuniform List<scalar> 
20580
(
3.568899
2.657019
2.1521261
1.8155736
1.5767137
1.3986504
1.2602861
1.1520003
1.0646728
0.99126997
0.92969166
0.87620493
0.83008406
0.78884223
0.75283427
0.72178763
0.69519368
0.67312627
0.65451392
0.63600526
0.62316745
0.60829318
0.59327499
0.58668347
0.58739772
0.59104916
0.58847424
0.58433042
0.58803968
0.60107962
0.61539199
3.5796793
2.6537133
2.1514998
1.8226409
1.585315
1.4074843
1.2662557
1.1573429
1.0697149
0.99570653
0.93356335
0.8798706
0.83330609
0.79224237
0.75591083
0.72358598
0.69728061
0.67718289
0.66037622
0.64379997
0.63058301
0.62305729
0.60552155
0.60042878
0.60341936
0.61330428
0.62523364
0.62631661
0.62714715
0.62891072
0.62561137
3.5862471
2.6440017
2.1436854
1.8218877
1.5892662
1.4131362
1.2740036
1.1632342
1.0748732
1.0000359
0.93794262
0.8834147
0.83656239
0.79473222
0.7589
0.72540827
0.698675
0.67837265
0.66086684
0.64549953
0.63137008
0.62563771
0.61114363
0.60417135
0.60680318
0.61638954
0.62834186
0.63414164
0.64095229
0.66441635
0.66554944
3.5986628
2.6314487
2.12331
1.8128202
1.5863717
1.4136471
1.2783458
1.1685094
1.0799423
1.0041977
0.94236276
0.88631102
0.83971785
0.79661989
0.76114756
0.72722228
0.69971786
0.68000023
0.66093299
0.64745559
0.63265491
0.62642528
0.61421388
0.60657664
0.60873201
0.61689737
0.63470502
0.6433486
0.64502234
0.66180547
0.67706939
3.6092443
2.6260422
2.1059007
1.7889157
1.5707349
1.4072453
1.2755145
1.1685635
1.0808661
1.0061475
0.94399353
0.88781825
0.84073077
0.79798768
0.76163359
0.72930925
0.70022978
0.68137247
0.66074876
0.64850686
0.63447199
0.62767114
0.61748636
0.61126666
0.61337007
0.62077045
0.63616774
0.66244082
0.67011851
0.68758562
0.69304596
3.616105
2.6252481
2.0921074
1.7675566
1.5428544
1.3842489
1.2599541
1.1596339
1.0760289
1.003918
0.94249303
0.88733871
0.83973724
0.79945264
0.76138308
0.73120044
0.701512
0.68287403
0.66121408
0.64920702
0.63635573
0.62781119
0.62021992
0.61237347
0.61396971
0.61929078
0.63338526
0.66394445
0.68006258
0.72159519
0.72745175
3.6128542
2.6271899
2.0799033
1.7441337
1.5128996
1.3471116
1.2242888
1.1321588
1.0556847
0.99118745
0.93350022
0.88245555
0.83603848
0.79861581
0.76024136
0.73212818
0.70307685
0.68572815
0.66351219
0.65110634
0.63903679
0.6280433
0.62007176
0.61112724
0.60985881
0.6111861
0.62052432
0.65201201
0.67600401
0.71817366
0.7415671
3.7084
2.6897659
2.1010537
1.7456292
1.5039404
1.3293847
1.199611
1.1026868
1.0247942
0.96308013
0.90874722
0.86532196
0.82536147
0.79262997
0.75793726
0.73017288
0.70575626
0.68549477
0.66781284
0.65341601
0.64436282
0.63043734
0.62217082
0.61406954
0.6095225
0.6065033
0.60731166
0.61925647
0.64509054
0.67490692
0.73061069
4.0809396
3.2913334
2.311563
1.8307758
1.5417751
1.3465632
1.2045121
1.0986935
1.0155433
0.94742848
0.89106105
0.84441985
0.80537305
0.77339181
0.74616678
0.72173196
0.70165829
0.68242976
0.6670708
0.65418011
0.64467144
0.63388027
0.62698096
0.62454629
0.61953214
0.61482692
0.61426532
0.62277874
0.64498528
0.66440139
0.69736428
3.9139056
3.4521469
2.7179543
2.1687504
1.7561227
1.4642261
1.2682084
1.1307582
1.0324759
0.95607092
0.89489925
0.84490201
0.80306634
0.76754552
0.73697639
0.71067158
0.68927676
0.67029791
0.65697124
0.64722737
0.63953047
0.63194353
0.62971762
0.63117081
0.6328674
0.63659584
0.64150111
0.65387564
0.66845181
0.69287456
0.71052277
3.5454056
3.1027162
2.6861195
2.334111
2.0406777
1.770626
1.517998
1.306468
1.1468206
1.0360479
0.95246845
0.88687734
0.83303366
0.78901208
0.75152071
0.72025875
0.69439235
0.67210417
0.65664532
0.6438336
0.63461596
0.62605963
0.62702115
0.62893086
0.63063241
0.63723728
0.64669006
0.66860763
0.6830848
0.7165745
0.73891301
3.8347617
2.9535802
2.4909371
2.1716507
1.9608449
1.7653399
1.6117554
1.4848418
1.3722965
1.2683003
1.1722992
1.0850224
1.0042043
0.93074528
0.86486399
0.80673836
0.7589279
0.72018644
0.69131297
0.66847552
0.65092367
0.63604468
0.63074684
0.62963264
0.62779001
0.62983001
0.63679128
0.64918532
0.66658058
0.69968978
0.7441624
3.9081286
3.1900921
2.5334734
2.133807
1.8389117
1.6432225
1.5028969
1.4095816
1.3382116
1.2686595
1.2086515
1.1531626
1.1005969
1.0507768
1.0055541
0.96082589
0.91939632
0.87835509
0.83888722
0.80272136
0.76687876
0.73141874
0.70375156
0.6783691
0.65964555
0.64718246
0.64276791
0.64722564
0.65388018
0.66626148
0.69755313
3.6915029
2.9629883
2.4873469
2.135071
1.8523786
1.6366044
1.4695807
1.3405967
1.2408433
1.1695184
1.1116198
1.0638551
1.0223469
0.98791775
0.96006405
0.93532806
0.91064096
0.88537486
0.86533339
0.84799939
0.83035516
0.81560563
0.80423225
0.79596942
0.78065502
0.75930224
0.74119846
0.72483066
0.71488533
0.71390163
0.71570686
3.8776423
3.024434
2.3972997
2.0372455
1.7803725
1.5832624
1.4310605
1.3135429
1.2200642
1.143538
1.0792475
1.0230493
0.97355948
0.92967427
0.89334486
0.86171691
0.83648227
0.81689125
0.80208872
0.79157621
0.78363088
0.78340229
0.78549077
0.7913815
0.79658547
0.80198392
0.808113
0.81942497
0.82955986
0.8421515
0.83443675
3.8318716
3.0465951
2.4451767
2.0478405
1.7600416
1.5432397
1.3775333
1.2576142
1.1692042
1.0985356
1.0411047
0.99292072
0.950975
0.91260944
0.87910535
0.84745032
0.82029409
0.79502995
0.77590072
0.75607677
0.74503555
0.73620134
0.73615853
0.74124817
0.75320873
0.7704817
0.78618408
0.80260943
0.82516009
0.84649366
0.87280793
3.8453972
3.0173941
2.4317868
2.0376683
1.7543075
1.539375
1.3723727
1.2459082
1.1446879
1.0664992
1.0018606
0.94751759
0.90457158
0.86968729
0.84116307
0.81481043
0.79321912
0.77342807
0.75758154
0.7405619
0.7310203
0.7242723
0.71901204
0.71765143
0.72265211
0.73246364
0.74055412
0.74672803
0.76494101
0.78610773
0.82930608
3.8492513
3.0354651
2.4298122
2.0331882
1.7461765
1.5296936
1.3626888
1.2344902
1.133042
1.0527681
0.98525426
0.92890834
0.88133699
0.8420062
0.80780282
0.77802689
0.7530958
0.73149382
0.71329898
0.69891001
0.68957783
0.68647641
0.68124314
0.67723372
0.67960004
0.68661707
0.69049941
0.69210715
0.69591528
0.70492009
0.72413813
3.6505564
2.810388
2.3058765
1.9559653
1.6977054
1.5001741
1.3497102
1.2321701
1.1354632
1.0565958
0.98996564
0.93379513
0.88579345
0.84514602
0.80979546
0.77842461
0.75170321
0.7281927
0.70769034
0.69132905
0.67929502
0.67328074
0.66788205
0.66363259
0.66547418
0.67217515
0.67901256
0.68597933
0.69471693
0.70740098
0.71933128
3.8511424
3.0677185
2.4243355
2.0360219
1.7582999
1.5581422
1.4071705
1.2873932
1.1906148
1.1133772
1.0484553
0.99416461
0.94623608
0.90672905
0.87139276
0.83958787
0.81159378
0.78728414
0.7665257
0.74925805
0.73752562
0.73173077
0.72867847
0.72489048
0.72737651
0.73599266
0.74822928
0.76320636
0.76926856
0.79110132
0.79188165
3.8456504
3.1830364
2.5830865
2.2353124
1.9474856
1.7620704
1.617228
1.4975332
1.4084701
1.3381766
1.2847111
1.2431692
1.2105175
1.1876128
1.166177
1.14646
1.1295841
1.1156618
1.1025237
1.0864726
1.0758302
1.0752506
1.0732877
1.0640865
1.0610356
1.0696055
1.0818132
1.0898777
1.088057
1.0945126
1.0763077
4.3452028
5.1232951
4.1647604
3.6501652
3.3712727
3.2614132
3.0784521
2.9436591
2.8487929
2.7782855
2.7194088
2.6707513
2.6133556
2.5897221
2.537054
2.5090538
2.4824467
2.4600733
2.4437946
2.4228721
2.4082644
2.4175926
2.4114006
2.3831216
2.3531716
2.3471094
2.34461
2.3302874
2.2995654
2.2699144
2.2032276
13.082194
14.34085
12.442945
11.874192
11.061447
10.417303
10.036219
9.5299993
9.1398255
8.7709607
8.4776887
8.1821871
7.941353
7.7104574
7.5158198
7.3153898
7.1381113
6.9865401
6.8518693
6.6922964
6.5633144
6.4639392
6.359496
6.2167048
6.0986454
6.0178083
5.9665226
5.8596335
5.7330773
5.6194798
5.5760782
5.8411216
2.3606927
1.1574061
0.83767582
0.74432733
0.73537587
0.82518047
0.89726011
0.87381502
0.7677019
0.73206926
0.77573142
0.77074264
0.74375704
0.71958251
0.74799909
0.7790802
0.78127145
0.75436964
0.71039826
0.69472968
0.65741451
0.64155669
6.4151053
2.5227837
1.2505959
0.89468987
0.7709097
0.742454
0.81920643
0.94003037
0.94452919
0.86660675
0.78188667
0.82803733
0.82864336
0.81057155
0.76732237
0.77828839
0.82101394
0.83026941
0.81844998
0.77043023
0.75496834
0.7139345
0.67575949
6.9343863
2.7685254
1.3705519
0.98691675
0.82717899
0.76687235
0.82986646
0.97727673
0.99937487
0.96018574
0.83115064
0.85771704
0.88037786
0.87576426
0.84575291
0.83040808
0.87422587
0.88370469
0.87308113
0.82030433
0.80240926
0.77699209
0.7361505
7.6575099
3.077934
1.5623956
1.1355263
0.94980148
0.83055718
0.87688027
1.0330651
1.074676
1.0596403
0.91415203
0.90911227
0.9384982
0.94608082
0.9413877
0.90416134
0.91953226
0.95570814
0.95848946
0.93440847
0.8832504
0.86571078
0.80210757
8.6018792
3.5963721
1.8250823
1.3143628
1.0651364
0.91127592
0.93577315
1.0976019
1.140881
1.1375655
1.0222827
0.96744114
1.0020227
1.0046935
1.0013027
0.96323979
0.96125471
1.0020883
1.0166368
1.0262735
0.99698688
0.98070168
0.92398533
9.4741526
4.0607188
2.1558654
1.5731211
1.2230475
1.0210972
1.0116168
1.1730683
1.2632498
1.2871826
1.253886
1.099783
1.1362828
1.1286031
1.1009619
1.056574
1.0118962
1.0479061
1.0772163
1.1005889
1.0987414
1.0640612
1.0275151
10.091018
4.5972695
2.4911427
1.8096499
1.4384546
1.2218108
1.1334024
1.2492986
1.3651864
1.4147264
1.4394777
1.3104977
1.3059055
1.3073093
1.2563325
1.2291274
1.1507978
1.1565111
1.1822192
1.1820078
1.1814931
1.1431427
1.1166528
10.937943
5.1927357
2.933147
2.199418
1.7586464
1.4281122
1.2803219
1.400324
1.5275434
1.5488625
1.5859099
1.4762028
1.4190147
1.4511327
1.4219114
1.3972418
1.3623634
1.3444603
1.3975022
1.3761688
1.3317411
1.2718333
1.2050872
12.345358
6.2226012
3.5936152
2.7093219
2.1423744
1.8010399
1.598154
1.7144866
1.7518853
1.7109819
1.7254043
1.6564411
1.5281765
1.562618
1.5585738
1.5116415
1.5150224
1.5099817
1.5577121
1.6097145
1.5410892
1.50735
1.4265692
13.840786
7.3518821
4.3154352
3.2662249
2.7694293
2.3077717
2.0200992
2.1692754
2.1647264
2.039817
1.9786863
1.9077117
1.7425929
1.7837982
1.7905078
1.720328
1.6710247
1.6495255
1.6727118
1.7635318
1.7501027
1.6902629
1.6488688
14.991081
8.4045137
5.1637252
3.9898151
3.457863
3.0830259
2.6610183
2.7533661
2.7724454
2.5978158
2.4715961
2.4474974
2.2858507
2.3139811
2.3184912
2.1806574
1.9260462
1.8197911
1.7997842
1.8964105
1.9163345
1.8734592
1.8675245
15.4202
9.346598
5.8218146
4.5356355
4.0701658
3.9082951
3.47918
3.4909699
3.5102543
3.3063281
3.0437808
3.0732781
2.9924992
3.0297615
3.2219522
3.0988073
2.5865771
2.2147696
2.0520505
2.1042127
2.1753607
2.1607791
2.0728053
15.542465
10.282171
6.2681982
5.1010044
4.878391
4.980477
4.9771094
4.9242453
4.7746512
4.2422063
3.8618008
3.9192614
3.9440364
4.007995
4.1410416
3.9120936
3.2343752
2.8501962
2.6148231
2.6423423
2.8084416
2.7812076
2.5077761
16.044034
11.088358
6.8413126
5.8050491
5.6814328
6.1398245
6.6638329
6.7031279
6.3355163
5.2941284
4.7778929
4.8049421
5.0221047
5.0123055
5.0208735
4.8034966
4.0173774
3.5597102
3.3629123
3.4078787
3.9777945
4.0704534
3.6436823
17.061387
12.11188
7.5841865
6.511572
6.4615519
7.2145327
8.1938903
8.3495081
7.7763367
6.2186369
5.515901
5.5555112
6.1378486
6.8511798
6.8797064
6.2852598
4.9792956
4.4988398
4.3768723
4.4179557
5.0525218
5.1033118
4.7030082
17.941405
13.155478
8.3175243
7.0688619
7.0879176
8.0849049
9.5245016
9.8089947
9.0297065
6.9851017
6.1462556
6.221233
7.3380266
8.8121508
8.862521
7.892598
5.9216115
5.317776
5.3608687
5.3237906
5.9346247
5.8458686
5.042905
18.587892
14.022361
8.976344
7.5418041
7.6034991
8.8704622
10.607749
10.942083
9.9243256
7.5193805
6.663303
6.9044947
8.6142938
10.087838
10.105738
9.0946963
6.7648069
5.9862728
6.3093906
7.2552536
7.8749337
7.2535061
5.5402466
18.71611
14.495118
9.4190884
7.8566932
7.9534537
9.4626193
11.399231
11.735954
10.516475
7.9266063
7.1013555
7.5444535
9.585035
10.893999
10.86806
9.8082127
7.4368732
6.6326995
7.2411674
9.0529579
9.7170801
8.5833086
6.1358612
18.256304
14.493963
9.642047
8.138274
8.2735642
9.9035721
11.908434
12.242441
10.936091
8.3046321
7.5177454
8.1010155
10.273889
11.452004
11.333835
10.168976
7.8917033
7.192322
8.094232
10.259524
10.826898
9.3620705
6.6716676
17.311632
14.18974
9.6693487
8.3896442
8.6029404
10.32492
12.064448
12.309814
11.030193
8.6022668
7.9196974
8.5968253
10.778898
11.808633
11.493314
10.113525
8.2578432
7.9316601
9.1832053
10.906034
11.105916
9.5973021
7.2391918
15.954108
13.528319
9.5731853
8.6153575
8.8976674
10.558419
11.905735
12.054395
10.899974
8.8642549
8.3362292
9.061758
11.082148
11.924182
11.434996
9.7525441
8.6192761
8.7428922
10.090654
11.069993
10.946983
9.5183645
7.9024322
14.488951
12.791989
9.4442119
8.8084915
9.1348942
10.629318
11.548652
11.555376
10.504198
8.9999794
8.7163291
9.4822563
11.231202
11.835514
11.045531
9.4279771
8.8792482
9.3509497
10.494678
10.924338
10.589072
9.2207147
8.3197782
13.202163
12.164251
9.2777755
8.8419752
9.2039427
10.521732
11.121624
10.944487
9.9649882
9.0285347
9.0544864
9.8882617
11.292367
11.540433
10.439314
9.3483326
9.1354245
9.7615588
10.448149
10.606499
10.041125
9.044582
8.8228532
12.345769
11.601318
9.1750103
8.785021
9.1547791
10.274094
10.710214
10.419966
9.4874107
8.9883834
9.2154647
10.197318
11.209119
10.971849
9.8041375
9.2723404
9.2889826
9.8958961
10.209796
10.091265
9.4703887
9.0757391
9.4155575
11.868984
10.908069
9.0679416
8.7131358
9.0484166
9.947973
10.247783
9.8570057
9.123674
8.9730756
9.3073286
10.188945
10.5992
10.084117
9.3678792
9.1232157
9.3418317
9.7581515
9.8988309
9.5641359
9.174938
9.2146694
9.7730949
11.440598
10.027686
8.7400164
8.5710599
8.8914235
9.5518095
9.7062712
9.2906102
8.905491
8.8884275
9.157305
9.5192023
9.5822624
9.271777
9.0340235
9.0192342
9.2930498
9.5265066
9.4254072
9.1380322
9.0491462
9.184264
9.5594459
10.820138
9.1385495
8.1865248
8.2279542
8.5785377
8.954186
9.0380303
8.7432235
8.5274827
8.4826532
8.6276156
8.7359232
8.7042225
8.6359419
8.7067032
8.8799696
9.084126
9.119499
8.9596093
8.7989517
8.6905053
8.6818748
8.8242833
10.06825
8.3596824
7.7057243
7.7526698
7.9010623
8.0269987
8.1043504
8.0332898
7.9516733
7.9540381
8.0504113
8.0831885
8.0845992
8.1267337
8.2600314
8.4661643
8.5916232
8.5264251
8.3777358
8.214562
8.0993659
8.110104
8.2449172
9.3729644
7.6265256
7.0981969
7.0699526
7.0579432
7.0254039
7.0886972
7.2034677
7.3260431
7.4271525
7.4787115
7.5033141
7.5635929
7.6127079
7.620796
7.6472877
7.7449298
7.815962
7.7560143
7.651168
7.5972837
7.6897473
7.8690686
8.8152952
6.8347809
6.4287011
6.3588629
6.3001692
6.2697238
6.3368704
6.4867922
6.6440275
6.7732738
6.8375247
6.8936379
6.9554652
6.9413934
6.8485039
6.8097805
6.9592247
7.1678501
7.2551478
7.2195915
7.2097251
7.3915969
7.5306174
8.2783914
6.310265
5.90463
5.8061891
5.7201293
5.6897686
5.7894928
5.9038194
5.9498253
5.9856916
6.0690386
6.2233454
6.3079442
6.2863893
6.2340706
6.2600032
6.4235918
6.6072263
6.7141974
6.7515368
6.8520028
7.0055677
7.0148401
8.005605
5.5542199
5.2205587
5.1923918
5.1498814
5.1448255
5.2117694
5.2810698
5.2923801
5.2867716
5.3578837
5.5443306
5.7114402
5.7723346
5.7752336
5.855649
5.9896147
6.065725
6.0941011
6.1910694
6.4230158
6.5553708
6.5162578
7.540957
4.961975
4.5127071
4.42952
4.4085582
4.4534289
4.583864
4.7138023
4.7632123
4.7834438
4.8683299
5.0330132
5.1817422
5.2751233
5.3435886
5.465617
5.5673655
5.5788465
5.562965
5.6948797
5.9761601
6.1390598
6.1271279
7.2377967
5.1693007
4.4573126
4.120493
3.9567075
3.9466145
4.0448252
4.1980833
4.3000784
4.3653871
4.4657207
4.5837843
4.6625514
4.7315204
4.8675912
5.04605
5.1480999
5.1740927
5.2148837
5.3682153
5.538208
5.6514881
5.6878516
8.3042189
6.5731275
5.020031
4.2354689
3.8336948
3.6727332
3.698039
3.7865464
3.8881866
3.9960896
4.125035
4.2400303
4.3095772
4.3679129
4.4905217
4.68031
4.8308302
4.8928639
4.9453076
5.0541313
5.1214446
5.1458895
5.1970773
10.383346
6.8882724
5.282755
4.478899
3.8973873
3.5775288
3.4787221
3.478677
3.5080425
3.5793722
3.7078582
3.8444218
3.9352783
3.9958733
4.0806105
4.2027538
4.3256845
4.4213003
4.5083632
4.6056462
4.6590146
4.6466714
4.6655159
11.122164
5.8586232
4.852234
4.3666557
3.8810738
3.5076279
3.3272863
3.2788951
3.2704933
3.2897688
3.3605107
3.472731
3.5778768
3.6583742
3.735014
3.8201052
3.8969356
3.9583568
4.0246686
4.113404
4.1933257
4.2246796
4.2763822
11.328162
4.6462078
3.8028498
3.9015078
3.7615542
3.4438192
3.2048356
3.113708
3.0874179
3.0883384
3.1149666
3.1771445
3.2484576
3.319931
3.3972199
3.4775959
3.546363
3.5941674
3.635311
3.6922486
3.7622661
3.8122507
3.902099
11.307611
4.064923
3.261068
3.3868056
3.4905201
3.3173724
3.0235924
2.9134397
2.8859582
2.8905372
2.9088173
2.9457751
2.9876982
3.0314091
3.0862713
3.1556362
3.2258759
3.2811872
3.3228658
3.3641097
3.411758
3.4522834
3.5443339
11.164275
3.7699113
2.9721123
2.9918216
3.1374149
3.0604158
2.8347411
2.7218275
2.6899024
2.6921834
2.7094357
2.7408215
2.7752452
2.8074652
2.8435224
2.8893783
2.9424901
2.9933108
3.0363078
3.0747365
3.1133842
3.1472868
3.2299207
10.905495
3.6126555
2.7526638
2.6806335
2.7626579
2.7825456
2.6736462
2.5757077
2.5351112
2.5279257
2.5346509
2.554302
2.5821728
2.6114757
2.6418036
2.6752002
2.7117761
2.7482251
2.7814719
2.8122198
2.8434354
2.8741158
2.9489848
10.578453
3.4951864
2.5779438
2.4453787
2.4707478
2.5010648
2.4771057
2.426543
2.3942285
2.3831033
2.3835852
2.3919791
2.4082839
2.4297409
2.4547132
2.4825942
2.5126856
2.5426695
2.5700456
2.5947658
2.6190378
2.6443133
2.7079988
10.276548
3.3868195
2.4367355
2.2585135
2.2483575
2.2695918
2.2728364
2.2558961
2.239525
2.2341407
2.2374632
2.2462173
2.2594577
2.2756816
2.2942446
2.315191
2.3386153
2.3636957
2.3883902
2.4113515
2.4329605
2.454639
2.5081074
10.038047
3.2881737
2.3230451
2.1059869
2.0692728
2.0782749
2.0904497
2.0923537
2.0900263
2.091677
2.0983213
2.1092725
2.1232708
2.1389899
2.1555932
2.1726237
2.1905713
2.2099385
2.2302292
2.2503874
2.2697104
2.2890172
2.334964
9.8391457
3.1993209
2.2314653
1.9888753
1.9288108
1.9233088
1.9333113
1.9440882
1.9532067
1.9625385
1.9724265
1.9833214
1.9954652
2.0093494
2.0247062
2.0411364
2.0582281
2.0759585
2.0944241
2.1130049
2.1310263
2.1493002
2.1897695
9.6717566
3.1057895
2.1505757
1.8967433
1.8216602
1.8049133
1.8070693
1.8157476
1.8267418
1.8391815
1.8521522
1.8651322
1.8781642
1.892239
1.9077295
1.9243469
1.9414672
1.9588772
1.9765402
1.9942831
2.0121803
2.033177
2.0789276
9.5514148
3.0260939
2.0776565
1.8165075
1.7313485
1.706564
1.7031906
1.7082454
1.7172172
1.7288654
1.7423088
1.7564973
1.7710793
1.7862546
1.8022619
1.818998
1.8363191
1.8543194
1.8732144
1.893465
1.916678
1.9475477
2.0090703
9.4312638
2.9547993
2.0131014
1.7471778
1.6538035
1.6216599
1.6138965
1.6161263
1.6237113
1.6343115
1.6468263
1.6603572
1.6744627
1.6892427
1.7048896
1.7217574
1.7405322
1.7622714
1.788057
1.818692
1.8554606
1.9013874
1.9708697
9.2989602
2.8887945
1.9565721
1.6894171
1.5908934
1.5526649
1.5400313
1.5384885
1.5429824
1.5509359
1.5609913
1.5725839
1.5857019
1.6007562
1.6182345
1.6386423
1.663059
1.6926102
1.7278546
1.7685226
1.8136461
1.8628228
1.9231095
9.1860168
2.8233779
1.9028196
1.6360927
1.5344081
1.4918088
1.4749446
1.470212
1.4716823
1.4774842
1.4860182
1.4967192
1.5099932
1.5267308
1.5477909
1.5735838
1.6043337
1.6397549
1.6787291
1.7191435
1.7590467
1.7989621
1.8451595
9.0611035
2.7622889
1.8537941
1.588196
1.4845608
1.4389062
1.4187629
1.411327
1.4103527
1.4142417
1.4218031
1.4328898
1.4481482
1.4683663
1.4938523
1.5239187
1.5569238
1.5910398
1.6243785
1.6553596
1.6836005
1.7116696
1.7458031
8.9406339
2.706001
1.8091204
1.5451419
1.4402068
1.3921283
1.3693706
1.359682
1.3571414
1.3598569
1.367808
1.3812237
1.4005431
1.4252325
1.4538656
1.4840854
1.5130524
1.5386752
1.5605018
1.5789604
1.5952225
1.6129346
1.6384143
8.8063128
2.6524775
1.7694905
1.5075467
1.4014904
1.3509458
1.3255162
1.3139923
1.3109249
1.3145448
1.3254554
1.3434128
1.3671396
1.3940087
1.4209166
1.4452326
1.4650767
1.479585
1.4894939
1.4969106
1.5042459
1.5151988
1.5345942
8.6868973
2.6061167
1.733622
1.472675
1.3656613
1.3136127
1.2866817
1.2748619
1.2725906
1.2793563
1.2949171
1.3171845
1.3425423
1.3667811
1.3867867
1.401275
1.4100804
1.4143356
1.4155618
1.4156969
1.4171115
1.4234171
1.4415988
8.5462551
2.559502
1.7011902
1.4414401
1.3330971
1.2796554
1.2529932
1.243075
1.2431865
1.2546087
1.2742242
1.2975817
1.3197085
1.3367481
1.3468177
1.3508952
1.3503394
1.3465962
1.3414538
1.3364239
1.3332929
1.3335342
1.3430928
8.4217459
2.5211698
1.6723232
1.4128021
1.3035769
1.250293
1.2256291
1.2182783
1.2226228
1.2379867
1.258652
1.2788746
1.2936363
1.3007969
1.3020019
1.2975802
1.2895721
1.2799086
1.2700104
1.260677
1.2523291
1.2446309
1.2417208
8.2724257
2.4846333
1.6480523
1.3886051
1.2787629
1.2266924
1.2050049
1.200652
1.2090193
1.2257167
1.2437719
1.2570267
1.2628183
1.2624258
1.2556157
1.2445145
1.2313265
1.2176951
1.2046162
1.1920196
1.1789091
1.1633117
1.1487547
8.1473966
2.4525925
1.6243291
1.3655156
1.256928
1.2078929
1.1900787
1.1884969
1.1991303
1.2143045
1.2265947
1.2318554
1.2308805
1.2231939
1.2107031
1.1955706
1.1795683
1.1638451
1.1486548
1.1328414
1.1143767
1.0850742
0.98968371
7.9941303
2.4185144
1.6026
1.3454408
1.2391003
1.1938104
1.179699
1.1803142
1.1907479
1.2018945
1.2071364
1.2067286
1.1994014
1.1866651
1.1705668
1.1531839
1.1359833
1.1195153
1.1028442
1.0832317
1.0514102
0.95868352
0.80840394
7.8622641
2.3869616
1.5814404
1.3273233
1.2248199
1.1837932
1.1723719
1.1741199
1.1825406
1.1879913
1.1888361
1.1829073
1.1709744
1.1548459
1.1365205
1.1178616
1.1001228
1.0832947
1.0653646
1.0407055
0.98357015
0.82214201
0.72960763
7.7131866
2.3609868
1.5658926
1.3140527
1.2146941
1.1770617
1.1675244
1.1690861
1.1738771
1.1754076
1.1715932
1.1617115
1.1469295
1.1287473
1.1086659
1.0882113
1.0687746
1.0503544
1.0300832
0.99342658
0.88737923
0.74303552
0.6992754
7.5817653
2.3404111
1.5540625
1.3052116
1.2084633
1.1727122
1.1637178
1.1640271
1.1658002
1.1640681
1.1566139
1.143956
1.1274446
1.1082392
1.0870017
1.0644628
1.0415431
1.0184015
0.99157782
0.94110182
0.82562673
0.72151421
0.69000403
7.4194678
2.3217537
1.547115
1.3010661
1.2059726
1.1706213
1.1603157
1.1583552
1.1573786
1.1527462
1.1431356
1.1291607
1.1119871
1.0924152
1.0706657
1.0464502
1.0196541
0.99084224
0.95514597
0.89651824
0.80515282
0.72737038
0.69216041
7.2800788
2.3090959
1.5407794
1.2964512
1.2025328
1.1670665
1.1553546
1.1512542
1.1472103
1.1399723
1.1287755
1.1141948
1.0972322
1.0784894
1.0574915
1.0326898
1.0030227
0.96943636
0.92634062
0.86682595
0.8026651
0.74926794
0.71330936
7.2570636
2.3033475
1.5284915
1.2836921
1.1925662
1.1582512
1.1454238
1.1393633
1.1328853
1.1236781
1.1115105
1.0968183
1.0801731
1.0620881
1.0422321
1.0189291
0.99021812
0.95558663
0.91290952
0.86213985
0.8108123
0.77413847
0.74250649
7.3101338
2.290538
1.5184213
1.2701764
1.1718737
1.1347883
1.1220113
1.1167471
1.1114282
1.1027414
1.090731
1.0763223
1.0603563
1.0433353
1.0251733
1.0048853
0.98069168
0.95106665
0.91472894
0.87201999
0.83418717
0.80458923
0.77666742
6.9371411
2.2767662
1.5225219
1.2709578
1.1652272
1.1169099
1.0961025
1.0878723
1.0830638
1.0764752
1.0667222
1.0543124
1.0402784
1.025435
1.0099424
0.99332279
0.97471219
0.95285909
0.92676433
0.89806991
0.86882337
0.84158279
0.81624434
6.1434636
2.3776768
1.581388
1.2975559
1.1747208
1.1177743
1.088783
1.0721364
1.0618703
1.0536168
1.044548
1.0338331
1.0218103
1.0091591
0.99628148
0.98310312
0.96919633
0.95392516
0.93794734
0.91995492
0.89998353
0.87948197
0.85863944
5.942671
3.2117796
1.9701352
1.4513424
1.2346805
1.1392408
1.0952262
1.0724812
1.0572451
1.0444395
1.0325928
1.0206762
1.0084007
0.99610411
0.98419568
0.97287408
0.96210246
0.9515987
0.94011414
0.92967575
0.91872049
0.90669579
0.89280963
6.1723434
4.1020361
2.6113504
1.8723534
1.448157
1.2242463
1.1289092
1.0840165
1.0604398
1.0445819
1.0307487
1.0173543
1.0038844
0.99048793
0.97757612
0.9655678
0.95487397
0.94584739
0.93817328
0.93053318
0.92446599
0.9188078
0.91101185
6.3486114
3.935526
2.6892353
2.0885505
1.7233458
1.4519857
1.2466379
1.1375493
1.0832118
1.0531821
1.0337588
1.0183332
1.0042179
0.99050917
0.97721261
0.96457085
0.95291005
0.94270551
0.93435045
0.92815353
0.92370761
0.92079463
0.91734361
6.3597199
2.9958364
2.5106493
2.086737
1.8262058
1.6450624
1.4833064
1.3211481
1.1872698
1.1069116
1.0611286
1.0320732
1.0112755
0.99449244
0.97974889
0.9663811
0.95423863
0.94347963
0.93442398
0.92715673
0.92197172
0.92003187
0.92000615
6.1459798
2.0982305
1.8444793
1.8719772
1.7787223
1.6689005
1.5797753
1.4956368
1.4029375
1.2938844
1.1904689
1.1077678
1.0559426
1.0212101
0.99610736
0.97679046
0.96120812
0.94823743
0.93743911
0.92886597
0.92276108
0.92013919
0.92152049
5.9527405
1.7339417
1.3394593
1.352501
1.4769643
1.5505756
1.5415438
1.5080133
1.4687461
1.4226134
1.3667344
1.2987406
1.218137
1.1412634
1.0746479
1.0270819
0.99387156
0.96960563
0.95131207
0.93747098
0.92744829
0.92143746
0.92170812
5.896432
1.658462
1.150986
1.0152594
1.0342009
1.1312313
1.2674847
1.3697478
1.4073437
1.4076365
1.3898623
1.364673
1.331019
1.2897555
1.2400557
1.1798056
1.1173759
1.0595537
1.0107067
0.97655411
0.95204297
0.93428807
0.91476409
5.9483205
1.6693474
1.0833258
0.84004765
0.76304563
0.77267292
0.83238561
0.93893421
1.0773072
1.2049334
1.2848973
1.316456
1.3187755
1.3069128
1.28936
1.2655764
1.2355417
1.1977616
1.1536417
1.1019008
1.0503535
1.0002715
0.96351498
6.020714
1.6957886
1.0325075
0.74251176
0.62191831
0.58430757
0.59343804
0.63335827
0.70369436
0.79638519
0.91802712
1.0463311
1.154492
1.2187718
1.2469672
1.2527098
1.2455832
1.2342646
1.2177612
1.1960277
1.1680164
1.1335526
1.0835944
6.1121568
1.699382
0.99740768
0.69843737
0.56597177
0.5095854
0.49315875
0.50095521
0.52700452
0.57029251
0.63026265
0.70778871
0.79870631
0.90734839
1.0150195
1.106566
1.1640242
1.1923113
1.2020485
1.1989344
1.1926067
1.1828419
1.1638319
6.2363604
1.689517
0.97446825
0.6850305
0.55500406
0.49547105
0.47138541
0.46673908
0.47398891
0.48993932
0.51398404
0.54698487
0.59053324
0.64644768
0.7145827
0.79105544
0.88219702
0.97406636
1.0547688
1.1112839
1.1415281
1.1564463
1.199319
6.3335064
1.6903162
0.97259489
0.6883408
0.56213853
0.50448358
0.47998426
0.47282265
0.47569009
0.48434759
0.49551758
0.50802522
0.52208128
0.54021759
0.56615332
0.60163484
0.64694076
0.70205461
0.76453638
0.83844164
0.9155775
0.98659919
1.0531549
6.5237567
1.6994137
0.98479596
0.7173721
0.60605049
0.55827469
0.53788809
0.52844369
0.52308495
0.51997321
0.51900073
0.51981972
0.52237495
0.52486238
0.52690154
0.53249558
0.54483187
0.56522051
0.59294805
0.62802335
0.67057785
0.72042387
0.79348742
6.4537472
1.8018373
1.0611678
0.82207081
0.74689004
0.72880877
0.72149989
0.70723465
0.68338562
0.65380432
0.62229144
0.59208759
0.56525646
0.54453948
0.53070357
0.52070145
0.51568759
0.5144031
0.51683776
0.52328378
0.53530395
0.5532655
0.59004666
6.3113445
2.2851181
1.3880465
1.1261585
1.0541767
1.0440735
1.0312561
0.99582969
0.93619424
0.86050019
0.77961905
0.70306709
0.63821403
0.58689829
0.54802583
0.52114117
0.50438994
0.48836101
0.47390082
0.46324478
0.45760839
0.45874538
0.47070558
6.3682977
2.4056469
1.6559197
1.410845
1.3599696
1.3458429
1.3119538
1.2375576
1.1296528
0.99946345
0.86632265
0.74981044
0.66001513
0.59402615
0.54700889
0.51285743
0.48155322
0.45283502
0.43220807
0.41730012
0.40723324
0.402058
0.40666757
6.3110951
2.578777
1.8552525
1.7151969
1.697415
1.6574903
1.5608107
1.4102089
1.225689
1.0368084
0.86985954
0.7382658
0.63962269
0.56670142
0.51116715
0.46621649
0.42962118
0.40602164
0.39141439
0.38135448
0.37511733
0.37168439
0.37405187
6.40464
2.695375
2.18303
2.1309836
2.0707327
1.9296923
1.7196244
1.4641632
1.2102889
0.97452374
0.78044169
0.63780152
0.5385784
0.4714513
0.42487829
0.39651823
0.37773749
0.36639393
0.36033515
0.35657587
0.3549972
0.3545693
0.35707196
6.4413863
3.5372375
2.8628929
2.6087253
2.3779211
2.0860683
1.7505725
1.3993743
1.0537976
0.7839837
0.61162463
0.50285905
0.4332809
0.39387733
0.36763375
0.354972
0.34634619
0.34269754
0.34158772
0.34124659
0.34186834
0.34274984
0.34763122
6.7635603
4.1762505
3.3973259
2.9335442
2.5012552
2.0694433
1.59934
1.1352751
0.80901387
0.60591
0.4878957
0.41712821
0.37495161
0.3553759
0.3410224
0.33658305
0.33189599
0.3309157
0.33102977
0.33137525
0.33273955
0.33378939
0.33913653
7.2636978
4.7403132
3.6174706
2.9605286
2.3628061
1.7229521
1.1688144
0.81315358
0.60557309
0.48008713
0.41256847
0.37313883
0.35022918
0.34207973
0.33298872
0.33095151
0.32734858
0.32610667
0.32530682
0.32496551
0.32584825
0.32657239
0.33071514
7.9758777
4.8935812
3.5998145
2.7182958
1.8733748
1.234097
0.8333558
0.60887227
0.48598169
0.41338131
0.37741812
0.3548287
0.34200806
0.33771656
0.33054369
0.32861759
0.32431133
0.32166174
0.31973094
0.31886034
0.31923596
0.31963712
0.32296428
8.7160766
4.9885642
3.3971785
2.2531505
1.4213192
0.91487841
0.64085009
0.49889586
0.42284062
0.37835022
0.35837179
0.34461038
0.33699211
0.33393328
0.32753521
0.32543658
0.32073987
0.31783092
0.31603132
0.31529666
0.315601
0.31614986
0.3189919
9.691733
5.0818753
3.1608944
1.9087663
1.1389481
0.7355243
0.5353922
0.43538358
0.38441517
0.35789933
0.34806004
0.34036423
0.33627157
0.33397962
0.32872608
0.32632423
0.32195757
0.31924087
0.31762139
0.31706231
0.31750884
0.31890009
0.32018164
10.472097
5.0839031
2.9337163
1.6363648
0.94330196
0.61196858
0.45803228
0.39388376
0.36889318
0.35799892
0.35461106
0.35140141
0.34968645
0.34736509
0.34276573
0.33924383
0.33454376
0.33121372
0.32874331
0.32805076
0.32855527
0.32942593