/*--------------------------------*- C++ -*----------------------------------*\
| =========                 |                                                 |
| \\      /  F ield         | OpenFOAM: The Open Source CFD Toolbox           |
|  \\    /   O peration     | Version:  2406                                  |
|   \\  /    A nd           | Website:  www.openfoam.com                      |
|    \\/     M anipulation  |                                                 |
\*---------------------------------------------------------------------------*/
FoamFile
{
    version     2.0;
    format      ascii;
    arch        "LSB;label=32;scalar=64";
    class       volScalarField;
    location    "130";
    object      p_0;
}
// * * * * * * * * * * * * * * * * * * * * * * * * * * * * * * * * * * * * * //

dimensions      [1 -1 -2 0 0 0 0];

internalField   nonuniform List<scalar> 
20580
(
1.0028332
1.007315
1.0034112
1.0010563
1.0055346
1.0043104
1.0032276
1.0027485
1.0043033
1.0029219
1.0024851
1.0035777
1.0041443
1.0026085
1.0027027
1.0041015
1.0019292
0.99881185
1.0062585
1.0037828
0.99666982
1.0012064
1.0050977
0.99910854
0.99063461
1.001432
1.0097686
1.0006776
1.0046271
1.0138219
0.98786032
1.0028794
1.0073877
1.0030689
1.0010331
1.0054315
1.0044805
1.003582
1.0030409
1.0043783
1.0025961
1.0024986
1.0041864
1.0034714
1.001841
1.0031652
1.0043198
0.99924365
1.000124
1.0084673
1.0006768
0.99614058
1.0046169
1.0035183
0.99578393
0.99087242
1.0066965
1.0200846
1.00303
0.99091501
1.0059366
1.0077379
1.0032961
1.0062171
1.0024689
1.0017548
1.0042328
1.0037878
1.0036688
1.0035529
1.0039412
1.0022865
1.0027536
1.00444
1.0029855
1.0016088
1.0034606
1.0043737
0.99756626
1.0016877
1.0094611
0.99837329
0.99662918
1.0072644
1.0030241
0.99535824
0.9928058
1.0076988
1.0232772
1.0052666
0.9804818
0.9920363
1.0204112
1.0039381
1.0042933
1.0020565
1.0030442
1.0025505
1.0026539
1.003348
1.0040597
1.0030442
1.0024995
1.0030003
1.0043667
1.0027758
1.0020133
1.0035079
1.0041678
0.99755875
1.0033269
1.0084524
0.99694013
0.99856169
1.0088683
1.0021918
0.99798579
0.99705025
1.0050097
1.0173624
1.0060825
0.97786965
0.97870089
1.0145758
1.0045414
1.0025767
1.0023352
1.0045232
1.0013602
1.0017752
1.0027399
1.0042212
1.0023102
1.0029298
1.0033157
1.0038509
1.002548
1.0027211
1.0032105
1.0035382
0.99915575
1.0048616
1.0057249
0.99615636
1.001227
1.009262
0.99965743
1.0010433
1.0043356
1.0012841
1.005068
1.00477
0.98437695
0.97448142
0.99792579
1.0048437
1.0018218
1.0033904
1.0054415
1.0012162
1.0016574
1.0022953
1.003628
1.0022313
1.0031219
1.0038127
1.0031213
1.0023234
1.0036366
1.0028308
1.0024301
1.001379
1.0062133
1.0024703
0.99634066
1.003995
1.0080905
0.99578494
1.0016325
1.0119239
1.0000568
0.99194286
0.99965784
0.99842158
0.98427251
0.98453948
1.0047938
1.0022601
1.0046775
1.005258
1.0020064
1.0023917
1.0023526
1.0024779
1.0024419
1.0033481
1.0041894
1.0024484
1.0024495
1.0045702
1.0027698
1.0011861
1.0032889
1.0069966
0.99937302
0.99739035
1.0066266
1.0059491
0.99224072
0.99995479
1.0158648
1.0025273
0.98347038
0.99170654
1.0112671
1.0062343
0.9877154
1.0043835
1.0037196
1.0053469
1.0041642
1.003238
1.0034523
1.0028132
1.0014726
1.0026097
1.0035687
1.0042492
1.0020148
1.0027507
1.0049503
1.0029703
1.0002572
1.0045464
1.0069116
0.99711992
0.99903072
1.0079237
1.0039659
0.99090626
0.9972968
1.0147538
1.0063189
0.98246973
0.9855073
1.0144294
1.0270591
1.0046232
1.0036868
1.0056091
1.0048668
1.0026482
1.0042923
1.0041072
1.0032289
1.0012062
1.0027433
1.0036693
1.0039068
1.002198
1.0029513
1.0044617
1.0030739
0.99989333
1.0049334
1.005632
0.99641343
1.0014416
1.0074825
1.0018498
0.99312923
0.99622109
1.0090553
1.0077876
0.98873764
0.98556455
1.0070641
1.0316828
1.0217961
1.0029787
1.0070143
1.0032689
1.0012895
1.0045759
1.0039532
1.003139
1.0017234
1.0028245
1.0036103
1.0033572
1.0027294
1.0032573
1.0035726
1.0030821
1.0003988
1.0045082
1.0034492
0.99709661
1.0041976
1.0060806
0.99900632
0.99837795
0.99909738
1.0014026
1.004453
0.99905447
0.99254082
0.99828961
1.0157306
1.0232748
1.0026802
1.0071336
1.0014557
1.0006633
1.0039927
1.0030819
1.0026585
1.0029142
1.0030087
1.0031789
1.002749
1.0033014
1.0038648
1.0026264
1.0030394
1.0018015
1.0038867
1.0012089
0.99857995
1.0065207
1.004073
0.99561693
1.0038636
1.0058147
0.99575037
0.99656184
1.0070589
1.0047505
0.99672991
0.99260453
1.0047888
1.002908
1.0060961
1.0004935
1.0013012
1.0031004
1.0020732
1.0021493
1.0042906
1.0034647
1.0027754
1.0024237
1.0036105
1.004453
1.0016767
1.0027372
1.0033171
1.0035266
0.99948742
1.0005028
1.00828
1.0017575
0.99247978
1.0071306
1.0130078
0.99430473
0.98836358
1.0073869
1.0170641
1.0019528
0.98085867
0.97978242
1.0034544
1.0044546
1.0010261
1.0028821
1.0023996
1.0016219
1.0019733
1.0048731
1.0039073
1.0026565
1.0024744
1.0036163
1.0046064
1.001152
1.0022547
1.0043413
1.0034694
0.99855917
1.0023187
1.0087838
1.0002651
0.99075283
1.0072575
1.0168958
0.99645704
0.9843656
1.0011374
1.0219954
1.0104482
0.98291605
0.96850911
1.0043078
1.00284
1.0029649
1.0044934
1.002039
1.0020102
1.0024446
1.0042779
1.0039155
1.0026909
1.0025313
1.0036659
1.0041717
1.0015449
1.0020105
1.0048109
1.0034245
0.99881426
1.0038288
1.0071286
0.99991937
0.99183042
1.0050677
1.0153085
0.99975211
0.98608719
0.99561347
1.0148966
1.0156048
0.99389869
0.97542344
1.0048924
1.0019623
1.0051288
1.0053936
1.0023137
1.0029605
1.003369
1.0029794
1.0034602
1.002962
1.0025394
1.0037198
1.0033838
1.0026126
1.0021165
1.0045734
1.0030901
1.0001943
1.005152
1.0039437
0.99980085
0.99611576
1.0031086
1.007901
1.0012372
0.9930555
0.99621718
1.0014085
1.0094301
1.005861
0.99409004
1.00492
1.002444
1.0061664
1.0051961
1.0031424
1.0037641
1.004109
1.0018121
1.0028199
1.0032305
1.0028598
1.0036669
1.0025401
1.0035019
1.0023393
1.0035806
1.0024244
1.0018231
1.0059894
1.0005079
0.99928353
1.0026468
1.0033713
0.99812695
0.99856486
1.0030444
1.0019153
0.99349388
0.99421123
1.0067326
1.012344
1.0044223
1.0039619
1.0054408
1.0038809
1.0036902
1.0038549
1.0039882
1.0013274
1.0022803
1.0032135
1.0035506
1.0034855
1.0018201
1.0040889
1.0028334
1.0025208
1.0016022
1.0030711
1.0062763
0.99760233
0.99824635
1.008685
1.0056293
0.99152983
0.99298512
1.0104535
1.0103437
0.99450522
0.98122873
0.99690547
1.0176194
1.0034054
1.0056726
1.0030926
1.0021429
1.0035386
1.0031577
1.0029189
1.0018345
1.001954
1.0028487
1.0042419
1.0032485
1.0014593
1.0044819
1.0036062
1.0020339
1.0009065
1.0037947
1.006224
0.99604005
0.99724962
1.0113587
1.0088794
0.98964307
0.98869377
1.0110361
1.0184177
0.99914869
0.97983894
0.98550453
1.0113295
1.0026891
1.0067954
1.0007619
1.0010148
1.0030744
1.002203
1.001507
1.0027538
1.0019387
1.0024605
1.0044087
1.0030862
1.0016254
1.0044163
1.0041215
1.0020837
1.0006693
1.0037912
1.0054719
0.99657572
0.99718884
1.0103415
1.0103491
0.99176513
0.98939145
1.0066316
1.019697
1.0039958
0.98619322
0.98413922
1.0004523
1.0025561
1.0069097
0.99990942
1.0010984
1.0024373
1.0017111
1.0007691
1.0034691
1.0022905
1.0024481
1.0039115
1.0029545
1.0022696
1.0037236
1.0039114
1.00231
1.001168
1.0034267
1.0035133
0.9990049
0.99915783
1.0063229
1.0078801
0.99649612
0.99438679
1.00326
1.0101886
1.0064292
0.9954601
0.99171573
0.99468021
1.0030325
1.0055126
1.0011621
1.0022061
1.0023254
1.0020327
1.0014354
1.0036941
1.0028019
1.0028692
1.0032196
1.0029147
1.0034132
1.0028721
1.0033031
1.0027289
1.0025114
1.0032721
1.0006938
1.0023274
1.0025649
1.0022587
1.0012512
1.0010247
1.0017064
1.003397
0.99836453
0.99998852
1.004588
1.0034088
0.9974372
1.0040859
1.0035625
1.0038834
1.0038442
1.0030074
1.0028417
1.0030718
1.0031248
1.0034415
1.0033844
1.0022903
1.0029142
1.0045563
1.0023607
1.0024524
1.0031882
1.0039672
1.0034949
0.99825068
1.0042829
1.006839
0.99955519
0.99454328
1.001331
1.0096663
1.0057254
0.99028818
0.98909655
1.0061025
1.0150648
1.0056132
1.0050642
1.0019573
1.0061904
1.0052832
1.0034005
1.0034989
1.0046128
1.002175
1.0041132
1.0036898
1.0015627
1.0027189
1.0053437
1.0022027
1.0016637
1.0032265
1.0049503
1.0041121
0.99668358
1.0040357
1.0104698
0.99955495
0.99077168
0.99806424
1.0138524
1.0100177
0.98954554
0.98114166
1.0001246
1.0193226
1.0135796
0.98807155
0.98641135
0.9922762
1.0051101
1.0179256
1.0253762
1.023108
1.0074282
0.98903515
0.98042573
0.98686269
0.99993103
1.0079107
1.0026739
0.98510052
0.97342581
0.98181101
1.0096441
1.0355373
1.0399238
1.0149965
0.97561728
0.95447482
0.98250824
0.9888562
0.9949616
0.99881317
0.9983276
0.99408375
0.98932621
0.99144057
1.0034772
1.0201393
1.030999
1.0277168
1.0086558
0.97950935
0.96054935
0.96297335
0.98493521
1.013284
1.0290104
1.0199471
0.99632321
0.97993831
0.98099892
1.0236306
1.0200689
1.0064022
0.98634746
0.96846475
0.95922341
0.96575704
0.98522
1.0077552
1.0244162
1.0271924
1.0137613
0.99475523
0.98546512
0.99115729
1.0064808
1.0177493
1.0134416
0.99103061
0.96281164
0.95352358
0.97131723
1.0065705
1.033532
1.0200328
1.0043582
0.99047414
0.98461908
0.99055937
1.0004499
1.0073089
1.0038985
0.98850919
0.96719296
0.95661923
0.96470154
0.99295581
1.0295091
1.0551667
1.0543424
1.0230771
0.97740396
0.94656012
0.94592506
0.97005613
1.0049392
0.97539541
0.97453379
0.9848143
1.0052234
1.0295207
1.0461045
1.0508563
1.0331264
1.0022274
0.9678629
0.94496155
0.9441482
0.96413713
0.99388388
1.0221423
1.0335439
1.020639
0.99677545
0.98301
0.98664556
1.0023182
1.0193356
1.0246654
0.94919519
0.96151157
0.98395903
1.005886
1.0244209
1.0314613
1.0226542
1.0082246
0.99412195
0.98758881
0.99393732
1.0085155
1.0218386
1.0194015
0.99712937
0.96619604
0.93833479
0.93631307
0.9610293
1.0070916
1.0569531
1.0840636
1.0671248
1.0066933
1.0144782
1.0106458
0.99545039
0.97496192
0.95509338
0.94288948
0.94632223
0.96838101
1.0073805
1.0492412
1.0779968
1.0787365
1.0459364
0.99653824
0.94867456
0.91871774
0.91818814
0.9463652
0.99150228
1.037662
1.0628686
1.0479557
1.0749
1.0533069
1.0201153
0.98501281
0.95683263
0.93520088
0.92826291
0.93845254
0.96573213
1.0022479
1.0325929
1.0495822
1.043087
1.0238812
1.0019296
0.98414359
0.97924128
0.98470104
0.99905994
1.0057143
0.99686787
0.97447581
0.95385186
1.021176
1.0138533
1.0094401
1.0011438
0.99004772
0.98825528
0.9974351
1.0117844
1.0167101
1.0038365
0.9789834
0.95259405
0.93948183
0.94361302
0.9658454
1.0046094
1.0492522
1.083189
1.0894213
1.0569245
0.99644638
0.93637843
0.89241103
0.93378104
0.93903591
0.95584383
0.98911308
1.0348287
1.0784617
1.1007286
1.0928716
1.0552912
1.0039272
0.95529275
0.91670696
0.8940511
0.89417403
0.92177115
0.97677863
1.04648
1.1047583
1.1219811
1.0899625
1.0296114
0.96472991
0.91429993
0.90344389
0.91709487
0.94629823
0.98832475
1.0345767
1.0777027
1.099179
1.0899182
1.0598787
1.0167131
0.97430478
0.94000022
0.92445371
0.92974578
0.94915413
0.97717298
1.0035765
1.0215398
1.0353478
1.0349699
1.0288304
1.0106556
0.98937162
0.95001321
0.96987825
0.99330018
1.0090653
1.0105392
0.99865033
0.98635561
0.98616407
0.99744032
1.0108965
1.0154692
1.0120786
1.0127641
1.0161572
1.0211761
1.0121423
0.988514
0.95756097
0.92956358
0.92636866
0.94575083
0.98675759
1.0333586
1.0648452
1.0591543
1.0370656
1.0029925
0.9615405
0.92648442
0.90397445
0.89880292
0.91591105
0.95227381
1.0063194
1.0644788
1.1116945
1.1278245
1.1042923
1.0506026
0.98682496
0.92738534
0.88383295
0.86481742
0.87761933
0.92175568
0.99579547
1.1605781
1.1192668
1.0538392
0.98593397
0.93090693
0.89224048
0.87181038
0.86786487
0.88127739
0.91699779
0.97741322
1.0593452
1.1405872
1.1850975
1.1616264
1.0841802
0.99836162
0.92837454
0.87904376
0.85722056
0.85818814
0.89172312
0.95732115
1.1661449
1.1209981
1.0570176
0.99074525
0.93564773
0.89707716
0.87595498
0.87264527
0.88632549
0.91885924
0.97266644
1.0407292
1.1087708
1.1547573
1.1504079
1.0990238
1.0242695
0.95332649
0.90294007
0.87664794
0.87339487
0.89611421
0.94335796
1.1160632
1.088293
1.0480563
1.0036743
0.95760623
0.92234274
0.90278058
0.89996818
0.91441367
0.94350989
0.98359715
1.0254246
1.0681904
1.0951191
1.0988616
1.0784915
1.0387171
0.98653329
0.9376174
0.90759634
0.90238091
0.91932837
0.95142026
1.0602944
1.0497903
1.0347207
1.0117733
0.98197535
0.95283988
0.9328348
0.92901746
0.94241741
0.96697503
0.99543405
1.0180256
1.0319465
1.0440218
1.0531555
1.0529556
1.0364169
1.0015837
0.96278298
0.93729401
0.93175665
0.94309312
0.96360378
1.024555
1.023323
1.0249431
1.0180589
1.0001161
0.97454093
0.95378977
0.95007888
0.96272359
0.98249604
0.99964222
1.0100269
1.012571
1.0187789
1.0265025
1.0355421
1.030941
1.0097142
0.97851002
0.95462119
0.94836415
0.9587925
0.97680291
1.0265563
1.0247397
1.0266107
1.0200778
1.0027279
0.97653412
0.95438886
0.94953154
0.96186119
0.98207831
0.99938383
1.0082305
1.0094494
1.0164483
1.0257717
1.0362994
1.0306772
1.0072188
0.97703104
0.95587894
0.95210592
0.96315026
0.98109789
1.0595288
1.0498216
1.0384039
1.0176477
0.98767732
0.95571775
0.934099
0.93089987
0.94495652
0.96961776
0.99527918
1.0128221
1.0233843
1.0369749
1.0487294
1.0487863
1.0317321
0.9978214
0.96167204
0.93910744
0.93942768
0.95688414
0.98000553
1.1210248
1.0874947
1.0491743
1.0070243
0.96222776
0.92403198
0.9026918
0.90073015
0.91807203
0.94986892
0.9905078
1.0274353
1.058907
1.0849738
1.088444
1.0667002
1.0241284
0.97363774
0.93220536
0.91119965
0.91664273
0.94197021
0.97600432
1.1782681
1.1279087
1.0590683
0.99005896
0.93131044
0.89186189
0.87178681
0.87005263
0.88745137
0.9260447
0.98437471
1.0551687
1.1245544
1.1528253
1.1286567
1.0667283
0.99396869
0.93204171
0.89149853
0.87715633
0.89071736
0.93084204
0.98525351
1.1830636
1.133287
1.059055
0.98235623
0.91975847
0.87584492
0.85191262
0.84996886
0.87152951
0.92222158
1.0046686
1.1050694
1.1851312
1.1946194
1.128978
1.0348329
0.94927674
0.88973988
0.85640206
0.85134027
0.87620217
0.93469087
1.0245844
1.0920708
1.0781401
1.0421907
0.99213734
0.94110733
0.89530554
0.86909382
0.87081451
0.90519772
0.96885786
1.0503484
1.1270261
1.1693285
1.1497402
1.0803896
0.99427825
0.91634853
0.86256225
0.84015123
0.85197897
0.90237384
0.99085483
1.0999327
0.96296843
0.9828165
0.99684677
1.0012585
0.98624978
0.9662999
0.95641454
0.96765302
0.99616677
1.0245365
1.042341
1.0514159
1.0525505
1.0437688
1.0166833
0.97143096
0.91899487
0.88677993
0.88551661
0.92166337
0.98029062
1.0485365
1.1113086
0.88666121
0.90747151
0.94435229
0.99294831
1.0446888
1.0874564
1.1047401
1.0850615
1.0418348
0.99782781
0.95645469
0.93204872
0.92988018
0.94566512
0.96908166
0.98670242
0.99457477
0.99916497
1.0047686
1.0118589
1.0135064
1.0082133
1.0037667
0.90480256
0.91806896
0.95044198
1.0034675
1.0654782
1.1195796
1.1357059
1.0946981
1.0231079
0.94958882
0.89331465
0.86679777
0.87211095
0.91062249
0.97948752
1.0603285
1.1209464
1.1204837
1.0705695
1.0040145
0.94416802
0.90301843
0.89802764
1.0163117
1.0051171
1.000508
0.99899559
1.000458
1.0075972
1.016525
1.0165498
0.99702608
0.96019268
0.92078093
0.90761997
0.92290455
0.96435905
1.0249821
1.0861787
1.1203961
1.0976567
1.0291172
0.94944164
0.89099165
0.8688088
0.8804569
1.0844363
1.0548542
1.0127254
0.97034768
0.93556856
0.91586829
0.91961845
0.94495402
0.9835606
1.0222869
1.0401129
1.0347897
1.0156732
1.0006719
0.98656421
0.98344151
0.99594922
1.0093878
1.0009404
0.97029102
0.93749272
0.9331014
0.94746228
1.0010725
1.0100277
1.0039675
0.9830447
0.95445546
0.9361378
0.93505888
0.95769784
0.99964602
1.0497761
1.0856584
1.0762352
1.028168
0.96988149
0.92455257
0.90586834
0.92059492
0.96572255
1.0261635
1.0638366
1.0526959
1.0141852
0.97616149
0.94168076
0.95539095
0.97915086
1.0064711
1.0279816
1.0305359
1.0162561
1.000232
0.98833707
0.98683121
0.9967851
1.0113494
1.0075509
0.9780677
0.94478167
0.93321695
0.94044973
0.97954668
1.034333
1.0801376
1.081407
1.0308129
0.95938219
0.98109226
0.97801944
0.98578584
1.003422
1.0250039
1.040377
1.0338694
1.0036565
0.966329
0.94139884
0.93683594
0.95941497
0.99876081
1.0323332
1.0348018
1.0099571
0.98270125
0.9674472
0.97140674
0.99490863
1.0231917
1.0272701
0.99992084
1.0279976
1.015103
0.99730067
0.97992394
0.97165115
0.97600085
0.98887452
0.99776868
0.99252954
0.97696118
0.96754522
0.97110597
0.99425414
1.0280965
1.0490826
1.0346196
0.99185766
0.94784315
0.92896551
0.93974508
0.97843634
1.0284298
1.0594655
0.99810587
1.0016192
0.99677976
0.98502555
0.97147851
0.96567068
0.97323736
0.99449181
1.0197321
1.0312745
1.016712
0.99074449
0.97052237
0.96825425
0.98702694
1.0122226
1.0161821
0.99179484
0.95919765
0.94694168
0.96000888
0.99643539
1.0342951
0.97704627
0.98283998
0.9953431
1.0070392
1.0109869
1.00526
0.99336977
0.98605446
0.99190355
1.0076752
1.0159633
1.00033
0.97144265
0.95427493
0.95886238
0.98967062
1.028604
1.0423474
1.0158888
0.97111238
0.94419708
0.94709878
0.97100328
1.0020309
0.9928782
0.99049535
0.99690795
1.0086812
1.0148063
1.0071253
0.98872849
0.97225328
0.97059518
0.98616798
1.0063223
1.0113441
0.99714536
0.9756509
0.96513608
0.97688744
1.0051846
1.0283124
1.02574
0.99718748
0.96685425
0.95472516
1.0057218
1.0027402
0.98929418
0.97988522
0.98036995
0.9899919
1.0012036
1.0015572
0.99061641
0.97708571
0.97312538
0.98452445
1.0058237
1.0208418
1.0163746
0.99596851
0.97438792
0.96731062
0.97726796
0.9950604
1.005237
1.0022591
0.99483424
0.98743436
0.99537925
0.99951122
0.99229632
0.98228941
0.97962198
0.98667076
1.0001072
1.0097621
1.0077067
0.99603704
0.9847816
0.98325525
0.99237323
1.0050605
1.008957
0.99925136
0.98355593
0.97330338
0.97390705
0.98268595
0.99265868
0.99906534
0.98477468
0.98738123
0.9985901
1.0071852
1.0056438
0.99551172
0.98672909
0.98652954
0.9941066
1.0040896
1.0075673
0.99993876
0.98676199
0.97786567
0.97875386
0.98768116
0.99775885
1.0017062
0.99942585
0.99528196
0.99215466
0.99037971
0.98941026
0.99907669
0.99292044
0.98988308
0.99322208
0.99991537
1.0023875
0.99669161
0.98709814
0.98208755
0.98458968
0.99257684
0.9999669
1.000977
0.995655
0.98909442
0.98652814
0.98913703
0.99451359
0.99919819
1.0013756
1.0008161
0.99764548
0.9926333
1.0039987
1.0003887
0.99206556
0.98610807
0.98569139
0.99157064
0.99972116
1.0018916
0.99834654
0.99272733
0.98995539
0.99206211
0.996843
1.0008215
1.0019184
1.0001094
0.99674066
0.99321437
0.9903387
0.98868597
0.98864897
0.98976223
0.99059376
0.99288487
0.99720867
0.99913984
0.99707359
0.99326276
0.99138831
0.99357193
0.99990777
1.0034474
1.0027275
0.99855302
0.99381282
0.99096635
0.99097857
0.99281381
0.99526049
0.99703173
0.99691138
0.99475418
0.99182526
0.98985366
0.9899467
0.99162808
0.99184115
0.99340879
0.9988097
1.0032312
1.0042814
1.0011231
0.9959936
0.99217309
0.99146557
0.99287442
0.99534294
0.99694554
0.9973758
0.99648385
0.99490662
0.99362676
0.99338891
0.99424348
0.99542873
0.99618951
0.99638018
0.99643264
0.99678303
1.0021843
0.99935815
0.99694429
0.99657418
0.99716385
0.99778917
0.99742008
0.99595953
0.99392935
0.9932138
0.99382054
0.99581256
0.99835252
1.0001273
1.0003952
0.9988756
0.99649384
0.99462221
0.99411017
0.99458386
0.99503243
0.99469643
0.99389907
1.0008408
1.0005542
0.9981541
0.99523256
0.99342078
0.99341273
0.99532197
0.99815794
1.0006552
1.0018932
1.0009805
0.99877863
0.99624186
0.99471557
0.99433063
0.99473927
0.99525315
0.99561087
0.99622163
0.997243
0.99809036
0.99784417
0.99629761
0.99485822
0.99639251
0.99848424
1.0001291
1.0008519
1.0006616
0.99981652
0.99892748
0.99842244
0.99821951
0.9979604
0.99744038
0.99639795
0.99566871
0.99595922
0.99726504
0.9987674
0.99956409
0.99924545
0.99850666
0.99802332
0.99779366
0.9974325
1.0004523
0.99946802
0.99914084
0.99954832
1.0002981
1.0007248
1.0005032
0.99941572
0.99792406
0.99680297
0.99666904
0.99757767
0.99891334
0.99989196
1.0003757
1.0006302
1.00079
1.0005307
0.99939827
0.99754442
0.99601193
0.99562705
0.99632885
1.0023451
1.0016764
1.0002781
0.99865368
0.99757482
0.99738935
0.99798121
0.99898915
0.99992135
1.0005548
1.0009786
1.0014175
1.0017606
1.0015428
1.0005155
0.998853
0.99733205
0.99673595
0.99713437
0.99804251
0.99902674
0.99994502
1.000686
0.99895657
0.99975211
1.0005302
1.0011225
1.0012947
1.0013105
1.0012648
1.0012308
1.0011077
1.0007055
0.9999518
0.99908959
0.99857531
0.99860134
0.99900872
0.9994597
0.99970731
0.99998966
1.0005425
1.001156
1.0013347
1.0008653
1.0000545
1.0019127
1.0018388
1.0019706
1.0019474
1.0015988
1.0009864
1.0002776
0.99971452
0.9994928
0.9996679
0.99999102
1.0001436
1.0001004
1.0001404
1.0004631
1.0009308
1.0012083
1.0011412
1.0008206
1.0003864
0.9998155
0.99910682
0.99851533
1.0017661
1.0016361
1.0014915
1.0013706
1.0012608
1.0011832
1.0011108
1.000987
1.0008018
1.0007797
1.0009816
1.0012771
1.0012704
1.0009645
1.0005851
1.0003586
1.000185
0.99997536
0.99984653
0.99991818
1.0001482
1.0003205
1.0003867
1.0021754
1.002013
1.0017194
1.0014761
1.0013386
1.0014994
1.0017558
1.0021008
1.0021201
1.001804
1.001424
1.0010989
1.0008949
1.0006407
1.0005522
1.0007352
1.0010512
1.0011744
1.0010451
1.0009287
1.0009781
1.0010794
1.0010957
1.0019876
1.0019833
1.001979
1.0021583
1.0022899
1.0021987
1.0019869
1.0018956
1.0019123
1.0019226
1.0017633
1.0016585
1.0015619
1.0015148
1.0014816
1.0015992
1.0018671
1.0019442
1.0016237
1.0012276
1.0009918
1.0009743
1.0011197
1.0026384
1.0022868
1.0022321
1.0024902
1.0028677
1.0028866
1.0024328
1.0019463
1.001747
1.0018357
1.0019712
1.0020601
1.0022318
1.0023139
1.0022373
1.0020517
1.0018894
1.0018024
1.001694
1.0015028
1.0012708
1.0012294
1.0015317
1.0036101
1.0030542
1.0025813
1.0023982
1.0024854
1.0025091
1.0024028
1.0022523
1.0023792
1.002552
1.0025288
1.0023965
1.0023725
1.002461
1.0023343
1.001928
1.0015267
1.0015252
1.0018802
1.0022612
1.00227
1.0018828
1.0015903
1.0032769
1.0030545
1.0028041
1.0027366
1.0028779
1.0029616
1.0029199
1.0027319
1.0028042
1.0028452
1.0026411
1.0022702
1.0019782
1.0022
1.0023472
1.0022592
1.0019437
1.0018805
1.0022471
1.0026774
1.0026723
1.0020587
1.0013901
1.0031766
1.003183
1.0032313
1.0032278
1.0031449
1.0030709
1.0029663
1.0028949
1.002984
1.0029259
1.0026156
1.0021538
1.0019964
1.0025181
1.0029985
1.0030426
1.0024464
1.0018583
1.0018489
1.0022719
1.002656
1.0024174
1.0018552
1.0031663
1.0031979
1.0033761
1.0034358
1.0033325
1.0031579
1.0029012
1.0027351
1.0027985
1.0030095
1.0031303
1.0028622
1.0024903
1.0024578
1.0027361
1.0030704
1.0029565
1.0025006
1.0020335
1.0017605
1.0018411
1.0020701
1.0023689
1.0030114
1.003156
1.00357
1.0036854
1.0034374
1.0029953
1.0026534
1.0026797
1.0029691
1.0032429
1.0032992
1.0030703
1.0028137
1.0026395
1.0026076
1.0026327
1.0025475
1.0025496
1.0026413
1.0026887
1.0026628
1.0024744
1.0023609
1.0034762
1.0032313
1.0031784
1.0032138
1.003375
1.0032984
1.0029639
1.0026612
1.0025912
1.0028683
1.0032949
1.0034057
1.0031872
1.0028058
1.002533
1.0025174
1.0026317
1.0028322
1.0030163
1.0030376
1.0028092
1.0023724
1.0020125
1.003678
1.0035405
1.0032618
1.0029499
1.0026902
1.0026624
1.0030364
1.0033998
1.0034012
1.003078
1.0027266
1.0026545
1.0029511
1.0032185
1.0031782
1.0028463
1.0023963
1.0022661
1.0026551
1.0032692
1.0035555
1.0031402
1.0023405
1.0038192
1.0033924
1.003015
1.00274
1.0026113
1.0027034
1.0030015
1.0034657
1.0038178
1.0036221
1.0028939
1.0021623
1.0020467
1.0026438
1.0035011
1.0039491
1.003565
1.0026518
1.0019027
1.0018715
1.0025034
1.0030919
1.0031018
1.0027843
1.0030342
1.003084
1.0030258
1.0030209
1.0029723
1.0029621
1.0031353
1.0033708
1.0034341
1.0031264
1.0025405
1.0021019
1.0021662
1.0027277
1.0033575
1.0036055
1.003347
1.00273
1.0021836
1.0020382
1.0022811
1.0027129
1.0017101
1.0023388
1.0032884
1.0039045
1.0038135
1.0030984
1.0023441
1.0019901
1.0022485
1.0028962
1.003246
1.0030157
1.0025844
1.0024309
1.0027315
1.0030882
1.0030329
1.0026598
1.0023521
1.0023123
1.0024553
1.0024636
1.0022743
1.0025286
1.002291
1.0024129
1.0029248
1.0033397
1.0032579
1.0025331
1.0016539
1.0014021
1.0020141
1.002997
1.0035189
1.0031619
1.0023833
1.0019759
1.0021481
1.0024842
1.0025822
1.0024356
1.002346
1.0024859
1.0026415
1.0024847
1.0027038
1.0025525
1.0023641
1.0021811
1.0021339
1.0021205
1.0020955
1.002082
1.002125
1.0022935
1.0025645
1.0027433
1.0025864
1.002158
1.0017603
1.0016776
1.0019648
1.0023402
1.0025179
1.0024333
1.0022069
1.0020567
1.0020263
1.0023816
1.0023292
1.0021657
1.0019424
1.0017535
1.001758
1.0019419
1.0022271
1.0024203
1.0023969
1.0021836
1.0018426
1.0015255
1.0013907
1.0014748
1.0017332
1.0020768
1.0023408
1.0023898
1.0021553
1.0016987
1.0012603
1.0010416
1.0020104
1.0019637
1.0019487
1.0019197
1.0018941
1.0019586
1.0020317
1.0020362
1.0019287
1.0017185
1.001533
1.0014373
1.0014305
1.0014347
1.0014146
1.0014571
1.0015941
1.0017293
1.0017263
1.0015068
1.0011565
1.0008721
1.0007427
1.0022586
1.0022966
1.0021185
1.0020053
1.0019168
1.0018604
1.0018158
1.0017333
1.0016028
1.0013098
1.0010427
1.0009861
1.0011998
1.0015471
1.0017126
1.001538
1.0011357
1.0007266
1.0004924
1.0004691
1.0005951
1.0008055
1.0009703
1.0022064
1.0020996
1.0019727
1.0018094
1.0016994
1.0016869
1.0016884
1.0016472
1.001574
1.0014162
1.0012019
1.00101
1.0009318
1.0009391
1.0010053
1.0009788
1.0007427
1.0004014
1.0001311
1.000067
1.0002145
1.0004485
1.0005664
1.0014537
1.0014838
1.0016594
1.0017935
1.0017956
1.0016812
1.0015088
1.0013694
1.0012578
1.0011913
1.0011315
1.0010509
1.0009141
1.0007259
1.0005182
1.0003639
1.0002775
1.0002329
1.0001657
1.0000991
1.0000049
0.99982921
0.99956932
1.0017793
1.0017009
1.0017017
1.0017515
1.0017715
1.0017024
1.0015086
1.0013029
1.0011646
1.0011662
1.0011909
1.0011462
1.0009858
1.000749
1.0004993
1.0002498
1.0000257
0.9998676
0.99979162
0.99978165
0.99973637
0.99948746
0.99899818
1.0021034
1.0020875
1.0020034
1.001902
1.0018102
1.0017772
1.0017957
1.0017795
1.0016871
1.0015367
1.0013871
1.0012274
1.001001
1.0007372
1.0005088
1.0003616
1.0002064
0.99999941
0.99975009
0.99952716
0.9993346
0.99909248
0.9986213
1.0018608
1.0020692
1.0022209
1.0022389
1.0020878
1.0019364
1.0019479
1.0020045
1.0019894
1.0018142
1.0015589
1.0013727
1.001223
1.0010502
1.0008264
1.000634
1.0004956
1.0003113
0.99998747
0.99958175
0.99919776
0.99886134
0.99844318
1.001951
1.0020021
1.0020766
1.0021079
1.0020812
1.0020134
1.0020455
1.0020504
1.002049
1.0019141
1.001754
1.0016414
1.00157
1.0014429
1.0012301
1.0009634
1.0007303
1.0004974
1.0002162
0.99989502
0.99958339
0.99926855
0.99881836
1.0019923
1.0019002
1.0017839
1.0017723
1.0018632
1.0019796
1.0020723
1.0020331
1.0019247
1.0018154
1.0017837
1.0018463
1.0018381
1.0017103
1.0014531
1.0012133
1.0010457
1.000885
1.0006585
1.0003731
1.0001135
0.99986897
0.99948955
1.0017449
1.0018019
1.0018604
1.0018629
1.0018183
1.0017683
1.0017708
1.0018047
1.0018526
1.0018735
1.00182
1.0017577
1.0016904
1.0016687
1.0016062
1.0015247
1.0014095
1.0012636
1.0010622
1.0008119
1.0005695
1.0003392
1.0000348
1.0017671
1.0017789
1.0017625
1.0017982
1.0017591
1.0017252
1.0016929
1.0017278
1.0018041
1.0018543
1.0017991
1.001672
1.0015963
1.0016491
1.0017319
1.0016718
1.0014938
1.0013352
1.0012746
1.0012135
1.0009884
1.0006803
1.0004517
1.0019912
1.0016838
1.0014813
1.0015122
1.0017065
1.0019052
1.0019437
1.0017413
1.001614
1.0015997
1.0017526
1.001835
1.0017788
1.0016485
1.0015896
1.0016448
1.0016616
1.001533
1.0013599
1.0012717
1.0012792
1.0011795
1.0010011
1.0014475
1.0015545
1.0017224
1.0017429
1.0016589
1.0015868
1.0016553
1.0016968
1.0016591
1.0016098
1.001598
1.0016334
1.0017778
1.001766
1.0016301
1.001492
1.0015108
1.0016461
1.0016611
1.0014862
1.0013219
1.0012961
1.0013573
1.001112
1.0012652
1.0016476
1.0018804
1.001644
1.0013171
1.0011856
1.0013236
1.0016156
1.0018499
1.0016002
1.0013918
1.0013439
1.0014933
1.0016137
1.0015491
1.0013455
1.0013381
1.0014136
1.0014674
1.0013876
1.0012581
1.0012
1.0006438
1.0010694
1.0016357
1.0016885
1.0012799
1.0008444
1.0007532
1.0011206
1.0016339
1.0018135
1.0013776
1.0010809
1.0010577
1.0013434
1.0014417
1.0012685
1.0011147
1.0011175
1.0013103
1.0012496
1.0011092
1.0008025
1.0008744
1.0007206
1.0008686
1.0010441
1.0009586
1.0005946
1.0004559
1.0007748
1.0013291
1.0017341
1.0012835
1.0006299
1.0005332
1.00079
1.0016059
1.0019668
1.0012496
1.0005828
1.0005209
1.0010585
1.0016934
1.0011538
1.0006223
1.0004742
1.0006166
1.0001528
1.0001759
1.0005493
1.0010293
1.0012808
1.0005145
0.99992406
1.0002929
1.0008749
1.0013059
1.0011569
1.0006858
1.0007179
1.0010236
1.0009161
1.0007563
1.0007999
1.0009758
1.0013204
1.0006934
1.000543
1.0004492
0.99965125
1.0002908
1.0009154
1.0007189
0.99978621
0.99929894
0.9998315
1.0007769
1.0013216
1.0008764
1.0001197
0.99993025
1.0002746
1.0006798
1.0011885
1.0013751
1.0004342
0.99987006
1.0001199
1.0016725
1.0016264
1.0001367
0.99905119
1.0006845
0.99919948
0.99841871
0.99948364
1.0007041
1.0005779
0.99968758
0.99919617
0.99963313
1.0002318
1.0001958
0.99997165
1.0004271
1.0007992
1.0000554
0.99939653
1.0000658
1.0016058
1.0012206
0.99940608
0.99918022
1.0010337
1.0017861
0.99944834
0.99962117
0.99877265
0.99831686
0.99935867
1.0005123
1.0002606
0.99886977
0.99820771
0.99934038
1.0008625
1.000597
0.99892205
0.99844215
1.0001022
1.0014174
1.0001136
0.99836096
0.99928132
1.0014183
1.0010928
0.99909356
0.99846669
0.99840951
0.99881896
0.99987207
0.99950543
0.99798209
0.9976999
0.99938394
1.0009438
1.0000086
0.99770972
0.99723501
0.9994206
1.0013644
1.0002897
0.99794374
0.99781919
0.99983457
1.0008294
0.99968197
0.99880348
0.99937656
0.99969331
0.99933622
1.000947
0.99784428
0.99673307
0.99820776
1.000247
1.0001828
0.9985509
0.99778424
0.99870372
0.99948114
0.99878787
0.9980517
0.99889815
1.0001228
0.99943231
0.9976414
0.99785206
0.99989341
1.0003842
0.99852512
0.99758354
0.99939012
1.0010647
0.99904768
0.99946729
0.99776464
0.99707446
0.99836787
1.000195
0.99998735
0.99796483
0.99684309
0.99823204
1.0000401
0.9994401
0.99743442
0.99741192
0.99952663
1.0001352
0.99790412
0.99636427
0.99830559
1.0008951
1.000044
0.99700613
0.99598893
0.99601909
0.9989975
1.0009306
0.99959416
0.99675173
0.99581065
0.99786225
1.0002867
0.99994265
0.99751492
0.99636235
0.99787915
0.999628
0.99908633
0.99749316
0.99734489
0.99831421
0.99858517
0.99818589
0.99823214
0.9984901
0.99789952
0.9970586
0.9984369
0.99663341
0.99727456
0.99893935
0.99929997
0.99780957
0.99639373
0.99689414
0.99857005
0.9991342
0.99794013
0.99696651
0.99756737
0.99850507
0.99802622
0.99699238
0.99755039
0.99890877
0.99852871
0.99674717
0.9965
0.9984302
0.99968334
0.99771828
0.99770166
0.9965591
0.99660081
0.99798043
0.99880677
0.99766123
0.99589259
0.99607304
0.99818993
0.99948521