/*--------------------------------*- C++ -*----------------------------------*\
| =========                 |                                                 |
| \\      /  F ield         | OpenFOAM: The Open Source CFD Toolbox           |
|  \\    /   O peration     | Version:  2406                                  |
|   \\  /    A nd           | Website:  www.openfoam.com                      |
|    \\/     M anipulation  |                                                 |
\*---------------------------------------------------------------------------*/
FoamFile
{
    version     2.0;
    format      ascii;
    arch        "LSB;label=32;scalar=64";
    class       volVectorField;
    location    "130";
    object      U_0;
}
// * * * * * * * * * * * * * * * * * * * * * * * * * * * * * * * * * * * * * //

dimensions      [0 1 -1 0 0 0 0];

internalField   nonuniform List<vector> 
20580
(
(0.084081964 0.00062313973 5.5212805e-22)
(0.084998937 0.00077115464 -7.6720314e-20)
(0.093313577 -0.00069230236 3.7907531e-22)
(0.092768795 -0.00028573571 -1.0070947e-20)
(0.092306174 0.0016301912 -8.7790761e-23)
(0.093232266 0.00045287093 1.9418665e-20)
(0.09328371 0.0008467095 -9.0401591e-20)
(0.093207482 0.0010054 -7.3136271e-22)
(0.092747384 0.0018068325 5.8722397e-21)
(0.092833198 0.00062365356 0)
(0.092698372 -0.00033362233 -1.1730043e-21)
(0.092042636 0.00066070228 7.3317499e-20)
(0.09130037 0.0012776824 -6.7193908e-21)
(0.091356474 -0.0008215609 7.7068392e-21)
(0.090951113 -0.0014735644 -1.121529e-20)
(0.08981166 0.00023250637 -8.1323898e-21)
(0.090312128 -0.0027752344 1.3119444e-19)
(0.09136851 -0.0078396302 2.1081296e-21)
(0.088213489 -0.0027886966 -7.0538409e-20)
(0.088167116 -0.005099189 -5.9356951e-21)
(0.090950985 -0.013311917 3.6805149e-22)
(0.089310541 -0.011664191 2.1374858e-21)
(0.086980501 -0.010295041 -1.4538156e-20)
(0.09078892 -0.018266576 1.3544035e-19)
(0.096435331 -0.027565479 -3.6549406e-20)
(0.09362098 -0.029050641 9.5086413e-20)
(0.09096962 -0.023048302 3.7156635e-20)
(0.095088464 -0.01878222 7.0841129e-21)
(0.094161559 -0.027711453 -2.7667526e-20)
(0.089480954 -0.042252066 1.2472044e-19)
(0.10422435 -0.050937622 1.0402654e-19)
(0.082477704 0.0013816034 0)
(0.083394063 0.00052118771 1.410081e-19)
(0.091357022 -0.00029319692 -4.979788e-20)
(0.091081301 0.00044572657 3.1175073e-20)
(0.091540885 0.00082718514 4.8493291e-20)
(0.092339604 0.0005002466 3.4777971e-22)
(0.092491126 0.00086587514 -6.1023319e-20)
(0.092418614 0.0011163958 1.9565241e-20)
(0.092399198 0.0012627113 -7.5865763e-21)
(0.092531076 0.00052975726 -1.16131e-20)
(0.092119762 -5.7090677e-05 -8.2190027e-21)
(0.091397507 0.00078553796 1.2486666e-20)
(0.091291972 0.00070364233 -1.4056246e-20)
(0.091418269 -0.00097560123 -7.3906304e-23)
(0.09057384 -0.0013358638 1.6328317e-20)
(0.089952226 -0.0003474866 9.8039401e-22)
(0.091536433 -0.0037813317 -3.9452628e-20)
(0.09073885 -0.0061544747 5.1640045e-20)
(0.087915417 -0.002014069 0)
(0.090506795 -0.0064351399 -7.2867557e-20)
(0.091920674 -0.012498803 0)
(0.088878712 -0.0096898414 6.9215934e-20)
(0.088659029 -0.010271317 3.1121463e-20)
(0.09313658 -0.017842065 -1.287752e-21)
(0.096173152 -0.022112922 3.3071858e-20)
(0.090616076 -0.021526562 -1.3996838e-20)
(0.087426143 -0.019231205 5.0709554e-20)
(0.096540694 -0.018596871 8.2461529e-20)
(0.10293976 -0.028021855 1.6064751e-19)
(0.095963669 -0.043504523 -5.3401553e-20)
(0.095314916 -0.049643865 -1.3761064e-19)
(0.080959562 0.0025686803 0)
(0.081952523 0.00032442849 0)
(0.089169629 0.00042269523 1.0556853e-19)
(0.08915619 0.0014373669 -2.6508226e-19)
(0.090085659 -0.00011943862 1.0753042e-19)
(0.090917864 0.00075668664 2.5504666e-22)
(0.091231982 0.00083539638 -1.9375053e-20)
(0.091399601 0.0010754929 2.4579464e-20)
(0.091550741 0.0005391996 0)
(0.091714345 0.00052629665 -4.9778437e-21)
(0.091270745 0.00041759102 8.5048335e-21)
(0.090652166 0.00069832387 -5.234715e-21)
(0.090836987 -0.00011860059 0)
(0.090979708 -0.0010698246 2.2155415e-22)
(0.08999692 -0.0010751048 3.455775e-21)
(0.089779727 -0.0015404821 5.5474394e-21)
(0.091648116 -0.0044485804 -1.1929555e-21)
(0.090010999 -0.004252789 4.9393079e-21)
(0.08787533 -0.0022247303 2.865924e-21)
(0.091835549 -0.0076564557 0)
(0.092315558 -0.010956326 0)
(0.088935913 -0.00808864 -5.4451297e-20)
(0.090262236 -0.010736064 -3.9591945e-21)
(0.09437126 -0.016853795 1.1651888e-20)
(0.096071197 -0.0163946 1.4509197e-20)
(0.090481905 -0.014493589 -2.0207459e-20)
(0.086122776 -0.017836799 3.551119e-20)
(0.096181365 -0.022159455 3.4957503e-20)
(0.10943836 -0.028191839 -4.8173404e-20)
(0.10533298 -0.040740615 -9.2955188e-20)
(0.090780222 -0.047462352 -1.7042154e-20)
(0.079430864 0.0031533898 0)
(0.080477195 0.00015981966 2.2696153e-22)
(0.086975406 0.0008830452 3.4135108e-22)
(0.087022141 0.0016588343 -3.1078682e-21)
(0.088072175 -0.00084531954 2.1215726e-19)
(0.088864356 0.00098188775 -6.3976457e-20)
(0.089442222 0.00070441658 -7.672464e-20)
(0.090004287 0.00081450018 0)
(0.090263609 -7.6118294e-05 -3.0655038e-22)
(0.090414994 0.00034240402 -1.2110948e-20)
(0.090088143 0.00084511256 2.7399637e-20)
(0.089714851 0.00058419982 8.7568149e-21)
(0.090071104 -0.000913394 3.7838908e-22)
(0.090107009 -0.00099890509 -1.3302858e-20)
(0.089332507 -0.00078503848 5.3903304e-21)
(0.089601873 -0.0026070809 2.674014e-21)
(0.091241549 -0.0048262494 2.89063e-20)
(0.08928336 -0.0021038143 9.8892215e-24)
(0.08825117 -0.0027186025 -1.1259988e-21)
(0.092599885 -0.0089912816 -5.9995675e-21)
(0.092015237 -0.0088721727 -9.8932079e-21)
(0.089137687 -0.0062914993 -2.0486018e-20)
(0.091767342 -0.01148476 -7.5201706e-21)
(0.094646864 -0.016755722 6.2336307e-20)
(0.095414343 -0.011982184 0)
(0.092241894 -0.008956394 -1.3645655e-20)
(0.088035581 -0.017699152 -7.3870356e-20)
(0.09524489 -0.027138876 -3.1601722e-20)
(0.11014681 -0.028851389 5.2299756e-20)
(0.11263544 -0.032434223 -5.6116273e-20)
(0.095602301 -0.039186327 -1.3829827e-19)
(0.077989893 0.0029431355 0)
(0.078964772 0.00033612984 1.5055945e-19)
(0.08513886 0.0010992674 2.0517882e-19)
(0.08508269 0.0011218833 2.0887872e-19)
(0.085792055 -0.00086018999 4.8367098e-22)
(0.086457991 0.0012017142 -6.2745421e-20)
(0.087327864 0.00059507599 0)
(0.088142564 0.00047606539 1.0375185e-20)
(0.088590287 -0.00031385924 1.729938e-20)
(0.088736109 0.00011508308 -2.3123192e-20)
(0.088595601 0.0010230885 2.7054237e-20)
(0.088600684 0.00047654591 -1.3058591e-22)
(0.089000025 -0.001388389 6.0851872e-21)
(0.088946914 -0.00068981272 1.9689748e-20)
(0.088639502 -0.00049628984 7.5863393e-21)
(0.089247417 -0.0031504459 1.7565484e-20)
(0.090256627 -0.0048201983 7.0151663e-20)
(0.088484176 -0.00043196781 -4.8942967e-20)
(0.088942525 -0.0034927248 -8.4871707e-20)
(0.092813 -0.009762561 0)
(0.091075796 -0.0067887467 -1.0567828e-20)
(0.08959999 -0.0050554192 1.9570743e-21)
(0.093660534 -0.01188322 6.2081315e-20)
(0.094396673 -0.017141856 4.701428e-21)
(0.093584379 -0.011011956 0)
(0.095102479 -0.0066510501 4.4015632e-20)
(0.09418231 -0.017204935 -1.038385e-19)
(0.095792685 -0.030676137 5.0001508e-20)
(0.10664489 -0.030232072 1.5134858e-19)
(0.114176 -0.02364828 -1.9888404e-20)
(0.10563133 -0.025448607 9.0130649e-20)
(0.076803414 0.0020266089 3.6869234e-20)
(0.077495888 0.00081657752 3.0782356e-22)
(0.083699748 0.00080343491 -2.0500849e-23)
(0.083475605 -1.5167352e-05 -3.1576374e-20)
(0.083620588 -0.00036108985 4.6615417e-20)
(0.08418367 0.0010691558 1.6790999e-22)
(0.085255589 0.0004466993 1.0169443e-20)
(0.086134676 0.00010426653 -7.0024386e-25)
(0.086585332 -0.00020238637 -2.8295496e-21)
(0.086768498 1.7651302e-05 2.4058528e-20)
(0.086866957 0.00090637478 2.9047251e-20)
(0.087280205 0.00026203358 -2.0267412e-20)
(0.08764798 -0.00139484 1.3171032e-21)
(0.087539607 -0.00035669349 2.2382973e-20)
(0.08783677 -0.00013040273 5.2884904e-21)
(0.088795435 -0.0029742984 -8.3775427e-22)
(0.088942944 -0.004199342 7.5963131e-20)
(0.087716191 0.00036660316 -3.4986836e-20)
(0.089724213 -0.0043896065 -5.8221142e-21)
(0.092516521 -0.0094338713 0)
(0.089945825 -0.0048526207 -9.2500041e-21)
(0.090264101 -0.0048248093 -8.1243274e-20)
(0.095782668 -0.01166439 -8.7878647e-20)
(0.094563948 -0.016249755 0)
(0.091621995 -0.012431225 -1.0740467e-19)
(0.096931208 -0.0086378111 9.0832254e-21)
(0.10146051 -0.017795812 9.1415299e-20)
(0.09921822 -0.031394052 2.1662541e-19)
(0.10116899 -0.031159144 -9.7121022e-20)
(0.10932049 -0.017320826 -7.2725804e-20)
(0.1131464 -0.011870175 5.3665545e-20)
(0.076526095 0.00074356489 -2.1295995e-21)
(0.076896021 0.0016792004 1.1249446e-19)
(0.082569862 0.00017688282 -1.2709059e-22)
(0.082021474 -0.00098745731 -1.603313e-19)
(0.081739152 0.00054400684 7.285865e-20)
(0.082401583 0.00059678895 -1.1282252e-19)
(0.083311286 0.00032983322 2.8299199e-20)
(0.084241595 -9.4400756e-05 1.4403294e-23)
(0.084593296 0.00019343522 2.0013161e-22)
(0.084768773 5.2035231e-06 -7.9577663e-21)
(0.085059689 0.00067713801 2.7526551e-22)
(0.085816338 -4.0316365e-05 6.7473009e-22)
(0.08610442 -0.0010104418 5.8570957e-21)
(0.08596891 -0.0001416111 -1.9228488e-24)
(0.086859088 -6.3295224e-05 1.488945e-21)
(0.088143203 -0.0023888193 8.9302045e-22)
(0.087511318 -0.00305675 -9.360697e-22)
(0.087032254 0.00019720322 2.572591e-20)
(0.090205593 -0.0052063183 0)
(0.091665291 -0.0082587762 3.8924295e-20)
(0.088787422 -0.0034648245 6.4129219e-21)
(0.090703925 -0.00556301 -4.7780312e-20)
(0.097031425 -0.011306196 4.4339515e-21)
(0.094900322 -0.013501879 -2.6327948e-20)
(0.089896679 -0.013546832 -1.1711183e-20)
(0.096632617 -0.012646101 -1.516551e-20)
(0.10663779 -0.017824363 4.0116586e-20)
(0.1046155 -0.027880649 4.817659e-21)
(0.09779801 -0.030721284 -1.4164703e-19)
(0.10112633 -0.018125989 2.950732e-19)
(0.11301867 -0.0075939658 -2.0080572e-20)
(0.078080423 0.00030633854 3.8056515e-19)
(0.077522857 0.0022058828 0)
(0.08261636 -0.00089977983 -2.8626669e-20)
(0.081480413 -0.0014615094 2.1399765e-19)
(0.080813089 0.001347498 -1.6334506e-19)
(0.081381064 -0.00014786792 -7.0929478e-23)
(0.081951219 0.00015182497 2.4242477e-20)
(0.08263068 -0.00015531394 -5.8141019e-25)
(0.082887458 0.00055289163 6.4006068e-21)
(0.083021586 0.00013568601 -1.7481359e-20)
(0.083364187 0.00034656618 9.3954012e-21)
(0.084279232 -0.00034050061 3.5178176e-22)
(0.084466722 -0.00037535055 6.8085348e-21)
(0.084394312 1.7025475e-05 -2.7611566e-21)
(0.085620652 -0.00051997878 -4.83054e-21)
(0.087079343 -0.0016475305 2.6350038e-20)
(0.086054012 -0.001644721 -2.3840481e-20)
(0.08637293 -0.0006707596 -2.2716176e-20)
(0.090150768 -0.0057711595 -4.6139652e-22)
(0.090376708 -0.0063293159 -1.5309e-21)
(0.087804544 -0.0024369066 -3.0873813e-21)
(0.090730689 -0.0071946153 -7.0959977e-22)
(0.096851114 -0.011074243 0)
(0.095330774 -0.0094399668 -1.3332206e-20)
(0.08976633 -0.012129581 -4.1954598e-20)
(0.09523124 -0.01645649 -9.5520454e-20)
(0.10705752 -0.017786364 2.5834061e-20)
(0.1076852 -0.020312235 -9.68479e-20)
(0.09694854 -0.024203662 5.3337587e-20)
(0.093463357 -0.021891527 -2.6440214e-19)
(0.10558063 -0.014534387 -1.6235559e-19)
(0.089641789 0.0007170324 -1.8091336e-19)
(0.079541241 0.0028747706 -1.4250384e-23)
(0.083726748 -0.0015277312 1.0327026e-19)
(0.08185559 -0.0010152383 2.4232639e-19)
(0.081048561 0.0017554596 -6.6343304e-22)
(0.08153327 -0.00066396745 -2.1814613e-22)
(0.081852285 8.1557992e-05 -1.778311e-20)
(0.081909179 0.00011909249 1.9525903e-24)
(0.081970388 0.00062331319 4.2795377e-21)
(0.081942687 0.0004273582 7.9805114e-22)
(0.082138433 -8.6274294e-05 4.4965483e-20)
(0.082841284 -0.00061565585 0)
(0.08287836 0.00025424943 7.7436984e-22)
(0.082945401 5.5534792e-05 2.8652805e-22)
(0.084160159 -0.0013015904 8.9138921e-22)
(0.085447129 -0.0010422128 4.5974138e-21)
(0.084476842 -0.00033890868 5.4722659e-21)
(0.085520293 -0.0018779866 6.0534723e-20)
(0.089189102 -0.006078458 2.2945883e-21)
(0.088586804 -0.0039862974 -7.5151249e-20)
(0.087246773 -0.0015112186 2.4894882e-20)
(0.090741627 -0.0089811661 2.0764161e-21)
(0.095417292 -0.01086093 4.5341481e-21)
(0.095148789 -0.0048811074 -8.988246e-21)
(0.091541586 -0.0085387642 -5.9242473e-21)
(0.09445354 -0.018621483 -3.1743062e-20)
(0.10441416 -0.018341918 -1.4589735e-19)
(0.10824979 -0.01258216 5.9830975e-20)
(0.099810897 -0.012906627 -1.8887492e-19)
(0.091505361 -0.021225909 -1.1671692e-19)
(0.097241649 -0.025217245 -1.1292577e-19)
(0.10914583 0.0019676018 -4.7209628e-19)
(0.087253449 0.0020203211 3.7565092e-23)
(0.088394909 -0.0015056059 -4.8786619e-19)
(0.084979183 -1.3257046e-05 -2.4569066e-19)
(0.083059642 0.0014169669 -2.8202804e-22)
(0.082888349 -0.00060029711 0)
(0.082555598 0.00015866435 1.5591388e-20)
(0.082240517 0.00062757556 8.1651097e-20)
(0.08213513 0.00045037709 -5.4609516e-21)
(0.082015044 0.00074797461 -9.3074534e-21)
(0.082109403 -0.00037391993 -1.0509061e-22)
(0.082407847 -0.00070510596 -4.7992351e-24)
(0.082232558 0.00082719266 0)
(0.082390696 4.0642296e-06 4.5693297e-20)
(0.08323999 -0.0017857185 -5.2257551e-22)
(0.084075324 -0.00082543996 3.7789667e-22)
(0.083361742 0.00056743653 1.9950273e-20)
(0.084799312 -0.0029777445 8.1154326e-20)
(0.087513728 -0.0059106902 -3.4674699e-20)
(0.086225931 -0.0020438384 -7.621863e-20)
(0.086813303 -0.001090898 4.5908685e-20)
(0.090623756 -0.0099021692 7.2779169e-20)
(0.092463259 -0.010869486 -1.2754694e-19)
(0.093227343 -0.001674511 -1.0811392e-19)
(0.09399915 -0.0041458792 -2.0466237e-19)
(0.095150888 -0.017268455 2.7751369e-21)
(0.099785772 -0.018465037 6.984591e-22)
(0.10470447 -0.007315871 7.9175032e-20)
(0.10422672 -0.00251835 -3.737786e-20)
(0.098056153 -0.01414945 -2.7352181e-19)
(0.096063425 -0.029963788 -1.6531904e-19)
(0.11397517 0.0024112214 8.0102379e-21)
(0.096276846 0.0012416795 2.889638e-22)
(0.096198307 -0.00081253115 -1.3182438e-19)
(0.092047455 0.00099765202 -4.8230938e-22)
(0.088889033 0.00047301271 1.1767644e-21)
(0.08689006 0.00011319796 2.3054397e-19)
(0.085284736 0.00041880721 2.6751676e-20)
(0.08398907 0.001063522 2.8390666e-23)
(0.083428546 0.00027230706 -1.3613095e-20)
(0.083023171 0.00092475241 1.576751e-20)
(0.082915877 -0.00051838007 -1.5832503e-20)
(0.082731175 -0.00061092776 -1.3524254e-20)
(0.082525682 0.00097164036 0)
(0.08291405 -0.00021760664 2.7893297e-22)
(0.083371555 -0.0020820791 -7.599346e-21)
(0.083701285 -0.0011788439 5.6930902e-22)
(0.083467674 0.00074548246 -6.3253004e-22)
(0.08510138 -0.0036928139 3.0371513e-22)
(0.086392899 -0.0049689414 -3.4661854e-21)
(0.08456677 -0.00060525187 7.4017188e-22)
(0.087065168 -0.0012942813 -6.9120404e-20)
(0.091040912 -0.0092218302 8.4558662e-20)
(0.089375125 -0.010231812 -7.474057e-21)
(0.090062828 -0.0012352234 -1.698165e-20)
(0.095971951 -0.0016792191 -3.856093e-20)
(0.09756237 -0.013352103 -1.4765967e-20)
(0.0954851 -0.018073188 7.8461705e-20)
(0.097718909 -0.0071000071 -2.23803e-19)
(0.10433754 0.00084808495 2.3206355e-20)
(0.10787054 -0.0062642145 2.3632471e-19)
(0.10518706 -0.025926285 4.2948821e-20)
(0.10899683 0.0034752053 -2.4597816e-19)
(0.09990769 -0.00011095729 0)
(0.10186303 0.00012601315 2.0241612e-20)
(0.099232923 0.0014278753 -2.6524012e-19)
(0.096773068 -0.00064456293 -1.6768106e-19)
(0.094262388 0.00082558976 4.5409136e-20)
(0.091530672 0.00048100533 5.2172332e-22)
(0.089120337 0.00084530428 -2.7966673e-23)
(0.087347942 0.00030132275 1.9087472e-20)
(0.086283586 0.00084540198 9.7628186e-21)
(0.085679371 -0.00036608025 4.6599273e-21)
(0.084785187 -0.00018835448 7.0355808e-23)
(0.084376327 0.00082526793 2.0302442e-20)
(0.084818303 -0.00024545109 0)
(0.08474486 -0.0017870569 -1.808655e-20)
(0.084350886 -0.0013696416 5.3265346e-20)
(0.084567258 0.00041959911 -7.964936e-21)
(0.086255245 -0.0039658548 4.9136233e-20)
(0.086169759 -0.003558739 5.78963e-22)
(0.084154767 -9.0704587e-05 3.4048084e-20)
(0.087912815 -0.0023184237 -3.9939191e-20)
(0.091960498 -0.0077150239 -2.1714155e-22)
(0.08740767 -0.0081516389 5.7981583e-20)
(0.086820448 -0.0030799296 1.2177853e-19)
(0.096095116 -0.0025188472 -7.6430129e-21)
(0.1003753 -0.0094814278 -5.9427383e-20)
(0.093954054 -0.014860176 1.2683866e-20)
(0.09105967 -0.010341202 1.1604697e-21)
(0.099802505 -0.0035747088 -2.7810183e-19)
(0.11229007 -0.0052486286 -3.548706e-20)
(0.11597765 -0.017631342 1.2595651e-19)
(0.095947013 0.0035337692 1.6962491e-19)
(0.097207117 -9.0685611e-05 1.7068427e-19)
(0.10116356 0.00088956811 -1.3323243e-21)
(0.099478922 0.0011626268 -3.6596516e-21)
(0.098548454 -0.0012839134 -1.3383465e-22)
(0.097743987 0.0012096161 -7.8611009e-21)
(0.09671953 0.00045173522 2.4549743e-20)
(0.095372142 8.6283474e-05 6.0408083e-23)
(0.09373501 0.00045154483 6.7895271e-22)
(0.09255074 0.00029409541 -1.4669379e-21)
(0.091582714 -0.00022909135 1.5505783e-22)
(0.090045707 0.00024290779 1.7861476e-21)
(0.089230568 0.00024912955 1.7725625e-22)
(0.089355213 -0.00036330923 7.1996075e-22)
(0.088643348 -0.001117709 0)
(0.087329038 -0.0012853707 0)
(0.087687266 -0.00031766748 5.1851304e-21)
(0.08902544 -0.0036594114 2.4299773e-22)
(0.087743184 -0.0017585463 6.2088161e-20)
(0.085832861 -0.0002364329 -1.8441245e-21)
(0.089883112 -0.0039739487 -2.6150775e-20)
(0.093672558 -0.0058968005 -8.3229354e-21)
(0.087897622 -0.004394472 0)
(0.085560429 -0.0049312676 0)
(0.095254345 -0.0062029183 0)
(0.10209176 -0.0076976585 2.9686718e-21)
(0.095516261 -0.0089058222 3.6333872e-21)
(0.08831529 -0.012039463 -1.0509988e-20)
(0.094343618 -0.011821412 3.075976e-20)
(0.10930084 -0.011119111 -3.7159646e-20)
(0.11926463 -0.01230048 -2.3044335e-21)
(0.086656513 0.0035092496 9.0590447e-20)
(0.088506551 -0.00022965571 2.2724321e-21)
(0.096473601 0.00071321054 2.5137795e-21)
(0.096498367 0.00021462786 2.9599322e-19)
(0.096508516 -0.0012496137 0)
(0.096470589 0.0010975274 2.6003494e-22)
(0.096425112 0.00041916081 3.7137819e-20)
(0.095961874 -0.00039186812 8.9559228e-20)
(0.095533596 0.00074990221 -2.0108862e-22)
(0.095492988 -0.00018679362 -1.1763652e-20)
(0.095186487 0.00027996722 1.1077027e-21)
(0.094331859 0.00072290746 0)
(0.094062805 -0.00023671995 6.8886267e-20)
(0.094323637 -0.00062561771 -3.7657427e-20)
(0.093822201 3.8737532e-05 3.1927905e-21)
(0.092479096 -0.00078744759 -5.6576266e-22)
(0.092911586 -0.0011071844 7.094205e-21)
(0.093743968 -0.0029870619 1.642581e-22)
(0.092010981 3.9862314e-05 4.7040524e-20)
(0.090565768 -0.00071602524 -3.2330757e-21)
(0.093877207 -0.0061442667 1.3383369e-21)
(0.096672305 -0.0042425256 -7.7539635e-20)
(0.091700431 -5.4549616e-05 2.5608878e-20)
(0.088796497 -0.0054015303 0)
(0.09607872 -0.011161718 1.7705783e-20)
(0.10276699 -0.0078537103 -4.3894163e-20)
(0.099333001 -0.0030038033 -4.7272844e-20)
(0.092287754 -0.0087117505 8.9824192e-20)
(0.093514081 -0.017852299 -2.6743134e-20)
(0.10466574 -0.018497062 8.7991258e-20)
(0.11567934 -0.011769964 9.6116447e-20)
(0.087267403 0.0024646119 -1.1020922e-19)
(0.087242749 0.00072327231 -2.1041447e-20)
(0.092432745 0.00011822923 -1.857397e-21)
(0.091965592 -0.00066452898 -8.1644402e-20)
(0.091902654 -0.00044537145 -1.1160411e-19)
(0.092500202 0.00032197276 -2.4452548e-22)
(0.093514618 0.00014913293 -8.8783656e-20)
(0.093970481 -0.00044376374 -5.8527035e-20)
(0.09416478 0.00050731892 4.6455756e-23)
(0.094552681 -0.00068264358 1.7245784e-23)
(0.094507707 0.0006473715 -5.3629346e-21)
(0.094249909 0.00081837544 -2.3356444e-22)
(0.094370083 -0.00072300413 5.1357805e-23)
(0.094799679 -0.0010965865 3.4779849e-22)
(0.094888527 0.00072654247 -6.8026916e-21)
(0.094252179 -0.00028087372 -3.5710546e-23)
(0.095217039 -0.0018094016 -1.7880643e-20)
(0.095955172 -0.0023187527 2.0545649e-21)
(0.09494755 0.0013054379 2.0367384e-21)
(0.095239431 -0.0010065691 0)
(0.097704234 -0.0078234231 1.5490804e-20)
(0.099155341 -0.0030885359 4.6253227e-22)
(0.096867174 0.0036524657 3.20127e-20)
(0.095894586 -0.0038940083 -1.2076468e-21)
(0.099664726 -0.014285136 1.5695959e-20)
(0.10339918 -0.0085964055 2.6046931e-19)
(0.10343106 0.00060496411 -3.107792e-20)
(0.10131554 -0.002206711 1.0003788e-21)
(0.099820862 -0.017206335 3.1751638e-21)
(0.10289701 -0.023177419 -4.9834387e-20)
(0.10864235 -0.014380844 1.0469764e-20)
(0.10832686 0.0018970666 8.0477417e-20)
(0.093429383 0.0011124299 6.7656112e-23)
(0.095321548 -0.0013308036 -2.8200932e-20)
(0.09341936 -0.001280234 2.2003688e-21)
(0.092051578 0.00079636218 -1.3565858e-21)
(0.09196572 -0.00022410129 2.6878549e-20)
(0.092225527 0.00015220829 0)
(0.091981661 0.00011259989 1.0346684e-22)
(0.092056349 0.0001233253 1.0036831e-23)
(0.092256052 -0.00054240826 1.4338702e-20)
(0.092206874 0.00099501995 7.4981624e-23)
(0.09245997 0.0010571814 -5.9118314e-23)
(0.092861473 -0.00065171932 -4.4367399e-20)
(0.093082425 -0.00093229469 3.8273325e-20)
(0.093528841 0.0012482443 1.709035e-20)
(0.093628291 0.00055622765 -1.6863145e-23)
(0.094640756 -0.0017185666 3.0312497e-22)
(0.094849383 -0.001330643 -5.8022935e-22)
(0.094543412 0.0018076265 0)
(0.09678136 -0.0010256039 1.0064595e-19)
(0.098168115 -0.007749451 2.2940114e-20)
(0.097554128 -0.0027506331 8.000266e-20)
(0.09828128 0.0047130553 -1.6328962e-20)
(0.1015189 -0.002104625 -2.0313377e-21)
(0.10277583 -0.013666824 5.1672547e-20)
(0.10178567 -0.0095642504 -9.3672686e-20)
(0.10346804 0.0014071154 2.1018258e-20)
(0.10878414 0.002470542 -3.7161162e-20)
(0.11022633 -0.0097007649 1.1911982e-19)
(0.1064521 -0.0204157 3.6885231e-20)
(0.10388657 -0.015788284 -3.9150149e-21)
(0.10541525 -0.00020165703 1.7391239e-19)
(0.095918315 0.00096441752 -1.780924e-23)
(0.098287384 -0.002066677 5.351444e-21)
(0.095982124 -0.0012162345 -3.4784515e-19)
(0.094185277 0.0013196152 3.1187515e-22)
(0.09356814 -0.00077618009 -3.5550769e-20)
(0.093087195 -0.00010746059 0)
(0.092317066 0.00046588585 0)
(0.091984819 -0.00073115774 -1.8317585e-20)
(0.091539647 -0.00031077475 0)
(0.090989824 0.00048376425 7.1803228e-20)
(0.09113651 0.00076105745 1.3171239e-20)
(0.091283313 -0.00057388856 0)
(0.090878871 -0.00068625794 5.1320378e-20)
(0.091266076 0.00088584882 3.0237194e-20)
(0.09190278 0.00081364791 -3.3494704e-20)
(0.092820707 -0.0015491227 -6.1232947e-22)
(0.092410204 -0.00047942828 3.2428915e-21)
(0.092612573 0.0012558735 -3.6113341e-21)
(0.096385206 -0.0013507869 7.5944737e-20)
(0.097008929 -0.0058388344 -2.5889582e-20)
(0.094201478 -0.0026981933 4.8601947e-22)
(0.096553182 0.0031036031 2.575746e-20)
(0.10370779 -0.0012878838 4.5748574e-20)
(0.10427253 -0.0094878617 -2.3006351e-20)
(0.098642624 -0.0085420881 -1.0905275e-19)
(0.099543419 -0.00014879773 5.6756008e-20)
(0.10941969 0.0021494715 2.3505603e-20)
(0.11662557 -0.0030947821 -1.2912195e-19)
(0.11174123 -0.011721846 -2.2215315e-19)
(0.10323438 -0.013201791 -2.7594535e-20)
(0.090397666 5.4013432e-05 -1.8860881e-19)
(0.091359741 0.00071337117 -7.8927785e-23)
(0.09639024 -0.0022851594 -5.9855006e-19)
(0.094602481 -0.0008925569 3.1993403e-19)
(0.09373602 0.0013889175 6.1334771e-20)
(0.093352284 -0.00040190285 -6.38003e-22)
(0.092841886 0.00013571708 2.1641241e-22)
(0.092266198 0.00088354464 6.7119958e-20)
(0.091852013 -0.00084886433 2.1676351e-20)
(0.091188993 0.00053291235 1.4945686e-20)
(0.090655625 0.00018221061 -1.5016603e-20)
(0.090717237 0.00045674323 6.0258855e-22)
(0.090724696 -3.6877137e-05 7.0576937e-21)
(0.089890784 -4.3404051e-05 8.260779e-21)
(0.090040199 0.00027133321 3.1898044e-20)
(0.090859378 0.00068177631 -9.4287051e-21)
(0.091416354 -0.00099911463 -1.9829168e-20)
(0.090382517 0.00053980007 1.0248675e-20)
(0.090684152 0.00016470841 4.8113469e-21)
(0.094787947 -0.0018804861 -2.9008785e-20)
(0.09503505 -0.0026382475 -5.0786047e-21)
(0.090669891 -0.0017103997 -2.5080278e-20)
(0.093029565 2.1321256e-05 7.0646635e-20)
(0.10216656 -0.0026695399 -1.3380132e-23)
(0.10364076 -0.0044368032 -2.0446335e-20)
(0.095728655 -0.0044030808 -2.1087505e-20)
(0.09420993 -0.0026003905 8.8367099e-22)
(0.10506046 -0.0021300503 -1.0967615e-19)
(0.11617495 -0.0021123284 -3.2421552e-20)
(0.11464406 -0.0021363857 -5.054327e-20)
(0.10514655 -0.0054839982 -2.1970828e-19)
(0.087326621 0.00086327344 -2.3047099e-19)
(0.087585541 0.00097195015 -1.0791741e-22)
(0.093309715 -0.0016314009 8.5170916e-22)
(0.091756492 -0.00029249454 9.1869541e-22)
(0.091964874 0.00022161383 -7.1591009e-20)
(0.092311154 -0.0002535765 1.2646391e-19)
(0.092127411 -3.2001374e-05 5.6157849e-20)
(0.092026071 0.00029843375 -3.8287601e-20)
(0.091689157 -0.00085590622 -7.0620693e-21)
(0.091122907 0.00058940625 5.7995186e-22)
(0.090738902 -0.00032418387 1.1546638e-20)
(0.090771414 -0.00045010455 -1.8127079e-20)
(0.090789491 2.3866365e-05 7.5442669e-22)
(0.089939897 0.00033560177 2.1602083e-20)
(0.089918442 -0.00085315982 -3.0009013e-23)
(0.090751322 -0.00026507529 -4.5236772e-21)
(0.091139516 -0.00081943262 -6.42638e-21)
(0.090162088 0.0010583525 0)
(0.090553751 -0.0014734762 5.7400171e-22)
(0.09404269 -0.002956931 -5.0900583e-22)
(0.094464865 0.00017769902 -6.9946223e-20)
(0.090129058 0.00049915963 3.5713748e-20)
(0.091598835 -0.0037574097 -2.4087085e-20)
(0.099915438 -0.0056159225 4.2141371e-20)
(0.10239676 -0.0011168276 3.2777742e-20)
(0.095655449 0.0018292826 4.2147491e-20)
(0.092403243 -0.00356701 2.9361372e-21)
(0.1003512 -0.0084133984 5.909061e-20)
(0.11100431 -0.0055042847 -2.2534319e-19)
(0.11364672 0.0020126064 4.5126927e-20)
(0.1080614 0.0028393856 2.1000167e-19)
(0.094796738 0.0031954388 1.7937649e-20)
(0.091829156 -0.00020808245 5.8833913e-20)
(0.094908906 -0.0010947205 3.1479685e-20)
(0.092883105 0.00061443269 2.1623849e-19)
(0.092751502 -0.00045596085 -4.4415268e-22)
(0.092940571 0.00055419349 1.3552745e-23)
(0.092805308 6.3371598e-05 2.623291e-23)
(0.092882372 -0.00034524909 -4.4037571e-20)
(0.092434434 0.00032277521 3.6393682e-20)
(0.09193184 0.00085465668 8.0137105e-21)
(0.091634893 7.667814e-05 2.0862711e-20)
(0.091482575 -0.00071525847 9.843164e-23)
(0.091424975 0.00043913923 -2.6272391e-20)
(0.090925561 0.0012280253 -6.0577904e-23)
(0.090802507 -0.0011660291 4.0470699e-20)
(0.091332275 -0.00070610498 1.5991659e-20)
(0.091613225 -0.00034155092 4.3901587e-22)
(0.09120204 0.0017877919 -1.2775132e-22)
(0.09182199 -0.0023129913 8.7153011e-20)
(0.093978707 -0.0036191701 -9.4503454e-20)
(0.09462023 0.002602348 4.1817994e-21)
(0.09243654 0.0036598434 -1.0771236e-19)
(0.093280126 -0.0049879849 -4.7174469e-21)
(0.098720874 -0.0076016337 1.1589332e-19)
(0.10089947 0.00074558965 -8.937048e-21)
(0.098093976 0.0072858002 1.8964536e-20)
(0.096661672 -0.00097275047 4.3689746e-19)
(0.10011615 -0.012037877 -6.8998858e-21)
(0.1063553 -0.009596133 5.6059174e-20)
(0.11012641 0.0013523007 1.6241828e-19)
(0.11012428 0.0076416367 -2.6254281e-20)
(0.10644308 0.0035939381 -3.9432096e-19)
(0.097945049 0.00017551129 2.4026089e-21)
(0.099790775 -0.00032985029 4.1319371e-21)
(0.097383949 0.00097304047 1.8098598e-21)
(0.096639833 -0.0024101417 -2.9356946e-22)
(0.096397519 0.00022111702 1.5667886e-23)
(0.096053236 -0.00010436411 2.0855963e-22)
(0.095646519 -0.0013364445 -1.4145111e-22)
(0.095057444 0.00066282878 -8.8577446e-24)
(0.094729567 -4.0920586e-06 -6.0619332e-23)
(0.094537685 -0.00028325963 -1.6794371e-22)
(0.0941852 -0.0013201121 2.5095797e-21)
(0.093909528 3.6348871e-06 6.7196428e-20)
(0.093880825 0.0012224276 -5.4464633e-24)
(0.093751283 -0.0015434817 -3.7808101e-22)
(0.093834246 -0.0012774219 -5.9020336e-22)
(0.093849884 -0.00045473426 -1.1292571e-21)
(0.094181407 0.0017097133 1.1875723e-21)
(0.095192398 -0.0024899156 -9.4531437e-20)
(0.095394367 -0.0041632909 8.9537134e-20)
(0.095727367 0.0031082494 1.1836236e-19)
(0.096590364 0.0047505246 6.1804214e-22)
(0.097918099 -0.0043308543 -1.1969137e-21)
(0.099271458 -0.0088018386 -8.7167746e-22)
(0.099406007 0.00033878039 -9.4484547e-20)
(0.10051301 0.0079965165 2.3143783e-20)
(0.10383621 0.001726844 -9.0012399e-21)
(0.1047366 -0.011492521 1.9009359e-20)
(0.10372984 -0.012901993 5.3261159e-20)
(0.10553729 -0.0019726727 -2.1365171e-19)
(0.11017757 0.0062426327 7.2645345e-20)
(0.11021186 0.0041568204 -5.0732994e-21)
(0.095440094 -0.0015347641 -1.6111952e-19)
(0.099306849 -0.0010055952 -4.0303397e-19)
(0.09790866 0.00085458882 -3.2829476e-19)
(0.097861635 -0.0020398703 1.0280138e-19)
(0.098022338 0.00047252977 -4.1958386e-20)
(0.098617366 -0.00033105629 1.6254211e-19)
(0.098522602 -0.0011986025 7.3836203e-23)
(0.09830796 0.0012323686 2.7594165e-20)
(0.098547155 3.0524097e-05 3.1215938e-20)
(0.09878678 0.00018339547 -5.7539651e-20)
(0.098716734 -0.00089460775 8.1395849e-22)
(0.098508471 6.1045387e-05 8.3416249e-20)
(0.09926046 0.0011551294 3.6774052e-20)
(0.099460612 -0.00087340309 -4.8839307e-23)
(0.099301326 -0.0010411986 -2.3264734e-20)
(0.099207432 -0.00040636195 4.8744872e-22)
(0.10031576 0.0014813309 -1.9668647e-20)
(0.10208025 -0.001565031 7.6898698e-22)
(0.10058048 -0.00333631 2.8245167e-20)
(0.10006031 0.0022072027 -1.2176825e-19)
(0.10350059 0.0042757407 -7.9196547e-22)
(0.10629197 -0.0017866009 1.0737052e-21)
(0.10454006 -0.0063662017 4.8381231e-20)
(0.10153198 -0.00074086101 -1.0761621e-21)
(0.10453193 0.0060664383 -5.0425336e-20)
(0.11263776 0.0032955199 -1.9383083e-19)
(0.11458796 -0.0061498945 0)
(0.10793094 -0.010433753 2.0819736e-20)
(0.10486907 -0.0041131613 -2.02372e-19)
(0.1109754 0.0029736004 -1.1158515e-19)
(0.099328375 0.0012991871 9.6156871e-20)
(0.058390554 -0.00028669229 0)
(0.11073691 -0.0015693461 5.717837e-22)
(0.10217921 7.4070235e-05 -3.8390903e-20)
(0.11041059 -0.0015696487 1.018408e-20)
(0.11322307 3.4873803e-05 -5.122396e-22)
(0.10750516 -5.1031832e-05 9.4645269e-20)
(0.11334209 -0.00066575659 -1.8342224e-20)
(0.11344562 2.8274968e-05 1.0004834e-20)
(0.11451532 -0.00025088465 1.2782371e-20)
(0.11435633 -0.00010910833 -6.7679375e-22)
(0.11449474 -0.00026858338 -9.9484924e-21)
(0.11344568 -0.00015220456 -1.8441922e-20)
(0.11603284 0.00023941672 -1.5164173e-21)
(0.11455491 -0.00030991774 1.8862979e-20)
(0.11561266 -0.00026140708 1.2043772e-21)
(0.11476134 -0.00011267656 1.6646817e-20)
(0.11648767 0.00030265308 -1.6761799e-20)
(0.11784635 -0.00022215974 2.6230253e-20)
(0.1148497 -0.00074468808 -8.5200149e-22)
(0.11438033 0.00019998052 -5.260504e-20)
(0.11917277 0.00077314112 -7.7022267e-24)
(0.12242834 -0.00038132079 -2.5578565e-21)
(0.11885904 -0.0015040329 3.394747e-20)
(0.11392119 -0.00072358913 7.8158908e-21)
(0.11752651 0.00086233708 -3.987251e-20)
(0.12742871 0.00048624382 -3.3433523e-20)