/*--------------------------------*- C++ -*----------------------------------*\
| =========                 |                                                 |
| \\      /  F ield         | OpenFOAM: The Open Source CFD Toolbox           |
|  \\    /   O peration     | Version:  2406                                  |
|   \\  /    A nd           | Website:  www.openfoam.com                      |
|    \\/     M anipulation  |                                                 |
\*---------------------------------------------------------------------------*/
FoamFile
{
    version     2.0;
    format      ascii;
    arch        "LSB;label=32;scalar=64";
    class       volScalarField;
    location    "5";
    object      nut;
}
// * * * * * * * * * * * * * * * * * * * * * * * * * * * * * * * * * * * * * //

dimensions      [0 2 -1 0 0 0 0];

internalField   nonuniform List<scalar> 
20580
(
8.0680664e-07
8.1491212e-07
8.3849098e-07
8.3621502e-07
8.1386754e-07
7.9129207e-07
7.7619718e-07
7.6882568e-07
7.6592924e-07
7.6511385e-07
7.6500493e-07
7.6555439e-07
7.6688008e-07
7.6814688e-07
7.6971843e-07
7.7224426e-07
7.7443495e-07
7.763861e-07
7.7762449e-07
7.7926102e-07
7.8054223e-07
7.8243811e-07
7.8520588e-07
7.8830103e-07
7.9302432e-07
7.9722005e-07
8.0609899e-07
8.130187e-07
8.2578933e-07
8.378554e-07
8.562787e-07
8.0772505e-07
8.1599833e-07
8.3705536e-07
8.3405299e-07
8.1221535e-07
7.9019072e-07
7.7580621e-07
7.6895447e-07
7.6627442e-07
7.6563858e-07
7.6567266e-07
7.6600378e-07
7.6732408e-07
7.6863584e-07
7.6980589e-07
7.7207233e-07
7.7453672e-07
7.7676215e-07
7.77994e-07
7.7964111e-07
7.8090096e-07
7.8281677e-07
7.8524947e-07
7.8810599e-07
7.9173595e-07
7.9497748e-07
8.0204903e-07
8.0875534e-07
8.2047525e-07
8.293168e-07
8.5273506e-07
8.0897573e-07
8.1700433e-07
8.3512209e-07
8.3110416e-07
8.1036923e-07
7.8923087e-07
7.7545616e-07
7.6893858e-07
7.6629796e-07
7.6570369e-07
7.6586462e-07
7.6596713e-07
7.6710254e-07
7.6857725e-07
7.6978962e-07
7.7168556e-07
7.7428397e-07
7.7680365e-07
7.7818239e-07
7.7974517e-07
7.8105795e-07
7.8349333e-07
7.8570679e-07
7.8826039e-07
7.908802e-07
7.9391705e-07
7.9946424e-07
8.045612e-07
8.1297831e-07
8.1937667e-07
8.3916389e-07
8.0966771e-07
8.1757632e-07
8.3447517e-07
8.301717e-07
8.0973479e-07
7.8885627e-07
7.7540111e-07
7.6897572e-07
7.6625392e-07
7.6549429e-07
7.6562708e-07
7.6580356e-07
7.6653371e-07
7.6791256e-07
7.6946234e-07
7.7115574e-07
7.7349154e-07
7.7595666e-07
7.7764933e-07
7.792192e-07
7.8066078e-07
7.8349627e-07
7.8622722e-07
7.8909018e-07
7.9119596e-07
7.9406744e-07
7.9921475e-07
8.0394255e-07
8.1006306e-07
8.1476237e-07
8.2725165e-07
8.1026014e-07
8.1778386e-07
8.3398037e-07
8.2965442e-07
8.0944897e-07
7.8891784e-07
7.7563043e-07
7.6904369e-07
7.6624001e-07
7.6527172e-07
7.6529192e-07
7.6585628e-07
7.6631816e-07
7.6736586e-07
7.6900324e-07
7.7077306e-07
7.7268161e-07
7.7492723e-07
7.7664013e-07
7.7818293e-07
7.7948776e-07
7.8280188e-07
7.8568825e-07
7.887781e-07
7.914486e-07
7.9475135e-07
7.9970496e-07
8.0462363e-07
8.1039049e-07
8.1446184e-07
8.2223615e-07
8.1069307e-07
8.1739471e-07
8.3386967e-07
8.3076438e-07
8.1068372e-07
7.8991016e-07
7.7633354e-07
7.6928267e-07
7.6634357e-07
7.6523971e-07
7.6522597e-07
7.6599023e-07
7.6645127e-07
7.6718213e-07
7.6855613e-07
7.7046617e-07
7.7242331e-07
7.7436437e-07
7.7613314e-07
7.7743044e-07
7.7890561e-07
7.8119571e-07
7.8379758e-07
7.8648588e-07
7.9036853e-07
7.9419644e-07
7.9898442e-07
8.031501e-07
8.1021037e-07
8.1458791e-07
8.2093445e-07
8.1074754e-07
8.1681732e-07
8.3348559e-07
8.309969e-07
8.1120215e-07
7.9036051e-07
7.7677572e-07
7.6959035e-07
7.6652733e-07
7.6539381e-07
7.6536783e-07
7.6595654e-07
7.6644279e-07
7.6711275e-07
7.6826671e-07
7.7027342e-07
7.7251822e-07
7.7424872e-07
7.7593926e-07
7.770589e-07
7.7888859e-07
7.8040174e-07
7.8298672e-07
7.8452218e-07
7.8786182e-07
7.9170398e-07
7.9606412e-07
7.9922208e-07
8.070476e-07
8.1231392e-07
8.2018801e-07
8.1044379e-07
8.1600959e-07
8.3325934e-07
8.3121709e-07
8.1178355e-07
7.9096529e-07
7.7703893e-07
7.6975222e-07
7.6666281e-07
7.6557844e-07
7.6539364e-07
7.6576385e-07
7.6634204e-07
7.6726237e-07
7.6809364e-07
7.6998087e-07
7.7228251e-07
7.742237e-07
7.7594156e-07
7.7693022e-07
7.7894201e-07
7.8030858e-07
7.8254595e-07
7.8416505e-07
7.8681805e-07
7.9033282e-07
7.9435129e-07
7.9647953e-07
8.0162201e-07
8.0658315e-07
8.1679377e-07
8.0972277e-07
8.1456178e-07
8.3435817e-07
8.3430867e-07
8.1517792e-07
7.9325492e-07
7.7801974e-07
7.7014725e-07
7.66832e-07
7.6579418e-07
7.6559057e-07
7.6563651e-07
7.6645515e-07
7.6753318e-07
7.683167e-07
7.6982143e-07
7.7187707e-07
7.738375e-07
7.7572432e-07
7.768169e-07
7.7888331e-07
7.8033667e-07
7.8220514e-07
7.8421386e-07
7.8655055e-07
7.8957811e-07
7.9345955e-07
7.953136e-07
7.9910429e-07
8.0336646e-07
8.1168476e-07
8.0905645e-07
8.1350591e-07
8.3457702e-07
8.356361e-07
8.1679103e-07
7.944109e-07
7.7852261e-07
7.7053027e-07
7.6697649e-07
7.6597463e-07
7.6590261e-07
7.657599e-07
7.6646366e-07
7.6757464e-07
7.6852775e-07
7.6974545e-07
7.7144565e-07
7.7330015e-07
7.7528169e-07
7.7649878e-07
7.7862162e-07
7.8010606e-07
7.8193836e-07
7.8388965e-07
7.8652852e-07
7.8907104e-07
7.9282843e-07
7.9448793e-07
7.9886041e-07
8.0221236e-07
8.0874073e-07
8.0894929e-07
8.1293182e-07
8.337818e-07
8.3541676e-07
8.1706068e-07
7.9478332e-07
7.7882036e-07
7.7083851e-07
7.6714063e-07
7.6608723e-07
7.6598645e-07
7.6602967e-07
7.6637649e-07
7.6735013e-07
7.6832418e-07
7.6950048e-07
7.7110566e-07
7.7296739e-07
7.7491512e-07
7.7641964e-07
7.7858933e-07
7.8011236e-07
7.8150181e-07
7.8328499e-07
7.8633307e-07
7.8845913e-07
7.9191591e-07
7.9409911e-07
7.992225e-07
8.0174098e-07
8.0653519e-07
8.0917317e-07
8.1242667e-07
8.3355663e-07
8.3573702e-07
8.1773065e-07
7.954616e-07
7.7955647e-07
7.7121295e-07
7.6733861e-07
7.661971e-07
7.6595158e-07
7.6613969e-07
7.6651057e-07
7.6716605e-07
7.6817356e-07
7.6932737e-07
7.710286e-07
7.7284533e-07
7.7483446e-07
7.7637036e-07
7.785047e-07
7.8022916e-07
7.8101647e-07
7.830441e-07
7.8640422e-07
7.8819174e-07
7.9081131e-07
7.9350567e-07
7.987334e-07
8.0118642e-07
8.0495624e-07
8.094602e-07
8.1251859e-07
8.3339492e-07
8.3555837e-07
8.1756589e-07
7.9551493e-07
7.7985606e-07
7.7145739e-07
7.6753114e-07
7.661574e-07
7.65877e-07
7.6607257e-07
7.6648304e-07
7.6714291e-07
7.6801409e-07
7.6913079e-07
7.709313e-07
7.7272355e-07
7.7448436e-07
7.7605549e-07
7.7821478e-07
7.8030172e-07
7.808418e-07
7.8285528e-07
7.8665889e-07
7.884969e-07
7.8999629e-07
7.9235623e-07
7.9741354e-07
8.0021679e-07
8.0366305e-07
8.0956751e-07
8.1238382e-07
8.3271583e-07
8.357558e-07
8.1831087e-07
7.9623555e-07
7.8034725e-07
7.717363e-07
7.6786072e-07
7.6613573e-07
7.6581795e-07
7.6619436e-07
7.664154e-07
7.6695988e-07
7.6786536e-07
7.6891823e-07
7.7081251e-07
7.724353e-07
7.7394381e-07
7.7591036e-07
7.7807111e-07
7.8008975e-07
7.809447e-07
7.8293246e-07
7.8640892e-07
7.8863345e-07
7.8975587e-07
7.9169853e-07
7.9647933e-07
7.9933218e-07
8.02661e-07
8.0961995e-07
8.1161046e-07
8.3275212e-07
8.3712543e-07
8.2027562e-07
7.9754456e-07
7.8114165e-07
7.7210809e-07
7.6813645e-07
7.6637548e-07
7.6601781e-07
7.6655198e-07
7.6663522e-07
7.6704115e-07
7.6795965e-07
7.6902926e-07
7.7068059e-07
7.7218144e-07
7.7376548e-07
7.7591091e-07
7.7779434e-07
7.7968436e-07
7.8131291e-07
7.8354055e-07
7.8555862e-07
7.8785064e-07
7.8952938e-07
7.9189638e-07
7.9617619e-07
7.9856092e-07
8.0237378e-07
8.0987498e-07
8.1102388e-07
8.3262346e-07
8.3673692e-07
8.2022485e-07
7.9765915e-07
7.8130302e-07
7.7220516e-07
7.6814376e-07
7.6661494e-07
7.6647931e-07
7.666327e-07
7.6685181e-07
7.6748283e-07
7.6830275e-07
7.6912787e-07
7.7035377e-07
7.7185605e-07
7.7337292e-07
7.7575237e-07
7.7755658e-07
7.7919747e-07
7.8136891e-07
7.8372296e-07
7.8511207e-07
7.8654491e-07
7.8909647e-07
7.9217848e-07
7.9554836e-07
7.9766058e-07
8.0124754e-07
8.0990043e-07
8.1016512e-07
8.3205808e-07
8.3665771e-07
8.206484e-07
7.9840764e-07
7.8185551e-07
7.7248194e-07
7.6820763e-07
7.6672578e-07
7.665957e-07
7.6632802e-07
7.6668288e-07
7.6745839e-07
7.6832322e-07
7.6895386e-07
7.7005806e-07
7.7142459e-07
7.7277633e-07
7.7570109e-07
7.7719366e-07
7.7845571e-07
7.8088288e-07
7.8350408e-07
7.8497848e-07
7.8575124e-07
7.8887225e-07
7.921433e-07
7.9503787e-07
7.9624474e-07
7.9920569e-07
8.0985161e-07
8.096043e-07
8.3116927e-07
8.3653092e-07
8.209298e-07
7.9897041e-07
7.8228638e-07
7.7288014e-07
7.6834236e-07
7.6684397e-07
7.6640204e-07
7.6616089e-07
7.6654064e-07
7.6711677e-07
7.6786176e-07
7.6866325e-07
7.7002879e-07
7.7130136e-07
7.7253077e-07
7.7561102e-07
7.7679051e-07
7.7790544e-07
7.8094685e-07
7.8342071e-07
7.8449994e-07
7.8566085e-07
7.8891388e-07
7.9220328e-07
7.9440666e-07
7.9487213e-07
7.9706172e-07
8.0994816e-07
8.0908614e-07
8.3093423e-07
8.3719364e-07
8.2156979e-07
7.9938431e-07
7.819853e-07
7.7261654e-07
7.6800694e-07
7.6664676e-07
7.6619966e-07
7.6621198e-07
7.6663356e-07
7.6713648e-07
7.6761482e-07
7.6857561e-07
7.7009334e-07
7.7147532e-07
7.7259188e-07
7.7526423e-07
7.7665713e-07
7.7760524e-07
7.8107889e-07
7.8353284e-07
7.8411994e-07
7.8558264e-07
7.88613e-07
7.9156393e-07
7.9365193e-07
7.9459982e-07
7.9677944e-07
8.0950769e-07
8.0720413e-07
8.3020681e-07
8.3623824e-07
8.1910655e-07
7.9509214e-07
7.7643321e-07
7.6720875e-07
7.6345717e-07
7.627144e-07
7.6291971e-07
7.6352198e-07
7.643914e-07
7.6522653e-07
7.6611365e-07
7.6734629e-07
7.6869016e-07
7.7039769e-07
7.7179895e-07
7.7376456e-07
7.7548057e-07
7.7681628e-07
7.7966679e-07
7.8248071e-07
7.8362039e-07
7.8479434e-07
7.8751775e-07
7.902176e-07
7.9288003e-07
7.942807e-07
7.9679638e-07
8.046149e-07
7.9641458e-07
8.1521881e-07
8.1818446e-07
8.0426611e-07
7.8038282e-07
7.5647803e-07
7.4435062e-07
7.4543934e-07
7.4902829e-07
7.4812166e-07
7.489097e-07
7.5066209e-07
7.5280974e-07
7.5520823e-07
7.5747144e-07
7.5948572e-07
7.6224805e-07
7.649957e-07
7.6734254e-07
7.697245e-07
7.7296624e-07
7.753313e-07
7.7813473e-07
7.8068682e-07
7.8255933e-07
7.8502338e-07
7.8739001e-07
7.890636e-07
7.9095538e-07
7.9406613e-07
7.1708728e-07
7.6050906e-07
8.347183e-07
9.4339291e-07
9.8915618e-07
1.0089202e-06
9.9217867e-07
9.649415e-07
9.4185843e-07
9.2903256e-07
9.2538645e-07
9.2597334e-07
9.2775997e-07
9.3183201e-07
9.3191074e-07
9.2734509e-07
9.213479e-07
9.1689413e-07
9.1293535e-07
9.0637837e-07
8.9803988e-07
8.9183769e-07
8.8694329e-07
8.8288843e-07
8.7754133e-07
8.7406774e-07
8.6848685e-07
8.6421284e-07
8.6123122e-07
8.6085167e-07
8.4627103e-07
2.1676604e-07
3.5372695e-07
4.4988e-07
5.7827019e-07
6.9615594e-07
8.2577817e-07
8.5118193e-07
8.9763452e-07
9.7174387e-07
9.6393124e-07
9.199172e-07
9.7574605e-07
1.0125307e-06
1.0914648e-06
1.2273891e-06
1.4371187e-06
1.6233198e-06
1.8113655e-06
1.8692147e-06
1.863007e-06
1.9041315e-06
1.8535017e-06
1.8642463e-06
1.8297862e-06
1.7961009e-06
1.7718078e-06
1.7491883e-06
1.7283252e-06
1.7027698e-06
1.7157296e-06
1.7294e-06
1.7030842e-06
8.810381e-07
7.9518943e-07
7.9835161e-07
7.9918524e-07
8.0051569e-07
8.0380437e-07
8.0474005e-07
8.0428947e-07
8.0542762e-07
8.0722816e-07
8.0850176e-07
8.1080631e-07
8.1371893e-07
8.1683832e-07
8.2182046e-07
8.2807327e-07
8.3137845e-07
8.3156483e-07
8.330042e-07
8.3976618e-07
8.5435482e-07
8.6683606e-07
1.5580311e-06
9.4354267e-07
8.0032684e-07
8.015409e-07
8.0322293e-07
8.0471355e-07
8.0721187e-07
8.0874121e-07
8.0860237e-07
8.0998145e-07
8.1192471e-07
8.1309023e-07
8.1495025e-07
8.1881284e-07
8.2142351e-07
8.2510146e-07
8.338924e-07
8.3964103e-07
8.4300524e-07
8.4275052e-07
8.4492547e-07
8.5584076e-07
8.7013025e-07
1.1701762e-06
1.0121807e-06
8.13524e-07
8.0599147e-07
8.066069e-07
8.0706643e-07
8.0872073e-07
8.122815e-07
8.1480947e-07
8.1594668e-07
8.1692792e-07
8.1810449e-07
8.2063563e-07
8.2346182e-07
8.2673652e-07
8.296738e-07
8.369521e-07
8.4542165e-07
8.511957e-07
8.5333518e-07
8.5411711e-07
8.5957368e-07
8.7125129e-07
9.6035627e-07
1.0535275e-06
8.2647471e-07
8.1131965e-07
8.0992491e-07
8.106676e-07
8.1275084e-07
8.1665284e-07
8.1905712e-07
8.2036206e-07
8.2083269e-07
8.2241793e-07
8.2647378e-07
8.3042768e-07
8.3276682e-07
8.3586862e-07
8.4248093e-07
8.526884e-07
8.5874785e-07
8.6067986e-07
8.6257005e-07
8.6723824e-07
8.7521675e-07
7.8640043e-07
1.0659969e-06
8.3412223e-07
8.1667783e-07
8.160117e-07
8.1755733e-07
8.1979143e-07
8.2243672e-07
8.2416383e-07
8.2446128e-07
8.2468451e-07
8.2641377e-07
8.2993523e-07
8.3515383e-07
8.3902625e-07
8.4246755e-07
8.4883845e-07
8.5907519e-07
8.6661591e-07
8.6908134e-07
8.7163824e-07
8.7619475e-07
8.8306908e-07
6.9726736e-07
1.0622482e-06
8.3819662e-07
8.2210692e-07
8.2223559e-07
8.2391875e-07
8.2565743e-07
8.2776401e-07
8.296515e-07
8.3039228e-07
8.3119789e-07
8.3330459e-07
8.3550639e-07
8.401745e-07
8.4470782e-07
8.4742268e-07
8.5285036e-07
8.6366823e-07
8.7432625e-07
8.810132e-07
8.837378e-07
8.8796057e-07
8.9492497e-07
7.0168423e-07
1.0599931e-06
8.3967087e-07
8.2648243e-07
8.2737998e-07
8.286696e-07
8.302912e-07
8.3291748e-07
8.3608271e-07
8.3775965e-07
8.3887348e-07
8.4068375e-07
8.4350788e-07
8.4692825e-07
8.5154635e-07
8.5393426e-07
8.5854623e-07
8.681343e-07
8.8014454e-07
8.8907399e-07
8.9451788e-07
8.9886759e-07
9.0482581e-07
7.244182e-07
1.0732339e-06
8.4726642e-07
8.3450437e-07
8.3396413e-07
8.3404435e-07
8.3528924e-07
8.379139e-07
8.4211083e-07
8.4582211e-07
8.4614277e-07
8.4747311e-07
8.5118198e-07
8.5441368e-07
8.595129e-07
8.6404391e-07
8.673243e-07
8.7344084e-07
8.8488993e-07
8.9508318e-07
9.0272939e-07
9.071544e-07
9.1218616e-07
7.2003694e-07
1.1102619e-06
8.5820128e-07
8.4129081e-07
8.4164963e-07
8.4239341e-07
8.4356026e-07
8.4513217e-07
8.4831791e-07
8.5172048e-07
8.5243716e-07
8.5335126e-07
8.5616618e-07
8.6053042e-07
8.6702852e-07
8.7267797e-07
8.7692546e-07
8.8189184e-07
8.9100415e-07
9.0142918e-07
9.1026751e-07
9.1564054e-07
9.1993478e-07
7.4169175e-07
1.1551029e-06
8.710128e-07
8.4751827e-07
8.4950753e-07
8.5106905e-07
8.5189345e-07
8.5316272e-07
8.5572698e-07
8.5863295e-07
8.596255e-07
8.5971055e-07
8.617843e-07
8.6691614e-07
8.734584e-07
8.8033014e-07
8.8481099e-07
8.8919087e-07
8.9675878e-07
9.0760733e-07
9.1777092e-07
9.2453997e-07
9.29059e-07
8.2712923e-07
1.2269778e-06
8.989017e-07
8.5468753e-07
8.552026e-07
8.5724248e-07
8.5831751e-07
8.6039608e-07
8.6325909e-07
8.6531301e-07
8.6685305e-07
8.6829227e-07
8.7104914e-07
8.7464223e-07
8.7980228e-07
8.8605111e-07
8.8920007e-07
8.9296142e-07
9.0106969e-07
9.1266781e-07
9.2368247e-07
9.3485913e-07
9.4029874e-07
9.5816033e-07
1.3121278e-06
9.2821967e-07
8.6081384e-07
8.5921301e-07
8.6121806e-07
8.63616e-07
8.6678904e-07
8.6939339e-07
8.7168254e-07
8.7348318e-07
8.7632499e-07
8.795641e-07
8.8272769e-07
8.8690343e-07
8.9266078e-07
8.9647914e-07
8.9928659e-07
9.0482423e-07
9.1504647e-07
9.2654837e-07
9.3927329e-07
9.4780459e-07
1.0952798e-06
1.4332168e-06
9.7519135e-07
8.6989953e-07
8.6434396e-07
8.6605617e-07
8.6847513e-07
8.7155656e-07
8.7397485e-07
8.7680208e-07
8.7937904e-07
8.8216148e-07
8.8490725e-07
8.888715e-07
8.9392644e-07
8.995794e-07
9.0312562e-07
9.0504976e-07
9.091134e-07
9.1791215e-07
9.2903371e-07
9.4224735e-07
9.5058998e-07
1.2365738e-06
1.5385247e-06
1.0179027e-06
8.7812385e-07
8.7051097e-07
8.7337751e-07
8.7586193e-07
8.7772623e-07
8.7855674e-07
8.8026724e-07
8.8304548e-07
8.8726803e-07
8.9040241e-07
8.938971e-07
8.9829052e-07
9.0372418e-07
9.0850659e-07
9.1105198e-07
9.1509997e-07
9.2297297e-07
9.3302275e-07
9.4681387e-07
9.5435959e-07
1.3541717e-06
1.6978431e-06
1.0780502e-06
8.8966639e-07
8.7581935e-07
8.802382e-07
8.8333083e-07
8.8451683e-07
8.8433073e-07
8.8479266e-07
8.8647129e-07
8.9128787e-07
8.9658936e-07
8.9955363e-07
9.0163334e-07
9.05391e-07
9.1192388e-07
9.180138e-07
9.2262299e-07
9.2905148e-07
9.3765045e-07
9.5116213e-07
9.587783e-07
1.6040304e-06
1.914332e-06
1.1697309e-06
9.0579942e-07
8.7961861e-07
8.846395e-07
8.8882949e-07
8.9059603e-07
8.895082e-07
8.8880443e-07
8.9040329e-07
8.9559096e-07
9.0201744e-07
9.0472453e-07
9.0514733e-07
9.074531e-07
9.1348496e-07
9.2220425e-07
9.2997797e-07
9.3592149e-07
9.4304889e-07
9.5466058e-07
9.6141745e-07
1.7371133e-06
2.0235811e-06
1.2367964e-06
9.2014833e-07
8.817508e-07
8.8695146e-07
8.9210239e-07
8.9445184e-07
8.9315019e-07
8.9176244e-07
8.9289761e-07
8.980286e-07
9.0503125e-07
9.0809142e-07
9.0881828e-07
9.1059214e-07
9.1526051e-07
9.2318542e-07
9.3257852e-07
9.4020028e-07
9.4663527e-07
9.5689946e-07
9.6394458e-07
1.9448183e-06
2.1611931e-06
1.3083999e-06
9.3597849e-07
8.8359555e-07
8.8776372e-07
8.9332659e-07
8.9590224e-07
8.9482042e-07
8.9357416e-07
8.9423023e-07
8.9916816e-07
9.0605659e-07
9.099163e-07
9.1210717e-07
9.1402426e-07
9.1823312e-07
9.2446993e-07
9.3350364e-07
9.4190887e-07
9.4868608e-07
9.5886e-07
9.6705231e-07
2.0839382e-06
2.3704813e-06
1.4163055e-06
9.5539242e-07
8.8581504e-07
8.8844695e-07
8.9487741e-07
8.9750191e-07
8.9647934e-07
8.9376516e-07
8.9437804e-07
8.9963563e-07
9.0701971e-07
9.131463e-07
9.1657092e-07
9.1795806e-07
9.2075552e-07
9.2621782e-07
9.3548956e-07
9.4584571e-07
9.5377169e-07
9.6332541e-07
9.7029366e-07
2.1059327e-06
2.5431208e-06
1.5307362e-06
9.8172432e-07
8.8832841e-07
8.9105538e-07
9.004414e-07
9.0274952e-07
8.984135e-07
8.9387662e-07
8.9446134e-07
9.0094583e-07
9.1115137e-07
9.1919183e-07
9.2070472e-07
9.1976435e-07
9.2165427e-07
9.2919178e-07
9.4132557e-07
9.5322235e-07
9.6039403e-07
9.6801379e-07
9.7511049e-07
2.1374409e-06
2.6516746e-06
1.6007702e-06
1.0067587e-06
8.9164627e-07
8.9616388e-07
9.0704578e-07
9.0808959e-07
8.9970691e-07
8.9353475e-07
8.9484202e-07
9.0528932e-07
9.1798679e-07
9.2394866e-07
9.228816e-07
9.206263e-07
9.234553e-07
9.343442e-07
9.4926581e-07
9.6021901e-07
9.6574824e-07
9.717706e-07
9.7917765e-07
2.2113993e-06
2.779409e-06
1.6734481e-06
1.0185438e-06
8.947405e-07
9.0016127e-07
9.11026e-07
9.1056792e-07
8.9984361e-07
8.9328491e-07
8.9587366e-07
9.094472e-07
9.2291189e-07
9.2738004e-07
9.2462578e-07
9.2236871e-07
9.2648266e-07
9.4011011e-07
9.5718904e-07
9.6743773e-07
9.7170512e-07
9.7645688e-07
9.8676567e-07
2.2796955e-06
2.9414145e-06
1.7394013e-06
1.0257686e-06
8.9602532e-07
9.0189843e-07
9.1237279e-07
9.1108315e-07
8.9928406e-07
8.9385317e-07
8.9751804e-07
9.132134e-07
9.264709e-07
9.2948217e-07
9.2599979e-07
9.2445971e-07
9.3059873e-07
9.467931e-07
9.6362098e-07
9.7198848e-07
9.7675805e-07
9.8409665e-07
9.953561e-07
2.3494281e-06
3.1263463e-06
1.8041523e-06
1.0340779e-06
8.9724035e-07
9.0223653e-07
9.1311344e-07
9.1163759e-07
8.9914729e-07
8.9455321e-07
8.9906891e-07
9.1612677e-07
9.2780136e-07
9.293798e-07
9.2637376e-07
9.2588752e-07
9.3398184e-07
9.5135732e-07
9.6748869e-07
9.7675843e-07
9.8187588e-07
9.9104176e-07
1.0043683e-06
2.5442962e-06
3.3345543e-06
1.8806014e-06
1.0417159e-06
8.9857461e-07
9.0276915e-07
9.1315308e-07
9.1121625e-07
8.9865317e-07
8.9473855e-07
8.9985513e-07
9.1785716e-07
9.2819e-07
9.2839045e-07
9.2599776e-07
9.274203e-07
9.3970982e-07
9.5642273e-07
9.7153699e-07
9.7961661e-07
9.8609004e-07
9.9657413e-07
1.0109236e-06
2.9402295e-06
3.5995366e-06
1.9704066e-06
1.047539e-06
9.003423e-07
9.0362547e-07
9.1266729e-07
9.101734e-07
8.9899204e-07
8.9631966e-07
9.0360851e-07
9.2113544e-07
9.2885048e-07
9.2891043e-07
9.2698231e-07
9.3032314e-07
9.4287873e-07
9.6005201e-07
9.7393419e-07
9.8164719e-07
9.9064871e-07
1.0015645e-06
1.0165772e-06
3.461808e-06
3.8800795e-06
2.0488879e-06
1.0549721e-06
9.0312847e-07
9.0674678e-07
9.1417871e-07
9.1037178e-07
9.0079781e-07
8.9989967e-07
9.0676845e-07
9.242148e-07
9.3066026e-07
9.3063254e-07
9.3100247e-07
9.3758183e-07
9.5259012e-07
9.6912825e-07
9.7891676e-07
9.8469838e-07
9.9300969e-07
1.0078505e-06
1.0325402e-06
3.73207e-06
4.1622266e-06
2.0894136e-06
1.0528952e-06
9.066548e-07
9.1095287e-07
9.1598546e-07
9.1061638e-07
9.026621e-07
9.0322947e-07
9.150458e-07
9.2950089e-07
9.3346565e-07
9.3362046e-07
9.3472024e-07
9.4168936e-07
9.5730126e-07
9.7341617e-07
9.8325386e-07
9.9034194e-07
1.0044999e-06
1.0286865e-06
1.0591791e-06
4.1470771e-06
4.4429845e-06
2.0707341e-06
1.035846e-06
9.0709624e-07
9.1267837e-07
9.1695432e-07
9.1186574e-07
9.0705796e-07
9.0908038e-07
9.2145971e-07
9.3431432e-07
9.3797364e-07
9.3909336e-07
9.4244663e-07
9.5209004e-07
9.6811512e-07
9.8168363e-07
9.9383643e-07
1.0060383e-06
1.0245527e-06
1.0498993e-06
1.0789086e-06
4.6979089e-06
4.6211956e-06
2.0565825e-06
1.0224572e-06
9.0869232e-07
9.1702864e-07
9.1983191e-07
9.1555603e-07
9.1204981e-07
9.1472708e-07
9.2786959e-07
9.4206966e-07
9.4493923e-07
9.439308e-07
9.461009e-07
9.5837701e-07
9.7590695e-07
9.8855004e-07
9.9941123e-07
1.0137847e-06
1.0364308e-06
1.0660449e-06
1.0899232e-06
5.2253413e-06
4.8098645e-06
1.9930607e-06
1.0101917e-06
9.1338984e-07
9.2151891e-07
9.2303529e-07
9.1914437e-07
9.173122e-07
9.2250296e-07
9.3511154e-07
9.4632179e-07
9.5003383e-07
9.5263774e-07
9.5778872e-07
9.7161329e-07
9.8998733e-07
1.0041999e-06
1.0146161e-06
1.02908e-06
1.0528506e-06
1.080273e-06
1.1044583e-06
5.75413e-06
4.8537882e-06
1.9718635e-06
1.0033585e-06
9.1710028e-07
9.2487807e-07
9.2543512e-07
9.2306911e-07
9.2270961e-07
9.277133e-07
9.3894622e-07
9.4938804e-07
9.5464385e-07
9.597234e-07
9.6619279e-07
9.8068406e-07
9.9983394e-07
1.0151474e-06
1.0241513e-06
1.0376696e-06
1.0617111e-06
1.0897051e-06
1.1270857e-06
6.2623953e-06
4.7172456e-06
1.814768e-06
9.8097128e-07
9.1845991e-07
9.2671007e-07
9.2682107e-07
9.2492545e-07
9.2561103e-07
9.3336681e-07
9.4573165e-07
9.5523708e-07
9.6193373e-07
9.6873031e-07
9.7907756e-07
9.956413e-07
1.0152175e-06
1.030558e-06
1.0413884e-06
1.0591882e-06
1.0902785e-06
1.1321911e-06
1.182502e-06
6.6936509e-06
4.5607395e-06
1.7277397e-06
9.6524498e-07
9.1499673e-07
9.2411181e-07
9.2577636e-07
9.2554169e-07
9.2740664e-07
9.3647151e-07
9.5064e-07
9.6059124e-07
9.6627964e-07
9.7360821e-07
9.8678581e-07
1.0040106e-06
1.0217296e-06
1.0365563e-06
1.0506827e-06
1.0733907e-06
1.1097987e-06
1.1605873e-06
1.2328823e-06
6.1689828e-06
4.0951913e-06
1.4468968e-06
9.2831533e-07
9.1004112e-07
9.1995636e-07
9.2183621e-07
9.2412117e-07
9.3034002e-07
9.4213088e-07
9.5426341e-07
9.6318455e-07
9.7246655e-07
9.831891e-07
9.9782484e-07
1.0188954e-06
1.0390471e-06
1.0562874e-06
1.081386e-06
1.1190177e-06
1.1673155e-06
1.2245073e-06
1.2858646e-06
3.7617211e-06
3.9427321e-06
1.4624794e-06
9.2975442e-07
9.032143e-07
9.1400766e-07
9.1716557e-07
9.1886312e-07
9.2363718e-07
9.3601456e-07
9.5006753e-07
9.6024951e-07
9.6892794e-07
9.8006596e-07
9.9489027e-07
1.0166475e-06
1.0381036e-06
1.0556303e-06
1.0785733e-06
1.1137373e-06
1.158573e-06
1.2096279e-06
1.2599137e-06
2.8119029e-06
3.8289684e-06
1.4598365e-06
9.3021337e-07
8.9404328e-07
9.0294688e-07
9.0853322e-07
9.1197565e-07
9.1538476e-07
9.2308043e-07
9.3692854e-07
9.5124411e-07
9.6119604e-07
9.7018758e-07
9.8236077e-07
1.0042122e-06
1.029572e-06
1.0497499e-06
1.0694772e-06
1.0977802e-06
1.1342748e-06
1.1819087e-06
1.2453197e-06
2.396859e-06
3.59346e-06
1.4252217e-06
9.2442323e-07
8.8302515e-07
8.8957143e-07
8.9578468e-07
9.0004675e-07
9.0357399e-07
9.1067011e-07
9.2184989e-07
9.3543398e-07
9.4791129e-07
9.5877622e-07
9.7000579e-07
9.8832247e-07
1.012494e-06
1.0352559e-06
1.0532949e-06
1.0764779e-06
1.1071228e-06
1.1427345e-06
1.2218922e-06
2.0583682e-06
3.3225472e-06
1.3645554e-06
9.1309166e-07
8.7020589e-07
8.7374961e-07
8.8168161e-07
8.8841643e-07
8.9247399e-07
8.9845604e-07
9.0675626e-07
9.189885e-07
9.3232678e-07
9.4437221e-07
9.556918e-07
9.7053295e-07
9.8977561e-07
1.0103351e-06
1.0289281e-06
1.0505439e-06
1.078784e-06
1.107726e-06
1.1826182e-06
1.6394918e-06
3.0522188e-06
1.2939427e-06
9.0044148e-07
8.5982207e-07
8.6066787e-07
8.6836423e-07
8.7631476e-07
8.81887e-07
8.8789216e-07
8.9436736e-07
9.037672e-07
9.1514179e-07
9.274746e-07
9.3701618e-07
9.4678698e-07
9.6236758e-07
9.8236193e-07
1.0038799e-06
1.0233673e-06
1.0504527e-06
1.073701e-06
1.1417809e-06
1.3498254e-06
2.7950389e-06
1.2225791e-06
8.8684799e-07
8.5221104e-07
8.5218224e-07
8.5823702e-07
8.6499961e-07
8.7033481e-07
8.7607928e-07
8.8164025e-07
8.8793269e-07
8.9577951e-07
9.0749868e-07
9.1689524e-07
9.234894e-07
9.3499798e-07
9.5460769e-07
9.7808391e-07
9.9505831e-07
1.0218292e-06
1.0404512e-06
1.0994515e-06
1.1857322e-06
2.5418371e-06
1.1544806e-06
8.7392001e-07
8.4513103e-07
8.4487246e-07
8.4944463e-07
8.5540006e-07
8.5898195e-07
8.6240576e-07
8.6663051e-07
8.7146175e-07
8.7835872e-07
8.8870971e-07
8.9888606e-07
9.0603948e-07
9.1470065e-07
9.3069751e-07
9.5122205e-07
9.6479501e-07
9.9059213e-07
1.0059117e-06
1.0519753e-06
1.089527e-06
2.285749e-06
1.0906907e-06
8.6048966e-07
8.3669131e-07
8.3585292e-07
8.3997021e-07
8.4601363e-07
8.4937903e-07
8.5176905e-07
8.5455444e-07
8.5828537e-07
8.6479978e-07
8.7384254e-07
8.8342851e-07
8.9156539e-07
8.9982835e-07
9.1154354e-07
9.2798865e-07
9.3800434e-07
9.6007345e-07
9.7185836e-07
1.0071241e-06
9.3375129e-07
2.0389532e-06
1.0372459e-06
8.4992349e-07
8.294709e-07
8.2760751e-07
8.3088112e-07
8.3728558e-07
8.4164682e-07
8.450092e-07
8.4785665e-07
8.5110464e-07
8.5640464e-07
8.6366377e-07
8.7131627e-07
8.7842445e-07
8.8538984e-07
8.9347202e-07
9.0641374e-07
9.1414791e-07
9.3295653e-07
9.4285667e-07
9.7268497e-07
7.5649865e-07
1.7865992e-06
9.878784e-07
8.4226092e-07
8.2540495e-07
8.2367288e-07
8.2612928e-07
8.317106e-07
8.3585718e-07
8.3890959e-07
8.4158493e-07
8.4468336e-07
8.4933941e-07
8.552846e-07
8.6137587e-07
8.6677733e-07
8.7191697e-07
8.7732366e-07
8.8743744e-07
8.9402735e-07
9.1054167e-07
9.2061163e-07
9.4730649e-07
6.4563708e-07
1.5410436e-06
9.3768513e-07
8.3380971e-07
8.2213853e-07
8.2098789e-07
8.2298934e-07
8.2783108e-07
8.3173682e-07
8.3377155e-07
8.3521118e-07
8.3719888e-07
8.4029737e-07
8.4473779e-07
8.4969391e-07
8.5479634e-07
8.601602e-07
8.6548345e-07
8.7397339e-07
8.8002986e-07
8.9440045e-07
9.0349646e-07
9.2630972e-07
5.836859e-07
1.3052853e-06
8.8834739e-07
8.2341924e-07
8.1753372e-07
8.1647196e-07
8.1780374e-07
8.219039e-07
8.2555211e-07
8.2723026e-07
8.284707e-07
8.3015997e-07
8.3204839e-07
8.348552e-07
8.3898581e-07
8.4437887e-07
8.5046159e-07
8.5604865e-07
8.6335927e-07
8.682929e-07
8.7991534e-07
8.8719932e-07
9.0532135e-07
5.0111668e-07
1.1021311e-06
8.4569574e-07
8.1271187e-07
8.1072842e-07
8.099409e-07
8.1074673e-07
8.1370621e-07
8.165137e-07
8.1846844e-07
8.2053809e-07
8.233179e-07
8.2580124e-07
8.2851942e-07
8.319995e-07
8.3691664e-07
8.4212553e-07
8.4669307e-07
8.5225579e-07
8.552465e-07
8.6375659e-07
8.7003093e-07
8.8630031e-07
4.0608707e-07
9.425274e-07
8.1229818e-07
8.0274967e-07
8.0344717e-07
8.0354814e-07
8.047767e-07
8.0720435e-07
8.0926159e-07
8.1111869e-07
8.1315282e-07
8.1606478e-07
8.1878998e-07
8.2124956e-07
8.2386854e-07
8.2749631e-07
8.3136158e-07
8.3504359e-07
8.4050716e-07
8.4341273e-07
8.5085544e-07
8.5682666e-07
8.7075973e-07
3.4678835e-07
8.2582904e-07
7.8898255e-07
7.9488286e-07
7.9744897e-07
7.9820291e-07
7.997576e-07
8.0193603e-07
8.0357134e-07
8.0498456e-07
8.0627683e-07
8.0822453e-07
8.1031884e-07
8.121941e-07
8.13962e-07
8.1656459e-07
8.2005246e-07
8.2372876e-07
8.2963708e-07
8.3262445e-07
8.3913363e-07
8.4394955e-07
8.550522e-07
3.1964282e-07
7.4770169e-07
7.7483499e-07
7.8919943e-07
7.9263125e-07
7.9315479e-07
7.9411321e-07
7.9549224e-07
7.9681867e-07
7.9800596e-07
7.9916602e-07
8.0077403e-07
8.026087e-07
8.0423046e-07
8.0572945e-07
8.0783086e-07
8.1100525e-07
8.139189e-07
8.1900175e-07
8.2137012e-07
8.2665035e-07
8.3066508e-07
8.4049974e-07
2.8454751e-07
6.9966741e-07
7.665606e-07
7.8446314e-07
7.8855647e-07
7.8890477e-07
7.891389e-07
7.8962565e-07
7.9033773e-07
7.9122273e-07
7.9240072e-07
7.9400605e-07
7.9576874e-07
7.9753027e-07
7.9916499e-07
8.0104761e-07
8.0385397e-07
8.0599089e-07
8.0998728e-07
8.117561e-07
8.1601863e-07
8.193079e-07
8.2731371e-07
2.5169596e-07
6.7468794e-07
7.6111648e-07
7.796244e-07
7.8441931e-07
7.8530092e-07
7.8548184e-07
7.858248e-07
7.8634399e-07
7.8700639e-07
7.8803428e-07
7.8933551e-07
7.9071045e-07
7.921897e-07
7.9361774e-07
7.9507528e-07
7.9722422e-07
7.9861622e-07
8.0171471e-07
8.0315006e-07
8.06609e-07
8.0891912e-07
8.1403616e-07
2.4573409e-07
6.6364915e-07
7.5836225e-07
7.7586508e-07
7.8053992e-07
7.8181103e-07
7.8203681e-07
7.8237078e-07
7.8292284e-07
7.835493e-07
7.8447468e-07
7.8541234e-07
7.8636243e-07
7.8745586e-07
7.8842296e-07
7.8930482e-07
7.9065147e-07
7.9148784e-07
7.9399395e-07
7.9540818e-07
7.9869744e-07
8.0051973e-07
8.0369284e-07
2.5596492e-07
6.6229058e-07
7.5710233e-07
7.7319629e-07
7.7730265e-07
7.7859458e-07
7.786023e-07
7.7866753e-07
7.7908668e-07
7.7965164e-07
7.8054763e-07
7.814667e-07
7.8235286e-07
7.8329224e-07
7.8408924e-07
7.8482291e-07
7.860064e-07
7.8691021e-07
7.892008e-07
7.9031781e-07
7.9282075e-07
7.9370497e-07
7.960203e-07
2.7525135e-07
6.6542413e-07
7.5621504e-07
7.7069395e-07
7.7432623e-07
7.7583396e-07
7.7612805e-07
7.7634632e-07
7.7667145e-07
7.7712989e-07
7.7778759e-07
7.784335e-07
7.7899918e-07
7.7960473e-07
7.8018318e-07
7.807919e-07
7.8188919e-07
7.8295363e-07
7.8507851e-07
7.8578832e-07
7.87419e-07
7.8773255e-07
7.8982276e-07
3.1734406e-07
6.7811634e-07
7.5633294e-07
7.6901776e-07
7.7212474e-07
7.7361237e-07
7.7411231e-07
7.7438482e-07
7.7453852e-07
7.7474011e-07
7.7515353e-07
7.7563797e-07
7.7624065e-07
7.7696414e-07
7.7755873e-07
7.780862e-07
7.7890808e-07
7.7985263e-07
7.8165558e-07
7.8231968e-07
7.8373412e-07
7.8431472e-07
7.8655709e-07
3.8296765e-07
6.9860307e-07
7.5703485e-07
7.6773309e-07
7.7026628e-07
7.7161644e-07
7.7229659e-07
7.7277133e-07
7.7307538e-07
7.7332185e-07
7.7370948e-07
7.7414752e-07
7.7472133e-07
7.7541854e-07
7.7597257e-07
7.7636247e-07
7.7686002e-07
7.7750709e-07
7.7869759e-07
7.7915476e-07
7.8026753e-07
7.8098026e-07
7.8443415e-07
4.6903098e-07
7.1419738e-07
7.5773298e-07
7.6702043e-07
7.6911501e-07
7.7029524e-07
7.7103802e-07
7.7167949e-07
7.7211009e-07
7.7234573e-07
7.7257023e-07
7.727178e-07
7.7291721e-07
7.7326242e-07
7.736514e-07
7.741358e-07
7.7473405e-07
7.7542825e-07
7.7639207e-07
7.7682729e-07
7.7776036e-07
7.7870468e-07
7.8321654e-07
5.6084598e-07
7.2609102e-07
7.5838749e-07
7.6663247e-07
7.6835299e-07
7.6933698e-07
7.7001608e-07
7.7062897e-07
7.7106568e-07
7.7135202e-07
7.715568e-07
7.7172836e-07
7.7190183e-07
7.7214639e-07
7.7243628e-07
7.7274972e-07
7.7311652e-07
7.7356187e-07
7.7428343e-07
7.7478419e-07
7.7580074e-07
7.7713806e-07
7.8016302e-07
6.5040329e-07
7.3655575e-07
7.5898836e-07