/*--------------------------------*- C++ -*----------------------------------*\
| =========                 |                                                 |
| \\      /  F ield         | OpenFOAM: The Open Source CFD Toolbox           |
|  \\    /   O peration     | Version:  2406                                  |
|   \\  /    A nd           | Website:  www.openfoam.com                      |
|    \\/     M anipulation  |                                                 |
\*---------------------------------------------------------------------------*/
FoamFile
{
    version     2.0;
    format      ascii;
    arch        "LSB;label=32;scalar=64";
    class       volScalarField;
    location    "5";
    object      omega_0;
}
// * * * * * * * * * * * * * * * * * * * * * * * * * * * * * * * * * * * * * //

dimensions      [0 0 -1 0 0 0 0];

internalField   nonuniform List<scalar> 
20580
(
3.5823592
2.9722846
2.4817041
2.0883136
1.8201856
1.6642934
1.5839435
1.5466089
1.5309203
1.5246034
1.5223479
1.5223881
1.5239614
1.525507
1.5278547
1.5316499
1.5345597
1.5370552
1.5387002
1.5406709
1.5420285
1.5441329
1.547803
1.5515424
1.5578845
1.5629031
1.5740459
1.5833165
1.598677
1.6153322
1.6381928
3.5838727
2.9731426
2.482211
2.0893294
1.8215681
1.6658399
1.5852203
1.5476915
1.5316855
1.5254611
1.5231545
1.5229372
1.5245476
1.5261216
1.5277957
1.5311998
1.5345141
1.5374586
1.5390575
1.5412075
1.5425074
1.5445413
1.5476593
1.5510145
1.5558985
1.5601898
1.5682032
1.5782394
1.5926058
1.6045146
1.6337637
3.5866223
2.9743025
2.4828897
2.0907441
1.823161
1.6668254
1.5858476
1.548216
1.5318654
1.5257157
1.5234207
1.5227983
1.5242003
1.5260757
1.5276508
1.5303781
1.5339743
1.5374417
1.5391958
1.5412878
1.542641
1.5451989
1.5482443
1.5512552
1.5546242
1.5584549
1.5645074
1.5720055
1.5824849
1.5912791
1.6166154
3.589808
2.9774403
2.4857406
2.093799
1.8255955
1.6682443
1.5866365
1.548626
1.531885
1.525485
1.5232329
1.522469
1.5233316
1.5251649
1.5272539
1.5295188
1.532771
1.5362394
1.5383667
1.5404414
1.5420881
1.5451354
1.5489581
1.5522797
1.5549208
1.5584518
1.5639615
1.5709783
1.578655
1.5846746
1.600484
3.5935283
2.9837454
2.4930404
2.100397
1.8295976
1.6705753
1.5878746
1.5490403
1.5320382
1.5251435
1.5228953
1.5225657
1.5228791
1.5244261
1.5266948
1.5289713
1.5316671
1.5349704
1.537208
1.5390699
1.54077
1.54417
1.5481748
1.551754
1.555005
1.5593872
1.5647532
1.5717759
1.579289
1.5844067
1.5932909
3.5970335
2.9905777
2.5016407
2.1086723
1.8352453
1.6741093
1.5900139
1.5498219
1.5324194
1.5250185
1.5228525
1.522762
1.5228939
1.5240169
1.5260265
1.5286823
1.5314187
1.5342081
1.5366484
1.5381337
1.5400693
1.5424282
1.5462204
1.5492014
1.5533929
1.5587813
1.5643271
1.5697311
1.5787562
1.5844003
1.5916522
3.5996259
2.9960518
2.5084316
2.1150945
1.8403929
1.6774902
1.5920997
1.5509329
1.5329755
1.5253027
1.5229486
1.5226416
1.5228351
1.5237425
1.5255165
1.5284285
1.5315889
1.5339705
1.5365011
1.5376706
1.5400392
1.541893
1.5452899
1.5472652
1.5505394
1.5556341
1.5611683
1.5651461
1.5744413
1.5810913
1.5907455
3.6008742
3.0000567
2.5163117
2.1227885
1.8464513
1.6812569
1.5938867
1.551903
1.5334554
1.5257957
1.5228539
1.522286
1.5227804
1.5238247
1.5250239
1.5278676
1.5312383
1.5338236
1.5363716
1.537481
1.5401662
1.5418979
1.5447635
1.5471089
1.5496319
1.553985
1.5593155
1.562132
1.5679258
1.5740372
1.5865851
3.6012496
3.0049899
2.5262486
2.1323258
1.8537519
1.6856547
1.5958772
1.5529149
1.5339593
1.5262697
1.523138
1.5220469
1.5230009
1.5242193
1.5252254
1.5274175
1.5305307
1.5331652
1.5359106
1.5371655
1.540064
1.5419623
1.5442866
1.5470571
1.549443
1.5531495
1.558354
1.5606258
1.5647987
1.5699565
1.5805648
3.6023171
3.0102575
2.5329986
2.1391583
1.8594787
1.6894044
1.5977639
1.5540442
1.5344947
1.5266891
1.5236299
1.5222099
1.5229619
1.5242987
1.5254157
1.5271693
1.529814
1.5324524
1.5351967
1.5367227
1.5398091
1.5418947
1.5439339
1.5464528
1.5493787
1.5526003
1.5576363
1.5595308
1.5647708
1.5686754
1.5769455
3.6042123
3.0156566
2.5392873
2.1458323
1.8647876
1.6929247
1.5998365
1.555233
1.5349919
1.5270202
1.5238014
1.5225496
1.5226384
1.523845
1.5251164
1.5268001
1.529291
1.531967
1.5347765
1.5368164
1.5396824
1.542063
1.5434876
1.5457149
1.5493487
1.5521102
1.556289
1.5590904
1.5655725
1.568687
1.5749616
3.6064672
3.0212189
2.547535
2.1536593
1.8705995
1.6967541
1.6024867
1.5565071
1.5355482
1.5271607
1.5238207
1.5226125
1.5226126
1.5234441
1.524921
1.5265979
1.5290185
1.5317635
1.5347109
1.5367825
1.5393612
1.5422175
1.5430168
1.5453865
1.5498498
1.5523912
1.554797
1.5581307
1.5650469
1.5685238
1.5736451
3.6087635
3.0259142
2.5536194
2.1596466
1.8752955
1.7000754
1.6047642
1.5576943
1.5361901
1.5270749
1.5237087
1.5225509
1.5225444
1.5232906
1.524682
1.526294
1.5288186
1.5314825
1.5339962
1.5363105
1.5389701
1.5422918
1.5427787
1.5449328
1.5502616
1.5534297
1.5541561
1.5566903
1.5632268
1.5673399
1.5716533
3.6108813
3.0307524
2.5600219
2.16735
1.8814696
1.7039877
1.6069445
1.5588213
1.5369462
1.5271412
1.5236154
1.5228413
1.522407
1.5229608
1.5243747
1.5258931
1.5285744
1.5309298
1.5330531
1.5358955
1.5387425
1.5419469
1.5428811
1.5451121
1.5497929
1.5535793
1.5542802
1.5563155
1.5619351
1.5660547
1.5704175
3.6133941
3.0353093
2.5672603
2.1751919
1.8881533
1.7081376
1.6093478
1.5601056
1.5376324
1.5276344
1.5240544
1.5233232
1.5226174
1.5230851
1.5243965
1.5259131
1.5282779
1.5306021
1.5326226
1.5356715
1.5384729
1.5413651
1.5432951
1.546195
1.5488938
1.5519903
1.554014
1.5569012
1.5619205
1.5653718
1.5704139
3.6162186
3.0381655
2.5729845
2.1807274
1.8931107
1.7117141
1.6114917
1.5612624
1.5381515
1.5282778
1.5247095
1.5232648
1.5229582
1.5237132
1.5247853
1.5259527
1.5277919
1.5301576
1.5320414
1.5356081
1.5382984
1.5405262
1.5432678
1.5465699
1.5488563
1.5501479
1.553384
1.5573739
1.5613724
1.5644574
1.5686706
3.6176734
3.0418943
2.5800471
2.188156
1.8990012
1.7159968
1.6140181
1.5625426
1.5387303
1.5287629
1.524801
1.5227055
1.5227837
1.5236739
1.5246867
1.5255662
1.5272813
1.5295322
1.5313494
1.5357161
1.5378658
1.5391926
1.5426772
1.5466398
1.5490516
1.549476
1.5532174
1.557472
1.5609631
1.5627021
1.565751
3.6186786
3.0466423
2.5856925
2.1943746
1.9043133
1.720018
1.6165543
1.5641167
1.5394659
1.5292132
1.5246932
1.5226169
1.5225386
1.5231769
1.5239759
1.5251526
1.5272249
1.5293615
1.5310256
1.5354336
1.5374311
1.5382943
1.5428025
1.5469031
1.5483114
1.549295
1.5533614
1.5577649
1.560761
1.5613802
1.563301
3.6204624
3.0519354
2.5925549
2.2020549
1.9109237
1.7251191
1.619796
1.5664968
1.5410301
1.5303184
1.5255272
1.5236041
1.5232442
1.5235846
1.5240784
1.5254461
1.5275751
1.5296941
1.5311252
1.5347789
1.5373542
1.5381496
1.5428244
1.5471603
1.5478053
1.5490343
1.5529787
1.5570624
1.5601745
1.5613196
1.5633782
3.6229164
3.0599808
2.6063099
2.219697
1.9287734
1.741105
1.6333215
1.5769517
1.5493085
1.5370605
1.5313297
1.528659
1.5276954
1.5274497
1.5279122
1.5288421
1.53
1.5317532
1.5330841
1.5354142
1.5381132
1.5397504
1.543115
1.5476021
1.5490869
1.5503743
1.5538965
1.5573596
1.5610525
1.5628477
1.5654709
3.6417273
3.1001519
2.6663351
2.3097999
2.0299168
1.845753
1.7348882
1.6640241
1.6223222
1.6007021
1.5927535
1.5863367
1.5803413
1.575191
1.5712745
1.5679861
1.5648626
1.5627929
1.5613347
1.5604457
1.5602053
1.560707
1.5606989
1.5620327
1.5633229
1.5648956
1.5671792
1.5696191
1.5711017
1.5744619
1.5753337
3.9336439
3.3735281
3.0700939
2.9284433
2.7664869
2.6587039
2.5442063
2.4049722
2.3033456
2.2329495
2.1829754
2.1379965
2.1003445
2.0707935
2.0365193
1.9994484
1.96522
1.9362112
1.910999
1.8899844
1.8698301
1.8502417
1.8283946
1.8086208
1.7947581
1.7813504
1.7697052
1.7625759
1.7526662
1.7475912
1.7210887
12.417198
11.64248
10.963913
10.392227
9.8884364
9.4522966
9.0322165
8.672178
8.3553317
8.0753021
7.8221971
7.5891857
7.3710793
7.1736138
6.9859363
6.8018861
6.6341906
6.4792729
6.3120174
6.1680204
6.0362714
5.8778721
5.7486434
5.6490467
5.5346499
5.4209264
5.3306348
5.2573575
5.1936816
5.1303939
5.0662925
5.3259344
1.7603239
1.576569
1.5675851
1.5662711
1.5672674
1.5716598
1.5729881
1.5721601
1.5731879
1.5759899
1.5781877
1.5804572
1.5838126
1.5881834
1.5937192
1.6002061
1.6041644
1.6049815
1.6073849
1.6159101
1.6351731
1.6519536
5.9409275
1.8659819
1.5867076
1.5721459
1.5717044
1.573252
1.5766429
1.5784661
1.5772995
1.5785834
1.5815326
1.5833553
1.585458
1.5900011
1.5937904
1.598124
1.6078247
1.6153526
1.6201788
1.6201478
1.6225807
1.6363537
1.6559499
6.6252261
2.0282887
1.6092036
1.5788156
1.5762597
1.5762641
1.5781098
1.5820056
1.5849574
1.5863142
1.5881106
1.5897626
1.5925547
1.5958574
1.5997419
1.6028358
1.6108492
1.6217316
1.6294971
1.6332946
1.6343732
1.6416431
1.6581193
7.3865256
2.1923905
1.6334835
1.5857745
1.5801889
1.580082
1.5819286
1.5870472
1.5908111
1.5925839
1.5929829
1.5949754
1.6000039
1.605088
1.6078922
1.6108966
1.6166633
1.6285476
1.6370935
1.6405412
1.6436641
1.6512649
1.6623519
8.2652711
2.3643199
1.6630895
1.5944656
1.5870871
1.5881683
1.5908954
1.5946581
1.597103
1.597331
1.5970915
1.5991884
1.6040153
1.6109252
1.6159176
1.6199742
1.6255958
1.6363213
1.6453802
1.6497366
1.6532146
1.6606536
1.6728402
9.2527597
2.5244231
1.693595
1.6052582
1.5959456
1.5968574
1.5988261
1.6013418
1.6036999
1.604103
1.6042469
1.6065768
1.6100345
1.6164092
1.6223667
1.6254347
1.6310181
1.6421152
1.6543538
1.6633446
1.6672757
1.673945
1.6860184
10.317597
2.6769136
1.7237077
1.6159016
1.6030556
1.6025594
1.6037178
1.6067018
1.6110694
1.6131776
1.6139995
1.616238
1.6197872
1.6244869
1.6297351
1.6325118
1.6374336
1.6474457
1.6609905
1.6723521
1.6795906
1.6861663
1.6970647
11.46681
2.8161324
1.7493504
1.6280356
1.6108666
1.6082114
1.6088245
1.611961
1.6177115
1.6226841
1.6234596
1.6252748
1.6296932
1.6335418
1.63935
1.6439835
1.6474784
1.6539396
1.6661812
1.6783638
1.6878751
1.6945943
1.7036606
12.743692
3.0262362
1.7848235
1.6412862
1.6203284
1.6183664
1.6187321
1.6204531
1.624602
1.6292765
1.6301196
1.6313944
1.6351097
1.6405332
1.6484108
1.6551349
1.6596723
1.6647596
1.6736462
1.6846812
1.6952871
1.7025726
1.7095802
14.134491
3.3645132
1.844566
1.6610453
1.6324247
1.6294953
1.6293027
1.6301366
1.6331043
1.6365845
1.6373626
1.6373988
1.6401142
1.6468133
1.6551958
1.6637154
1.6690245
1.6736601
1.68126
1.6923481
1.7037882
1.7113625
1.7173101
15.551871
3.7894629
1.9150684
1.683298
1.6424025
1.6378118
1.6375977
1.6387613
1.642247
1.6446819
1.6458349
1.6470043
1.6501184
1.6551641
1.661527
1.6692324
1.6733641
1.67782
1.6867382
1.698324
1.71084
1.7231791
1.7296507
16.936684
4.1342868
1.9734276
1.7015638
1.6489855
1.6416808
1.6428512
1.645586
1.6487643
1.6514141
1.6534501
1.6562534
1.6599696
1.66385
1.6689443
1.6753177
1.6794483
1.6828904
1.6896727
1.7004908
1.7133538
1.7273085
1.737008
18.292541
4.5529467
2.0374859
1.7192569
1.6561581
1.6462594
1.6472858
1.6498145
1.6527017
1.6562555
1.6596349
1.6632675
1.6665643
1.6712586
1.6769323
1.6822825
1.685707
1.6878924
1.6928408
1.7024091
1.7150175
1.7293416
1.7392102
19.576643
4.8527675
2.0988727
1.735543
1.6658892
1.6546277
1.6549862
1.6560957
1.6569596
1.6590395
1.6623569
1.6677078
1.6720848
1.6764982
1.6814299
1.6867046
1.6914029
1.6942064
1.6990132
1.7075209
1.7177996
1.7323363
1.7411603
20.747405
5.3124676
2.1786958
1.7530222
1.6750491
1.6627864
1.6630539
1.6632048
1.6624638
1.6624797
1.6643294
1.6699406
1.6768352
1.6810513
1.6835972
1.6876096
1.6943807
1.7012455
1.7074196
1.7138319
1.7218967
1.7353144
1.7433604
21.617468
5.8680657
2.2829967
1.7711223
1.6821847
1.6682111
1.6689725
1.6692069
1.666852
1.6644677
1.6656246
1.6718748
1.6804154
1.6845521
1.685188
1.6876453
1.6941349
1.7037447
1.7133915
1.720587
1.7273011
1.7388065
1.7452952
22.240602
6.1269949
2.3679477
1.7857843
1.6858669
1.6703697
1.6717838
1.672684
1.6697289
1.6658672
1.6665706
1.6728062
1.6818444
1.6865262
1.6870658
1.6884504
1.6937423
1.7031481
1.7147206
1.7243421
1.7312273
1.7410603
1.7471701
22.476978
6.4464004
2.4538071
1.7991085
1.687316
1.6701772
1.6720556
1.6734413
1.6706364
1.6662818
1.6665235
1.672547
1.6816818
1.6871786
1.6885844
1.6902078
1.6941141
1.7021891
1.7143516
1.7254643
1.7331728
1.7427078
1.7495251
22.295859
6.8640825
2.5646486
1.8112776
1.6876847
1.6699422
1.6722427
1.673789
1.6704255
1.6656344
1.665486
1.6716589
1.6815225
1.6883873
1.6917051
1.6922383
1.6948244
1.7019971
1.7146205
1.7275894
1.7371882
1.7459424
1.7520311
21.775008
6.97684
2.6583493
1.8198986
1.6882046
1.6712848
1.6762578
1.6776594
1.6708773
1.6638384
1.663434
1.6720216
1.6847512
1.6937823
1.6953086
1.6928252
1.694813
1.7034047
1.7182608
1.733626
1.7426342
1.7500602
1.7558608
20.993983
6.9459021
2.7035449
1.8198382
1.6891479
1.6764222
1.6838363
1.6833584
1.671534
1.6618835
1.662921
1.6760178
1.692917
1.6997575
1.697178
1.6930336
1.6954099
1.7087747
1.7277059
1.7410699
1.7473434
1.7525741
1.7594754
20.00654
6.8195389
2.7072487
1.8126107
1.6887124
1.6801276
1.6878149
1.685205
1.6705248
1.6602393
1.6628062
1.6802982
1.6981254
1.7031896
1.6986285
1.6942521
1.698563
1.7157645
1.7366932
1.7476845
1.752486
1.7573965
1.7669447
18.850397
6.6518415
2.7038343
1.8056138
1.6859146
1.6804342
1.6881544
1.6847192
1.6674942
1.6590846
1.6633645
1.6839146
1.7011732
1.7046891
1.6988545
1.695447
1.7017978
1.7219544
1.7435479
1.7535501
1.7582195
1.763713
1.7743269
17.562383
6.490854
2.7066868
1.8029178
1.6831015
1.679186
1.6876315
1.6837261
1.6656436
1.6588795
1.6644205
1.6864149
1.7011976
1.7028416
1.6967536
1.6956763
1.705049
1.7278571
1.747784
1.7573667
1.7618291
1.7690852
1.7821365
16.209223
6.3928311
2.7170551
1.8025522
1.6816054
1.6782888
1.6860482
1.6820145
1.6637932
1.6581541
1.6644389
1.6875398
1.7000473
1.6997604
1.6949195
1.6961082
1.7095297
1.732312
1.7498636
1.7578024
1.7625799
1.7730682
1.7888708
14.857956
6.3336405
2.7271514
1.800921
1.6813622
1.6781383
1.6842008
1.6792908
1.6635307
1.6594374
1.6678547
1.6904033
1.6996289
1.6982947
1.6953082
1.6985898
1.7147995
1.7365943
1.7502698
1.7563334
1.7643213
1.7777946
1.7939946
13.565772
6.1744663
2.7018076
1.797711
1.6827094
1.6806351
1.6850058
1.6785775
1.6649415
1.6629537
1.6720525
1.693224
1.700215
1.6991425
1.6983373
1.7054876
1.7224927
1.7413822
1.7507855
1.7564392
1.7666578
1.7835733
1.808279
12.389907
6.0751092
2.6700343
1.7890644
1.6843637
1.6830959
1.6855049
1.6769354
1.6664939
1.6671173
1.6811139
1.6979649
1.7019568
1.7014213
1.7022568
1.709807
1.7271938
1.7449279
1.7546616
1.763395
1.7787084
1.8009515
1.8300609
11.282624
5.7529888
2.5798818
1.7778012
1.6833243
1.6821281
1.6852263
1.6780032
1.6714332
1.6737542
1.6886254
1.7027295
1.7057941
1.7057402
1.7086575
1.7191962
1.7361897
1.7497088
1.7614919
1.7735239
1.7917784
1.8189137
1.8483363
10.283728
5.5185666
2.5072725
1.7685141
1.6853667
1.6854103
1.6881153
1.6818192
1.6772777
1.680454
1.6960297
1.7104628
1.7122568
1.7103503
1.7118363
1.7251923
1.7445628
1.7573175
1.7670506
1.7809284
1.8054322
1.836728
1.8591336
9.4022093
5.1419867
2.4032626
1.7591486
1.6903347
1.6898223
1.6911098
1.6858597
1.6830002
1.6881237
1.7024762
1.7138466
1.716752
1.7187116
1.7239744
1.7384955
1.7580714
1.7724894
1.7815687
1.7959402
1.8203179
1.8462277
1.8702616
8.5855405
4.8523154
2.3323818
1.752207
1.6935556
1.6929474
1.6928328
1.6891617
1.6879187
1.6928084
1.7050703
1.7167493
1.7223379
1.7272147
1.733479
1.7487734
1.7692793
1.7841376
1.7916146
1.8046084
1.8295952
1.8620574
1.900973
7.8007166
4.3541555
2.1946067
1.7353164
1.6930741
1.6941187
1.6938252
1.6911083
1.6909197
1.6981285
1.7107808
1.7219597
1.7296288
1.736307
1.7452528
1.7619996
1.7826985
1.797092
1.8060689
1.8239274
1.855255
1.8937393
1.9339909
7.0734513
4.0922303
2.1225151
1.7225247
1.6874873
1.6898564
1.6917532
1.6923971
1.6942001
1.7021296
1.7155791
1.7262623
1.7331891
1.7401248
1.7528015
1.7706382
1.788469
1.8019477
1.8148865
1.836941
1.8714878
1.9147462
1.9738183
6.4031652
3.5484515
1.9670564
1.6977365
1.6805335
1.6853585
1.687842
1.6907842
1.6973694
1.7090723
1.7202515
1.7278567
1.737019
1.7475671
1.760718
1.7809462
1.8011278
1.8181191
1.8409829
1.8745483
1.9157324
1.9623134
2.0128519
6.0919014
3.4066263
1.9446388
1.6899972
1.6726232
1.6783553
1.6821334
1.6850894
1.6901103
1.7015931
1.7152708
1.7252746
1.7329165
1.7421853
1.7563755
1.7780663
1.7995378
1.8160711
1.8373169
1.8690972
1.9078282
1.947624
1.991726
6.0601376
3.2648598
1.9326298
1.6866478
1.6635147
1.6677647
1.6727263
1.6768167
1.6804845
1.6868411
1.6996754
1.7146861
1.7250073
1.732909
1.7431149
1.7642682
1.7890875
1.8081812
1.8255638
1.8493764
1.8799338
1.9226412
1.9772483
6.0070202
3.093555
1.8996868
1.6749755
1.6508789
1.6542384
1.6607068
1.6656451
1.6681375
1.6734244
1.6839853
1.6983021
1.710802
1.7209645
1.7315638
1.7485199
1.7707741
1.7911753
1.8066074
1.8251147
1.8495522
1.8849016
1.9548822
5.9589848
2.933962
1.865295
1.6628339
1.6365295
1.6376657
1.6457975
1.6547213
1.6589118
1.6630175
1.6696624
1.6821222
1.695951
1.7071728
1.7170845
1.7302474
1.7479694
1.76529
1.7808189
1.7991784
1.8217457
1.8494662
1.9177924
5.9207458
2.7768367
1.8284391
1.6517474
1.6262737
1.6254168
1.6325418
1.6424757
1.6493134
1.6542468
1.659114
1.6675728
1.6790142
1.6908974
1.69819
1.7054764
1.7194868
1.7380733
1.7575361
1.7755143
1.7968605
1.8176304
1.8789543
5.8742463
2.6297609
1.7920357
1.6408206
1.6188815
1.617771
1.623078
1.6310602
1.6370411
1.6420438
1.6461557
1.6512361
1.6587768
1.670395
1.678567
1.6834244
1.6928685
1.7117619
1.7337853
1.7507537
1.7724389
1.7884126
1.8387043
5.8050193
2.4952126
1.7570782
1.6289248
1.6099354
1.6089088
1.6132231
1.6201752
1.6238599
1.6261437
1.6290717
1.6331621
1.6404794
1.6513615
1.6616215
1.6682287
1.6753845
1.6902755
1.708703
1.7225798
1.743964
1.7568485
1.7937781
5.7241592
2.3762891
1.72541
1.6161897
1.5982127
1.5962457
1.6004815
1.6080027
1.6121012
1.6141927
1.616111
1.6191759
1.6259825
1.635904
1.6459396
1.653767
1.6611075
1.6717772
1.6859924
1.6960605
1.7146087
1.7240933
1.752641
5.6626584
2.2788738
1.7003603
1.6060284
1.5886838
1.5852843
1.5883785
1.5962712
1.6019882
1.6060674
1.6088692
1.6117433
1.6169136
1.62472
1.6325138
1.6388324
1.6442183
1.6510327
1.6623726
1.6700919
1.6872019
1.6959587
1.7219157
5.6169772
2.2070536
1.6817917
1.5992506
1.5834876
1.5804495
1.5824767
1.5887608
1.5938722
1.5972543
1.5998816
1.6026901
1.607225
1.6135401
1.6195988
1.6242812
1.6278693
1.632335
1.6417616
1.6485487
1.6642952
1.673984
1.6985389
5.5542265
2.1432908
1.6650178
1.592359
1.5783318
1.5756408
1.5773745
1.5826113
1.5872969
1.5893643
1.5904009
1.5916804
1.5943122
1.5988808
1.6039274
1.6090845
1.6140204
1.6193185
1.6279303
1.6341719
1.6479808
1.6566475
1.6771887
5.4844394
2.0936573
1.6495654
1.5838695
1.5718016
1.5685402
1.5695628
1.5737703
1.577903
1.5797489
1.5808546
1.5821298
1.5837272
1.5866408
1.5910919
1.5968588
1.603033
1.6088091
1.6162733
1.6208521
1.6314574
1.6380881
1.6541244
5.4372375
2.0531099
1.6348516
1.5745545
1.5637866
1.5605279
1.5607334
1.5635393
1.5667125
1.5690042
1.5713427
1.5742759
1.5770689
1.5800266
1.5836035
1.5884575
1.5935165
1.5976287
1.6026877
1.6049965
1.6125818
1.6187847
1.6339776
5.4141894
2.0168065
1.6202603
1.5653537
1.5560926
1.5542246
1.5550132
1.5574405
1.5597291
1.5616737
1.5636732
1.5664776
1.5692893
1.5717185
1.5740428
1.5770919
1.5805984
1.584003
1.5894273
1.5922414
1.5992231
1.6052927
1.6180438
5.3845063
1.9980456
1.6090047
1.5578574
1.5498573
1.5487141
1.549904
1.5521651
1.554017
1.5555026
1.5566319
1.5581563
1.559998
1.5617281
1.5630978
1.5651153
1.568518
1.5722998
1.5783013
1.5811899
1.5871023
1.5918559
1.60183
5.3537473
1.9880981
1.5995948
1.5520131
1.5449864
1.5433656
1.5436246
1.5448399
1.5463873
1.5478393
1.5489873
1.5503489
1.5520735
1.553772
1.5551553
1.5569588
1.5600381
1.562931
1.5678258
1.5699641
1.5747704
1.5788842
1.588079
5.3443198
1.9635725
1.5881848
1.546278
1.5408963
1.5392734
1.538841
1.5390997
1.5398662
1.5409127
1.5421163
1.5436354
1.5454625
1.5474195
1.5491885
1.5510648
1.5538652
1.5559312
1.5596446
1.5612186
1.5651814
1.568477
1.5758257
5.347008
1.9352587
1.576651
1.5401834
1.5367923
1.5362911
1.5363178
1.5366222
1.5371581
1.537866
1.5388585
1.5400075
1.5412687
1.5426906
1.544134
1.5455353
1.5475693
1.5487975
1.5515873
1.5529332
1.5562284
1.5586516
1.563167
5.3389726
1.918994
1.5690332
1.5359418
1.5334211
1.5334815
1.5336775
1.5339838
1.5344048
1.5350313
1.5359463
1.536784
1.5375293
1.5384494
1.5392976
1.5400537
1.5412533
1.5419579
1.5442073
1.5456052
1.5489841
1.5511975
1.5541222
5.3413747
1.9125662
1.563781
1.5330161
1.5309469
1.5311031
1.5309903
1.5309506
1.5312095
1.531695
1.532606
1.5334618
1.5341827
1.5349218
1.5355648
1.5362754
1.5375178
1.5383733
1.5404076
1.5414267
1.5438371
1.5447368
1.5466112
5.3579731
1.9073079
1.5591355
1.5303086
1.5287573
1.5293312
1.5295579
1.5296395
1.529824
1.5301062
1.5306195
1.5310652
1.5314427
1.5318585
1.5323273
1.5329212
1.5340105
1.5349948
1.536874
1.5374813
1.5390253
1.5392379
1.5409664
5.3794837
1.8940623
1.5548502
1.5286027
1.5274132
1.5280284
1.5283458
1.5284149
1.528383
1.528444
1.5287123
1.5290957
1.529624
1.5303188
1.5309432
1.5314108
1.5320623
1.5327726
1.5342967
1.5349402
1.5364075
1.5368814
1.5389608
5.3993265
1.8609821
1.5506672
1.5272374
1.5262115
1.5268135
1.5273128
1.5276388
1.5278363
1.5280595
1.5283898
1.5287305
1.5291596
1.5297719
1.5303128
1.5306296
1.5309699
1.5313681
1.5322613
1.5325682
1.5336025
1.5340168
1.5367267
5.41981
1.8369946
1.5480759
1.5266589
1.5257556
1.5263195
1.5268697
1.5273595
1.5276861
1.5278808
1.5279919
1.5279712
1.5279584
1.5281278
1.5284184
1.5288719
1.5294739
1.5300984
1.5309126
1.5312397
1.5320867
1.5327506
1.5363724
5.4414205
1.8198242
1.5465831
1.5264828
1.5256283
1.526073
1.5265301
1.5269225
1.5271881
1.5273717
1.5275635
1.527711
1.5278312
1.5279868
1.5281784
1.5283562
1.5286369
1.5289412
1.5295058
1.5299397
1.5309194
1.5320191
1.5350571
5.4654667
1.8000963
1.5450846
1.5264712
1.5258176
1.5263122
1.5267976
1.5271602
1.527322
1.5272954
1.5272544
1.5272759
1.5273902
1.5275016
1.5276233
1.5276816
1.5277876
1.5279695
1.5284703
1.5289214
1.5298002
1.5309108
1.5315383
5.4869295
1.7876928
1.5440111
1.5262492
1.5254824
1.5258133
1.5262672
1.5266943
1.5270199
1.5271804
1.5272125
1.5272018
1.5272252
1.5272923
1.5274149
1.5274578
1.5275791
1.5277545
1.528199
1.5285363
1.5292534
1.530434
1.5306619
5.5113531
1.7790659
1.5431328
1.5261146
1.525413
1.5257142
1.5262021
1.5266962
1.527113
1.5273666
1.527474
1.527465
1.5274383
1.5274191
1.5274783
1.5275166
1.5276597
1.5278167
1.5281523
1.528372
1.528971
1.5301899
1.5305797
5.5344663
1.7672225
1.5424834
1.5263529
1.5257141
1.5259057
1.5261997
1.526495
1.5267728
1.526989
1.5271606
1.5272674
1.527355
1.5274235
1.527529
1.5275652
1.5276351
1.527669
1.5278297
1.5279545
1.5285031
1.5297372
1.5302971
5.557898
1.7582253
1.5418542
1.5263123
1.5256846
1.5258551
1.5261203
1.5263857
1.5266461
1.5268453
1.5270013
1.5271281
1.5272314
1.5273059
1.5274289
1.5275013
1.5275783
1.5276242
1.5277467
1.5278638
1.5283571
1.5293961
1.5300572
5.5806391
1.7561026
1.5418095
1.5263267
1.5256249
1.5257302
1.5259469
1.526213
1.526533
1.5268303
1.5270947
1.5272739
1.5273602
1.5273364
1.5273348
1.5273532
1.5274538
1.5275568
1.5276839
1.527777
1.5281322
1.5288519
1.5297578
5.606527
1.7568755
1.5420314
1.5265
1.5257575
1.5257902
1.5258849
1.5259822
1.5261187
1.5262917
1.526552
1.5268239
1.5270743
1.527216
1.5272673
1.5272902
1.5273612
1.5274328
1.5275618
1.5277123
1.5280692
1.528595
1.5293798
5.6347972
1.7588458
1.5420026
1.5263251
1.5256103
1.5256943
1.5258588
1.5260094
1.5261665
1.5263085
1.5264891
1.5266631
1.526841
1.5269597
1.5270395
1.5270635
1.5270851
1.527102
1.527173
1.5273027
1.5276534
1.5281062
1.5289963
5.659975
1.7602653
1.5424131
1.5264399
1.5255961
1.5255643
1.5256309
1.5257416
1.5259002
1.5260341
1.5261637
1.5262672
1.5263904
1.5265169
1.5266843
1.5268409
1.5269666
1.5270329
1.5270804
1.5271296
1.5273714
1.5277337
1.5287011
5.6897981
1.7613957
1.5424985
1.5264276
1.5256352
1.5256364
1.525679
1.5257129
1.5257803
1.5258501
1.5259587
1.5260713
1.5261794
1.5262528
1.5263561
1.5264488
1.5265706
1.5266841
1.5267785
1.5268174
1.5269852
1.5272334
1.5282374
5.7166279
1.7617958
1.5425872
1.5262607
1.5253506
1.5253179
1.5253939
1.5254796
1.5255745
1.5256587
1.5257572
1.5258731
1.5260005
1.5261151
1.5262156
1.526258
1.5262814
1.5263226
1.5263903
1.5264705
1.5266966
1.5270545
1.5285499
5.7463767
1.7635226
1.5428683
1.5264193
1.5254988
1.5254334
1.5254543
1.5254937
1.525572
1.5256426
1.5256924
1.5257022
1.5257234
1.5257862
1.5258937
1.5260205
1.5261424
1.5262438
1.5263431
1.5264409
1.5266333
1.5269364
1.5283182
5.7754999
1.7644673
1.5431145
1.5264399
1.5255082
1.5254548
1.5254685
1.5254632
1.5254715
1.5254872
1.5255318
1.5255891
1.5256378
1.5256719
1.5256949
1.5257217
1.5257753
1.5258527
1.5259768
1.5261246
1.5263043
1.5265503
1.528008
5.8056171
1.7654523
1.5434163
1.5264362
1.5254143
1.5253103
1.5252925
1.5252989
1.5253341
1.5253603
1.5253946
1.5254342
1.5254843
1.5255324
1.5255644
1.5255972
1.525654
1.5257032
1.5257605
1.5258364
1.525957
1.5261427
1.527587
5.8377386
1.7676154
1.5437251
1.5265088
1.525481
1.5253791
1.5253494
1.5253253
1.5253361
1.5253529
1.5253721
1.5253582
1.525348
1.5253458
1.5253566
1.5253796
1.5254253
1.5254649
1.5254868
1.5255217
1.5256163
1.5258727
1.5276448
5.8689782
1.7702677
1.5441384
1.526596
1.5255519
1.5254704
1.5254515
1.5253959
1.5253376
1.5252811
1.5252521
1.525264
1.5253171
1.5253703
1.5254158
1.5254304
1.5254199
1.5254003
1.5253711
1.5253787
1.5254441
1.5256137
1.5271246
5.9015335
1.7747545
1.5445981
1.5266109
1.5254774
1.5253575
1.5253333
1.5252923
1.5252604
1.5252375
1.5252262
1.5252114
1.5252178
1.5252135
1.5252104
1.5252056
1.525181
1.5251867
1.5252104
1.5252539
1.5253052
1.5254283
1.5270225
5.9376635
1.7796285
1.5449194
1.526436
1.5252765
1.5251844
1.525211
1.5252422
1.5252861
1.5253152
1.5253148
1.525259
1.5251907
1.52511
1.525027
1.5249973
1.5249983
1.525049
1.5251152
1.5251789
1.5252055
1.525256
1.5265503
5.9715359
1.784492
1.5457051
1.5266492
1.5254345
1.5252909
1.5252364
1.5251942
1.525174
1.5251334
1.5251062
1.5250715
1.5250432
1.525012
1.5249786
1.5249759
1.5249728
1.5249742
1.5249657
1.5249606
1.5249469
1.5250319
1.5263517
6.0077376
1.789752
1.5464078
1.5268166
1.5255727
1.5254414
1.5253859
1.5253047
1.5252525
1.5251931
1.5251395
1.5250909
1.5250543
1.5250261
1.5249973
1.5249677
1.5249448
1.5249064
1.5248578
1.5248557
1.5248327
1.5249286
1.526262
6.0436775
1.7931131
1.5470199
1.5269257
1.5256103
1.5254766
1.5254511
1.525381
1.525329
1.5252986
1.5252502
1.5251892
1.5251722
1.5251375
1.5250923
1.5250548
1.5250047
1.5249581
1.524881
1.5248493
1.5248054
1.5248612
1.526071
6.0819976
1.7950933
1.5474921
1.5270117
1.5256816
1.5255495
1.5255359
1.5255009
1.5254538
1.525413
1.5253485
1.5252628
1.5252076
1.5251322
1.5250904
1.5250635
1.5250128
1.5249958
1.5249487
1.5249362
1.5248945
1.5249357
1.525906
6.1221036
1.796708
1.5478875
1.5270295
1.5256384
1.5254761
1.5254356
1.5253908
1.5253596
1.5253413
1.5253115
1.5252486
1.5251812
1.5251068
1.5250694
1.5250073
1.5249179
1.5248741
1.5248472
1.524859
1.5248235
1.52485
1.5257939
6.1641875
1.8006682
1.5484722
1.5270362
1.5256029
1.5254577
1.5254209
1.5253771
1.5253447
1.5252972
1.5252891
1.5252871
1.5252272
1.5251667
1.5251205
1.5250488
1.5249645
1.5248747
1.5248157
1.5247877
1.5247462
1.524766
1.5255888
6.2055879
1.8038209
1.5491778
1.5271526
1.525669
1.5255348
1.5255015
1.5254604
1.5254091
1.5253213
1.5252705
1.5252448
1.5251868
1.5251368
1.525078
1.5250185
1.525018
1.5249697
1.5249155
1.5248764
1.5248395
1.5248458
1.5254992
6.2495626
1.8090056
1.5498785
1.5271944
1.5256446
1.525458
1.5254235
1.5254037
1.5253534
1.5252926
1.5252633
1.5252135
1.5251563
1.5251189
1.5250473
1.5249843
1.5249617
1.5249098
1.5248433
1.5247914
1.5247351
1.5247109
1.525239
6.2952654
1.8163311
1.5507431
1.5272532
1.525635
1.5254369
1.5254012
1.5253867
1.5253544
1.5253171
1.5252742
1.5251998
1.5251682
1.5251458
1.5250661
1.5249995
1.524931
1.5248719
1.5248221
1.524748
1.5246843
1.5246617
1.5251691
6.3418594
1.8224391
1.5516286
1.5273724
1.5256982
1.525508
1.52547
1.5254468
1.5254062
1.5253588
1.5253108
1.5252338
1.5251987
1.5251614
1.5250924
1.5250455
1.5249628
1.5249024
1.5248752
1.5248017
1.5247402
1.5246977
1.5250431
6.3900006
1.8277013
1.5524945
1.5274795
1.5257407
1.5255562
1.5255263
1.5254904
1.5254354
1.5253869
1.5253513
1.5253013
1.5252658
1.5251948
1.5251201
1.5250856
1.5250036
1.524966
1.5249197
1.5248354
1.5247784
1.5247422
1.525024
6.4410351
1.8315781
1.5532318
1.5274985
1.5256657
1.5254595
1.5254252
1.5254036
1.5253753
1.5253249
1.5252805
1.5252642
1.5252356
1.5251566
1.5251169
1.5250911
1.5250138
1.5249753
1.5249098
1.5248359
1.5248128
1.5247429
1.5248948
6.4941834
1.8358038
1.553995
1.5274724
1.5255682
1.5253891
1.5253689
1.5253265
1.5253056
1.5252922
1.5252361
1.5251882
1.5251622
1.5250992
1.5250695
1.5250329
1.5249326
1.5248842
1.5248316
1.5247774
1.5247358
1.5246418
1.524731
6.5478489
1.840489
1.5549155
1.5275423
1.5255579
1.5253856
1.5253632
1.5253007
1.525254
1.5252472
1.525211
1.5251468
1.525113
1.5250605
1.5250263
1.524989
1.524883
1.5248376
1.524791
1.5247449
1.5247051
1.5246224
1.5246572
6.6041161
1.8456781
1.5558412
1.5275855
1.525534
1.525348
1.5253064
1.5252462
1.5252177
1.5252253
1.5252073
1.5251546
1.5251258
1.525073
1.525028
1.525015
1.524939
1.524898
1.5248392
1.5247738
1.5247379
1.5247116
1.5248061
6.6617071
1.8509425
1.5568231
1.5276556
1.525543
1.5253329
1.5252699
1.5252204
1.5252065
1.5252033
1.5251692
1.5251306
1.5251225
1.5250755
1.5250106
1.5249982
1.5249658
1.5249438
1.5248638
1.5247784
1.5247595
1.5247621
1.5247733
6.7218237
1.855505
1.5578128
1.5277115
1.5255074
1.525274
1.525199
1.5251744
1.5251952
1.525179
1.5251133
1.5250678
1.5250578
1.525018
1.5249615
1.5249302
1.5248861
1.5248552
1.5247873
1.5247337
1.5247295
1.524743
1.5247248
6.7840608
1.8599971
1.5588018
1.5277408
1.5254361
1.5251972
1.5251338
1.5251165
1.5251407
1.5251264
1.5250625
1.5250368
1.5250411
1.5249966
1.5249615
1.52493
1.5248762
1.5248385
1.5247659
1.5247369
1.5247267
1.5247058
1.5247262
6.8474815
1.8658005
1.5599701
1.5278637
1.5254358
1.5251692
1.5251067
1.5250901
1.525085
1.5250514
1.5249981
1.5249664
1.5249788
1.5249302
1.5248708
1.5248606
1.5248089
1.5247729
1.5247114
1.5246729
1.5246628
1.5246229