/*--------------------------------*- C++ -*----------------------------------*\
| =========                 |                                                 |
| \\      /  F ield         | OpenFOAM: The Open Source CFD Toolbox           |
|  \\    /   O peration     | Version:  2406                                  |
|   \\  /    A nd           | Website:  www.openfoam.com                      |
|    \\/     M anipulation  |                                                 |
\*---------------------------------------------------------------------------*/
FoamFile
{
    version     2.0;
    format      ascii;
    arch        "LSB;label=32;scalar=64";
    class       volScalarField;
    location    "5";
    object      omega;
}
// * * * * * * * * * * * * * * * * * * * * * * * * * * * * * * * * * * * * * //

dimensions      [0 0 -1 0 0 0 0];

internalField   nonuniform List<scalar> 
20580
(
3.5818384
2.9721137
2.4824889
2.0891243
1.8202737
1.6639765
1.5832639
1.5457538
1.5298605
1.5237845
1.5214577
1.5214575
1.5231137
1.5248315
1.5270466
1.5306594
1.53369
1.5362609
1.5376995
1.5397199
1.5410357
1.5433437
1.5468442
1.5507473
1.5569948
1.5620388
1.5730979
1.5825444
1.5978755
1.6148938
1.6371555
3.5834145
2.9728337
2.482922
2.0901262
1.8216627
1.6655658
1.5845625
1.5468096
1.5306434
1.5245123
1.5223464
1.5220159
1.5236036
1.5254418
1.527062
1.5302577
1.533694
1.5366797
1.5380929
1.5401388
1.5413715
1.5436883
1.5467006
1.5502207
1.55506
1.5593307
1.5675785
1.5776827
1.5921331
1.6036574
1.6333087
3.5862235
2.9739081
2.4833729
2.0913338
1.823271
1.6665848
1.5852149
1.5473011
1.5308707
1.5246474
1.5226121
1.5218837
1.5232285
1.5253275
1.527019
1.52962
1.5332248
1.5366533
1.5382951
1.5402068
1.5414661
1.5443278
1.5472181
1.5502348
1.5535857
1.5574313
1.5640741
1.5713898
1.582099
1.5903022
1.6159211
3.5894534
2.9770819
2.4859846
2.0941263
1.8257341
1.6679991
1.5860089
1.5477102
1.5309538
1.5244046
1.5222826
1.5215561
1.5224091
1.5243093
1.5265384
1.5289163
1.5321579
1.5354371
1.5375326
1.5394659
1.5409673
1.5442928
1.5480021
1.5512475
1.5538381
1.5573643
1.563613
1.57022
1.5777689
1.583747
1.5997172
3.5932362
2.9835607
2.493178
2.1005905
1.8297819
1.6702902
1.5872259
1.5481815
1.5311333
1.52416
1.5218136
1.5216626
1.5220611
1.5234606
1.5258621
1.5284173
1.5310604
1.5340817
1.5363143
1.5381399
1.539769
1.5434771
1.5473964
1.5509347
1.554192
1.5584331
1.5642763
1.5711099
1.5781481
1.5832474
1.5926763
3.5968183
2.9906437
2.50187
2.1089371
1.8354778
1.6737769
1.5893323
1.5490409
1.5315296
1.5241676
1.5217495
1.5218585
1.5221873
1.5230962
1.5251297
1.5279669
1.5307362
1.5333636
1.5356895
1.5371826
1.5391905
1.5416708
1.5452798
1.5482862
1.5528424
1.558029
1.5634909
1.569045
1.5779019
1.5833155
1.5909949
3.5994147
2.9963677
2.5088609
2.1155824
1.8406443
1.6771473
1.5914111
1.5501704
1.5320972
1.5244727
1.5219556
1.5217306
1.5220964
1.5228879
1.524584
1.5276088
1.5308749
1.5332437
1.5354645
1.5367608
1.5391807
1.541009
1.54426
1.5460724
1.5497656
1.5550138
1.5600816
1.5640084
1.5736967
1.5803452
1.5901102
3.6005613
3.0004859
2.5169018
2.1235184
1.8466799
1.6809621
1.5932605
1.5510787
1.5325455
1.5248531
1.5219639
1.5213672
1.5219099
1.5230215
1.5242319
1.5270951
1.5304802
1.5332031
1.5354819
1.5365779
1.5392812
1.5410217
1.5437917
1.545765
1.5485154
1.5533332
1.5582226
1.5608548
1.5670659
1.5735159
1.5860158
3.6008254
3.0052554
2.5269125
2.1331574
1.8539535
1.6854262
1.595331
1.5520294
1.5329733
1.5252614
1.5222436
1.5211164
1.5219885
1.5234105
1.5245133
1.5267713
1.5298031
1.5326035
1.5351785
1.5364476
1.539248
1.541116
1.5434904
1.5459859
1.548443
1.5525387
1.5573157
1.55962
1.5640192
1.5698206
1.5803252
3.6018923
3.0101262
2.5336008
2.1398849
1.8596676
1.6892185
1.5972412
1.5531715
1.5334683
1.5256074
1.5227284
1.5212417
1.5218987
1.5234181
1.5247885
1.5265969
1.5291015
1.5317752
1.5345652
1.5360348
1.5389434
1.5409144
1.5431177
1.5456956
1.5487303
1.552089
1.5566395
1.5586088
1.563991
1.5684574
1.5768294
3.6039192
3.015073
2.5396447
2.1463612
1.8649855
1.6927524
1.5992595
1.5543832
1.5340049
1.5258788
1.5228963
1.5216062
1.5216819
1.5229699
1.5244045
1.5261397
1.5285144
1.5312271
1.5339943
1.5359843
1.5389929
1.5410164
1.5424708
1.5448986
1.5486658
1.5513865
1.555465
1.5582148
1.5647448
1.5679569
1.5740141
3.6063286
3.0203849
2.5476149
2.1540422
1.870821
1.696579
1.6018616
1.5556714
1.5345854
1.5261534
1.5228333
1.5217305
1.5218037
1.5226064
1.5240736
1.5258009
1.5283263
1.5309869
1.5338483
1.535942
1.5388771
1.5411807
1.5418519
1.5445399
1.5490244
1.5511865
1.5540445
1.5575296
1.5642952
1.5674766
1.5720699
3.608704
3.0252234
2.5535906
2.1599935
1.875537
1.6999147
1.6041539
1.5569246
1.5352484
1.5262238
1.5226978
1.521588
1.5217466
1.5224932
1.5237383
1.5254312
1.5281612
1.5307836
1.5333171
1.5354613
1.538464
1.5413014
1.5417085
1.5444057
1.5496725
1.5519139
1.5531502
1.5561081
1.5627117
1.566351
1.5702195
3.6106791
3.0305597
2.5601572
2.1677813
1.8817504
1.7038572
1.6063838
1.5580863
1.5360681
1.526293
1.5226257
1.5217911
1.5215444
1.5221424
1.5234411
1.5250439
1.5279462
1.5303493
1.5324798
1.5352378
1.5382417
1.5410122
1.5419452
1.5446806
1.5494432
1.5523333
1.5530677
1.5553698
1.5613895
1.565072
1.5690611
3.6128157
3.0357081
2.5678044
2.1757677
1.8885165
1.7080241
1.6088274
1.5593079
1.5367707
1.5267402
1.5230174
1.5222939
1.5217311
1.5221911
1.5235109
1.5251236
1.5276597
1.5298885
1.5321534
1.5352331
1.5378156
1.5403597
1.5424884
1.5456584
1.5482268
1.5512622
1.5529898
1.5558427
1.5610253
1.5641779
1.5690803
3.6153214
3.0387814
2.5738978
2.1814097
1.8935377
1.7115647
1.6109782
1.5603993
1.5372052
1.5272906
1.5237089
1.5223537
1.5220382
1.5227811
1.5239527
1.5252221
1.5270868
1.5293309
1.5315423
1.535008
1.537482
1.5396442
1.5426564
1.5459866
1.5475689
1.54936
1.5525821
1.5565369
1.5603431
1.5632602
1.5677975
3.6168192
3.0421023
2.5809222
2.1888526
1.8994453
1.7157863
1.6134919
1.5616687
1.5377235
1.5276784
1.5238935
1.5218795
1.5218496
1.5227394
1.5239573
1.5249149
1.5266085
1.52867
1.530663
1.5350182
1.5370285
1.5386952
1.5421487
1.5458239
1.5476043
1.5484192
1.5524415
1.5566529
1.559884
1.5615079
1.5651641
3.6182413
3.0462185
2.5861082
2.1950029
1.9046775
1.7198002
1.6160345
1.5632994
1.5384764
1.5281648
1.5237735
1.5217492
1.5216445
1.5222876
1.5232571
1.5244759
1.5265674
1.5284836
1.530293
1.5349077
1.5365031
1.5379853
1.5423997
1.5458686
1.5471294
1.5484262
1.552757
1.5569536
1.5594892
1.5600008
1.5624446
3.6207443
3.0511468
2.5924948
2.2025879
1.9111694
1.7249977
1.619319
1.5657922
1.5401041
1.5293461
1.5245445
1.5226489
1.522316
1.5227298
1.5232424
1.5245917
1.5268348
1.5288713
1.5304846
1.5344631
1.5363943
1.5375878
1.5426945
1.546163
1.5467013
1.5484129
1.5525555
1.5564823
1.5588854
1.5598628
1.5621472
3.6235438
3.059304
2.6059831
2.2201817
1.9289307
1.7411482
1.6328753
1.5763152
1.5484797
1.5361142
1.5303365
1.5276078
1.5267073
1.5265662
1.526986
1.5279402
1.5291924
1.5310423
1.5325957
1.5351341
1.5372634
1.5388681
1.54286
1.5468387
1.5481194
1.5496071
1.5532829
1.5567286
1.5599098
1.5615743
1.5640803
3.6423409
3.0998178
2.6658957
2.3102047
2.0299988
1.8458853
1.7345054
1.663475
1.6216325
1.5997852
1.5918017
1.5852491
1.5794511
1.5743324
1.5704661
1.5672359
1.5640328
1.5622534
1.5609979
1.5600561
1.5595288
1.5599277
1.5600112
1.5614477
1.5628213
1.5640193
1.5663092
1.5686088
1.5701071
1.5734347
1.5740974
3.9398637
3.3741114
3.0691973
2.9273698
2.7650912
2.6591597
2.5438145
2.4049556
2.3029454
2.2322871
2.1821315
2.1368635
2.0995684
2.069878
2.0358552
1.9989274
1.9645425
1.935803
1.9107539
1.8899575
1.8692008
1.8496143
1.8277498
1.8080677
1.7944002
1.7806674
1.7689103
1.7618557
1.7518647
1.7469318
1.7201448
12.425199
11.640561
10.957334
10.391878
9.8862714
9.4547159
9.0338028
8.6744991
8.3573658
8.0766198
7.8229286
7.587335
7.370972
7.1725036
6.9843527
6.7998739
6.6322144
6.475781
6.3101146
6.1692271
6.0301288
5.8709183
5.7471333
5.6467977
5.5320907
5.4165938
5.3307538
5.2601123
5.195461
5.1282738
5.0642047
5.32662
1.7612329
1.5755511
1.5662314
1.56511
1.5667112
1.5711371
1.5718695
1.5710165
1.5724026
1.5747679
1.5764794
1.5794006
1.583404
1.5872404
1.5924654
1.5994686
1.6039783
1.6047587
1.6068363
1.615579
1.6347221
1.650167
5.9423364
1.8655011
1.5853088
1.5706896
1.5705374
1.5722636
1.5754331
1.5771986
1.5765593
1.5784156
1.580978
1.5822119
1.5845192
1.5893072
1.5925614
1.5966034
1.6066572
1.6146205
1.619506
1.6192276
1.6222659
1.6366107
1.6553773
6.6235918
2.0263473
1.6078401
1.5773221
1.574592
1.5744758
1.5764432
1.5808555
1.5844058
1.5858296
1.5872465
1.5886492
1.591713
1.5953275
1.5991476
1.6021178
1.6099729
1.6206813
1.6283742
1.6318001
1.6333896
1.6411816
1.6576094
7.3877726
2.1925772
1.6324413
1.5844457
1.5788009
1.5789561
1.5810861
1.5861473
1.5895592
1.5910334
1.5914517
1.5936851
1.5989342
1.6041425
1.6072517
1.6105143
1.6162381
1.6280803
1.6365037
1.6395726
1.6428009
1.6503698
1.6610288
8.2680414
2.3644164
1.6615349
1.5929268
1.5861685
1.5878874
1.5904824
1.5936284
1.5955623
1.5956724
1.5957005
1.59823
1.6031116
1.6096107
1.6143589
1.6186947
1.6247009
1.6358732
1.6450223
1.6494056
1.6532568
1.6605337
1.6716925
9.2518642
2.5226514
1.6921235
1.6038027
1.5946612
1.595649
1.5975546
1.599957
1.6022386
1.6028895
1.6036903
1.6064056
1.6094107
1.6150407
1.620607
1.6237393
1.6295673
1.6409145
1.6532023
1.6625063
1.66729
1.674323
1.6857849
10.312337
2.6737309
1.7225298
1.6145297
1.6014949
1.6008909
1.6019419
1.6048822
1.6094443
1.6120464
1.6133455
1.6156301
1.6188583
1.6233903
1.628628
1.6314821
1.6364136
1.6461632
1.6593276
1.6706887
1.6785298
1.6856975
1.6965115
11.467308
2.8181464
1.7488249
1.6271234
1.6098937
1.6071244
1.6075477
1.6105342
1.6162957
1.6212812
1.6219836
1.6236564
1.628078
1.6321837
1.6383767
1.6434715
1.647267
1.6535415
1.6651238
1.6767666
1.6862268
1.6929771
1.7019684
12.75581
3.0371624
1.7848592
1.640483
1.619693
1.6178991
1.6182747
1.6197512
1.6235184
1.6277858
1.6283291
1.6295456
1.6333955
1.638956
1.6470434
1.6540881
1.6589812
1.6643058
1.6731794
1.6840028
1.6942429
1.701236
1.7079847
14.142948
3.3690532
1.8436006
1.6597092
1.631175
1.6284512
1.6284206
1.6292895
1.6322022
1.6356118
1.6362557
1.6362434
1.6389275
1.6455367
1.6537396
1.6620254
1.6673287
1.6722374
1.6802711
1.6915842
1.7030073
1.7105668
1.7167142
15.5458
3.7799085
1.912648
1.6813666
1.6404919
1.6358747
1.6357578
1.6371821
1.6410243
1.6438323
1.6452648
1.6465696
1.6496464
1.6544847
1.6604344
1.6676226
1.6714244
1.6757609
1.6848149
1.6966484
1.7094726
1.7220733
1.7291486
16.923495
4.1213481
1.9705366
1.6994893
1.6470033
1.6396808
1.6409537
1.6439383
1.6474229
1.6503301
1.6525446
1.6554908
1.659356
1.6632853
1.668241
1.6743362
1.6780639
1.6811941
1.6877877
1.6984803
1.7113868
1.7256209
1.7359065
18.288309
4.5428515
2.0351184
1.7175858
1.6546004
1.6447882
1.6459769
1.6486765
1.6516167
1.6550135
1.6581966
1.6617622
1.6651949
1.6701027
1.67599
1.6815217
1.6849803
1.6869795
1.6916238
1.7009309
1.71341
1.7276415
1.7375137
19.580764
4.8507707
2.0980227
1.7342547
1.664629
1.653583
1.6542144
1.6554278
1.6561021
1.6577918
1.660761
1.6658866
1.6701705
1.674688
1.6799242
1.6856493
1.6906349
1.693445
1.6982583
1.7068563
1.7172464
1.7316495
1.7400019
20.753603
5.3143892
2.1783988
1.7519803
1.6739509
1.6618143
1.6622246
1.6624388
1.6616291
1.6614436
1.6630065
1.6682848
1.6748986
1.6790671
1.6818257
1.6861266
1.6931692
1.7002174
1.7066013
1.7134481
1.722082
1.7357007
1.7431454
21.620405
5.8681966
2.2821008
1.7700395
1.6810799
1.6671148
1.6679031
1.6681339
1.6657922
1.6634323
1.6645386
1.6706191
1.6789246
1.6828911
1.6835051
1.6859766
1.6925261
1.7023284
1.7123244
1.7200797
1.7274932
1.7394783
1.74566
22.238614
6.1200205
2.3657629
1.7845217
1.6846966
1.6691336
1.6704754
1.6713472
1.6684971
1.6647603
1.6655318
1.6717652
1.6807483
1.6852867
1.6856604
1.6868992
1.6921037
1.7015254
1.7133053
1.7234862
1.7312018
1.7415874
1.7475872
22.473513
6.4350688
2.4508512
1.7977655
1.686137
1.6688943
1.6706488
1.6719999
1.6692755
1.6650539
1.6654671
1.6716433
1.6808314
1.6862311
1.6874778
1.6889167
1.6926943
1.700719
1.7128999
1.7242094
1.7324622
1.7427091
1.7497802
22.295146
6.8522194
2.5606944
1.8099271
1.6865456
1.6686784
1.6708691
1.672363
1.6690546
1.6644039
1.6644585
1.670772
1.6807344
1.687596
1.6908194
1.6913195
1.6937848
1.7007986
1.7132443
1.7261295
1.7358472
1.7449785
1.7514145
21.774105
6.9660718
2.6545774
1.8184548
1.6870905
1.6700111
1.6746927
1.6760904
1.6694981
1.662641
1.662323
1.6709496
1.6836519
1.692744
1.6944966
1.6920736
1.6940154
1.7023702
1.7169154
1.732103
1.7411107
1.7486962
1.7546912
20.984218
6.9336413
2.6990661
1.8183516
1.6878752
1.6749522
1.6822957
1.6818887
1.6702148
1.6607082
1.6617732
1.6747494
1.6916697
1.6986337
1.6962193
1.6922198
1.6946197
1.7077637
1.7264144
1.7396827
1.7459347
1.7511777
1.758094
19.996312
6.8081309
2.7030284
1.8112139
1.6875531
1.6787937
1.6863944
1.6838834
1.6693863
1.659151
1.6617432
1.6791321
1.6969523
1.702139
1.6977314
1.6934471
1.6977065
1.7147398
1.735491
1.7463576
1.7511109
1.7560152
1.7655375
18.846138
6.6425015
2.7001968
1.8042948
1.6849265
1.6793094
1.6869106
1.6834881
1.6663333
1.6579545
1.6622561
1.6828575
1.7003185
1.7040371
1.6982694
1.6947888
1.7009892
1.720981
1.7423625
1.7521601
1.7567565
1.7622891
1.7730383
17.555466
6.4781104
2.702055
1.801341
1.6820275
1.67803
1.6863204
1.6824377
1.6644507
1.6577558
1.6633656
1.6854779
1.7006148
1.7025565
1.6963647
1.6949817
1.7041053
1.7267313
1.7465474
1.7560967
1.7606612
1.7680509
1.7812907
16.200919
6.3780865
2.7119103
1.8008709
1.6803719
1.6770466
1.6848427
1.6808091
1.6626427
1.6571707
1.6636444
1.6868241
1.6992576
1.698884
1.6940058
1.6951699
1.7085242
1.7313451
1.7490472
1.757167
1.7620739
1.7724702
1.788074
14.855865
6.3243446
2.7242707
1.7997075
1.6802903
1.6770426
1.6830632
1.6782193
1.6625321
1.6585209
1.6670028
1.6895214
1.6985004
1.6970675
1.6941473
1.6975031
1.7138058
1.7358113
1.7500327
1.7565388
1.7641685
1.7768931
1.7926343
13.564829
6.1683269
2.7004965
1.7966448
1.6816098
1.6794802
1.6839618
1.6776343
1.6640841
1.6621402
1.6711485
1.692142
1.6989586
1.6977753
1.6968737
1.7041647
1.7216416
1.7411924
1.7510632
1.7565061
1.7658518
1.7822097
1.8066964
12.389078
6.0727116
2.6707436
1.7883386
1.6834972
1.6823672
1.6849171
1.6762027
1.6654511
1.6658283
1.679714
1.6965838
1.7006199
1.7000397
1.7008532
1.7086609
1.7266423
1.7449858
1.7546074
1.7628148
1.7776634
1.7994756
1.8283517
11.2843
5.754136
2.581082
1.7771761
1.6827504
1.6818003
1.6846151
1.6768162
1.6698692
1.6720907
1.6869578
1.701152
1.7045667
1.7049253
1.7079177
1.7183012
1.735332
1.7492421
1.7613005
1.7730573
1.7906975
1.817206
1.8464198
10.279795
5.5136099
2.5060517
1.7673753
1.6841613
1.6841143
1.6869028
1.6805662
1.6758419
1.6789226
1.6948075
1.709399
1.7112381
1.7093657
1.7110837
1.7243255
1.7434144
1.7560308
1.7660971
1.7803499
1.8048095
1.8355303
1.8575491
9.389759
5.1357101
2.4000075
1.7573325
1.6886324
1.6882234
1.6896382
1.6845939
1.6822031
1.6875541
1.7017996
1.712932
1.7156338
1.7172808
1.7223757
1.7369485
1.7564234
1.770703
1.7800941
1.7952033
1.8203034
1.8462134
1.8694409
8.579721
4.8535043
2.3313508
1.7507805
1.6918742
1.6913906
1.6916726
1.6882965
1.6872748
1.692408
1.7046442
1.7158172
1.7207797
1.725336
1.7317472
1.7472618
1.7676846
1.7824469
1.7901963
1.8040037
1.8296478
1.861935
1.9001441
7.7985417
4.3572776
2.1952591
1.7348687
1.6924829
1.6932534
1.6928527
1.6902943
1.6901231
1.6971828
1.7097751
1.7208267
1.7281926
1.7348286
1.7440104
1.7610381
1.7816158
1.7960262
1.8052214
1.8231941
1.8544796
1.8929552
1.9327818
7.0699559
4.0943626
2.1231066
1.7223941
1.6874785
1.6899599
1.6915891
1.691427
1.6925398
1.700632
1.7148378
1.725626
1.7318993
1.7388027
1.7520411
1.7698742
1.7873322
1.8009891
1.8139551
1.8355826
1.8698354
1.9138329
1.9733677
6.3976826
3.5491967
1.967146
1.697482
1.6800139
1.6847457
1.6873768
1.690481
1.6967358
1.7077586
1.7188335
1.7274801
1.737198
1.7468282
1.7597257
1.7805007
1.8004087
1.8163881
1.8388439
1.8726108
1.9144798
1.9622017
2.0141071
6.0866648
3.4076162
1.9444363
1.689532
1.6720743
1.6778162
1.6816837
1.6847395
1.6901135
1.7018305
1.7149991
1.7244824
1.7326032
1.742354
1.7560869
1.7769712
1.798138
1.8147416
1.8360683
1.8677415
1.9067238
1.9472182
1.9918465
6.059329
3.2689872
1.9335449
1.6865449
1.6632553
1.6674535
1.6726862
1.6770534
1.6807266
1.6870319
1.7000054
1.7149104
1.7246353
1.7320474
1.7423873
1.7638879
1.7884332
1.8070791
1.8248739
1.8495844
1.8807788
1.9228719
1.9765597
6.0100026
3.0972706
1.9011994
1.6758067
1.6515849
1.6547112
1.6607715
1.665574
1.6683244
1.6736915
1.683987
1.6980313
1.7105208
1.7205048
1.73058
1.7475907
1.7706343
1.7916105
1.8072376
1.8260728
1.850486
1.8849929
1.9541373
5.957394
2.9345029
1.8653049
1.6626986
1.6368135
1.6382584
1.6461915
1.6545528
1.6582071
1.6622809
1.6691443
1.681644
1.6954024
1.7069687
1.7172834
1.7304784
1.7483794
1.7662662
1.7819289
1.7997453
1.8217235
1.8490278
1.9170171
5.9184376
2.7768043
1.8281299
1.6511707
1.6255117
1.6247223
1.6321706
1.6423403
1.6488512
1.6534348
1.6583309
1.6673413
1.6791774
1.6911288
1.6988427
1.7066641
1.7205391
1.7385041
1.7573683
1.7747878
1.7956927
1.8167207
1.8783482
5.8737405
2.6299783
1.791642
1.6399416
1.6177085
1.6164721
1.6220135
1.630421
1.6369556
1.6421841
1.6464393
1.6516101
1.6593249
1.6708607
1.6786451
1.6832018
1.6927333
1.7115606
1.7333401
1.750036
1.7714238
1.7876348
1.8392497
5.8100736
2.4967777
1.7570735
1.6286372
1.6095225
1.6083342
1.6124795
1.6195967
1.6237149
1.6265372
1.6296673
1.6334781
1.6404258
1.6510836
1.6609557
1.6670383
1.6739554
1.6891787
1.7080226
1.7222923
1.7439983
1.7572211
1.7951347
5.7278907
2.3763807
1.724983
1.6157704
1.5980867
1.5963086
1.6004395
1.6077391
1.6115839
1.6134419
1.6152284
1.6182759
1.6250543
1.6349487
1.6451267
1.653041
1.6603089
1.6711021
1.6857098
1.6962459
1.7152127
1.7249246
1.7531488
5.6617619
2.2779572
1.6995442
1.6051711
1.5878973
1.584585
1.587808
1.5957005
1.6012237
1.60502
1.6075587
1.6102779
1.6154329
1.6234547
1.6316119
1.6384561
1.6443481
1.651455
1.6628743
1.6705811
1.6874569
1.6957597
1.7211818
5.6161716
2.2061471
1.6809676
1.5981658
1.5821442
1.5789871
1.5810922
1.5874684
1.5927648
1.5963668
1.5991438
1.602015
1.6066341
1.6130467
1.6193072
1.6242333
1.6279555
1.632303
1.6414162
1.6478087
1.663345
1.6728918
1.6972985
5.5589964
2.1424498
1.6641203
1.5914359
1.5773983
1.5746732
1.5763787
1.5815943
1.5863115
1.5884851
1.5897395
1.59131
1.5941622
1.598865
1.6038724
1.6088266
1.6133454
1.6182807
1.6265457
1.6325891
1.6463673
1.6552771
1.6764113
5.4891407
2.0929135
1.6486045
1.5829678
1.5710387
1.5679013
1.5690336
1.5733464
1.5775202
1.5793012
1.5802845
1.5814301
1.5829104
1.5857208
1.5900157
1.5956207
1.6016748
1.6074102
1.614999
1.6198775
1.6308445
1.6377654
1.6539532
5.4385689
2.0521324
1.6340259
1.5737733
1.5630383
1.5598251
1.560066
1.5628982
1.5660563
1.5682232
1.5703953
1.5731043
1.5756634
1.5785531
1.5821647
1.5871261
1.5923888
1.596811
1.6021922
1.6046428
1.6122165
1.6182467
1.6331483
5.4140351
2.0156954
1.6194751
1.5644768
1.5550953
1.5530937
1.5537379
1.5560349
1.5582791
1.5603033
1.5624421
1.5653947
1.5683602
1.5709066
1.5733781
1.5766158
1.580187
1.5834698
1.5886938
1.5912993
1.5981293
1.6042272
1.6171078
5.3881535
1.9964652
1.6078643
1.5567761
1.5488153
1.5476999
1.5488814
1.5511156
1.5529203
1.5544134
1.5556158
1.5572802
1.5592588
1.5611079
1.5625371
1.5644952
1.5677336
1.5713498
1.5772811
1.5802379
1.5863043
1.591122
1.6010921
5.3565119
1.9865899
1.5984126
1.5508308
1.5438686
1.5423924
1.5428298
1.5441723
1.5457676
1.5471711
1.5482737
1.5495901
1.5512779
1.5529129
1.5541908
1.5558563
1.5588531
1.561757
1.5667402
1.5690058
1.5738646
1.5779085
1.5869122
5.3451682
1.9625498
1.5873034
1.5453042
1.5398676
1.538263
1.5378973
1.5381811
1.5389652
1.5400113
1.5411922
1.5426652
1.5444538
1.5463599
1.5480446
1.5498564
1.5526383
1.5547348
1.5584965
1.5601107
1.5640674
1.5674285
1.5748546
5.3486614
1.9342214
1.5757862
1.5393018
1.5358475
1.5352357
1.5351507
1.5353908
1.5358756
1.5365647
1.537574
1.5387597
1.5400864
1.5415784
1.5430989
1.5445863
1.5467112
1.5480067
1.5508015
1.5521012
1.5553384
1.5577299
1.5622862
5.3424375
1.9178289
1.5679119
1.534837
1.5323568
1.5324591
1.532675
1.533016
1.5334517
1.5340657
1.5349529
1.5357591
1.5365074
1.5374484
1.538351
1.5391418
1.540324
1.5409673
1.5431657
1.5445532
1.5479156
1.5500732
1.5529921
5.3430144
1.9113356
1.5627517
1.5319755
1.529914
1.5300782
1.5299635
1.5299117
1.5301488
1.530628
1.5315331
1.5323901
1.5331545
1.5339447
1.5346231
1.5352986
1.5364456
1.53721
1.5392202
1.540304
1.5428533
1.5438785
1.5457859
5.3592731
1.9060958
1.5581101
1.5292481
1.5276931
1.5282448
1.5284339
1.5284926
1.5287054
1.5290471
1.5296312
1.5301358
1.5305269
1.530906
1.5313272
1.5318733
1.5329625
1.5339701
1.5358507
1.5364432
1.5379723
1.538158
1.5398702
5.3810269
1.8932014
1.553833
1.5275478
1.526355
1.5269866
1.5273062
1.5273677
1.5273243
1.5273782
1.5276368
1.5280006
1.5284823
1.5291055
1.5296744
1.5301549
1.5308832
1.5316905
1.5332756
1.5338993
1.5352937
1.5357401
1.5378201
5.4013601
1.8604367
1.5496441
1.5261865
1.525164
1.5257648
1.5262496
1.5265435
1.5266983
1.5268918
1.5272194
1.5275837
1.528055
1.5287137
1.529258
1.5295546
1.5298772
1.5302687
1.5311884
1.5315378
1.5325913
1.5330314
1.5357685
5.4212024
1.8362055
1.5470472
1.5255999
1.5246843
1.5252373
1.5257876
1.5262768
1.5266012
1.5267985
1.5269064
1.5268907
1.5269053
1.5271077
1.5274308
1.5278919
1.528461
1.5290424
1.5298293
1.5301474
1.5309702
1.5315924
1.5351475
5.4423901
1.8189249
1.5455511
1.5254114
1.5245313
1.5249519
1.5254002
1.5258192
1.5261416
1.5263611
1.5265421
1.5266401
1.5266902
1.5268244
1.5270247
1.5272487
1.5275766
1.5279056
1.5284723
1.5288951
1.529851
1.5309409
1.5340091
5.466134
1.7992394
1.5440811
1.5254336
1.5247587
1.5252364
1.5257087
1.5260718
1.5262521
1.5262537
1.5262417
1.5262694
1.5263851
1.5265002
1.5266311
1.5266953
1.5267964
1.5269509
1.5274152
1.5278328
1.5287251
1.5298784
1.5305861
5.4875485
1.786818
1.5430262
1.5252525
1.5245063
1.5248503
1.5252957
1.5256973
1.5259921
1.5261334
1.5261505
1.5261273
1.5261478
1.5262141
1.5263275
1.5263649
1.5264756
1.5266447
1.5270825
1.5274345
1.528166
1.5293532
1.5295811
5.5114111
1.7781911
1.5421404
1.5250764
1.5243592
1.5246592
1.5251441
1.5256325
1.5260432
1.526306
1.52643
1.5264316
1.5264081
1.526391
1.5264466
1.5264746
1.5266142
1.5267763
1.5271237
1.5273556
1.5279601
1.5291573
1.5295292
5.5347463
1.7663828
1.5414872
1.5253162
1.5246663
1.5248667
1.5251887
1.5255125
1.5258082
1.5260348
1.5262086
1.5263048
1.5263683
1.5264035
1.5264841
1.5265056
1.5265817
1.5266385
1.5268229
1.5269523
1.5274854
1.5286869
1.5292466
5.558321
1.7575543
1.5409056
1.5253408
1.5247077
1.5248698
1.5251266
1.5253756
1.525614
1.5257907
1.5259374
1.5260723
1.5261996
1.5263039
1.5264466
1.5265215
1.5265888
1.5266189
1.5267314
1.5268506
1.5273586
1.5284159
1.5290935
5.5810641
1.7552732
1.5408224
1.5253255
1.5246289
1.5247377
1.5249674
1.5252526
1.5255833
1.5258728
1.5261143
1.5262698
1.5263421
1.5263218
1.526333
1.5263594
1.5264544
1.5265462
1.5266645
1.5267582
1.5271195
1.5278537
1.52878
5.6061998
1.7559838
1.5410957
1.5255309
1.5247743
1.5247968
1.5248843
1.5249801
1.525127
1.525315
1.5255836
1.525851
1.5260885
1.526219
1.5262696
1.5263033
1.526386
1.5264652
1.5265939
1.5267359
1.5270883
1.5276135
1.5284032
5.634948
1.7580187
1.5410572
1.5253663
1.5246572
1.5247422
1.5248956
1.5250287
1.5251719
1.525314
1.5255074
1.525697
1.5258832
1.5259969
1.5260653
1.5260793
1.5261018
1.5261269
1.5262081
1.5263479
1.5266985
1.5271431
1.5280209
5.6598915
1.7593537
1.5414512
1.5254542
1.524608
1.5245825
1.5246616
1.5247821
1.5249432
1.5250759
1.5252034
1.52531
1.525439
1.5255661
1.5257267
1.5258689
1.525981
1.5260388
1.5260867
1.5261466
1.5264056
1.5267794
1.5277434
5.6896962
1.7605955
1.541574
1.5254793
1.524679
1.5246716
1.5247092
1.5247437
1.5248193
1.5248964
1.5250021
1.525102
1.5251986
1.5252688
1.5253799
1.5254903
1.5256315
1.5257558
1.5258483
1.5258793
1.5260364
1.5262783
1.5272785
5.7167667
1.7609983
1.5416401
1.5253007
1.5244013
1.5243752
1.5244482
1.5245225
1.5246048
1.5246816
1.5247838
1.5249099
1.5250456
1.5251584
1.5252497
1.5252825
1.5253001
1.5253433
1.5254157
1.5254932
1.525708
1.5260547
1.5275419
5.7461291
1.7626219
1.5419181
1.5254329
1.5244987
1.5244306
1.5244585
1.5245116
1.5245999
1.5246711
1.5247184
1.5247322
1.5247616
1.5248376
1.5249531
1.525077
1.5251905
1.5252815
1.5253669
1.5254543
1.5256476
1.5259612
1.5273615
5.7756341
1.7637304
1.5421743
1.5254824
1.5245534
1.5245008
1.5245108
1.5245033
1.5245131
1.5245341
1.524578
1.5246237
1.5246593
1.5246885
1.5247152
1.5247545
1.524815
1.5248908
1.525011
1.5251563
1.5253418
1.525601
1.5270761
5.805435
1.764563
1.5424676
1.5254652
1.5244452
1.5243483
1.5243377
1.5243422
1.5243703
1.52439
1.5244229
1.5244704
1.5245293
1.5245778
1.5246055
1.5246298
1.5246799
1.5247313
1.5248014
1.524894
1.5250244
1.5252075
1.5266342
5.8376218
1.7667603
1.5427865
1.5255414
1.5245013
1.5243906
1.5243577
1.5243392
1.5243562
1.52438
1.5244044
1.5243917
1.5243797
1.5243737
1.5243789
1.5244015
1.524454
1.5245019
1.5245325
1.5245712
1.5246624
1.5249074
1.526664
5.8691769
1.7695562
1.5431886
1.5256247
1.524584
1.5245059
1.5244896
1.5244312
1.5243766
1.5243273
1.5242986
1.5243057
1.5243496
1.5243908
1.5244333
1.5244537
1.5244519
1.5244381
1.5244108
1.5244136
1.5244765
1.5246468
1.5261687
5.9013889
1.7739904
1.5436797
1.52567
1.5245407
1.524421
1.5243892
1.5243352
1.5242877
1.5242492
1.5242298
1.5242224
1.5242463
1.5242615
1.5242774
1.524279
1.5242463
1.524238
1.5242391
1.524269
1.5243174
1.5244516
1.5260691
5.9374875
1.7787418
1.543984
1.525478
1.5243155
1.5242249
1.5242499
1.5242766
1.5243212
1.5243524
1.5243503
1.5242974
1.5242346
1.5241529
1.5240711
1.524035
1.5240263
1.5240756
1.5241441
1.5242193
1.5242496
1.524304
1.5255988
5.9714788
1.7835676
1.5447441
1.5256602
1.5244384
1.5242955
1.5242513
1.5242226
1.5242111
1.5241807
1.5241607
1.5241238
1.5240944
1.5240513
1.5240095
1.5239968
1.5239931
1.5239997
1.5240048
1.5240158
1.5240059
1.5240791
1.5253858
6.0076913
1.7889436
1.5454638
1.5258451
1.524598
1.5244675
1.5244093
1.5243299
1.5242797
1.5242163
1.5241648
1.5241192
1.5240823
1.5240459
1.5240077
1.5239862
1.5239749
1.523936
1.5238927
1.5238944
1.5238727
1.5239678
1.5252996
6.0436981
1.7923638
1.5460783
1.5259602
1.5246418
1.5245122
1.5244762
1.5243949
1.5243497
1.5243156
1.5242641
1.5242176
1.5242009
1.5241575
1.5241152
1.5240767
1.5240352
1.5239811
1.5239009
1.5238741
1.5238285
1.5238869
1.5251009
6.0818211
1.7942685
1.5465534
1.5260501
1.5247118
1.5245826
1.5245733
1.5245283
1.5244851
1.5244442
1.5243729
1.5242968
1.5242401
1.5241679
1.5241329
1.5240975
1.5240567
1.524038
1.5239788
1.5239654
1.5239138
1.523959
1.5249341
6.1218382
1.795866
1.546956
1.5260717
1.5246766
1.5245189
1.5244842
1.5244384
1.5244107
1.5243868
1.5243464
1.5242803
1.5242043
1.5241355
1.5241008
1.5240347
1.5239612
1.5239209
1.5238922
1.5239063
1.5238646
1.523893
1.5248373
6.1639952
1.7998393
1.547531
1.5260618
1.5246303
1.5244868
1.5244463
1.5244025
1.5243687
1.524329
1.5243353
1.524322
1.5242538
1.5242007
1.5241509
1.5240823
1.5239939
1.523896
1.5238442
1.5238157
1.5237793
1.5237938
1.5246209
6.2055728
1.8031153
1.5482368
1.5261831
1.5247061
1.524569
1.5245345
1.5244964
1.5244376
1.5243519
1.5243142
1.5242825
1.5242252
1.5241808
1.5241115
1.5240672
1.524056
1.5239901
1.5239456
1.5239007
1.5238727
1.5238736
1.5245356
6.2494143
1.808271
1.5489569
1.5262409
1.5246769
1.5244943
1.5244757
1.5244471
1.5243855
1.5243324
1.5242996
1.5242419
1.5241964
1.5241544
1.5240721
1.5240256
1.5240026
1.5239478
1.5238905
1.5238345
1.5237875
1.5237584
1.5242919
6.2950739
1.8154915
1.5498147
1.5262956
1.5246593
1.5244632
1.5244413
1.5244203
1.5243832
1.5243506
1.5242987
1.5242326
1.5242165
1.5241785
1.5240919
1.5240314
1.5239628
1.5239137
1.5238583
1.5237797
1.5237193
1.5236951
1.5242017
6.3417146
1.8216333
1.5506985
1.5264137
1.5247213
1.5245299
1.5245045
1.5244774
1.5244306
1.5243876
1.5243358
1.5242692
1.5242435
1.5241899
1.5241223
1.5240772
1.5239926
1.5239477
1.523906
1.5238239
1.5237745
1.5237371
1.5240814
6.3898481
1.8269632
1.551573
1.5265223
1.5247739
1.5245929
1.5245682
1.5245261
1.5244702
1.5244267
1.5243849
1.5243388
1.5243038
1.5242202
1.5241588
1.5241148
1.5240353
1.52401
1.5239452
1.5238628
1.5238135
1.5237782
1.5240597
6.4407561
1.8308478
1.5523241
1.5265453
1.5247038
1.5245051
1.5244764
1.5244492
1.5244155
1.5243662
1.5243273
1.5243107
1.524269
1.5241921
1.5241691
1.5241268
1.5240492
1.5240207
1.5239447
1.5238792
1.5238477
1.523784
1.5239489
6.4939655
1.8350836
1.5530718
1.526505
1.5246065
1.524439
1.5244093
1.5243596
1.5243474
1.52433
1.5242728
1.5242344
1.5241975
1.5241391
1.5241247
1.5240686
1.5239714
1.5239312
1.5238775
1.5238294
1.5237708
1.523683
1.5237899
6.5476307
1.8397735
1.5539879
1.5265772
1.5246013
1.5244325
1.5243966
1.5243307
1.5243002
1.524293
1.5242444
1.5241901
1.5241534
1.5240969
1.5240785
1.5240202
1.5239168
1.5238818
1.5238327
1.5237886
1.5237354
1.5236537
1.5236988
6.6039266
1.8450231
1.5549311
1.5266358
1.5245784
1.5243857
1.5243365
1.5242843
1.5242702
1.5242685
1.524234
1.5241934
1.5241654
1.524101
1.5240726
1.5240426
1.5239643
1.5239373
1.5238708
1.5238099
1.5237735
1.5237421
1.5238395
6.6615048
1.8502428
1.5559117
1.5267121
1.5245849
1.5243581
1.5242933
1.5242631
1.5242598
1.5242421
1.5241991
1.5241738
1.5241644
1.5241094
1.5240667
1.5240414
1.5240011
1.5239863
1.5238991
1.5238217
1.523807
1.5237997
1.5238
6.7214775
1.8547483
1.5569022
1.5267699
1.5245528
1.5243071
1.524234
1.5242239
1.524243
1.5242095
1.5241477
1.5241161
1.5240981
1.5240526
1.5240048
1.5239672
1.5239285
1.5239003
1.5238234
1.5237729
1.5237756
1.5237851
1.5237663
6.7837512
1.8592243
1.5578899
1.5267926
1.5244766
1.5242337
1.5241724
1.5241636
1.5241842
1.5241531
1.5240992
1.5240942
1.5240819
1.5240251
1.523998
1.5239655
1.5239221
1.5238803
1.5237997
1.5237741
1.5237649
1.5237482
1.5237737
6.8472604
1.8650385
1.559059
1.5269063
1.5244616
1.5241988
1.5241514
1.5241376
1.5241204
1.5240788
1.5240349
1.5240244
1.5240278
1.5239577
1.5239159
1.5239037
1.5238569
1.5238249
1.5237449