/*--------------------------------*- C++ -*----------------------------------*\
| =========                 |                                                 |
| \\      /  F ield         | OpenFOAM: The Open Source CFD Toolbox           |
|  \\    /   O peration     | Version:  2406                                  |
|   \\  /    A nd           | Website:  www.openfoam.com                      |
|    \\/     M anipulation  |                                                 |
\*---------------------------------------------------------------------------*/
FoamFile
{
    version     2.0;
    format      ascii;
    arch        "LSB;label=32;scalar=64";
    class       volScalarField;
    location    "5";
    object      p;
}
// * * * * * * * * * * * * * * * * * * * * * * * * * * * * * * * * * * * * * //

dimensions      [1 -1 -2 0 0 0 0];

internalField   nonuniform List<scalar> 
20580
(
0.9983715
1.0016526
1.0016712
0.99817777
0.99477469
0.99120806
0.98613894
0.98190482
0.97999542
0.979105
0.97850468
0.98004603
0.9844506
0.98831813
0.99279979
1.0007766
1.0060197
1.0097041
1.0096079
1.0100268
1.0073202
1.0056375
1.006281
1.0068076
1.0070942
1.0052268
1.0056092
1.0055763
1.0085072
1.0084754
1.0133737
0.99811126
1.0011542
1.0015005
0.9982186
0.99511629
0.9912207
0.98585492
0.98184543
0.9795179
0.97914207
0.97842709
0.97897577
0.9837506
0.98842096
0.991572
0.99836752
1.005148
1.0102028
1.010163
1.0108674
1.0082688
1.0072057
1.0075562
1.0073812
1.0083299
1.0052349
1.006592
1.007416
1.0115042
1.0089277
1.0094629
0.99887506
1.0007412
1.0008271
0.99829835
0.99553827
0.99111765
0.98571513
0.98214291
0.97916219
0.97865554
0.97844751
0.97848231
0.98278415
0.98815608
0.99148407
0.99659653
1.0038585
1.0101784
1.0105161
1.0108978
1.008618
1.0087113
1.0099823
1.0082159
1.0086868
1.0049007
1.00727
1.0094864
1.0114907
1.0102105
1.0065329
1.0003706
1.0010254
1.0001842
0.99839219
0.99574646
0.99113748
0.98596178
0.98241311
0.97916835
0.97779518
0.97811915
0.97849833
0.98157544
0.98664403
0.9913702
0.99620126
1.0026969
1.0092132
1.0108558
1.0105894
1.0085179
1.0092538
1.0124382
1.0098717
1.0093152
1.0059943
1.0083888
1.0133983
1.0115238
1.010085
1.0081411
1.0020663
1.002047
1.0001167
0.99855991
0.99555507
0.99126912
0.98670051
0.98258772
0.97928168
0.9770596
0.9771975
0.9789376
0.98025918
0.98427027
0.99041117
0.99606789
1.0015221
1.0079913
1.0112425
1.0107947
1.0097071
1.0100312
1.0134762
1.010984
1.0110455
1.0101097
1.0100899
1.0165469
1.0146389
1.0105895
1.0091918
1.0032823
1.0030942
1.0006831
0.99897231
0.99517268
0.99135723
0.98768127
0.98275729
0.97926288
0.97645372
0.97620248
0.97859292
0.97949185
0.98232541
0.98779243
0.99484771
1.0011842
1.0070753
1.0111621
1.0112687
1.0121099
1.0116371
1.0142819
1.0119936
1.0122521
1.0148897
1.0123787
1.0146032
1.0148549
1.01249
1.0107878
1.0034323
1.0032774
1.0013901
0.99948164
0.99511063
0.99148848
0.98824927
0.98285385
0.97918605
0.97615437
0.97563807
0.97759471
0.97900744
0.98134043
0.98542432
0.99299866
1.0006993
1.0062453
1.0109748
1.0115693
1.0140041
1.0139755
1.0156189
1.0131592
1.0116149
1.0169938
1.0154006
1.0124415
1.0117592
1.0134069
1.0141076
1.002449
1.0023313
1.0016577
0.99976316
0.99562415
0.99185953
0.98787942
0.9826417
0.97915144
0.97651401
0.97544768
0.97649353
0.97849792
0.98161702
0.98442038
0.99141125
0.99938695
1.0055835
1.0107705
1.0111292
1.0151995
1.0154759
1.01663
1.0150038
1.0120208
1.0171379
1.0180862
1.0137147
1.0104913
1.0148957
1.018769
1.00096
1.0008447
1.0013657
0.99955428
0.99633609
0.99234018
0.98694398
0.98234132
0.9789097
0.97698715
0.97589612
0.97540844
0.97802403
0.98195343
0.98466011
0.99052577
0.99788605
1.0041187
1.0100115
1.0109628
1.0156866
1.0164488
1.0175786
1.0171885
1.0149441
1.0182145
1.0199629
1.0162393
1.0124551
1.0167699
1.0228716
0.99979438
0.9998357
1.0008976
0.99885748
0.99660337
0.99258131
0.98634301
0.98226015
0.97857246
0.97701221
0.9763766
0.97506879
0.97758587
0.98168051
0.98480423
0.98965864
0.99581801
1.0021657
1.0087
1.0107028
1.0160912
1.0176395
1.0180469
1.0179805
1.0181841
1.0195915
1.0212486
1.0183323
1.016558
1.0182029
1.0222089
0.99938349
0.99998964
1.0005966
0.99818868
0.99617321
0.9925048
0.98655555
0.98243288
0.97846126
0.97679283
0.97607463
0.97540568
0.97700203
0.98062848
0.98403997
0.98828116
0.99428561
1.0006253
1.0071314
1.0111391
1.0171162
1.0192054
1.0177227
1.0180983
1.0210069
1.0207166
1.021521
1.0209259
1.0219851
1.0216697
1.0207288
0.99961614
1.0012182
1.0006174
0.99818744
0.99553427
0.99226577
0.98735359
0.98302545
0.97852493
0.97646059
0.97521104
0.97529106
0.97640684
0.97885131
0.98271869
0.98705246
0.99359925
0.99971994
1.0066988
1.0112748
1.0172557
1.0206122
1.0172378
1.0192151
1.0251502
1.0231208
1.0211359
1.0224413
1.0267168
1.02645
1.0231973
1.0002137
1.0026901
1.0009608
0.99894833
0.99549445
0.99212318
0.98806028
0.98360537
0.97892757
0.97575173
0.97433015
0.97496661
0.97557581
0.97757624
0.9809866
0.98605526
0.99309427
0.99964459
1.0056741
1.0106492
1.0171523
1.0220967
1.0182553
1.0205907
1.0289454
1.0275838
1.0221362
1.0223858
1.0286167
1.0291862
1.0248753
1.0008576
1.0034506
1.0014338
0.99995009
0.99634681
0.99224204
0.98828894
0.98346454
0.97942414
0.97507469
0.97389643
0.97504056
0.97532732
0.97697395
0.98037372
0.98508643
0.99261981
0.99848218
1.003753
1.010394
1.0167333
1.0219228
1.0202224
1.0222106
1.0292747
1.0310344
1.02498
1.0235466
1.0275535
1.0285918
1.0245528
1.0012403
1.0030563
1.0017278
1.0004479
0.99744146
0.99251333
0.98828972
0.98303819
0.97937711
0.97518185
0.97409094
0.97513451
0.97540883
0.9770242
0.98054381
0.98459595
0.99101778
0.99655573
1.0021245
1.00979
1.015653
1.0202457
1.0222951
1.0255784
1.0273494
1.0296087
1.027438
1.0275631
1.0274931
1.0275217
1.0263229
1.0013812
1.0018536
1.0016516
1.0000647
0.99777905
0.99277057
0.98839658
0.98302229
0.97913426
0.9757352
0.97483234
0.97467645
0.97507085
0.9774401
0.98067112
0.98423153
0.98932227
0.99494899
1.0001851
1.0095777
1.0153631
1.0189559
1.0234918
1.0286591
1.0272929
1.0263446
1.0286829
1.0316625
1.0293308
1.0275032
1.0281134
1.0015676
1.0006794
1.0012171
0.99920866
0.99703067
0.99298532
0.98869041
0.9835132
0.97910501
0.9762963
0.97534958
0.97365992
0.97477722
0.9771166
0.9802896
0.98335525
0.98833467
0.99341556
0.99852302
1.0102168
1.0149847
1.0175493
1.02438
1.0301109
1.0297379
1.0265489
1.0311185
1.0347833
1.0316034
1.0275429
1.0270925
1.001586
1.0003662
1.0007124
0.99865976
0.99604663
0.99326631
0.98888445
0.98410098
0.97908243
0.97671525
0.97493656
0.97284591
0.97442454
0.97633253
0.97874813
0.98217366
0.98761164
0.99264383
0.99739944
1.0098947
1.013903
1.015668
1.0260444
1.0317353
1.0306004
1.0283621
1.0337549
1.0378731
1.0348091
1.0291521
1.0264615
1.0012898
1.0009386
1.0005532
0.99897959
0.99566815
0.99360682
0.98861754
0.98423025
0.97896062
0.97654937
0.97424388
0.97270583
0.97398528
0.97570283
0.97749997
0.98145723
0.98740348
0.99287183
0.99703186
1.0078597
1.012487
1.0143515
1.0258431
1.0328532
1.0302009
1.0289219
1.0340391
1.0388425
1.0372246
1.0328218
1.0285809
1.0008793
1.0018703
1.0007428
0.99984748
0.99619152
0.99374401
0.98813626
0.98386139
0.97899002
0.9761223
0.97374053
0.97297342
0.9740473
0.9751815
0.97765506
0.98193596
0.98675122
0.99263864
0.9973209
1.0050902
1.0107283
1.0151251
1.0230474
1.0317769
1.0314974
1.0305309
1.0343524
1.0369097
1.0370703
1.0354801
1.0319746
1.0005322
1.0021868
1.0011617
1.0003055
0.99715045
0.99362022
0.98814751
0.98362953
0.9792732
0.97601116
0.97347996
0.97368561
0.97434354
0.97490287
0.97812524
0.98243169
0.98562592
0.99118802
0.9974393
1.0024271
1.0090792
1.017607
1.0214068
1.028394
1.0322253
1.0347583
1.0368506
1.0353622
1.0354341
1.0358795
1.0343434
1.0005735
1.0018823
1.0015477
0.99998985
0.99775573
0.99334994
0.98904322
0.9841077
0.97994889
0.97621832
0.97377237
0.97444328
0.97426217
0.974683
0.97770972
0.98182457
0.9847503
0.98890028
0.99718299
0.99998102
1.0074949
1.0188185
1.0228908
1.0247582
1.0302968
1.0382492
1.0391157
1.0354795
1.0327741
1.0343251
1.0349746
1.0008783
1.0014575
1.0015532
0.99936158
0.99776795
0.99342129
0.99019118
0.98484838
0.98087809
0.97663527
0.97444016
0.97432804
0.97401177
0.97440427
0.97667638
0.9809297
0.98334441
0.98665435
0.99720617
0.99923396
1.005803
1.0176441
1.025373
1.0228328
1.028809
1.038562
1.0399826
1.0368655
1.0318927
1.0320209
1.0341228
1.0340383
1.0339584
1.0326983
1.0290636
1.0259285
1.0275537
1.0307672
1.0272622
1.0198357
1.0181476
1.0209579
1.0201737
1.0194787
1.0244299
1.0262014
1.020492
1.015534
1.0147609
1.0144277
1.0107297
1.0057414
1.0071374
1.0046037
1.0271902
1.027798
1.0281894
1.0281048
1.029245
1.0312656
1.0302595
1.0247881
1.0207655
1.0219022
1.0227114
1.0189536
1.0158054
1.0179689
1.0192245
1.0167387
1.015527
1.0167867
1.0188601
1.0169595
1.0125414
1.0122973
1.0064199
1.0251913
1.025247
1.0247144
1.0238538
1.0229878
1.0221702
1.0211069
1.0214352
1.0244699
1.027288
1.0261476
1.0218623
1.0188651
1.0181436
1.0164032
1.0145904
1.0141957
1.0134454
1.0144393
1.0137543
1.012413
1.0147377
1.0132185
1.0253156
1.024266
1.0227185
1.0193768
1.0155456
1.0139733
1.016016
1.0200562
1.0229005
1.022516
1.0204606
1.0196955
1.0210369
1.0219738
1.020829
1.0191819
1.0168197
1.0137807
1.0118334
1.0083392
1.0067264
1.0095349
1.0123566
1.0182725
1.0183529
1.0178633
1.0163958
1.0161819
1.0185469
1.0210136
1.0210461
1.0181027
1.014204
1.0118904
1.0129376
1.016517
1.0193095
1.0203288
1.0203284
1.0193959
1.0181187
1.0158362
1.0115354
1.0090281
1.0098456
1.0100921
1.0117303
1.0119804
1.0124958
1.0138593
1.0164417
1.0192952
1.0204512
1.0188939
1.0155448
1.0120785
1.0108877
1.0121501
1.0135586
1.0134911
1.0127009
1.0128389
1.0142957
1.0167486
1.0174673
1.016446
1.0164344
1.0172978
1.0149376
1.0121438
1.0123713
1.0117324
1.0108836
1.0103913
1.0103068
1.0104689
1.0107706
1.0114156
1.0127702
1.0149624
1.0162134
1.0148994
1.011569
1.0083468
1.0070103
1.0080713
1.0106672
1.0126404
1.0144015
1.0173613
1.0204092
1.019164
1.0145073
1.0133835
1.0115129
1.0090375
1.0063536
1.0043324
1.0034842
1.0042498
1.0067777
1.0101925
1.0128726
1.0135401
1.0123089
1.0106733
1.0099825
1.0100479
1.0102973
1.0100563
1.0090921
1.008596
1.0102577
1.0133037
1.0145779
1.0088568
1.0085051
1.008652
1.0085602
1.0078411
1.0068495
1.0057557
1.0049801
1.0045896
1.0044005
1.0042429
1.0044893
1.0055512
1.0072912
1.009868
1.0124267
1.0143892
1.0145778
1.0126253
1.0095195
1.0067107
1.0046507
1.0036483
0.99979831
1.0009547
1.0034079
1.0065017
1.009146
1.0105533
1.0099621
1.0077003
1.0044206
1.001358
0.99946675
0.99912069
1.0004385
1.0029991
1.0061307
1.009324
1.0119986
1.0135657
1.0138551
1.0121323
1.0088767
1.0048022
1.0015923
0.99725918
0.99869049
1.0008137
1.0029557
1.0048554
1.0060404
1.0063016
1.0054765
1.0038551
1.0023956
1.0017411
1.0019646
1.0028897
1.0036798
1.003714
1.0033272
1.0035233
1.0047627
1.0069763
1.008683
1.0087088
1.0072347
1.0057192
1.0010468
1.0006905
0.99965107
0.99874728
0.99793722
0.99791161
0.99857308
0.99959584
1.0011029
1.0029845
1.0048993
1.0064665
1.0072839
1.0069529
1.0050423
1.0019923
0.99902431
0.99750909
0.99785756
0.99984685
1.0025639
1.0053036
1.0076804
1.0016514
1.0006541
0.99871605
0.99649698
0.99463255
0.9938717
0.99446134
0.99619214
0.9985906
1.001137
1.0037279
1.0061389
1.0077872
1.0080066
1.0063962
1.0034178
0.99985436
0.99670844
0.99507227
0.99515769
0.99664574
0.99960072
1.0037902
0.99797152
0.99750962
0.99681047
0.996176
0.99589817
0.99608936
0.99650488
0.99697839
0.99752183
0.99825219
0.9994052
1.0009955
1.002764
1.0041489
1.0046538
1.0037992
1.0018071
0.99947255
0.99754803
0.99631987
0.99611131
0.99704084
0.99954699
0.99355932
0.99411197
0.99530973
0.99672797
0.99803415
0.99887069
0.99899032
0.99859625
0.99766117
0.99650883
0.99574018
0.99573667
0.99660004
0.99799594
0.99956483
1.0008041
1.0014506
1.0012884
1.0007971
1.0003495
0.99984392
0.99940611
0.99919564
0.99069689
0.99184201
0.99382443
0.99609533
0.9981315
0.99943369
0.99982316
0.99928893
0.99810838
0.99657886
0.99512499
0.99408362
0.99362236
0.99386871
0.99475917
0.99606801
0.99778379
0.99991178
1.00199
1.0033279
1.0036542
1.0029911
1.0011628
0.98942509
0.99048885
0.99244375
0.99467756
0.99683827
0.99848649
0.99939301
0.99951215
0.9988206
0.997411
0.99573903
0.99418797
0.99292187
0.99201485
0.99169429
0.99216036
0.99374888
0.99675783
1.0004896
1.0038724
1.0057673
1.0056139
1.0031578
0.99012917
0.99085103
0.99215678
0.99368735
0.99524376
0.99659465
0.99776437
0.998434
0.99825723
0.99717514
0.99543499
0.99349486
0.99179163
0.99069493
0.99016202
0.9903446
0.99176375
0.99470131
0.99895648
1.003357
1.0065136
1.0070951
1.0048517
0.99221894
0.99259744
0.99315083
0.99372618
0.99436748
0.99498427
0.99565343
0.99622151
0.99635627
0.99569615
0.99418018
0.99220229
0.99056941
0.98959367
0.9895092
0.99045827
0.99247167
0.99564134
0.99976821
1.0038299
1.0064289
1.006411
1.0039856
0.99447335
0.99423477
0.99391491
0.99362458
0.99338643
0.99337655
0.99376617
0.99447804
0.99516396
0.99509937
0.99409206
0.99247552
0.99092365
0.98961841
0.98936568
0.99016324
0.99232436
0.99565639
0.99966376
1.0032956
1.0054125
1.0048833
1.0015755
0.99488729
0.99480668
0.99445224
0.99388541
0.9932202
0.9928992
0.99327636
0.99424605
0.99519812
0.99550133
0.99488476
0.99363199
0.99206016
0.99064286
0.98984886
0.99014841
0.99170841
0.99464281
0.99851356
1.0019836
1.0038465
1.003297
1.0000496
0.99390804
0.99429612
0.99474915
0.99515973
0.99528237
0.99506842
0.99484799
0.99467756
0.99450569
0.99421653
0.99391272
0.99344365
0.9930048
0.99235238
0.99175181
0.99160808
0.99263965
0.99527281
0.99878317
1.0019557
1.0037053
1.003131
0.99950192
0.99297082
0.99360475
0.99461083
0.99560213
0.99632102
0.99660246
0.99629777
0.99585877
0.99528282
0.99475687
0.99425543
0.99402835
0.99381982
0.99309902
0.99200918
0.99168244
0.99298425
0.9958867
0.99982188
1.0036243
1.0057017
1.0046127
0.9996455
0.99458977
0.99480699
0.99505922
0.99563549
0.99651194
0.99759308
0.99870004
0.9993386
0.99936522
0.9987725
0.99729789
0.9951361
0.99240838
0.98963964
0.98803473
0.98848983
0.9915493
0.99716359
1.0038545
1.0088996
1.0096397
1.0049891
0.99614511
0.99551147
0.99605305
0.99687617
0.99817016
0.99956429
1.0012701
1.0021835
1.0019116
1.0007824
0.99924697
0.99711306
0.99385192
0.98984773
0.98691214
0.9869406
0.99012981
0.99563983
1.0023014
1.0080531
1.0102335
1.0070319
0.99892914
0.98877315
0.99618821
0.99730145
0.99909283
1.0012436
1.0031009
1.0038361
1.0033769
1.0020721
1.0003817
0.99844983
0.99624285
0.99410211
0.99228778
0.99120993
0.99183741
0.99522574
1.000127
1.0044054
1.0066824
1.005275
0.99961831
0.99207507
0.98582856
0.99680919
0.99789711
1.000147
1.0030694
1.0059
1.0073302
1.0069594
1.0043597
1.0005783
0.99702357
0.99489939
0.99444827
0.99543817
0.99702984
0.99864577
1.0004193
1.0019773
1.0021471
1.0002406
0.99732686
0.99446498
0.99190597
0.98950353
0.99949383
1.0005889
1.0032552
1.0066564
1.0095433
1.010765
1.0088901
1.0039542
0.99844376
0.99474313
0.99412344
0.99667836
1.0005007
1.0036526
1.0046374
1.0025878
0.99889673
0.99572756
0.99385555
0.99381508
0.99533297
0.99574691
0.99414551
1.0095258
1.0084794
1.0076025
1.007009
1.0066309
1.0060143
1.0050493
1.0034151
1.0019575
1.0018842
1.0030352
1.0041929
1.0053089
1.0057475
1.004127
0.99969967
0.99383059
0.9903606
0.99038659
0.99267311
0.99702618
1.0016266
1.0020717
1.0195617
1.0147275
1.008512
1.0036537
1.0014095
1.001854
1.0045833
1.0079229
1.0109662
1.0131291
1.013288
1.0105319
1.0056612
1.0012785
0.99945679
0.99764083
0.99277677
0.98795896
0.98844287
0.99497126
1.0033582
1.0082606
1.0046693
1.0157003
1.014992
1.0117978
1.0082279
1.0067952
1.0078275
1.0101914
1.0126534
1.0144754
1.0147557
1.0122028
1.0078913
1.0039957
1.0006064
0.99736955
0.99609043
0.99627742
0.996001
0.9958787
0.99952912
1.005379
1.0075535
1.000677
1.0115136
1.0131275
1.0161418
1.0180019
1.0172343
1.0152996
1.0147033
1.0145383
1.0124636
1.009422
1.0080088
1.0071766
1.0050098
1.0030428
1.0036215
1.0046749
1.002963
1.0002046
0.99859425
0.99838176
0.99885161
0.99790386
0.99475477
1.0151458
1.0145778
1.0152728
1.017306
1.0198195
1.0205615
1.0175762
1.012387
1.0076878
1.0053978
1.0062878
1.0101653
1.0128012
1.0112617
1.0090349
1.0082156
1.0059841
1.0005385
0.99539936
0.99158455
0.98983896
0.99126818
0.9969632
1.0165531
1.015465
1.0136764
1.0122591
1.011819
1.0124871
1.0140473
1.0136884
1.0092208
1.0046996
1.0070247
1.0129896
1.014468
1.0116142
1.0103812
1.0096778
1.0050123
0.99775669
0.99417542
0.99194054
0.98974391
0.99409802
1.0039705
1.0060813
1.0069629
1.0063905
1.0052911
1.0042726
1.0041062
1.0064388
1.0112582
1.0159366
1.0148919
1.0080311
1.0065076
1.0129541
1.0132186
1.0042414
1.0004986
1.0030793
1.0027631
1.0005398
0.99929005
0.99941684
0.99875959
0.99907338
0.98951677
0.99387102
0.9975196
0.99993378
1.0016234
1.0030039
1.004407
1.0057168
1.0075029
1.011061
1.0122368
1.0068783
1.0015654
1.0025797
1.0048337
1.0049304
1.0042227
1.0052914
1.0090319
1.0098234
1.004231
0.99471636
0.98710739
0.9784207
0.98278062
0.98985992
0.99554998
0.99830287
0.99828886
0.99753218
0.99842949
1.0001373
1.000516
1.0007287
1.0016895
1.0010307
0.99840499
0.99734843
1.0016995
1.0079729
1.0100965
1.0084898
1.0070985
1.0044394
0.99794462
0.99000573
0.97952887
0.97831604
0.9790235
0.98282247
0.98798717
0.99099777
0.99049257
0.98750947
0.98631212
0.98845614
0.99084507
0.99194127
0.99443069
0.99893986
1.0005312
0.99949674
1.0019604
1.0065345
1.0055339
0.99896514
0.9932589
0.9910431
0.99088722
0.97623226
0.97565615
0.97324871
0.97057102
0.97002644
0.97326457
0.97802517
0.98129734
0.98092546
0.98040004
0.98324166
0.98781126
0.99033474
0.99241887
0.99703399
0.99938603
0.99646186
0.99315921
0.99059299
0.98650931
0.98349281
0.98567038
0.99135379
0.96442877
0.96666355
0.96711437
0.96565125
0.96330317
0.9626603
0.96563452
0.97233718
0.97873403
0.98189772
0.98302511
0.98412059
0.98549564
0.98445404
0.98226042
0.98259195
0.98396789
0.98296742
0.98148466
0.98046632
0.98039257
0.98408757
0.99116245
0.95512063
0.95793059
0.9615123
0.96435521
0.96589309
0.96556757
0.96518074
0.9666227
0.97126878
0.97641947
0.97770424
0.97576664
0.97342404
0.97256664
0.97032233
0.96717795
0.96758074
0.97207916
0.97762591
0.9826515
0.98578445
0.98688541
0.98865792
0.95521401
0.9555924
0.95832467
0.96231074
0.96605758
0.96798846
0.96711045
0.96469951
0.96193082
0.96047725
0.96085017
0.96135566
0.96168066
0.96240589
0.96533858
0.96770494
0.96831181
0.96975829
0.97322407
0.97792378
0.98174186
0.98177672
0.97866196
0.96088953
0.9586374
0.95628919
0.95538895
0.95621098
0.95856329
0.96073391
0.96037792
0.95764454
0.95385633
0.95155194
0.951911
0.95429568
0.95807072
0.96350245
0.9694212
0.97348544
0.97348584
0.97238085
0.97144228
0.97028135
0.9685843
0.96506691
0.95811512
0.95790761
0.9556515
0.95241085
0.94971663
0.94865366
0.94994764
0.95225235
0.95463965
0.95668633
0.95813801
0.95913078
0.96011026
0.96161128
0.96277935
0.96412717
0.96513663
0.96490713
0.9625475
0.96004626
0.95875865
0.95774621
0.95812273
0.9493046
0.95129085
0.9529914
0.95381288
0.95369328
0.95332924
0.95312449
0.95355057
0.95454484
0.95649653
0.95922438
0.96181069
0.96357102
0.96339927
0.96165172
0.95863193
0.95508873
0.9523789
0.95046058
0.94967989
0.95102009
0.95443153
0.95920927
0.95015595
0.95059035
0.95246599
0.9549687
0.9573096
0.9588497
0.95923671
0.95902919
0.95821237
0.95688563
0.95576014
0.95505205
0.95454208
0.95415581
0.95292906
0.95141766
0.94989157
0.94971484
0.95139313
0.9546326
0.9579671
0.96029524
0.96217904
0.95806187
0.95667433
0.95570158
0.95544958
0.95580356
0.9563701
0.95680871
0.9570158
0.95650965
0.95522088
0.95327705
0.95094898
0.94886119
0.94757201
0.94762325
0.94880504
0.95154239
0.95509036
0.95908834
0.96211387
0.96302969
0.96147811
0.95810736
0.96017687
0.95949119
0.9580918
0.95635399
0.95455592
0.95270864
0.95112176
0.94986668
0.94938384
0.94988952
0.95110706
0.95251813
0.95399991
0.95565947
0.95719665
0.95874872
0.95975956
0.95973688
0.95869034
0.9569369
0.95509217
0.95378656
0.95330254
0.95595228
0.9561767
0.95605351
0.95580453
0.95543302
0.95500076
0.95447075
0.95383445
0.9535693
0.95406273
0.95537469
0.9573704
0.95939988
0.96052017
0.96065746
0.95985255
0.95814397
0.95610485
0.95467107
0.95434979
0.95478708
0.95523003
0.95531719
0.95773447
0.95727482
0.95714956
0.95750478
0.95834875
0.95967565
0.96117689
0.96234492
0.96240488
0.96156499
0.96042693
0.95937793
0.95844706
0.95740834
0.95608019
0.95464522
0.95394415
0.95423336
0.95505901
0.956093
0.95669289
0.95605942
0.95437841
0.965001
0.964261
0.96336686
0.96244211
0.96167183
0.96128108
0.96121529
0.96143266
0.96166168
0.96139296
0.96072184
0.9596856
0.9586317
0.95751782
0.95652556
0.95602357
0.95601694
0.95633811
0.95655924
0.95641056
0.95601447
0.95609303
0.95669003
0.96711976
0.96727516
0.96728279
0.96672031
0.96542417
0.96348899
0.9614554
0.95991433
0.95891252
0.95862998
0.95862128
0.95873486
0.95910271
0.95978156
0.96053317
0.96142319
0.96214172
0.96240417
0.96198336
0.96117121
0.96054638
0.96062918
0.96158699
0.96671575
0.9667027
0.96703739
0.96744057
0.96759015
0.96721584
0.96638346
0.96558779
0.9649242
0.96443165
0.96406627
0.96397507
0.96417079
0.96456835
0.96518016
0.96563449
0.96573405
0.96539471
0.96475335
0.96397388
0.96305078
0.96197095
0.96135144
0.97278255
0.97172367
0.97090226
0.97044832
0.97036097
0.97048181
0.97056854
0.97057367
0.97043688
0.97028071
0.96991126
0.96927706
0.96863401
0.96804228
0.96730662
0.96636811
0.96526273
0.96433998
0.96372634
0.96370949
0.96436782
0.96497703
0.96515236
0.97790539
0.97721915
0.97636322
0.97553604
0.97468757
0.97374965
0.97272481
0.97183739
0.97133671
0.97123659
0.97140126
0.97147725
0.97128071
0.97075648
0.97006469
0.96957484
0.96947565
0.96943647
0.96923288
0.96893743
0.96862234
0.9684321
0.96813023
0.980391
0.97996976
0.97939904
0.97868549
0.97805395
0.97754407
0.97707674
0.97661372
0.97623031
0.97586913
0.9754312
0.97482971
0.9738511
0.97265165
0.97176738
0.97151865
0.97194831
0.97253531
0.97263226
0.97178412
0.97043135
0.96938686
0.96907195
0.98351372
0.98318388
0.98300536
0.98274596
0.98228102
0.98177247
0.98122515
0.98049271
0.97957672
0.97858996
0.97768905
0.97704387
0.97666739
0.97648717
0.97637297
0.97630267
0.97618034
0.97607711
0.97610982
0.97618693
0.97611293
0.97609197
0.97612024
0.98794898
0.9872465
0.98664594
0.98602491
0.98540638
0.98480811
0.98438899
0.98404576
0.98377523
0.98351156
0.98323349
0.98299217
0.98292026
0.98305722
0.98311064
0.98266054
0.98176761
0.98059678
0.9796221
0.97909542
0.97883231
0.97837129
0.97791139
0.99210777
0.99139882
0.99060068
0.98986538
0.98922504
0.98869133
0.98834501
0.98830657
0.98836574
0.98822964
0.98767633
0.98673651
0.98564632
0.98480119
0.98442054
0.98453838
0.98470227
0.98456807
0.98414123
0.98352645
0.98293065
0.98250143
0.98203391
0.99532639
0.99477833
0.99410029
0.99338942
0.99272266
0.9921296
0.99156561
0.99116127
0.99098715
0.99095306
0.99087162
0.99063209
0.99009803
0.98946591
0.98895101
0.98848889
0.98820057
0.98785614
0.98745102
0.98715843
0.98716662
0.98743834
0.98782939
0.99711396
0.99681571
0.99656409
0.99644271
0.99640827
0.99633058
0.99601573
0.9954169
0.99464851
0.99390886
0.99342879
0.99316592
0.99299319
0.99259785
0.99207606
0.99144142
0.9908457
0.9904395
0.99021847
0.99011087
0.99005364
0.98982539
0.98937759
0.99951576
0.9991161
0.99864142
0.99817682
0.9978093
0.99757594
0.99735126
0.99700513
0.9965733
0.99620343
0.99590501
0.99563081
0.99536403
0.99506249
0.99467234
0.99421661
0.99391812
0.99379047
0.9937853
0.99376703
0.99352941
0.99303113
0.99238405
1.000362
1.0001767
0.99984406
0.99948393
0.99921552
0.99910857
0.99918035
0.99928996
0.99928345
0.999156
0.99896604
0.99873448
0.99841541
0.99803993
0.99768694
0.99739881
0.99726528
0.9972784
0.9973338
0.99724846
0.99703527
0.99666478
0.99642816
1.0014841
1.0015312
1.0016185
1.0016323
1.0015239
1.0013242
1.0010882
1.0008768
1.0006103
1.000332
1.0000965
0.99995809
0.99991066
0.99988719
0.99984013
0.99967203
0.99944036
0.99918745
0.99898348
0.99885385
0.99876514
0.99875006
0.99868179
1.0025695
1.0024889
1.0025416
1.0026143
1.0026126
1.0025119
1.0023513
1.0021495
1.001894
1.0015611
1.0012113
1.0009597
1.0009198
1.0010416
1.0012182
1.0012933
1.0011742
1.0009256
1.0007032
1.0006377
1.0007435
1.0009584
1.000982
1.0039361
1.0037045
1.0034614
1.0032721
1.003158
1.0030731
1.0030297
1.0030897
1.0032442
1.0033813
1.0033901
1.0032035
1.0028582
1.0024916
1.0022589
1.002176
1.0021901
1.0022165
1.0021653
1.0020093
1.0018151
1.0016526
1.0016085
1.0044024
1.0044072
1.0043571
1.0042707
1.0041461
1.0039644
1.0036953
1.0033959
1.0031695
1.0031086
1.0032133
1.0033902
1.0035038
1.0034649
1.0033149
1.0031972
1.0031934
1.003268
1.0033483
1.0033717
1.0032992
1.0031549
1.0029098
1.0037679
1.0037878
1.0038537
1.0039562
1.0040963
1.004242
1.004348
1.004368
1.0043
1.0042199
1.0041833
1.0042021
1.0042206
1.0041429
1.0039651
1.0037333
1.0035348
1.0034311
1.0034191
1.0034736
1.0035479
1.0035641
1.0034947
1.004721
1.0046659
1.0045533
1.0044025
1.0042448
1.0041343
1.0041131
1.0041773
1.0042489
1.0042529
1.0041656
1.004056
1.0040059
1.0040586
1.0041771
1.0042929
1.0043305
1.0042828
1.004179
1.0040761
1.0040532
1.0041283
1.0042662
1.0040539
1.004158
1.0043328
1.0045251
1.0046674
1.0047049
1.0046355
1.0045066
1.0043866
1.0043218
1.0042933
1.0042644
1.0042245
1.0041848
1.0041763
1.004217
1.0043087
1.0043815
1.0043734
1.004268
1.0041063
1.0039842
1.0039996
1.0046161
1.0044597
1.0042646
1.0040968
1.0040225
1.0040447
1.0041218
1.0041868
1.0042053
1.0042022
1.004242
1.0043624
1.0045206
1.0046276
1.0046198
1.0044778
1.004281
1.0041228
1.0040405
1.0040586
1.0041756
1.0043492
1.0045536
1.0044859
1.004548
1.004595
1.0046053
1.0045703
1.0045234
1.0044993
1.0045268
1.0045969
1.0046284
1.0045662
1.0044228
1.0043046
1.0043057
1.0044155
1.0045908
1.0047418
1.0048059
1.0048274
1.0048667
1.0049728
1.0051514
1.0053798
1.0046981
1.0046736
1.0046955
1.0047585
1.0048331
1.0048775
1.0048643
1.0047833
1.0046857
1.0046274
1.0046248
1.0046378
1.0046045
1.0045062
1.0044076
1.0043517
1.0043704
1.0044683
1.0046543
1.0048434
1.0049428
1.0049321
1.004811
1.0049411
1.0049125
1.0048294
1.0047323
1.0046386
1.0045706
1.0045386
1.00455
1.004561
1.0045617
1.0045851
1.0046517
1.0047135
1.0047413
1.0047294
1.0047045
1.0047122
1.0047662
1.0048335
1.0048816
1.0048487
1.0047127
1.0045112
1.0046904
1.0047717
1.0048793
1.0049485
1.004937
1.0048676
1.0047998
1.0047772
1.0047877
1.0048343
1.0048641
1.004793
1.0046943
1.0046275
1.0045865
1.0046077
1.0046646
1.0046926
1.0046638
1.0045984
1.0045772
1.004687
1.0048895
1.0050697
1.0050304
1.0050746
1.0051686
1.0052624
1.0053133
1.0053071
1.0051994
1.0050418
1.0049111
1.0048344
1.0048637
1.0049797
1.0051101
1.0052128
1.0052409
1.0051713
1.0050248
1.0048563
1.0047351
1.0047473
1.0048912
1.0051288
1.0054768
1.0054307
1.0053456
1.005245
1.0051652
1.0051134
1.0050818
1.0050154
1.0049466
1.0049039
1.0048838
1.0049143
1.0049914
1.005039
1.0050556
1.0050332
1.0049434
1.0048932
1.0048768
1.0048804
1.0049275
1.0049142
1.004859
1.004773
1.0047458
1.0046789
1.0046045
1.0045648
1.0046182
1.0047569
1.004942
1.0051464
1.0053327
1.0054004
1.0053278
1.0051829
1.0049713
1.004754
1.0046653
1.004689
1.0048532
1.0050472
1.0052145
1.0052835
1.005167
1.0049543
1.0052322
1.0051948
1.0051412
1.0050879
1.0050282
1.0049518
1.0048917
1.0048873
1.0048983
1.0049002
1.0049297
1.0049245
1.004923
1.0048838
1.0048473
1.004879
1.0049325
1.0049999
1.0050372
1.005031
1.0050044
1.0049735
1.0049493
1.005366
1.0053913
1.0054566
1.0055237
1.0055433
1.0055265
1.0054452
1.0053213
1.0052295
1.005159
1.0050983
1.0050729
1.0050586
1.0050755
1.0050894
1.0051124
1.0051633
1.0051134
1.0050503
1.0050455
1.0050224
1.0050725
1.0052214
1.0059089
1.0058662
1.0058002
1.0057661
1.0057188
1.0057169
1.0057177
1.0056052
1.0055421
1.0055606
1.0055124
1.0054945
1.0055721
1.0055914
1.0056044
1.0056182
1.0055979
1.0055171
1.0053702
1.005311
1.0052428
1.0052045
1.0052785
1.006057
1.0060223
1.0059469
1.0059499
1.0059679
1.0059909
1.0060751
1.006081
1.0060391
1.0060434
1.0059383
1.0058334
1.0057971
1.0057321
1.0057762
1.0058141
1.0058185
1.0058689
1.0058084
1.0058165
1.0057665
1.0057739
1.0057944
1.0060023
1.0059954
1.0059448
1.0059221
1.0058783
1.0058309
1.0058405
1.0058377
1.0058526
1.0059202
1.005921
1.005862
1.0057776
1.005727
1.0057794
1.0057247
1.0056377
1.0056408
1.0056907
1.0057884
1.0057785
1.0057562
1.0057308
1.0056491
1.0057332
1.0058104
1.0058029
1.0057853
1.0058041
1.0058033
1.0057992
1.0057967
1.0058063
1.0059414
1.006057
1.0060042
1.0059939
1.0060051
1.0059382
1.005836
1.0056906
1.0056822
1.0056729
1.0056842
1.0056928
1.0057287
1.0060264
1.0060656
1.0060762
1.0060355
1.0060531
1.0061049
1.0061206
1.0061215
1.0060485
1.0059169
1.0059229
1.0059836
1.0059513
1.0059661
1.0059207
1.0059316
1.0060741
1.0060402
1.0060703
1.0060466
1.0060925
1.0061333
1.0061319
1.0060809
1.006075
1.0060568
1.0060441
1.0059884
1.0059145
1.0059576
1.0060006
1.0059204
1.0058848
1.0059225
1.0059013
1.0058966
1.0059193
1.0058363
1.0058404
1.0059334
1.0059265
1.005921
1.0058892
1.0058796
1.0058768
1.0058448
1.0060095
1.0059894
1.0059791
1.0060123
1.005956
1.0058622
1.0059032
1.0059644
1.0059523
1.0059798
1.0059547
1.0058868
1.0059746
1.0060137
1.0059154
1.0058804
1.0058351
1.0058447
1.005859
1.0057715
1.005728
1.0057587
1.0057661
1.0061509
1.0060961
1.0060884
1.0061516
1.0061454
1.0060906
1.0061281
1.0061725
1.0061267
1.0061121
1.0060781
1.0060078
1.0060686
1.0060668
1.0060193
1.0060411
1.0059537
1.0059692
1.0060354
1.0059424
1.0059173
1.0059598
1.0059864
1.0063319
1.0062444
1.0062328
1.006291
1.0062998
1.0062892
1.0063329
1.0063305
1.006257
1.0062416
1.0062381
1.006226
1.0062664
1.0061734
1.0061232
1.006163
1.0060882
1.0061659
1.0061567
1.0060644
1.0060312
1.0060935
1.0061247
1.0060901
1.0060628
1.0061126
1.0061452
1.0060808
1.0060287
1.0060567
1.0060942
1.0060897
1.0060544
1.0060522
1.006138
1.0061679
1.0060721
1.0061395
1.0061863
1.0061158
1.0061849
1.0061421
1.006106
1.0061343
1.006125
1.0061148
1.0056901
1.0057413
1.0058133
1.0057988
1.0057723
1.0058349
1.0058768
1.0058395
1.0058867
1.0059572
1.0059015
1.0059019
1.0059396
1.0058969
1.0059919
1.0059947
1.0058556
1.0058952
1.0059161
1.0059498
1.0058893
1.0057886
1.005733
1.0057748
1.0058189
1.0058269
1.0057555
1.0057437