/*--------------------------------*- C++ -*----------------------------------*\
| =========                 |                                                 |
| \\      /  F ield         | OpenFOAM: The Open Source CFD Toolbox           |
|  \\    /   O peration     | Version:  2406                                  |
|   \\  /    A nd           | Website:  www.openfoam.com                      |
|    \\/     M anipulation  |                                                 |
\*---------------------------------------------------------------------------*/
FoamFile
{
    version     2.0;
    format      ascii;
    arch        "LSB;label=32;scalar=64";
    class       surfaceScalarField;
    location    "5";
    object      phi_0;
}
// * * * * * * * * * * * * * * * * * * * * * * * * * * * * * * * * * * * * * //

dimensions      [1 0 -1 0 0 0 0];

oriented        oriented;

internalField   nonuniform List<scalar> 
40800
(
0.0012082693
0.0016537066
-0.0016860872
0.0013120989
0.0015500007
-0.0016452341
0.0014113153
0.0014475084
-0.0016453187
0.0015081126
0.0011716475
-0.0013355363
0.0016178068
0.00097191159
-0.00101533
0.0017334787
0.00093151866
-0.0010041734
0.001854331
0.00091978586
-0.00098016714
0.0019699444
0.0009510326
-0.0010117948
0.002080825
0.0010251638
-0.0010529751
0.0021725414
0.0011130766
-0.0012485053
0.0022493235
0.001297357
-0.0013857787
0.0023132989
0.00134734
-0.0014080273
0.0023603747
0.0014280339
-0.0015251821
0.002387416
0.0016094191
-0.0017346956
0.0024113008
0.0017553807
-0.0018074897
0.0024398096
0.0018453331
-0.0018609735
0.0024726233
0.0019866359
-0.0020582771
0.0025049644
0.0020300693
-0.0021343127
0.0025894682
0.0020460042
-0.002124221
0.00265772
0.0020003089
-0.0020964499
0.0027651158
0.002019049
-0.0021177065
0.0028284787
0.0020726614
-0.0021904577
0.0029294608
0.0020621208
-0.0021766073
0.0030098081
0.0020780863
-0.002216327
0.0031291629
0.0021371882
-0.0022860368
0.003262041
0.0022140772
-0.002371417
0.0033789957
0.0023282501
-0.0024730404
0.0035073883
0.0023617383
-0.0025524522
0.0036316436
0.0023984542
-0.0026149963
0.0037904156
0.0023727282
-0.0026480271
0.0025878146
0.0039386665
-0.0028198608
0.0012177607
0.0016178172
0.0013186147
0.0015057499
0.0014146125
0.0012786276
0.0015113223
0.0010147358
0.0016199875
0.00092382823
0.0017323532
0.00085047382
0.0018523734
0.00085773198
0.0019691436
0.00090210098
0.0020780963
0.00099978785
0.0021711143
0.0010238188
0.002245474
0.001168888
0.002313244
0.0012817221
0.0023662997
0.0013667837
0.0023937607
0.0014693528
0.002418888
0.0016659212
0.0024497799
0.001829611
0.0024694987
0.0019066197
0.0024963343
0.0019192383
0.002569702
0.0019623649
0.0026441358
0.0019413133
0.0027549213
0.0019544965
0.0028055615
0.0019737732
0.0029025596
0.0019575735
0.0029877611
0.0019338304
0.0031026994
0.0019774379
0.0032545628
0.002046819
0.0033436335
0.0021433198
0.0034644091
0.0021398129
0.003557171
0.0021631268
0.0037519483
0.0021774674
0.0023204456
0.0039102703
0.001227817
0.0015625713
0.0013252741
0.0015079895
0.0014188036
0.0011899097
0.0015157704
0.00091948889
0.0016210915
0.00086611351
0.0017308327
0.00076711516
0.0018500883
0.00079349803
0.0019675197
0.0008597636
0.0020731113
0.00095920913
0.0021671958
0.00098992294
0.0022410379
0.0010362032
0.0023109011
0.0012131543
0.0023636528
0.0013192243
0.0023955558
0.0013425024
0.00242239
0.001524187
0.0024488896
0.0017480612
0.0024601604
0.0018136105
0.0024875828
0.0018079668
0.0025521811
0.0018677401
0.0026295761
0.0018881071
0.0027412162
0.0019001342
0.0027834943
0.0018808835
0.0028686417
0.0018700254
0.002960837
0.0018515853
0.003066914
0.0018811577
0.0032253331
0.0019184282
0.003281534
0.0019506602
0.0033943133
0.0019466165
0.003491121
0.0019356837
0.003680363
0.0020006364
0.0021531359
0.0038536481
0.0012389163
0.0014803858
0.0013324039
0.001503412
0.0014245808
0.0011800001
0.0015211962
0.00091000859
0.0016210181
0.00079968588
0.0017293029
0.00068990875
0.0018475365
0.00073188442
0.0019642833
0.00081758172
0.0020672333
0.00088965398
0.0021594066
0.00097141657
0.0022372041
0.00095646188
0.0023061878
0.0011417812
0.0023527434
0.0012568169
0.0023913494
0.0012575524
0.0024236296
0.0013999092
0.0024408852
0.0016046811
0.0024456241
0.0016778195
0.0024782523
0.0017112045
0.0025375025
0.0017605418
0.0026131432
0.0018141757
0.0027209806
0.0018455036
0.0027624899
0.0017881532
0.0028407611
0.0017560558
0.0029396187
0.0017582097
0.0030344781
0.0018109082
0.0031819264
0.0018135484
0.0032263117
0.0017508464
0.0033157367
0.0017796751
0.0034461784
0.001798589
0.0036253113
0.0018238286
0.0019669929
0.0037842301
0.0012503907
0.0013613921
0.0013400621
0.0014350726
0.0014316773
0.0011956374
0.0015267604
0.0009516175
0.0016207819
0.00073132822
0.0017283357
0.00063030768
0.0018453067
0.00067716308
0.0019593711
0.00075599375
0.0020614376
0.00080629598
0.0021497388
0.00091436568
0.0022340569
0.00093512928
0.0022994691
0.0010480352
0.0023394754
0.0011687898
0.0023848134
0.0012222307
0.0024200424
0.001305083
0.0024276628
0.0014391909
0.0024319053
0.0015540694
0.0024659614
0.0016500496
0.0025232876
0.0016684797
0.0025966848
0.0017284251
0.0026905755
0.0017641646
0.0027297498
0.0016618389
0.0028062521
0.0016056116
0.0029175347
0.0016045115
0.0029993915
0.0016773273
0.0031156661
0.0016828104
0.0031838228
0.0015560292
0.0032611071
0.0015739919
0.0033973229
0.001679101
0.0035714748
0.0016988434
0.0017583432
0.0037111989
0.0012616745
0.0012082227
0.0013481492
0.0012857564
0.0014395289
0.0011709463
0.001531621
0.000968752
0.0016218189
0.00066785548
0.0017289946
0.00059778401
0.0018434348
0.00062913771
0.001953518
0.00066729927
0.0020552835
0.00071933071
0.0021416984
0.00080918999
0.0022289592
0.00092540879
0.0022919519
0.00095560751
0.0023299497
0.0010391612
0.0023769588
0.0011742248
0.0024134757
0.0012540568
0.0024206634
0.0013395183
0.0024269701
0.0014499449
0.0024517006
0.0015818878
0.0025104951
0.0015998952
0.0025786607
0.0016519411
0.0026504653
0.0016528394
0.0026919496
0.0015560512
0.0027672464
0.0015114542
0.0028884798
0.001470262
0.0029594273
0.0014864801
0.0030345192
0.0015236981
0.0031309452
0.0014204629
0.0032288317
0.0013939369
0.003348488
0.0015108837
0.0034928444
0.0015678453
0.0015773521
0.0036171085
0.001271958
0.0010544243
0.0013561464
0.001080635
0.001446912
0.0010772492
0.0015348967
0.0009092047
0.0016240121
0.00061009561
0.001730385
0.00057892668
0.0018408641
0.00058066408
0.0019477628
0.00057297326
0.0020488258
0.0006322517
0.0021368627
0.00070146468
0.0022206138
0.00086983455
0.002282777
0.00087549618
0.0023250809
0.00091688884
0.0023717626
0.0011070636
0.002408988
0.0012274776
0.0024174936
0.001285396
0.002426507
0.0013477447
0.0024399268
0.00148896
0.002499009
0.0015589456
0.0025554229
0.0015667051
0.0026130622
0.001547402
0.0026621583
0.0014668954
0.0027267697
0.0014467636
0.0028472124
0.0014074718
0.0029239141
0.0013618059
0.0029636028
0.0013690084
0.0030721933
0.0013311088
0.0032009105
0.0013121626
0.0033105956
0.0013614501
0.0034123062
0.0014172479
0.0014213078
0.0035001408
0.0012812411
0.00094506785
0.0013636146
0.00087176801
0.0014526249
0.0009360343
0.0015373865
0.00077314766
0.0016275093
0.00055508778
0.0017306664
0.00054525896
0.0018369438
0.00052176682
0.0019431871
0.00051182581
0.0020434942
0.0005567387
0.0021340733
0.00062882332
0.0022108798
0.00078396942
0.0022732418
0.00080167637
0.0023240361
0.00083681247
0.0023691637
0.0010093717
0.0024040046
0.0011494257
0.0024117839
0.0012159178
0.0024261432
0.0012617904
0.0024322304
0.0013606957
0.0024826641
0.0014724733
0.0025319453
0.0014970362
0.0025791027
0.0014572721
0.0026356852
0.0013698888
0.0026936039
0.0013769125
0.0028062275
0.00138974
0.0028923065
0.00132368
0.0029131193
0.0012523731
0.0030234974
0.0012333431
0.0031619786
0.0012452066
0.0032792179
0.0012459079
0.0033468766
0.0012502362
0.0012758158
0.0034005521
0.0012897428
0.00088906939
0.0013713157
0.00072255525
0.0014573043
0.00078604373
0.0015406512
0.00061340984
0.001631452
0.0005006975
0.0017293726
0.00048914707
0.0018330604
0.00045694736
0.0019395542
0.00048453373
0.0020393745
0.00051662686
0.0021316384
0.00057335448
0.0022018564
0.00069677211
0.0022651345
0.00074372988
0.0023225574
0.00080422694
0.0023651211
0.00090609323
0.0023962525
0.0010302173
0.0024019826
0.0010963604
0.002417951
0.0011573869
0.0024233831
0.0012184034
0.0024645096
0.001346801
0.0025055223
0.001376791
0.0025417567
0.0013613668
0.0026094862
0.0012602467
0.002669243
0.001255955
0.0027637827
0.0013038338
0.0028467046
0.0012481796
0.0028673577
0.0011294248
0.0029775722
0.0011263173
0.0031008143
0.0011267353
0.0032233278
0.0011056384
0.0032751305
0.0010244946
0.0010487742
0.00332778
0.001298469
0.00085075958
0.0013795064
0.00067623705
0.0014611852
0.00066523263
0.0015440929
0.00050038318
0.0016341054
0.00045086828
0.0017279072
0.00042524297
0.0018309707
0.0003986035
0.0019366595
0.00045558863
0.0020358526
0.00050083722
0.0021287282
0.00055156674
0.0021952607
0.00060475926
0.0022605538
0.00069890952
0.0023184644
0.0007882572
0.0023581562
0.00082723281
0.0023840163
0.00087654623
0.0023900756
0.00094961732
0.0024058906
0.0010614675
0.0024148868
0.0011189049
0.0024436772
0.0012054067
0.0024826513
0.0012585029
0.0025052512
0.001300823
0.0025789999
0.0011848202
0.0026428202
0.0011342738
0.0027140653
0.0011663967
0.0027794532
0.001100661
0.00282103
0.00096892002
0.002926403
0.0010177843
0.003029547
0.0010239542
0.0031315746
0.00097869715
0.0031793057
0.00083502564
0.00079537527
0.0032517351
0.0013084755
0.00078668545
0.0013891953
0.00072899193
0.001466852
0.00061368039
0.0015491002
0.00046477819
0.0016364648
0.00041561881
0.0017278275
0.00036830531
0.0018307818
0.00036159491
0.0019346106
0.00042376074
0.0020334728
0.00046952464
0.0021235967
0.00055754859
0.0021898581
0.0005182945
0.0022565422
0.00062710792
0.0023099473
0.00073839169
0.0023455884
0.00074803325
0.0023712768
0.00075672834
0.0023835845
0.00083849417
0.0023972453
0.00099563776
0.0024067255
0.0010414358
0.002430999
0.0011308559
0.002471856
0.0011734258
0.0024689748
0.0012002585
0.0025429645
0.0011214996
0.0026178226
0.0010639687
0.0026654893
0.0010823032
0.0027064172
0.00099503856
0.0027821118
0.00083425081
0.0028775978
0.00088360541
0.0029635981
0.00091742199
0.0030347465
0.00087741577
0.0030808909
0.00074161891
0.00069591916
0.0031794148
0.0013204076
0.00068608024
0.0013998293
0.00081549873
0.0014748517
0.00063896503
0.001555532
0.00048174126
0.0016390595
0.000399324
0.0017287804
0.00032554029
0.0018312658
0.00033569742
0.0019325017
0.00038375487
0.0020312062
0.00043160513
0.0021146293
0.00050920414
0.0021838213
0.0004699089
0.0022496766
0.00053475249
0.0022976617
0.00063362196
0.0023313424
0.00067254219
0.0023624302
0.00068121292
0.0023829957
0.0007704175
0.0023893086
0.00090224376
0.0024041471
0.00097488008
0.0024212282
0.0010730524
0.0024580837
0.0010879649
0.0024368676
0.001067323
0.0025096204
0.001055862
0.0026003294
0.0010374484
0.0026279298
0.0010208821
0.0026407212
0.00093672028
0.002748201
0.00078736837
0.0028353383
0.00075002131
0.0029040957
0.00076165041
0.0029539115
0.00076273085
0.0030151576
0.00067410508
0.00067733487
0.0031409491
0.0013333334
0.00056188144
0.0014096312
0.00084056028
0.0014830397
0.00069211775
0.0015620838
0.0005012851
0.0016414017
0.00039016895
0.0017298655
0.00028592236
0.0018310805
0.00030106075
0.0019300187
0.00031030301
0.0020268345
0.00038355421
0.0021047994
0.00041298492
0.0021772672
0.00043605006
0.0022418655
0.0004812281
0.0022860522
0.00053929925
0.0023188769
0.00058714377
0.0023570153
0.00065292994
0.0023808539
0.00071901862
0.002381797
0.00080048504
0.0023996119
0.00086216068
0.0024062146
0.00096770855
0.0024381585
0.0010213903
0.0024147719
0.00094636103
0.0024820199
0.0009694847
0.002572936
0.00098350083
0.0025895137
0.00089087864
0.0025852342
0.00080928595
0.0027045017
0.00079091298
0.0027870043
0.00068834823
0.0028486887
0.00061932143
0.0028787078
0.00060176279
0.0029573
0.00056816468
0.00060560136
0.0031052143
0.0013469912
0.00045413413
0.0014185092
0.0007389769
0.0014907876
0.00068894492
0.0015691556
0.00047513314
0.0016445226
0.00036012813
0.0017311958
0.00023964832
0.0018289493
0.00025820946
0.0019269505
0.00023492392
0.00202054
0.00030464272
0.002097668
0.00033200794
0.0021721707
0.0003954474
0.0022354299
0.00045692297
0.0022767236
0.0004690383
0.0023118434
0.00050995736
0.0023509221
0.00061560094
0.0023737821
0.00066439827
0.0023683525
0.00068068745
0.0023889404
0.00071353724
0.0023924427
0.00084885019
0.0024089282
0.00090558243
0.0023947541
0.0008120093
0.00245724
0.00087785086
0.0025262999
0.00090851051
0.0025377119
0.00075786787
0.0025474466
0.00062113213
0.0026457935
0.00072255638
0.0027296167
0.00067023931
0.0027909617
0.00056642286
0.0028111097
0.00047041705
0.0028948873
0.00046880087
0.00054233991
0.0030370321
0.0013600871
0.00041863133
0.0014265916
0.00052588469
0.0014966937
0.00057227251
0.0015748101
0.00039637352
0.001646703
0.00028769608
0.0017323804
0.00019093106
0.0018259787
0.00021414196
0.0019234073
0.00020001728
0.0020143364
0.00022963153
0.0020931143
0.00026259813
0.0021679922
0.00036975446
0.0022275276
0.00041976888
0.002268659
0.00039942239
0.0023079142
0.0004537064
0.0023429005
0.00055370653
0.0023599598
0.00058788365
0.0023506323
0.00057159546
0.002379444
0.00060971581
0.0023745208
0.00070367009
0.0023729011
0.00075194754
0.0023809498
0.00071359343
0.0024369944
0.00083078365
0.0024744298
0.00082413752
0.002473442
0.00065221642
0.0025233667
0.00049609447
0.0025919273
0.00057907862
0.0026676658
0.00060993423
0.0027224683
0.00052627113
0.0027622479
0.00040641944
0.0028596986
0.00041374851
0.00050554991
0.0029602839
0.001371254
0.00045770139
0.0014336901
0.00029834479
0.0015007999
0.00036949347
0.0015781812
0.00029845693
0.001647942
0.00019289421
0.0017340177
0.00016008247
0.0018247475
0.00017624926
0.0019207096
0.00019777523
0.0020097083
0.00019834194
0.0020911185
0.00021957012
0.0021620768
0.0003214801
0.00221675
0.00034302353
0.0022613731
0.00034564473
0.0023030971
0.00039316971
0.0023324254
0.00047370536
0.0023443034
0.00049227548
0.0023371381
0.00049956156
0.0023681225
0.00053490016
0.0023579864
0.00058046602
0.0023477812
0.00065625037
0.0023775625
0.00063404579
0.0024154343
0.00076556918
0.0024211107
0.00072587199
0.0024152235
0.00054948065
0.0025042194
0.00049209902
0.0025596657
0.00049971365
0.0026085964
0.00052532593
0.0026496593
0.00044203623
0.0027184308
0.00034141931
0.0028385191
0.00033792912
0.00040214821
0.0029065386
0.0013808755
0.00048543948
0.0014418919
0.00017123671
0.0015064828
0.00018080382
0.0015820731
0.00021648932
0.0016512213
0.00011611444
0.0017364428
0.00016244784
0.0018253128
0.00014519631
0.0019189145
0.00019852943
0.0020070952
0.00019078922
0.0020890917
0.00021237937
0.0021529052
0.00023462182
0.0022056428
0.00025093093
0.0022528862
0.0002922139
0.0022944477
0.00033514563
0.0023169891
0.00035895244
0.0023288637
0.00037740692
0.0023243957
0.00041241423
0.0023551705
0.00047853092
0.0023517106
0.00051295699
0.0023264389
0.00058310678
0.0023722328
0.00053961662
0.0023877752
0.00062514821
0.0023685906
0.00063510178
0.0023831748
0.0004862546
0.0024826953
0.0004927038
0.0025395823
0.0004808546
0.0025571315
0.00044907127
0.0025840917
0.00036888692
0.0026660738
0.00028125562
0.0027956308
0.00026182494
0.00026562276
0.0028605116
0.0013898072
0.00043104556
0.00145126
0.00018777899
0.0015141272
0.00011308714
0.0015860934
0.00017170684
0.0016565635
8.7488507e-05
0.0017387732
0.00017456484
0.0018265419
0.00011047668
0.0019171409
0.00017212407
0.002004575
0.00017746031
0.0020834587
0.00018712251
0.0021433401
0.00016671198
0.0021963485
0.00018080556
0.0022436735
0.00022385393
0.0022803472
0.00027277825
0.0022994262
0.00026124056
0.0023144288
0.00027538699
0.0023157606
0.0003193123
0.0023439369
0.00043311239
0.0023457684
0.00045477646
0.002300969
0.00047175931
0.0023528698
0.00046750562
0.0023633623
0.00046021036
0.0023237087
0.00050488687
0.0023605316
0.00044644421
0.0024520449
0.00043711858
0.0025062293
0.00040394698
0.0025102293
0.00033867857
0.0025269716
0.00029479497
0.0026140385
0.00025192873
0.0027346546
0.00024049654
0.00018955706
0.0027970166
0.0013997763
0.00024804858
0.0014611389
0.00027134417
0.0015239627
0.00018282977
0.0015916575
0.00015166877
0.0016620415
0.00011212716
0.0017388471
0.00015285916
0.0018262755
6.870839e-05
0.0019140467
0.00010611004
0.002000146
0.00014614365
0.002075676
0.00014076912
0.0021352111
0.00013076701
0.0021882254
0.00013772756
0.0022349707
0.00017441699
0.002267098
0.00020419587
0.0022866163
0.00021759601
0.0023036912
0.00023596978
0.0023114857
0.00023667932
0.0023311778
0.00036518855
0.0023295588
0.00036880806
0.0022780541
0.00032278319
0.0023223632
0.00041467367
0.0023382712
0.00036340176
0.0022893712
0.00030943863
0.0023311874
0.00038262634
0.0024078302
0.00040119575
0.0024516684
0.0002988413
0.0024613465
0.00020230364
0.0024758615
0.00016912938
0.0025694667
0.00021054365
0.0026692321
0.00023381309
0.00017723714
0.0027329909
0.0014112049
1.5329195e-05
0.0014718269
0.00029563522
0.0015338829
0.00031185774
0.0016000217
0.00012042242
0.0016677331
0.00015795177
0.0017381053
8.0413665e-05
0.0018246786
3.8702479e-05
0.0019103642
3.934058e-05
0.0019944576
8.8614116e-05
0.0020688005
9.9397282e-05
0.0021292761
0.00010386928
0.0021828451
0.00013454185
0.0022263596
0.00014606425
0.0022583185
0.00015138548
0.00227958
0.00019134309
0.0022919407
0.00020439677
0.002307484
0.00016888148
0.0023141818
0.00026997268
0.0023031709
0.00024257587
0.0022677073
0.00016925628
0.002294115
0.00035982659
0.0023025076
0.00034433101
0.0022702289
0.00016051084
0.0023059007
0.00027233992
0.0023543351
0.00035177547
0.0023887399
0.00025366815
0.0024055551
0.00011359208
0.0024385057
5.4021556e-05
0.002531741
0.00014662164
0.00261018
0.0001985557
0.00017476456
0.0026840167
0.0014252143
-0.00015850866
0.001481374
0.00023158806
0.0015411665
0.00037935886
0.001607311
6.3315406e-05
0.0016702454
0.00015956423
0.0017385943
-1.1005419e-06
0.0018243054
1.9303923e-05
0.0019090287
4.5345841e-06
0.0019903951
3.5412171e-05
0.002063723
6.0368869e-05
0.0021264393
7.5194353e-05
0.0021777179
0.00014234748
0.0022179645
9.9136466e-05
0.0022512649
0.00010948957
0.0022705796
0.00013303102
0.0022766494
0.00013555503
0.0022987998
0.00012684272
0.002289798
0.00016242771
0.0022705375
0.0001037478
0.0022679413
4.7177673e-05
0.002277742
0.00028372741
0.0022576608
0.00029950297
0.0022568505
0.00011401635
0.0022848133
0.00014864918
0.0023041816
0.00021360448
0.0023265053
0.00021492136
0.0023484875
6.6680817e-05
0.0024139256
3.2475401e-06
0.0024994577
7.0497429e-05
0.002557514
0.00013886621
0.00014030457
0.0026352273
0.0014392977
-0.00017773314
0.0014921594
0.00012754478
0.0015427278
0.00029365157
0.0016165951
-7.4013561e-06
0.0016747012
0.00010473188
0.0017485267
-3.46713e-05
0.0018325353
1.1601747e-05
0.0019158181
-6.6732523e-07
0.001994459
1.1684252e-05
0.0020662556
2.8210912e-05
0.0021312874
4.6763496e-05
0.0021750121
0.00010251786
0.0022160068
4.0612787e-05
0.0022484094
6.2173836e-05
0.0022638201
5.3626719e-05
0.0022680863
5.8116571e-05
0.0022902174
7.4034979e-05
0.0022713528
6.6093743e-05
0.0022472504
2.5159325e-05
0.0022787306
-1.0608938e-05
0.0022694699
0.00015683472
0.0022228715
0.00017233115
0.0022430303
8.4407882e-05
0.0022675793
6.0856993e-05
0.0022795381
7.6498421e-05
0.0022718231
0.00012022384
0.0023024956
2.6800539e-05
0.0023880251
-6.4656913e-06
0.0024769817
1.0980661e-05
0.0025138008
5.428555e-05
7.6823985e-05
0.0025722198
0.0013956914
0.0014825277
0.0016113603
0.0016530449
0.0017304829
0.0018012481
0.0018570745
0.0019421982
0.0020239253
0.0020983273
0.002161744
0.0021997953
0.0022442401
0.0022735588
0.0022892797
0.0022898965
0.002314011
0.0022960325
0.0022634851
0.0023213303
0.0022862091
0.0022357375
0.002245433
0.0022763616
0.0022932469
0.0022584502
0.0022978758
0.0023914421
0.0024913987
0.0025120102
0.0025427187
0.00011441708
0.0024763372
0.00019564613
0.0024974283
0.00030309757
0.002542822
0.00048789586
0.0025894954
0.00065422344
0.0026304169
0.00067538824
0.0026692758
0.00065130219
0.0027246296
0.00078183137
0.0028005907
0.0009584562
0.002890392
0.0010133278
0.0029768826
0.0011062892
0.0030472281
0.0013289151
0.0030853216
0.0014338251
0.0031008219
0.0013800086
0.0031393929
0.0014347913
0.0032051066
0.0016059298
0.003273224
0.0017022739
0.0033342248
0.0017041955
0.0034018911
0.0017034777
0.0034870582
0.0017997436
0.0035915271
0.001881761
0.0037130699
0.0018590046
0.0038350832
0.0039288
0.0020652818
0.00010207143
0.0024551727
0.00020073815
0.0024732575
0.00033602787
0.0025033225
0.00050024821
0.0025257918
0.00060853793
0.0025477593
0.00065920159
0.0025828679
0.00077109081
0.0026438485
0.00094618777
0.0027106419
0.0010362046
0.0027719493
0.00099824687
0.0028283655
0.0010269646
0.0028870856
0.0011891198
0.0029444185
0.0012955212
0.0030003497
0.0013074818
0.0030706741
0.001411478
0.0031565378
0.0015815303
0.0032326434
0.0016784524
0.0032758048
0.0017089581
0.0033042672
0.0017318139
0.0033572225
0.0018572092
0.0034272287
0.0019387126
0.0035143607
0.0018869513
0.003627964
0.0037383806
0.0020329817
5.4781896e-05
0.0023660384
0.00011780489
0.0023946487
0.00021713545
0.002439807
0.00035833861
0.0024840616
0.00052318623
0.0025288052
0.00070432866
0.0025780704
0.00088166588
0.0026223413
0.00098493011
0.0026461241
0.00098429833
0.0026598301
0.00097218803
0.0026898599
0.0010541826
0.0027465417
0.0012051298
0.0028151824
0.001296412
0.0028795952
0.0013318023
0.00294737
0.0014028784
0.003027435
0.001482207
0.0031083338
0.0015485877
0.0031802393
0.001628901
0.0032451779
0.0016951389
0.0033088243
0.0018506958
0.0033680267
0.0019549663
0.003418309
0.0019593603
0.003476735
0.0035367615
0.0020494408
8.9817225e-05
0.0022954365
0.00016183807
0.0023224619
0.00024515363
0.0023605454
0.00038462409
0.0024081628
0.00054790847
0.0024604987
0.00066132842
0.0025110056
0.00071112166
0.0025519994
0.00074834712
0.002582293
0.00082292178
0.0026103349
0.00095794817
0.0026496127
0.0011222015
0.0027006476
0.0012452547
0.0027542442
0.0013165905
0.0027990265
0.0013835048
0.0028361305
0.001445002
0.0028791481
0.0014820211
0.0029387183
0.0015325243
0.0030169151
0.0015847218
0.0031032117
0.0016349178
0.0031868431
0.0017551484
0.0032666749
0.0018309248
0.0033350652
0.0018706989
0.00339963
0.0034430474
0.0019768531
9.1585233e-05
0.0022721455
0.00019441622
0.002297848
0.00034691178
0.0023219186
0.00051303756
0.0023432449
0.00059062383
0.0023636411
0.00056256655
0.0023944996
0.00053691073
0.0024388651
0.00059948246
0.0024919841
0.00075592936
0.0025449734
0.00094608533
0.0025994707
0.0010908879
0.0026545474
0.0011474188
0.0027019544
0.0011811896
0.0027387625
0.001275752
0.0027696114
0.0014145936
0.0028035027
0.0015246252
0.0028462375
0.0016046779
0.0028980296
0.0016388474
0.0029581676
0.0016796687
0.0030266508
0.0017432888
0.0031019139
0.0017460053
0.003179908
0.0017246834
0.0032687267
0.0033424623
0.0018052942
4.0303259e-05
0.0022226404
0.00011545082
0.0022513889
0.0002416038
0.0022755899
0.00037076422
0.0022954576
0.00045448098
0.0023157507
0.00050987232
0.002344142
0.00058098212
0.0023784058
0.0006965819
0.002418139
0.00084852959
0.0024594611
0.00098010978
0.002503017
0.0010167708
0.00254744
0.00098571414
0.0025932487
0.0010021496
0.0026413625
0.001119464
0.0026928431
0.0012932001
0.0027459899
0.0014482995
0.002799715
0.0015581702
0.0028444936
0.0016232576
0.0028818198
0.0017035098
0.0029201048
0.0017843484
0.0029665933
0.0017773605
0.0030206895
0.0017208599
0.0030999872
0.003178519
0.0017490899
6.8699507e-06
0.0021328801
3.0228786e-05
0.0021669807
9.4802224e-05
0.0022023516
0.00019106959
0.0022420827
0.00030683486
0.002282371
0.00043472806
0.0023212285
0.00057884876
0.0023537479
0.00073563098
0.0023803623
0.00086841042
0.0024030625
0.00093673001
0.0024260149
0.00094126821
0.0024560091
0.00094226864
0.0024943729
0.0010022201
0.002540122
0.0011094775
0.0025933726
0.0012252463
0.0026519593
0.0013139558
0.0027156152
0.0013767915
0.002774244
0.0014475917
0.0028231143
0.0015663632
0.0028611747
0.0017014649
0.0028951198
0.0017620644
0.0029284345
0.0017587601
0.00298061
0.0030394104
0.0018146022
5.3402615e-05
0.002063858
0.00011690192
0.0020942592
0.00018273828
0.0021308879
0.00024424704
0.0021737596
0.00030720743
0.002219078
0.00037987254
0.0022624224
0.00047277169
0.0022994884
0.00058096389
0.0023299806
0.00067819899
0.002354226
0.00075580637
0.0023781889
0.00083412053
0.0024076426
0.00093995364
0.0024417961
0.0010674056
0.0024778028
0.0011820983
0.0025141309
0.001254164
0.0025539106
0.0012732445
0.0026016143
0.0012604403
0.0026570203
0.0012632072
0.0027139598
0.001337783
0.0027706274
0.0014739655
0.0028265792
0.0015963938
0.0028716952
0.001701166
0.0029215932
0.0029684991
0.0018341911
0.00014656806
0.0020434869
0.00027062813
0.0020624056
0.00035408296
0.0020835737
0.00039112807
0.0021105924
0.00040147207
0.002142386
0.0003985648
0.0021761742
0.00040009208
0.0022118642
0.00042666904
0.0022483506
0.000487909
0.0022856902
0.00059034991
0.0023249602
0.00072858698
0.0023654255
0.00087524986
0.0024029722
0.0010005953
0.0024344043
0.0011061848
0.0024600223
0.0011825135
0.002484339
0.001226246
0.0025141155
0.0012405716
0.0025527743
0.0012467956
0.0025997698
0.0012767783
0.0026545357
0.0013346631
0.0027159501
0.0014259706
0.002777185
0.0015468927
0.0028452193
0.0029081853
0.0016883855
0.00011580777
0.0020226483
0.00021407021
0.0020436953
0.00029917987
0.0020573988
0.00036173873
0.0020734843
0.00040689019
0.0020916709
0.00042513612
0.0021130446
0.00044131011
0.0021408981
0.00047270177
0.0021744518
0.00052651724
0.0022127517
0.00059829066
0.0022541951
0.00067992914
0.0022973266
0.00075633423
0.0023395563
0.00081994845
0.002377306
0.00088051689
0.0024085695
0.00095639205
0.0024351874
0.0010557789
0.0024610636
0.0011599332
0.0024916308
0.0012459089
0.0025248956
0.0012953747
0.0025633927
0.0013449554
0.0026140061
0.0014229681
0.0026716007
0.0015176094
0.002738519
0.0028039479
0.0015829124
1.6577956e-06
0.0019706232
1.0805679e-05
0.0020033121
5.9797038e-05
0.0020214636
0.00015455087
0.0020407763
0.0002760998
0.002062078
0.00040045194
0.0020838719
0.00050862881
0.0021075465
0.00058854307
0.002133161
0.00064506643
0.0021608504
0.000680551
0.0021914965
0.00069366307
0.0022250122
0.0006903055
0.0022615931
0.00067857655
0.0023005092
0.00067957326
0.0023381018
0.00071987884
0.0023743843
0.00082264819
0.0024107818
0.00096806902
0.0024472201
0.0011221647
0.0024818002
0.001247043
0.002512533
0.0013479953
0.002548708
0.0014358528
0.0025885464
0.001523166
0.0026394426
0.0026919946
0.0015632239
-5.8621791e-05
0.0019099367
-8.3611584e-05
0.0019544186
-4.2678542e-05
0.0019784756
5.8639502e-05
0.0020049068
0.00020414991
0.0020314344
0.00035393623
0.0020570896
0.00047526734
0.0020797533
0.00056103221
0.0021022825
0.00061486895
0.0021238532
0.00064439552
0.0021447362
0.00065688444
0.0021687571
0.000656707
0.0021975123
0.0006478393
0.0022314953
0.00063737377
0.0022672122
0.00064812688
0.0023048592
0.00069965447
0.002345307
0.00079949901
0.0023883943
0.00092573084
0.0024304751
0.0010624358
0.0024679315
0.0012001671
0.002503296
0.0013239751
0.002535509
0.0014189167
0.0025712636
0.0026079828
0.0014643612
-1.6836252e-05
0.0018676544
-1.0159945e-05
0.0019209028
4.4742292e-05
0.0019453746
0.00013226035
0.0019697815
0.0002283271
0.0019949297
0.00031033288
0.0020203062
0.00036517075
0.0020440606
0.00039657567
0.0020672926
0.00042155409
0.0020881341
0.00046372573
0.0021085122
0.00052396966
0.0021297933
0.00058458343
0.0021538399
0.0006304404
0.0021815113
0.00065948407
0.0022120981
0.00068598805
0.0022450895
0.00071573182
0.0022828172
0.00075170908
0.0023253045
0.0008089848
0.0023688038
0.00088468495
0.0024118348
0.00096776283
0.0024533334
0.0010513067
0.0024895025
0.0011348435
0.0025254671
0.0025611213
0.0012167731
2.6291943e-05
0.0018451488
7.5532823e-05
0.0018923885
0.00014284281
0.0019150437
0.00021011924
0.0019378102
0.00025799687
0.0019603741
0.00027037542
0.0019830566
0.00025348787
0.0020055669
0.00023036673
0.0020291987
0.00022820028
0.0020530494
0.00026940168
0.0020768935
0.0003495796
0.0021005971
0.00045179533
0.0021245893
0.00055515365
0.0021508366
0.00064522375
0.0021778054
0.00070726193
0.0022051934
0.00073881399
0.0022342776
0.0007598185
0.0022692327
0.00078527248
0.0023112645
0.00080645542
0.0023533201
0.00081572321
0.0023962113
0.00080790157
0.0024352168
0.0008059889
0.002473001
0.0025110558
0.00084239393
7.1953839e-05
0.0018066043
0.00012762585
0.0018692448
0.00017512867
0.0018923047
0.00020956288
0.0019123488
0.00022291483
0.0019326678
0.00021018805
0.0019537174
0.00018459498
0.0019748243
0.00015628585
0.0019973433
0.00014417554
0.0020212619
0.00016482147
0.0020464538
0.00022107582
0.0020717259
0.00031212025
0.0020994417
0.00042656323
0.0021271756
0.00054217765
0.0021545584
0.00063306109
0.0021781869
0.00069386369
0.0022008186
0.00072843975
0.0022282492
0.00075191801
0.0022628371
0.00075598792
0.0023030681
0.00072377677
0.0023441212
0.00064909199
0.0023814724
0.00056104168
0.0024204813
0.0024610504
0.00051753901
6.0395624e-05
0.0017696141
9.7117902e-05
0.001849856
0.00012659973
0.001872535
0.00014617309
0.0018927266
0.00015280951
0.001911603
0.00014851166
0.0019320863
0.00013837923
0.0019522882
0.00013417132
0.0019741998
0.00014020467
0.001998633
0.00015648071
0.0020236154
0.0001829618
0.0020483504
0.00022653775
0.0020742503
0.00029170432
0.0021023864
0.00037379774
0.0021302171
0.00045932074
0.002154916
0.00054316063
0.0021791533
0.00061901244
0.0022043687
0.00066540455
0.0022341598
0.00066847466
0.0022688895
0.00061863582
0.0023080464
0.00051929961
0.0023448625
0.0003956033
0.002381699
0.0024207184
0.00030164202
1.8791983e-05
0.0017427711
3.2965405e-05
0.0018254098
3.8524141e-05
0.0018527414
4.8370371e-05
0.001873326
6.1536366e-05
0.0018936588
7.8627681e-05
0.0019146297
9.9992434e-05
0.0019363542
0.00012489616
0.0019587217
0.00014504482
0.0019828292
0.00016194112
0.0020073538
0.00017578771
0.0020320035
0.00018754478
0.0020570446
0.00020305883
0.0020839923
0.0002312827
0.0021118296
0.00027682024
0.0021387307
0.00034453166
0.002165266
0.00042803482
0.0021926772
0.00050083781