/*--------------------------------*- C++ -*----------------------------------*\
| =========                 |                                                 |
| \\      /  F ield         | OpenFOAM: The Open Source CFD Toolbox           |
|  \\    /   O peration     | Version:  2406                                  |
|   \\  /    A nd           | Website:  www.openfoam.com                      |
|    \\/     M anipulation  |                                                 |
\*---------------------------------------------------------------------------*/
FoamFile
{
    version     2.0;
    format      ascii;
    arch        "LSB;label=32;scalar=64";
    class       volScalarField;
    location    "5";
    object      rho_0;
}
// * * * * * * * * * * * * * * * * * * * * * * * * * * * * * * * * * * * * * //

dimensions      [1 -3 0 0 0 0 0];

internalField   nonuniform List<scalar> 
20580
(
0.99880153
1.0013374
1.0009365
0.99838583
0.99645637
0.99400694
0.99054403
0.98746195
0.98616116
0.98503059
0.98462502
0.9857371
0.98870641
0.99121977
0.99464905
1.0006166
1.0041786
1.0066898
1.0069977
1.007216
1.0054644
1.0038569
1.0046205
1.0046898
1.0051208
1.0037541
1.0040005
1.0037115
1.0058146
1.0054906
1.009778
0.99856376
1.0011005
1.000888
0.99843544
0.99670582
0.99397164
0.99032053
0.9874777
0.98585121
0.98528144
0.98447155
0.98502065
0.98843214
0.9913328
0.9936875
0.99891093
1.0034387
1.0069636
1.0072835
1.0079711
1.0063002
1.0049817
1.0054911
1.0050041
1.0058895
1.0037702
1.0042361
1.0047636
1.0076133
1.0066112
1.0063742
0.99906632
1.0009033
1.0006555
0.99872155
0.99696612
0.99384648
0.99017821
0.98774594
0.98551911
0.9851458
0.98450204
0.98470524
0.98784364
0.99132635
0.99355358
0.99739974
1.0024983
1.007076
1.0075481
1.0081204
1.0066954
1.0061308
1.0073616
1.0060629
1.0064411
1.0037616
1.0043995
1.0064126
1.0075681
1.0077298
1.0048992
1.0001089
1.001051
1.0004396
0.99910616
0.99706715
0.99386154
0.99033701
0.98793371
0.98540706
0.98453081
0.98448689
0.98469918
0.98688923
0.99044035
0.99361825
0.99687791
1.0015044
1.0065211
1.007814
1.0078654
1.0066564
1.006608
1.0091462
1.0074575
1.0070511
1.0047125
1.0051259
1.0093936
1.0083961
1.0075558
1.0059201
1.0012774
1.0016019
1.000469
0.99940322
0.99689844
0.99402254
0.99089111
0.98795417
0.98542689
0.98381224
0.98403595
0.98494503
0.98575633
0.98889139
0.99306898
0.99663406
1.0006238
1.0057554
1.0081532
1.0079457
1.0072977
1.006973
1.0097225
1.0081005
1.007995
1.0075524
1.0066978
1.0115436
1.0110766
1.0083284
1.0064295
1.002088
1.0021376
1.0007749
0.99961993
0.99657732
0.99417468
0.9916561
0.98796159
0.98539142
0.98316137
0.98334159
0.98467555
0.98501255
0.98740332
0.99127531
0.99596733
1.0004675
1.0049594
1.0081178
1.0082451
1.0087357
1.0081852
1.0104921
1.0089785
1.0084759
1.0106598
1.0090077
1.0103746
1.0108318
1.009534
1.0077739
1.0021889
1.0020893
1.0011013
0.99970924
0.99651111
0.99429686
0.99208732
0.98801671
0.98533224
0.98292685
0.98274247
0.9839852
0.98471505
0.98659
0.98964374
0.99480312
1.0001576
1.0041392
1.0080698
1.0083128
1.0099948
1.0099843
1.0114685
1.010147
1.0083176
1.011895
1.0116418
1.0095878
1.0084918
1.0096428
1.0100791
1.0015661
1.001322
1.0011188
0.99963998
0.9969393
0.99451326
0.99174273
0.98797295
0.98536477
0.98337229
0.982447
0.98321525
0.98455622
0.98672066
0.98870369
0.99360161
0.99932344
1.0034979
1.0076809
1.0079754
1.0108472
1.0110559
1.0120356
1.0116192
1.0090905
1.0119232
1.0135026
1.0107626
1.0078122
1.0102536
1.0131679
1.0005815
1.0003663
1.0008071
0.99940129
0.99752878
0.99478555
0.99097664
0.98786993
0.98532212
0.98383181
0.98277241
0.98245822
0.98446588
0.98696432
0.98875478
0.99280226
0.99822609
1.0023792
1.0069184
1.0075606
1.0110608
1.0117379
1.0124279
1.0126773
1.0110271
1.0126611
1.0147532
1.0121331
1.0091014
1.0110595
1.0155756
0.9997575
0.99993871
1.0005314
0.99903293
0.99774343
0.99491465
0.99053551
0.98780458
0.98515881
0.98397975
0.98312532
0.9822868
0.98425275
0.98687813
0.98873263
0.99210635
0.99674908
1.0011817
1.0058124
1.0073304
1.0114062
1.0127924
1.0127898
1.0127287
1.0128343
1.0135821
1.0156412
1.0134896
1.0120579
1.0123483
1.0150513
0.99937125
1.0004407
1.0005528
0.99877075
0.99743004
0.9948559
0.99078518
0.9879042
0.98502534
0.98392019
0.98292343
0.98249856
0.98366927
0.98610774
0.98832064
0.99126987
0.99576893
1.0001914
1.0049034
1.007876
1.0118207
1.0139944
1.0129065
1.0128727
1.014901
1.01478
1.0155536
1.0151458
1.0159287
1.0155401
1.0151568
0.999428
1.0015328
1.0008165
0.99895631
0.9969754
0.99471614
0.99145088
0.98832216
0.98504522
0.98346176
0.9824519
0.9823288
0.98300046
0.98477855
0.98758245
0.99062619
0.99513447
0.9996266
1.0047171
1.0079948
1.0116113
1.0150261
1.0128904
1.0136569
1.0179615
1.0172524
1.0151198
1.0157629
1.0191184
1.0193255
1.0177994
0.99979418
1.002427
1.0011746
0.99956023
0.99694666
0.9946144
0.99195304
0.98865059
0.98531489
0.98272433
0.98186946
0.98222173
0.98238607
0.98380433
0.98651621
0.9900307
0.99469822
0.99949219
1.0037199
1.0075784
1.011601
1.0160453
1.0135311
1.0141848
1.020189
1.0208793
1.0162432
1.0157133
1.0199849
1.0211777
1.0188712
1.0003606
1.002522
1.0013455
1.000178
0.99750245
0.99467428
0.99205295
0.98851639
0.98558234
0.98224892
0.98152428
0.98242538
0.98230524
0.983419
0.98606456
0.98930031
0.99428713
0.99851007
1.0022311
1.0071195
1.0113288
1.0158486
1.0147328
1.0152888
1.0201093
1.0228482
1.018609
1.0171055
1.0191881
1.0207322
1.0185886
1.000915
1.0017932
1.0011488
1.000362
0.99818815
0.99486996
0.99200882
0.9883255
0.98552892
0.98239758
0.98174524
0.98246521
0.98240357
0.98359034
0.9861066
0.98883539
0.99313505
0.99737461
1.0009141
1.0063445
1.0108482
1.0147776
1.0159619
1.0179124
1.0193026
1.0210099
1.020005
1.0201109
1.0197534
1.0202694
1.019692
1.0012504
1.0007851
1.0007446
0.99998344
0.99837569
0.99513236
0.99209103
0.98843191
0.98549312
0.98294695
0.98223661
0.98194888
0.98223836
0.98394011
0.9861055
0.98849905
0.99209857
0.99640204
0.99953491
1.0064122
1.0109825
1.0136552
1.0164465
1.020106
1.0202639
1.0188198
1.0204801
1.0227125
1.0213147
1.020373
1.0201739
1.0013356
1.0002264
1.0004728
0.99936797
0.99783513
0.99539351
0.99233785
0.98881266
0.98557825
0.98351863
0.98246954
0.98109615
0.98205462
0.9837118
0.98567725
0.98777187
0.99133677
0.99535797
0.9986502
1.0070032
1.0108293
1.0120358
1.0168504
1.0214244
1.0223534
1.0194379
1.0220688
1.0248797
1.0231297
1.020538
1.0190895
1.0010407
1.0005002
1.0005259
0.99905328
0.99724378
0.99559795
0.99248535
0.98915387
0.98555023
0.98377171
0.98219249
0.98057731
0.98174143
0.98307721
0.9845664
0.98695647
0.99078435
0.99482466
0.99796142
1.0065072
1.0102222
1.0104674
1.0177744
1.0229213
1.0225445
1.0204432
1.0237266
1.0270636
1.0257764
1.0220383
1.0191146
1.0003523
1.0012224
1.0008677
0.99935994
0.9971569
0.99571183
0.99226132
0.98908916
0.98537644
0.98353712
0.98179555
0.98061771
0.98148937
0.98258285
0.98385193
0.98670941
0.99078135
0.99488752
0.99759508
1.0047658
1.0092535
1.0099511
1.0172164
1.0236876
1.0221333
1.0205659
1.0237644
1.0274247
1.0275056
1.0246987
1.0211954
0.99985863
1.0017516
1.0012389
1.0000191
0.99765551
0.99561024
0.99191958
0.9887709
0.98528001
0.98321421
0.98147695
0.98098616
0.98163295
0.98227334
0.98410371
0.98714041
0.99046461
0.99452421
0.99757921
1.0027989
1.0077771
1.0109514
1.0155228
1.0226018
1.0228097
1.0219216
1.0243076
1.0261563
1.0271602
1.0262292
1.0238732
0.99978829
1.0016404
1.0013253
1.000283
0.99820225
0.99545806
0.99195777
0.98871556
0.98549138
0.98314861
0.98128258
0.98155868
0.98177989
0.98213415
0.98434406
0.9873481
0.98980803
0.9932953
0.99755519
1.0012404
1.0062712
1.0124675
1.0151501
1.0200006
1.0225588
1.0249717
1.026545
1.0256971
1.0257855
1.0260485
1.0253641
1.0004327
1.0012089
1.0010263
1.00003
0.998403
0.99545841
0.99264806
0.98919787
0.98612817
0.98334762
0.98153745
0.98190939
0.98167851
0.98196711
0.98392366
0.98681956
0.98918164
0.99161637
0.99770207
1.0000793
1.0046804
1.0126617
1.0165925
1.0174889
1.0209956
1.0269427
1.0283042
1.0263335
1.0240485
1.024604
1.0254283
1.0011234
1.0009859
1.0006901
0.99980696
0.99826533
0.99580384
0.99345265
0.98985493
0.98686216
0.98381893
0.98199689
0.98141384
0.9816908
0.98172412
0.9832088
0.98615035
0.98800616
0.99006861
0.9979533
1.0001113
1.0031128
1.0114292
1.0181701
1.0163545
1.0204523
1.0267304
1.0289692
1.0275626
1.0239041
1.0229959
1.0243721
1.0249484
1.0247783
1.0239774
1.0216497
1.0190082
1.0192139
1.0214422
1.0199824
1.0149537
1.0131659
1.0155763
1.0157253
1.0142167
1.0168405
1.0188111
1.0152036
1.0108262
1.0094195
1.0091854
1.0071857
1.0036511
1.0047063
1.004732
1.020455
1.0208959
1.0213715
1.0211828
1.0215085
1.0226699
1.0224531
1.0186646
1.0148346
1.0148008
1.0158503
1.013985
1.0115365
1.0129349
1.0147385
1.0133809
1.0118594
1.0121143
1.0134487
1.0124268
1.0083928
1.007446
1.0043222
1.018411
1.0185757
1.0185697
1.0183954
1.0181206
1.0178138
1.0167965
1.0160645
1.0172675
1.0191429
1.0189566
1.0162811
1.0137513
1.0129322
1.0119085
1.0106283
1.0106261
1.0104623
1.0113184
1.0114008
1.0096307
1.0102978
1.0090963
1.0190836
1.0181761
1.0171061
1.0150517
1.0123733
1.0108514
1.0118795
1.0148313
1.0173123
1.0176037
1.0162588
1.0152743
1.0157371
1.0161431
1.0149299
1.0134247
1.011898
1.0098155
1.0086878
1.006775
1.0054955
1.0074628
1.0097693
1.0144614
1.0146487
1.0144495
1.0131335
1.0119483
1.0127519
1.0146956
1.0155561
1.0142953
1.01183
1.0098713
1.0099388
1.0123774
1.0148257
1.0158479
1.0155688
1.0143802
1.0128471
1.011117
1.0079996
1.0058633
1.0066339
1.0078891
1.008969
1.0094443
1.0101025
1.0111158
1.0127336
1.0146761
1.0156162
1.0146304
1.0122575
1.009402
1.0077612
1.0081932
1.0097245
1.0106008
1.0106917
1.0108649
1.0115353
1.0128056
1.0130876
1.0119584
1.0110295
1.0113423
1.0102834
1.0084382
1.0089247
1.0088458
1.008637
1.0087122
1.0089696
1.0092387
1.0093885
1.0094366
1.0096535
1.0106863
1.0115487
1.0109818
1.0089124
1.0066711
1.0056077
1.0064003
1.008552
1.0103698
1.0116123
1.012902
1.0144951
1.0138188
1.0108021
1.0101415
1.0087977
1.0069381
1.0050227
1.0037068
1.0033055
1.0039905
1.0058241
1.0082815
1.0103694
1.0110975
1.0101759
1.00859
1.0074775
1.0069473
1.0068854
1.0069501
1.0070061
1.0073989
1.0086419
1.0109049
1.0119689
1.0081933
1.0076981
1.0072416
1.0065069
1.0055528
1.0046046
1.0037987
1.0035326
1.0037805
1.0042084
1.0046069
1.0049483
1.0054872
1.0063795
1.0078453
1.0092067
1.010281
1.0102594
1.0089982
1.0070258
1.0054185
1.0044852
1.0040315
1.0013099
1.0021099
1.0036686
1.005575
1.0072549
1.0079629
1.0073721
1.0057856
1.0035555
1.0015051
1.0002822
1.0000681
1.0010123
1.0029068
1.0053622
1.007952
1.0099705
1.0108111
1.0105031
1.0090888
1.0068712
1.0039731
1.0013676
0.99797113
0.99936137
1.0012952
1.0034059
1.0052202
1.0061975
1.0062409
1.0052212
1.0035505
1.0020232
1.0011885
1.0011856
1.0018662
1.0026953
1.0031895
1.0036013
1.0043211
1.0054801
1.0068162
1.0077229
1.0072691
1.0058861
1.0040538
1.0000212
1.0005018
1.0004252
1.0004772
1.0003714
1.0005318
1.000778
1.001117
1.0017492
1.0027119
1.003782
1.0047565
1.0053011
1.0050573
1.003848
1.0020018
1.0003944
0.99979211
1.0003358
1.0018601
1.0035908
1.0050626
1.0059753
1.0012447
1.0010979
1.0001578
0.99880954
0.99741809
0.99672429
0.99694476
0.99801706
0.99968381
1.001682
1.0037063
1.0054903
1.0065888
1.0065663
1.0052092
1.0028993
1.0002962
0.99830405
0.99750088
0.99778303
0.99889673
1.0010251
1.0040304
0.99931339
0.99934059
0.99897279
0.9984246
0.99790468
0.99767068
0.99769521
0.9980003
0.99863851
0.99963619
1.0009018
1.0023751
1.0038076
1.0047247
1.0047039
1.0034975
1.0016896
1.0000131
0.99863935
0.9976922
0.99736363
0.99803632
1.0002789
0.99640035
0.99696936
0.99778902
0.99862232
0.99931251
0.99969413
0.9996504
0.99930135
0.99874476
0.99819922
0.99796136
0.99844736
0.99950775
1.0006465
1.0014641
1.0018778
1.0018991
1.001508
1.0009388
1.0002269
0.99932894
0.99879299
0.99912313
0.99407242
0.99512735
0.99655201
0.99809928
0.99943931
1.0003436
1.0006179
1.0002451
0.99941149
0.99828388
0.997312
0.99678323
0.99678355
0.99724052
0.99795411
0.99883462
0.99991168
1.0010558
1.0020731
1.0024719
1.0021588
1.0013022
1.0001549
0.99277107
0.99380151
0.99523989
0.99691886
0.99862331
1.0000307
1.0008194
1.0009387
1.0002852
0.99904877
0.9977444
0.99663174
0.99585303
0.99538752
0.99536069
0.99589578
0.99717483
0.99925081
1.0014939
1.0032015
1.0038006
1.0033128
1.0016581
0.99306156
0.99392544
0.99491633
0.99617719
0.99751852
0.99883073
0.99994749
1.0004719
1.0001848
0.99914133
0.99757464
0.99595977
0.99475
0.99406927
0.99382483
0.99418112
0.99541531
0.99765605
1.0005748
1.0033383
1.0049283
1.0046952
1.0029394
0.99469407
0.99524924
0.99571904
0.99618804
0.99690878
0.99773687
0.99847303
0.99898951
0.99897563
0.99821284
0.99678112
0.9950906
0.99378486
0.99303589
0.9930053
0.99375057
0.99536425
0.99783109
1.00102
1.0039709
1.0056557
1.0052224
1.0032598
0.99614779
0.99629979
0.99620533
0.99607916
0.9961582
0.99657936
0.99728202
0.99793795
0.99828208
0.9978777
0.99690377
0.99552251
0.99426131
0.9932468
0.9929044
0.99344701
0.99501529
0.99761344
1.0008011
1.0036979
1.0053077
1.0048469
1.0022929
0.99592866
0.99626836
0.99634652
0.99630132
0.99637271
0.99665691
0.99716988
0.99785866
0.99827907
0.99817085
0.99753336
0.9965785
0.99537678
0.99428521
0.99357937
0.99356738
0.99456228
0.99683629
0.99991285
1.0026768
1.0042318
1.0039679
1.0015053
0.99539376
0.99595821
0.99656927
0.99715519
0.99784546
0.998291
0.99839575
0.99809793
0.99760437
0.99713222
0.99676227
0.99644136
0.99610735
0.99549286
0.99482094
0.99448802
0.99526953
0.99737541
1.0001674
1.0027723
1.0043023
1.0039523
1.0011657
0.99520472
0.99588326
0.99666317
0.99740446
0.99833923
0.99906169
0.99921244
0.99897542
0.99839105
0.99776485
0.99722175
0.99681935
0.99632003
0.99542919
0.99449659
0.99433139
0.99552532
0.99801897
1.0013507
1.0045672
1.0061747
1.0050513
1.0008715
0.99590232
0.99647753
0.99692562
0.99753817
0.99867845
1.00008
1.0013064
1.0016733
1.0012762
1.0004689
0.99920559
0.99739495
0.99487572
0.99259236
0.99157025
0.99237546
0.99524485
0.99983599
1.0048568
1.0082359
1.0081835
1.0042583
0.99755582
0.99646124
0.99726459
0.99835763
0.99962748
1.0011818
1.0028164
1.0035452
1.0031979
1.0019291
1.0003501
0.9985222
0.99617314
0.99350408
0.99165083
0.99185613
0.99442122
0.99862562
1.0032349
1.0068008
1.0077266
1.0050039
0.99926198
0.99250659
0.99756423
0.99854518
0.99994667
1.0014798
1.0031946
1.0041271
1.0039881
1.0027962
1.0011594
0.99946885
0.99789116
0.99666685
0.99589615
0.99547422
0.99601679
0.99829166
1.0014751
1.0039288
1.0045814
1.0029348
0.99921404
0.99498702
0.99186623
0.99820104
0.99922067
1.0009846
1.0030422
1.0051405
1.0063916
1.0061135
1.0039803
1.0008479
0.99817629
0.99701197
0.99738936
0.99867996
1.0001601
1.0013874
1.002073
1.0020598
1.0011807
0.99925629
0.9974106
0.99658399
0.99596896
0.99490253
1.0005376
1.0016577
1.0034704
1.0054537
1.0071333
1.0080596
1.0066202
1.0031597
0.99964362
0.99764013
0.99781834
0.99990397
1.0025157
1.0045286
1.0049264
1.0028078
0.99921539
0.99627655
0.99503352
0.99556435
0.99753403
0.99892896
0.9985859
1.0079544
1.0072211
1.0063457
1.0053536
1.0046396
1.0040718
1.0038826
1.003512
1.0032585
1.0038055
1.004771
1.005124
1.0049667
1.0044185
1.003185
1.0003437
0.9960828
0.99303505
0.99291216
0.99521361
0.99954372
1.0038476
1.0044221
1.014106
1.0110855
1.0067594
1.0032997
1.0020126
1.002734
1.0046996
1.0070863
1.0094178
1.0109809
1.0106449
1.0083938
1.0047664
1.0014601
0.99985175
0.99870407
0.99581038
0.99269387
0.9930423
0.99757354
1.003497
1.0072728
1.0048906
1.0104181
1.0107168
1.0095619
1.0076504
1.0070312
1.0078491
1.0092176
1.0101659
1.0104444
1.0103392
1.0090221
1.0064239
1.0038198
1.0016969
0.9996921
0.99902071
0.99938602
0.99930284
0.99873089
1.0003413
1.0033618
1.0045785
1.0004022
1.0086251
1.0095097
1.0118929
1.0140631
1.014514
1.0130959
1.0117546
1.0107126
1.0088044
1.0064025
1.0056225
1.0058544
1.0053787
1.0045656
1.0046616
1.0050629
1.0038843
1.0019115
1.0000891
0.99869383
0.99822997
0.99787375
0.99657553
1.0115772
1.0111986
1.0112344
1.0122729
1.0143649
1.0155156
1.0135649
1.00936
1.0058159
1.0045231
1.0054968
1.0085201
1.0107347
1.0097461
1.0076284
1.0066339
1.0052358
1.001264
0.99714925
0.99422245
0.99343163
0.99503348
0.9999064
1.0115354
1.0111051
1.009706
1.0084534
1.008143
1.0084485
1.0096492
1.0104827
1.0087215
1.0052507
1.0056283
1.0096753
1.0116457
1.0097038
1.0078753
1.0073568
1.0046069
0.99915841
0.9965276
0.99603111
0.99552915
0.99768699
1.0038127
1.0027009
1.0038001
1.0038154
1.0037427
1.0037876
1.0038646
1.0049764
1.007866
1.0116475
1.0123405
1.007748
1.0045627
1.0080573
1.0099704
1.0043492
1.0006279
1.0027405
1.0044084
1.0039001
1.0027072
1.0013487
0.99898344
0.99777265
0.99076801
0.99446338
0.99772932
1.0001027
1.001897
1.002879
1.0034803
1.0041143
1.0050624
1.0073869
1.0090317
1.0059826
1.0013268
1.001258
1.0035779
1.0049793
1.0049377
1.0056197
1.0079633
1.0087683
1.0048622
0.99756459
0.99138133
0.9843348
0.98704608
0.99192031
0.99655461
0.99913125
0.99931342
0.99812773
0.99806346
0.9994383
1.000118
1.0000402
1.0006739
1.0010397
1.0001194
0.99917008
1.0015855
1.0063505
1.0088228
1.0073359
1.0052383
1.0028146
0.99897741
0.99472228
0.98579528
0.98474024
0.98429967
0.98619497
0.99009164
0.99277542
0.99301362
0.99096057
0.98960943
0.99108242
0.99342541
0.99462425
0.99616047
0.99960561
1.0018378
1.0012201
1.0015273
1.0039537
1.0035082
0.99888126
0.99480073
0.99378856
0.99558053
0.98170346
0.9818979
0.98051118
0.97864755
0.97781306
0.97969254
0.98321498
0.98627324
0.98698843
0.98682622
0.98863552
0.99186944
0.99368693
0.99450659
0.99722299
0.99931949
0.99736139
0.99421887
0.99217591
0.99007815
0.98868469
0.99082786
0.99607705
0.97319174
0.97507542
0.97576136
0.97532888
0.97432963
0.97385009
0.97542162
0.97981801
0.98486617
0.9878419
0.98868125
0.98869615
0.98909708
0.98833704
0.98632473
0.98595971
0.98721669
0.98730021
0.98694456
0.98719673
0.98806399
0.99057655
0.99564507
0.96706886
0.96912004
0.97203272
0.97477973
0.97665572
0.97678075
0.97602006
0.97626899
0.97873469
0.98213228
0.98309039
0.98188798
0.98000266
0.97942646
0.978457
0.97668288
0.97677862
0.98002214
0.98426729
0.98849033
0.99154001
0.99215284
0.99276658
0.96861688
0.96850244
0.96983339
0.97242755
0.9753906
0.97715728
0.97684646
0.97488772
0.97224206
0.97041914
0.97047338
0.971287
0.97204062
0.97278715
0.97546609
0.97816148
0.97912683
0.97967233
0.98143398
0.98416706
0.98680978
0.98678854
0.98439167
0.9722134
0.97062879
0.96859141
0.96763813
0.96789877
0.96935733
0.97102003
0.97111261
0.96955899
0.96717038
0.96573041
0.96610023
0.9679448
0.97071912
0.97432808
0.97842696
0.9815582
0.98155793
0.98032277
0.97905028
0.97796947
0.97660975
0.97461761
0.96922058
0.96943198
0.96813094
0.9661156
0.96425345
0.96334395
0.96401911
0.96562406
0.96760873
0.96952489
0.97107645
0.97216383
0.9729709
0.97365474
0.97381994
0.97399094
0.97418975
0.9738369
0.97221189
0.9703493
0.96977308
0.96947665
0.9705759
0.96325114
0.9646597
0.96617678
0.96734539
0.96795084
0.96796094
0.96766856
0.96774608
0.96815547
0.96917111
0.97088521
0.97271619
0.97393294
0.97374687
0.97232546
0.96988639
0.96720318
0.96539367
0.9643849
0.96424465
0.96556871
0.96821201
0.97193846
0.96534861
0.9653161
0.96634578
0.96810623
0.96994539
0.97114323
0.97143552
0.97127157
0.97066586
0.9695535
0.96842875
0.96754101
0.96689479
0.96642503
0.96560794
0.96474988
0.9641861
0.96463052
0.96650398
0.9691825
0.97164384
0.97282383
0.97343659
0.97103335
0.96988117
0.96886221
0.96850285
0.96864696
0.96891237
0.96900652
0.96896194
0.96856064
0.96777174
0.96659759
0.96511524
0.96375777
0.96298773
0.96328021
0.96440953
0.96659918
0.96919454
0.97186124
0.97347921
0.9736785
0.9722114
0.96962261
0.97192069
0.97134991
0.97025653
0.96902203
0.96782356
0.96645705
0.96521883
0.96420516
0.96385528
0.96445854
0.96562252
0.96700206
0.96844447
0.96978346
0.97085271
0.97176794
0.97214417
0.97161277
0.97042952
0.968969
0.96775188
0.96701706
0.96699662
0.96873415
0.96877476
0.96866795
0.96870604
0.96878566
0.96876739
0.96862033
0.9683374
0.96822194
0.96848856
0.96924112
0.97040332
0.97156216
0.97217756
0.97207443
0.9712326
0.96998472
0.96871609
0.96796333
0.96798568
0.96861192
0.96886263
0.96874942
0.97102074
0.97044204
0.97016278
0.97029365
0.97090013
0.97187314
0.9729474
0.97380506
0.9739316
0.97334687
0.97246059
0.97153371
0.97067101
0.96976356
0.96872223
0.96774669
0.96747638
0.96794792
0.96865228
0.96926767
0.96956146
0.96902806
0.96787874
0.97602601
0.97542669
0.97472352
0.97399609
0.97334404
0.97287376
0.97253305
0.97249697
0.97261334
0.97251085
0.9721317
0.97150805
0.97084667
0.97016939
0.96962088
0.96947426
0.96961159
0.96983663
0.96988339
0.96958392
0.96930866
0.96946806
0.97027369
0.97719424
0.97714745
0.97707615
0.97671583
0.97587676
0.97450515
0.97298185
0.97184751
0.97110454
0.97089411
0.97091646
0.97109332
0.97144376
0.97204683
0.97275301
0.97351307
0.97407976
0.97419914
0.97385638
0.97322678
0.97284858
0.97280327
0.97337338
0.97715934
0.97690094
0.97693957
0.97710688
0.97727077
0.97718298
0.97682477
0.97641404
0.97604091
0.97572965
0.97542464
0.97528899
0.97531897
0.97550049
0.97584099
0.97604397
0.97598598
0.97561005
0.97515897
0.97467758
0.97416958
0.97349198
0.97295146
0.98193647
0.98099962
0.98020449
0.97967754
0.97945281
0.97943441
0.97948886
0.97946832
0.97936134
0.97927698
0.97904797
0.97865007
0.9781836
0.97774275
0.97718096
0.97649501
0.97575183
0.97516349
0.97480403
0.97480019
0.97533346
0.97588342
0.97597216
0.98516165
0.98457992
0.98389161
0.98319041
0.98247547
0.98176695
0.98106509
0.98047454
0.98016858
0.98011418
0.98025101
0.98030948
0.98008727
0.97962672
0.97909711
0.97882333
0.97892586
0.97903875
0.97893816
0.97859349
0.97815713
0.97784171
0.97754785
0.98690666
0.98650118
0.98604497
0.98546355
0.98492896
0.98457911
0.98431422
0.98402795
0.98370673
0.98336485
0.98296522
0.98244762
0.98172064
0.98090611
0.98035388
0.980268
0.98060202
0.9809964
0.98108779
0.98048915
0.97956367
0.978887
0.97872553
0.9891688
0.98881526
0.98860123
0.98832494
0.98792624
0.98751475
0.98711509
0.98660335
0.98597214
0.98531324
0.98472455
0.9843096
0.98412435
0.98410941
0.98413568
0.98407463
0.98387315
0.9836431
0.98356548
0.98361884
0.98369019
0.98373765
0.98379619
0.99239775
0.99179439
0.99121963
0.99065907
0.99014959
0.98969682
0.98940531
0.98920061
0.98908052
0.98895892
0.98878194
0.9885767
0.98845512
0.9884784
0.98853554
0.98827351
0.98768624
0.986864
0.98611281
0.98564952
0.98545678
0.98509708
0.98480873
0.99517479
0.99461423
0.99397652
0.99338336
0.99289361
0.992492
0.99222119
0.99217867
0.99222066
0.99212767
0.99175389
0.99108878
0.99027858
0.98963507
0.98933513
0.98942745
0.98961868
0.98959172
0.98933112
0.98891352
0.98858517
0.98835119
0.98825172
0.99735056
0.99693325
0.99642729
0.99589614
0.99542417
0.99500211
0.99458986
0.99423905
0.99400852
0.99392258
0.9938894
0.99381464
0.99356307
0.99316705
0.9928121
0.99243238
0.99216775
0.99187303
0.99156694
0.99136261
0.99143715
0.991634
0.99200928
0.99853271
0.99830146
0.9980974
0.99798452
0.99795031
0.99788531
0.99765891
0.99722011
0.99662738
0.99604493
0.99564985
0.99545402
0.99534026
0.9950654
0.99469844
0.9942608
0.99386755
0.99363323
0.99353946
0.99351388
0.99346199
0.99320612
0.99291
1.0001891
0.99989556
0.9995204
0.99912797
0.99879498
0.9985807
0.99841167
0.99818773
0.99791919
0.99767966
0.99749422
0.99733014
0.99716241
0.9969634
0.99671295
0.99641338
0.99623175
0.99616469
0.99618313
0.99614864
0.99596649
0.99558323
0.99526733
1.0006675
1.0005633
1.0003643
1.0001219
0.99993534
0.99983964
0.99986796
0.99992579
0.99990672
0.99978447
0.99961594
0.99943491
0.99920618
0.99893966
0.99869918
0.9985191
0.99844184
0.99846124
0.99849955
0.99842853
0.99827803
0.99804315
0.99804509
1.0015165
1.0015406
1.0016067
1.0016194
1.0015349
1.0013566
1.001121
1.0008974
1.0006562
1.0004327
1.0002534
1.0001679
1.0001704
1.0002108
1.0002272
1.0001402
0.99998055
0.99977583
0.9996096
0.99952467
0.999497
0.99955495
0.9996264
1.002279
1.0021822
1.0021702
1.0021945
1.0021775
1.0021024
1.0019905
1.0018587
1.0017007
1.0014983
1.0012604
1.0010564
1.0009708
1.000997
1.0010912
1.0011404
1.0010794
1.0009356
1.0008062
1.0007674
1.0008297
1.0009798
1.0010659
1.003235
1.0030766
1.0028771
1.0027117
1.0025952
1.0025022
1.0024274
1.0024203
1.0024927
1.0025891
1.002627
1.0025335
1.0023118
1.0020439
1.0018606
1.0017934
1.001818
1.0018555
1.0018352
1.0017242
1.0015874
1.0014826
1.001506
1.0033787
1.0033943
1.003376
1.0033325
1.0032538
1.0031276
1.0029357
1.0027166
1.0025305
1.0024502
1.0025017
1.0026268
1.002722
1.0027025
1.0025893
1.0024833
1.0024604
1.0025001
1.0025559
1.0025892
1.0025561
1.0024987
1.0024098
1.0030295
1.0030273
1.0030458
1.0030906
1.0031624
1.0032477
1.0033213
1.0033503
1.0033182
1.0032534
1.0031961
1.0031773
1.0031753
1.0031224
1.0030074
1.00285
1.0027016
1.0026122
1.0025885
1.0026213
1.0026856
1.0027468
1.0028209
1.0036286
1.0036058
1.0035366
1.0034351
1.0033163
1.0032198
1.0031685
1.0031821
1.0032188
1.0032123
1.0031397
1.0030492
1.0030045
1.0030348
1.0031217
1.0032195
1.0032594
1.0032359
1.0031677
1.0030878
1.0030493
1.0031141
1.0033261
1.0031239
1.0031922
1.003304
1.0034266
1.0035295
1.0035678
1.0035206
1.003418
1.0033121
1.003244
1.0032185
1.0032122
1.0032045
1.0031771
1.0031498
1.0031361
1.0031531
1.0031807
1.0031814
1.003127
1.0030377
1.0029925
1.0031208
1.0035612
1.0034508
1.0032909
1.0031419
1.0030618
1.003057
1.0031063
1.0031598
1.003185
1.0031873
1.0032016
1.003263
1.003356
1.0034324
1.0034441
1.0033564
1.0032221
1.0031036
1.003038
1.0030531
1.0031566
1.0033273
1.0035946
1.0033807
1.0034424
1.0034962
1.0035333
1.003529
1.0034949
1.0034598
1.0034466
1.0034693
1.0034783
1.0034314
1.0033167
1.0032048
1.0031759
1.003237
1.0033627
1.0034844
1.0035456
1.0035816
1.0036191
1.0036867
1.0038236
1.0040598
1.0036021
1.003569
1.0035553
1.0035758
1.0036142
1.0036381
1.0036309
1.0035746
1.0034993
1.0034435
1.0034369
1.0034577
1.0034459
1.0033778
1.0032964
1.0032347
1.003242
1.003312
1.0034478
1.0035753
1.0036268
1.0036216
1.0035987
1.0036994
1.0036954
1.0036467
1.0035768
1.0035003
1.0034337
1.0033952
1.0034015
1.0034154
1.0034231
1.0034364
1.0034604
1.0034773
1.0034877
1.0034777
1.0034733
1.0034989
1.0035392
1.0035617
1.0035589
1.0035104
1.0034411
1.0034211
1.0035304
1.0035864
1.0036594
1.0037163
1.0037236
1.0036874
1.0036409
1.003613
1.0036063
1.0036236
1.0036295
1.0035696
1.0034938
1.0034472
1.0034179
1.0034283
1.003457
1.003468
1.0034345
1.0033773
1.0033593
1.0034752
1.003729
1.0038509
1.0038199
1.003828
1.0038768
1.0039292
1.0039537
1.0039392
1.0038618
1.0037391
1.0036315
1.0035711
1.0035935
1.0036857
1.0037945
1.0038678
1.003875
1.0038094
1.003696
1.0035743
1.0034933
1.0034977
1.0036128
1.0038428
1.0040414
1.004014
1.0039395
1.0038544
1.0037873
1.0037514
1.0037409
1.0037161
1.0036925
1.0036856
1.0036784
1.0036793
1.0036992
1.0036967
1.0036721
1.0036402
1.0035831
1.0035694
1.0035971
1.0036249
1.0036603
1.0036503
1.0036606
1.0035415
1.0035301
1.0034839
1.003435
1.003407
1.0034371
1.0035322
1.003666
1.0038035
1.0039272
1.0039753
1.0039173
1.0038063
1.0036583
1.0035035
1.0034475
1.0034714
1.0035832
1.0037118
1.003806
1.0038454
1.0037773
1.0037105
1.0039063
1.0038869
1.0038522
1.0038283
1.003794
1.0037367
1.0036761
1.0036421
1.0036277
1.0036069
1.0036139
1.0036129
1.0036116
1.003599
1.0035853
1.0036227
1.0036561
1.0036863
1.0036815
1.0036453
1.0036178
1.003636
1.0037353
1.0039859
1.0040086
1.0040463
1.0040971
1.0041117
1.0040961
1.0040411
1.0039489
1.0038794
1.0038338
1.0037866
1.0037639
1.0037538
1.0037768
1.0037977
1.0037963
1.0038063
1.0037622
1.0036994
1.003683
1.00366
1.0037111
1.0039293
1.0043784
1.0043532
1.0042889
1.0042553
1.0042237
1.0042135
1.0042293
1.0041657
1.004108
1.004125
1.0040923
1.004055
1.0041069
1.0041329
1.0041354
1.0041429
1.0041115
1.0040615
1.0039577
1.0039044
1.0038537
1.0038345
1.0039833
1.004436
1.0044354
1.0043742
1.0043657
1.0043903
1.0044025
1.0044543
1.0044725
1.0044346
1.0044366
1.0043706
1.0042789
1.0042543
1.0042003
1.0042168
1.0042538
1.0042391
1.0042763
1.0042498
1.0042512
1.0042274
1.0042365
1.0043391
1.0043678
1.0043837
1.0043471
1.0043284
1.0042998
1.0042599
1.0042582
1.0042581
1.0042624
1.0043192
1.0043372
1.0043011
1.0042546
1.0042086
1.0042388
1.0042033
1.0041132
1.0041063
1.0041389
1.0041979
1.0041944
1.0041855
1.0042611
1.0041357
1.0041948
1.0042639
1.0042728
1.0042548
1.0042668
1.0042752
1.0042728
1.00427
1.0042617
1.0043339
1.0044311
1.0044062
1.0043858
1.0043981
1.0043447
1.0042772
1.0041873
1.0041675
1.0041577
1.0041501
1.004172
1.0042797
1.0044347
1.004453
1.0044602
1.0044252
1.004421
1.0044615
1.004476
1.0044714
1.0044315
1.0043343
1.0043179
1.00437
1.0043445
1.0043431
1.0043261
1.0043066
1.0044214
1.0044228
1.0044271
1.0044184
1.004433
1.0044786
1.0045506
1.0044376
1.0044271
1.0044049
1.0043959
1.0043758
1.0043185
1.004324
1.0043696
1.0043324
1.0042943
1.0043264
1.0043245
1.0043003
1.0043209
1.0042764
1.0042491
1.0043116
1.0043069
1.0042856
1.0042687
1.0042445
1.0042586
1.004306
1.00438
1.0043815
1.0043593
1.0043825
1.0043696
1.0043015
1.0043094
1.0043631
1.004362
1.0043725
1.004368
1.0043048
1.0043395
1.00439
1.0043299
1.0042942
1.0042597
1.004248
1.0042654
1.0042118
1.0041751
1.0042067
1.0042897
1.0044887
1.004469
1.0044444
1.0044828
1.0045032
1.0044669
1.0044745
1.0045129
1.00449
1.0044719
1.0044512
1.0043825
1.0044088
1.0044316
1.0043946
1.0044058
1.0043446
1.0043281
1.0043976
1.0043438
1.0043037
1.0043313
1.004433
1.0046101
1.0045599
1.0045337
1.0045738
1.0045901
1.0045764
1.0045992
1.0046074
1.0045569
1.004537
1.0045443
1.0045291
1.004556
1.0045095
1.004451
1.0044928
1.0044346
1.0044682
1.0044891
1.0044187
1.0043804
1.004428
1.0045297
1.0044113
1.0043901
1.004415
1.0044554
1.004421
1.004371
1.004381
1.0044162
1.0044217
1.0043947
1.0043851
1.0044458
1.0044878
1.0044149
1.0044336
1.0044913
1.00444
1.0044722
1.0044575
1.0044156
1.0044449
1.004431
1.0044763
1.004147
1.0041681
1.0042289
1.0042383
1.0042045
1.0042285
1.0042729
1.0042576
1.0042774
1.0043344
1.0042965
1.0042804
1.0043237
1.0042839
1.0043253
1.0043567
1.0042517
1.0042658
1.0042802
1.0042923
1.0042735
1.0041945
1.004191
1.0042075
1.0042307
1.004245
1.0041993
1.0041722
1.0042331
1.0042767
1.0042118
1.0041744
1.00424
1.0042398
1.0041828