/*--------------------------------*- C++ -*----------------------------------*\
| =========                 |                                                 |
| \\      /  F ield         | OpenFOAM: The Open Source CFD Toolbox           |
|  \\    /   O peration     | Version:  2406                                  |
|   \\  /    A nd           | Website:  www.openfoam.com                      |
|    \\/     M anipulation  |                                                 |
\*---------------------------------------------------------------------------*/
FoamFile
{
    version     2.0;
    format      ascii;
    arch        "LSB;label=32;scalar=64";
    class       volVectorField;
    location    "5";
    object      U_0;
}
// * * * * * * * * * * * * * * * * * * * * * * * * * * * * * * * * * * * * * //

dimensions      [0 1 -1 0 0 0 0];

internalField   nonuniform List<vector> 
20580
(
(0.14225141 -0.00036020548 -1.3723705e-22)
(0.14280863 -0.00018301923 3.3565792e-20)
(0.14491982 4.515879e-05 3.0951545e-22)
(0.14653842 0.0023874071 3.5653746e-21)
(0.14852081 0.004381484 5.5606309e-23)
(0.15182539 0.0045542125 2.5972881e-21)
(0.1554504 0.0046278334 6.3284247e-20)
(0.15906749 0.0041016539 7.9154784e-21)
(0.16178004 0.0031052715 -8.1588192e-21)
(0.16400081 0.00096693301 0)
(0.1640093 -0.0019998419 -7.7493735e-21)
(0.16282089 -0.0034432321 -1.3593558e-19)
(0.16092985 -0.0058967006 -9.0180518e-21)
(0.15741638 -0.010121001 8.8110826e-21)
(0.15256557 -0.013488464 4.5734964e-20)
(0.14797754 -0.016269288 3.2542946e-20)
(0.14463944 -0.020896566 -2.3254632e-20)
(0.14192345 -0.0238548 2.994412e-21)
(0.1410034 -0.025791256 -6.7349031e-21)
(0.14186025 -0.026790099 1.4486749e-20)
(0.14334501 -0.028888687 4.1999591e-22)
(0.14461933 -0.032146715 1.3213596e-20)
(0.14553338 -0.033879027 3.4171169e-21)
(0.14670553 -0.036576895 -2.2369201e-21)
(0.14837649 -0.04020338 6.780743e-21)
(0.15053673 -0.044576466 -6.4988135e-21)
(0.15275881 -0.049885933 1.5690475e-21)
(0.15458659 -0.054360155 -3.9908455e-22)
(0.15747735 -0.058600097 1.8871015e-20)
(0.1591747 -0.061987936 -2.8766748e-20)
(0.16280107 -0.070895096 -4.845299e-21)
(0.14243332 -0.0007968996 0)
(0.14291475 -0.00039723686 5.5358626e-20)
(0.14456635 0.00069976371 -1.1958777e-20)
(0.14620455 0.002927443 2.5881175e-20)
(0.14867078 0.0041817891 -2.5899923e-20)
(0.15179833 0.0046176963 1.9403226e-21)
(0.15546361 0.0044945542 6.8491539e-20)
(0.15918475 0.0039069218 8.6145214e-21)
(0.16225799 0.0025690272 -2.0847049e-20)
(0.16398989 0.0014872445 5.1972081e-21)
(0.1643314 -0.0013666149 1.1390119e-20)
(0.16351507 -0.0033815172 -2.2798273e-20)
(0.16171797 -0.0055642968 -2.0915704e-20)
(0.15834358 -0.0089369456 -1.1748242e-21)
(0.15403587 -0.01314395 -4.1265896e-20)
(0.14988339 -0.016821609 -3.5322463e-21)
(0.14601156 -0.020353669 -1.925744e-20)
(0.14271636 -0.022540395 9.0624053e-21)
(0.14161659 -0.024834875 0)
(0.14229828 -0.025815965 1.7230266e-20)
(0.1441511 -0.027860173 0)
(0.14525622 -0.030427525 3.6069183e-20)
(0.14618888 -0.032027004 -4.1670642e-20)
(0.14750101 -0.033929333 6.3203546e-23)
(0.14946798 -0.037119585 1.6256063e-20)
(0.15213297 -0.041235441 -4.0747116e-21)
(0.15457651 -0.046355486 1.5283022e-21)
(0.15590796 -0.049335516 2.8204992e-21)
(0.1577349 -0.052687983 -2.1269867e-20)
(0.16115226 -0.055247106 9.0878192e-21)
(0.1652624 -0.064197308 2.3557182e-20)
(0.14256749 -0.0012152482 0)
(0.14297536 -0.0010184281 0)
(0.14455703 0.0010898144 4.0373496e-20)
(0.14622938 0.003346058 -1.5395679e-19)
(0.14871227 0.0038724954 -1.8243218e-20)
(0.15176181 0.0046405435 1.2351416e-21)
(0.15541229 0.0043470391 5.268212e-21)
(0.15921061 0.0035622499 1.4465962e-20)
(0.16234942 0.0021047751 0)
(0.16426939 0.0013348057 -5.0968497e-20)
(0.16479963 -0.0005243879 1.5676598e-21)
(0.16417567 -0.0033258829 1.697132e-20)
(0.1625832 -0.0056720882 0)
(0.15957775 -0.0077932981 2.9254465e-21)
(0.15555602 -0.012120869 -3.895042e-21)
(0.15134512 -0.016821912 -1.0918836e-20)
(0.14715717 -0.019674583 7.6162648e-21)
(0.14369169 -0.021363793 3.2259277e-21)
(0.14231036 -0.023954933 -6.4857454e-21)
(0.1427952 -0.025550089 0)
(0.14475112 -0.027447656 0)
(0.14579052 -0.029190609 -2.3985797e-20)
(0.14648042 -0.030633351 5.2203763e-20)
(0.14808504 -0.032017067 3.0244709e-20)
(0.15033859 -0.034742954 -3.6948495e-21)
(0.15349502 -0.038174454 1.9169853e-21)
(0.15553408 -0.04201029 -1.4674487e-20)
(0.15669222 -0.044151694 -3.0942293e-21)
(0.15830513 -0.046749176 4.6349671e-21)
(0.1623917 -0.05012507 4.3235952e-21)
(0.16699589 -0.057912287 5.0480082e-21)
(0.14275173 -0.0014132739 0)
(0.14304342 -0.0018088225 -1.8181649e-23)
(0.14451743 0.00074967569 3.7461328e-22)
(0.14629804 0.0030640696 -1.9582918e-21)
(0.14869774 0.0036868392 8.9410043e-21)
(0.15164727 0.0046734499 9.4534596e-21)
(0.1553153 0.0042066759 8.7914227e-20)
(0.15916616 0.0031840198 0)
(0.16229173 0.0018786881 -9.1621274e-22)
(0.16433082 0.00076327401 3.4984773e-20)
(0.16507662 1.9440657e-05 -2.1182865e-20)
(0.1647198 -0.0032377846 -5.0330208e-21)
(0.16312299 -0.005766963 -1.330339e-21)
(0.16041368 -0.006985908 3.8863785e-20)
(0.15692667 -0.010787065 1.2520101e-20)
(0.15267113 -0.015783287 -4.9616509e-21)
(0.14808198 -0.018531497 -4.4976806e-20)
(0.14458664 -0.020317711 -7.4947633e-22)
(0.14313503 -0.022897517 2.4682059e-22)
(0.14334657 -0.025182637 -1.0388915e-21)
(0.14515778 -0.027231285 1.4380844e-21)
(0.14621438 -0.028128495 -7.312305e-21)
(0.14677697 -0.029276104 -9.2314781e-23)
(0.14859781 -0.03083415 2.5152288e-20)
(0.15087615 -0.033638886 0)
(0.15415121 -0.036141035 1.8630649e-21)
(0.15598076 -0.037665309 1.2127412e-20)
(0.15673909 -0.039821688 2.8906242e-20)
(0.15874522 -0.042423941 3.7011695e-20)
(0.16349041 -0.045882599 1.8031374e-21)
(0.16783214 -0.05304706 1.1940638e-20)
(0.14293382 -0.0012891141 0)
(0.14307621 -0.002292705 -7.3025254e-20)
(0.14453042 -9.2304853e-05 6.7782969e-20)
(0.1464066 0.0021278796 6.5339987e-20)
(0.14866606 0.0036019218 -3.2282006e-23)
(0.15150443 0.0046083733 3.1415374e-20)
(0.15520212 0.0040156756 0)
(0.15907809 0.0029334039 5.3937842e-22)
(0.16223824 0.0019551126 1.0359699e-21)
(0.16429199 0.00036527548 7.5535636e-20)
(0.16528496 -0.00017453727 -4.7953668e-20)
(0.1652189 -0.0029414917 4.5996753e-23)
(0.1635126 -0.0055336774 3.6448379e-20)
(0.16103772 -0.0069237683 -4.9670234e-20)
(0.15808533 -0.0098361619 3.5642225e-20)
(0.15381554 -0.013971592 1.0857463e-20)
(0.14893496 -0.017047051 -1.6299654e-20)
(0.14538305 -0.019713502 3.3151218e-20)
(0.14385239 -0.021835181 8.191861e-21)
(0.1439313 -0.024465535 0)
(0.14542775 -0.026711332 1.1915757e-21)
(0.1463271 -0.0266245 -2.6359374e-21)
(0.14701218 -0.027151127 -1.9812403e-20)
(0.14923413 -0.028748551 -2.1665582e-21)
(0.15138848 -0.031972578 0)
(0.15409924 -0.033953768 -7.0031494e-20)
(0.15621535 -0.03332492 2.1649923e-20)
(0.1573387 -0.035517043 -8.0477065e-21)
(0.15918324 -0.039416587 2.1728329e-20)
(0.16427949 -0.042331348 -8.7420792e-21)
(0.16871238 -0.048098821 -8.6415542e-21)
(0.14311958 -0.0008461633 1.7091487e-19)
(0.1431266 -0.0020535365 -3.9783558e-22)
(0.14462154 -0.00081620375 1.6910234e-23)
(0.14651406 0.0010548137 -1.0045221e-20)
(0.14864394 0.0035163724 -3.6561243e-20)
(0.15144836 0.0043100693 -7.1423398e-23)
(0.15514897 0.0037884067 -4.3406242e-20)
(0.15900447 0.0029998492 6.2289567e-22)
(0.16224555 0.0021688673 2.268976e-21)
(0.16431279 0.00056206695 -7.503031e-20)
(0.16552323 -0.0008428132 -6.1761565e-20)
(0.16566891 -0.0024709668 -2.0657822e-20)
(0.16400102 -0.004766422 2.0039861e-20)
(0.16165709 -0.0071589585 -3.9453232e-20)
(0.15901875 -0.0094954378 4.6345254e-20)
(0.1549677 -0.012537132 2.945113e-21)
(0.15009206 -0.015859768 -1.0555251e-20)
(0.14623148 -0.019351457 3.7329748e-20)
(0.14447292 -0.021110009 2.4749957e-21)
(0.14447319 -0.023691811 0)
(0.14542479 -0.02551891 2.2453057e-22)
(0.14603165 -0.024891663 1.0742816e-19)
(0.14699614 -0.025214733 3.1828182e-20)
(0.14972396 -0.026247776 0)
(0.15193746 -0.028829287 -7.4385609e-21)
(0.15354469 -0.030933695 5.3766696e-20)
(0.15588912 -0.029664221 -2.9624624e-20)
(0.15849397 -0.031057924 4.3020219e-20)
(0.16053553 -0.036032523 1.4733785e-20)
(0.16460744 -0.039224011 6.3710256e-21)
(0.16845791 -0.042705512 -1.8031697e-20)
(0.14325488 -0.00024057818 -2.449469e-21)
(0.14322681 -0.001163389 -7.3439869e-20)
(0.14472292 -0.00098947124 1.3265083e-22)
(0.14652182 0.00049472924 -3.1001885e-20)
(0.14856065 0.00337777 1.8272097e-20)
(0.15146645 0.003805986 -2.9861741e-20)
(0.15513967 0.0035562961 4.4759779e-21)
(0.15892816 0.0032824513 1.7907847e-22)
(0.16225935 0.0024331554 -1.5336393e-21)
(0.16445396 0.0011051312 -7.2789732e-21)
(0.16577346 -0.0012605874 -4.3151612e-22)
(0.16597564 -0.002072934 -1.0642267e-21)
(0.16462887 -0.0037116413 -7.1659197e-21)
(0.16245765 -0.0070791275 -1.3792728e-22)
(0.15991436 -0.0097023328 -4.1063343e-20)
(0.15609702 -0.012061986 1.0435301e-20)
(0.15144617 -0.014829871 -4.6472091e-22)
(0.14726965 -0.0186496 -7.8968746e-20)
(0.14514965 -0.020857477 0)
(0.14487999 -0.022899243 -4.3511787e-21)
(0.14527488 -0.024075701 1.7172357e-21)
(0.14576353 -0.023599215 4.8491216e-20)
(0.14672256 -0.024234377 5.7465649e-23)
(0.14951063 -0.024727823 5.1409455e-21)
(0.1522928 -0.025776155 -3.014e-21)
(0.15317913 -0.027671347 1.3450606e-21)
(0.15516892 -0.027324291 1.3483148e-20)
(0.15913148 -0.028274314 -9.0845067e-22)
(0.16222849 -0.032348147 4.5281333e-20)
(0.164997 -0.035677403 6.5333416e-21)
(0.16726549 -0.037839676 3.6191212e-21)
(0.1433264 0.00019749981 7.015445e-19)
(0.14334716 2.948789e-05 0)
(0.14480385 -0.00060655692 6.7730451e-20)
(0.14645773 0.00073435394 5.1630461e-20)
(0.14850083 0.0032015447 -9.6388157e-20)
(0.15147434 0.0033355801 -1.0751544e-21)
(0.15504968 0.0034099861 -4.1907288e-20)
(0.15883243 0.0034261654 2.090443e-21)
(0.16227887 0.002651988 1.058488e-21)
(0.16468695 0.0014837993 -7.6519811e-20)
(0.16601393 -0.0011225568 1.6143725e-21)
(0.1662115 -0.0018022075 -8.0129263e-22)
(0.16531598 -0.0029854331 -2.7537009e-21)
(0.1634224 -0.006583021 9.8465032e-21)
(0.16084033 -0.0096532358 2.9636225e-20)
(0.15711258 -0.011778389 6.2534218e-20)
(0.15280667 -0.01391456 6.5546407e-20)
(0.14858036 -0.017383125 -4.5192401e-20)
(0.14593857 -0.020408868 3.8040043e-22)
(0.14518145 -0.022138989 -1.4749321e-22)
(0.14514587 -0.02286556 -2.8846866e-21)
(0.14566987 -0.022359442 3.8041439e-22)
(0.14647946 -0.023509023 0)
(0.14896057 -0.024560012 2.3533957e-21)
(0.15217617 -0.024663256 1.9025623e-20)
(0.15309245 -0.025124257 -1.2316687e-20)
(0.15462666 -0.025679897 1.892261e-20)
(0.15912315 -0.027046829 4.6450277e-20)
(0.16317361 -0.029372073 2.4754332e-21)
(0.16554462 -0.031692507 -1.9692745e-20)
(0.1662214 -0.033635558 -5.3713374e-20)
(0.14332655 0.00021393827 -3.0643357e-19)
(0.14342317 0.00096832862 -3.7077815e-25)
(0.14494904 7.4413388e-05 3.6802699e-20)
(0.14645105 0.0015207045 6.8881663e-20)
(0.14854316 0.0030696063 -2.196793e-21)
(0.15143836 0.0030877834 -1.8040256e-21)
(0.15488021 0.0033505656 9.1155572e-20)
(0.15872638 0.0031740358 7.0664774e-23)
(0.1622836 0.0025849943 -3.601052e-21)
(0.1649115 0.0015352682 1.7431549e-20)
(0.16622647 -0.00073441697 -4.6058002e-20)
(0.16643965 -0.0016726397 0)
(0.16590769 -0.002940508 2.0885273e-21)
(0.16431575 -0.0058152129 -3.5691095e-21)
(0.16173295 -0.0088290499 -1.6458071e-21)
(0.15801667 -0.010943253 -3.9853091e-20)
(0.1539403 -0.012962914 1.3293557e-20)
(0.14988051 -0.015614565 5.5212406e-20)
(0.14691525 -0.019133198 4.0280468e-20)
(0.14555541 -0.02099354 1.4545103e-20)
(0.14496556 -0.021689745 -7.2522809e-21)
(0.14558092 -0.020911381 -5.560388e-22)
(0.14666957 -0.022138355 -1.1380352e-21)
(0.14863633 -0.024135149 1.1784128e-21)
(0.15150688 -0.024017768 2.3479232e-23)
(0.15268633 -0.022819757 2.3677617e-20)
(0.15433821 -0.023726082 -2.5629416e-20)
(0.15868793 -0.025224863 2.9634536e-20)
(0.16304896 -0.026497663 2.644581e-20)
(0.16572342 -0.026535119 -3.1070763e-21)
(0.16617519 -0.028488116 5.0512315e-20)
(0.1433319 -6.8860047e-05 -7.9415943e-19)
(0.14347721 0.0011656766 -9.0718948e-23)
(0.14500376 0.0006974301 -2.8082309e-20)
(0.14641268 0.0021884862 -7.9134361e-20)
(0.14858316 0.0029179859 1.3683333e-22)
(0.15135369 0.0030146807 0)
(0.15476573 0.00330215 6.9622202e-21)
(0.15866825 0.0027451012 1.8597722e-21)
(0.16226046 0.0021574551 8.177983e-21)
(0.1650689 0.0012483246 4.4677311e-21)
(0.16644951 -0.00028347043 -3.747631e-23)
(0.16671858 -0.0017179584 2.5923135e-22)
(0.16639105 -0.0033927813 0)
(0.16503174 -0.0051621372 2.7961068e-20)
(0.16255914 -0.0073334461 -7.1814846e-21)
(0.158866 -0.0094145108 5.2170605e-21)
(0.15494823 -0.011928427 6.5144234e-20)
(0.15111024 -0.014107547 4.4047739e-20)
(0.14797991 -0.017295994 4.3392778e-20)
(0.14610117 -0.019294439 -8.1148052e-21)
(0.14487087 -0.020802089 -1.2999369e-20)
(0.14536293 -0.019668582 -3.9940867e-20)
(0.14695038 -0.020172888 -9.0731497e-21)
(0.14849301 -0.022269947 -2.6913813e-21)
(0.15060182 -0.021990725 8.1095648e-20)
(0.1519506 -0.019864929 -3.1507881e-21)
(0.15418906 -0.021533309 8.6600621e-23)
(0.15782204 -0.022888698 1.0050487e-20)
(0.16189562 -0.023225177 7.0835731e-20)
(0.16480568 -0.020942513 4.4806496e-20)
(0.16654044 -0.021682404 -1.3593962e-20)
(0.14335769 -0.00032894081 7.339037e-20)
(0.14355571 0.00043051238 -1.948865e-22)
(0.14502267 0.00084803006 3.0513175e-20)
(0.14645911 0.0022364307 6.8249385e-22)
(0.14861237 0.002665899 4.1534207e-22)
(0.15131353 0.0029836577 2.8373913e-20)
(0.15472593 0.0031261848 -3.722804e-20)
(0.15865104 0.0023556349 4.8001303e-22)
(0.16226384 0.0016840685 5.3438306e-21)
(0.16515914 0.00058495434 1.5043785e-20)
(0.16661994 0.00019737463 -1.5128907e-20)
(0.1670595 -0.0016588825 9.4656171e-22)
(0.1668049 -0.0036744571 0)
(0.16549486 -0.0046278092 -2.3991802e-21)
(0.16323429 -0.0057895831 -3.6315713e-20)
(0.15985229 -0.0078961542 -2.7655641e-22)
(0.15604026 -0.011208627 6.3377861e-21)
(0.15222254 -0.013163432 -7.3946317e-22)
(0.14906552 -0.015927652 -6.2566927e-21)
(0.14707154 -0.018006063 2.1707648e-22)
(0.14496631 -0.019838531 7.230948e-21)
(0.14486252 -0.018818643 -3.9573905e-20)
(0.14698231 -0.018691676 1.5330215e-21)
(0.14836657 -0.02036553 6.0050241e-21)
(0.14951627 -0.01954316 3.7335705e-20)
(0.15134438 -0.016785102 -6.3770459e-22)
(0.1542096 -0.01898113 -6.5161794e-21)
(0.15702052 -0.020611488 -2.455961e-20)
(0.16008591 -0.020465631 -1.8184455e-21)
(0.16268523 -0.017240328 -7.080053e-20)
(0.16586981 -0.016794662 -4.1401332e-21)
(0.14343972 -0.00026502241 -1.5174241e-19)
(0.14367697 -0.00088257436 0)
(0.1450789 0.00027864041 -4.8112015e-20)
(0.14656479 0.0016571096 -1.3905236e-19)
(0.14865623 0.0022453824 -6.7197172e-20)
(0.15127755 0.002848104 9.9224395e-21)
(0.15466979 0.0027697571 -2.0363144e-21)
(0.15859774 0.0020618032 -2.7287293e-22)
(0.16227511 0.0013641594 7.3641417e-21)
(0.16515179 0.00010780997 3.5670232e-20)
(0.16670767 0.0003889265 2.387314e-20)
(0.1674361 -0.0012279755 -1.3853183e-23)
(0.16714668 -0.003239879 -5.2961343e-20)
(0.16581482 -0.0041641261 0)
(0.16380497 -0.0049052358 -5.3533315e-20)
(0.16096019 -0.0070751599 -3.4772982e-20)
(0.15716494 -0.010497629 -3.0904521e-20)
(0.15331803 -0.012518059 1.2493792e-20)
(0.15011874 -0.015345889 7.2639098e-22)
(0.1480106 -0.016985503 -3.1088327e-22)
(0.14530097 -0.018067608 -1.4254752e-20)
(0.14446769 -0.018092669 5.7944413e-22)
(0.1468956 -0.018330702 7.6267643e-21)
(0.14823839 -0.019347534 1.8109728e-20)
(0.14813273 -0.01823391 -7.4635286e-20)
(0.15050016 -0.015255047 4.319218e-20)
(0.15430893 -0.016228138 -7.4705985e-21)
(0.15668515 -0.017593977 9.2933997e-22)
(0.15847497 -0.01786427 -7.7497904e-20)
(0.16064941 -0.01537703 2.8362869e-20)
(0.16476108 -0.015623469 -1.8403753e-20)
(0.14351309 0.0001081166 1.5414538e-19)
(0.14374285 -0.0020733423 -5.501933e-20)
(0.14508461 -0.00077221909 1.4066942e-22)
(0.14655252 0.00080382137 -2.459809e-21)
(0.14861827 0.0016972159 -7.6299113e-22)
(0.15117369 0.002623477 -7.720379e-21)
(0.15462021 0.0024417968 6.3258418e-20)
(0.15854375 0.0020524806 -3.3986671e-22)
(0.16227406 0.0011968506 2.5303293e-21)
(0.16508337 0.00034101209 -3.3625434e-20)
(0.16674812 0.00021524938 -1.6224365e-22)
(0.16772824 -0.0008738644 4.0077431e-21)
(0.16748102 -0.0024746543 6.0739883e-23)
(0.16611352 -0.0036419173 -2.0866095e-21)
(0.16435859 -0.0047752867 0)
(0.16196863 -0.00678454 0)
(0.15827021 -0.0094468424 1.7747915e-20)
(0.15447213 -0.011527414 -6.979615e-21)
(0.15107789 -0.014409794 -5.4720196e-20)
(0.14866999 -0.016094787 7.1841685e-21)
(0.14582158 -0.016078598 -6.7552938e-21)
(0.14450064 -0.017111293 1.2468383e-20)
(0.14678033 -0.01814022 0)
(0.14796521 -0.017811203 0)
(0.14694288 -0.016495508 0)
(0.14913493 -0.015276264 -3.0374684e-20)
(0.15359364 -0.014333694 -3.4150142e-22)
(0.15641207 -0.014180311 8.3593431e-21)
(0.15752323 -0.014505856 -5.5211588e-21)
(0.15930282 -0.013370114 -1.0567036e-21)
(0.1640362 -0.015051535 6.3247109e-21)
(0.14359613 0.00054653381 1.0568765e-19)
(0.14384812 -0.0023288138 1.0719618e-21)
(0.1450717 -0.0016493738 -3.2233194e-22)
(0.1465346 0.00016677263 1.0960113e-19)
(0.14861577 0.0012427352 0)
(0.1510988 0.0024410737 -1.0549138e-21)
(0.15455262 0.0022218411 3.19888e-21)
(0.15848372 0.0022970993 2.0643763e-20)
(0.16225119 0.0013108387 -1.0227186e-21)
(0.16502802 0.00080968883 1.5453118e-20)
(0.16683848 6.0413415e-06 -2.863101e-21)
(0.16793032 -0.0010546426 0)
(0.16779124 -0.0019383557 -2.796808e-21)
(0.16653097 -0.0030408807 6.9301813e-21)
(0.1649281 -0.0049658895 1.6101643e-20)
(0.1627478 -0.0065820826 -5.497416e-21)
(0.1592004 -0.0081191269 4.4771093e-20)
(0.15555424 -0.0096993129 6.4079691e-21)
(0.15215743 -0.012886065 -6.8546756e-20)
(0.1492348 -0.01491954 9.1773476e-21)
(0.14626171 -0.013994911 -8.2649388e-22)
(0.14486557 -0.015790649 1.934285e-20)
(0.14647593 -0.01733472 -1.9635198e-20)
(0.14724507 -0.015349506 0)
(0.14658474 -0.013114267 -6.4001266e-21)
(0.14807892 -0.014886959 1.3750819e-21)
(0.15201055 -0.013828786 4.8875035e-20)
(0.15548863 -0.012116919 -2.8074111e-20)
(0.1569015 -0.01096085 4.2945591e-21)
(0.15850769 -0.010859462 -3.5544684e-21)
(0.16316752 -0.013583408 4.0187695e-21)
(0.14364427 0.00057071208 -2.5843823e-19)
(0.14401689 -0.0014494629 -1.3498896e-19)
(0.14506223 -0.001668133 6.48418e-22)
(0.1465122 9.5004923e-05 4.4460943e-20)
(0.14853004 0.0011800813 -1.0744346e-19)
(0.15102964 0.002340679 -2.5759267e-22)
(0.15443603 0.0020697555 -4.115424e-21)
(0.15838041 0.0023022376 3.3014339e-22)
(0.16220519 0.0016205021 2.8049892e-21)
(0.16501836 0.001131949 -1.6610539e-22)
(0.1669474 -0.00023533572 -1.5939538e-20)
(0.16805776 -0.0013160886 -2.1793984e-22)
(0.16801205 -0.0015401441 -4.9990999e-22)
(0.16698933 -0.0026685572 1.9701379e-22)
(0.16552492 -0.0048488727 5.2502735e-21)
(0.16331333 -0.0060993465 -4.6538509e-22)
(0.15985263 -0.0066581571 -6.6449446e-20)
(0.15662317 -0.0079521247 5.9059967e-21)
(0.15332291 -0.010921197 7.5103847e-21)
(0.14969298 -0.012751619 0)
(0.14674949 -0.012084692 -3.862799e-21)
(0.14554866 -0.014949461 -2.9676107e-21)
(0.14605263 -0.016110051 -2.4983977e-20)
(0.14611111 -0.013009777 2.2758444e-21)
(0.14648756 -0.0099093322 -7.0181527e-21)
(0.14812228 -0.012743751 -8.6376805e-20)
(0.15062859 -0.0132484 -1.1274987e-20)
(0.15369396 -0.01137197 -3.6875855e-23)
(0.15589279 -0.0087473241 3.0681506e-22)
(0.15845295 -0.0091750492 1.4645411e-21)
(0.16221446 -0.012429468 5.4169576e-21)
(0.14366561 -7.5703723e-05 -1.19734e-19)
(0.14409443 5.5991332e-05 -4.7917355e-23)
(0.14502855 -0.00072302446 8.9482017e-20)
(0.14642324 0.00040858365 2.0619675e-21)
(0.14836811 0.001458129 -1.2232173e-21)
(0.15093248 0.0021469297 2.2710919e-20)
(0.15433463 0.0019160238 0)
(0.15825262 0.0018486581 8.9814625e-22)
(0.16211367 0.0016371559 -1.5249884e-22)
(0.16508186 0.0011880316 9.578733e-20)
(0.16708432 -0.00044284963 2.0784131e-23)
(0.16810987 -0.0011552826 -9.8409701e-25)
(0.16815059 -0.0012817202 -1.3735662e-20)
(0.16744182 -0.0024380019 1.7522253e-21)
(0.16605261 -0.0043373457 -1.8066062e-20)
(0.16374356 -0.005252817 3.6861163e-21)
(0.16038674 -0.0056741615 3.8978081e-22)
(0.1575656 -0.0069137827 4.4134962e-22)
(0.15441586 -0.0088607447 0)
(0.15031525 -0.010804526 -1.6540409e-20)
(0.14760271 -0.010803596 2.3888548e-21)
(0.14640991 -0.014312105 -3.4165244e-20)
(0.14558573 -0.014550293 -7.436528e-21)
(0.14463379 -0.011000901 2.4261748e-21)
(0.14614734 -0.0089136758 -2.6803752e-20)
(0.14860327 -0.010650761 1.0539105e-20)
(0.14997318 -0.012002371 -1.0488386e-20)
(0.15176914 -0.010141549 2.9545951e-20)
(0.15459137 -0.0074022537 -1.9760792e-20)
(0.15865781 -0.0078577889 -8.6246858e-22)
(0.16212588 -0.01069825 1.7375979e-22)
(0.14371551 -0.00096615845 5.1811181e-20)
(0.14407833 0.0011517949 2.4816356e-23)
(0.14514901 0.00066382921 1.3685914e-22)
(0.14645999 0.00078099139 -1.3744134e-19)
(0.14840103 0.0019537296 -9.3402528e-22)
(0.1509192 0.0017375421 4.499824e-20)
(0.15425793 0.0017205775 0)
(0.15811946 0.0012308661 0)
(0.16198676 0.001245851 1.9681227e-21)
(0.16514591 0.00087063675 0)
(0.16718942 -0.00013065081 -6.4508843e-21)
(0.16813834 -0.00054556109 6.0553013e-20)
(0.16829215 -0.0011131505 0)
(0.1678385 -0.0021363168 -6.4283179e-20)
(0.16647546 -0.0033281074 -5.3477649e-20)
(0.16414572 -0.0040065622 -5.1977895e-20)
(0.16090907 -0.0048225626 -5.5221021e-21)
(0.15828617 -0.0062413092 5.7978928e-21)
(0.15544271 -0.0075756004 3.5649337e-20)
(0.15104997 -0.0096782558 -1.0030796e-20)
(0.14850214 -0.0095855532 -1.4337456e-20)
(0.1473371 -0.012618854 -7.5897172e-22)
(0.14498778 -0.012887793 1.8472632e-20)
(0.143568 -0.0095644418 -2.1255327e-20)
(0.14569813 -0.0094823362 3.4445378e-21)
(0.1485382 -0.01003035 -3.2912671e-20)
(0.14952694 -0.010402589 3.0422741e-20)
(0.15010893 -0.0085294994 -1.4090288e-21)
(0.1530726 -0.00621779 5.8445927e-20)
(0.15819953 -0.0061955444 2.2881259e-20)
(0.16233494 -0.0075724951 -1.0444691e-20)
(0.14381555 -0.0012626098 -1.8828925e-19)
(0.14399203 0.0010776069 -1.1289765e-22)
(0.14524638 0.0014215167 1.2654221e-19)
(0.14646999 0.00079228326 -1.1620993e-20)
(0.14842738 0.001837719 7.3593322e-20)
(0.15093807 0.00098853657 -1.0900957e-21)
(0.15420574 0.0014935285 1.4717807e-21)
(0.15803675 0.00077316928 1.1645773e-20)
(0.16187294 0.00074018436 2.2106481e-20)
(0.1650882 0.00046220333 -7.6708368e-23)
(0.16718083 0.00036581989 1.6399468e-20)
(0.16820463 -1.1247382e-05 1.300444e-23)
(0.16849378 -0.00082766255 2.6499131e-20)
(0.16809224 -0.0017585712 -4.2826402e-20)
(0.16674008 -0.0021236061 -6.004434e-20)
(0.16459335 -0.002728821 -2.9024047e-20)
(0.16158472 -0.003776113 -2.106549e-20)
(0.15897712 -0.0059214596 -1.9420199e-20)
(0.15633357 -0.0069525738 -1.0085012e-20)
(0.15173919 -0.0082984206 -3.077712e-20)
(0.14907426 -0.0082990716 -2.7677434e-20)
(0.14815489 -0.0097309851 6.4920264e-21)
(0.14481968 -0.010877809 -6.4021361e-21)
(0.1430709 -0.008883154 2.6419135e-22)
(0.14533161 -0.0094354844 -2.3394142e-21)
(0.14815638 -0.0093431876 1.3911646e-20)
(0.1488919 -0.0083029939 -6.1509187e-22)
(0.14875529 -0.0069552651 -9.6256401e-21)
(0.15148 -0.0053461357 -1.7823418e-20)
(0.15685102 -0.0053153986 2.2941879e-20)
(0.16145244 -0.0047994975 3.5425924e-20)
(0.14390408 -0.00074668102 -5.2539936e-19)
(0.14391356 6.0573546e-05 3.1846155e-23)
(0.14530116 0.00080378981 4.3384583e-22)
(0.14650432 0.00062007245 -9.1467408e-22)
(0.14843232 0.0013117757 4.1208246e-20)
(0.15088985 0.00057067631 1.1896406e-20)
(0.15409057 0.0014357861 1.8889001e-20)
(0.15794722 0.00075838529 1.7468462e-20)
(0.16175064 0.00041539295 1.1725836e-20)
(0.16494824 0.00033174732 -1.2012582e-21)
(0.16708478 0.00048819221 3.1780078e-20)
(0.16823496 0.00021004555 4.4327841e-20)
(0.16867085 -0.00053711 1.0642536e-21)
(0.1682505 -0.001351294 3.2704893e-20)
(0.16693986 -0.0015545994 2.6076416e-23)
(0.16503946 -0.0020833943 -1.3604296e-20)
(0.16237197 -0.0027229129 4.0742967e-21)
(0.15972738 -0.0054118029 0)
(0.1570361 -0.0060839311 4.9553474e-23)
(0.15231638 -0.006087343 8.8754337e-22)
(0.14944392 -0.0074571771 9.5269913e-20)
(0.14859807 -0.0074123106 -6.0127957e-21)
(0.14533519 -0.0074402157 -3.8516599e-21)
(0.14298678 -0.0080753433 -4.420007e-21)
(0.14481672 -0.0088290607 1.9432609e-21)
(0.14737431 -0.0074965181 -1.1840979e-20)
(0.1482761 -0.0054011672 -6.9507073e-21)
(0.14810531 -0.0043896198 -1.0543418e-20)
(0.15021781 -0.0047553511 -2.6208951e-20)
(0.15504507 -0.0053164654 -2.4162242e-20)
(0.15940435 -0.0039051075 -8.4482497e-20)
(0.14395226 0.00061964288 -4.2843899e-20)
(0.14390052 -0.0010997289 -1.6694713e-20)
(0.14530864 -0.00072795737 4.9951445e-20)
(0.14656039 0.00026421007 2.1516375e-19)
(0.14844685 0.00019840495 1.2553495e-21)
(0.15078985 0.00051575878 -2.8839206e-24)
(0.1539406 0.0013089008 -5.7099181e-23)
(0.15784452 0.0010552477 2.1195863e-20)
(0.16161977 0.00039001513 4.6249461e-21)
(0.16479379 0.00030272143 -1.1058046e-20)
(0.16698372 0.00029590768 1.1812129e-20)
(0.16827678 -9.0476916e-05 -2.1256365e-22)
(0.16878776 -0.00055902007 -5.5898514e-21)
(0.16843565 -0.00095956924 -1.3709616e-22)
(0.16720956 -0.0016029364 -3.3500689e-20)
(0.16531356 -0.0020809997 1.3317212e-20)
(0.16307699 -0.0019611137 3.6681939e-22)
(0.16052703 -0.0044192386 -5.5310043e-22)
(0.15755025 -0.0044893628 -3.6895968e-21)
(0.15316928 -0.0034066112 7.8437384e-20)
(0.14999265 -0.006786101 4.0193893e-21)
(0.14850801 -0.0066187408 6.1169467e-20)
(0.14601257 -0.0038921458 7.2629698e-21)
(0.14357067 -0.0063420456 -6.6615435e-20)
(0.14417886 -0.0082517547 1.0917686e-21)
(0.14591958 -0.0060916504 -3.3330311e-20)
(0.1471852 -0.0029239805 -7.7208099e-20)
(0.14798178 -0.0014077921 -1.2582972e-20)
(0.15003239 -0.0036092266 -1.0419963e-20)
(0.15372438 -0.0051985693 1.5018057e-20)
(0.15745724 -0.004222334 1.4177973e-20)
(0.14389477 0.0020532969 -2.8849028e-19)
(0.14400232 -0.0011821731 9.6605496e-22)
(0.14522602 -0.0025311559 -1.010094e-21)
(0.14644229 0.00034891773 1.417906e-21)
(0.14837467 -0.00044675152 1.1376718e-22)
(0.15060378 0.00091518295 -1.8838237e-21)
(0.15379743 0.00089799637 1.9375697e-22)
(0.15779202 0.0011011508 1.0394316e-21)
(0.1615744 0.00054347138 -8.9885337e-23)
(0.1647172 0.00029363415 8.1553168e-22)
(0.16699725 9.211231e-05 -8.2153943e-23)
(0.16834097 -0.00076207255 -7.5731492e-20)
(0.16883024 -0.00056553179 -6.9364349e-22)
(0.16863657 -0.00077248056 3.6905022e-22)
(0.16748987 -0.0014288618 3.8115304e-21)
(0.16550284 -0.0016979898 2.7202283e-21)
(0.16357951 -0.0014002626 -7.8598496e-21)
(0.16110482 -0.0029192759 -6.3924959e-21)
(0.15772238 -0.002219403 -1.8652505e-21)
(0.15428303 -0.00085449712 -5.0184025e-20)
(0.15099378 -0.0057703013 -5.638991e-20)
(0.14821378 -0.0062729891 -2.2022527e-22)
(0.14609529 -0.0020923677 1.0320787e-20)
(0.14473174 -0.0039197114 1.5895316e-22)
(0.14401621 -0.0061275897 4.2245256e-21)
(0.14421291 -0.0052670733 2.204836e-20)
(0.14544753 -0.0014178568 2.4719541e-21)
(0.14772463 0.00060855271 -2.7858213e-21)
(0.15065331 -0.0016812073 -1.8611921e-20)
(0.15326438 -0.0039391198 2.067307e-20)
(0.15606652 -0.0040143115 1.4229241e-20)
(0.14371928 0.0026269571 -7.055589e-21)
(0.14414027 -0.0012665833 -4.81565e-20)
(0.14501922 -0.0024044116 1.2315115e-19)
(0.14626971 0.00051786341 8.4275674e-20)
(0.14845372 -0.00086130432 -3.7671432e-21)
(0.15092382 0.0011906085 -1.7488531e-20)
(0.15437002 0.00044460018 1.0310892e-19)
(0.15827363 0.00071960406 -1.5572141e-22)
(0.1620218 0.0003838094 4.068012e-20)
(0.16514092 0.00013769665 2.8327132e-20)
(0.16756694 -0.00017823102 3.281798e-20)
(0.16885604 -0.0010613628 -3.5899934e-23)
(0.1693171 -0.00032050661 -1.2829793e-20)
(0.16932996 -0.00064896526 3.6837358e-20)
(0.16817641 -0.00082349606 -2.4869019e-21)
(0.16620849 -0.0010093661 6.8191113e-20)
(0.16436345 -0.00094573791 -1.0135397e-22)
(0.16181864 -0.0014079328 9.4018295e-20)
(0.15820847 -0.00059644558 -2.3940725e-22)
(0.15583037 0.00089739483 -1.9829245e-20)
(0.15283799 -0.0042132445 6.558833e-20)
(0.14854691 -0.0048457722 5.6811795e-22)
(0.14604747 -0.0022080294 3.0017348e-21)
(0.14584855 -0.0019733346 9.0160942e-20)
(0.14496687 -0.0031562388 -7.4523894e-21)
(0.14350378 -0.003997284 -4.9169518e-21)
(0.14388314 -0.00072456504 7.1586535e-20)
(0.14714759 0.0010649356 0)
(0.15128992 0.00014113866 1.127383e-20)
(0.15356661 -0.0017887812 5.7597878e-20)
(0.15518547 -0.0026165073 1.229884e-20)
(0.14368561 0.00093722167 1.2167359e-19)
(0.13167137 -0.00015624596 0)
(0.15480549 -0.001576678 -1.9696843e-22)
(0.14889278 0.000620047 9.4062518e-21)
(0.15124852 -0.00017887384 -3.3053266e-21)
(0.15806722 0.00042782415 -1.6733198e-21)
(0.15625287 0.00024578782 7.5664411e-20)
(0.16005684 0.0001828599 2.2658063e-20)
(0.16432695 9.9238785e-05 1.9656291e-20)
(0.16784951 5.916161e-05 2.3647413e-20)
(0.17047775 -2.6493658e-05 1.3849345e-21)
(0.17138733 -0.00018782956 -1.7245606e-20)
(0.17225158 3.1998167e-05 2.6134811e-21)
(0.17214739 -7.7657876e-05 2.4207905e-20)
(0.1711078 -2.3636778e-05 3.0842638e-20)
(0.16882567 -0.00012591722 3.5798193e-21)
(0.16723113 -9.1544982e-05 -4.0599219e-20)
(0.16476895 -7.0038355e-05 4.3150971e-20)
(0.1606031 -6.454683e-05 2.0447042e-20)
(0.15965719 0.00031147242 -3.8305311e-22)
(0.15578811 -0.00087733181 5.2329306e-20)
(0.15067834 -0.0011936797 -7.9759594e-21)
(0.14770863 -0.00057391007 -1.3648244e-21)
(0.14788681 -0.00050470399 1.0553017e-20)
(0.14755382 -0.00064162308 -2.2230068e-20)
(0.14511229 -0.0009956232 1.1494248e-20)
(0.14514276 -0.00035958292 1.9278161e-22)
(0.14885771 0.00010784214 6.5596674e-21)
(0.15410594 4.5740427e-05 -2.0814376e-23)
(0.15623862 -0.0003727513 9.2857573e-21)
(0.15678863 -0.0006420187 1.046505e-21)
(0.16013185 -0.00043023437 9.6599178e-22)
(0.15893797 -0.0011691969 1.6510589e-20)
(0.16016533 -0.0025430657 -7.1239595e-21)
(0.16155882 -0.0027095134 -7.4771376e-20)
(0.16308671 -0.0019608029 2.1664229e-20)
(0.16398291 -0.0034146111 -3.9725061e-20)
(0.16415102 -0.0075447619 -6.2077514e-21)
(0.16508371 -0.010864869 -3.8988795e-20)
(0.16745171 -0.01179153 -4.1624442e-20)
(0.16931607 -0.013465654 3.8510863e-21)
(0.16990091 -0.01647623 3.645403e-21)
(0.17017233 -0.017039025 -1.4456278e-20)
(0.17019695 -0.01747908 0)
(0.16911156 -0.021918848 4.8385302e-21)
(0.16801259 -0.027634429 4.3851417e-21)
(0.16887121 -0.03070914 3.9104164e-21)