/*--------------------------------*- C++ -*----------------------------------*\
| =========                 |                                                 |
| \\      /  F ield         | OpenFOAM: The Open Source CFD Toolbox           |
|  \\    /   O peration     | Version:  2406                                  |
|   \\  /    A nd           | Website:  www.openfoam.com                      |
|    \\/     M anipulation  |                                                 |
\*---------------------------------------------------------------------------*/
FoamFile
{
    version     2.0;
    format      ascii;
    arch        "LSB;label=32;scalar=64";
    class       volScalarField;
    location    "35";
    object      alphat;
}
// * * * * * * * * * * * * * * * * * * * * * * * * * * * * * * * * * * * * * //

dimensions      [1 -1 -1 0 0 0 0];

internalField   nonuniform List<scalar> 
158064
(
9.7045574e-07
9.5203284e-07
9.3515416e-07
9.2233596e-07
9.1139335e-07
9.018843e-07
8.9346597e-07
8.862801e-07
8.7994082e-07
8.7455789e-07
8.6963691e-07
8.6507119e-07
8.610817e-07
8.5729432e-07
8.5420018e-07
8.5113974e-07
8.4871081e-07
8.4570715e-07
8.4333725e-07
8.4031938e-07
8.3773913e-07
8.3549303e-07
8.3363168e-07
8.3190573e-07
8.3068193e-07
8.2962578e-07
8.2930028e-07
8.2762431e-07
8.2760971e-07
8.2632287e-07
8.2623388e-07
8.2474224e-07
8.2465128e-07
8.2370722e-07
8.2404744e-07
8.2300565e-07
8.2279899e-07
8.2209788e-07
8.2140762e-07
8.2012547e-07
8.2018805e-07
8.1782947e-07
8.173191e-07
8.1653217e-07
8.1646411e-07
8.1488046e-07
8.1532529e-07
8.1548855e-07
8.171818e-07
8.1641923e-07
8.1844066e-07
8.1851096e-07
8.2050441e-07
8.2128916e-07
8.2333635e-07
8.2483418e-07
8.271789e-07
8.2835266e-07
8.3060025e-07
8.3195506e-07
8.345086e-07
8.3644625e-07
8.3947048e-07
8.4234626e-07
8.4753621e-07
8.5185786e-07
8.5699289e-07
8.6855553e-07
8.7678263e-07
8.9474507e-07
9.0704666e-07
9.2730757e-07
9.4933102e-07
9.674719e-07
1.0134251e-06
1.0354226e-06
1.0757845e-06
1.1017692e-06
1.1626325e-06
1.187907e-06
1.2433869e-06
1.2747871e-06
1.3430232e-06
1.3821299e-06
1.4590184e-06
1.5022276e-06
1.5870263e-06
1.6408989e-06
1.7706883e-06
9.7049155e-07
9.5209602e-07
9.3523222e-07
9.2241134e-07
9.1146071e-07
9.0196924e-07
8.9354176e-07
8.8636611e-07
8.8001613e-07
8.746689e-07
8.6971379e-07
8.6521356e-07
8.611586e-07
8.5745786e-07
8.5427892e-07
8.5130426e-07
8.4878543e-07
8.4592552e-07
8.4341487e-07
8.4058951e-07
8.379142e-07
8.3572892e-07
8.3372713e-07
8.3216159e-07
8.3075401e-07
8.2966981e-07
8.2941621e-07
8.2772731e-07
8.2790198e-07
8.2643118e-07
8.2653906e-07
8.2476225e-07
8.249734e-07
8.2375523e-07
8.2424703e-07
8.2333466e-07
8.2320301e-07
8.2212052e-07
8.2210253e-07
8.2083481e-07
8.1982718e-07
8.1788478e-07
8.1750004e-07
8.1683641e-07
8.1596479e-07
8.154703e-07
8.1493443e-07
8.149838e-07
8.1526083e-07
8.1561376e-07
8.1752908e-07
8.1823016e-07
8.1977623e-07
8.2087969e-07
8.2264956e-07
8.2445723e-07
8.2635436e-07
8.2800376e-07
8.3037067e-07
8.320862e-07
8.3481844e-07
8.3705897e-07
8.4021977e-07
8.4232229e-07
8.4607102e-07
8.4986601e-07
8.5381501e-07
8.6001485e-07
8.6397201e-07
8.7601282e-07
8.8181796e-07
8.9975342e-07
9.0918166e-07
9.31356e-07
9.4487762e-07
9.7155989e-07
1.0037974e-06
1.0332362e-06
1.0836351e-06
1.114785e-06
1.1726669e-06
1.2055964e-06
1.2700977e-06
1.3056253e-06
1.3766307e-06
1.4145894e-06
1.48932e-06
1.5298861e-06
1.6353461e-06
9.7052529e-07
9.5215703e-07
9.3530643e-07
9.2248491e-07
9.1153593e-07
9.020426e-07
8.9361764e-07
8.8644118e-07
8.8008472e-07
8.7476852e-07
8.6980374e-07
8.6533903e-07
8.6121401e-07
8.5757489e-07
8.543224e-07
8.5139222e-07
8.4879324e-07
8.4601172e-07
8.4340505e-07
8.4068039e-07
8.3789822e-07
8.3571035e-07
8.336108e-07
8.320645e-07
8.3059024e-07
8.2950659e-07
8.292427e-07
8.2750645e-07
8.277648e-07
8.2615959e-07
8.263286e-07
8.2441376e-07
8.2471126e-07
8.2334288e-07
8.2385646e-07
8.2264906e-07
8.2289553e-07
8.2143821e-07
8.2172938e-07
8.2038305e-07
8.1931625e-07
8.1717533e-07
8.1702289e-07
8.1654703e-07
8.1552472e-07
8.1460299e-07
8.1413857e-07
8.143087e-07
8.1462546e-07
8.1529493e-07
8.1590668e-07
8.1723868e-07
8.1809261e-07
8.1976332e-07
8.2098971e-07
8.2283667e-07
8.2449974e-07
8.2672608e-07
8.2857728e-07
8.3055627e-07
8.3350571e-07
8.344022e-07
8.3771152e-07
8.3949785e-07
8.4414829e-07
8.4656166e-07
8.5118237e-07
8.5683913e-07
8.6080673e-07
8.7155385e-07
8.7662787e-07
8.8928225e-07
8.9691139e-07
9.1215997e-07
9.2634031e-07
9.4346672e-07
9.7158693e-07
9.8903535e-07
1.0256831e-06
1.0479754e-06
1.0946668e-06
1.1196617e-06
1.1734883e-06
1.2085466e-06
1.2760871e-06
1.313465e-06
1.3869558e-06
1.4242479e-06
1.5156175e-06
9.7056652e-07
9.52226e-07
9.3538669e-07
9.2256404e-07
9.1161303e-07
9.0212252e-07
8.9369645e-07
8.8652466e-07
8.8017084e-07
8.7486945e-07
8.698824e-07
8.6548272e-07
8.6130049e-07
8.5773832e-07
8.5441397e-07
8.515548e-07
8.4887756e-07
8.4624835e-07
8.4350192e-07
8.4093788e-07
8.3808738e-07
8.3596404e-07
8.3385687e-07
8.3232323e-07
8.3082476e-07
8.2995245e-07
8.2945131e-07
8.2785995e-07
8.2823363e-07
8.2645297e-07
8.2657879e-07
8.2487891e-07
8.2500497e-07
8.2358516e-07
8.2423835e-07
8.2300104e-07
8.2338737e-07
8.2211509e-07
8.223517e-07
8.2111614e-07
8.1987452e-07
8.1799937e-07
8.1802211e-07
8.1721566e-07
8.1596938e-07
8.1494537e-07
8.1494569e-07
8.1436003e-07
8.1456568e-07
8.1542436e-07
8.1583917e-07
8.1681923e-07
8.1762739e-07
8.1941733e-07
8.2035252e-07
8.2223136e-07
8.2352011e-07
8.2578807e-07
8.2712416e-07
8.2948923e-07
8.3113962e-07
8.3334445e-07
8.3473409e-07
8.3767497e-07
8.397303e-07
8.4385827e-07
8.4713032e-07
8.5150503e-07
8.5748792e-07
8.6062311e-07
8.7036856e-07
8.7711913e-07
8.8920028e-07
8.9656203e-07
9.1477463e-07
9.2746264e-07
9.5191502e-07
9.6703687e-07
9.9633275e-07
1.0178501e-06
1.0605606e-06
1.0819649e-06
1.1222691e-06
1.14681e-06
1.1988e-06
1.2282853e-06
1.2889288e-06
1.3217923e-06
1.4027151e-06
9.7059903e-07
9.5228482e-07
9.3545714e-07
9.2263633e-07
9.1168531e-07
9.0219394e-07
8.9376969e-07
8.8659837e-07
8.8023612e-07
8.7495987e-07
8.6997384e-07
8.6560391e-07
8.6135944e-07
8.5783371e-07
8.5445372e-07
8.516433e-07
8.4888452e-07
8.4637923e-07
8.4350144e-07
8.4106382e-07
8.3812879e-07
8.3593346e-07
8.3376202e-07
8.3220435e-07
8.3063879e-07
8.2983409e-07
8.2917452e-07
8.2766227e-07
8.2803023e-07
8.2616217e-07
8.2623697e-07
8.2474106e-07
8.2471225e-07
8.2326084e-07
8.239935e-07
8.2269981e-07
8.2303029e-07
8.2186052e-07
8.2202915e-07
8.2089817e-07
8.1951195e-07
8.1787331e-07
8.1765267e-07
8.1667263e-07
8.1536623e-07
8.1477417e-07
8.1461319e-07
8.1407828e-07
8.1383766e-07
8.1472736e-07
8.1510738e-07
8.1613537e-07
8.1683925e-07
8.1842522e-07
8.1925269e-07
8.2108246e-07
8.2221165e-07
8.2420639e-07
8.2551975e-07
8.2781852e-07
8.2928807e-07
8.3127074e-07
8.3232471e-07
8.3437589e-07
8.3621892e-07
8.4015632e-07
8.4290139e-07
8.4639126e-07
8.5246087e-07
8.5595371e-07
8.6297373e-07
8.6894249e-07
8.8042643e-07
8.882115e-07
9.0394939e-07
9.131386e-07
9.3267469e-07
9.4492483e-07
9.7101411e-07
9.8672882e-07
1.0228546e-06
1.0442416e-06
1.0830939e-06
1.100544e-06
1.1380501e-06
1.1618693e-06
1.210772e-06
1.2365217e-06
1.3064357e-06
9.706359e-07
9.5234724e-07
9.3553048e-07
9.2270697e-07
9.1175675e-07
9.0226489e-07
8.9384769e-07
8.866739e-07
8.8031116e-07
8.7505736e-07
8.7003193e-07
8.6573361e-07
8.6142273e-07
8.5798464e-07
8.5454018e-07
8.5179812e-07
8.4893715e-07
8.4658779e-07
8.4352615e-07
8.4126083e-07
8.3823547e-07
8.3617485e-07
8.3397467e-07
8.323809e-07
8.3079704e-07
8.3024221e-07
8.2923939e-07
8.2810453e-07
8.2846321e-07
8.2645532e-07
8.2651112e-07
8.2538313e-07
8.2493988e-07
8.2370232e-07
8.2438365e-07
8.2318018e-07
8.2348651e-07
8.2239874e-07
8.2209604e-07
8.2123884e-07
8.201648e-07
8.1896351e-07
8.1824541e-07
8.1657065e-07
8.1559182e-07
8.1563368e-07
8.1509412e-07
8.1431884e-07
8.1385411e-07
8.1452688e-07
8.1516006e-07
8.1622498e-07
8.1684564e-07
8.1780058e-07
8.1870404e-07
8.2037972e-07
8.2146922e-07
8.2351516e-07
8.2475047e-07
8.2710574e-07
8.2833792e-07
8.2990994e-07
8.308547e-07
8.3227507e-07
8.3379328e-07
8.3693116e-07
8.3899296e-07
8.4253262e-07
8.4651416e-07
8.5102868e-07
8.5740872e-07
8.6150535e-07
8.7196311e-07
8.7866404e-07
8.9481806e-07
9.0217201e-07
9.1745528e-07
9.2800186e-07
9.5246592e-07
9.6500616e-07
9.9610709e-07
1.0171454e-06
1.0509344e-06
1.0675435e-06
1.1016689e-06
1.1191084e-06
1.1579692e-06
1.1808632e-06
1.2339315e-06
9.7066641e-07
9.5240232e-07
9.3559647e-07
9.2277618e-07
9.1182426e-07
9.0233387e-07
8.9391378e-07
8.867435e-07
8.8037966e-07
8.7513918e-07
8.701218e-07
8.6585596e-07
8.615103e-07
8.58088e-07
8.5459013e-07
8.5190555e-07
8.4897991e-07
8.4674219e-07
8.4356013e-07
8.4143677e-07
8.3828475e-07
8.3623718e-07
8.338801e-07
8.3230256e-07
8.3073023e-07
8.3020723e-07
8.2900711e-07
8.2802733e-07
8.2826494e-07
8.2616684e-07
8.2620087e-07
8.2523782e-07
8.2460741e-07
8.2352403e-07
8.2409524e-07
8.2295281e-07
8.2327112e-07
8.2224436e-07
8.2166005e-07
8.2091594e-07
8.2012776e-07
8.1912772e-07
8.1807299e-07
8.1623819e-07
8.1539704e-07
8.1544994e-07
8.1478031e-07
8.1399573e-07
8.1362847e-07
8.1436336e-07
8.1488626e-07
8.1594708e-07
8.1626951e-07
8.1721674e-07
8.1781365e-07
8.1955445e-07
8.2053434e-07
8.2258156e-07
8.2381222e-07
8.2612982e-07
8.2709119e-07
8.284473e-07
8.2901684e-07
8.3049305e-07
8.3158818e-07
8.3422544e-07
8.3573613e-07
8.3958331e-07
8.4222367e-07
8.466947e-07
8.5211925e-07
8.5615462e-07
8.6349433e-07
8.6946813e-07
8.8324409e-07
8.905015e-07
9.0400969e-07
9.1259372e-07
9.3344343e-07
9.4651325e-07
9.7364579e-07
9.8781016e-07
1.0207725e-06
1.0369687e-06
1.0637306e-06
1.0791491e-06
1.1121107e-06
1.1342697e-06
1.1805187e-06
9.706997e-07
9.5245879e-07
9.3566362e-07
9.2284241e-07
9.118935e-07
9.0239976e-07
8.9398559e-07
8.8681488e-07
8.8044389e-07
8.7522686e-07
8.7018538e-07
8.6596568e-07
8.6156026e-07
8.5818318e-07
8.5464649e-07
8.5201651e-07
8.4900715e-07
8.4690779e-07
8.4360247e-07
8.4161936e-07
8.383814e-07
8.3646947e-07
8.3399837e-07
8.3248181e-07
8.3088247e-07
8.3049865e-07
8.2899872e-07
8.2846038e-07
8.2837807e-07
8.264008e-07
8.2654266e-07
8.2556339e-07
8.2464536e-07
8.2404726e-07
8.2439881e-07
8.2322237e-07
8.2359134e-07
8.2249324e-07
8.2190503e-07
8.2142574e-07
8.2088968e-07
8.1974024e-07
8.1830328e-07
8.1644898e-07
8.1616471e-07
8.1568154e-07
8.1476656e-07
8.1366642e-07
8.1391339e-07
8.1482544e-07
8.1484295e-07
8.1581202e-07
8.1585563e-07
8.16917e-07
8.1747288e-07
8.1920763e-07
8.2017943e-07
8.2212938e-07
8.2319075e-07
8.2516755e-07
8.2602914e-07
8.2742663e-07
8.2787663e-07
8.292685e-07
8.3013672e-07
8.3202809e-07
8.3343094e-07
8.3683436e-07
8.3981273e-07
8.4322616e-07
8.4847828e-07
8.5146298e-07
8.5771852e-07
8.6314858e-07
8.7372866e-07
8.8258412e-07
8.9376754e-07
8.9997748e-07
9.1365136e-07
9.311896e-07
9.5342917e-07
9.6498893e-07
9.9452528e-07
1.0127586e-06
1.0363755e-06
1.0496501e-06
1.0787018e-06
1.0982732e-06
1.1407752e-06
9.7072827e-07
9.5251038e-07
9.3572578e-07
9.2290403e-07
9.1195183e-07
9.0246877e-07
8.9405601e-07
8.8688208e-07
8.8050845e-07
8.7530383e-07
8.7025717e-07
8.6606883e-07
8.6165737e-07
8.5829849e-07
8.5474626e-07
8.5214952e-07
8.4904676e-07
8.470252e-07
8.4362669e-07
8.4170506e-07
8.38416e-07
8.3652747e-07
8.3394212e-07
8.3247732e-07
8.308111e-07
8.3049328e-07
8.2882725e-07
8.2849831e-07
8.2813315e-07
8.2637598e-07
8.264105e-07
8.2536782e-07
8.2447028e-07
8.2414136e-07
8.2433148e-07
8.2303788e-07
8.2340723e-07
8.2232457e-07
8.2166727e-07
8.2136912e-07
8.208731e-07
8.1964697e-07
8.1808182e-07
8.1633508e-07
8.1616351e-07
8.1550334e-07
8.1435287e-07
8.1339666e-07
8.1379197e-07
8.147079e-07
8.1433474e-07
8.1522047e-07
8.1536981e-07
8.1639041e-07
8.1709319e-07
8.1876383e-07
8.1980115e-07
8.2156082e-07
8.2267362e-07
8.2405588e-07
8.2505322e-07
8.2594133e-07
8.2659158e-07
8.2753312e-07
8.2884743e-07
8.3029487e-07
8.318966e-07
8.3458605e-07
8.3667832e-07
8.3928693e-07
8.4433253e-07
8.482343e-07
8.5283545e-07
8.5576268e-07
8.6559894e-07
8.7544267e-07
8.857773e-07
8.9009367e-07
8.9973652e-07
9.088821e-07
9.298466e-07
9.5381809e-07
9.8417394e-07
9.9326251e-07
1.0128325e-06
1.0238507e-06
1.0430631e-06
1.0592049e-06
1.0973238e-06
9.7075803e-07
9.5256164e-07
9.3578631e-07
9.2297203e-07
9.1202192e-07
9.0252797e-07
8.9411077e-07
8.8694339e-07
8.8057575e-07
8.753852e-07
8.7033738e-07
8.6615587e-07
8.6174277e-07
8.5834246e-07
8.547862e-07
8.5224273e-07
8.4910274e-07
8.4720973e-07
8.4376861e-07
8.4187566e-07
8.3851167e-07
8.367066e-07
8.3401724e-07
8.3263787e-07
8.3092702e-07
8.3066041e-07
8.2884272e-07
8.2883238e-07
8.2810317e-07
8.266333e-07
8.2648576e-07
8.2554559e-07
8.2468403e-07
8.2454618e-07
8.2422428e-07
8.2303182e-07
8.2350508e-07
8.224947e-07
8.2195219e-07
8.2178134e-07
8.2106545e-07
8.1981243e-07
8.1850689e-07
8.1714561e-07
8.1670024e-07
8.1555165e-07
8.1428104e-07
8.1383311e-07
8.1411011e-07
8.1465259e-07
8.141995e-07
8.1467683e-07
8.1524684e-07
8.1630393e-07
8.1706142e-07
8.1858974e-07
8.1952494e-07
8.212278e-07
8.2238783e-07
8.229542e-07
8.2426923e-07
8.2407574e-07
8.2599299e-07
8.2633254e-07
8.2816352e-07
8.2922048e-07
8.303906e-07
8.3253114e-07
8.3440148e-07
8.3709623e-07
8.4025996e-07
8.454031e-07
8.5021848e-07
8.5169673e-07
8.5558106e-07
8.6395409e-07
8.7854654e-07
8.8790168e-07
8.978397e-07
9.0108838e-07
9.1100425e-07
9.2818172e-07
9.6103833e-07
9.847822e-07
1.0043876e-06
1.0136721e-06
1.0247522e-06
1.0313285e-06
1.0559969e-06
9.7078446e-07
9.5260946e-07
9.3584529e-07
9.2302297e-07
9.1207797e-07
9.0259067e-07
8.9418824e-07
8.8701215e-07
8.8063888e-07
8.7544527e-07
8.7040167e-07
8.6625572e-07
8.6182745e-07
8.5844715e-07
8.5488224e-07
8.5234155e-07
8.490851e-07
8.4722341e-07
8.4383099e-07
8.4197326e-07
8.3861256e-07
8.3689327e-07
8.3400129e-07
8.3272358e-07
8.3090862e-07
8.3062004e-07
8.2879985e-07
8.2895358e-07
8.2792458e-07
8.2666992e-07
8.2637949e-07
8.255517e-07
8.2464884e-07
8.2456489e-07
8.2407884e-07
8.2309133e-07
8.2351392e-07
8.2253166e-07
8.2204351e-07
8.2181574e-07
8.210263e-07
8.1974838e-07
8.1842978e-07
8.1726511e-07
8.1669927e-07
8.1526547e-07
8.1392312e-07
8.1363277e-07
8.1387045e-07
8.1417645e-07
8.1373484e-07
8.1406942e-07
8.1466469e-07
8.1596454e-07
8.16697e-07
8.1817053e-07
8.190917e-07
8.2082723e-07
8.2154414e-07
8.2227423e-07
8.2306726e-07
8.2336627e-07
8.2442078e-07
8.2575116e-07
8.2640409e-07
8.2832462e-07
8.2912177e-07
8.3078554e-07
8.3224092e-07
8.3506732e-07
8.3693773e-07
8.407856e-07
8.460087e-07
8.4912209e-07
8.5171364e-07
8.5657005e-07
8.6952478e-07
8.8438726e-07
8.9422043e-07
8.9699538e-07
9.0196728e-07
9.0932444e-07
9.2629911e-07
9.6419493e-07
9.9270344e-07
1.0043004e-06
1.0152132e-06
1.0195162e-06
1.0310081e-06
9.7081105e-07
9.5265688e-07
9.3590088e-07
9.23085e-07
9.1214266e-07
9.0264652e-07
8.9424232e-07
8.8706645e-07
8.8069669e-07
8.7552156e-07
8.7047759e-07
8.6632118e-07
8.6191821e-07
8.5848513e-07
8.5496474e-07
8.524738e-07
8.4917768e-07
8.4735331e-07
8.4396641e-07
8.4197137e-07
8.385981e-07
8.3698878e-07
8.3396069e-07
8.328903e-07
8.3088182e-07
8.3062848e-07
8.2887237e-07
8.2907976e-07
8.2784407e-07
8.2693863e-07
8.2642113e-07
8.2575133e-07
8.2470121e-07
8.2464067e-07
8.2409023e-07
8.2328198e-07
8.2342988e-07
8.2257813e-07
8.2225636e-07
8.219697e-07
8.2114029e-07
8.1981466e-07
8.1876876e-07
8.1798556e-07
8.1703627e-07
8.151536e-07
8.140409e-07
8.1403275e-07
8.1429833e-07
8.1395577e-07
8.1354864e-07
8.1410897e-07
8.1451134e-07
8.1586974e-07
8.1658711e-07
8.1788634e-07
8.1876758e-07
8.2015097e-07
8.2079173e-07
8.2179953e-07
8.2227346e-07
8.2320584e-07
8.2359161e-07
8.2499408e-07
8.2544608e-07
8.2711094e-07
8.2816775e-07
8.2942223e-07
8.3067789e-07
8.3288168e-07
8.3492168e-07
8.3788387e-07
8.4211812e-07
8.4557818e-07
8.5105154e-07
8.5370815e-07
8.6115577e-07
8.7509486e-07
8.8259202e-07
8.8808971e-07
8.9875517e-07
9.0533101e-07
9.1885235e-07
9.3703973e-07
9.6325548e-07
9.8082148e-07
9.9939585e-07
1.0081598e-06
1.0184822e-06
9.7083547e-07
9.5270166e-07
9.3595715e-07
9.2313615e-07
9.1219193e-07
9.0270496e-07
8.9430239e-07
8.8712674e-07
8.8075659e-07
8.7559498e-07
8.7054345e-07
8.663878e-07
8.6201222e-07
8.5855694e-07
8.5502428e-07
8.5251833e-07
8.4921559e-07
8.4740239e-07
8.4417993e-07
8.4206319e-07
8.3876085e-07
8.3717856e-07
8.3395715e-07
8.330481e-07
8.3086881e-07
8.3072239e-07
8.2900348e-07
8.2917931e-07
8.2777597e-07
8.2705339e-07
8.2635961e-07
8.2585618e-07
8.2463026e-07
8.2456799e-07
8.239653e-07
8.2328188e-07
8.2317069e-07
8.2258686e-07
8.2224591e-07
8.2184467e-07
8.2092158e-07
8.1964447e-07
8.1862342e-07
8.1793306e-07
8.1690309e-07
8.1479618e-07
8.1359486e-07
8.1387452e-07
8.1410278e-07
8.1355069e-07
8.1309245e-07
8.1384444e-07
8.143076e-07
8.1535345e-07
8.1609801e-07
8.1742304e-07
8.1835867e-07
8.1934738e-07
8.2002072e-07
8.2100957e-07
8.2157717e-07
8.2243203e-07
8.2285122e-07
8.2384842e-07
8.2461836e-07
8.2566375e-07
8.2697973e-07
8.2819893e-07
8.2918339e-07
8.3077909e-07
8.329367e-07
8.3514174e-07
8.3993981e-07
8.4411383e-07
8.4650596e-07
8.4926472e-07
8.5707928e-07
8.668858e-07
8.7651194e-07
8.8175396e-07
8.9390048e-07
8.9822035e-07
9.0524351e-07
9.1405435e-07
9.3755588e-07
9.6108251e-07
9.8799632e-07
1.0000635e-06
1.0119103e-06
9.7085909e-07
9.5274428e-07
9.3600985e-07
9.2319342e-07
9.1225844e-07
9.0275932e-07
8.9436159e-07
8.8717574e-07
8.8081521e-07
8.7565628e-07
8.7060611e-07
8.6648031e-07
8.621012e-07
8.5862621e-07
8.5510814e-07
8.5258119e-07
8.4928325e-07
8.4738081e-07
8.443027e-07
8.4208247e-07
8.3890622e-07
8.3724708e-07
8.3397675e-07
8.3310493e-07
8.3081431e-07
8.3071091e-07
8.2894622e-07
8.2915788e-07
8.2767848e-07
8.2712557e-07
8.263372e-07
8.259021e-07
8.2452857e-07
8.245417e-07
8.2388128e-07
8.2335572e-07
8.2305871e-07
8.226372e-07
8.2232485e-07
8.2190537e-07
8.2087933e-07
8.1983865e-07
8.1875276e-07
8.1820946e-07
8.1725813e-07
8.1502703e-07
8.138227e-07
8.1404828e-07
8.1394964e-07
8.1333442e-07
8.1299724e-07
8.1348219e-07
8.1378693e-07
8.1451989e-07
8.1560826e-07
8.1694959e-07
8.1794957e-07
8.1847108e-07
8.1936216e-07
8.2015005e-07
8.208452e-07
8.2159166e-07
8.2215421e-07
8.2278995e-07
8.2374548e-07
8.2453611e-07
8.2548635e-07
8.2706844e-07
8.2774649e-07
8.2959883e-07
8.3093275e-07
8.3325147e-07
8.365321e-07
8.3988648e-07
8.4538535e-07
8.4809864e-07
8.5272582e-07
8.5524879e-07
8.6665617e-07
8.7967928e-07
8.9093585e-07
8.9354593e-07
8.9785506e-07
9.0290306e-07
9.1725373e-07
9.4424623e-07
9.7766791e-07
9.9409106e-07
1.008445e-06
9.708816e-07
9.52785e-07
9.3606213e-07
9.2324183e-07
9.1230344e-07
9.028113e-07
8.9442116e-07
8.8723584e-07
8.8087571e-07
8.7570512e-07
8.7067419e-07
8.6653305e-07
8.6216853e-07
8.5866264e-07
8.5517748e-07
8.5263878e-07
8.493781e-07
8.4739162e-07
8.4441667e-07
8.42053e-07
8.3897661e-07
8.3725159e-07
8.3408837e-07
8.3314227e-07
8.3085426e-07
8.3071504e-07
8.2890597e-07
8.2915965e-07
8.2761087e-07
8.2713134e-07
8.2636499e-07
8.2586373e-07
8.2439731e-07
8.2459308e-07
8.2378328e-07
8.2329918e-07
8.2306275e-07
8.226499e-07
8.222455e-07
8.2178569e-07
8.2073987e-07
8.1975739e-07
8.1852365e-07
8.1787839e-07
8.169929e-07
8.1472883e-07
8.1365205e-07
8.1347201e-07
8.1335659e-07
8.1254031e-07
8.1265395e-07
8.1261067e-07
8.130188e-07
8.132542e-07
8.1484543e-07
8.1571024e-07
8.1689359e-07
8.1700962e-07
8.1841932e-07
8.1868717e-07
8.1972796e-07
8.2023375e-07
8.2085401e-07
8.2125069e-07
8.2240719e-07
8.2374282e-07
8.2377631e-07
8.249776e-07
8.2603015e-07
8.2817176e-07
8.2924835e-07
8.3175409e-07
8.3320282e-07
8.3587865e-07
8.4229443e-07
8.4661933e-07
8.5081015e-07
8.5172166e-07
8.5621162e-07
8.7046695e-07
8.8518223e-07
8.9378824e-07
8.9719926e-07
8.9898549e-07
9.0599939e-07
9.2196914e-07
9.5721312e-07
9.8276551e-07
1.0029044e-06
9.7090296e-07
9.5282314e-07
9.3611117e-07
9.2329139e-07
9.1236645e-07
9.0286962e-07
8.9448518e-07
8.8728226e-07
8.8093414e-07
8.7575104e-07
8.7074465e-07
8.6656863e-07
8.6223744e-07
8.5872097e-07
8.552466e-07
8.5265719e-07
8.4944806e-07
8.4737962e-07
8.4454192e-07
8.4209077e-07
8.3904239e-07
8.3717262e-07
8.3414054e-07
8.330096e-07
8.3082124e-07
8.3061249e-07
8.2885309e-07
8.2910287e-07
8.2755404e-07
8.2701891e-07
8.2639679e-07
8.2576519e-07
8.2423951e-07
8.2455462e-07
8.2354661e-07
8.2291504e-07
8.2286856e-07
8.2246063e-07
8.219093e-07
8.2131427e-07
8.205099e-07
8.1938848e-07
8.1821805e-07
8.1721574e-07
8.1658046e-07
8.143961e-07
8.1333824e-07
8.1273428e-07
8.1238883e-07
8.1138406e-07
8.1170411e-07
8.1142501e-07
8.1168266e-07
8.1190378e-07
8.1352612e-07
8.1419658e-07
8.1506717e-07
8.1536003e-07
8.1658298e-07
8.1679857e-07
8.1777201e-07
8.1831167e-07
8.1874022e-07
8.1955034e-07
8.2031759e-07
8.2153468e-07
8.2185528e-07
8.2254381e-07
8.2424805e-07
8.2594507e-07
8.2656181e-07
8.2963753e-07
8.3071673e-07
8.3271395e-07
8.3745456e-07
8.428819e-07
8.4516477e-07
8.4794583e-07
8.5206997e-07
8.6011221e-07
8.7583721e-07
8.9107331e-07
8.9940286e-07
9.0012019e-07
9.0260695e-07
9.0861973e-07
9.2121699e-07
9.5375924e-07
9.8576981e-07
9.7092432e-07
9.5286027e-07
9.3615759e-07
9.2333796e-07
9.1240946e-07
9.0290433e-07
8.9453023e-07
8.8730748e-07
8.8099317e-07
8.7578802e-07
8.7081043e-07
8.6660133e-07
8.6231995e-07
8.5874444e-07
8.5528955e-07
8.526534e-07
8.4952246e-07
8.4734368e-07
8.4460592e-07
8.4209646e-07
8.3910648e-07
8.3711329e-07
8.3426853e-07
8.3291443e-07
8.3084546e-07
8.3044735e-07
8.2877285e-07
8.2889083e-07
8.2746132e-07
8.2677729e-07
8.2626303e-07
8.2543852e-07
8.2392639e-07
8.2415374e-07
8.231017e-07
8.2222702e-07
8.2243684e-07
8.2188828e-07
8.2138818e-07
8.2053816e-07
8.1996564e-07
8.1861098e-07
8.1769365e-07
8.1630187e-07
8.1558647e-07
8.1318056e-07
8.1224007e-07
8.1133647e-07
8.1089599e-07
8.0962843e-07
8.1002525e-07
8.0951431e-07
8.0962821e-07
8.0947534e-07
8.1105385e-07
8.1168955e-07
8.1258351e-07
8.1260728e-07
8.1352265e-07
8.138404e-07
8.1467679e-07
8.1500873e-07
8.1555395e-07
8.1668952e-07
8.1715656e-07
8.1766104e-07
8.1867802e-07
8.1951493e-07
8.2075247e-07
8.2245221e-07
8.2376461e-07
8.2551305e-07
8.2697666e-07
8.2993093e-07
8.3271494e-07
8.3640227e-07
8.4288745e-07
8.4712897e-07
8.5034734e-07
8.5242257e-07
8.6049813e-07
8.7703098e-07
8.9487225e-07
9.0224329e-07
9.046076e-07
9.0735701e-07
9.113619e-07
9.2072252e-07
9.51132e-07
9.7094322e-07
9.5289433e-07
9.3620123e-07
9.2337806e-07
9.1246443e-07
9.0294505e-07
8.9458708e-07
8.8734126e-07
8.8106231e-07
8.7578981e-07
8.708805e-07
8.6661337e-07
8.6238544e-07
8.5873371e-07
8.5531612e-07
8.5259431e-07
8.4955669e-07
8.4726239e-07
8.4458196e-07
8.4202197e-07
8.3909008e-07
8.3695516e-07
8.3425615e-07
8.3265385e-07
8.3072867e-07
8.3008966e-07
8.2859383e-07
8.284154e-07
8.271995e-07
8.263224e-07
8.2595526e-07
8.2485088e-07
8.2353543e-07
8.2342964e-07
8.2248288e-07
8.2120752e-07
8.2161529e-07
8.2071372e-07
8.2035073e-07
8.1909708e-07
8.1871759e-07
8.1685581e-07
8.1617086e-07
8.1424469e-07
8.1352852e-07
8.108465e-07
8.1003121e-07
8.0863887e-07
8.0819543e-07
8.0648568e-07
8.0693644e-07
8.0591911e-07
8.0612282e-07
8.0529918e-07
8.0692717e-07
8.0691634e-07
8.0788078e-07
8.0776884e-07
8.0829767e-07
8.088336e-07
8.09563e-07
8.0961391e-07
8.1048255e-07
8.1136938e-07
8.1188359e-07
8.1224485e-07
8.1352327e-07
8.1472483e-07
8.1526568e-07
8.1661625e-07
8.1846397e-07
8.1973086e-07
8.223845e-07
8.2624047e-07
8.2741306e-07
8.285655e-07
8.3571555e-07
8.4229042e-07
8.4705308e-07
8.4936848e-07
8.5392062e-07
8.5870853e-07
8.7439281e-07
8.9409471e-07
9.0430062e-07
9.0770871e-07
9.0947566e-07
9.1360998e-07
8.7750316e-07
9.7096298e-07
9.529282e-07
9.3624449e-07
9.2342351e-07
9.125158e-07
9.0298475e-07
8.9465167e-07
8.8735153e-07
8.8111829e-07
8.7574556e-07
8.7093033e-07
8.6656297e-07
8.6240517e-07
8.5864738e-07
8.5532308e-07
8.5244131e-07
8.4950434e-07
8.470609e-07
8.4442506e-07
8.4181446e-07
8.3889274e-07
8.3658061e-07
8.3398879e-07
8.320953e-07
8.3033283e-07
8.2930263e-07
8.2812832e-07
8.2744809e-07
8.2651011e-07
8.2526646e-07
8.2495715e-07
8.235774e-07
8.2236507e-07
8.2183202e-07
8.2105872e-07
8.1931358e-07
8.1984727e-07
8.1833379e-07
8.1813438e-07
8.1614733e-07
8.1598819e-07
8.1351453e-07
8.1327936e-07
8.1064852e-07
8.0980059e-07
8.0651153e-07
8.0581579e-07
8.0356061e-07
8.0300771e-07
8.0074114e-07
8.0091979e-07
7.9934925e-07
7.9958311e-07
7.9818585e-07
7.9961173e-07
7.9907283e-07
7.9984199e-07
7.9951619e-07
8.0004122e-07
8.0011225e-07
8.0113572e-07
8.0099593e-07
8.0173564e-07
8.0224755e-07
8.0338958e-07
8.0341044e-07
8.0438303e-07
8.0631545e-07
8.0691888e-07
8.078283e-07
8.1011288e-07
8.1158091e-07
8.1399222e-07
8.1797725e-07
8.205581e-07
8.2158327e-07
8.2531482e-07
8.3249657e-07
8.3990214e-07
8.4379339e-07
8.0811721e-07
8.5022418e-07
8.1467696e-07
7.9528424e-07
7.5140209e-07
6.3833329e-07
6.4755868e-07
6.8862548e-07
6.4449448e-07
9.7097954e-07
9.5295736e-07
9.3628314e-07
9.2345484e-07
9.1255355e-07
9.0299226e-07
8.9468621e-07
8.8731776e-07
8.8115938e-07
8.7565038e-07
8.7096362e-07
8.6640635e-07
8.6236478e-07
8.5841465e-07
8.5522249e-07
8.520979e-07
8.4928189e-07
8.4665143e-07
8.4402593e-07
8.4128053e-07
8.3834044e-07
8.3580175e-07
8.3322522e-07
8.3100749e-07
8.2926312e-07
8.2783761e-07
8.268781e-07
8.2562093e-07
8.2494579e-07
8.2319573e-07
8.2290661e-07
8.2105931e-07
8.1995814e-07
8.1860489e-07
8.1797591e-07
8.1552418e-07
8.1620788e-07
8.1393865e-07
8.1395712e-07
8.1098133e-07
8.108901e-07
8.0747575e-07
8.0742981e-07
8.0382035e-07
8.029113e-07
7.9883046e-07
7.9808676e-07
7.9485491e-07
7.9428381e-07
7.9118329e-07
7.9108046e-07
7.8867334e-07
7.8863664e-07
7.8659842e-07
7.8797837e-07
7.8655611e-07
7.8717113e-07
7.8624794e-07
7.869392e-07
7.8665095e-07
7.875755e-07
7.8715134e-07
7.8817205e-07
7.882873e-07
7.8938552e-07
7.897083e-07
7.9125323e-07
7.919952e-07
7.9369656e-07
7.9503611e-07
7.9663746e-07
7.9836517e-07
8.0075306e-07
8.0332141e-07
8.0769498e-07
8.1102552e-07
8.1270602e-07
8.1595058e-07
7.572656e-07
7.5393325e-07
5.9685606e-07
7.2619497e-07
6.4874043e-07
6.1719912e-07
5.6914347e-07
5.4252011e-07
5.5368564e-07
5.0837234e-07
5.5409015e-07
9.7099827e-07
9.5298548e-07
9.3632182e-07
9.2347278e-07
9.1258086e-07
9.0297336e-07
8.9470614e-07
8.8722831e-07
8.8116731e-07
8.7544135e-07
8.7091003e-07
8.6607745e-07
8.6219447e-07
8.5790319e-07
8.5486873e-07
8.5134991e-07
8.486695e-07
8.4573361e-07
8.4299641e-07
8.3998249e-07
8.369116e-07
8.3405534e-07
8.3142372e-07
8.2872221e-07
8.2698491e-07
8.2492083e-07
8.242092e-07
8.2202608e-07
8.2157199e-07
8.1910585e-07
8.1872076e-07
8.162178e-07
8.1503233e-07
8.1264478e-07
8.1205503e-07
8.0866261e-07
8.0926581e-07
8.0596767e-07
8.0604881e-07
8.0192989e-07
8.0180819e-07
7.9727985e-07
7.9723734e-07
7.9245356e-07
7.9142082e-07
7.8623457e-07
7.853882e-07
7.8111595e-07
7.8036322e-07
7.7628163e-07
7.7584699e-07
7.7255799e-07
7.7207603e-07
7.6930851e-07
7.7038733e-07
7.6827311e-07
7.6869546e-07
7.6715579e-07
7.6779704e-07
7.6730664e-07
7.6795294e-07
7.6752096e-07
7.6826635e-07
7.6883544e-07
7.6963935e-07
7.7015038e-07
7.7159251e-07
7.726753e-07
7.7431657e-07
7.7627741e-07
7.768796e-07
7.7971957e-07
7.8218758e-07
7.848023e-07
7.8718252e-07
7.916507e-07
6.7507001e-07
7.573264e-07
7.0334659e-07
5.7480706e-07
6.0291852e-07
5.5509881e-07
5.5583543e-07
4.586666e-07
3.7952653e-07
4.6889662e-07
4.2611623e-07
4.3138129e-07
4.0689437e-07
9.7101255e-07
9.5300469e-07
9.3634908e-07
9.2347432e-07
9.1259409e-07
9.029059e-07
8.9468095e-07
8.8699948e-07
8.8105155e-07
8.7496971e-07
8.7060872e-07
8.6536958e-07
8.616035e-07
8.5674626e-07
8.5381832e-07
8.496955e-07
8.4705664e-07
8.4357875e-07
8.4061278e-07
8.370943e-07
8.3373193e-07
8.3033209e-07
8.2742538e-07
8.2392064e-07
8.21943e-07
8.1897962e-07
8.1833432e-07
8.1495728e-07
8.1451855e-07
8.1102332e-07
8.1040126e-07
8.0708197e-07
8.0561138e-07
8.019867e-07
8.0129766e-07
7.9676864e-07
7.9721574e-07
7.9267726e-07
7.9265035e-07
7.8724766e-07
7.8710081e-07
7.8138123e-07
7.8134244e-07
7.7546179e-07
7.7426723e-07
7.6799292e-07
7.6678157e-07
7.6159673e-07
7.6053683e-07
7.5542638e-07
7.5474892e-07
7.5063854e-07
7.49644e-07
7.460246e-07
7.4668113e-07
7.4397042e-07
7.4413165e-07
7.4210221e-07
7.4264228e-07
7.419731e-07
7.4248103e-07
7.4193903e-07
7.4291432e-07
7.4331865e-07
7.4440049e-07
7.4486043e-07
7.4689612e-07
7.4776629e-07
7.495281e-07
7.5165353e-07
7.5300489e-07
7.557415e-07
7.583398e-07
7.596129e-07
7.626519e-07
7.6738142e-07
6.0830518e-07
6.9549827e-07
7.1444082e-07
5.0025959e-07
5.5112949e-07
4.6516535e-07
5.0757914e-07
3.8452662e-07
3.1489201e-07
3.5736651e-07
3.4472073e-07
3.599059e-07
2.5966399e-07
9.7102957e-07
9.5301743e-07
9.3635908e-07
9.2343669e-07
9.1253734e-07
9.0269813e-07
8.9447226e-07
8.8645234e-07
8.8057067e-07
8.7390753e-07
8.6961818e-07
8.6369531e-07
8.5989292e-07
8.5409577e-07
8.5114692e-07
8.4598187e-07
8.4316153e-07
8.3877368e-07
8.3528011e-07
8.3085395e-07
8.2685448e-07
8.225252e-07
8.190542e-07
8.1436357e-07
8.1189006e-07
8.0772553e-07
8.0698645e-07
8.0219586e-07
8.0159968e-07
7.9688754e-07
7.9594157e-07
7.9154779e-07
7.8961764e-07
7.8485959e-07
7.839998e-07
7.7835856e-07
7.7880501e-07
7.7318985e-07
7.7299077e-07
7.6652277e-07
7.6636121e-07
7.5960191e-07
7.5963164e-07
7.5292117e-07
7.51589e-07
7.4446594e-07
7.4285116e-07
7.3681494e-07
7.3551571e-07
7.2920171e-07
7.2837149e-07
7.2312254e-07
7.2190174e-07
7.1693614e-07
7.172806e-07
7.1378959e-07
7.136731e-07
7.1117607e-07
7.1151799e-07
7.1040774e-07
7.1137941e-07
7.1042177e-07
7.1130699e-07
7.1216666e-07
7.1294851e-07
7.1381922e-07
7.1596851e-07
7.172349e-07
7.1993481e-07
7.2152695e-07
7.2364024e-07
7.2661096e-07
7.2881941e-07
7.3074416e-07
7.3437505e-07
5.4836308e-07
6.5312538e-07
6.7180655e-07
6.2712689e-07
4.95168e-07
4.9015359e-07
4.5645692e-07
3.9921237e-07
3.4836357e-07
3.8349588e-07
3.2387944e-07
3.1155866e-07
2.6203015e-07
2.2747318e-07
9.7103653e-07
9.5300441e-07
9.3632187e-07
9.2328093e-07
9.1228984e-07
9.0215572e-07
8.9377716e-07
8.8514593e-07
8.7911211e-07
8.713955e-07
8.6689846e-07
8.5972206e-07
8.5547937e-07
8.481283e-07
8.4473696e-07
8.3793381e-07
8.3452062e-07
8.287715e-07
8.2436893e-07
8.1862345e-07
8.1366306e-07
8.081423e-07
8.0392136e-07
7.9783632e-07
7.9480751e-07
7.8936177e-07
7.8854685e-07
7.8238704e-07
7.8164291e-07
7.7576803e-07
7.7459439e-07
7.6907648e-07
7.6672523e-07
7.6086937e-07
7.5976674e-07
7.5320557e-07
7.5371796e-07
7.4736594e-07
7.4690623e-07
7.3977828e-07
7.3927462e-07
7.3177043e-07
7.3148917e-07
7.2411532e-07
7.2236088e-07
7.1436903e-07
7.1214096e-07