/*--------------------------------*- C++ -*----------------------------------*\
| =========                 |                                                 |
| \\      /  F ield         | OpenFOAM: The Open Source CFD Toolbox           |
|  \\    /   O peration     | Version:  2406                                  |
|   \\  /    A nd           | Website:  www.openfoam.com                      |
|    \\/     M anipulation  |                                                 |
\*---------------------------------------------------------------------------*/
FoamFile
{
    version     2.0;
    format      ascii;
    arch        "LSB;label=32;scalar=64";
    class       volScalarField;
    location    "35";
    object      k_0;
}
// * * * * * * * * * * * * * * * * * * * * * * * * * * * * * * * * * * * * * //

dimensions      [0 2 -2 0 0 0 0];

internalField   nonuniform List<scalar> 
62344
(
4.7330398e-06
3.6032878e-06
2.7947042e-06
2.4247108e-06
2.1386172e-06
1.8612955e-06
1.6167887e-06
1.4161754e-06
1.2637587e-06
1.1609138e-06
1.0915718e-06
1.0453265e-06
1.0090385e-06
9.6967193e-07
9.234829e-07
8.7785072e-07
8.3724042e-07
8.0110271e-07
7.6950816e-07
7.4429544e-07
7.2587508e-07
7.1155264e-07
6.9877548e-07
6.8554453e-07
6.7060303e-07
6.5325038e-07
6.356647e-07
6.2193498e-07
6.1584913e-07
6.1429011e-07
6.1400831e-07
6.1590413e-07
6.2104371e-07
6.2627884e-07
6.3865642e-07
6.6394831e-07
6.9771612e-07
7.4322276e-07
7.8701532e-07
8.4836161e-07
9.1544905e-07
1.0100876e-06
1.0907502e-06
1.1732977e-06
1.2719299e-06
1.3939961e-06
1.614714e-06
1.8009977e-06
2.013718e-06
2.1601602e-06
2.40341e-06
2.5576543e-06
2.8080758e-06
2.9793027e-06
3.3925034e-06
4.7266475e-06
3.606463e-06
2.7958911e-06
2.4269945e-06
2.1448249e-06
1.869632e-06
1.6250703e-06
1.4232404e-06
1.2696717e-06
1.1658326e-06
1.0957249e-06
1.0492751e-06
1.0141302e-06
9.7602062e-07
9.3038696e-07
8.8432568e-07
8.4363721e-07
8.0674478e-07
7.7417511e-07
7.4828703e-07
7.2874013e-07
7.1375317e-07
7.0122883e-07
6.8800181e-07
6.7332615e-07
6.5544891e-07
6.3705584e-07
6.2078884e-07
6.1193286e-07
6.0833369e-07
6.0692771e-07
6.0854453e-07
6.1239945e-07
6.1480456e-07
6.2101092e-07
6.3681722e-07
6.5628902e-07
6.9392235e-07
7.5526501e-07
8.0408888e-07
8.6362232e-07
9.6274827e-07
1.0779692e-06
1.1642199e-06
1.2723377e-06
1.3574185e-06
1.5231322e-06
1.6778709e-06
1.9691789e-06
2.131311e-06
2.4074538e-06
2.5589395e-06
2.8225889e-06
2.96322e-06
3.2446521e-06
4.7355245e-06
3.6189025e-06
2.8054355e-06
2.436383e-06
2.1550218e-06
1.8794373e-06
1.6340474e-06
1.4313885e-06
1.2761918e-06
1.1706495e-06
1.0997257e-06
1.0521528e-06
1.0169424e-06
9.8040695e-07
9.3696228e-07
8.9170989e-07
8.5080876e-07
8.1378102e-07
7.8082215e-07
7.5474175e-07
7.348859e-07
7.1898447e-07
7.0660624e-07
6.9323371e-07
6.7911775e-07
6.6198287e-07
6.4417096e-07
6.2729579e-07
6.1685864e-07
6.1150715e-07
6.090804e-07
6.1083962e-07
6.1369442e-07
6.1553361e-07
6.2071264e-07
6.2983242e-07
6.4777427e-07
6.6745337e-07
7.066543e-07
7.5110215e-07
8.021272e-07
8.515431e-07
9.5949633e-07
1.0666449e-06
1.2096274e-06
1.2803892e-06
1.4128383e-06
1.5180842e-06
1.768532e-06
1.9830897e-06
2.3128775e-06
2.4911247e-06
2.8127825e-06
3.0047716e-06
3.2403016e-06
4.742009e-06
3.6317718e-06
2.8136267e-06
2.4453717e-06
2.1645563e-06
1.8889356e-06
1.6446504e-06
1.4408239e-06
1.2823665e-06
1.1741075e-06
1.1033826e-06
1.0570653e-06
1.0210711e-06
9.8558674e-07
9.4390314e-07
8.9756404e-07
8.5535733e-07
8.186066e-07
7.8545435e-07
7.5885538e-07
7.3816098e-07
7.2171477e-07
7.1003992e-07
6.9772058e-07
6.8357546e-07
6.6615073e-07
6.4854831e-07
6.3201527e-07
6.2081827e-07
6.132586e-07
6.0979304e-07
6.1190111e-07
6.1429075e-07
6.1661982e-07
6.2171044e-07
6.3154407e-07
6.4119512e-07
6.6455616e-07
6.8788473e-07
7.2661416e-07
7.6284875e-07
8.0196767e-07
8.8716092e-07
9.4611133e-07
1.0593381e-06
1.1384556e-06
1.2601949e-06
1.3460869e-06
1.4983234e-06
1.6777802e-06
1.9782208e-06
2.1963442e-06
2.6089905e-06
2.8655062e-06
3.1711269e-06
4.7456521e-06
3.6406931e-06
2.8201247e-06
2.4526296e-06
2.1743586e-06
1.9003381e-06
1.6550927e-06
1.4484691e-06
1.2878042e-06
1.177895e-06
1.1077654e-06
1.0607055e-06
1.0245501e-06
9.8908035e-07
9.4717918e-07
9.0206334e-07
8.595881e-07
8.2206643e-07
7.8794548e-07
7.6067096e-07
7.4041178e-07
7.2496305e-07
7.1383489e-07
7.0243611e-07
6.8928846e-07
6.7252638e-07
6.5497288e-07
6.3838369e-07
6.2598771e-07
6.1671722e-07
6.1293241e-07
6.1502376e-07
6.1667682e-07
6.1847844e-07
6.2364461e-07
6.2985938e-07
6.3843692e-07
6.5390474e-07
6.8053357e-07
7.0039318e-07
7.394095e-07
7.709498e-07
8.4026888e-07
8.8648687e-07
9.6961059e-07
1.0261457e-06
1.1398304e-06
1.215657e-06
1.3489107e-06
1.4441896e-06
1.6316434e-06
1.7590522e-06
2.0720364e-06
2.3146107e-06
2.8187153e-06
4.7497671e-06
3.65036e-06
2.8263167e-06
2.4602812e-06
2.1822581e-06
1.9101635e-06
1.6627446e-06
1.4566975e-06
1.2945343e-06
1.1838828e-06
1.1126487e-06
1.0633519e-06
1.0261427e-06
9.9330502e-07
9.540865e-07
9.0968366e-07
8.6660951e-07
8.2798688e-07
7.9354183e-07
7.6612808e-07
7.4516099e-07
7.2915364e-07
7.1702157e-07
7.0562374e-07
6.9272583e-07
6.7635927e-07
6.5884209e-07
6.4245225e-07
6.2959014e-07
6.1894967e-07
6.1467205e-07
6.1654793e-07
6.1774093e-07
6.1903439e-07
6.2496147e-07
6.3067925e-07
6.3780195e-07
6.4936983e-07
6.7388055e-07
6.916369e-07
7.2510635e-07
7.5527524e-07
8.1909598e-07
8.6191541e-07
9.4131665e-07
9.8966195e-07
1.0938106e-06
1.1614954e-06
1.2829629e-06
1.3588111e-06
1.5025518e-06
1.5861783e-06
1.7815012e-06
1.9266043e-06
2.2687224e-06
4.758526e-06
3.6613367e-06
2.8352664e-06
2.4697427e-06
2.1902454e-06
1.9187796e-06
1.6710019e-06
1.4645333e-06
1.301942e-06
1.1881173e-06
1.1143386e-06
1.065262e-06
1.0291262e-06
9.980461e-07
9.6064384e-07
9.1531203e-07
8.7080203e-07
8.3252229e-07
7.9952301e-07
7.7165606e-07
7.4861149e-07
7.316245e-07
7.1934438e-07
7.0927978e-07
6.977614e-07
6.8228273e-07
6.6440253e-07
6.4729501e-07
6.3340197e-07
6.2116668e-07
6.1628845e-07
6.1801704e-07
6.1908627e-07
6.2031156e-07
6.2655365e-07
6.3241075e-07
6.4025241e-07
6.5034304e-07
6.7324115e-07
6.9022053e-07
7.2040486e-07
7.4718517e-07
8.0168115e-07
8.3750609e-07
9.1328479e-07
9.5874867e-07
1.0572594e-06
1.1184648e-06
1.2344866e-06
1.3030871e-06
1.4410338e-06
1.5170915e-06
1.6834781e-06
1.7873828e-06
2.0053972e-06
4.7622426e-06
3.6700464e-06
2.8415398e-06
2.4764454e-06
2.1978726e-06
1.9282628e-06
1.6812902e-06
1.4724999e-06
1.3081376e-06
1.1909053e-06
1.1161404e-06
1.0688035e-06
1.0329636e-06
1.0007151e-06
9.629744e-07
9.1918535e-07
8.7566847e-07
8.3687477e-07
8.0323504e-07
7.749772e-07
7.5147712e-07
7.3403569e-07
7.2183341e-07
7.1247051e-07
7.0222303e-07
6.8873587e-07
6.7193754e-07
6.5475946e-07
6.394777e-07
6.248735e-07
6.1796726e-07
6.1882026e-07
6.1941332e-07
6.2089242e-07
6.2724911e-07
6.3364669e-07
6.4435042e-07
6.550192e-07
6.7708207e-07
6.9204578e-07
7.2015541e-07
7.4357246e-07
7.8974081e-07
8.1875002e-07
8.8565739e-07
9.2991869e-07
1.0193263e-06
1.0714421e-06
1.1756419e-06
1.2367193e-06
1.3670562e-06
1.4500485e-06
1.6023202e-06
1.7066263e-06
1.8950358e-06
4.763484e-06
3.6766289e-06
2.8458523e-06
2.4818247e-06
2.205343e-06
1.9376317e-06
1.6901279e-06
1.4797638e-06
1.3143487e-06
1.194973e-06
1.1194023e-06
1.0716787e-06
1.0350524e-06
1.0020558e-06
9.6475722e-07
9.2249156e-07
8.7972895e-07
8.3981046e-07
8.0498821e-07
7.7604339e-07
7.5269116e-07
7.3515638e-07
7.2284949e-07
7.1269694e-07
7.0271428e-07
6.9028551e-07
6.7443704e-07
6.57788e-07
6.4232783e-07
6.2743656e-07
6.1959082e-07
6.1987106e-07
6.1999252e-07
6.2207828e-07
6.2803844e-07
6.3361577e-07
6.4459049e-07
6.5581584e-07
6.7730666e-07
6.9106793e-07
7.1764242e-07
7.379237e-07
7.7673307e-07
8.0150727e-07
8.5873136e-07
9.0218008e-07
9.883546e-07
1.035723e-06
1.1275687e-06
1.1801354e-06
1.2898732e-06
1.3653716e-06
1.5060027e-06
1.6047542e-06
1.7413505e-06
4.7675287e-06
3.6843173e-06
2.8507726e-06
2.4877954e-06
2.2122965e-06
1.9455999e-06
1.6964444e-06
1.4864099e-06
1.3206407e-06
1.2005208e-06
1.123868e-06
1.0743568e-06
1.0365364e-06
1.0037222e-06
9.6850317e-07
9.2824871e-07
8.8558434e-07
8.444642e-07
8.0824788e-07
7.7864771e-07
7.5563043e-07
7.37959e-07
7.2489744e-07
7.1361783e-07
7.0315161e-07
6.9141849e-07
6.7677264e-07
6.6124801e-07
6.461087e-07
6.3155759e-07
6.2315973e-07
6.226599e-07
6.2220977e-07
6.2472929e-07
6.3002156e-07
6.3420901e-07
6.4376738e-07
6.5534751e-07
6.7490138e-07
6.8789965e-07
7.1429644e-07
7.3453232e-07
7.6589377e-07
7.8779019e-07
8.3627106e-07
8.7338875e-07
9.4993617e-07
9.9682827e-07
1.0782739e-06
1.1246572e-06
1.2222203e-06
1.2899376e-06
1.4187341e-06
1.4983588e-06
1.628703e-06
4.7720007e-06
3.6922256e-06
2.8568891e-06
2.4950561e-06
2.2187104e-06
1.9532542e-06
1.7037682e-06
1.4940177e-06
1.3280166e-06
1.2063528e-06
1.1264622e-06
1.0758025e-06
1.0397106e-06
1.0087092e-06
9.751205e-07
9.3599436e-07
8.9285558e-07
8.5077774e-07
8.1396855e-07
7.8504922e-07
7.6184417e-07
7.4314003e-07
7.283181e-07
7.1642221e-07
7.0571397e-07
6.9465575e-07
6.8095563e-07
6.6683747e-07
6.5196494e-07
6.3785493e-07
6.2951276e-07
6.2801243e-07
6.2682978e-07
6.2941746e-07
6.3464414e-07
6.3762548e-07
6.4578993e-07
6.578368e-07
6.7497833e-07
6.8651874e-07
7.1158196e-07
7.3277652e-07
7.6313994e-07
7.8304953e-07
8.2612379e-07
8.6042023e-07
9.2521546e-07
9.7015175e-07
1.0458005e-06
1.0842507e-06
1.170605e-06
1.2252371e-06
1.3309243e-06
1.4022217e-06
1.5101878e-06
4.7735616e-06
3.6995697e-06
2.8620722e-06
2.5020841e-06
2.2248344e-06
1.9615165e-06
1.7140955e-06
1.5027614e-06
1.336282e-06
1.2113947e-06
1.1276723e-06
1.0772084e-06
1.0448284e-06
1.0136186e-06
9.8015985e-07
9.4208698e-07
8.9927148e-07
8.5697088e-07
8.1987193e-07
7.9103973e-07
7.6757828e-07
7.4875245e-07
7.3335178e-07
7.2179015e-07
7.123893e-07
7.0244473e-07
6.8935778e-07
6.7552483e-07
6.5940143e-07
6.4375519e-07
6.3357913e-07
6.2980053e-07
6.2774351e-07
6.3008939e-07
6.3566514e-07
6.3886884e-07
6.4777784e-07
6.6133778e-07
6.7889892e-07
6.8903194e-07
7.1281168e-07
7.3421586e-07
7.6890095e-07
7.8958375e-07
8.3233208e-07
8.6579094e-07
9.2638773e-07
9.7199244e-07
1.0287572e-06
1.1024552e-06
1.1640463e-06
1.2293393e-06
1.3053412e-06
1.3862603e-06
1.4859303e-06
4.7713308e-06
3.7048784e-06
2.8653287e-06
2.5066745e-06
2.231765e-06
1.9704101e-06
1.7241705e-06
1.5113036e-06
1.3438197e-06
1.2164671e-06
1.1304193e-06
1.079137e-06
1.0470349e-06
1.0155854e-06
9.8186853e-07
9.4472084e-07
9.027565e-07
8.6034383e-07
8.2262916e-07
7.9278506e-07
7.6888934e-07
7.4992913e-07
7.3455282e-07
7.2296727e-07
7.1440301e-07
7.048031e-07
6.9220485e-07
6.7886094e-07
6.6263515e-07
6.462847e-07
6.3464356e-07
6.2906089e-07
6.2654155e-07
6.2861437e-07
6.3388777e-07
6.3808333e-07
6.463304e-07
6.6202771e-07
6.8221941e-07
6.9361843e-07
7.1439416e-07
7.4470741e-07
7.7933083e-07
8.0355262e-07
8.4494021e-07
8.9223697e-07
9.4521179e-07
9.7920577e-07
1.023318e-06
1.1231278e-06
1.1840253e-06
1.2706812e-06
1.3212151e-06
1.4041257e-06
1.4970011e-06
4.7693132e-06
3.7090087e-06
2.8671127e-06
2.5084176e-06
2.2376456e-06
1.9773321e-06
1.731619e-06
1.5179551e-06
1.3500458e-06
1.2218716e-06
1.1341831e-06
1.0814116e-06
1.0480677e-06
1.0166695e-06
9.824362e-07
9.4561712e-07
9.0560893e-07
8.6357621e-07
8.2483943e-07
7.9331201e-07
7.6833007e-07
7.4876913e-07
7.3295843e-07
7.2073155e-07
7.1242566e-07
7.0354925e-07
6.9191186e-07
6.7938625e-07
6.6395549e-07
6.4754155e-07
6.3492356e-07
6.2714053e-07
6.2371401e-07
6.2509111e-07
6.2933392e-07
6.3412012e-07
6.4168764e-07
6.5773429e-07
6.7860318e-07
6.9323205e-07
7.139337e-07
7.4605958e-07
7.8133062e-07
8.1502501e-07
8.5359849e-07
9.0297468e-07
9.4807074e-07
9.8138998e-07
1.0320944e-06
1.1375727e-06
1.2080856e-06
1.2893986e-06
1.3355373e-06
1.4188285e-06
1.5049763e-06
4.7675487e-06
3.713052e-06
2.8690118e-06
2.5096912e-06
2.2428575e-06
1.9834037e-06
1.7376664e-06
1.5241873e-06
1.3553182e-06
1.2271722e-06
1.1387474e-06
1.0841704e-06
1.0488121e-06
1.0177049e-06
9.8439848e-07
9.4776722e-07
9.0866856e-07
8.6746921e-07
8.2800884e-07
7.951466e-07
7.6873982e-07
7.4847545e-07
7.3242242e-07
7.1918124e-07
7.0993089e-07
7.0070408e-07
6.8959235e-07
6.7807559e-07
6.6410225e-07
6.4859507e-07
6.3613277e-07
6.268669e-07
6.2280792e-07
6.236797e-07
6.2677404e-07
6.3085076e-07
6.382134e-07
6.5249951e-07
6.7029084e-07
6.8569744e-07
7.0505484e-07
7.387394e-07
7.7326309e-07
8.1052634e-07
8.4982808e-07
8.9614714e-07
9.3684736e-07
9.6857453e-07
1.0219861e-06
1.1136656e-06
1.1909699e-06
1.2577702e-06
1.3094588e-06
1.4037154e-06
1.4784868e-06
4.7672403e-06
3.7175781e-06
2.8720377e-06
2.5122655e-06
2.2475054e-06
1.98895e-06
1.7440232e-06
1.5316006e-06
1.3611926e-06
1.2328089e-06
1.1439682e-06
1.0869921e-06
1.050409e-06
1.0204212e-06
9.8904347e-07
9.5347491e-07
9.1489052e-07
8.7398189e-07
8.3409207e-07
8.0009293e-07
7.7225935e-07
7.5128751e-07
7.3552016e-07
7.2149004e-07
7.1095504e-07
7.006718e-07
6.8976569e-07
6.79224e-07
6.6636893e-07
6.5231478e-07
6.4041942e-07
6.2952438e-07
6.2466419e-07
6.2505897e-07
6.2675537e-07
6.2984518e-07
6.3750826e-07
6.4751316e-07
6.6206857e-07
6.7678516e-07
6.9403891e-07
7.2140498e-07
7.5104553e-07
7.8414853e-07
8.2998501e-07
8.6427095e-07
9.0255935e-07
9.2934743e-07
9.878426e-07
1.0466004e-06
1.1245505e-06
1.1757234e-06
1.2496728e-06
1.3164299e-06
1.3979285e-06
4.7661431e-06
3.7221692e-06
2.8751895e-06
2.5160333e-06
2.2519895e-06
1.9947236e-06
1.7517716e-06
1.5406483e-06
1.3685387e-06
1.2390087e-06
1.1490277e-06
1.0898273e-06
1.0537599e-06
1.025937e-06
9.9607171e-07
9.6221786e-07
9.2407232e-07
8.8323137e-07
8.4320863e-07
8.0826275e-07
7.7975705e-07
7.5835321e-07
7.4285031e-07
7.2897696e-07
7.1734131e-07
7.0619432e-07
6.9583348e-07
6.8608171e-07
6.7375816e-07
6.6124755e-07
6.5016888e-07
6.3800303e-07
6.3102246e-07
6.304076e-07
6.3037262e-07
6.3189016e-07
6.3809517e-07
6.4619196e-07
6.555943e-07
6.6701258e-07
6.8365913e-07
7.0412632e-07
7.2690149e-07
7.4571293e-07
7.8531733e-07
8.1307041e-07
8.4793204e-07
8.6591793e-07
9.0596076e-07
9.348063e-07
9.9539639e-07
1.0343999e-06
1.1024402e-06
1.1413408e-06
1.2171483e-06
4.7647482e-06
3.7264105e-06
2.8783147e-06
2.519795e-06
2.2564944e-06
2.0004083e-06
1.7597775e-06
1.5493797e-06
1.3770841e-06
1.245157e-06
1.1520943e-06
1.092348e-06
1.0575637e-06
1.0307121e-06
1.0018237e-06
9.6873742e-07
9.3080619e-07
8.8926673e-07
8.4894554e-07
8.1400927e-07
7.8611834e-07
7.6428681e-07
7.4810407e-07
7.3493368e-07
7.2386659e-07
7.1332916e-07
7.0440652e-07
6.9536406e-07
6.8345765e-07
6.7171033e-07
6.6070342e-07
6.4838773e-07
6.4018103e-07
6.3892208e-07
6.3769197e-07
6.3813457e-07
6.4335164e-07
6.4966189e-07
6.55169e-07
6.6326766e-07
6.7712932e-07
6.9376263e-07
7.0966233e-07
7.2080309e-07
7.4916586e-07
7.7365795e-07
8.0439922e-07
8.1999975e-07
8.4629477e-07
8.6516614e-07
9.0384179e-07
9.2898547e-07
9.7190772e-07
1.0010572e-06
1.0533006e-06
4.762469e-06
3.7305912e-06
2.8809428e-06
2.5224435e-06
2.2612679e-06
2.0066623e-06
1.7671437e-06
1.5565884e-06
1.3843917e-06
1.2503971e-06
1.1542685e-06
1.0932586e-06
1.0582059e-06
1.031264e-06
1.0034607e-06
9.7066382e-07
9.3308943e-07
8.9170899e-07
8.5159333e-07
8.172292e-07
7.9070797e-07
7.6937573e-07
7.5334498e-07
7.4120206e-07
7.3198074e-07
7.2368694e-07
7.1672656e-07
7.0878928e-07
6.9851231e-07
6.8911209e-07
6.8056609e-07
6.7068169e-07
6.6486362e-07
6.6537621e-07
6.6479068e-07
6.652659e-07
6.7123835e-07
6.7818143e-07
6.8271659e-07
6.8851192e-07
7.0068245e-07
7.1614055e-07
7.2804363e-07
7.3689106e-07
7.605833e-07
7.8579897e-07
8.1152777e-07
8.3468788e-07
8.5671993e-07
8.7426839e-07
8.9953248e-07
9.2643616e-07
9.4650757e-07
9.8802976e-07
1.0211785e-06
4.7587812e-06
3.7327535e-06
2.8825384e-06
2.5231363e-06
2.2638649e-06
2.0106065e-06
1.7707723e-06
1.5593696e-06
1.3870455e-06
1.2527773e-06
1.154726e-06
1.0917037e-06
1.0545425e-06
1.026635e-06
1.0013222e-06
9.7012981e-07
9.3589792e-07
8.9815458e-07
8.6181087e-07
8.319854e-07
8.1077941e-07
7.9479409e-07
7.841915e-07
7.764956e-07
7.7393319e-07
7.7284678e-07
7.7372908e-07
7.7428304e-07
7.7202648e-07
7.6973846e-07
7.7057885e-07
7.7052734e-07
7.7282312e-07
7.8003596e-07
7.8807671e-07
7.97747e-07
8.136589e-07
8.2685376e-07
8.3510913e-07
8.4389863e-07
8.6019032e-07
8.7653556e-07
8.8508994e-07
8.9102519e-07
9.0953215e-07
9.4036148e-07
9.6784423e-07
9.9912304e-07
1.0149465e-06
1.0304307e-06
1.0427015e-06
1.064358e-06
1.0797913e-06
1.1199598e-06
1.1199733e-06
4.7563762e-06
3.7354968e-06
2.8831641e-06
2.5199781e-06
2.2609832e-06
2.0083831e-06
1.7680769e-06
1.5570817e-06
1.3860607e-06
1.2544212e-06
1.1582874e-06
1.0951406e-06
1.0585943e-06
1.0326904e-06
1.0157192e-06
9.9445631e-07
9.8029817e-07
9.6147724e-07
9.4377624e-07
9.3894654e-07
9.4105637e-07
9.4830725e-07
9.6514637e-07
9.8011587e-07
9.9594962e-07
1.0310679e-06
1.0680958e-06
1.1020757e-06
1.1299757e-06
1.1613643e-06
1.1851525e-06
1.2095194e-06
1.2476736e-06
1.2973617e-06
1.3430215e-06
1.380626e-06
1.4294684e-06
1.471964e-06
1.4990601e-06
1.5256904e-06
1.5655894e-06
1.6000531e-06
1.6151542e-06
1.6174191e-06
1.63351e-06
1.6748369e-06
1.7291028e-06
1.7708063e-06
1.7851395e-06
1.7846919e-06
1.7869507e-06
1.7978937e-06
1.8110147e-06
1.8363623e-06
1.7780962e-06
4.7458673e-06
3.7287356e-06
2.8764096e-06
2.5027154e-06
2.2435581e-06
1.9968041e-06
1.7685922e-06
1.5739392e-06
1.4169477e-06
1.3033835e-06
1.2294982e-06
1.1820228e-06
1.1657928e-06
1.1681486e-06
1.1815365e-06
1.2072296e-06
1.2705793e-06
1.3240069e-06
1.3997353e-06
1.4688163e-06
1.5654726e-06
1.6721246e-06
1.7798878e-06
1.8765276e-06
1.9593957e-06
2.1175634e-06
2.2858874e-06
2.4191458e-06
2.554737e-06
2.6832426e-06
2.8120787e-06
2.9106041e-06
3.0460843e-06
3.2167929e-06
3.3787e-06
3.4875009e-06
3.6395297e-06
3.7720311e-06
3.8527459e-06
3.9197764e-06
4.0335085e-06
4.1457148e-06
4.1991706e-06
4.1966029e-06
4.2076949e-06
4.2596458e-06
4.3537319e-06
4.4241366e-06
4.4411226e-06
4.4105226e-06
4.3799182e-06
4.3664847e-06
4.3699501e-06
4.3831613e-06
4.1517107e-06
4.7305086e-06
3.7102326e-06
2.8551197e-06
2.4735052e-06
2.2510744e-06
2.0678609e-06
1.9354142e-06
1.8415416e-06
1.7642064e-06
1.7518596e-06
1.771948e-06
1.8127295e-06
1.903916e-06
1.9934125e-06
2.1815656e-06
2.3463729e-06
2.6748919e-06
2.9535016e-06
3.2738365e-06
3.6097229e-06
3.9435193e-06
4.3337017e-06
4.684921e-06
5.0199289e-06
5.3089843e-06
5.6934251e-06
6.1957911e-06
6.5770754e-06
6.9725898e-06
7.3099379e-06
7.7646968e-06
8.0594244e-06
8.4033469e-06
8.8049218e-06
9.211647e-06
9.4582632e-06
9.8367608e-06
1.0169683e-05
1.038971e-05
1.0531184e-05
1.0783253e-05
1.1079885e-05
1.1262042e-05
1.127927e-05
1.1277824e-05
1.1328705e-05
1.1443395e-05
1.1570834e-05
1.1645618e-05
1.1599986e-05
1.1525081e-05
1.1438687e-05
1.1407874e-05
1.1397992e-05
1.0876203e-05
4.6499564e-06
3.6277433e-06
2.9151596e-06
2.6376236e-06
2.6555877e-06
2.8076604e-06
3.1848309e-06
3.5367904e-06
3.8459457e-06
4.1240014e-06
4.5085776e-06
4.7597211e-06
5.2237085e-06
5.560286e-06
6.1625629e-06
6.6765113e-06
7.4380297e-06
8.1841607e-06
8.932246e-06
9.7332549e-06
1.041843e-05
1.1256169e-05
1.19992e-05
1.2724154e-05
1.3384733e-05
1.4040421e-05
1.4956163e-05
1.575555e-05
1.6545716e-05
1.7175609e-05
1.8134351e-05
1.875599e-05
1.9474827e-05
2.0178957e-05
2.0915275e-05
2.1429184e-05
2.2105906e-05
2.2713237e-05
2.3206199e-05
2.3552443e-05
2.4036189e-05
2.4502013e-05
2.4945338e-05
2.5118696e-05
2.5251373e-05
2.5285334e-05
2.5473466e-05
2.5614577e-05
2.5831346e-05
2.5941919e-05
2.6013305e-05
2.5899236e-05
2.5767604e-05
2.5653123e-05
2.5105691e-05
4.8335096e-06
4.338506e-06
4.2825648e-06
4.4767732e-06
5.1514746e-06
6.7212994e-06
8.6380724e-06
1.0104978e-05
1.1220911e-05
1.2061053e-05
1.2848034e-05
1.3361942e-05
1.4074091e-05
1.4680702e-05
1.5479364e-05
1.6262863e-05
1.72635e-05
1.8360602e-05
1.9434945e-05
2.0541606e-05
2.1407404e-05
2.2336827e-05
2.3155822e-05
2.3910317e-05
2.4678169e-05
2.533745e-05
2.6045758e-05
2.6727359e-05
2.7564652e-05
2.8188284e-05
2.8973028e-05
2.971633e-05
3.045031e-05
3.1050922e-05
3.1727304e-05
3.2258458e-05
3.2701036e-05
3.3081193e-05
3.355984e-05
3.4022527e-05
3.4460676e-05
3.4788001e-05
3.5028102e-05
3.5212947e-05
3.5331989e-05
3.5327736e-05
3.5189758e-05
3.5000018e-05
3.5005661e-05
3.5142358e-05
3.5287121e-05
3.5229849e-05
3.4982467e-05
3.4666584e-05
3.4392163e-05
1.0540276e-05
1.5768124e-05
1.6380829e-05
1.6698268e-05
1.7879371e-05
2.0398022e-05
2.2377334e-05
2.359439e-05
2.4199967e-05
2.4375839e-05
2.433813e-05
2.4269275e-05
2.4259846e-05
2.4262201e-05
2.42826e-05
2.4310917e-05
2.4504412e-05
2.4688965e-05
2.5053004e-05
2.5361263e-05
2.5587773e-05
2.5834266e-05
2.6040473e-05
2.6194677e-05
2.6354667e-05
2.6480713e-05
2.6537608e-05
2.6525482e-05
2.6621113e-05
2.6760578e-05
2.6802678e-05
2.6957375e-05
2.7135528e-05
2.7143307e-05
2.7202101e-05
2.7295851e-05
2.7289563e-05
2.7178268e-05
2.7154353e-05
2.7247666e-05
2.7322658e-05
2.7234401e-05
2.7066399e-05
2.6988933e-05
2.703851e-05
2.6984902e-05
2.6715099e-05
2.636809e-05
2.6169888e-05
2.6241629e-05
2.6389448e-05
2.646067e-05
2.6317816e-05
2.600784e-05
2.6081836e-05
8.5586424e-05
0.00012326887
0.00010913332
9.4270751e-05
8.3931134e-05
7.407106e-05
6.5576144e-05
5.7856614e-05
5.1245852e-05
4.5803248e-05
4.1641604e-05
3.8331513e-05
3.5645107e-05
3.321187e-05
3.0646832e-05
2.7736181e-05
2.4808981e-05
2.2265857e-05
2.0135528e-05
1.8335287e-05
1.6793481e-05
1.5460243e-05
1.4395478e-05
1.3637117e-05
1.3142874e-05
1.259381e-05
1.1983147e-05
1.1258944e-05
1.0451247e-05
9.6420347e-06
8.9075112e-06
8.2615878e-06
7.799522e-06
7.3206764e-06
6.8543199e-06
6.5293994e-06
6.2901534e-06
6.0545651e-06
5.7759323e-06
5.5879589e-06
5.4745526e-06
5.3276284e-06
5.1707983e-06
5.0118833e-06
4.9738548e-06
4.9960779e-06
4.9823005e-06
4.8476154e-06
4.6585625e-06
4.5338166e-06
4.5049959e-06
4.6184542e-06
4.7598602e-06
4.7859499e-06
4.7697425e-06
4.4117027e-06
2.5202144e-05
3.4251531e-05
2.6136066e-05
1.2004016e-05
4.718906e-06
1.9575389e-06
1.1800267e-06
1.0548984e-06
1.0860836e-06
1.2471548e-06
1.4528343e-06
1.547648e-06
1.5897708e-06
1.5908752e-06
1.5692454e-06
1.589853e-06
1.7030576e-06
1.8516887e-06
1.9753718e-06
2.1257288e-06
2.4155098e-06
3.0350993e-06
3.4262441e-06
3.5924761e-06
3.7117226e-06
3.8926418e-06
4.3133947e-06
2.3670075e-05
3.4326342e-05
2.7641644e-05
1.340058e-05
5.4623461e-06
2.3404835e-06
1.3394247e-06
1.1171445e-06
1.1311978e-06
1.2923929e-06
1.546963e-06
1.6981228e-06
1.7549121e-06
1.7596082e-06
1.7314413e-06
1.7395171e-06
1.8435674e-06
1.9929261e-06
2.1694576e-06
2.3079925e-06
2.5540446e-06
3.0914099e-06
3.9057856e-06
4.0354189e-06
4.1002094e-06
4.2206051e-06
4.2293876e-06
2.2191974e-05
3.4515699e-05
2.880158e-05
1.4714267e-05
6.243178e-06
2.6468085e-06
1.4359779e-06
1.1552958e-06
1.1641363e-06
1.3285536e-06
1.6266445e-06
1.8307349e-06
1.9134219e-06
1.8879111e-06
1.8296575e-06
1.825516e-06
1.9318116e-06
2.0998309e-06
2.3944267e-06
2.4766216e-06
2.6859914e-06
3.1432292e-06
4.1774266e-06
4.5151233e-06
4.5975065e-06
4.7264035e-06
4.0521519e-06
2.0839182e-05
3.4386381e-05
2.9694362e-05
1.6263699e-05
7.206129e-06
3.1030137e-06
1.6129235e-06
1.2260211e-06
1.2161264e-06
1.3731744e-06
1.7242885e-06
1.9325976e-06
2.0749234e-06
2.0917965e-06
2.0498751e-06
1.9995997e-06
2.0699096e-06
2.2560767e-06
2.5203631e-06
2.74811e-06
3.0290099e-06
3.4961662e-06
4.471079e-06
5.2920882e-06
5.5037114e-06
5.6320975e-06
4.1241027e-06
1.909846e-05
3.3678472e-05
3.0247873e-05
1.7971621e-05
8.2734535e-06
3.5829856e-06
1.7829124e-06
1.3022795e-06
1.2856849e-06
1.4311103e-06
1.8227696e-06
2.0996088e-06
2.198168e-06
2.2350463e-06
2.2144538e-06
2.1724513e-06
2.2577147e-06
2.4864435e-06
2.7125654e-06
2.9299031e-06
3.2642456e-06
3.8867066e-06
5.2969429e-06
5.7909626e-06
6.1521954e-06
6.3694536e-06
3.9316073e-06
1.6989597e-05
3.2570372e-05
3.0500474e-05
1.9751806e-05
9.525935e-06
4.3114261e-06
2.1272338e-06
1.4613735e-06
1.3956709e-06
1.5147224e-06
1.9137741e-06
2.2897861e-06
2.4105162e-06
2.4161437e-06
2.4364847e-06
2.4422422e-06
2.5193031e-06
2.7455696e-06
3.1011691e-06
3.2681171e-06
3.571563e-06
4.2142309e-06
6.0862537e-06
6.4115791e-06
6.6315796e-06
6.91302e-06
4.0122606e-06
1.4899548e-05
3.1552337e-05
3.07352e-05
2.1489405e-05
1.0832127e-05
5.0668036e-06
2.5125278e-06
1.6435564e-06
1.4922918e-06
1.5785333e-06
1.9661742e-06
2.4110742e-06
2.6897556e-06
2.7121656e-06
2.7094238e-06
2.6632886e-06
2.7381597e-06
2.9680175e-06
3.5324518e-06
3.708043e-06
4.020403e-06
4.6505953e-06
6.5512361e-06
7.3763348e-06
7.8295263e-06
8.0920216e-06
4.4499324e-06
1.3208779e-05
3.0867907e-05
3.1010271e-05
2.3110555e-05
1.1936401e-05
5.5772179e-06
2.7012579e-06
1.7288687e-06
1.5453019e-06
1.6145608e-06
1.9918751e-06
2.5230664e-06
2.9632286e-06
3.0297565e-06
3.0025303e-06
2.9096859e-06
2.9578064e-06
3.1200047e-06
3.7956841e-06
4.2326475e-06
4.4919953e-06
5.0916455e-06
7.0800238e-06
8.2913547e-06
9.3121985e-06
9.5493531e-06
4.7292955e-06
1.1952308e-05
3.0237157e-05
3.1191992e-05
2.4433761e-05
1.3202756e-05
6.3906385e-06
3.1188339e-06
1.90537e-06
1.6306681e-06
1.6854676e-06
2.061461e-06
2.7870068e-06
3.2981677e-06
3.5143708e-06
3.4942088e-06
3.3379518e-06
3.2326572e-06
3.3323272e-06
3.952911e-06
4.7899185e-06
5.1476678e-06
5.8473918e-06
8.1537663e-06
9.7772319e-06
1.0669823e-05
1.0994994e-05
4.7738717e-06
1.1046029e-05
2.9270391e-05
3.1028613e-05
2.5682369e-05
1.4413015e-05
7.2667288e-06
3.5829125e-06
2.1349406e-06
1.773218e-06
1.8169622e-06
2.2347e-06
3.0839616e-06
3.5819619e-06
3.9049158e-06
3.9100842e-06
3.7851153e-06
3.6544849e-06
3.7322533e-06
4.1870914e-06
5.1230326e-06
5.7455196e-06
6.7416339e-06
9.5086445e-06
1.2146924e-05
1.2360719e-05
1.2225802e-05
4.905861e-06
1.0050989e-05
2.7657948e-05
3.0483977e-05
2.6571982e-05
1.6118905e-05
8.4545264e-06
4.3674141e-06
2.594599e-06
2.0531514e-06
2.0547238e-06
2.4327897e-06
3.3419632e-06
3.9225146e-06
4.2855056e-06
4.3748398e-06
4.3904165e-06
4.2804192e-06
4.3539825e-06
4.6525232e-06
5.4830887e-06
6.0959049e-06
7.1662419e-06
1.0156922e-05
1.3955955e-05
1.4747327e-05
1.4085215e-05
5.3124584e-06
8.9551809e-06
2.5469322e-05
2.9852301e-05
2.7216001e-05
1.7863887e-05
9.7061354e-06
5.0759035e-06
3.0178685e-06
2.3557631e-06
2.2959897e-06
2.6123878e-06
3.5558641e-06
4.1750971e-06
4.6375139e-06
4.9568117e-06
5.170842e-06
5.1297423e-06
5.232927e-06
5.7221977e-06
6.2794269e-06
6.7330114e-06
7.7262151e-06
1.0948181e-05
1.5111184e-05
1.6360714e-05
1.7343435e-05
6.5239093e-06
8.0553212e-06
2.3722348e-05
2.9489707e-05
2.7787355e-05
1.9731288e-05
1.0825706e-05
5.6182744e-06
3.2731377e-06
2.5091736e-06
2.4011712e-06
2.679948e-06
3.6297697e-06
4.3823094e-06
4.9630646e-06
5.3807555e-06
5.6990221e-06
5.7786345e-06
6.027889e-06
6.9886357e-06
7.681474e-06
8.4222693e-06
9.2689204e-06
1.1895782e-05
1.60673e-05
1.7285614e-05
1.9158562e-05
8.1984933e-06
7.5278934e-06
2.2448596e-05
2.9217968e-05
2.8108406e-05
2.1105058e-05
1.2058521e-05
6.445185e-06
3.7441853e-06
2.7688831e-06
2.5619844e-06
2.7790682e-06
3.7123033e-06
4.9203438e-06
5.6508696e-06
5.8886051e-06
6.0887934e-06
6.1035688e-06
6.4018409e-06
7.6144292e-06
9.5347424e-06
1.0063376e-05
1.0797981e-05
1.3027796e-05
1.8067994e-05
1.9402407e-05
2.1794534e-05
9.1725309e-06
7.1862293e-06
2.1312898e-05
2.8567467e-05
2.8124075e-05
2.2756343e-05
1.3416185e-05
7.3654703e-06
4.3427363e-06
3.1587527e-06
2.8605251e-06
3.0531761e-06
4.0581556e-06
5.7617935e-06
7.1231552e-06
7.2323822e-06
7.0868808e-06
6.7118013e-06
6.8723488e-06
7.951138e-06
1.0734499e-05
1.2294883e-05
1.3243125e-05
1.5468865e-05
2.1507074e-05
2.4248852e-05
2.6114113e-05
9.3093111e-06
6.850944e-06
1.97751e-05
2.7481813e-05
2.7891683e-05
2.4263691e-05
1.5089301e-05
8.5666348e-06
5.1858539e-06
3.7753183e-06
3.3534073e-06
3.511634e-06
4.6878575e-06
6.3540175e-06
8.0211449e-06
8.3848166e-06
8.1430111e-06
7.5181703e-06
7.5356507e-06
8.4395684e-06
1.1289422e-05
1.4409522e-05
1.5229777e-05
1.6983682e-05
2.3785178e-05
2.8782039e-05
3.1267409e-05
9.9260883e-06
6.5178106e-06
1.7697565e-05
2.6026228e-05
2.7482409e-05
2.5520626e-05
1.7945177e-05
1.0616466e-05
6.7417539e-06
4.9653282e-06
4.3060818e-06
4.4035209e-06
5.4664917e-06
7.2050684e-06
9.3194365e-06
1.0133749e-05
9.9987875e-06
9.3719968e-06
8.9939316e-06
9.6502677e-06
1.223533e-05
1.5635177e-05
1.6476776e-05
1.8139498e-05
2.5557334e-05
3.6067632e-05
4.0629377e-05
1.2096465e-05
6.2201799e-06
1.5566425e-05
2.4743763e-05
2.7432943e-05
2.6664577e-05
2.0940129e-05
1.314802e-05
8.4844742e-06
6.1813287e-06
5.1936802e-06
5.1467687e-06
6.0586062e-06
8.2141685e-06
1.0264188e-05
1.2455079e-05
1.3369707e-05
1.3404089e-05
1.2677817e-05
1.2900091e-05
1.4780372e-05
1.8247184e-05
1.9796626e-05
2.1855136e-05
2.9103666e-05
4.6185967e-05
4.9489861e-05
1.5833196e-05
6.0451609e-06
1.4105992e-05
2.4193236e-05
2.7721121e-05
2.7550633e-05
2.3438735e-05
1.453615e-05
9.4659939e-06
6.9346353e-06
5.7920307e-06
5.6590326e-06
6.4741069e-06
9.0018217e-06
1.144565e-05
1.4192778e-05
1.6102353e-05
1.6896979e-05
1.6689342e-05
1.7226122e-05
1.9624141e-05
2.3495948e-05
2.4378174e-05
2.553394e-05
3.2293404e-05
5.1694006e-05
5.7280919e-05
1.914787e-05
6.1605629e-06
1.3473733e-05
2.4198901e-05
2.7993013e-05
2.8191218e-05
2.4980868e-05
1.6401956e-05
1.0739421e-05
7.9568983e-06
6.665028e-06
6.3012226e-06
7.0186576e-06
9.5393783e-06
1.3624781e-05
1.6612154e-05
1.8691121e-05
1.9545166e-05
1.901164e-05
1.9686129e-05
2.2176509e-05
2.8245179e-05
3.1259899e-05
3.1812735e-05
3.7609115e-05
5.4509649e-05
7.0673985e-05
1.9762273e-05
6.2335842e-06
1.2592024e-05
2.3933663e-05
2.8359745e-05
2.9191038e-05
2.6983731e-05
1.9818329e-05
1.3852396e-05
1.0698181e-05
8.8310052e-06
7.9708248e-06
8.6249877e-06
1.1244811e-05
1.7582526e-05
2.2614147e-05
2.4797598e-05
2.5109866e-05
2.3069505e-05
2.3603185e-05
2.6092084e-05
3.2396375e-05
3.9740197e-05
4.1803372e-05
4.8829097e-05
5.9505175e-05
8.3531933e-05
1.8549055e-05
6.2445251e-06
1.1036158e-05
2.2672094e-05
2.8572474e-05
3.0626335e-05
2.9878921e-05
2.4855824e-05
1.8454342e-05
1.4524751e-05
1.1598418e-05
1.0189885e-05
1.0846915e-05
1.4012903e-05
2.1968223e-05
2.8943453e-05
3.1309431e-05
3.1349173e-05
2.8175234e-05
2.8250691e-05
3.040611e-05
3.6250286e-05
4.6843242e-05
5.1405156e-05
6.1274582e-05
7.4003637e-05
0.00010406995
1.8395818e-05
6.5091098e-06
9.7899182e-06
2.0702359e-05
2.8144744e-05
3.1289326e-05
3.1602155e-05
2.9260965e-05
2.268046e-05
1.8160983e-05
1.4427774e-05
1.2513698e-05
1.3080545e-05
1.6559527e-05