/*--------------------------------*- C++ -*----------------------------------*\
| =========                 |                                                 |
| \\      /  F ield         | OpenFOAM: The Open Source CFD Toolbox           |
|  \\    /   O peration     | Version:  2406                                  |
|   \\  /    A nd           | Website:  www.openfoam.com                      |
|    \\/     M anipulation  |                                                 |
\*---------------------------------------------------------------------------*/
FoamFile
{
    version     2.0;
    format      ascii;
    arch        "LSB;label=32;scalar=64";
    class       volScalarField;
    location    "35";
    object      k_0;
}
// * * * * * * * * * * * * * * * * * * * * * * * * * * * * * * * * * * * * * //

dimensions      [0 2 -2 0 0 0 0];

internalField   nonuniform List<scalar> 
158064
(
3.9109266e-06
2.9616622e-06
2.3769013e-06
1.9852717e-06
1.7059084e-06
1.4977926e-06
1.3371577e-06
1.2104375e-06
1.1076848e-06
1.0232602e-06
9.5206163e-07
8.9137277e-07
8.3913536e-07
7.9339607e-07
7.5366155e-07
7.1814176e-07
6.8698682e-07
6.5817748e-07
6.3285016e-07
6.0918945e-07
5.8813158e-07
5.6909452e-07
5.5199741e-07
5.361665e-07
5.2187903e-07
5.0865117e-07
4.9702893e-07
4.847362e-07
4.7490538e-07
4.642008e-07
4.5541053e-07
4.4567584e-07
4.3780499e-07
4.2950719e-07
4.2287908e-07
4.1540742e-07
4.0905146e-07
4.0264844e-07
3.9700194e-07
3.9099006e-07
3.8621026e-07
3.8024112e-07
3.7593057e-07
3.7140677e-07
3.674888e-07
3.6337197e-07
3.6006863e-07
3.5694442e-07
3.541246e-07
3.5129594e-07
3.4927035e-07
3.4685875e-07
3.4455618e-07
3.4273613e-07
3.4042938e-07
3.3945925e-07
3.3737958e-07
3.3643842e-07
3.3441142e-07
3.3369779e-07
3.321776e-07
3.3206748e-07
3.3137096e-07
3.3180058e-07
3.3246005e-07
3.3441392e-07
3.3650622e-07
3.4203721e-07
3.4643637e-07
3.5675001e-07
3.6379707e-07
3.770262e-07
3.8974322e-07
4.0481668e-07
4.3055949e-07
4.505838e-07
4.7697468e-07
5.0038793e-07
5.3750573e-07
5.6125678e-07
6.0427457e-07
6.3025016e-07
6.8423649e-07
7.163914e-07
7.8315382e-07
8.2183233e-07
9.0118219e-07
9.5058718e-07
1.0802856e-06
3.9124118e-06
2.963811e-06
2.3791392e-06
1.987446e-06
1.7079683e-06
1.4997815e-06
1.3390175e-06
1.2122362e-06
1.1093439e-06
1.0249335e-06
9.5358787e-07
8.9296796e-07
8.4054996e-07
7.9493455e-07
7.5501164e-07
7.1963391e-07
6.8831529e-07
6.5969655e-07
6.341621e-07
6.1069906e-07
5.8947266e-07
5.7052835e-07
5.5326058e-07
5.3758435e-07
5.2318402e-07
5.0993761e-07
4.9839816e-07
4.8605079e-07
4.7641345e-07
4.6549355e-07
4.5694813e-07
4.4683229e-07
4.3937491e-07
4.3067703e-07
4.2434893e-07
4.1663314e-07
4.1080303e-07
4.0367577e-07
3.9868885e-07
3.9222509e-07
3.8743576e-07
3.8091258e-07
3.7731124e-07
3.7238375e-07
3.6863134e-07
3.6396845e-07
3.6099419e-07
3.57202e-07
3.5468668e-07
3.5134406e-07
3.4984764e-07
3.4692765e-07
3.4528626e-07
3.4302569e-07
3.4118507e-07
3.4007757e-07
3.3815974e-07
3.3735504e-07
3.3559444e-07
3.350904e-07
3.33751e-07
3.3370807e-07
3.3295448e-07
3.3313688e-07
3.3275065e-07
3.3377222e-07
3.3425726e-07
3.3697843e-07
3.3854793e-07
3.4464822e-07
3.4781152e-07
3.5781344e-07
3.6337078e-07
3.77428e-07
3.8584315e-07
4.0396017e-07
4.2324044e-07
4.4814379e-07
4.8270241e-07
5.0463459e-07
5.4853774e-07
5.7362573e-07
6.2602671e-07
6.551633e-07
7.1490792e-07
7.470634e-07
8.1331337e-07
8.5018304e-07
9.4748257e-07
3.913747e-06
2.9658329e-06
2.3812788e-06
1.989531e-06
1.7099479e-06
1.5016342e-06
1.3407556e-06
1.2138593e-06
1.1108592e-06
1.0264e-06
9.549568e-07
8.9433166e-07
8.417616e-07
7.9618608e-07
7.5610766e-07
7.2075094e-07
6.8927385e-07
6.6071863e-07
6.3500814e-07
6.1163298e-07
5.9025421e-07
5.7127128e-07
5.5387433e-07
5.3819106e-07
5.2368951e-07
5.1042705e-07
4.9882679e-07
4.8643011e-07
4.7680999e-07
4.6577351e-07
4.5722514e-07
4.4702685e-07
4.3959934e-07
4.3077709e-07
4.2447633e-07
4.1654037e-07
4.1097883e-07
4.0354327e-07
3.988321e-07
3.9226532e-07
3.8740892e-07
3.8064375e-07
3.7748167e-07
3.7233264e-07
3.687934e-07
3.6358144e-07
3.610365e-07
3.5688444e-07
3.5479997e-07
3.5123228e-07
3.4961491e-07
3.4645805e-07
3.4501422e-07
3.4230076e-07
3.411636e-07
3.390118e-07
3.3816632e-07
3.3642822e-07
3.3565403e-07
3.3411823e-07
3.3355527e-07
3.3252429e-07
3.3212648e-07
3.3196623e-07
3.3203957e-07
3.3249504e-07
3.3346716e-07
3.3554994e-07
3.3732892e-07
3.4207612e-07
3.448664e-07
3.5164825e-07
3.5583464e-07
3.6541992e-07
3.7333933e-07
3.8446248e-07
4.0210474e-07
4.1419143e-07
4.4007658e-07
4.563757e-07
4.8842889e-07
5.0686833e-07
5.4751108e-07
5.7408036e-07
6.2983888e-07
6.6042263e-07
7.2210019e-07
7.5432549e-07
8.3648472e-07
3.9151659e-06
2.9678825e-06
2.3834019e-06
1.9915873e-06
1.7118988e-06
1.5034705e-06
1.3424691e-06
1.2154815e-06
1.1123853e-06
1.0278822e-06
9.5632372e-07
8.9572562e-07
8.4299982e-07
7.9749004e-07
7.5725873e-07
7.2197487e-07
6.9034982e-07
6.6196477e-07
6.3605438e-07
6.1283737e-07
5.9133388e-07
5.7238619e-07
5.5495272e-07
5.3929577e-07
5.2472574e-07
5.1168632e-07
4.9983557e-07
4.8762664e-07
4.7807453e-07
4.6694461e-07
4.583273e-07
4.4838929e-07
4.4077181e-07
4.3196621e-07
4.257261e-07
4.1779152e-07
4.1227401e-07
4.049955e-07
4.0015146e-07
3.9372547e-07
3.8854334e-07
3.8206609e-07
3.7889545e-07
3.7355825e-07
3.6982686e-07
3.6484368e-07
3.6223047e-07
3.5780997e-07
3.5559303e-07
3.5201605e-07
3.5032505e-07
3.4705953e-07
3.455421e-07
3.4278203e-07
3.4156166e-07
3.392778e-07
3.3832712e-07
3.364308e-07
3.3562899e-07
3.3393617e-07
3.3324474e-07
3.3174734e-07
3.3135714e-07
3.3067421e-07
3.3076373e-07
3.3101914e-07
3.3200016e-07
3.3303523e-07
3.3527016e-07
3.3664089e-07
3.408087e-07
3.4464536e-07
3.5084796e-07
3.5533028e-07
3.6628363e-07
3.7413127e-07
3.8954888e-07
3.9917736e-07
4.1961941e-07
4.3529167e-07
4.6584424e-07
4.8051305e-07
5.0992326e-07
5.2797006e-07
5.6758644e-07
5.9119773e-07
6.40447e-07
6.6728779e-07
7.349618e-07
3.9164273e-06
2.9697821e-06
2.3854064e-06
1.9935433e-06
1.7137549e-06
1.5052067e-06
1.3441011e-06
1.2170086e-06
1.1138098e-06
1.0292599e-06
9.5760647e-07
8.9700997e-07
8.4413095e-07
7.9865222e-07
7.5828681e-07
7.2304376e-07
6.9125222e-07
6.6299248e-07
6.368697e-07
6.1376748e-07
5.9213383e-07
5.7312662e-07
5.5559863e-07
5.3990875e-07
5.2525744e-07
5.1229354e-07
5.0023145e-07
4.8811044e-07
4.7850863e-07
4.6729409e-07
4.5859718e-07
4.4883402e-07
4.4102619e-07
4.3221846e-07
4.2599093e-07
4.1801185e-07
4.1244404e-07
4.0523504e-07
4.0027942e-07
3.9392852e-07
3.8858027e-07
3.82372e-07
3.7903671e-07
3.7350649e-07
3.6972417e-07
3.6507704e-07
3.6233574e-07
3.5783992e-07
3.5541115e-07
3.5189567e-07
3.5012526e-07
3.4700757e-07
3.453826e-07
3.4249114e-07
3.4118987e-07
3.3885586e-07
3.3788581e-07
3.3594156e-07
3.3510966e-07
3.333247e-07
3.3253444e-07
3.3080805e-07
3.3017538e-07
3.2899807e-07
3.2903371e-07
3.2912799e-07
3.2977727e-07
3.3045103e-07
3.3242408e-07
3.3389393e-07
3.3687556e-07
3.3959266e-07
3.4586227e-07
3.502073e-07
3.5958989e-07
3.6496961e-07
3.7694735e-07
3.8502698e-07
4.0185767e-07
4.1249557e-07
4.3849017e-07
4.5405291e-07
4.8048365e-07
4.9356365e-07
5.2130451e-07
5.3874355e-07
5.7682006e-07
5.9875928e-07
6.5456096e-07
3.9177255e-06
2.9716746e-06
2.3873792e-06
1.9954554e-06
1.7155702e-06
1.5069049e-06
1.3456959e-06
1.2185076e-06
1.1152184e-06
1.0306373e-06
9.5886297e-07
8.9830482e-07
8.452766e-07
7.9986116e-07
7.5935989e-07
7.2418088e-07
6.9222859e-07
6.6413572e-07
6.3776495e-07
6.1485297e-07
5.9306774e-07
5.741548e-07
5.5655003e-07
5.4083245e-07
5.2613501e-07
5.1341448e-07
5.0100609e-07
4.8920653e-07
4.7957729e-07
4.6824136e-07
4.5950442e-07
4.5011052e-07
4.4193642e-07
4.333209e-07
4.2703177e-07
4.1913209e-07
4.1354312e-07
4.0642938e-07
4.0110636e-07
3.9491485e-07
3.8984505e-07
3.8397565e-07
3.8009706e-07
3.7411152e-07
3.705768e-07
3.6636163e-07
3.6343839e-07
3.5867664e-07
3.5613423e-07
3.5275411e-07
3.5096028e-07
3.4785711e-07
3.4615834e-07
3.4302366e-07
3.4161573e-07
3.3922648e-07
3.3823291e-07
3.3631147e-07
3.3545689e-07
3.3364362e-07
3.3272783e-07
3.3070305e-07
3.2995838e-07
3.284029e-07
3.2817555e-07
3.2775796e-07
3.2797172e-07
3.2843306e-07
3.294949e-07
3.3073489e-07
3.3357582e-07
3.3561753e-07
3.4068118e-07
3.4448951e-07
3.5386122e-07
3.5845215e-07
3.6736253e-07
3.7407026e-07
3.89565e-07
3.9846818e-07
4.1933761e-07
4.3412241e-07
4.58126e-07
4.6993652e-07
4.9389979e-07
5.07394e-07
5.3688583e-07
5.5418478e-07
5.9622454e-07
3.918909e-06
2.9734522e-06
2.3892531e-06
1.9972875e-06
1.717307e-06
1.508533e-06
1.3472237e-06
1.2199398e-06
1.1165624e-06
1.0319282e-06
9.6007231e-07
8.9951629e-07
8.463625e-07
8.0095888e-07
7.6033771e-07
7.2521074e-07
6.9311765e-07
6.6514357e-07
6.3856506e-07
6.1578626e-07
5.938358e-07
5.7496527e-07
5.5718466e-07
5.4148123e-07
5.2677693e-07
5.1409305e-07
5.0144846e-07
4.8984509e-07
4.8006879e-07
4.6864511e-07
4.5989102e-07
4.5064323e-07
4.4224003e-07
4.3380153e-07
4.2740536e-07
4.1955246e-07
4.1389152e-07
4.06812e-07
4.0125536e-07
3.9515955e-07
3.9024369e-07
3.8452968e-07
3.8029257e-07
3.7419321e-07
3.7073308e-07
3.66645e-07
3.6352029e-07
3.5875859e-07
3.5627083e-07
3.5299186e-07
3.5107938e-07
3.4793763e-07
3.4612798e-07
3.4299865e-07
3.4146587e-07
3.3909178e-07
3.3804682e-07
3.36124e-07
3.3521688e-07
3.3335085e-07
3.323365e-07
3.3018954e-07
3.2929589e-07
3.2767162e-07
3.2726575e-07
3.264888e-07
3.2643252e-07
3.266975e-07
3.2751966e-07
3.2848851e-07
3.3064351e-07
3.3222939e-07
3.3581006e-07
3.390403e-07
3.4682399e-07
3.5098007e-07
3.5880824e-07
3.6389423e-07
3.7701839e-07
3.8595163e-07
4.0355758e-07
4.1401791e-07
4.3710063e-07
4.4774051e-07
4.6596797e-07
4.772991e-07
5.0334922e-07
5.1983639e-07
5.5576788e-07
3.9201031e-06
2.9752044e-06
2.3910872e-06
1.9990691e-06
1.7189994e-06
1.510116e-06
1.3487116e-06
1.2213374e-06
1.1178668e-06
1.0332025e-06
9.6125235e-07
9.0070045e-07
8.4743114e-07
8.0204437e-07
7.613289e-07
7.2624831e-07
6.9401066e-07
6.6617018e-07
6.3940661e-07
6.167734e-07
5.9467657e-07
5.7590921e-07
5.5796192e-07
5.4232046e-07
5.2757309e-07
5.1500755e-07
5.0206547e-07
4.9083682e-07
4.8076783e-07
4.6943472e-07
4.6079412e-07
4.5151107e-07
4.4289805e-07
4.3485452e-07
4.2825624e-07
4.2040431e-07
4.1473203e-07
4.0763519e-07
4.0201922e-07
3.9613737e-07
3.9136898e-07
3.8561808e-07
3.8098591e-07
3.750242e-07
3.71866e-07
3.6746502e-07
3.6396675e-07
3.5937619e-07
3.5717054e-07
3.5387324e-07
3.5179893e-07
3.4846227e-07
3.4654895e-07
3.4349398e-07
3.4209701e-07
3.3967692e-07
3.385993e-07
3.3649465e-07
3.3548568e-07
3.3342027e-07
3.3240372e-07
3.3031976e-07
3.2937899e-07
3.2756287e-07
3.2695731e-07
3.2575242e-07
3.2554314e-07
3.2551023e-07
3.2623109e-07
3.2694111e-07
3.2879451e-07
3.2979497e-07
3.3262484e-07
3.3528123e-07
3.4104136e-07
3.4637091e-07
3.5268723e-07
3.5600691e-07
3.6460486e-07
3.7570315e-07
3.8981552e-07
3.9841706e-07
4.1851598e-07
4.305515e-07
4.4682535e-07
4.55987e-07
4.7674333e-07
4.918494e-07
5.261891e-07
3.9212115e-06
2.976866e-06
2.3928392e-06
2.0007782e-06
1.7206194e-06
1.5116431e-06
1.3501451e-06
1.2226809e-06
1.1191258e-06
1.0344144e-06
9.6238431e-07
9.0182305e-07
8.4846907e-07
8.0306658e-07
7.6228614e-07
7.2722805e-07
6.9485114e-07
6.6710881e-07
6.4019495e-07
6.1761517e-07
5.9542414e-07
5.7669157e-07
5.5860183e-07
5.4301651e-07
5.2818766e-07
5.156989e-07
5.0255412e-07
4.9156077e-07
4.811599e-07
4.7007614e-07
4.6131459e-07
4.5197474e-07
4.433298e-07
4.3557369e-07
4.2871422e-07
4.2084029e-07
4.1509486e-07
4.0803512e-07
4.0231285e-07
3.965906e-07
3.9177303e-07
3.859851e-07
3.811421e-07
3.7536753e-07
3.7224855e-07
3.6768124e-07
3.6393333e-07
3.5955273e-07
3.5740475e-07
3.5408714e-07
3.5187972e-07
3.4850395e-07
3.4657305e-07
3.4359113e-07
3.4223623e-07
3.3981626e-07
3.3871923e-07
3.3651125e-07
3.3541016e-07
3.3313664e-07
3.3207035e-07
3.29943e-07
3.2892413e-07
3.269611e-07
3.2641404e-07
3.25233e-07
3.2488791e-07
3.2448261e-07
3.247214e-07
3.25119e-07
3.2688921e-07
3.2790081e-07
3.2972931e-07
3.3098982e-07
3.3604623e-07
3.4200101e-07
3.4754507e-07
3.5003141e-07
3.5561958e-07
3.6095836e-07
3.7409309e-07
3.906471e-07
4.1043271e-07
4.1784325e-07
4.3111255e-07
4.3815835e-07
4.5177817e-07
4.6305836e-07
4.9191995e-07
3.9223124e-06
2.9784912e-06
2.3945439e-06
2.0024426e-06
1.7222021e-06
1.513115e-06
1.3515272e-06
1.22398e-06
1.1203538e-06
1.0355917e-06
9.6350412e-07
9.0290471e-07
8.494984e-07
8.040323e-07
7.6321613e-07
7.2819158e-07
6.9569885e-07
6.6805613e-07
6.4105007e-07
6.1848627e-07
5.962011e-07
5.7754135e-07
5.5931635e-07
5.4379488e-07
5.2890995e-07
5.1644719e-07
5.0314319e-07
4.9243949e-07
4.8170754e-07
4.7086718e-07
4.619405e-07
4.5268559e-07
4.44085e-07
4.3650072e-07
4.2926809e-07
4.2148852e-07
4.1580772e-07
4.0881328e-07
4.0310364e-07
3.9748713e-07
3.9248628e-07
3.8668434e-07
3.8193318e-07
3.764847e-07
3.7319607e-07
3.6825622e-07
3.6442662e-07
3.6033545e-07
3.5823353e-07
3.5464497e-07
3.5224167e-07
3.4890712e-07
3.4706552e-07
3.4417091e-07
3.428458e-07
3.40412e-07
3.3925412e-07
3.3693894e-07
3.3571849e-07
3.3322167e-07
3.321085e-07
3.2991113e-07
3.2901792e-07
3.2711554e-07
3.2643887e-07
3.2516019e-07
3.2448574e-07
3.2385051e-07
3.2380573e-07
3.2401911e-07
3.2501582e-07
3.2646931e-07
3.2807509e-07
3.2865665e-07
3.3049301e-07
3.3474425e-07
3.4315448e-07
3.4898555e-07
3.5458382e-07
3.56697e-07
3.6265121e-07
3.726282e-07
3.9456477e-07
4.1134374e-07
4.2496697e-07
4.3120878e-07
4.3900076e-07
4.442732e-07
4.6088835e-07
3.923349e-06
2.9800429e-06
2.3961815e-06
2.004034e-06
1.7237189e-06
1.514539e-06
1.3528762e-06
1.2252377e-06
1.1215358e-06
1.0367172e-06
9.6456948e-07
9.0394011e-07
8.5048496e-07
8.0497671e-07
7.6412606e-07
7.2909792e-07
6.9646654e-07
6.6887396e-07
6.4186766e-07
6.1927631e-07
5.9692981e-07
5.7835724e-07
5.5990567e-07
5.4451274e-07
5.2950489e-07
5.1702513e-07
5.0368441e-07
4.9318005e-07
4.8209754e-07
4.7150995e-07
4.6241415e-07
4.5330406e-07
4.4462607e-07
4.3709668e-07
4.2962159e-07
4.2202856e-07
4.1621661e-07
4.0931481e-07
4.0357185e-07
3.9796884e-07
3.9281715e-07
3.8703446e-07
3.8229231e-07
3.7700902e-07
3.7354939e-07
3.6836123e-07
3.645426e-07
3.6063739e-07
3.5851023e-07
3.5474839e-07
3.522386e-07
3.4896085e-07
3.4713618e-07
3.4431912e-07
3.4297978e-07
3.405463e-07
3.3935616e-07
3.3696426e-07
3.3563881e-07
3.3306746e-07
3.3189773e-07
3.2966722e-07
3.2873471e-07
3.2687063e-07
3.2610111e-07
3.2484189e-07
3.2410071e-07
3.2333006e-07
3.2293037e-07
3.2299769e-07
3.2333572e-07
3.2416584e-07
3.2617982e-07
3.2731293e-07
3.2844719e-07
3.3072222e-07
3.3749312e-07
3.4667019e-07
3.5245781e-07
3.5421329e-07
3.5698039e-07
3.6121211e-07
3.7212194e-07
3.9633139e-07
4.1597275e-07
4.252259e-07
4.32609e-07
4.3577647e-07
4.4375138e-07
3.9243659e-06
2.9815529e-06
2.3977677e-06
2.00558e-06
1.725191e-06
1.5159109e-06
1.3541629e-06
1.2264475e-06
1.1226795e-06
1.0378187e-06
9.656132e-07
9.0493755e-07
8.5145917e-07
8.0586828e-07
7.6501555e-07
7.2999975e-07
6.9728069e-07
6.696978e-07
6.4272421e-07
6.1999281e-07
5.9763232e-07
5.7915445e-07
5.6049637e-07
5.4531086e-07
5.300795e-07
5.1765746e-07
5.043569e-07
4.9389588e-07
4.8257878e-07
4.7230559e-07
4.6298753e-07
4.5400948e-07
4.4521251e-07
4.3771353e-07
4.3019334e-07
4.2278145e-07
4.1669896e-07
4.0995573e-07
4.0431327e-07
3.9868895e-07
3.9338183e-07
3.8760431e-07
3.8304054e-07
3.779952e-07
3.7423042e-07
3.6874426e-07
3.6510373e-07
3.6149699e-07
3.5921585e-07
3.5516665e-07
3.526191e-07
3.4946546e-07
3.4769479e-07
3.4487172e-07
3.4349977e-07
3.4098189e-07
3.3974438e-07
3.3722787e-07
3.3591993e-07
3.3338075e-07
3.3217933e-07
3.2993153e-07
3.2890033e-07
3.2700825e-07
3.2618559e-07
3.2462998e-07
3.2409059e-07
3.2282822e-07
3.2255615e-07
3.2213204e-07
3.2236202e-07
3.2287408e-07
3.2434181e-07
3.255348e-07
3.2792584e-07
3.2918263e-07
3.3303987e-07
3.4064719e-07
3.4519783e-07
3.4834845e-07
3.5495739e-07
3.5884776e-07
3.6676594e-07
3.78232e-07
3.9557494e-07
4.0877721e-07
4.2226792e-07
4.2827187e-07
4.3522013e-07
3.925335e-06
2.9830032e-06
2.3992978e-06
2.0070698e-06
1.7266082e-06
1.5172416e-06
1.3554138e-06
1.2276203e-06
1.1237851e-06
1.0388797e-06
9.6661122e-07
9.058915e-07
8.5239702e-07
8.0673511e-07
7.6585789e-07
7.3081782e-07
6.9805466e-07
6.7044911e-07
6.4359636e-07
6.2068122e-07
5.9838086e-07
5.799237e-07
5.6103962e-07
5.460442e-07
5.3059529e-07
5.1828e-07
5.0498004e-07
4.9450612e-07
4.8300957e-07
4.7297037e-07
4.6345217e-07
4.5462693e-07
4.456547e-07
4.3820698e-07
4.3061812e-07
4.2336125e-07
4.1700948e-07
4.1048412e-07
4.0481687e-07
3.9913125e-07
3.9369247e-07
3.8799966e-07
3.8336627e-07
3.7854596e-07
3.7459051e-07
3.6895902e-07
3.6530614e-07
3.6185326e-07
3.5945424e-07
3.5531037e-07
3.5277317e-07
3.4965707e-07
3.4790073e-07
3.4504419e-07
3.4364766e-07
3.4109357e-07
3.3982859e-07
3.3722528e-07
3.3594252e-07
3.3343397e-07
3.3222482e-07
3.2992317e-07
3.2888204e-07
3.2688454e-07
3.2606076e-07
3.2434562e-07
3.2381414e-07
3.2244137e-07
3.2209388e-07
3.212893e-07
3.2145838e-07
3.218303e-07
3.2352754e-07
3.2471175e-07
3.2539895e-07
3.265295e-07
3.3072794e-07
3.3605502e-07
3.4175869e-07
3.4474718e-07
3.5165772e-07
3.545657e-07
3.5812437e-07
3.6362354e-07
3.7860919e-07
3.9475813e-07
4.1342095e-07
4.2225772e-07
4.3083305e-07
3.9262751e-06
2.9844048e-06
2.4007758e-06
2.0085098e-06
1.7279849e-06
1.5185213e-06
1.3566209e-06
1.2287478e-06
1.1248558e-06
1.0398997e-06
9.675789e-07
9.0682967e-07
8.5330388e-07
8.0758334e-07
7.6669864e-07
7.3160432e-07
6.9884195e-07
6.7112812e-07
6.4442775e-07
6.2132966e-07
5.9913906e-07
5.8059362e-07
5.61644e-07
5.4670492e-07
5.3112329e-07
5.1888252e-07
5.0551854e-07
4.9510145e-07
4.8347913e-07
4.7360967e-07
4.6397815e-07
4.5523802e-07
4.4612956e-07
4.3878534e-07
4.310952e-07
4.2399399e-07
4.1746226e-07
4.1109345e-07
4.0538106e-07
3.9971626e-07
3.9416025e-07
3.8867319e-07
3.8378098e-07
3.792695e-07
3.7513246e-07
3.696257e-07
3.6580524e-07
3.6242406e-07
3.5974545e-07
3.5577009e-07
3.5326976e-07
3.5010665e-07
3.4811374e-07
3.4533887e-07
3.4400656e-07
3.4148543e-07
3.4014832e-07
3.3742783e-07
3.3613865e-07
3.3363891e-07
3.3243555e-07
3.3008056e-07
3.2903966e-07
3.2694365e-07
3.2611823e-07
3.2424368e-07
3.2357984e-07
3.222721e-07
3.21878e-07
3.2106315e-07
3.2096186e-07
3.2091993e-07
3.2189404e-07
3.228417e-07
3.2516639e-07
3.263423e-07
3.2827196e-07
3.2983623e-07
3.3556301e-07
3.4326272e-07
3.4989181e-07
3.5163532e-07
3.5390317e-07
3.5686562e-07
3.6602362e-07
3.8381074e-07
4.0626949e-07
4.1794213e-07
4.2814784e-07
3.9271808e-06
2.9857573e-06
2.4022036e-06
2.0098975e-06
1.7293043e-06
1.519763e-06
1.357792e-06
1.229844e-06
1.1258944e-06
1.0408758e-06
9.6851863e-07
9.0771931e-07
8.5417124e-07
8.0839239e-07
7.6749401e-07
7.3236086e-07
6.9961926e-07
6.7178112e-07
6.4521096e-07
6.219461e-07
5.9983873e-07
5.8117825e-07
5.6229672e-07
5.4728201e-07
5.3167144e-07
5.1942699e-07
5.0599391e-07
4.9566789e-07
4.8390532e-07
4.7418564e-07
4.644883e-07
4.5574647e-07
4.465373e-07
4.393697e-07
4.3146568e-07
4.2446992e-07
4.1791949e-07
4.1163992e-07
4.0577205e-07
4.0017065e-07
3.9453074e-07
3.8920361e-07
3.8404666e-07
3.797154e-07
3.7539752e-07
3.7013635e-07
3.6616523e-07
3.6271838e-07
3.5976604e-07
3.5601298e-07
3.5352749e-07
3.5039274e-07
3.4803635e-07
3.4538841e-07
3.4409687e-07
3.4162708e-07
3.4013395e-07
3.3745395e-07
3.3612239e-07
3.3368078e-07
3.3244637e-07
3.3001401e-07
3.2891446e-07
3.268796e-07
3.2597316e-07
3.2436795e-07
3.2318962e-07
3.2185445e-07
3.2150791e-07
3.2110291e-07
3.2052886e-07
3.2018204e-07
3.2034492e-07
3.2142139e-07
3.2402698e-07
3.2575964e-07
3.2720789e-07
3.2750845e-07
3.2979859e-07
3.3746293e-07
3.4703652e-07
3.5202321e-07
3.5421706e-07
3.5530043e-07
3.5949801e-07
3.6924488e-07
3.9202959e-07
4.1027562e-07
4.2391625e-07
3.9280523e-06
2.9870587e-06
2.4035794e-06
2.0112367e-06
1.7305939e-06
1.5209636e-06
1.3589265e-06
1.2308906e-06
1.1269019e-06
1.041814e-06
9.6943634e-07
9.0856565e-07
8.5501227e-07
8.0918628e-07
7.6825973e-07
7.3307735e-07
7.0037009e-07
6.7241254e-07
6.4597349e-07
6.22588e-07
6.0052351e-07
5.8170767e-07
5.6296077e-07
5.4776494e-07
5.322231e-07
5.1992103e-07
5.0646497e-07
4.9622687e-07
4.8436682e-07
4.7470476e-07
4.6506496e-07
4.5624095e-07
4.4694796e-07
4.3996362e-07
4.3184452e-07
4.2484785e-07
4.1836218e-07
4.122265e-07
4.0616502e-07
4.0056867e-07
3.949848e-07
3.8971284e-07
3.8451767e-07
3.8004933e-07
3.7578734e-07
3.7068949e-07
3.666864e-07
3.6303072e-07
3.5989117e-07
3.5620417e-07
3.5370993e-07
3.5065671e-07
3.480409e-07
3.4547161e-07
3.4419971e-07
3.4170959e-07
3.4013575e-07
3.3753376e-07
3.3605534e-07
3.3370788e-07
3.323617e-07
3.2995112e-07
3.2882601e-07
3.2683895e-07
3.258e-07
3.239635e-07
3.2306352e-07
3.2172956e-07
3.2133029e-07
3.2052769e-07
3.19828e-07
3.196069e-07
3.1972073e-07
3.2034717e-07
3.2186297e-07
3.2381544e-07
3.2488418e-07
3.2596836e-07
3.2800857e-07
3.3203065e-07
3.4112256e-07
3.5047293e-07
3.558845e-07
3.5661357e-07
3.5798171e-07
3.6106181e-07
3.688857e-07
3.9018768e-07
4.1263756e-07
3.9289025e-06
2.9883208e-06
2.4049088e-06
2.0125307e-06
1.731822e-06
1.522106e-06
1.3600126e-06
1.2318894e-06
1.1278802e-06
1.0427072e-06
9.7032354e-07
9.0937616e-07
8.5583566e-07
8.0994557e-07
7.6899518e-07
7.3376324e-07
7.0110507e-07
6.7302383e-07
6.4667482e-07
6.2320668e-07
6.0118268e-07
5.8221956e-07
5.6363913e-07
5.4822826e-07
5.327843e-07
5.2036449e-07
5.0692733e-07
4.966972e-07
4.8482838e-07
4.7516038e-07
4.6555157e-07
4.5667132e-07
4.4733728e-07
4.4043802e-07
4.3217407e-07
4.2516419e-07
4.187256e-07
4.1266806e-07
4.0654014e-07
4.0085387e-07
3.9528365e-07
3.9004255e-07
3.8494937e-07
3.8026885e-07
3.7595838e-07
3.7092409e-07
3.6689949e-07
3.6313566e-07
3.5984988e-07
3.561804e-07
3.5374695e-07
3.5057079e-07
3.479989e-07
3.4524957e-07
3.4396703e-07
3.4160262e-07
3.3995332e-07
3.3732379e-07
3.3579746e-07
3.334769e-07
3.3197536e-07
3.2963593e-07
3.2853844e-07
3.2652216e-07
3.2529435e-07
3.2342981e-07
3.2276975e-07
3.2126415e-07
3.207374e-07
3.1968024e-07
3.1948914e-07
3.1893043e-07
3.1905999e-07
3.1915448e-07
3.199627e-07
3.2134284e-07
3.2442919e-07
3.2610828e-07
3.2755652e-07
3.2885973e-07
3.3306561e-07
3.4233102e-07
3.5392282e-07
3.5832682e-07
3.5971705e-07
3.6119628e-07
3.6365376e-07
3.6971115e-07
3.8955476e-07
3.9297093e-06
2.9895298e-06
2.4061883e-06
2.0137725e-06
1.7330245e-06
1.5232197e-06
1.3610792e-06
1.2328605e-06
1.1288381e-06
1.0435487e-06
9.7119477e-07
9.1015295e-07
8.566323e-07
8.1066733e-07
7.6970322e-07
7.344057e-07
7.0180735e-07
6.736067e-07
6.4731914e-07
6.2379693e-07
6.0181436e-07
5.8269826e-07
5.6425957e-07
5.4864724e-07
5.3331555e-07
5.2073639e-07
5.0739338e-07
4.9705976e-07
4.8526218e-07
4.7558393e-07
4.6599498e-07
4.5701485e-07
4.4778697e-07
4.4078866e-07
4.3245818e-07
4.254034e-07
4.189903e-07
4.1290159e-07
4.0681753e-07
4.0103226e-07
3.9542141e-07
3.9013279e-07
3.8516212e-07
3.8033177e-07
3.759418e-07
3.7095758e-07
3.6700339e-07
3.6303418e-07
3.5969844e-07
3.5598903e-07
3.5356476e-07
3.5029347e-07
3.4769563e-07
3.4484031e-07
3.4346774e-07
3.4105309e-07
3.3938742e-07
3.3673258e-07
3.3527106e-07
3.3285714e-07
3.3137453e-07
3.2901192e-07
3.2789036e-07
3.2580676e-07
3.2456787e-07
3.2279608e-07
3.2209725e-07
3.2073391e-07
3.1973346e-07
3.1850436e-07
3.1853601e-07
3.1838859e-07
3.1849032e-07
3.1824864e-07
3.1824116e-07
3.188688e-07
3.2213298e-07
3.2528973e-07
3.2734498e-07
3.2864862e-07
3.3068393e-07
3.3329548e-07
3.4201443e-07
3.5463787e-07
3.6136541e-07
3.6320357e-07
3.6462951e-07
3.6718925e-07
3.7497586e-07
3.9305061e-06
2.9907072e-06
2.4074297e-06
2.0149813e-06
1.7341831e-06
1.5242909e-06
1.3621159e-06
1.2337798e-06
1.1297655e-06
1.0443345e-06
9.720415e-07
9.1087541e-07
8.5739218e-07
8.1133672e-07
7.7039269e-07
7.3498775e-07
7.0246611e-07
6.7415141e-07
6.4790326e-07
6.2433513e-07
6.0238199e-07
5.8311849e-07
5.647907e-07
5.489858e-07
5.3379032e-07
5.2096903e-07
5.0782552e-07
4.9726331e-07
4.8559541e-07
4.7584328e-07
4.6623279e-07
4.5717566e-07
4.4803507e-07
4.4091186e-07
4.3257242e-07
4.2546404e-07
4.1904629e-07
4.1283204e-07
4.0687112e-07
4.0091812e-07
3.9526809e-07
3.8990788e-07
3.8511056e-07
3.8018521e-07
3.756056e-07
3.7055834e-07
3.6666976e-07
3.6245232e-07
3.5905403e-07
3.5525336e-07
3.5276585e-07
3.4930363e-07
3.4678259e-07
3.4382295e-07
3.4239562e-07
3.3983142e-07
3.3822057e-07
3.3552945e-07
3.3406866e-07
3.3156663e-07
3.3017937e-07
3.2772371e-07
3.2658074e-07
3.2433217e-07
3.2335138e-07
3.2142514e-07
3.2063975e-07
3.1930539e-07
3.1854327e-07
3.1718062e-07
3.1701864e-07
3.16814e-07
3.1688444e-07
3.1683547e-07
3.1714977e-07
3.1752104e-07
3.190094e-07
3.2252572e-07
3.2628393e-07
3.2766768e-07
3.2898065e-07
3.3058633e-07
3.3404044e-07
3.4384251e-07
3.5420617e-07
3.5878828e-07
3.6162909e-07
3.6293147e-07
3.676824e-07
3.9312526e-06
2.9918262e-06
2.4086193e-06
2.0161321e-06
1.7352943e-06
1.5253013e-06
1.3631082e-06
1.2346444e-06
1.1306691e-06
1.0450681e-06
9.7287239e-07
9.1152765e-07
8.5812176e-07
8.119279e-07
7.7104806e-07
7.3549298e-07
7.0306543e-07
6.7462964e-07
6.4841056e-07
6.2477616e-07
6.0285821e-07
5.8344384e-07
5.6516398e-07
5.4919441e-07
5.340678e-07
5.2103506e-07
5.080524e-07
4.9724956e-07
4.8572776e-07
4.7585581e-07
4.6623285e-07
4.5704907e-07
4.4806259e-07
4.406256e-07
4.3235719e-07
4.2512803e-07
4.1872877e-07
4.1232568e-07
4.0653824e-07
4.0036427e-07
3.9465223e-07
3.8913037e-07
3.8446271e-07
3.7936374e-07
3.7469696e-07
3.6958209e-07
3.6559886e-07
3.6119116e-07
3.5772793e-07
3.538126e-07
3.5127789e-07
3.4754703e-07
3.4497842e-07
3.419253e-07
3.4041877e-07
3.3768435e-07
3.3602322e-07
3.3335502e-07
3.3175273e-07
3.2947863e-07
3.2771364e-07
3.2552952e-07
3.2428626e-07
3.2201607e-07
3.2089229e-07
3.1936271e-07
3.1834954e-07
3.1688923e-07
3.1638036e-07
3.1524548e-07
3.1465964e-07
3.1421597e-07
3.143722e-07
3.1476735e-07
3.1558134e-07
3.156649e-07
3.1624629e-07
3.1792903e-07
3.2235924e-07
3.2430079e-07
3.2544124e-07
3.2653641e-07
3.2886228e-07
3.3406074e-07
3.4282902e-07
3.4866816e-07
3.532507e-07
3.5484253e-07
3.5854272e-07
3.9320031e-06
2.9929206e-06
2.4097809e-06
2.0172369e-06
1.7363713e-06
1.5262641e-06
1.3640785e-06
1.2354498e-06
1.1315467e-06
1.0457226e-06
9.7366212e-07
9.1209706e-07
8.588142e-07
8.1240768e-07
7.7164024e-07
7.3586376e-07
7.0355751e-07
6.7497126e-07
6.4872955e-07
6.2499474e-07
6.0307655e-07
5.8350349e-07
5.65264e-07
5.4909791e-07
5.3408051e-07
5.207419e-07
5.079953e-07
4.9680308e-07
4.8548495e-07
4.7541128e-07
4.657663e-07
4.5641845e-07
4.4754715e-07
4.3973399e-07
4.3154146e-07
4.2414973e-07
4.1769843e-07
4.1102524e-07
4.0543676e-07
3.9898246e-07
3.9324858e-07
3.8748199e-07
3.8290306e-07
3.7755064e-07
3.7285611e-07
3.675209e-07
3.6355414e-07
3.5880258e-07
3.5528256e-07
3.51207e-07
3.4857855e-07
3.4463539e-07
3.419159e-07
3.3875426e-07
3.3704748e-07
3.3418172e-07
3.325311e-07
3.2975915e-07
3.2825234e-07
3.2569654e-07
3.2422351e-07
3.2183941e-07
3.2058208e-07
3.1842229e-07
3.1741954e-07
3.1560772e-07
3.1487876e-07
3.1346147e-07
3.129761e-07
3.1172258e-07
3.11268e-07
3.1093869e-07
3.1118156e-07
3.1118084e-07
3.1163305e-07
3.1221989e-07
3.1263084e-07
3.1356677e-07
3.1662631e-07
3.1882096e-07
3.2054545e-07
3.2157738e-07
3.2343832e-07
3.2601467e-07
3.3188214e-07
3.3658029e-07
3.4149586e-07
3.4358717e-07
3.4695844e-07
3.9326951e-06
2.9939501e-06
2.4108886e-06
2.018292e-06
1.7374161e-06
1.5271671e-06
1.3650125e-06
1.2361572e-06
1.1323751e-06
1.0462415e-06
9.7437018e-07
9.1252402e-07
8.5936963e-07
8.1266096e-07
7.7201239e-07
7.3595137e-07
7.0375504e-07
6.7495815e-07
6.4868604e-07
6.2480092e-07
6.0285457e-07
5.8308026e-07
5.6482094e-07
5.483877e-07
5.3341208e-07
5.1972688e-07
5.0717189e-07
4.9552943e-07
4.8437655e-07
4.7400447e-07
4.6433767e-07
4.5473922e-07
4.4592781e-07
4.3768504e-07
4.2956304e-07
4.2193192e-07
4.1544957e-07
4.0841167e-07
4.0296565e-07
3.9620222e-07
3.9049379e-07
3.8437261e-07
3.7989893e-07
3.7424532e-07
3.6955572e-07
3.639648e-07
3.5988832e-07
3.5486575e-07
3.5119914e-07
3.469083e-07
3.4415902e-07
3.4003484e-07
3.3718203e-07
3.337727e-07
3.3189327e-07
3.2885314e-07
3.2712171e-07
3.2438739e-07
3.2282119e-07
3.2021039e-07
3.1880098e-07
3.1638695e-07
3.1510075e-07
3.1309013e-07
3.1209627e-07
3.1036562e-07
3.09695e-07
3.0830411e-07
3.0787357e-07
3.0712672e-07
3.063314e-07
3.0577286e-07
3.060088e-07
3.062366e-07
3.071517e-07
3.0768139e-07
3.0795474e-07
3.0818799e-07
3.094461e-07
3.1199982e-07
3.1534995e-07
3.1706302e-07
3.1850699e-07
3.1929561e-07
3.2114574e-07
3.236693e-07
3.2913083e-07
3.3186399e-07
3.3640154e-07
3.9334109e-06
2.9949615e-06
2.4119627e-06
2.0192918e-06
1.7383986e-06
1.5279639e-06
1.3658555e-06
1.2367013e-06
1.133067e-06
1.0465166e-06
9.748317e-07
9.1260664e-07
8.595706e-07
8.1242579e-07
7.7192477e-07
7.3542172e-07
7.0332191e-07
6.7422006e-07
6.4785476e-07
6.2371506e-07
6.0165435e-07
5.8160204e-07
5.6325198e-07
5.4645003e-07
5.3145636e-07
5.1736247e-07
5.0495188e-07
4.9281931e-07
4.8179783e-07
4.7105466e-07
4.6138933e-07
4.5148321e-07
4.4265452e-07
4.3400028e-07
4.259156e-07
4.1794853e-07
4.1151855e-07
4.0409893e-07
3.9868357e-07
3.91687e-07
3.8600305e-07
3.7949821e-07
3.7508936e-07
3.6916938e-07
3.6448674e-07
3.5868295e-07
3.5442299e-07
3.4916326e-07
3.4534181e-07
3.407762e-07
3.3782757e-07
3.3351799e-07
3.3051619e-07
3.267862e-07
3.2465802e-07
3.2147858e-07
3.1957967e-07
3.1689458e-07
3.1519686e-07
3.1281059e-07
3.1121837e-07
3.0897174e-07
3.0757467e-07
3.0585713e-07
3.0459856e-07
3.032726e-07
3.0221961e-07
3.0143978e-07
3.0102512e-07
3.0039961e-07
2.9964155e-07
2.9919695e-07
2.9926437e-07
2.9968023e-07
3.0078155e-07
3.011702e-07
3.0182239e-07
3.0203459e-07
3.0263092e-07
3.0407837e-07
3.0775399e-07
3.1048859e-07
3.1215613e-07
3.1261519e-07
3.134384e-07
3.1476634e-07
3.1792088e-07
3.2026907e-07
3.2560652e-07
3.9340443e-06
2.9958949e-06
2.4129721e-06
2.0201857e-06
1.7392667e-06
1.5285832e-06
1.3664816e-06
1.2369084e-06
1.1333885e-06
1.0462241e-06
9.747056e-07
9.1190433e-07
8.5890015e-07
8.1111382e-07
7.7068661e-07
7.3355551e-07
7.0147909e-07
6.7194626e-07
6.4540365e-07
6.2087411e-07
5.9859371e-07
5.7819057e-07
5.5968523e-07
5.424105e-07
5.2735806e-07
5.1282103e-07
5.0050486e-07
4.8789604e-07
4.7696052e-07
4.6580884e-07
4.561609e-07
4.4589345e-07
4.3695646e-07
4.2798357e-07
4.1989172e-07
4.115188e-07
4.0517798e-07
3.9745065e-07
3.9192716e-07
3.8485144e-07
3.7912529e-07
3.7229994e-07
3.6779036e-07
3.6171657e-07
3.5706572e-07
3.5103277e-07
3.4668247e-07
3.4109232e-07
3.3708782e-07
3.3219412e-07
3.2896061e-07