/*--------------------------------*- C++ -*----------------------------------*\
| =========                 |                                                 |
| \\      /  F ield         | OpenFOAM: The Open Source CFD Toolbox           |
|  \\    /   O peration     | Version:  2406                                  |
|   \\  /    A nd           | Website:  www.openfoam.com                      |
|    \\/     M anipulation  |                                                 |
\*---------------------------------------------------------------------------*/
FoamFile
{
    version     2.0;
    format      ascii;
    arch        "LSB;label=32;scalar=64";
    class       volScalarField;
    location    "35";
    object      nut;
}
// * * * * * * * * * * * * * * * * * * * * * * * * * * * * * * * * * * * * * //

dimensions      [0 2 -1 0 0 0 0];

internalField   nonuniform List<scalar> 
62344
(
1.0771266e-06
1.1134242e-06
1.0608125e-06
1.0890339e-06
1.1136385e-06
1.1043167e-06
1.0721952e-06
1.0323422e-06
9.9906011e-07
9.8399852e-07
9.8368119e-07
9.9815105e-07
1.0167604e-06
1.0260558e-06
1.0240527e-06
1.0181813e-06
1.01053e-06
1.0009249e-06
9.9317931e-07
9.9077586e-07
9.9408774e-07
9.9956033e-07
1.0040351e-06
1.0057964e-06
1.0031413e-06
9.9542851e-07
9.8615646e-07
9.8101064e-07
9.8638934e-07
9.9717493e-07
1.0085696e-06
1.0231977e-06
1.0340002e-06
1.0460842e-06
1.0659901e-06
1.1024961e-06
1.150437e-06
1.209855e-06
1.2648161e-06
1.3266541e-06
1.403265e-06
1.5011048e-06
1.5794177e-06
1.6391554e-06
1.7185378e-06
1.8164278e-06
2.0195456e-06
2.1828254e-06
2.3507086e-06
2.438015e-06
2.6099433e-06
2.7176016e-06
2.9120621e-06
3.0312233e-06
3.3018074e-06
1.0746169e-06
1.1100538e-06
1.0559958e-06
1.084054e-06
1.110578e-06
1.1035388e-06
1.0726265e-06
1.0329178e-06
9.9907064e-07
9.8321977e-07
9.8191386e-07
9.9547617e-07
1.0149495e-06
1.0260894e-06
1.0245756e-06
1.0188419e-06
1.011897e-06
1.0018603e-06
9.931291e-07
9.9003405e-07
9.9213455e-07
9.9717384e-07
1.0022246e-06
1.0044749e-06
1.0027763e-06
9.9540798e-07
9.8595519e-07
9.7761393e-07
9.7806917e-07
9.864042e-07
9.9734749e-07
1.0111345e-06
1.0253264e-06
1.0338895e-06
1.0475192e-06
1.0719996e-06
1.1002881e-06
1.1527419e-06
1.235427e-06
1.2782571e-06
1.3414575e-06
1.4466247e-06
1.568003e-06
1.6313027e-06
1.718982e-06
1.7802663e-06
1.9181322e-06
2.044766e-06
2.2980824e-06
2.4095362e-06
2.6024551e-06
2.668764e-06
2.8508959e-06
2.9364709e-06
3.1373501e-06
1.0748239e-06
1.1122047e-06
1.0575531e-06
1.0858251e-06
1.1131382e-06
1.1065155e-06
1.0758598e-06
1.0357369e-06
1.0013702e-06
9.8434008e-07
9.8204743e-07
9.9467074e-07
1.0142064e-06
1.0272803e-06
1.0279216e-06
1.0229047e-06
1.0161894e-06
1.0061853e-06
9.9724946e-07
9.9434981e-07
9.9603165e-07
1.0002099e-06
1.0057649e-06
1.0081973e-06
1.0070819e-06
1.0009245e-06
9.926026e-07
9.8350062e-07
9.8034657e-07
9.8504136e-07
9.9563732e-07
1.0096951e-06
1.0238766e-06
1.0339449e-06
1.0447052e-06
1.0615711e-06
1.0909262e-06
1.119911e-06
1.174737e-06
1.2289819e-06
1.2924488e-06
1.3324216e-06
1.4465529e-06
1.5579074e-06
1.6831086e-06
1.7208233e-06
1.818217e-06
1.8893187e-06
2.0913728e-06
2.270138e-06
2.5268461e-06
2.6136263e-06
2.8383648e-06
2.9419671e-06
3.0837612e-06
1.0744432e-06
1.1137956e-06
1.0579705e-06
1.0864683e-06
1.1144317e-06
1.1083602e-06
1.0793945e-06
1.0386686e-06
1.0028719e-06
9.8389929e-07
9.8182582e-07
9.9484951e-07
1.0136025e-06
1.0280325e-06
1.0314348e-06
1.0246459e-06
1.016718e-06
1.0083671e-06
9.991407e-07
9.9481121e-07
9.9529367e-07
9.9930853e-07
1.0069872e-06
1.011387e-06
1.0102625e-06
1.0030695e-06
9.9472268e-07
9.869446e-07
9.8367286e-07
9.8418508e-07
9.9304909e-07
1.0076361e-06
1.0214443e-06
1.0340134e-06
1.0454442e-06
1.0624846e-06
1.0796631e-06
1.1157145e-06
1.1469801e-06
1.2005309e-06
1.2479779e-06
1.2822593e-06
1.3880644e-06
1.4271715e-06
1.5620127e-06
1.6096846e-06
1.7159995e-06
1.7628564e-06
1.8636598e-06
2.0133511e-06
2.2608591e-06
2.4066073e-06
2.7062963e-06
2.8692688e-06
3.0249359e-06
1.0739495e-06
1.1140207e-06
1.0571971e-06
1.0857441e-06
1.1149426e-06
1.1104582e-06
1.081829e-06
1.0406932e-06
1.0040656e-06
9.8417673e-07
9.8323551e-07
9.9488075e-07
1.01315e-06
1.0284552e-06
1.0321771e-06
1.0264871e-06
1.0182331e-06
1.009895e-06
9.9982035e-07
9.9463783e-07
9.9574527e-07
1.0002293e-06
1.0079102e-06
1.0132084e-06
1.0138035e-06
1.0079808e-06
1.0001733e-06
9.9244686e-07
9.8800228e-07
9.8619602e-07
9.9256649e-07
1.0060709e-06
1.0196038e-06
1.0328951e-06
1.0468746e-06
1.0589326e-06
1.0754629e-06
1.0993116e-06
1.1372442e-06
1.1637111e-06
1.2195747e-06
1.2524236e-06
1.3352067e-06
1.3810486e-06
1.4656161e-06
1.5160132e-06
1.6197466e-06
1.6786383e-06
1.7734538e-06
1.848539e-06
1.9960294e-06
2.0982082e-06
2.3390786e-06
2.5162377e-06
2.828858e-06
1.0734113e-06
1.1146388e-06
1.0565972e-06
1.0853026e-06
1.1146084e-06
1.1117486e-06
1.0828588e-06
1.0431402e-06
1.0058017e-06
9.8609466e-07
9.841576e-07
9.9400264e-07
1.0115971e-06
1.0287771e-06
1.0346168e-06
1.0306343e-06
1.0217169e-06
1.0124128e-06
1.0023981e-06
9.9744255e-07
9.9787381e-07
1.0014942e-06
1.007675e-06
1.0131588e-06
1.0151389e-06
1.0112751e-06
1.0037989e-06
9.9567832e-07
9.8993103e-07
9.8632928e-07
9.9128271e-07
1.003465e-06
1.0166176e-06
1.029642e-06
1.0461493e-06
1.0591312e-06
1.0739002e-06
1.0923216e-06
1.1276671e-06
1.1509353e-06
1.1973732e-06
1.2336562e-06
1.3072642e-06
1.3531545e-06
1.4348664e-06
1.4817071e-06
1.5789033e-06
1.6358984e-06
1.7342855e-06
1.7919996e-06
1.901147e-06
1.9675573e-06
2.119539e-06
2.232787e-06
2.474733e-06
1.0737326e-06
1.1164772e-06
1.0582953e-06
1.0873987e-06
1.116357e-06
1.1140111e-06
1.0858183e-06
1.0461808e-06
1.0085651e-06
9.8697477e-07
9.8353129e-07
9.9330138e-07
1.0113485e-06
1.0297521e-06
1.0376914e-06
1.0337781e-06
1.0231447e-06
1.0136826e-06
1.0059419e-06
1.0009585e-06
9.9871685e-07
1.0012748e-06
1.0075589e-06
1.0147119e-06
1.0184403e-06
1.0162106e-06
1.0086993e-06
9.9959622e-07
9.9233288e-07
9.8681333e-07
9.9053818e-07
1.001533e-06
1.0135172e-06
1.0264396e-06
1.0442797e-06
1.0591741e-06
1.0750854e-06
1.0917172e-06
1.1255216e-06
1.1475928e-06
1.1883543e-06
1.2204176e-06
1.2835616e-06
1.3239588e-06
1.4038426e-06
1.4495554e-06
1.5437761e-06
1.5970621e-06
1.6967308e-06
1.752221e-06
1.8580618e-06
1.9180611e-06
2.0425147e-06
2.1216106e-06
2.2756756e-06
1.0732911e-06
1.1168507e-06
1.0578335e-06
1.0865505e-06
1.1160591e-06
1.1148479e-06
1.0880229e-06
1.0479989e-06
1.0098397e-06
9.8614987e-07
9.8229374e-07
9.9338013e-07
1.0102265e-06
1.0281519e-06
1.0377455e-06
1.0345067e-06
1.024155e-06
1.0150649e-06
1.007193e-06
1.0010426e-06
9.9791079e-07
1.0004487e-06
1.007056e-06
1.014744e-06
1.019536e-06
1.0194938e-06
1.0135637e-06
1.0051709e-06
9.9707112e-07
9.8932364e-07
9.908238e-07
1.0007297e-06
1.0106654e-06
1.0230663e-06
1.0404808e-06
1.0557221e-06
1.0751733e-06
1.0925861e-06
1.1259843e-06
1.1453777e-06
1.1836951e-06
1.2123364e-06
1.2673867e-06
1.3015287e-06
1.3747039e-06
1.4199363e-06
1.506721e-06
1.5540534e-06
1.6465824e-06
1.6992262e-06
1.8054222e-06
1.8717985e-06
1.9813209e-06
2.0627154e-06
2.1969616e-06
1.072608e-06
1.1165728e-06
1.0565004e-06
1.0849146e-06
1.1150771e-06
1.1152889e-06
1.0890383e-06
1.0490244e-06
1.0111834e-06
9.8621069e-07
9.8151746e-07
9.924293e-07
1.0084409e-06
1.0257533e-06
1.0362612e-06
1.0344914e-06
1.0248391e-06
1.0152352e-06
1.0069966e-06
1.0001684e-06
9.9700631e-07
9.995876e-07
1.0061374e-06
1.0128385e-06
1.0178666e-06
1.01936e-06
1.0150947e-06
1.007204e-06
9.9847638e-07
9.9036959e-07
9.909089e-07
1.0000108e-06
1.0091139e-06
1.0209175e-06
1.0373948e-06
1.0520327e-06
1.0719585e-06
1.0898056e-06
1.1233715e-06
1.1428861e-06
1.1792799e-06
1.2036994e-06
1.2508464e-06
1.2802394e-06
1.3450471e-06
1.3911533e-06
1.4761584e-06
1.5205124e-06
1.6053522e-06
1.6521021e-06
1.7463611e-06
1.808798e-06
1.9161383e-06
1.9935972e-06
2.0782973e-06
1.0723211e-06
1.1170772e-06
1.0560907e-06
1.0845748e-06
1.1148749e-06
1.1159759e-06
1.0895769e-06
1.0503196e-06
1.0127718e-06
9.874779e-07
9.8182412e-07
9.9138413e-07
1.0067552e-06
1.0239475e-06
1.0356526e-06
1.0363536e-06
1.027928e-06
1.0168551e-06
1.0072508e-06
1.0002064e-06
9.9761751e-07
1.0000075e-06
1.0058732e-06
1.011183e-06
1.0156912e-06
1.0185986e-06
1.0170742e-06
1.0102517e-06
1.0009045e-06
9.9208796e-07
9.9143882e-07
9.9962786e-07
1.0086942e-06
1.0201855e-06
1.0357059e-06
1.0500982e-06
1.0689698e-06
1.0869005e-06
1.1177733e-06
1.137765e-06
1.1750914e-06
1.1990083e-06
1.2385533e-06
1.2647112e-06
1.3210148e-06
1.3614979e-06
1.4396847e-06
1.4841386e-06
1.5615686e-06
1.6039359e-06
1.6909679e-06
1.7481839e-06
1.851571e-06
1.9116433e-06
2.0063459e-06
1.0721281e-06
1.1177315e-06
1.0562766e-06
1.0850595e-06
1.115059e-06
1.1169374e-06
1.0910289e-06
1.0527338e-06
1.0151112e-06
9.8898895e-07
9.814205e-07
9.8963043e-07
1.0067105e-06
1.0249896e-06
1.0376378e-06
1.0401184e-06
1.0327652e-06
1.0204357e-06
1.0093345e-06
1.0031646e-06
1.001474e-06
1.0028092e-06
1.0068492e-06
1.0117108e-06
1.0159032e-06
1.0195043e-06
1.0202673e-06
1.0158408e-06
1.0066459e-06
9.9702408e-07
9.9518262e-07
1.001564e-06
1.0100298e-06
1.0215118e-06
1.0366749e-06
1.0507585e-06
1.068629e-06
1.0869862e-06
1.1141123e-06
1.1328582e-06
1.1699738e-06
1.1953892e-06
1.2340882e-06
1.2583432e-06
1.309518e-06
1.3459702e-06
1.4136315e-06
1.4569547e-06
1.5292859e-06
1.5647863e-06
1.6443015e-06
1.6915927e-06
1.7810631e-06
1.8393989e-06
1.9220355e-06
1.0715634e-06
1.1178028e-06
1.0554206e-06
1.0842879e-06
1.1140765e-06
1.1170909e-06
1.0929076e-06
1.0551308e-06
1.0176079e-06
9.894962e-07
9.8000516e-07
9.8802747e-07
1.0074903e-06
1.0251699e-06
1.0384538e-06
1.0424024e-06
1.0355701e-06
1.02354e-06
1.0120238e-06
1.0056183e-06
1.0036097e-06
1.004853e-06
1.0082305e-06
1.0138563e-06
1.0200965e-06
1.0246641e-06
1.0257185e-06
1.0224102e-06
1.0127139e-06
1.0017823e-06
9.9729133e-07
1.0007859e-06
1.0086251e-06
1.0192616e-06
1.0337477e-06
1.0479232e-06
1.0674299e-06
1.087462e-06
1.1145202e-06
1.1310605e-06
1.1665815e-06
1.1927206e-06
1.2361682e-06
1.2611356e-06
1.3123122e-06
1.3479503e-06
1.4108477e-06
1.4576827e-06
1.50465e-06
1.5838974e-06
1.6358222e-06
1.689211e-06
1.7530802e-06
1.8222473e-06
1.9072597e-06
1.0704895e-06
1.1169404e-06
1.0533152e-06
1.0817533e-06
1.1122842e-06
1.1166656e-06
1.0939443e-06
1.0563464e-06
1.0193165e-06
9.8987414e-07
9.788557e-07
9.8648928e-07
1.0055632e-06
1.0226315e-06
1.0364168e-06
1.0416526e-06
1.0353619e-06
1.0233303e-06
1.0118339e-06
1.0049859e-06
1.0021847e-06
1.0029332e-06
1.0060099e-06
1.0118153e-06
1.0192427e-06
1.0246089e-06
1.0257853e-06
1.0233744e-06
1.0140978e-06
1.0032826e-06
9.9662197e-07
9.9771741e-07
1.0057842e-06
1.0163426e-06
1.0291223e-06
1.0431274e-06
1.0609696e-06
1.0838895e-06
1.1142765e-06
1.1316125e-06
1.1615073e-06
1.2012364e-06
1.242837e-06
1.2661271e-06
1.3165111e-06
1.3684313e-06
1.4254781e-06
1.4491307e-06
1.4909745e-06
1.5965653e-06
1.6542818e-06
1.7222961e-06
1.7611036e-06
1.8311819e-06
1.9171696e-06
1.0695307e-06
1.1161329e-06
1.051103e-06
1.0786552e-06
1.1102948e-06
1.1155219e-06
1.0938552e-06
1.0565101e-06
1.0201802e-06
9.9042502e-07
9.7817028e-07
9.8489047e-07
1.0027138e-06
1.0195768e-06
1.0329455e-06
1.0389263e-06
1.0347814e-06
1.023158e-06
1.0110425e-06
1.003002e-06
9.9918801e-07
9.9923972e-07
1.0015316e-06
1.0065775e-06
1.0143117e-06
1.0206707e-06
1.0229473e-06
1.0214931e-06
1.0135409e-06
1.0031332e-06
9.9506813e-07
9.9317533e-07
9.9995212e-07
1.0101017e-06
1.0211317e-06
1.0351934e-06
1.0510753e-06
1.0747571e-06
1.1059661e-06
1.1265838e-06
1.155564e-06
1.196493e-06
1.2410354e-06
1.274274e-06
1.3204894e-06
1.3712893e-06
1.4163488e-06
1.4375378e-06
1.4919321e-06
1.6062109e-06
1.6676586e-06
1.7264462e-06
1.7579554e-06
1.8366279e-06
1.9121669e-06
1.0685626e-06
1.1153708e-06
1.0490985e-06
1.0757667e-06
1.1084042e-06
1.1143589e-06
1.0934495e-06
1.0567367e-06
1.0205845e-06
9.911525e-07
9.780357e-07
9.8345194e-07
9.994848e-07
1.0165416e-06
1.0304242e-06
1.0369716e-06
1.0342815e-06
1.0235205e-06
1.0107965e-06
1.0015863e-06
9.9672305e-07
9.9649286e-07
9.9832375e-07
1.0020943e-06
1.0086235e-06
1.0145802e-06
1.0176647e-06
1.017486e-06
1.011553e-06
1.0018602e-06
9.9376643e-07
9.9007824e-07
9.951823e-07
1.005312e-06
1.0148696e-06
1.0280026e-06
1.0432281e-06
1.064644e-06
1.0915216e-06
1.1130668e-06
1.1384472e-06
1.183939e-06
1.225412e-06
1.2678113e-06
1.3113224e-06
1.3605789e-06
1.3971478e-06
1.4224658e-06
1.4792035e-06
1.5841834e-06
1.6318191e-06
1.6935832e-06
1.7299953e-06
1.8265055e-06
1.7063174e-06
1.0678975e-06
1.1150717e-06
1.0479322e-06
1.0738478e-06
1.1068812e-06
1.1133633e-06
1.0934305e-06
1.0579131e-06
1.0213258e-06
9.9211659e-07
9.7831132e-07
9.8190136e-07
9.9665778e-07
1.0146252e-06
1.029638e-06
1.0372236e-06
1.0359126e-06
1.025817e-06
1.012485e-06
1.0021975e-06
9.9628915e-07
9.9586074e-07
9.9769324e-07
1.0002025e-06
1.005311e-06
1.0102625e-06
1.013753e-06
1.014788e-06
1.0105322e-06
1.0021633e-06
9.9441377e-07
9.8850779e-07
9.9116283e-07
1.0006214e-06
1.0088861e-06
1.0214519e-06
1.0377401e-06
1.0530699e-06
1.0759655e-06
1.0966819e-06
1.1184965e-06
1.1538762e-06
1.189851e-06
1.229202e-06
1.283511e-06
1.3138932e-06
1.3085375e-06
8.8804592e-07
1.4367643e-06
1.499327e-06
1.0182463e-06
1.3443559e-06
1.6654007e-06
1.4521501e-06
1.1729609e-06
1.0670652e-06
1.114483e-06
1.046545e-06
1.0718999e-06
1.1050342e-06
1.1121939e-06
1.0936655e-06
1.059948e-06
1.022648e-06
9.9301148e-07
9.7828242e-07
9.8006222e-07
9.9466895e-07
1.0141142e-06
1.0302455e-06
1.0392458e-06
1.0388634e-06
1.0295837e-06
1.0159012e-06
1.0043695e-06
9.9764693e-07
9.9677887e-07
9.9869641e-07
1.0006302e-06
1.0043556e-06
1.0084887e-06
1.0122513e-06
1.0140386e-06
1.0106056e-06
1.0042994e-06
9.9731025e-07
9.8939384e-07
9.8782541e-07
9.9478445e-07
1.0014186e-06
1.0124758e-06
1.0271156e-06
1.0401772e-06
9.8277914e-07
1.0716272e-06
1.0927246e-06
1.1164559e-06
1.1446771e-06
1.1626361e-06
6.7554347e-07
1.1293641e-06
1.2664899e-06
5.8782027e-07
6.933107e-07
1.032999e-06
7.249204e-07
7.7680805e-07
1.1802597e-06
9.2518866e-07
7.7085313e-07
1.0663468e-06
1.1139948e-06
1.0453735e-06
1.0699617e-06
1.1032308e-06
1.1108403e-06
1.0936039e-06
1.0613356e-06
1.0242024e-06
9.9296794e-07
9.7604305e-07
9.7715924e-07
9.918593e-07
1.0109693e-06
1.027723e-06
1.0370796e-06
1.0365289e-06
1.026995e-06
1.0132661e-06
1.0012272e-06
9.940471e-07
9.9148793e-07
9.9217457e-07
9.9409074e-07
9.9788455e-07
1.002228e-06
1.0064161e-06
1.008363e-06
1.0049702e-06
9.9989665e-07
9.9291007e-07
9.8421727e-07
9.8053453e-07
9.8517864e-07
9.8985528e-07
9.9907958e-07
1.0113768e-06
1.021481e-06
7.9012682e-07
1.0418318e-06
8.4766559e-07
1.0741286e-06
6.7433878e-07
1.0982787e-06
5.3467967e-07
4.8782812e-07
1.1760525e-06
5.1406298e-07
4.2433853e-07
4.7611706e-07
5.7259537e-07
7.2154535e-07
5.9976301e-07
5.2450388e-07
5.4701923e-07
1.0653625e-06
1.1130964e-06
1.0435033e-06
1.0669855e-06
1.1006593e-06
1.1087926e-06
1.0921446e-06
1.0602639e-06
1.0233143e-06
9.9029855e-07
9.7092215e-07
9.7024596e-07
9.8319757e-07
1.0003198e-06
1.0164923e-06
1.0250399e-06
1.0237337e-06
1.0137741e-06
1.0005874e-06
9.8851378e-07
9.8105829e-07
9.7721744e-07
9.7692099e-07
9.7900045e-07
9.8409968e-07
9.9003373e-07
9.9529599e-07
9.9769266e-07
9.9609113e-07
9.9377976e-07
9.8951831e-07
9.836956e-07
9.8257264e-07
9.8738533e-07
9.9213719e-07
1.0004735e-06
8.6028619e-07
1.020364e-06
7.1848191e-07
1.0339642e-06
6.3830618e-07
1.0561089e-06
5.3773783e-07
1.0235819e-06
5.9633499e-07
3.6240267e-07
4.6612847e-07
6.6137749e-07
4.1969865e-07
3.2805391e-07
4.2573279e-07
1.1569532e-06
5.2327037e-07
3.7360847e-07
4.0966002e-07
1.0643224e-06
1.1119593e-06
1.04135e-06
1.063281e-06
1.0963296e-06
1.10395e-06
1.0860571e-06
1.0526665e-06
1.0145692e-06
9.80139e-07
9.5796459e-07
9.5398407e-07
9.6301562e-07
9.768094e-07
9.9217814e-07
9.9968271e-07
9.9979344e-07
9.9233616e-07
9.8289112e-07
9.7442622e-07
9.7076371e-07
9.7093832e-07
9.7569058e-07
9.8144074e-07
9.9310937e-07
1.0054478e-06
1.0182607e-06
1.0295161e-06
1.0365577e-06
1.0420718e-06
1.0483865e-06
1.0541931e-06
1.0617834e-06
1.0725801e-06
1.0860136e-06
1.1033478e-06
1.1251379e-06
1.0459951e-06
7.8768163e-07
1.1599957e-06
7.5410484e-07
1.1835193e-06
6.3882422e-07
8.4086757e-07
8.6416879e-07
5.1018048e-07
3.5931956e-07
5.4511007e-07
8.5165379e-07
3.6402807e-07
3.6899322e-07
1.0372748e-06
6.932486e-07
3.5929201e-07
3.3730215e-07
1.0627749e-06
1.1100001e-06
1.0374006e-06
1.055508e-06
1.0848993e-06
1.0890027e-06
1.0672118e-06
1.031183e-06
9.9162869e-07
9.5763668e-07
9.351214e-07
9.2901827e-07
9.3634124e-07
9.4932826e-07
9.6732122e-07
9.7964251e-07
9.9559678e-07
1.0030876e-06
1.009251e-06
1.0223774e-06
1.0380393e-06
1.0560163e-06
1.0847895e-06
1.1095991e-06
1.1331267e-06
1.1739863e-06
1.2154596e-06
1.2507715e-06
1.2797129e-06
1.3130424e-06
1.3351124e-06
1.3589076e-06
1.3959339e-06
1.4007932e-06
1.4735907e-06
1.5065775e-06
1.5475704e-06
1.0807517e-06
1.2827249e-06
1.6252392e-06
1.3428553e-06
1.1200364e-06
1.1172027e-06
1.6718311e-06
1.4913982e-06
1.4759037e-06
5.6929158e-07
5.6395305e-07
1.7352332e-06
9.0299542e-07
6.1913124e-07
9.1162028e-07
9.9056801e-07
5.5384234e-07
4.6584263e-07
1.0583204e-06
1.1025842e-06
1.0257054e-06
1.0333192e-06
1.0539124e-06
1.0534357e-06
1.032732e-06
1.0038053e-06
9.7172828e-07
9.4863901e-07
9.3964148e-07
9.4079658e-07
9.5776077e-07
9.8536052e-07
1.0149366e-06
1.0528734e-06
1.1179899e-06
1.1644113e-06
1.2269735e-06
1.2785484e-06
1.3464113e-06
1.4096436e-06
1.4772524e-06
1.5309301e-06
1.5766616e-06
1.6695007e-06
1.759495e-06
1.7897459e-06
1.8975271e-06
1.9660398e-06
1.9298388e-06
2.0773479e-06
2.1491116e-06
1.8200011e-06
2.2523795e-06
2.3579602e-06
2.4281607e-06
1.670881e-06
2.0945187e-06
2.5642726e-06
2.624328e-06
1.749842e-06
1.759091e-06
2.6810969e-06
2.6868778e-06
2.7046728e-06
1.376001e-06
1.0647087e-06
1.6690806e-06
2.7566376e-06
2.3375973e-06
1.9404578e-06
1.5654753e-06
1.150446e-06
1.0104989e-06
1.0413353e-06
1.0769213e-06
9.9197424e-07
9.8824178e-07
1.0144889e-06
1.0305892e-06
1.0408219e-06
1.0544275e-06
1.0558396e-06
1.0761057e-06
1.1075992e-06
1.1378713e-06
1.190391e-06
1.2341898e-06
1.3235655e-06
1.3903582e-06
1.5336415e-06
1.6349351e-06
1.7575077e-06
1.8717316e-06
1.9867869e-06
2.110111e-06
2.2167966e-06
2.3090789e-06
2.3905272e-06
2.5069022e-06
2.6579159e-06
2.6338558e-06
2.8720161e-06
2.9682702e-06
3.0238962e-06
3.1788053e-06
3.2808239e-06
2.9800327e-06
3.3105083e-06
3.5750345e-06
3.677422e-06
2.9466563e-06
3.2827284e-06
3.8695064e-06
3.9491819e-06
3.0404092e-06
2.8807754e-06
4.0657457e-06
4.0734064e-06
4.0896118e-06
2.9882795e-06
2.2578736e-06
2.4770891e-06
4.1652016e-06
4.1637006e-06
4.1575944e-06
3.0864345e-06
2.4396498e-06
2.2135087e-06
9.0958696e-07
1.009641e-06
9.5463695e-07
9.5683451e-07
1.0394063e-06
1.117181e-06
1.2523612e-06
1.3518847e-06
1.4257894e-06
1.4867196e-06
1.5838159e-06
1.6345523e-06
1.7474327e-06
1.807763e-06
1.9031664e-06
1.9647603e-06
2.0917832e-06
2.2099367e-06
2.3222655e-06
2.4391781e-06
2.5601321e-06
2.6983266e-06
2.8333828e-06
3.0188947e-06
3.0970503e-06
3.2577795e-06
3.4662694e-06
3.5149812e-06
3.8354925e-06
3.9469437e-06
4.0284125e-06
4.2444253e-06
4.384322e-06
4.426983e-06
4.6578314e-06
4.7694192e-06
4.9065059e-06
4.54533e-06
4.6519844e-06
5.2095323e-06
5.3182084e-06
4.5137233e-06
4.213056e-06
5.3163793e-06
5.5880558e-06
5.6099418e-06
4.6087229e-06
3.8331712e-06
3.6928906e-06
4.5835513e-06
5.7922264e-06
5.8011222e-06
4.9424971e-06
3.9601141e-06
3.7676354e-06
8.774007e-07
9.7273443e-07
9.7904111e-07
1.0131432e-06
1.1242083e-06
1.3694092e-06
1.6454862e-06
1.7651827e-06
1.829002e-06
1.8662275e-06
1.921993e-06
1.9528145e-06
2.0058285e-06
2.0423841e-06
2.1019148e-06
2.1619199e-06
2.2504849e-06
2.3576847e-06
2.4583727e-06
2.5606948e-06
2.6494952e-06
2.738044e-06
2.8265224e-06
2.9278274e-06
2.9861946e-06
3.0609409e-06
3.1481177e-06
3.1730201e-06
3.3360806e-06
3.4523062e-06
3.4502682e-06
3.6433677e-06
3.7871997e-06
3.7007358e-06
3.7918013e-06
4.0053252e-06
4.0611973e-06
3.9436028e-06
3.9844743e-06
4.2432482e-06
4.305589e-06
4.2337527e-06
4.0370057e-06
4.3064689e-06
4.4475291e-06
4.4587175e-06
4.1479797e-06
3.7051132e-06
3.4022225e-06
3.5370085e-06
4.4477584e-06
4.5002116e-06
4.4960349e-06
3.7216441e-06
3.5820549e-06
1.007105e-06
1.2135391e-06
1.2255825e-06
1.2406093e-06
1.3125975e-06
1.481864e-06
1.582573e-06
1.625564e-06
1.638889e-06
1.6290464e-06
1.6179678e-06
1.6106696e-06
1.6025655e-06
1.5958899e-06
1.593892e-06
1.5936992e-06
1.6044505e-06
1.6094448e-06
1.6286493e-06
1.6434384e-06
1.654219e-06
1.6678296e-06
1.6769357e-06
1.6845271e-06
1.6920136e-06
1.6979892e-06
1.7002301e-06
1.6970722e-06
1.7022723e-06
1.711025e-06
1.7107186e-06
1.7206861e-06
1.7300667e-06
1.7262882e-06
1.7313939e-06
1.7372984e-06
1.7345044e-06
1.723316e-06
1.7251709e-06
1.7334503e-06
1.735815e-06
1.7278497e-06
1.7186915e-06
1.7190184e-06
1.7245612e-06
1.7211202e-06
1.7050953e-06
1.683762e-06
1.6780853e-06
1.6895247e-06
1.7016292e-06
1.7095377e-06
1.7091407e-06
1.7010871e-06
1.7634771e-06
1.5174354e-06
2.1503806e-06
1.9139862e-06
1.6652561e-06
1.4887867e-06
1.3174376e-06
1.1673319e-06
1.0311763e-06
9.1524832e-07
8.1938089e-07
7.4584091e-07
6.8754642e-07
6.4055154e-07
5.9726223e-07
5.5006073e-07
4.9693215e-07
4.4467831e-07
3.9980617e-07
3.6205254e-07
3.3002587e-07
3.0255748e-07
2.7877502e-07
2.6017125e-07
2.4742666e-07
2.3843051e-07
2.2808872e-07
2.1646019e-07
2.0243777e-07
1.8781968e-07
1.73236e-07
1.5975837e-07
1.4871601e-07
1.4072424e-07
1.3165789e-07
1.233463e-07
1.1806332e-07
1.1371012e-07
1.0905856e-07
1.0372259e-07
1.0086543e-07
9.9036434e-08
9.6212913e-08
9.2941807e-08
9.0298003e-08
9.040864e-08
9.0977153e-08
9.0186757e-08
8.6755668e-08
8.3310681e-08
8.1544264e-08
8.2509141e-08
8.5597293e-08
8.8020685e-08
8.7300929e-08
8.5632838e-08
7.6686324e-08
1.6070649e-06
3.7436562e-06
3.9750698e-06
2.4544646e-06
1.2588669e-06
7.0204324e-07
6.0050563e-07
5.8402284e-07
5.9090159e-07
8.2926187e-07
1.4975159e-06
1.926266e-06
1.962363e-06
1.9801894e-06
1.9675607e-06
1.9825142e-06
2.0619649e-06
2.175004e-06
2.2516995e-06
2.3691379e-06
2.5773872e-06
2.9482622e-06
3.163552e-06
3.2945197e-06
3.4300408e-06
3.6029168e-06
7.0699531e-08
1.4132163e-06
3.5516443e-06
4.4560658e-06
3.4739867e-06
2.7851202e-06
1.923493e-06
7.4634715e-07
5.3326119e-07
7.3429416e-07
1.5622452e-06
1.8924994e-06
2.0629604e-06
2.1138516e-06
2.1178654e-06
2.0922514e-06
2.096699e-06
2.1685964e-06
2.2681322e-06
2.3794124e-06
2.4775734e-06
2.6359333e-06
2.931361e-06
3.4230841e-06
3.5194595e-06
3.6387177e-06
3.7822371e-06
6.5201098e-08
1.2518429e-06
4.0344986e-06
5.8030387e-06
4.662731e-06
3.2219445e-06
1.0390373e-06
4.8273917e-07
4.5177351e-07
6.8812703e-07
1.1587682e-06
1.8658631e-06
2.1630333e-06
2.2251795e-06
2.2054716e-06
2.1619381e-06
2.1604146e-06
2.2362446e-06
2.3409673e-06
2.5622212e-06
2.5973828e-06
2.7075376e-06
2.9098694e-06
3.5500801e-06
3.7753199e-06
3.8467422e-06
3.6126159e-06
5.94825e-08
1.1270815e-06
3.8686712e-06
5.7169463e-06
4.8717034e-06
3.4388936e-06
1.6118773e-06
8.0750612e-07
5.8262542e-07
6.2157974e-07
9.2064286e-07
1.8213778e-06
2.2031987e-06
2.3272386e-06
2.336985e-06
2.3066812e-06
2.2739681e-06
2.3193715e-06
2.42932e-06
2.612195e-06
2.7662386e-06
2.9315489e-06
3.1065754e-06
3.6246596e-06
4.1686522e-06
4.3422517e-06
4.4853828e-06
5.6418996e-08
9.7888513e-07
3.6297271e-06
5.2387362e-06
4.5262469e-06
2.9072652e-06
1.5035265e-06
8.0334958e-07
6.4981263e-07
9.3008758e-07
1.5384572e-06
2.002006e-06
2.2987452e-06
2.3791333e-06
2.4232894e-06
2.4140908e-06
2.3937936e-06
2.4536953e-06
2.6034468e-06
2.6863611e-06
2.8573915e-06
3.0760159e-06
3.3857723e-06
4.0761115e-06
4.4132455e-06
4.700522e-06
4.8784136e-06
4.9744822e-08
8.2225415e-07
3.070982e-06
3.7882495e-06
2.9661076e-06
1.6999043e-06
8.7663389e-07
5.2764247e-07
4.9596323e-07
6.570982e-07
8.9483188e-07
1.4226346e-06
2.1003869e-06
2.5065529e-06
2.5172889e-06
2.5462519e-06
2.5658931e-06
2.6139216e-06
2.7712098e-06
2.9674787e-06
3.0510056e-06
3.2303418e-06
3.5469547e-06
4.5503087e-06
4.6970579e-06
4.8369584e-06
5.0344902e-06
4.7959149e-08
6.8587184e-07
2.7280795e-06
3.5842684e-06
3.1790091e-06
2.11064e-06
1.3333112e-06
9.064896e-07
6.4080823e-07
5.5465289e-07
6.6582063e-07
1.1839293e-06
1.9346508e-06
2.3056981e-06
2.5965905e-06
2.709608e-06
2.6907768e-06
2.7466312e-06
2.9106947e-06
3.2673652e-06
3.2945542e-06
3.4390977e-06
3.6856803e-06
4.6523822e-06
5.1157412e-06
5.3588701e-06
5.521826e-06
5.0054834e-08
5.864856e-07
2.7602493e-06
4.5090199e-06
5.2980758e-06
4.2793694e-06
2.9291708e-06
1.0653736e-06
6.3735413e-07
7.053911e-07
1.3117597e-06
1.9671592e-06
2.4921335e-06
2.8695969e-06
2.9243181e-06
2.9029007e-06
2.8382816e-06
2.8762935e-06
2.9867232e-06
3.4118981e-06
3.6393468e-06
3.7265277e-06
3.9195097e-06
4.8132161e-06
5.4818362e-06
6.0898535e-06
6.0038367e-06
4.9660886e-08
5.1241381e-07
2.7768264e-06
4.7840275e-06
5.6625528e-06
4.4605088e-06
1.8649362e-06
8.2327798e-07
5.9090419e-07
6.1180608e-07
7.9475044e-07
1.3369779e-06
2.5644018e-06
3.0525174e-06
3.2348522e-06
3.2301457e-06
3.119686e-06
3.0286589e-06
3.0762757e-06
3.4017889e-06
3.9250871e-06
4.0904439e-06
4.3633778e-06
5.3578202e-06
6.0919965e-06
6.5603868e-06
6.6747247e-06
4.6892107e-08
4.5146517e-07
2.5907893e-06
4.5802493e-06
5.6867816e-06
4.5985703e-06
3.3038981e-06
1.4535404e-06
7.3550985e-07
6.0044054e-07
7.1677351e-07
1.2729565e-06
2.2628853e-06
2.7200959e-06
2.7139294e-06
3.1245493e-06
3.4276745e-06
3.3235538e-06
3.336741e-06
3.4802346e-06
4.0037328e-06
4.3569768e-06
4.8292345e-06
6.0574754e-06
7.0914799e-06
7.0568095e-06
6.9735409e-06
4.4618102e-08
3.8349342e-07
2.345423e-06
3.6691263e-06
3.9337026e-06
2.8815339e-06
1.7411061e-06
1.0634338e-06
8.895191e-07
1.1692414e-06
1.6146761e-06
2.0517639e-06
2.8232107e-06
2.701183e-06
3.1011719e-06
3.6952127e-06
3.6254124e-06
3.5104087e-06
3.753693e-06
3.7630934e-06
4.1529573e-06
4.5130995e-06
5.0458441e-06
6.3835657e-06
7.8438765e-06
8.0449917e-06
5.4622995e-06
4.5837619e-08
3.191019e-07
1.8830434e-06
2.7068295e-06
2.729147e-06
2.0455734e-06
1.298772e-06
8.4598831e-07
7.1407311e-07
7.8804622e-07
8.7853546e-07
1.2012684e-06
2.0801203e-06
3.2926164e-06
3.6181389e-06
3.8816701e-06
4.0814004e-06
4.1313533e-06
4.2025846e-06
4.3825776e-06
4.5096918e-06
4.7000713e-06
5.2000284e-06
6.653453e-06
8.218973e-06
8.7382162e-06
6.9156835e-06
5.312998e-08
2.727042e-07
1.6651307e-06
2.7724556e-06
3.285148e-06
3.2196329e-06
2.5540476e-06
1.7373983e-06
9.9475459e-07
7.2315306e-07
7.0087165e-07
1.0053658e-06
1.7959182e-06
2.0255991e-06
2.2919742e-06
2.941079e-06
4.2496304e-06
4.3629133e-06
4.5444342e-06
5.0711698e-06
5.2059465e-06
5.4732644e-06
5.8326948e-06
6.8765911e-06
8.2098809e-06
8.8199939e-06
9.4997217e-06
6.2469634e-08
2.4682264e-07
1.6950053e-06
3.6484751e-06
5.0736113e-06
5.2363571e-06
3.9435376e-06
1.6746143e-06
9.7210537e-07
1.024703e-06
1.6343359e-06
1.9657443e-06
2.4443269e-06
2.3838898e-06
2.7763482e-06
3.0393575e-06
3.0266871e-06
3.0202807e-06
3.8930676e-06
5.3197702e-06
6.1639964e-06
6.2255704e-06
6.4554514e-06
7.2215567e-06
8.7559022e-06
9.2297696e-06
1.0050673e-05
6.4758676e-08
2.2498887e-07
1.5503678e-06
3.4514821e-06
4.8698968e-06
5.3797934e-06
2.5250681e-06
1.3593183e-06
9.1022157e-07
8.1602347e-07
7.8714397e-07
9.7130617e-07
1.858556e-06
3.5016915e-06
4.4112935e-06
4.5122033e-06
4.1815724e-06
3.9352109e-06
4.4441183e-06
4.4174055e-06
5.3652654e-06
7.0618717e-06
7.3699939e-06
8.1223939e-06
1.0052224e-05
1.0757102e-05
7.5578718e-06
6.1042211e-08
1.992827e-07
1.3552981e-06
3.1662448e-06
4.6108099e-06
5.3968742e-06
4.3072428e-06
2.7915316e-06
1.1623344e-06
8.5553595e-07
8.3332819e-07
1.1168856e-06
1.8625553e-06
2.3258596e-06
2.651189e-06
2.9530533e-06
3.9553538e-06
4.7938114e-06
4.9076365e-06
5.2815971e-06
6.6411476e-06
7.6994816e-06
7.4806205e-06
8.6616498e-06
1.0800096e-05
1.2145542e-05
7.8624591e-06
6.1280896e-08
1.7240331e-07
1.1388874e-06
2.0976274e-06
2.6130726e-06
2.5528531e-06
1.9705898e-06
1.3978861e-06
1.278062e-06
1.6969874e-06
2.0980743e-06
2.4297741e-06
2.7539767e-06
2.3108253e-06
2.6208037e-06
3.0985129e-06
3.7108335e-06
3.4203504e-06
3.5345141e-06
5.7325077e-06
6.8416719e-06
8.1221926e-06
7.9352157e-06
8.9486109e-06
1.1121914e-05
1.0513028e-05
1.4502557e-05
7.0743105e-08
1.5114252e-07
9.4942208e-07
1.5972408e-06
1.9253429e-06
2.0844546e-06
1.929656e-06
1.606677e-06
1.4153338e-06
1.3446842e-06
1.2749882e-06
1.5082608e-06
1.9003037e-06
3.1670925e-06
4.9219423e-06
5.8537139e-06
4.7180315e-06
4.0162575e-06
4.3357089e-06
5.6149597e-06
5.7257975e-06
6.8882431e-06
9.2999734e-06
1.0020597e-05
1.1586858e-05
1.2128834e-05
1.5649083e-05
8.7326844e-08
1.3954898e-07
7.8516475e-07
1.6720051e-06
2.4471797e-06
3.7969835e-06
4.9594242e-06
3.6959486e-06
2.471599e-06
1.5830141e-06
1.2882823e-06
1.5026048e-06
1.8035577e-06
2.4077525e-06
3.0861622e-06
3.8627384e-06
5.6366452e-06
7.4042861e-06
7.6049037e-06
6.3451769e-06
5.4642003e-06
6.9561297e-06
9.0741798e-06
9.4406461e-06
1.2841626e-05
1.7255905e-05
9.7113255e-06
9.8987384e-08
1.3796428e-07
7.6377982e-07
2.3258584e-06
3.7471901e-06
4.6944038e-06
4.782469e-06
3.105105e-06
2.4432257e-06
2.444307e-06
2.4584887e-06
2.6725371e-06
3.0776531e-06
2.9147839e-06
3.0865111e-06
3.5804114e-06
4.1326783e-06
4.8317608e-06
5.4407352e-06
6.6697586e-06
9.4384743e-06
1.1312274e-05
8.4271023e-06
7.8561558e-06
1.3960166e-05
1.7698601e-05
1.1236952e-05
9.4868251e-08
1.3381246e-07
6.6880082e-07
2.1687236e-06
3.5659745e-06
3.8763306e-06
3.0731148e-06
2.483745e-06
2.2946952e-06
2.4743952e-06
2.4174427e-06
1.9220186e-06
2.0574062e-06
3.0350719e-06
5.9322349e-06
7.4597496e-06
7.8517749e-06
4.9808659e-06
4.2444414e-06
5.0605557e-06
8.2129803e-06
1.2062848e-05
1.2608482e-05
1.2928388e-05
1.5450013e-05
1.0713959e-05
1.7303825e-05
8.2980849e-08
1.2350121e-07
5.3908537e-07
1.9021886e-06
3.3118004e-06
4.3264703e-06
4.8673016e-06
4.647796e-06
3.369515e-06
2.1205575e-06
1.574097e-06
1.4123044e-06
1.8008741e-06
3.0511251e-06
5.399827e-06
6.962285e-06
8.1262458e-06
9.4797068e-06
9.3717349e-06
8.4705251e-06
6.2676216e-06
6.5651372e-06
1.0747772e-05
1.6205068e-05
1.695503e-05
1.37659e-05
2.2648528e-05
7.840121e-08
1.1459164e-07
4.4326564e-07
1.2774144e-06
1.97698e-06
2.5678415e-06
3.0285701e-06
3.1169502e-06
3.2078804e-06
3.5309105e-06
3.5925685e-06
3.3244826e-06
2.9358675e-06
2.8567308e-06
3.5582007e-06
4.6363657e-06