/*--------------------------------*- C++ -*----------------------------------*\
| =========                 |                                                 |
| \\      /  F ield         | OpenFOAM: The Open Source CFD Toolbox           |
|  \\    /   O peration     | Version:  2406                                  |
|   \\  /    A nd           | Website:  www.openfoam.com                      |
|    \\/     M anipulation  |                                                 |
\*---------------------------------------------------------------------------*/
FoamFile
{
    version     2.0;
    format      ascii;
    arch        "LSB;label=32;scalar=64";
    class       volScalarField;
    location    "35";
    object      omega;
}
// * * * * * * * * * * * * * * * * * * * * * * * * * * * * * * * * * * * * * //

dimensions      [0 0 -1 0 0 0 0];

internalField   nonuniform List<scalar> 
158064
(
4.0383987
3.1231667
2.5499043
2.1597299
1.8782104
1.6664386
1.5017421
1.370501
1.2633028
1.1743588
1.0989555
1.0344012
0.97832773
0.92916647
0.88589588
0.84729205
0.81292022
0.78171362
0.75384978
0.72838334
0.70546028
0.68458829
0.66557839
0.64795631
0.631736
0.61663696
0.60285767
0.58921947
0.57730051
0.56524049
0.55460608
0.54375378
0.53422388
0.52471643
0.5164029
0.50789306
0.50035679
0.49299781
0.48630077
0.47976649
0.4740529
0.46800449
0.46287767
0.45804316
0.4531104
0.44876802
0.44442197
0.44079575
0.43657036
0.43331859
0.42950553
0.42651959
0.42270158
0.42017117
0.41625451
0.41446108
0.41081824
0.40907837
0.40558654
0.40408211
0.40111053
0.39999815
0.39755025
0.39685684
0.39528005
0.39526356
0.39553867
0.39677626
0.39803936
0.40161224
0.4041003
0.40950867
0.41316204
0.42156423
0.42815689
0.4375295
0.44653658
0.4574376
0.46563748
0.4752906
0.4891919
0.49716057
0.51225641
0.52126504
0.53976868
0.54992255
0.57028093
0.58217128
0.61256938
4.0397855
3.1252471
2.5521156
2.1619125
1.8803116
1.6684762
1.5036737
1.372377
1.2650733
1.1761208
1.1006062
1.0360814
0.97989894
0.93079323
0.88740819
0.8488838
0.81441322
0.78330598
0.75532539
0.72994897
0.70691257
0.68610161
0.66701405
0.64946985
0.63324374
0.6181386
0.60441473
0.59073707
0.57893898
0.56672663
0.55626087
0.54516252
0.5359067
0.5260989
0.51804455
0.50924859
0.50216975
0.49414368
0.48807462
0.48093495
0.47559271
0.46874951
0.46459518
0.45888583
0.45476275
0.44937728
0.44600357
0.44123417
0.43797496
0.43378845
0.43095923
0.42701424
0.42421252
0.42084978
0.41773502
0.41551499
0.41216805
0.4104082
0.40709227
0.40566852
0.40275709
0.40168635
0.39922902
0.39834118
0.39615848
0.39569159
0.39434959
0.39469366
0.39470717
0.3962635
0.39710345
0.40066978
0.40252853
0.40796732
0.4109782
0.4190429
0.42431126
0.43649861
0.44807578
0.4556002
0.47043394
0.47871512
0.4957159
0.50452281
0.52204159
0.53084833
0.54861851
0.55805784
0.58203464
4.0410376
3.1272031
2.5542258
2.1640046
1.8823262
1.6703807
1.5054762
1.3740777
1.2666872
1.1776672
1.1020795
1.0375153
0.98124684
0.93212913
0.88864869
0.85011105
0.81553717
0.78443698
0.7563439
0.73098571
0.70785607
0.68699687
0.66783163
0.65026155
0.63396764
0.61884173
0.60504828
0.5913473
0.57951186
0.56724634
0.5567442
0.54562437
0.53635881
0.5264898
0.51844698
0.50952963
0.50258872
0.49438627
0.48844884
0.48123112
0.47590479
0.46882913
0.46504307
0.45900965
0.45523863
0.44933146
0.44643819
0.44123994
0.43853237
0.43379157
0.43143879
0.42685977
0.42470207
0.4205088
0.41853182
0.41493414
0.41308515
0.40990474
0.40802489
0.4052659
0.40312385
0.4014589
0.39937753
0.39837986
0.39626581
0.39556356
0.39466109
0.39451878
0.3945999
0.39543653
0.39610033
0.39807679
0.39945311
0.4034686
0.40576502
0.41001318
0.41646471
0.42143087
0.43186361
0.43795378
0.44911301
0.45532093
0.46909181
0.47782282
0.49586401
0.50509937
0.52326824
0.53208643
0.55388925
4.0423354
3.1291602
2.5563011
2.166051
1.8842949
1.6722508
1.5072422
1.375762
1.2682917
1.1792173
1.103543
1.0389599
0.982599
0.9334883
0.8899133
0.85139697
0.81672813
0.78569051
0.75748665
0.73217967
0.70897881
0.68812676
0.66893132
0.65139127
0.63503737
0.62003075
0.60611408
0.59254832
0.58071719
0.56847602
0.55791905
0.54698165
0.5375943
0.52779323
0.51973794
0.51084704
0.50386527
0.49578824
0.48968358
0.48259345
0.47696473
0.47015939
0.46625969
0.46015787
0.45623203
0.45067752
0.44746903
0.44232656
0.43948062
0.43468448
0.43236311
0.42788288
0.42553755
0.42129961
0.41929776
0.4155417
0.41379097
0.41037151
0.40874578
0.40552713
0.4038869
0.40101447
0.39982854
0.39767807
0.39674173
0.3951366
0.39472786
0.3939153
0.3938433
0.39377672
0.39445193
0.39559175
0.39730189
0.39887272
0.40305943
0.40607564
0.41179116
0.41550575
0.42345589
0.43036883
0.44155455
0.44665069
0.45670157
0.46276041
0.47598831
0.48351118
0.49901087
0.50688588
0.52613901
4.043513
3.130992
2.5582743
2.1680087
1.8861764
1.6740317
1.5089269
1.3773579
1.2698038
1.1806741
1.1049232
1.0403113
0.98385516
0.93474003
0.8910759
0.85256392
0.81778988
0.78678917
0.75846722
0.73319593
0.70990595
0.6890232
0.66976129
0.65219983
0.63580239
0.62083656
0.60678113
0.59325717
0.58136212
0.56908303
0.55845858
0.54759924
0.53809044
0.52830081
0.52021687
0.51129263
0.50426357
0.4962042
0.49004234
0.4829578
0.47723712
0.4705635
0.46657743
0.46037634
0.45642332
0.45108112
0.44776813
0.44255882
0.43967085
0.43492976
0.43253023
0.42817868
0.42577336
0.42146171
0.4194053
0.41566305
0.41391499
0.41049397
0.40885871
0.40556129
0.40392804
0.40085158
0.39958048
0.39716789
0.39631612
0.39456322
0.39407274
0.39312253
0.39278915
0.39275208
0.39298181
0.39363012
0.39543089
0.39696463
0.40035056
0.40231299
0.40673521
0.40987641
0.41633931
0.42061543
0.43103081
0.43704317
0.44634344
0.45080914
0.46021537
0.4661115
0.4788585
0.48585697
0.50302668
4.0447046
3.132803
2.5602048
2.1699155
1.8880102
1.6757672
1.5105688
1.3789183
1.2712898
1.1821102
1.1062773
1.0416504
0.98511117
0.93600055
0.89225689
0.85375713
0.8188887
0.78794171
0.75948954
0.73428347
0.71090921
0.69006285
0.67074999
0.65318804
0.63675167
0.62189569
0.60768671
0.59428784
0.58238628
0.57006258
0.55940528
0.5487405
0.53906736
0.52936917
0.52125202
0.51238922
0.50535372
0.49735303
0.49103327
0.48399726
0.47840056
0.47190407
0.46758326
0.46117235
0.45735829
0.45220724
0.44888795
0.44340498
0.44053535
0.43601887
0.4334619
0.42911534
0.42674056
0.42233573
0.42019973
0.41644193
0.41468524
0.41130962
0.40965138
0.4063099
0.40458815
0.40136342
0.40002667
0.39741887
0.39643837
0.39445631
0.39368177
0.39261467
0.39185366
0.39148913
0.39170868
0.3921122
0.39342371
0.39469253
0.3981316
0.39978352
0.40293662
0.40551621
0.41159662
0.41508682
0.42331973
0.42936138
0.43814973
0.44233287
0.45092059
0.45560133
0.46568034
0.4714858
0.48506985
4.0458077
3.1345153
2.5620484
2.1717465
1.8897694
1.6774336
1.5121459
1.3804138
1.2727113
1.183474
1.1075756
1.0429187
0.98630117
0.93717889
0.89335668
0.85486619
0.81990902
0.78900051
0.76042514
0.73526955
0.71179821
0.69095988
0.67155062
0.65399111
0.63754513
0.62270599
0.60835509
0.59506857
0.58307407
0.57069934
0.56004032
0.54946172
0.53963059
0.53004466
0.52185517
0.51302232
0.50589303
0.49788866
0.49142496
0.48442575
0.47886477
0.47246317
0.46789728
0.46146391
0.4576698
0.45258571
0.44916742
0.44370894
0.44084655
0.43642131
0.43380983
0.429383
0.42700027
0.42263496
0.4204368
0.41667886
0.41487273
0.41154992
0.40982983
0.40646773
0.40468525
0.40144416
0.40004714
0.39742393
0.39634972
0.39424187
0.39327217
0.39196162
0.39152887
0.39065817
0.390653
0.39079497
0.39141019
0.39245332
0.39521098
0.39670038
0.39936209
0.40121576
0.40633193
0.40990692
0.41690317
0.42131298
0.43025425
0.43409113
0.44021033
0.44435177
0.4542602
0.46025042
0.47247848
4.0469069
3.136195
2.5638456
2.1735247
1.8914793
1.6790521
1.5136779
1.3818667
1.274091
1.1848091
1.1088417
1.0441559
0.98746647
0.93833164
0.89445094
0.85596595
0.82092715
0.7900565
0.76137979
0.73627061
0.71271576
0.69191817
0.6724196
0.65489086
0.63841543
0.62362638
0.60914059
0.59600102
0.58388723
0.57154481
0.56094957
0.55033973
0.54042295
0.53101874
0.52273205
0.51389939
0.50674221
0.4987592
0.49223626
0.48533108
0.47982623
0.47350624
0.46862124
0.46237581
0.45864806
0.45349122
0.44971802
0.44462167
0.44178107
0.43726582
0.43475516
0.43013048
0.4276855
0.42342718
0.42139018
0.41756847
0.41573545
0.41217954
0.41042406
0.40697738
0.40528849
0.40210539
0.40065591
0.39787324
0.3966596
0.39430196
0.39339174
0.39165439
0.39128396
0.39040316
0.39009974
0.38993406
0.39030671
0.39105845
0.392834
0.39485997
0.39696473
0.39805211
0.40106554
0.40579727
0.41125588
0.41487936
0.42287768
0.42767728
0.43323623
0.43646549
0.44406248
0.44983492
0.46261428
4.0479388
3.1377948
2.5655675
2.1752334
1.8931207
1.6806118
1.5151566
1.3832676
1.275421
1.1860858
1.110057
1.0453366
0.98858984
0.9394329
0.89550399
0.85701529
0.82189233
0.79104826
0.76227522
0.73717981
0.71356012
0.69277757
0.67319419
0.65568974
0.63916687
0.62441761
0.60980231
0.59680388
0.58448645
0.57229732
0.56162663
0.55099462
0.54103937
0.53182413
0.52335153
0.51454104
0.507291
0.4993585
0.4927355
0.48594821
0.48033739
0.47398968
0.46894898
0.46285937
0.45907885
0.45387152
0.44987863
0.44500688
0.44214648
0.43758077
0.43505303
0.43043188
0.4279451
0.42375051
0.42176277
0.41793814
0.41609002
0.41246357
0.41059307
0.40712384
0.40539003
0.40235114
0.4007602
0.39788065
0.39667058
0.3944307
0.39336413
0.39148423
0.39086403
0.39003235
0.38980721
0.38907576
0.38917892
0.38932279
0.39066125
0.39302221
0.39491264
0.39570363
0.39753349
0.39951986
0.40437447
0.41147937
0.41948951
0.42256464
0.42750542
0.43009155
0.43499717
0.43908363
0.44980461
4.0489555
3.1393547
2.5672398
2.1768948
1.8947178
1.6821191
1.5165833
1.3846225
1.2767135
1.1873271
1.1112466
1.04648
0.98968691
0.94048563
0.8965252
0.85803351
0.82284921
0.79203288
0.76320038
0.73809187
0.71441583
0.69365262
0.67400343
0.65651737
0.63996971
0.62522494
0.61053229
0.59765771
0.5851967
0.57310845
0.5623682
0.55177057
0.54185448
0.53270129
0.52404693
0.51528752
0.50804399
0.50015992
0.49350565
0.48677126
0.48107337
0.47470305
0.46966605
0.46374602
0.45993457
0.45456574
0.4505294
0.44576682
0.44302251
0.43829632
0.43558324
0.4312476
0.42870461
0.42454458
0.42256908
0.41877277
0.41686886
0.41317005
0.41112134
0.40777439
0.40582692
0.4031735
0.4011933
0.39861631
0.39700692
0.39488899
0.39346761
0.39176962
0.39070974
0.38970916
0.38946275
0.38876239
0.38859045
0.38838074
0.3887191
0.38986767
0.39296087
0.39523071
0.39741472
0.39807524
0.40000102
0.40383182
0.41259081
0.41971657
0.42515925
0.42776041
0.43056034
0.43237982
0.43833653
4.0499201
3.1408486
2.5688477
2.1784869
1.8962515
1.6835734
1.517967
1.3859327
1.2779605
1.1885169
1.1123855
1.0475803
0.99074306
0.94151113
0.89751818
0.85900734
0.82374689
0.79293477
0.7640807
0.73894485
0.71522507
0.69449663
0.67472681
0.65730011
0.64068572
0.62593142
0.61120371
0.59844151
0.5857758
0.57383705
0.56299456
0.55247654
0.5425088
0.53341132
0.52458976
0.51597426
0.50861546
0.50080745
0.49409701
0.48738997
0.48155483
0.47521311
0.4701636
0.46433943
0.460412
0.45484331
0.45087484
0.44621747
0.44345469
0.4386436
0.43580587
0.43158691
0.42903894
0.42489119
0.42289807
0.41913374
0.41719219
0.41342038
0.41142125
0.40793766
0.40613059
0.40321553
0.4015681
0.39866791
0.3973428
0.39500529
0.39354002
0.39191258
0.39065522
0.38949554
0.38893428
0.38814893
0.38804525
0.38797787
0.38807612
0.38854413
0.39051504
0.39422015
0.39657229
0.39713658
0.39808466
0.39955422
0.40335254
0.41302768
0.42140605
0.42530442
0.42823003
0.42939397
0.43239325
4.0508622
3.1422994
2.5704048
2.1800347
1.8977407
1.684979
1.5192977
1.3871964
1.2791666
1.1896757
1.1134949
1.0486414
0.9917731
0.94249088
0.89848106
0.85996078
0.82465326
0.79383067
0.76497296
0.73975235
0.71601208
0.69531407
0.67544072
0.65811124
0.6413825
0.62666144
0.61194363
0.59919984
0.58641546
0.57462967
0.56367755
0.55321972
0.54320506
0.53411454
0.52527652
0.51674802
0.50923622
0.50151641
0.49482036
0.4881317
0.48215781
0.47585859
0.47085656
0.46513983
0.46108479
0.45536747
0.45149976
0.4470274
0.44408842
0.43930577
0.43640339
0.43221302
0.42978657
0.42564285
0.42357426
0.4198222
0.41787651
0.41409098
0.41212305
0.40854507
0.40682021
0.40364501
0.40212648
0.39924481
0.39788206
0.39527338
0.39409107
0.39185046
0.39096537
0.38934538
0.3886439
0.38801221
0.38760003
0.38752799
0.38781716
0.38801896
0.38898375
0.39184334
0.39326039
0.39455665
0.39723735
0.39856203
0.40111182
0.40566663
0.41287957
0.41857579
0.4241876
0.4267119
0.42927335
4.0517638
3.1436947
2.571906
2.1815222
1.8991707
1.6863367
1.520584
1.3884191
1.2803319
1.1907936
1.1145602
1.0496646
0.99276763
0.94344299
0.89940294
0.86085503
0.82552007
0.79467105
0.76585432
0.74053422
0.71681077
0.69610923
0.67611648
0.6588797
0.64203565
0.62737298
0.6126416
0.59989886
0.58700057
0.57535451
0.56427648
0.55391226
0.54380197
0.53475594
0.52586637
0.51743334
0.5097581
0.50216663
0.49542435
0.48873174
0.48263932
0.47641497
0.47130986
0.46580631
0.46154196
0.4557874
0.45194755
0.44754571
0.44449468
0.43970552
0.43685889
0.43263721
0.43021524
0.42615943
0.42400452
0.42020766
0.41822318
0.41447893
0.41256193
0.40900737
0.4072221
0.40401697
0.40248295
0.39959933
0.39821689
0.39552828
0.39437082
0.39200784
0.39110195
0.38929489
0.3885652
0.38791071
0.38778672
0.38717451
0.38687055
0.38696253
0.38814144
0.39005663
0.39209626
0.39311545
0.39568158
0.39666256
0.39797742
0.3999869
0.405714
0.41261312
0.42047932
0.42424383
0.42744907
4.0526377
3.1450438
2.5733565
2.1829647
1.900562
1.6876499
1.5218282
1.3895988
1.2814592
1.1918735
1.1155915
1.0506646
0.99373075
0.94436771
0.90030579
0.86172362
0.82638017
0.79546865
0.76670307
0.7412854
0.71760153
0.6968464
0.67681032
0.65960381
0.64268279
0.62806752
0.61329001
0.60059152
0.58760664
0.5760696
0.56491342
0.55460824
0.5444194
0.5354445
0.52648586
0.51816057
0.51035742
0.5028762
0.49607894
0.48941287
0.48322656
0.4771438
0.47181645
0.46661356
0.46207226
0.45657503
0.45251409
0.44823081
0.44501979
0.44042703
0.43748769
0.43330746
0.43070608
0.42688867
0.42467702
0.42091672
0.41881645
0.4151623
0.41317164
0.40970889
0.40787446
0.40458627
0.40305152
0.40012507
0.39875791
0.39593063
0.39472807
0.39244589
0.39150039
0.38966584
0.38887451
0.38757251
0.38741146
0.38686951
0.38702273
0.3870884
0.38747217
0.38775497
0.38951181
0.39241893
0.39509582
0.39566123
0.39649316
0.39750717
0.40081194
0.40801269
0.4173657
0.42241362
0.42640694
4.0534803
3.1463457
2.5747568
2.184353
1.901896
1.6889181
1.5230305
1.3907432
1.282549
1.1929139
1.1165876
1.0516217
0.9946552
0.94526064
0.90117173
0.86256717
0.82721932
0.79624469
0.76752201
0.74201312
0.71835473
0.6975377
0.67752006
0.66028517
0.64333173
0.62873504
0.6139004
0.60128466
0.58817914
0.57676571
0.56553368
0.55525941
0.54500317
0.53615165
0.52704953
0.5188388
0.51096683
0.50358172
0.49666408
0.4900802
0.48377212
0.47784879
0.47228386
0.46732371
0.46250247
0.45732943
0.45302725
0.44887026
0.44533874
0.44111766
0.43795535
0.43410035
0.43098857
0.42756148
0.42514743
0.42168492
0.41925942
0.41590252
0.41359784
0.41046749
0.40844987
0.40514858
0.40353145
0.40080432
0.39916242
0.39654669
0.39504099
0.39291264
0.39191193
0.3903655
0.38914311
0.38750881
0.38692907
0.3870106
0.38720051
0.38709487
0.38711296
0.38676877
0.38734479
0.38995285
0.39401323
0.39605864
0.39686372
0.39717484
0.39867204
0.4022492
0.41123977
0.41908547
0.42464416
4.0542923
3.1476007
2.5761076
2.1856961
1.9031939
1.6901492
1.5241951
1.3918486
1.2836029
1.1939234
1.1175545
1.0525498
0.99555556
0.94614046
0.90201154
0.86339025
0.82803395
0.79700485
0.76832833
0.74275547
0.71910238
0.69820881
0.67823518
0.66092842
0.64398566
0.62939203
0.61450867
0.60200339
0.58878005
0.57746381
0.56621374
0.55593914
0.54561961
0.53691916
0.5276503
0.51952135
0.51161678
0.50437284
0.49730028
0.49080446
0.48443065
0.47862706
0.47294661
0.46805161
0.46319159
0.4581595
0.4538167
0.44963622
0.44597019
0.44196701
0.43869125
0.43506687
0.43170737
0.42840565
0.42601881
0.42260032
0.42017865
0.41685522
0.41442667
0.41144288
0.40929589
0.40602347
0.40442547
0.40164259
0.39988004
0.39716909
0.39587659
0.39380681
0.39259456
0.39073216
0.38949085
0.38793442
0.38732946
0.38711548
0.38686311
0.38673102
0.38654495
0.3866901
0.3871617
0.38838829
0.39154152
0.39570749
0.39801804
0.39808214
0.3984537
0.39950801
0.4023843
0.41059893
0.41996593
4.0550813
3.1488161
2.5774123
2.1869931
1.9044387
1.6913325
1.5253146
1.3929152
1.2846216
1.1949038
1.1184909
1.053457
0.99643525
0.94700032
0.90282191
0.86420129
0.82883733
0.79776168
0.76911048
0.7434945
0.71985106
0.69888891
0.67897649
0.66158961
0.64466711
0.63006109
0.61513066
0.60272543
0.5894133
0.57818483
0.56689249
0.55665577
0.54627267
0.53771147
0.52828698
0.52027299
0.51229531
0.50522454
0.49803685
0.4916135
0.48514801
0.47951564
0.47380148
0.46888145
0.46400416
0.45914535
0.45470886
0.45059197
0.4467598
0.44292624
0.43968949
0.43602531
0.43276093
0.42943026
0.42704906
0.42381649
0.42128656
0.41806268
0.41565438
0.41264991
0.41032734
0.4072826
0.4056424
0.40267739
0.40078965
0.39835321
0.39707811
0.39465671
0.39346543
0.39138612
0.39041674
0.38894172
0.38836707
0.38704433
0.38663202
0.38667274
0.38704288
0.38730249
0.3876929
0.38793353
0.38922442
0.39242943
0.39759076
0.39934961
0.39962578
0.40009946
0.40098496
0.40327097
0.41081529
4.0558354
3.1499849
2.5786702
2.1882452
1.905649
1.6924853
1.5264048
1.3939608
1.2856139
1.1958596
1.119407
1.0543542
0.99729567
0.94785909
0.90362088
0.86501675
0.82963735
0.79853405
0.76989338
0.74425615
0.7206253
0.69960513
0.67973712
0.66229887
0.64539836
0.63078238
0.61582421
0.60350521
0.59011812
0.57902401
0.56765509
0.55748041
0.54709414
0.53864419
0.52906929
0.5212363
0.51315396
0.50626859
0.49903844
0.49274507
0.48611565
0.48070047
0.47497617
0.47016237
0.46514228
0.46049771
0.45606689
0.45199616
0.4480877
0.44442446
0.44117565
0.43763639
0.43427443
0.43117329
0.42858984
0.42561465
0.42302951
0.41981515
0.41765981
0.41440006
0.4121461
0.40921717
0.40741174
0.40438938
0.40254328
0.40018018
0.39869234
0.39642349
0.39480831
0.39267588
0.39184585
0.3909223
0.38982716
0.38783851
0.38710566
0.38703687
0.38780373
0.38860362
0.38883251
0.38894795
0.3895079
0.39019539
0.39291172
0.39865389
0.40182091
0.40232397
0.40256834
0.40342316
0.40635847
4.0565742
3.1511211
2.5798886
2.1894624
1.9068202
1.6936091
1.5274684
1.3949845
1.2865798
1.1968038
1.120307
1.0552515
0.9981485
0.94873679
0.90443797
0.86586436
0.8304638
0.7993557
0.77072151
0.74508425
0.72146849
0.70040945
0.68057056
0.66312314
0.64624786
0.63163206
0.6166634
0.60443434
0.59099037
0.5800559
0.56860724
0.55852626
0.54819943
0.53985284
0.53017261
0.52257241
0.51436162
0.50766704
0.50043603
0.49434017
0.48750281
0.48237391
0.47662553
0.47208764
0.46689341
0.4625014
0.45803791
0.45407752
0.45013387
0.4466403
0.4434462
0.43995093
0.43666886
0.43372609
0.43113347
0.42820662
0.42580545
0.42260452
0.42046889
0.41728031
0.41500942
0.41201276
0.41024626
0.40707405
0.40532381
0.40285712
0.40130808
0.39884347
0.39746304
0.39525726
0.39404339
0.39287799
0.39182119
0.38998902
0.38909327
0.38868113
0.38898013
0.38988523
0.39058992
0.39057124
0.39060797
0.3908962
0.39210136
0.39613203
0.40141442
0.40415753
0.40537589
0.405566
0.40685709
4.057275
3.1522113
2.5810634
2.1906402
1.9079552
1.694705
1.5285047
1.396002
1.2875386
1.1977708
1.121224
1.0561866
0.99903674
0.94968358
0.90531961
0.86681061
0.83138496
0.80031048
0.77169227
0.74607762
0.72250283
0.70143461
0.6816328
0.66422992
0.64740591
0.63281158
0.61786922
0.60574776
0.59227469
0.58153432
0.57001034
0.56006765
0.54983047
0.54159521
0.53186007
0.52454216
0.51622412
0.50978286
0.50262877
0.49680962
0.48978654
0.48499469
0.47923993
0.47501248
0.46971408
0.46570848
0.46113511
0.45741659
0.45339726
0.45021723
0.4470593
0.44364216
0.44042526
0.43768921
0.43499345
0.43228202
0.42985828
0.42693655
0.42454782
0.42177288
0.41903751
0.41646367
0.4143746
0.41129068
0.40938824
0.40720839
0.40505123
0.40291262
0.40142998
0.39922737
0.3976412
0.39613954
0.39519506
0.3943328
0.39319636
0.39171103
0.3916545
0.39198658
0.39310509
0.39313172
0.39309688
0.39315406
0.39400731
0.39662432
0.40212241
0.40525008
0.40738283
0.40833829
0.40932114
4.057969
3.1532781
2.5822098
2.1917912
1.90907
1.6957986
1.529545
1.397053
1.2885291
1.1988144
1.1222117
1.0572453
1.0000517
0.95081822
0.90638591
0.86800611
0.83257187
0.80159382
0.77301161
0.74748299
0.72398839
0.70297272
0.68323241
0.66596051
0.64922593
0.63471917
0.61982289
0.60787139
0.59442312
0.58391523
0.57235634
0.56261219
0.55251239
0.54445446
0.53471335
0.52775103
0.51933323
0.51316323
0.50618457
0.50068234
0.49356316
0.48910796
0.48337945
0.47949251
0.47416526
0.47049747
0.46596744
0.46237733
0.45834487
0.45549461
0.45233295
0.44910769
0.44588832
0.44338979
0.44057004
0.43802136
0.43565218
0.43284975
0.43057009
0.42745865
0.42517547
0.42227432
0.42021179
0.41699735
0.41532664
0.41261128
0.41092033
0.40841417
0.40704829
0.40441454
0.4032509
0.4013861
0.40061522
0.39896631
0.3982012
0.39711568
0.39638835
0.39633276
0.39709805
0.39767334
0.39768467
0.39779912
0.39864484
0.40026439
0.40471854
0.40835279
0.41163975
0.41354166
0.41342133
4.0586232
3.1543056
2.5833277
2.1929368
1.9101983
1.6969365
1.5306485
1.3982126
1.2896427
1.2000586
1.1234161
1.0586202
1.0014061
0.95240345
0.90793666
0.86980262
0.83440251
0.80362698
0.77514977
0.74982329
0.726486
0.70563435
0.68601597
0.6689886
0.65240378
0.63808617
0.62326694
0.61157358
0.59820274
0.58799327
0.57647723
0.56692038
0.55697473
0.54914961
0.53942464
0.53284605
0.52433763
0.51843049
0.51158698
0.50645403
0.4992509
0.49506056
0.48934945
0.4857377
0.48042148
0.47703354
0.47246424
0.46903669
0.46487019
0.46233261
0.45909857
0.45607668
0.45288046
0.45048311
0.44759809
0.44512151
0.44272308
0.44018878
0.43778907
0.43461421
0.43239525
0.42942974
0.42707285
0.42413405
0.42216749
0.41951854
0.4175823
0.41506218
0.41360007
0.41150179
0.40945267
0.40724761
0.40635272
0.40570186
0.40516148
0.40366173
0.40191134
0.40125411
0.4017204
0.40310912
0.40508587
0.40571512
0.40603596
0.40630135
0.4073426
0.40979988
0.41425066
0.41964561
0.42031077
4.0592861
3.1553334
2.5844531
2.1941241
1.9114021
1.6982118
1.5319417
1.3996722
1.2911186
1.201822
1.1252178
1.0607735
1.0036331
0.95507749
0.91068421
0.87299567
0.83774334
0.8073467
0.77910897
0.75415319
0.73108166
0.71052167
0.69109814
0.67443166
0.65803945
0.64400582
0.62924172
0.61788258
0.60458929
0.59468019
0.58322291
0.57391293
0.56408786
0.55640948
0.54664409
0.54031347
0.53169139
0.52592595
0.51903892
0.51424433
0.50687722
0.50279732
0.49695604
0.49351531
0.48815412
0.48499133
0.48028621
0.47705756
0.47266692
0.47048698
0.46694873
0.46437248
0.46096851
0.45889943
0.45573242
0.45348062
0.45092483
0.44870536
0.44612483
0.44345043
0.44057039
0.43797413
0.4353759
0.43250811
0.43016394
0.42779647
0.42510132
0.42315576
0.42102346
0.41915258
0.41683445
0.41457663
0.41329511
0.41273732
0.41231544
0.41064119
0.40877732
0.40745213
0.40754189
0.40824002
0.41095162
0.41255838
0.41306264
0.41281544
0.41278747
0.41372577
0.41603211
0.42211508
0.42559863
4.0599123
3.1563653
2.5856453
2.1954618
1.9128656
1.6999042
1.5338154
1.4019682
1.2936259
1.2049398
1.1285951
1.0648424
1.0080043
0.96024344
0.91612541
0.87914274
0.84418704
0.81432949
0.78643917
0.76194434
0.73915521
0.71890425
0.69962118
0.68328245
0.66696801
0.65316758
0.63825675
0.62716787
0.61377875
0.60403564
0.59247545
0.5833239
0.57341695
0.56597577
0.55609532
0.54978106
0.54095544
0.53518722
0.52808182
0.52355558
0.51610702
0.51203312
0.50603304
0.50278423
0.4975564
0.49464196
0.49005508
0.48714381
0.48282769
0.48089897
0.47741272
0.47536671
0.47203713
0.47039426
0.46720345
0.4652861
0.46270544
0.46066165
0.45840807
0.45590716
0.45288796
0.45041864
0.44790032
0.44466455
0.44250661
0.43978648
0.43722341
0.43457564
0.43259441
0.43026236
0.42792427
0.42541568
0.42402476
0.42284992
0.42165281
0.42016787
0.41879157
0.41692293
0.41588281
0.41589923
0.41720132
0.41935646
0.42050507
0.42040491
0.42040893
0.42091581
0.42198982
0.42530605
0.42842458
4.0605973
3.1575287
2.5871038
2.1973002
1.9151409
1.7028264
1.5373739
1.4065235
1.2988709
1.2114147
1.1357294
1.0731649
1.0168719
0.97019446
0.92637655
0.8901285
0.85529191
0.82577065
0.79795133
0.77362213
0.75076051
0.73051102
0.71101549
0.69472449
0.67814729
0.66440613
0.64901266
0.63811307
0.62441819
0.61478787
0.60301929
0.59414681
0.58410152
0.57709778
0.567268
0.56118754
0.55242556
0.5469165
0.53985668
0.53586239
0.52895001
0.52517175
0.51956921
0.51681032
0.5123161
0.51000542
0.50612758
0.50403628
0.50052347
0.49900399
0.49624788
0.49496029
0.49241566
0.49120325
0.48879786
0.48746404
0.48504594
0.48351462
0.48150996
0.47948698
0.47674208
0.47433002
0.47170832
0.46848668
0.46624255
0.4631616
0.4601575
0.45712554
0.45484257
0.45191837
0.44847862
0.44636907
0.44479843
0.44235189
0.43961944
0.43828585
0.43665874
0.43467086
0.43252744
0.43166862
0.43182443
0.43247781
0.43326506
0.43338939
0.43363702
0.43389637
0.43444064
0.43592327
0.43686842
4.0613325
3.1590667
2.5894313
2.2007284
1.9199083
1.7092976
1.5455114
1.4166826
1.3103839
1.2247262
1.1496868
1.0882309
1.0318703
0.98571433
0.94128724
0.90506629
0.86945921
0.83968474
0.81133633
0.78686823
0.76363519
0.74334593
0.72359964
0.70752617
0.69074433
0.6774335
0.66171586
0.65141722
0.63775761
0.6287768
0.61721153
0.60933984
0.59966988
0.5938062
0.58485436
0.57959619
0.57172009
0.56716664
0.56099302
0.55807358
0.55281906
0.55006252
0.54598085
0.54434982
0.54159186
0.54056448
0.53862501
0.53797012
0.5364771
0.53600512
0.53512928
0.53484122
0.53416418
0.53389467
0.53320702
0.53265053
0.53148124
0.53072364
0.52917707
0.52806902
0.52576634
0.52411481
0.52089926
0.51869589
0.51515241
0.51282761
0.50831175
0.50577481
0.50127131
0.49830416
0.49345004
0.49129272
0.48723302
0.48372217
0.48011966
0.4780787
0.47471016
0.47161968
0.46762104
0.4654966
0.46350747
0.46253978
0.46211292
0.46175202
0.46078869
0.45924674
0.45851547
0.45883046
0.45720401
4.0624998
3.1620493
2.5947785
2.209222
1.9318845
1.7247448
1.5636002
1.4368886
1.3309112
1.2456271
1.1692616
1.1074151
1.0494709
1.0031552
0.95750777
0.92144125
0.8850526
0.85572008
0.82729629
0.80370885
0.78088832
0.76165198
0.74255561
0.72783966
0.71171216
0.70003897
0.68491799
0.67623302
0.66371374
0.65653792
0.64642429
0.64080475
0.63295983
0.62947554
0.62313631
0.62010356
0.61475395
0.61245961
0.60880116
0.60788557
0.60608579
0.60562675
0.6053305
0.60579774
0.60637641
0.60800307
0.60924094
0.61202776
0.61335699
0.61608124
0.61812586
0.6202354
0.62225143
0.62508356
0.62646148
0.62786873
0.62884249
0.62943326
0.6294736
0.62925863
0.62854563
0.62728757
0.62466491
0.62264156
0.61875493
0.6163336
0.6112822
0.60813155
0.60166116
0.59822302
0.59105649
0.58723364
0.57974132
0.57628634
0.56933987
0.56580069
0.55832572
0.55398604
0.54575732
0.5415669
0.53628946
0.53306399
0.52963958
0.52771168
0.52326489
0.51934263
0.51370039
0.51185454
0.50500677
4.0650471
3.1702954
2.6100545
2.2315066
1.9590673
1.7537851
1.5917014
1.4633021
1.3547859
1.2685313
1.1906507
1.1293415
1.0709249
1.0263358
0.98101968
0.94717709
0.91163624
0.88496997
0.85821067
0.83795523
0.81770304
0.80201684
0.78572159
0.77465477
0.76136893
0.75349901
0.74133601
0.735947
0.72701778
0.72354687
0.71745619
0.71588792
0.71295432
0.71313931
0.71313212
0.71408524
0.71472074
0.71653914
0.71773254
0.72118202
0.72363783
0.72927485
0.73248722
0.73950951
0.74346917
0.75127108
0.75693815
0.76612999
0.77072196
0.77950906
0.78648117
0.79224256
0.79857874
0.80651424
0.81156602
0.81671636
0.82002447
0.82368232
0.82748308
0.82953338
0.8298379
0.82946585
0.82829139
0.82661967
0.82366792
0.8213219
0.81640936
0.81208252
0.80512612
0.79996991
0.78897865
0.78215171
0.77377206
0.76926309
0.75760617
0.7496269
0.73494716
0.72796603
0.71379695
0.70734008
0.69582621
0.69005034
0.6804986
0.67571
0.66581739
0.6584635
0.64313882
0.63673206
0.61895774
4.0743816
3.1962285
2.647956
2.2717491
1.995579
1.786417
1.6225276
1.4945526
1.3871774
1.3037082
1.228619
1.1719359
1.1175125
1.0790266
1.0384289
1.0113083
0.98121568
0.96145933
0.94072259
0.92833766
0.91537953
0.9081459
0.89889264
0.89570807
0.88965867
0.88850991
0.88487694
0.88484178
0.88474407
0.88646641
0.88838389
0.893973
0.89800228
0.90788521
0.91365764
0.92599738
0.9320804
0.94440049
0.95036994
0.96325172
0.97057531
0.98607676
0.99417862
1.0108198
1.0198496
1.0352697
1.0480268
1.0653215
1.0750428
1.0918015
1.1051015
1.1167589
1.1287224
1.1432642
1.154211
1.1648144
1.1718778
1.1797106
1.1885601
1.1946625
1.1977647
1.1993758
1.2000114
1.199683
1.1988408
1.1970494
1.1928411
1.1886207
1.1805527
1.1735799
1.160663
1.1521234
1.1418175
1.1348235
1.1176987
1.1065887
1.0868596
1.0766423
1.0562438
1.0461706
1.025477
1.016141
0.99703202
0.98723979
0.96877611
0.95726622
0.93029124
0.91648483
0.88087695
4.1060258
3.2451371
2.6917758
2.3133016
2.0406235
1.8387103
1.6847424
1.5683683
1.473466
1.4025696
1.3410426
1.2980733
1.2586855
1.2347316
1.2088176
1.1967939
1.1813572
1.1755018
1.1695664
1.1705091
1.1729557
1.1801276
1.184798
1.1952813
1.2011256
1.2143891
1.2204318
1.2336089
1.2403327
1.2552744
1.2637014
1.2823964
1.2932708
1.3172897
1.3303488
1.357254
1.370452
1.3964128
1.4083434
1.4326945
1.445863
1.473067
1.4870145
1.5144549
1.5300608
1.5530888
1.5738543
1.6001857
1.6163096
1.6417081
1.6616166
1.6812257
1.6983659
1.7193995
1.7385676
1.7542448
1.7669627
1.7798517
1.7940325
1.8048028
1.8129496
1.8162891
1.8190778
1.8223154
1.8227357
1.8219861
1.8192061
1.8157584
1.8074867
1.8004133
1.7857734
1.7773665
1.7605284
1.749697
1.7289576
1.7182276
1.6962429
1.6846074
1.6606483
1.6463541
1.6140988
1.5983485
1.566035
1.550619
1.5220716
1.5085905
1.4791178
1.4611808
1.4069079
4.126821
3.282606
2.7601405
2.4195215
2.1856485
2.0225084
1.9075268
1.8296257
1.7723865
1.735301
1.7072177
1.6944866
1.6885322
1.6904932
1.6952476
1.7069343
1.715899
1.7349889
1.7462217
1.769975
1.7871842
1.819159
1.8364577
1.8683436
1.885089
1.9191031
1.9339236
1.9628553
1.9758789
2.0028499
2.0166634
2.0461361
2.0626715
2.0985054
2.1181897
2.1579714
2.1786981
2.2180498
2.2361536
2.2715442
2.2908573
2.3292687
2.3506953
2.385868
2.410305
2.4406128
2.4682319
2.5026953
2.5274798