/*--------------------------------*- C++ -*----------------------------------*\
| =========                 |                                                 |
| \\      /  F ield         | OpenFOAM: The Open Source CFD Toolbox           |
|  \\    /   O peration     | Version:  2406                                  |
|   \\  /    A nd           | Website:  www.openfoam.com                      |
|    \\/     M anipulation  |                                                 |
\*---------------------------------------------------------------------------*/
FoamFile
{
    version     2.0;
    format      ascii;
    arch        "LSB;label=32;scalar=64";
    class       volScalarField;
    location    "35";
    object      omega;
}
// * * * * * * * * * * * * * * * * * * * * * * * * * * * * * * * * * * * * * //

dimensions      [0 0 -1 0 0 0 0];

internalField   nonuniform List<scalar> 
62344
(
4.3943629
3.2366307
2.634192
2.2261167
1.9201513
1.6853286
1.5078326
1.3718023
1.2649394
1.1797031
1.1095501
1.0471336
0.99229434
0.94492293
0.9016884
0.86213261
0.82854191
0.8004016
0.77478242
0.75122255
0.73011617
0.71173379
0.695923
0.68157054
0.66851396
0.65620532
0.64452024
0.63399836
0.62443261
0.61596868
0.60857742
0.6021029
0.60047539
0.59852446
0.599157
0.60219147
0.60615076
0.61390713
0.62258147
0.63947684
0.6517877
0.67215577
0.69025306
0.71731582
0.74037233
0.76594985
0.79710894
0.82419059
0.8572297
0.88793535
0.92074477
0.93841274
0.96155076
0.98234747
1.0282819
4.39864
3.2493468
2.6473389
2.2384411
1.9310212
1.6940712
1.5149611
1.3778955
1.2708255
1.1856358
1.1158128
1.0539136
0.99903472
0.95107456
0.90797393
0.8679594
0.83373933
0.80524847
0.77953888
0.75581793
0.73447022
0.7156984
0.69959046
0.68495643
0.67146992
0.65842603
0.64601629
0.63503469
0.62578873
0.61663827
0.60831819
0.60205424
0.59714011
0.59448043
0.5928721
0.59403826
0.5961951
0.60163955
0.61162644
0.62882824
0.6433585
0.66456257
0.68789037
0.71410152
0.74001817
0.76165962
0.79259514
0.81950536
0.85795835
0.88567375
0.92465971
0.95643711
0.98605452
1.0063125
1.0322743
4.4060825
3.2542433
2.6524652
2.2434316
1.9357354
1.6983704
1.5187539
1.3820101
1.2744256
1.1892059
1.1197049
1.0576503
1.0025572
0.95423328
0.91140892
0.87171682
0.83730144
0.80878422
0.78299697
0.75904639
0.73777192
0.71876628
0.70248063
0.68758674
0.67434408
0.66131459
0.64886449
0.63786082
0.62935322
0.62068252
0.61159698
0.60516551
0.59925548
0.59518527
0.59411976
0.59316992
0.5936875
0.59599677
0.60136549
0.61072827
0.62058371
0.63897855
0.66355098
0.68381411
0.71824465
0.74392372
0.77669439
0.8038614
0.8452979
0.87205118
0.91481888
0.95213249
0.98885469
1.0195711
1.0499597
4.4136903
3.2611545
2.6591634
2.250374
1.9420431
1.7041012
1.5235906
1.3871965
1.278691
1.1932237
1.1236879
1.0624175
1.0072371
0.95858337
0.91499698
0.87592225
0.84131232
0.81183039
0.78613166
0.76283266
0.74159926
0.72214067
0.70505522
0.68984175
0.67660557
0.66404787
0.65190408
0.64044107
0.6312421
0.62296196
0.61401565
0.60740628
0.60126337
0.59622988
0.59471061
0.59409216
0.59381634
0.59586053
0.59945511
0.60464164
0.61103049
0.62577556
0.63952511
0.66185144
0.67735823
0.70689316
0.73493662
0.76488348
0.80306365
0.83117132
0.87318681
0.91178716
0.96346281
0.99957696
1.0491656
4.4191196
3.2685201
2.6672618
2.2585584
1.9499351
1.7111519
1.5298194
1.3918482
1.2825995
1.1967424
1.1265651
1.0660666
1.0111167
0.96153558
0.91755991
0.87876348
0.84424572
0.81404111
0.78806713
0.76479608
0.74353391
0.72472737
0.70816903
0.693263
0.67984929
0.66710743
0.65479719
0.64332514
0.63365376
0.62517735
0.61758228
0.61138073
0.60466176
0.59870834
0.5958639
0.59444683
0.59339639
0.59518634
0.59830916
0.60125627
0.60579226
0.61592981
0.62976336
0.64117901
0.66067877
0.67603
0.70423407
0.72493716
0.75978649
0.77943924
0.81534386
0.83702437
0.88593147
0.92202061
0.99839243
4.4251732
3.2753932
2.6746485
2.2665268
1.9576058
1.7180011
1.5354263
1.3964729
1.2870603
1.2004943
1.1304491
1.0696416
1.014203
0.96537242
0.92206223
0.88261093
0.8482478
0.81786235
0.79162966
0.76811175
0.74672056
0.7280163
0.71148441
0.69644718
0.6823348
0.66872787
0.65627293
0.64533497
0.63602258
0.62737059
0.62021488
0.61444068
0.60742084
0.60114543
0.59760772
0.59516939
0.59356329
0.59472705
0.5977112
0.60043687
0.60516483
0.61251217
0.62655943
0.63685175
0.65535776
0.66729111
0.69314261
0.70984824
0.73986123
0.75716866
0.7889659
0.80558268
0.84103286
0.86462181
0.91843553
4.4320269
3.2798314
2.6788209
2.2708594
1.9616968
1.7222445
1.5388642
1.3999032
1.2908882
1.2037516
1.1328959
1.0723189
1.0174346
0.96906583
0.9256097
0.88536645
0.85114354
0.82129542
0.79480632
0.77093187
0.74955964
0.73067103
0.71386919
0.69896732
0.68504741
0.67131916
0.65860437
0.6476683
0.63828565
0.62933509
0.62233927
0.61708638
0.61056815
0.60425055
0.60017776
0.5968682
0.59518643
0.59579117
0.59825313
0.60120952
0.60592899
0.61233196
0.6239738
0.63265041
0.6502065
0.66110407
0.68508067
0.69948426
0.72730033
0.74336211
0.77476309
0.79107986
0.82447322
0.84320976
0.88093654
4.4373156
3.2865417
2.6859292
2.2788037
1.969057
1.7294485
1.5451886
1.4050982
1.2954049
1.207576
1.1361437
1.075799
1.0223889
0.97313553
0.92778495
0.8885119
0.85504668
0.8244679
0.79752179
0.77416036
0.75303238
0.73369679
0.7167054
0.70206975
0.68865827
0.67548165
0.66287375
0.65149928
0.64132428
0.63151755
0.62385765
0.61840549
0.61262505
0.60682512
0.60293279
0.60006442
0.59902954
0.59951949
0.60123638
0.60417651
0.60822193
0.61323611
0.62236644
0.62890592
0.64432916
0.65512533
0.67650085
0.68845254
0.71311204
0.7276016
0.75731226
0.77578763
0.8095679
0.82719505
0.86148493
4.4412954
3.2932732
2.6934077
2.2871993
1.9774907
1.7371703
1.5518743
1.4106482
1.299833
1.2116066
1.1403785
1.0797435
1.0262577
0.97672142
0.93085118
0.89173044
0.85845297
0.82722744
0.799426
0.77589799
0.75493794
0.73545712
0.71838321
0.70361998
0.69025046
0.67707743
0.66433932
0.65320411
0.64326392
0.63345702
0.62544002
0.61985417
0.6141956
0.60934506
0.60535755
0.60214581
0.60118911
0.60178902
0.60262923
0.60468847
0.60858894
0.61286443
0.62035252
0.6254351
0.63828106
0.64932831
0.6694249
0.68001807
0.70121634
0.71351273
0.73862656
0.75661226
0.78741932
0.8045628
0.83636822
4.4462577
3.2986794
2.6991206
2.2934335
1.9840912
1.7432388
1.5569064
1.4152308
1.3040138
1.2156856
1.1445858
1.0836003
1.0294195
0.98008514
0.93502715
0.8956592
0.86156074
0.83049593
0.80245661
0.77848266
0.75743051
0.73796175
0.72061647
0.70569487
0.69216749
0.67867354
0.66534093
0.65466726
0.64546628
0.63652987
0.62870738
0.62280782
0.61668706
0.61246
0.60815625
0.60374231
0.60226006
0.60302302
0.60336081
0.60447056
0.60813826
0.61256026
0.61776716
0.62229534
0.63281599
0.64219419
0.66017407
0.67096409
0.6894999
0.70018978
0.7230479
0.73911217
0.76778826
0.7835094
0.81087926
4.4512355
3.3038241
2.7044431
2.299093
1.9895215
1.7485945
1.5615527
1.4192178
1.3082789
1.2197434
1.1477047
1.0869504
1.0326251
0.98392904
0.93958674
0.89985088
0.86455178
0.83376993
0.80646029
0.78256677
0.76071307
0.74108065
0.72332555
0.70809332
0.69455904
0.68122746
0.66735158
0.65656555
0.64758398
0.63971719
0.63275909
0.62688892
0.62043198
0.61633449
0.61202186
0.60649609
0.6044478
0.60532179
0.60536472
0.60566599
0.60847483
0.61322863
0.61780712
0.62172412
0.63084142
0.63939107
0.6548888
0.66605184
0.68325464
0.69211015
0.71191967
0.72507849
0.74776469
0.7626405
0.78543372
4.4550365
3.3101913
2.7115534
2.3072097
1.9967807
1.7557544
1.5683154
1.424283
1.3131864
1.2242206
1.1505843
1.0901259
1.0369313
0.98853945
0.94368116
0.90370154
0.86841105
0.83728463
0.81013545
0.78661562
0.76479956
0.7451653
0.72732675
0.71186577
0.6982506
0.68537232
0.6719944
0.66084612
0.65103846
0.64261081
0.63553009
0.62914256
0.62217292
0.61842134
0.61475653
0.60921157
0.60703861
0.60834661
0.60864285
0.60867684
0.611132
0.61599794
0.62167732
0.62535083
0.63423921
0.64233129
0.65622557
0.66712774
0.68378185
0.69534148
0.71184762
0.7281376
0.74448964
0.76013225
0.77882258
4.4574102
3.3175158
2.7200764
2.3168743
2.006228
1.7643901
1.5760356
1.4307318
1.3183826
1.228881
1.1547399
1.0937857
1.0411231
0.99290562
0.94718045
0.90687253
0.87195881
0.84076589
0.81301196
0.78885493
0.76719525
0.74776553
0.73013242
0.71445501
0.70080648
0.68769227
0.67473818
0.66346312
0.65333284
0.64420679
0.63702475
0.63034842
0.62273488
0.61875807
0.61584584
0.61121986
0.60938135
0.6109926
0.61179905
0.61234853
0.61502744
0.62018391
0.62721577
0.63402493
0.64160055
0.65200209
0.66235806
0.67573535
0.68682771
0.70349701
0.7164039
0.73816864
0.75011144
0.76565696
0.7799141
4.4595084
3.3236356
2.7275136
2.3251424
2.0151083
1.7724058
1.5829673
1.43681
1.3233825
1.2336618
1.159394
1.0978957
1.045115
0.9969362
0.95092977
0.9101237
0.87521233
0.8440796
0.81584762
0.7909545
0.76894466
0.74937766
0.73182346
0.71595443
0.70225776
0.68910157
0.67633626
0.66516311
0.65499751
0.64559177
0.63826859
0.63132697
0.62359632
0.61903054
0.61625008
0.61218327
0.61068261
0.61212364
0.61324976
0.61479647
0.61774261
0.6234641
0.62983607
0.63954501
0.64612985
0.65834435
0.66873361
0.68212321
0.69164295
0.70902253
0.72578818
0.74788527
0.75921921
0.77110891
0.78545454
4.4618857
3.3295496
2.7345451
2.3325555
2.0232406
1.7796996
1.5890909
1.4424039
1.3280263
1.2380978
1.1642392
1.1023358
1.0492226
1.0009346
0.95515567
0.9139135
0.87858288
0.84757883
0.81917841
0.79390515
0.77126485
0.75115795
0.73365612
0.71762645
0.70375167
0.6904333
0.67758449
0.66645261
0.65642683
0.64749966
0.64027145
0.63303827
0.62575432
0.62049603
0.61751269
0.61345866
0.61191529
0.61291447
0.61389894
0.61566735
0.61927219
0.62371633
0.63087555
0.6398077
0.6480674
0.65831767
0.66993676
0.6801664
0.68992917
0.70350665
0.72337498
0.74404806
0.75596116
0.7669562
0.783673
4.4643685
3.3345146
2.7404872
2.3391157
2.0302266
1.7862682
1.5949334
1.4478062
1.3328087
1.2425766
1.1692617
1.1069459
1.0537906
1.0055086
0.96038365
0.91918703
0.88319153
0.85201844
0.82382436
0.79835057
0.77513044
0.7544638
0.73723604
0.72132409
0.70709627
0.6933456
0.68037924
0.66931107
0.65932376
0.6510389
0.64413414
0.63674452
0.63023301
0.62471749
0.62107379
0.61656868
0.61450628
0.61476411
0.61519439
0.61692002
0.62059945
0.62488336
0.63066806
0.63826706
0.64732743
0.65771629
0.66769403
0.67698181
0.68662864
0.69799939
0.71718032
0.736659
0.75003184
0.7631124
0.77893753
4.4668132
3.3404095
2.7471394
2.346893
2.0376707
1.7933335
1.6016743
1.4535634
1.338275
1.247709
1.1744673
1.1118894
1.059256
1.0114464
0.96661463
0.92579819
0.88950721
0.85787697
0.83003575
0.80474937
0.78158082
0.76085395
0.74383918
0.72850941
0.71413384
0.70003802
0.68739399
0.67653208
0.66658143
0.65855111
0.65199523
0.64475807
0.63888488
0.63369957
0.62922376
0.62413717
0.62151242
0.6209843
0.62082071
0.62237998
0.62590701
0.63029702
0.63442244
0.64123829
0.6487712
0.66072914
0.66899555
0.67894125
0.686996
0.70095945
0.71609518
0.73631678
0.74985809
0.76684508
0.78140724
4.4685046
3.345692
2.7532171
2.354673
2.0450797
1.800636
1.6090918
1.459895
1.3445865
1.2539715
1.1803111
1.1177512
1.0660958
1.0192968
0.97456181
0.93399377
0.89799566
0.86590076
0.83785765
0.81300826
0.79080018
0.77089549
0.75402301
0.73929271
0.72529176
0.71151751
0.69988575
0.68951967
0.67997402
0.67193653
0.66544591
0.65868003
0.65306763
0.64849968
0.643895
0.63875612
0.63644898
0.63570157
0.63522883
0.63668573
0.64065974
0.64547974
0.64910011
0.65582936
0.66218318
0.67505537
0.6838807
0.69435633
0.70139457
0.71722238
0.73056536
0.75044843
0.76332792
0.78583737
0.79719721
4.4704828
3.3521595
2.7606837
2.3637168
2.0541925
1.809606
1.6179852
1.4681651
1.352902
1.262645
1.1887881
1.1266562
1.0761473
1.0307002
0.98692626
0.94683022
0.91144268
0.87959576
0.85112626
0.82672252
0.80594218
0.78735532
0.77115866
0.75709115
0.74368372
0.7307461
0.72007576
0.71033841
0.70114281
0.69359269
0.68778457
0.68164854
0.67687189
0.67383345
0.6696702
0.66494471
0.66430694
0.66438783
0.66418446
0.66594644
0.67104927
0.67778324
0.68215831
0.69023702
0.69766544
0.71285806
0.72482141
0.7392241
0.7467741
0.76454592
0.77948439
0.80081802
0.81268197
0.83963529
0.84920525
4.4713712
3.357538
2.7679305
2.3725928
2.0646831
1.821117
1.6303823
1.4814068
1.3671902
1.2781563
1.2053397
1.1442592
1.0949065
1.0507728
1.008953
0.9703168
0.93607992
0.90510136
0.87684673
0.85381561
0.83515823
0.81861121
0.80374574
0.79116972
0.77916818
0.76842606
0.75979734
0.75196717
0.74462479
0.73877499
0.7349799
0.73065744
0.72801297
0.72722217
0.72512715
0.7228338
0.72351588
0.72483132
0.72531692
0.72738112
0.73246683
0.74050464
0.7449271
0.75330315
0.76131325
0.77641629
0.78898555
0.80763261
0.81606413
0.83199445
0.84506287
0.86611704
0.87679213
0.90415781
0.91255325
4.4756065
3.3659388
2.7790772
2.3870712
2.0837836
1.844068
1.6566377
1.5100472
1.3978377
1.3099041
1.2385829
1.1787338
1.1304466
1.0875802
1.0497725
1.0149838
0.98459623
0.95852273
0.93514155
0.91836211
0.90650003
0.89800076
0.88968073
0.88331521
0.87887133
0.87791641
0.87871833
0.88100355
0.88263061
0.88456322
0.88764942
0.88951938
0.89385369
0.90283972
0.91044641
0.9158867
0.92425298
0.93207574
0.93544078
0.93825015
0.94519423
0.95575155
0.96083719
0.96600843
0.97353242
0.98842584
1.002304
1.0192127
1.0262288
1.0344544
1.0419928
1.0571783
1.0665869
1.0862502
1.0750196
4.4844795
3.3824437
2.8041897
2.4216482
2.128514
1.8953335
1.7124427
1.5680242
1.4582653
1.3739726
1.3084372
1.2563984
1.2171579
1.1853532
1.1639311
1.1464642
1.1363636
1.1370015
1.1407851
1.148762
1.1625157
1.186167
1.2047892
1.2258064
1.2427842
1.2678086
1.2991462
1.323965
1.3456335
1.3649321
1.3853169
1.4000769
1.4174444
1.44227
1.4633864
1.4779427
1.499938
1.5185609
1.5254818
1.527334
1.5376365
1.5555915
1.5637243
1.5622141
1.5653745
1.5766997
1.5913136
1.6020032
1.6027465
1.5960249
1.5917088
1.5941647
1.5991145
1.6055913
1.5651721
4.5428077
3.4458443
2.878102
2.5025774
2.2185969
2.0062174
1.8593262
1.7465273
1.671061
1.6281039
1.5998974
1.5932897
1.5996121
1.6152243
1.6481563
1.6875053
1.7439654
1.8064413
1.8627268
1.9284803
1.9845724
2.0537496
2.1132367
2.1740805
2.2209788
2.270207
2.3309732
2.3831259
2.4266062
2.4628687
2.505182
2.533884
2.5616284
2.5983294
2.6265262
2.6435877
2.6762706
2.7053705
2.7173233
2.718779
2.7318104
2.7570823
2.7727571
2.7695849
2.7664515
2.7719237
2.7822594
2.7933349
2.7946407
2.7799392
2.7631114
2.7495402
2.7442861
2.7421376
2.6714337
4.6310709
3.5935449
3.0536075
2.7562024
2.5543081
2.5123772
2.5422939
2.6159562
2.6975877
2.7741847
2.8469214
2.9124707
2.9898817
3.0759755
3.1741179
3.2707495
3.3765804
3.4889848
3.5881436
3.6888695
3.7710857
3.8631912
3.9490694
4.034098
4.100082
4.1600491
4.2175763
4.2699717
4.3126297
4.3511603
4.3938264
4.4178815
4.4413103
4.4744495
4.4896572
4.4905761
4.5061288
4.5263502
4.5291536
4.5180638
4.5198741
4.5345486
4.5439699
4.5334394
4.5160934
4.5060575
4.5115216
4.5188058
4.5241951
4.5080703
4.4879259
4.4588582
4.438846
4.4289358
4.3335934
4.8501123
4.4623087
4.3759354
4.4195984
4.5816765
4.9061759
5.2479313
5.553319
5.8034007
5.9991821
6.1325531
6.229863
6.3229456
6.4272751
6.532282
6.6337485
6.7502634
6.8878746
7.0188603
7.1638257
7.293765
7.4313958
7.5565913
7.669474
7.7500495
7.8209196
7.8698394
7.9087469
7.9441867
7.9756367
8.0076826
8.026005
8.0388043
8.0624152
8.066693
8.0533479
8.0499728
8.0555983
8.046053
8.018237
8.0022422
8.0061167
8.0030021
7.9831838
7.9450997
7.9162692
7.9094771
7.9023327
7.9111534
7.8997026
7.8758168
7.8228347
7.7646253
7.7261608
7.5622242
10.474836
13.010871
13.382887
13.475449
13.632522
13.772701
13.905859
14.086409
14.297431
14.557054
14.801553
15.003296
15.141163
15.20336
15.233145
15.252763
15.270667
15.337146
15.378605
15.427202
15.463691
15.485272
15.526102
15.548058
15.568788
15.58997
15.599015
15.621853
15.634192
15.631988
15.661314
15.666252
15.67704
15.712175
15.71201
15.713156
15.720083
15.758599
15.737835
15.725245
15.73175
15.745365
15.743587
15.716581
15.6913
15.664214
15.63624
15.628238
15.59957
15.571373
15.551805
15.487052
15.37049
15.238692
14.750977
56.386212
57.308045
57.019329
56.634377
56.415853
56.267625
56.207529
56.133698
56.025834
55.937894
55.868672
55.794422
55.709735
55.663783
55.72271
55.774328
55.74368
55.661164
55.6022
55.552208
55.506611
55.470031
55.389528
55.249798
55.240943
55.293872
55.344972
55.493463
55.506158
55.480998
55.552787
55.444472
55.330092
55.451038
55.441773
55.290336
55.253136
55.373691
55.46573
55.337143
55.209098
55.243419
55.402993
55.399999
55.110821
54.973786
55.091006
55.454177
55.628741
55.407807
54.933164
54.55595
54.569189
54.864422
55.290637
57.52189
15.657869
7.8331235
4.5127654
2.8154134
1.6790188
1.1414061
0.95438947
0.88318983
0.82330893
0.80242005
0.79696185
0.80200197
0.80922584
0.80285015
0.79686229
0.80034518
0.82337579
0.8486271
0.87584842
0.89720474
0.93693665
1.0292444
1.0824637
1.0917995
1.0853836
1.0814397
61.245018
16.766138
8.2099045
4.7574071
2.9973803
1.8066867
1.2136062
0.99296094
0.91606759
0.85025758
0.82649318
0.81638309
0.82232335
0.8299609
0.83048765
0.82663371
0.82828409
0.84813635
0.87702589
0.91022915
0.93059834
0.9669437
1.0517851
1.1377568
1.1476737
1.1319257
1.1165835
64.606108
17.76899
8.5681357
4.964234
3.1525472
1.9348145
1.2980842
1.0411069
0.95387133
0.88085432
0.85344876
0.84169697
0.84734969
0.86008163
0.85593075
0.84629568
0.84496473
0.86319215
0.89684232
0.93471413
0.95202948
0.98863689
1.0764227
1.1738469
1.1951212
1.1928832
1.1830363
68.072808
18.485509
8.8825806
5.1908024
3.337841
2.097526
1.4080885
1.1113752
1.0177432
0.93245555
0.89150434
0.8745159
0.8781183
0.89257144
0.89551727
0.88895405
0.8805049
0.8941704
0.93020764
0.96526944
0.99279055
1.0307505
1.1207736
1.2325413
1.2668348
1.2605266
1.2487793
72.712321
19.431696
9.2538454
5.4389281
3.5248354
2.25718
1.5112729
1.1735047
1.0712194
0.97906614
0.92990771
0.90933673
0.91207418
0.92355623
0.92257612
0.91817049
0.90922328
0.92200729
0.95602051
1.0098083
1.024924
1.0617444
1.1487341
1.2974532
1.3085314
1.3016195
1.3012969
78.441466
20.564299
9.6721876
5.7087252
3.7304511
2.4438201
1.6462183
1.2615285
1.1391392
1.0319308
0.9701908
0.94538851
0.9477813
0.95895375
0.95818313
0.95689907
0.95239173
0.96307335
0.98999696
1.0431242
1.0706931
1.1074979
1.1920748
1.3394752
1.3628015
1.3681438
1.3736258
84.32262
21.698068
10.123124
6.0122613
3.9412814
2.6193599
1.7801336
1.3563308
1.2108155
1.0879213
1.0085175
0.9793455
0.98023755
0.99462784
0.99857426
0.99904314
0.98856703
0.99456771
1.0170878
1.0777503
1.1228874
1.1702935
1.2627372
1.4089201
1.4398566
1.4598281
1.4683956
89.599585
22.580685
10.530999
6.2767677
4.1227486
2.7819373
1.8978866
1.4424733
1.2954585
1.1483062
1.0502823
1.0119737
1.0125673
1.03235
1.0343718
1.0312995
1.0211774
1.0241644
1.0412138
1.1103639
1.1619228
1.2047736
1.2943321
1.4657937
1.5103751
1.5332918
1.5463541
94.472536
23.38412
10.90184
6.5200878
4.3107108
2.958273
2.0507472
1.5640023
1.382944
1.2326007
1.1190428
1.0669559
1.0658951
1.0800957
1.0843688
1.0793336
1.0667531
1.0644823
1.0818055
1.1617226
1.2180189
1.2528926
1.3310051
1.5122101
1.5977516
1.6311206
1.6490558
100.21927
24.382835
11.268828
6.7608939
4.5147493
3.1401737
2.2071984
1.6893524
1.4711899
1.3184369
1.1916987
1.1287649
1.1253721
1.1333968
1.1353914
1.1233151
1.1040432
1.0997096
1.1196818
1.2040655
1.2771619
1.3124167
1.386743
1.5623219
1.7100179
1.7505065
1.7470726
108.16907
26.007731
11.734963
7.0268576
4.7267247
3.3512346
2.4041676
1.8498829
1.6035965
1.432586
1.2714543
1.1840108
1.1834222
1.1989365
1.2018368
1.1851286
1.1657346
1.1479108
1.1612793
1.2364481
1.3191729
1.3479655
1.4159264
1.5911064
1.7778547
1.8245036
1.8493925
117.39849
27.916348
12.326387
7.3925425
5.0261375
3.5915764
2.6230766
2.0190916
1.7294297
1.5332384
1.3578157
1.2568145
1.2538984
1.2637229
1.2789751
1.2767406
1.2688323
1.2438312
1.246217
1.3024914
1.3888459
1.4322477
1.4890605
1.6514638
1.8357155
1.8621798
1.9315091
125.86828
29.572796
12.830318
7.7137954
5.2970512
3.8166516
2.8283723
2.1940655
1.8742231
1.6512429
1.4366576
1.3184728
1.3128263
1.3258765
1.338909
1.3400981
1.3411951
1.3213567
1.324449
1.3741582
1.4721948
1.539044
1.5939378
1.7372753
1.9584733
1.9532964
2.0053349
132.47467
30.695276
13.330722
8.0247746
5.5396998
4.0157874
3.0420643
2.3868217
2.0220631
1.7968194
1.5636408
1.4123221
1.393796
1.4250959
1.4471022
1.4301593
1.3988255
1.3679104
1.3764243
1.424635
1.5418324
1.6178467
1.6750763
1.8060967
2.059231
2.0977851
2.163755
139.14368
31.921764
13.754311
8.272202
5.7710926
4.2301257
3.2581038
2.605269
2.2229452
1.9636507
1.6830943
1.5129928
1.4971189
1.5445096
1.609366
1.5932523
1.5327662
1.469691
1.4592894
1.4977118
1.6284368
1.7367248
1.7867094
1.8961556
2.1329394
2.255165
2.3586522
148.81809
34.197466
14.469528
8.6399323
6.0294537
4.4989691
3.5206536
2.8585403
2.4577685
2.1715461
1.8533411
1.6510476
1.6279233
1.672389
1.7342467
1.7102975
1.6534064
1.5649789
1.5352159
1.5648795
1.6923504
1.8385539
1.8705298
1.9455574
2.1853814
2.3699963
2.5634879
162.37135
37.565249
15.38375
9.0729304
6.3785012
4.8987403
3.8996968
3.1962074
2.7617743
2.427859
2.0478224
1.8078747
1.7728699
1.8198995
1.9071556
1.9094508
1.858616
1.7556158
1.6837944
1.686781
1.7875797
1.9155599
1.9451824
2.0109488
2.2826509
2.5515106
2.8088684
176.66937
41.035171
16.390499
9.6135633
6.8353818
5.3863062
4.3154829
3.6204639
3.1091393
2.7182484
2.2716546
1.9737032
1.9287466
1.9847318
2.073301
2.1230062
2.112796
2.0578219
1.9597036
1.9265793
1.9831169
2.0813851
2.1152585
2.1679832
2.4237077
2.8255996
3.0139825
187.39733
43.538671
17.183109
10.094203
7.214964
5.7401258
4.6923097
3.8846604
3.3916618
2.9655214
2.467225
2.150399
2.0925255
2.1538113
2.2616435
2.3141636
2.3191156
2.2817181
2.1952942
2.1533766
2.1953352
2.3052012
2.3061526
2.3280262
2.5367481
2.9958417
3.242788
193.21444
45.070764
17.940286
10.481745
7.479464
5.9965366
5.0076752
4.1852236
3.7000906
3.230388
2.6903258
2.3430357
2.2743964
2.3498738
2.5241639
2.5934144
2.5823792
2.498196
2.3457963
2.3018243
2.3385597
2.4983851
2.5671825
2.5737832
2.7158161
3.0729829
3.5227914
201.28263
46.477725
18.820535
11.017524
7.9518444
6.4725323
5.5274958
4.7398175
4.1900121
3.6301055
3.0245334
2.6136297
2.5110167
2.6113564
2.8708222
3.0113466
3.0053533
2.8998398
2.6262067
2.5376461
2.5596503
2.6813432
2.8471347
2.8931531
3.008329
3.2316257
3.8097054
216.0319
50.475215
20.120496
11.772256
8.5548981
7.0442248
6.1294151
5.3760227
4.7553762
4.1214825
3.4316238
2.969163
2.8342091
2.9456527
3.2405645
3.4028069
3.3854613
3.2752022
2.9680768
2.8581674
2.843107
2.9079583
3.075831
3.1543253
3.2750029
3.5365938
4.2141236
235.63769
56.51225
21.747123
12.568553
9.0945512
7.5189541
6.654491
5.9373624
5.3330283
4.6833706
3.9248355
3.4123707
3.243046
3.3365876
3.6243713
3.8379805
3.8432265
3.7518358
3.4357474
3.2810632
3.2382996
3.2941552
3.3916526
3.4030522
3.4619906
3.7720337
4.704617
255.56339
62.427608
23.594025
13.531163
9.8238567
8.1705342
7.2599628
6.5651391
5.9684571
5.3114203
4.5212184
3.9268656
3.7046598
3.7986201
4.0893802
4.4797185
4.5647182
4.4840691
4.1561821
3.879593
3.8114057
3.813088
3.8682919
3.8661713
3.7990519
4.0826421
5.1951256
271.09646
66.263497
25.374353
14.5016
10.575175
8.8437375
7.9202088
7.2225069
6.6333852
5.996025
5.1258694
4.4298421
4.1292775
4.2001451
4.4923309
5.0332469
5.2765299
5.2849379
4.978908
4.5821611
4.5105679
4.4811442
4.5216387
4.5444379
4.373905
4.6905309
5.8191221
276.66024
67.606482
26.244797
15.064645
11.163021
9.4062969
8.4631033
7.7789688
7.1526624
6.497834
5.6605519
4.984741
4.6524531
4.713452
5.0004421
5.561299
5.8572171
5.9481787
5.7418144
5.331691
5.2435187
5.1883308
5.276827
5.2939295
5.0701948
5.4079637
6.3902333
275.85001
66.760615
26.502046
15.441737
11.638612
9.9277324
9.0143528
8.310109
7.7267684
7.1077085
6.2528086
5.5916746
5.2640969
5.350595
5.6715151
6.3117179
6.658135
6.7447137
6.5037834
6.024611
5.9911914
5.9262752
6.0622677
6.1542878
5.9308112
6.2416684
7.0430519
282.88543
69.127699
28.048859
16.582133
12.575309
10.726284
9.7297878
9.0327389
8.4276017
7.8322881
7.0132713
6.3616121
6.0310387
6.1226476
6.4506577
7.1570313
7.5512947
7.6662882
7.5245244
6.9552648
6.701025
6.6531803
6.8786949
7.1826171
7.0651745
7.206549
7.6968575
301.29615
78.718414
31.451786
18.364068
13.761821
11.706846
10.643047
9.9599207
9.3908854
8.845694
8.1666275
7.4602668
7.1122522
7.1261481
7.3469196
7.9611312
8.3809138
8.5056369
8.5107467
8.0799425
7.6017169
7.3637405
7.5110467
8.1611953
8.3470917
8.286178
8.4939895
327.31516
92.834081
36.107595
20.58107
15.051959
12.648142
11.413596
10.740125
10.292898
9.9872595
9.5472318
8.9682279
8.5344895
8.3766944
8.4190447
8.7935962
9.1238713
9.3088957
9.4066542
9.0815558
8.5526102
8.2862473
8.3486077
8.920415
9.5189442
9.5377508
9.5618975
351.17239
104.46581
40.589995
22.858373
16.4631
13.643812
12.231383
11.510555
11.119667
11.007363
10.811017
10.416928
10.045723
9.760155
9.6298196
9.7581477
9.8918621
10.044707
10.116377
9.9791708
9.5859428
9.2799617
9.3277255
9.7537033
10.455561
10.825156
10.830551
369.17257
110.60509
43.901013
24.75344
17.698317
14.638782
13.084585
12.309217
11.94563
11.933094
11.867181
11.563217
11.251528
11.00365
10.880816
10.804506
10.726564
10.738807
10.857349
10.92108
10.730274
10.358157
10.252863
10.607556
11.461274
12.128296
12.044004
376.97084
111.31
45.873485
26.082136
18.702443
15.364625
13.676044
12.857214
12.589431
12.629873
12.726564
12.734534
12.596025
12.236028
11.943778
11.668835
11.493829
11.463248
11.747403
12.000713
12.05177
11.636703
11.225782
11.44376
12.514614
13.483927
13.218192
372.37459
107.89652
46.167064
26.665269
19.171287
15.595486
13.751779
12.985174
12.800167
13.013378
13.573418
13.970157
14.043566
13.623717
12.871279
12.17409
11.957527
12.114427
12.692059
13.338656
13.585164
13.000543
12.189747
12.244711
13.545743
14.672712
14.296622
361.07773
103.04744
45.345743
26.585539
19.008775
15.236228
13.434827
12.841609
12.782338
13.238184
14.238507
14.940247
15.21842
14.821967
13.756424
12.620851
12.172372
12.46876
13.598851
14.856647
15.16946
14.129855
12.981877
12.899158
14.37721
15.593609
15.214381
349.01552
98.032933
44.012971
25.924016
18.353452
14.669608
13.107198
12.694028
12.726137
13.453614
14.903063
15.894095
16.21064
15.801273
14.671232
13.155571
12.450019
12.711215
14.156896
16.172798
16.583531
15.108169
13.601921
13.396592
14.966628
16.244075
16.002141
337.73066
93.679998
42.759296
25.23126
17.745951
14.279346
12.977017
12.710687
12.835519
13.794607
15.469459
16.600322
17.017607
16.630199
15.49648
13.665782
12.762497
12.959763
14.489735
17.215711
17.822228
15.879825
14.009246
13.732725
15.379988
16.748993
16.615646
326.29204
90.94015
42.323446
24.994275
17.520364
14.23116
13.087086
12.877048
13.081452
14.195722
16.045409
17.426453
17.935415
17.560012
16.330005
14.163102
13.012626
13.126268
14.586169
17.945715
18.953969
16.687605
14.343289
13.980297
15.788958
17.264443
17.225468
312.7499
88.709071
42.249375
25.066733
17.586666
14.433285
13.437903
13.296933
13.592233
14.940731
17.117492
18.752165
19.32653
18.943731
17.578812
14.91403
13.410122
13.413083
14.741461
18.575039
20.181258
17.773003
14.825499
14.348057
16.29782
17.800042
17.738688
299.86657
88.556904
42.889968
25.449992
17.803653
14.709931
13.797296
13.696114
14.099223
15.717589
18.414299
20.341106
21.018433
20.689715
19.068512
15.756193
13.91899
13.859678
15.260299
19.528628
21.547511
18.963541
15.464225
14.869276
16.934798
18.458367
18.370727
289.938
91.515946
43.501752
25.634016
17.884658
14.894449
14.066971
14.018025
14.613431
16.826623
20.298355
22.10994
22.661223
22.061528
20.047758
16.485991
14.525041
14.447543
16.048763
20.8606
23.054199
20.088082
16.187581
15.558511
17.663043
19.158053
19.02676
284.0532
93.360416
43.648447
25.662584
18.025272
15.165711
14.445063
14.50086
15.534417
18.224449
21.703555
23.330194
23.903721
23.165194
20.479816
16.857101
15.106894
15.129205
17.315926
22.283412
24.210109
20.642852
16.769783
16.251029
18.469751
19.835567
19.683046
277.39141
91.207277
42.348046
25.080486
18.087451
15.613019
15.088536
15.27849
16.76997
19.796001
22.610454
23.771249
24.203954
23.20256
20.313639
17.079836
15.724573
16.019871
18.871376
23.356961
24.520015
20.525202
17.248603
16.970648
19.381262
20.528367
20.168811
267.9666
85.769468
39.780549
24.011774
17.891464
15.852966
15.48022
15.80959
17.581891
20.42382
22.605277
23.632048
24.002382
22.799624
19.711369
17.045204
16.118898
16.722379
19.90355
23.568799
24.195504
20.097317
17.524786
17.491788
19.907748
20.809436
20.232616
255.82431
79.4646
37.048112
22.763047
17.450194
15.797588
15.534935
15.970185
17.875087
20.486306
22.261294
22.965506
23.120748
21.573622
18.847225
16.841878
16.243178
17.018361
20.205383
23.319959
23.396064
19.428099
17.576909
17.700528
19.952894
20.725814
20.023789
243.47234
75.202673
35.290242
21.936168
17.121671
15.646235
15.440299
15.955874
17.819989
20.220703
21.390142
21.821098
21.895424
20.557706
18.227739
16.577694
16.207747
17.051425
20.038464
22.596938
22.315576
18.818341
17.402474
17.654606
19.680072
20.350815
19.538408
233.49747
73.611666
34.608778
21.612548
16.932641
15.488459
15.25762
15.741867
17.446584
19.552887
20.527135
20.913521
20.998022
19.887875
17.920178
16.44665
16.136832
16.891181
19.515894
21.629309
21.358753
18.38251
17.190398
17.447505
19.081478
19.610551
18.997663
228.76488
73.604544
34.661984
21.647315
16.820565
15.26754
14.975461
15.244245
16.588445
18.459828
19.502064
19.971449
20.114944
19.259865
17.566633
16.26019
15.94797
16.53386
18.578397
20.518414
20.408257
17.976197
16.867545
16.957396
18.254656
18.766566
18.384524
230.97932
73.857638
34.612272
21.59163
16.584478
14.834059
14.434593
14.478411
15.383701
17.032826
18.188062
18.677851
18.803614
18.074306
16.707347
15.740029
15.48557
15.926953
17.527198
19.028813
19.08588
17.415758
16.440059
16.391249
17.391004
17.881692
17.687526
237.30825
73.328327
33.494796
20.810974
15.911861
14.111673
13.681607
13.694523
14.330067
15.656205
16.550192
16.950735
17.028959
16.368384
15.414855
14.85026
14.797986
15.261781
16.41121
17.224737
17.31006
16.510076
15.913615
15.88956
16.594067
16.978401
16.989626
242.9018
70.985172
30.962813
19.029957
14.7439
13.187859
12.834
12.933544
13.46998
14.31466
14.86688
15.106283
15.03233