/*--------------------------------*- C++ -*----------------------------------*\
| =========                 |                                                 |
| \\      /  F ield         | OpenFOAM: The Open Source CFD Toolbox           |
|  \\    /   O peration     | Version:  2406                                  |
|   \\  /    A nd           | Website:  www.openfoam.com                      |
|    \\/     M anipulation  |                                                 |
\*---------------------------------------------------------------------------*/
FoamFile
{
    version     2.0;
    format      ascii;
    arch        "LSB;label=32;scalar=64";
    class       volScalarField;
    location    "35";
    object      p;
}
// * * * * * * * * * * * * * * * * * * * * * * * * * * * * * * * * * * * * * //

dimensions      [1 -1 -2 0 0 0 0];

internalField   nonuniform List<scalar> 
62344
(
1.0078962
1.0087708
1.0075416
1.0094241
1.0094354
1.0074676
1.0040763
1.0021639
1.0024155
1.0028506
1.0034734
1.0039034
1.0037677
1.0027494
1.000023
0.99810259
0.99887382
1.001375
1.0027506
1.0048601
1.0070577
1.0061712
1.0057279
1.0065702
1.0090353
1.0083578
1.0057677
1.0016335
1.0070284
1.0094634
1.0061894
1.0074211
1.0140159
1.0097463
1.010513
1.0197587
1.0170192
1.0070321
1.0116512
1.0230412
1.0200478
1.0044466
1.000773
1.0148998
1.0298083
1.0251554
1.0042473
0.99239346
1.0019555
1.0224453
1.0310759
1.0160341
0.99299127
0.98670457
0.99950293
1.0078824
1.0087537
1.0075553
1.0094921
1.0094153
1.0074477
1.0040126
1.0020084
1.0023963
1.0026432
1.0031644
1.0040694
1.0040036
1.0026259
1.0000253
0.99790992
0.99881596
1.0009877
1.0021861
1.0047856
1.006403
1.0063034
1.006332
1.0061613
1.0093298
1.0081967
1.0052461
1.0010258
1.007164
1.0096587
1.0048354
1.0080931
1.0139806
1.0101708
1.0109273
1.0177295
1.0147758
1.0102965
1.0159314
1.0213703
1.0158025
1.0072497
1.0078563
1.0175842
1.0240244
1.0193828
1.0068181
0.99579894
1.003
1.020241
1.0329816
1.0267299
1.0011503
0.97837579
0.97560142
1.0078535
1.0087484
1.007602
1.0095465
1.0094763
1.0074546
1.0039241
1.0019744
1.0022479
1.0026447
1.0031039
1.0038065
1.0037933
1.0024594
0.99983445
0.99773203
0.99858508
1.0006677
1.0018434
1.004339
1.0061126
1.0059131
1.007079
1.0061862
1.0092268
1.0079941
1.0044442
1.0010712
1.0071072
1.0087182
1.0035637
1.0090428
1.0133167
1.0104869
1.0120533
1.0153478
1.0122485
1.0147112
1.0207876
1.0178501
1.0088071
1.0094578
1.0178007
1.0196802
1.0160658
1.0083264
1.0097034
1.012104
1.0116768
1.014212
1.0161728
1.0164209
1.0088843
0.99701095
0.98925766
1.0078174
1.0087526
1.0076306
1.0095461
1.0095026
1.0074448
1.0037683
1.0018178
1.0020768
1.002508
1.0028248
1.0037476
1.0039469
1.0023558
0.99947599
0.99737054
0.99838582
1.0005024
1.0013324
1.0036851
1.0061737
1.0057437
1.0072826
1.0069341
1.0090604
1.0074235
1.0038093
1.0015594
1.0072991
1.0072911
1.0032964
1.0099423
1.0124349
1.0097778
1.0135696
1.0148805
1.0092468
1.0162276
1.0251394
1.0173836
1.0042956
1.0084867
1.0240547
1.0249234
1.0119067
1.001725
1.0081197
1.0222881
1.0256933
1.0142344
1.0018904
0.99822909
1.0056338
1.0145914
1.0193958
1.0077851
1.0087607
1.0076827
1.0095752
1.0095695
1.0074289
1.0037091
1.0017023
1.0020866
1.0023746
1.0027836
1.0038621
1.0042892
1.0023169
0.99905875
0.996937
0.99805943
1.0002995
1.0009839
1.0032517
1.0056916
1.0061165
1.0069528
1.0075962
1.0090863
1.0067287
1.003109
1.0021103
1.0073092
1.0055774
1.0038208
1.0108795
1.0114963
1.0083187
1.0143072
1.0158697
1.0075966
1.0142813
1.0257008
1.0192532
1.0055344
1.0077522
1.0235384
1.0278482
1.0121429
1.0014034
1.0067269
1.0216628
1.0304615
1.0191128
0.99992051
0.98937208
0.9964128
1.0153184
1.033789
1.0077602
1.008762
1.0077356
1.0096056
1.0095873
1.0074557
1.0035835
1.0016055
1.0019167
1.0021128
1.0026849
1.0038244
1.0040121
1.00233
0.9992099
0.99679978
0.99782167
1.0000298
1.0007908
1.0030133
1.0048391
1.0066234
1.0069091
1.0079904
1.0090808
1.0064388
1.002747
1.0027377
1.0072507
1.0040161
1.0043308
1.0116178
1.0109522
1.0068583
1.0141157
1.01689
1.0080104
1.0118003
1.0233183
1.0207248
1.0101535
1.010777
1.0198644
1.0236924
1.0139236
1.0065162
1.0087185
1.0177408
1.023993
1.0190043
1.0059911
0.99589809
0.99786494
1.0118121
1.0291742
1.0077629
1.0087767
1.0077875
1.0096487
1.0096223
1.0074187
1.0035095
1.0015176
1.001766
1.001994
1.0025491
1.0035236
1.0037008
1.0025187
0.9992069
0.99675682
0.9977562
0.99969813
1.0007131
1.0027973
1.0041779
1.0066482
1.0072909
1.0083532
1.0089859
1.0063316
1.0024655
1.0030999
1.0068283
1.0029779
1.0044169
1.0118735
1.0105678
1.0061764
1.0132914
1.0163164
1.0096021
1.0111738
1.0197634
1.0195255
1.015232
1.0162941
1.0174334
1.0145327
1.0136642
1.0133287
1.0147224
1.0164587
1.0134848
1.0111378
1.0098994
1.0097169
1.01181
1.0170393
1.0230536
1.0077595
1.008785
1.007813
1.009671
1.0096417
1.0074061
1.0034374
1.0014276
1.0016732
1.001992
1.0023308
1.0032054
1.0037551
1.0026333
0.99878726
0.99656266
0.99764763
0.99945511
1.0006349
1.0024098
1.0039274
1.0064018
1.0078338
1.0088366
1.0088373
1.0064078
1.0023468
1.0035274
1.0064506
1.0024864
1.004424
1.0119011
1.0098871
1.0067666
1.0125726
1.0145236
1.0106864
1.0125083
1.0170311
1.0167645
1.0180689
1.021083
1.0183204
1.0077739
1.0088449
1.0170337
1.0234821
1.0198675
1.0083616
1.0018436
1.0066
1.0176753
1.0270646
1.0303683
1.0258299
1.0077593
1.0087892
1.0078387
1.0096549
1.0096572
1.0073817
1.0033684
1.0013005
1.0015016
1.0018077
1.001986
1.0031504
1.0039801
1.0025536
0.99850111
0.99638851
0.99739384
0.99917108
1.0005226
1.0020363
1.0037339
1.0059907
1.0081468
1.009225
1.0087934
1.0063686
1.0022926
1.0037729
1.0059419
1.0022144
1.0045958
1.0116071
1.008613
1.008018
1.0126837
1.0120597
1.0106792
1.0148387
1.0158031
1.0134818
1.0178687
1.024229
1.0210307
1.00717
1.0030945
1.0154454
1.0284699
1.0256458
1.010991
0.99963248
1.0006993
1.0154448
1.0325753
1.039877
1.0332549
1.007753
1.0088102
1.0078714
1.0096663
1.0096929
1.0073502
1.0033452
1.0012328
1.0013905
1.0015487
1.0019698
1.0031096
1.0040471
1.0025044
0.99841843
0.99630046
0.99711927
0.99885636
1.0003175
1.0017982
1.0034548
1.0057887
1.0082522
1.0095378
1.0090046
1.0064372
1.002164
1.0039007
1.0055494
1.0020664
1.0051027
1.0110009
1.0070896
1.009078
1.0135919
1.0096613
1.0099224
1.0172822
1.0159626
1.0103759
1.0153518
1.0258865
1.0234453
1.0107472
1.0020811
1.0114623
1.0259641
1.0280833
1.017396
1.0039703
1.0011179
1.0111769
1.0275865
1.038735
1.0359144
1.0077377
1.008824
1.0078946
1.0096731
1.0096792
1.0073139
1.0033021
1.0011266
1.0012595
1.0012284
1.0018393
1.0027668
1.0038433
1.002467
0.99846151
0.99630227
0.99694353
0.99870618
0.99995859
1.0016622
1.0030748
1.0057684
1.0083299
1.0096307
1.0094456
1.0065398
1.002106
1.0040305
1.005102
1.0018589
1.0057955
1.010595
1.0056429
1.009095
1.0148008
1.0082173
1.0085537
1.0188523
1.0171393
1.0085025
1.0117493
1.024757
1.0257594
1.0156328
1.0064807
1.009768
1.0181739
1.0238838
1.0201351
1.0118333
1.0079659
1.0128927
1.0219977
1.0295882
1.0304944
1.0077124
1.0088216
1.0079048
1.00965
1.009655
1.0073242
1.0032453
1.0010146
1.0010895
1.001038
1.0016246
1.0024385
1.0036103
1.0024718
0.99840193
0.99620272
0.9968343
0.99874761
0.99969932
1.0016235
1.0026551
1.0057585
1.0084566
1.0096593
1.0099796
1.0066728
1.0021102
1.0041796
1.0046149
1.0016028
1.0064095
1.0102564
1.0046938
1.008648
1.0154537
1.0078518
1.0074445
1.019261
1.0186046
1.0078842
1.0088677
1.0212235
1.0268512
1.0197261
1.0135938
1.0117842
1.012691
1.0143194
1.0165227
1.0170192
1.0184219
1.0203374
1.0225555
1.0217912
1.0208125
1.0076846
1.0088133
1.0079105
1.0096419
1.0096773
1.0072989
1.003194
1.0008883
1.0009717
1.001032
1.0014042
1.0021781
1.0036325
1.002513
0.99846142
0.99597301
0.99668461
0.99876735
0.99949885
1.0015843
1.0023151
1.0055357
1.0085552
1.0096563
1.0104449
1.0068368
1.0021394
1.0043413
1.0041589
1.0016181
1.0067217
1.009924
1.0045283
1.0082797
1.0149033
1.0079508
1.0074269
1.0186597
1.0192268
1.0084181
1.0081048
1.0172075
1.0244227
1.0218789
1.0204888
1.0172553
1.0126195
1.0060447
1.0077741
1.0163395
1.0254178
1.0306906
1.0284432
1.0211131
1.0129508
1.0076609
1.0087996
1.0079285
1.0096452
1.0096433
1.0072546
1.0031207
1.0007719
1.0007549
1.0009927
1.0011892
1.0019653
1.0037474
1.0025264
0.99849044
0.99565539
0.99659052
0.99859937
0.9993248
1.0014573
1.0020932
1.0051645
1.0086355
1.0096923
1.0108236
1.0069652
1.0022601
1.0044789
1.003617
1.0017979
1.0066732
1.0093477
1.0051317
1.0081969
1.0135415
1.0081276
1.0083471
1.0175595
1.0185537
1.0098659
1.0090489
1.0150359
1.0187966
1.0213139
1.0246333
1.0242573
1.016535
1.0037828
0.99973167
1.0104935
1.0258997
1.0371529
1.0364653
1.0256143
1.0113584
1.0076373
1.0087923
1.0079445
1.0096366
1.0095682
1.0072085
1.0030386
1.00065
1.000566
1.000747
1.0009389
1.0018578
1.0036852
1.0025067
0.99844288
0.99551504
0.9964411
0.99838526
0.9992748
1.0012232
1.0019569
1.0048127
1.0087036
1.0098607
1.0110928
1.0070127
1.0025554
1.0046042
1.0029633
1.0021842
1.0065081
1.0082984
1.006094
1.0086359
1.0117004
1.0079918
1.0098091
1.0166162
1.0166384
1.0112406
1.0112698
1.0151655
1.0137348
1.0172091
1.0250482
1.0298676
1.0227015
1.0070221
0.9971457
1.0033915
1.0211072
1.037095
1.0414904
1.0316525
1.0148306
1.0076178
1.0087809
1.0079372
1.0095937
1.0095547
1.0071677
1.0029676
1.0005503
1.0004902
1.0005026
1.0007767
1.0017795
1.0034995
1.0025236
0.99858577
0.99555172
0.99646796
0.99819908
0.99937454
1.0009823
1.0019228
1.0045341
1.0086863
1.0102005
1.011323
1.0070265
1.002987
1.0046678
1.0023035
1.0025641
1.0065468
1.0069103
1.0067754
1.0097452
1.009874
1.0073283
1.011351
1.0162474
1.0140398
1.0112988
1.0142813
1.0166061
1.0115586
1.0114232
1.0216248
1.0322898
1.0290951
1.0133172
1.000065
0.9998998
1.0142546
1.0318243
1.0410498
1.0357091
1.0202299
1.0075974
1.0087698
1.0079182
1.009574
1.009561
1.0071078
1.0029169
1.0004672
1.0004523
1.0003213
1.0006918
1.0017043
1.003263
1.0025841
0.99864797
0.99560746
0.99645181
0.99798443
0.99950633
1.0007427
1.0019115
1.0043247
1.0085714
1.0106079
1.0116354
1.0071161
1.0035117
1.0046978
1.0017658
1.0026825
1.0068412
1.0057613
1.0068548
1.0110343
1.0086392
1.0063219
1.0124363
1.0164722
1.0116806
1.0099659
1.0167225
1.018909
1.0119931
1.0070215
1.0159765
1.0308652
1.0330059
1.0207736
1.0060922
1.0014161
1.00965
1.0241427
1.0355021
1.0355585
1.0242248
1.0075861
1.00876
1.0079028
1.009549
1.0095227
1.0070749
1.0028932
1.0003786
1.0003231
1.0001864
1.000639
1.0015787
1.0031032
1.0027317
0.99871084
0.99555523
0.99636386
0.99767428
0.9996039
1.0005381
1.0018286
1.004075
1.0082607
1.0108993
1.0119334
1.0072513
1.004064
1.0045947
1.0014644
1.0025191
1.0069587
1.005194
1.006563
1.0119629
1.008156
1.0053224
1.0127937
1.0167992
1.0102452
1.008137
1.0177276
1.0211554
1.0138015
1.0054387
1.0109765
1.0261407
1.0332967
1.0265303
1.0139071
1.0062119
1.0094697
1.0183315
1.0274294
1.0305995
1.0251027
1.0075729
1.0087547
1.0078968
1.0095108
1.0094637
1.0070813
1.0028611
1.0003057
1.0001672
1.0000908
1.0005177
1.0013835
1.0030168
1.0028757
0.99873695
0.99551282
0.99628186
0.99745514
0.99960446
1.0003839
1.0016775
1.0037593
1.0078649
1.0111398
1.0121702
1.0075744
1.0046702
1.0043835
1.0014635
1.0024315
1.0068257
1.0049752
1.006131
1.0122899
1.0084166
1.0047661
1.0124542
1.0168671
1.0097277
1.006776
1.0170026
1.0225662
1.015984
1.0063966
1.008728
1.0200872
1.0301597
1.0289197
1.0212593
1.0130332
1.0125246
1.0156
1.0203828
1.0232194
1.0221489
1.0075691
1.0087503
1.0078857
1.0094713
1.0094284
1.0070957
1.0028699
1.0002999
1.0000188
1.0000972
1.0003612
1.0011841
1.0029628
1.0029272
0.99872837
0.99551287
0.99613535
0.99729612
0.99948811
1.0002358
1.0014511
1.0034218
1.0074213
1.011186
1.0122569
1.0079269
1.0052053
1.0040634
1.0015078
1.0023383
1.00649
1.0051321
1.0059013
1.0118593
1.0089307
1.0049179
1.0116224
1.0163658
1.0098075
1.0065365
1.0150249
1.022585
1.0177576
1.0089101
1.0090503
1.0155667
1.0242813
1.027773
1.0254835
1.0206152
1.0174656
1.0165928
1.016104
1.0167064
1.0164377
1.0075575
1.0087401
1.0078555
1.009422
1.0094276
1.0071058
1.0028948
1.0002555
0.9999507
1.0001276
1.0002137
1.0009825
1.0029604
1.0029661
0.9987688
0.99552224
0.99594429
0.99717198
0.9992549
1.000109
1.0012792
1.0031377
1.0070021
1.0112002
1.0122697
1.0083578
1.0058143
1.003785
1.0016884
1.0023365
1.0058692
1.0054074
1.005973
1.0108536
1.0093696
1.0057744
1.0109619
1.0151547
1.0100854
1.0072748
1.0133685
1.020992
1.0183851
1.0120705
1.0111301
1.0137908
1.0182803
1.0232861
1.0262955
1.0262805
1.0241063
1.0204429
1.0155327
1.012212
1.0106423
1.0075592
1.0087342
1.0078256
1.0093798
1.0094544
1.0071142
1.0029143
1.0001923
0.99990361
1.0001135
1.0001163
1.0008593
1.0029814
1.0030187
0.99885244
0.99553129
0.99578126
0.99708703
0.99899842
0.99999809
1.0011872
1.0029
1.0066622
1.0111851
1.0122113
1.0087393
1.0063341
1.0035162
1.0019159
1.0024471
1.005005
1.0057161
1.0062473
1.0093035
1.0095798
1.0072682
1.0104832
1.0134888
1.0102205
1.0082758
1.0128644
1.0182781
1.0176576
1.0147241
1.0141983
1.0145116
1.0142479
1.0169876
1.0238044
1.0290039
1.0308068
1.0260558
1.0180465
1.009776
1.0058726
1.0075499
1.0087262
1.0078035
1.0093554
1.0094837
1.0071288
1.002929
1.0001251
0.99986091
1.0000353
1.0000138
1.0008179
1.0030094
1.0030314
0.99894277
0.99557252
0.99568943
0.99715886
0.99883781
0.99992734
1.0011416
1.0027613
1.0064234
1.0111991
1.0120962
1.0090671
1.0067778
1.0032353
1.0021521
1.0026384
1.0040642
1.0061099
1.0069609
1.0078415
1.0091572
1.0088419
1.0106512
1.0118972
1.0098777
1.0095568
1.0134124
1.0156751
1.015529
1.0163751
1.0174744
1.0168831
1.0125336
1.0111797
1.0188789
1.028934
1.0356299
1.0324517
1.0223885
1.0101714
1.0032846
1.0075591
1.0087225
1.0077936
1.0093364
1.0095033
1.0071556
1.0029471
1.0001276
0.99983089
0.99991673
0.99992266
1.0008241
1.0030174
1.0030362
0.99904904
0.9956486
0.99559778
0.9972203
0.99872778
0.99989219
1.0011531
1.00267
1.0062173
1.0112268
1.0120486
1.0093726
1.007238
1.0030868
1.0023505
1.0028296
1.0029885
1.0061731
1.0077563
1.00668
1.0083507
1.0103037
1.011178
1.0102941
1.0091184
1.0107891
1.0141175
1.0141712
1.012696
1.0164139
1.0204009
1.0199842
1.0126313
1.0071509
1.0128451
1.0263128
1.0376886
1.038507
1.0276178
1.0131364
1.0027737
1.0075467
1.0087164
1.0077842
1.0093121
1.0095026
1.0071844
1.0029645
1.0001798
0.99984448
0.99979413
0.99986387
1.0008447
1.0028732
1.0029933
0.99915161
0.99578268
0.99555599
0.99734169
0.99864356
0.99983417
1.0011806
1.0026022
1.0060549
1.0112054
1.0118719
1.0096525
1.0076627
1.0029891
1.0025176
1.0033335
1.0021748
1.0060489
1.0085963
1.0058806
1.0073681
1.0111955
1.0119665
1.0093625
1.0079948
1.0115178
1.0150925
1.0135913
1.010402
1.0148895
1.0222438
1.0233606
1.0143278
1.0051503
1.0074217
1.0215674
1.0373617
1.0429578
1.0332407
1.0179638
1.0038057
1.0075622
1.0087155
1.0077752
1.0092933
1.0094955
1.0072215
1.0029819
1.000246
0.9998731
0.99970321
0.99983602
1.0008698
1.0027893
1.0029886
0.99924277
0.99586663
0.99552262
0.99736828
0.99858408
0.9998582
1.0012134
1.0026296
1.005916
1.0113274
1.0118763
1.0098762
1.0080432
1.0028438
1.0025396
1.0035451
1.001498
1.005616
1.0093506
1.005538
1.0064708
1.0115114
1.0129548
1.0092831
1.0069252
1.0114224
1.0161092
1.0137655
1.0093287
1.0124343
1.0225067
1.0261531
1.0173621
1.0052152
1.0028524
1.0159035
1.0341912
1.0452607
1.0405699
1.0243459
1.0074515
1.0075349
1.0087143
1.0077699
1.0092816
1.0094936
1.0072744
1.0030352
1.0003217
0.99989416
0.9996588
0.99983344
1.0008265
1.0026749
1.0030154
0.99942848
0.99602695
0.99549943
0.99725881
0.99850559
0.99973957
1.0011251
1.0024301
1.0055362
1.0110336
1.0118482
1.0100094
1.0085512
1.0032207
1.0024838
1.0037532
1.0012664
1.0050487
1.0094809
1.0055824
1.0058425
1.0111372
1.0131478
1.0095773
1.0066435
1.0108455
1.0155386
1.0145343
1.0096654
1.0101891
1.0209031
1.0259032
1.0207816
1.0080242
1.0023591
1.0108113
1.0279467
1.0422084
1.0421685
1.0310178
1.0150817
0.99837312
0.99457918
0.9954073
0.9978677
1.0017289
1.0068994
1.0117059
1.0144313
1.0148637
1.0119041
1.0061238
0.99979153
0.99660428
0.99907609
1.0064901
1.0156021
1.0204865
1.0195428
1.01541
1.0162609
1.0274274
1.0427709
1.0442632
1.023878
0.99767093
0.99505297
1.014089
0.99669804
0.998518
1.0041298
1.0088318
1.0128683
1.0149858
1.0147989
1.0118925
1.0062544
0.99913898
0.99392314
0.99187752
0.99397133
0.99971313
1.0053741
1.0061105
1.0017129
0.99498335
0.99319499
1.0019729
1.0182301
1.029934
1.0284004
1.020825
1.0209961
1.0341128
1.0304886
1.0132007
1.0184976
1.022764
1.0240163
1.0235001
1.0205672
1.0157839
1.0093575
1.003613
1.000239
0.99981056
1.0027447
1.0076754
1.0113103
1.0101184
1.0033064
0.99311176
0.98729663
0.99047122
1.0000812
1.0054349
1.0014283
0.99455867
1.0023982
1.0310468
1.0580253
1.0363534
1.0336144
1.035704
1.0338216
1.0303418
1.0255348
1.020076
1.0152277
1.0122208
1.0116763
1.0135539
1.0179101
1.022391
1.0243728
1.0219243
1.01465
1.0053314
0.99962823
1.0006885
1.0071262
1.0103017
1.0016757
0.98449534
0.9764958
0.99092983
1.0209317
1.0375434
1.016331
1.0298362
1.0266446
1.0224463
1.0182496
1.0153141
1.0142861
1.015488
1.0188166
1.0237731
1.0295078
1.0337602
1.0349948
1.0323052
1.0257215
1.0179654
1.0134684
1.0152624
1.0224352
1.0276656
1.0223809
1.0057443
0.98984681
0.9882479
1.001524
1.0079074
0.99379959
0.98479011
1.0066758
1.0024168
1.0000257
0.99988368
1.0023263
1.0067308
1.0123606
1.0189677
1.0249826
1.0279891
1.028426
1.0255661
1.0201931
1.015972
1.0166502
1.0227776
1.0326535
1.0392967
1.0369338
1.0255519
1.0131647
1.0100143
1.018061
1.0222263
1.0035045
0.9706366
0.97550981
0.99037912
0.9893429
0.99163961
0.9956628
1.0005752
1.0054985
1.0095617
1.0119605
1.0119685
1.0091339
1.0035051
0.99772858
0.99604185
1.0003767
1.0100658
1.0221541
1.0305664
1.0315249
1.0253594
1.0183106
1.0205332
1.0331688
1.0449033
1.0364075
1.0046197
0.9813584
0.99483192
0.9970327
0.99967257
1.0048926
1.0083817
1.0106723
1.011323
1.0096851
1.0052994
0.99837051
0.99046695
0.98490493
0.98347572
0.98658819
0.99350504
1.0013347
1.0060723
1.0053502
1.0000204
0.99629049
1.0037571
1.0225584
1.0436336
1.0480059
1.0306443
1.0098309
1.0118446
1.0316788
1.0187762
1.0229095
1.0239241
1.0228253
1.0202972
1.0153304
1.008518
1.0011075
0.99478555
0.99137267
0.99103434
0.99380331
0.99810704
1.001838
1.001217
0.99389721
0.98218506
0.97349815
0.97491366
0.98882854
1.0108018
1.0245688
1.0203365
1.0086036
1.0143065
1.0428421
1.0640202
1.0331308
1.0319609
1.0284825
1.0242037
1.0188701
1.0132859
1.0085312
1.0062716
1.0069249
1.009399
1.0134188
1.0169734
1.0178842
1.0137465
1.0046791
0.99173688
0.98121511
0.9777498
0.982658
0.99037724
0.99372886
0.98778855
0.97774127
0.98312345
1.0144141
1.0539802
1.0579282
1.0156485
1.0119895
1.0075551
1.0042955
1.0031995
1.0046081
1.009133
1.0151913
1.0222704
1.0294269
1.0336142
1.0339345
1.0295101
1.0207044
1.009135
1.0005935
0.99987185
1.0043172
1.0081995
1.0052875
0.99038311
0.96618577
0.95452295
0.97005319
1.005681
1.0301733
1.012088
0.9858307
0.98177733
0.98211385
0.98516601
0.99012699
0.99736583
1.0057465
1.013649
1.0204834
1.0244545
1.0250499
1.0218718
1.0164842
1.0116568
1.0111761
1.0174783
1.0271335
1.0337456
1.0320769
1.0177487
0.99322277
0.97245116
0.96976247
0.98460331
0.99635762
0.98647639
0.95835609
0.97540077
0.97661428
0.98222637
0.98732794
0.99280842
0.99764884
1.0008455
1.0018147
1.0000606
0.9961454
0.99066985
0.98541696
0.98433524
0.99088494
1.005527
1.0228644
1.0369763
1.0435631
1.0375396
1.0201048
1.0027133
0.99825067
1.0071433
1.0125517
0.99841276
0.95504299
0.93038271
0.99929104
1.0034896
1.0062698
1.0078435
1.0076236
1.004396
0.99869265
0.99122307
0.98186094
0.97267175
0.96499318
0.96397588
0.96948754
0.97976544
0.99239335
1.0045404
1.0124714
1.0121072
1.0057057
1.0032382
1.0114291
1.0305618
1.0457902
1.0397489
1.002092
0.95411466
0.94032605
1.0294572
1.0320958
1.0293965
1.024214
1.0171687
1.0085924
0.99892448
0.98929312
0.9805044
0.97542651
0.97559726
0.97938229
0.98528113
0.99011937
0.99098676
0.98530655
0.97476462
0.96409998
0.96258266
0.97602306
1.0057458
1.0391046
1.0562219
1.043029
1.0063721
0.98003328
0.98298189
1.0291572
1.0251477
1.02019
1.0154704
1.010188
1.0053218
1.0014833
0.99985202
1.0023589
1.0072408
1.0124052
1.0162619
1.0169761
1.0111078
0.99829551
0.98063636
0.96079146
0.946003
0.94782165
0.96390054
0.98736179
1.0091313
1.0148735
1.0027908
0.9985517
1.0132276
1.0483889
0.99044807
0.98618783
0.98362519
0.98241192
0.98389933
0.98923686
0.99883113
1.0115416
1.0241737
1.0352982
1.0434859
1.0450728
1.0381775
1.0248174
1.0065713
0.98761552
0.97308539
0.97061798
0.97544619
0.98315185
0.98293145
0.96927608
0.9512303
0.94745619
0.9731729
1.0286345
1.0964868
0.95606942
0.95400914
0.9571169
0.96338852
0.97284988
0.98397748
0.99571084
1.0065052
1.016727
1.024581
1.0278757
1.0257009
1.0209602
1.0144534
1.0084657
1.0058558
1.0106006
1.0174593
1.0211882
1.0160214
0.99270584
0.95700595
0.92035505
0.91838921
0.95247809
1.0189527
1.0739124
0.95979821
0.96430125
0.97212801
0.97977354
0.98616938
0.99088823
0.99387046
0.99395132
0.98994883
0.98324687
0.9765187
0.97219187
0.97130941
0.9767258
0.9901952
1.0129641
1.0382055
1.0553095
1.0579633
1.0392004
1.0040645
0.96468473
0.93987355
0.94113357
0.96690802
1.0005347
0.99658519
1.0107245
1.0140647
1.0148252
1.0122468
1.0071347
0.99960655
0.98939753
0.97703973
0.96473439
0.95386591
0.94520675
0.93948063
0.94044709
0.95080803
0.97125486
0.99590759
1.0197256
1.038675
1.0411954
1.0289011
1.0072271
0.99093257
0.99093118
1.002869
1.0165577
0.99265233
0.92766083
1.0487856
1.0499861
1.043973
1.0340347
1.0215086
1.0074429
0.99282534
0.97894242
0.96567426
0.95509497
0.94843552
0.94961333
0.95660803
0.96656136
0.9745206
0.97860362
0.97830955
0.97412583
0.96992276
0.97137172
0.9848992
1.0124166
1.0488285
1.0718611
1.0653704
0.99121895
0.90575023
1.028908
1.0244231
1.0196125
1.0158937
1.0124718
1.0089367
1.0046316
0.99967532
0.99596136
0.99528392
0.99694033
1.0004785
1.0036408
1.0014294
0.992131
0.97472984
0.95094077
0.92687208
0.91182332
0.91541323
0.94451283
1.0005077
1.0653363
1.1044793
1.0786615
0.99533776
0.93508141
0.97618677
0.97237685
0.9711069
0.97158387
0.97388336
0.97988193
0.99064591
1.006627
1.0260419
1.0449926
1.0589415
1.0641616
1.0586799
1.0394102
1.0092968
0.97700108
0.94715965
0.92169523
0.90593982
0.9101722
0.93572389
0.97724742
1.0223554
1.0510494
1.0281091
0.99490543
0.99453636
0.9352867
0.93278086
0.93475896
0.9397099
0.94884764
0.96200477
0.97911995
0.99905149
1.020903
1.0436331
1.0619498
1.0715552
1.0687209
1.0546165
1.030598
0.99936521
0.96805433
0.94786267
0.94556096
0.95613909
0.97028752
0.97906653
0.97114897
0.94867545
0.93764863
0.96434506
1.0326538
0.92444976
0.9271359
0.93548541
0.94578036
0.95802361
0.97089463
0.98316924
0.9934055
1.0003272
1.0033024
1.0029299
1.0027285
1.0020591
1.004607
1.0081292
1.0109022
1.0133554
1.0161536
1.0208803
1.0272101
1.0219892
0.99388468
0.94041323
0.8889999
0.87129559
0.92098952
1.018026
0.96733673
0.97297916
0.97948454
0.98567342
0.99035385
0.99144702
0.98755877
0.97937411
0.96817333
0.95586571
0.94381694
0.93235602
0.92682567
0.93080169
0.94578346
0.97419323
1.0187969
1.0691029
1.104124
1.1059665
1.0681306
1.0036761
0.93597708
0.88143699
0.86859846
0.90649106
0.98743085
1.0549138
1.0554024
1.0484544
1.0366137
1.02076
1.0021696
0.98213461
0.96108799
0.9403893
0.9213783
0.90682979
0.89770835
0.8918759
0.89416774
0.90913916
0.94189869
0.9909215
1.0511189
1.1053033
1.1244061
1.0941143
1.026964
0.95462406
0.91090552
0.91213276
0.93735375
0.98232029
1.1014644
1.1007213
1.088916
1.070523
1.0458998
1.0173876
0.98791378
0.96018124
0.93631642
0.91682455
0.90114995
0.89210287
0.89380865
0.90547239
0.92589132
0.95348309
0.98087249
1.0053796
1.025232
1.0401914
1.0379749
1.0255198
0.99931015
0.98141252
0.98448393
0.99877268
1.0030794
1.0612204
1.0549333
1.0487953
1.0421752
1.0334236
1.0225643
1.0083487
0.990933
0.97118756
0.95192037
0.93851644
0.93366362
0.93935418
0.95498109
0.97278812
0.98653724
0.98833419
0.97527471
0.94946217
0.93242771
0.93746891
0.96564729
1.0135802
1.0582978
1.07579
1.0698369
1.0271528
0.96437247
0.96303555
0.9632823
0.96512297
0.97035816
0.97813067
0.98762003
0.99777851
1.0074651
1.0166663
1.024376
1.0302001
1.0348687
1.037092
1.0316416
1.0156441
0.98461074
0.9445535
0.90508968
0.8746015
0.86851066
0.90079969
0.97657863
1.0797248
1.1477599
1.1393215
1.0522321
0.889159
0.88802392
0.89069263
0.89719063
0.90684853
0.92015156
0.93954301
0.96738052
1.0054099
1.0520436
1.0987174
1.1350836
1.1479122
1.1308048
1.0879179
1.0292468
0.96652456
0.91369417
0.87870455
0.85472885
0.85040573
0.87715231
0.94543348
1.0523745
1.1579398
1.1789468
1.0868423
0.85265108
0.85223882
0.85621535
0.86402092
0.87745291
0.89766206
0.92521296
0.96085808
1.0050563
1.056905
1.1126769
1.161016
1.1846617
1.1697603
1.1154997
1.038928
0.9649558
0.90809616
0.86795845
0.85049217
0.86051047
0.89266012
0.94622465
1.0278484
1.1187731
1.1649777
1.1124196
0.85236826
0.85497218
0.86276522
0.87511856
0.89275915
0.91646909
0.94802793
0.98430912
1.0206718
1.0540915
1.082848
1.1029337
1.1117533
1.106277
1.0823908
1.0389501
0.98501349
0.93129989
0.89043414
0.87669864
0.8924462
0.92645963
0.97134984
1.0186807
1.0691631
1.1045432
1.0979276
0.88904063
0.89480792
0.90526926
0.92062268
0.9403187
0.962544
0.98476636
1.0043799
1.0187567
1.0259633
1.0240518
1.0175332
1.0127625
1.0110871
1.0128633
1.013222
0.99923193
0.9706274
0.94334719
0.93419488
0.94777602
0.97685313
1.0052682
1.0170072
1.0134968
1.0217307
1.0492049
0.95233899
0.95758156
0.96708101
0.97907767
0.99120215
1.0002046
1.0037464
1.0006243
0.99146686
0.97769894
0.96196703
0.94606851
0.93522931
0.93497627
0.94917299
0.97363835
0.99729872
1.0112958
1.0152962
1.0156777
1.0244357
1.0334354
1.0280108
1.0003177
0.96160149
0.94703069
0.98910014
1.0271221
1.0286917
1.0299768
1.0296223
1.0257544
1.0167161
1.0019834
0.98217759
0.95765903
0.93301777
0.9112285
0.89482508
0.8852284
0.88658968
0.90309552
0.9369015
0.98616641
1.038051
1.0800727
1.1016201
1.0994567
1.0744939
1.0343679
0.9783236
0.92438835
0.89949523
0.94178851
1.1015294
1.0971104
1.0868519
1.0707955
1.0494522
1.0237903
0.99474705
0.96272776
0.93082334
0.90118048
0.87657658
0.85943465
0.85118233
0.85388548
0.87082746
0.90613774
0.96527065
1.0434863
1.1205845
1.1665274
1.1562506
1.1022
1.0343493
0.96512119
0.91066329
0.88585548
0.91492808
1.1712209
1.1607701
1.1392001
1.1082585
1.0708555
1.0306236
0.98952665
0.94982565
0.91313964
0.88013288
0.85382049
0.83676987
0.83010055
0.83169666
0.84656677
0.87793797
0.93411317
1.0207484
1.1215693
1.1958903
1.1970591
1.1345253
1.0510276
0.97014866
0.91462714
0.88773096
0.90452008
1.240832
1.2232001
1.1884436
1.1412033
1.0879711
1.0341229
0.98351329
0.93849581
0.8985813
0.86437482
0.83838714
0.82092457
0.81389281
0.81697562
0.82929644
0.85581206
0.90340897
0.98484602
1.0965784
1.1983967
1.2318279
1.1786845
1.0804552
0.98790456
0.92397539
0.8928978
0.90008065
1.2894892
1.2679475
1.2254038
1.1674347
1.101858
1.0360449
0.97624186
0.92543167
0.8833513
0.85048165
0.82640232
0.81062017
0.80437181
0.8066363
0.81767292
0.8412507
0.88233239
0.95731347
1.0749104
1.1990992
1.2650117
1.2219181
1.1117599
1.0001898
0.92632896
0.88920676
0.89052213
1.3000822
1.2782558
1.2339579
1.1732566
1.1039602
1.0347279
0.97340883
0.92245278
0.8811714
0.84912612
0.82539928
0.80919477
0.80187813
0.80384028
0.81389747
0.83622422
0.87761332
0.95102781
1.0631967
1.2006953
1.2848521
1.2476698
1.123525
1.0035323
0.92045776
0.88116611
0.87793636
1.2692119
1.2516626
1.2156266
1.1644004
1.102955
1.0389954
0.97812046
0.92458452
0.88127726
0.84879392
0.82631758
0.81210785
0.80447118
0.80630481
0.8187104
0.84439203
0.88615652
0.95540647
1.0751773
1.2088217
1.2894033
1.2449245
1.1151199
0.99366485
0.91296513
0.87149351
0.86710595
1.2384669
1.2233556
1.1922215
1.1476486
1.0936173
1.0368028
0.98120346
0.93058783
0.88840553
0.85516838
0.83204929
0.81723604
0.8104424
0.81424839
0.82770746
0.85493939
0.90200491
0.97286809
1.085437
1.2144073
1.2761287
1.219718
1.094018
0.98132733
0.90734332
0.86664252
0.86540876
1.2216254
1.207675
1.1789632
1.1375542
1.0868103
1.032635
0.9788217
0.93039499
0.88990556
0.85858318
0.83728618
0.82459662
0.81882645
0.82264846
0.83681005
0.86403905
0.91230746
0.98363416
1.0960111
1.2130186
1.2586742
1.1917962
1.0716021
0.96914724
0.90317242
0.86705051
0.87114548
1.2176235
1.2036305
1.1742217
1.1325122
1.0813247
1.0272321
0.9760818
0.93061308
0.89246552
0.86269313
0.84122151
0.82748835
0.82191954
0.82674942
0.84197718
0.87037827
0.91529442
0.98857168
1.1043794
1.2109076
1.2410928
1.1679565
1.0544692
0.95949502
0.89771956
0.8668518
0.87580797
1.2112266
1.1970614
1.1675811
1.1263989
1.0774361
1.0255113
0.97638245
0.93225863
0.89523987
0.86565767
0.84361127
0.8296245
0.82285006
0.82633638
0.84066963
0.86777648
0.91858277
0.99880965
1.1103505
1.2090649
1.2267853
1.1499815
1.0406014
0.95132748
0.88934169
0.86262794
0.87996751
1.18538
1.174022
1.1491393
1.1140476
1.0719624
1.0264361
0.98170798
0.94076748
0.90449379
0.87416281
0.84979091
0.83337463
0.82490245
0.82584605
0.83868958
0.86642049
0.92113635
1.0071764
1.1149397
1.2009661
1.2057808
1.1287801
1.0323467
0.94952416
0.88844767
0.86229831
0.88326571
1.1268627
1.1220245
1.1085321
1.0870563
1.059159
1.0271296
0.99210092
0.95673705
0.92279013
0.89152422
0.86558456
0.84734135
0.8360265
0.83301152
0.84223193
0.87122715
0.92932501
1.0144265
1.1077018
1.1737086
1.172395
1.1071597
1.0288172
0.95466879
0.89524094
0.86969377
0.89463461
1.04084
1.0433609
1.0433563
1.0398978
1.0323227
1.0200087
1.0027536
0.97894035
0.95047803
0.92077441
0.89441997
0.87260115
0.8580509
0.85409913
0.86595927
0.89798223
0.95232122
1.0172799
1.0778273
1.1159273
1.1170101
1.081158
1.0290081
0.96701583
0.91146687
0.88892773
0.92028417
0.96059692
0.96501247
0.97107421
0.97888302
0.98652771
0.99130232
0.9906534
0.9849612
0.97346237
0.9577579
0.93781561
0.91976386
0.90842512
0.90886659
0.92261478
0.94973119
0.98194965
1.009967
1.0272941
1.0339261
1.037885
1.0391623
1.0227854
0.98573182
0.94440415
0.92392407
0.9567396
0.90296241
0.9069556
0.91386165
0.92274165
0.93327164
0.94465667
0.9563731
0.96794132
0.97838497
0.98638984
0.99004127
0.99122628
0.99431607
1.0010113
1.0070656
1.0072421
0.9999999
0.98556124
0.96734632
0.95568687
0.95957724
0.97649239
0.98970912