/*--------------------------------*- C++ -*----------------------------------*\
| =========                 |                                                 |
| \\      /  F ield         | OpenFOAM: The Open Source CFD Toolbox           |
|  \\    /   O peration     | Version:  2406                                  |
|   \\  /    A nd           | Website:  www.openfoam.com                      |
|    \\/     M anipulation  |                                                 |
\*---------------------------------------------------------------------------*/
FoamFile
{
    version     2.0;
    format      ascii;
    arch        "LSB;label=32;scalar=64";
    class       surfaceScalarField;
    location    "35";
    object      phi;
}
// * * * * * * * * * * * * * * * * * * * * * * * * * * * * * * * * * * * * * //

dimensions      [1 0 -1 0 0 0 0];

oriented        oriented;

internalField   nonuniform List<scalar> 
123996
(
0.0013278019
-8.0449319e-06
5.4896094e-06
0.001367349
-8.4851385e-06
1.06946e-05
0.0013545683
-2.2261822e-05
3.5830737e-05
0.0013261635
-5.7659071e-05
7.3486349e-05
0.0013218846
-7.8098211e-05
9.1189689e-05
0.001354637
-8.9462128e-05
0.00010372157
0.0014040781
-8.1730253e-05
0.0001012197
0.0014217497
-7.6794646e-05
9.7024383e-05
0.0014291971
-0.0001134261
0.00012397298
0.0014396186
-0.00014184881
0.00016384037
0.001443224
-0.00014829272
0.00017933498
0.0014452024
-0.00017556912
0.00019128914
0.0014640755
-0.0002002091
0.00019947934
0.0014973462
-0.00020572883
0.00023248246
0.0015507395
-0.00016064039
0.00017771723
0.0015767055
-9.9467657e-05
0.00011067446
0.0015621069
-9.6404217e-05
0.00010603137
0.0015502907
-0.00011167126
0.00010889429
0.0015489606
-8.702255e-05
9.9769548e-05
0.0015228497
-0.00010067383
0.00011926499
0.0015344485
-8.4816102e-05
0.00010325458
0.0015660326
-6.6359148e-05
9.6091728e-05
0.0015681036
-9.1960193e-05
9.4177676e-05
0.001559347
-7.5949007e-05
9.06031e-05
0.0015404385
-0.000101252
0.0001153188
0.0015838004
-7.1208506e-05
7.9583947e-05
0.0016757561
8.5630399e-06
5.9684309e-06
0.001680259
9.2336963e-05
-0.00010580349
0.0016270208
0.00010013562
-0.00011340986
0.0016482677
9.5162212e-05
-0.00010628003
0.0017465006
0.00017665753
-0.00016286415
0.0016347043
0.00020221503
-0.00022295278
0.0016835481
0.00019301924
-0.00020515095
0.0017604799
0.00024276638
-0.00027282842
0.0016992391
0.00025778177
-0.0003075692
0.0016423547
0.00025466197
-0.00027314326
0.0018275686
0.00034187301
-0.00032452417
0.0019182298
0.00039800999
-0.00044787313
0.0017863502
0.00033893531
-0.00044951682
0.0017335115
0.00030847425
-0.00036304054
0.0019566193
0.00040769796
-0.00038139
0.0021859839
0.00050279646
-0.00052425924
0.0021249372
0.00047945239
-0.00060382307
0.0019005455
0.00040435965
-0.00055344582
0.0018506502
0.00039774795
-0.00045408472
0.0021336025
0.00048756532
-0.00045459027
0.0024950029
0.00057322793
-0.00057130834
0.0025525084
0.00060150963
-0.00068608311
0.0023412584
0.00057693922
-0.00071744525
0.0021311071
0.00053211004
-0.00066704117
0.0022308672
0.00051623644
-0.00057175618
0.0026217884
0.00051858371
-0.00051959355
0.0028984172
0.0005509773
-0.00056411528
0.0028957707
0.0006102597
-0.00066588944
0.00066952035
0.002687892
-0.00077334102
0.0012856026
-5.7587568e-06
0.0013154772
6.0730923e-07
0.001301094
-7.7393145e-06
0.0012728281
-3.9314762e-05
0.0012663679
-6.2589098e-05
0.0012951407
-7.5645051e-05
0.0013396242
-6.7498904e-05
0.00135428
-6.5861994e-05
0.0013624743
-9.1838215e-05
0.0013742523
-0.00011929744
0.0013765525
-0.00014157384
0.0013770847
-0.0001563168
0.0013939214
-0.0001711679
0.0014273658
-0.00018423716
0.0014770382
-0.00014797736
0.0014970318
-0.00010204099
0.0014828569
-8.2411643e-05
0.001477649
-9.3221426e-05
0.0014743236
-8.2255781e-05
0.0014543934
-7.9421076e-05
0.0014605881
-7.608515e-05
0.0014796047
-5.9082522e-05
0.0014900381
-7.2681839e-05
0.0014749337
-8.5169665e-05
0.0014693289
-9.4683912e-05
0.0015098736
-6.0246905e-05
0.0015990795
2.521055e-05
0.0015903451
8.5018736e-05
0.0015356445
7.6529377e-05
0.0015762294
8.9615828e-05
0.0016548406
0.00019079124
0.001540999
0.00017297402
0.0015928771
0.00017690431
0.0016525348
0.00022866917
0.0016058496
0.00022766972
0.0015989884
0.00022880526
0.0017227705
0.00033783547
0.0017329111
0.00036106593
0.0016496483
0.00026094005
0.001699577
0.00026714814
0.0018784466
0.00040980073
0.0019637047
0.000487415
0.0018939142
0.00039400438
0.0017976773
0.00030900395
0.0018480938
0.00035757127
0.0020309133
0.00049661638
0.0022668335
0.00057874147
0.0023231991
0.00051505236
0.0021721001
0.00041911818
0.0020060979
0.00039902445
0.0020024725
0.00046072507
0.0023080727
0.00056095024
0.0027081606
0.00061478737
0.0029269906
0.00058974483
0.00052938127
0.0028511063
0.0012208997
-4.0909366e-06
0.0012491397
7.7349945e-06
0.0012352649
5.8027988e-06
0.0012083108
-2.2417823e-05
0.0012014162
-4.7094987e-05
0.0012292073
-6.2448372e-05
0.0012718811
-5.6073253e-05
0.0012858708
-5.3340682e-05
0.0012938208
-7.4880283e-05
0.0013055703
-0.00011106054
0.0013088168
-0.00011642604
0.0013087369
-0.00013386668
0.0013237306
-0.00015858402
0.0013590223
-0.00016724079
0.0014081566
-0.00013861999
0.0014289882
-9.8549259e-05
0.0014146584
-8.3958161e-05
0.0014138041
-8.2129766e-05
0.001411127
-8.5097067e-05
0.0013933487
-7.3262098e-05
0.0013976971
-7.0065451e-05
0.0014109584
-5.5235643e-05
0.001422859
-5.8147762e-05
0.0014103222
-8.1045505e-05
0.0014117786
-9.4810882e-05
0.0014603324
-4.9384362e-05
0.0015428189
3.9606151e-05
0.0015274725
7.9842683e-05
0.0014783735
5.8276073e-05
0.0015425201
9.2150641e-05
0.0015850901
0.00019082482
0.0014907783
0.00014215092
0.0015447848
0.00015858772
0.0015863638
0.00021680226
0.0015471003
0.00022017538
0.0015925586
0.00020537167
0.0016565822
0.00029725677
0.0015906138
0.00032601682
0.0015698389
0.00024929593
0.0017146789
0.00025430946
0.0018463882
0.00037032671
0.0017807261
0.0004271826
0.0017152705
0.00035834055
0.0017517758
0.00027608015
0.0019095011
0.00033716879
0.0020145904
0.00044619279
0.0020150626
0.00050351103
0.0020105086
0.00044880911
0.0020310393
0.00034659933
0.0020426261
0.00032455212
0.0021104061
0.00040913619
0.0022238426
0.0005305905
0.0024087675
0.00060529933
0.0025603944
0.0005596007
0.00045342235
0.0025943108
0.0011652069
-1.7847329e-06
0.0011899524
1.4694968e-05
0.0011765588
1.8497513e-05
0.0011506302
-7.0225826e-06
0.0011438851
-3.3379455e-05
0.0011705474
-4.6595717e-05
0.0012112116
-4.1492285e-05
0.0012241798
-4.1566678e-05
0.001231294
-6.4119508e-05
0.0012447202
-8.8242536e-05
0.0012478644
-9.9063106e-05
0.0012459555
-0.00012217785
0.0012593123
-0.00015113195
0.0012947166
-0.00016280595
0.0013429034
-0.00011280418
0.0013619838
-7.8552832e-05
0.0013485566
-6.949282e-05
0.0013440951
-7.554528e-05
0.0013436574
-8.0511848e-05
0.0013246729
-6.7800997e-05
0.0013273974
-5.2931145e-05
0.0013357123
-4.5853402e-05
0.0013448525
-5.4278373e-05
0.0013353964
-7.2098798e-05
0.0013444648
-8.8888465e-05
0.0013980828
-4.2662989e-05
0.001468116
4.1662277e-05
0.0014477262
7.0447667e-05
0.0014105885
4.1959919e-05
0.0014891545
0.00010161049
0.0014868388
0.00017843014
0.0014189625
0.00011842021
0.001476467
0.00014018536
0.0015043728
0.00020401262
0.0014507297
0.00021320463
0.001543583
0.0001959518
0.0015819954
0.00024872453
0.0014665233
0.00028061954
0.0014697526
0.00025374852
0.0016692301
0.00027075197
0.0017762031
0.00033043384
0.001643481
0.00033298626
0.0015388217
0.00030120542
0.0016757786
0.00028284465
0.0018824701
0.00033660345
0.0019564437
0.00039552082
0.0018363389
0.00039526246
0.0017257113
0.00035972265
0.0018234549
0.00033397816
0.0020108691
0.00033275966
0.0021912282
0.00038479899
0.0022307756
0.00044844656
0.0021752405
0.00049221006
0.0021125328
0.00047056451
0.00039633881
0.0020866669
0.0011136076
-3.7075334e-07
0.0011360948
1.9377718e-05
0.0011226983
2.9959443e-05
0.0010977498
6.1678673e-06
0.0010901658
-1.8595589e-05
0.0011149592
-3.4625113e-05
0.0011529032
-2.8592539e-05
0.0011643197
-2.9761231e-05
0.0011702532
-5.6129375e-05
0.0011834573
-7.0138874e-05
0.0011856217
-9.7171497e-05
0.0011828649
-0.00012135523
0.0011956116
-0.00013982693
0.0012333981
-0.00013603136
0.0012785731
-0.00011674923
0.0012968068
-7.7742385e-05
0.0012835085
-7.0500408e-05
0.001279898
-7.4422845e-05
0.0012837775
-6.5476192e-05
0.0012684406
-6.6289205e-05
0.0012701533
-4.2136787e-05
0.001273835
-3.503063e-05
0.001282248
-5.2504922e-05
0.0012727033
-6.8764064e-05
0.0012889603
-7.9182519e-05
0.0013452691
-3.0866529e-05
0.0014020316
3.6282709e-05
0.0013785294
6.1008646e-05
0.0013611621
3.9085832e-05
0.001441262
0.00011268865
0.0014048189
0.0001575894
0.0013628666
0.00010350271
0.0014294841
0.00012272831
0.0014490337
0.00018626541
0.0013771366
0.00019102438
0.0014849052
0.00019297247
0.0015349656
0.00022313296
0.0014089577
0.00023035467
0.0013984516
0.00023846419
0.0015922716
0.00028122163
0.001687698
0.00030538778
0.0015764393
0.00025568044
0.0014509545
0.00021981366
0.0015997439
0.00028806414
0.0018043074
0.00035259842
0.0018612559
0.00036085751
0.0017375585
0.00030988573
0.0016128199
0.00027630643
0.0016748621
0.00031255004
0.0019076223
0.00036520357
0.0021355846
0.00040391673
0.0021853853
0.00038965477
0.0020649224
0.00035975959
0.0018868722
0.00032056987
0.00029740039
0.0017600739
0.0010647096
7.6731567e-07
0.0010844203
2.31908e-05
0.0010713645
3.8683357e-05
0.0010471512
1.8041348e-05
0.0010392997
-5.3228227e-06
0.0010625556
-2.2555177e-05
0.0010982537
-1.4800659e-05
0.0011082203
-1.8363821e-05
0.0011141081
-4.1053431e-05
0.0011258132
-5.6199019e-05
0.0011282266
-8.2820477e-05
0.0011257218
-0.00010325639
0.0011385788
-0.00011330713
0.0011743582
-0.00013227677
0.0012198188
-0.00011865829
0.0012366751
-7.1714866e-05
0.0012232152
-7.4161216e-05
0.001220405
-7.1728353e-05
0.0012226591
-5.3679919e-05
0.0012099898
-6.3811048e-05
0.001208944
-3.7913502e-05
0.0012063255
-2.5021609e-05
0.0012149836
-4.5985554e-05
0.0012064909
-6.8758493e-05
0.0012291444
-7.5094218e-05
0.001282969
-2.4424583e-05
0.0013342588
3.6402809e-05
0.0013075123
5.474105e-05
0.001309439
3.7827999e-05
0.0013794137
0.00011337033
0.0013245112
0.00013465858
0.0012968806
9.7196394e-05
0.0013712547
0.00011884142
0.0013809207
0.00016844855
0.0013045712
0.00015583349
0.0014010247
0.00018428356
0.0014642658
0.00021744612
0.0013645157
0.00019302055
0.001331456
0.0001987405
0.0014776443
0.00027646437
0.0015507007
0.00028909045
0.0014881272
0.00020609506
0.0014309608
0.00016453816
0.0015209021
0.00027223702
0.0016664861
0.00035594508
0.0017051379
0.00033569267
0.0016366503
0.00025015929
0.0015875493
0.00021241776
0.0016173446
0.00027090231
0.0017772994
0.00037039025
0.0019398875
0.00041526381
0.0019906771
0.00036229854
0.001907791
0.00026984873
0.0017624237
0.00019615065
0.00017595289
0.0016428755
0.0010124674
1.7608306e-06
0.0010309493
2.6109532e-05
0.0010183453
4.4571944e-05
0.00099529647
2.8023749e-05
0.00098745829
5.792739e-06
0.0010100131
-1.2983983e-05
0.0010438651
-9.5021194e-06
0.0010532663
-7.8962365e-06
0.0010592331
-3.0696198e-05
0.0010700483
-5.6686131e-05
0.0010733362
-7.2971689e-05
0.0010710296
-8.8381507e-05
0.0010805212
-0.00010572509
0.0011144745
-0.00013269776
0.0011613119
-0.00010682009
0.0011759874
-5.9909399e-05
0.0011647338
-6.8721447e-05
0.0011642088
-6.6020423e-05
0.0011641954
-5.0953639e-05
0.0011571068
-6.0977932e-05
0.0011559439
-3.7036249e-05
0.0011494357
-2.2225999e-05
0.0011569491
-3.894112e-05
0.0011489987
-6.5015253e-05
0.0011746975
-6.9856358e-05
0.0012256814
-2.3607246e-05
0.0012711798
3.458808e-05
0.0012422915
4.7191109e-05
0.0012606133
3.9149398e-05
0.0013167843
0.00010771582
0.0012584097
0.00011140774
0.0012399485
8.5412767e-05
0.0013173797
0.00012220924
0.0013176621
0.00015665129
0.0012528233
0.00012108283
0.0013289877
0.00016911997
0.0013868224
0.00021538036
0.0013212071
0.00017073903
0.0012971757
0.0001611378
0.0013808609
0.00024896238
0.0014114968
0.00026862087
0.0013858525
0.00019264657
0.0014365451
0.00015160163
0.0014988144
0.00022521837
0.0015488905
0.00033131556
0.0015325393
0.00032023039
0.0015068314
0.00022514355
0.001550405
0.00017683042
0.0016304885
0.00022079172
0.0017099746
0.00031841374
0.0017418435
0.00037593897
0.0017243436
0.00033261176
0.0016813486
0.0002348074
0.0016229817
0.00013452728
0.00010245705
0.0016123369
0.00096793557
3.101713e-06
0.00098437224
2.9337694e-05
0.00097205859
4.9237723e-05
0.00094997176
3.6185371e-05
0.0009417296
1.456716e-05
0.00096284012
-2.2135997e-06
0.00099473367
-8.7450541e-08
0.0010029185
-4.0808375e-06
0.0010083931
-2.2072243e-05
0.0010191713
-4.9306359e-05
0.0010228203
-5.8613937e-05
0.0010200228
-7.7087956e-05
0.0010268356
-0.0001072455
0.0010612231
-0.00011869703
0.0011080342
-9.1370759e-05
0.001120103
-6.1053597e-05
0.0011110782
-6.1382201e-05
0.001111314
-6.1594077e-05
0.0011092812
-5.3116909e-05
0.0011063714
-5.1530789e-05
0.0011036256
-3.1253769e-05
0.0010923582
-2.0031691e-05
0.0010977155
-3.3534562e-05
0.0010917008
-5.6987184e-05
0.0011205995
-6.3598021e-05
0.0011695926
-2.4305219e-05
0.0012106359
3.4329863e-05
0.0011820113
4.6103241e-05
0.0012093094
4.326948e-05
0.0012522169
0.00010221367
0.001195668
9.3937805e-05
0.0011853789
6.4932852e-05
0.0012573215
0.00012482027
0.0012452455
0.00015230838
0.0012054835
9.5185927e-05
0.0012657822
0.00014886589
0.0012989918
0.00020871375
0.0012581857
0.0001554168
0.0012678748
0.00013107159
0.0013086467
0.00021173748
0.0012939298
0.00024905097
0.0012762659
0.00019298436
0.0013824662
0.00016309467
0.0014804564
0.00019100741
0.0014658429
0.00026618356
0.0013804742
0.00028043793
0.0013654011
0.00022364591
0.0014599408
0.0001788431
0.001601614
0.00019777203
0.0016667819
0.00024928455
0.0016117803
0.00028143657
0.0015153974
0.00026956414
0.0014464084
0.00020617083
0.0014530026
0.0001339838
9.6803761e-05
0.0015348525
0.00092638858
4.1579244e-06
0.00094135941
3.0806909e-05
0.00092938229
5.3276321e-05
0.00090809743
4.2280315e-05
0.00089946488
2.1554776e-05
0.00091907905
5.2922108e-06
0.00094862961
5.8755825e-06
0.00095591009
5.5026286e-07
0.00096046269
-1.5417739e-05
0.00097137425
-3.4035381e-05
0.00097472193
-5.2290011e-05
0.0009711101
-7.0908787e-05
0.00097735394
-0.00010080457
0.0010110841
-0.00010911349
0.0010557565
-8.6404474e-05
0.0010667916
-6.7615334e-05
0.0010587789
-6.1731886e-05
0.0010585262
-5.7411502e-05
0.0010559859
-5.5443649e-05
0.0010561768
-4.3203634e-05
0.0010535979
-2.7017761e-05
0.0010402133
-1.8629303e-05
0.0010433726
-3.0221541e-05
0.0010378984
-5.1585506e-05
0.0010677341
-5.44002e-05
0.0011167175
-2.6131723e-05
0.0011540162
3.2951135e-05
0.0011255807
4.193209e-05
0.0011583666
4.4150417e-05
0.0011903882
9.9182057e-05
0.0011350834
8.170628e-05
0.0011394971
5.0150294e-05
0.001201835
0.00011904419
0.0011726232
0.00014114785
0.0011628209
8.2619895e-05
0.0012202451
0.00012981236
0.0012191176
0.00019519604
0.0011871033
0.00014275851
0.0012360033
0.00011083361
0.0012647409
0.0001743359
0.0012135148
0.00022663619
0.0011920808
0.00019373993
0.0012984584
0.00017016588
0.0014349576
0.00018618011
0.0014110046
0.00020302272
0.0012902199
0.0002000705
0.0012582812
0.00019968284
0.0013637552
0.00019978423
0.0015217357
0.00021069867
0.0015992107
0.00021805591
0.001537557
0.00020649518
0.0013993945
0.0001750842
0.0012997466
0.00015517646
0.0013061974
0.00012895473
0.00013120703
0.001427802
0.00088452007
5.2557079e-06
0.00089809274
3.1678912e-05
0.00088661717
5.5815902e-05
0.00086615706
4.4059641e-05
0.00085742503
2.6472819e-05
0.00087584368
1.2386978e-05
0.00090367572
1.1026316e-05
0.00091058203
6.5084537e-06
0.00091479365
-1.0968966e-05
0.00092531763
-2.5501138e-05
0.0009287112
-4.8937873e-05
0.0009248377
-6.8287739e-05
0.00093057607
-8.0556572e-05
0.00096288523
-0.00010774952
0.001005674
-8.9934558e-05
0.0010175056
-6.7361035e-05
0.0010107134
-5.8734866e-05
0.0010096671
-5.4916393e-05
0.0010076016
-5.3713317e-05
0.0010085706
-3.9611588e-05
0.0010061633
-2.6646128e-05
0.00098995981
-1.6766619e-05
0.00099137453
-2.692031e-05
0.00098749068
-5.0308538e-05
0.0010162231
-4.8785219e-05
0.0010669516
-2.5368465e-05
0.0011006697
3.0674493e-05
0.0010733485
3.4123611e-05
0.0011104872
4.3811648e-05
0.0011332848
9.8064711e-05
0.0010776325
7.5366577e-05
0.0010968103
4.3862044e-05
0.0011481389
0.00010719296
0.0011017401
0.00012822402
0.0011152002
8.2680928e-05
0.0011792748
0.00011556279
0.0011451884
0.00017395159
0.0011116716
0.00012993703
0.0011887401
0.00010082171
0.0012275719
0.00014521494
0.0011536064
0.00019282112
0.0011172881
0.00019061191
0.0012075895
0.00017977091
0.0013439874
0.00018778669
0.0013419817
0.00015921265
0.0012462317
0.00012241015
0.0011930359
0.00014546575
0.0012692124
0.00020122208
0.0014045981
0.00023959214
0.0014851455
0.00022764255
0.0014429819
0.00016798146
0.0013395212
0.000109385
0.0012326164
8.4041836e-05
0.0012236249
0.00010026063
0.00014599601
0.0013286328
0.00084404366
6.5232016e-06
0.00085628082
3.364069e-05
0.0008451251
5.7123505e-05
0.00082552177
4.7321637e-05
0.00081670869
2.9168636e-05
0.00083392609
1.703159e-05
0.00086034902
1.349038e-05
0.00086681719
9.7361724e-06
0.00087090761
-7.9658452e-06
0.00088064554
-2.2979294e-05
0.00088447378
-4.5869291e-05
0.00088131836
-5.6594915e-05
0.00088475987
-6.5689284e-05
0.00091594332
-0.0001001861
0.00095733853
-8.478614e-05
0.00096990434
-6.4013595e-05
0.00096412789
-5.0298536e-05
0.00096280312
-5.183774e-05
0.00096193733
-5.1718551e-05
0.00096263607
-3.5957863e-05
0.00096054276
-2.3661449e-05
0.00094284376
-1.4253555e-05
0.00094206346
-2.3346277e-05
0.00093960784
-4.8046705e-05
0.00096547245
-4.6178718e-05
0.0010178929
-2.5185449e-05
0.0010477614
2.8571929e-05
0.0010230792
2.4832514e-05
0.0010640892
4.2760462e-05
0.0010789968
9.4504207e-05
0.0010243718
6.3858507e-05
0.0010546241
4.4674153e-05
0.0010984853
9.8256236e-05
0.0010410335
0.00010856361
0.001065497
8.2306366e-05
0.0011380072
0.0001110231
0.0010819109
0.0001493743
0.0010422599
0.00011343666
0.0011312583
9.6819297e-05
0.0011874413
0.00012895586
0.0011153285
0.0001575542
0.0010591182
0.00016709354
0.0011267764
0.00018276428
0.0012346636
0.00019038508
0.0012516468
0.00014255141
0.0012109685
8.241055e-05
0.0011748223
8.2420645e-05
0.0012114862
0.00016987812
0.001297355
0.00024695161
0.0013423833
0.00024446295
0.0013233124
0.00016421023
0.0012598677
7.7323248e-05
0.0012036512
3.6146207e-05
0.0011986514
5.4607245e-05
0.00012495894
0.0012753158
0.0008074213
7.8233208e-06
0.00081834478
3.5932806e-05
0.00080756908
5.8221548e-05
0.00078870455
5.0222986e-05
0.00077979677
2.9470566e-05
0.00079542824
1.9853063e-05
0.00082034143
1.5549901e-05
0.00082613786
1.259926e-05
0.00082979528
-2.8603477e-06
0.00083859626
-1.9652489e-05
0.00084304074
-3.7543761e-05
0.00084026119
-4.4687097e-05
0.00084146002
-6.3500993e-05
0.00087206588
-9.3428621e-05
0.00091222487
-7.6598082e-05
0.00092546421
-5.5325608e-05
0.00091984919
-4.4443588e-05
0.00091849258
-4.5219662e-05
0.000918971
-4.6080907e-05
0.0009195529
-3.2980274e-05
0.00091874555
-1.9791316e-05
0.00090003244
-1.0616264e-05
0.00089659824
-1.7190767e-05
0.00089483073
-4.1218491e-05
0.00091761197
-4.5297921e-05
0.0009707131
-2.3433706e-05
0.00099624128
2.7346314e-05
0.00097598349
1.3758992e-05
0.0010190833
4.2741248e-05
0.0010261524
8.7965554e-05
0.00097583778
4.9927806e-05
0.0010109683
4.8225325e-05
0.0010485631
9.3758128e-05
0.00098808253
8.2332368e-05
0.0010142813
7.9101181e-05
0.0010915775
0.00011796489
0.0010270976
0.00012198207
0.00098014415
8.9516113e-05
0.0010677487
9.8041031e-05
0.0011366055
0.00012991253
0.001078962
0.00012563701
0.0010158515
0.00012206049
0.0010559999
0.00017043723
0.0011271215
0.00020102868
0.0011451704
0.0001518373
0.0011428379
6.9836093e-05
0.0011637919
4.5395079e-05
0.0011969825
0.00011491596
0.0012269424
0.00021698253
0.001211159
0.0002359035
0.0011840132
0.00017374275
0.0011518726
7.6182449e-05
0.001148634
1.8733459e-05
0.0011876385
2.4133679e-05
8.5445511e-05
0.0012560909
0.00077455486
8.8678754e-06
0.00078413882
3.803542e-05
0.00077364087
5.8773797e-05
0.0007554373
4.9269435e-05
0.00074628474
3.0258319e-05
0.00076020491
2.1419572e-05
0.00078346584
1.8497059e-05
0.000788525
1.5883522e-05
0.00079160722
3.4738649e-06
0.00079960537
-1.3834852e-05
0.00080442971
-2.8227969e-05
0.00080137665
-3.4545787e-05
0.00080116267
-6.2968467e-05
0.00083114302
-8.3968418e-05
0.00087006189
-6.7845655e-05
0.00088331004
-4.6712978e-05
0.00087767702
-4.201827e-05
0.00087591232
-4.1918003e-05
0.00087744435
-4.0531967e-05
0.00087797779
-3.115887e-05
0.00087816731
-1.7144398e-05
0.00085978736
-6.3441062e-06
0.00085376372
-1.0454211e-05
0.00085162384
-3.2495841e-05
0.00087184493
-4.2985879e-05
0.0009248087
-1.9883993e-05
0.0009454996
2.4988795e-05
0.00093138964
4.9336753e-06
0.00097401895
4.4672019e-05
0.00097361009
8.213054e-05
0.00093065367
3.6511323e-05
0.00096540981
5.0451746e-05
0.00099491223
9.2554541e-05
0.00094136327
5.4089695e-05
0.00096618351
6.8330901e-05
0.0010379018
0.00012994958
0.00097862553
9.8863545e-05
0.00093057875
6.1920613e-05
0.001009491
9.8315884e-05
0.0010761138
0.000140768
0.0010349065
0.00010416611
0.00098824852
7.7463354e-05
0.0010076572
0.00013777746
0.0010419509
0.00020255483
0.0010414912
0.00016938139
0.0010521982
8.3909679e-05
0.0011200021
4.2053288e-05
0.0011847994
7.6136164e-05
0.001183889
0.00015102223
0.0011240738
0.00019320407
0.0010621175
0.00016260327
0.0010352994
9.099311e-05
0.0010649791
2.3287262e-05
0.0011517675
2.054218e-05
6.0693559e-05
0.0012435331
0.00074214763
9.5389996e-06
0.00075081957
3.8883023e-05
0.00074076402
5.8274176e-05
0.00072332401
4.85093e-05
0.00071416679
3.23418e-05
0.00072663558
2.2334862e-05
0.0007484296
2.2941581e-05
0.00075292914
1.844971e-05
0.00075549184
6.056178e-06
0.00076308712
-8.5808919e-06
0.00076806743
-1.7317661e-05
0.00076438042
-3.1254403e-05
0.0007636775
-6.0923205e-05
0.0007926082
-7.281214e-05
0.00083014372
-6.4868931e-05
0.00084303574
-4.4583951e-05
0.0008377648
-4.3375667e-05
0.00083570973
-4.2617528e-05
0.00083741165
-3.810052e-05
0.0008381332
-3.1494902e-05
0.00083936173
-1.6655037e-05
0.00082175919
-4.3117828e-06
0.00081394385
-6.0002972e-06
0.00081101118
-2.3807663e-05
0.00082972772
-3.9087376e-05
0.00088186015
-1.5239574e-05
0.00089800877
2.1193039e-05
0.00089105969
-8.3534213e-07
0.00093079605
4.6345773e-05
0.00092307149
7.6330759e-05
0.00088897291
2.7306293e-05
0.00092144767
5.1061718e-05
0.00093943906
8.9732111e-05
0.00089869908
3.4224298e-05
0.00092391312
5.3036043e-05
0.00097816195
0.00013221021
0.00093099549
8.4925786e-05
0.0008915133
3.6166345e-05
0.00095887048
9.4475602e-05
0.0010089579
0.00014804591
0.0009806328
9.7143056e-05
0.00096035927
4.6604753e-05
0.00098132112
9.1034447e-05
0.00098072268
0.00017983487
0.00095596671
0.00018048731
0.00096533983
0.00011318082
0.0010544674
6.1781284e-05
0.001146343
6.5283788e-05
0.0011501706
9.3908674e-05
0.0010699877
0.00012614238
0.00098236989
0.00012386109
0.00093585734
8.5024014e-05
0.00097772725
4.3085307e-05
0.0010875988
3.4396147e-05
6.1402408e-05
0.0012096893
0.00071114494
1.0372429e-05
0.00071867499
3.9128662e-05
0.00070896343
5.7818856e-05
0.00069226288
5.0423365e-05
0.00068299694
3.4136006e-05
0.00069430324
2.4188109e-05
0.00071462503
2.5521379e-05
0.00071862754
1.9744963e-05
0.00072087751
7.5211861e-06
0.00072830047
-2.9985712e-06
0.00073317385
-1.2710841e-05
0.00072932299
-3.4303828e-05
0.00072865925
-5.396368e-05
0.00075572665
-6.3938376e-05
0.00079197852
-6.2934741e-05
0.0008043989
-4.3571297e-05
0.00079972604
-4.3658505e-05
0.00079779321
-4.1650906e-05
0.00079924737
-3.2666236e-05
0.0008000428
-3.024526e-05
0.00080173328
-1.7072998e-05
0.00078469779
-4.1524001e-06
0.00077546041
-3.4549202e-06
0.00077119537
-1.6898566e-05
0.00078939003
-3.5989639e-05
0.00084022869
-1.2040627e-05
0.00085257141
1.5928493e-05
0.00085281332
-3.716183e-06
0.00088906475
4.7044651e-05
0.00087554639
6.8879578e-05
0.00085066587
2.2766598e-05
0.00088009945
5.2517287e-05
0.00088500523
8.4749221e-05
0.00085720064
2.2828168e-05
0.00088715683
3.9198287e-05
0.00091911452
0.0001211571
0.00088110282
7.9537928e-05
0.00085869236
1.6650382e-05
0.0009166878
8.5228399e-05
0.0009451269
0.00014795895
0.00091886458
0.00010171957
0.00091762262
3.1926709e-05
0.0009587445
5.5100601e-05
0.00094235355
0.00013072886
0.00089465351
0.00017294551
0.000890866
0.00013593447
0.0009788054
9.3737791e-05
0.0010807598
7.0874104e-05
0.0011098889
6.8413161e-05
0.0010365791
6.7304214e-05
0.00093567567
6.7955018e-05
0.00086701066
5.5112352e-05
0.00090021757
4.7471534e-05
0.0010132955
5.709426e-05
7.8555351e-05
0.0011446036
0.00068002496
1.1356143e-05
0.00068682089
3.8631168e-05
0.00067760307
5.6341962e-05
0.0006616959
5.2473591e-05
0.00065261874
3.4822885e-05
0.00066305577
2.6728889e-05
0.00068211083
2.6998685e-05
0.0006857915
2.1328502e-05
0.00068791771
1.1179406e-05
0.00069508079
1.2676057e-06
0.00069971738
-1.1466663e-05
0.00069635691
-3.438187e-05
0.0006955004
-4.4526888e-05
0.00072050968
-5.8506415e-05
0.00075566906
-5.8955152e-05
0.00076772226
-4.1107742e-05
0.00076382116
-3.9729385e-05
0.00076224827
-3.7005127e-05
0.00076305154
-2.6244627e-05
0.00076406618
-2.5910799e-05
0.00076623145
-1.4875867e-05
0.00074951918
-4.3338215e-06
0.00073919144
-1.4360134e-06
0.00073320752
-1.5305534e-05
0.00075138178
-3.4174338e-05
0.00079976626
-8.1715161e-06
0.00080933976
1.0420787e-05
0.00081603425
-3.2430168e-06
0.00084855334
4.6917074e-05
0.0008310705
6.011633e-05
0.00081456635
1.8469313e-05
0.00084158972
5.1158817e-05
0.00083455578
7.9511825e-05
0.00081689535
1.9011507e-05
0.0008536994
3.0982674e-05
0.00086696325
0.00010016574
0.00082906979
7.3363283e-05
0.00082756027
9.3058603e-06
0.0008797919
7.1650825e-05
0.00088927433
0.00013876996
0.00085556614
0.00010678051
0.00086859797
3.2036201e-05
0.00092500233
3.7744917e-05
0.00091623516
8.3686388e-05
0.0008510146
0.00013777416
0.00082999084
0.00013843143
0.00089927196
0.00011758249
0.0010018274
9.0274054e-05
0.0010511225
6.7505837e-05
0.0010033117
3.7215449e-05
0.00090737383
1.4861795e-05
0.00082845125
1.0126561e-05
0.00084240386
3.1500126e-05
0.00093935189
6.6620043e-05
9.9508394e-05
0.0010599533
0.0006513459
1.2863e-05
0.0006570572
3.8092346e-05
0.00064823794
5.4531872e-05
0.00063294426
5.2498792e-05
0.00062396611
3.7433202e-05
0.00063340148
2.9097582e-05
0.00065117049
2.7681221e-05
0.00065459131
2.2622771e-05
0.00065649567
1.4942685e-05
0.00066328919
4.0296148e-06
0.00066787244
-8.6488988e-06
0.00066533115
-2.6656546e-05
0.00066375857
-3.4180996e-05
0.00068685873
-5.3264193e-05
0.00072096807
-5.2305567e-05
0.00073291683
-3.720233e-05
0.00072971941
-3.3331382e-05
0.00072857216
-3.1068266e-05
0.00072854383
-2.1031644e-05
0.00072987867
-1.9469708e-05
0.00073232455
-9.74287e-06
0.00071661953
-3.7936424e-06
0.00070519386
3.3935034e-07
0.00069759738
-1.3983069e-05
0.00071537848
-3.3346945e-05
0.00076026868
-4.180207e-06
0.00076892632
2.9602189e-06
0.00078068213
-4.3999056e-07
0.00080925612
4.4857767e-05
0.00078957454
5.2884834e-05
0.00078006999
1.8784128e-05
0.0008052906
4.5281266e-05
0.00078867888
6.9997383e-05
0.00077860415
2.2878943e-05
0.00082061824
3.1109753e-05
0.00082178841
7.6874383e-05
0.000779197
5.9879868e-05
0.000795727
1.3209647e-05
0.00084798889
5.8302102e-05
0.00084335615
0.00012228858
0.0007989071
0.00010039851
0.00082060169
4.4585694e-05
0.00088210537
3.5647448e-05
0.00089175876
5.7997538e-05
0.00082288584
8.5903019e-05
0.00078337742
0.00011415371
0.00082679337
0.00012473519
0.00091999533
0.00011569739
0.00097882336
8.1383037e-05
0.00095459312
2.910699e-05
0.00088385595
-1.6811985e-05
0.00081317844
-3.2227113e-05
0.00080853733
1.9790825e-06
0.00087948502
5.9831632e-05
0.00010462926
0.00097757086
0.00062301509
1.4365717e-05
0.00062822845
3.7008305e-05
0.00061992653
5.2151756e-05
0.00060535697
5.0253885e-05
0.00059663584
4.060351e-05
0.00060524352
3.0794802e-05
0.00062194159
2.6203505e-05
0.00062515986
2.2030049e-05
0.00062684517
1.8951387e-05
0.00063334716
4.2472113e-06
0.00063802362
-5.9086267e-06
0.00063613752
-1.4816555e-05
0.00063373994
-2.6728065e-05
0.0006552706
-4.4298907e-05
0.00068806104
-4.2595981e-05
0.00069997817
-2.9664725e-05
0.00069723172
-2.534533e-05
0.00069645495
-2.2566309e-05
0.00069589848
-1.570764e-05
0.00069743529
-1.3143908e-05
0.00069994322
-2.6870616e-06
0.00068514748
-1.8091154e-06
0.0006730357
3.8993821e-06
0.00066394406
-1.1416381e-05
0.00068140436
-3.189448e-05
0.00072169508
7.701271e-07
0.000731031
-4.1184702e-06
0.00074554067
3.3081349e-06
0.0007706613
4.0427375e-05
0.00075034622
4.1314173e-05
0.00074557515
2.5464919e-05
0.00076918998
4.237879e-05
0.00074667843
5.2727551e-05
0.00074181075
2.7222133e-05
0.00078464398
3.6911974e-05
0.00078065136
5.7566487e-05
0.00073519551
3.8754751e-05
0.00076006531
2.1906052e-05
0.00081418433
5.2061203e-05
0.00080100893
9.9918675e-05
0.00075071302
8.1168127e-05
0.0007716449
5.7672213e-05
0.00083409731
4.5787698e-05
0.00085615134
5.0246479e-05
0.00080108449
4.0816429e-05
0.00075069805
6.7191896e-05
0.00076985897
0.0001102464
0.00084291746
0.00013383195
0.00089857972
0.0001065921
0.00088983301
3.406846e-05
0.00084412159
-2.6789095e-05
0.00079979483
-5.8257862e-05
0.00079309315
-2.4215444e-05
0.00083253626
3.3804429e-05
9.5028058e-05
0.00090557118
0.0005973109
1.6238295e-05
0.00060164679
3.6365037e-05
0.00059374358
4.9289393e-05
0.00057983864
4.9135436e-05
0.00057108619
4.3413554e-05
0.00057869742
3.1536485e-05
0.00059422495
2.4265757e-05
0.00059721038
2.1922321e-05
0.00059849948
2.1404647e-05
0.00060473019
5.1645696e-06
0.00060954795
-5.1759335e-06
0.00060797321
-4.1635532e-06
0.00060513035
-2.0703346e-05
0.00062541216
-3.6255828e-05
0.00065694558
-3.188574e-05
0.00066886886
-2.0686711e-05
0.00066641032
-1.5965414e-05
0.0006654984
-1.2683179e-05
0.00066449294
-1.1570021e-05
0.00066642678
-8.6501268e-06
0.00066892878
4.1816896e-06
0.00065600692
-9.3535112e-08
0.00064331267
9.0053618e-06
0.00063328726
-7.7134031e-06
0.00065046033
-2.9028962e-05
0.00068549454
5.1406053e-06
0.00069661891
-1.0500297e-05
0.00071241173
6.0178985e-06
0.00073435637
3.6765995e-05
0.00071591658
2.6861737e-05
0.00071269685
3.0004689e-05
0.00073393108
4.1712352e-05
0.00071057695
3.1025854e-05
0.00070793069
2.9431817e-05
0.00074771071
4.8285081e-05