/*--------------------------------*- C++ -*----------------------------------*\
| =========                 |                                                 |
| \\      /  F ield         | OpenFOAM: The Open Source CFD Toolbox           |
|  \\    /   O peration     | Version:  2406                                  |
|   \\  /    A nd           | Website:  www.openfoam.com                      |
|    \\/     M anipulation  |                                                 |
\*---------------------------------------------------------------------------*/
FoamFile
{
    version     2.0;
    format      ascii;
    arch        "LSB;label=32;scalar=64";
    class       volScalarField;
    location    "35";
    object      rho;
}
// * * * * * * * * * * * * * * * * * * * * * * * * * * * * * * * * * * * * * //

dimensions      [1 -3 0 0 0 0 0];

internalField   nonuniform List<scalar> 
158064
(
1.0020869
1.0039504
1.0032219
1.0033903
1.0034494
1.0034366
1.0034413
1.0034831
1.0035695
1.0037037
1.0038193
1.0038862
1.0039199
1.0040018
1.0040798
1.004212
1.0042885
1.0044427
1.0045816
1.0047369
1.0048589
1.0050506
1.0051591
1.0053606
1.0055382
1.0057547
1.0058803
1.0060231
1.0060583
1.0061773
1.0062065
1.0062377
1.0062585
1.006306
1.0062969
1.006235
1.0064331
1.0065758
1.0062177
1.0063297
1.0066969
1.0066326
1.0063137
1.006975
1.0067622
1.0064552
1.0063128
1.006961
1.0074063
1.0071481
1.0065649
1.0065405
1.0065872
1.0068167
1.0067278
1.0070544
1.007212
1.007169
1.0073457
1.0074005
1.0076853
1.0076186
1.0071388
1.0074338
1.0077342
1.0069106
1.0072251
1.0075756
1.0074247
1.00728
1.0075042
1.0072542
1.006323
1.0074627
1.0079034
1.0054336
1.0067824
1.0072327
1.0071352
1.0060099
1.0065694
1.0057987
1.0055585
1.0057493
1.0057732
1.0053979
1.0043029
1.0047883
1.0039554
1.0020874
1.0039577
1.003231
1.0033873
1.0034353
1.0034256
1.0034229
1.0034628
1.0035578
1.0036967
1.0038069
1.0038849
1.0039292
1.0040061
1.0040855
1.0042053
1.0042828
1.0044286
1.0045569
1.0047273
1.0048498
1.0050236
1.0051457
1.0053555
1.0055159
1.0057152
1.0058446
1.0060049
1.0060696
1.0061608
1.0061767
1.0062595
1.0062243
1.0062692
1.006239
1.0063575
1.0062995
1.0063656
1.0064095
1.006491
1.0063778
1.006469
1.0066282
1.0065952
1.0065988
1.0068152
1.0068548
1.0067509
1.0067065
1.0069834
1.0070659
1.0071187
1.0071949
1.0071479
1.0072607
1.0073656
1.0072246
1.0073262
1.0073005
1.0073775
1.0074209
1.0075692
1.0074943
1.0072095
1.0072825
1.0075225
1.0073575
1.0073199
1.0072574
1.0072692
1.0067544
1.0074663
1.0072127
1.0067771
1.0062953
1.0078144
1.0064785
1.0064356
1.005913
1.0064289
1.0057079
1.0060818
1.0057663
1.0054563
1.0052787
1.0051101
1.004762
1.0042199
1.0046891
1.0020909
1.0039656
1.0032382
1.0033859
1.0034299
1.0034128
1.0034084
1.0034481
1.0035456
1.0036941
1.003813
1.003886
1.003928
1.0040046
1.004084
1.0042035
1.0042795
1.0044259
1.0045595
1.0047265
1.0048386
1.0050044
1.0051233
1.0053314
1.005497
1.0056982
1.0058256
1.0059919
1.006063
1.0061465
1.0061845
1.0062469
1.0062348
1.0062794
1.0062428
1.006298
1.0063206
1.0063536
1.0063669
1.0064422
1.0064594
1.0065026
1.0065454
1.0066269
1.0066818
1.0067378
1.0067286
1.0067806
1.0068785
1.0069512
1.0068774
1.0069117
1.0070491
1.0070663
1.0071778
1.0071148
1.007181
1.007306
1.0072441
1.0074158
1.0073626
1.0073875
1.0073325
1.0074625
1.0074384
1.007148
1.0073691
1.0074281
1.0069682
1.0074689
1.0069447
1.0066463
1.006843
1.0070638
1.0069051
1.0061674
1.0063006
1.006341
1.0065381
1.0057348
1.0063882
1.0058203
1.0053875
1.0060145
1.0047902
1.0047364
1.005003
1.004634
1.0037179
1.0020921
1.003973
1.0032452
1.0033842
1.0034203
1.003399
1.0033916
1.0034316
1.0035365
1.0036832
1.003801
1.0038873
1.003935
1.0040143
1.0040905
1.0042071
1.0042776
1.0044172
1.0045378
1.0046983
1.0048228
1.0050013
1.0051165
1.005324
1.005485
1.0056869
1.0058133
1.0059896
1.0060562
1.0061549
1.0061897
1.0062556
1.0062337
1.0062911
1.0062562
1.0063113
1.0063126
1.0064235
1.0063576
1.0064442
1.0064505
1.0065972
1.0066444
1.0066733
1.0066139
1.0066642
1.0067163
1.0067228
1.0067289
1.0069356
1.0069041
1.0070486
1.0069308
1.0071408
1.0070684
1.0070901
1.007225
1.0072988
1.0073257
1.0073345
1.0073353
1.0073558
1.0072369
1.0074131
1.007239
1.0073209
1.0072089
1.007146
1.0073383
1.0066462
1.0073572
1.0068415
1.0068921
1.0064701
1.0065984
1.0066886
1.0062374
1.0066003
1.0054723
1.0064652
1.0052648
1.0056644
1.0051781
1.0051407
1.0053084
1.0047105
1.0042324
1.0042054
1.0040927
1.0020947
1.0039803
1.0032516
1.0033843
1.0034139
1.0033878
1.0033764
1.0034185
1.0035223
1.0036795
1.0038146
1.0038933
1.0039413
1.0040117
1.0040881
1.0042049
1.0042809
1.0044196
1.004551
1.0047184
1.0048248
1.0049731
1.005082
1.0052897
1.0054578
1.0056619
1.0057921
1.0059579
1.0060145
1.0061203
1.0061529
1.0062194
1.0062152
1.0062688
1.0062537
1.0062857
1.006252
1.0063473
1.0063687
1.0064171
1.0064786
1.0065196
1.0064941
1.0066073
1.0065678
1.0067235
1.0066918
1.0068146
1.0067982
1.0069694
1.0069563
1.0070532
1.006972
1.0071387
1.0070752
1.0072047
1.0072376
1.007133
1.0072094
1.0072409
1.0073454
1.0072871
1.0072953
1.0072573
1.0072425
1.0072016
1.0072409
1.0069366
1.0072031
1.0069156
1.0066408
1.0071922
1.006663
1.0067919
1.0064223
1.0065493
1.0064068
1.0058544
1.0060597
1.0061269
1.0056349
1.0051866
1.0059983
1.0050665
1.0047853
1.0051622
1.0051934
1.0035574
1.0040705
1.002096
1.0039872
1.0032578
1.0033817
1.0034054
1.0033754
1.0033644
1.0034051
1.0035135
1.0036716
1.0037961
1.0038874
1.0039328
1.0040203
1.0040974
1.0042095
1.004271
1.004404
1.0045199
1.0046679
1.0047912
1.004979
1.0050987
1.0053012
1.0054647
1.0056655
1.0058077
1.0059825
1.0060637
1.0061717
1.0062057
1.0062468
1.0062504
1.0062881
1.0062775
1.0063446
1.0063158
1.006384
1.0064093
1.006494
1.006479
1.0065051
1.0065786
1.0066035
1.0065895
1.0067552
1.0067389
1.0066896
1.0067382
1.0068021
1.0068015
1.0069049
1.0070215
1.0068985
1.0070608
1.0071361
1.0071705
1.0071758
1.0071905
1.0072633
1.0072502
1.0072444
1.0072981
1.0071982
1.0072257
1.007272
1.0070746
1.0072177
1.0067021
1.0073521
1.0068913
1.0065115
1.0069109
1.0067509
1.0067919
1.0061914
1.006233
1.0060295
1.0063618
1.0051765
1.0057468
1.0060314
1.0049667
1.004896
1.0056914
1.0047546
1.0046143
1.0046354
1.004014
1.0020981
1.0039936
1.0032637
1.0033824
1.003399
1.003366
1.0033476
1.0033925
1.0035041
1.0036646
1.0038103
1.0038987
1.0039594
1.0040287
1.0041023
1.0042166
1.0042874
1.0044175
1.0045416
1.0047029
1.0048027
1.0049386
1.0050393
1.0052413
1.005417
1.0056108
1.0057508
1.0059018
1.0059819
1.0060765
1.0061221
1.0061965
1.0061988
1.0062298
1.0062033
1.0062885
1.0062672
1.0063243
1.0062988
1.006353
1.0063658
1.0064327
1.0065108
1.0065958
1.0066098
1.0065887
1.0067312
1.0067317
1.00677
1.0068394
1.0069134
1.0069516
1.0069932
1.0069646
1.0069586
1.0070983
1.0070407
1.0071808
1.0071998
1.0073346
1.007157
1.0072366
1.0071385
1.0073046
1.0071251
1.0073546
1.0068853
1.007286
1.0068962
1.0069252
1.0067364
1.0071204
1.0064672
1.0064862
1.0064859
1.0064587
1.0061573
1.0062241
1.005975
1.0054496
1.0057279
1.0052721
1.0049001
1.0052611
1.0047247
1.0045291
1.0038417
1.0043738
1.0037696
1.0020994
1.0039996
1.0032695
1.0033811
1.0033944
1.0033546
1.0033374
1.0033805
1.0034931
1.0036583
1.0037993
1.0038939
1.0039361
1.0040159
1.0040907
1.0042017
1.0042698
1.0044031
1.0045248
1.0046774
1.0047927
1.004966
1.0050806
1.0052808
1.0054499
1.0056567
1.0057963
1.0059633
1.0060525
1.0061536
1.0061932
1.0062615
1.006229
1.0062792
1.0062678
1.0063039
1.0063116
1.0063572
1.0063527
1.0063833
1.0064212
1.0065693
1.0065372
1.0066191
1.006647
1.0066485
1.0067362
1.0066836
1.0067418
1.0068649
1.0070009
1.007027
1.0068754
1.0070281
1.0069649
1.0070695
1.0070432
1.0070636
1.0070841
1.0072195
1.0071672
1.0072548
1.0070357
1.0072686
1.0071374
1.0070955
1.0071702
1.0068684
1.007271
1.0069354
1.0067008
1.006711
1.0064832
1.0067977
1.0064108
1.0061989
1.0059234
1.0062118
1.0050767
1.0058727
1.0057978
1.0047785
1.0050768
1.0058696
1.0046552
1.0046672
1.0047987
1.0045349
1.0031674
1.0021012
1.0040055
1.003275
1.0033797
1.003384
1.003349
1.003329
1.0033694
1.0034841
1.0036522
1.003799
1.0038989
1.0039601
1.0040464
1.004124
1.0042315
1.0042815
1.0043921
1.0045018
1.0046528
1.004762
1.0049153
1.0050162
1.0052109
1.0053767
1.0055774
1.005706
1.0058854
1.0059745
1.006082
1.0061195
1.0061961
1.0061911
1.0062624
1.0063021
1.0062902
1.0062917
1.0063641
1.0063427
1.006435
1.0064368
1.0065219
1.0065373
1.0065966
1.0065334
1.0066511
1.0066602
1.0067172
1.0067505
1.0068146
1.006822
1.0068672
1.0068253
1.0068697
1.0069851
1.0070123
1.0070692
1.0070135
1.007092
1.0070929
1.0072407
1.0072093
1.0071282
1.0070294
1.007261
1.0069641
1.0072317
1.0069438
1.0071031
1.0068495
1.0068976
1.0064579
1.0066141
1.0065098
1.0063913
1.0060351
1.0064001
1.0061118
1.0058187
1.0059151
1.0053696
1.0050356
1.0058565
1.0043222
1.0043214
1.0049199
1.0040793
1.0044399
1.0036044
1.0021022
1.0040107
1.0032793
1.0033844
1.0033843
1.0033375
1.0033091
1.0033562
1.0034771
1.0036521
1.0037998
1.0038941
1.0039589
1.0040188
1.0040962
1.0042112
1.0042949
1.004434
1.0045419
1.0046766
1.0047693
1.0049214
1.0050316
1.0052359
1.0054064
1.0056196
1.0057462
1.0059265
1.0060057
1.0061178
1.0061609
1.0062323
1.0062346
1.0062571
1.0061986
1.006192
1.0061834
1.0062767
1.0062932
1.0063767
1.006396
1.0064247
1.0065201
1.0065605
1.0065296
1.0067008
1.0066795
1.0068053
1.0068219
1.0068263
1.0068579
1.0069448
1.0070309
1.0069526
1.007063
1.0070327
1.0070214
1.0070455
1.0071028
1.0070864
1.0072408
1.0070903
1.0071975
1.0069739
1.007182
1.0070884
1.006897
1.0071516
1.0068223
1.006842
1.0068086
1.0067556
1.0069883
1.0064541
1.0062953
1.006404
1.0060658
1.0055782
1.0062019
1.0054409
1.004858
1.0060675
1.0051369
1.0049306
1.0047767
1.0053952
1.0047183
1.0034825
1.0043339
1.0021035
1.0040159
1.0032849
1.0033782
1.0033759
1.0033313
1.0033107
1.0033521
1.0034698
1.0036371
1.003793
1.0039113
1.0039599
1.0040551
1.0041202
1.0042112
1.0042582
1.0043661
1.0045021
1.0046779
1.004801
1.0049463
1.0050285
1.0052082
1.0053769
1.0055857
1.0057247
1.0058873
1.0059773
1.006078
1.0061332
1.0061684
1.0061988
1.0062695
1.0062461
1.0063169
1.0063256
1.0063766
1.0064245
1.0064582
1.0064845
1.0064977
1.0065346
1.0065686
1.0065973
1.006655
1.0066667
1.0067069
1.0067001
1.0067129
1.0067858
1.0068347
1.0068851
1.0069264
1.0070125
1.0069917
1.0069878
1.0070896
1.0070439
1.0071214
1.007161
1.0070707
1.0070893
1.0071538
1.0069486
1.0072563
1.0067876
1.0070034
1.0067762
1.0070002
1.0067601
1.0067744
1.0064398
1.0065131
1.006303
1.0063064
1.0063454
1.0057826
1.0060108
1.00554
1.0057302
1.0057642
1.004379
1.0053301
1.0056296
1.0041448
1.0046687
1.0043435
1.0042666
1.0021043
1.004021
1.0032886
1.0033822
1.0033758
1.0033213
1.0032951
1.0033379
1.0034601
1.0036369
1.0037956
1.0039008
1.0039623
1.0040344
1.0041281
1.0042412
1.0042987
1.0044126
1.0044887
1.0046076
1.0047093
1.004864
1.0049885
1.0051793
1.0053469
1.0055338
1.0056814
1.0058481
1.0059674
1.0060905
1.0061476
1.0061912
1.0062186
1.0062609
1.006234
1.0062628
1.006291
1.0063018
1.0063319
1.0063833
1.006458
1.0064897
1.0064977
1.006578
1.0066701
1.0066503
1.0066852
1.0066519
1.0067001
1.0067809
1.0068542
1.0068935
1.0068342
1.0069676
1.0069717
1.0070166
1.0070915
1.0070951
1.006996
1.0070908
1.0070535
1.0071355
1.0069789
1.0072382
1.0069152
1.0070792
1.0070804
1.0067659
1.006857
1.0066392
1.0066576
1.0068948
1.0063977
1.0065527
1.006563
1.0061775
1.0059523
1.0066269
1.0053586
1.0059324
1.0057677
1.00552
1.0049897
1.0052407
1.005502
1.0042651
1.0038397
1.0043532
1.0042136
1.0021051
1.0040257
1.0032947
1.0033797
1.0033654
1.0033157
1.0032868
1.0033309
1.0034543
1.0036376
1.0037943
1.0038975
1.0039717
1.0040484
1.0041203
1.0042149
1.0042879
1.0044155
1.0045389
1.0046608
1.0047623
1.0048995
1.0050089
1.0051886
1.0053742
1.005581
1.0057462
1.0059026
1.0059955
1.0060923
1.0061409
1.0062144
1.0062385
1.0062393
1.0062116
1.0062135
1.0062548
1.0063166
1.0062866
1.0063372
1.0063834
1.0064147
1.00641
1.0064744
1.0065207
1.0065384
1.0065688
1.0066246
1.0067121
1.0068036
1.0069118
1.0069935
1.006979
1.0070183
1.0069317
1.0070274
1.0071551
1.0070529
1.0070591
1.0071034
1.0070602
1.007144
1.0070224
1.007103
1.0071275
1.0068621
1.0071869
1.0068932
1.006848
1.006608
1.0068049
1.0066124
1.0068137
1.0064442
1.0063257
1.0065218
1.0059393
1.0061942
1.0056223
1.0055149
1.0057337
1.0048266
1.0058352
1.0054002
1.0048188
1.0049698
1.0049787
1.0045299
1.003898
1.0021056
1.0040299
1.0032991
1.0033837
1.0033706
1.003309
1.0032799
1.0033177
1.0034483
1.0036321
1.0037899
1.0039185
1.003979
1.0040622
1.004128
1.0042205
1.0042795
1.004378
1.0045053
1.0046578
1.004775
1.0048879
1.0049861
1.0051487
1.0053254
1.0055165
1.0056753
1.0058291
1.0059346
1.0060607
1.0060963
1.006174
1.0061836
1.006178
1.0061838
1.0062197
1.0062105
1.0063038
1.0063109
1.0063425
1.0063628
1.0064473
1.0065605
1.0066411
1.0066471
1.0067343
1.006723
1.0067771
1.0068808
1.0068696
1.0068226
1.0068132
1.006891
1.0068895
1.0068925
1.0070058
1.0071405
1.0070469
1.0071602
1.0071581
1.0071311
1.0070565
1.0070915
1.0069728
1.0072197
1.0068629
1.0069835
1.0071744
1.0067957
1.0069017
1.0067542
1.0063115
1.0068066
1.0065278
1.0061577
1.0060206
1.0064169
1.0053861
1.0060718
1.0057126
1.0058739
1.0052668
1.0058162
1.0056896
1.0046646
1.0043346
1.0047065
1.0047552
1.0040681
1.0021061
1.0040335
1.0033044
1.0033825
1.0033599
1.0033028
1.0032745
1.0033177
1.0034443
1.0036233
1.0037905
1.0039137
1.0039751
1.0040491
1.0041334
1.0042335
1.0042939
1.0043897
1.0044894
1.0046124
1.0047425
1.0048807
1.005006
1.0051714
1.0053498
1.005531
1.0056754
1.0058364
1.0059461
1.0060666
1.0061345
1.0061937
1.0061938
1.006239
1.0062811
1.0063402
1.006313
1.0063852
1.0064222
1.0064188
1.0063824
1.0064535
1.0065782
1.0065807
1.0065589
1.0066538
1.0066795
1.0066991
1.0068302
1.0067935
1.0067457
1.0067439
1.0068012
1.0067604
1.0067923
1.0068834
1.0069422
1.006962
1.007089
1.007107
1.0071462
1.006995
1.007069
1.007013
1.0070462
1.0070705
1.0069159
1.0071266
1.0069219
1.0068397
1.0067262
1.0066997
1.0063347
1.0065093
1.0065706
1.0059771
1.0064094
1.0058599
1.005778
1.0059894
1.0051356
1.0055316
1.0050531
1.0047471
1.0048189
1.0045981
1.0044407
1.0041131
1.004447
1.0021065
1.0040366
1.0033089
1.0033843
1.0033657
1.0033052
1.0032741
1.003312
1.0034376
1.0036215
1.0037914
1.0039049
1.0039739
1.0040615
1.0041432
1.0042267
1.004288
1.0043943
1.0045063
1.0046221
1.0047183
1.0048347
1.0049427
1.0051
1.0052859
1.005499
1.0056703
1.0058338
1.0059445
1.0060439
1.006133
1.0062096
1.0062
1.0062572
1.0062418
1.0062867
1.0062845
1.0063028
1.0063254
1.0063334
1.0063222
1.0063339
1.0063957
1.0064541
1.0065092
1.0065628
1.0066031
1.006623
1.0067051
1.0067421
1.0067256
1.0067582
1.0068104
1.0068308
1.0069158
1.0069353
1.0068831
1.0069877
1.0070336
1.0070832
1.007076
1.006992
1.0069848
1.0071444
1.0068533
1.0071784
1.0071069
1.0068362
1.0070596
1.0068322
1.006592
1.0070205
1.0063785
1.006255
1.0066866
1.0065514
1.0055922
1.0058693
1.0057651
1.006095
1.0054471
1.0061541
1.0056339
1.0045834
1.0046091
1.0053282
1.004955
1.0041446
1.0035032
1.0021067
1.0040392
1.003312
1.0033852
1.0033567
1.0032918
1.0032592
1.0032961
1.0034304
1.0036256
1.0037878
1.0039097
1.0039891
1.0040616
1.0041396
1.0042312
1.0042982
1.0043937
1.0045158
1.0046299
1.0047363
1.0048582
1.0049823
1.0051406
1.0053194
1.0055134
1.0056794
1.0058399
1.0059641
1.0060461
1.0061276
1.0061664
1.0061564
1.0061779
1.0061586
1.0061678
1.0062304
1.006238
1.006257
1.006326
1.0063878
1.0064062
1.0064347
1.00652
1.0065872
1.0065806
1.0066338
1.0067355
1.006746
1.0068172
1.0068253
1.0068472
1.0068394
1.0068721
1.0069852
1.0070552
1.0070003
1.0071066
1.0069886
1.0070585
1.0069643
1.006998
1.0069782
1.0071656
1.0068376
1.0070802
1.0071644
1.0067496
1.0068805
1.0069156
1.0066836
1.0067056
1.0066411
1.0064921
1.0062591
1.0064255
1.0056519
1.0061163
1.0062616
1.0055626
1.0057988
1.0055491
1.005338
1.0053466
1.0047814
1.0050353
1.0048676
1.0042383
1.0035864
1.0021068
1.0040416
1.0033147
1.0033839
1.0033593
1.0032888
1.0032556
1.0032979
1.0034315
1.0036203
1.0037881
1.0039212
1.003999
1.0040646
1.0041361
1.0042321
1.0043029
1.0043968
1.004509
1.0046224
1.0047439
1.0048717
1.0049874
1.005138
1.0053177
1.0055116
1.0056664
1.0058194
1.0059375
1.0060465
1.0061382
1.0061719
1.006169
1.0062244
1.0062204
1.0062049
1.0062706
1.0063082
1.0063182
1.0064116
1.0064845
1.0064753
1.0064798
1.0065544
1.0065555
1.0065721
1.0066167
1.0068066
1.0067981
1.0068464
1.0068948
1.0068702
1.00686
1.0069177
1.0069273
1.0069996
1.0069932
1.0070742
1.0069303
1.0069853
1.0069099
1.0069976
1.0070664
1.0070562
1.0069629
1.0069837
1.006965
1.0069953
1.0067069
1.006807
1.006882
1.0064147
1.006611
1.0069496
1.0063386
1.0057555
1.00619
1.0062671
1.0060371
1.0052511
1.0058387
1.0052777
1.0048052
1.0053167
1.0054444
1.0051622
1.0041359
1.0037398
1.0046158
1.0021065
1.0040441
1.0033177
1.0033894
1.0033608
1.0032926
1.003261
1.0032965
1.003425
1.0036072
1.0037796
1.0039225
1.0039903
1.0040655
1.0041499
1.0042353
1.0042958
1.0043798
1.0044982
1.004626
1.0047351
1.0048513
1.0049524
1.0050921
1.005266
1.0054597
1.0056145
1.0057773
1.0058922
1.0060023
1.0060959
1.0061473
1.0062114
1.0062511
1.0063041
1.0063038
1.0063109
1.0063058
1.0062674
1.006315
1.0063873
1.0064376
1.006535
1.0066042
1.0065997
1.0066091
1.0065918
1.0066852
1.0066897
1.0067255
1.0068095
1.0067853
1.0068395
1.0069009
1.0068599
1.0068975
1.0069862
1.0070208
1.0069741
1.0069717
1.0069893
1.0070338
1.0071412
1.0069208
1.0070734
1.0069668
1.0067581
1.0071617
1.006842
1.0067134
1.0069625
1.006412
1.0064924
1.0068456
1.006572
1.0057544
1.00643
1.0063286
1.0054355
1.0058056
1.0055648
1.0053237
1.0049679
1.0051097
1.0056344
1.0053587
1.0043706
1.0035304
1.0047421
1.0021064
1.0040465
1.0033199
1.0033896
1.0033564
1.0032844
1.0032491
1.0032879
1.0034182
1.0036052
1.0037835
1.0039115
1.0039818
1.0040628
1.0041555
1.004235
1.0042883
1.0043812
1.0044994
1.0046143
1.0047188
1.0048296
1.0049392
1.0050755
1.0052513
1.0054382
1.0056158
1.0057762
1.005906
1.0060169
1.0060786
1.0061277
1.0062003
1.0061937
1.0062291
1.0062393
1.0062572
1.0063198
1.0063413
1.0063339
1.0063549
1.0063982
1.0064761
1.0064924
1.0065182
1.0066028
1.0066314
1.0066131
1.0066988
1.0067577
1.0067925
1.0067469
1.0068438
1.0069143
1.0069133
1.0069209
1.0070154
1.0069971
1.0070841
1.0070348
1.0070659
1.0070642
1.0071314
1.0068602
1.0070968
1.0069312
1.0067928
1.0069968
1.0070597
1.0068708
1.0066895
1.0065645
1.0066518
1.0063324
1.0062992
1.0064404
1.0064724
1.00601
1.0054163
1.0060113
1.0058481
1.0054136
1.0055013
1.0053217
1.005048
1.0045613
1.0045996
1.0046396
1.0046663
1.0021058
1.0040486
1.0033235
1.003387
1.0033508
1.003279
1.0032427
1.0032882
1.0034193
1.0036107
1.0037896
1.003908
1.0039939
1.0040691
1.0041523
1.0042343
1.0042977
1.0043929
1.0044948
1.004602
1.0047026
1.0048212
1.0049364
1.0050931
1.0052763
1.0054728
1.0056464
1.005805
1.0059283
1.0060575
1.0060915
1.0061296
1.0061946
1.0061783
1.0062022
1.0061942
1.0061885
1.0062561
1.006354
1.0063462
1.0063503
1.0063878
1.006442
1.0064244
1.0064621
1.0065413
1.0066481
1.0066105
1.0067484
1.0067967
1.0067918
1.0067639
1.0068713
1.0069591
1.0070257
1.007004
1.0070834
1.0070033
1.0071455
1.0070607
1.007073
1.0070575
1.0070259
1.0068887
1.0070399
1.0068579
1.006995
1.0067614
1.0070535
1.0071239
1.006405
1.006619
1.0069866
1.0061251
1.0059079
1.0069604
1.0063811
1.0056682
1.0059988
1.0058192
1.0056126
1.005223
1.0056563
1.00575
1.0051477
1.0039609
1.0043264
1.0056529
1.0054333
1.0021058
1.0040506
1.0033257
1.0033889
1.0033553
1.0032837
1.0032494
1.0032855
1.003419
1.0036115
1.0037865
1.0039218
1.0040154
1.0040739
1.0041514
1.0042418
1.0043138
1.0043943
1.0044937
1.0045965
1.0047081
1.0048492
1.0049618
1.0051098
1.0052927
1.0054845
1.0056551
1.0058054
1.0059244
1.006058
1.0061154
1.0061766
1.0062223
1.0062196
1.0062198
1.0062129
1.0061626
1.0062089
1.0063185
1.0063254
1.0063313
1.0064094
1.0064593
1.0064757
1.0065385
1.0065691
1.006641
1.0066218
1.0067081
1.0067808
1.006815
1.0068135
1.0068792
1.0069039
1.0070058
1.0070143
1.0071007
1.0070198
1.0071312
1.0070691
1.0070467
1.0070398
1.0069196
1.0069922
1.0069453
1.0068427
1.0071167
1.0067384
1.00695
1.007085
1.0064705
1.0066135
1.0069735
1.0063133
1.0061125
1.0067411
1.0063067
1.0057151
1.0063613
1.0060265
1.0052387
1.0052519
1.005684
1.0054314
1.0051818
1.0042778
1.0043713
1.0052561
1.0053973
1.0021046
1.0040521
1.0033267
1.0033937
1.0033565
1.0032814
1.0032419
1.0032719
1.0034071
1.0036022
1.0037776
1.0039265
1.0040144
1.0040695
1.0041522
1.0042439
1.0043133
1.0043925
1.0045075
1.0046123
1.004727
1.0048495
1.0049619
1.0050938
1.0052701
1.0054494
1.0056221
1.0057709
1.0058947
1.0060252
1.006112
1.006184
1.0062203
1.0062185
1.0062197
1.0062386
1.0062288
1.0062842
1.0063365
1.0063577
1.0063358
1.006392
1.0064368
1.0065075
1.0065817
1.0066069
1.0066463
1.0066847
1.0066923
1.0067659
1.0067552
1.0068346
1.006832
1.0067926
1.006889
1.0068937
1.007003
1.0069998
1.0070893
1.0071071
1.0070668
1.0070431
1.006885
1.0070909
1.0068602
1.0069541
1.0070788
1.0068803
1.0069735
1.0067366
1.0067138
1.0068144
1.0065133
1.0064741
1.0067947
1.0062481
1.0061084
1.0061152
1.0063449
1.0059579
1.0052601
1.0057188
1.0058517
1.0051073
1.0047647
1.0050187
1.0053197
1.0047829
1.0042898
1.002105
1.0040538
1.0033298
1.0033911
1.0033515
1.0032724
1.003231
1.0032715
1.0034065
1.0035951
1.0037742
1.0039142
1.003994
1.004068
1.0041542
1.0042381
1.0042955
1.0043879
1.0045129
1.0046244
1.004728
1.0048212
1.0049252
1.0050511
1.005226
1.0053978
1.00558
1.0057261
1.0058628
1.0059758
1.0060666
1.0061169
1.0061729
1.0061958
1.0062196
1.0062712
1.006293
1.006362
1.0063686
1.0063867
1.006366
1.0064086
1.006427
1.0065069
1.0065726
1.0066086
1.0066404
1.0067595
1.0067461
1.0067888
1.0067485
1.00688
1.0068414
1.0067715
1.0068441
1.0068214
1.0068907
1.006992
1.0070516
1.0071352
1.0071211
1.0070402
1.0069437
1.0071234
1.0068454
1.0070886
1.0069669
1.0069771
1.0070565
1.0064761
1.0068111
1.0070758
1.0061813
1.0064296
1.0071065
1.0061668
1.0058907
1.0064903
1.0062841
1.0055517
1.0055205
1.0061433
1.0059275
1.0050483
1.0044481
1.0055721
1.00619
1.0049149
1.0033736
1.0021036
1.0040549
1.0033309
1.0033898
1.0033536
1.0032754
1.0032379
1.0032813
1.0034091
1.0035938
1.003777
1.0039028
1.003985
1.0040716
1.004161
1.004232
1.004285
1.0043766
1.0044957
1.0046172
1.0047124
1.0048029
1.0049031
1.0050327
1.005214
1.0053949
1.0055706
1.0057312
1.0058678
1.0059616
1.0060482
1.006077
1.0061357
1.0061974
1.006237
1.0062751
1.0063166
1.0063482
1.0063398
1.0063594
1.0063732
1.0064266
1.0064406
1.0065445
1.0065945
1.0065966
1.0066052
1.0067847
1.0067702
1.0068034
1.0067631
1.0069282
1.0068963
1.0068496
1.0068721
1.006869
1.0069013
1.0070194
1.0070148
1.0071074
1.0071587
1.0070239
1.0070654
1.0070993
1.0069288
1.0071567
1.0069386
1.0070041
1.0070102
1.0065625
1.0067808
1.0071109
1.0062849
1.0065194
1.0067438
1.0063869
1.0059532
1.0066249
1.00623
1.0055197
1.0058837
1.0060419
1.0057175
1.0051887
1.0047699
1.0057212
1.0060961
1.0051894
1.0037271
1.0021034
1.0040558
1.0033341
1.0033936
1.0033541
1.0032826
1.0032441
1.0032811
1.0034065
1.003596
1.0037819
1.0039092
1.0039984
1.0040788
1.0041667
1.0042417
1.0042965
1.0043801
1.0044819
1.0045925
1.0046949
1.0048152
1.0049258
1.0050611
1.0052435
1.0054318
1.0056109
1.0057751
1.005913
1.0060112
1.0061022
1.0061293
1.0061738
1.0062184
1.0062473
1.0062601
1.0063175
1.0063147
1.0062929
1.0063289
1.0063814
1.0064313
1.0064763
1.0065842
1.0065949
1.0065813
1.00659
1.0067489
1.0067611
1.0067748
1.0067845
1.0069384
1.00695
1.0069587
1.0069417
1.00698
1.0069822
1.0070727
1.0070258
1.0070923
1.0071883
1.0070324
1.0071785
1.0070738
1.0070694
1.0071654
1.0069959
1.0070663
1.0068253
1.0068973
1.006822
1.0068018
1.0067135
1.0067943
1.0061534
1.0064483
1.0062568
1.0065569
1.0060073
1.005847
1.0064578
1.0058184
1.0052832
1.0053688
1.005528
1.0056511
1.0051887
1.0047217
1.0044734
1.0021019
1.0040568
1.0033353
1.0033934
1.0033506
1.0032756
1.0032348
1.0032688
1.0034022
1.0036017
1.0037857
1.0039233
1.0040198
1.0040872
1.0041661
1.0042591
1.0043206
1.0043965
1.0044907
1.0045967
1.004705
1.0048411
1.0049638
1.0051036
1.0052804
1.0054693
1.0056492
1.0058147
1.0059543
1.0060707
1.0061731
1.0062151
1.0062411
1.0062521
1.0062654
1.0062529
1.0063204
1.0063219
1.0062943
1.0063339
1.0064038
1.0064726
1.0065054
1.0065792
1.006596
1.0065744
1.0066307
1.0067245
1.0067729
1.0067693
1.0068675
1.006934
1.006989
1.0070407
1.0069926
1.0070497
1.0070634
1.007142
1.0070863
1.007117
1.0072093
1.0070907
1.0072509
1.0070949
1.0072079
1.0071533
1.0070677
1.00718
1.0066996
1.0071485
1.0070032
1.0064606
1.0070794
1.0070219
1.0059712
1.0062566
1.0066221
1.0064046
1.0058613
1.0060774
1.0067252
1.0058762
1.0049594
1.0054278
1.0062569
1.0056643
1.0043374
1.0038518
1.0046714
1.0021017
1.0040571
1.0033371
1.0033919
1.0033491
1.003268
1.0032282
1.0032636
1.0034032
1.0036048
1.003789
1.0039356
1.0040301
1.0040949
1.0041686
1.0042704
1.0043428
1.0044213
1.0045235
1.0046294
1.0047391
1.004868
1.0049904
1.0051278
1.0053023
1.0054915
1.0056635
1.0058324
1.0059598
1.0060932
1.0062057
1.0062746
1.0062957
1.0063102
1.0063323
1.00631
1.0063706
1.0063675
1.0063598
1.0063969
1.0064459
1.0065198
1.0065458
1.0066044
1.0066422
1.0066563
1.0067384
1.0067748
1.0068403
1.0068241
1.0069723
1.006951
1.0069996
1.0071054
1.0070442
1.0070851
1.0071351
1.0072061
1.0071785
1.0071885
1.0072565
1.0072047
1.0072859
1.0071718
1.0073027
1.0071761
1.0071476
1.0072601
1.0067861
1.0071732
1.0072411
1.0063969
1.0072081
1.0069779
1.0063163
1.0060881
1.006846
1.0061587
1.0060356
1.0063093
1.0064913
1.0059623
1.0051362
1.0054288
1.0063159
1.0058
1.0043275
1.0035092
1.004608
1.0020999
1.0040576
1.0033395
1.0033945
1.0033511
1.0032747
1.003236
1.0032739
1.0034093
1.0036071
1.0037952
1.0039449
1.0040386
1.0041124
1.0041919
1.0042853
1.0043629
1.0044543
1.0045681
1.0046838
1.0047957
1.0049102
1.0050184
1.0051469
1.005321
1.0055068
1.0056703
1.0058412
1.0059671
1.0060928
1.0062075
1.0062902
1.0063297
1.0063832
1.006421
1.0064018
1.0064471
1.0064383
1.0064544
1.006483
1.0065203
1.0065756
1.0065928
1.00665
1.0067253
1.0067911
1.0068738
1.0068402
1.0069505
1.0068848
1.0070743
1.0070066
1.0070413
1.0071681
1.0071066
1.0071059
1.0071938
1.007248
1.0072796
1.0072883
1.0073018
1.0073461
1.0073001
1.0072787
1.0073544
1.0072416
1.0072376
1.0072862
1.0070993
1.007085
1.0072481
1.0068075
1.0071017
1.0067004
1.0068721
1.0062673
1.0068909
1.0060529
1.006334
1.0066708
1.0060865
1.0059655
1.005729
1.0056748
1.0059838
1.0055788
1.0049218
1.0043157
1.0048707
1.0021001
1.0040577
1.0033408
1.0033977
1.0033602
1.0032902
1.0032533
1.0032966
1.0034288
1.0036269
1.0038244
1.0039709
1.0040668
1.0041569
1.0042477
1.0043342
1.0044057
1.0045006
1.0046255
1.0047526
1.0048618
1.0049685
1.0050691
1.0051956
1.00537
1.0055558
1.0057209
1.0058952
1.0060254
1.0061442
1.0062461
1.0063189
1.0063781
1.0064678
1.0065246
1.006526
1.0065559
1.0065501
1.0065873
1.0066152
1.0066387
1.0066657
1.0066825
1.006707
1.0068313
1.00692
1.0069792
1.0069068
1.0070429
1.0069706
1.0071783
1.0070699
1.0071005
1.0072254
1.0072097
1.0071908
1.0072704
1.0072905
1.0073715
1.007402
1.0073621
1.007478
1.0073336
1.0074088
1.0074078
1.0073397
1.007358
1.0072848
1.007466
1.007073
1.0071003
1.0074699
1.00695
1.0064897
1.0072474
1.0067758
1.0067355
1.0061701
1.0065112
1.0070011
1.0058933
1.0058931
1.0063519
1.006301
1.0056763
1.005185
1.0053654
1.005648
1.0057786
1.0020993
1.0040602
1.0033511
1.0034107
1.0033805
1.0033146
1.003286
1.0033399
1.0034808
1.0036847
1.0038885
1.0040367
1.0041407
1.0042438
1.0043449
1.004431
1.004489
1.0045817
1.0047075
1.0048393
1.0049449
1.0050597
1.0051661
1.0052988
1.0054686
1.0056555
1.0058199
1.0059977
1.0061299
1.0062607
1.0063488
1.0064135
1.0064661
1.0065555
1.0066294
1.0066658
1.0066999
1.006719
1.0067665
1.0067997
1.0068014
1.006799
1.006815
1.006796
1.0069328
1.0070242
1.0070525
1.0069945
1.0071164
1.0070879
1.0072517
1.0071455
1.0071763
1.0072935
1.0073382
1.0073327
1.0073762
1.0073726
1.0074805
1.0075243
1.0074496
1.0075811
1.0074175
1.0075218
1.0074796
1.0074466
1.0075081
1.0073143
1.0077171
1.0072483
1.0069302
1.0079843
1.0069553
1.0065475
1.0073341
1.0073781
1.0066136
1.0065351
1.0066419
1.0071155
1.0060273
1.005956
1.0066308
1.0070943
1.0058422
1.0049152
1.0056029
1.006667
1.0066551
1.0021086
1.0040691
1.0033726
1.0034486
1.0034325
1.0033785
1.0033664
1.0034335
1.0035871
1.0037963
1.004002
1.0041568
1.0042672
1.004375
1.0044768
1.0045651
1.004616
1.0047028
1.0048235
1.0049532
1.0050587
1.0051843
1.005295
1.0054336
1.0055942
1.0057825
1.0059457
1.0061292
1.0062656
1.0064165
1.0064977
1.0065527
1.0065997
1.0066861
1.0067626
1.0068248
1.0068592
1.0068963
1.0069384
1.0069764
1.006964
1.0069454
1.0069665
1.0069337
1.0070342
1.0071232
1.007133
1.0071386
1.007203
1.0072499
1.0073238
1.0072836
1.0073339
1.007401
1.0074798
1.0075077
1.0075157
1.0075034
1.0076203
1.0076657
1.0075895
1.0076795
1.007578
1.0076364
1.0075893
1.0075836
1.0076709
1.00743
1.0077914
1.0075097
1.0070018
1.0080582
1.0070967
1.006971
1.0072361
1.0077379
1.0066418
1.0069277
1.0068363
1.0070157
1.0064053
1.0062469
1.0066827
1.007399
1.0062361
1.0051589
1.0055859
1.0069511
1.0068263
1.0021404
1.0041014
1.0034444
1.0035508
1.0035511
1.003516
1.0035178
1.0035851
1.0037394
1.0039478
1.0041541
1.0043123
1.0044238
1.0045244
1.0046206
1.0047097
1.0047645
1.0048423
1.004955
1.0050824
1.0051942
1.0053303
1.005441
1.0055768
1.0057297
1.0059136
1.0060745
1.0062484
1.0063872
1.0065455
1.0066391
1.0066982
1.0067548
1.006837
1.0069052
1.0069831
1.0070132
1.0070504
1.0070837
1.0071269
1.0071145
1.0070949
1.0071319
1.007099
1.0071578
1.0072392
1.0072415
1.0073087
1.0073273
1.0074156
1.0074161
1.007463
1.0075494
1.0075522
1.0076299
1.0076817
1.0076452
1.007633
1.0077661
1.00781
1.0077755
1.00779
1.0077845
1.0077655
1.007717
1.0077431
1.0078249
1.0076899
1.0077603
1.0077449
1.0074248
1.007753
1.0074019
1.0075607
1.0072629
1.0076744
1.0069907
1.0073307
1.0072122
1.0069134
1.0068531
1.0068682
1.0067584
1.0070903
1.0065574
1.0059806
1.0059316
1.0065781
1.0063694
1.0022538
1.0041857
1.0036312
1.0037468
1.0037426
1.0037088
1.0036973