/*--------------------------------*- C++ -*----------------------------------*\
| =========                 |                                                 |
| \\      /  F ield         | OpenFOAM: The Open Source CFD Toolbox           |
|  \\    /   O peration     | Version:  2406                                  |
|   \\  /    A nd           | Website:  www.openfoam.com                      |
|    \\/     M anipulation  |                                                 |
\*---------------------------------------------------------------------------*/
FoamFile
{
    version     2.0;
    format      ascii;
    arch        "LSB;label=32;scalar=64";
    class       volScalarField;
    location    "35";
    object      rho;
}
// * * * * * * * * * * * * * * * * * * * * * * * * * * * * * * * * * * * * * //

dimensions      [1 -3 0 0 0 0 0];

internalField   nonuniform List<scalar> 
62344
(
1.0036487
1.0056915
1.0044749
1.0057021
1.00558
1.0041567
1.0018068
1.0005816
1.0009202
1.0013273
1.0017883
1.0020681
1.0019076
1.0010942
0.99911671
0.9977496
0.99834401
1.0001838
1.0011823
1.002686
1.0042476
1.0035803
1.0032603
1.0039541
1.0057575
1.0053452
1.0035681
1.0008525
1.0047185
1.0066301
1.0041841
1.0053137
1.0100212
1.007029
1.0079919
1.0145072
1.0121195
1.0053636
1.009454
1.0177523
1.014911
1.0035194
1.0015803
1.0127326
1.0237907
1.0198137
1.0044449
0.99640709
1.0042096
1.0196837
1.0255924
1.014376
0.99787569
0.99372982
1.0038566
1.0036495
1.0056921
1.0045082
1.0057723
1.0055812
1.0041574
1.0017739
1.0004879
1.0009174
1.0011855
1.0015484
1.0021216
1.0019585
1.0008806
0.99900176
0.99752527
0.99822307
0.99980493
1.0007519
1.0026456
1.0038258
1.003868
1.0039287
1.0039092
1.0062383
1.0054594
1.0033527
1.0004772
1.0048679
1.0067317
1.0031489
1.0057695
1.0099044
1.0071888
1.0080738
1.0128321
1.010506
1.0077533
1.0123602
1.0161871
1.0118011
1.0056961
1.0068059
1.0145729
1.0194657
1.0158069
1.006479
0.99899852
1.0050302
1.0182396
1.0277071
1.0225468
1.0037453
0.98771661
0.98644177
1.0036263
1.0056859
1.0045442
1.0058168
1.0056294
1.0041615
1.0016925
1.0004194
1.0007413
1.0011148
1.0014193
1.0018645
1.001803
1.0007998
0.99892001
0.99745634
0.99810376
0.99962893
1.0005474
1.0023857
1.003756
1.0037809
1.0047664
1.0042093
1.0064658
1.0056087
1.0030298
1.0006581
1.0049428
1.0060946
1.0023404
1.0065321
1.0094516
1.0074369
1.0087627
1.0109826
1.0087729
1.0109475
1.0154298
1.0130663
1.0065692
1.007454
1.0137695
1.0153966
1.0129987
1.007622
1.0088506
1.010725
1.01082
1.0132859
1.0151794
1.015494
1.0098429
1.0013226
0.99615639
1.0035994
1.0056898
1.0045706
1.0058249
1.0056548
1.0041464
1.0015514
1.0002503
1.0005526
1.0009357
1.0011656
1.0018089
1.0019655
1.0008771
0.99883748
0.99736454
0.99808151
0.99963817
1.0002597
1.0019967
1.003906
1.0037034
1.0049609
1.0048093
1.0064067
1.0052633
1.0026916
1.0010959
1.0051878
1.0051317
1.0023078
1.0072979
1.0089169
1.0071133
1.0099918
1.0106792
1.0067682
1.0121797
1.0184258
1.0123602
1.0031449
1.0068977
1.0184363
1.0187018
1.0092541
1.0023931
1.0076256
1.0181047
1.0202269
1.0122014
1.0038143
1.0021426
1.0080849
1.0148151
1.0183006
1.0035798
1.0056982
1.0046164
1.005859
1.0057075
1.0041325
1.001501
1.0001534
1.0005517
1.000832
1.0011587
1.0019636
1.002311
1.0009486
0.99867351
0.99716791
0.99795471
0.99958646
1.0000698
1.0017485
1.0035667
1.0038993
1.0045453
1.0050441
1.0061552
1.0044575
1.0019371
1.001269
1.0050631
1.0038157
1.0027213
1.0079428
1.0082275
1.0061525
1.0106201
1.0114291
1.0056059
1.0108636
1.0189309
1.0137057
1.0039457
1.0063535
1.018186
1.0207091
1.0090083
1.0016219
1.0062201
1.0175763
1.0236766
1.0151776
1.0014061
0.99472616
1.0009301
1.0155684
1.0292793
1.0035642
1.0057023
1.0046638
1.0058879
1.0057235
1.0041602
1.0014289
1.0001174
1.0004697
1.0007021
1.0011552
1.0020201
1.0021907
1.0010164
0.99879131
0.99705511
0.99780208
0.99941177
0.99997359
1.0015974
1.0028789
1.0041316
1.0042686
1.0050069
1.0057886
1.0038838
1.0013145
1.0013832
1.0047628
1.0024856
1.0029672
1.0082938
1.0076589
1.0049977
1.0103985
1.0121059
1.0057936
1.008924
1.017245
1.0148715
1.0072941
1.0083202
1.0153255
1.0177708
1.0103144
1.0049884
1.0072144
1.0143724
1.019148
1.0152607
1.0057941
0.99888174
1.0011371
1.012091
1.0254858
1.0035644
1.0057113
1.0047027
1.0059126
1.005744
1.0041411
1.0014049
1.0000927
1.0004124
1.0006891
1.0011338
1.0018558
1.0019907
1.0011204
0.99868998
0.99689854
0.99764921
0.99907212
0.99986954
1.0013747
1.0022834
1.0040154
1.0043953
1.0051008
1.0055325
1.0036496
1.0009517
1.0014825
1.0042879
1.0015811
1.0028902
1.0082854
1.0072246
1.0043648
1.0095856
1.0115409
1.0067989
1.008219
1.0144572
1.0140757
1.0110246
1.012031
1.0131196
1.0110768
1.010289
1.009955
1.0111508
1.0128051
1.0112922
1.0098718
1.0090395
1.00895
1.0105966
1.014852
1.0197074
1.003566
1.0057214
1.0047284
1.0059314
1.005762
1.0041411
1.0013706
1.0000552
1.0003718
1.0007106
1.0009964
1.0016118
1.0019704
1.0010959
0.9982497
0.99661706
0.99739886
0.99872627
0.99965956
1.0009373
1.0019887
1.0037547
1.0047647
1.0054622
1.0054555
1.0037691
1.0009234
1.0018522
1.0040405
1.0012514
1.0028799
1.0082427
1.0067328
1.0047725
1.0089171
1.0101377
1.0075752
1.0090554
1.0122191
1.0120156
1.0131127
1.0153845
1.013284
1.005863
1.0068909
1.0129405
1.0174368
1.0148503
1.0069107
1.0028928
1.0068941
1.0150374
1.0217152
1.0237626
1.0204648
1.0035718
1.0057291
1.0047554
1.0059306
1.0057854
1.0041333
1.0013253
0.99996095
1.0002415
1.0005543
1.0007193
1.001518
1.0020452
1.0009503
0.9979585
0.99640577
0.99711022
0.99842725
0.99946238
1.0005666
1.0018426
1.0035063
1.0051159
1.0059584
1.00569
1.0040511
1.0011845
1.0023177
1.0039136
1.0012933
1.0031898
1.0081446
1.0060166
1.0058836
1.0090266
1.0083964
1.0077341
1.0108681
1.01125
1.009581
1.0130499
1.0177646
1.0151856
1.0051174
1.0026846
1.0120611
1.0213241
1.0190175
1.0084269
1.000668
1.0022574
1.0135239
1.0259499
1.0307473
1.0253242
1.0035678
1.0057457
1.0047869
1.0059545
1.0058243
1.0041169
1.0012945
0.99988496
1.0001363
1.0003401
1.0006647
1.0014528
1.0020499
1.0008967
0.99791086
0.99636509
0.99693111
0.99824396
0.99932045
1.0004159
1.0017169
1.0034849
1.0053662
1.0064518
1.006184
1.0044617
1.0014544
1.0027762
1.0039471
1.0015109
1.0038292
1.007921
1.0052004
1.0069251
1.009888
1.0068542
1.0074647
1.0129414
1.0115866
1.0074361
1.0114431
1.0192081
1.0171885
1.0077024
1.0018832
1.0092157
1.0199826
1.0212155
1.0132175
1.0034863
1.0021255
1.0100527
1.0224009
1.0302753
1.0276016
1.0035557
1.0057549
1.0048129
1.0059758
1.005831
1.0040922
1.0012442
0.99977264
1.0000065
1.0000843
1.0005417
1.0011825
1.0019082
1.0009077
0.99802901
0.99650257
0.99696426
0.9982913
0.99918636
1.0004305
1.001543
1.0035923
1.005573
1.0067138
1.0067558
1.004797
1.0016849
1.0031588
1.0038743
1.0015993
1.0045514
1.0077981
1.0043355
1.0071334
1.010973
1.0060192
1.0067173
1.0143784
1.0127491
1.0063147
1.0090094
1.0186956
1.0191961
1.0115478
1.0050505
1.0078573
1.0144977
1.0186158
1.0155947
1.009413
1.0067973
1.0107848
1.0179071
1.0237595
1.0241889
1.0035396
1.0057566
1.0048328
1.0059766
1.0058292
1.0041015
1.001185
0.99965713
0.99985142
0.9999131
1.0003615
1.0009398
1.0017726
1.0009758
0.99808824
0.9965666
0.99704963
0.99846795
0.99913884
1.000532
1.0013211
1.0036627
1.0057475
1.0067938
1.007229
1.0049802
1.0017821
1.0033717
1.0036108
1.001492
1.0050413
1.0076071
1.0036957
1.006813
1.0115051
1.0058897
1.0060316
1.0147881
1.0139916
1.0060573
1.0070453
1.0163415
1.0201961
1.0148387
1.0102152
1.009201
1.0103178
1.0118121
1.0133709
1.0136202
1.0143995
1.0157929
1.0177098
1.0175804
1.0171571
1.0035268
1.0057577
1.0048526
1.0059921
1.0058591
1.0040889
1.0011426
0.99955605
0.99974655
0.99989691
1.000205
1.0007612
1.00182
1.0010607
0.99820376
0.99647174
0.99702081
0.99853559
0.99906046
1.0005795
1.0011188
1.0035045
1.0057993
1.0067154
1.0074626
1.0049708
1.0016712
1.0033428
1.0031511
1.0013768
1.0051235
1.0073083
1.0035155
1.0064104
1.0110375
1.0059848
1.0059831
1.0142363
1.0143593
1.0064879
1.0065253
1.0133538
1.018482
1.0164923
1.015353
1.0130482
1.009826
1.0054376
1.007142
1.0134127
1.0197621
1.0232075
1.0215068
1.0163094
1.0108161
1.0035171
1.0057571
1.0048796
1.0060074
1.0058425
1.0040626
1.0010976
0.99948436
0.99959843
0.9998677
1.0000552
1.0006301
1.0019391
1.0011067
0.99826448
0.9962551
0.99694317
0.99838455
0.99892471
1.000482
1.0009438
1.0031871
1.0057683
1.0065784
1.007476
1.0047494
1.0014358
1.00308
1.0024386
1.0012207
1.0047836
1.0066819
1.0038285
1.0061477
1.0098765
1.0060595
1.0065378
1.0132033
1.0136447
1.0074346
1.0071347
1.0115375
1.0142673
1.0160169
1.0183896
1.0180247
1.0123415
1.0033552
1.0010121
1.0091823
1.0203505
1.0281909
1.0271628
1.0190858
1.0089183
1.0035065
1.005759
1.0049043
1.0060103
1.0057953
1.0040396
1.0010585
0.99941958
0.99947968
0.9997047
0.99990396
1.0005982
1.0019333
1.0011251
0.99823016
0.99611198
0.99677306
0.99815518
0.99882927
1.0002538
1.0007939
1.0028543
1.0057001
1.0065295
1.0073997
1.0044465
1.0012935
1.0027526
1.0016006
1.0011853
1.0043146
1.0056554
1.0043743
1.0062551
1.0083388
1.0058834
1.0074879
1.0122996
1.0119838
1.0082293
1.008621
1.011473
1.0103239
1.0128774
1.0186186
1.0220827
1.0167389
1.0054831
0.99874408
1.0038185
1.0169781
1.0285833
1.0310911
1.0234948
1.011175
1.0034976
1.0057574
1.0049097
1.0059865
1.0057929
1.0040233
1.0010376
0.99938453
0.99946057
0.99956663
0.99982321
1.0005796
1.0018378
1.0011666
0.99832589
0.99610004
0.99673381
0.99795951
0.99884573
1.00002
1.0007111
1.0025868
1.0055689
1.00663
1.0073628
1.0042121
1.00136
1.002499
1.0008575
1.0012171
1.0040791
1.0044236
1.0047041
1.0068912
1.0068473
1.0053313
1.0085413
1.0118801
1.0099095
1.0081012
1.0106755
1.0124421
1.0085533
1.0084695
1.0160558
1.0238371
1.0215069
1.0100221
1.0005925
1.0010302
1.0119845
1.0250293
1.0312283
1.0268411
1.0153045
1.0034875
1.0057552
1.0049084
1.0059868
1.0058063
1.003994
1.001022
0.99935299
0.99946899
0.99947509
0.99979697
1.0005638
1.0017013
1.0012342
0.99836726
0.99613194
0.99669478
0.99778775
0.99891143
0.99981412
1.0006631
1.002386
1.0053946
1.006821
1.0074819
1.0041653
1.0016422
1.0023878
1.0003583
1.0011906
1.0041515
1.0034784
1.0046483
1.0077073
1.0058409
1.0045062
1.0092781
1.0119413
1.00811
1.0070434
1.0123451
1.0140629
1.0088037
1.0051234
1.011921
1.0228567
1.0244681
1.0155229
1.0049123
1.0019651
1.0084286
1.0194205
1.0275511
1.0271356
1.0186193
1.0034838
1.0057534
1.0049112
1.0059849
1.0057907
1.0039833
1.0010221
0.99930149
0.99939355
0.99940055
0.9997861
1.0005071
1.0016205
1.0013493
0.998404
0.99608061
0.99661116
0.99756621
0.9989725
0.99964394
1.0005663
1.0021704
1.0051147
1.0069797
1.0076701
1.0042517
1.0020439
1.0023107
1.0001312
1.0010701
1.0042007
1.003027
1.0043946
1.0083291
1.0054454
1.0036963
1.0094858
1.0121273
1.0070399
1.0056584
1.0130033
1.0156237
1.0101391
1.0039474
1.0081733
1.0194518
1.0247413
1.0197704
1.0106029
1.0053957
1.0080479
1.0148583
1.0216046
1.023809
1.0195632
1.0034787
1.0057549
1.0049203
1.0059737
1.0057639
1.0040001
1.0010042
0.99924631
0.99928408
0.99933823
0.99971946
1.0003822
1.0015703
1.0014561
0.99841503
0.99604022
0.99653295
0.99740143
0.99895814
0.99951376
1.0004298
1.0019275
1.0048107
1.0071447
1.0078621
1.0045383
1.0025469
1.0022417
1.0001995
1.0010651
1.0041731
1.0029107
1.0040882
1.0085822
1.0056599
1.0032443
1.0091672
1.0121737
1.0066955
1.0046499
1.0124003
1.016571
1.0116783
1.0046348
1.0063816
1.0149712
1.0224609
1.0215129
1.0160394
1.0101875
1.0099982
1.0123873
1.0161381
1.0182769
1.0174711
1.0034814
1.0057563
1.0049239
1.0059619
1.0057587
1.0040195
1.0010051
0.99923465
0.99917389
0.99934047
0.99961599
1.0002459
1.0015279
1.0014874
0.99841479
0.9960533
0.99642997
0.99728635
0.99885671
0.99939204
1.0002539
1.0016834
1.004506
1.0071968
1.0079706
1.0048798
1.0030266
1.0021475
1.0003562
1.0010929
1.0040593
1.0031231
1.0039612
1.0083235
1.0061004
1.0033944
1.0085151
1.0118111
1.0068045
1.0045312
1.0109288
1.0165197
1.0128716
1.0064669
1.0065043
1.0114906
1.0180896
1.0206021
1.0190452
1.0154674
1.0132335
1.0125963
1.0124967
1.0131633
1.0130861
1.0034769
1.0057529
1.0049146
1.0059441
1.0057766
1.0040337
1.0010153
0.99918769
0.99911511
0.99935064
0.99950284
1.0000947
1.0015193
1.0015059
0.99846218
0.99608253
0.99631496
0.9972226
0.99870035
0.99931014
1.0001529
1.0015125
1.0042607
1.0072736
1.0080746
1.0053195
1.0035885
1.0021402
1.0006817
1.0012483
1.0038042
1.0034885
1.004113
1.0077226
1.0065827
1.0041315
1.0080372
1.0110009
1.0071156
1.0052192
1.0097666
1.0153707
1.0132719
1.0087735
1.0080992
1.0100952
1.0135802
1.0173382
1.0194892
1.0194384
1.0177278
1.0150563
1.0116408
1.0094579
1.0085065
1.0034838
1.0057528
1.0049066
1.005935
1.0058138
1.0040523
1.0010312
0.99913394
0.9990706
0.99933683
0.99942989
1.0000104
1.0015394
1.0015583
0.99855883
0.99613754
0.99626688
0.99723477
0.99859305
0.999303
1.0001713
1.0014313
1.0041341
1.0074029
1.0081939
1.005796
1.0041376
1.0021852
1.001102
1.0015515
1.0034426
1.0039746
1.0044751
1.0067503
1.0069644
1.0054564
1.0078333
1.0099102
1.0074528
1.0061744
1.0096066
1.0134688
1.0128681
1.010761
1.0105165
1.0107921
1.0106114
1.0128321
1.0177574
1.0214962
1.0225958
1.0191082
1.0132647
1.007407
1.0048264
1.0034777
1.0057509
1.0049028
1.0059408
1.0058601
1.0040926
1.0010679
0.99910671
0.99905574
0.99930757
0.99939135
1.0000236
1.0016202
1.0016525
0.99873243
0.99629722
0.99636049
0.99744606
0.99865403
0.99944049
1.0003281
1.0015158
1.0041741
1.0076483
1.008351
1.0063013
1.0047146
1.0022712
1.0015959
1.0019723
1.0030799
1.0046349
1.0052879
1.0059588
1.0069861
1.006864
1.008181
1.0089939
1.0075672
1.0074144
1.0103645
1.0118415
1.0116615
1.0122245
1.0132208
1.0128722
1.0096006
1.0088703
1.0145339
1.021862
1.026472
1.0239999
1.0165928
1.0077786
1.0030491
1.0034921
1.0057574
1.0049204
1.0059756
1.005945
1.0042033
1.0011836
0.99921564
0.99913936
0.999338
0.99945613
1.0001733
1.0017973
1.0018621
0.99904031
0.99660219
0.99657417
0.99776377
0.998871
0.9997118
1.000633
1.001729
1.0043182
1.0079676
1.0086109
1.0068268
1.0053069
1.0024413
1.0020457
1.0023743
1.0026
1.0050415
1.0061573
1.0053679
1.0067396
1.0082597
1.008876
1.0080828
1.0073191
1.0086764
1.0112305
1.0110307
1.0099656
1.0126261
1.0157148
1.0154977
1.0100611
1.0062613
1.0105116
1.0204745
1.0285734
1.0289506
1.0208495
1.0103067
1.0028924
1.0035125
1.0057925
1.0049949
1.0060918
1.0061334
1.0044502
1.0014411
0.99949208
0.99937444
0.99947029
0.9996451
1.0004338
1.0019665
1.0021326
0.999434
0.99702648
0.99690272
0.99821124
0.99918941
1.0000534
1.0010301
1.0020391
1.0045514
1.0082866
1.0087946
1.0073268
1.0058878
1.0026231
1.0024443
1.0029834
1.0022577
1.0052218
1.0070184
1.0050298
1.006281
1.0091593
1.0096895
1.0076761
1.0067697
1.0095052
1.0122108
1.0109618
1.0085973
1.0119102
1.0174142
1.018262
1.0117135
1.0051237
1.0068916
1.0173984
1.028913
1.0328893
1.0255761
1.0143751
1.0040535
1.0037094
1.0059647
1.0052529
1.0064294
1.006544
1.0049279
1.0019027
0.99993256
0.99971607
0.99967424
0.99987078
1.0007078
1.0021838
1.002443
0.99982425
0.99741659
0.99721289
0.9985707
0.99948644
1.0004244
1.0014034
1.0024036
1.0047764
1.0086829
1.0090962
1.0077677
1.0064257
1.0027349
1.0026352
1.0032879
1.001879
1.0050001
1.0076889
1.0048945
1.0057087
1.0095128
1.010473
1.0077249
1.0060674
1.0095506
1.0130589
1.0113159
1.0079153
1.0102421
1.0177219
1.0204522
1.0142056
1.0053226
1.0036063
1.0132189
1.0267322
1.0347655
1.0313283
1.0194445
1.007159
1.0042444
1.0064224
1.0058057
1.0070548
1.007185
1.0055881
1.0025278
1.0004904
1.0001147
0.99992352
1.0000598
1.0008302
1.0022432
1.0026405
1.0001616
0.99772977
0.99739463
0.99869318
0.99962413
1.0005355
1.0015271
1.0024361
1.004653
1.0086095
1.0092188
1.0079953
1.0069304
1.0031202
1.0026928
1.0035258
1.0017266
1.0045425
1.0077529
1.0048734
1.0051529
1.0091368
1.0105232
1.0078292
1.0056918
1.0089697
1.0124784
1.0117966
1.0081219
1.0084808
1.0162925
1.0200495
1.0167097
1.0074476
1.0032387
1.0092898
1.0218216
1.0321716
1.0321596
1.0242766
1.0129456
1.0009145
0.99796267
0.99844339
1.0000779
1.0025701
1.0060295
1.0093652
1.0114261
1.0118941
1.0097934
1.0055207
1.0008471
0.99861391
1.0006902
1.0065596
1.0133375
1.0165622
1.0153578
1.0121599
1.0135168
1.0229848
1.0351685
1.0363173
1.0215738
1.0032112
1.0019773
1.0148796
0.99956972
1.0009851
1.0053998
1.0086518
1.0110627
1.0120338
1.0116794
1.0096287
1.0057953
1.0009131
0.99738964
0.9960859
0.99767363
1.0019402
1.0061154
1.0065215
1.0030083
0.99786607
0.99666565
1.0036698
1.0165068
1.025516
1.0242006
1.0193261
1.0211969
1.031886
1.0267893
1.0118462
1.0162742
1.0196465
1.0200982
1.0189741
1.0160963
1.0123715
1.0080562
1.0046595
1.0029226
1.0030309
1.0052457
1.0085987
1.010821
1.0096509
1.0047266
0.99749109
0.99340018
0.99577261
1.0030107
1.0071505
1.0043976
0.99951653
1.0059968
1.0288977
1.0492569
1.0310371
1.0268519
1.028719
1.0272778
1.0241482
1.0199257
1.0155235
1.0121431
1.0107449
1.0113106
1.0134912
1.0170836
1.0202531
1.0211014
1.0185967
1.0130561
1.0066374
1.0032586
1.0044766
1.0090274
1.0108993
1.0044827
0.99228256
0.98698441
0.99818154
1.0214916
1.0338388
1.0168065
1.023803
1.0215982
1.0182845
1.0147294
1.0122375
1.0113251
1.0124507
1.01558
1.0202107
1.0251453
1.0283768
1.0288055
1.0261546
1.0207984
1.0153926
1.0130871
1.0157238
1.0216053
1.0248919
1.0200517
1.0076943
0.99694461
0.9965763
1.0065116
1.0115763
1.0018236
0.9947246
1.006847
1.0035473
1.0018421
1.0015712
1.0031179
1.0061513
1.0102851
1.0154472
1.0203733
1.0229768
1.0233444
1.0209837
1.0166652
1.013395
1.0143048
1.0199463
1.0284629
1.0337397
1.0313236
1.0222936
1.0137434
1.0129898
1.020046
1.0226033
1.0081696
0.98530169
0.98876335
0.99528033
0.99456749
0.99656287
0.99952239
1.0027992
1.0058709
1.008433
1.0101174
1.0103875
1.0087364
1.0050639
1.0009059
0.99944955
1.0023479
1.0096192
1.0191288
1.0259246
1.0269253
1.0220441
1.0169645
1.0194166
1.0308292
1.0406605
1.0334744
1.0092749
0.99357977
1.0040186
1.0006673
1.0029916
1.0073304
1.0097967
1.0108525
1.0104896
1.0087269
1.0054105
1.0007826
0.99572274
0.99253126
0.9920235
0.99428602
0.99882422
1.0039258
1.0072165
1.0069627
1.0033453
1.0006575
1.0062658
1.0208892
1.0380515
1.0423448
1.0291299
1.0136018
1.0169767
1.0332323
1.0172878
1.020671
1.0216418
1.0203064
1.0177035
1.0132665
1.0079044
1.0027898
0.99922556
0.99818713
0.99911924
1.0017295
1.0045755
1.0063363
1.0047806
0.99867557
0.99033481
0.98475158
0.98620916
0.99623148
1.0122207
1.023171
1.0211615
1.0129394
1.0171588
1.0405818
1.0581434
1.0273531
1.0265546
1.023869
1.020262
1.0157799
1.011373
1.0080346
1.0071616
1.0089294
1.0123902
1.0167707
1.0199343
1.0200787
1.0156192
1.0075594
0.99764642
0.99103235
0.9897996
0.99398168
0.99910501
1.0005794
0.99603529
0.98954994
0.99426371
1.0174457
1.0486546
1.0532942
1.0136978
1.0109461
1.007751
1.0051533
1.0042225
1.0051315
1.0086173
1.0135698
1.0199177
1.0266978
1.0311007
1.0316835
1.0276505
1.0200166
1.0107285
1.0047923
1.0059538
1.0113139
1.014955
1.0118069
0.99908302
0.9809753
0.97352472
0.98565933
1.0114693
1.0305925
1.0197801
0.99166664
0.98891105
0.98958966
0.99198911
0.99551347
1.0004014
1.0062563
1.0120794
1.017708
1.0215536
1.0230597
1.0211429
1.0169073
1.0127295
1.0119463
1.0171272
1.026244
1.0336865
1.033419
1.0216676
1.0018966
0.98662625
0.98637056
0.99836304
1.0062267
0.99847896
0.98053714
0.98519946
0.98664744
0.99160651
0.99546708
0.99899681
1.0017413
1.0031895
1.0035066
1.0025256
1.0003466
0.99737566
0.9943959
0.99367844
0.99790929
1.0079517
1.020631
1.0324115
1.0394753
1.035956
1.0224548
1.0091199
1.0066103
1.0161166
1.0215556
1.0097438
0.97632737
0.96027523
1.0043246
1.0080836
1.0108436
1.0118182
1.0109197
1.0074568
1.002244
0.99633124
0.98990306
0.98433694
0.98020462
0.9807101
0.98501465
0.99167847
0.9994724
1.007549
1.0138651
1.0150628
1.0112926
1.0093812
1.0149667
1.0302175
1.0451857
1.0429447
1.0136047
0.97698573
0.96808906
1.0273294
1.029595
1.0279781
1.0237257
1.0177192
1.0103438
1.002542
0.9957052
0.99040207
0.98872594
0.99105519
0.99541709
0.99984324
1.0021251
1.0007048
0.99479153
0.98653524
0.97986158
0.97996819
0.98979251
1.0108681
1.0354797
1.051323
1.044025
1.017194
0.99702748
1.0016698
1.0263174
1.0234124
1.0197467
1.0157516
1.0111411
1.0070114
1.0042103
1.0039397
1.007591
1.01361
1.0202246
1.0249201
1.025554
1.0196125
1.007677
0.99271135
0.97769944
0.96878179
0.97156266
0.98325619
0.99878434
1.0139708
1.0197039
1.013379
1.0108692
1.0214957
1.052074
0.99687856
0.99361668
0.99201211
0.99109567
0.99184537
0.99561789
1.0027392
1.0125466
1.0233013
1.033856
1.0423319
1.0455794
1.0406692
1.0295193
1.0140246
0.99849967
0.98841138
0.98947774
0.99543505
1.0008976
0.99849446
0.98620624
0.97314446
0.97264675
0.99186459
1.0325369
1.0865215
0.97092092
0.97011918
0.97318548
0.97832107
0.98539015
0.99324165
1.0013201
1.0091617
1.0173019
1.024617
1.0291679
1.0292045
1.0262251
1.0202927
1.0142531
1.0118101
1.0168422
1.02595
1.0327112
1.0288865
1.0087361
0.97957539
0.95249446
0.95259597
0.97826229
1.0266462
1.068003
0.97571899
0.98025051
0.98695133
0.99306742
0.99724089
0.9996018
1.0006141
1.0000246
0.99758757
0.99419058
0.99120608
0.98988858
0.98981842
0.99286155
1.0010666
1.0164427
1.0359784
1.0528421
1.0598335
1.0467395
1.0187952
0.98730893
0.96913416
0.97247159
0.99279013
1.0155135
1.0112877
1.0170132
1.0203898
1.0218967
1.0196632
1.0146609
1.00755
0.99859552
0.98864909
0.9798905
0.97337808
0.96944361
0.96763914
0.96952701
0.97654136
0.98947105
1.005401
1.0224083
1.0388411
1.0445232
1.0371546
1.0203447
1.007407
1.009091
1.0223977
1.033898
1.0124936
0.96319689
1.0462551
1.0477472
1.0443753
1.0367781
1.026614
1.0147068
1.0025099
0.99180325
0.98278931
0.97697044
0.9750548
0.97900557
0.98536709
0.99200194
0.99517531
0.99512864
0.9934524
0.99147558
0.99182496
0.99379957
1.0027355
1.022091
1.0513598
1.0753537
1.0725839
1.0148501
0.9515035
1.0317659
1.0288326
1.0255921
1.0222329
1.0184209
1.014505
1.0105028
1.0074773
1.006756
1.0098456
1.0154654
1.0219716
1.0257645
1.0222987
1.011679
0.99467192
0.97494545
0.95824669
0.95038574
0.95431365
0.97464393
1.0138444
1.0610875
1.0961845
1.0812005
1.0213524
0.97774512
0.99283479
0.98990928
0.98932071
0.98896247
0.98951639
0.99262802
0.99990861
1.0121057
1.0287377
1.0470881
1.0628462
1.0718548
1.0701853
1.0547868
1.0285236
1.0002089
0.97480673
0.9563913
0.94881271
0.95444019
0.97237301
0.99981448
1.0306663
1.0543584
1.0426442
1.021429
1.0233632
0.96191091
0.96067281
0.96283526
0.96639403
0.97276434
0.98199438
0.99412383
1.0085915
1.0256983
1.0452128
1.0631707
1.0751002
1.0762277
1.0655103
1.0457191
1.0189801
0.99395419
0.98019113
0.98310676
0.99421932
1.0030215
1.0053622
0.99587317
0.98021476
0.97707807
0.99759601
1.0492004
0.95583669
0.9590468
0.96641011
0.97424458
0.98296701
0.99123175
0.99891499
1.005703
1.011672
1.0166835
1.0207847
1.0246897
1.0260235
1.0270183
1.0267521
1.026149
1.0280306
1.0345526
1.0451903
1.0548334
1.0478765
1.0203602
0.97627355
0.93922725
0.9308624
0.96602735
1.0376307
0.99433453
0.9993942
1.0043299
1.0080768
1.0093855
1.0077606
1.0027751
0.99559872
0.98839316
0.98246647
0.97862931
0.97492401
0.97300287
0.97436803
0.98169518
0.99880061
1.0299422
1.0715228
1.1073864
1.1175234
1.0881707
1.0336523
0.97854957
0.93744448
0.93246072
0.95820306
1.0185482
1.0657085
1.0657591
1.0604657
1.0498515
1.0354627
1.0186248
1.0012277
0.98415754
0.96958848
0.9588944
0.95328091
0.95149204
0.95050184
0.95187958
0.96027137
0.9801934
1.0126962
1.0571058
1.1034238
1.1268506
1.1079323
1.0566254
0.99927755
0.96589277
0.96963645
0.98696759
1.0200313
1.1009941
1.099451
1.0914705
1.077502
1.0576048
1.0339926
1.0100543
0.98866274
0.97172722
0.96028489
0.95372701
0.95259794
0.95764778
0.96649703
0.97929946
0.99459645
1.0102487
1.0270464
1.0453185
1.0629775
1.0638947
1.054898
1.0351911
1.0246501
1.0317057
1.0414135
1.0412395
1.0729864
1.0667506
1.0625596
1.0569211
1.0487
1.0387938
1.0269345
1.0146827
1.0023737
0.99325364
0.9904534
0.99424412
1.0031436
1.0135703
1.0209953
1.0225766
1.0179013
1.0074369
0.99377822
0.9867418
0.99092484
1.0089821
1.0428183
1.0826867
1.1063693
1.1043288
1.0644883
1.0060185
1.0033483
1.0026793
1.0016407
1.0020853
1.0044527
1.0097365
1.018141
1.0298954
1.04529
1.0628529
1.0787569
1.088689
1.0867043
1.0727151
1.0482151
1.017219
0.98653461
0.96371863
0.94842013
0.94463351
0.96407077
1.0153331
1.0946286
1.1599706
1.1621671
1.0890126
0.95433091
0.95273209
0.95246269
0.95424512
0.95775683
0.96406906
0.97643006
0.9969536
1.0280154
1.0706836
1.1188441
1.1612226
1.180331
1.1646682
1.1219362
1.0647847
1.0092053
0.96828698
0.94759939
0.93710984
0.93681747
0.95303823
0.99739461
1.0762701
1.1642924
1.1916121
1.120834
0.93003098
0.93018099
0.93103116
0.93419099
0.94121032
0.95322884
0.97208032
0.99839639
1.0331356
1.0767786
1.127987
1.176715
1.2041892
1.1938083
1.1467467
1.079727
1.0168458
0.9718796
0.94483578
0.93859222
0.95100179
0.97231282
1.0059106
1.0638978
1.1359739
1.1793113
1.1434007
0.93644139
0.93964845
0.94302281
0.94970864
0.96002993
0.97469476
0.9955576
1.0209347
1.0483975
1.077935
1.1081691
1.1344281
1.149925
1.1461406
1.123827
1.0844621
1.0387525
0.99670461
0.96999531
0.96693042
0.98409123
1.0063067
1.0328028
1.0642458
1.104158
1.1359922
1.1350534
0.97654303
0.98154
0.98570936
0.99308371
1.0029932
1.0142082
1.0256609
1.0369657
1.0487351
1.0594669
1.0692918
1.0772687
1.0818807
1.0794802
1.0738623
1.0653781
1.05056
1.0306809
1.0184618
1.0223271
1.0387292
1.0544336
1.0654988
1.0681496
1.0689861
1.0807963
1.102226
1.0386725
1.0421225
1.0433647
1.0449518
1.0457307
1.0436857
1.0395022
1.0343428
1.0296166
1.0273557
1.0291024
1.0310682
1.0314808
1.0289511
1.0307275
1.0367529
1.0486837
1.0628815
1.0797366
1.0965463
1.1106106
1.1062265
1.0872952
1.0601535
1.0364735
1.0332766
1.061619
1.1072732
1.1056229
1.0983292
1.08776
1.0737007
1.056725
1.0390256
1.0215903
1.0076311
0.99979125
0.99793214
0.999176
1.0001439
0.99882951
1.0019758
1.0142574
1.0421206
1.0840021
1.1322937
1.1705275
1.1773892
1.1439047
1.0968727
1.0484129
1.0152532
1.0050668
1.0308534
1.1738759
1.1647241
1.1466504
1.1220342
1.0936641
1.0641895
1.0357102
1.011057
0.9926276
0.98157042
0.9775517
0.97823032
0.98057643
0.98144797
0.9851745
0.99800337
1.0316809
1.090833
1.1647449
1.2229642
1.22608
1.1716681
1.1027226
1.0435843
1.0098723
0.99948539
1.0153441
1.2377284
1.220419
1.1919582
1.154251
1.1127227
1.0720992
1.035481
1.006251
0.9848038
0.97177859
0.96666788
0.96754244
0.97086725
0.97186313
0.97512788
0.98530944
1.0161726
1.0783742
1.1665264
1.2455735
1.2616418
1.2039259
1.1227576
1.05346
1.01736
1.0041695
1.0129102
1.3053086
1.2780604
1.2371148
1.1849683
1.130337
1.0794269
1.0363215
1.0037634
0.9804499
0.9675619
0.96320042
0.96359924
0.96644708
0.96927635
0.9705976
0.97726907
1.0013373
1.0581503
1.1520761
1.2513457
1.2942909
1.2465585
1.1532311
1.0740261
1.0291337
1.0116332
1.0152561
1.3608863
1.3260802
1.2759976
1.2133273
1.1480458
1.0880272
1.0384404
1.0022099
0.97791455
0.96697761
0.96438506
0.96644962
0.96944762
0.97072508
0.9696977
0.97439669
0.99351071
1.0468076
1.1454823
1.2601549
1.3280532
1.2888092
1.1854257
1.090104
1.0366632
1.0134872
1.0141702
1.3893409
1.3509693
1.2954704
1.2275628
1.1585896
1.096218
1.0469912
1.0108102
0.98924714
0.97944277
0.97719309
0.97804979
0.97900793
0.97757909
0.97404638
0.97730696
1.0003186
1.0548457
1.1496157
1.27507
1.3548547
1.3173857
1.2027504
1.1010952
1.039612
1.0137403
1.0119669
1.3842407
1.3468157
1.2937248
1.2308676
1.1674481
1.1098065
1.0622678
1.0265322
1.0045481
0.99510091
0.99290144
0.99315794
0.99199396
0.98649939
0.98318574
0.99107446
1.0177843
1.0730904
1.1772162
1.2976022
1.3708681
1.3241711
1.2042223
1.1020314
1.042711
1.0150516
1.0118454
1.3779897
1.3404999
1.2873017
1.2273293
1.1699012
1.1188745
1.0772436
1.046476
1.0269638
1.0161235
1.0109048
1.0074308
1.0038886
0.99759405
0.99541323
1.0077949
1.0426887
1.1025659
1.2030285
1.3183999
1.3720472
1.311899
1.1956797
1.1012918
1.0482746
1.0205399
1.019119
1.3834526
1.3437407
1.2880322
1.2287019
1.1741384
1.1277392
1.0903716
1.0631395
1.0450306
1.0332959
1.0260965
1.0202375
1.0141893
1.0070982
1.0079543
1.024708
1.0636917
1.1267903
1.2276627
1.3312853
1.367453
1.2962996
1.1854129
1.1000079
1.0540567
1.0298656
1.0320248
1.4012264
1.3586425
1.298531
1.2371854
1.181902
1.1358359
1.10184
1.0771441
1.0594648
1.0465055
1.0363445
1.027062
1.0201009
1.0148407
1.0192857
1.039489
1.0776671
1.143464
1.2478175
1.3411659
1.3612234
1.2836378
1.1782295
1.0990064
1.056224
1.0360389
1.0427062
1.417046
1.3740346
1.3113836
1.2477323
1.1921001
1.145478
1.1107421
1.0847161
1.0663911
1.0531407
1.0426317
1.0332539
1.0252369
1.0207569
1.0262791
1.0461949
1.0900008
1.1612232
1.2625567
1.35009
1.3585218
1.2757017
1.1719821
1.0969957
1.0529994
1.0365409
1.0513141
1.4132007
1.375576
1.3162609
1.2539774
1.1992785
1.152852
1.1167922
1.09074
1.0726807
1.0598367
1.0487314
1.0392214
1.0317036
1.0269207
1.0317433
1.0511675
1.0968698
1.1735288
1.2740409
1.3543598
1.3520018
1.2661726
1.1700188
1.0988585
1.0545143
1.0383516
1.0566027
1.3715878
1.346075
1.2996921
1.2467669
1.197915
1.1569275
1.1228439
1.0977685
1.0804639
1.0684091
1.05903
1.0515658
1.0443195
1.0378358
1.0386218
1.057478
1.104373
1.1825568
1.274854
1.3419537
1.3352779
1.256546
1.1724605
1.1060863
1.0620667
1.0460938
1.0665743
1.2897486
1.279339
1.251964
1.2165043
1.1816645
1.1517508
1.1278993
1.1072956
1.0926404
1.0830596
1.0768824
1.0705334
1.0632296
1.0561183
1.0582382
1.0779886
1.1233678
1.1866475
1.2539108
1.2999383
1.2968275
1.2424199
1.1785542
1.1190783
1.0773107
1.0635599
1.0882524
1.198662
1.1968314
1.1825717
1.161846
1.1420493
1.1259142
1.1145123
1.1078383
1.1050894
1.1063583
1.1065202
1.1046194
1.1007057
1.0981748
1.1021331
1.1192475
1.1481085
1.1820636
1.2123268
1.2294222
1.2309855
1.2125158
1.1790304
1.1384942
1.1062275
1.0937749
1.1196595
1.1236228
1.1239377
1.1147186
1.1000794
1.0876096
1.0815666
1.0831276
1.0934702
1.1101256
1.129567
1.1466247
1.1581763
1.1648033
1.1680176
1.1680831
1.1662306
1.1642687
1.1617212
1.157327
1.1541942
1.1570035
1.1598707
1.1559
1.1482484
1.1472925
1.1505852
1.1625236
1.0816271
1.078966
1.0679688
1.0535339
1.0448533
1.0463771
1.0586233
1.0815335
1.1126585
1.1485087
1.1835569
1.2122679
1.2305466
1.2347032
1.2236429
1.2010386
1.1706329
1.1376005
1.1107852
1.0940182
1.0920594
1.0972768
1.110394
1.1377195
1.1844536