/*--------------------------------*- C++ -*----------------------------------*\
| =========                 |                                                 |
| \\      /  F ield         | OpenFOAM: The Open Source CFD Toolbox           |
|  \\    /   O peration     | Version:  2406                                  |
|   \\  /    A nd           | Website:  www.openfoam.com                      |
|    \\/     M anipulation  |                                                 |
\*---------------------------------------------------------------------------*/
FoamFile
{
    version     2.0;
    format      ascii;
    arch        "LSB;label=32;scalar=64";
    class       volScalarField;
    location    "35";
    object      rho_0;
}
// * * * * * * * * * * * * * * * * * * * * * * * * * * * * * * * * * * * * * //

dimensions      [1 -3 0 0 0 0 0];

internalField   nonuniform List<scalar> 
158064
(
1.0020866
1.0039487
1.003221
1.0033908
1.0034499
1.0034385
1.0034421
1.0034858
1.0035738
1.0037062
1.0038234
1.003892
1.0039241
1.0040018
1.0040841
1.004214
1.0042837
1.0044432
1.0045806
1.0047379
1.0048508
1.005047
1.0051492
1.0053609
1.0055254
1.0057469
1.0058792
1.0060272
1.0060607
1.0061645
1.006212
1.0062326
1.0062461
1.0063109
1.0062978
1.0062298
1.0063952
1.0065899
1.006292
1.0063135
1.00664
1.0066942
1.0062515
1.0069383
1.0068683
1.0065522
1.0062731
1.0068015
1.0073687
1.0073061
1.0067145
1.0065939
1.0065574
1.0067522
1.0067109
1.0069965
1.007157
1.0071004
1.0072733
1.0073482
1.00767
1.0076842
1.0071739
1.0073331
1.007784
1.0070237
1.0070835
1.0075729
1.0074777
1.0072765
1.0074781
1.0073918
1.0062469
1.0072783
1.0080961
1.0056303
1.0063891
1.0072628
1.0071317
1.0061461
1.0065211
1.0061056
1.0056297
1.0057781
1.0059559
1.0056165
1.0043123
1.0045445
1.0038024
1.0020869
1.0039563
1.00323
1.0033877
1.003437
1.0034277
1.0034256
1.0034653
1.0035606
1.0037004
1.0038111
1.0038893
1.0039329
1.0040084
1.0040862
1.0042055
1.0042828
1.0044263
1.004554
1.0047237
1.0048463
1.0050186
1.0051405
1.0053491
1.0055099
1.0057093
1.0058383
1.0059996
1.0060649
1.0061585
1.0061719
1.0062565
1.0062233
1.0062661
1.0062329
1.0063535
1.0063086
1.006362
1.0063999
1.0065028
1.0063916
1.0064465
1.0066417
1.0066095
1.006577
1.0067979
1.0068671
1.0067947
1.0066983
1.0069465
1.0070523
1.0071166
1.0072275
1.0071783
1.0072995
1.0073745
1.0072246
1.0073358
1.0073161
1.0074125
1.0073963
1.0075536
1.0075286
1.0072405
1.0072719
1.0074984
1.0074178
1.007342
1.007214
1.0073381
1.0067017
1.0073785
1.007294
1.006904
1.0061202
1.0077821
1.0066448
1.0064609
1.005927
1.0063944
1.0057576
1.0060272
1.0057909
1.0054453
1.0052645
1.0049566
1.0049094
1.0041721
1.0047452
1.0020904
1.0039644
1.0032374
1.0033866
1.0034311
1.0034142
1.0034109
1.0034508
1.0035482
1.0036967
1.0038162
1.0038892
1.0039321
1.0040085
1.0040867
1.0042059
1.0042796
1.0044248
1.0045567
1.0047226
1.0048343
1.0050006
1.0051197
1.0053283
1.0054937
1.0056957
1.0058225
1.0059884
1.0060612
1.0061431
1.0061792
1.0062419
1.0062276
1.0062768
1.0062398
1.0062934
1.0063141
1.0063496
1.0063583
1.0064401
1.0064482
1.0065156
1.006546
1.0066156
1.0066823
1.0067544
1.0067365
1.0067693
1.0068718
1.0069622
1.0068877
1.0069265
1.0070367
1.0070579
1.0071639
1.0070938
1.0071883
1.0073231
1.0072543
1.0073959
1.0073675
1.0073909
1.0073184
1.0074771
1.0074356
1.0071542
1.0073456
1.007433
1.0069904
1.0074015
1.0070619
1.0066346
1.0068358
1.0069413
1.0070788
1.0061786
1.0062792
1.0062959
1.006509
1.005851
1.0062478
1.0059442
1.0052874
1.0060139
1.0048146
1.0048296
1.0048455
1.0045731
1.0038973
1.0020916
1.003972
1.0032446
1.0033852
1.0034225
1.0034017
1.0033939
1.0034341
1.0035395
1.0036879
1.0038057
1.0038924
1.0039383
1.0040156
1.0040909
1.004206
1.0042765
1.0044148
1.0045349
1.0046957
1.0048203
1.0049969
1.0051098
1.0053156
1.005476
1.0056785
1.0058055
1.0059826
1.0060513
1.0061508
1.0061868
1.0062555
1.0062362
1.0062901
1.006258
1.0063106
1.006311
1.0064288
1.0063675
1.0064377
1.0064526
1.006582
1.0066475
1.0066861
1.0066234
1.0066504
1.0067129
1.0067246
1.0067184
1.006945
1.0069117
1.0070452
1.006939
1.0071645
1.0070626
1.0071221
1.0072316
1.0073053
1.0073191
1.0073378
1.0073334
1.0073643
1.0072482
1.0073987
1.0072307
1.0073248
1.0072295
1.0071246
1.0074041
1.0066062
1.0073364
1.0069211
1.0068523
1.0065621
1.006508
1.0066874
1.0062404
1.0066303
1.0055053
1.0064335
1.0052558
1.0056225
1.0052929
1.0050983
1.0051774
1.0048449
1.004081
1.0043608
1.0040141
1.0020943
1.0039794
1.0032513
1.0033853
1.0034159
1.0033897
1.0033799
1.0034213
1.0035249
1.0036808
1.0038175
1.0038969
1.0039463
1.0040167
1.004092
1.0042093
1.0042829
1.0044199
1.00455
1.0047153
1.0048191
1.0049682
1.0050796
1.005288
1.0054572
1.0056612
1.0057912
1.0059559
1.0060125
1.0061143
1.0061478
1.0062101
1.0062045
1.0062587
1.0062478
1.0062789
1.0062433
1.006332
1.0063635
1.0064106
1.0064721
1.0065322
1.0064904
1.0066009
1.0065684
1.0067279
1.0067003
1.0068152
1.0068191
1.0069503
1.0069511
1.0070516
1.0069691
1.0071263
1.0070778
1.0071989
1.0072386
1.0071369
1.0072074
1.0072588
1.0073496
1.0072907
1.0073007
1.007235
1.0072731
1.0072072
1.0072315
1.0069678
1.0071158
1.0070276
1.006576
1.00716
1.0067258
1.0067308
1.0064279
1.0065559
1.006449
1.0057901
1.0061536
1.0060261
1.0057428
1.0052447
1.005891
1.0049801
1.0049934
1.0050624
1.0051216
1.0037162
1.0040317
1.0020956
1.0039864
1.0032578
1.0033835
1.0034079
1.0033779
1.0033666
1.0034082
1.0035166
1.0036767
1.0038011
1.0038914
1.0039355
1.0040218
1.0040977
1.0042075
1.0042683
1.0043998
1.0045151
1.0046649
1.0047902
1.0049767
1.0050926
1.0052916
1.0054537
1.0056545
1.005797
1.0059753
1.0060578
1.0061691
1.006204
1.0062482
1.0062508
1.0062932
1.0062755
1.006351
1.0063238
1.0063895
1.0064092
1.0065034
1.0064977
1.0065103
1.0065807
1.0066165
1.0065868
1.006752
1.0067456
1.006701
1.006738
1.0068052
1.0068147
1.0069089
1.0070449
1.0068994
1.0070819
1.0071425
1.0071783
1.0071718
1.0072076
1.0072702
1.0072523
1.0072519
1.0072981
1.0072128
1.0072139
1.0072945
1.0070503
1.0072539
1.0066756
1.0073451
1.0069725
1.0065026
1.0068104
1.0067702
1.0068398
1.0062369
1.0061668
1.0060837
1.0063663
1.0050611
1.0058983
1.0059321
1.0048287
1.0050863
1.0056281
1.0046476
1.0048762
1.0045236
1.0040383
1.0020978
1.003993
1.0032638
1.0033839
1.0034015
1.0033685
1.0033505
1.003395
1.0035068
1.0036669
1.0038128
1.0039042
1.0039643
1.0040319
1.0041048
1.0042203
1.0042912
1.0044203
1.0045427
1.0047007
1.0047975
1.0049317
1.0050352
1.0052386
1.0054164
1.0056104
1.0057504
1.0059013
1.0059797
1.0060739
1.0061177
1.0061911
1.0061907
1.0062217
1.0061925
1.0062762
1.0062577
1.0063205
1.0062913
1.0063412
1.006357
1.0064145
1.0064956
1.006587
1.006605
1.0065806
1.0067078
1.0067133
1.0067453
1.0068277
1.0069026
1.0069491
1.0069867
1.006964
1.0069543
1.0071095
1.0070582
1.0071728
1.0072107
1.0073152
1.0071578
1.0072468
1.0071353
1.0073247
1.0071071
1.0073579
1.0069167
1.0072407
1.0069886
1.0069011
1.0066814
1.0071609
1.0064687
1.0065356
1.0064867
1.0063925
1.0061912
1.0062767
1.0058549
1.0056921
1.0055594
1.0052365
1.0050686
1.0052833
1.0046329
1.0044582
1.0039812
1.004333
1.0038169
1.0020991
1.003999
1.0032696
1.0033828
1.0033972
1.0033573
1.0033413
1.0033839
1.0034961
1.0036611
1.0038045
1.0038969
1.0039409
1.0040213
1.0040948
1.0042041
1.0042688
1.0043982
1.004519
1.0046731
1.0047897
1.0049652
1.005077
1.0052747
1.0054422
1.0056492
1.0057876
1.0059549
1.0060437
1.0061448
1.0061834
1.0062533
1.0062257
1.0062737
1.0062675
1.0063038
1.0063123
1.0063605
1.0063562
1.0063898
1.0064103
1.0065685
1.0065553
1.0066191
1.0066611
1.0066617
1.0067517
1.0066952
1.0067575
1.0068838
1.0070099
1.0070383
1.0068711
1.0070255
1.0069661
1.0070597
1.0070463
1.0070676
1.0070836
1.0072121
1.0071813
1.007259
1.0070404
1.0072574
1.0071689
1.007061
1.0072106
1.006844
1.0072414
1.0069642
1.0067353
1.0066883
1.0065069
1.0068557
1.0063474
1.0062983
1.00597
1.0061889
1.0050898
1.0058895
1.0057277
1.004673
1.0052554
1.005676
1.0045615
1.0047778
1.0048043
1.0044202
1.0031307
1.0021009
1.004005
1.0032754
1.0033822
1.0033871
1.003352
1.0033311
1.0033719
1.0034871
1.0036568
1.0038022
1.0039041
1.0039624
1.0040469
1.0041226
1.0042287
1.0042809
1.0043932
1.0045042
1.0046538
1.0047598
1.0049095
1.0050102
1.0052038
1.0053701
1.0055721
1.0057034
1.0058838
1.0059775
1.0060856
1.0061245
1.0062019
1.0061998
1.0062655
1.0063034
1.0062898
1.0062866
1.0063547
1.0063397
1.0064303
1.006432
1.006521
1.0065266
1.006576
1.0065145
1.0066231
1.0066522
1.0067137
1.0067473
1.0068023
1.0068198
1.0068568
1.0068353
1.0068779
1.0069969
1.0070163
1.0070533
1.0070248
1.0070925
1.0071083
1.0072556
1.0072105
1.007135
1.0070191
1.0072639
1.006971
1.0072201
1.006971
1.0070982
1.006834
1.0069491
1.0064241
1.0066802
1.0064221
1.0064358
1.006003
1.0063523
1.0060504
1.0059532
1.0058098
1.0054055
1.0052589
1.0057868
1.0041763
1.0045244
1.0050309
1.0039235
1.0045411
1.003574
1.002102
1.0040104
1.0032798
1.0033855
1.0033867
1.0033401
1.0033124
1.0033597
1.0034806
1.0036543
1.0038037
1.0038995
1.0039657
1.0040242
1.0041025
1.0042192
1.0042988
1.0044333
1.0045345
1.0046687
1.004765
1.0049187
1.0050292
1.0052334
1.0054021
1.0056127
1.0057375
1.005916
1.0059945
1.0061047
1.0061454
1.0062141
1.0062121
1.006233
1.0061867
1.0061892
1.0061867
1.0062784
1.0062976
1.0063807
1.0064133
1.0064342
1.0065183
1.0065859
1.0065435
1.0067135
1.0066935
1.0068277
1.0068445
1.0068463
1.0068734
1.006944
1.0070417
1.0069631
1.0070501
1.0070192
1.0070035
1.0070544
1.0070936
1.0070887
1.007236
1.0070951
1.007194
1.0069947
1.0071525
1.0071424
1.0068549
1.0071722
1.006845
1.0068801
1.0066936
1.0068162
1.0069546
1.0064709
1.0062737
1.0065151
1.0059946
1.0056253
1.0062231
1.0053394
1.0049013
1.0060311
1.0049817
1.0049537
1.00489
1.0054831
1.0046258
1.0035072
1.0044573
1.0021032
1.0040156
1.0032855
1.0033822
1.0033805
1.0033352
1.0033151
1.0033549
1.0034721
1.0036408
1.0037971
1.0039123
1.003962
1.0040578
1.0041205
1.0042096
1.0042574
1.0043676
1.0045074
1.0046807
1.0047976
1.00494
1.0050208
1.0052012
1.0053712
1.0055851
1.0057248
1.005888
1.0059777
1.0060791
1.0061369
1.006174
1.0062038
1.0062811
1.0062526
1.0063139
1.0063114
1.0063571
1.0064017
1.0064318
1.006468
1.0064782
1.0065168
1.0065555
1.0065802
1.0066405
1.0066457
1.0066895
1.0066772
1.0066901
1.0067681
1.0068408
1.0068847
1.0069429
1.0070126
1.0069864
1.0070073
1.0071016
1.007039
1.0071185
1.007152
1.0070718
1.0070928
1.0071757
1.006939
1.0072701
1.0068102
1.006999
1.0067709
1.0069985
1.0067921
1.0068109
1.0064029
1.0065664
1.0062789
1.0062415
1.0064163
1.0058374
1.0059712
1.0055217
1.0057963
1.0056661
1.0044116
1.0055225
1.0055368
1.003908
1.004742
1.0044734
1.004203
1.002104
1.0040208
1.0032894
1.0033829
1.0033768
1.0033236
1.0032971
1.003341
1.0034635
1.0036409
1.0037997
1.0039084
1.0039685
1.0040403
1.0041319
1.0042419
1.0042977
1.0044058
1.004483
1.004605
1.0047091
1.0048659
1.0049895
1.0051759
1.0053415
1.0055248
1.0056715
1.0058387
1.0059581
1.006081
1.0061381
1.0061839
1.0062117
1.0062609
1.0062329
1.0062579
1.0062868
1.0063111
1.0063432
1.0063988
1.0064734
1.0065084
1.0065277
1.0065935
1.0066922
1.0066691
1.0067022
1.0066668
1.0067008
1.006775
1.0068461
1.0069061
1.0068386
1.0069701
1.0069899
1.0070282
1.0071172
1.0070908
1.0069916
1.0070859
1.0070598
1.0071318
1.0069996
1.0072222
1.006949
1.0070349
1.0071168
1.0067743
1.0068609
1.0066068
1.0067419
1.0068418
1.0064277
1.0064865
1.0066945
1.0060477
1.0060198
1.0065957
1.0052744
1.0060351
1.0057647
1.0055169
1.0050267
1.0053637
1.0055223
1.0041234
1.0038856
1.0045037
1.0040899
1.0021048
1.0040256
1.0032954
1.0033841
1.0033717
1.0033205
1.0032911
1.0033338
1.0034575
1.0036407
1.0037981
1.0039022
1.0039763
1.0040476
1.0041205
1.0042192
1.0042921
1.0044208
1.0045354
1.0046543
1.0047551
1.004891
1.0049998
1.0051803
1.0053655
1.005573
1.0057379
1.0058985
1.0059935
1.0060959
1.0061446
1.0062129
1.0062318
1.0062276
1.0061997
1.0062034
1.0062511
1.00632
1.006288
1.0063341
1.0063729
1.0064086
1.006403
1.0064666
1.0065216
1.0065388
1.0065774
1.0066287
1.0067167
1.0068246
1.0069235
1.0069912
1.0069657
1.0069741
1.0069113
1.007021
1.0071494
1.0070403
1.0070628
1.0071032
1.0070715
1.0071445
1.0070422
1.0070734
1.0071432
1.0068408
1.0071959
1.0069026
1.0068596
1.0065843
1.0067723
1.0065915
1.0068354
1.0064162
1.0062433
1.0066269
1.005941
1.0061468
1.0056981
1.0055995
1.0056889
1.0049335
1.0058025
1.0052846
1.0046214
1.0051575
1.0050372
1.0043386
1.0040443
1.0021054
1.0040298
1.0033
1.0033854
1.0033722
1.0033106
1.0032828
1.0033212
1.003451
1.0036343
1.0037928
1.0039187
1.0039801
1.0040679
1.0041334
1.0042233
1.0042806
1.0043789
1.0045089
1.0046584
1.0047722
1.0048839
1.0049843
1.005145
1.0053235
1.0055163
1.0056772
1.0058284
1.0059279
1.0060486
1.006083
1.00616
1.0061759
1.0061715
1.0061784
1.0062185
1.0062103
1.0063009
1.0063113
1.0063434
1.0063542
1.0064413
1.0065474
1.0066393
1.0066279
1.0067176
1.0067084
1.0067575
1.0068617
1.0068655
1.0068307
1.0068187
1.0069168
1.0069055
1.0069034
1.0070322
1.0071495
1.0070646
1.0071814
1.007161
1.0071337
1.0070634
1.0070838
1.006976
1.007192
1.0068972
1.0069605
1.00718
1.0067977
1.0069519
1.0067589
1.0063036
1.0067921
1.0065967
1.006121
1.0061182
1.0063581
1.0053408
1.0060253
1.0056814
1.0057604
1.0052605
1.0058811
1.0056986
1.0045789
1.0045135
1.0048965
1.0048066
1.0038422
1.0021058
1.0040335
1.0033053
1.003386
1.003364
1.003308
1.0032795
1.0033224
1.0034473
1.0036272
1.0037945
1.0039205
1.0039826
1.0040561
1.0041384
1.0042369
1.004294
1.0043847
1.0044871
1.0046133
1.0047425
1.0048805
1.0050031
1.0051686
1.0053456
1.0055248
1.0056675
1.0058281
1.0059397
1.0060639
1.0061304
1.0061938
1.0062029
1.0062476
1.0062833
1.0063411
1.0063085
1.0063689
1.0064101
1.0064118
1.0063747
1.0064368
1.0065659
1.0065781
1.0065599
1.0066618
1.0066941
1.0067098
1.0068437
1.0068126
1.0067626
1.00674
1.006794
1.0067705
1.0067887
1.0068904
1.0069472
1.0069784
1.0071112
1.0071244
1.007148
1.0070053
1.0070467
1.0070445
1.0070115
1.007101
1.0069059
1.0071275
1.0069131
1.0068708
1.0066891
1.0067581
1.0062627
1.0065456
1.0066243
1.0059344
1.0062819
1.0059871
1.0059376
1.0058993
1.0052557
1.005585
1.0050352
1.0046563
1.0049267
1.0045414
1.0042641
1.0042071
1.0042957
1.0021062
1.0040366
1.0033101
1.0033871
1.0033697
1.0033086
1.0032774
1.0033139
1.0034407
1.0036266
1.0037976
1.0039116
1.0039787
1.0040618
1.0041402
1.0042235
1.0042884
1.0043952
1.0045032
1.0046177
1.0047157
1.0048306
1.0049394
1.005092
1.0052773
1.0054895
1.0056602
1.005823
1.0059374
1.0060378
1.0061279
1.0062054
1.0061876
1.0062423
1.0062247
1.00627
1.0062712
1.0062913
1.0063164
1.0063368
1.0063321
1.0063375
1.0064125
1.0064652
1.0065175
1.0065671
1.0066068
1.0066182
1.0067169
1.0067383
1.0067181
1.0067601
1.0068047
1.0068391
1.0069013
1.0069127
1.0068792
1.006995
1.0070378
1.0070882
1.0070705
1.0069934
1.0069816
1.0071594
1.0068562
1.0071728
1.0071169
1.0068416
1.0070612
1.0068074
1.0065907
1.0070305
1.0063657
1.0062229
1.0067917
1.0064591
1.0056682
1.0058766
1.0057823
1.0059644
1.0054182
1.0061859
1.0054917
1.0045528
1.0047878
1.0053697
1.004827
1.0040129
1.0036129
1.0021064
1.0040394
1.0033134
1.0033886
1.0033599
1.0032941
1.0032615
1.0032993
1.0034339
1.0036278
1.003791
1.0039122
1.0039919
1.0040655
1.0041441
1.0042358
1.0043012
1.0043967
1.0045145
1.004625
1.0047308
1.0048542
1.0049758
1.0051333
1.0053115
1.0055094
1.0056796
1.0058453
1.005971
1.0060485
1.0061287
1.0061737
1.0061602
1.0061789
1.0061649
1.0061774
1.006239
1.0062526
1.0062652
1.0063344
1.0064047
1.0064274
1.006445
1.0065164
1.0065906
1.0065755
1.0066361
1.0067303
1.006751
1.0068204
1.0068184
1.0068495
1.0068428
1.0068884
1.0070019
1.0070558
1.0069937
1.0070884
1.0069664
1.0070358
1.0069617
1.0069956
1.0069954
1.0071457
1.0068722
1.0070718
1.0071577
1.0067594
1.0068961
1.0068828
1.0067341
1.0066765
1.0066697
1.0065375
1.0062739
1.0063599
1.0057585
1.0061871
1.0060749
1.0056029
1.0059334
1.0054896
1.0053393
1.0052848
1.0047943
1.005172
1.0049074
1.0040338
1.0036057
1.0021065
1.0040417
1.003316
1.003387
1.0033641
1.003294
1.0032617
1.0033029
1.0034339
1.0036222
1.0037892
1.003924
1.0040035
1.0040682
1.0041427
1.0042401
1.0043072
1.0043951
1.0045077
1.0046233
1.0047422
1.0048674
1.0049816
1.0051351
1.0053127
1.0055068
1.0056591
1.0058094
1.005927
1.0060352
1.0061248
1.0061618
1.0061557
1.0062074
1.006213
1.0061981
1.0062725
1.0063228
1.0063218
1.0064004
1.0064598
1.0064594
1.0064633
1.0065426
1.0065582
1.0065879
1.0066288
1.0068185
1.0067982
1.006855
1.0068884
1.0068627
1.0068579
1.0069031
1.0069281
1.0070002
1.0069899
1.0070581
1.0069131
1.0069728
1.0069217
1.007008
1.0070789
1.0070241
1.006991
1.0069877
1.0069268
1.0069919
1.0067194
1.0068222
1.0069251
1.0063265
1.0066537
1.0070232
1.006208
1.0058079
1.0062411
1.0063021
1.0059332
1.0053531
1.0059056
1.0052033
1.00482
1.0054955
1.0054596
1.0050018
1.0041476
1.0038685
1.0047965
1.0021063
1.0040441
1.0033191
1.0033929
1.0033644
1.0032963
1.0032642
1.003299
1.003428
1.0036105
1.0037839
1.0039284
1.0039952
1.0040709
1.0041521
1.0042361
1.0042956
1.0043796
1.0044998
1.0046275
1.0047335
1.004846
1.0049487
1.0050873
1.005261
1.005451
1.0056071
1.0057636
1.0058781
1.0059901
1.0060848
1.0061336
1.006198
1.0062452
1.006292
1.0062804
1.0062768
1.0062781
1.0062536
1.0062962
1.0063702
1.0064336
1.0065221
1.0066013
1.0065792
1.0065899
1.0065569
1.0066681
1.0066616
1.0067114
1.0068117
1.0067724
1.006832
1.0068823
1.0068557
1.0069103
1.0069971
1.007029
1.0069813
1.0069872
1.007011
1.0070541
1.0071371
1.0069138
1.0070824
1.0069658
1.006744
1.0071443
1.006844
1.0067439
1.0069666
1.0063686
1.0065172
1.0068591
1.0064337
1.0058363
1.0065089
1.0062123
1.0054513
1.0059171
1.0054487
1.0053487
1.0048472
1.0052878
1.0056885
1.0051069
1.0041719
1.0036491
1.0049935
1.0021061
1.0040465
1.003321
1.0033922
1.0033596
1.0032869
1.0032513
1.0032916
1.0034229
1.0036104
1.0037907
1.0039173
1.0039861
1.0040673
1.0041564
1.0042321
1.0042859
1.0043816
1.0044976
1.0046103
1.0047171
1.004832
1.0049417
1.0050765
1.0052524
1.0054415
1.0056165
1.0057804
1.0059071
1.0060174
1.0060797
1.0061295
1.0062051
1.0061989
1.0062362
1.0062474
1.0062603
1.0063113
1.0063303
1.0063222
1.0063438
1.0063899
1.0064735
1.0065055
1.0065269
1.0066086
1.0066195
1.0066124
1.0066856
1.0067425
1.0068028
1.0067555
1.006849
1.0069077
1.0069192
1.0069357
1.0070357
1.0070246
1.0071073
1.0070573
1.0070745
1.0070837
1.0071122
1.0068896
1.0070945
1.0069076
1.0068372
1.0069856
1.0070456
1.0069115
1.0066342
1.0066112
1.0066761
1.0062642
1.0062703
1.0065208
1.0064525
1.0059624
1.0054633
1.0060078
1.0056577
1.0054723
1.0056061
1.0053627
1.005057
1.0045928
1.0046506
1.0048213
1.0047208
1.0021056
1.0040486
1.0033251
1.0033903
1.0033553
1.0032837
1.0032489
1.0032928
1.0034223
1.003615
1.0037945
1.0039121
1.0039992
1.0040719
1.004155
1.0042363
1.004301
1.0043937
1.0044924
1.0045977
1.0046978
1.0048162
1.0049308
1.0050841
1.0052656
1.0054619
1.0056378
1.0058006
1.0059281
1.0060594
1.0060993
1.0061343
1.0062046
1.0061854
1.0062071
1.006206
1.0062023
1.006264
1.0063648
1.0063598
1.0063658
1.0063911
1.0064477
1.0064323
1.006476
1.0065636
1.0066777
1.0066327
1.0067677
1.0067952
1.0068073
1.0067845
1.0068867
1.0069761
1.0070295
1.0069917
1.0070733
1.0070069
1.0071578
1.0070595
1.0070605
1.0070651
1.0070021
1.0069319
1.0070272
1.0068306
1.0070545
1.0067787
1.0070344
1.0071372
1.0063303
1.0067283
1.0069693
1.0060382
1.0059789
1.0070446
1.0062499
1.0056671
1.0061057
1.0057741
1.0055894
1.0051864
1.0058513
1.0055601
1.0048991
1.0041063
1.0046361
1.0059173
1.0052281
1.0021055
1.0040507
1.0033269
1.0033932
1.003361
1.0032885
1.0032528
1.0032873
1.0034207
1.0036133
1.0037871
1.0039254
1.004021
1.004077
1.0041561
1.0042504
1.0043208
1.0043951
1.0044932
1.0045963
1.0047034
1.0048398
1.00495
1.0050951
1.0052768
1.0054703
1.0056444
1.0057974
1.0059148
1.0060499
1.006109
1.006162
1.006208
1.0062038
1.0062005
1.0062004
1.0061567
1.0061993
1.0063239
1.0063446
1.0063584
1.0064291
1.0064714
1.0064683
1.0065334
1.006562
1.0066532
1.0066196
1.0067271
1.0067829
1.0068087
1.0068252
1.0068809
1.0069117
1.007009
1.0070028
1.0070759
1.0069917
1.0071194
1.0070533
1.0070333
1.0070336
1.0069065
1.0070285
1.0069282
1.0068477
1.0071308
1.0067666
1.0069597
1.0070529
1.006443
1.0066956
1.0069136
1.00627
1.0062407
1.0067216
1.0062525
1.0056979
1.0064475
1.0059454
1.0053453
1.0052967
1.0058249
1.0053096
1.0048749
1.004317
1.0045301
1.0053438
1.0051822
1.0021044
1.0040522
1.0033283
1.0033972
1.0033602
1.0032835
1.0032434
1.0032737
1.0034108
1.003604
1.003779
1.0039301
1.0040182
1.0040739
1.004156
1.0042493
1.0043155
1.004391
1.0045082
1.0046136
1.0047272
1.0048498
1.0049601
1.0050922
1.0052691
1.005447
1.0056174
1.0057649
1.0058853
1.0060166
1.0061002
1.006165
1.0061952
1.0061997
1.0062023
1.0062248
1.0062155
1.0062668
1.0063206
1.0063475
1.0063289
1.0063804
1.0064331
1.0064801
1.0065612
1.0065801
1.0066393
1.0066599
1.0066879
1.0067686
1.0067355
1.0068279
1.0068254
1.0067993
1.006902
1.0068974
1.0070005
1.0069946
1.0070897
1.0070942
1.0070653
1.0070249
1.006888
1.0071044
1.006846
1.0069881
1.0070499
1.0068968
1.0070059
1.0066912
1.0067752
1.0067986
1.0064754
1.0065085
1.0069172
1.0061132
1.0061431
1.0061876
1.0063168
1.0058803
1.005385
1.0058501
1.0057659
1.0050701
1.0047668
1.0051458
1.0052528
1.0045381
1.0041664
1.0021047
1.0040539
1.0033314
1.0033934
1.0033553
1.0032763
1.0032362
1.0032776
1.0034112
1.0035987
1.0037795
1.0039181
1.003997
1.0040715
1.0041564
1.0042366
1.0042933
1.0043892
1.0045125
1.0046239
1.0047293
1.0048234
1.0049282
1.0050552
1.0052295
1.0054008
1.0055789
1.0057239
1.0058589
1.0059712
1.0060618
1.0061148
1.0061709
1.0061993
1.006221
1.0062691
1.0062863
1.0063476
1.0063425
1.0063615
1.0063424
1.0063834
1.0064059
1.00649
1.0065642
1.0065931
1.006629
1.0067433
1.0067335
1.0067944
1.0067309
1.0068633
1.0068316
1.0067776
1.00685
1.0068281
1.0069127
1.0070164
1.0070673
1.0071309
1.0071336
1.007022
1.0069601
1.0071138
1.0068459
1.0071271
1.006938
1.0069898
1.0070645
1.0064544
1.0069304
1.0069616
1.006198
1.0065364
1.0071298
1.0060211
1.0059329
1.0066379
1.0061509
1.0055488
1.0055789
1.0062176
1.005669
1.0049746
1.0047439
1.0058746
1.0060942
1.004516
1.0031893
1.0021033
1.004055
1.0033321
1.0033946
1.0033583
1.0032815
1.0032442
1.0032876
1.0034132
1.0035983
1.0037846
1.003908
1.0039895
1.0040763
1.0041644
1.0042306
1.0042839
1.0043787
1.0044954
1.0046136
1.0047072
1.004797
1.0049008
1.0050291
1.0052105
1.0053904
1.0055669
1.005725
1.0058629
1.0059545
1.0060449
1.0060861
1.006149
1.0062104
1.0062424
1.0062737
1.0063121
1.0063496
1.0063352
1.006359
1.0063665
1.0064161
1.0064394
1.0065502
1.0066006
1.0065915
1.006598
1.0067816
1.0067616
1.0068133
1.006756
1.0069195
1.0068935
1.006858
1.006875
1.006873
1.0069117
1.0070353
1.0070216
1.007113
1.0071859
1.0070132
1.0070857
1.0070799
1.0069497
1.0071662
1.0069297
1.0070148
1.0069887
1.0065761
1.006871
1.006993
1.0063411
1.0066213
1.0066463
1.006345
1.0059927
1.0066675
1.0061022
1.0056288
1.0059072
1.0060563
1.005451
1.0051046
1.0051137
1.0059087
1.006064
1.0049577
1.0035682
1.0021031
1.0040559
1.0033356
1.0033973
1.0033574
1.0032862
1.0032471
1.0032827
1.0034087
1.0036014
1.003788
1.0039156
1.0040044
1.0040849
1.0041712
1.0042468
1.0043006
1.0043807
1.0044798
1.004588
1.0046878
1.004807
1.0049183
1.0050515
1.0052327
1.0054211
1.0056023
1.0057663
1.005907
1.0060043
1.0060953
1.0061282
1.0061771
1.00622
1.0062477
1.0062571
1.0063133
1.0063297
1.0063054
1.0063424
1.006386
1.0064439
1.0064903
1.0066081
1.0066097
1.0065918
1.0065911
1.0067652
1.0067674
1.0067938
1.0068031
1.0069526
1.0069653
1.0069648
1.0069435
1.0069784
1.0069729
1.0070674
1.0070157
1.0070969
1.0072081
1.007034
1.0071965
1.0070571
1.0071016
1.0071414
1.0070174
1.0070598
1.0067977
1.0069412
1.0068096
1.0067837
1.0067691
1.0068313
1.0060078
1.0065207
1.0063458
1.0064013
1.0059756
1.0059803
1.0064337
1.005757
1.0052331
1.0053569
1.0057081
1.0055368
1.0050807
1.0047517
1.0046084
1.0021016
1.0040568
1.0033375
1.0033964
1.0033547
1.0032778
1.003237
1.0032697
1.0034048
1.003606
1.0037881
1.0039283
1.0040255
1.0040922
1.00417
1.0042646
1.0043253
1.0043949
1.0044894
1.004595
1.0047014
1.0048365
1.0049561
1.005094
1.0052692
1.0054595
1.0056395
1.0058087
1.0059493
1.0060681
1.0061668
1.0062062
1.0062282
1.0062373
1.0062589
1.0062493
1.0063197
1.0063375
1.0063039
1.006346
1.0064103
1.0064833
1.0065124
1.0065925
1.0066075
1.0065928
1.0066357
1.006752
1.0067867
1.0067839
1.0068953
1.0069496
1.0070005
1.0070437
1.0069907
1.0070476
1.0070559
1.0071306
1.0070689
1.0071225
1.0072173
1.0071019
1.0072615
1.0070864
1.0072319
1.0071181
1.0071003
1.007162
1.0066809
1.0072179
1.0068897
1.0065522
1.007114
1.0069627
1.005859
1.0063923
1.0067192
1.0061357
1.0059434
1.0061742
1.0067073
1.0056588
1.0050917
1.0056182
1.0062742
1.0053166
1.0041581
1.0040394
1.0051095
1.0021014
1.0040574
1.0033377
1.0033955
1.003354
1.0032726
1.0032327
1.0032683
1.0034068
1.0036068
1.0037893
1.0039388
1.0040341
1.0040967
1.0041709
1.0042736
1.0043456
1.0044212
1.004523
1.0046303
1.0047411
1.0048693
1.0049871
1.0051207
1.0052934
1.0054833
1.0056552
1.0058277
1.0059576
1.0060924
1.0062033
1.0062672
1.0062797
1.006292
1.0063196
1.0063011
1.006362
1.006367
1.006357
1.0063924
1.006442
1.0065133
1.0065329
1.0065947
1.0066371
1.0066714
1.0067395
1.0067835
1.0068469
1.006815
1.0069806
1.006953
1.0069973
1.0071052
1.0070392
1.0070847
1.0071345
1.0071981
1.0071628
1.0072004
1.0072545
1.0072232
1.0072853
1.0071765
1.007304
1.0071519
1.0071758
1.0072383
1.0067892
1.0072197
1.0071009
1.0065265
1.0072058
1.0068594
1.0063001
1.0062203
1.0068623
1.0059796
1.006145
1.006348
1.0065083
1.0057314
1.0052504
1.005695
1.0063117
1.0054616
1.00412
1.0037036
1.0050598
1.0020996
1.0040576
1.0033424
1.0033983
1.0033563
1.0032802
1.003241
1.0032792
1.0034127
1.0036082
1.0037968
1.0039465
1.0040422
1.0041132
1.0041933
1.0042869
1.0043643
1.0044561
1.0045687
1.0046868
1.0047997
1.0049131
1.0050189
1.0051453
1.0053193
1.0055046
1.0056695
1.0058378
1.0059655
1.006089
1.0062058
1.006287
1.0063229
1.006369
1.006406
1.0063901
1.0064337
1.0064229
1.006444
1.0064697
1.0065067
1.0065647
1.0065751
1.0066274
1.0067089
1.0067925
1.0068559
1.0068235
1.0069377
1.0068523
1.0070648
1.0069968
1.007028
1.0071533
1.0070895
1.0071073
1.0072031
1.0072383
1.0072685
1.007306
1.0072949
1.0073608
1.0072926
1.0072986
1.0073301
1.0072441
1.0072501
1.0072706
1.0071179
1.0070874
1.0071902
1.0068741
1.0070793
1.0065974
1.0069376
1.0063422
1.0067745
1.0060898
1.0064185
1.0066302
1.0060905
1.0059307
1.0057557
1.0058471
1.0059543
1.0053951
1.0048424
1.0044036
1.0049835
1.0020998
1.0040579
1.0033409
1.0034014
1.003365
1.0032939
1.0032567
1.0032994
1.0034316
1.0036294
1.0038291
1.0039744
1.0040711
1.0041599
1.0042502
1.0043364
1.0044065
1.0045026
1.0046264
1.0047518
1.0048606
1.0049653
1.0050678
1.0051943
1.0053692
1.0055541
1.0057208
1.0058907
1.0060213
1.0061377
1.0062413
1.0063179
1.0063797
1.0064626
1.0065162
1.0065137
1.0065443
1.006531
1.0065784
1.0066061
1.00663
1.0066677
1.0066806
1.0066872
1.0068117
1.0069081
1.0069603
1.0068772
1.0070231
1.006936
1.0071562
1.0070511
1.0070838
1.0072132
1.0071957
1.0071957
1.0072797
1.007283
1.0073694
1.0074194
1.0073568
1.0074904
1.0073282
1.0074365
1.0073654
1.0073667
1.0073552
1.0072764
1.0075017
1.0070084
1.007158
1.0074466
1.0068808
1.0064726
1.0073528
1.006784
1.0065041
1.006406
1.0065467
1.0069345
1.0058013
1.0060647
1.0064031
1.0062725
1.0055804
1.0051666
1.0055171
1.0057346
1.0054751
1.002099
1.0040604
1.003354
1.0034141
1.0033841
1.003318
1.0032897
1.0033425
1.0034844
1.0036892
1.0038954
1.0040427
1.0041455
1.0042503
1.00435
1.0044347
1.0044904
1.0045824
1.0047067
1.004835
1.004938
1.0050522
1.005162
1.0052959
1.0054653
1.0056524
1.0058167
1.0059925
1.0061237
1.0062531
1.0063421
1.0064102
1.0064643
1.0065574
1.006635
1.0066684
1.006703
1.0067102
1.0067631
1.0067926
1.0067939
1.0068015
1.0068224
1.0067923
1.0069239
1.0070195
1.0070566
1.0069829
1.0071163
1.0070762
1.0072341
1.0071367
1.0071751
1.0073026
1.0073406
1.007341
1.0073853
1.0073721
1.0074815
1.0075309
1.0074421
1.0075886
1.0074172
1.00755
1.0074381
1.0074849
1.0074917
1.0073243
1.0077599
1.0071331
1.007101
1.0079142
1.0068504
1.0066001
1.0074497
1.0073394
1.0063568
1.0068125
1.0066389
1.0070873
1.005846
1.0061387
1.0067845
1.0069564
1.0055577
1.0050229
1.0059404
1.0068423
1.0062653
1.0021083
1.0040692
1.0033737
1.0034524
1.0034359
1.0033827
1.0033709
1.0034381
1.0035915
1.0038016
1.004009
1.004164
1.0042719
1.0043834
1.0044835
1.0045681
1.0046179
1.0047024
1.0048209
1.0049475
1.00505
1.0051758
1.0052891
1.0054288
1.0055874
1.005774
1.0059346
1.0061188
1.0062551
1.0064057
1.0064862
1.0065455
1.0065969
1.0066905
1.0067704
1.0068349
1.0068701
1.0068985
1.0069393
1.0069726
1.0069632
1.006948
1.0069739
1.0069413
1.007039
1.0071288
1.0071534
1.0071476
1.0072203
1.007262
1.0073248
1.0072893
1.0073474
1.0074221
1.0074992
1.0075193
1.0075214
1.0075054
1.0076225
1.0076603
1.0075842
1.0076804
1.007584
1.0076563
1.0075677
1.007612
1.0076514
1.0074453
1.007821
1.0074078
1.007158
1.0079945
1.0070213
1.0070313
1.0073587
1.0076622
1.0064991
1.0071184
1.0068004
1.0070072
1.0062571
1.0062894
1.0068722
1.0072495
1.0059194
1.0052113
1.005977
1.0071995
1.0065219
1.0021401
1.0041016
1.0034456
1.0035542
1.0035554
1.0035208
1.0035229
1.0035909
1.0037438
1.0039524
1.0041593
1.0043185
1.0044287
1.0045311
1.0046256
1.004712
1.0047662
1.004842
1.0049535
1.0050793
1.0051875
1.005323
1.005434
1.0055692
1.0057199
1.0059024
1.0060608
1.0062383
1.0063764
1.0065358
1.0066278
1.0066871
1.0067467
1.0068372
1.0069079
1.0069891
1.0070202
1.0070557
1.0070851
1.007126
1.0071174
1.0070949
1.0071333
1.0071085
1.0071655
1.0072456
1.0072588
1.0073269
1.0073436
1.0074388
1.0074305
1.007478
1.0075613
1.0075658
1.0076455
1.0076898
1.0076457
1.0076355
1.0077711
1.0078005
1.0077762
1.0077865
1.0077945
1.0077679
1.0077226
1.0077506
1.00781
1.007699
1.0077656
1.0077193
1.0074882
1.0077216
1.0073827
1.0076064
1.007324
1.0076135
1.007018
1.0073557
1.0071492
1.0069199
1.0068361
1.0068035
1.00684
1.0070874
1.0063755
1.006016
1.0061143
1.0067018
1.0063326
1.0022535
1.004186
1.0036336
1.0037502
1.0037476
1.0037132