/*--------------------------------*- C++ -*----------------------------------*\
| =========                 |                                                 |
| \\      /  F ield         | OpenFOAM: The Open Source CFD Toolbox           |
|  \\    /   O peration     | Version:  2406                                  |
|   \\  /    A nd           | Website:  www.openfoam.com                      |
|    \\/     M anipulation  |                                                 |
\*---------------------------------------------------------------------------*/
FoamFile
{
    version     2.0;
    format      ascii;
    arch        "LSB;label=32;scalar=64";
    class       volScalarField;
    location    "35";
    object      rho_0;
}
// * * * * * * * * * * * * * * * * * * * * * * * * * * * * * * * * * * * * * //

dimensions      [1 -3 0 0 0 0 0];

internalField   nonuniform List<scalar> 
62344
(
1.0036867
1.0057544
1.004476
1.0056817
1.0055932
1.0042382
1.0019337
1.0006522
1.0009556
1.0013948
1.0018579
1.0021116
1.0019519
1.0012315
0.99929708
0.99785486
0.99833592
1.000143
1.0012157
1.0026668
1.0043393
1.0037783
1.0032859
1.0039702
1.0057321
1.005538
1.0039826
1.0008542
1.0044194
1.0066492
1.0047239
1.0047037
1.0101518
1.0073107
1.0074358
1.0139728
1.0132646
1.0057819
1.0079729
1.0168513
1.01647
1.0052012
1.0004583
1.0098378
1.0225693
1.0221593
1.0077802
0.99659166
1.0011445
1.0161096
1.0255048
1.0182029
1.0010931
0.9935061
1.0003902
1.0036869
1.005754
1.004509
1.0057542
1.0055969
1.0042353
1.0018873
1.0005417
1.000978
1.0012613
1.0015716
1.0021636
1.0020645
1.0010182
0.99916514
0.99757773
0.99822332
0.99984242
1.0007599
1.0026435
1.003874
1.0039559
1.0040359
1.0038287
1.0062268
1.0056633
1.0037999
1.0004496
1.0044972
1.0068579
1.0036433
1.0050528
1.01004
1.0074679
1.007667
1.0125591
1.0112496
1.007693
1.0112737
1.0160984
1.0130658
1.0063651
1.0057352
1.0129209
1.0193359
1.017379
1.0087821
0.99913525
1.0021474
1.0149856
1.0266057
1.025939
1.0091993
0.99073989
0.98445432
1.003663
1.0057451
1.0045439
1.0057977
1.0056447
1.004241
1.0018029
1.0004757
1.000796
1.0011601
1.0014846
1.0019211
1.0018766
1.0009387
0.99908198
0.99752814
0.99805671
0.99965999
1.0005293
1.0023437
1.0037933
1.0038501
1.0048583
1.0041919
1.0064593
1.005853
1.003463
1.0006
1.0046016
1.0063939
1.0026214
1.0058478
1.0096096
1.0076314
1.0084891
1.0110801
1.0089699
1.0102925
1.0151119
1.0139656
1.0073849
1.0065649
1.0128525
1.015339
1.014121
1.0083005
1.0082297
1.0099999
1.0102938
1.01249
1.0152436
1.0163252
1.011979
1.0031052
0.99604863
1.0036349
1.0057458
1.0045698
1.0058042
1.0056678
1.0042325
1.0016712
1.0003066
1.0005958
1.0010223
1.0012196
1.0018359
1.0020227
1.0009896
0.99905354
0.99748661
0.9980851
0.99964333
1.0002783
1.0019518
1.00397
1.0037822
1.0050047
1.0048129
1.0064623
1.0055289
1.0030363
1.0009805
1.0048903
1.0055763
1.0022895
1.0067545
1.0091157
1.0072398
1.0095884
1.0111898
1.006798
1.0110221
1.0183159
1.013997
1.0039013
1.005128
1.0168258
1.0198008
1.0112283
1.0028954
1.0054661
1.0158108
1.0208158
1.0143649
1.005811
1.0019179
1.0060526
1.0127473
1.0170248
1.0036136
1.0057488
1.004613
1.0058349
1.0057213
1.0042123
1.0016164
1.0002099
1.0005841
1.0009102
1.0011705
1.0019572
1.0023712
1.0011388
0.9988097
0.99723682
0.99790902
0.99957498
1.0001415
1.0016981
1.0036081
1.0039616
1.0045915
1.0050169
1.006262
1.0047814
1.0022066
1.0011227
1.0049219
1.0043228
1.0024363
1.0075639
1.008512
1.0062155
1.0099576
1.0120974
1.0059015
1.0095491
1.018558
1.0153322
1.0047444
1.0048254
1.016119
1.0218757
1.0112921
1.002132
1.0041231
1.0151202
1.0237147
1.0181949
1.0047163
0.9950989
0.99786199
1.0109498
1.0256066
1.0035956
1.0057487
1.0046551
1.0058611
1.0057344
1.0042392
1.0015482
1.0001715
1.0005233
1.0007726
1.0012015
1.0020604
1.002306
1.0011424
0.9989331
0.9971379
0.99774559
0.99940868
1.000031
1.0015559
1.0028957
1.0041574
1.0043444
1.0049681
1.0059067
1.0041867
1.0015983
1.001217
1.0047285
1.0029217
1.0025243
1.0080318
1.0081027
1.0050134
1.009574
1.0126682
1.0063371
1.0078824
1.0165119
1.0160284
1.0079491
1.0073549
1.014128
1.0183035
1.0119419
1.0053242
1.0058726
1.0129341
1.018754
1.0171942
1.0082222
0.99958556
0.99902918
1.008142
1.0215445
1.0035953
1.0057557
1.0046882
1.0058825
1.0057505
1.0042182
1.0015046
1.0001461
1.0004576
1.000721
1.0011718
1.0018932
1.0020498
1.0012296
0.99888669
0.99699481
0.99762765
0.99909145
0.99988228
1.0013527
1.0022899
1.0039924
1.0044685
1.0050806
1.0056804
1.0039234
1.0012102
1.0012859
1.0043722
1.0019241
1.0023931
1.008035
1.0077647
1.0043622
1.0088096
1.0119451
1.0073115
1.0075327
1.013838
1.0145619
1.0111899
1.0116287
1.0134153
1.0112775
1.0105846
1.0096519
1.0105816
1.0127789
1.0116665
1.0102695
1.009012
1.0083829
1.0095078
1.0129858
1.0181793
1.0035962
1.0057644
1.0047114
1.0058973
1.0057623
1.0042212
1.0014819
1.0000886
1.000411
1.0007619
1.0010501
1.001643
1.0019908
1.0012578
0.99847815
0.99666302
0.9973901
0.99874363
0.99964259
1.0009653
1.002005
1.0037085
1.0048162
1.0054685
1.0056396
1.0040337
1.0011799
1.0016753
1.0042069
1.0015256
1.0024043
1.0079725
1.0072672
1.0047099
1.0083744
1.0104213
1.0078437
1.0085818
1.011983
1.0120671
1.0127868
1.0151411
1.0144365
1.0067492
1.0060655
1.011419
1.017062
1.0159723
1.0086177
1.0030938
1.0048609
1.0125455
1.0199895
1.0235704
1.0216034
1.003601
1.0057675
1.0047368
1.0058926
1.0057804
1.0042048
1.0014254
0.99999719
1.0002763
1.0006344
1.0007573
1.0015271
1.002086
1.0011067
0.99815442
0.99642982
0.99707656
0.99844291
0.99943988
1.0006082
1.0018499
1.0034502
1.0051456
1.0059538
1.0059094
1.0043264
1.0014221
1.0021094
1.0041146
1.001523
1.0027316
1.0080065
1.0064659
1.0055972
1.0088059
1.0087169
1.0076509
1.0104313
1.0114879
1.0095467
1.0122874
1.0174436
1.0163584
1.0068096
1.0018647
1.0095041
1.0202723
1.0205449
1.0109733
1.0016326
1.0004533
1.0098272
1.0230958
1.0303123
1.0278071
1.0035961
1.0057808
1.0047645
1.0059052
1.0058119
1.0041883
1.0013925
0.99992544
1.0001634
1.0004021
1.0006868
1.0014437
1.0021381
1.0010261
0.99807563
0.99642057
0.99691724
0.99825314
0.99931602
1.0004405
1.0017064
1.0034137
1.0053899
1.0064306
1.006389
1.0047765
1.0016787
1.0025398
1.0041824
1.0016972
1.0033763
1.007968
1.0055584
1.0064327
1.009947
1.0073406
1.0069979
1.0124137
1.0122298
1.0076302
1.0102969
1.0185971
1.0183051
1.0094911
1.0015783
1.0069331
1.0182041
1.0220929
1.0156493
1.0051659
1.0011343
1.0073026
1.0190899
1.0291091
1.0295147
1.0035832
1.005791
1.0047867
1.0059294
1.0058121
1.0041573
1.0013346
0.9998049
1.0000293
1.0001304
1.0005656
1.0012142
1.0019768
1.0010644
0.99822738
0.99657437
0.99697837
0.99830285
0.99919486
1.0004542
1.0015494
1.0035087
1.0055879
1.0067097
1.0069314
1.0051365
1.0018962
1.0029155
1.004149
1.0017183
1.0040298
1.0079986
1.0046899
1.0064599
1.0111051
1.0067295
1.0059936
1.0136899
1.0136058
1.0068693
1.007845
1.0175778
1.0199891
1.0130388
1.0052612
1.0067453
1.0129689
1.0184778
1.0169796
1.0105687
1.0066582
1.0091754
1.0158855
1.0225546
1.0250191
1.0035663
1.0057922
1.0048058
1.0059296
1.0058031
1.0041578
1.0012744
0.9996876
0.99988339
0.99996234
1.0004097
1.0009774
1.0017913
1.0011354
0.99830926
0.99666821
0.99705169
0.99849165
0.99917335
1.0005494
1.0013434
1.0035697
1.0057606
1.0068247
1.0073772
1.0053542
1.0019788
1.0031331
1.0039293
1.0015382
1.0044939
1.0078906
1.0040622
1.0060205
1.0116139
1.0067988
1.0051732
1.0138979
1.0149065
1.0070012
1.0060619
1.0148796
1.0203927
1.0160039
1.0106891
1.0090209
1.010056
1.0114468
1.0133082
1.0132587
1.0141008
1.0152001
1.0171885
1.0177151
1.0176852
1.0035519
1.0057909
1.0048237
1.0059334
1.00583
1.0041388
1.0012334
0.99958725
0.99978002
0.99994966
1.0002619
1.0007924
1.0018222
1.0012362
0.99842912
0.99657969
0.99700767
0.99853706
0.99910224
1.000588
1.0011427
1.0034135
1.0057998
1.0067616
1.007608
1.0053762
1.0018357
1.0031533
1.0035007
1.0013625
1.0046089
1.0075974
1.0038529
1.0056218
1.0110773
1.0069279
1.0051707
1.0132616
1.0151975
1.0075739
1.0058162
1.0121052
1.0181316
1.0170329
1.0155964
1.0134531
1.0108278
1.006018
1.0061016
1.0115414
1.0182798
1.0227596
1.0221083
1.0180213
1.0124013
1.0035408
1.0057859
1.0048471
1.005948
1.0058164
1.0041084
1.0011933
0.99951205
0.99961828
0.9999148
1.0001212
1.0006325
1.0019388
1.0012942
0.99846638
0.99634239
0.99690857
0.99836668
0.99895554
1.000479
1.0009614
1.0030868
1.0057411
1.0066244
1.0076269
1.0051784
1.0015634
1.0029615
1.0027858
1.0011357
1.004364
1.0069567
1.0040353
1.0055321
1.0098998
1.0067407
1.0058969
1.0123318
1.0143468
1.0082846
1.0067406
1.0107819
1.0138596
1.0156378
1.0181196
1.0185737
1.0141536
1.0049669
1.0003375
1.0064158
1.0176799
1.0267802
1.0282124
1.0217894
1.0119037
1.0035295
1.0057836
1.0048705
1.0059582
1.0057693
1.0040869
1.0011473
0.99944264
0.9994981
0.9997599
0.99994951
1.0005694
1.0019567
1.0013043
0.99843739
0.99619569
0.99675129
0.99814906
0.99887745
1.0002642
1.0008099
1.0027425
1.0056455
1.0065558
1.0075497
1.0048809
1.0013816
1.0027116
1.0019366
1.0010134
1.0040126
1.0059404
1.0044044
1.0058351
1.0084689
1.0061754
1.0069873
1.0117005
1.0125684
1.008678
1.0083743
1.0111702
1.0104611
1.0118466
1.017622
1.0222432
1.0188028
1.007652
0.99914431
1.0013565
1.0135585
1.0261081
1.0315515
1.0265174
1.0149089
1.0035208
1.0057785
1.0048727
1.0059365
1.0057615
1.0040718
1.001122
0.99940843
0.99948702
0.99962108
0.99985491
1.0005644
1.0018767
1.001328
0.99854162
0.99618935
0.99673324
0.99797647
0.99889407
1.0000542
1.0007453
1.0024691
1.0054967
1.0066001
1.0075136
1.0046596
1.0014208
1.0025434
1.0011782
1.0009704
1.0038492
1.0047
1.0045806
1.0066245
1.0071728
1.0052884
1.0079667
1.0116925
1.0104414
1.0081583
1.0102466
1.0125739
1.0092432
1.0076474
1.0142661
1.0232677
1.0230991
1.0125453
1.0018582
0.99964576
1.0086964
1.0219376
1.0307624
1.0292099
1.0189622
1.0035108
1.0057735
1.0048701
1.0059284
1.0057785
1.0040419
1.0011019
0.9993747
0.99949156
0.99952146
0.99983513
1.0005885
1.0017479
1.0013938
0.99860513
0.99622978
0.99671236
0.99781639
0.99894555
0.99986918
1.0007184
1.0022723
1.00531
1.006767
1.0076271
1.004609
1.0016745
1.0025039
1.0006463
1.0009171
1.0040171
1.003724
1.0043593
1.0075772
1.0063799
1.0042861
1.0084848
1.0121406
1.0087228
1.0068078
1.0114855
1.0145242
1.0098476
1.0050221
1.0097702
1.0213881
1.0252562
1.0179815
1.0067265
1.0014912
1.0061339
1.0165558
1.0263707
1.0284745
1.0213823
1.0035071
1.0057691
1.004871
1.0059177
1.0057656
1.0040279
1.0010913
0.99931616
0.9994195
0.99943711
0.99982273
1.0005576
1.0016509
1.0015246
0.9986633
0.99620907
0.99664523
0.99762292
0.999001
0.99970403
1.0006377
1.0020676
1.0050361
1.0069188
1.0078243
1.004689
1.0020802
1.0024707
1.0003775
1.0007395
1.0041766
1.0032969
1.003932
1.0082452
1.0061131
1.0034623
1.0084887
1.0125157
1.007837
1.0052176
1.0117512
1.0160782
1.0114446
1.0044186
1.0063698
1.0173156
1.0245981
1.0216727
1.0125626
1.0055557
1.0067654
1.0130177
1.0205122
1.0239743
1.0212536
1.0035018
1.0057695
1.0048771
1.0059104
1.0057375
1.0040375
1.0010713
0.99926408
0.99930279
0.99938006
0.99974876
1.000433
1.00159
1.0016241
0.9986862
0.99618548
0.99657696
0.99746893
0.99897439
0.99956544
1.0005035
1.0018361
1.0047407
1.007077
1.008034
1.0049409
1.0026056
1.002425
1.0004226
1.0007027
1.0041474
1.0031967
1.0035469
1.0084872
1.006385
1.0030665
1.0081252
1.0125048
1.0077215
1.0041287
1.0110329
1.0166821
1.0131102
1.0053901
1.005238
1.0128779
1.0215052
1.0225823
1.0175288
1.0109208
1.0095562
1.0117027
1.0154775
1.0181705
1.0180617
1.0035043
1.0057709
1.0048818
1.0059057
1.0057225
1.0040545
1.0010844
0.99924931
0.99918033
0.9993905
0.99966028
1.000269
1.0015432
1.0016517
0.99868611
0.99618461
0.99645693
0.99732777
0.99886132
0.99943513
1.0003153
1.0016082
1.0044335
1.0071294
1.0081834
1.0052412
1.0031167
1.0023374
1.0005931
1.0007801
1.0039913
1.0034212
1.0034816
1.0081582
1.0067794
1.0032971
1.0076144
1.0119624
1.007935
1.0040185
1.0097079
1.016192
1.0142125
1.0072617
1.0059588
1.0100343
1.0168066
1.0206818
1.0197331
1.0162855
1.0134509
1.0128349
1.0126013
1.0130727
1.0131282
1.0034995
1.0057691
1.0048744
1.0058912
1.0057342
1.0040679
1.0011008
0.99920556
0.99910729
0.99940382
0.99956986
1.0001065
1.0015346
1.0016803
0.99872153
0.99620367
0.99632969
0.99722843
0.9987026
0.99935255
1.0001927
1.0014486
1.0041707
1.0071988
1.0083008
1.0056455
1.0037525
1.0023118
1.0008728
1.0010069
1.0036711
1.0037221
1.0037612
1.0074983
1.0070549
1.0041137
1.0073784
1.0109683
1.0081218
1.0048294
1.0087883
1.0147842
1.0142996
1.0094179
1.0078751
1.0094799
1.0127356
1.0165221
1.0192978
1.0196509
1.0184162
1.0158753
1.0124951
1.0099256
1.008658
1.0035059
1.0057711
1.0048661
1.0058739
1.0057707
1.0040845
1.0011157
0.9991581
0.99906327
0.99937522
0.99950429
1.0000042
1.0015587
1.0017425
0.99881463
0.99626218
0.99628165
0.99723329
0.99859901
0.9993461
1.0001886
1.0013744
1.0040199
1.0073148
1.0084413
1.0060542
1.0044
1.002361
1.0012469
1.0014253
1.0032611
1.0040656
1.0043208
1.0066269
1.0072081
1.0054419
1.0074114
1.0099578
1.0079859
1.0060212
1.0088229
1.0130022
1.0133681
1.0110565
1.0104983
1.0106953
1.0106792
1.0116977
1.0166276
1.0208744
1.0230523
1.0202589
1.014862
1.0087625
1.0052831
1.0034994
1.0057709
1.0048633
1.0058689
1.0058174
1.0041203
1.0011469
0.99913404
0.99906292
0.99933978
0.99945823
1.000025
1.0016345
1.0018342
0.99897859
0.9964249
0.9963742
0.99744838
0.99867425
0.99948852
1.0003417
1.0014721
1.0040431
1.0075298
1.0086173
1.0065085
1.0050123
1.0024736
1.0016788
1.0019564
1.0029242
1.0045321
1.0052033
1.0059038
1.0069448
1.0068696
1.0080073
1.0091777
1.0076199
1.0074636
1.0097068
1.0117609
1.0117373
1.0120597
1.01309
1.0131912
1.010484
1.0081823
1.0127582
1.0202907
1.0261965
1.0252597
1.0187565
1.0098646
1.0039965
1.0035132
1.0057803
1.0048845
1.0059005
1.0059008
1.0042287
1.0012578
0.99924638
0.99915728
0.9993735
0.99951191
1.0001848
1.001806
1.0020325
0.99928441
0.99673864
0.99659822
0.99779008
0.99889922
0.99977023
1.0006466
1.0017124
1.0041693
1.0078175
1.008885
1.0069519
1.0056827
1.0026725
1.0020334
1.0024692
1.0025332
1.004801
1.0062359
1.0054963
1.0064647
1.0081475
1.0088471
1.0084716
1.0071408
1.0085112
1.0108299
1.0113914
1.0097871
1.0119941
1.0152617
1.0161184
1.0115343
1.0062865
1.0087742
1.0179811
1.027418
1.0297957
1.0234064
1.0129012
1.0045274
1.0035334
1.0058176
1.0049606
1.0060224
1.006084
1.0044801
1.0015164
0.99951665
0.99939462
0.99951852
0.99968893
1.0004581
1.0019696
1.0022966
0.99968602
0.99719768
0.99695034
0.99824324
0.99922692
1.0001264
1.0010536
1.0020512
1.0043947
1.0081145
1.0090764
1.0074286
1.006273
1.0028977
1.0023237
1.003105
1.0022224
1.0048212
1.0071202
1.0052928
1.0058774
1.0088847
1.0098792
1.0081441
1.0065222
1.0090132
1.0120268
1.0115833
1.0084951
1.0108443
1.0165801
1.0189877
1.0134999
1.0059734
1.005451
1.0144425
1.0268034
1.0328601
1.02821
1.0173613
1.0063114
1.0037302
1.0059899
1.0052174
1.0063679
1.0064891
1.0049665
1.0019809
0.99995308
0.99973555
0.99973438
0.99990649
1.0007328
1.0021816
1.0025876
1.0000854
0.99759252
0.99726848
0.99861146
0.99954094
1.0005064
1.0014265
1.0024155
1.0046124
1.0084633
1.009353
1.0078368
1.006806
1.0030806
1.0025155
1.0034596
1.0019454
1.0045382
1.0077517
1.0052571
1.0053068
1.0089828
1.0108291
1.008184
1.0059973
1.0087298
1.0129082
1.0120303
1.0081424
1.0090302
1.0163656
1.0208775
1.0160385
1.0069395
1.0029842
1.0103063
1.0236003
1.0337741
1.033235
1.0229185
1.0100273
1.0042649
1.0064475
1.0057682
1.0069992
1.0071265
1.0056306
1.0026102
1.0005104
1.0001298
0.99998486
1.0000951
1.0008559
1.0022451
1.0027674
1.0004293
0.99793728
0.9974545
0.99873472
0.9996821
1.000621
1.0015636
1.0024722
1.0045171
1.0083725
1.009469
1.0080555
1.0073136
1.0034773
1.0025397
1.0036796
1.0018618
1.0040637
1.0077784
1.0053568
1.0048935
1.0084751
1.0108041
1.0083139
1.0059261
1.0079079
1.0123268
1.012488
1.0085112
1.0074785
1.0148057
1.0201272
1.0181496
1.0093174
1.0034268
1.0069501
1.0186532
1.0302078
1.0330387
1.0270656
1.0159246
1.0025534
0.99888172
0.99884422
0.99984241
1.001981
1.0052574
1.0090881
1.0119101
1.0132618
1.0121495
1.0086142
1.0039019
1.0008403
1.001879
1.0071275
1.0144405
1.0193349
1.0196691
1.0164307
1.0156009
1.0225489
1.0340442
1.0361612
1.0212319
0.99983459
0.99574782
1.0119587
0.99869402
0.99949133
1.0033166
1.0064953
1.009298
1.0108761
1.0111449
1.0097891
1.006671
1.0020696
0.99809026
0.99586243
0.9966954
1.0006054
1.0053167
1.0072686
1.0053325
1.0009233
0.99904132
1.0048889
1.0177486
1.0287536
1.0288343
1.0214089
1.0175352
1.0250187
1.0255552
1.0090865
1.0132707
1.0172182
1.0181893
1.0175857
1.0153862
1.0122613
1.0080202
1.0040339
1.0014033
1.0008781
1.0027041
1.005973
1.008825
1.0086714
1.004496
0.99740523
0.99263099
0.99426581
1.0017822
1.0083661
1.0085273
1.0045747
1.008884
1.0283374
1.048334
1.0333996
1.0251804
1.0279396
1.0270677
1.0241231
1.020274
1.0158083
1.0118094
1.0093923
1.0091356
1.0106866
1.0139118
1.0172448
1.0189385
1.0173478
1.0123655
1.0057062
1.0010916
1.0010271
1.005421
1.0090309
1.0047208
0.99366519
0.98735219
0.99766632
1.02328
1.0404047
1.0222445
1.0263104
1.0243012
1.0210784
1.0173389
1.0140618
1.0120729
1.0121636
1.014506
1.0184697
1.0232079
1.0269947
1.0283261
1.0265441
1.0215923
1.0152863
1.011209
1.0122681
1.017768
1.0223287
1.0191601
1.0075402
0.99497949
0.9924258
1.0029508
1.0131072
1.0088776
0.9978783
1.0104384
1.0072223
1.004632
1.0035518
1.0043436
1.006628
1.0105872
1.0156339
1.0210917
1.0246893
1.0260894
1.0245012
1.0203543
1.0159971
1.015015
1.0186452
1.0261482
1.0322463
1.0313975
1.0231988
1.0128045
1.0090368
1.0142765
1.0191604
1.0090386
0.98655094
0.98605008
0.99651329
0.99503408
0.99646389
0.99896303
1.0018735
1.0051556
1.0083533
1.0110352
1.0124424
1.011759
1.0089247
1.0050605
1.0029735
1.0047665
1.0108434
1.0200715
1.0279511
1.0301005
1.0255269
1.0188169
1.0182887
1.0268606
1.037
1.0326208
1.0096208
0.98963824
0.99787546
0.99868939
1.0004189
1.0045527
1.0072721
1.0089699
1.0094518
1.0083786
1.0058163
1.0018301
0.99728423
0.99354503
0.9921247
0.99374989
0.99825037
1.0045842
1.0098204
1.0113019
1.0086944
1.0052601
1.0084228
1.0205573
1.0377098
1.0442707
1.0321777
1.0127382
1.0105179
1.0260233
1.0140175
1.0177833
1.0193902
1.0188187
1.0166568
1.0125458
1.0075398
1.0024713
0.99813721
0.99583031
0.99609964
0.99836991
1.0016646
1.0043837
1.0041676
0.99978903
0.992535
0.98663721
0.98696607
0.99681439
1.0145052
1.0282998
1.027975
1.0174872
1.016213
1.0353357
1.054644
1.0273748
1.0275503
1.0252283
1.0217872
1.0171754
1.0119657
1.007573
1.0051743
1.0058313
1.0084492
1.0125067
1.0161147
1.0168914
1.0139292
1.0071411
0.99755231
0.98936535
0.98654632
0.99019914
0.99716649
1.002446
1.0022385
0.99641477
0.99753743
1.0166745
1.0485956
1.0587135
1.0183552
1.0156135
1.0121562
1.0089726
1.0068825
1.0064774
1.0083703
1.0123755
1.0182044
1.0247712
1.0293449
1.0305488
1.0276618
1.0202149
1.0103404
1.0024123
1.0017186
1.0058911
1.0102839
1.0092771
0.99952575
0.98291544
0.97410453
0.98439892
1.0121543
1.036877
1.0299827
0.99553227
0.99238089
0.99218032
0.99356283
0.99630727
1.0010078
1.0067855
1.013038
1.0195111
1.0243974
1.0269292
1.0258498
1.0213296
1.0156338
1.0120079
1.0144982
1.0218603
1.0291659
1.030133
1.0205558
1.0016878
0.98386316
0.98060875
0.99302234
1.0063312
1.0069191
0.98869924
0.98397136
0.98486314
0.98891613
0.99308986
0.99723891
1.0007587
1.0034192
1.0052804
1.0057709
1.0050862
1.0030065
0.99988124
0.99819707
1.0010406
1.0094845
1.021254
1.0330902
1.0408091
1.0380041
1.0238862
1.0072395
1.0007235
1.0080269
1.0158091
1.0094923
0.98095807
0.96180091
0.99868343
1.0026909
1.0061595
1.0083453
1.0084707
1.0062792
1.0022741
0.99716587
0.99134805
0.98572264
0.98116969
0.98091728
0.98443631
0.99130485
1.000688
1.0112577
1.0197172
1.0228229
1.0188357
1.0133899
1.0138728
1.0248534
1.0393168
1.039522
1.0142186
0.97571669
0.96297825
1.0242349
1.0272073
1.026355
1.0228043
1.0169554
1.0097372
1.0018265
0.9945359
0.98850276
0.98506201
0.98599719
0.98974127
0.99477643
0.99878427
0.99977817
0.99691438
0.99177491
0.98672378
0.98565314
0.99336332
1.0121971
1.0368009
1.0538235
1.0481632
1.0181263
0.99132179
0.99054509
1.030098
1.0278527
1.0243412
1.0199299
1.0144257
1.0087352
1.0039177
1.0011874
1.0023868
1.0069136
1.0129578
1.0182566
1.0203332
1.0164212
1.0066209
0.99245612
0.9781582
0.96761388
0.96965155
0.98179901
1.0010499
1.021068
1.0310408
1.0238419
1.0139123
1.015399
1.0374433
1.0037351
1.0007994
0.99839397
0.99621049
0.99582056
0.99784392
1.0031819
1.0117344
1.0213577
1.0315938
1.04034
1.043912
1.0400448
1.028879
1.0128588
0.99620927
0.9835816
0.9816515
0.98711352
0.99504271
0.99766627
0.99234732
0.98419731
0.98123206
0.99565454
1.0292092
1.0802631
0.97417987
0.97224696
0.97404525
0.97823665
0.98444161
0.99207134
1.0011369
1.010609
1.0207897
1.0303337
1.0365014
1.0375636
1.033321
1.0253041
1.0156539
1.007979
1.0086374
1.0161327
1.0238892
1.0233311
1.0075456
0.98077506
0.95368231
0.95249991
0.97687234
1.0272559
1.0775068
0.97031783
0.97339214
0.9806574
0.9873175
0.99291922
0.99737047
1.0007949
1.0029216
1.002874
1.0014669
1.0001062
0.99935523
0.99875004
0.99980275
1.0049259
1.0166419
1.0335768
1.0488853
1.0562615
1.0458347
1.0180772
0.98465385
0.96144584
0.96212498
0.98377418
1.0168955
1.0296562
1.0060616
1.0100767
1.0135169
1.0136868
1.01134
1.0063883
0.99898038
0.99049225
0.98265466
0.97644652
0.97200365
0.96966494
0.97051958
0.97668314
0.99022074
1.0084927
1.0282568
1.0472838
1.054928
1.0444796
1.022457
1.0016416
0.99608884
1.0068157
1.0221255
1.0153046
0.97692992
1.0441392
1.0461806
1.043027
1.0354953
1.0250848
1.0130346
1.0006714
0.98939576
0.97982967
0.97338343
0.97014968
0.97271247
0.97817345
0.98524049
0.99161153
0.99593475
1.000768
1.0047359
1.006962
1.0075885
1.0097704
1.0195066
1.0409125
1.0620156
1.06589
1.0179354
0.95428953
1.0403052
1.0372125
1.0336957
1.029281
1.0234636
1.0171174
1.0102839
1.0039131
0.99967796
0.99950988
1.0028896
1.0089664
1.014545
1.0150118
1.0080822
0.99478187
0.97820996
0.96313943
0.95740246
0.96113891
0.98006237
1.0167304
1.0627618
1.0980022
1.0869495
1.0227047
0.96748632
1.0016155
0.99907686
0.9980217
0.99657298
0.99637253
0.99856306
1.0041782
1.0134626
1.0263498
1.0411993
1.05472
1.0628298
1.062237
1.0482002
1.0248101
0.99764353
0.97352713
0.95429381
0.94403245
0.94816639
0.96781596
1.0016085
1.0421104
1.0743666
1.0620807
1.0243772
1.0073866
0.96621401
0.96436871
0.96565259
0.96849855
0.97383536
0.98184841
0.99351112
1.0093692
1.0290902
1.0510958
1.071416
1.0839172
1.0831678
1.0693625
1.0441699
1.0131616
0.98521288
0.96880994
0.96877525
0.97916926
0.99132471
1.0021887
1.0070414
1.0034086
0.9979405
1.0046165
1.0407555
0.9525817
0.95417262
0.96026628
0.96726486
0.97586055
0.98586864
0.99659382
1.0068933
1.0172983
1.0271271
1.036149
1.0429759
1.0453604
1.0435624
1.0377174
1.0282468
1.01872
1.0159021
1.0234642
1.0349775
1.036752
1.019957
0.98377883
0.94834857
0.93876156
0.96995355
1.0385245
0.9773787
0.98351073
0.99005199
0.99709684
1.0025134
1.0046386
1.0032664
0.99957936
0.99554383
0.99236068
0.98997766
0.98700839
0.98597111
0.98800023
0.99515417
1.0083413
1.0322193
1.0643946
1.0924903
1.1023517
1.0798487
1.0337796
0.97936951
0.93688792
0.92435187
0.95282337
1.0187111
1.0475701
1.0492483
1.0471852
1.040618
1.0304333
1.0171551
1.0025669
0.98774133
0.9744404
0.9636495
0.95754929
0.95578284
0.95358121
0.95338586
0.96085273
0.98123586
1.0164272
1.0643734
1.1137536
1.1368653
1.1125587
1.0535
0.9918721
0.95256959
0.95184357
0.97116563
1.0145386
1.103363
1.1015917
1.0924732
1.0766247
1.0550723
1.0305179
1.0059478
0.98398099
0.96701093
0.95626875
0.95002786
0.94790606
0.95066226
0.95764807
0.9684244
0.98612499
1.0080959
1.0366989
1.0691008
1.0931647
1.0892466
1.0622245
1.0234433
0.99978843
1.0062729
1.0203873
1.0346167
1.0947114
1.0879737
1.0819289
1.0715171
1.057647
1.0413388
1.0231683
1.0057863
0.98977152
0.97819994
0.97324556
0.97530994
0.9835542
0.99487633
1.0062331
1.0136683
1.0172724
1.0168611
1.013342
1.0140877
1.0182158
1.0276403
1.0426274
1.0608662
1.0766227
1.0826909
1.0616604
1.0300892
1.026837
1.0242171
1.0210152
1.0193024
1.0183253
1.0190822
1.0205815
1.0230744
1.0281951
1.0364213
1.0470538
1.0566105
1.061177
1.0580314
1.0452391
1.0242849
0.99861359
0.97654709
0.96050263
0.95786436
0.97633904
1.0223998
1.0903434
1.1404802
1.14524
1.0874132
0.96837116
0.96654102
0.96628727
0.96790472
0.97026149
0.97513043
0.98569672
1.0033436
1.0298868
1.0652322
1.1042169
1.1375743
1.1533466
1.1435177
1.11176
1.0654087
1.0169398
0.97653128
0.95375624
0.94040423
0.93546412
0.95061027
0.99879917
1.0806228
1.1665337
1.1901024
1.1175223
0.93445152
0.93441535
0.93474463
0.93735956
0.94356135
0.95364981
0.96988296
0.99411675
1.0290487
1.0752424
1.1301725
1.1824502
1.211136
1.1981414
1.1480295
1.078989
1.0143875
0.9688617
0.94290976
0.93286892
0.93982142
0.95892101
0.99721237
1.0682069
1.1534156
1.1984536
1.1470605
0.93189663
0.93381289
0.93579265
0.94061663
0.94894709
0.96254037
0.98350778
1.0109021
1.0431152
1.0804445
1.1234896
1.1624766
1.18475
1.1780469
1.1425014
1.086375
1.0288494
0.98318225
0.95439735
0.94896491
0.96489429
0.98622787
1.0179276
1.0639131
1.1288453
1.1722392
1.1507008
0.95967903
0.96431103
0.9671079
0.97321003
0.98319186
0.99647568
1.0126299
1.0310663
1.0514043
1.0722762
1.0924072
1.1101329
1.121449
1.1188788
1.1042175
1.0781
1.0450495
1.0113434
0.99080715
0.9918502
1.0092997
1.0285266
1.0498741
1.0717541
1.0951883
1.1204546
1.1269535
1.009053
1.0131374
1.0157069
1.0199043
1.0252088
1.0297938
1.0336908
1.0370844
1.0416292
1.0470473
1.0547265
1.0612224
1.0635498
1.0611183
1.0590914
1.0570719
1.05332
1.0482563
1.046267
1.0556847
1.0718804
1.0803532
1.0792105
1.0678352
1.0597189
1.0656622
1.0880013
1.0689427
1.0698873
1.0670964
1.0634334
1.0577251
1.0496477
1.0401825
1.0309151
1.0229049
1.0189257
1.0192611
1.0221676
1.0240624
1.0230766
1.0255838
1.0352112
1.0542397
1.0781215
1.1034726
1.1259489
1.1370986
1.1221592
1.0938048
1.0588963
1.0310062
1.025204
1.0524574
1.1311512
1.1267555
1.116169
1.1014691
1.0833677
1.0627343
1.0417906
1.022522
1.0072053
0.99805224
0.99486405
0.99529371
0.99567409
0.99535743
1.0003206
1.014951
1.0468346
1.0946567
1.1487717
1.1887877
1.1919402
1.1511274
1.0986191
1.0509696
1.0183648
1.0087985
1.0305199
1.1976316
1.186082
1.1661958
1.1391072
1.1075899
1.0748957
1.043574
1.0165425
0.99602916
0.98360971
0.97809277
0.97822671
0.98023826
0.97943422
0.98275306
0.99436737
1.0280444
1.0885826
1.1660138
1.2283068
1.2346489
1.1819462
1.1147551
1.0555754
1.0203991
1.0067577
1.0209164
1.2769539
1.2544628
1.2203015
1.1763216
1.1292754
1.0839782
1.0436759
1.011832
0.98842968
0.97427731
0.96855536
0.96826379
0.96978747
0.97048629
0.97127414
0.97854825
1.0069088
1.0691434
1.1618172
1.2483052
1.2754146
1.2253393
1.1434681
1.0714144
1.0298808
1.0106096
1.0190968
1.354029
1.3204183
1.2714722
1.210526
1.1481252
1.0905158
1.0420741
1.0065011
0.98191063
0.96934337
0.96487907
0.96493583
0.96681422
0.96714725
0.96491818
0.96933581
0.99265336
1.0524063
1.1550393
1.2668827
1.3204289
1.2731385
1.1759102
1.0881642
1.0353142
1.0102485
1.0162326
1.4054041
1.3642667
1.3044854
1.2321231
1.1597543
1.0944168
1.0436069
1.0075243
0.98587824
0.97656051
0.97414647
0.97381659
0.97364447
0.97051872
0.96433328
0.96755148
0.991446
1.0523882
1.1577733
1.2856199
1.3600345
1.3134341
1.1980387
1.0979972
1.037524
1.0099153
1.0118873
1.4202204
1.3760068
1.3124875
1.2382043
1.1654005
1.1018725
1.0532379
1.0185426
0.99793205
0.9896536
0.98705669
0.98555845
0.98328093
0.97659357
0.97162073
0.97777212
1.0042122
1.0653076
1.181503
1.315629
1.3880881
1.3273091
1.2017489
1.0980447
1.0384697
1.0106572
1.0098104
1.4188279
1.3736107
1.308501
1.236006
1.1681749
1.1099875
1.0666404
1.036258
1.0185259
1.0091825
1.0047635
1.0002325
0.99450738
0.9866093
0.98267434
0.99170849
1.0256086
1.0922774
1.2093373
1.3415407
1.3943733
1.3176367
1.192697
1.0963045
1.0428408
1.0149215
1.0149563
1.4174169
1.3715077
1.3061583
1.2364234
1.1727923
1.1204179
1.0807192
1.0534045
1.036889
1.0271226
1.0210652
1.0142274
1.0066108
0.99745616
0.99571579
1.0088763
1.0477199
1.1191593
1.2365159
1.354629
1.3867185
1.2994789
1.1808994
1.0949766
1.0484208
1.0240694
1.0276817
1.4197036
1.3733211
1.3073522
1.2397342
1.1803079
1.1315111
1.0962338
1.0716542
1.0556159
1.0439977
1.0339124
1.0240831
1.0152631
1.00767
1.0088766
1.0264789
1.0668183
1.1415077
1.2567383
1.3585935
1.3721766
1.2815523
1.1735184
1.0960304
1.0517746
1.030749
1.0398186
1.4148624
1.3723008
1.3094023
1.2451561
1.1899039
1.1436654
1.1101853
1.0852211
1.0678456
1.0549667
1.0438404
1.0337481
1.0247081
1.017736
1.0205024
1.0388785
1.0849286
1.1641188
1.2698041
1.3560932
1.3560774
1.2687005
1.1701698
1.0977999
1.051869
1.033864
1.0485823
1.3887319
1.355441
1.3017261
1.2446095
1.1946853
1.153338
1.1204441
1.0969834
1.080255
1.0676015
1.0557867
1.045278
1.0364033
1.0290943
1.0315983
1.0515613
1.0999226
1.1796843
1.2752114
1.3446101
1.3361686
1.2552657
1.170162
1.1034791
1.0579088
1.0400566
1.0583353
1.3305718
1.3110808
1.2737207
1.2303011
1.1901647
1.1566165
1.1291456
1.1073577
1.0920778
1.0806051
1.0716191
1.0636954
1.055482
1.0470041
1.0470334
1.0680592
1.1171578
1.1893656
1.2658103
1.3149712
1.3063975
1.2428669
1.1731662
1.1132242
1.0702355
1.0543586
1.0766662
1.2479739
1.2413064
1.2203288
1.1933564
1.1674388
1.1455462
1.1286591
1.1148847
1.1043863
1.0986066
1.0943824
1.0883724
1.0814575
1.0762449
1.0801809
1.1008152
1.1402198
1.188618
1.233865
1.2602919
1.2582362
1.2238485
1.1771261
1.1284596
1.0921936
1.0794034
1.1054007
1.1684157
1.1669849
1.155604
1.1388019
1.123183
1.1118385
1.1057104
1.1060301
1.1112387
1.1200775
1.1270054
1.1302766
1.1310074
1.1314376
1.1350132
1.1457207
1.1602342
1.1750193
1.1851574
1.1889379
1.1917147
1.18757
1.1706534
1.1453841
1.1267634
1.1207547
1.1428041
1.1058636
1.1069194
1.0977787
1.0833974
1.0715589
1.0671338
1.071819
1.0870913
1.1099526
1.1380686
1.1657121
1.1870948
1.2001372
1.2042516
1.1992409
1.1860213
1.1677497
1.1485859
1.1319844
1.1237702
1.1262993
1.133188
1.1388122
1.1476785
1.1674955
1.1879965
1.1899481
1.0776149
1.0726379
1.0612999
1.0471161
1.0392067
1.0418749
1.0554648
1.0803106
1.1142658
1.1542611
1.1951657
1.2297089
1.2511778
1.2541733
1.2386595
1.2087896
1.1695662
1.128357
1.096196
1.0769096
1.0721756
1.0771329
1.0940369