/*--------------------------------*- C++ -*----------------------------------*\
| =========                 |                                                 |
| \\      /  F ield         | OpenFOAM: The Open Source CFD Toolbox           |
|  \\    /   O peration     | Version:  2406                                  |
|   \\  /    A nd           | Website:  www.openfoam.com                      |
|    \\/     M anipulation  |                                                 |
\*---------------------------------------------------------------------------*/
FoamFile
{
    version     2.0;
    format      ascii;
    arch        "LSB;label=32;scalar=64";
    class       volScalarField;
    location    "35";
    object      T;
}
// * * * * * * * * * * * * * * * * * * * * * * * * * * * * * * * * * * * * * //

dimensions      [0 0 0 1 0 0 0];

internalField   nonuniform List<scalar> 
62344
(
1.004231
1.003061
1.0030521
1.0036999
1.003833
1.0032963
1.0022645
1.0015805
1.001493
1.0015204
1.0016811
1.0018305
1.0018556
1.0016524
1.0009061
1.0003528
1.0005297
1.00119
1.0015655
1.0021674
1.0027973
1.0025808
1.0024585
1.0026048
1.0032581
1.0029956
1.0021908
1.0007793
1.0022982
1.0028137
1.001996
1.0020953
1.0039541
1.0026975
1.0025001
1.0051754
1.0048401
1.0016586
1.0021756
1.0051956
1.0050604
1.000923
0.99919307
1.002139
1.0058768
1.005237
0.99980231
0.99597094
0.99775442
1.0027073
1.0053457
1.0016336
0.99510422
0.99292947
0.99566212
1.0042165
1.0030434
1.0030324
1.0036975
1.0038119
1.0032757
1.0022338
1.0015187
1.0014766
1.0014551
1.0016126
1.0019427
1.0020401
1.0017428
1.0010236
1.0003846
1.000593
1.0011821
1.0014321
1.0021334
1.0025664
1.0024251
1.0023929
1.0022424
1.0030713
1.0027215
1.0018861
1.0005473
1.0022841
1.0029065
1.0016802
1.0023094
1.0040352
1.0029597
1.0028297
1.0048345
1.0042244
1.0025227
1.0035267
1.0050997
1.0039537
1.0015438
1.0010423
1.0029671
1.0044707
1.0035193
1.000336
0.99679626
0.99797899
1.0019646
1.0051313
1.0040899
0.99741368
0.99054207
0.9890097
1.0042109
1.0030443
1.003043
1.0037071
1.0038245
1.0032784
1.0022269
1.0015534
1.0015046
1.0015271
1.0016812
1.0019374
1.0019858
1.0016573
1.0009145
1.0002754
1.0004813
1.0010382
1.0012943
1.0019477
1.0023469
1.0021232
1.0023007
1.0019677
1.0027423
1.0023711
1.0014092
1.0004118
1.0021527
1.0026068
1.0012195
1.0024934
1.003828
1.0030266
1.0032611
1.0043168
1.0034444
1.003722
1.0052754
1.0047212
1.0022223
1.001988
1.0039755
1.0042177
1.0030268
1.0006982
1.0008444
1.0013634
1.0008467
1.000913
1.0009776
1.0009117
0.99904985
0.99569304
0.9930737
1.004202
1.0030445
1.003045
1.0036987
1.0038252
1.0032838
1.0022126
1.0015661
1.0015223
1.0015698
1.0016563
1.0019343
1.0019765
1.0014764
1.0006383
1.0000051
1.0003039
1.0008636
1.0010715
1.0016841
1.0022579
1.0020318
1.0023092
1.0021137
1.0026359
1.0021479
1.0011138
1.0004621
1.0020995
1.0021473
1.0009854
1.0026243
1.0034859
1.0026447
1.0035414
1.004156
1.002461
1.0039983
1.0065912
1.0049611
1.0011461
1.0015771
1.0055158
1.0061064
1.0026273
0.99933261
1.0004894
1.0041081
1.005357
1.0020075
0.99808249
0.99609395
0.9975676
0.99977868
1.0010745
1.0041893
1.0030442
1.0030513
1.0036935
1.0038391
1.0032819
1.0022038
1.0015477
1.0015331
1.0015403
1.001622
1.0018937
1.0019728
1.001366
1.0003848
0.99976748
1.000104
1.0007124
1.0009131
1.0014996
1.0021164
1.0022076
1.0023956
1.0025384
1.0029122
1.0022601
1.0011687
1.0008393
1.0022339
1.001754
1.0010955
1.0029126
1.0032412
1.0021521
1.0036474
1.0043895
1.0019787
1.00338
1.0066432
1.0054715
1.0015814
1.0013889
1.0052559
1.0069934
1.0031057
0.99978094
1.0005027
1.004015
1.006627
1.0038755
0.99851552
0.99461658
0.99548592
0.99975281
1.0043805
1.0041802
1.0030414
1.0030565
1.003695
1.0038409
1.003281
1.0021506
1.001487
1.0014454
1.0014087
1.0015269
1.0017997
1.0018165
1.0013113
1.0004181
0.99974296
1.0000187
1.0006174
1.0008163
1.0014126
1.0019536
1.0024805
1.0026283
1.0029676
1.0032724
1.0025441
1.0014297
1.0013516
1.0024752
1.0015257
1.0013586
1.0032957
1.0032673
1.0018504
1.0036781
1.004726
1.002203
1.0028499
1.0059693
1.0057666
1.0028377
1.0024356
1.0044694
1.0058173
1.0035713
1.0015192
1.0014924
1.0033198
1.004753
1.0036863
1.0001949
0.99701205
0.99673063
0.99972345
1.0035958
1.0041826
1.003047
1.0030694
1.0037132
1.0038551
1.0032632
1.0021007
1.0014238
1.0013522
1.0013031
1.0014127
1.0016638
1.0017058
1.0013958
1.0005166
0.99985687
1.0001063
1.0006256
1.0008427
1.0014197
1.0018893
1.0026213
1.002882
1.0032349
1.0034335
1.0026712
1.0015114
1.0016141
1.0025286
1.0013937
1.0015213
1.0035577
1.0033182
1.0018028
1.0036696
1.0047201
1.0027834
1.0029297
1.0052296
1.0053732
1.0041606
1.0042114
1.004257
1.003417
1.0033399
1.0033394
1.0035313
1.0036064
1.0021671
1.0012526
1.0008513
1.0007591
1.0011997
1.0021543
1.0032805
1.0041777
1.0030451
1.0030691
1.0037166
1.0038565
1.0032505
1.0020631
1.0013714
1.0013
1.0012795
1.0013321
1.0015901
1.0017802
1.0015348
1.0005375
0.99994446
1.0002485
1.0007288
1.0009747
1.0014701
1.0019339
1.0026362
1.0030536
1.0033551
1.0033625
1.0026279
1.0014211
1.0016711
1.0023995
1.0012325
1.0015387
1.0036276
1.0031322
1.0019837
1.0036223
1.004341
1.0030868
1.003421
1.0047529
1.0046915
1.0048911
1.0056112
1.0049694
1.0018988
1.0019397
1.00404
1.0059408
1.0049428
1.00144
0.99895289
0.99970687
1.0025978
1.0052348
1.0064515
1.0052566
1.0041716
1.0030416
1.0030677
1.0037014
1.0038486
1.0032341
1.0020395
1.0013386
1.0012589
1.0012517
1.0012649
1.001629
1.00193
1.0016007
1.0005428
0.99998172
1.0002835
1.000744
1.0010599
1.0014678
1.0018869
1.0024749
1.0030146
1.0032463
1.0030849
1.0023072
1.0011058
1.001451
1.0020194
1.0009189
1.0014006
1.0034335
1.0025799
1.002121
1.0036235
1.0036318
1.0029215
1.003927
1.0045015
1.0038627
1.0047558
1.0063505
1.0057567
1.0020412
1.0004078
1.003343
1.0069957
1.0065036
1.0025418
0.99896425
0.99844443
1.0018943
1.0064569
1.0088564
1.0077339
1.0041694
1.0030461
1.0030688
1.0036888
1.0038453
1.003219
1.0020472
1.001347
1.0012531
1.0012072
1.0013033
1.0016534
1.0019922
1.0016053
1.0005077
0.99993417
1.0001878
1.0006125
1.0009968
1.0013808
1.001734
1.0022948
1.0028696
1.0030653
1.0028024
1.0019657
1.0007076
1.0011204
1.0015951
1.0005537
1.0012677
1.0030547
1.0018784
1.0021371
1.0036667
1.0027871
1.0024385
1.0042844
1.0043249
1.0029172
1.0038635
1.0065516
1.0061501
1.0030206
1.0001965
1.0022252
1.0058634
1.0067242
1.004123
1.0004814
0.99899359
1.001112
1.0050711
1.0082102
1.0080885
1.0041663
1.0030506
1.003066
1.0036744
1.0038249
1.0032077
1.0020545
1.0013533
1.001252
1.001143
1.0012959
1.0015815
1.0019305
1.001557
1.0004324
0.99979804
0.99997825
1.0004146
1.0007719
1.0012302
1.0015284
1.0021673
1.0027407
1.0028965
1.0026708
1.0017335
1.0004194
1.0008681
1.001222
1.0002582
1.0012375
1.0027742
1.0013008
1.0019468
1.0037853
1.002184
1.0018232
1.0044095
1.004334
1.0021731
1.0027145
1.0059492
1.0064388
1.0040374
1.0014221
1.0018948
1.0036227
1.0051707
1.0044698
1.0023968
1.0011597
1.0020844
1.0040177
1.0056925
1.0061557
1.0041572
1.0030465
1.0030563
1.0036506
1.0038027
1.0032086
1.0020569
1.001357
1.0012373
1.001124
1.0012617
1.0014964
1.0018336
1.0014936
1.0003133
0.9996339
0.99978307
1.0002791
1.00056
1.00109
1.0013312
1.0020872
1.0026927
1.0028452
1.0027299
1.0016832
1.0003265
1.0008043
1.0009995
1.0001096
1.0013604
1.0026284
1.0009935
1.0018216
1.0039027
1.0019497
1.0014036
1.0044067
1.0045484
1.001815
1.0018086
1.0048025
1.0065224
1.004815
1.0033435
1.0025587
1.002348
1.0024771
1.0031093
1.0033524
1.0039644
1.0044729
1.0047604
1.0041371
1.0035928
1.0041422
1.0030371
1.0030422
1.0036271
1.003795
1.0031959
1.0020481
1.0013319
1.0012245
1.0011342
1.001198
1.0014148
1.0018083
1.0014498
1.0002572
0.99949855
0.99966184
1.0002311
1.0004378
1.0010032
1.0011939
1.0020232
1.0027391
1.0029203
1.0029592
1.0018559
1.0004665
1.0009942
1.0010036
1.00024
1.0015891
1.0025958
1.0010083
1.0018565
1.0038226
1.0019533
1.0014342
1.0043603
1.0047976
1.0019168
1.0015683
1.003802
1.0058319
1.0052983
1.0050572
1.0041519
1.0027654
1.0006028
1.0006266
1.0028871
1.0055451
1.0073124
1.0067894
1.0047257
1.002111
1.0041283
1.0030242
1.0030331
1.0036151
1.0037777
1.0031782
1.0020199
1.0012873
1.001156
1.0011242
1.001133
1.0013334
1.0018038
1.0014171
1.0002254
0.99939707
0.99964531
1.0002142
1.0003996
1.0009739
1.0011474
1.0019701
1.0028497
1.0030926
1.0033217
1.0022044
1.0008221
1.0013936
1.0011746
1.0005755
1.0018797
1.0026471
1.0012972
1.0020358
1.0036282
1.0020547
1.0017966
1.0042985
1.004842
1.0024124
1.0018997
1.0034575
1.0044646
1.0052126
1.00613
1.0061213
1.0041414
1.0004252
0.99871989
1.0012984
1.0054376
1.0087153
1.0090556
1.0064053
1.0024175
1.0041153
1.003015
1.0030245
1.0036036
1.0037502
1.0031552
1.0019771
1.0012302
1.0010859
1.0010417
1.001034
1.0012579
1.0017476
1.0013791
1.0002121
0.99939977
0.999666
1.0002295
1.0004451
1.0009682
1.0011611
1.0019518
1.0029856
1.0033087
1.003665
1.0025538
1.0012593
1.0018456
1.0013596
1.0009967
1.0021831
1.0026272
1.0017112
1.0023651
1.0033329
1.0020951
1.0023029
1.0042632
1.0045985
1.0029858
1.0026252
1.0036497
1.003375
1.0042758
1.0063111
1.0076157
1.0058635
1.0015296
0.99839865
0.99957369
1.0040592
1.0082742
1.0100848
1.0079695
1.0036142
1.0041048
1.0030052
1.0030118
1.0035848
1.0037392
1.0031308
1.001927
1.0011655
1.0010292
1.0009354
1.0009527
1.0011983
1.0016577
1.0013545
1.0002594
0.99944858
0.99973232
1.0002391
1.0005285
1.0009613
1.0012099
1.0019413
1.0030992
1.0035461
1.0039303
1.0028016
1.0016238
1.0021624
1.0014438
1.0013443
1.0024567
1.0024748
1.0020606
1.0028336
1.0030052
1.0019854
1.0027849
1.004315
1.0040889
1.003171
1.0035667
1.0041119
1.0029789
1.0029279
1.00548
1.008255
1.0074275
1.0032614
0.99947184
0.99886977
1.0022422
1.0066282
1.0095231
1.0086353
1.0048502
1.0040947
1.0029964
1.0029942
1.0035649
1.0037321
1.0031004
1.001892
1.001114
1.0009829
1.0008457
1.0008941
1.0011389
1.0015581
1.0013472
1.0002802
0.99947252
0.99975527
1.0001962
1.0005946
1.0009278
1.0012466
1.0019332
1.0031587
1.0037603
1.0041217
1.0029376
1.0018655
1.0023035
1.001406
1.0014892
1.0026775
1.002274
1.0021954
1.0033006
1.0027811
1.0018066
1.0031282
1.0044764
1.0035409
1.0029011
1.0043231
1.0047779
1.0031606
1.0018875
1.0040068
1.0078286
1.0083329
1.0051695
1.0011732
0.9994511
1.0012103
1.0046313
1.0077369
1.0081994
1.0055021
1.0040871
1.0029884
1.002976
1.0035419
1.0037095
1.0030784
1.0018682
1.0010769
1.0009291
1.0007854
1.0008521
1.0010702
1.0014794
1.0013796
1.0003064
0.99947159
0.99975091
1.0001074
1.0006311
1.0008935
1.0012606
1.0018994
1.003129
1.0038915
1.0042299
1.0029859
1.002015
1.0022777
1.0013321
1.0014465
1.0027455
1.0021595
1.002158
1.0036028
1.0026949
1.0016191
1.0032759
1.0046149
1.0031819
1.0024637
1.0046627
1.0054456
1.0036247
1.0014845
1.0027795
1.0065603
1.0083479
1.0066279
1.0032685
1.0008109
1.0014094
1.0034214
1.0057007
1.0066316
1.0054323
1.004079
1.0029817
1.0029609
1.0035151
1.0036776
1.0030679
1.0018541
1.0010593
1.0008828
1.0007521
1.0007975
1.0009999
1.0014432
1.0014166
1.0003215
0.99946954
0.99974708
1.0000529
1.000646
1.0008696
1.0012462
1.0018273
1.0030386
1.0039658
1.0042735
1.0030215
1.0021169
1.002136
1.0012628
1.001364
1.0026406
1.0020576
1.0020336
1.0036752
1.0027402
1.001516
1.0032562
1.0046359
1.0030111
1.0021153
1.004545
1.0058964
1.004255
1.0017527
1.0023305
1.0050395
1.0075287
1.0072498
1.0051366
1.002816
1.0025004
1.0031724
1.0041764
1.0048528
1.0045965
1.0040725
1.0029759
1.0029463
1.0034877
1.0036476
1.0030629
1.001862
1.0010651
1.0008446
1.0007563
1.0007445
1.000937
1.0014317
1.0014367
1.0003131
0.99945647
0.99970337
1.0000088
1.0006312
1.0008433
1.0011959
1.0017345
1.0029012
1.0039598
1.0042514
1.0030314
1.0021712
1.0019109
1.0011502
1.0012431
1.0024199
1.0020018
1.0019314
1.0035057
1.0028122
1.0015174
1.0030801
1.0045005
1.0029818
1.0019954
1.0040509
1.0059658
1.0048229
1.0024265
1.0025286
1.0040288
1.0060808
1.0070252
1.006317
1.0050684
1.0041759
1.0039459
1.0035619
1.0034961
1.0033073
1.0040655
1.0029692
1.0029255
1.0034564
1.0036291
1.0030588
1.0018766
1.0010678
1.0008354
1.0007765
1.0007103
1.0008868
1.0014379
1.001457
1.0003061
0.99943655
0.99962701
0.99994829
1.0005543
1.0007984
1.0011252
1.0016218
1.0027288
1.0038973
1.0041606
1.0030213
1.002217
1.0016403
1.0010051
1.0010859
1.0020562
1.0019113
1.0018515
1.0031061
1.0027678
1.0016352
1.0029004
1.0041076
1.0029478
1.0020439
1.0035661
1.0055353
1.0050453
1.0032673
1.0030057
1.0036577
1.0046362
1.0058456
1.0066752
1.0067107
1.0062665
1.0053057
1.0038462
1.0027273
1.0021168
1.0040604
1.0029633
1.0029038
1.0034235
1.0036186
1.0030486
1.0018802
1.0010584
1.0008328
1.0007763
1.0006858
1.0008479
1.0014388
1.0014572
1.0002931
0.99939044
0.99951161
0.99985089
1.000405
1.0006946
1.0010147
1.0014657
1.0025167
1.0037534
1.0039838
1.0029254
1.0021865
1.0013272
1.0008121
1.0008933
1.001556
1.0017337
1.0017633
1.0025352
1.0025963
1.0018011
1.0026283
1.0035426
1.0027462
1.0020876
1.0032259
1.0047444
1.0047278
1.00392
1.0036425
1.0036788
1.0035973
1.0041019
1.0059405
1.0073488
1.0080286
1.0068164
1.0047182
1.0023506
1.0010402
1.0040571
1.0029574
1.0028856
1.0033934
1.0036016
1.0030229
1.0018582
1.0010183
1.000805
1.0007272
1.0006219
1.0007933
1.001386
1.0013757
1.0002097
0.99927165
0.99932554
0.9997111
1.0001831
1.0004862
1.0008122
1.0012427
1.002239
1.0035229
1.0037133
1.0027475
1.0020526
1.0009609
1.0005544
1.0006638
1.0009803
1.0014672
1.0016633
1.0018706
1.002155
1.0019635
1.0024492
1.0028765
1.0022922
1.0021256
1.0030157
1.0037877
1.0038219
1.0040995
1.0041971
1.0039589
1.0029042
1.0022881
1.0042818
1.0069197
1.0089207
1.0082528
1.0057001
1.0023734
1.0002338
1.0040519
1.0029471
1.0028582
1.0033398
1.0035363
1.002939
1.0017605
1.0009117
1.0006912
1.0005782
1.0004658
1.0006497
1.0012169
1.0011709
1.0000078
0.99904221
0.9990193
0.99945436
0.99985566
1.0001795
1.0005188
1.0009384
1.00189
1.0032325
1.0034073
1.0025276
1.00192
1.000643
1.0003032
1.0004532
1.0003865
1.001125
1.0015883
1.0013041
1.0015994
1.0020263
1.0022807
1.0021927
1.0017852
1.0020936
1.002854
1.0031053
1.0027025
1.0037396
1.0046126
1.0044171
1.0025437
1.0008831
1.0023083
1.0057202
1.008861
1.0092866
1.0066291
1.0027998
0.99988067
1.0040191
1.002906
1.0027745
1.0031998
1.0033477
1.0027212
1.0015202
1.0006871
1.0004694
1.0003231
1.0002179
1.0004097
1.000904
1.0008579
0.9997165
0.99875154
0.99864813
0.99912793
0.99945275
0.99977981
1.0001494
1.000561
1.0014957
1.0028938
1.0030495
1.0023078
1.0017635
1.0003641
1.0000722
1.0003481
0.9999163
1.0008218
1.001566
1.0008456
1.0010794
1.0020168
1.0022542
1.0016726
1.0012159
1.0019927
1.002846
1.0026
1.0017884
1.0029433
1.004746
1.0050062
1.002583
1.0000254
1.0005255
1.0040968
1.0082103
1.0097469
1.0074725
1.0035368
0.9997522
1.0038376
1.0027335
1.0025082
1.0028447
1.0029313
1.0022814
1.0010762
1.0003125
1.0001561
1.000028
0.99996428
1.000161
1.0006032
1.0005433
0.99941746
0.99844507
0.99830405
0.9987949
0.99909622
0.9994331
0.99980935
1.0002245
1.0011332
1.0026208
1.002754
1.0020913
1.0016062
1.0001077
0.99990364
1.0002554
0.99961873
1.0006119
1.001648
1.0006394
1.0007568
1.0019787
1.0024551
1.0015453
1.0008517
1.0018532
1.0030101
1.0024213
1.0014014
1.002169
1.0047005
1.0055856
1.0031113
0.99989221
0.99924782
1.0026486
1.0072638
1.0101416
1.00896
1.0048069
1.0002895
1.0032756
1.0022763
1.0019519
1.0022103
1.0022911
1.001676
1.0005052
0.99983041
0.99977853
0.9997343
0.99977268
0.99999532
1.0004298
1.0003729
0.99926608
0.99829235
0.9980989
0.99856279
0.99888008
0.99920359
0.9995976
0.99999312
1.0008782
1.0024025
1.0026044
1.0019971
1.0016087
1.0000992
0.99979064
1.0002256
0.99953968
1.0005029
1.0017137
1.0007046
1.0006852
1.0019813
1.0025963
1.0017336
1.0009454
1.0018581
1.0030215
1.0027048
1.0015301
1.001693
1.0045358
1.0057377
1.004004
1.0005713
0.99912235
1.0015065
1.0059933
1.009723
1.0096961
1.0065805
1.0021079
0.99745995
0.99660865
0.99695822
0.99778901
0.99915998
1.0008638
1.002318
1.0029703
1.0029337
1.0020893
1.0005988
0.99894435
0.99798663
0.99838607
0.99993004
1.0022339
1.0038594
1.0041207
1.0032101
1.0027065
1.0043418
1.0073432
1.0076664
1.0022545
0.9944765
0.99308836
0.99921998
0.99712613
0.99753432
0.99873583
1.0001776
1.0017849
1.0029159
1.0030825
1.0022413
1.0004555
0.99822654
0.99652347
0.99577413
0.99628812
0.99777628
0.99926221
0.9995907
0.99870752
0.99711016
0.99651677
0.99830828
1.0016943
1.0043072
1.0040997
1.0014695
0.99980246
1.002157
1.0036018
1.0013377
1.0021869
1.0030565
1.00384
1.0044408
1.0043992
1.0033697
1.0012899
0.99895746
0.99732332
0.99678849
0.99751107
0.99908357
1.000483
1.000462
0.99858548
0.9956087
0.99385495
0.99467516
0.99707837
0.99829562
0.99704276
0.99503879
0.99642194
1.0020878
1.0083559
1.0051553
1.0065847
1.006789
1.0063691
1.0060465
1.0054985
1.0044819
1.0030466
1.0014592
1.0003606
1.0000609
1.0008116
1.0020944
1.0032028
1.0032659
1.0015724
0.99870167
0.99638049
0.99622788
0.99811491
0.99940786
0.99720456
0.99215126
0.98937212
0.99273412
0.99945095
1.0035824
0.99953148
1.0058919
1.0049388
1.0040861
1.0034682
1.0030384
1.0029269
1.002999
1.003186
1.0034908
1.0042545
1.0052339
1.006015
1.0059928
1.0048218
1.0025329
1.0003754
0.99954478
1.0008113
1.0027054
1.0022825
0.99806394
0.99287949
0.99164204
0.99504378
0.99637211
0.99198966
0.99001188
0.99982902
0.99887261
0.99818604
0.99831415
0.99920991
1.000575
1.0020534
1.0034659
1.0045163
1.0048988
1.0049647
1.0044873
1.0034692
1.0025419
1.0023114
1.0027749
1.0040737
1.0053747
1.0054388
1.0031863
0.99942817
0.99706175
0.99805304
0.99963046
0.99537174
0.9851152
0.98659489
0.99507459
0.99474592
0.9950588
0.99613761
0.99778121
0.99962878
1.0011184
1.0018237
1.0015638
1.0003931
0.99844808
0.99682462
0.99658947
0.99803246
1.0004414
1.0029675
1.0045236
1.004478
1.0032429
1.0013227
1.0010944
1.0022687
1.004076
1.0028372
0.99538661
0.98769871
0.99084917
0.9963669
0.99668993
0.99757898
0.99859776
0.99982083
1.0008238
1.000949
0.99988847
0.99758887
0.99472068
0.99231533
0.99138254
0.99225698
0.99467361
0.99741811
0.99886303
0.9983977
0.99668531
0.99563487
0.99750598
1.001634
1.0053765
1.0054302
1.0014706
0.99627877
0.99495256
0.99849549
1.0014621
1.0021922
1.0022329
1.0024677
1.0025476
1.002036
1.0006078
0.99832143
0.9955556
0.99317221
0.99190702
0.9920865
0.9935601
0.99552911
0.99645239
0.99521434
0.99176976
0.98857137
0.9885456
0.9925681
0.99859722
1.0013652
0.99919117
0.99571859
0.99719493
1.0021713
1.0055529
1.0056229
1.0052654
1.004505
1.0038624
1.0030413
1.0018904
1.0004917
0.9991153
0.99801229
0.99704445
0.99670243
0.99709593
0.99784768
0.99815516
0.99714034
0.99407556
0.99009297
0.98782508
0.9886068
0.99126346
0.99315246
0.99171949
0.98806568
0.98879452
0.99701942
1.0050775
1.0043986
1.0019234
1.0010311
0.99980458
0.99914567
0.99898039
0.99947827
1.0005103
1.0015988
1.0023058
1.0026571
1.0024367
1.002181
1.0018086
1.0006733
0.99842245
0.99582036
0.99395307
0.99308064
0.99334316
0.99355579
0.99129115
0.9849227
0.98048053
0.98416586
0.99427637
0.99959235
0.9924561
0.99411406
0.99278534
0.9924446
0.99312085
0.99458829
0.99696465
0.99949243
1.0015499
1.0027262
1.0028387
1.0019443
1.0007128
0.99958297
0.9989398
0.99923799
1.0003442
1.0008658
1.0000562
0.99870035
0.99616331
0.99134159
0.98563182
0.98316148
0.98621677
0.99019101
0.9879782
0.97737773
0.99005315
0.98983011
0.99053951
0.99182285
0.99380444
0.99591369
0.99766248
0.99831305
0.99754023
0.99579926
0.9932756
0.9909695
0.99059641
0.99295998
0.99759347
1.0021873
1.0044206
1.0039316
1.0015277
0.99770063
0.99365033
0.99169431
0.99116809
0.99118511
0.98877731
0.97819861
0.96886995
0.99498716
0.9954419
0.99547424
0.99607081
0.99673862
0.99696088
0.99645569
0.99487207
0.99187489
0.98814825
0.98448042
0.98293569
0.98423573
0.98798606
0.99291627
0.99701304
0.99862445
0.99708733
0.99447451
0.99391311
0.99651355
1.0003332
1.0005774
0.99693479
0.98864085
0.97658924
0.97132092
1.0020703
1.002428
1.0013788
1.0004761
0.99945814
0.99826551
0.99639069
0.99355932
0.99000547
0.98654797
0.98440161
0.98389043
0.98543467
0.98801882
0.99028788
0.99046441
0.98806778
0.98391352
0.98225815
0.9860876
0.99493183
1.0034997
1.0046588
0.99904496
0.98936009
0.98295419
0.98134228
1.0027661
1.0016946
1.0004337
0.9997222
0.99905646
0.99832113
0.9972835
0.99592745
0.99480641
0.99371529
0.99233465
0.99155139
0.99163494
0.99165789
0.99068904
0.98783541
0.98270542
0.97648624
0.97556317
0.98031381
0.9885626
0.99522622
0.99526203
0.98955059
0.98781403
0.99190493
0.99649634
0.99354842
0.99252248
0.99154459
0.99123728
0.99198768
0.99358993
0.99610166
0.99900645
1.0008516
1.001394
1.0011062
0.99951448
0.99760469
0.995432
0.99264887
0.98909855
0.98449337
0.98093874
0.97991853
0.98226927
0.98441258
0.9828321
0.97748015
0.97410008
0.98115406
0.99621962
1.0091708
0.98470276
0.98339281
0.98348774
0.98473561
0.98727286
0.99067185
0.99439716
0.99736666
0.99943394
0.99996394
0.99874339
0.99659483
0.99486867
0.99427588
0.99429294
0.9941143
0.99386081
0.99172319
0.98884104
0.98749511
0.98410763
0.97695904
0.96625672
0.96409008
0.97364193
0.99250522
1.0055322
0.98368209
0.98372846
0.98497975
0.98661237
0.98889691
0.99128201
0.99325956
0.99392587
0.99234184
0.98899139
0.98518137
0.98212159
0.98129966
0.98374729
0.98913922
0.99657665
1.0021489
1.0023425
0.99823441
0.99279663
0.98554005
0.97708405
0.96980654
0.96777395
0.973929
0.98524903
0.98546067
0.9938155
0.9938004
0.99307901
0.99272566
0.99258158
0.99211512
0.99078813
0.9882564
0.98453191
0.97995324
0.97499828
0.97089885
0.97000515
0.97364757
0.98158904
0.99055664
0.99737516
0.9998392
0.99681309
0.99204124
0.98714303
0.98364578
0.98200281
0.98089823
0.98322735
0.98040258
0.96310521
1.0024177
1.002136
0.99961378
0.997353
0.99502597
0.99284035
0.99033869
0.98703194
0.98258428
0.97760793
0.97269878
0.96997652
0.97081293
0.97435337
0.97924422
0.98339314
0.9847564
0.98250014
0.97791634
0.97743128
0.98221138
0.9905338
0.99759137
0.99675123
0.99327367
0.97671371
0.95191385
0.99722918
0.99571314
0.99416866
0.99379772
0.99415747
0.99451037
0.99418882
0.99225495
0.98927682
0.98557933
0.98175613
0.97896805
0.97843103
0.97958506
0.98067674
0.97995016
0.97537751
0.96725739
0.95942353
0.95923637
0.9690841
0.98684446
1.0040033
1.007566
0.99765074
0.97452826
0.95636428
0.98323089
0.98228791
0.98158863
0.9824265
0.98420039
0.9871583
0.99073551
0.99458584
0.99737857
0.99799778
0.99632528
0.99282165
0.98924815
0.98542113
0.98130548
0.97679613
0.97163747
0.96372097
0.95481326
0.95361798
0.96230869
0.97742782
0.99193541
0.99686066
0.98605838
0.97403191
0.9718303
0.97232062
0.97096531
0.97083905
0.972387
0.97541274
0.97964293
0.9849065
0.9905403
0.99532386
0.99848768
0.99885073
0.99670171
0.9930239
0.98977499
0.98553902
0.98074954
0.97394167
0.96701728
0.9618081
0.96169744
0.96736368
0.97384364
0.9751724
0.96782315
0.95964464
0.96666799
0.98422832
0.96716194
0.96672551
0.96799952
0.97078236
0.97462344
0.97948204
0.9842362
0.98777124
0.98878518
0.98683759
0.9825078
0.97856698
0.97664241
0.97817743
0.98186133
0.98514078
0.98572399
0.98221455
0.97674013
0.97381171
0.9752946
0.97405183
0.96326724
0.94652179
0.93600811
0.95337739
0.98110533
0.97284744
0.97356802
0.97526079
0.97777521
0.9811444
0.98381112
0.98482485
0.98370272
0.97954179
0.97292358
0.9644265
0.95633621
0.95254065
0.95528668
0.96341774
0.97536213
0.98917773
0.99774063
0.997053
0.98965752
0.98158275
0.97099881
0.95649337
0.94025424
0.93151123
0.94603141
0.96944838
0.98986998
0.99028135
0.98867267
0.98738982
0.9857999
0.9838448
0.98092935
0.97655815
0.96988404
0.96087475
0.95127146
0.94347346
0.93832017
0.93936975
0.94675143
0.96093055
0.97849739
0.99433556
1.0017024
0.99782973
0.98752716
0.97192724
0.95531331
0.94307016
0.94069471
0.94973013
0.96302863
1.0004261
1.0011544
0.99765865
0.99352207
0.98893163
0.98393994
0.97807896
0.97119096
0.96355799
0.95474132
0.94487109
0.93649375
0.93333668
0.93685908
0.94546201
0.95866236
0.97092086
0.97890277
0.98078338
0.97856294
0.97563595
0.97214969
0.96533787
0.95780165
0.95422853
0.95905392
0.9633503
0.98903342
0.98892124
0.98704517
0.98604729
0.98543211
0.98437563
0.9819008
0.976593
0.96888679
0.95838507
0.94756153
0.93906788
0.93640958
0.94219429
0.95278324
0.96475543
0.97095198
0.96807427
0.95540558
0.94495522
0.9460536
0.95705
0.9719615
0.97747273
0.97235976
0.96876578
0.96492541
0.95860218
0.95982087
0.96070735
0.96354111
0.96833793
0.97379372
0.97809588
0.97999942
0.97821983
0.97261556
0.96379756
0.95498728
0.95056319
0.95434514
0.96170974
0.96892624
0.96794276
0.95744496
0.93916293
0.92216585
0.91941458
0.93437002
0.96182983
0.98638363
0.98947233
0.98034131
0.96622495
0.93170843
0.93208056
0.93514611
0.94020891
0.94684541
0.95444478
0.96222162
0.97033562
0.97800961
0.98258963
0.98201021
0.97748915
0.97253321
0.97092351
0.96967794
0.96662338
0.95770765
0.94361827
0.92729451
0.91208949
0.90775945
0.92037385
0.94790223
0.97779684
0.99454284
0.98937036
0.96967185
0.91679771
0.91620665
0.91964111
0.92488593
0.9322593
0.94170588
0.95178563
0.96240047
0.97282032
0.98154248
0.98642603
0.98665765
0.9837828
0.97985508
0.97275067
0.96221271
0.94896877
0.93437015
0.91863331
0.90613509
0.90484545
0.91807826
0.94066387
0.96611476
0.98485713
0.98784484
0.97290349
0.91021975
0.90988429
0.91489239
0.92145916
0.92992757
0.94026176
0.95225733
0.96412457
0.97355335
0.97787948
0.97714957
0.97223672
0.96680411
0.96521837
0.96312844
0.95803166
0.94826489
0.93437813
0.9179769
0.90668137
0.90687257
0.92065244
0.94049796
0.95718468
0.96830533
0.97231487
0.96729066
0.91039488
0.91163585
0.91839282
0.92703343
0.93751166
0.94905861
0.96012763
0.96857486
0.97141379
0.96837599
0.95769067
0.94454823
0.93611198
0.93664163
0.94319571
0.95104366
0.95114126
0.94173324
0.92624609
0.91379168
0.91243716
0.92642361
0.94347102
0.95211962
0.94809076
0.94534909
0.95189546
0.91688007
0.91887528
0.92688598
0.93695873
0.94785513
0.95833799
0.965602
0.96740003
0.9629467
0.95166452
0.93476225
0.91756066
0.90668524
0.90866844
0.9208759
0.93912192
0.95099956
0.95146527
0.94031753
0.92625059
0.92240677
0.93419782
0.94547446
0.94355847
0.92776182
0.91653076
0.93168944
0.92761306
0.93041733
0.93776607
0.94655192
0.95534395
0.96213793
0.9643482
0.96141935
0.95040545
0.93321169
0.91311583
0.89556216
0.88510015
0.88762779
0.90131383
0.92373057
0.94630651
0.95760888
0.95387944
0.94113044
0.93380813
0.93932026
0.94301452
0.93314632
0.91049944
0.89495976
0.9135999
0.93836866
0.94194779
0.94784854
0.95433321
0.95957358
0.96203667
0.96044834
0.95219835
0.93773582
0.91809981
0.89670526
0.87855978
0.868042
0.87002539
0.88393135
0.90794971
0.93562821
0.95659494
0.96208488
0.95385149
0.94304573
0.94070914
0.93799503
0.92481292
0.90175996
0.88631073
0.90110061
0.94626562
0.95112338
0.9557374
0.96015292
0.96237325
0.96131275
0.9556194
0.94392422
0.92722912
0.90569193
0.88326062
0.86483965
0.8550085
0.85577468
0.86815891
0.89102681
0.91924567
0.94656144
0.96145982
0.96011129
0.94880966
0.94235387
0.93611173
0.92091554
0.89901931
0.88404406
0.89299053
0.95060338
0.95707446
0.96065658
0.96306559
0.9625183
0.95802871
0.94904173
0.93497623
0.91649808
0.89335266
0.87041732
0.85193486
0.84214857
0.84287091
0.85441758
0.87571711
0.90220162
0.93072324
0.9518272
0.95768541
0.95173868
0.94555
0.93689307
0.91981342
0.89781771
0.88262916
0.88655446
0.94753546
0.95616108
0.96034864
0.96217536
0.95976735
0.9522224
0.94010298
0.92339022
0.90330025
0.87952485
0.85692071
0.83876011
0.82972099
0.83096187
0.84322376
0.86335464
0.88809464
0.91450673
0.93839024
0.95154817
0.95252996
0.94809756
0.93785622
0.91751695
0.89356706
0.87737261
0.87807872
0.93575369
0.94617585
0.95251634
0.95576002
0.95284745
0.94390619
0.92971926
0.91258667
0.89074865
0.86694734
0.84466263
0.8273546
0.81907137
0.82227568
0.83558309
0.85564051
0.87733293
0.90157916
0.92482704
0.94166923
0.94833109
0.94707918
0.93412897
0.91139379
0.88538503
0.86922191
0.86755357
0.91690031
0.92934866
0.93963216
0.94599882
0.94475636
0.93619421
0.92078432
0.90068641
0.87728641
0.85297189
0.83222439
0.81770184
0.81096301
0.81733861
0.83271103
0.85199575
0.87067143
0.89033092
0.91332098
0.9315802
0.94057338
0.9401529
0.92600751
0.90166571
0.87556792
0.8585698
0.8569542
0.89874818
0.91261057
0.92613902
0.93507708
0.93479367
0.92664702
0.91084552
0.88925784
0.86507887
0.84159807
0.82307305
0.81120735
0.80730234
0.81621137
0.83152066
0.84832598
0.86507513
0.88236643
0.90225292
0.92112125
0.93009005
0.92973376
0.9149749
0.89106848
0.86555797
0.84919926
0.84917259
0.8830257
0.89874023
0.9153203
0.92581698
0.92562275
0.91566736
0.89769468
0.87513832
0.85155848
0.83091626
0.81599083
0.80823909
0.80736962
0.81684954
0.83020553
0.84320436
0.85767955
0.87295146
0.89276149
0.91116266
0.9204506
0.91938244
0.90398972
0.88103577
0.8568529
0.84190564
0.84411216
0.868969
0.88590587
0.90426846
0.91539321
0.91490134
0.90438341
0.88586444
0.86396254
0.84237314
0.82435526
0.8117192
0.8056841
0.80572296
0.81465852
0.82604554
0.83731282
0.84932867
0.8645403
0.88504795
0.90287595
0.91174714
0.9098792
0.89495996
0.87305594
0.84993213
0.83669735
0.83993665
0.85475373
0.87120095
0.89034207
0.902756
0.90381256
0.89526846
0.87903527
0.85944858
0.83950344
0.82197645
0.80911643
0.80292336
0.80259428
0.80953219
0.81914247
0.82945885
0.84273503
0.86013499
0.87944519
0.89554306
0.90302866
0.90144928
0.88789787
0.86721083
0.84457865
0.83221715
0.83701596
0.83879018
0.85347583
0.87303226
0.88841038
0.89383857
0.89034421
0.87904181
0.86250306
0.84320801
0.82480816
0.81030288
0.80192138
0.79955294
0.80419578
0.81288515
0.82424507
0.8397856
0.85824512
0.87511999
0.88673992
0.89184767
0.89148905
0.88233258
0.86409968
0.84251758
0.83044848
0.83594792
0.82157456
0.83355194
0.8529182
0.87189934
0.88416789
0.88780728
0.88356005
0.87152815
0.85406765
0.83444009
0.81733633
0.80578937
0.80054592
0.80264213
0.81091223
0.82387181
0.8414948
0.85782398
0.86888439
0.87462592
0.87801489
0.88111268
0.87748473
0.86310436
0.84292264
0.83137187
0.83879174
0.80700923
0.81554607
0.83337485
0.85482377
0.87361655
0.88561496
0.88904441
0.88408137
0.86989015
0.85015961
0.83056339
0.81510794
0.8070224
0.80871459
0.81830203
0.83301566
0.84773685
0.85727135
0.85957171
0.85844556
0.86133973
0.87020255
0.8731097
0.86411731
0.84605674
0.83580329
0.84565246
0.8013902
0.80630533
0.82115384
0.84252309
0.86382152
0.88044134