/*--------------------------------*- C++ -*----------------------------------*\
| =========                 |                                                 |
| \\      /  F ield         | OpenFOAM: The Open Source CFD Toolbox           |
|  \\    /   O peration     | Version:  2406                                  |
|   \\  /    A nd           | Website:  www.openfoam.com                      |
|    \\/     M anipulation  |                                                 |
\*---------------------------------------------------------------------------*/
FoamFile
{
    version     2.0;
    format      ascii;
    arch        "LSB;label=32;scalar=64";
    class       volVectorField;
    location    "35";
    object      U_0;
}
// * * * * * * * * * * * * * * * * * * * * * * * * * * * * * * * * * * * * * //

dimensions      [0 1 -1 0 0 0 0];

internalField   nonuniform List<vector> 
20580
(
(0.099249916 0.00095946939 1.7183804e-22)
(0.098763785 -9.244108e-05 -1.0548553e-19)
(0.10346533 -0.00061592799 1.5594201e-21)
(0.10349677 0.00090434905 2.1030052e-20)
(0.10407241 -0.00028657448 6.4843236e-23)
(0.10441089 0.00081088497 1.4783244e-20)
(0.10543146 -0.00037146342 1.5505426e-19)
(0.10603455 -2.3020678e-05 2.0301119e-21)
(0.10686974 -0.0011308605 -3.650859e-21)
(0.10709284 -0.0021755867 0)
(0.10689985 -0.0024054998 1.4111893e-21)
(0.10706166 -0.0025714056 -2.4130332e-20)
(0.10722789 -0.0039617468 -5.1165145e-21)
(0.10726593 -0.0056833944 -1.4878135e-21)
(0.10694383 -0.005708962 -1.3984072e-20)
(0.10718718 -0.007347937 4.6981955e-21)
(0.10765145 -0.010048913 -5.6799156e-21)
(0.10759966 -0.010075784 5.8845002e-22)
(0.10852125 -0.01355705 4.8642996e-20)
(0.10974189 -0.017712805 3.601641e-21)
(0.10895716 -0.01693847 -1.2713029e-22)
(0.10979103 -0.01985358 3.8515391e-21)
(0.11212558 -0.024803854 -4.7999507e-21)
(0.11221089 -0.026712218 -3.2692463e-20)
(0.11319539 -0.029057242 -2.0537873e-20)
(0.1165299 -0.034994058 -4.8483883e-20)
(0.12020503 -0.041237518 3.8561288e-21)
(0.12103421 -0.046342516 -3.3952867e-21)
(0.1244039 -0.047524805 1.6838285e-20)
(0.12743972 -0.051230922 -3.5218647e-21)
(0.13068083 -0.058201187 5.7431562e-21)
(0.097500476 0.00048436337 0)
(0.09846232 0.00058399745 6.2809825e-20)
(0.10362573 -0.00034879108 9.8548891e-20)
(0.10355277 0.00094642987 -6.5247612e-20)
(0.10367596 0.00064949645 -1.1726269e-20)
(0.10455148 0.00044037073 8.013257e-22)
(0.10553398 -0.00052920563 -1.6347446e-19)
(0.10618402 -0.00058321572 -4.426336e-21)
(0.10673035 -0.00091906176 -4.1562458e-21)
(0.10684301 -0.0016407444 -5.838113e-21)
(0.10679432 -0.0022464111 -3.5494544e-20)
(0.10694628 -0.0024206273 -5.4662833e-21)
(0.10727903 -0.0036334455 -1.1408453e-20)
(0.10715004 -0.0048364635 -1.4817382e-22)
(0.10712269 -0.0057121285 -1.1438404e-20)
(0.10765015 -0.0071193531 6.3235254e-22)
(0.10798432 -0.0096586082 3.2431667e-21)
(0.10787371 -0.0096007178 9.5405701e-21)
(0.10942554 -0.013013945 0)
(0.10973909 -0.015690815 2.1438103e-20)
(0.10927354 -0.01580472 0)
(0.1112112 -0.019920162 -1.9816195e-20)
(0.11311383 -0.023443422 -3.4529728e-21)
(0.11282392 -0.024836905 1.8954535e-22)
(0.11449177 -0.02825435 -2.9797269e-20)
(0.11827495 -0.033989519 -6.0531289e-21)
(0.12161515 -0.037942568 1.2370126e-21)
(0.12155384 -0.041703333 -1.3627572e-20)
(0.12411318 -0.043469661 -2.1647479e-20)
(0.12918783 -0.046920469 -1.90962e-20)
(0.13291023 -0.055245054 2.224739e-20)
(0.095975876 0.00047626472 0)
(0.09769585 0.0012747449 0)
(0.10335798 0.00021607325 -4.5632628e-19)
(0.10360794 0.00058451138 5.9258855e-19)
(0.10380135 0.0016757817 -5.1820877e-20)
(0.10478429 1.3411151e-05 6.1561802e-22)
(0.10567338 -0.00022527527 2.837262e-19)
(0.10625784 -0.0011000983 -7.0400355e-23)
(0.10670917 -0.00081985756 0)
(0.1068246 -0.0011238787 -4.6321057e-20)
(0.10678155 -0.0019910658 8.098637e-21)
(0.10698227 -0.0027212924 -2.8807196e-21)
(0.10733344 -0.0035461508 0)
(0.10721188 -0.0039608814 1.8561917e-22)
(0.10723697 -0.0055918187 -1.7694337e-20)
(0.10793808 -0.0067992714 2.0678982e-21)
(0.10810761 -0.0086617093 8.3841803e-22)
(0.10812352 -0.0093075833 -1.6899022e-21)
(0.10995159 -0.012501204 8.5059919e-21)
(0.10993085 -0.013657662 0)
(0.1100536 -0.015019383 0)
(0.11230889 -0.019792472 1.9248221e-20)
(0.11373824 -0.021817583 3.1228378e-20)
(0.11373012 -0.023062506 -1.5848469e-21)
(0.11582032 -0.027562923 -4.9788012e-21)
(0.11926691 -0.03226687 4.0830034e-21)
(0.12225397 -0.034208605 -5.9591715e-20)
(0.12235909 -0.03674048 -6.1587574e-21)
(0.12415651 -0.040765039 1.5497753e-20)
(0.13077608 -0.043017636 1.136849e-21)
(0.13591056 -0.050644886 -3.2775895e-21)
(0.094597789 0.0005428538 0)
(0.096280193 0.0016228837 6.8993066e-23)
(0.10269153 0.00056985668 -8.6139712e-21)
(0.10318253 -7.6292484e-05 5.8017347e-21)
(0.10362427 0.0020808915 -1.3528103e-19)
(0.10483049 -0.00026300382 -7.1709065e-20)
(0.10570137 0.00022942374 2.8468466e-19)
(0.10630307 -0.0011644176 0)
(0.10667331 -0.00082055034 -4.8247319e-22)
(0.10684749 -0.00067786791 1.6835065e-20)
(0.10691724 -0.001653648 -3.663311e-20)
(0.10714369 -0.0030635329 9.442548e-23)
(0.10731598 -0.0035197984 2.1751624e-22)
(0.10728108 -0.0034038934 3.5682276e-21)
(0.10741708 -0.0051069393 2.745265e-20)
(0.10810757 -0.0065156791 5.6261587e-22)
(0.10821758 -0.0074143741 4.0913563e-21)
(0.10849669 -0.0089504264 -1.1814599e-22)
(0.11020337 -0.012251103 1.3584505e-22)
(0.11002863 -0.011962255 2.1178953e-21)
(0.11097327 -0.01446722 3.2785061e-21)
(0.1131057 -0.019137718 2.1178947e-20)
(0.11401926 -0.019979464 2.9845097e-22)
(0.1148901 -0.021391386 -3.5126232e-21)
(0.11722947 -0.026498946 0)
(0.11975351 -0.030165411 1.3940884e-21)
(0.12242103 -0.03107982 2.7449014e-20)
(0.12374272 -0.032413058 -1.9338688e-21)
(0.12477423 -0.039080107 -2.8700185e-21)
(0.13085268 -0.041304701 2.1453344e-20)
(0.13708694 -0.045822603 2.4325806e-20)
(0.093400488 0.00081335059 0)
(0.094747747 0.0015706213 1.8247641e-19)
(0.10181816 0.00057958756 3.9409188e-19)
(0.10256997 -0.00061009697 -3.1751e-19)
(0.10337573 0.0015163583 -7.0160397e-22)
(0.1047188 -0.00030732533 -4.8431464e-20)
(0.10555648 0.00053019452 0)
(0.10629237 -0.00068847126 7.6884602e-21)
(0.10662029 -0.00081405013 1.3115347e-21)
(0.10694863 -0.00057270114 -6.2237785e-21)
(0.1071882 -0.0013644764 -5.2763306e-20)
(0.10736372 -0.0029817837 -8.100834e-23)
(0.10731412 -0.0033572051 -9.8414654e-21)
(0.10743006 -0.0033207743 4.4342962e-21)
(0.10772226 -0.0047393342 1.2487726e-21)
(0.10824489 -0.0064269359 -3.2945682e-21)
(0.10832989 -0.006627044 1.9520938e-20)
(0.10903602 -0.0086649839 3.1355755e-20)
(0.11031172 -0.011719022 3.7195093e-20)
(0.11014443 -0.010623987 0)
(0.11185843 -0.014035991 5.3388776e-21)
(0.1135893 -0.017675194 -2.8795901e-22)
(0.11392503 -0.017955952 -2.048538e-20)
(0.11592438 -0.019819753 -4.3784915e-21)
(0.11857163 -0.024686125 0)
(0.11998984 -0.02789894 -2.3704794e-20)
(0.12204758 -0.028512457 2.2627059e-20)
(0.1253905 -0.028766895 1.890284e-20)
(0.12692375 -0.036259436 -7.2927908e-20)
(0.13032582 -0.040572297 -8.9870034e-21)
(0.13546558 -0.043505121 -3.1108198e-20)
(0.093045681 0.0012355934 1.7674955e-19)
(0.093967672 0.0012897949 1.1500319e-21)
(0.10122871 0.00033464643 2.7916191e-23)
(0.10198154 -0.00053166532 2.7704929e-21)
(0.10293145 0.00032548315 4.6726138e-20)
(0.10426858 -0.00012184568 2.3848806e-22)
(0.10521473 0.0004775489 4.1797132e-20)
(0.10605057 -1.9443032e-05 2.9274762e-22)
(0.1065053 -0.00069879434 1.1276403e-20)
(0.10705791 -0.00093868528 7.6838591e-20)
(0.10747814 -0.0013581574 -2.9994663e-20)
(0.10759585 -0.0025330147 -1.4020406e-20)
(0.10741958 -0.0028407395 -3.2564955e-21)
(0.10765213 -0.0035119841 -7.679551e-22)
(0.10806822 -0.0047527846 -1.5679926e-21)
(0.10840859 -0.0063305426 4.1710747e-23)
(0.10851313 -0.0062759276 1.7776689e-20)
(0.10959196 -0.0084444222 3.5068638e-20)
(0.11029033 -0.010539162 8.6008356e-22)
(0.11031048 -0.0096322525 0)
(0.11261471 -0.013491403 5.0845911e-21)
(0.11381478 -0.015855691 4.3853009e-20)
(0.11394895 -0.01621853 1.9296823e-20)
(0.11673292 -0.018584508 0)
(0.11963446 -0.022400505 2.6951948e-20)
(0.12019222 -0.024981076 8.707344e-22)
(0.121311 -0.026680214 -1.0149577e-20)
(0.12626482 -0.027116065 -4.922474e-20)
(0.12978536 -0.032408815 3.7321961e-20)
(0.13150007 -0.037691123 1.0745305e-20)
(0.13414388 -0.041276924 -1.3058027e-20)
(0.093456743 0.0017157011 -5.1146192e-21)
(0.094359281 0.00097494371 7.8742524e-20)
(0.10085032 -2.2730969e-05 1.6871683e-22)
(0.10113046 -5.0642112e-05 4.1045619e-19)
(0.10206992 -0.00077065267 -1.5654726e-20)
(0.1033064 0.00018203311 -1.4365104e-19)
(0.10456364 0.00011021937 -1.817155e-19)
(0.10557997 0.00037727768 6.156608e-23)
(0.10627667 -0.00042957044 -1.8187833e-22)
(0.10692171 -0.0014947678 -2.1785058e-20)
(0.10749929 -0.0015765994 7.0025782e-22)
(0.10763232 -0.0020653878 -1.1852542e-23)
(0.10750317 -0.0021860128 -1.6021293e-21)
(0.10787051 -0.0035375424 2.9052095e-23)
(0.10835492 -0.0045866126 -7.2049142e-22)
(0.10854831 -0.0056924878 -2.7224094e-23)
(0.10878979 -0.0059021957 5.6990229e-23)
(0.11006726 -0.0080787272 -5.8524411e-20)
(0.11021904 -0.0088599175 0)
(0.11057925 -0.0092551153 -2.3920332e-20)
(0.11319059 -0.012938135 -3.2011951e-21)
(0.11396981 -0.01411005 3.083579e-20)
(0.11412141 -0.015129711 1.1343849e-21)
(0.11720863 -0.017924706 9.6977386e-21)
(0.12033494 -0.019997836 6.7727613e-21)
(0.12099207 -0.021830546 3.4899618e-21)
(0.12142935 -0.024879513 5.8465698e-21)
(0.12625039 -0.027310068 -2.4767468e-21)
(0.13115953 -0.029812247 3.0955063e-21)
(0.13319405 -0.033438449 -3.5971101e-20)
(0.13407439 -0.037453605 3.1448783e-21)
(0.095370002 0.0022001762 1.1561748e-18)
(0.095437227 0.00075322326 0)
(0.10056992 -0.00055685834 6.9232292e-19)
(0.10030766 0.00045335568 -3.9940746e-19)
(0.10106144 -0.0012534108 1.0753878e-19)
(0.10219187 0.00058494582 -6.9283214e-22)
(0.10378248 -0.00030516494 -8.1397309e-20)
(0.10497638 0.00032358153 4.1429377e-22)
(0.10591034 -0.00019831989 1.1431727e-21)
(0.10660263 -0.0017952381 1.9667094e-20)
(0.10714399 -0.0018118529 -4.3225923e-20)
(0.10739166 -0.0017363031 1.5965338e-22)
(0.10745815 -0.0018609542 -3.1468318e-22)
(0.10796018 -0.003362926 -5.3234813e-21)
(0.10841939 -0.0040116992 -1.1180703e-21)
(0.10860982 -0.0046885826 -4.957313e-21)
(0.10907687 -0.0054448994 -1.0178473e-20)
(0.11032485 -0.0074689416 -6.9571545e-21)
(0.11032702 -0.0071474465 8.1460884e-23)
(0.11112859 -0.0092941038 5.7599813e-22)
(0.11350769 -0.012394803 1.4149801e-21)
(0.11417299 -0.012321583 2.3939431e-22)
(0.11467833 -0.014258116 0)
(0.1173845 -0.017941256 4.5283602e-21)
(0.12036391 -0.018303213 1.5965271e-20)
(0.12182402 -0.019182099 1.9906967e-20)
(0.1225216 -0.022043409 -2.1499963e-20)
(0.12621864 -0.026636491 -8.5930769e-21)
(0.13126627 -0.028606449 3.7961572e-21)
(0.13441539 -0.030147218 6.9181933e-21)
(0.13436184 -0.03395343 -3.2874554e-21)
(0.10021948 0.0028115716 -4.8749914e-19)
(0.096362706 0.00061369575 6.3826273e-23)
(0.10073652 -0.0009412668 1.4177307e-19)
(0.10032122 0.00072873559 -3.6242378e-19)
(0.10087624 -0.00092480154 7.1243946e-22)
(0.1018966 0.00095805016 -9.8415812e-22)
(0.10317554 -0.00042647633 3.9172902e-20)
(0.10432091 -5.8800937e-05 3.9661133e-24)
(0.1053673 -0.00035477507 1.9130861e-20)
(0.10607784 -0.0016103696 -3.0344116e-20)
(0.10645371 -0.0017579369 -3.3788152e-20)
(0.10676228 -0.0015660768 0)
(0.1071221 -0.0019055054 -4.2582662e-22)
(0.10771942 -0.0031741429 8.2788239e-22)
(0.10817949 -0.0032879898 -5.985164e-21)
(0.10849434 -0.0039311168 3.9093694e-21)
(0.10918809 -0.0048692592 -3.3322145e-21)
(0.11024505 -0.0067467557 -1.8495382e-20)
(0.11054218 -0.0060685274 -1.480152e-20)
(0.11182458 -0.0092012359 1.9646662e-20)
(0.11362068 -0.011643762 -2.8588491e-20)
(0.1144216 -0.010554735 -2.4083364e-22)
(0.11572807 -0.012916596 1.2588625e-21)
(0.11761624 -0.01733451 2.2323525e-21)
(0.11991466 -0.017187409 9.8780644e-22)
(0.12196297 -0.017138712 2.6374853e-21)
(0.12375178 -0.019800675 2.452818e-20)
(0.12690865 -0.024650417 -2.3956694e-20)
(0.13097144 -0.02683948 2.9370697e-20)
(0.1347394 -0.026267968 1.4368029e-21)
(0.13579209 -0.029192595 1.768536e-20)
(0.10796087 0.002892156 -1.2421318e-18)
(0.098263388 0.00066675749 4.0341834e-22)
(0.1017736 -0.00093056746 7.4721481e-20)
(0.10109704 0.00058071096 1.8142358e-19)
(0.10121585 4.1105756e-05 -7.7053363e-22)
(0.1021371 0.0010852186 0)
(0.1031399 -8.9325803e-05 -4.8407278e-20)
(0.1038272 -0.00046737851 9.7070665e-22)
(0.10471203 -0.00075523942 -1.9594306e-20)
(0.10520573 -0.00095005924 -3.1683306e-20)
(0.10547258 -0.0013675273 -6.5022581e-23)
(0.10574521 -0.0012931181 -1.9627479e-22)
(0.10628313 -0.002038861 0)
(0.10691824 -0.0028901595 -9.1797394e-21)
(0.10752083 -0.0027553387 6.2927549e-21)
(0.1080997 -0.0035274262 -2.4682683e-23)
(0.10906161 -0.0045938086 1.6594146e-20)
(0.11002078 -0.0062755838 -2.8789747e-20)
(0.11069784 -0.0058597301 -1.3871548e-20)
(0.11239426 -0.0088428548 2.6731185e-20)
(0.11340306 -0.010522479 -2.141133e-20)
(0.11433011 -0.0092600868 -3.0101925e-20)
(0.11686329 -0.011619483 4.9897235e-20)
(0.11819701 -0.015637878 2.7326956e-20)
(0.1195428 -0.016211014 6.985619e-20)
(0.12206245 -0.015790758 2.5023738e-21)
(0.12489799 -0.019090437 -6.1205575e-22)
(0.12743897 -0.022813106 -6.8073916e-21)
(0.12989672 -0.024539661 4.2968517e-20)
(0.13370602 -0.022458228 4.9301654e-20)
(0.13732919 -0.02361579 -2.6266534e-20)
(0.11434975 0.0026697367 4.1856788e-20)
(0.10143411 0.0008131061 2.4455405e-22)
(0.10393518 -0.00067568699 1.5546869e-19)
(0.10299338 -7.3685973e-05 3.5222447e-22)
(0.10244888 0.0010388604 -2.27489e-22)
(0.10284288 0.00070167982 2.5572684e-19)
(0.10350128 0.00034117902 -8.5633363e-20)
(0.10376492 -0.00068767279 6.0496496e-23)
(0.1041294 -0.0010660071 7.0671622e-21)
(0.10425621 -0.00027938872 8.7412746e-21)
(0.10447918 -0.00096799941 -2.3956316e-20)
(0.10475408 -0.00097583702 7.9261216e-21)
(0.10532144 -0.0019755123 0)
(0.10580932 -0.002571667 1.3849697e-22)
(0.10654834 -0.0026768056 8.8295022e-21)
(0.10737036 -0.0034044078 -8.7472412e-23)
(0.1085934 -0.0046088093 -1.140294e-21)
(0.10948107 -0.0058369482 -3.2771519e-23)
(0.11044124 -0.0058811223 1.8948199e-21)
(0.1123631 -0.0079886745 -3.4369345e-22)
(0.11287825 -0.0089412541 -1.0538507e-22)
(0.11403524 -0.0086272258 -2.4172251e-20)
(0.11756853 -0.011293756 4.9082896e-21)
(0.11884518 -0.013771196 1.0691222e-20)
(0.11925548 -0.015340319 1.3353479e-20)
(0.12229644 -0.015100911 8.3632911e-21)
(0.12600206 -0.018054055 -2.3899808e-20)
(0.1280787 -0.020830531 1.9590025e-20)
(0.12888057 -0.022913359 -6.2646104e-21)
(0.13171694 -0.021361125 -6.0691067e-20)
(0.13652686 -0.02132895 -2.2861568e-20)
(0.11632625 0.0019946046 -7.7369251e-19)
(0.10368368 0.0012006512 0)
(0.10589744 -0.00039571633 -1.8786422e-19)
(0.10449958 -0.00068425028 5.0444718e-19)
(0.10357877 0.0014061757 1.1927124e-19)
(0.10375169 -8.6744017e-05 3.4089477e-20)
(0.10399197 0.00039904437 -4.70463e-22)
(0.10402079 -0.00056712745 -7.3431895e-23)
(0.10389007 -0.00082976011 -3.6770855e-20)
(0.1039865 -5.6154525e-05 -2.2722696e-20)
(0.10417669 -0.00074615722 1.3564316e-20)
(0.10448073 -0.0009165256 -2.7352513e-23)
(0.10503072 -0.0016504554 -7.3959706e-21)
(0.10534224 -0.0020322106 0)
(0.10597837 -0.0025397808 -5.8419102e-21)
(0.10677944 -0.0030966656 -1.2284944e-20)
(0.10799666 -0.0043511935 -3.3817379e-20)
(0.10867779 -0.0049922301 -1.025292e-20)
(0.10970889 -0.0054180638 -2.4041562e-22)
(0.11173796 -0.0068715268 -4.472333e-21)
(0.11208431 -0.0071392532 -1.5681408e-20)
(0.11355137 -0.0080334037 -5.39444e-22)
(0.1175393 -0.011308524 -1.0262529e-20)
(0.11913664 -0.011619164 -6.6353115e-21)
(0.11909357 -0.013598262 2.4624795e-20)
(0.12194996 -0.01466542 1.0251066e-20)
(0.12637252 -0.016001598 7.9847379e-21)
(0.12890492 -0.01735547 6.267815e-22)
(0.12907956 -0.01955632 8.3741579e-20)
(0.13045984 -0.020691461 5.2838655e-21)
(0.13456218 -0.022013139 -2.3210822e-20)
(0.11567379 0.0017027864 4.8907089e-19)
(0.10453977 0.0012601554 2.2223914e-19)
(0.10694876 -0.00024633244 -9.4131182e-22)
(0.10530537 -0.001022578 4.4622597e-21)
(0.10439586 0.00096597128 -3.1544506e-22)
(0.10452147 -0.00098115177 6.9613091e-20)
(0.10450657 -2.6777107e-05 3.2874815e-21)
(0.10439474 -0.00039452202 -2.0179947e-22)
(0.10409015 -0.00023057406 4.7522011e-22)
(0.10424113 -0.0003978246 3.3918168e-20)
(0.10444355 -0.00075797676 -1.3914376e-22)
(0.10473209 -0.0014195756 7.6066327e-21)
(0.10521891 -0.0015100418 -4.0749864e-23)
(0.10552574 -0.0015160436 1.1581822e-22)
(0.10610102 -0.0023885718 0)
(0.1068736 -0.002598813 0)
(0.10792018 -0.0037523044 1.6347994e-20)
(0.1083082 -0.0040205571 5.1987279e-22)
(0.10934412 -0.004653954 -1.9766593e-20)
(0.11129865 -0.0056912779 -4.075946e-22)
(0.1115465 -0.0056478721 2.2535155e-21)
(0.11322168 -0.0076868823 -1.7454969e-20)
(0.11684264 -0.010907051 0)
(0.11857689 -0.0092973308 0)
(0.11914329 -0.010233891 0)
(0.12133606 -0.01355619 1.6090878e-20)
(0.12535584 -0.013986916 -7.0152629e-22)
(0.12864097 -0.013631404 3.3177999e-21)
(0.13002334 -0.014688996 -6.0556419e-21)
(0.13108419 -0.017935766 3.4161272e-21)
(0.13380039 -0.021433941 4.8020247e-21)
(0.11397797 0.0011277635 2.2459152e-19)
(0.10468859 0.0010314723 3.0453003e-21)
(0.10759116 -0.00024442996 -6.7742198e-22)
(0.10606484 -0.00096745302 -2.802501e-19)
(0.10538666 8.2979296e-05 0)
(0.10542273 -0.0012974538 -2.8005068e-23)
(0.10526134 -0.00038271274 -6.9611293e-20)
(0.10517239 -0.00011834339 -1.8553982e-20)
(0.10502412 0.00018332497 -6.7276806e-23)
(0.10520971 -0.00085964303 -2.8017081e-20)
(0.10542361 -0.00074961205 1.8101698e-20)
(0.10564015 -0.0018039172 0)
(0.10595089 -0.0012870495 -3.6684642e-20)
(0.10632472 -0.00089067193 4.3667406e-22)
(0.10677889 -0.0019795133 1.8513115e-20)
(0.10738561 -0.0020761742 1.194061e-21)
(0.10831566 -0.0029106597 -9.9835505e-21)
(0.10859402 -0.0030006543 -2.4082066e-22)
(0.10951401 -0.0044472423 1.3146713e-20)
(0.11137185 -0.004782298 -3.4420247e-22)
(0.11184291 -0.0047930906 -3.3539013e-23)
(0.11365071 -0.0079354272 2.6178375e-20)
(0.11604831 -0.0096158453 -9.8781229e-21)
(0.11730043 -0.0078641025 0)
(0.11925368 -0.0072512206 1.160363e-22)
(0.12123948 -0.011130476 2.4507244e-20)
(0.12387906 -0.012598836 2.2230938e-20)
(0.12732033 -0.011902858 -1.8979138e-20)
(0.13025256 -0.011857567 -3.9543119e-21)
(0.13229853 -0.014533541 -2.6670189e-20)
(0.13393982 -0.018481262 -2.1602089e-20)
(0.10991135 0.0010412958 -2.3332939e-19)
(0.10427604 -0.00010679684 -5.5940262e-20)
(0.10787923 -0.00062793298 1.9872227e-21)
(0.10685667 -0.00060722492 -5.3650094e-20)
(0.10664353 -0.0010193798 -5.3765007e-20)
(0.10667947 -0.0011680367 -3.7123693e-22)
(0.1067257 -0.00069810849 1.7064699e-19)
(0.10682731 -1.8383816e-05 1.5437921e-20)
(0.10692256 -0.00011483114 3.1426281e-22)
(0.10716205 -0.0010765508 -1.6707298e-22)
(0.10745162 -0.00070347823 -1.2512943e-20)
(0.1075996 -0.0016082687 3.2120292e-22)
(0.10771605 -0.0011456771 4.2222477e-22)
(0.10816777 -0.00062390468 4.7797256e-23)
(0.10850307 -0.0015327325 1.6845398e-20)
(0.10880271 -0.0018240052 7.0131659e-23)
(0.10947518 -0.0023789362 3.2417187e-20)
(0.10979855 -0.0018233445 -2.5310644e-22)
(0.11048187 -0.0045203742 -2.0022077e-22)
(0.11178673 -0.0045895276 0)
(0.11282878 -0.0040274411 2.3906993e-20)
(0.11454631 -0.0074341302 3.4544288e-22)
(0.11584754 -0.0078139955 -1.9895766e-20)
(0.11650777 -0.0070897926 -1.6590589e-22)
(0.11916995 -0.006694696 -7.2716962e-21)
(0.12181298 -0.0093039661 -2.244735e-20)
(0.12340579 -0.011695878 -3.6664071e-21)
(0.12597708 -0.011313749 -2.1675174e-22)
(0.12954788 -0.010990019 -3.4794899e-21)
(0.13272109 -0.012165279 8.762066e-21)
(0.13454773 -0.015359936 -1.4036645e-21)
(0.10067996 0.0010849052 3.0256841e-19)
(0.10186521 -0.00092424014 -1.9514205e-22)
(0.10733583 -0.0014947973 2.8161955e-19)
(0.10693774 9.1567407e-05 -3.8808587e-21)
(0.10763341 -0.0013742864 8.2190557e-22)
(0.10837944 -0.00023167156 2.3210264e-20)
(0.10895741 -0.00052804434 0)
(0.10937347 -1.1535128e-05 -6.9793834e-24)
(0.10967104 -0.00070816319 -1.449058e-23)
(0.10990167 -0.00085575999 -8.4799441e-20)
(0.11024978 -0.00054402926 -3.4512505e-23)
(0.11036735 -0.00061881567 -1.8759538e-22)
(0.11030982 -0.00071455148 -2.1214735e-20)
(0.11072205 -0.00059830884 1.0281319e-20)
(0.11100667 -0.0010529072 -6.0121443e-21)
(0.11106663 -0.0016526986 -8.5933849e-23)
(0.11128787 -0.002351917 -2.9023709e-22)
(0.11185165 -0.0013141508 6.9292866e-23)
(0.11238156 -0.004043221 0)
(0.11271962 -0.004366818 -1.3055811e-20)
(0.11413977 -0.0034401273 2.1353067e-20)
(0.11581872 -0.0059520798 -1.5453178e-20)
(0.11641254 -0.0060654727 -8.5013716e-21)
(0.11700571 -0.0055874225 -6.9933844e-23)
(0.11971867 -0.0071219502 -2.4528058e-21)
(0.12272496 -0.0089540393 -5.5819048e-21)
(0.12371777 -0.010631335 -3.4418135e-21)
(0.12521662 -0.010258579 7.8787641e-21)
(0.12875205 -0.010210929 -1.6560301e-20)
(0.13259352 -0.010461038 -1.6003384e-21)
(0.13540561 -0.012596524 8.2838647e-22)
(0.096999289 0.0018093292 4.5442492e-19)
(0.098503796 -0.001215469 7.7223006e-23)
(0.10523475 -0.0020932179 1.7215025e-21)
(0.10582573 0.00027946574 4.628691e-19)
(0.10719502 -0.0014765528 -1.3308569e-21)
(0.10862001 0.00045821855 -6.2232938e-20)
(0.10977956 -0.00037885698 0)
(0.11079539 -0.00038248392 0)
(0.11168 -0.0011656339 3.8105961e-21)
(0.11207434 -0.00061348222 0)
(0.11243985 -0.00071128633 -2.8710897e-20)
(0.1125828 0.00010773734 1.501633e-20)
(0.11247099 -0.00055761065 0)
(0.11280338 -0.00087340583 -1.4826718e-21)
(0.11310115 -0.00092131164 1.6420455e-20)
(0.11320636 -0.0014123153 -1.8353082e-20)
(0.11308212 -0.0022153419 4.521289e-22)
(0.11377395 -0.0017177555 -2.5634689e-21)
(0.11438716 -0.003008265 3.7242083e-20)
(0.11401358 -0.0036248185 2.7241423e-20)
(0.11548068 -0.0032639135 -4.5707058e-21)
(0.11731379 -0.0045270207 -4.6263159e-23)
(0.11743461 -0.0048520866 4.4749201e-21)
(0.11829628 -0.0045531187 -8.3727319e-21)
(0.12123627 -0.0066367236 4.563143e-21)
(0.12401524 -0.0083637469 2.3133518e-20)
(0.1246224 -0.0089524767 -5.0961981e-21)
(0.1253959 -0.008987952 -1.1783415e-21)
(0.12851575 -0.0093617185 2.1029955e-20)
(0.13248026 -0.0090697069 4.7380439e-21)
(0.13599526 -0.010205308 -6.2899771e-21)
(0.096674853 0.0018335963 -4.394262e-19)
(0.097656152 -0.0015306292 -3.6464717e-22)
(0.10362099 -0.0026909088 2.3425588e-19)
(0.10440627 0.00021251844 -3.1510114e-19)
(0.10603954 -0.00066309632 1.668386e-19)
(0.10787749 0.0012151115 -1.1597408e-21)
(0.10950668 0.00020013387 4.1841145e-22)
(0.11064353 -0.00040104234 -4.10458e-20)
(0.11174335 -0.00068669464 1.519959e-19)
(0.11232003 -0.00036388312 -1.3527847e-20)
(0.11271567 -0.00070563941 1.6256806e-20)
(0.11298521 0.00054271648 3.9386179e-22)
(0.11300091 -0.00035189002 -1.9304528e-20)
(0.1132101 -0.00091788282 -3.8925798e-21)
(0.11350365 -0.0010437543 3.1358463e-20)
(0.1138435 -0.0011250598 -1.5571963e-20)
(0.11375245 -0.0015878765 -1.5872093e-20)
(0.11452403 -0.0021994865 -3.6764272e-21)
(0.11546194 -0.0021930024 6.8728724e-23)
(0.11509586 -0.0025929263 -3.2453705e-20)
(0.1163398 -0.003353806 2.0191498e-20)
(0.11836409 -0.0038605587 -1.4532538e-20)
(0.11848473 -0.0040064105 -8.7016408e-22)
(0.11933551 -0.0039353978 1.647739e-23)
(0.12245771 -0.0053234577 -4.8121381e-21)
(0.12510916 -0.0065611348 -2.290757e-20)
(0.12579264 -0.0063344618 -2.1610904e-22)
(0.12635638 -0.0070015244 1.1926122e-20)
(0.12868039 -0.0081257906 -1.108787e-20)
(0.13234828 -0.0082399919 1.1235205e-20)
(0.13610109 -0.0089985017 3.7443343e-20)
(0.097019681 0.0020925905 -5.3821949e-19)
(0.097828682 -0.00055339069 3.746412e-24)
(0.1032083 -0.002581156 4.0668974e-22)
(0.1037222 -0.00068470459 -2.6252771e-22)
(0.10526231 -0.00038220762 -4.4295278e-20)
(0.10735087 0.00047299068 1.5020804e-19)
(0.10932228 -0.00011494897 -7.6570319e-20)
(0.11043283 -0.00055213402 2.490084e-20)
(0.11150623 -2.1121475e-05 6.3451556e-20)
(0.11211925 -0.00032098482 -3.1067749e-22)
(0.11240769 -0.00071686069 2.3823605e-20)
(0.11277543 -6.9235576e-05 6.9188356e-20)
(0.11299592 -0.00061421972 -6.8734675e-23)
(0.11319227 -0.0010169775 5.4563329e-21)
(0.11345984 -0.001036586 -1.1008883e-22)
(0.11383569 -0.0007471511 -1.0792503e-21)
(0.11390181 -0.00053947128 4.9493095e-21)
(0.11460474 -0.0021595248 0)
(0.1156589 -0.001592033 -4.6350442e-22)
(0.11577584 -0.0017608772 2.4420556e-22)
(0.1167377 -0.003138369 -6.1627923e-20)
(0.11855746 -0.0034265477 -1.3900799e-20)
(0.11884863 -0.0033598098 4.9027729e-21)
(0.11958699 -0.0034810422 -1.440127e-20)
(0.12265431 -0.0047786418 1.1311072e-20)
(0.12520399 -0.0051769616 -3.3786836e-21)
(0.12630068 -0.0043407447 -2.0181589e-21)
(0.12724031 -0.0052130719 -6.9452976e-21)
(0.12914477 -0.0070080993 1.5267447e-20)
(0.13227306 -0.0079027908 -1.1626861e-20)
(0.13557519 -0.0085202602 -7.5917484e-20)
(0.098066874 0.0019375382 7.6885817e-20)
(0.098824685 7.2806723e-05 9.3629958e-20)
(0.10392845 -0.002093223 1.1452411e-19)
(0.10427355 -0.00072341056 -3.3736736e-19)
(0.10583342 0.0005968078 9.142636e-22)
(0.10764199 -9.6795358e-05 5.6320497e-23)
(0.1095438 -0.00026723195 -8.7069641e-23)
(0.11066417 -0.00018830407 1.0891478e-20)
(0.11157143 0.00034851515 -4.1025955e-20)
(0.11225346 -0.00019274708 1.0022051e-20)
(0.112457 -0.00016398825 6.2832995e-22)
(0.11277869 -0.00032090171 -9.6108092e-23)
(0.11307851 -0.00044457488 -5.1959907e-21)
(0.11324702 -0.00053529926 4.0766461e-23)
(0.11349905 -0.00061725279 1.7206372e-20)
(0.11381535 -0.00065253465 8.4797096e-21)
(0.11425609 -0.00028931331 1.040298e-22)
(0.11495636 -0.0020074812 1.0731008e-22)
(0.11579084 -0.001183817 -5.9712143e-20)
(0.11610572 -0.0012944879 1.8161094e-20)
(0.11703664 -0.0028863543 -4.3542719e-22)
(0.11890239 -0.0029425847 9.5993737e-21)
(0.1191738 -0.0017597645 -4.3493046e-22)
(0.11981814 -0.0020868649 -3.119304e-20)
(0.12250808 -0.0043744144 4.6137469e-21)
(0.12489064 -0.0042044451 -1.1755059e-20)
(0.12637126 -0.0028575276 -4.6237806e-20)
(0.12787479 -0.0031144873 -5.1263576e-21)
(0.12952339 -0.0052928874 -1.1436584e-20)
(0.13201717 -0.0070708498 6.0289704e-21)
(0.13459114 -0.0073542801 7.4152952e-21)
(0.10463986 0.0017390649 -1.1066328e-18)
(0.10222485 0.002320399 3.8060648e-21)
(0.10553601 -0.00091399092 -2.1633745e-21)
(0.1052117 -0.0013045795 -1.6949238e-21)
(0.1066732 3.6772167e-05 -5.7058641e-22)
(0.10844022 -0.0014671752 2.7077902e-22)
(0.10990484 -0.00083287306 -1.9812668e-22)
(0.11071632 -0.00016455028 6.9315292e-22)
(0.1117484 5.5261899e-05 -8.3011975e-24)
(0.11238812 -0.0001410808 1.0146027e-22)
(0.11268136 -0.00016310959 1.9352885e-23)
(0.11309675 -0.00095282092 1.6009996e-20)
(0.11340752 -0.00040290772 -2.7293743e-20)
(0.11375098 -4.7006974e-06 -1.3280401e-22)
(0.11413462 0.00041529655 -4.827286e-22)
(0.11439798 -0.00019263303 -3.9520394e-23)
(0.11495527 -0.00032249636 1.5915314e-21)
(0.11544409 -0.0017586896 4.2041243e-22)
(0.11605072 -0.00043530831 5.2570055e-20)
(0.11673973 -0.00093007573 -2.3498871e-20)
(0.11770183 -0.0011608853 -1.5941346e-20)
(0.11860571 -0.0019799557 -1.0129624e-22)
(0.1190882 -0.0018824703 -2.0118859e-21)
(0.12053502 -0.0019609451 4.0126439e-22)
(0.12328162 -0.0028840849 6.5160217e-21)
(0.12453936 -0.0031908883 1.7786438e-20)
(0.12584801 -0.0025124914 6.4012331e-23)
(0.12820001 -0.0013302397 -7.7701793e-21)
(0.1306087 -0.0019176955 -1.4818505e-20)
(0.13254551 -0.0042473119 3.8707662e-20)
(0.13393942 -0.0053386019 -4.9924907e-21)
(0.11615895 0.0015422665 -1.2603499e-20)
(0.099717654 0.00095106433 -2.1162916e-19)
(0.10429282 -0.00036130522 2.0048881e-19)
(0.10425005 -0.00063490405 3.6358766e-19)
(0.10599973 0.00046562193 1.591773e-19)
(0.1084319 -0.0015014165 -7.9052048e-20)
(0.11010446 -0.00046386315 -1.9899928e-19)
(0.11131173 0.00016289076 -8.2453139e-23)
(0.11284954 -0.00038060739 8.0784183e-20)
(0.11404348 5.5413603e-05 -3.2980486e-20)
(0.11454981 0.00064427025 4.6561862e-20)
(0.11525845 -0.00049888579 -5.4425324e-22)
(0.11552993 0.00011254443 -5.7645414e-20)
(0.11609438 0.00072264418 -1.3113799e-20)
(0.11662616 0.00055881757 3.7678448e-22)
(0.11708043 0.0001918165 1.1819839e-20)
(0.11766293 -0.00052379511 -2.8118185e-22)
(0.11779172 -0.0013933563 1.9864324e-20)
(0.11820005 -0.00042794249 -3.7722152e-22)
(0.11881702 -0.00074234009 -1.7154829e-20)
(0.11989981 -0.00011094827 3.278076e-20)
(0.12147815 -0.0011774715 7.6934217e-23)
(0.1211881 0.00053766708 -1.3216021e-21)
(0.1222522 -0.00066928723 7.2610468e-21)
(0.12500989 -0.0023809077 -3.5985609e-22)
(0.1267395 -0.0018157858 -2.107672e-20)
(0.12688169 -0.00069952337 4.5727854e-20)
(0.12897144 0.00087047509 0)
(0.13224286 0.00040457368 1.2503881e-21)
(0.13533219 -0.0013125501 5.0482094e-20)
(0.13604713 -0.0025561605 3.4748768e-20)
(0.10612206 0.00068139778 1.7036534e-19)
(0.066352391 0.0003091477 0)
(0.11667569 -0.0016850709 -2.404397e-22)
(0.11687622 -0.00039020961 3.5479838e-20)
(0.11643183 -0.00045702888 1.5295322e-20)
(0.12291636 -0.00051652797 -2.3449343e-21)
(0.11817241 -0.00042801521 -1.1280058e-19)
(0.12738229 5.2111962e-05 1.1933462e-20)
(0.12073887 -5.4394652e-05 3.0743426e-20)
(0.12954239 7.1392815e-06 -9.1696111e-21)
(0.12287343 -0.00039625384 1.1730251e-21)
(0.13183147 4.8843175e-05 -8.1775713e-21)
(0.12094093 -0.00013543657 1.1826163e-20)
(0.13171877 0.00065622642 -8.9528254e-21)
(0.11822195 0.00060480693 -1.019032e-20)
(0.13104786 0.00031889875 -6.0055643e-22)
(0.1175928 0.00023167145 -1.0270744e-20)
(0.13094271 -0.0004452742 1.1226077e-20)
(0.11901027 0.00035864105 -1.6136133e-20)
(0.13139917 -0.0013744006 2.8925989e-22)
(0.13165959 0.0017626771 1.7640783e-20)
(0.12287971 -0.00088230557 3.3466068e-21)
(0.13468664 -0.0033446798 1.1680112e-21)
(0.13853052 0.00037612591 -5.8468577e-22)
(0.13299055 0.0023005251 -9.9540127e-21)
(0.13347231 -0.0024845896 -5.6621486e-21)
(0.13877913 -0.0026548736 -7.3252352e-21)
(0.14322529 0.00032397235 4.2790738e-21)
(0.14575757 0.0020227419 -3.0046802e-21)
(0.14421413 6.1665111e-05 1.5519662e-21)
(0.14635914 -0.0010420297 1.2289847e-21)
(0.14943325 -0.00093412372 -6.5070474e-22)
(0.13766293 -0.0021200863 -3.8996168e-21)
(0.13641015 -0.0038028934 -4.5286711e-21)
(0.13765449 -0.0048615256 -5.6268213e-20)
(0.13895378 -0.0060527625 2.1337296e-20)
(0.13918016 -0.0076600566 -6.9176399e-21)
(0.13811218 -0.01055233 -9.987423e-21)