/*--------------------------------*- C++ -*----------------------------------*\
| =========                 |                                                 |
| \\      /  F ield         | OpenFOAM: The Open Source CFD Toolbox           |
|  \\    /   O peration     | Version:  2406                                  |
|   \\  /    A nd           | Website:  www.openfoam.com                      |
|    \\/     M anipulation  |                                                 |
\*---------------------------------------------------------------------------*/
FoamFile
{
    version     2.0;
    format      ascii;
    arch        "LSB;label=32;scalar=64";
    class       volScalarField;
    location    "105";
    object      p_0;
}
// * * * * * * * * * * * * * * * * * * * * * * * * * * * * * * * * * * * * * //

dimensions      [1 -1 -2 0 0 0 0];

internalField   nonuniform List<scalar> 
20580
(
1.0013632
1.0073998
1.0008409
1.0030834
1.0056342
1.0042668
1.0021033
1.0033873
1.0031117
1.0033229
1.0046323
1.0034685
1.0037523
1.005415
1.0041605
1.0038451
1.0067238
1.0042244
1.0009636
1.0081185
1.0067437
1.0012068
1.0035339
1.0101572
1.0030012
0.99400281
1.0025178
1.0040193
0.99974481
1.0118785
1.0178314
1.0014107
1.0075927
1.0002843
1.0025077
1.0059143
1.0044149
1.0020124
1.0033139
1.0028157
1.0037758
1.0040796
1.0028906
1.0045252
1.0058085
1.003779
1.0044275
1.0076206
1.0013965
1.0021874
1.0101734
1.0037791
1.0004593
1.0048454
1.0082725
0.99896217
0.98978181
1.0045516
1.0133079
1.0008203
1.000899
1.0147988
1.0022849
1.0066772
1.0013867
1.0023918
1.0049293
1.0037665
1.0028461
1.0032188
1.0025765
1.004362
1.0033844
1.0029152
1.0049813
1.0052557
1.003675
1.0045939
1.0078025
0.99995908
1.0035924
1.010798
1.0012674
1.0003583
1.0065048
1.0072166
0.99874161
0.99018552
1.0051974
1.0201971
1.0035556
0.98872286
1.0027233
1.0037131
1.0049998
1.0036483
1.0029026
1.0032395
1.0026891
1.0039637
1.0030961
1.0027272
1.0045492
1.0031184
1.0031783
1.0047796
1.0042769
1.0036614
1.0045862
1.0070852
0.99983859
1.0052196
1.0098337
0.99968394
1.0018173
1.0077243
1.0057523
1.0018338
0.99535286
1.0048101
1.0209774
1.0083468
0.98254073
0.98574523
1.0052189
1.0031788
1.0058531
1.0037849
1.0017184
1.0019822
1.0044806
1.0027875
1.003415
1.0039533
1.0032757
1.0035812
1.0042788
1.0037156
1.0033232
1.0044663
1.0053183
1.0006061
1.0070002
1.0075765
0.99853926
1.004862
1.0086282
1.0028737
1.0053838
1.0040884
1.0040575
1.0140888
1.0120309
0.98748146
0.97709289
1.0061333
1.0020042
1.0068232
1.0048171
1.0011054
1.0022114
1.0038966
1.0024356
1.0041087
1.0028887
1.0034309
1.0038519
1.0039724
1.0033489
1.003335
1.0044592
1.00361
1.0023676
1.0082878
1.0048349
0.99835495
1.0075928
1.0092519
0.99890975
1.0060945
1.0125992
1.0040104
1.0024211
1.0091743
1.0007459
0.9839201
1.0060151
1.0020785
1.0061066
1.0055288
1.0017696
1.0032226
1.0027742
1.0024442
1.0042126
1.0021719
1.0035396
1.0041408
1.0038287
1.002828
1.0040375
1.0045383
1.0020335
1.0043025
1.0087174
1.0022152
0.99943828
1.0096105
1.0091857
0.99524701
1.0033907
1.0170059
1.0054842
0.99180188
0.99946771
1.0116459
1.0034946
1.004939
1.0033618
1.0041198
1.0051945
1.0032546
1.0044162
1.0021312
1.0030619
1.003612
1.002283
1.0034446
1.0046145
1.0037054
1.0025171
1.0048889
1.0048906
1.000975
1.0057452
1.0081212
1.0003166
1.0010925
1.0103435
1.0085234
0.993966
0.99977825
1.0158833
1.0078412
0.9867846
0.98916028
1.0127301
1.0227792
1.0033282
1.0052029
1.0018397
1.0037332
1.0046873
1.0049464
1.0024619
1.0040337
1.002758
1.0029893
1.0031496
1.0046516
1.0034901
1.0030082
1.0052925
1.0055293
1.0010662
1.0066308
1.0065664
0.99977977
1.0035422
1.008996
1.0067966
0.99606075
0.99773423
1.0109417
1.0091552
0.98928421
0.98472297
1.0049696
1.0280382
1.0018202
1.0068647
1.000692
1.0019953
1.0054106
1.0043201
1.0033245
1.0045609
1.0022494
1.0038765
1.0027764
1.0042334
1.0033325
1.0037217
1.0050596
1.0055505
1.00195
1.0072542
1.004445
0.9999185
1.0069844
1.0065372
1.0034812
1.0011145
0.99927556
1.0048813
1.0076098
0.99845344
0.98955979
0.9969613
1.0164285
1.0011234
1.0075925
1.0012966
1.0008445
1.0050965
1.0030318
1.0039342
1.0040271
1.0023685
1.0042242
1.0029361
1.0037094
1.0035526
1.0044996
1.0043935
1.0049663
1.0033925
1.0072816
1.0022971
1.0004505
1.0099583
1.0041234
0.99889539
1.0065495
1.0051529
0.99980502
1.00258
1.0083317
1.0026248
0.99663952
0.99851736
1.0016435
1.0068697
1.0029654
1.0008406
1.0039406
1.0019286
1.0039652
1.0026901
1.0030175
1.0036052
1.0037654
1.003116
1.003575
1.0052963
1.0036352
1.0038973
1.004767
1.0066209
1.0007638
1.0018833
1.0118904
1.0022626
0.99450927
1.0093966
1.0127607
0.99767738
0.99583007
1.0114605
1.0174714
1.0044561
0.98899618
1.0030678
1.0050445
1.0047286
1.0024204
1.0027245
1.001711
1.003515
1.0015809
1.0037249
1.0026427
1.0045382
1.0025628
1.0031425
1.0057212
1.0029852
1.002591
1.0056923
1.0059174
1.0002863
1.0032457
1.0124202
1.0018669
0.99240729
1.0090167
1.0176679
0.99936026
0.9908978
1.0061868
1.0242784
1.0149705
0.99111634
1.0047868
1.0031756
1.0057233
1.0050412
1.0020525
1.0026818
1.0029607
1.0015248
1.0039123
1.0023336
1.0046432
1.0025119
1.0031141
1.005207
1.0027491
1.0018463
1.0059583
1.0047436
1.0010274
1.004158
1.0104556
1.0025565
0.99369181
1.0066234
1.0169729
1.0032843
0.99046346
0.99888848
1.0176898
1.0194363
1.0005623
1.0059916
1.0020442
1.0052884
1.0070098
1.0020948
1.0040673
1.0027603
1.0027247
1.0033576
1.0029932
1.0039181
1.003091
1.0037388
1.0039115
1.003328
1.0019123
1.0056865
1.0031758
1.0026799
1.0056301
1.0066297
1.0029253
0.99842955
1.004559
1.0105253
1.005455
0.99527024
0.99669871
1.0040405
1.0122813
1.007571
1.006095
1.0021883
1.0040213
1.0070591
1.0028597
1.0050625
1.002908
1.0042851
1.0024472
1.003858
1.0029303
1.0037256
1.0043599
1.0027814
1.0041699
1.0027024
1.0054741
1.0019022
1.0043422
1.0074177
1.0023782
1.0023078
1.0054085
1.0047377
1.0017107
1.0030271
1.0040772
1.0006541
0.9952382
0.99775202
1.0059754
1.0047576
1.0037363
1.0030423
1.0054711
1.0038744
1.0048881
1.0031747
1.0049464
1.0019564
1.004076
1.0023857
1.004065
1.0044062
1.0021826
1.0046532
1.0037495
1.0051119
1.0011217
1.0057462
1.0085495
0.99887938
1.0006835
1.0112621
1.0071772
0.99501231
0.99721639
1.0113121
1.0091952
0.99553446
0.9868341
0.99766797
1.0028555
1.0057952
1.0024957
1.0023766
1.0044042
1.003511
1.0032968
1.0041771
1.0025009
1.0034964
1.0023415
1.0040327
1.0041245
1.002201
1.0046713
1.0047977
1.0049491
1.0008534
1.006434
1.009174
0.99728012
0.9989321
1.0136476
1.0106043
0.99248139
0.99242514
1.0123555
1.018047
1.0018159
0.98593762
0.99014861
1.0012602
1.0071391
1.0026223
0.99965522
1.0043795
1.0021641
1.003341
1.0026235
1.0037203
1.0028563
1.0026661
1.0036737
1.0041334
1.0027924
1.0042357
1.0055629
1.0050969
1.0012751
1.0059053
1.0089789
0.99834733
0.99842747
1.0123015
1.0122129
0.99430861
0.99219687
1.0079832
1.0205523
1.0093283
0.99267747
0.99021006
1.0009579
1.0071617
1.0031289
0.99935563
1.0039497
1.0014434
1.0033406
1.0013814
1.0046514
1.0025972
1.0031598
1.0034077
1.0042769
1.0033988
1.0036685
1.0055115
1.0045671
1.0026599
1.0050473
1.0068493
1.0010913
1.0001286
1.0083991
1.0100728
0.99876059
0.99678541
1.0045053
1.0130562
1.0112118
1.0022092
0.99719369
1.0022012
1.0057209
1.0036242
1.0014473
1.003455
1.0019776
1.0032802
1.0014371
1.0044786
1.0028165
1.0036407
1.0034653
1.0038616
1.0039382
1.0032387
1.0046116
1.003563
1.0046948
1.0046586
1.0031955
1.0044596
1.0040151
1.004431
1.0037185
1.0034013
1.0037876
1.0049337
1.0016728
1.0040088
1.0079625
1.0070242
1.004532
1.0036383
1.0035966
1.005206
1.0030776
1.0037494
1.0031605
1.0031363
1.0028718
1.0031386
1.0038958
1.0033468
1.0029174
1.0044791
1.0032589
1.0036766
1.0022439
1.0063813
1.0046757
0.99951852
1.0064146
1.0087329
1.0020649
0.99704083
1.0041001
1.011776
1.0080887
0.9939326
0.99253094
1.0061825
1.013611
1.0062492
1.0023008
1.0038644
1.0083039
1.0029257
1.0050545
1.003004
1.0050274
1.0011325
1.0032499
1.0037474
1.0034145
1.0020899
1.0049402
1.0038234
1.0030657
1.0008546
1.0072446
1.0053636
0.99731883
1.0058618
1.0127735
1.0023465
0.99343905
1.0008493
1.0163123
1.0124492
0.99352696
0.98508838
0.99937067
1.0145247
1.0112174
1.0061953
1.0013592
1.0006624
1.0058405
1.0126576
1.0149632
1.0094916
0.99519014
0.98012397
0.97538727
0.98611071
1.0071583
1.0237979
1.0236148
1.0083853
0.99189272
0.98818617
0.99913626
1.0147677
1.019578
1.0047061
0.98267262
0.98475116
0.98840168
0.99722355
1.0078361
1.0171715
1.0215223
1.0181577
1.0077526
0.99811512
0.99458174
0.99868497
1.0058143
1.0076967
0.99999132
0.98523964
0.97579277
0.9811711
1.0013984
1.0260275
1.0393123
1.028278
1.0006088
0.97620825
0.99708887
1.0014748
1.0021461
0.99883301
0.99263586
0.98622775
0.98512492
0.99244058
1.0077303
1.02351
1.0309386
1.0261287
1.0094005
0.9878641
0.97385814
0.97481752
0.98897578
1.006192
1.0158793
1.0116667
0.99879983
0.98936575
0.99155978
1.0327886
1.02466
1.0088136
0.98980915
0.97379546
0.96891048
0.9759265
0.99184305
1.0069999
1.0161612
1.0143677
1.0033531
0.99283958
0.99182559
1.0027974
1.0189938
1.0276953
1.0196515
0.99602433
0.96819087
0.95533801
0.96388209
0.99084647
1.0167465
1.0078763
1.0000624
0.99622984
1.0000221
1.0089267
1.0170604
1.0187722
1.0082913
0.98921603
0.96803537
0.95825213
0.9652669
0.98875161
1.0209103
1.0459955
1.0493248
1.0292785
0.99529157
0.96838729
0.96156
0.97346284
0.99538959
0.96787653
0.97131699
0.98438855
1.0057882
1.0272157
1.041202
1.042304
1.0300065
1.0081792
0.98477312
0.96933474
0.9679531
0.97877366
0.99459564
1.0081098
1.0123825
1.0031706
0.98976174
0.98521885
0.99338162
1.0114546
1.0294684
1.0339783
0.97276832
0.98397604
0.99561371
1.0026442
1.0043206
1.0010978
0.99539008
0.99069551
0.99087213
0.99908456
1.0141609
1.0290313
1.036287
1.0282267
1.0035637
0.97100193
0.94358933
0.93840512
0.95426307
0.98941022
1.0331298
1.0658168
1.0667829
1.036834
1.0306468
1.0146752
0.99247896
0.97011879
0.95195199
0.94157238
0.94667644
0.9680969
1.0012996
1.036082
1.0597913
1.0621569
1.0432689
1.0112639
0.97716003
0.952895
0.94691534
0.95994648
0.98397168
1.0100104
1.0265863
1.0227696
1.0520625
1.0384022
1.0186698
0.99607065
0.97402409
0.95968321
0.96038309
0.97123934
0.98574524
0.99799074
1.0056471
1.0072232
1.0027109
0.99847112
0.99522858
0.99864632
1.0082448
1.0180001
1.0250553
1.0207793
0.99987762
0.97136301
0.94569457
0.98369132
0.98335089
0.98898516
0.99946919
1.0136896
1.0283472
1.0381116
1.0409868
1.0292959
1.0052574
0.97431768
0.94560423
0.92757988
0.92798705
0.94928918
0.98893408
1.0366245
1.0770523
1.09083
1.0705592
1.022743
0.96827916
0.92268632
0.92810002
0.9357011
0.95621899
0.98971228
1.0324204
1.0718364
1.0931055
1.0850378
1.0530368
1.0114402
0.97129971
0.93954868
0.92007858
0.91951423
0.93710929
0.97128046
1.014091
1.0523712
1.0724395
1.0654461
1.036896
0.99726326
0.96226852
0.93426509
0.95079079
0.97482329
1.0010409
1.0206924
1.0322346
1.036094
1.033883
1.0273373
1.0165924
0.99889161
0.98061923
0.9713138
0.97472773
0.98530536
0.99408712
0.99636973
0.98975926
0.98448571
0.98260891
0.98907757
1.0009252
1.0119457
1.0124263
1.0175744
1.0161571
1.0048909
0.98527032
0.96407439
0.94945495
0.94650189
0.95717421
0.97871243
1.0074426
1.0347393
1.0558806
1.0643009
1.0567787
1.0314487
0.9951884
0.95566273
0.92423298
0.90866796
0.91894191
0.95103338
1.0027373
1.1038875
1.080235
1.0381192
0.99224419
0.95215675
0.92271318
0.90519666
0.90001105
0.91123508
0.93939201
0.98572637
1.0458868
1.1012746
1.129117
1.1160364
1.0667101
1.0045796
0.94928573
0.90741933
0.88717338
0.88818094
0.91692076
0.9700117
1.1243797
1.0924798
1.0444703
0.99347592
0.95056895
0.92014088
0.90274078
0.89957769
0.91050722
0.93757389
0.97988293
1.0319429
1.0820888
1.1153799
1.1125782
1.0778083
1.0230424
0.96824548
0.92685887
0.90210384
0.90143334
0.91896472
0.95649527
1.0699936
1.0539682
1.0336535
1.0084772
0.97862397
0.95178865
0.93460856
0.93080082
0.94199657
0.96366904
0.99096686
1.0165308
1.0368871
1.054184
1.0595063
1.0515926
1.0297447
0.99625022
0.96197284
0.9406604
0.93769136
0.94833883
0.96645367
1.0000036
1.0033207
1.0096832
1.0107475
1.0056565
0.99359719
0.98192749
0.97968112
0.98723667
0.99803517
1.0039792
1.0019765
0.99220063
0.99015397
0.99862018
1.0099796
1.0172114
1.0130348
1.0006701
0.98919684
0.98461994
0.98513994
0.98664857
0.94752174
0.9620926
0.98567858
1.0092193
1.0255053
1.0306866
1.0284841
1.0270686
1.0278711
1.0235499
1.0092329
0.98615834
0.96089704
0.94669524
0.95337514
0.97441093
1.000225
1.0205477
1.0304457
1.031624
1.0287411
1.0202794
1.0059921
0.92254455
0.94006983
0.97186796
1.0074166
1.035877
1.0526634
1.0588702
1.058209
1.0520004
1.0367975
1.0085405
0.97202939
0.94044198
0.92278575
0.92761495
0.95276151
0.99082472
1.0277654
1.0512739
1.061708
1.0592515
1.0422792
1.0152426
0.91640003
0.93574424
0.97030361
1.0086157
1.0406963
1.0621794
1.0709191
1.069233
1.0595554
1.0380795
1.0054018
0.96416562
0.92861994
0.91018947
0.91786
0.94678047
0.98982627
1.0333856
1.0639038
1.0782992
1.0744857
1.0491345
1.0120318
0.92970516
0.94638969
0.97694724
1.011906
1.0391381
1.0547127
1.0593182
1.0596865
1.0549903
1.0386246
1.0046787
0.96218067
0.9288506
0.91405467
0.92432301
0.95696845
1.0015004
1.0408439
1.0648831
1.0758887
1.0699125
1.0426692
1.002856
0.96715183
0.97807008
1.0005516
1.0189525
1.0270391
1.0262548
1.0224538
1.0236696
1.0299316
1.025982
1.0054506
0.97477931
0.94341941
0.93068822
0.94588488
0.98009896
1.0162275
1.0409603
1.0546631
1.0585562
1.0522142
1.0295678
0.99423355
1.0516924
1.0402961
1.0323038
1.0198119
0.99797117
0.97706811
0.96595912
0.97042775
0.99085868
1.0079331
1.008763
0.99615213
0.97734919
0.97584071
0.99070859
1.0101757
1.0218027
1.0187804
1.0153246
1.0180872
1.02206
1.0118214
0.98847617
1.1686679
1.114011
1.0502819
0.99319554
0.94649165
0.91172947
0.89993641
0.91052295
0.93522323
0.97462188
1.0131968
1.0406188
1.0579043
1.0603846
1.0516223
1.0294388
0.9992737
0.9714962
0.95901362
0.96292485
0.9792505
0.99137682
0.99384694
1.1935231
1.131185
1.0378409
0.96088383
0.90446269
0.86708297
0.85191748
0.85423268
0.88881316
0.95387346
1.0401693
1.1217405
1.1661368
1.1481702
1.0842729
1.0131348
0.95105438
0.90954525
0.89305572
0.90486226
0.94166163
0.99110241
1.0394177
0.99588737
1.0160079
1.0137846
0.97896342
0.93976528
0.90034801
0.89277968
0.90240473
0.9365869
1.0006152
1.0817318
1.1568702
1.188321
1.1436092
1.0533459
0.96259387
0.8917162
0.8529785
0.84691389
0.87675074
0.94888942
1.0486873
1.1379906
0.89067085
0.92634041
0.98418138
1.0371
1.0646811
1.049589
1.0259353
1.0055233
0.99669674
0.99674101
1.0154006
1.041126
1.0645045
1.0558315
1.006381
0.94103789
0.88467912
0.86040832
0.87388629
0.93277289
1.0239513
1.1232991
1.1883176
0.87951111
0.90546023
0.96743466
1.0556223
1.128053
1.1458666
1.0987094
1.0306761
0.96563509
0.91153772
0.89389172
0.90604373
0.9444399
0.98974291
1.0145768
1.0068706
0.98126484
0.96968581
0.9743557
0.99814929
1.0317334
1.0697631
1.090312
0.99778505
0.96567745
0.95988444
0.97955671
1.0091678
1.0406547
1.0356809
0.99404329
0.93352485
0.88150189
0.85943976
0.87872407
0.92278461
0.99831977
1.0828441
1.127886
1.1019759
1.0418993
0.98839056
0.95160025
0.93428939
0.94480713
0.98344566
1.0943283
1.0280147
0.95378902
0.90054011
0.89216132
0.92440462
0.96711616
0.99688498
1.0030206
0.98151164
0.96289459
0.95782012
0.978502
1.0148756
1.0662186
1.1029296
1.0856587
1.0162319
0.93890132
0.89026118
0.87937991
0.90139261
0.95957434
1.0640603
1.0295974
0.95960075
0.90682699
0.88881883
0.90698457
0.95817315
1.0281326
1.0863487
1.0975883
1.0598955
1.0067902
0.96542634
0.94389544
0.94631112
0.98158917
1.0155066
1.0128786
0.97467719
0.93365089
0.92436222
0.94590406
0.9910337
0.9673955
0.99260812
0.99577539
0.98028069
0.97013495
0.97304713
0.98604042
1.0089482
1.0359102
1.0582297
1.0425541
0.99294921
0.93399954
0.90205536
0.89915119
0.93311578
0.99918967
1.0627588
1.0811287
1.04452
0.99301383
0.96087366
0.95578643
0.94492645
0.96419883
1.0099473
1.0514796
1.0564334
1.0296359
0.99256536
0.96152006
0.94339592
0.95206065
0.98313388
1.0059814
0.99954811
0.97424122
0.95979785
0.96587039
0.99626614
1.0443187
1.0780661
1.0633092
1.0114006
0.94549198
0.90740627
0.9976679
0.98742671
0.99403784
1.0108006
1.0329088
1.034649
1.0042733
0.95802922
0.92874099
0.92848054
0.96286507
1.0269563
1.0790481
1.0737635
1.0217527
0.96925238
0.94231856
0.94955196
0.98865167
1.0268403
1.0308733
1.0002986
0.95873745
1.0268851
1.0108564
0.98496084
0.96898449
0.96808336
0.98736628
1.0104236
1.0159497
0.9991046
0.98347251
0.98001392
0.9976187
1.0277896
1.0465476
1.0230906
0.96730701
0.92528284
0.92120864
0.9546739
1.0119167
1.0595671
1.0689328
1.0431475
0.99781845
1.0094682
1.0030033
0.98422544
0.96570648
0.96498361
0.98855053
1.0232911
1.0443663
1.0377527
1.0025695
0.96330948
0.94950256
0.96611408
1.0025138
1.0268182
1.0177544
0.98658044
0.95949902
0.95785107
0.98334713
1.0147363
1.0317783
0.97662333
0.98859288
1.0087292
1.0193709
1.0138499
0.99627267
0.98446153
0.98973752
1.0080797
1.0231153
1.0214104
0.993794
0.9597323
0.94440511
0.95796467
0.99810283
1.0376905
1.0501198
1.0280596
0.99363259
0.96930663
0.96597527
0.97278431
0.99829548
0.99010158
0.99633685
1.0120238
1.022898
1.021434
1.0055013
0.98317663
0.97037458
0.97503474
0.99322178
1.0088709
1.0104114
0.99752801
0.98441347
0.98300979
0.99679699
1.0140919
1.0217841
1.0112071
0.99247713
0.97905614
0.97620314
1.0169101
1.0071399
0.98956131
0.98260822
0.98851801
1.0016577
1.0087368
1.0030783
0.98806831
0.97498268
0.97508635
0.99178211
1.0157162
1.0302171
1.0253797
1.00608
0.98504984
0.97407725
0.97362369
0.97952746
0.98592931
0.99191675
1.0000701
0.9993904
1.0045851
1.0000876
0.98863977
0.98114114
0.9835576
0.99635562
1.0112346
1.0166792
1.0101279
0.99736106
0.98888521
0.99101851
1.0013409
1.0104798
1.0083858
0.99561581
0.98206873
0.9762582
0.97928684
0.98784432
0.99675346
1.004591
0.98689621
0.99376905
1.0058154
1.0119366
1.0075959
0.99821324
0.99248879
0.9952984
1.0044404
1.0125017
1.0115695
1.0015379
0.98948213
0.9825745
0.98290732
0.98768911
0.9920481
0.99511365
0.99977485
1.0072858
1.0132624
1.0125546
1.0046073
0.99942301
0.99473625
0.9968019
1.0054904
1.0114277
1.0094357
0.99936705
0.98874407
0.98473302
0.98858235
0.99698329
1.0027536
1.0020019
0.99779157
0.99457314
0.99406368
0.99554068
0.99773782
1.0007605
1.004907
1.007983
1.0057489
0.99596546
1.0090915
1.0039279
0.99484696
0.98884717
0.99145751
0.99842963
1.0030018
1.0015486
0.99688264
0.994026
0.99487103
0.99855457
1.0019638
1.003322
1.0038352
1.0048107
1.0052953
1.0031127
0.99780742
0.99191834
0.98819412
0.9869078
0.98578895
0.99842724
1.0015897
1.0006519
0.99621274
0.99272684
0.99415116
0.99961504
1.0051314
1.0073801
1.0064011
1.0043217
1.0019079
0.99896363
0.99543445
0.99265243
0.99276323
0.99568595
0.99874883
0.99858321
0.99491664
0.99123107
0.99107736
0.99427718
0.99289614
0.99591364
1.0015838
1.005466
1.0056228
1.0030917
1.0004717
0.99864774
0.9970929
0.99592541
0.99586007
0.99717447
0.99886898
0.99916443
0.9976586
0.99570781
0.99560766
0.99771461
1.0001132
1.0005616
0.99923202
0.9987365
1.0006642
1.0004876
0.99962759
0.99986827
1.0006857
1.000536
1.0000962
0.99941605
0.99886733
0.99826126
0.99709452
0.99592088
0.99627211
0.99869706
1.0021036
1.0041937
1.0037502
1.0015669
0.99964053
0.99877877
0.99817893
0.99681973
0.99508855
0.99432723
1.0016396
1.0014508
1.0003944
0.99889832
0.99688143
0.99519651
0.99504273
0.99747976
1.0012539
1.0043117
1.004733
1.0027052
1.0000303
0.99840957
0.99791484
0.9975214
0.99648023
0.9953139
0.99522929
0.9964589
0.99794602
0.99845191
0.99790233
0.99707391
0.99734012
0.99837828
0.99997539
1.001176
1.0014972
1.0007562
0.99959163
0.9992094
0.99947111
0.99960407
0.99873467
0.99724165
0.99632628
0.99676127
0.9981248
0.99933602
0.99966187
0.99936982
0.99929961
0.99962955
0.99980269
0.99924673
0.99999004
0.99935959
0.99823316
0.99773945
0.99823929
0.99934703
1.0002537
1.0003016
0.99936106
0.99823766
0.99766517
0.99782122
0.99850105
0.99930169
1.0001155
1.0007408
1.0009192
1.0003866
0.99923771
0.99788035
0.99678526
0.99612252
0.99579584
0.99960716
0.99937196
0.99893265
0.9982403
0.99759101
0.99755952
0.99817737
0.99887333
0.99918829
0.99899901
0.99874472
0.99901155
0.99977646
1.0005105
1.0004482
0.99941401
0.9978996
0.99676586
0.99657031
0.99727127
0.99828288
0.99900956
0.99924949
0.99740027
0.99778
0.99836126
0.99898788
0.99936057
0.99939614
0.999149
0.99899412
0.99899104
0.9989551
0.99884068
0.99867528
0.99870173
0.99891329
0.9991145
0.99903398
0.99870716
0.99854334
0.99890586
0.99967152
1.0002347
1.0000069
0.99903847
0.99950293
0.99906375
0.99877019
0.99874607
0.99891058
0.99900973
0.99874888
0.99816331
0.99787052
0.99816883
0.99882837
0.99943174
0.99959689
0.99933598
0.99898635
0.99886419
0.99898567
0.99919327
0.99941472
0.99953028
0.99935344
0.99872247
0.99777035
0.99971034
0.99938086
0.99877711
0.99824372
0.99808746
0.99837414
0.99893231
0.9991103
0.99892266
0.99872227
0.99887499
0.99924211
0.9993897
0.99913998
0.99870173
0.99859298
0.99901329
0.99957839
0.999674
0.99925635
0.99873266
0.99849593
0.99856121
0.99899727
0.99907573
0.99908631
0.99908787
0.99897876
0.9989638
0.99925763
0.9995798
0.999574
0.99911996
0.99868043
0.99864098
0.9988555
0.99898544
0.99892686
0.99883909
0.99907485
0.99956478
0.99977628
0.99936283
0.99869844
0.99842383
0.99878965
0.99864343
0.9990523
0.99959296
1.0000034
0.99987833
0.99953602
0.99902426
0.99897375
0.99911661
0.99914337
0.99890108
0.99878861
0.99899215
0.99940874
0.99959345
0.99942855
0.99912345
0.99903733
0.99916376
0.99916612
0.99892099
0.99874616
0.99892089
0.99860512
0.99932559
0.99996312
1.0001291
0.9997398
0.99916753
0.99877768
0.99874369
0.9990943
0.99936904
0.99950112
0.9993111
0.99935082
0.99952023
0.99960654
0.99941075
0.99900145
0.99873448
0.99890611
0.99930037
0.9994516
0.99923034
0.99894986
0.99898261
0.99953171
0.99976346
0.99970338
0.99934626
0.99897341
0.99889081
0.99903861
0.99945357
0.99970024
0.99964917
0.9994015
0.99923371
0.99919847
0.99920994
0.99916709
0.99899663
0.99891002
0.99900704
0.99928671
0.99944271
0.99928335
0.99893065
0.99936548
0.99935338
0.99922257
0.99920326
0.99917976
0.99916424
0.99895321
0.99902389
0.99935979
0.99959637
0.99954835
0.99929198
0.99899925
0.99877889
0.99876208
0.99890867
0.99914339
0.99930103
0.9990892
0.99881203
0.99866824
0.99883038
0.99875134
0.99934755
0.99909281
0.99885087
0.99891996
0.99916309
0.99914282
0.99888925
0.99892133
0.99918288
0.9993962
0.99930903
0.99891294
0.9985753
0.9985391
0.99874707
0.9989465
0.99908474
0.99913764
0.99880775
0.99833486
0.99798262
0.99818649
0.99841025
0.99926039
0.99910387
0.99880073
0.99858482
0.99865156
0.99878999
0.99896664
0.99917771
0.99922019
0.99912036
0.99875392
0.99839574
0.99853268
0.99877765
0.99880593
0.99851966
0.9983918
0.99865401
0.99869781
0.9982836
0.99756247
0.99753823
0.99813863
0.99960513
0.99893662
0.99831397
0.99831923
0.99887279
0.99935041
0.99931715
0.99890858
0.9986316
0.99862753
0.99855923
0.99851486
0.99873837
0.99887357
0.99856989
0.99807739
0.99807775
0.99858863
0.99879763
0.99832526
0.99756226
0.9974214
0.99777406
0.99937156
0.99897867
0.9987817
0.99883086
0.99909678
0.99932286
0.99923565
0.99884826
0.99853663
0.99867993
0.99886108
0.99863933
0.99825879
0.99841499
0.99888995
0.99879281
0.9982952
0.9980706
0.99809894
0.99801846
0.99767772
0.9975903
0.99772964
0.99938274
0.99951361
0.99957215
0.99925376
0.99888723
0.998865
0.99924748
0.999518
0.99925186
0.99866391
0.99832662
0.99852589
0.99896261
0.99911671
0.99902997
0.99856295
0.99783794
0.99765043
0.99815308
0.99867226
0.99832725
0.99745255
0.99713232
0.99969186
0.99939335
0.99938712
0.99959069
0.99978017
0.99995889
0.99968962
0.99913591
0.99890414
0.99881225
0.99893583
0.9992815
0.99940104
0.99912444
0.99879674
0.99849306
0.99827981
0.99815567
0.99810998
0.99815083
0.99839987
0.99819102
0.99756888
0.99967321
0.99942808
0.99982537
1.0003096
1.0004252
1.0001053
0.99921635
0.9989637
0.99941152
0.99952307
0.99942078
0.99934745
0.9991068
0.99931818
0.99948657
0.9989554
0.99835321
0.99814493
0.99830499
0.99850019
0.99852302
0.99807341
0.99767396
0.99988048
0.99999647
1.0000886
0.99975033
0.99970461
0.99969367
0.99953141
0.99992891
1.0000244
0.99935291
0.99908083
0.99930489
0.99985387
1.0002563
0.99956894
0.99843101
0.9978733
0.99851588
0.99904088
0.999366
0.99892501
0.99808277
0.99736577
1.0004497
0.99942889
0.99921049
0.99934076
1.0002155
1.0007561
1.000269
0.99968267
0.9993079
0.99907182
0.99957482
1.0002274
0.99988276
0.99930104
0.999081
0.999082
0.99945927
0.99940519
0.99847837
0.99868134
0.99857465
0.99902323
0.99900227
0.99904322
0.99945994
1.0004861
1.000707
1.0003842
0.99979898
0.9991449
0.99940832
1.000151
0.99976683
0.99952375
0.99954862
0.99867702
0.99983145
1.000653
0.99976603
0.99888404
0.99802048
0.99869159
0.99979136
0.99974394
0.99856565
0.9973245
0.99906557
1.0000487
1.0004141
1.0005165
1.0003983
0.99973336
0.99946471
0.99983234
0.99945733
0.99901865
0.99963262
1.0002026
1.0007179
1.0008207
0.99911607
0.99803858
0.99861735
0.99955901
1.0000886
0.99986559
0.99848542
0.9986598
0.99864945
0.99967198
0.99933363
1.0000715
1.0013832
1.0013271
1.0000305
0.99969138
0.99911678
0.99905502
1.0003159
1.0003374
1.0003559
1.0001841
0.99919047
0.99953849
0.99943687
0.99956696
0.99946574
0.99910314
0.99948575
0.99986923
0.99957105
0.99839543
0.99952545
1.0004159
1.0015049
1.0012683
0.99977062
0.99944713
0.99995607
1.0003128
1.000898
1.0002448
0.99969976
1.0003782
0.99994811
0.99988677
1.0002941
0.9995626
0.99930902
0.99974333
0.99997073
1.0002913
0.9989906
0.99893613
0.99878649
1.0001364
1.0005121
1.0010765
1.0010007
1.000755
1.0010107
1.0007621
1.0000587
0.99986139
0.99988144
1.0010669
1.0018146
1.0002557
0.99948718
0.99950661
1.0002034
1.0003627
1.0001783
0.9994738
0.99981821
0.9993189
0.99981511
1.0000781
0.99964768
1.0002794
1.0023721
1.0029224
1.001615
1.0007063
1.0006855
1.0004747
1.0005192
1.0005848
1.0008177
1.0006623
1.0006813
1.0006995
1.0002933
1.0004231
1.0003078
1.000482
0.9998612
1.0002015
1.0002457
1.0000847
0.99937156
1.0015967
1.0006772
1.0007714
1.0020528
1.0025142
1.0020394
1.0013993
1.0003928
1.0001265
0.9999314
1.0006657
1.0021363
1.0021415
1.0013961
1.0003935
1.0001617
1.0004124
1.0006553
0.99985386
0.9999297
0.9998679
1.001232
1.0016137
1.0018321
1.0013388
1.000723
1.0013214
1.0023595
1.0023749
1.0012386
1.0000525
1.0007853
1.0019961
1.0020236
1.0013356
1.0005482
1.0010927
1.00156
1.001296
1.0001667
0.99955849
1.000425
1.0016061
1.0013989
1.001342
1.0002653
1.0013083
1.0014573
1.0024665
1.0019722
1.0007339
1.0006891
1.0022654
1.0034453
1.001847
0.99936373
0.99980604
1.0024888
1.0029607
1.0011991
1.0000567
1.0014042
1.0019214
1.0004015
0.99941991
1.0014143
1.0019915
1.0013332
0.99995427
1.003041
1.0012298
0.99979315
1.0009519
1.0031276
1.0034635
1.0014969
1.0001451
1.0015319
1.0029919
1.0015897
0.99996898
1.0005821
1.0025981
1.0029026
1.0012419
1.0007249
1.0005489
1.000555
1.0004753
1.0013742
1.0020731
1.0018963
1.0005477
1.0027488
1.0033436
1.0013388
0.99979118
1.0013276
1.0039505
1.0035527
1.0005846
0.9993321
1.0011806
1.0028146
1.002133
1.000883
1.0013886
1.0024379
1.0020097
1.0001648
0.99865355
1.0004731
1.003001
1.0027109
0.99981007
1.0029716
1.000247
1.0005599
1.0027631
1.0034044
1.0016915
1.0004919
1.0015647
1.0029865
1.0022856
1.0006723
1.0004717
1.0015458
1.0020971
1.0022604
1.00205
1.0006726
0.99991463
1.0010624
1.0013512
1.0005338
1.0017002
1.0022315
1.0025123
1.0026846
1.0002703
0.99928037
1.0012524
1.0035909
1.0034189
1.0013625
1.0002444
1.00108
1.0019801
1.0017679
1.0008011
1.0008575
1.0020016
1.0028018
1.0017341
0.99940887
0.9989798
1.0011469
1.0025521
1.0012213
1.0003043
1.0000727
1.0011743
1.0030855
1.0020242
0.99954034
0.99948172
1.0023139
1.0041058
1.001978
0.99918927
0.99943156
1.0013966
1.0022096
1.0012407
1.0008042
1.0015866
1.0018587
1.0002619
0.99821634
0.99978318
1.0033076
1.0022663
0.99869733
1.0024878
0.99907989
0.99845352
1.0008561
1.002699
1.0015966
0.99964791
0.99971025
1.0012702
1.0018346
1.0002772
0.99865035
0.99923437
1.0023655
1.0039015
1.0010356
0.99815071
0.9991279
1.0007236
0.99967763
0.99916046
1.0018348
1.0037075
0.99984246
1.0011867
0.99990901
0.99816338
0.9982936
0.99984004
1.0007119
1.000702
1.0005306
0.99978189
0.99929248
0.99955644
1.000023
1.0002475
1.0004778
1.0004927
0.99976349
0.99811613
0.99816533
0.9999384
1.0016643
1.0007172
0.99846001
0.99782736
0.99858071
1.000522
0.99945625
0.99693975
0.99666567
0.99895555
1.000855
1.0008406
0.99890221
0.99750026
0.998501
0.99966541
0.9993309
0.99841276
0.99839452
0.99913392
0.99906111
0.99860954
0.99887209
0.99915375
0.99878363
0.99738934
0.99783348
0.99665014
0.99648466
0.99775937
0.99871577
0.99779886
0.99624102
0.9963095
0.99808145
0.99946911
0.99865952
0.99666042
0.99616774
0.99746106
0.99808863
0.99769677
0.99704584
0.99743185
0.99820352
0.99777674
0.99599623
0.99580657
0.99726772
0.99377792
0.99628161
0.9978638
0.99658093
0.99459254
0.99441239
0.99577779
0.99693396
0.99661099
0.99525332
0.99537012
0.99659117
0.99671211
0.99534244
0.99433803
0.99498239
0.99604188
0.99638106
0.99575443
0.99487817
0.9945657
0.99449022
0.9942891
0.9936627
0.99270785
0.99419614
0.99527057
0.99445158
0.99323066
0.99347208
0.99473562
0.99531651
0.99404408
0.99286847
0.99347316
0.99468362
0.99454729
0.99336165
0.9926745
0.99275207
0.99346226
0.99374576
0.99288154
0.99223352
0.99253035
0.99257336
0.99190215
0.99124643
0.99132112
0.99212976
0.99277133
0.99247701
0.99191459
0.99185624
0.99231272
0.99240396
0.99160909
0.99093592
0.99126701
0.99219076
0.99225027
0.99118262
0.99005256
0.99018944
0.99101275
0.990848
0.99001441
0.98994602
0.98997035
0.98961917
0.99050428
0.9911273
0.99115586
0.99053041
0.98989587
0.98996786
0.99055595
0.99075417
0.99011747
0.98933651
0.98945879
0.99014809
0.99013808
0.98908709
0.98816519
0.98841994
0.9889764
0.98859697
0.98751287
0.98708813
0.9876014
0.98756797
0.99008196
0.99004676
0.9903062
0.99032001
0.9899397
0.98941477
0.98926627
0.98948592
0.9894841
0.98900344
0.98856374
0.98865458
0.9889534
0.98841968
0.98710995
0.98647462
0.98717255
0.98781269
0.9868834
0.98524004
0.98479075
0.98555457
0.98554155
0.99074213
0.98982442
0.98930128
0.9894225
0.98994193
0.99004495
0.9895701
0.98898101
0.9887306
0.98875398
0.98869239
0.9882438
0.987743
0.98735256
0.98690243
0.98645201
0.98635217