/*--------------------------------*- C++ -*----------------------------------*\
| =========                 |                                                 |
| \\      /  F ield         | OpenFOAM: The Open Source CFD Toolbox           |
|  \\    /   O peration     | Version:  2406                                  |
|   \\  /    A nd           | Website:  www.openfoam.com                      |
|    \\/     M anipulation  |                                                 |
\*---------------------------------------------------------------------------*/
FoamFile
{
    version     2.0;
    format      ascii;
    arch        "LSB;label=32;scalar=64";
    class       volVectorField;
    location    "105";
    object      U;
}
// * * * * * * * * * * * * * * * * * * * * * * * * * * * * * * * * * * * * * //

dimensions      [0 1 -1 0 0 0 0];

internalField   nonuniform List<vector> 
20580
(
(0.092961238 0.00028798122 4.6825616e-22)
(0.093098006 0.00057799169 -9.0868182e-20)
(0.099817544 -0.00062387423 1.7263587e-21)
(0.099864256 0.00017800598 -2.6123823e-20)
(0.099833799 0.00083967876 -7.8716858e-23)
(0.10040756 -0.00010001712 2.1708598e-20)
(0.099833699 0.00042926688 1.0634948e-19)
(0.10049378 -3.8027485e-05 -4.366236e-22)
(0.10040338 -0.00070916023 -5.9604881e-21)
(0.100036 -0.00042289895 0)
(0.09985665 -0.00066200461 -2.1778171e-21)
(0.099846956 -0.0020465935 -5.3486914e-20)
(0.099541455 -0.0024602523 8.4236048e-21)
(0.098881186 -0.0020895012 -2.2281419e-21)
(0.09891124 -0.0043097835 1.1464894e-20)
(0.09866129 -0.0060059834 -1.4853754e-20)
(0.097611269 -0.0045279733 -2.6877658e-20)
(0.098598384 -0.0094190983 -4.7894308e-21)
(0.099673313 -0.013349007 -4.2707079e-20)
(0.097264895 -0.0096133013 5.0429669e-21)
(0.098486472 -0.013473724 5.5006605e-22)
(0.10142365 -0.020090017 1.0712598e-21)
(0.10049316 -0.019466118 1.9425929e-20)
(0.099805956 -0.020352232 4.549919e-20)
(0.10567046 -0.028448252 -1.3591723e-19)
(0.11060271 -0.038046262 -1.796042e-20)
(0.10934286 -0.042049477 -4.6312199e-20)
(0.11206248 -0.03849947 1.4574995e-20)
(0.11608726 -0.03849158 2.3354789e-20)
(0.11223339 -0.047876046 5.1864367e-20)
(0.11534723 -0.060683169 6.2134618e-20)
(0.091907559 0.0013049194 0)
(0.091974925 0.0001599176 7.5862821e-20)
(0.09881795 -0.001186507 7.3975475e-20)
(0.098799027 -0.00013695817 -2.9786551e-20)
(0.099036839 0.00034137076 3.6495539e-20)
(0.099321508 0.00047195299 8.7544961e-22)
(0.099762267 -0.00025832456 -1.5958267e-19)
(0.10014995 -4.6991119e-05 -5.2701943e-21)
(0.10016235 -0.00053217785 -9.2255096e-21)
(0.10002771 -0.00041861564 2.037119e-20)
(0.1002156 -0.00086642268 4.7704455e-20)
(0.10033909 -0.0017794827 -8.1790293e-21)
(0.099945634 -0.0020667825 1.6040103e-20)
(0.099824366 -0.002133219 1.2931513e-22)
(0.10014083 -0.0040154714 -1.278747e-20)
(0.099550095 -0.0055713887 -7.2042374e-22)
(0.099006832 -0.0044439247 -1.7427816e-21)
(0.10086644 -0.0096690457 -6.3334347e-20)
(0.099841328 -0.011238593 0)
(0.097952051 -0.0087775149 1.8271908e-20)
(0.10094963 -0.014413463 0)
(0.10243977 -0.019395897 7.6529948e-21)
(0.10067284 -0.017803914 -3.4540667e-20)
(0.10147639 -0.020606237 -9.7359528e-22)
(0.10787681 -0.028028051 -4.9772591e-20)
(0.11191779 -0.033984316 3.5037683e-20)
(0.10780722 -0.036115503 1.830419e-20)
(0.10922843 -0.033622027 7.8280997e-20)
(0.11768416 -0.033940003 3.0039838e-20)
(0.11856547 -0.045380449 -6.1085934e-20)
(0.11516474 -0.059158715 2.7807525e-20)
(0.091202931 0.0028297587 0)
(0.091346469 -0.00019019653 0)
(0.09736778 -0.0011352359 -4.6617429e-19)
(0.097410821 -0.00029677734 -7.6029785e-20)
(0.097909247 -0.00024424932 9.7929523e-20)
(0.098356947 0.00094736934 5.3079488e-22)
(0.099039807 -0.00058473189 2.2610571e-19)
(0.099542936 -8.1643321e-05 -7.6259418e-21)
(0.099771885 -0.00017532015 0)
(0.099844988 -0.00042750717 4.5641225e-20)
(0.10024879 -0.0010810828 -1.2784133e-20)
(0.10057598 -0.0015369701 -5.2819195e-21)
(0.10041628 -0.0017875128 0)
(0.10069484 -0.0025730578 -5.0537524e-22)
(0.10135861 -0.0039239018 -2.5190948e-21)
(0.10058105 -0.0051548261 -3.1345218e-21)
(0.10062539 -0.005313489 -3.5100112e-21)
(0.10271037 -0.0095335473 -2.3214741e-22)
(0.10076869 -0.0090570839 -5.4551329e-20)
(0.099643995 -0.0088963556 0)
(0.10338516 -0.01509864 0)
(0.10351157 -0.018029101 -4.2315097e-20)
(0.10157765 -0.01636872 2.3011163e-20)
(0.10310907 -0.021073645 -3.3439565e-20)
(0.1086795 -0.02698977 -1.5163653e-20)
(0.11227601 -0.027770721 -9.6729276e-21)
(0.10724516 -0.028854063 -1.9487061e-20)
(0.10696091 -0.031066242 1.0337134e-20)
(0.11904832 -0.03262931 7.5866116e-21)
(0.12687061 -0.041345001 -7.2539192e-20)
(0.12000309 -0.054584881 -3.718711e-20)
(0.09055563 0.0036140418 0)
(0.090756807 -0.00016114465 -1.1617586e-23)
(0.096146017 -0.00076731714 -9.8771926e-21)
(0.096031198 -0.00036071985 -2.1483055e-21)
(0.096533809 -0.00067359187 2.1652254e-19)
(0.097146348 0.00093279742 -8.6740778e-20)
(0.098076526 -0.00068116836 1.8525203e-19)
(0.098659548 -0.00026249995 0)
(0.099112463 0.00025904209 3.3814715e-22)
(0.099557124 -0.00052765859 6.3281155e-21)
(0.10008866 -0.0010257231 4.2733984e-21)
(0.10051536 -0.0014598571 -1.2507684e-20)
(0.10057482 -0.0013964074 -8.0783159e-23)
(0.10116958 -0.0029734879 1.7782105e-20)
(0.10206774 -0.0040378085 2.2327293e-21)
(0.10146891 -0.0043117195 -1.1867836e-21)
(0.10213061 -0.0063503285 -4.2514142e-20)
(0.10397419 -0.0092271483 1.8627977e-22)
(0.10189181 -0.0067396528 1.0451861e-21)
(0.10198333 -0.0093739899 -5.7631674e-21)
(0.10574928 -0.015618327 3.452568e-21)
(0.10464025 -0.015749463 -5.2709816e-20)
(0.10335677 -0.014750808 5.2772511e-22)
(0.10556631 -0.021293549 -2.6433438e-20)
(0.10895238 -0.025990362 0)
(0.11178186 -0.022474351 -5.7403582e-21)
(0.10825666 -0.022450583 -1.7352211e-20)
(0.10642177 -0.029663742 -2.4732829e-20)
(0.11780148 -0.034221926 9.0994898e-20)
(0.13126419 -0.037083087 -2.206904e-20)
(0.12914143 -0.045607486 -1.4508395e-19)
(0.090266844 0.0033139815 0)
(0.090528202 0.00026681911 1.6611112e-19)
(0.095413212 -0.000190465 5.1897364e-19)
(0.095027615 -0.00021794865 2.02418e-19)
(0.095256271 -0.00061484499 6.6344579e-22)
(0.095902802 0.00049431915 -6.0970048e-20)
(0.096833879 -0.00047230433 0)
(0.097470719 -0.00034724801 1.2800989e-20)
(0.098183738 0.00043463746 -2.0217329e-20)
(0.098979122 -0.00051600012 5.9994252e-20)
(0.099685403 -0.00082801603 9.4289234e-21)
(0.10026065 -0.0013029934 1.05347e-22)
(0.1005712 -0.00095776614 1.7714028e-20)
(0.10138649 -0.0032262833 -5.9285418e-21)
(0.10214327 -0.0039478808 -1.1790005e-21)
(0.10193343 -0.0033880701 7.3092204e-21)
(0.10310512 -0.0068327249 -5.4388925e-20)
(0.1043158 -0.0085544504 -5.9376185e-20)
(0.10278111 -0.0049157771 1.8673219e-20)
(0.10438135 -0.0097845276 0)
(0.10743856 -0.015188679 -1.0000737e-21)
(0.10541095 -0.013152547 -7.5164859e-21)
(0.1057646 -0.013031797 -3.4828294e-21)
(0.1088637 -0.020461342 -1.7675213e-21)
(0.10923219 -0.024950744 0)
(0.11102964 -0.019309464 -1.3774311e-19)
(0.11159648 -0.017829666 -2.6917427e-20)
(0.10941042 -0.028900248 1.3905979e-19)
(0.11569598 -0.038055103 4.3276518e-20)
(0.12926761 -0.035728461 -5.5952764e-20)
(0.13559757 -0.035358096 1.9807138e-20)
(0.090326698 0.0023106207 4.0257973e-20)
(0.090292161 0.00095014409 1.2260137e-21)
(0.094984856 0.00022941221 -1.1844408e-23)
(0.094473823 6.3322857e-05 -7.7330884e-20)
(0.094374596 -0.00010337041 2.1048903e-20)
(0.094960768 -0.00025358679 4.2953332e-22)
(0.095689324 -0.00016990328 5.3472887e-20)
(0.096115679 -0.00022688687 9.3431075e-24)
(0.097057789 0.00011216857 -1.5385577e-20)
(0.097952382 -0.0003268301 -1.0197886e-19)
(0.098783025 -0.00068372278 2.6265029e-21)
(0.09953986 -0.00097655614 1.063424e-20)
(0.10034284 -0.00081464713 1.3896061e-20)
(0.1013348 -0.0032409995 -2.8280473e-21)
(0.10178757 -0.0034111917 -1.1255821e-20)
(0.102127 -0.0027492226 -2.2490525e-22)
(0.10369774 -0.0066363589 -5.00057e-20)
(0.10398285 -0.0075574119 -7.7070086e-20)
(0.10333599 -0.004210307 -6.9221712e-23)
(0.10625762 -0.010147222 0)
(0.10826685 -0.013735564 -5.4260888e-21)
(0.10570582 -0.010825651 1.0454066e-19)
(0.10793036 -0.011858607 -2.3686231e-20)
(0.11241364 -0.018531536 0)
(0.11032069 -0.023297491 -2.1816502e-20)
(0.11011298 -0.019052999 1.1335806e-19)
(0.11507093 -0.01699367 1.8152724e-20)
(0.11616893 -0.027563695 3.7386237e-19)
(0.11592939 -0.039543236 1.9933931e-20)
(0.12313752 -0.036842598 -3.0130745e-20)
(0.13339491 -0.028901213 -7.4671306e-20)
(0.092043082 0.00072002779 -2.5807544e-21)
(0.09026857 0.0018204478 5.1614678e-20)
(0.094730943 0.00035751684 -1.4235079e-22)
(0.094009074 0.0002566617 1.7846526e-20)
(0.093629687 0.00063363123 7.2194795e-20)
(0.094060328 -0.00084784864 -2.0169784e-19)
(0.094527896 0.00014206155 -1.2246771e-19)
(0.094880339 4.4032747e-06 -2.8600547e-23)
(0.095704462 -0.00036639756 -9.88676e-23)
(0.096565751 1.7991046e-06 1.5126135e-20)
(0.097549214 -0.00075457037 -5.734011e-22)
(0.098317965 -0.00048816783 6.1060067e-23)
(0.09956129 -0.0011108117 -6.8709851e-21)
(0.1006903 -0.0027266602 -2.0529309e-23)
(0.10102314 -0.0027355468 1.8071025e-20)
(0.10202693 -0.0025935344 -1.6304135e-21)
(0.1038153 -0.0059872638 3.2974822e-22)
(0.10328812 -0.0061534223 1.2983663e-19)
(0.10354397 -0.0045268619 0)
(0.10726545 -0.010532251 -5.6697813e-20)
(0.10814463 -0.011750285 8.5050083e-21)
(0.10563225 -0.0088427814 1.8550566e-20)
(0.10923392 -0.011961635 1.4783228e-20)
(0.1150462 -0.016736732 -1.0608776e-21)
(0.11178561 -0.020275805 5.3070461e-20)
(0.10970724 -0.019754252 -3.7763199e-21)
(0.11773928 -0.018967961 1.056242e-19)
(0.12396418 -0.026361522 -1.5950839e-21)
(0.12058624 -0.03751977 2.0944573e-19)
(0.11829501 -0.038225787 1.4402973e-19)
(0.12516496 -0.027841532 -1.4344756e-20)
(0.098040649 0.000132898 4.8097481e-19)
(0.090678873 0.0020372177 0)
(0.094813077 -0.00012470354 7.5646084e-19)
(0.093567786 0.00011921182 1.7153845e-19)
(0.092839939 0.0010269137 -1.7698899e-19)
(0.093003528 -0.0010519846 -2.3493415e-22)
(0.093262086 0.00023971011 -1.8444299e-20)
(0.093646422 0.00011058787 -3.7830257e-22)
(0.094255488 -0.00061710638 -2.3283554e-20)
(0.095034638 0.00021150757 -2.4825088e-20)
(0.095972215 -0.0009135804 -1.0499485e-21)
(0.09665382 -0.00016574609 7.8881123e-23)
(0.09806861 -0.0016375297 3.9230938e-22)
(0.099132584 -0.0017949688 9.8161142e-22)
(0.099520303 -0.0020928854 -2.7947339e-20)
(0.1011734 -0.0026213974 -1.4337897e-20)
(0.10321616 -0.005073768 1.7932862e-20)
(0.10237118 -0.0044875755 3.6696322e-20)
(0.10358842 -0.0053710208 -4.8965846e-22)
(0.10738532 -0.010590895 5.3721541e-22)
(0.10729529 -0.0094571837 -8.6021513e-21)
(0.10535719 -0.0076905483 -3.0783204e-22)
(0.1094843 -0.013420096 0)
(0.11572063 -0.015613563 8.9318317e-22)
(0.11310343 -0.016012778 -5.8878856e-20)
(0.10970255 -0.01923545 5.987933e-20)
(0.11769321 -0.021874655 2.3411458e-20)
(0.12782976 -0.024490841 -4.6654966e-20)
(0.12615672 -0.030629067 5.3323154e-21)
(0.11830179 -0.035053835 -6.3089507e-21)
(0.11770519 -0.030952423 -1.5921465e-19)
(0.10803982 -1.7540855e-05 -2.2134272e-19)
(0.092688876 0.001713283 4.0807964e-23)
(0.095736856 -0.00077743961 1.7574947e-19)
(0.093880278 -3.8445127e-05 3.0077193e-19)
(0.092839088 0.00094133346 -7.9237624e-22)
(0.092593045 -0.00064179885 -5.0908058e-22)
(0.092363763 0.00016912707 -6.4052386e-20)
(0.092648396 4.0159914e-05 -5.9358147e-24)
(0.092925177 -0.00042677831 -2.5065293e-20)
(0.093540702 5.7069085e-05 2.5039443e-20)
(0.094144071 -0.00079877471 4.5448838e-21)
(0.094699863 -0.00017592598 0)
(0.096018959 -0.0019116326 -4.4904304e-22)
(0.096893049 -0.0011327715 -1.5959755e-21)
(0.097429585 -0.001601346 -9.8756431e-22)
(0.099149514 -0.0029044139 1.1290408e-20)
(0.1012769 -0.0041593878 3.2738842e-21)
(0.10094124 -0.002902283 -1.0675476e-20)
(0.1031457 -0.006267664 6.3986507e-20)
(0.10647435 -0.010382511 -1.5484308e-20)
(0.10595291 -0.0070915444 -6.3716656e-20)
(0.10565552 -0.0070233321 9.0174245e-22)
(0.10948946 -0.015232247 1.2855552e-20)
(0.11473469 -0.015144968 2.1482811e-21)
(0.11402935 -0.012085978 -9.5341622e-21)
(0.11109908 -0.017556185 -9.3050636e-20)
(0.11657662 -0.02426565 -2.901423e-20)
(0.12707786 -0.023146756 9.1024244e-20)
(0.12932228 -0.021370555 -8.5178862e-20)
(0.12113812 -0.025055427 -2.2289552e-19)
(0.11573853 -0.030793457 8.5475532e-21)
(0.11677524 0.00085329448 -5.3546407e-19)
(0.097506777 0.00051255666 3.6659294e-22)
(0.098672718 -0.0013738283 1.7946087e-20)
(0.09584468 -0.00034118058 -3.9995852e-19)
(0.093892212 0.0002912775 6.1866002e-23)
(0.093001346 0.00011707491 0)
(0.09250431 -6.8604815e-05 -4.7130527e-20)
(0.092505966 -0.00018721597 1.0080449e-20)
(0.0922866 1.4887453e-05 1.160261e-20)
(0.09249261 -0.00050605699 2.6918994e-20)
(0.092557222 -0.00017177399 3.5158501e-25)
(0.092887634 -0.00037262614 2.4769639e-23)
(0.093757231 -0.0016151858 0)
(0.094390288 -0.00076385012 -3.2948117e-20)
(0.095045335 -0.0013052841 -1.4298151e-20)
(0.096613471 -0.0033311835 -1.3179682e-21)
(0.098315259 -0.0034616334 -4.5143294e-20)
(0.098684062 -0.0017948221 1.0836736e-20)
(0.10181261 -0.00676994 6.01971e-20)
(0.10423474 -0.0093958487 -3.4328418e-20)
(0.10376058 -0.0053681152 -7.5114314e-20)
(0.10599127 -0.0065137445 7.9491055e-20)
(0.10935511 -0.015996726 6.1017932e-20)
(0.11210964 -0.015027049 -1.349039e-19)
(0.11368825 -0.0086905871 6.3097354e-20)
(0.11371406 -0.014477739 -3.9119706e-21)
(0.11595651 -0.024380561 -1.6390996e-21)
(0.12313142 -0.022592224 6.428837e-20)
(0.1284526 -0.014560288 1.1206394e-19)
(0.12586706 -0.013807967 -1.1444407e-19)
(0.12078749 -0.024854329 -3.3729566e-19)
(0.11826392 0.0016340878 3.9048804e-21)
(0.10255616 -0.00034657819 2.8850247e-22)
(0.10315169 -0.0013287292 1.5372571e-19)
(0.1000293 -0.00050596349 -6.578626e-22)
(0.097195068 -0.0004360975 1.0294915e-21)
(0.095097945 0.00087851505 4.2275166e-19)
(0.093855402 -0.00017648253 -2.499841e-20)
(0.093293601 -0.00026490178 6.5441979e-23)
(0.092708519 0.00034659752 -7.0314296e-21)
(0.092568738 -0.0011326398 -9.5165679e-21)
(0.092229499 0.00056197343 5.8723185e-21)
(0.092333486 -0.00077727912 1.416036e-20)
(0.092519972 -0.0012200279 0)
(0.092683161 -0.00064887597 -1.8271749e-22)
(0.093275459 -0.0011991602 -4.1475687e-20)
(0.094405315 -0.0034919189 -2.3671843e-22)
(0.095248122 -0.0030920334 1.9593518e-21)
(0.096133112 -0.0016146843 1.5061461e-22)
(0.099640148 -0.0068168948 2.8595411e-21)
(0.10088003 -0.0074433436 5.5423317e-22)
(0.10065742 -0.0043589909 5.7741188e-20)
(0.10556727 -0.0063522825 7.7951362e-20)
(0.10893763 -0.015103702 -5.9060375e-21)
(0.10842674 -0.014835635 1.0563026e-20)
(0.11150987 -0.0072888752 4.9822722e-20)
(0.11611714 -0.011314264 -9.9570023e-22)
(0.11669358 -0.0218535 -7.0263841e-20)
(0.11777721 -0.022679521 -1.5782112e-19)
(0.12299614 -0.012215658 1.975453e-20)
(0.12829727 -0.0070852919 1.216451e-20)
(0.12964031 -0.016421833 3.3894997e-20)
(0.11415872 0.0032717399 -2.8350053e-19)
(0.10585494 -0.0013097567 0)
(0.10768564 -0.0011979164 -1.9413696e-19)
(0.10517329 -0.00056961249 -2.4596288e-19)
(0.10249952 -0.0010370681 -1.9183316e-19)
(0.10009192 0.00082254028 7.0604117e-20)
(0.098070954 -0.00021222184 2.058739e-22)
(0.096293403 -7.9634884e-05 4.4615677e-23)
(0.094928506 0.00036685465 2.0807659e-20)
(0.09384272 -0.0010430669 1.4967055e-20)
(0.092969848 0.00083754206 -1.330236e-20)
(0.092897855 -0.0010117427 -4.7078521e-23)
(0.092618461 -0.00097395292 -1.25224e-20)
(0.092626963 -0.00065406571 0)
(0.093288259 -0.0012845128 -3.607082e-20)
(0.093990216 -0.0033323639 -3.939873e-20)
(0.09387935 -0.0027684173 4.97592e-20)
(0.094916714 -0.0019970151 4.1133108e-20)
(0.097979439 -0.0063954476 -1.2102969e-22)
(0.097809625 -0.0050291795 5.2054592e-20)
(0.097437781 -0.0036657048 2.7703551e-20)
(0.10397517 -0.0064435612 -1.9280153e-21)
(0.10773667 -0.012177384 -5.3222071e-20)
(0.10439544 -0.012803776 5.9803228e-20)
(0.10768575 -0.0078269991 -1.1689785e-19)
(0.11656298 -0.0093749592 -1.8735197e-20)
(0.11836434 -0.017310637 7.5877936e-20)
(0.11415387 -0.021171972 2.8110981e-21)
(0.11594748 -0.014798684 -3.7948253e-19)
(0.1257264 -0.0089035239 4.4491467e-20)
(0.13561906 -0.012851702 5.2290945e-20)
(0.10381148 0.0035250408 1.8754747e-19)
(0.10462535 -0.00069869625 1.9201325e-19)
(0.10826221 -0.00048498908 -1.1695251e-21)
(0.10707274 -0.00020730741 -5.7270029e-21)
(0.10616042 -0.00092427545 -1.6749948e-22)
(0.10548313 0.00030406496 4.9557014e-20)
(0.10428224 -0.00021745519 -1.0103193e-19)
(0.10232082 3.6005857e-05 -5.7813972e-23)
(0.10045995 -0.00024724619 -5.271154e-22)
(0.098189095 -0.00034431206 -2.4460391e-20)
(0.096330417 0.00020456189 -5.8913415e-23)
(0.095336007 -0.00079885749 -5.6165985e-21)
(0.094197834 -0.00073538437 -4.842048e-23)
(0.093880731 -0.00089621211 2.9561446e-22)
(0.094434796 -0.0013852126 0)
(0.094727698 -0.0027518342 0)
(0.094047797 -0.0024494397 -2.8803844e-20)
(0.095321142 -0.0028227739 2.7997647e-21)
(0.097829936 -0.0058008206 1.9098568e-20)
(0.09677873 -0.0028720465 7.941282e-21)
(0.096243617 -0.0037554846 -2.667975e-20)
(0.10259927 -0.0074696023 6.4520366e-21)
(0.10625884 -0.0084907886 0)
(0.10135105 -0.0085765134 0)
(0.10330668 -0.0090718251 0)
(0.11411999 -0.0096386076 1.2395751e-20)
(0.11877956 -0.012337411 1.2760062e-21)
(0.11292512 -0.015741913 -5.2296754e-20)
(0.1103097 -0.017343422 3.403859e-21)
(0.11960899 -0.015495618 -3.4025002e-20)
(0.13384347 -0.015745051 2.7880311e-20)
(0.096849253 0.0036735574 9.8157607e-20)
(0.098901218 -0.00042116231 2.972477e-21)
(0.10569652 -0.00031879445 -2.5409696e-22)
(0.10569249 2.202646e-05 5.6137139e-19)
(0.10572403 -0.00042203012 0)
(0.10592675 -0.0004640501 4.8918059e-22)
(0.10587238 -0.00033015886 -2.6433164e-20)
(0.10543423 7.186818e-05 -3.8992467e-20)
(0.10488588 -0.00092393207 1.4278301e-22)
(0.10342415 0.00049278154 1.8889717e-20)
(0.10198087 -0.00078297716 -3.0198293e-21)
(0.10073511 -0.00045795155 0)
(0.099072082 -0.00041756429 -2.9739924e-20)
(0.097989576 -0.0011825126 4.3054727e-20)
(0.097947447 -0.0014253684 -6.7892372e-21)
(0.097612144 -0.001906995 -2.0629524e-21)
(0.096401185 -0.0017719466 -2.0300269e-21)
(0.097458516 -0.0034541082 -2.2782464e-21)
(0.098946025 -0.0048858942 5.3261724e-20)
(0.097756164 -0.000699708 6.431902e-21)
(0.097624651 -0.0040120751 1.5005509e-21)
(0.10258337 -0.0088231872 -2.4549589e-20)
(0.10578752 -0.0053594041 -3.001982e-20)
(0.10152306 -0.0036325174 0)
(0.10175255 -0.0097373968 7.0620319e-21)
(0.11095917 -0.01211995 -3.6417599e-20)
(0.11736038 -0.0092479154 1.7077762e-20)
(0.1139379 -0.0083545328 5.803283e-20)
(0.10959159 -0.015287952 -1.2943691e-19)
(0.11422762 -0.021092422 1.3737311e-20)
(0.12679716 -0.021220486 7.0174797e-20)
(0.096010295 0.0020242778 -1.2709223e-19)
(0.096393488 0.00072999584 -7.972078e-20)
(0.10190777 -0.00036387576 1.7593334e-21)
(0.10214776 4.1171384e-05 -2.4575819e-19)
(0.10282035 0.00025721181 -5.5946751e-20)
(0.10412639 -0.0010666487 -5.0856135e-22)
(0.10456911 -0.0005512254 1.8314736e-21)
(0.1047404 -0.00023286008 6.518368e-20)
(0.10456468 -0.0012720462 -9.8668945e-23)
(0.10404947 0.00062085451 1.2231676e-22)
(0.10390549 -0.001434673 1.8131615e-20)
(0.10367385 -0.0004796702 -1.7181991e-23)
(0.10319465 -0.00034611374 -5.5468565e-23)
(0.10267558 -0.001388069 -4.4835045e-22)
(0.10270229 -0.0017184634 -3.6880434e-20)
(0.10234311 -0.0012101445 -1.6433605e-22)
(0.10121337 -0.0010522047 -1.77565e-20)
(0.10203114 -0.0038601427 -1.9893386e-21)
(0.10218083 -0.0041515672 1.9829746e-21)
(0.10135236 0.00053095936 0)
(0.10218143 -0.0040802174 1.2242019e-19)
(0.1046764 -0.0097379483 3.0097127e-21)
(0.10652083 -0.0033502607 -1.2839522e-19)
(0.10498386 0.00069044718 5.6538476e-21)
(0.1049949 -0.0084463457 8.0324464e-20)
(0.11008865 -0.014672978 5.8356047e-20)
(0.11530477 -0.0083919151 -5.9782334e-20)
(0.11603427 -0.0029905016 9.3202543e-22)
(0.11440598 -0.0092466771 1.1415092e-20)
(0.11487947 -0.020952169 5.8777529e-20)
(0.12029126 -0.024386554 1.4115156e-20)
(0.10666765 0.00086627227 7.6657997e-20)
(0.098648201 0.00020236097 -4.9622572e-23)
(0.10220329 -0.0014988502 2.2525966e-19)
(0.10122299 0.00010754593 2.145583e-21)
(0.10131901 0.00083974124 -1.333966e-21)
(0.10180944 -0.0011630017 4.713651e-20)
(0.10206277 -0.00070578183 0)
(0.10256632 -0.00073243518 9.3746217e-24)
(0.10268304 -0.0008758302 -2.7022552e-23)
(0.10283876 0.0001020583 5.0101862e-20)
(0.10314915 -0.0012068894 -8.1598957e-23)
(0.10318173 -0.00082169209 1.9454806e-22)
(0.1033282 -0.00017530398 1.6918555e-20)
(0.10349123 -0.0011432646 -4.443161e-20)
(0.10395083 -0.0019118325 4.3639361e-20)
(0.10413886 -0.00070779631 7.9588562e-22)
(0.1041457 -0.00030176204 2.9322331e-22)
(0.10548177 -0.003514785 2.9176356e-22)
(0.10493062 -0.0031106566 0)
(0.10524418 0.00037962386 -2.2996997e-20)
(0.10792272 -0.0038878722 1.2083185e-19)
(0.10833253 -0.0095384348 2.2243348e-21)
(0.10812865 -0.0030293303 -8.0074975e-20)
(0.10981511 0.0021427808 -1.8172352e-21)
(0.11215358 -0.0063920638 9.0349834e-20)
(0.11273559 -0.015188749 1.5178552e-20)
(0.11385553 -0.0092287787 8.4076536e-21)
(0.11739263 -0.0012282322 3.1437221e-20)
(0.12139556 -0.0035326673 5.9310393e-20)
(0.12202686 -0.015209545 9.6240196e-20)
(0.12034925 -0.022228477 1.6063729e-21)
(0.099797711 -0.0012294848 1.7385497e-19)
(0.10005634 0.00057075947 3.106652e-23)
(0.10342588 -0.0025077618 1.6549643e-21)
(0.10208796 -5.1328189e-05 -5.9509147e-19)
(0.10211679 0.00070103248 8.8202775e-22)
(0.10217273 -0.00079729031 -8.4337217e-20)
(0.10199726 -0.00071601239 0)
(0.10221415 -0.0012857751 0)
(0.10210808 -8.6405336e-05 -5.5111687e-21)
(0.10231078 -0.00077503581 0)
(0.1026332 -0.00084871275 -3.3004992e-20)
(0.10258272 -0.0012945336 -2.7594865e-20)
(0.10297204 -0.00020831076 0)
(0.10342223 -0.00094651982 -3.7903257e-20)
(0.10367285 -0.0019410287 2.6425673e-20)
(0.10385577 -0.00049269555 4.0740742e-20)
(0.10461309 -0.00020740424 1.1981943e-21)
(0.10615403 -0.002938326 1.5921565e-21)
(0.10500214 -0.0018866606 -3.9080158e-20)
(0.10611711 -0.00056507951 -9.4383724e-21)
(0.1105624 -0.0036647779 -8.6707186e-20)
(0.10993014 -0.0077571746 -6.4971467e-22)
(0.10788163 -0.0035868956 6.015206e-20)
(0.11215763 0.0007550883 -2.597421e-20)
(0.11821397 -0.0050975792 4.4451541e-21)
(0.11693282 -0.012499703 1.254914e-19)
(0.1133499 -0.010035571 6.6616907e-20)
(0.11715125 -0.0028575804 1.5297472e-20)
(0.12591013 -0.0021172917 3.3830715e-20)
(0.13001865 -0.0085554441 -1.7546183e-19)
(0.12570565 -0.015249626 -1.1415491e-19)
(0.096722476 -0.00052141168 -2.1735827e-19)
(0.097322392 -0.00014655153 -1.6561059e-22)
(0.10207164 -0.0029278693 1.3508531e-19)
(0.10107576 1.9918166e-05 6.9454595e-19)
(0.10169382 0.0002868973 -5.0968927e-20)
(0.10206554 2.7201879e-05 -1.183368e-21)
(0.10203108 -0.00033658607 -8.3541487e-23)
(0.10215311 -0.0011714217 -8.9050286e-20)
(0.10218114 0.00072498621 -5.9552266e-20)
(0.10253919 -0.0010913055 1.4196965e-20)
(0.10281585 -0.00037551547 -3.069419e-21)
(0.10270846 -0.0011573073 -2.6223933e-22)
(0.10307594 -0.00014815212 1.9745513e-20)
(0.10377693 -0.00066592383 1.2900588e-20)
(0.10380075 -0.0014249213 -3.2136992e-21)
(0.10387682 -0.00050637995 3.4632452e-20)
(0.10500741 -0.00062917983 -6.1956104e-21)
(0.10636144 -0.0022499411 5.4536506e-21)
(0.10481873 -0.00058288582 -3.7955568e-21)
(0.10604207 -0.0017596895 -1.1819851e-20)
(0.11103247 -0.0033081107 -1.4526349e-20)
(0.11002272 -0.0042459092 -1.1305845e-20)
(0.10645798 -0.0032425632 2.7906952e-20)
(0.11134979 -0.0021762934 3.0791977e-22)
(0.11978952 -0.0049521125 -9.1318086e-21)
(0.11889766 -0.0072614409 -3.6755398e-20)
(0.11263676 -0.0078265444 -1.2449e-21)
(0.11468021 -0.0056251504 -9.2429417e-20)
(0.12535261 -0.0046467636 -7.6771294e-20)
(0.13322177 -0.004913161 8.9213877e-21)
(0.13076322 -0.0067291151 -1.4542171e-19)
(0.10047414 0.00047458411 -3.2694007e-19)
(0.097698079 0.00040118167 1.6920315e-23)
(0.10105217 -0.002721412 1.2782634e-21)
(0.099715929 -0.00023597378 3.390649e-21)
(0.10039357 -0.00023449005 -1.098191e-20)
(0.10087095 0.00043105556 2.5974388e-19)
(0.10105059 -0.00010918843 6.5074216e-21)
(0.10111691 -0.00066627852 6.4272825e-20)
(0.10147224 0.00056441941 -3.0770875e-20)
(0.10204117 -0.0011619462 -1.7133621e-22)
(0.10240197 -6.2751159e-05 -1.8196866e-20)
(0.10244192 -0.00071455952 -3.9931382e-20)
(0.10291901 -0.00074625986 -6.1960902e-22)
(0.10393789 -0.00081231919 -3.6897384e-20)
(0.10400056 -0.00073756375 1.8748122e-22)
(0.10408602 -0.00077931961 -1.5455534e-20)
(0.10544888 -0.0016006044 4.8278657e-21)
(0.10673645 -0.0018410026 0)
(0.10558739 0.0005720105 4.0761252e-22)
(0.10675149 -0.0033721803 3.1892323e-22)
(0.11127081 -0.0036754878 -1.2534504e-19)
(0.11081169 -0.00062389365 2.9931482e-21)
(0.10701699 -0.001768774 -2.6618891e-20)
(0.11087826 -0.0057081487 8.253536e-21)
(0.11923916 -0.0061273206 3.8316494e-20)
(0.11996054 -0.0024189826 -1.2692984e-20)
(0.11386482 -0.0022975777 -1.7909046e-20)
(0.11346394 -0.0070951492 -1.8598603e-21)
(0.12226684 -0.0093921633 -1.7955327e-19)
(0.13109212 -0.0059714381 -3.162795e-20)
(0.13233007 -0.0012827792 -2.2084143e-20)
(0.10559153 0.0033138979 1.9378004e-20)
(0.10025397 -0.00080284478 6.0142756e-20)
(0.10249728 -0.0012765157 7.5229502e-20)
(0.10051601 0.00035706282 3.7000575e-19)
(0.10086763 -0.00046958096 -4.7292429e-22)
(0.10100295 0.00012662252 9.1697782e-23)
(0.10106082 8.9492398e-05 3.6509405e-23)
(0.10092514 0.00021659622 7.2913382e-20)
(0.10124188 -7.8414839e-05 2.7116311e-20)
(0.10161502 -0.00066584232 2.0601821e-22)
(0.10201581 -8.0720504e-05 -1.3229674e-20)
(0.10228046 0.00030603364 7.6825356e-23)
(0.10272707 -0.00096641166 -2.4363359e-21)
(0.10368572 -0.00060875101 -6.6797039e-24)
(0.10403093 3.1551691e-05 7.054582e-20)
(0.10419363 -0.00093133597 -1.7580169e-20)
(0.10554115 -0.0020001808 -3.5048532e-22)
(0.106511 -0.0010886147 -8.5675188e-23)
(0.10639905 0.0019060607 4.8431293e-20)
(0.10764268 -0.0040463145 6.9250174e-20)
(0.11070741 -0.0036144654 -4.9542808e-22)
(0.11141456 0.0027590962 5.577533e-20)
(0.10961963 0.0011203669 2.952913e-21)
(0.11200074 -0.0071904724 -6.4587653e-20)
(0.11798301 -0.0068913887 1.1670906e-20)
(0.11971746 0.0010781521 -4.9480606e-20)
(0.11727389 0.004408811 1.8128624e-19)
(0.11693762 -0.004523706 -8.5351368e-20)
(0.12124681 -0.012069483 -2.4810083e-20)
(0.1274993 -0.008326027 1.4974969e-19)
(0.13073524 -9.3095311e-05 1.4067427e-21)
(0.10498985 0.0040682327 -4.735995e-19)
(0.1018117 0.00099078464 3.22415e-21)
(0.104214 -0.0012349374 -1.7034341e-21)
(0.10272445 0.00045419298 4.9405022e-21)
(0.10322742 -0.00041646539 3.9801972e-22)
(0.10310192 -0.00035973911 4.2426741e-22)
(0.10298627 -0.00026792056 -1.4264038e-23)
(0.10275469 0.00066534358 -8.236766e-23)
(0.1029944 -0.0012746315 1.4164822e-23)
(0.10314215 -0.00054089978 6.3170644e-23)
(0.10329161 8.2492148e-05 1.0850618e-22)
(0.1035742 -7.3524985e-05 3.9229521e-20)
(0.10399283 -0.0016469134 -1.8150242e-20)
(0.10462283 -0.00026791626 -6.0412153e-23)
(0.10507918 0.00054117564 1.4644865e-22)
(0.10533773 -0.00099191908 6.8290139e-22)
(0.10637477 -0.0023661612 -2.4978599e-22)
(0.10670709 -0.0010679569 -3.4496707e-22)
(0.10777648 0.0020594517 -3.3862666e-20)
(0.10928188 -0.0038281378 -1.0264984e-19)
(0.10993149 -0.0037983822 1.1179702e-19)
(0.11115233 0.0039278312 -5.695088e-22)
(0.11262085 0.002901508 -3.135945e-22)
(0.11424057 -0.0063985602 1.952249e-21)
(0.11616933 -0.0075412245 -5.5378215e-20)
(0.11727272 0.0020255806 7.0658454e-20)
(0.11941134 0.0072089089 -3.2071167e-21)
(0.12255856 -0.0010184569 2.5523293e-21)
(0.1233395 -0.011417133 -5.181823e-20)
(0.12406078 -0.010571178 -7.9959012e-20)
(0.12677691 -0.0022064046 8.2125847e-20)
(0.11445325 0.0050893976 -6.3052745e-21)
(0.10038685 -0.00061782203 -1.8370029e-19)
(0.10364715 0.00051894232 1.2279345e-19)
(0.10275729 0.00080201169 -7.665566e-19)
(0.10345823 -0.00052589309 -4.768051e-20)
(0.1043281 -0.00075316967 -1.1271972e-19)
(0.10441576 -0.00026464397 -3.115164e-21)
(0.10496203 0.00086238688 -1.4570179e-22)
(0.10555807 -0.0014038618 -4.9995569e-20)
(0.10572424 -0.00020903719 7.528733e-21)
(0.106536 -0.0005950081 1.5865466e-20)
(0.10722629 0.0006783004 -2.6742113e-22)
(0.10745735 -0.00086076893 -5.8343351e-20)
(0.10800651 -0.00017148788 -4.372662e-20)
(0.10898029 0.00056214351 3.0796167e-22)
(0.10962876 -0.00037672854 6.9150866e-20)
(0.11028913 -0.0015327149 -2.0829633e-22)
(0.10989939 -0.0006497088 -5.9196259e-20)
(0.11190739 0.0018599986 1.3422721e-22)
(0.11400993 -0.0022701664 -9.2040927e-20)
(0.1123464 -0.0031422173 -5.8777283e-20)
(0.11330557 0.0032097697 3.3689996e-22)
(0.11771643 0.003312395 -4.4156211e-21)
(0.11982046 -0.0032370834 1.9019533e-19)
(0.1178635 -0.0059692683 -7.5808013e-21)
(0.11667114 0.0013086416 -7.1783841e-20)
(0.1218279 0.0062104946 6.9491449e-20)
(0.12935905 0.0022232393 0)
(0.12988798 -0.0059552257 8.4915181e-20)
(0.12515732 -0.0081440968 4.8274988e-20)
(0.12495725 -0.0026714233 -7.8172178e-20)
(0.10504996 0.0013091309 1.1371851e-19)
(0.063745178 0.00032924925 0)
(0.11593642 -0.0030676485 -5.4033174e-22)
(0.11727109 0.00044986564 -8.6453249e-20)
(0.10144386 0.00015921309 -2.7759336e-21)
(0.11831917 -0.00050636356 -2.0523364e-21)
(0.10682524 -0.00024950782 -1.2760526e-21)
(0.12126634 -0.0001515403 3.5408829e-20)
(0.1119338 -0.00046030889 -2.0709127e-20)
(0.12203368 -0.0004072351 -3.6211756e-21)
(0.11736243 0.00081695096 7.1119071e-23)
(0.12088724 -0.0014098048 2.6088325e-21)
(0.12430732 -0.0001560351 1.8892275e-20)
(0.11847514 0.00035326297 -1.3304991e-20)
(0.1250677 -5.7749262e-05 -1.0786828e-20)
(0.12393409 -0.00030149752 -1.0454955e-22)
(0.12564817 -0.00039672228 -3.305208e-20)
(0.12389638 -0.00023207457 -1.4687422e-20)
(0.12691276 0.00039782321 -2.3804475e-20)
(0.12791155 -0.00036117484 -6.287915e-22)
(0.12470949 -0.00077816274 1.3833221e-20)
(0.12542076 0.0005065797 1.6106287e-20)
(0.13141687 0.00069191202 7.0935718e-21)
(0.13338197 -0.00061081264 2.4372513e-20)
(0.12888987 -0.001471759 -4.0507254e-20)
(0.12610672 -0.00021607438 -2.0167061e-20)
(0.13176251 0.00086934958 -3.8239401e-20)
(0.14159647 0.00031915202 1.3634971e-20)
(0.14295075 -0.0013923097 2.2229748e-20)
(0.13587657 -0.0023338518 6.6189654e-20)
(0.13386537 -0.001296405 8.5837161e-22)
(0.14236041 -0.0002681343 7.7971498e-21)
(0.13376955 0.002586711 7.7249316e-20)