/*--------------------------------*- C++ -*----------------------------------*\
| =========                 |                                                 |
| \\      /  F ield         | OpenFOAM: The Open Source CFD Toolbox           |
|  \\    /   O peration     | Version:  2406                                  |
|   \\  /    A nd           | Website:  www.openfoam.com                      |
|    \\/     M anipulation  |                                                 |
\*---------------------------------------------------------------------------*/
FoamFile
{
    version     2.0;
    format      ascii;
    arch        "LSB;label=32;scalar=64";
    class       volVectorField;
    location    "105";
    object      UMean;
}
// * * * * * * * * * * * * * * * * * * * * * * * * * * * * * * * * * * * * * //

dimensions      [0 1 -1 0 0 0 0];

internalField   nonuniform List<vector> 
20580
(
(0.090540117 0.00079844116 6.3428257e-22)
(0.091717721 3.308219e-05 6.5385309e-22)
(0.098497254 -0.00032808641 9.2868575e-23)
(0.098264833 1.4306132e-05 -1.7284973e-22)
(0.09822471 0.00019524605 -9.2645985e-25)
(0.098659386 8.0693389e-05 2.9429216e-23)
(0.098972296 -1.1740155e-05 -1.1652064e-22)
(0.099108651 -8.5612228e-05 -3.7916564e-23)
(0.099158538 -0.00023817145 -1.0786322e-22)
(0.099140918 -0.00051737014 0)
(0.099058494 -0.00090719903 -7.8677585e-23)
(0.098908465 -0.0014172482 -9.5193354e-22)
(0.098717137 -0.0020472736 -1.6408367e-22)
(0.098529789 -0.0028722628 1.0395948e-22)
(0.098316087 -0.0038181833 3.7801113e-22)
(0.098144635 -0.0050518448 6.186244e-22)
(0.098106385 -0.0065009005 1.601e-21)
(0.098107459 -0.0080413144 -1.1955593e-22)
(0.0982887 -0.0098616173 1.5214932e-21)
(0.09861836 -0.011918741 1.1844499e-22)
(0.099234893 -0.014319852 2.3245391e-23)
(0.099953073 -0.016953011 4.4839203e-22)
(0.10079762 -0.019900008 -1.1084251e-21)
(0.10236184 -0.023272818 3.0852411e-21)
(0.10439577 -0.026900603 -2.9947519e-21)
(0.10634137 -0.030734617 -3.27418e-21)
(0.10813865 -0.034655033 6.86171e-21)
(0.11012718 -0.03866494 1.0261112e-21)
(0.11309742 -0.043171268 -3.2774329e-21)
(0.11644729 -0.048118429 4.1798304e-21)
(0.12112575 -0.053579241 1.9845451e-21)
(0.089813851 0.00075460113 0)
(0.090477168 0.00011474691 1.6887954e-22)
(0.09715368 -0.00036163802 2.1766717e-22)
(0.097282889 -8.4354894e-05 2.1538295e-22)
(0.097523038 0.0001083199 -1.1543538e-22)
(0.098112509 5.6557909e-05 -7.8667693e-25)
(0.098697161 -3.0907639e-05 -2.4947991e-22)
(0.09900215 -8.8672219e-05 -2.6465413e-24)
(0.099213266 -0.00022458261 -6.5066934e-23)
(0.099351384 -0.00046449826 -1.6154982e-22)
(0.099466446 -0.00080752013 2.693426e-22)
(0.099529612 -0.0012861939 -2.2243675e-22)
(0.09953827 -0.0018678426 -2.9547378e-22)
(0.099528504 -0.0026137634 1.7800186e-24)
(0.099497737 -0.003528537 -6.6738566e-22)
(0.099470715 -0.004643164 1.3703835e-23)
(0.099480911 -0.0059482816 -4.0240966e-22)
(0.099559039 -0.0074463567 -9.1143517e-22)
(0.099753042 -0.0091867002 0)
(0.10006018 -0.011132208 -1.074895e-21)
(0.10055895 -0.013330375 0)
(0.10129277 -0.015822461 -1.1595967e-21)
(0.10216473 -0.018498809 1.5003346e-21)
(0.10331595 -0.021368498 -4.2680049e-23)
(0.10507654 -0.024647935 -1.0851823e-21)
(0.10720745 -0.028441924 -3.6368103e-23)
(0.10973565 -0.032398893 -3.8877885e-22)
(0.11221892 -0.036164515 1.3920845e-21)
(0.1146858 -0.040010888 1.5673743e-21)
(0.11722172 -0.043702244 -7.6423297e-22)
(0.12122529 -0.04881177 -1.56801e-21)
(0.089363825 0.00094474943 0)
(0.089832861 0.00038732642 0)
(0.095867417 -0.00030413965 -3.9272024e-22)
(0.096054642 -4.5147382e-05 -1.4955383e-21)
(0.096537674 0.00016962291 1.9318177e-22)
(0.097319474 0.00011443369 -9.0726713e-25)
(0.098131337 3.0589345e-05 1.3066844e-22)
(0.098622131 -3.5302739e-05 -1.2650668e-22)
(0.099008532 -0.00016978581 0)
(0.09929056 -0.00040520868 -5.4927283e-22)
(0.099536153 -0.00073790435 -1.2844818e-22)
(0.099781035 -0.0011890065 4.9754537e-22)
(0.099999806 -0.0017531511 0)
(0.10021023 -0.0024623071 -8.6080229e-24)
(0.10039553 -0.003337183 -3.5204777e-22)
(0.10054873 -0.0044461954 8.0810507e-23)
(0.10071227 -0.0057000438 -4.6671766e-23)
(0.10094741 -0.0071041204 -5.2556302e-23)
(0.10126486 -0.0087333546 1.2649823e-21)
(0.10164476 -0.010540617 0)
(0.10217869 -0.012582916 0)
(0.10291825 -0.014919523 1.5906047e-21)
(0.10376895 -0.01742607 -7.9439176e-22)
(0.1046919 -0.020115224 -1.3211091e-21)
(0.10608684 -0.023011282 -5.6284289e-22)
(0.10810604 -0.026180018 4.197473e-22)
(0.11065088 -0.029751059 1.8808671e-21)
(0.11340029 -0.033648712 5.8654259e-22)
(0.11654018 -0.037368372 -4.7660489e-22)
(0.11939192 -0.040827507 7.7435032e-24)
(0.12214181 -0.044923194 1.2120275e-21)
(0.088912356 0.0011386767 0)
(0.089203479 0.00061604236 3.7521896e-24)
(0.094774073 -0.0003891324 5.9086175e-23)
(0.09471893 -7.7814021e-05 1.35857e-23)
(0.095268557 0.00014429156 7.6792672e-22)
(0.096188443 9.5027693e-05 2.8341382e-23)
(0.097228438 1.2808381e-05 4.3077779e-23)
(0.097944517 -4.1364581e-05 0)
(0.09855494 -0.00016210157 3.3159244e-24)
(0.09902087 -0.00037050729 1.4782902e-22)
(0.099387424 -0.00067779678 -3.7578179e-22)
(0.099730102 -0.0011170266 2.6022222e-22)
(0.10006293 -0.0016563207 5.0877298e-24)
(0.10040064 -0.0023349453 2.6326935e-22)
(0.10076853 -0.0031625406 7.6604375e-22)
(0.10114095 -0.0041836068 3.6385781e-23)
(0.10149155 -0.0053850981 -7.5435412e-22)
(0.10190474 -0.0067078962 -2.3716635e-24)
(0.10241674 -0.008269164 -2.4917427e-23)
(0.10300832 -0.0099623304 -1.240265e-22)
(0.1036816 -0.011932638 2.0576838e-22)
(0.10451979 -0.014138574 9.0558255e-22)
(0.10542038 -0.016515328 -2.7419877e-22)
(0.10639885 -0.018979503 -3.6546801e-22)
(0.10769472 -0.021518609 0)
(0.10922722 -0.02448364 4.3032373e-22)
(0.11123368 -0.027755997 -2.3746554e-22)
(0.1139848 -0.031024663 -7.2216155e-22)
(0.1170874 -0.034522597 -1.6208388e-23)
(0.12049897 -0.037954052 -2.7857276e-22)
(0.12347421 -0.042050126 4.0481081e-22)
(0.088699413 0.0012010744 0)
(0.088838862 0.0007952808 1.22443e-22)
(0.094095466 -0.00042479029 2.6632118e-22)
(0.093674822 -7.1130829e-05 1.1643545e-21)
(0.094062924 0.00015653772 7.8603893e-24)
(0.094932188 0.00010558626 2.7817635e-23)
(0.095907164 4.5103043e-05 0)
(0.096849115 -1.1426993e-06 1.1966929e-22)
(0.097705752 -0.00010962865 9.1930549e-24)
(0.098401434 -0.00031248717 1.7084346e-22)
(0.098968784 -0.00061932282 -2.6777447e-22)
(0.099451409 -0.0010317532 -2.0051164e-24)
(0.099868859 -0.0015251609 1.2606745e-22)
(0.10028736 -0.0021662621 -2.4120566e-22)
(0.10075782 -0.0029656832 3.64852e-22)
(0.10126698 -0.0039540665 3.2894305e-22)
(0.1018022 -0.005076406 -7.1097203e-22)
(0.10239693 -0.0063149361 1.0280562e-21)
(0.10310525 -0.0077723763 -7.0004453e-22)
(0.10389264 -0.0093780334 0)
(0.10476514 -0.011210521 2.1730674e-22)
(0.10578559 -0.013293521 2.6949854e-22)
(0.10694898 -0.015537607 6.4978493e-22)
(0.10812296 -0.017909779 -4.4597982e-22)
(0.10938667 -0.020244237 0)
(0.11094947 -0.022683344 6.6801331e-22)
(0.11279473 -0.025390298 -9.0280775e-23)
(0.11478895 -0.028620586 -1.2791299e-22)
(0.1175277 -0.031978628 1.1185171e-22)
(0.12058986 -0.034944088 -5.9435146e-23)
(0.12433638 -0.038922223 -5.2586305e-22)
(0.088882139 0.0014708576 -1.3266835e-21)
(0.088476087 0.00088538694 -1.7894048e-24)
(0.093515055 -0.00048400148 4.3728346e-24)
(0.092820594 -0.00014357224 -3.12806e-22)
(0.09294871 0.00011605306 -1.0492892e-22)
(0.093660833 7.9111416e-05 2.3625606e-25)
(0.094562346 5.353471e-05 1.2925801e-22)
(0.095405842 2.8542532e-05 -1.3097056e-24)
(0.096341879 -6.818889e-05 1.1149248e-22)
(0.097178142 -0.00026132059 -8.7528399e-23)
(0.097951448 -0.00054865217 -2.9298376e-22)
(0.098676981 -0.00094978006 -1.9418516e-22)
(0.099289501 -0.0014401111 9.874984e-23)
(0.099853012 -0.0020371763 -2.2376384e-22)
(0.10045084 -0.0027646663 3.6356941e-22)
(0.10110393 -0.0036689983 -3.0849135e-23)
(0.10178788 -0.0047137528 -5.4276716e-22)
(0.10253963 -0.0059133993 9.3780003e-22)
(0.10342875 -0.0072709945 -1.1867255e-22)
(0.10441178 -0.0087771056 0)
(0.10544536 -0.010483305 2.3217982e-22)
(0.10668746 -0.012413337 -2.1873547e-21)
(0.10816162 -0.014493102 -1.4035554e-21)
(0.10964412 -0.016723422 0)
(0.11118427 -0.01903878 1.5865383e-21)
(0.11270318 -0.021451992 -9.2688144e-22)
(0.11442264 -0.023894404 2.4118832e-22)
(0.11632155 -0.026177936 -1.7553298e-21)
(0.11870203 -0.028796368 1.3252986e-22)
(0.12105846 -0.031400612 2.0595369e-21)
(0.12440822 -0.035231665 -1.0233032e-21)
(0.09040138 0.0015349596 -8.2259007e-22)
(0.088145026 0.0010746436 4.1004107e-23)
(0.092815517 -0.00045650968 3.5484801e-23)
(0.091898297 -0.00013877575 -3.3962615e-23)
(0.091826083 0.00014068769 2.7006054e-22)
(0.092385343 0.00010975203 1.2718503e-22)
(0.093140493 8.6206385e-05 -3.2830734e-22)
(0.093787894 4.7804875e-05 -3.5743458e-25)
(0.094581232 -4.2870127e-05 3.5263175e-24)
(0.095423697 -0.00022716857 -1.2502681e-23)
(0.096276686 -0.00049681736 3.882676e-24)
(0.09715189 -0.00086979829 9.041475e-24)
(0.098019434 -0.0013390267 -1.2668184e-22)
(0.098821567 -0.0019133176 1.3838323e-24)
(0.099655486 -0.0025975508 -2.8115337e-22)
(0.10053278 -0.0034564846 -5.9147257e-23)
(0.10137348 -0.0044269837 1.2390585e-23)
(0.10224454 -0.0055275012 -1.4110539e-21)
(0.10324353 -0.0067760678 0)
(0.10436717 -0.0081758783 -5.5217123e-22)
(0.10559104 -0.0097343467 -2.4622602e-22)
(0.10703001 -0.01147934 -7.1001921e-22)
(0.10865812 -0.013451937 2.9778401e-22)
(0.11037116 -0.015604512 4.5165643e-22)
(0.11217937 -0.017808483 -3.0144959e-22)
(0.11412697 -0.020094906 -2.0246151e-22)
(0.11630058 -0.022431694 2.5547587e-21)
(0.11847222 -0.024759947 -1.7031776e-22)
(0.12070292 -0.027019112 -1.8340554e-21)
(0.12298871 -0.029013432 4.7092944e-23)
(0.12534647 -0.031708431 -9.8882234e-22)
(0.094559384 0.0021361861 4.685377e-21)
(0.088398217 0.0010899925 0)
(0.092693698 -0.00058946759 4.2173468e-21)
(0.091347229 -0.00018455506 4.2391926e-22)
(0.090840205 8.756789e-05 -9.4623744e-22)
(0.091124992 5.4271786e-05 6.8881409e-25)
(0.091642892 3.0737122e-05 -1.0506231e-22)
(0.092102825 8.0315707e-06 -3.7909375e-24)
(0.092695065 -5.2744876e-05 -9.7293734e-23)
(0.093379962 -0.00021804456 -1.812957e-23)
(0.094138884 -0.00045926692 3.2173467e-22)
(0.094988503 -0.00079418396 6.0236403e-24)
(0.095943061 -0.0012342832 -1.5472988e-22)
(0.096946768 -0.0017323301 -3.8343889e-22)
(0.098001772 -0.0023777679 4.8625658e-22)
(0.099223213 -0.0031707096 4.1482524e-22)
(0.10037342 -0.0041327861 2.7953554e-22)
(0.10145085 -0.0051463477 -5.0593165e-22)
(0.10261077 -0.0062824153 -1.2295671e-23)
(0.10390245 -0.0075648439 2.4817819e-23)
(0.10526045 -0.0090427593 2.3070193e-22)
(0.10670552 -0.010667329 -5.8170812e-24)
(0.10836958 -0.012465968 0)
(0.11030054 -0.014427861 2.3106454e-22)
(0.11234369 -0.016379334 3.9791762e-22)
(0.11444091 -0.018363497 1.612837e-22)
(0.11666987 -0.020550537 -1.9082408e-22)
(0.1191149 -0.022910273 -8.8954274e-23)
(0.12183276 -0.025225124 -1.4401457e-21)
(0.12481156 -0.02736341 1.8286991e-22)
(0.12708459 -0.029858688 7.8646088e-22)
(0.10334023 0.0022842762 -4.1765398e-22)
(0.090025003 0.0011755066 5.7863821e-25)
(0.093377778 -0.00057570566 1.5395285e-21)
(0.091651557 -0.00014788326 3.7954862e-22)
(0.090713745 9.5266494e-05 1.0477749e-23)
(0.090534317 3.6650229e-05 -4.1553324e-25)
(0.090513751 1.7862382e-05 -5.8890131e-23)
(0.090631173 4.0990715e-06 -1.3538978e-25)
(0.090927202 -6.3228707e-05 1.993622e-23)
(0.091336783 -0.00021912197 -4.5259373e-23)
(0.091886951 -0.00045055474 4.408447e-22)
(0.092612267 -0.00075572173 0)
(0.093496076 -0.001143326 -1.6187019e-23)
(0.094498563 -0.0016341928 5.2150853e-23)
(0.095626391 -0.0021562443 3.3846602e-22)
(0.096867632 -0.0028515143 -4.7911617e-22)
(0.09835677 -0.0037497922 -1.4703532e-22)
(0.099837909 -0.0047295554 3.4285205e-22)
(0.10130033 -0.0057805294 4.3246818e-22)
(0.10287344 -0.0069817774 5.1826775e-22)
(0.10448857 -0.0083209448 2.704811e-22)
(0.10616146 -0.0097832764 3.2419136e-23)
(0.1079315 -0.011371292 3.3161965e-22)
(0.10995968 -0.013201213 2.460355e-22)
(0.11214847 -0.015166534 2.9683327e-22)
(0.11438875 -0.017037827 -1.8733608e-22)
(0.11673375 -0.018948863 -1.4008938e-22)
(0.11921214 -0.020943862 5.1155913e-23)
(0.12190321 -0.023038162 2.1414838e-21)
(0.12472183 -0.025055135 2.3527624e-21)
(0.12781156 -0.027726296 -3.0161374e-21)
(0.11375438 0.0025665574 -9.5891744e-21)
(0.094723831 0.00045144874 4.8098578e-24)
(0.096147429 -0.00071241383 -2.6665391e-21)
(0.093552268 -0.00026493833 1.8423332e-22)
(0.091635998 2.9703331e-05 4.7123267e-24)
(0.09087858 -8.7155205e-06 0)
(0.090438685 -3.0606418e-05 -1.5122147e-22)
(0.090160771 -3.3489261e-05 -9.5346613e-23)
(0.089992318 -8.5104739e-05 -1.0146952e-22)
(0.089977222 -0.00023031158 -1.0814798e-22)
(0.090158005 -0.00042560586 -6.8034801e-25)
(0.090558953 -0.00068553057 -3.7142824e-24)
(0.091182977 -0.0010299955 0)
(0.092005327 -0.0014673914 2.3694694e-22)
(0.093016686 -0.0019934766 -3.9939458e-23)
(0.094193957 -0.0026103296 -4.1185179e-23)
(0.095672902 -0.003348252 4.1906883e-22)
(0.097337097 -0.0042286503 2.5750021e-22)
(0.099076826 -0.0052041653 1.9352391e-22)
(0.10097605 -0.0063182954 5.2782435e-22)
(0.10295067 -0.0075612848 3.9209593e-22)
(0.10494301 -0.0089018526 -1.7249491e-22)
(0.10699408 -0.010259839 1.8437611e-22)
(0.10916043 -0.011806627 7.5590624e-22)
(0.11146372 -0.013538661 -4.8289438e-22)
(0.11395172 -0.015332021 4.0126005e-22)
(0.11653517 -0.017056067 -7.9759429e-23)
(0.11915514 -0.018832713 -8.685393e-22)
(0.121929 -0.020795544 -9.3369027e-22)
(0.12447228 -0.022600277 8.909763e-22)
(0.12755715 -0.025007239 3.1400807e-21)
(0.11721804 0.0017822357 1.2057828e-21)
(0.10081245 0.00012336683 5.3415293e-24)
(0.10112322 -0.00067055332 -1.5978295e-22)
(0.098016667 -0.00018840466 -4.9571169e-23)
(0.09491972 5.5109148e-05 3.5556928e-24)
(0.092773684 1.8343758e-05 -4.1878351e-23)
(0.091456721 -2.0356963e-05 -2.0326363e-22)
(0.090746418 -5.8201431e-05 -9.8828065e-25)
(0.090245464 -0.00013611466 -7.7766899e-23)
(0.090005785 -0.0002616017 1.8924503e-22)
(0.089932831 -0.00042609784 3.0039602e-23)
(0.090008665 -0.00065720568 3.8760588e-23)
(0.090259643 -0.00096257366 0)
(0.09068985 -0.0013376128 2.9311465e-23)
(0.091349278 -0.0017692341 3.6667246e-23)
(0.092224519 -0.0022930266 -2.4070905e-24)
(0.093356913 -0.0029637686 -8.160565e-23)
(0.094797234 -0.0037386915 1.0011845e-23)
(0.096478642 -0.0046197157 1.3193456e-22)
(0.098459944 -0.0055938074 -5.7689146e-24)
(0.10071759 -0.0067437215 -6.5690483e-22)
(0.1030538 -0.008021193 1.195046e-22)
(0.10544983 -0.009295222 3.6533592e-22)
(0.10789401 -0.01067305 -1.0054951e-21)
(0.11040013 -0.012167753 -3.8097581e-22)
(0.11295575 -0.013767748 5.873914e-22)
(0.11565284 -0.01537274 -2.8045227e-22)
(0.11844073 -0.016886427 -1.2293303e-21)
(0.12140498 -0.018465072 1.4853419e-21)
(0.12428678 -0.019926677 6.9101811e-22)
(0.12715063 -0.021782961 -1.5892069e-21)
(0.11325022 0.0016693522 1.0624787e-20)
(0.10498986 -0.00060502698 0)
(0.10649111 -0.0009874389 -3.3438048e-22)
(0.10380199 -0.00026052734 -2.353032e-21)
(0.10068004 -0.00011274289 -9.9365569e-22)
(0.097795355 -0.00015160838 -6.0225827e-23)
(0.09528991 -8.4550931e-05 2.1899189e-24)
(0.093384897 -3.2074257e-05 2.9470691e-25)
(0.091982709 -8.230626e-05 3.1725774e-23)
(0.091156208 -0.00019536032 1.7888774e-22)
(0.090683576 -0.00037241697 -7.7595186e-23)
(0.090524127 -0.00058162848 -1.1036961e-24)
(0.090589654 -0.00086396183 -1.232286e-22)
(0.090844409 -0.001213967 0)
(0.091297097 -0.0015963935 -1.5694744e-23)
(0.091988767 -0.0020353042 -4.5928166e-23)
(0.092808379 -0.0026034111 -2.9040837e-22)
(0.093831035 -0.0032702818 6.9302557e-23)
(0.095109215 -0.0040281504 -1.4334843e-23)
(0.096702858 -0.0048468329 -3.2881251e-22)
(0.098639119 -0.0058332238 -7.1398499e-23)
(0.10088761 -0.006933164 -2.8449639e-23)
(0.10338063 -0.0081525241 -5.2048623e-22)
(0.10604462 -0.0094750227 -3.9084249e-22)
(0.10881628 -0.010887695 4.0208e-22)
(0.11157402 -0.012328441 -1.3638133e-22)
(0.11439764 -0.013805629 1.0215671e-21)
(0.11731421 -0.015293172 -9.9840731e-23)
(0.12039463 -0.016858115 -7.8123487e-22)
(0.12357134 -0.018329411 5.9652741e-23)
(0.12683464 -0.019974824 -3.514259e-22)
(0.10305408 0.0011220173 1.0375461e-23)
(0.10393091 -0.00019782948 1.1185444e-21)
(0.10766666 -0.0010278609 9.5435012e-23)
(0.106198 -0.0001918203 -8.1895749e-24)
(0.10485317 -0.00013631974 8.1614947e-24)
(0.10355486 -0.00025832498 5.9786028e-24)
(0.1016564 -0.0002308812 -5.1622944e-23)
(0.099330116 -0.0002015613 5.2814136e-25)
(0.097089973 -0.00021741766 9.5784513e-25)
(0.095290194 -0.00026991529 -7.9878773e-23)
(0.093927463 -0.00036842816 -1.3597123e-24)
(0.092995531 -0.00053922431 -5.4956831e-23)
(0.092512947 -0.0007780062 3.0214085e-24)
(0.092401884 -0.0010564769 2.5446451e-23)
(0.092534804 -0.0013672505 0)
(0.092951981 -0.001804803 0)
(0.093526667 -0.0023199166 2.6086454e-22)
(0.09427662 -0.0029037768 8.7135967e-23)
(0.095319526 -0.0035603503 -2.4564853e-22)
(0.096579177 -0.004294917 -1.8622011e-22)
(0.098054017 -0.0051488292 7.1122725e-23)
(0.099811445 -0.0060894508 -3.3366294e-23)
(0.10184486 -0.0071410193 0)
(0.10418368 -0.0082957525 0)
(0.10681855 -0.0095472616 0)
(0.10959062 -0.01080843 5.768961e-22)
(0.11247296 -0.012117351 -7.5675334e-23)
(0.11541149 -0.013522453 2.2252031e-22)
(0.11847451 -0.015026514 4.7022312e-22)
(0.12155946 -0.0163561 -5.6721575e-22)
(0.1251415 -0.01817987 6.523263e-22)
(0.095853311 0.0014265077 -9.2838163e-22)
(0.097914669 -0.00042413414 2.657772e-23)
(0.10512975 -0.0012581263 -2.4342275e-23)
(0.10470735 -0.00036504346 3.29327e-21)
(0.10443747 -0.00023085127 0)
(0.10409756 -0.00033298835 1.7968299e-24)
(0.1035214 -0.00029114817 -1.619862e-22)
(0.10289019 -0.00029377102 -2.323047e-22)
(0.10197816 -0.00029216604 -5.5377574e-25)
(0.10086657 -0.00032303552 -1.1602491e-22)
(0.099675162 -0.00040027122 -1.0182001e-22)
(0.098492544 -0.00052449615 0)
(0.097437114 -0.00069696386 1.160526e-22)
(0.096744731 -0.00093250201 -5.1170564e-23)
(0.096413207 -0.001208717 3.9969718e-23)
(0.096327546 -0.0015558478 6.333777e-23)
(0.096480997 -0.0019797582 2.2292815e-23)
(0.096846492 -0.0024592764 -9.0883988e-23)
(0.097522461 -0.0030143063 -8.1172574e-23)
(0.098398777 -0.0036418265 -2.021585e-22)
(0.099437439 -0.0043404699 1.8610191e-23)
(0.10072115 -0.005196491 1.5627605e-22)
(0.10229 -0.0061609435 -1.2830233e-22)
(0.10413084 -0.0071775444 0)
(0.10626319 -0.0082754574 2.7468311e-22)
(0.10864862 -0.0094430862 -3.2958885e-22)
(0.11125313 -0.010583197 7.3570808e-22)
(0.11396622 -0.011708459 -5.2656617e-22)
(0.11693308 -0.012937398 4.6223967e-22)
(0.11971722 -0.014011435 5.0342357e-22)
(0.12305658 -0.01566852 4.3020848e-22)
(0.095278279 0.0013699253 2.3239016e-21)
(0.095168189 0.00017268674 -4.0448936e-22)
(0.10087204 -0.0010584284 -2.9322491e-24)
(0.10063344 -0.00033214968 -1.9977878e-21)
(0.10131256 -0.00031994487 2.7764375e-22)
(0.10208577 -0.00043428311 5.1792891e-25)
(0.1022734 -0.00038885149 4.7025278e-22)
(0.10225582 -0.00039280749 1.7065068e-24)
(0.10200837 -0.00039965845 1.360343e-24)
(0.10181036 -0.00043832542 6.9606109e-25)
(0.10163337 -0.00050693083 1.1163611e-22)
(0.10146192 -0.00063017279 1.0665343e-23)
(0.1013102 -0.00075872418 1.5961372e-23)
(0.10119657 -0.00091699711 -4.0655229e-25)
(0.10114028 -0.0011407305 6.6946218e-23)
(0.10114237 -0.0014097943 6.2521245e-24)
(0.10128983 -0.0018001039 9.8888181e-23)
(0.10156811 -0.002237397 -1.0420441e-22)
(0.10205133 -0.0026889303 -1.416483e-22)
(0.10268712 -0.00317788 0)
(0.10344004 -0.0037645737 -1.591196e-22)
(0.10433516 -0.0044181487 1.1417573e-22)
(0.10544208 -0.0051646725 -4.5480462e-22)
(0.10680687 -0.0059149233 -2.1599501e-22)
(0.10841479 -0.0067811308 -8.7321991e-23)
(0.11029561 -0.0078284198 7.3542853e-22)
(0.11239526 -0.0089710614 -2.0993741e-22)
(0.1146272 -0.0099944705 -4.6156982e-23)
(0.11715303 -0.010972318 -5.46579e-22)
(0.11971582 -0.011780415 -6.1169398e-22)
(0.12209476 -0.013088776 5.1124772e-22)
(0.10750734 0.0018358455 5.1577474e-21)
(0.097662806 -0.0001937844 3.9805298e-26)
(0.10115957 -0.0013529718 2.2573591e-21)
(0.099948849 -0.00027992228 -5.5941894e-23)
(0.099909251 -0.00021418565 4.3299521e-24)
(0.10015978 -0.00036985362 -1.7354168e-22)
(0.10032514 -0.00033610664 0)
(0.10050521 -0.00033444838 -1.0313007e-24)
(0.10065126 -0.00035354881 3.0597947e-26)
(0.10076384 -0.00037776994 2.762382e-22)
(0.10090449 -0.00040217979 -5.6214107e-25)
(0.10106125 -0.00050649033 -4.4585145e-24)
(0.10127392 -0.00061562441 -1.6520489e-23)
(0.10158633 -0.00076646717 1.0482849e-22)
(0.10197706 -0.00094092803 -1.3406206e-22)
(0.10244296 -0.0011866807 -5.5502472e-23)
(0.10305722 -0.0014827368 1.5773701e-25)
(0.10376623 -0.0018322583 9.6162264e-25)
(0.10463944 -0.002261627 0)
(0.10569422 -0.0027330744 -9.3619546e-23)
(0.10676603 -0.0031888323 -4.312993e-22)
(0.10787142 -0.0036859417 3.7231605e-22)
(0.109094 -0.0043277424 -1.5650811e-23)
(0.11042102 -0.0050082578 -1.8439047e-22)
(0.11190961 -0.0057127678 -8.8357512e-22)
(0.11352073 -0.0064968653 -7.2287681e-23)
(0.1152942 -0.0074199844 1.0906203e-21)
(0.11722293 -0.0083742032 -2.9080483e-22)
(0.11929203 -0.009270151 -3.3893694e-22)
(0.12173963 -0.010041919 -6.3645496e-22)
(0.12369799 -0.010985558 -1.0749936e-22)
(0.10126793 0.001432296 4.4863687e-21)
(0.09982671 2.2040847e-06 -3.0262088e-25)
(0.10298892 -0.0013677127 2.6450114e-23)
(0.10151469 -0.00014847198 1.6982662e-21)
(0.10117393 -0.00030925099 2.6531575e-24)
(0.10099628 -0.00051501558 -6.1783848e-22)
(0.10078676 -0.00046509116 0)
(0.10067581 -0.00045407712 0)
(0.10059963 -0.00045287348 1.3125974e-23)
(0.10057291 -0.00046545789 0)
(0.10059834 -0.00048294836 1.8743557e-23)
(0.10068675 -0.00056854819 2.976109e-22)
(0.10087306 -0.00064067513 0)
(0.10114534 -0.00077014384 1.3493107e-22)
(0.10150802 -0.00089203918 -5.5001462e-23)
(0.10203145 -0.001063599 3.5903915e-23)
(0.10269498 -0.0012948395 6.2372959e-23)
(0.1034878 -0.0016144759 -1.0880086e-22)
(0.10445949 -0.0019684955 8.6696949e-23)
(0.10567568 -0.0023849283 1.6243419e-22)
(0.10706158 -0.0028263885 1.8605972e-22)
(0.10852103 -0.003270109 1.4215609e-23)
(0.11012838 -0.003791769 -2.3131529e-22)
(0.1118316 -0.0043977066 -2.1016336e-22)
(0.11369656 -0.0050277606 5.2637851e-22)
(0.11567626 -0.0056584889 -8.0595621e-22)
(0.11767591 -0.0063322705 -7.4355722e-22)
(0.11965463 -0.0071452461 4.2403459e-22)
(0.1216663 -0.0080468219 5.1115096e-22)
(0.1239563 -0.0089921534 5.2653607e-23)
(0.12597144 -0.0098611816 1.3197028e-21)
(0.095889033 0.0017567327 1.4219636e-21)
(0.096731574 -7.7947317e-05 -3.2876082e-25)
(0.1017965 -0.0015048491 -3.336907e-21)
(0.10089123 -4.9196295e-05 -2.65876e-21)
(0.10107654 -0.00013280296 -7.304321e-22)
(0.10119579 -0.00028510415 -1.3642486e-24)
(0.10122726 -0.00025755597 -2.827581e-24)
(0.10126661 -0.00031389162 -3.7740942e-22)
(0.10128087 -0.00031508186 -3.9283445e-22)
(0.10126406 -0.00033594466 8.5835258e-23)
(0.10127276 -0.00036338815 -5.6077927e-23)
(0.10129533 -0.00044943737 5.9571518e-24)
(0.10138626 -0.00049730372 -1.6276895e-22)
(0.10157165 -0.00061961294 4.1125756e-23)
(0.10184573 -0.00072713847 3.9405044e-23)
(0.10230323 -0.00086857445 1.1558339e-22)
(0.10280767 -0.0010181955 3.0108603e-22)
(0.10339594 -0.0012564368 2.4409524e-22)
(0.10418732 -0.0015476702 1.3179093e-22)
(0.10517501 -0.0018541914 -1.553746e-22)
(0.1063519 -0.0022060759 8.4264152e-23)
(0.1076924 -0.0026449378 2.7919726e-22)
(0.10925162 -0.003115446 3.8105969e-22)
(0.11095423 -0.0036631551 1.1414043e-24)
(0.11280856 -0.0042279072 2.0309834e-22)
(0.11487943 -0.0047953542 2.2718386e-22)
(0.11715938 -0.0053716829 3.7733449e-23)
(0.11952235 -0.0060028364 -1.2444704e-21)
(0.12190807 -0.0066445791 -1.3800676e-21)
(0.124274 -0.0073475063 2.8204756e-22)
(0.12668418 -0.0083027862 2.4950222e-21)
(0.097578062 0.0017444984 -5.2007012e-21)
(0.095874672 0.00047961195 1.537285e-25)
(0.099746032 -0.0015292726 9.4845279e-23)
(0.098761178 -0.00015643305 -7.2811534e-23)
(0.099295283 -0.00040645083 -5.978319e-23)
(0.099765317 -0.0005234351 3.3326966e-22)
(0.10010644 -0.00045443881 -2.3405148e-22)
(0.10046262 -0.00044325424 3.0062835e-23)
(0.10077784 -0.00044361084 -1.0624555e-22)
(0.10105568 -0.00047693397 -1.4006943e-24)
(0.10133332 -0.00046754261 -1.7789194e-22)
(0.10163679 -0.0005668364 -2.5222604e-22)
(0.10197224 -0.00054027342 -1.4431931e-23)
(0.10239167 -0.00064579029 -3.9326729e-23)
(0.10277623 -0.00072820933 3.5934755e-25)
(0.10327036 -0.00079806024 -3.6522893e-23)
(0.10381119 -0.0009977794 -9.791867e-23)
(0.10446149 -0.0012028933 0)
(0.10526219 -0.0013702707 -3.1596753e-24)
(0.10611576 -0.0016204429 -2.5269465e-24)
(0.10710048 -0.0019862374 -3.1364299e-22)
(0.10823924 -0.0023580039 -2.794118e-22)
(0.1095466 -0.0027280932 5.010152e-24)
(0.11105568 -0.0031216385 3.0178696e-22)
(0.11272154 -0.0035676325 3.1085133e-22)
(0.11455779 -0.0041046291 -3.9813096e-22)
(0.11656682 -0.0046635849 4.0342634e-22)
(0.11877653 -0.0051838587 9.9098592e-22)
(0.12112684 -0.0056551925 -2.2473106e-21)
(0.12351535 -0.0061256522 -1.8005128e-21)
(0.12601428 -0.0067187666 -2.2105219e-21)
(0.10382723 0.0022147629 -2.6242703e-21)
(0.098346924 -0.00040814222 3.1256632e-22)
(0.1010474 -0.0018412367 -1.5588407e-21)
(0.099540751 5.1285887e-05 8.802382e-21)
(0.099718347 -0.00011314476 -4.1103595e-24)
(0.09979217 -0.00029577593 3.655763e-25)
(0.099893437 -0.0001832648 -4.3719453e-25)
(0.10019218 -0.00022554042 -1.7787563e-22)
(0.10046001 -0.00020965715 1.6601775e-22)
(0.1007319 -0.00023660372 -2.9430187e-23)
(0.1011045 -0.00023709003 -1.3310044e-23)
(0.10146907 -0.00030264755 7.8859137e-25)
(0.10190304 -0.00027882093 -8.5174021e-23)
(0.10242807 -0.00040829641 3.240467e-24)
(0.10294793 -0.00044543965 -5.3586699e-22)
(0.10338793 -0.00050833093 3.5877923e-22)
(0.10421421 -0.00056008317 -6.3421838e-24)
(0.10503294 -0.00067939372 9.9257934e-24)
(0.10596413 -0.00084650328 -4.0003979e-22)
(0.10698981 -0.0010002291 -4.9324177e-22)
(0.10812875 -0.0012322472 -1.0665371e-22)
(0.10940118 -0.0014685655 2.5791162e-22)
(0.11078846 -0.0017349225 -1.5630965e-22)
(0.11230826 -0.0020062139 7.9531904e-22)
(0.11392639 -0.0023319837 4.8924516e-22)
(0.11570244 -0.0026889292 -4.8269183e-22)
(0.11760162 -0.0030688993 -3.0212183e-21)
(0.11968235 -0.0034163384 1.0695983e-21)
(0.12188307 -0.0038036766 -4.8617598e-22)
(0.12415781 -0.0042232557 1.190831e-21)
(0.12622642 -0.0046521511 1.2351146e-21)
(0.10253064 0.0016081677 1.3301898e-21)
(0.10128887 0.00073568456 2.4337481e-24)
(0.10389868 -0.0022010539 -1.3356525e-22)
(0.10243235 -2.1606981e-05 -5.3804121e-23)
(0.10263059 -0.00046902279 1.8610112e-23)
(0.10238228 -0.00055529286 4.7825873e-24)
(0.1022356 -0.00042626442 -4.4917297e-25)
(0.10221438 -0.0004482196 -4.8905242e-25)
(0.10224887 -0.00038828172 2.6759494e-26)
(0.10232098 -0.00040879589 1.24145e-24)
(0.10249949 -0.0002537132 -7.7293462e-25)
(0.10266759 -0.00047062402 2.9452944e-22)
(0.10297388 -0.00024978076 2.758472e-22)
(0.10335661 -0.00040125906 -7.7283096e-24)
(0.10373391 -0.00043714215 -4.4359358e-23)
(0.10408215 -0.00046462668 -4.2211857e-23)
(0.10490999 -0.00051819189 1.3656577e-22)
(0.10568113 -0.00059456677 9.8816465e-23)
(0.1065978 -0.00065318495 6.9254735e-22)
(0.10762918 -0.00073210341 3.6645779e-22)
(0.1087646 -0.00089946981 -3.6230536e-23)
(0.11002152 -0.0010510604 -1.811474e-24)
(0.11144297 -0.001222686 -3.3484961e-22)
(0.11298951 -0.0014010587 2.7557906e-23)
(0.11466023 -0.0016155236 4.135282e-22)
(0.116494 -0.0018951787 1.5268467e-21)
(0.11845944 -0.002264693 -4.433569e-22)
(0.12052907 -0.002612906 -1.5602767e-21)
(0.12265078 -0.0029025569 -5.5370053e-22)
(0.12502706 -0.0032593705 -1.9252598e-21)
(0.12699414 -0.0036465212 2.0593186e-21)
(0.1132522 0.0025340037 1.4652837e-21)
(0.098890913 -0.00058019498 -1.1703729e-21)
(0.10297305 -0.0017792701 1.1901077e-21)
(0.10215629 0.00029469087 -5.7788266e-21)
(0.10292003 -0.00011778081 -3.7978291e-21)
(0.1035637 -0.00020512512 1.7025138e-22)
(0.10393524 -2.9936913e-05 -7.2201925e-22)
(0.10456495 -0.00012490537 1.7686476e-25)
(0.10497103 -4.3848952e-05 -2.0376281e-22)
(0.10536903 -0.00013484266 -4.2978484e-22)
(0.10582793 -0.00013515558 -4.7180276e-22)
(0.10613526 -0.00016089502 -6.3651924e-24)
(0.10656804 -3.4092118e-05 9.1370337e-23)
(0.10705747 -0.00022512198 7.3149743e-22)
(0.10738321 -0.00021563267 3.1474832e-23)
(0.10779326 -5.3245831e-05 -8.4856303e-22)
(0.10856717 -8.6162954e-05 -6.57624e-24)
(0.10926874 -0.00015387324 -1.1823557e-22)
(0.11011313 -0.00020637949 -2.9853894e-24)
(0.1111079 -0.0002642763 5.424593e-22)
(0.11215439 -0.00034302346 -1.3686024e-22)
(0.11333872 -0.0004031978 -9.8159193e-24)
(0.1146563 -0.00048163661 -1.4175781e-22)
(0.11609328 -0.00053497005 -1.0398979e-21)
(0.11769077 -0.00060565507 2.3331282e-22)
(0.11940897 -0.0006969559 -5.8196137e-22)
(0.1212947 -0.00084029409 1.1490821e-21)
(0.12335613 -0.0010284344 0)
(0.12554328 -0.001203216 -4.943897e-22)
(0.12775601 -0.001520217 -1.2891141e-21)
(0.12976902 -0.0016129624 -5.4533451e-22)
(0.10421575 0.00069782987 -3.5804639e-21)
(0.062444649 -0.00015817992 0)
(0.11410913 -0.0026633778 4.1106208e-23)
(0.11217048 0.00027482941 -7.8381714e-22)
(0.10561583 -0.00045969864 -2.6633859e-22)
(0.11836509 -0.00032510436 1.1746831e-23)
(0.11039657 -0.00022761219 -3.8947266e-22)
(0.12027016 -0.00021793183 -5.0025272e-23)
(0.11379881 -0.00015847174 -6.1796836e-23)
(0.12151223 -0.00018915161 -2.1940904e-22)
(0.11606628 0.00010686234 -1.8698489e-23)
(0.12177915 -0.00042544862 3.5641641e-22)
(0.1197772 0.00015902927 3.3527409e-23)
(0.12067401 -0.00017563128 1.521852e-22)
(0.12247815 -0.00020184352 -2.6254022e-22)
(0.12253429 -9.0647521e-05 -6.9260339e-23)
(0.12343289 -5.2168646e-05 5.5035908e-22)
(0.12328866 -5.3976928e-05 -2.6040939e-22)
(0.12408857 -3.6635571e-05 -5.5208666e-22)
(0.12417403 -6.1289419e-05 1.9980769e-23)
(0.12535626 -0.0001567536 -7.0558685e-22)
(0.12591377 -0.00017743302 1.0304001e-22)
(0.12725037 -0.00026558092 1.9462069e-22)
(0.1282898 -0.00028812337 -5.9467515e-22)
(0.12959795 -0.00034477914 9.3062489e-22)
(0.13081177 -0.00042841834 -6.5653308e-22)
(0.1323442 -0.00052668415 -7.7474926e-22)
(0.13404338 -0.00065268655 5.469377e-22)
(0.13614936 -0.00076875692 -3.3350402e-22)
(0.13829163 -0.00090157846 -1.6628597e-21)