/*--------------------------------*- C++ -*----------------------------------*\
| =========                 |                                                 |
| \\      /  F ield         | OpenFOAM: The Open Source CFD Toolbox           |
|  \\    /   O peration     | Version:  2406                                  |
|   \\  /    A nd           | Website:  www.openfoam.com                      |
|    \\/     M anipulation  |                                                 |
\*---------------------------------------------------------------------------*/
FoamFile
{
    version     2.0;
    format      ascii;
    arch        "LSB;label=32;scalar=64";
    class       volScalarField;
    location    "35";
    object      k;
}
// * * * * * * * * * * * * * * * * * * * * * * * * * * * * * * * * * * * * * //

dimensions      [0 2 -2 0 0 0 0];

internalField   nonuniform List<scalar> 
20580
(
3.1184204e-06
2.3379293e-06
1.8167765e-06
1.5240603e-06
1.325388e-06
1.1714641e-06
1.0459506e-06
9.5100326e-07
8.7772917e-07
8.1957164e-07
7.7008857e-07
7.2538771e-07
6.8613406e-07
6.4991633e-07
6.2013627e-07
5.9246469e-07
5.6832837e-07
5.4922764e-07
5.3108644e-07
5.1758891e-07
5.0523915e-07
4.9234881e-07
4.8470246e-07
4.839016e-07
4.861213e-07
4.9081715e-07
5.0014314e-07
5.1606326e-07
5.3363015e-07
5.651366e-07
6.1520128e-07
3.1359116e-06
2.369578e-06
1.8321389e-06
1.5371776e-06
1.3412872e-06
1.1840169e-06
1.0572962e-06
9.5974146e-07
8.8414952e-07
8.2479628e-07
7.7490219e-07
7.2970924e-07
6.9023208e-07
6.5483589e-07
6.2422502e-07
5.9657958e-07
5.717225e-07
5.522459e-07
5.3351306e-07
5.2147465e-07
5.1002104e-07
4.9821677e-07
4.8950984e-07
4.8583659e-07
4.8670451e-07
4.9138983e-07
4.979257e-07
5.1532242e-07
5.252973e-07
5.4510897e-07
5.958134e-07
3.1372201e-06
2.4026891e-06
1.8591834e-06
1.5515613e-06
1.3522487e-06
1.1937806e-06
1.0650128e-06
9.6456061e-07
8.8971497e-07
8.2967456e-07
7.7979124e-07
7.3391082e-07
6.9467481e-07
6.5809302e-07
6.2880825e-07
5.9972404e-07
5.76634e-07
5.5517203e-07
5.3558624e-07
5.2451065e-07
5.1244344e-07
5.00668e-07
4.9365149e-07
4.8921884e-07
4.8918892e-07
4.9276756e-07
4.9730377e-07
5.1198864e-07
5.2368917e-07
5.3608836e-07
5.7462641e-07
3.1422941e-06
2.4140415e-06
1.8780318e-06
1.5565267e-06
1.3548014e-06
1.1968304e-06
1.0690494e-06
9.6863246e-07
8.9238716e-07
8.3327236e-07
7.8414937e-07
7.3841893e-07
6.9942999e-07
6.6165154e-07
6.3229986e-07
6.0235846e-07
5.7945944e-07
5.5723623e-07
5.3800677e-07
5.2672572e-07
5.1405167e-07
5.0247924e-07
4.9569819e-07
4.9026587e-07
4.9011121e-07
4.9257784e-07
4.9718043e-07
5.061628e-07
5.2292068e-07
5.3152369e-07
5.5840867e-07
3.1445338e-06
2.4090738e-06
1.8886335e-06
1.5636676e-06
1.3616025e-06
1.2014645e-06
1.0752012e-06
9.7442467e-07
8.9745296e-07
8.3802841e-07
7.9005768e-07
7.4372142e-07
7.0599505e-07
6.6711042e-07
6.3705254e-07
6.0687283e-07
5.8315924e-07
5.5985893e-07
5.4069092e-07
5.2806546e-07
5.1543552e-07
5.0331466e-07
4.9667737e-07
4.9005838e-07
4.8984701e-07
4.9204198e-07
4.9704017e-07
5.0251402e-07
5.1878385e-07
5.2691823e-07
5.4834672e-07
3.1457931e-06
2.4083262e-06
1.8898209e-06
1.58177e-06
1.3822347e-06
1.216129e-06
1.086706e-06
9.8152965e-07
9.0388419e-07
8.4260688e-07
7.9340388e-07
7.4742701e-07
7.0899949e-07
6.7036633e-07
6.4026953e-07
6.1229117e-07
5.8704613e-07
5.6519878e-07
5.4606003e-07
5.3051527e-07
5.1759692e-07
5.0477853e-07
4.9797062e-07
4.8998372e-07
4.8873388e-07
4.9115478e-07
4.9586254e-07
4.99368e-07
5.1208141e-07
5.2231273e-07
5.4241044e-07
3.1469749e-06
2.4134358e-06
1.8845747e-06
1.5865272e-06
1.3905271e-06
1.230262e-06
1.0970408e-06
9.9171089e-07
9.1183907e-07
8.494671e-07
7.9840792e-07
7.5136994e-07
7.1208409e-07
6.7312352e-07
6.4277728e-07
6.1509125e-07
5.9016045e-07
5.6845731e-07
5.5038488e-07
5.3399782e-07
5.2259959e-07
5.0904942e-07
5.0107779e-07
4.9162256e-07
4.879106e-07
4.8957434e-07
4.9303951e-07
4.9550314e-07
5.0526151e-07
5.1552758e-07
5.3448232e-07
3.1647966e-06
2.4313344e-06
1.8883789e-06
1.5808024e-06
1.380836e-06
1.2267672e-06
1.099339e-06
1.0015247e-06
9.2541321e-07
8.6433602e-07
8.1135214e-07
7.6253535e-07
7.2054894e-07
6.7960148e-07
6.47593e-07
6.1918252e-07
5.9343444e-07
5.7151495e-07
5.5222885e-07
5.3670736e-07
5.2495699e-07
5.1547833e-07
5.0472762e-07
4.9707364e-07
4.8956339e-07
4.8920692e-07
4.9115344e-07
4.9351836e-07
5.0066973e-07
5.0844092e-07
5.2514368e-07
3.2220455e-06
2.5497069e-06
1.9325269e-06
1.59418e-06
1.3826564e-06
1.22515e-06
1.1007961e-06
1.0055835e-06
9.3415219e-07
8.7819257e-07
8.302461e-07
7.8377981e-07
7.4119384e-07
6.9864846e-07
6.6138403e-07
6.3082685e-07
6.0183863e-07
5.7809684e-07
5.5643436e-07
5.3944471e-07
5.2727065e-07
5.1771333e-07
5.0743468e-07
4.9930912e-07
4.9345384e-07
4.9057281e-07
4.9111317e-07
4.93631e-07
4.9918023e-07
5.0460518e-07
5.1904734e-07
3.2297974e-06
2.6890777e-06
2.043056e-06
1.6616495e-06
1.4141135e-06
1.2344824e-06
1.1015765e-06
1.0043346e-06
9.3407049e-07
8.797995e-07
8.332253e-07
7.888357e-07
7.4687796e-07
7.0859121e-07
6.7276377e-07
6.4263668e-07
6.1453024e-07
5.9041954e-07
5.6859817e-07
5.464912e-07
5.3225858e-07
5.2118601e-07
5.1153608e-07
5.0254417e-07
4.964526e-07
4.9267349e-07
4.9280341e-07
4.9473604e-07
4.9971605e-07
5.0364646e-07
5.1399294e-07
3.1361664e-06
2.5920088e-06
2.0329117e-06
1.6807184e-06
1.4339853e-06
1.2455305e-06
1.1033483e-06
1.0003459e-06
9.2691959e-07
8.7022931e-07
8.2325024e-07
7.8023344e-07
7.4032099e-07
7.0507967e-07
6.7224777e-07
6.4337487e-07
6.1747474e-07
5.955956e-07
5.7572451e-07
5.5500344e-07
5.3988732e-07
5.2728641e-07
5.1686098e-07
5.0871613e-07
5.0234604e-07
4.9553942e-07
4.9437548e-07
4.9604372e-07
5.0103999e-07
5.0447561e-07
5.1053028e-07
3.0609769e-06
2.4304329e-06
1.9559121e-06
1.6462192e-06
1.4203174e-06
1.2473918e-06
1.1087994e-06
1.0021519e-06
9.2530284e-07
8.6508284e-07
8.1659129e-07
7.7415179e-07
7.3432068e-07
6.995887e-07
6.6810489e-07
6.4109921e-07
6.1545265e-07
5.9555741e-07
5.7529125e-07
5.5759512e-07
5.4306054e-07
5.3036904e-07
5.1945366e-07
5.1176267e-07
5.0718673e-07
4.9966232e-07
4.9634461e-07
4.9744239e-07
5.0205147e-07
5.056045e-07
5.0988943e-07
3.0847059e-06
2.3727404e-06
1.903242e-06
1.6071358e-06
1.4069158e-06
1.2506931e-06
1.120483e-06
1.0130419e-06
9.3580711e-07
8.7648223e-07
8.2761013e-07
7.8496474e-07
7.4438578e-07
7.0805003e-07
6.7431452e-07
6.4574229e-07
6.1821807e-07
5.9766485e-07
5.7632274e-07
5.5960141e-07
5.446856e-07
5.3138933e-07
5.2104056e-07
5.1308372e-07
5.0898136e-07
5.0362981e-07
4.9875728e-07
4.9835646e-07
5.0084195e-07
5.0430346e-07
5.0877724e-07
3.140012e-06
2.4027495e-06
1.9043844e-06
1.6059715e-06
1.4153897e-06
1.2680686e-06
1.1513095e-06
1.055968e-06
9.8588704e-07
9.3614342e-07
8.9162938e-07
8.5083527e-07
8.0666741e-07
7.6332939e-07
7.1986336e-07
6.8158674e-07
6.4388248e-07
6.1596977e-07
5.8932457e-07
5.6908215e-07
5.51684e-07
5.3637454e-07
5.2503446e-07
5.1662123e-07
5.1062403e-07
5.0606063e-07
5.0144575e-07
4.9974807e-07
5.0033441e-07
5.0250106e-07
5.0610972e-07
3.2532002e-06
2.647213e-06
1.983142e-06
1.6346274e-06
1.4399411e-06
1.3077278e-06
1.2094558e-06
1.1339182e-06
1.0748867e-06
1.0329193e-06
9.8985821e-07
9.4482729e-07
8.935891e-07
8.4287044e-07
7.9247891e-07
7.4815831e-07
7.058033e-07
6.6923068e-07
6.3444202e-07
6.0533219e-07
5.8076445e-07
5.6036931e-07
5.4249154e-07
5.3033329e-07
5.2003794e-07
5.1307755e-07
5.0837374e-07
5.0512529e-07
5.0404778e-07
5.0434631e-07
5.0622824e-07
3.2670633e-06
2.7772361e-06
2.1077031e-06
1.7017742e-06
1.4565543e-06
1.312447e-06
1.2078475e-06
1.1322337e-06
1.0781609e-06
1.03448e-06
9.8833633e-07
9.3972881e-07
8.8896438e-07
8.3938242e-07
7.9377085e-07
7.5212771e-07
7.160693e-07
6.8440865e-07
6.5286675e-07
6.2764147e-07
6.0484182e-07
5.8641067e-07
5.7015196e-07
5.5742194e-07
5.4657821e-07
5.3627242e-07
5.2896449e-07
5.230357e-07
5.1933053e-07
5.1778808e-07
5.1712123e-07
3.1643956e-06
2.57744e-06
2.0603066e-06
1.6932131e-06
1.4563835e-06
1.3020687e-06
1.1800277e-06
1.0853579e-06
1.0152664e-06
9.5774102e-07
9.0776898e-07
8.5821982e-07
8.1370889e-07
7.7102997e-07
7.3731215e-07
7.0672426e-07
6.8309542e-07
6.6083829e-07
6.3884593e-07
6.2021615e-07
6.0178442e-07
5.8446851e-07
5.7179608e-07
5.609394e-07
5.534951e-07
5.4356004e-07
5.3829605e-07
5.3488218e-07
5.319418e-07
5.2868554e-07
5.2777386e-07
3.1506731e-06
2.4676699e-06
1.9600436e-06
1.6449065e-06
1.4392691e-06
1.2836343e-06
1.1555453e-06
1.0506902e-06
9.6971407e-07
9.0323075e-07
8.5419705e-07
8.0724969e-07
7.6874045e-07
7.2968587e-07
6.9803377e-07
6.6768399e-07
6.4505966e-07
6.2400511e-07
6.0644966e-07
5.923288e-07
5.7900627e-07
5.6660321e-07
5.5630347e-07
5.496542e-07
5.4413694e-07
5.3593913e-07
5.300266e-07
5.2822452e-07
5.2757778e-07
5.2566144e-07
5.2546648e-07
3.1528097e-06
2.488547e-06
1.9544666e-06
1.6436636e-06
1.4369774e-06
1.2849335e-06
1.1590183e-06
1.049506e-06
9.6493104e-07
8.9814525e-07
8.4779934e-07
8.0173309e-07
7.6407274e-07
7.2694093e-07
6.943986e-07
6.6467959e-07
6.4006268e-07
6.1846573e-07
6.0038356e-07
5.8379272e-07
5.6829085e-07
5.5626157e-07
5.4531182e-07
5.3930116e-07
5.3098547e-07
5.2217096e-07
5.1737318e-07
5.1638259e-07
5.1611228e-07
5.1407543e-07
5.1419678e-07
3.192803e-06
2.5958316e-06
2.0161395e-06
1.688497e-06
1.466205e-06
1.3221352e-06
1.1978328e-06
1.0826311e-06
9.9294339e-07
9.2533631e-07
8.7125185e-07
8.2650581e-07
7.9149051e-07
7.5793854e-07
7.2782609e-07
6.9840797e-07
6.7126552e-07
6.4694968e-07
6.280119e-07
6.0216117e-07
5.9178658e-07
5.7563895e-07
5.5714635e-07
5.5021666e-07
5.4611541e-07
5.3406665e-07
5.2412941e-07
5.2338485e-07
5.2486537e-07
5.2485164e-07
5.2130271e-07
3.4041775e-06
3.1433795e-06
2.5945162e-06
2.1679049e-06
1.8334011e-06
1.6873917e-06
1.5677626e-06
1.45496e-06
1.3615107e-06
1.28455e-06
1.2195038e-06
1.1956641e-06
1.169238e-06
1.1576976e-06
1.1290699e-06
1.0979532e-06
1.0653778e-06
1.0296315e-06
9.9164458e-07
9.31453e-07
9.0746207e-07
8.7521684e-07
8.1787519e-07
8.05965e-07
7.9977006e-07
7.7196578e-07
7.3984999e-07
7.3931797e-07
7.4113106e-07
7.3923364e-07
6.9652809e-07
4.5186129e-06
1.1696931e-05
8.5590935e-06
7.6947915e-06
6.4321856e-06
6.2775809e-06
5.6534251e-06
5.3233084e-06
4.9134877e-06
4.7787959e-06
4.3051788e-06
4.8485726e-06
4.5491104e-06
4.9349265e-06
4.6215641e-06
4.5776244e-06
4.2950778e-06
4.1974951e-06
3.9915747e-06
3.7795651e-06
4.0173542e-06
3.6798275e-06
3.4502581e-06
3.69476e-06
3.7373589e-06
3.3958644e-06
3.1821226e-06
3.2760319e-06
3.4026016e-06
3.3405419e-06
3.0709237e-06
2.0018398e-05
8.6389069e-05
5.2351884e-05
4.4655299e-05
4.1098057e-05
3.3824317e-05
3.4983442e-05
2.9338104e-05
3.1039725e-05
2.6326362e-05
2.7395415e-05
2.4086832e-05
2.6363522e-05
2.4745347e-05
2.8362345e-05
2.5969964e-05
2.9284127e-05
2.5390457e-05
2.7961533e-05
2.3439211e-05
2.3225735e-05
2.3847731e-05
1.9714015e-05
1.7802738e-05
1.8684579e-05
1.7292637e-05
1.457081e-05
1.3169269e-05
1.279614e-05
1.2451144e-05
1.1243383e-05
9.8133757e-06
3.1726802e-06
7.4409461e-07
5.2181283e-07
5.1533925e-07
5.2685428e-07
5.3223176e-07
5.2649016e-07
5.1532364e-07
5.1245364e-07
5.143385e-07
5.1658748e-07
5.1844954e-07
5.2307159e-07
5.2884498e-07
5.3538651e-07
5.4405012e-07
5.5394035e-07
5.617799e-07
5.751429e-07
5.9244859e-07
6.1369044e-07
6.3143082e-07
8.7931592e-06
3.7557989e-06
9.0913312e-07
5.4563495e-07
5.2008673e-07
5.3134889e-07
5.4161916e-07
5.3818186e-07
5.2506684e-07
5.2008919e-07
5.2120135e-07
5.2656144e-07
5.3242531e-07
5.366372e-07
5.3816799e-07
5.4414518e-07
5.5848227e-07
5.6846506e-07
5.7737915e-07
5.8895698e-07
6.0838046e-07
6.3652551e-07
6.474053e-07
8.2786053e-06
4.2455753e-06
1.0971472e-06
5.8530075e-07
5.3064274e-07
5.3616696e-07
5.4690814e-07
5.4613854e-07
5.3882536e-07
5.3315593e-07
5.3322418e-07
5.3718513e-07
5.4166293e-07
5.4443754e-07
5.4932914e-07
5.5740912e-07
5.7290887e-07
5.8643168e-07
5.9383899e-07
6.0826891e-07
6.230974e-07
6.5354087e-07
6.7116741e-07
8.340639e-06
4.4632874e-06
1.2264249e-06
6.1883885e-07
5.4226767e-07
5.4167082e-07
5.5063172e-07
5.5419585e-07
5.5072965e-07
5.4639838e-07
5.4682283e-07
5.5110935e-07
5.567918e-07
5.5935281e-07
5.6252498e-07
5.6999294e-07
5.835017e-07
6.0094369e-07
6.1683581e-07
6.327253e-07
6.4429474e-07
6.7191754e-07
7.0456819e-07
8.7019532e-06
4.5671425e-06
1.3123547e-06
6.4358766e-07
5.5348643e-07
5.5046885e-07
5.624668e-07
5.7280249e-07
5.7134254e-07
5.6362548e-07
5.6096566e-07
5.6474788e-07
5.7284796e-07
5.7727983e-07
5.8332549e-07
5.9169029e-07
6.0155083e-07
6.1620334e-07
6.3458791e-07
6.5101957e-07
6.6255557e-07
6.9018558e-07
7.1865757e-07
9.4238943e-06
4.7162547e-06
1.4419136e-06
6.77152e-07
5.6683191e-07
5.6646357e-07
5.7948425e-07
5.8753503e-07
5.8396531e-07
5.7418111e-07
5.7312584e-07
5.770227e-07
5.8860584e-07
5.9696509e-07
6.0376961e-07
6.0917689e-07
6.1719911e-07
6.3299212e-07
6.5378366e-07
6.7799156e-07
6.8875508e-07
7.0986094e-07
7.347443e-07
1.0672074e-05
4.918196e-06
1.6499925e-06
7.332781e-07
5.8446102e-07
5.8137062e-07
5.9321133e-07
6.0439243e-07
6.0273886e-07
5.9514634e-07
5.9116659e-07
5.9397693e-07
6.0431448e-07
6.1417162e-07
6.2087044e-07
6.2838106e-07
6.3711182e-07
6.5663204e-07
6.7348579e-07
6.9635199e-07
7.1500789e-07
7.4132552e-07
7.6176485e-07
1.2649495e-05
5.1095186e-06
1.8387429e-06
8.0285236e-07
6.0294693e-07
5.937154e-07
6.0316103e-07
6.1674073e-07
6.2336152e-07
6.2405166e-07
6.2283288e-07
6.2278589e-07
6.2830064e-07
6.3829314e-07
6.4454728e-07
6.4983187e-07
6.565975e-07
6.723243e-07
6.9121932e-07
7.1646717e-07
7.4103236e-07
7.717523e-07
7.9023176e-07
1.5420759e-05
5.293892e-06
1.9798832e-06
8.6693563e-07
6.2091983e-07
6.0443797e-07
6.1420651e-07
6.3382108e-07
6.452811e-07
6.4730885e-07
6.4206134e-07
6.4013275e-07
6.4583358e-07
6.6304747e-07
6.707527e-07
6.7264521e-07
6.7681997e-07
6.8654846e-07
7.0577422e-07
7.3804047e-07
7.6389738e-07
7.9165861e-07
8.073398e-07
1.9089971e-05
5.5604749e-06
2.1009846e-06
9.2692474e-07
6.4043065e-07
6.1770649e-07
6.3212088e-07
6.5123649e-07
6.584528e-07
6.5801522e-07
6.5430351e-07
6.5408764e-07
6.5935789e-07
6.748453e-07
6.8253548e-07
6.9141757e-07
7.0251415e-07
7.1431176e-07
7.2861393e-07
7.5626789e-07
7.7946657e-07
8.0658919e-07
8.1946893e-07
2.3835787e-05
6.0094957e-06
2.2135303e-06
9.8133625e-07
6.5951425e-07
6.3029279e-07
6.5186622e-07
6.7067111e-07
6.7481773e-07
6.7288567e-07
6.7014007e-07
6.7005853e-07
6.7322569e-07
6.825655e-07
6.9391769e-07
7.1176666e-07
7.2897865e-07
7.4035461e-07
7.5080511e-07
7.7062481e-07
7.9363423e-07
8.2835877e-07
8.4393697e-07
2.987848e-05
6.5904725e-06
2.3118148e-06
1.0225589e-06
6.7282545e-07
6.341355e-07
6.5733428e-07
6.9391041e-07
7.0206578e-07
6.9927036e-07
6.946243e-07
6.9025452e-07
6.9157983e-07
7.01798e-07
7.1796156e-07
7.3182875e-07
7.4286446e-07
7.5092266e-07
7.6143092e-07
7.8639872e-07
8.1372279e-07
8.5171318e-07
8.7234184e-07
3.7172266e-05
7.2852632e-06
2.3833988e-06
1.0439169e-06
6.7908423e-07
6.321923e-07
6.5509231e-07
7.0460226e-07
7.1726296e-07
7.1297853e-07
7.1090397e-07
7.1477222e-07
7.1832321e-07
7.2756773e-07
7.3670738e-07
7.4000058e-07
7.4562378e-07
7.5443961e-07
7.7022965e-07
8.0384959e-07
8.322322e-07
8.714191e-07
8.9233042e-07
4.5401519e-05
8.0040092e-06
2.433329e-06
1.0495062e-06
6.8027895e-07
6.2866017e-07
6.5158788e-07
7.0408525e-07
7.1911315e-07
7.1559998e-07
7.1779746e-07
7.2674676e-07
7.3468635e-07
7.4487176e-07
7.5082352e-07
7.4937562e-07
7.5345514e-07
7.6785807e-07
7.8369546e-07
8.1088943e-07
8.3486366e-07
8.7728887e-07
9.0355159e-07
5.4210955e-05
8.9065064e-06
2.4962867e-06
1.0553778e-06
6.8207057e-07
6.2598968e-07
6.4799424e-07
7.020778e-07
7.2088308e-07
7.2313578e-07
7.2764945e-07
7.3443593e-07
7.4097824e-07
7.5182966e-07
7.6020337e-07
7.6516837e-07
7.7387725e-07
7.8402767e-07
7.9130043e-07
8.1159537e-07
8.3342532e-07
8.7623008e-07
9.2367493e-07
6.3337267e-05
9.9628915e-06
2.588385e-06
1.06823e-06
6.8636846e-07
6.2595081e-07
6.4842304e-07
7.0722828e-07
7.3072368e-07
7.2984833e-07
7.3253986e-07
7.4140429e-07
7.4682033e-07
7.5820108e-07
7.7181142e-07
7.7743001e-07
7.860178e-07
7.9860466e-07
8.0695218e-07
8.2045691e-07
8.3960217e-07
8.9244062e-07
9.4349163e-07
7.2986043e-05
1.1304258e-05
2.7236548e-06
1.0907179e-06
6.9300545e-07
6.2825142e-07
6.5322823e-07
7.2033303e-07
7.408836e-07
7.3061532e-07
7.2951563e-07
7.4225901e-07
7.599591e-07
7.7635206e-07
7.8597894e-07
7.8344942e-07
7.876261e-07
8.0375187e-07
8.2421592e-07
8.4424357e-07
8.6319721e-07
9.0376563e-07
9.4521691e-07
7.8517901e-05
1.2332994e-05
2.7738027e-06
1.0884646e-06
6.9587604e-07
6.308329e-07
6.609812e-07
7.3005145e-07
7.4498195e-07
7.2883712e-07
7.2403913e-07
7.3907747e-07
7.6343458e-07
7.8645153e-07
7.9409684e-07
7.8615231e-07
7.8834771e-07
8.0847761e-07
8.3334442e-07
8.6270167e-07
8.8295181e-07
9.1959513e-07
9.5089325e-07
8.3449208e-05
1.2593616e-05
2.7259656e-06
1.0447827e-06
6.853244e-07
6.3139113e-07
6.6849185e-07
7.3328101e-07
7.4293188e-07
7.2130378e-07
7.1706122e-07
7.3805757e-07
7.6626685e-07
7.9007899e-07
7.9424287e-07
7.8532256e-07
7.8784586e-07
8.0939855e-07
8.3472608e-07
8.6641694e-07
8.8703987e-07
9.2682861e-07
9.6393484e-07
0.00010959091
1.3678928e-05
2.8287354e-06
1.0465724e-06
6.8297879e-07
6.3188167e-07
6.7348361e-07
7.3138564e-07
7.3227725e-07
7.0843053e-07
7.1041497e-07
7.4125193e-07
7.7054674e-07
7.8977225e-07
7.8933653e-07
7.807991e-07
7.876181e-07
8.1524822e-07
8.3987471e-07
8.7358142e-07
8.9959775e-07
9.438398e-07
9.8046273e-07
0.00012326509
1.8049529e-05
3.4813452e-06
1.1222417e-06
6.9114599e-07
6.3295484e-07
6.7461936e-07
7.2628415e-07
7.2006484e-07
7.0004573e-07
7.0634967e-07
7.4377199e-07
7.7844496e-07
7.9035464e-07
7.8234583e-07
7.7400452e-07
7.8844825e-07
8.218518e-07
8.5618921e-07
8.849285e-07
9.0894009e-07
9.4872491e-07
9.8667899e-07
0.0001215441
2.8141963e-05
6.361064e-06
1.5003006e-06
7.2803554e-07
6.3581157e-07
6.7417301e-07
7.2341032e-07
7.1526977e-07
6.9551562e-07
7.0580471e-07
7.5149415e-07
7.8695576e-07
7.9295802e-07
7.8003473e-07
7.7327045e-07
7.9190692e-07
8.4405423e-07
8.7729516e-07
8.9287714e-07
9.1432195e-07
9.6085064e-07
1.0050319e-06
0.00011053642
3.3245691e-05
9.9345984e-06
2.5844549e-06
8.5919521e-07
6.476064e-07
6.7764112e-07
7.2454958e-07
7.1221002e-07
6.9381705e-07
7.1045876e-07
7.6475821e-07
7.9660772e-07
7.9771776e-07
7.8135173e-07
7.7742939e-07
8.065822e-07
8.5409201e-07
8.931862e-07
9.1638756e-07
9.385597e-07
9.8434703e-07
1.0198309e-06
9.3988559e-05
3.4110791e-05
1.108774e-05
3.3000131e-06
1.0123528e-06
6.7191599e-07
6.8643388e-07
7.289791e-07
7.1111288e-07
6.9501648e-07
7.2033313e-07
7.820701e-07
8.0513077e-07
7.9967706e-07
7.8440382e-07
7.8461813e-07
8.1998437e-07
8.837297e-07
9.2609971e-07
9.458086e-07
9.6455286e-07
1.0099184e-06
1.0654101e-06
7.7002711e-05
3.3169739e-05
1.1035914e-05
3.4415437e-06
1.083114e-06
6.9340381e-07
6.9590448e-07
7.3230046e-07
7.118052e-07
6.9863275e-07
7.317191e-07
7.9568197e-07
8.1204954e-07
8.0268539e-07
7.9027214e-07
8.0146868e-07
8.5079004e-07
9.0464358e-07
9.3722414e-07
9.5944359e-07
9.9566797e-07
1.0514483e-06
1.0967058e-06
6.2734332e-05
2.8267657e-05
9.4943404e-06
3.2595128e-06
1.125441e-06
7.1890912e-07
7.0843695e-07
7.34214e-07
7.1365474e-07
7.0717506e-07
7.5696573e-07
8.0978655e-07
8.1685977e-07
8.0334047e-07
7.9495331e-07
8.1330458e-07
8.691859e-07
9.2957754e-07
9.5817527e-07
9.879161e-07
1.0238151e-06
1.0751787e-06
1.1437733e-06
5.1797901e-05
2.3074574e-05
7.5454058e-06
3.0270947e-06
1.1771852e-06
7.6664193e-07
7.4143622e-07
7.4189967e-07
7.2115851e-07
7.30576e-07
7.962108e-07
8.2863612e-07
8.2706463e-07
8.0790513e-07
8.0695393e-07
8.4472245e-07
9.1622187e-07
9.5945199e-07
9.761435e-07
1.0051827e-06
1.0534693e-06
1.14216e-06
1.2568032e-06
4.3305045e-05
1.9971108e-05
6.5901418e-06
3.015062e-06
1.3323674e-06
8.9887822e-07
8.0478835e-07
7.6218266e-07
7.419013e-07
7.5686108e-07
8.2775326e-07
8.4557326e-07
8.3514182e-07
8.1902356e-07
8.2099964e-07
8.6531633e-07
9.387347e-07
9.7410442e-07
9.9794414e-07
1.0529218e-06
1.1354988e-06
1.2287281e-06
1.3427546e-06
3.6452604e-05
1.8332612e-05
6.3007863e-06
3.1092307e-06
1.6871173e-06
1.0498755e-06
8.4839625e-07
7.8345105e-07
7.7236228e-07
8.1202172e-07
8.5844701e-07
8.6377966e-07
8.5401258e-07
8.4744814e-07
8.6621442e-07
9.2439039e-07
9.8093891e-07
1.0118487e-06
1.0544245e-06
1.1141654e-06
1.1845249e-06
1.3040645e-06
1.4905622e-06
3.0952164e-05
1.7563786e-05
6.3327608e-06
3.294888e-06
1.9301051e-06
1.1444389e-06
8.8299097e-07
8.1259829e-07
8.0393189e-07
8.3833055e-07
8.6934479e-07
8.7445857e-07
8.7166963e-07
8.7427548e-07
9.0334658e-07
9.5795937e-07
9.970551e-07
1.0343994e-06
1.0900007e-06
1.162009e-06
1.2740443e-06
1.4455379e-06
1.6107895e-06
2.7251821e-05
1.6917795e-05
6.4460705e-06
3.4531194e-06
2.0271318e-06
1.1907068e-06
9.0507157e-07
8.2875815e-07
8.2281341e-07
8.6842999e-07
8.8952837e-07
8.9416858e-07
8.9380573e-07
9.1686087e-07
9.7369564e-07
1.022203e-06
1.0458364e-06
1.092802e-06
1.1737473e-06
1.2818987e-06
1.4203353e-06
1.5569515e-06
1.6947465e-06
2.566477e-05
1.5319243e-05
6.4810915e-06
3.4781657e-06
2.0272196e-06
1.1967275e-06
9.2024824e-07
8.5828527e-07
8.5969938e-07
8.9707307e-07
9.0431191e-07
9.0545561e-07
9.1128179e-07
9.4256873e-07
1.0034155e-06
1.0517163e-06
1.0780995e-06
1.1285726e-06
1.2150318e-06
1.3332142e-06
1.4856447e-06
1.6517758e-06
1.8848898e-06
2.6436945e-05
1.2899486e-05
6.404626e-06
3.3399179e-06
1.8625602e-06
1.1537446e-06
9.4185282e-07
9.0778554e-07
9.0771018e-07
9.2601381e-07
9.3339176e-07
9.3914012e-07
9.5143062e-07
9.90698e-07
1.0587349e-06
1.1148151e-06
1.1495529e-06
1.2208173e-06
1.335086e-06
1.4833231e-06
1.6736543e-06
1.9043864e-06
2.2011474e-06
2.8879764e-05
1.1101404e-05
6.0340115e-06
2.8667535e-06
1.5667105e-06
1.0822978e-06
9.5484385e-07
9.4354906e-07
9.5270709e-07
9.5637414e-07
9.5723974e-07
9.5844538e-07
9.6986533e-07
1.0126669e-06
1.080833e-06
1.1368105e-06
1.1823934e-06
1.2707767e-06
1.3991283e-06
1.562355e-06
1.7833598e-06
2.0798669e-06
2.5513571e-06
2.9625306e-05
9.430333e-06
4.732562e-06
2.2629837e-06
1.3392711e-06
1.036363e-06
9.6000325e-07
9.5892339e-07
9.8810568e-07
1.0025371e-06
1.0000132e-06
1.0024898e-06
1.0255508e-06
1.0820304e-06
1.1397268e-06
1.202302e-06
1.3005934e-06
1.4476517e-06
1.6270647e-06
1.8696885e-06
2.2483628e-06
2.838922e-06
3.8252875e-06
3.1688053e-05
9.2015349e-06
4.4184002e-06
2.1856692e-06
1.337995e-06
1.0457529e-06
9.7155116e-07
9.6624486e-07
9.8416058e-07
1.0122147e-06
1.0258868e-06
1.0308294e-06
1.0436176e-06
1.0864723e-06
1.147169e-06
1.1985098e-06
1.2762184e-06
1.4221294e-06
1.6066097e-06
1.8232306e-06
2.1494856e-06
2.6289679e-06
3.5694429e-06
3.2501e-05
9.6799073e-06
4.5133421e-06
2.2593463e-06
1.3916533e-06
1.085344e-06
9.9618133e-07
9.8131158e-07
9.8752723e-07
1.0117285e-06
1.0318469e-06
1.0464151e-06
1.0601297e-06
1.0930226e-06
1.1554583e-06
1.2025288e-06
1.2554676e-06
1.3528752e-06
1.5334642e-06
1.7400905e-06
2.0048707e-06
2.4155126e-06
2.8638238e-06
3.2403812e-05
1.135133e-05
5.5004985e-06
2.6613513e-06
1.5521143e-06
1.1790589e-06
1.0530463e-06
1.0179962e-06
1.0116659e-06
1.0272033e-06
1.0453061e-06
1.0587336e-06
1.072832e-06
1.1027313e-06
1.1662033e-06
1.2297056e-06
1.2656335e-06
1.3345206e-06
1.4736802e-06
1.6618883e-06
1.8596787e-06
2.248566e-06
2.5830191e-06
3.1230532e-05
1.6587972e-05
1.038487e-05
4.8165115e-06
2.3503261e-06
1.5450544e-06
1.2397844e-06
1.1270512e-06
1.0805229e-06
1.0757121e-06
1.0892086e-06
1.1013825e-06
1.1053655e-06
1.12051e-06
1.1715659e-06
1.2549299e-06
1.2942861e-06
1.3477995e-06
1.4600628e-06
1.6390421e-06
1.7906434e-06
2.1206728e-06
2.3806365e-06
2.9090085e-05
2.1221988e-05
2.0053203e-05
1.3834327e-05
6.3048537e-06
3.2095356e-06
1.9959573e-06
1.4963293e-06
1.2771029e-06
1.2066331e-06
1.2183524e-06
1.2401712e-06
1.2270587e-06
1.1942329e-06
1.2101014e-06
1.2767836e-06
1.3312825e-06
1.3765772e-06
1.4685473e-06
1.6449667e-06
1.7830376e-06
2.0962924e-06
2.2835982e-06
2.6566052e-05
2.3492767e-05
2.576636e-05
2.518215e-05
1.8892879e-05
9.9912719e-06
5.2814854e-06
3.053777e-06
2.0410902e-06
1.6505912e-06
1.5134661e-06
1.4733409e-06
1.4501284e-06
1.3947792e-06
1.362851e-06
1.3768386e-06
1.4310505e-06
1.459209e-06
1.5062062e-06
1.6486263e-06
1.7826476e-06
2.1017476e-06
2.2461981e-06
2.4767636e-05
2.4004827e-05
2.782234e-05
3.0977562e-05
2.7888894e-05
1.8062946e-05
1.0005749e-05
5.6420061e-06
3.2929693e-06
2.1529307e-06
1.6988222e-06
1.5736717e-06
1.5497185e-06
1.5233158e-06
1.5095671e-06
1.5135878e-06
1.5386986e-06
1.5944453e-06
1.6245011e-06
1.6959997e-06
1.8016003e-06
2.0913809e-06
2.2536008e-06
2.2943922e-05
2.3869201e-05
2.8209678e-05
3.2517875e-05
3.0804249e-05
2.1353252e-05
1.2072126e-05
6.8983827e-06
3.985716e-06
2.4868646e-06
1.8440931e-06
1.6321849e-06
1.579941e-06
1.5618006e-06
1.5617243e-06
1.5692e-06
1.5896926e-06
1.6473261e-06
1.7104999e-06
1.8013185e-06
1.8760153e-06
2.0618597e-06
2.359635e-06
1.6866229e-05
2.1581289e-05
2.7594302e-05
3.2228417e-05
3.1135806e-05
2.272518e-05
1.3465121e-05
8.1147076e-06
4.9378375e-06
3.103178e-06
2.1650417e-06
1.778982e-06
1.6523696e-06
1.6164443e-06
1.613663e-06
1.6165939e-06
1.6282987e-06
1.6693424e-06
1.7477973e-06
1.8469513e-06
1.9174949e-06
2.0407538e-06
2.3631658e-06
1.4395716e-05
1.8966947e-05
2.5363264e-05
3.1017929e-05
3.1258264e-05
2.5500965e-05
1.6992955e-05
1.139027e-05
7.7633172e-06
5.1833724e-06
3.4431486e-06
2.4644647e-06
1.9979276e-06
1.8151836e-06
1.7657325e-06
1.745438e-06
1.7280304e-06
1.7360565e-06
1.7784747e-06
1.8578032e-06
1.9291572e-06
2.0220394e-06
2.3050577e-06
1.301027e-05
1.6448484e-05
2.3440565e-05
3.0223481e-05
3.2531512e-05
3.1671256e-05
2.6948066e-05
1.957695e-05
1.3885309e-05
9.572243e-06
6.3941434e-06
4.2243555e-06
2.957397e-06
2.3249997e-06
2.0527111e-06
1.9246416e-06
1.8601723e-06
1.8414445e-06
1.8493627e-06
1.8786062e-06
1.9344082e-06
2.0032366e-06
2.226994e-06
1.4369865e-05
1.5867812e-05
2.2567887e-05
2.9789601e-05
3.4492893e-05
3.5482665e-05
3.3325067e-05
2.548483e-05
1.7091958e-05
1.1646985e-05
7.9643412e-06
5.3869225e-06
3.7611666e-06
2.8127234e-06
2.3228856e-06
2.0747014e-06
1.9534795e-06
1.9051576e-06
1.9026846e-06
1.9146513e-06
1.946817e-06
1.9924971e-06
2.1534622e-06
1.5154717e-05
1.5466617e-05
2.1058896e-05
2.9258054e-05
3.4576906e-05
3.6015156e-05
3.4724675e-05
2.8469282e-05
1.9408057e-05
1.378715e-05
1.0241571e-05
7.6699967e-06
5.5887025e-06
4.0360343e-06
3.0117909e-06
2.4503973e-06
2.172887e-06
2.0432821e-06
2.004363e-06
1.9968184e-06
1.9888731e-06
2.0050767e-06
2.0935607e-06
1.957483e-05
1.5163322e-05
1.9411264e-05
2.7885972e-05
3.3610646e-05
3.5236486e-05
3.4201199e-05
2.9004587e-05
2.1855816e-05
1.6432121e-05
1.2702201e-05
9.9088672e-06
7.6866391e-06
5.9042649e-06
4.5240183e-06
3.4948636e-06
2.8373166e-06
2.4514284e-06
2.2512621e-06
2.1358779e-06
2.0591015e-06
2.0359026e-06
2.071924e-06
1.8861839e-05
1.4960816e-05
1.6969285e-05
2.2994722e-05
2.9103484e-05
3.1619313e-05
3.1420243e-05
2.8322761e-05
2.2923611e-05
1.8195795e-05
1.4052323e-05
1.0769995e-05
8.3117081e-06
6.4466425e-06
5.0515122e-06
3.9865932e-06
3.2310652e-06
2.7032894e-06
2.3680023e-06
2.1772775e-06
2.0719085e-06
2.0404656e-06
2.0679557e-06
3.2883607e-05
1.5383376e-05
1.3776519e-05
1.6303672e-05
1.9935907e-05
2.2740753e-05
2.3599013e-05
2.4187106e-05
2.1959186e-05
1.8246065e-05
1.4136406e-05
1.0619342e-05
8.0243323e-06
6.1601669e-06
4.8547466e-06
3.8805216e-06
3.1877661e-06
2.683983e-06
2.3516502e-06
2.1564152e-06
2.0470663e-06
2.0135807e-06
2.0400523e-06
2.8727623e-05
1.7402837e-05
1.2605704e-05
1.1348282e-05
1.242178e-05
1.3892658e-05
1.4553215e-05
1.4995421e-05
1.5535852e-05
1.4789267e-05
1.2228138e-05
8.5454796e-06
5.985969e-06
4.4129411e-06
3.519481e-06
2.9509017e-06
2.5966348e-06
2.3241465e-06
2.1296876e-06
1.9898925e-06
1.9101459e-06
1.8951694e-06
1.9218416e-06
5.5094575e-05
2.6740551e-05
1.432161e-05
9.937244e-06
8.0948756e-06
7.7641367e-06
7.7502702e-06
7.7668017e-06
7.7124143e-06
7.3582551e-06
6.300282e-06
4.4949318e-06
3.2879426e-06
2.5416297e-06
2.1234444e-06
1.8800514e-06
1.7630082e-06
1.6987236e-06
1.6699524e-06
1.6588524e-06
1.6737624e-06
1.6994774e-06
1.7738382e-06
7.5793841e-05
4.0514186e-05
1.8509284e-05
9.7843264e-06
6.2268963e-06
4.7351804e-06
4.1272114e-06
3.8466947e-06
3.6875133e-06
3.45944e-06
2.9901448e-06
2.4147348e-06
1.9839888e-06
1.6976528e-06
1.5376816e-06
1.459799e-06
1.4341935e-06
1.4316391e-06
1.4584675e-06
1.5067114e-06
1.5821307e-06
1.6201926e-06
1.7116433e-06
0.00012295062
4.5911107e-05
1.9113472e-05
9.3845146e-06
5.2074605e-06
3.2435079e-06
2.3982011e-06
2.0213011e-06
1.886575e-06
1.7791553e-06
1.6412785e-06
1.4834869e-06
1.3598109e-06
1.2831077e-06
1.2607359e-06
1.255932e-06
1.2757443e-06
1.2947475e-06
1.3421876e-06
1.3811376e-06
1.471744e-06
1.512386e-06
1.6239271e-06
0.00013737399
3.8613379e-05
1.6309141e-05
7.5005785e-06
3.5943993e-06
2.0538054e-06
1.4343012e-06
1.1762452e-06
1.1038776e-06
1.0618008e-06
1.0312429e-06
1.0022886e-06
9.8919484e-07
9.9042799e-07
1.0023701e-06
1.0338994e-06
1.0660722e-06
1.1376392e-06
1.190758e-06
1.301717e-06
1.3783175e-06
1.5109637e-06
1.708404e-06
0.00014279865
2.771872e-05
9.6563517e-06
3.9690266e-06
1.9181905e-06
1.1536862e-06
8.6885799e-07
7.5864637e-07
7.3361382e-07
7.2628519e-07
7.4109933e-07
7.6386799e-07
8.003348e-07
8.5596351e-07
9.0121426e-07
1.0021715e-06
1.0713055e-06
1.2190755e-06
1.3402342e-06
1.6278261e-06
1.8397334e-06
2.3890182e-06
7.1461041e-07
0.00014644399
2.5610403e-05
6.0967754e-06
1.9588721e-06
9.618898e-07
6.7522424e-07
5.9098145e-07
5.7436712e-07
5.9512921e-07
6.3257779e-07
6.9958096e-07
7.6969573e-07
8.7531486e-07
1.0916705e-06
1.3757426e-06
1.9936289e-06
2.6645864e-06
4.1088594e-06
5.4003025e-06
8.1621508e-06
1.0149844e-05
1.5489463e-05
5.4587458e-06
0.00015096383
2.4600758e-05
4.2355191e-06
1.0745621e-06
5.8547293e-07
5.1498751e-07
5.2221354e-07
5.6287094e-07
6.513026e-07
8.3509664e-07
1.2184291e-06
2.0076597e-06
3.3756987e-06
5.7231769e-06
9.0729793e-06
1.4203731e-05
2.078945e-05
3.0588481e-05
4.2048522e-05
5.5618165e-05
6.7416453e-05
8.1199386e-05
8.9575657e-05
0.00015490297
2.3519476e-05
3.2835916e-06
7.3702227e-07
5.1185189e-07
5.3146585e-07
6.6234762e-07
1.0439281e-06
1.9748401e-06
4.0086149e-06
7.7887376e-06
1.4124289e-05
2.3763487e-05
3.7711171e-05
5.3520659e-05
6.9620192e-05
8.4379758e-05
9.6686629e-05
0.00010485782
0.00011040694
0.0001146791
0.00011698243
0.00012331018
0.00015859895
2.1685379e-05
2.5428018e-06