/*--------------------------------*- C++ -*----------------------------------*\
| =========                 |                                                 |
| \\      /  F ield         | OpenFOAM: The Open Source CFD Toolbox           |
|  \\    /   O peration     | Version:  2406                                  |
|   \\  /    A nd           | Website:  www.openfoam.com                      |
|    \\/     M anipulation  |                                                 |
\*---------------------------------------------------------------------------*/
FoamFile
{
    version     2.0;
    format      ascii;
    arch        "LSB;label=32;scalar=64";
    class       volScalarField;
    location    "800";
    object      p;
}
// * * * * * * * * * * * * * * * * * * * * * * * * * * * * * * * * * * * * * //

dimensions      [1 -1 -2 0 0 0 0];

internalField   nonuniform List<scalar> 
132739
(
1.0033
1.003307
1.0033228
1.0033408
1.0033633
1.0033911
1.0034234
1.00346
1.0035009
1.003546
1.0035953
1.0036487
1.003706
1.0037672
1.0038324
1.0039014
1.0039741
1.0040507
1.004131
1.0042149
1.0043026
1.0043938
1.0044887
1.0045872
1.0046892
1.0047946
1.0049036
1.0050159
1.0051316
1.0052505
1.0053727
1.005498
1.0056264
1.0057578
1.0058921
1.0060292
1.0061689
1.0063113
1.006456
1.0066031
1.0067523
1.0069035
1.0070567
1.0072115
1.0073678
1.0075255
1.0076843
1.0078441
1.0080047
1.0081659
1.0083275
1.0084894
1.0086512
1.0088128
1.0089743
1.0091351
1.0092951
1.0094539
1.0096117
1.0097683
1.0099234
1.0100768
1.010229
1.0103775
1.010524
1.0106684
1.0108106
1.010949
1.0110836
1.011215
1.0113457
1.0114717
1.011594
1.0117128
1.0118274
1.0119377
1.0120436
1.0121446
1.0122407
1.0123313
1.0124164
1.0124954
1.012568
1.012634
1.0126927
1.0127438
1.0127866
1.0128204
1.0128447
1.0128591
1.0128632
1.0128563
1.012838
1.0128078
1.0127651
1.0127096
1.0126408
1.0125583
1.0124621
1.0123517
1.0122278
1.0120894
1.0119414
1.0117791
1.0033008
1.0033082
1.0033242
1.0033421
1.0033646
1.0033924
1.0034246
1.0034612
1.0035021
1.0035472
1.0035964
1.0036497
1.0037069
1.0037681
1.0038332
1.0039021
1.0039748
1.0040513
1.0041314
1.0042153
1.0043029
1.0043941
1.0044888
1.0045872
1.0046891
1.0047944
1.0049032
1.0050154
1.005131
1.0052498
1.0053719
1.0054971
1.0056253
1.0057566
1.0058907
1.0060277
1.0061673
1.0063094
1.006454
1.0066009
1.00675
1.006901
1.0070539
1.0072085
1.0073646
1.007522
1.0076805
1.00784
1.0080003
1.0081611
1.0083223
1.0084836
1.0086449
1.0088059
1.0089665
1.0091265
1.0092856
1.0094436
1.0095999
1.0097548
1.0099083
1.0100597
1.0102095
1.0103562
1.0105012
1.0106435
1.0107842
1.0109213
1.0110548
1.0111849
1.0113127
1.0114363
1.0115552
1.0116704
1.0117817
1.0118885
1.0119907
1.0120881
1.0121802
1.012267
1.0123481
1.0124231
1.0124918
1.0125538
1.0126087
1.0126563
1.0126961
1.012728
1.0127513
1.0127658
1.0127709
1.0127661
1.012751
1.012725
1.0126879
1.0126392
1.0125787
1.0125059
1.0124206
1.0123224
1.0122113
1.0120858
1.0119469
1.0117894
1.0033013
1.0033094
1.0033255
1.0033433
1.0033659
1.0033937
1.003426
1.0034626
1.0035035
1.0035486
1.0035979
1.0036512
1.0037086
1.0037698
1.003835
1.003904
1.0039768
1.0040533
1.0041336
1.0042176
1.0043053
1.0043966
1.0044915
1.00459
1.0046921
1.0047976
1.0049066
1.005019
1.0051347
1.0052538
1.005376
1.0055014
1.0056299
1.0057614
1.0058958
1.006033
1.0061728
1.0063152
1.0064601
1.0066072
1.0067565
1.0069078
1.007061
1.0072158
1.007372
1.0075297
1.0076884
1.007848
1.0080084
1.0081693
1.0083305
1.0084918
1.008653
1.0088138
1.008974
1.0091334
1.0092919
1.0094496
1.0096056
1.00976
1.0099127
1.0100634
1.0102121
1.010358
1.0105016
1.0106424
1.0107808
1.0109158
1.011047
1.0111746
1.0112992
1.0114201
1.0115365
1.0116486
1.0117565
1.0118598
1.0119582
1.0120517
1.0121398
1.0122224
1.0122991
1.0123698
1.012434
1.0124915
1.0125419
1.0125849
1.0126201
1.0126469
1.012665
1.012674
1.0126738
1.012664
1.0126441
1.0126139
1.012573
1.012521
1.0124577
1.0123829
1.0122962
1.0121974
1.0120865
1.0119631
1.0118271
1.0116798
1.0033018
1.0033104
1.0033267
1.0033444
1.003367
1.0033949
1.0034271
1.0034637
1.0035046
1.0035498
1.003599
1.0036523
1.0037097
1.0037709
1.003836
1.003905
1.0039778
1.0040543
1.0041346
1.0042186
1.0043062
1.0043975
1.0044924
1.0045909
1.0046929
1.0047985
1.0049074
1.0050198
1.0051355
1.0052546
1.0053768
1.0055022
1.0056307
1.0057622
1.0058966
1.0060337
1.0061736
1.006316
1.0064608
1.006608
1.0067573
1.0069085
1.0070616
1.0072164
1.0073726
1.0075301
1.0076888
1.0078483
1.0080085
1.0081692
1.0083302
1.0084912
1.0086521
1.0088126
1.0089724
1.0091315
1.0092895
1.0094464
1.0096016
1.0097551
1.0099068
1.0100563
1.0102037
1.0103483
1.0104903
1.0106295
1.0107661
1.0108992
1.0110286
1.0111542
1.0112765
1.0113948
1.0115085
1.0116178
1.0117226
1.0118227
1.0119179
1.0120079
1.0120925
1.0121715
1.0122445
1.0123114
1.0123719
1.0124256
1.0124723
1.0125117
1.0125435
1.0125674
1.0125829
1.0125897
1.0125875
1.0125759
1.0125544
1.0125228
1.0124807
1.0124279
1.0123642
1.0122892
1.0122028
1.0121049
1.0119954
1.011874
1.011741
1.0115953
1.0033022
1.0033115
1.0033278
1.0033454
1.003368
1.0033959
1.0034282
1.0034648
1.0035057
1.0035509
1.0036002
1.0036535
1.0037108
1.0037721
1.0038373
1.0039063
1.0039791
1.0040557
1.004136
1.00422
1.0043077
1.0043991
1.004494
1.0045926
1.0046946
1.0048002
1.0049093
1.0050217
1.0051375
1.0052566
1.005379
1.0055045
1.0056331
1.0057646
1.0058991
1.0060364
1.0061763
1.0063188
1.0064638
1.006611
1.0067604
1.0069117
1.0070649
1.0072197
1.007376
1.0075335
1.0076922
1.0078517
1.0080118
1.0081725
1.0083333
1.0084942
1.0086549
1.0088151
1.0089746
1.0091333
1.0092908
1.0094471
1.0096018
1.0097546
1.0099055
1.0100542
1.0102006
1.0103441
1.0104849
1.0106228
1.0107576
1.010889
1.0110166
1.0111403
1.0112602
1.0113761
1.0114874
1.0115942
1.0116963
1.0117936
1.0118858
1.0119727
1.0120541
1.0121297
1.0121995
1.0122629
1.01232
1.0123703
1.0124136
1.0124497
1.0124782
1.0124986
1.0125107
1.0125142
1.0125089
1.0124946
1.0124708
1.0124374
1.0123941
1.0123407
1.0122768
1.0122023
1.012117
1.0120208
1.0119135
1.0117949
1.0116654
1.0115231
1.0033025
1.0033124
1.0033289
1.0033464
1.003369
1.0033969
1.0034292
1.0034658
1.0035067
1.0035519
1.0036011
1.0036545
1.0037118
1.0037731
1.0038382
1.0039072
1.00398
1.0040566
1.0041369
1.0042209
1.0043086
1.0044
1.0044949
1.0045935
1.0046956
1.0048011
1.0049102
1.0050226
1.0051385
1.0052576
1.0053799
1.0055054
1.005634
1.0057656
1.0059001
1.0060374
1.0061773
1.0063199
1.0064648
1.006612
1.0067614
1.0069127
1.0070659
1.0072207
1.0073769
1.0075344
1.007693
1.0078524
1.0080125
1.008173
1.0083336
1.0084943
1.0086547
1.0088146
1.0089738
1.0091321
1.0092892
1.0094449
1.009599
1.0097511
1.0099012
1.0100489
1.0101943
1.0103367
1.0104763
1.0106128
1.0107461
1.0108759
1.0110018
1.0111237
1.0112416
1.0113553
1.0114645
1.0115689
1.0116685
1.0117631
1.0118525
1.0119366
1.012015
1.0120877
1.0121543
1.0122147
1.0122685
1.0123157
1.0123559
1.0123889
1.0124144
1.0124321
1.0124418
1.0124431
1.0124359
1.0124197
1.0123943
1.0123596
1.0123152
1.012261
1.0121968
1.0121224
1.0120376
1.0119425
1.0118369
1.0117205
1.011594
1.0114557
1.0033027
1.0033133
1.0033298
1.0033472
1.0033699
1.0033979
1.0034301
1.0034667
1.0035076
1.0035528
1.0036021
1.0036554
1.0037127
1.003774
1.0038392
1.0039082
1.003981
1.0040576
1.0041379
1.0042219
1.0043096
1.004401
1.004496
1.0045945
1.0046966
1.0048022
1.0049113
1.0050238
1.0051396
1.0052587
1.0053811
1.0055067
1.0056353
1.0057669
1.0059014
1.0060387
1.0061787
1.0063213
1.0064662
1.0066135
1.0067629
1.0069142
1.0070674
1.0072222
1.0073784
1.0075359
1.0076944
1.0078537
1.0080137
1.0081741
1.0083346
1.0084951
1.0086552
1.0088149
1.0089738
1.0091316
1.0092883
1.0094435
1.009597
1.0097485
1.0098979
1.0100449
1.0101893
1.0103308
1.0104693
1.0106046
1.0107365
1.0108648
1.0109892
1.0111094
1.0112255
1.0113373
1.0114444
1.0115467
1.0116441
1.0117363
1.0118233
1.0119048
1.0119806
1.0120506
1.0121145
1.0121721
1.0122232
1.0122676
1.0123051
1.0123355
1.0123584
1.0123736
1.0123807
1.0123797
1.0123702
1.012352
1.012325
1.012289
1.0122437
1.0121889
1.0121245
1.0120503
1.0119663
1.0118724
1.0117684
1.0116543
1.0115305
1.0113956
1.0033028
1.0033142
1.0033307
1.003348
1.0033707
1.0033987
1.0034309
1.0034675
1.0035084
1.0035536
1.0036029
1.0036562
1.0037135
1.0037748
1.0038399
1.0039089
1.0039817
1.0040583
1.0041386
1.0042227
1.0043104
1.0044017
1.0044967
1.0045952
1.0046973
1.0048029
1.004912
1.0050245
1.0051403
1.0052594
1.0053818
1.0055074
1.005636
1.0057676
1.0059021
1.0060394
1.0061794
1.0063219
1.0064669
1.0066141
1.0067635
1.0069149
1.007068
1.0072227
1.0073789
1.0075363
1.0076947
1.007854
1.0080138
1.008174
1.0083344
1.0084947
1.0086546
1.008814
1.0089725
1.0091301
1.0092863
1.009441
1.009594
1.0097449
1.0098936
1.0100398
1.0101833
1.0103239
1.0104614
1.0105956
1.0107262
1.0108532
1.0109761
1.0110948
1.0112093
1.0113193
1.0114245
1.0115249
1.0116202
1.0117103
1.011795
1.0118742
1.0119476
1.0120151
1.0120765
1.0121315
1.0121801
1.012222
1.0122569
1.0122848
1.0123054
1.0123183
1.0123234
1.0123205
1.0123093
1.0122897
1.0122615
1.0122244
1.0121783
1.0121231
1.0120587
1.0119848
1.0119015
1.0118087
1.0117063
1.0115943
1.0114729
1.0113414
1.0033029
1.003315
1.0033316
1.0033488
1.0033715
1.0033995
1.0034317
1.0034683
1.0035092
1.0035543
1.0036036
1.0036569
1.0037143
1.0037755
1.0038407
1.0039097
1.0039824
1.004059
1.0041393
1.0042233
1.004311
1.0044024
1.0044973
1.0045959
1.004698
1.0048036
1.0049126
1.0050251
1.0051409
1.0052601
1.0053825
1.005508
1.0056366
1.0057682
1.0059027
1.00604
1.00618
1.0063225
1.0064675
1.0066147
1.0067641
1.0069154
1.0070685
1.0072232
1.0073793
1.0075366
1.007695
1.0078541
1.0080138
1.0081739
1.0083341
1.0084942
1.0086539
1.008813
1.0089713
1.0091284
1.0092843
1.0094386
1.009591
1.0097414
1.0098894
1.0100349
1.0101777
1.0103175
1.010454
1.0105871
1.0107167
1.0108424
1.010964
1.0110814
1.0111943
1.0113027
1.0114063
1.0115049
1.0115983
1.0116865
1.0117692
1.0118463
1.0119175
1.0119828
1.012042
1.0120948
1.0121412
1.0121808
1.0122136
1.0122393
1.0122578
1.0122688
1.012272
1.0122672
1.0122544
1.0122334
1.0122039
1.0121659
1.0121191
1.0120636
1.0119991
1.0119255
1.0118429
1.0117511
1.0116502
1.0115401
1.011421
1.0112927
1.0033029
1.0033157
1.0033323
1.0033495
1.0033722
1.0034002
1.0034324
1.003469
1.0035099
1.003555
1.0036043
1.0036576
1.0037149
1.0037761
1.0038413
1.0039103
1.003983
1.0040596
1.0041399
1.0042239
1.0043116
1.0044029
1.0044978
1.0045964
1.0046984
1.004804
1.0049131
1.0050255
1.0051413
1.0052605
1.0053828
1.0055083
1.0056369
1.0057685
1.005903
1.0060403
1.0061803
1.0063228
1.0064677
1.0066149
1.0067642
1.0069154
1.0070685
1.0072231
1.0073792
1.0075364
1.0076947
1.0078537
1.0080133
1.0081732
1.0083333
1.0084931
1.0086526
1.0088115
1.0089695
1.0091263
1.0092818
1.0094356
1.0095876
1.0097374
1.0098849
1.0100297
1.0101718
1.0103108
1.0104464
1.0105786
1.0107071
1.0108317
1.0109522
1.0110682
1.0111798
1.0112868
1.0113888
1.0114858
1.0115775
1.0116639
1.0117448
1.01182
1.0118893
1.0119526
1.0120098
1.0120606
1.0121049
1.0121425
1.0121732
1.012197
1.0122136
1.0122228
1.0122243
1.0122181
1.012204
1.0121818
1.0121513
1.0121126
1.0120653
1.0120095
1.011945
1.0118718
1.0117899
1.0116992
1.0115996
1.0114914
1.0113744
1.011249
1.0033029
1.0033164
1.003333
1.0033501
1.0033729
1.0034008
1.003433
1.0034696
1.0035105
1.0035556
1.0036049
1.0036582
1.0037155
1.0037767
1.0038418
1.0039108
1.0039836
1.0040601
1.0041404
1.0042244
1.004312
1.0044033
1.0044983
1.0045968
1.0046988
1.0048044
1.0049134
1.0050258
1.0051416
1.0052607
1.0053831
1.0055085
1.0056371
1.0057687
1.0059032
1.0060404
1.0061803
1.0063228
1.0064677
1.0066148
1.0067641
1.0069153
1.0070683
1.0072229
1.0073788
1.007536
1.0076942
1.0078531
1.0080125
1.0081723
1.0083322
1.0084919
1.0086511
1.0088097
1.0089674
1.0091239
1.0092791
1.0094325
1.009584
1.0097334
1.0098803
1.0100246
1.0101659
1.0103042
1.0104391
1.0105704
1.010698
1.0108215
1.0109409
1.0110558
1.0111662
1.0112718
1.0113724
1.011468
1.0115582
1.011643
1.0117222
1.0117957
1.0118633
1.0119249
1.0119802
1.0120292
1.0120717
1.0121075
1.0121365
1.0121586
1.0121736
1.0121812
1.0121812
1.0121737
1.0121583
1.012135
1.0121037
1.0120643
1.0120166
1.0119606
1.0118962
1.0118234
1.0117421
1.0116523
1.0115541
1.0114476
1.0113325
1.0112097
1.0033028
1.003317
1.0033337
1.0033507
1.0033734
1.0034014
1.0034336
1.0034702
1.0035111
1.0035562
1.0036054
1.0036587
1.003716
1.0037772
1.0038423
1.0039112
1.003984
1.0040605
1.0041408
1.0042247
1.0043124
1.0044037
1.0044986
1.004597
1.0046991
1.0048046
1.0049136
1.005026
1.0051418
1.0052608
1.0053831
1.0055086
1.0056371
1.0057687
1.0059031
1.0060403
1.0061802
1.0063226
1.0064674
1.0066145
1.0067637
1.0069149
1.0070678
1.0072223
1.0073782
1.0075352
1.0076933
1.0078521
1.0080114
1.008171
1.0083307
1.0084902
1.0086493
1.0088076
1.0089651
1.0091213
1.0092761
1.0094291
1.0095802
1.0097291
1.0098755
1.0100192
1.01016
1.0102976
1.0104318
1.0105623
1.010689
1.0108116
1.01093
1.0110439
1.0111531
1.0112575
1.0113569
1.0114511
1.01154
1.0116234
1.0117011
1.0117731
1.0118391
1.0118991
1.0119528
1.0120002
1.012041
1.0120753
1.0121027
1.0121232
1.0121367
1.0121429
1.0121417
1.0121329
1.0121166
1.0120924
1.0120604
1.0120204
1.0119724
1.0119163
1.011852
1.0117796
1.0116989
1.0116102
1.0115132
1.0114082
1.011295
1.0111746
1.0033028
1.0033176
1.0033343
1.0033512
1.003374
1.003402
1.0034342
1.0034707
1.0035116
1.0035567
1.0036059
1.0036592
1.0037164
1.0037776
1.0038427
1.0039116
1.0039844
1.0040609
1.0041411
1.004225
1.0043126
1.0044039
1.0044988
1.0045972
1.0046992
1.0048047
1.0049137
1.005026
1.0051418
1.0052608
1.0053831
1.0055085
1.005637
1.0057685
1.0059028
1.00604
1.0061798
1.0063222
1.006467
1.006614
1.0067632
1.0069142
1.0070671
1.0072215
1.0073773
1.0075343
1.0076922
1.0078509
1.0080101
1.0081695
1.0083291
1.0084884
1.0086472
1.0088053
1.0089625
1.0091184
1.0092729
1.0094256
1.0095763
1.0097248
1.0098707
1.0100139
1.0101541
1.0102911
1.0104246
1.0105544
1.0106803
1.0108021
1.0109196
1.0110325
1.0111407
1.0112441
1.0113423
1.0114354
1.011523
1.0116051
1.0116815
1.0117521
1.0118168
1.0118753
1.0119276
1.0119735
1.0120129
1.0120457
1.0120718
1.012091
1.0121032
1.0121082
1.0121058
1.012096
1.0120787
1.0120538
1.0120211
1.0119807
1.0119324
1.0118763
1.0118122
1.0117401
1.0116602
1.0115723
1.0114765
1.011373
1.0112614
1.0111432
1.0033027
1.0033181
1.0033349
1.0033517
1.0033745
1.0034025
1.0034346
1.0034712
1.003512
1.0035571
1.0036063
1.0036596
1.0037168
1.003778
1.0038431
1.003912
1.0039847
1.0040611
1.0041414
1.0042253
1.0043128
1.0044041
1.0044989
1.0045973
1.0046993
1.0048047
1.0049137
1.005026
1.0051417
1.0052607
1.0053829
1.0055083
1.0056367
1.0057681
1.0059025
1.0060396
1.0061793
1.0063217
1.0064664
1.0066133
1.0067624
1.0069134
1.0070662
1.0072205
1.0073762
1.007533
1.0076909
1.0078494
1.0080085
1.0081678
1.0083271
1.0084863
1.0086449
1.0088028
1.0089597
1.0091154
1.0092695
1.0094219
1.0095723
1.0097203
1.0098658
1.0100086
1.0101482
1.0102846
1.0104175
1.0105467
1.0106719
1.0107929
1.0109096
1.0110217
1.011129
1.0112313
1.0113286
1.0114205
1.0115071
1.011588
1.0116632
1.0117326
1.011796
1.0118533
1.0119043
1.0119489
1.011987
1.0120186
1.0120434
1.0120614
1.0120724
1.0120763
1.012073
1.0120623
1.0120443
1.0120187
1.0119855
1.0119448
1.0118963
1.0118402
1.0117763
1.0117046
1.0116253
1.0115383
1.0114436
1.0113415
1.0112316
1.0111154
1.0033025
1.0033186
1.0033354
1.0033521
1.003375
1.0034029
1.0034351
1.0034716
1.0035125
1.0035575
1.0036067
1.0036599
1.0037172
1.0037783
1.0038434
1.0039122
1.0039849
1.0040614
1.0041415
1.0042254
1.004313
1.0044042
1.004499
1.0045973
1.0046993
1.0048047
1.0049136
1.0050258
1.0051415
1.0052604
1.0053826
1.0055079
1.0056363
1.0057677
1.005902
1.006039
1.0061787
1.006321
1.0064656
1.0066125
1.0067615
1.0069124
1.0070651
1.0072193
1.0073749
1.0075317
1.0076894
1.0078478
1.0080067
1.0081659
1.008325
1.008484
1.0086424
1.0088001
1.0089568
1.0091122
1.009266
1.0094181
1.0095681
1.0097158
1.0098609
1.0100032
1.0101424
1.0102783
1.0104106
1.0105392
1.0106637
1.0107841
1.0109
1.0110113
1.0111178
1.0112192
1.0113156
1.0114066
1.0114921
1.0115721
1.0116462
1.0117145
1.0117768
1.0118329
1.0118828
1.0119263
1.0119633
1.0119937
1.0120174
1.0120344
1.0120444
1.0120474
1.0120432
1.0120318
1.012013
1.0119869
1.0119534
1.0119123
1.0118637
1.0118076
1.011744
1.0116728
1.011594
1.0115079
1.0114143
1.0113135
1.011205
1.0110907
1.0033023
1.0033191
1.0033359
1.0033525
1.0033754
1.0034034
1.0034355
1.003472
1.0035128
1.0035579
1.0036071
1.0036603
1.0037175
1.0037786
1.0038436
1.0039125
1.0039851
1.0040615
1.0041417
1.0042255
1.004313
1.0044042
1.004499
1.0045973
1.0046992
1.0048045
1.0049134
1.0050256
1.0051412
1.0052601
1.0053822
1.0055075
1.0056358
1.0057671
1.0059013
1.0060383
1.006178
1.0063201
1.0064647
1.0066115
1.0067604
1.0069112
1.0070638
1.007218
1.0073734
1.0075301
1.0076877
1.007846
1.0080047
1.0081638
1.0083228
1.0084815
1.0086398
1.0087972
1.0089537
1.0091088
1.0092624
1.0094142
1.0095639
1.0097112
1.009856
1.0099978
1.0101366
1.010272
1.0104038
1.0105319
1.0106558
1.0107755
1.0108908
1.0110014
1.0111071
1.0112078
1.0113033
1.0113935
1.0114781
1.0115571
1.0116304
1.0116977
1.0117589
1.0118141
1.0118629
1.0119054
1.0119414
1.0119709
1.0119936
1.0120097
1.0120188
1.012021
1.0120161
1.012004
1.0119847
1.0119581
1.0119242
1.011883
1.0118344
1.0117783
1.0117149
1.0116442
1.0115661
1.0114807
1.0113881
1.0112886
1.0111816
1.0110689
1.0033021
1.0033195
1.0033363
1.0033529
1.0033758
1.0034037
1.0034359
1.0034723
1.0035132
1.0035582
1.0036074
1.0036606
1.0037177
1.0037788
1.0038438
1.0039127
1.0039853
1.0040617
1.0041418
1.0042256
1.0043131
1.0044042
1.0044989
1.0045972
1.004699
1.0048044
1.0049131
1.0050253
1.0051409
1.0052597
1.0053817
1.0055069
1.0056352
1.0057665
1.0059006
1.0060375
1.0061771
1.0063192
1.0064637
1.0066104
1.0067592
1.00691
1.0070624
1.0072165
1.0073719
1.0075284
1.0076858
1.007844
1.0080026
1.0081615
1.0083204
1.0084789
1.008637
1.0087943
1.0089505
1.0091054
1.0092587
1.0094102
1.0095596
1.0097066
1.009851
1.0099925
1.0101309
1.0102659
1.0103972
1.0105247
1.0106482
1.0107673
1.010882
1.0109919
1.011097
1.011197
1.0112918
1.0113811
1.011465
1.0115432
1.0116156
1.011682
1.0117424
1.0117967
1.0118446
1.0118862
1.0119214
1.01195
1.0119719
1.0119871
1.0119955
1.011997
1.0119915
1.0119788
1.011959
1.0119321
1.0118979
1.0118566
1.0118079
1.011752
1.0116889
1.0116186
1.0115411
1.0114566
1.0113649
1.0112666
1.0111609
1.0110498
1.0033019
1.00332
1.0033367
1.0033532
1.0033762
1.0034041
1.0034362
1.0034727
1.0035135
1.0035585
1.0036076
1.0036608
1.003718
1.003779
1.003844
1.0039128
1.0039854
1.0040617
1.0041418
1.0042256
1.004313
1.0044041
1.0044988
1.004597
1.0046988
1.0048041
1.0049128
1.005025
1.0051404
1.0052592
1.0053812
1.0055063
1.0056346
1.0057657
1.0058998
1.0060366
1.0061761
1.0063182
1.0064626
1.0066092
1.0067579
1.0069086
1.0070609
1.0072149
1.0073701
1.0075266
1.0076839
1.0078419
1.0080004
1.0081591
1.0083178
1.0084762
1.0086341
1.0087912
1.0089472
1.0091019
1.009255
1.0094062
1.0095553
1.009702
1.0098461
1.0099873
1.0101252
1.0102598
1.0103907
1.0105178
1.0106408
1.0107594
1.0108735
1.0109829
1.0110873
1.0111867
1.0112808
1.0113695
1.0114527
1.0115301
1.0116018
1.0116675
1.0117271
1.0117806
1.0118277
1.0118686
1.0119029
1.0119308
1.011952
1.0119665
1.0119743
1.0119752
1.0119691
1.011956
1.0119358
1.0119086
1.0118742
1.0118328
1.0117841
1.0117284
1.0116656
1.0115957
1.0115189
1.0114351
1.0113444
1.0112471
1.0111427
1.0110331
1.0033016
1.0033204
1.0033371
1.0033536
1.0033765
1.0034044
1.0034365
1.003473
1.0035138
1.0035587
1.0036079
1.003661
1.0037181
1.0037792
1.0038441
1.0039129
1.0039855
1.0040618
1.0041418
1.0042256
1.004313
1.004404
1.0044986
1.0045968
1.0046986
1.0048038
1.0049125
1.0050245
1.00514
1.0052587
1.0053806
1.0055057
1.0056338
1.0057649
1.0058989
1.0060357
1.0061751
1.006317
1.0064613
1.0066079
1.0067565
1.0069071
1.0070593
1.0072132
1.0073683
1.0075246
1.0076818
1.0078397
1.0079981
1.0081566
1.0083152
1.0084734
1.0086311
1.008788
1.0089438
1.0090983
1.0092512
1.0094022
1.009551
1.0096974
1.0098412
1.009982
1.0101197
1.0102539
1.0103844
1.0105111
1.0106336
1.0107518
1.0108654
1.0109742
1.0110782
1.011177
1.0112705
1.0113586
1.0114411
1.0115179
1.0115889
1.0116539
1.0117129
1.0117657
1.0118122
1.0118523
1.011886
1.0119132
1.0119338
1.0119477
1.0119549
1.0119553
1.0119488
1.0119353
1.0119148
1.0118874
1.0118529
1.0118114
1.0117628
1.0117073
1.0116448
1.0115754
1.0114991
1.0114161
1.0113262
1.01123
1.0111268
1.0110186
1.0033013
1.0033207
1.0033374
1.0033539
1.0033768
1.0034047
1.0034368
1.0034732
1.003514
1.003559
1.0036081
1.0036612
1.0037183
1.0037793
1.0038442
1.003913
1.0039855
1.0040618
1.0041418
1.0042255
1.0043128
1.0044038
1.0044984
1.0045966
1.0046983
1.0048034
1.0049121
1.0050241
1.0051394
1.0052581
1.0053799
1.005505
1.005633
1.0057641
1.005898
1.0060347
1.006174
1.0063158
1.0064601
1.0066065
1.0067551
1.0069055
1.0070577
1.0072114
1.0073664
1.0075226
1.0076797
1.0078374
1.0079957
1.0081541
1.0083125
1.0084705
1.0086281
1.0087848
1.0089404
1.0090947
1.0092473
1.0093981
1.0095467
1.0096928
1.0098363
1.0099769
1.0101142
1.0102481
1.0103783
1.0105045
1.0106266
1.0107444
1.0108576
1.010966
1.0110694
1.0111677
1.0112607
1.0113483
1.0114303
1.0115065
1.0115769
1.0116413
1.0116997
1.0117519
1.0117978
1.0118373
1.0118705
1.0118971
1.0119171
1.0119306
1.0119373
1.0119373
1.0119303
1.0119166
1.0118959
1.0118682
1.0118337
1.0117922
1.0117438
1.0116884
1.0116263
1.0115573
1.0114816
1.0113993
1.0113103
1.0112151
1.011113
1.0110061
1.0033011
1.0033211
1.0033377
1.0033541
1.0033771
1.003405
1.003437
1.0034735
1.0035142
1.0035592
1.0036082
1.0036613
1.0037184
1.0037794
1.0038443
1.003913
1.0039855
1.0040618
1.0041417
1.0042254
1.0043127
1.0044036
1.0044982
1.0045963
1.0046979
1.004803
1.0049116
1.0050236
1.0051389
1.0052574
1.0053792
1.0055042
1.0056322
1.0057631
1.005897
1.0060336
1.0061728
1.0063146
1.0064587
1.0066051
1.0067535
1.0069039
1.0070559
1.0072095
1.0073644
1.0075205
1.0076775
1.0078351
1.0079932
1.0081515
1.0083097
1.0084676
1.008625
1.0087815
1.0089369
1.009091
1.0092434
1.009394
1.0095424
1.0096883
1.0098315
1.0099718
1.0101088
1.0102424
1.0103722
1.0104982
1.0106199
1.0107373
1.0108501
1.0109581
1.0110611
1.011159
1.0112515
1.0113386
1.0114201
1.0114958
1.0115657
1.0116296
1.0116875
1.0117391
1.0117845
1.0118236
1.0118562
1.0118823
1.0119019
1.0119149
1.0119213
1.0119209
1.0119137
1.0118996
1.0118788
1.011851
1.0118164
1.011775
1.0117267
1.0116716
1.0116098
1.0115413
1.0114662
1.0113846
1.0112964
1.0112021
1.0111012
1.0109954
1.0033008
1.0033214
1.003338
1.0033544
1.0033773
1.0034052
1.0034373
1.0034737
1.0035144
1.0035593
1.0036084
1.0036615
1.0037185
1.0037795
1.0038444
1.003913
1.0039855
1.0040617
1.0041416
1.0042253
1.0043125
1.0044034
1.0044979
1.004596
1.0046976
1.0048026
1.0049111
1.005023
1.0051383
1.0052568
1.0053785
1.0055034
1.0056313
1.0057622
1.0058959
1.0060324
1.0061716
1.0063133
1.0064573
1.0066036
1.0067519
1.0069022
1.0070541
1.0072076
1.0073624
1.0075183
1.0076752
1.0078327
1.0079906
1.0081488
1.0083069
1.0084646
1.0086218
1.0087782
1.0089334
1.0090873
1.0092396
1.0093899
1.0095381
1.0096838
1.0098267
1.0099667
1.0101035
1.0102368
1.0103664
1.010492
1.0106134
1.0107305
1.0108429
1.0109505
1.0110532
1.0111506
1.0112428
1.0113294
1.0114105
1.0114858
1.0115552
1.0116187
1.0116761
1.0117273
1.0117723
1.0118109
1.0118431
1.0118688
1.011888
1.0119007
1.0119067
1.011906
1.0118986
1.0118844
1.0118633
1.0118355
1.011801
1.0117596
1.0117115
1.0116567
1.0115953
1.0115272
1.0114526
1.0113717
1.0112843
1.0111909
1.011091
1.0109863
1.0033005
1.0033217
1.0033383
1.0033546
1.0033776
1.0034055
1.0034375
1.0034739
1.0035146
1.0035595
1.0036085
1.0036616
1.0037186
1.0037796
1.0038444
1.003913
1.0039855
1.0040616
1.0041415
1.0042251
1.0043123
1.0044032
1.0044976
1.0045956
1.0046972
1.0048022
1.0049106
1.0050224
1.0051376
1.0052561
1.0053777
1.0055025
1.0056304
1.0057612
1.0058948
1.0060313
1.0061703
1.0063119
1.0064559
1.006602
1.0067503
1.0069004
1.0070523
1.0072056
1.0073603
1.0075162
1.0076729
1.0078302
1.0079881
1.008146
1.008304
1.0084616
1.0086186
1.0087748
1.0089299
1.0090836
1.0092357
1.0093858
1.0095338
1.0096793
1.009822
1.0099618
1.0100983
1.0102314
1.0103607
1.010486
1.0106072
1.0107239
1.010836
1.0109433
1.0110456
1.0111427
1.0112345
1.0113208
1.0114015
1.0114764
1.0115455
1.0116085
1.0116655
1.0117164
1.011761
1.0117992
1.0118311
1.0118564
1.0118753
1.0118877
1.0118935
1.0118926
1.0118849
1.0118706
1.0118495
1.0118217
1.0117871
1.0117459
1.011698
1.0116435
1.0115824
1.0115148
1.0114408
1.0113605
1.0112739
1.0111814
1.0110824
1.0109788
1.0033002
1.003322
1.0033385
1.0033548
1.0033778
1.0034057
1.0034376
1.003474
1.0035147
1.0035596
1.0036086
1.0036617
1.0037187
1.0037796
1.0038444
1.003913
1.0039854
1.0040615
1.0041414
1.0042249
1.0043121
1.0044029
1.0044973
1.0045953
1.0046967
1.0048017
1.0049101
1.0050218
1.0051369
1.0052553
1.0053769
1.0055016
1.0056294
1.0057601
1.0058937
1.0060301
1.0061691
1.0063105
1.0064544
1.0066005
1.0067486
1.0068986
1.0070504
1.0072036
1.0073582
1.0075139
1.0076705
1.0078278
1.0079854
1.0081433
1.0083011
1.0084586
1.0086155
1.0087715
1.0089264
1.00908
1.0092318
1.0093818
1.0095295
1.0096748
1.0098174
1.0099569
1.0100933
1.0102261
1.0103551
1.0104802
1.0106011
1.0107176
1.0108294
1.0109364
1.0110384
1.0111352
1.0112267
1.0113126
1.011393
1.0114676
1.0115363
1.0115991
1.0116557
1.0117062
1.0117505
1.0117884
1.01182
1.0118451
1.0118638
1.0118759
1.0118814
1.0118804
1.0118726
1.0118582
1.0118371
1.0118093
1.0117748
1.0117337
1.011686
1.0116318
1.0115711
1.0115039
1.0114305
1.0113508
1.0112649
1.0111732
1.0110753
1.0109726
1.0032999
1.0033223
1.0033388
1.003355
1.003378
1.0034058
1.0034378
1.0034742
1.0035149
1.0035597
1.0036087
1.0036617
1.0037187
1.0037796
1.0038444
1.0039129
1.0039853
1.0040614
1.0041412
1.0042247
1.0043119
1.0044026
1.004497
1.0045949
1.0046963
1.0048012
1.0049095
1.0050212
1.0051363
1.0052546
1.0053761
1.0055007
1.0056284
1.0057591
1.0058926
1.0060288
1.0061677
1.0063091
1.0064529
1.0065989
1.0067469
1.0068968
1.0070485
1.0072016
1.0073561
1.0075117
1.0076681
1.0078253
1.0079828
1.0081405
1.0082982
1.0084555
1.0086123
1.0087682
1.0089229
1.0090763
1.009228
1.0093778
1.0095254
1.0096705
1.0098128
1.0099522
1.0100883
1.0102209
1.0103497
1.0104746
1.0105952
1.0107114
1.010823
1.0109298
1.0110315
1.011128
1.0112192
1.0113049
1.011385
1.0114593
1.0115278
1.0115902
1.0116466
1.0116969
1.0117408
1.0117785
1.0118098
1.0118347
1.0118532
1.0118651
1.0118705
1.0118693
1.0118615
1.011847
1.0118259
1.0117982
1.0117638
1.0117229
1.0116755
1.0116215
1.0115612
1.0114945
1.0114216
1.0113425
1.0112574
1.0111665
1.0110694
1.0109676
1.0032995
1.0033225
1.0033389
1.0033552
1.0033782
1.003406
1.003438
1.0034743
1.003515
1.0035598
1.0036088
1.0036618
1.0037187
1.0037796
1.0038443
1.0039129
1.0039852
1.0040613
1.004141
1.0042245
1.0043116
1.0044023
1.0044966
1.0045945
1.0046958
1.0048007
1.0049089
1.0050206
1.0051356
1.0052538
1.0053752
1.0054998
1.0056274
1.005758
1.0058914
1.0060276
1.0061664
1.0063077
1.0064514
1.0065972
1.0067452
1.006895
1.0070465
1.0071996
1.0073539
1.0075094
1.0076657
1.0078227
1.0079802
1.0081378
1.0082953
1.0084525
1.0086091
1.0087648
1.0089194
1.0090726
1.0092242
1.0093738
1.0095212
1.0096662
1.0098083
1.0099475
1.0100834
1.0102158
1.0103445
1.0104691
1.0105895
1.0107055
1.0108169
1.0109234
1.0110249
1.0111212
1.0112122
1.0112977
1.0113775
1.0114516
1.0115198
1.011582
1.0116381
1.0116881
1.0117319
1.0117694
1.0118005
1.0118252
1.0118435
1.0118553
1.0118606
1.0118593
1.0118515
1.011837
1.0118159
1.0117883
1.0117541
1.0117134
1.0116662
1.0116125
1.0115526
1.0114863
1.0114139
1.0113355
1.011251
1.0111609
1.0110647
1.0109637
1.0032992
1.0033228
1.0033391
1.0033553
1.0033783
1.0034062
1.0034381
1.0034744
1.0035151
1.0035599
1.0036088
1.0036618
1.0037187
1.0037796
1.0038443
1.0039128
1.0039851
1.0040611
1.0041409
1.0042243
1.0043113
1.004402
1.0044962
1.004594
1.0046953
1.0048001
1.0049083
1.0050199
1.0051348
1.005253
1.0053744
1.0054989
1.0056264
1.0057569
1.0058902
1.0060263
1.006165
1.0063063
1.0064498
1.0065956
1.0067434
1.0068932
1.0070446
1.0071975
1.0073518
1.0075071
1.0076633
1.0078202
1.0079775
1.008135
1.0082924
1.0084494
1.0086059
1.0087615
1.008916
1.009069
1.0092204
1.0093699
1.0095171
1.0096619
1.0098039
1.0099429
1.0100787
1.0102109
1.0103393
1.0104638
1.0105841
1.0106999
1.010811
1.0109173
1.0110186
1.0111147
1.0112055
1.0112908
1.0113704
1.0114442
1.0115122
1.0115743
1.0116302
1.0116801
1.0117237
1.011761
1.011792
1.0118165
1.0118347
1.0118464
1.0118517
1.0118503
1.0118425
1.011828
1.011807
1.0117795
1.0117454
1.0117049
1.011658
1.0116047
1.0115451
1.0114793
1.0114075
1.0113296
1.0112458
1.0111563
1.011061
1.0109609
1.0032989
1.003323
1.0033393
1.0033555
1.0033785
1.0034063
1.0034382
1.0034745
1.0035152
1.00356
1.0036089
1.0036618
1.0037187
1.0037796
1.0038442
1.0039127
1.003985
1.004061
1.0041407
1.004224
1.004311
1.0044017
1.0044959
1.0045936
1.0046949
1.0047996
1.0049077
1.0050193
1.0051341
1.0052522
1.0053735
1.0054979
1.0056254
1.0057558
1.0058891
1.0060251
1.0061637
1.0063048
1.0064483
1.006594
1.0067417
1.0068913
1.0070426
1.0071955
1.0073496
1.0075048
1.0076609
1.0078177
1.0079749
1.0081322
1.0082895
1.0084464
1.0086027
1.0087582
1.0089125
1.0090655
1.0092167
1.009366
1.0095131
1.0096577
1.0097996
1.0099385
1.010074
1.0102061
1.0103344
1.0104587
1.0105788
1.0106944
1.0108054
1.0109115
1.0110126
1.0111086
1.0111992
1.0112842
1.0113637
1.0114374
1.0115052
1.0115671
1.0116229
1.0116726
1.011716
1.0117532
1.0117841
1.0118086
1.0118267
1.0118383
1.0118435
1.0118422
1.0118344
1.01182
1.0117991
1.0117717
1.0117378
1.0116975
1.0116509
1.0115979
1.0115387
1.0114734
1.011402
1.0113247
1.0112415
1.0111528
1.0110583
1.0109589
1.0032986
1.0033232
1.0033394
1.0033556
1.0033786
1.0034064
1.0034383
1.0034746
1.0035152
1.00356
1.0036089
1.0036618
1.0037187
1.0037795
1.0038442
1.0039126
1.0039848
1.0040608
1.0041404
1.0042238
1.0043107
1.0044013
1.0044955
1.0045932
1.0046944
1.004799
1.0049071
1.0050186
1.0051334
1.0052514
1.0053726
1.005497