/*--------------------------------*- C++ -*----------------------------------*\
| =========                 |                                                 |
| \\      /  F ield         | OpenFOAM: The Open Source CFD Toolbox           |
|  \\    /   O peration     | Version:  2406                                  |
|   \\  /    A nd           | Website:  www.openfoam.com                      |
|    \\/     M anipulation  |                                                 |
\*---------------------------------------------------------------------------*/
FoamFile
{
    version     2.0;
    format      ascii;
    arch        "LSB;label=32;scalar=64";
    class       surfaceScalarField;
    location    "800";
    object      phi;
}
// * * * * * * * * * * * * * * * * * * * * * * * * * * * * * * * * * * * * * //

dimensions      [1 0 -1 0 0 0 0];

oriented        oriented;

internalField   nonuniform List<scalar> 
264541
(
1.8022649e-05
-1.9387798e-07
2.0482049e-07
1.800729e-05
-2.6488818e-07
2.8024677e-07
1.798872e-05
-3.5411793e-07
3.7268779e-07
1.7966542e-05
-4.3812359e-07
4.6030177e-07
1.7940971e-05
-5.1880965e-07
5.443802e-07
1.7912154e-05
-5.9781057e-07
6.2662759e-07
1.7880132e-05
-6.742988e-07
7.0632031e-07
1.7844963e-05
-7.484784e-07
7.8364762e-07
1.7806701e-05
-8.2085081e-07
8.5911279e-07
1.7765385e-05
-8.9171538e-07
9.3303121e-07
1.7721044e-05
-9.6134568e-07
1.0056856e-06
1.7673703e-05
-1.0300181e-06
1.07736e-06
1.7623372e-05
-1.097979e-06
1.1483087e-06
1.757006e-05
-1.1654383e-06
1.2187507e-06
1.7513765e-05
-1.2325825e-06
1.2888776e-06
1.7454479e-05
-1.2995701e-06
1.3588556e-06
1.7392191e-05
-1.3665357e-06
1.4288236e-06
1.7326885e-05
-1.4335922e-06
1.498899e-06
1.725854e-05
-1.5008343e-06
1.5691792e-06
1.7187133e-05
-1.5683352e-06
1.6397419e-06
1.711264e-05
-1.6361539e-06
1.7106474e-06
1.7035032e-05
-1.7043322e-06
1.7819402e-06
1.695428e-05
-1.7728972e-06
1.8536484e-06
1.6870358e-05
-1.841862e-06
1.9257846e-06
1.6783234e-05
-1.9112248e-06
1.9983486e-06
1.669288e-05
-1.9809712e-06
2.0713249e-06
1.6599269e-05
-2.0510748e-06
2.1446853e-06
1.6502376e-05
-2.1214935e-06
2.2183869e-06
1.6402177e-05
-2.1921742e-06
2.2923729e-06
1.6298653e-05
-2.2630463e-06
2.366571e-06
1.6191786e-05
-2.3340267e-06
2.4408937e-06
1.6081564e-05
-2.4050143e-06
2.5152367e-06
1.5967976e-05
-2.4758932e-06
2.5894804e-06
1.5851019e-05
-2.5465304e-06
2.6634878e-06
1.5730691e-05
-2.6167773e-06
2.7371057e-06
1.5606996e-05
-2.6864689e-06
2.8101639e-06
1.5479944e-05
-2.7554245e-06
2.8824762e-06
1.5349553e-05
-2.823449e-06
2.9538402e-06
1.5215849e-05
-2.8903334e-06
3.024037e-06
1.5078868e-05
-2.9558531e-06
3.0928341e-06
1.4938657e-05
-3.0197727e-06
3.1599834e-06
1.4795274e-05
-3.0818424e-06
3.2252258e-06
1.4648788e-05
-3.1418024e-06
3.2882883e-06
1.4499281e-05
-3.1993806e-06
3.3488882e-06
1.4346845e-05
-3.2542952e-06
3.4067309e-06
1.4191584e-05
-3.3062526e-06
3.4615129e-06
1.4033616e-05
-3.3549515e-06
3.5129194e-06
1.3873069e-05
-3.4000804e-06
3.5606275e-06
1.3710084e-05
-3.441321e-06
3.6043058e-06
1.3544817e-05
-3.4783473e-06
3.6436149e-06
1.3377433e-05
-3.5108234e-06
3.6782074e-06
1.3208119e-05
-3.5384176e-06
3.7077321e-06
1.3037049e-05
-3.5607632e-06
3.7318327e-06
1.2864349e-05
-3.5774302e-06
3.75013e-06
1.2690395e-05
-3.5885956e-06
3.7625492e-06
1.2515497e-05
-3.5936979e-06
3.7685967e-06
1.2339979e-05
-3.5923213e-06
3.7678388e-06
1.2163719e-05
-3.5830552e-06
3.7593156e-06
1.198711e-05
-3.5674456e-06
3.7440549e-06
1.1810568e-05
-3.5446854e-06
3.7212274e-06
1.1634256e-05
-3.5140968e-06
3.6904083e-06
1.1458395e-05
-3.4761304e-06
3.6519919e-06
1.1284683e-05
-3.4283293e-06
3.6020413e-06
1.1112413e-05
-3.3740959e-06
3.5463655e-06
1.0941729e-05
-3.3110824e-06
3.4817664e-06
1.0772895e-05
-3.2407436e-06
3.4095773e-06
1.0607514e-05
-3.1589334e-06
3.3243147e-06
1.044608e-05
-3.0677642e-06
3.2291985e-06
1.0287986e-05
-2.9686456e-06
3.1267392e-06
1.0131851e-05
-2.8626219e-06
3.0187567e-06
9.9808895e-06
-2.7456428e-06
2.8966047e-06
9.8346771e-06
-2.6190325e-06
2.765245e-06
9.6938926e-06
-2.48502e-06
2.6258045e-06
9.5592243e-06
-2.3433002e-06
2.4779685e-06
9.4310354e-06
-2.1934724e-06
2.3216612e-06
9.3097544e-06
-2.0357282e-06
2.1570094e-06
9.1958285e-06
-1.8703821e-06
1.984308e-06
9.0897235e-06
-1.6978386e-06
1.8039436e-06
8.9919142e-06
-1.5185373e-06
1.6163465e-06
8.902878e-06
-1.3329511e-06
1.4219874e-06
8.823087e-06
-1.1415912e-06
1.2213823e-06
8.7530045e-06
-9.4500684e-07
1.0150894e-06
8.6930882e-06
-7.4378398e-07
8.0370028e-07
8.643807e-06
-5.3855538e-07
5.8783651e-07
8.6056597e-06
-3.2997956e-07
3.6812697e-07
8.5793239e-06
-1.1887185e-07
1.4520764e-07
8.5660014e-06
9.3778242e-08
-8.0455681e-08
8.5663182e-06
3.0749589e-07
-3.0781275e-07
8.580425e-06
5.2208493e-07
-5.361917e-07
8.6079917e-06
7.3708983e-07
-7.6465653e-07
8.6484497e-06
9.5188659e-07
-9.9234451e-07
8.7011705e-06
1.1657127e-06
-1.2184336e-06
8.7656656e-06
1.3776785e-06
-1.4421736e-06
8.8417152e-06
1.5868483e-06
-1.6628978e-06
8.9293846e-06
1.7923072e-06
-1.8799766e-06
9.0289719e-06
1.9932244e-06
-2.0928117e-06
9.1408259e-06
2.1889102e-06
-2.3007643e-06
9.2653403e-06
2.3787658e-06
-2.5032801e-06
9.4025118e-06
2.562343e-06
-2.6995144e-06
9.5526066e-06
2.7393577e-06
-2.8894526e-06
9.7142312e-06
2.908892e-06
-3.0705166e-06
9.8874472e-06
3.0745839e-06
-3.2477999e-06
1.0067829e-05
3.2189302e-06
-3.3993117e-06
3.4233724e-06
1.0246386e-05
-3.6019292e-06
1.7362583e-05
-1.8328165e-07
1.7347825e-05
-2.5013033e-07
1.7329948e-05
-3.3624067e-07
1.7308602e-05
-4.1677754e-07
1.7284017e-05
-4.9422515e-07
1.7256324e-05
-5.7011728e-07
1.7225558e-05
-6.4353323e-07
1.7191781e-05
-7.1470066e-07
1.7155044e-05
-7.8411376e-07
1.7115385e-05
-8.5205689e-07
1.7072835e-05
-9.1879562e-07
1.7027415e-05
-9.8459856e-07
1.697914e-05
-1.0497033e-06
1.6928014e-05
-1.1143128e-06
1.6874038e-05
-1.1786063e-06
1.6817205e-05
-1.2427371e-06
1.6757504e-05
-1.3068346e-06
1.6694919e-05
-1.3710072e-06
1.6629431e-05
-1.4353465e-06
1.6561019e-05
-1.4999226e-06
1.6489657e-05
-1.5647918e-06
1.641532e-05
-1.6299949e-06
1.633798e-05
-1.6955576e-06
1.625761e-05
-1.761492e-06
1.6174182e-05
-1.8277967e-06
1.6087669e-05
-1.8944575e-06
1.5998044e-05
-1.9614498e-06
1.5905283e-05
-2.0287329e-06
1.5809365e-05
-2.0962561e-06
1.5710271e-05
-2.1639519e-06
1.5607985e-05
-2.2317405e-06
1.5502494e-05
-2.2995237e-06
1.539379e-05
-2.3671892e-06
1.5281868e-05
-2.4346079e-06
1.5166726e-05
-2.5016352e-06
1.5048369e-05
-2.5681119e-06
1.4926808e-05
-2.6338639e-06
1.4802063e-05
-2.6987034e-06
1.467416e-05
-2.7624304e-06
1.4543137e-05
-2.8248305e-06
1.4409043e-05
-2.8856785e-06
1.4271936e-05
-2.9447353e-06
1.4131885e-05
-3.0017521e-06
1.3988972e-05
-3.0564674e-06
1.3843288e-05
-3.108611e-06
1.3694936e-05
-3.1579001e-06
1.354403e-05
-3.2040456e-06
1.3390697e-05
-3.2467475e-06
1.3235076e-05
-3.2857008e-06
1.3077321e-05
-3.3205918e-06
1.2917598e-05
-3.3511003e-06
1.2756085e-05
-3.3769051e-06
1.2592989e-05
-3.397667e-06
1.2428465e-05
-3.4129057e-06
1.2262714e-05
-3.4228448e-06
1.2096017e-05
-3.4270005e-06
1.1928758e-05
-3.4250625e-06
1.176142e-05
-3.4157174e-06
1.1593945e-05
-3.3999706e-06
1.142659e-05
-3.3773301e-06
1.1259716e-05
-3.3472234e-06
1.1093536e-05
-3.3099497e-06
1.0929012e-05
-3.2638062e-06
1.0765614e-05
-3.2106974e-06
1.0603963e-05
-3.1494314e-06
1.0443849e-05
-3.0806293e-06
1.0286827e-05
-3.0019119e-06
1.0133332e-05
-2.9142693e-06
9.9833581e-06
-2.8186713e-06
9.8367234e-06
-2.7159872e-06
9.6951533e-06
-2.6040727e-06
9.5591251e-06
-2.4830043e-06
9.4283401e-06
-2.354235e-06
9.3031094e-06
-2.2180694e-06
9.1839366e-06
-2.0742996e-06
9.0713451e-06
-1.9231367e-06
8.9658322e-06
-1.7648691e-06
8.867863e-06
-1.5998694e-06
8.777886e-06
-1.4285603e-06
8.6963369e-06
-1.251402e-06
8.6236396e-06
-1.0688939e-06
8.5602038e-06
-8.8157108e-07
8.5064206e-06
-6.9000073e-07
8.4626501e-06
-4.9478492e-07
8.4292175e-06
-2.9654689e-07
8.406248e-06
-9.590232e-08
8.3934983e-06
1.0652789e-07
8.3910704e-06
3.099238e-07
8.3996668e-06
5.1348853e-07
8.4202147e-06
7.1654203e-07
8.4536066e-06
9.1849469e-07
8.5004893e-06
1.11883e-06
8.5611191e-06
1.3170487e-06
8.6353549e-06
1.5126126e-06
8.7227476e-06
1.7049144e-06
8.8227056e-06
1.8932665e-06
8.934645e-06
2.0769708e-06
9.0581228e-06
2.255288e-06
9.1928297e-06
2.4276361e-06
9.3387357e-06
2.5934517e-06
9.4957199e-06
2.7519078e-06
9.6647939e-06
2.9055098e-06
9.8427644e-06
3.0409597e-06
3.2123985e-06
1.0053738e-05
1.6726751e-05
-1.7301559e-07
1.6712563e-05
-2.3594299e-07
1.6695334e-05
-3.1901267e-07
1.6674759e-05
-3.9620199e-07
1.6651076e-05
-4.7054284e-07
1.6624399e-05
-5.4344033e-07
1.6594761e-05
-6.1389523e-07
1.6562219e-05
-6.8215908e-07
1.6526824e-05
-7.4871873e-07
1.6488611e-05
-8.138443e-07
1.6447609e-05
-8.7779367e-07
1.6403839e-05
-9.4082863e-07
1.6357314e-05
-1.0031784e-06
1.630804e-05
-1.0650385e-06
1.6256016e-05
-1.1265829e-06
1.6201237e-05
-1.1879584e-06
1.6143693e-05
-1.2492905e-06
1.6083369e-05
-1.3106832e-06
1.6020247e-05
-1.3722243e-06
1.5954307e-05
-1.4339825e-06
1.5885526e-05
-1.4960106e-06
1.5813879e-05
-1.5583486e-06
1.5739342e-05
-1.6210205e-06
1.5661888e-05
-1.6840381e-06
1.5581492e-05
-1.7474004e-06
1.5498128e-05
-1.8110934e-06
1.5411772e-05
-1.8750939e-06
1.5322402e-05
-1.9393631e-06
1.5229998e-05
-2.0038523e-06
1.5134543e-05
-2.0684969e-06
1.5036023e-05
-2.1332199e-06
1.4934425e-05
-2.1979262e-06
1.4829742e-05
-2.2625066e-06
1.4721971e-05
-2.3268361e-06
1.461111e-05
-2.3907744e-06
1.4497167e-05
-2.4541688e-06
1.4380154e-05
-2.5168514e-06
1.4260094e-05
-2.5786428e-06
1.4137015e-05
-2.6393519e-06
1.4010958e-05
-2.6987733e-06
1.3881971e-05
-2.7566918e-06
1.3750115e-05
-2.8128789e-06
1.3615458e-05
-2.8670953e-06
1.3478081e-05
-2.9190904e-06
1.3338074e-05
-2.9686043e-06
1.319554e-05
-3.015366e-06
1.3050592e-05
-3.0590974e-06
1.2903356e-05
-3.0995114e-06
1.275397e-05
-3.1363146e-06
1.2602584e-05
-3.1692067e-06
1.2449367e-05
-3.197883e-06
1.2294494e-05
-3.2220316e-06
1.2138176e-05
-3.2413496e-06
1.1980724e-05
-3.2554532e-06
1.1822246e-05
-3.2643674e-06
1.1662891e-05
-3.2676453e-06
1.150281e-05
-3.2649816e-06
1.1342575e-05
-3.2554816e-06
1.1182289e-05
-3.2396847e-06
1.102227e-05
-3.2173111e-06
1.0862863e-05
-3.187817e-06
1.0704275e-05
-3.1513615e-06
1.0547236e-05
-3.1067673e-06
1.0391696e-05
-3.0551568e-06
1.0238115e-05
-2.9958509e-06
1.0086602e-05
-2.9291162e-06
9.9381863e-06
-2.8534963e-06
9.793278e-06
-2.769361e-06
9.6520191e-06
-2.6774123e-06
9.5143223e-06
-2.5782904e-06
9.3810108e-06
-2.4707611e-06
9.2527472e-06
-2.3547408e-06
9.129806e-06
-2.2312937e-06
9.0125032e-06
-2.1007666e-06
8.9012944e-06
-1.9630907e-06
8.7966139e-06
-1.8184562e-06
8.6989028e-06
-1.6671581e-06
8.6085884e-06
-1.5095549e-06
8.5260836e-06
-1.3460555e-06
8.45179e-06
-1.1771083e-06
8.3860944e-06
-1.0031982e-06
8.3293662e-06
-8.2484286e-07
8.28196e-06
-6.4259452e-07
8.2442132e-06
-4.5703812e-07
8.2164493e-06
-2.6878299e-07
8.1990677e-06
-7.852067e-08
8.192537e-06
1.1305865e-07
8.1970316e-06
3.0542917e-07
8.2124828e-06
4.9803738e-07
8.2387625e-06
6.9026226e-07
8.2758383e-06
8.8141895e-07
8.3238552e-06
1.0708131e-06
8.3831307e-06
1.2577732e-06
8.4540645e-06
1.4416787e-06
8.5369968e-06
1.6219821e-06
8.6320866e-06
1.7981767e-06
8.7392599e-06
1.9697975e-06
8.8582089e-06
2.136339e-06
8.9885083e-06
2.2973366e-06
9.1296121e-06
2.4523479e-06
9.2811101e-06
2.6004097e-06
9.4430174e-06
2.7436025e-06
9.6126667e-06
2.8713103e-06
3.0225557e-06
9.8025095e-06
1.6114254e-05
-1.6305248e-07
1.610062e-05
-2.2230981e-07
1.6084023e-05
-3.0241454e-07
1.6064202e-05
-3.7638106e-07
1.6041408e-05
-4.4774902e-07
1.6015739e-05
-5.1777096e-07
1.5987224e-05
-5.8538098e-07
1.5955923e-05
-6.5085809e-07
1.5921883e-05
-7.1467844e-07
1.5885138e-05
-7.7709934e-07
1.5845717e-05
-8.3837251e-07
1.5803639e-05
-8.9875105e-07
1.5758919e-05
-9.584575e-07
1.5711561e-05
-1.0176806e-06
1.5661565e-05
-1.0765876e-06
1.5608927e-05
-1.1353205e-06
1.5553637e-05
-1.1940002e-06
1.5495681e-05
-1.2527266e-06
1.5435041e-05
-1.3115846e-06
1.5371698e-05
-1.3706395e-06
1.5305631e-05
-1.429943e-06
1.5236815e-05
-1.4895327e-06
1.5165227e-05
-1.5494323e-06
1.5090841e-05
-1.6096528e-06
1.5013634e-05
-1.6701926e-06
1.493358e-05
-1.7310395e-06
1.4850656e-05
-1.7921705e-06
1.4764842e-05
-1.8535491e-06
1.4676119e-05
-1.9151285e-06
1.4584469e-05
-1.9768469e-06
1.4489878e-05
-2.038629e-06
1.4392335e-05
-2.1003837e-06
1.4291833e-05
-2.1620044e-06
1.4188368e-05
-2.2233708e-06
1.4081941e-05
-2.284348e-06
1.3972561e-05
-2.3447886e-06
1.3860242e-05
-2.4045323e-06
1.3745007e-05
-2.4634077e-06
1.3626887e-05
-2.5212317e-06
1.3505922e-05
-2.5778084e-06
1.3382161e-05
-2.6329313e-06
1.3255664e-05
-2.6863817e-06
1.3126499e-05
-2.7379302e-06
1.2994745e-05
-2.7873362e-06
1.2860491e-05
-2.8343503e-06
1.2723838e-05
-2.8787131e-06
1.2584898e-05
-2.9201576e-06
1.2443795e-05
-2.9584084e-06
1.2300666e-05
-2.9931852e-06
1.2155659e-05
-3.0242003e-06
1.2008939e-05
-3.0511627e-06
1.1860682e-05
-3.0737742e-06
1.1711086e-05
-3.0917541e-06
1.1560368e-05
-3.1047345e-06
1.1408669e-05
-3.1126684e-06
1.1256224e-05
-3.1152004e-06
1.1103309e-05
-3.1120667e-06
1.0950371e-05
-3.1025435e-06
1.0797543e-05
-3.0868574e-06
1.0645076e-05
-3.0648436e-06
1.0493293e-05
-3.0360344e-06
1.0342429e-05
-3.000497e-06
1.0193069e-05
-2.9574075e-06
1.0045297e-05
-2.9073851e-06
9.8994797e-06
-2.8500332e-06
9.7558006e-06
-2.785437e-06
9.6149913e-06
-2.712687e-06
9.4775277e-06
-2.6318974e-06
9.3436725e-06
-2.5435572e-06
9.2135331e-06
-2.448151e-06
9.087811e-06
-2.345039e-06
8.9671377e-06
-2.2340674e-06
8.8517419e-06
-2.1158979e-06
8.7418885e-06
-1.9909131e-06
8.6379872e-06
-1.8591894e-06
8.5404555e-06
-1.7209244e-06
8.4497093e-06
-1.5764118e-06
8.3661517e-06
-1.4259974e-06
8.2901707e-06
-1.2700744e-06
8.2221381e-06
-1.1090757e-06
8.1624099e-06
-9.4347005e-07
8.1113275e-06
-7.737604e-07
8.0692134e-06
-6.0048039e-07
8.0363623e-06
-4.2418706e-07
8.0130496e-06
-2.4547022e-07
7.9994356e-06
-6.4906711e-08
7.99556e-06
1.1693427e-07
8.0015738e-06
2.994154e-07
8.0177493e-06
4.8186188e-07
8.0443667e-06
6.6364486e-07
8.0816175e-06
8.4416819e-07
8.1295827e-06
1.0228479e-06
8.1882636e-06
1.1990923e-06
8.2576435e-06
1.3722989e-06
8.3377387e-06
1.5418869e-06
8.4286078e-06
1.7073077e-06
8.5303257e-06
1.8680795e-06
8.6429013e-06
2.0237634e-06
8.7662645e-06
2.1739734e-06
8.9001495e-06
2.318463e-06
9.0441747e-06
2.4563845e-06
9.1981785e-06
2.5895986e-06
9.3602056e-06
2.709283e-06
2.8487221e-06
9.5340393e-06
1.5524233e-05
-1.5337362e-07
1.5511135e-05
-2.0921215e-07
1.5495142e-05
-2.8642172e-07
1.5476045e-05
-3.5728429e-07
1.5454099e-05
-4.2580348e-07
1.5429387e-05
-4.930586e-07
1.5401937e-05
-5.5793185e-07
1.5371806e-05
-6.2072716e-07
1.5339039e-05
-6.8191133e-07
1.5303669e-05
-7.41729e-07
1.5265721e-05
-8.0042519e-07
1.5225217e-05
-8.5824714e-07
1.5182169e-05
-9.1540902e-07
1.5136582e-05
-9.7209347e-07
1.5088456e-05
-1.0284624e-06
1.5037788e-05
-1.0846524e-06
1.4984568e-05
-1.1407795e-06
1.4928782e-05
-1.196941e-06
1.4870415e-05
-1.2532177e-06
1.4809449e-05
-1.3096734e-06
1.4745863e-05
-1.3663569e-06
1.4679635e-05
-1.4233047e-06
1.4610742e-05
-1.4805394e-06
1.453916e-05
-1.5380715e-06
1.4464868e-05
-1.5959e-06
1.4387841e-05
-1.654013e-06
1.4308059e-05
-1.7123883e-06
1.4225502e-05
-1.7709917e-06
1.4140151e-05
-1.8297777e-06
1.4051991e-05
-1.8886869e-06
1.3961009e-05
-1.947647e-06
1.3867194e-05
-2.006569e-06
1.3770541e-05
-2.0653511e-06
1.3671047e-05
-2.1238766e-06
1.3568715e-05
-2.1820164e-06
1.3463556e-05
-2.239629e-06
1.3355585e-05
-2.2965614e-06
1.3244827e-05
-2.3526496e-06
1.3131313e-05
-2.4077179e-06
1.3015084e-05
-2.4615796e-06
1.2896189e-05
-2.514036e-06
1.2774685e-05
-2.5648782e-06
1.2650641e-05
-2.6138859e-06
1.2524134e-05
-2.6608294e-06
1.2395252e-05
-2.7054686e-06
1.2264095e-05
-2.7475558e-06
1.2130772e-05
-2.7868346e-06
1.1995406e-05
-2.8230421e-06
1.185813e-05
-2.8559095e-06
1.1719091e-05
-2.8851618e-06
1.1578451e-05
-2.910522e-06
1.1436382e-05
-2.9317057e-06
1.1293076e-05
-2.9484478e-06
1.1148761e-05
-2.9604195e-06
1.1003612e-05
-2.9675199e-06
1.0857841e-05
-2.9694295e-06
1.071166e-05
-2.9658853e-06
1.0565431e-05
-2.956315e-06
1.0419359e-05
-2.9407846e-06
1.0273699e-05
-2.9191842e-06
1.0128781e-05
-2.8911164e-06
9.9848566e-06
-2.8565724e-06
9.8424066e-06
-2.8149575e-06
9.7016216e-06
-2.7666001e-06
9.5628472e-06
-2.7112588e-06
9.4263428e-06
-2.6489326e-06
9.2926887e-06
-2.5790329e-06
9.1623415e-06
-2.5015502e-06
9.0356001e-06
-2.4168157e-06
8.912647e-06
-2.3251979e-06
8.7939776e-06
-2.2263696e-06
8.680113e-06
-2.1202028e-06
8.5713767e-06
-2.0071616e-06
8.4680858e-06
-1.8876223e-06
8.3706266e-06
-1.7617302e-06
8.2793862e-06
-1.6296839e-06
8.1947439e-06
-1.4917695e-06
8.1170687e-06
-1.3483222e-06
8.0467156e-06
-1.1997213e-06
7.9840243e-06
-1.0463845e-06
7.929318e-06
-8.8876372e-07
7.8828995e-06
-7.2734185e-07
7.8450506e-06
-5.6263148e-07
7.8160348e-06
-3.9517126e-07
7.796086e-06
-2.2552138e-07
7.7854688e-06
-5.4289441e-08
7.7844796e-06
1.179235e-07
7.7932895e-06
2.906055e-07
7.8119574e-06
4.6319393e-07
7.8404991e-06
6.3510326e-07
7.8789177e-06
8.0574959e-07
7.9272209e-06
9.7454459e-07
7.9854045e-06
1.1409088e-06
8.0534347e-06
1.3042686e-06
8.1312485e-06
1.4640731e-06
8.2187666e-06
1.6197897e-06
8.3159223e-06
1.7709238e-06
8.4226629e-06
1.9170228e-06
8.5389611e-06
2.0576753e-06
8.6647758e-06
2.1926482e-06
8.7999463e-06
2.321214e-06
8.944576e-06
2.4449689e-06
9.0975719e-06
2.556287e-06
2.6851674e-06
9.2611266e-06
1.4955855e-05
-1.4395661e-07
1.4943275e-05
-1.9663272e-07
1.4927863e-05
-2.7101002e-07
1.4909467e-05
-3.3888758e-07
1.4888342e-05
-4.0467898e-07
1.4864558e-05
-4.6927422e-07
1.4838141e-05
-5.3151534e-07
1.4809148e-05
-5.9173409e-07
1.4777622e-05
-6.5038454e-07
1.4743593e-05
-7.077003e-07
1.4707088e-05
-7.6392062e-07
1.4668127e-05
-8.1928625e-07
1.4626722e-05
-8.7400324e-07
1.4582878e-05
-9.2824958e-07
1.4536596e-05
-9.8218046e-07
1.4487871e-05
-1.035928e-06
1.4436696e-05
-1.0896042e-06
1.4383058e-05
-1.1433024e-06
1.4326941e-05
-1.1971008e-06
1.4268328e-05
-1.2510603e-06
1.4207199e-05
-1.3052281e-06
1.4143534e-05
-1.3596396e-06
1.407731e-05
-1.4143157e-06
1.4008506e-05
-1.4692674e-06
1.39371e-05
-1.5244933e-06
1.3863069e-05
-1.579982e-06
1.3786393e-05
-1.6357128e-06
1.3707054e-05
-1.6916525e-06
1.3625034e-05
-1.7477579e-06
1.3540319e-05
-1.8039714e-06
1.3452895e-05
-1.8602231e-06
1.3362754e-05
-1.9164278e-06
1.326989e-05
-1.972487e-06
1.3174302e-05
-2.0282892e-06
1.3075996e-05
-2.0837102e-06
1.2974982e-05
-2.1386147e-06
1.2871277e-05
-2.1928566e-06
1.2764906e-05
-2.2462782e-06
1.26559e-05
-2.2987121e-06
1.2544299e-05
-2.3499789e-06
1.2430152e-05
-2.3998891e-06
1.2313516e-05
-2.448242e-06
1.2194457e-05
-2.4948272e-06
1.2073052e-05
-2.5394241e-06
1.1949387e-05
-2.5818036e-06
1.1823559e-05
-2.6217278e-06
1.1695677e-05
-2.6589525e-06
1.1565861e-05
-2.6932258e-06
1.1434242e-05
-2.7242906e-06
1.1300964e-05
-2.7518842e-06
1.1166186e-05
-2.7757435e-06
1.1030077e-05
-2.7955965e-06
1.0892822e-05
-2.8111926e-06
1.075463e-05
-2.822228e-06
1.0615677e-05
-2.8285669e-06
1.0476172e-05
-2.8299247e-06
1.0336345e-05
-2.8260582e-06
1.0196533e-05
-2.8165029e-06
1.0056965e-05
-2.8012167e-06
9.9178846e-06
-2.7801035e-06
9.7795949e-06
-2.7528266e-06
9.6423532e-06
-2.7193307e-06
9.5065731e-06
-2.6791774e-06
9.3724938e-06
-2.6325207e-06
9.2404353e-06
-2.5792003e-06
9.1106764e-06
-2.5191737e-06
8.9836919e-06
-2.4520484e-06
8.8599123e-06
-2.3777706e-06
8.7396645e-06
-2.2965678e-06
8.6231931e-06
-2.2087265e-06
8.5109298e-06
-2.1141063e-06
8.4033574e-06
-2.0126304e-06
8.300821e-06
-1.9046252e-06
8.2036247e-06
-1.790426e-06
8.112116e-06
-1.6702214e-06
8.0266544e-06
-1.5442223e-06
7.9475952e-06
-1.4127103e-06
7.8752848e-06
-1.2760119e-06
7.8100561e-06
-1.1344925e-06
7.752226e-06
-9.8855434e-07
7.7020956e-06
-8.3863328e-07
7.6599458e-06
-6.8519207e-07
7.6260374e-06
-5.2872307e-07
7.6006072e-06
-3.6974105e-07
7.5838675e-06
-2.0878164e-07
7.5759617e-06
-4.6383623e-08
7.5769595e-06
1.1692573e-07
7.5869685e-06
2.8059653e-07
7.6061248e-06
4.4403763e-07
7.6345586e-06
6.0666948e-07
7.6723722e-06
7.6793605e-07
7.7196174e-06
9.2729937e-07
7.7762942e-06
1.084232e-06
7.8423499e-06
1.2382129e-06
7.9176831e-06
1.3887399e-06
8.0021468e-06
1.535326e-06
8.0955615e-06
1.6775091e-06
8.1977324e-06
1.8148519e-06
8.3084698e-06
1.9469379e-06
8.4276263e-06
2.0734917e-06
8.5550046e-06
2.1938356e-06
8.6906602e-06
2.3093133e-06
8.8338818e-06
2.4130654e-06
2.5325563e-06
8.9864929e-06
1.4408323e-05
-1.3478728e-07
1.4396246e-05
-1.8455614e-07
1.4381394e-05
-2.561574e-07
1.4363672e-05
-3.2116609e-07
1.4343336e-05
-3.8434354e-07
1.4320442e-05
-4.4637974e-07
1.4295016e-05
-5.0608974e-07
1.4267112e-05
-5.6383045e-07
1.4236771e-05
-6.2004374e-07
1.4204023e-05
-6.7495254e-07
1.4168894e-05
-7.287913e-07
1.4131402e-05
-7.8179376e-07
1.4091558e-05
-8.3415955e-07
1.4049368e-05
-8.8606027e-07
1.4004834e-05
-9.3764632e-07
1.3957951e-05
-9.8904525e-07
1.3908711e-05
-1.0403643e-06
1.3857103e-05
-1.0916944e-06
1.3803113e-05
-1.1431101e-06
1.3746723e-05
-1.1946705e-06
1.3687915e-05
-1.2464204e-06
1.362667e-05
-1.2983946e-06
1.3562967e-05
-1.350613e-06
1.3496786e-05
-1.4030856e-06
1.3428104e-05
-1.4558119e-06
1.3356903e-05
-1.508781e-06
1.3283163e-05
-1.561973e-06
1.3206867e-05
-1.6153563e-06
1.3127998e-05
-1.6688888e-06
1.3046542e-05
-1.7225157e-06
1.2962489e-05
-1.7761695e-06
1.287583e-05
-1.8297684e-06
1.278656e-05
-1.8832176e-06
1.2694681e-05
-1.9364102e-06
1.2600198e-05
-1.9892274e-06
1.2503123e-05
-2.0415396e-06
1.2403474e-05
-2.0932069e-06
1.2301274e-05
-2.1440784e-06
1.2196555e-05
-2.1939938e-06
1.2089358e-05
-2.2427817e-06
1.1979729e-05
-2.2902604e-06
1.1867725e-05
-2.3362377e-06
1.1753411e-05
-2.380513e-06
1.1636861e-05
-2.4228747e-06
1.1518162e-05
-2.4631041e-06
1.1397408e-05
-2.5009737e-06
1.1274705e-05
-2.5362497e-06
1.1150171e-05
-2.5686915e-06
1.1023934e-05
-2.5980536e-06
1.0896135e-05
-2.6240855e-06
1.0766928e-05
-2.6465362e-06
1.0636478e-05
-2.6651472e-06
1.0504966e-05
-2.6796798e-06
1.0372592e-05
-2.6898541e-06
1.0239539e-05
-2.6955147e-06
1.0106018e-05
-2.6964033e-06
9.9722464e-06
-2.6922866e-06
9.8385196e-06
-2.682776e-06
9.7050732e-06
-2.6677704e-06
9.5721478e-06
-2.647178e-06
9.4400378e-06
-2.6207166e-06
9.3090074e-06
-2.5883004e-06
9.1794245e-06
-2.5495945e-06
9.0515541e-06
-2.5046504e-06
8.9257057e-06
-2.4533519e-06
8.8021736e-06
-2.3956415e-06
8.6813744e-06
-2.3312492e-06
8.5637125e-06
-2.2601088e-06
8.4495209e-06
-2.1823762e-06
8.3390708e-06
-2.0982763e-06
8.2327373e-06
-2.0077728e-06
8.1309416e-06
-1.9108346e-06
8.0340261e-06
-1.8077097e-06
7.9422999e-06
-1.6986997e-06
7.8560953e-06
-1.5840168e-06
7.7757522e-06
-1.4638792e-06
7.7016023e-06
-1.3385604e-06
7.6339664e-06
-1.2083759e-06
7.5731513e-06
-1.0736774e-06
7.5194479e-06
-9.3485088e-07
7.4731283e-06
-7.923137e-07
7.434445e-06
-6.4650876e-07
7.4036298e-06
-4.9790778e-07
7.3808908e-06
-3.4700208e-07
7.3664062e-06
-1.9429702e-07
7.36036e-06
-4.0337394e-08
7.3629343e-06
1.1435141e-07
7.3742538e-06
2.6927706e-07
7.3943782e-06
4.2391319e-07
7.42332e-06
5.7772779e-07
7.4610709e-06
7.3018508e-07
7.5076106e-06
8.8075974e-07
7.5629041e-06
1.0289385e-06
7.6268982e-06
1.1742188e-06
7.6995148e-06
1.3161233e-06
7.7806427e-06
1.4541981e-06
7.8701324e-06
1.5880194e-06
7.9677941e-06
1.7171902e-06
8.0733998e-06
1.8413321e-06
8.1867197e-06
1.9601718e-06
8.3074678e-06
2.0730876e-06
8.4355496e-06
2.1812314e-06
8.5702909e-06
2.278324e-06
2.3895366e-06
8.7133106e-06
1.3880867e-05
-1.2584659e-07
1.3869275e-05
-1.7296485e-07
1.3854958e-05
-2.4183972e-07
1.3837886e-05
-3.0409414e-07
1.3818309e-05
-3.6476679e-07
1.3796271e-05
-4.2434154e-07
1.3771798e-05
-4.8161616e-07
1.3744942e-05
-5.3697512e-07
1.3715743e-05
-5.9084463e-07
1.368423e-05
-6.434394e-07
1.3650427e-05
-6.9498823e-07
1.3614352e-05
-7.4571923e-07
1.3576018e-05
-7.9582454e-07
1.3535429e-05
-8.4547129e-07
1.3492586e-05
-8.9480386e-07
1.3447487e-05
-9.4394572e-07
1.3400123e-05
-9.9300049e-07
1.3350484e-05
-1.0420552e-06
1.3298556e-05
-1.0911821e-06
1.3244323e-05
-1.1404378e-06
1.3187769e-05
-1.1898659e-06
1.3128873e-05
-1.2394992e-06
1.3067618e-05
-1.2893572e-06
1.3003982e-05
-1.3394502e-06
1.2937947e-05
-1.389777e-06
1.2869494e-05
-1.4403279e-06
1.2798605e-05
-1.4910834e-06
1.2725262e-05
-1.5420136e-06
1.2649451e-05
-1.5930779e-06
1.2571159e-05
-1.6442237e-06
1.2490376e-05
-1.6953859e-06
1.2407093e-05
-1.7464859e-06
1.2321309e-05
-1.7974333e-06
1.2233024e-05
-1.848125e-06
1.2142244e-05
-1.8984476e-06
1.2048981e-05
-1.948277e-06
1.1953254e-05
-1.9974793e-06
1.1855086e-05
-2.0459103e-06
1.1754508e-05
-2.0934163e-06
1.165156e-05
-2.1398337e-06
1.1546288e-05
-2.1849885e-06
1.1438748e-05
-2.2286975e-06
1.1329003e-05
-2.2707682e-06
1.1217127e-05
-2.3109989e-06
1.1103204e-05
-2.3491804e-06
1.0987326e-05
-2.3850957e-06
1.0869596e-05
-2.4185205e-06
1.0750131e-05
-2.4492258e-06
1.0629054e-05
-2.4769771e-06
1.0506504e-05
-2.5015356e-06
1.0382631e-05
-2.5226624e-06
1.0257595e-05
-2.5401117e-06
1.0131571e-05
-2.5536558e-06
1.0004752e-05
-2.5630349e-06
9.8773202e-06
-2.5680829e-06
9.7494783e-06
-2.5685614e-06
9.6214417e-06
-2.5642499e-06
9.4934851e-06
-2.5548194e-06
9.3658501e-06
-2.5401353e-06
9.2387755e-06
-2.5201035e-06
9.1125407e-06
-2.4944817e-06
8.9874079e-06
-2.4631677e-06
8.8637108e-06
-2.4258973e-06
8.7417236e-06
-2.3826632e-06
8.6217459e-06
-2.3333742e-06
8.5040718e-06
-2.2779674e-06
8.3890746e-06
-2.2162519e-06
8.2771305e-06
-2.1481646e-06
8.1685701e-06
-2.0738158e-06
8.0636799e-06
-1.9933861e-06
7.9628061e-06
-1.906899e-06
7.8663353e-06
-1.8143637e-06
7.7746062e-06
-1.7159807e-06
7.6879243e-06
-1.6120178e-06
7.6066024e-06
-1.5026949e-06
7.5309577e-06
-1.3882344e-06
7.4613002e-06
-1.268903e-06
7.39793e-06
-1.1450056e-06
7.3411337e-06
-1.0168811e-06
7.2911832e-06
-8.8490034e-07
7.2483301e-06
-7.4946064e-07
7.2128095e-06
-6.1098814e-07
7.184834e-06
-4.6993227e-07
7.1645926e-06
-3.2676066e-07
7.1522545e-06
-1.8195885e-07
7.1479368e-06
-3.6019702e-08
7.1517155e-06
1.1057274e-07
7.1636683e-06
2.5732433e-07
7.1838611e-06
4.0372034e-07
7.2123487e-06
5.4924024e-07
7.2491632e-06
6.9337059e-07
7.2942986e-06
8.3562439e-07
7.3477152e-06
9.7552195e-07
7.4093376e-06
1.1125964e-06
7.479059e-06
1.2464019e-06
7.5567461e-06
1.3765111e-06
7.6422397e-06
1.5025258e-06
7.7353561e-06
1.6240738e-06
7.8358793e-06
1.740809e-06
7.9435763e-06
1.8524748e-06
8.0581523e-06
1.9585115e-06
8.1794264e-06
2.0599573e-06
8.3067324e-06
2.1510181e-06
2.2549454e-06
8.4413235e-06
1.337273e-05
-1.1711952e-07
1.3361596e-05
-1.6183117e-07
1.3347792e-05
-2.280361e-07
1.3331345e-05
-2.8764719e-07
1.3312497e-05
-3.4591968e-07
1.3291281e-05
-4.0312488e-07
1.3267723e-05
-4.5805821e-07
1.3241874e-05
-5.1112637e-07
1.3213771e-05
-5.6274205e-07
1.3183443e-05
-6.1311106e-07
1.3150912e-05
-6.6245772e-07
1.3116197e-05
-7.110043e-07
1.3079309e-05
-7.5893628e-07
1.3040253e-05
-8.0641558e-07
1.2999031e-05
-8.5358186e-07
1.2955639e-05
-9.00554e-07
1.2910071e-05
-9.4743189e-07
1.2862316e-05
-9.943002e-07
1.2812361e-05
-1.0412274e-06
1.2760192e-05
-1.0882689e-06
1.2705792e-05
-1.1354659e-06
1.2649144e-05
-1.182851e-06
1.2590229e-05
-1.2304422e-06
1.2529028e-05
-1.2782497e-06
1.2465524e-05
-1.326273e-06
1.2399699e-05
-1.3745027e-06
1.2331536e-05
-1.4229203e-06
1.2261019e-05
-1.471497e-06
1.2188135e-05
-1.5201936e-06
1.2112871e-05
-1.5689598e-06
1.2035218e-05
-1.6177326e-06
1.1955169e-05
-1.6664372e-06
1.1872722e-05
-1.714986e-06
1.1787878e-05
-1.763281e-06
1.1700644e-05
-1.8112135e-06
1.1611032e-05
-1.8586647e-06
1.1519059e-05
-1.9055067e-06
1.142475e-05
-1.9516015e-06
1.1328136e-05
-1.9968026e-06
1.1229256e-05
-2.0409529e-06
1.1128154e-05
-2.0838867e-06
1.1024885e-05
-2.125429e-06
1.0919513e-05
-2.1653957e-06
1.0812108e-05
-2.2035939e-06
1.0702752e-05
-2.2398244e-06
1.0591536e-05
-2.2738796e-06
1.0478561e-05
-2.3055457e-06
1.0363939e-05
-2.3346034e-06
1.0247792e-05
-2.36083e-06
1.0130253e-05
-2.3839974e-06
1.0011469e-05
-2.4038782e-06
9.8915961e-06
-2.4202388e-06
9.7708029e-06
-2.4328626e-06
9.6492751e-06
-2.4415071e-06
9.5271939e-06
-2.4460017e-06
9.4047582e-06
-2.4461258e-06
9.2821781e-06
-2.4416698e-06
9.159708e-06
-2.4323493e-06
9.0375854e-06
-2.4180127e-06
8.9160441e-06
-2.3985622e-06
8.7953516e-06
-2.3737893e-06
8.6757675e-06
-2.3435835e-06
8.5576011e-06
-2.307731e-06
8.4411292e-06
-2.2661912e-06
8.3266415e-06
-2.2188865e-06
8.2144303e-06
-2.1657562e-06
8.1048402e-06
-2.1066618e-06
7.9982236e-06
-2.0415481e-06
7.8949044e-06
-1.9704965e-06
7.7951729e-06
-1.8936546e-06
7.6993529e-06
-1.811079e-06
7.607797e-06
-1.7228078e-06
7.5208291e-06
-1.6290128e-06
7.4387462e-06
-1.5299348e-06
7.3618458e-06
-1.4257945e-06
7.2904269e-06
-1.3168155e-06
7.2247808e-06
-1.2032569e-06
7.1651879e-06
-1.0854127e-06
7.1119142e-06
-9.6360746e-07
7.0652102e-06
-8.3819622e-07
7.0253082e-06
-7.0955864e-07
6.9924195e-06
-5.7809948e-07
6.9667346e-06
-4.4424727e-07
6.9484209e-06
-3.0844702e-07
6.937621e-06
-1.7115892e-07
6.9344696e-06
-3.2868233e-08
6.9390779e-06
1.0596446e-07
6.9515189e-06
2.4488329e-07
6.9718364e-06
3.8340288e-07
7.0000391e-06
5.2103753e-07
7.0361043e-06
6.5730542e-07
7.0799887e-06
7.9174005e-07
7.1316296e-06
9.2388098e-07
7.1909417e-06
1.0532844e-06
7.2578158e-06
1.1795277e-06
7.3321183e-06
1.3022086e-06
7.413691e-06
1.4209531e-06
7.5023529e-06
1.5354119e-06
7.5978993e-06
1.6452626e-06
7.700107e-06
1.7502672e-06
7.8087098e-06
1.8499087e-06
7.9234988e-06
1.9451683e-06
8.0438836e-06
2.0306332e-06
2.1280111e-06
8.1708179e-06
1.2883191e-05
-1.0859052e-07
1.2872482e-05
-1.5112271e-07
1.2859169e-05
-2.1472328e-07
1.2843322e-05
-2.7179987e-07
1.2825175e-05
-3.277729e-07
1.2804749e-05
-3.826991e-07
1.2782071e-05
-4.3538018e-07
1.2757192e-05
-4.8624655e-07
1.2730144e-05
-5.3569463e-07
1.2700957e-05
-5.8392366e-07
1.2669653e-05
-6.3115339e-07
1.2636248e-05
-6.7759961e-07
1.2600754e-05
-7.2344232e-07
1.2563177e-05
-7.6883845e-07
1.2523517e-05
-8.1392241e-07
1.2481773e-05
-8.5880982e-07
1.2437938e-05
-9.0359617e-07
1.2392001e-05
-9.4836328e-07
1.2343951e-05
-9.9317772e-07
1.2293774e-05
-1.0380919e-06
1.2241455e-05
-1.0831465e-06
1.2186976e-05
-1.128372e-06
1.213032e-05
-1.1737867e-06
1.2071471e-05
-1.2194002e-06
1.201041e-05
-1.2652123e-06
1.1947122e-05
-1.3112146e-06
1.1881591e-05
-1.357389e-06
1.1813801e-05