/*--------------------------------*- C++ -*----------------------------------*\
| =========                 |                                                 |
| \\      /  F ield         | OpenFOAM: The Open Source CFD Toolbox           |
|  \\    /   O peration     | Version:  2406                                  |
|   \\  /    A nd           | Website:  www.openfoam.com                      |
|    \\/     M anipulation  |                                                 |
\*---------------------------------------------------------------------------*/
FoamFile
{
    version     2.0;
    format      ascii;
    arch        "LSB;label=32;scalar=64";
    class       volScalarField;
    location    "800";
    object      TMean;
}
// * * * * * * * * * * * * * * * * * * * * * * * * * * * * * * * * * * * * * //

dimensions      [0 0 0 1 0 0 0];

internalField   nonuniform List<scalar> 
132739
(
1.0007633
1.0007485
1.0007465
1.0007519
1.0007565
1.0007612
1.000767
1.000775
1.0007824
1.0007921
1.0008016
1.0008134
1.0008251
1.0008374
1.0008514
1.0008664
1.0008807
1.0008935
1.0009103
1.0009291
1.000945
1.0009629
1.0009847
1.0010025
1.0010258
1.001046
1.001071
1.0010957
1.0011234
1.0011548
1.0011891
1.0012246
1.0012629
1.0013026
1.0013421
1.0013844
1.0014231
1.0014702
1.0015138
1.0015518
1.0015949
1.0016406
1.0016836
1.001728
1.0017712
1.0018176
1.0018624
1.0019074
1.0019492
1.0019944
1.0020363
1.0020812
1.0021178
1.0021621
1.0022005
1.0022415
1.0022758
1.0023136
1.0023466
1.0023839
1.0024201
1.0024456
1.0024794
1.0025099
1.0025361
1.0025676
1.0025931
1.0026206
1.0026515
1.0026709
1.0026987
1.0027176
1.0027376
1.002751
1.002772
1.0027856
1.0027982
1.0028059
1.0028171
1.0028224
1.002824
1.0028236
1.0028138
1.0027983
1.0027699
1.0027318
1.0026848
1.0026284
1.0025645
1.0024963
1.0024211
1.0023385
1.0022463
1.0021451
1.0020353
1.0019199
1.0017988
1.0016795
1.0015649
1.0014471
1.0013141
1.0011755
1.0010319
1.0008778
1.0007638
1.0007483
1.0007463
1.0007517
1.0007566
1.0007613
1.000768
1.0007763
1.0007838
1.0007925
1.0008031
1.0008147
1.0008248
1.0008382
1.0008538
1.0008662
1.0008804
1.0008975
1.0009131
1.0009291
1.0009462
1.0009636
1.0009862
1.0010045
1.0010267
1.0010471
1.0010719
1.0010974
1.0011245
1.0011547
1.0011904
1.0012244
1.0012636
1.0013008
1.0013413
1.0013846
1.0014229
1.0014667
1.0015067
1.0015527
1.001592
1.0016391
1.0016825
1.0017254
1.0017702
1.0018155
1.0018577
1.0019042
1.0019447
1.0019901
1.0020296
1.0020707
1.0021142
1.0021542
1.0021894
1.0022298
1.0022644
1.0022989
1.0023312
1.0023709
1.0023999
1.0024326
1.0024612
1.0024954
1.0025187
1.0025515
1.0025771
1.0025973
1.0026336
1.0026483
1.0026667
1.0026907
1.0027031
1.0027234
1.0027359
1.002752
1.0027679
1.0027762
1.0027869
1.0027922
1.0027946
1.0027944
1.002785
1.0027712
1.0027504
1.0027199
1.0026792
1.002629
1.002569
1.0025013
1.0024237
1.0023402
1.0022491
1.0021488
1.0020408
1.0019271
1.0018068
1.0016856
1.0015616
1.0014367
1.0013014
1.0011699
1.0010246
1.0008708
1.0007651
1.0007479
1.000747
1.000752
1.0007566
1.0007623
1.0007685
1.0007765
1.0007857
1.0007936
1.0008035
1.0008159
1.0008262
1.0008395
1.0008546
1.0008668
1.0008806
1.0008979
1.0009132
1.0009291
1.000949
1.0009653
1.0009866
1.001005
1.0010262
1.0010468
1.0010694
1.001098
1.0011247
1.0011548
1.0011864
1.0012213
1.0012601
1.0012977
1.0013389
1.0013816
1.0014195
1.001463
1.0015016
1.001549
1.0015878
1.0016366
1.0016797
1.0017212
1.0017688
1.0018105
1.0018543
1.0018987
1.0019383
1.0019811
1.0020233
1.002061
1.0021052
1.0021418
1.0021744
1.0022146
1.002252
1.0022835
1.0023173
1.0023545
1.0023846
1.0024146
1.0024466
1.0024765
1.0025065
1.0025324
1.0025576
1.0025778
1.0026027
1.0026252
1.0026437
1.0026742
1.0026851
1.0027032
1.0027163
1.002729
1.0027365
1.002743
1.0027491
1.0027547
1.0027561
1.0027542
1.0027485
1.0027319
1.0027124
1.0026831
1.0026457
1.0025986
1.0025431
1.0024787
1.0024069
1.0023258
1.0022356
1.0021391
1.0020333
1.0019222
1.0018049
1.0016851
1.0015627
1.0014385
1.0013087
1.0011698
1.0010217
1.0008591
1.0007652
1.0007479
1.0007468
1.0007522
1.0007561
1.0007628
1.0007685
1.0007761
1.0007845
1.0007934
1.0008046
1.000815
1.0008256
1.0008393
1.0008521
1.0008651
1.0008788
1.0008962
1.0009109
1.0009274
1.0009453
1.0009623
1.0009821
1.001001
1.0010226
1.0010442
1.0010667
1.0010932
1.0011213
1.0011507
1.0011859
1.0012192
1.0012588
1.001296
1.0013359
1.001378
1.0014156
1.0014577
1.0015001
1.0015422
1.0015855
1.0016274
1.0016745
1.0017187
1.0017602
1.0018021
1.0018432
1.0018878
1.0019261
1.0019704
1.0020074
1.0020449
1.0020957
1.0021289
1.0021596
1.0021988
1.0022369
1.0022681
1.0023015
1.0023385
1.0023686
1.0023964
1.0024271
1.0024555
1.0024846
1.0025083
1.0025371
1.0025574
1.0025788
1.0026018
1.0026192
1.002638
1.002658
1.0026783
1.0026899
1.0027008
1.0027113
1.0027173
1.0027193
1.0027287
1.0027267
1.002725
1.0027164
1.0027012
1.0026814
1.0026533
1.0026174
1.0025712
1.0025178
1.0024546
1.0023836
1.0023061
1.0022211
1.002128
1.0020268
1.0019197
1.0018028
1.0016857
1.0015626
1.0014408
1.001313
1.0011813
1.0010437
1.0008825
1.0007654
1.000748
1.0007473
1.000752
1.000756
1.0007619
1.0007683
1.000776
1.0007835
1.0007929
1.0008032
1.0008142
1.0008255
1.0008385
1.0008513
1.0008656
1.0008783
1.0008954
1.0009102
1.0009248
1.0009441
1.0009622
1.00098
1.0010017
1.0010223
1.001043
1.0010654
1.0010918
1.0011195
1.0011514
1.0011836
1.0012169
1.0012562
1.0012931
1.0013319
1.0013746
1.0014126
1.0014567
1.0014968
1.0015368
1.0015857
1.0016243
1.0016659
1.0017168
1.0017562
1.0017952
1.0018361
1.0018791
1.0019163
1.0019588
1.0019955
1.0020355
1.0020707
1.0021127
1.0021471
1.0021867
1.0022237
1.0022555
1.0022921
1.0023267
1.0023543
1.0023888
1.0024139
1.0024465
1.0024729
1.0024964
1.0025215
1.0025448
1.0025622
1.0025857
1.0025997
1.0026186
1.0026312
1.0026532
1.0026586
1.0026698
1.0026803
1.0026822
1.0026894
1.0026914
1.0026875
1.0026835
1.002674
1.0026637
1.0026423
1.0026175
1.0025846
1.0025413
1.0024885
1.0024258
1.0023569
1.0022787
1.0021956
1.0021085
1.0020126
1.0019115
1.0018011
1.0016853
1.0015681
1.0014462
1.0013224
1.0011947
1.0010573
1.000906
1.0007654
1.0007479
1.0007471
1.000753
1.0007567
1.0007625
1.0007688
1.0007767
1.0007847
1.0007936
1.000804
1.0008136
1.000826
1.0008372
1.0008506
1.0008657
1.0008768
1.0008926
1.0009102
1.0009245
1.0009429
1.0009611
1.000978
1.0009986
1.0010201
1.0010413
1.0010625
1.0010885
1.0011181
1.0011503
1.0011816
1.0012158
1.0012523
1.0012912
1.0013274
1.0013697
1.0014094
1.0014512
1.0014909
1.0015335
1.0015746
1.001617
1.0016633
1.0017016
1.0017433
1.0017869
1.0018256
1.0018657
1.0019043
1.0019447
1.0019829
1.0020209
1.002062
1.0020989
1.0021372
1.002174
1.00221
1.0022467
1.0022787
1.0023236
1.0023489
1.0023754
1.0024083
1.0024319
1.0024648
1.0024847
1.0025108
1.002528
1.0025583
1.002573
1.0025859
1.0026002
1.0026193
1.0026261
1.0026412
1.0026465
1.0026572
1.0026567
1.0026623
1.0026607
1.0026562
1.0026508
1.0026426
1.0026307
1.0026086
1.0025865
1.0025545
1.0025125
1.0024633
1.0024052
1.0023359
1.0022574
1.0021715
1.0020817
1.0019891
1.0018886
1.0017856
1.0016763
1.0015644
1.0014454
1.0013257
1.0012042
1.0010714
1.0009255
1.0007649
1.0007489
1.0007472
1.0007522
1.0007569
1.0007623
1.0007687
1.0007762
1.0007845
1.0007931
1.0008034
1.0008142
1.0008248
1.0008384
1.0008498
1.0008649
1.0008771
1.000894
1.0009088
1.0009243
1.0009401
1.0009591
1.0009786
1.0009967
1.0010183
1.0010384
1.0010617
1.0010882
1.0011155
1.001148
1.0011781
1.0012147
1.0012497
1.0012907
1.0013251
1.0013651
1.001407
1.0014465
1.0014847
1.0015284
1.0015701
1.0016086
1.0016525
1.001694
1.001734
1.001777
1.0018139
1.0018561
1.0018942
1.0019358
1.0019743
1.0020158
1.0020515
1.0020903
1.0021302
1.0021667
1.0022049
1.0022393
1.0022695
1.0023044
1.0023363
1.0023658
1.0023937
1.0024187
1.0024477
1.0024697
1.0024952
1.002514
1.0025342
1.0025544
1.0025684
1.0025783
1.0025969
1.0026035
1.0026119
1.0026193
1.0026221
1.002621
1.0026265
1.0026234
1.0026169
1.0026131
1.0026018
1.0025887
1.0025684
1.0025455
1.0025146
1.0024787
1.0024325
1.0023759
1.0023116
1.0022376
1.0021558
1.0020669
1.0019745
1.0018766
1.0017707
1.0016611
1.0015502
1.0014371
1.0013203
1.0012056
1.0010802
1.0009436
1.0007655
1.0007482
1.0007476
1.0007523
1.0007567
1.0007622
1.000768
1.0007749
1.0007834
1.000792
1.0008034
1.0008129
1.0008255
1.0008375
1.0008484
1.0008627
1.0008753
1.0008913
1.0009064
1.0009209
1.0009395
1.000956
1.000976
1.0009937
1.0010152
1.0010361
1.0010586
1.0010868
1.0011134
1.0011433
1.0011746
1.0012101
1.0012439
1.0012822
1.0013178
1.0013585
1.0013982
1.0014373
1.0014791
1.0015206
1.0015626
1.001602
1.001644
1.0016852
1.0017258
1.001766
1.0018078
1.0018457
1.0018862
1.001927
1.0019663
1.0020055
1.002046
1.0020827
1.0021214
1.0021571
1.0021917
1.0022315
1.0022602
1.0022938
1.0023284
1.002353
1.0023836
1.0024079
1.0024361
1.0024573
1.0024802
1.0025025
1.0025189
1.0025505
1.0025613
1.002572
1.002584
1.0025912
1.0026023
1.0026069
1.0026111
1.0026067
1.0026056
1.0025985
1.0025919
1.002579
1.0025654
1.0025526
1.0025314
1.002505
1.002475
1.002437
1.002395
1.0023448
1.0022817
1.0022104
1.0021304
1.0020457
1.0019558
1.0018647
1.0017636
1.0016603
1.0015445
1.0014319
1.001313
1.0012002
1.0010804
1.0009523
1.0007655
1.0007485
1.0007478
1.0007524
1.0007565
1.0007615
1.0007691
1.0007747
1.0007839
1.0007922
1.0008035
1.0008134
1.0008256
1.0008356
1.0008495
1.0008613
1.0008758
1.0008902
1.0009054
1.0009185
1.0009363
1.0009534
1.0009732
1.0009914
1.0010124
1.0010328
1.0010561
1.0010814
1.0011091
1.0011375
1.0011716
1.0012046
1.0012389
1.0012749
1.0013116
1.0013546
1.0013934
1.0014318
1.0014756
1.001514
1.001556
1.0015963
1.0016367
1.0016774
1.0017186
1.001758
1.0017996
1.0018381
1.0018829
1.0019217
1.0019595
1.0020013
1.0020384
1.0020758
1.0021133
1.0021484
1.0021843
1.0022194
1.0022483
1.0022794
1.0023151
1.002339
1.002368
1.0023944
1.0024204
1.0024462
1.0024657
1.0024871
1.0025049
1.0025217
1.0025414
1.0025566
1.0025692
1.002576
1.002587
1.002589
1.002596
1.0025933
1.0025888
1.0025816
1.0025715
1.0025562
1.002546
1.0025221
1.0025024
1.0024739
1.002442
1.0024028
1.0023588
1.0023078
1.0022504
1.0021799
1.0021028
1.0020184
1.0019307
1.0018433
1.0017468
1.0016472
1.001542
1.0014355
1.0013177
1.001205
1.0010876
1.0009656
1.0007656
1.0007483
1.0007488
1.0007524
1.0007563
1.0007615
1.0007684
1.0007743
1.0007827
1.0007918
1.000801
1.0008109
1.0008239
1.0008335
1.0008475
1.0008605
1.0008721
1.0008871
1.0009011
1.0009162
1.0009318
1.000949
1.00097
1.0009881
1.0010074
1.0010312
1.0010527
1.0010788
1.0011059
1.0011372
1.0011677
1.0012034
1.0012375
1.0012708
1.0013094
1.0013477
1.0013861
1.0014247
1.0014685
1.0015068
1.0015478
1.0015895
1.001628
1.0016697
1.0017088
1.0017513
1.0017916
1.0018315
1.0018708
1.00191
1.0019494
1.0019898
1.0020277
1.0020658
1.0021016
1.0021389
1.0021727
1.0022043
1.002235
1.0022697
1.0022982
1.0023299
1.0023547
1.0023845
1.0024079
1.0024315
1.0024513
1.0024746
1.0024911
1.002508
1.0025242
1.0025347
1.0025477
1.0025563
1.0025618
1.0025661
1.0025674
1.0025661
1.0025663
1.002555
1.0025672
1.0025483
1.0025277
1.0025051
1.0024787
1.0024498
1.002417
1.0023761
1.0023313
1.0022787
1.0022197
1.0021533
1.0020761
1.0019952
1.0019041
1.0018161
1.0017224
1.0016279
1.0015221
1.0014214
1.0013064
1.0011973
1.0010821
1.0009636
1.0007658
1.0007484
1.0007483
1.0007526
1.0007564
1.0007615
1.0007677
1.0007736
1.0007816
1.0007912
1.0008002
1.0008094
1.0008219
1.0008307
1.0008449
1.0008558
1.0008693
1.000884
1.0008976
1.0009122
1.0009281
1.0009486
1.0009656
1.0009833
1.0010039
1.0010267
1.0010479
1.0010765
1.0011044
1.0011343
1.0011665
1.0011996
1.0012326
1.0012698
1.0013051
1.0013434
1.0013802
1.0014201
1.0014611
1.0014993
1.0015379
1.0015815
1.0016194
1.0016627
1.0017015
1.0017413
1.0017836
1.0018231
1.0018636
1.0019015
1.0019441
1.0019826
1.0020193
1.0020579
1.002092
1.002127
1.0021632
1.0021944
1.0022261
1.0022666
1.0022926
1.0023228
1.0023481
1.002376
1.0023998
1.0024181
1.0024379
1.0024729
1.0024815
1.0025093
1.0025159
1.0025264
1.0025357
1.0025425
1.0025491
1.0025485
1.0025547
1.0025503
1.0025451
1.0025354
1.0025284
1.0025162
1.0025013
1.0024794
1.0024538
1.0024246
1.0023889
1.0023525
1.0023056
1.002255
1.0021948
1.0021315
1.0020521
1.0019729
1.001886
1.0017974
1.0017043
1.0016083
1.0015117
1.0014092
1.0013015
1.0011927
1.0010804
1.0009605
1.0007657
1.0007485
1.0007475
1.0007524
1.0007565
1.0007606
1.0007674
1.0007735
1.0007828
1.000791
1.0007995
1.0008108
1.0008202
1.0008301
1.0008419
1.0008527
1.0008676
1.0008801
1.0008957
1.000909
1.0009283
1.0009424
1.000961
1.0009781
1.0009985
1.0010218
1.001043
1.0010722
1.0011004
1.0011305
1.0011611
1.0011971
1.001228
1.0012655
1.001298
1.0013396
1.0013737
1.001415
1.0014553
1.0014925
1.0015298
1.0015748
1.0016112
1.0016549
1.0016942
1.0017338
1.0017746
1.0018147
1.0018529
1.0018937
1.0019308
1.0019723
1.0020112
1.002046
1.0020843
1.0021184
1.0021544
1.0021865
1.002221
1.0022499
1.0022785
1.0023067
1.0023432
1.0023657
1.0023824
1.0024044
1.0024354
1.002449
1.0024662
1.0024849
1.002497
1.0025165
1.0025213
1.0025308
1.0025368
1.0025351
1.002534
1.0025324
1.0025239
1.0025163
1.0025026
1.0024881
1.0024718
1.0024506
1.0024239
1.0023947
1.0023592
1.0023185
1.0022767
1.0022229
1.0021657
1.0021017
1.0020301
1.0019514
1.0018618
1.0017713
1.0016785
1.0015819
1.0014852
1.0013833
1.0012786
1.0011713
1.001059
1.000951
1.0007653
1.0007489
1.0007469
1.0007512
1.0007563
1.0007598
1.0007661
1.0007722
1.0007801
1.0007888
1.0007974
1.0008089
1.0008171
1.0008286
1.00084
1.00085
1.0008632
1.0008767
1.0008905
1.0009042
1.0009228
1.0009369
1.0009561
1.0009726
1.0009923
1.0010163
1.0010383
1.0010681
1.0010945
1.0011272
1.0011571
1.0011919
1.0012237
1.0012597
1.0012946
1.0013323
1.0013666
1.0014068
1.0014453
1.0014829
1.0015264
1.0015639
1.0016036
1.0016453
1.0016857
1.001726
1.0017666
1.0018055
1.0018454
1.0018837
1.0019212
1.001962
1.0019963
1.0020348
1.0020711
1.0021053
1.0021417
1.0021768
1.0022087
1.0022383
1.0022658
1.0022957
1.0023206
1.0023448
1.0023721
1.0023923
1.0024098
1.0024374
1.0024517
1.0024802
1.0024892
1.0024952
1.0025047
1.0025283
1.0025281
1.0025259
1.0025261
1.0025249
1.0025172
1.002504
1.0024913
1.0024727
1.0024517
1.0024275
1.0023997
1.0023704
1.0023332
1.0022902
1.0022457
1.0021957
1.0021378
1.0020755
1.0020003
1.0019372
1.0018548
1.0017624
1.0016642
1.0015652
1.0014644
1.0013625
1.0012591
1.0011516
1.0010378
1.0009296
1.0007655
1.0007486
1.0007469
1.0007507
1.0007554
1.0007601
1.0007645
1.0007725
1.0007788
1.0007886
1.0007964
1.0008073
1.0008161
1.0008271
1.0008371
1.0008479
1.0008607
1.0008744
1.0008873
1.0009013
1.0009172
1.0009318
1.0009497
1.0009665
1.0009893
1.0010102
1.0010356
1.0010651
1.0010914
1.0011233
1.0011533
1.0011864
1.0012199
1.0012528
1.0012909
1.0013237
1.0013632
1.0013997
1.0014387
1.0014764
1.0015184
1.0015555
1.0015942
1.0016367
1.0016767
1.0017157
1.0017544
1.0017942
1.001834
1.0018721
1.0019131
1.0019507
1.0019857
1.0020242
1.0020625
1.0020955
1.0021295
1.0021648
1.0021949
1.0022259
1.002254
1.0022792
1.0023128
1.0023321
1.0023552
1.0023871
1.002401
1.0024264
1.0024385
1.0024534
1.0024729
1.0024807
1.0024873
1.0024979
1.0025042
1.0025053
1.0025039
1.0025173
1.0025076
1.0024941
1.0024827
1.0024619
1.0024425
1.0024161
1.0023873
1.0023549
1.0023159
1.0022705
1.0022216
1.0021716
1.0021086
1.002046
1.0019748
1.0018995
1.0018221
1.001736
1.0016411
1.0015435
1.0014396
1.0013344
1.0012295
1.0011266
1.0010118
1.0009025
1.0007658
1.0007482
1.000747
1.0007507
1.0007555
1.0007595
1.0007645
1.0007716
1.0007785
1.0007857
1.0007944
1.0008056
1.0008141
1.0008258
1.0008348
1.0008455
1.0008571
1.0008707
1.0008829
1.0008979
1.0009131
1.0009273
1.0009456
1.0009623
1.0009856
1.0010059
1.0010339
1.0010591
1.0010889
1.0011205
1.0011505
1.0011822
1.0012168
1.0012478
1.0012839
1.0013178
1.0013574
1.0013932
1.0014337
1.0014702
1.00151
1.0015472
1.0015878
1.001627
1.0016655
1.0017048
1.0017443
1.0017851
1.0018235
1.0018615
1.001902
1.0019391
1.0019758
1.0020142
1.0020499
1.0020854
1.002115
1.0021532
1.0021818
1.002211
1.0022413
1.002265
1.0022974
1.0023175
1.0023475
1.0023671
1.0023838
1.0024037
1.0024264
1.002438
1.0024544
1.002461
1.0024687
1.0024776
1.0024796
1.0024845
1.0024864
1.0024871
1.0024826
1.0024733
1.0024644
1.0024471
1.002427
1.0024029
1.0023742
1.0023396
1.0022998
1.0022526
1.0022004
1.0021482
1.0020862
1.002023
1.0019504
1.0018753
1.0017954
1.0017101
1.0016151
1.0015224
1.0014166
1.0013127
1.0012065
1.0010987
1.0009825
1.0008743
1.0007659
1.0007483
1.0007465
1.0007503
1.0007548
1.0007589
1.0007652
1.0007705
1.0007785
1.0007849
1.0007951
1.0008038
1.0008127
1.0008231
1.0008314
1.0008437
1.000854
1.000867
1.0008801
1.000894
1.0009082
1.0009238
1.0009413
1.0009587
1.0009808
1.0010026
1.0010299
1.0010551
1.0010857
1.0011158
1.0011446
1.0011796
1.0012105
1.0012438
1.0012783
1.0013121
1.0013508
1.0013869
1.0014239
1.0014609
1.0014999
1.0015378
1.0015787
1.0016188
1.0016564
1.0016972
1.0017353
1.0017739
1.0018138
1.0018501
1.0018915
1.0019268
1.0019643
1.0019997
1.0020355
1.0020701
1.0021003
1.0021314
1.0021662
1.002196
1.0022225
1.0022528
1.0022777
1.0023056
1.0023276
1.00235
1.0023692
1.0023906
1.0024056
1.002422
1.0024401
1.0024444
1.0024553
1.0024671
1.0024681
1.0024737
1.0024763
1.0024734
1.0024755
1.002465
1.0024565
1.0024388
1.0024192
1.0023941
1.0023661
1.0023324
1.0022889
1.0022405
1.0021824
1.0021259
1.0020601
1.0019972
1.0019237
1.0018504
1.0017693
1.0016853
1.0015912
1.0014969
1.0013956
1.0012866
1.0011806
1.0010728
1.0009545
1.0008456
1.0007662
1.0007482
1.0007467
1.00075
1.0007544
1.0007584
1.0007647
1.0007701
1.0007779
1.000784
1.0007936
1.0008013
1.000812
1.00082
1.0008305
1.0008409
1.0008513
1.0008654
1.0008765
1.0008918
1.0009058
1.0009208
1.0009365
1.0009555
1.0009756
1.0009995
1.0010246
1.0010507
1.001081
1.0011101
1.0011396
1.0011745
1.0012036
1.0012387
1.0012724
1.0013057
1.0013418
1.0013782
1.0014153
1.0014536
1.0014888
1.00153
1.0015684
1.001608
1.0016455
1.0016872
1.001725
1.0017633
1.0018025
1.0018409
1.0018781
1.0019148
1.0019523
1.0019881
1.0020207
1.0020542
1.0020896
1.0021195
1.0021491
1.0021813
1.0022097
1.0022358
1.0022642
1.0022859
1.002311
1.0023311
1.0023522
1.0023787
1.0023907
1.0024072
1.0024256
1.0024334
1.0024433
1.0024518
1.0024545
1.0024578
1.0024612
1.0024575
1.0024554
1.0024475
1.0024426
1.0024272
1.0024058
1.0023831
1.0023554
1.0023217
1.0022779
1.0022276
1.0021688
1.0021093
1.0020406
1.0019743
1.001898
1.0018241
1.0017418
1.0016595
1.0015649
1.0014718
1.0013744
1.0012671
1.0011585
1.0010519
1.0009311
1.0008205
1.0007664
1.0007478
1.0007467
1.0007498
1.0007542
1.000758
1.0007638
1.0007694
1.0007766
1.0007833
1.0007905
1.0008014
1.0008092
1.0008195
1.0008277
1.0008379
1.0008492
1.0008627
1.0008738
1.0008882
1.0009013
1.0009165
1.0009333
1.0009517
1.0009723
1.0009965
1.0010203
1.0010485
1.0010765
1.0011049
1.001136
1.0011676
1.0011972
1.0012323
1.0012646
1.0012996
1.0013341
1.0013711
1.0014057
1.0014459
1.001481
1.0015201
1.0015582
1.0015971
1.0016368
1.0016753
1.0017136
1.0017541
1.001793
1.0018297
1.0018666
1.0019017
1.0019399
1.0019739
1.0020078
1.0020415
1.0020726
1.0021079
1.0021364
1.0021641
1.0021989
1.0022229
1.0022505
1.0022731
1.002294
1.0023186
1.0023362
1.0023622
1.0023743
1.0023872
1.002405
1.0024117
1.0024209
1.0024314
1.0024349
1.0024353
1.0024374
1.0024352
1.0024321
1.0024216
1.0024149
1.0024004
1.0023797
1.0023625
1.0023355
1.0023066
1.0022666
1.0022194
1.0021572
1.0020921
1.0020185
1.001951
1.0018705
1.0017975
1.0017128
1.0016363
1.001543
1.00145
1.0013501
1.0012449
1.0011365
1.0010312
1.0009097
1.0007978
1.0007658
1.0007481
1.0007465
1.0007501
1.0007537
1.000757
1.0007632
1.0007683
1.0007743
1.0007824
1.0007892
1.0007996
1.0008069
1.0008171
1.000825
1.0008347
1.0008458
1.0008586
1.0008691
1.0008831
1.0008962
1.0009119
1.0009274
1.000948
1.0009677
1.0009927
1.0010158
1.0010433
1.0010718
1.0011003
1.001129
1.0011619
1.0011912
1.0012243
1.0012575
1.0012916
1.001327
1.0013628
1.0013973
1.0014372
1.0014735
1.0015111
1.0015499
1.0015889
1.0016272
1.0016659
1.0017029
1.0017431
1.0017812
1.001817
1.0018535
1.0018915
1.0019256
1.0019611
1.0019936
1.0020292
1.0020596
1.0020917
1.002122
1.0021518
1.002178
1.0022051
1.0022366
1.0022577
1.0022784
1.0023014
1.0023195
1.0023385
1.002356
1.002368
1.002386
1.0023909
1.0024006
1.0024151
1.0024148
1.0024123
1.0024115
1.0024078
1.0024071
1.0023982
1.0023894
1.002374
1.0023536
1.002332
1.0023078
1.0022767
1.0022383
1.0021934
1.0021358
1.0020744
1.0019993
1.0019268
1.0018456
1.001768
1.0016828
1.0016007
1.0015087
1.0014217
1.0013228
1.0012211
1.0011122
1.0010055
1.0008901
1.0007812
1.0007658
1.0007477
1.0007464
1.0007496
1.000753
1.0007567
1.0007615
1.0007679
1.0007728
1.000781
1.0007875
1.0007981
1.000805
1.0008142
1.0008214
1.0008319
1.0008409
1.0008532
1.0008636
1.0008774
1.0008911
1.0009051
1.0009226
1.0009423
1.0009628
1.0009884
1.0010112
1.0010406
1.0010659
1.0010963
1.001123
1.0011557
1.001185
1.0012177
1.0012507
1.001285
1.0013184
1.0013555
1.0013908
1.0014287
1.0014652
1.0015024
1.0015389
1.0015809
1.0016185
1.0016558
1.0016943
1.0017309
1.0017683
1.001804
1.0018442
1.0018795
1.0019147
1.0019497
1.0019824
1.002016
1.0020468
1.0020786
1.0021079
1.0021383
1.0021633
1.0021908
1.0022154
1.0022418
1.0022623
1.0022861
1.0023031
1.0023169
1.002337
1.0023495
1.0023603
1.0023691
1.0023787
1.0023838
1.0023906
1.0023914
1.0023877
1.0023831
1.002381
1.0023708
1.0023624
1.0023455
1.0023264
1.0023045
1.0022796
1.0022497
1.0022124
1.0021694
1.0021112
1.0020524
1.0019767
1.0019065
1.0018211
1.0017447
1.0016553
1.0015743
1.0014776
1.0013897
1.0012901
1.0011909
1.0010814
1.0009781
1.0008608
1.0007528
1.0007661
1.0007474
1.0007466
1.0007489
1.0007527
1.0007563
1.0007606
1.0007668
1.000771
1.0007796
1.0007859
1.0007952
1.0008016
1.0008105
1.0008174
1.0008278
1.0008366
1.0008478
1.0008588
1.0008729
1.0008845
1.0009006
1.0009172
1.0009382
1.0009585
1.0009834
1.0010064
1.0010359
1.0010613
1.0010905
1.0011178
1.0011491
1.0011781
1.0012112
1.0012431
1.0012771
1.0013119
1.0013477
1.0013834
1.0014196
1.0014558
1.0014932
1.0015311
1.0015683
1.0016072
1.0016444
1.0016819
1.0017198
1.0017557
1.0017924
1.0018297
1.0018656
1.0019019
1.0019351
1.0019695
1.0020017
1.0020336
1.0020642
1.0020945
1.0021251
1.0021496
1.0021771
1.0022028
1.0022222
1.0022435
1.0022657
1.0022834
1.0022972
1.0023124
1.0023307
1.0023376
1.0023503
1.0023541
1.0023673
1.002366
1.0023662
1.0023634
1.0023555
1.0023533
1.0023417
1.0023329
1.0023167
1.0022961
1.0022803
1.0022532
1.00222
1.0021869
1.0021431
1.0020876
1.0020273
1.001953
1.0018813
1.0017967
1.0017179
1.0016233
1.0015395
1.0014413
1.00135
1.0012543
1.0011572
1.0010524
1.0009479
1.0008323
1.0007295
1.0007661
1.0007471
1.0007461
1.0007487
1.0007519
1.0007554
1.0007595
1.0007648
1.0007691
1.0007768
1.0007842
1.0007911
1.0007998
1.0008051
1.0008145
1.000823
1.0008317
1.0008427
1.000853
1.0008663
1.0008788
1.0008958
1.0009124
1.0009319
1.0009539
1.0009788
1.0010014
1.0010299
1.0010551
1.0010839
1.0011113
1.0011425
1.0011715
1.0012033
1.0012372
1.0012695
1.0013046
1.0013385
1.0013748
1.0014106
1.0014464
1.001485
1.0015196
1.0015595
1.0015959
1.0016337
1.001668
1.0017088
1.0017423
1.0017813
1.0018146
1.0018541
1.0018869
1.0019222
1.0019544
1.0019863
1.002022
1.0020503
1.0020826
1.0021111
1.0021362
1.002161
1.0021867
1.0022067
1.0022282
1.0022526
1.0022672
1.0022858
1.0022959
1.00231
1.002322
1.0023287
1.0023387
1.0023403
1.0023488
1.0023438
1.002342
1.0023352
1.0023268
1.0023175
1.0023013
1.0022886
1.0022636
1.0022475
1.0022207
1.0021909
1.0021581
1.0021155
1.0020668
1.0020079
1.0019376
1.0018644
1.0017822
1.0017008
1.001607
1.0015174
1.0014172
1.001319
1.0012162
1.0011166
1.0010108
1.0009088
1.0007988
1.0006969
1.0007664
1.0007467
1.0007458
1.0007483
1.0007511
1.0007542
1.0007587
1.0007625
1.0007689
1.000774
1.0007829
1.0007882
1.0007969
1.0008014
1.00081
1.0008189
1.0008259
1.0008376
1.0008476
1.0008591
1.0008744
1.0008879
1.0009078
1.0009262
1.0009499
1.0009719
1.0009962
1.0010235
1.0010482
1.0010771
1.0011044
1.0011349
1.0011645
1.0011955
1.0012299
1.00126
1.0012974
1.00133
1.0013653
1.0014017
1.0014362
1.0014757
1.001509
1.0015493
1.0015829
1.0016207
1.0016569
1.0016949
1.0017289
1.0017668
1.0018017
1.0018366
1.0018728
1.0019058
1.0019405
1.0019724
1.0020048
1.0020361
1.0020649
1.0020921
1.0021187
1.0021474
1.002168
1.0021908
1.0022134
1.0022306
1.002248
1.0022694
1.00228
1.0022945
1.0023039
1.0023144
1.0023193
1.0023265
1.0023257
1.0023253
1.0023202
1.0023125
1.0023011
1.0022915
1.0022723
1.0022618
1.0022377
1.0022131
1.002187
1.0021546
1.0021214
1.0020826
1.0020343
1.0019796
1.001913
1.0018435
1.0017639
1.0016825
1.0015917
1.0015017
1.0014024
1.0013036
1.0012002
1.0010947
1.0009842
1.000878
1.000763
1.0006615
1.0007668
1.0007464
1.0007459
1.000748
1.0007503
1.0007532
1.0007578
1.0007607
1.0007673
1.0007719
1.0007803
1.0007852
1.0007926
1.0007975
1.0008054
1.0008133
1.0008199
1.0008322
1.0008414
1.000853
1.0008672
1.0008816
1.0009017
1.0009206
1.0009443
1.000966
1.00099
1.0010167
1.0010416
1.0010698
1.0010979
1.0011257
1.001158
1.0011869
1.0012192
1.0012513
1.0012863
1.0013189
1.0013547
1.0013903
1.0014262
1.001462
1.001498
1.0015355
1.0015703
1.001609
1.0016424
1.0016811
1.0017153
1.0017525
1.0017883
1.0018227
1.0018565
1.0018922
1.0019246
1.0019554
1.0019924
1.0020194
1.0020473
1.0020743
1.0021006
1.002128
1.0021516
1.0021709
1.0021953
1.0022115
1.0022273
1.0022462
1.0022576
1.0022751
1.0022817
1.0022924
1.0023007
1.0023025
1.0023013
1.002302
1.0022953
1.0022901
1.0022803
1.0022658
1.002248
1.0022336
1.0022091
1.0021834
1.0021535
1.0021196
1.0020847
1.002045
1.0019971
1.0019466
1.0018854
1.0018187
1.0017458
1.0016649
1.0015769
1.0014862
1.0013891
1.0012887
1.0011857
1.0010798
1.000969
1.0008604
1.0007401
1.0006344
1.000767
1.0007461
1.0007455
1.0007478
1.0007492
1.0007523
1.000756
1.0007592
1.000765
1.0007695
1.0007775
1.000782
1.0007886
1.000793
1.0008004
1.0008076
1.0008137
1.0008251
1.0008342
1.0008464
1.0008599
1.0008753
1.0008955
1.000914
1.0009381
1.0009588
1.0009844
1.0010085
1.0010353
1.0010601
1.00109
1.0011172
1.0011477
1.0011778
1.0012097
1.0012413
1.0012756
1.0013084
1.0013429
1.0013799
1.0014141
1.00145
1.0014866
1.0015227
1.0015578
1.0015947
1.0016298
1.0016667
1.0017019
1.0017375
1.0017728
1.0018072
1.0018407
1.0018746
1.0019062
1.0019375
1.0019705
1.001998
1.0020267
1.0020561
1.0020804
1.0021065
1.0021301
1.0021491
1.0021691
1.0021926
1.0022065
1.002223
1.0022335
1.0022472
1.0022571
1.0022637
1.0022743
1.002276
1.0022756
1.0022769
1.0022738
1.0022643
1.0022573
1.0022399
1.0022244
1.002206
1.0021795
1.002157
1.0021239
1.0020925
1.0020508
1.0020116
1.0019629
1.0019125
1.0018528
1.0017903
1.0017202
1.001643
1.0015603
1.00147
1.0013773
1.001278
1.0011736
1.0010676
1.0009564
1.000846
1.0007266
1.0006184
1.0007671
1.0007458
1.0007448
1.0007475
1.0007485
1.0007513
1.0007547
1.0007578
1.0007631
1.0007672
1.000775
1.0007786
1.0007846
1.0007885
1.000795
1.000801
1.0008087
1.0008179
1.000827
1.0008394
1.0008528
1.0008695
1.0008885
1.000908
1.0009307
1.0009513
1.0009776
1.001
1.0010276
1.0010516
1.0010803
1.0011077
1.0011379
1.0011665
1.0012001
1.0012307
1.0012648
1.001298
1.0013326
1.0013665
1.0014029
1.0014379
1.0014729
1.0015097
1.0015453
1.0015811
1.0016153
1.0016534
1.0016867
1.0017228
1.001756
1.0017896
1.0018226
1.0018552
1.0018875
1.0019181
1.001948
1.0019781
1.0020063
1.0020344
1.0020613
1.0020851
1.0021064
1.0021267
1.0021509
1.0021653
1.0021854
1.002199
1.0022101
1.0022225
1.0022318
1.0022373
1.0022429
1.0022493
1.0022475
1.0022528
1.002247
1.0022395
1.0022315
1.0022182
1.0021999
1.0021824
1.0021556
1.0021307
1.0020974
1.0020629
1.0020227
1.0019807
1.0019325
1.0018816
1.0018248
1.0017616
1.0016964
1.0016223
1.0015438
1.0014575
1.0013663
1.0012698
1.0011677
1.0010627
1.0009506
1.0008388
1.0007201
1.0006059
1.0007669
1.0007455
1.0007444
1.0007468
1.000748
1.0007506
1.0007535
1.0007564
1.0007613
1.0007651
1.0007718
1.000775
1.0007805
1.0007833
1.0007894
1.0007951
1.0008023
1.000811
1.0008201
1.0008321
1.0008468
1.000863
1.000882
1.0009018
1.0009226
1.0009447
1.0009684
1.0009914
1.0010176
1.0010424
1.0010702
1.0010973
1.0011275
1.0011566
1.001188
1.0012199
1.0012528
1.001286
1.0013211
1.0013537
1.0013899
1.0014242
1.0014601
1.0014951
1.0015309
1.0015664
1.0016015
1.0016365
1.0016707
1.0017055
1.0017397
1.0017719
1.001805
1.0018367
1.0018696
1.001899
1.0019296
1.001957
1.0019851
1.0020136
1.0020376
1.0020631
1.002083
1.0021039
1.0021281
1.0021418
1.0021629
1.0021758
1.0021857
1.0022003
1.0022074
1.0022136
1.0022213
1.0022219
1.0022218
1.0022243
1.0022182
1.0022141
1.0022046
1.0021921
1.0021735
1.0021557
1.0021312
1.0021042
1.00207
1.0020364
1.0019941
1.001951
1.0019025
1.0018507
1.0017934
1.0017332
1.001666
1.0015964
1.0015208
1.0014392
1.0013521
1.001262
1.0011616
1.001061
1.0009511
1.0008403
1.0007181
1.0006043
1.0007664
1.0007457
1.0007438
1.0007464
1.0007475
1.0007496
1.0007523
1.0007552
1.0007594
1.0007628
1.0007684
1.000771
1.0007755
1.0007781
1.0007833
1.0007893
1.0007949
1.0008041
1.0008128
1.0008254
1.0008407
1.0008564
1.0008753
1.0008949
1.0009153
1.0009369
1.0009601
1.0009822
1.0010078
1.0010333
1.0010609
1.0010865
1.001117
1.001146
1.001177
1.0012085
1.001241
1.0012735
1.0013075
1.0013417
1.0013752
1.0014109
1.0014456
1.0014803
1.0015153
1.0015513
1.0015846
1.0016203
1.0016548
1.0016866
1.0017228
1.0017536
1.0017869
1.0018201
1.0018507
1.0018794
1.0019101
1.0019373
1.0019657
1.0019901
1.0020171
1.0020386
1.0020643
1.0020819
1.0021034
1.0021176
1.0021339
1.002152
1.0021616
1.0021729
1.0021809
1.0021908
1.0021932
1.002198
1.0021962
1.0021964
1.0021917
1.002185
1.0021733
1.0021629
1.0021429
1.0021248
1.0020988
1.002072
1.0020404
1.0020034
1.001966
1.0019209
1.0018721
1.0018224
1.0017624
1.0017006
1.0016339
1.001565
1.0014893
1.0014119
1.0013263
1.0012397
1.0011445
1.0010477
1.000941
1.0008363
1.0007172
1.0006036
1.0007661
1.0007458
1.0007431
1.0007457
1.0007468
1.000748
1.0007509
1.0007534
1.0007572
1.0007602
1.0007649
1.0007663
1.00077
1.0007723
1.0007767
1.0007825
1.000788
1.0007966
1.0008062
1.0008189
1.0008337
1.0008504
1.0008681
1.0008875
1.0009082
1.0009287
1.0009514
1.0009736
1.0009989