/*--------------------------------*- C++ -*----------------------------------*\
| =========                 |                                                 |
| \\      /  F ield         | OpenFOAM: The Open Source CFD Toolbox           |
|  \\    /   O peration     | Version:  2406                                  |
|   \\  /    A nd           | Website:  www.openfoam.com                      |
|    \\/     M anipulation  |                                                 |
\*---------------------------------------------------------------------------*/
FoamFile
{
    version     2.0;
    format      ascii;
    arch        "LSB;label=32;scalar=64";
    class       volScalarField;
    location    "165";
    object      k_0;
}
// * * * * * * * * * * * * * * * * * * * * * * * * * * * * * * * * * * * * * //

dimensions      [0 2 -2 0 0 0 0];

internalField   nonuniform List<scalar> 
20580
(
3.2301378e-06
2.5595242e-06
1.9892698e-06
1.6006607e-06
1.3408508e-06
1.1624707e-06
1.0256511e-06
9.2063106e-07
8.3681694e-07
7.6649814e-07
7.1060932e-07
6.6462461e-07
6.2641816e-07
5.9367927e-07
5.6610808e-07
5.4420764e-07
5.3073931e-07
5.1955609e-07
5.126988e-07
5.1596863e-07
5.1830495e-07
5.219237e-07
5.3747058e-07
5.7332125e-07
6.5217317e-07
6.9428346e-07
7.6715033e-07
7.8743023e-07
7.3649045e-07
7.5232751e-07
8.0241212e-07
3.2511035e-06
2.6143054e-06
2.0947798e-06
1.7025887e-06
1.4145249e-06
1.2110915e-06
1.0544698e-06
9.3965526e-07
8.5032732e-07
7.7527947e-07
7.1663042e-07
6.7053487e-07
6.3119769e-07
5.9898436e-07
5.6937613e-07
5.484828e-07
5.3840735e-07
5.26712e-07
5.1850495e-07
5.2288005e-07
5.2920172e-07
5.3187045e-07
5.4488292e-07
5.8090083e-07
6.4850643e-07
7.715995e-07
8.5474541e-07
9.9993154e-07
1.0728129e-06
1.1238121e-06
1.0465482e-06
3.25736e-06
2.6263205e-06
2.1201209e-06
1.7728478e-06
1.4986367e-06
1.2863076e-06
1.1144582e-06
9.8198466e-07
8.798396e-07
7.9505431e-07
7.2903778e-07
6.8014162e-07
6.3728644e-07
6.0486444e-07
5.7299768e-07
5.5229603e-07
5.3735418e-07
5.2598842e-07
5.1495589e-07
5.1634156e-07
5.1880408e-07
5.2243235e-07
5.3242664e-07
5.5546425e-07
6.0424461e-07
7.1400875e-07
8.0400065e-07
9.6528711e-07
1.0714719e-06
1.1920061e-06
1.3149145e-06
3.2682112e-06
2.635975e-06
2.110431e-06
1.7773943e-06
1.5312596e-06
1.3357026e-06
1.169808e-06
1.0312888e-06
9.2001974e-07
8.2799512e-07
7.5399999e-07
6.9868379e-07
6.5077322e-07
6.1377246e-07
5.7985655e-07
5.5575705e-07
5.3814023e-07
5.2542586e-07
5.163611e-07
5.1242633e-07
5.1174419e-07
5.1549497e-07
5.2439234e-07
5.3996011e-07
5.7806333e-07
6.46071e-07
7.6053825e-07
8.858805e-07
1.0055447e-06
1.127781e-06
1.2602902e-06
3.283001e-06
2.664404e-06
2.0834531e-06
1.7591571e-06
1.5274655e-06
1.3408987e-06
1.1831952e-06
1.0484372e-06
9.3667963e-07
8.4622956e-07
7.7346165e-07
7.1479569e-07
6.6804996e-07
6.2655864e-07
5.9302765e-07
5.6370618e-07
5.4219276e-07
5.2697551e-07
5.1891776e-07
5.1211311e-07
5.1132728e-07
5.1659473e-07
5.2597414e-07
5.3773336e-07
5.7224123e-07
6.4578195e-07
7.2521238e-07
8.775775e-07
9.964075e-07
1.2555568e-06
1.314395e-06
3.294975e-06
2.6936482e-06
2.0591943e-06
1.7128948e-06
1.4917944e-06
1.3168535e-06
1.1667621e-06
1.0387135e-06
9.3142026e-07
8.4413861e-07
7.7559213e-07
7.17633e-07
6.7514994e-07
6.3502989e-07
6.0459695e-07
5.7490822e-07
5.5248149e-07
5.3382496e-07
5.2457038e-07
5.1421075e-07
5.1300121e-07
5.1848343e-07
5.2442058e-07
5.2972485e-07
5.528309e-07
6.2235623e-07
6.9613275e-07
8.4656917e-07
9.6157405e-07
1.2485733e-06
1.3831034e-06
3.2936972e-06
2.6859978e-06
2.0345144e-06
1.6693142e-06
1.4300193e-06
1.2488751e-06
1.1083001e-06
9.9439555e-07
9.0108426e-07
8.2487637e-07
7.6545711e-07
7.1292914e-07
6.725925e-07
6.3534186e-07
6.0967456e-07
5.8028059e-07
5.6235526e-07
5.4553548e-07
5.3752953e-07
5.2236567e-07
5.1795386e-07
5.2282699e-07
5.2524114e-07
5.2467583e-07
5.3197693e-07
5.6238044e-07
6.0965221e-07
7.1494549e-07
8.2512358e-07
1.0745397e-06
1.4055543e-06
3.298534e-06
2.660117e-06
2.0285353e-06
1.6519324e-06
1.3997195e-06
1.2159676e-06
1.0729208e-06
9.605058e-07
8.7046863e-07
7.9973137e-07
7.4328895e-07
6.991689e-07
6.6334803e-07
6.319959e-07
6.0808983e-07
5.8537846e-07
5.6830414e-07
5.5759257e-07
5.535334e-07
5.4487398e-07
5.357244e-07
5.3897181e-07
5.4238854e-07
5.4256865e-07
5.452608e-07
5.6347018e-07
5.9581132e-07
6.3640407e-07
7.0776197e-07
8.0411752e-07
1.1335853e-06
3.4002208e-06
2.7600876e-06
2.1267042e-06
1.7165709e-06
1.4377921e-06
1.2395209e-06
1.0857621e-06
9.6588346e-07
8.7093239e-07
7.9654141e-07
7.3713756e-07
6.9140805e-07
6.5475403e-07
6.2655151e-07
6.0405774e-07
5.8626453e-07
5.6956735e-07
5.6530769e-07
5.6502842e-07
5.6224495e-07
5.6392353e-07
5.7285397e-07
5.8616449e-07
6.0412813e-07
6.1955785e-07
6.3758047e-07
6.7289967e-07
7.1160084e-07
7.7201223e-07
8.5189866e-07
9.6776144e-07
4.1657057e-06
3.8932544e-06
3.0579998e-06
2.2771987e-06
1.7920043e-06
1.4643379e-06
1.2254142e-06
1.0485572e-06
9.1758504e-07
8.2197069e-07
7.4996936e-07
6.9671342e-07
6.5624525e-07
6.2456789e-07
5.9930409e-07
5.8197842e-07
5.6472902e-07
5.6098574e-07
5.6128652e-07
5.6111914e-07
5.6781209e-07
5.8233234e-07
6.0021752e-07
6.3834732e-07
6.6944942e-07
7.2769243e-07
7.8478471e-07
9.0534993e-07
9.7126429e-07
1.1542999e-06
1.1919284e-06
5.6269129e-06
5.2058213e-06
4.2454612e-06
3.5800856e-06
2.9375547e-06
2.359948e-06
1.8617112e-06
1.4706214e-06
1.1705406e-06
9.6761584e-07
8.3439169e-07
7.4542302e-07
6.8477562e-07
6.4162792e-07
6.1021203e-07
5.8781655e-07
5.6989055e-07
5.6125803e-07
5.5868842e-07
5.5840988e-07
5.650715e-07
5.7609219e-07
5.9085164e-07
6.2898665e-07
6.6164807e-07
7.0910199e-07
7.5787574e-07
8.796212e-07
1.0112065e-06
1.2090275e-06
1.3490006e-06
3.8285089e-06
3.6003624e-06
3.5356251e-06
3.328727e-06
2.9706075e-06
2.6143725e-06
2.2515017e-06
1.8994498e-06
1.5928213e-06
1.3297257e-06
1.114752e-06
9.5236532e-07
8.3159938e-07
7.4783911e-07
6.9509801e-07
6.6080411e-07
6.3831274e-07
6.2400434e-07
6.1717083e-07
6.123889e-07
6.1237394e-07
6.1304512e-07
6.168363e-07
6.3663661e-07
6.7051376e-07
6.8490642e-07
7.0166868e-07
7.5172641e-07
8.8302625e-07
1.0447595e-06
1.303139e-06
3.1136734e-06
2.5063919e-06
2.2105478e-06
2.1019698e-06
2.0200501e-06
1.912921e-06
1.7676412e-06
1.5957902e-06
1.4512716e-06
1.2919669e-06
1.1561331e-06
1.0645867e-06
1.0065436e-06
9.6769329e-07
9.4073926e-07
9.2827962e-07
9.2496296e-07
9.2656861e-07
9.2876267e-07
9.3030039e-07
9.3359948e-07
9.2981939e-07
9.1598121e-07
9.0517469e-07
8.9657595e-07
8.6723821e-07
8.2875061e-07
8.3428669e-07
8.8992593e-07
1.0004985e-06
1.0940008e-06
3.1013152e-06
2.3803945e-06
1.960216e-06
1.7277006e-06
1.5691879e-06
1.44318e-06
1.334855e-06
1.2234505e-06
1.1184916e-06
1.0406961e-06
9.6978445e-07
9.2337661e-07
9.1251723e-07
9.1401422e-07
9.1766131e-07
9.2883319e-07
9.4835488e-07
9.7424563e-07
1.0050674e-06
1.0429782e-06
1.0974737e-06
1.1384207e-06
1.1967203e-06
1.2573639e-06
1.3336375e-06
1.4061854e-06
1.4279122e-06
1.4523579e-06
1.4860899e-06
1.598113e-06
1.5919279e-06
3.0647859e-06
2.4911017e-06
2.1015109e-06
1.9090177e-06
1.7789149e-06
1.6333707e-06
1.48678e-06
1.3295939e-06
1.1794326e-06
1.0573981e-06
9.495252e-07
8.6859865e-07
8.1704163e-07
7.8176977e-07
7.6465374e-07
7.6074373e-07
7.6281728e-07
7.6942391e-07
7.8271452e-07
8.1583738e-07
8.5059132e-07
9.1145546e-07
9.8180184e-07
1.0978066e-06
1.1894016e-06
1.3491309e-06
1.4543105e-06
1.5938805e-06
1.7219982e-06
1.9372805e-06
2.0816156e-06
3.0874591e-06
2.9531073e-06
2.7770771e-06
2.5943499e-06
2.3481246e-06
2.0565691e-06
1.780974e-06
1.5219789e-06
1.3020585e-06
1.1265267e-06
9.9086278e-07
8.8673013e-07
8.199606e-07
7.7296119e-07
7.3454993e-07
7.0691881e-07
6.8973431e-07
6.7754799e-07
6.7589995e-07
6.8303959e-07
6.9317057e-07
7.1612421e-07
7.494219e-07
8.2041433e-07
8.7416371e-07
9.8187408e-07
1.1292247e-06
1.2645435e-06
1.5186133e-06
1.6998254e-06
2.0101145e-06
4.2201446e-06
3.7725294e-06
2.9048816e-06
2.4223356e-06
2.0425145e-06
1.7528362e-06
1.5104756e-06
1.3038878e-06
1.1356223e-06
1.0079962e-06
9.1148227e-07
8.3435172e-07
7.8073935e-07
7.4482355e-07
7.1431273e-07
6.8425815e-07
6.6329915e-07
6.4027914e-07
6.2609028e-07
6.2791873e-07
6.3039352e-07
6.3672997e-07
6.5859594e-07
6.9360519e-07
7.4197367e-07
7.8576821e-07
8.6521444e-07
9.3429426e-07
1.0603391e-06
1.1499224e-06
1.4386498e-06
4.1380369e-06
3.2449225e-06
2.366497e-06
1.8817546e-06
1.575247e-06
1.3776156e-06
1.23021e-06
1.1119588e-06
1.0277027e-06
9.5960619e-07
9.0328513e-07
8.5766905e-07
8.2313933e-07
8.0384226e-07
7.8108116e-07
7.5190079e-07
7.2244401e-07
6.888371e-07
6.6474839e-07
6.3996689e-07
6.1508483e-07
6.0394846e-07
6.0824576e-07
6.1973424e-07
6.3214341e-07
6.4908605e-07
6.9438798e-07
7.4167377e-07
8.1335714e-07
8.5539755e-07
9.4213281e-07
3.3311516e-06
2.8627416e-06
2.3222863e-06
1.9698011e-06
1.7025876e-06
1.494553e-06
1.3387e-06
1.2147625e-06
1.1224275e-06
1.0534627e-06
9.9078617e-07
9.5016851e-07
9.1259672e-07
8.7402409e-07
8.4386355e-07
8.0443985e-07
7.6396583e-07
7.1497912e-07
6.7904715e-07
6.4951018e-07
6.1844551e-07
6.0638946e-07
6.0995682e-07
6.2230688e-07
6.3687629e-07
6.6679907e-07
7.0755466e-07
7.9624171e-07
8.6024287e-07
9.5990906e-07
9.9201069e-07
4.4287161e-06
3.871699e-06
3.0192478e-06
2.4789623e-06
2.0485779e-06
1.7208789e-06
1.4830449e-06
1.301168e-06
1.1722881e-06
1.068484e-06
9.9250885e-07
9.4189012e-07
8.9477523e-07
8.6497313e-07
8.3722303e-07
8.065756e-07
7.7621179e-07
7.4872206e-07
7.2466405e-07
7.1331854e-07
7.1122231e-07
7.1928675e-07
7.4566321e-07
8.0978756e-07
8.5542018e-07
9.4259335e-07
1.0138981e-06
1.1885376e-06
1.2952978e-06
1.5133681e-06
1.4976824e-06
3.7899594e-06
3.3676516e-06
2.726179e-06
2.4392349e-06
2.3045141e-06
2.1360194e-06
2.030366e-06
1.9237926e-06
1.8551513e-06
1.7442166e-06
1.7740452e-06
1.7606193e-06
1.6979582e-06
1.753693e-06
1.6950074e-06
1.6567917e-06
1.6272649e-06
1.6030214e-06
1.6130484e-06
1.6591778e-06
1.7082659e-06
1.8326457e-06
1.9793346e-06
2.2798272e-06
2.4548539e-06
2.7286977e-06
2.9053993e-06
3.302573e-06
3.5407878e-06
3.9142654e-06
3.7702834e-06
3.7372209e-06
4.9939881e-06
5.7502504e-06
7.2690733e-06
7.9972513e-06
7.7187601e-06
8.0419909e-06
7.9965297e-06
7.9428735e-06
7.1682255e-06
8.5552186e-06
8.2852025e-06
7.9905921e-06
8.5881432e-06
8.1755991e-06
8.11713e-06
8.1168547e-06
8.0821862e-06
8.4346639e-06
8.8606599e-06
9.3395222e-06
9.8651098e-06
1.0462095e-05
1.1245093e-05
1.1685303e-05
1.2076134e-05
1.2367644e-05
1.2850108e-05
1.3345938e-05
1.3559282e-05
1.3192093e-05
1.9718427e-05
4.0404952e-05
5.3357018e-05
4.8761863e-05
5.8595137e-05
5.3001811e-05
5.7024008e-05
5.2677025e-05
5.5222734e-05
5.1650186e-05
5.0474893e-05
5.4586292e-05
5.1019754e-05
5.4762598e-05
5.1947257e-05
5.0560978e-05
5.058143e-05
4.9910942e-05
4.9573635e-05
4.8277488e-05
4.7216862e-05
4.620107e-05
4.5238085e-05
4.4118518e-05
4.2954362e-05
4.2507365e-05
4.1975668e-05
4.1119642e-05
3.970738e-05
3.8607327e-05
3.8084616e-05
3.7661669e-05
1.4590239e-05
4.5502411e-06
1.8623389e-06
1.168193e-06
1.0236512e-06
1.4267025e-06
2.2620128e-06
2.4959607e-06
2.024869e-06
1.3534104e-06
1.5569167e-06
1.6347147e-06
1.5540878e-06
1.2840753e-06
1.3430755e-06
1.5925368e-06
1.7350202e-06
1.6476515e-06
1.469672e-06
1.5281059e-06
1.3934646e-06
9.4424354e-07
3.7863765e-05
1.6000721e-05
5.7099268e-06
2.5836758e-06
1.4844832e-06
1.1875828e-06
1.5343862e-06
2.6043974e-06
2.982359e-06
2.6746294e-06
1.7221045e-06
1.871298e-06
2.1201866e-06
2.1279292e-06
1.770083e-06
1.6791063e-06
1.8581286e-06
2.1441849e-06
2.3168099e-06
2.1396499e-06
2.1523771e-06
2.0816719e-06
1.5936025e-06
3.5221398e-05
1.7425642e-05
6.9262295e-06
3.4086576e-06
2.0336678e-06
1.4574192e-06
1.7520828e-06
3.0736117e-06
3.5388705e-06
3.4259099e-06
2.339369e-06
2.3431317e-06
2.5502105e-06
2.5449055e-06
2.3039751e-06
1.9699287e-06
2.1342509e-06
2.6232329e-06
2.9105469e-06
2.8009556e-06
2.8559656e-06
2.81582e-06
2.4992858e-06
3.4987725e-05
1.9437441e-05
8.9187237e-06
4.894049e-06
2.9935537e-06
1.8715152e-06
2.1302399e-06
3.5696752e-06
4.6608054e-06
4.8370565e-06
3.6607434e-06
3.2230101e-06
3.4093817e-06
3.3853187e-06
3.2810463e-06
2.6278772e-06
2.6597321e-06
3.0173781e-06
3.7615418e-06
3.7103091e-06
3.4659665e-06
3.462752e-06
3.2476037e-06
3.3420385e-05
2.0508949e-05
1.0318259e-05
6.208819e-06
4.0996148e-06
2.551481e-06
2.7202345e-06
4.2061429e-06
5.9739899e-06
7.3369348e-06
6.6319672e-06
4.8048825e-06
5.1515756e-06
5.0032931e-06
5.132229e-06
4.5432924e-06
3.7957051e-06
4.0608096e-06
4.5985681e-06
5.4584573e-06
4.6816426e-06
4.4540057e-06
4.3361646e-06
3.2224471e-05
2.2113558e-05
1.3184632e-05
9.2249294e-06
6.5211143e-06
4.1103551e-06
4.0681734e-06
5.8338561e-06
8.3976774e-06
1.005091e-05
1.0300053e-05
7.5588447e-06
7.8968958e-06
7.484149e-06
7.0484314e-06
7.3468082e-06
6.4105551e-06
6.824258e-06
6.900677e-06
7.1733994e-06
7.5951839e-06
6.9236992e-06
7.2443847e-06
2.85953e-05
2.3110519e-05
1.5697084e-05
1.2557681e-05
1.0019481e-05
7.0074153e-06
6.4048232e-06
9.3287677e-06
1.2127277e-05
1.3220497e-05
1.4300595e-05
1.1405038e-05
1.1178493e-05
1.1596721e-05
1.0742945e-05
1.072713e-05
9.5374614e-06
9.5116908e-06
1.0251806e-05
9.9651844e-06
1.0667383e-05
1.0329544e-05
1.1091785e-05
2.5968093e-05
2.449696e-05
1.9173339e-05
1.719776e-05
1.5552878e-05
1.1835123e-05
1.0294345e-05
1.5829866e-05
1.9523175e-05
1.988801e-05
2.1468504e-05
1.9086133e-05
1.8405179e-05
2.1201402e-05
1.9543474e-05
1.6472163e-05
1.4801047e-05
1.3152204e-05
1.6172581e-05
1.6003949e-05
1.5438868e-05
1.5885039e-05
1.6122794e-05
2.4192901e-05
2.622043e-05
2.3696794e-05
2.220914e-05
2.1496699e-05
1.959091e-05
1.8142952e-05
2.7072409e-05
3.3959084e-05
3.3693981e-05
3.5557716e-05
3.5802571e-05
3.6235866e-05
4.2853202e-05
3.9282538e-05
2.991924e-05
2.5386333e-05
2.0748482e-05
2.297158e-05
2.9729452e-05
2.6909327e-05
2.5776751e-05
2.3839679e-05
2.4850062e-05
2.9489671e-05
3.0748527e-05
3.2188686e-05
3.4772132e-05
3.5834255e-05
3.6555223e-05
4.9285396e-05
6.6064331e-05
6.5828588e-05
6.789102e-05
7.3658353e-05
7.7826745e-05
9.0466706e-05
8.4680677e-05
6.5805787e-05
4.7583462e-05
3.7699924e-05
3.8496722e-05
5.1602755e-05
5.1492756e-05
4.5598958e-05
4.0656773e-05
2.5961403e-05
3.3220722e-05
3.6864066e-05
4.1010263e-05
4.8772721e-05
5.5283793e-05
6.2580947e-05
8.5292658e-05
0.00010531154
0.00010792371
0.00011194489
0.00012420277
0.00016359589
0.00020588564
0.00019451116
0.00016323068
0.00011150879
8.6122118e-05
8.1314901e-05
0.00010257635
0.00010199511
8.8321824e-05
7.2880049e-05
2.6456295e-05
3.6965281e-05
4.4515508e-05
5.0690688e-05
6.3184004e-05
8.0533522e-05
0.00011473732
0.00016320245
0.00018753576
0.00018335311
0.000175624
0.00018862076
0.00024237294
0.00032239987
0.0003010169
0.00024631824
0.00017873474
0.00014727099
0.00014446725
0.00018137917
0.0001762946
0.00014065826
0.0001086703
2.6822762e-05
3.8822922e-05
4.9271941e-05
5.9669712e-05
8.4187391e-05
0.00013311989
0.00021507401
0.00029557011
0.00030519911
0.00027225846
0.00024112742
0.0002550636
0.0003349906
0.00046755755
0.00045366871
0.00036974979
0.00026444563
0.00023301937
0.00025598559
0.00035731517
0.00034624358
0.00025004738
0.00019559401
2.7637496e-05
4.1253583e-05
6.0707782e-05
7.6870383e-05
0.00011425494
0.00020636336
0.00036206757
0.00047641208
0.00046899477
0.00040925544
0.00037239893
0.00040668567
0.00055745097
0.00076214391
0.00077132746
0.00064181686
0.00043950475
0.00039684145
0.00046749592
0.00066456577
0.00063729285
0.00039514405
0.00028243924
3.1767922e-05
4.5549917e-05
7.2952178e-05
9.0169851e-05
0.00013233438
0.00025217404
0.00050806017
0.0006501187
0.00062822077
0.00054383145
0.00051356966
0.00059617621
0.00084113647
0.001071362
0.0011057977
0.00096768981
0.00063966923
0.00053023927
0.00060419416
0.00083308057
0.00083522421
0.00054182226
0.00033828051
3.3883657e-05
4.7996137e-05
8.5810188e-05
0.00011026999
0.00016820221
0.00033504681
0.00065081662
0.00080908981
0.00077133466
0.00068275948
0.000661353
0.00079025273
0.0011151835
0.0013527108
0.001390899
0.0012295437
0.00086668636
0.00075056776
0.00086383392
0.0011516481
0.0011508473
0.00076034513
0.00044286845
3.789554e-05
5.3069983e-05
0.00010123453
0.00013871711
0.0002192356
0.00043377888
0.0007805213
0.00095054883
0.00090979525
0.00083085382
0.00082019029
0.00098728881
0.0013668992
0.0016065674
0.0016348701
0.0014488241
0.0011272966
0.0010704627
0.0012984089
0.0017398531
0.0017586232
0.0011812142
0.00063562773
4.2903126e-05
6.2479079e-05
0.00012636413
0.000179297
0.00028228235
0.00053653363
0.00089234709
0.0010690589
0.0010339449
0.00096689614
0.0009692743
0.0011701627
0.0015794088
0.0018083046
0.001824898
0.0016346453
0.0013820953
0.0013960176
0.0017214298
0.0022432934
0.0022875408
0.0016312113
0.00089681942
4.4923872e-05
6.8233721e-05
0.00014115765
0.00021410848
0.00035421952
0.00065712624
0.0010108882
0.0011865071
0.0011641879
0.0011121801
0.001134292
0.0013630655
0.0017808863
0.0019825445
0.0019850383
0.0018135956
0.0016346765
0.0017135707
0.0021475365
0.0026477747
0.0026172415
0.0019211111
0.0012497812
4.4422313e-05
7.0500859e-05
0.00014743581
0.00026337271
0.00045375557
0.00078982159
0.0011469869
0.0013318226
0.0013352692
0.0013037138
0.0013485985
0.0015908486
0.0019804341
0.0021549775
0.0021440546
0.0019972215
0.0019051653
0.0020590045
0.0025773388
0.0029948634
0.002827055
0.0021016816
0.0016132676
4.5983407e-05
7.7549321e-05
0.00017091427
0.0003515506
0.00059239606
0.00094879543
0.0012962385
0.0014996271
0.0015472323
0.0015513501
0.0016252523
0.001879771
0.0022239903
0.0023739692
0.002366261
0.002281831
0.0022876562
0.0025084984
0.0030171498
0.0032670007
0.0029375365
0.0022186883
0.0019071
5.0383518e-05
9.5401721e-05
0.00022704624
0.0004625682
0.00074758982
0.0011053049
0.0014249144
0.0016458644
0.001758106
0.0018226702
0.0019565058
0.0022475797
0.0025477472
0.0026858438
0.0026945946
0.0026758716
0.0027450383
0.003028991
0.003340961
0.0033670736
0.0029297702
0.0023737861
0.0021989978
5.6806697e-05
0.00011877785
0.00029013283
0.00057486496
0.00089271507
0.0012309516
0.0015193796
0.0017608343
0.0019509038
0.002102432
0.0023264533
0.0026569192
0.0029461236
0.0030878791
0.0031240368
0.0031423915
0.0032584676
0.0034586075
0.0035447514
0.0033843081
0.0029727763
0.0026701935
0.002624323
6.3454763e-05
0.00014258132
0.00035117305
0.00068514615
0.0010286404
0.0013510975
0.0016451853
0.0019370663
0.0022034162
0.0024420283
0.0027740921
0.0031530331
0.0034521694
0.0036022168
0.0036569687
0.0036828188
0.0037535431
0.0037600199
0.0036824561
0.0034793443
0.003220915
0.0030976828
0.0030456381
6.7849137e-05
0.00015744485
0.00039697607
0.00079208757
0.0011665304
0.0015150283
0.0018647729
0.0022244222
0.0025540696
0.0028707259
0.003273193
0.0036678387
0.0039563512
0.0040888891
0.0040928318
0.0040484684
0.0039916813
0.0038959885
0.0037959347
0.0036795523
0.0035279074
0.0033979409
0.0031720921
7.0938225e-05
0.00016770808
0.00044346361
0.00090358506
0.001331245
0.0017443849
0.0021714684
0.0025962083
0.0029487861
0.0032741737
0.0036369869
0.0039530251
0.0041905912
0.0042833013
0.004237195
0.0041651829
0.0040746081
0.0039791269
0.0038968719
0.0037604406
0.0035960965
0.0033861165
0.0030060432
7.8448739e-05
0.00020302446
0.0005476164
0.0010391553
0.001527063
0.0020108655
0.0024949973
0.00292505
0.0032459359
0.0035062861
0.0037247701
0.0039221531
0.0041185533
0.0042421323
0.0042571821
0.0042180822
0.0041097607
0.0040130829
0.0039076506
0.0037030696
0.0034007988
0.0029816295
0.0025242991
9.1711846e-05
0.00027693994
0.00070426206
0.0012000637
0.0016988617
0.0021941916
0.0026706435
0.0030562316
0.0033231184
0.0035187284
0.0036659402
0.0038209366
0.0040001263
0.0041493296
0.0042214348
0.0041739428
0.0040302042
0.0038878305
0.0036556089
0.0032633402
0.002753544
0.0022548719
0.0018831271
0.00010890942
0.00037515599
0.00086430067
0.0013307742
0.0017722654
0.0022091377
0.0026457573
0.003017756
0.0032896502
0.0034909042
0.0036372393
0.0037856663
0.0039178186
0.0039944792
0.0039747642
0.0038203462
0.0036026164
0.0033357827
0.002940666
0.0024204828
0.0018940814
0.0015406709
0.0013368465
0.00012587776
0.0004516824
0.00093880086
0.0013701907
0.0017689325
0.0021575822
0.0025467542
0.0029223178
0.0032430028
0.0034650472
0.0036058165
0.0036980248
0.0037222013
0.0036267553
0.0034114289
0.0031332195
0.0028628234
0.0025607986
0.0021585358
0.0017149934
0.0014172722
0.0012752411
0.0012008623
0.00013114108
0.00048028937
0.0009459821
0.0013645911
0.0017587318
0.0021313433
0.0024961914
0.0028383891
0.003119415
0.0033013744
0.0033920394
0.0034037104
0.0033262463
0.0031238264
0.0028185493
0.002491194
0.0022019012
0.001925892
0.0016489496
0.0014604776
0.0013759775
0.0013456152
0.0013475302
0.00013289333
0.00049119999
0.00093280622
0.001349357
0.0017418857
0.0021104545
0.0024462514
0.0027160408
0.0028928026
0.0029802615
0.0030102903
0.002997115
0.0028932051
0.0026720649
0.0023688315
0.0020684923
0.0018436759
0.001684538
0.0015576608
0.0015003847
0.0015249379
0.0016939496
0.0018403346
0.00013978047
0.00049903794
0.00092167287
0.0013153117
0.0016806358
0.0020168436
0.0023072977
0.0025276704
0.0026519951
0.0026872572
0.0026767512
0.0026189772
0.002500957
0.0023032518
0.0020584494
0.001880667
0.0017897864
0.0017322748
0.0017007828
0.0017824863
0.0019139041
0.0020363732
0.0020979079
0.00013830219
0.00049164002
0.00088097338
0.0012322404
0.0015535375
0.0018473923
0.0021122081
0.002325418
0.0024379455
0.0024678202
0.0024420425
0.0023583469
0.0022129181
0.0020239464
0.0018891379
0.0018478021
0.0018579735
0.00194401
0.0020369474
0.0021030853
0.0021357444
0.0021344551
0.0020394405
0.00012214004
0.00047137621
0.00085347155
0.0012025141
0.0015143142
0.0017859038
0.0020108072
0.002167188
0.0022371413
0.0022507366
0.0022081167
0.0021251718
0.0020220993
0.0019305387
0.0018899298
0.0019125979
0.0020121468
0.0021213778
0.0021731355
0.0021640957
0.0021069604
0.0019844827
0.0017670783
0.00010607491
0.00037253562
0.00073948308
0.0010756395
0.0013773403
0.0016370604
0.001848773
0.0019956049
0.0020638963
0.0020693667
0.0020349014
0.0019877614
0.0019457621
0.0019180842
0.0019188306
0.0019589087
0.0020337026
0.0020910728
0.002096178
0.0020532295
0.0019633287
0.0018012115
0.0015753044
0.00010323785
0.00030202288
0.00063714256
0.00095013104
0.0012331933
0.0014799233
0.0016848609
0.0018366037
0.00192197
0.0019440414
0.0019217444
0.0018833782
0.0018584289
0.0018634907
0.0018937958
0.0019442608
0.0020052863
0.0020406805
0.0020203857
0.0019476256
0.0018306183
0.0016825856
0.0015091057
0.00011062642
0.00029262612
0.00056764987
0.00084980064
0.0011100796
0.0013377674
0.0015275788
0.0016759407
0.0017768554
0.0018269021
0.0018335117
0.0018185606
0.001806644
0.0018144657
0.0018446074
0.0018902231
0.0019377198
0.0019647619
0.0019493686
0.001886124
0.001778646
0.0016446529
0.0014878739
0.00012174877
0.00029793125
0.00052908672
0.00077768364
0.001015813
0.0012284291
0.0014064171
0.0015452505
0.0016432471
0.0017024364
0.0017301897
0.0017404803
0.0017495635
0.0017688737
0.0018006925
0.0018376265
0.0018721677
0.0018932815
0.0018885555
0.0018498932
0.0017711003
0.0016612113
0.0015189306
0.00013819081
0.0003297186
0.00052286304
0.00073053832
0.0009382519
0.0011309071
0.0012983209
0.0014328337
0.0015304238
0.001592725
0.0016282907
0.0016512431
0.0016765157
0.001712274
0.0017573914
0.0018036435
0.0018423464
0.001866092
0.0018673251
0.0018453218
0.0017874716
0.0017001865
0.0015790719
0.00015485411
0.00037840088
0.00052766568
0.00070166327
0.00087744676
0.0010440232
0.0011940762
0.0013213938
0.0014210497
0.0014922876
0.0015404189
0.0015766753
0.0016138867
0.0016605776
0.0017169913
0.0017748721
0.0018245372
0.0018580494
0.0018692626
0.0018566034
0.0018182593
0.0017513379
0.0016489188
0.00016713548
0.00041191717
0.00053591999
0.00068367323
0.00083487
0.00097977778
0.0011117086
0.001225791
0.0013194057
0.0013931644
0.0014520532
0.001503952
0.0015571977
0.0016173414
0.0016838972
0.0017506898
0.0018096639
0.0018541704
0.0018763793
0.0018754404
0.0018551046
0.001806144
0.0017196284
0.00017598733
0.00043070929
0.00054203217
0.00066882822
0.00079892255
0.00092556757
0.001042503
0.0011448165
0.0012304877
0.001301754
0.0013650547
0.0014280289
0.0014966857
0.0015732212
0.0016550649
0.0017354795
0.0018062242
0.0018606488
0.001894801
0.0019037932
0.0018906699
0.0018499183
0.0017708643
0.00018111985
0.00043838879
0.00054446437
0.00065489501
0.00076517826
0.00087332708
0.00097563422
0.0010684221
0.0011504094
0.0012233738
0.0012931878
0.0013669502
0.0014493039
0.0015404445
0.0016355976
0.0017269462
0.0018058845
0.0018663782
0.0019042159
0.0019136815
0.0018983448
0.0018524561
0.0017728149
0.00018264963
0.00043783289
0.00054347101
0.00064293048
0.00073887731
0.00083213563
0.00092119835
0.0010045675
0.0010826189
0.0011582987
0.0012364419
0.0013219854
0.0014169638
0.0015188052
0.0016210708
0.0017163004
0.0017981549
0.0018600152
0.0018943819
0.0018953537
0.0018673283
0.0018014564
0.0017113576
0.00017956463
0.00043428218
0.00053889896
0.00063001393
0.00071583351
0.00079820239
0.00087692302
0.00095250459
0.0010273091
0.001105621
0.0011921018
0.0012889193
0.0013948851
0.0015050298
0.00161166
0.0017083353
0.0017885735
0.0018429276
0.0018612832
0.0018419609
0.0017814637
0.0016869718
0.0015819168
0.00017686136
0.00042854333
0.00053135127
0.00061607437
0.0006926437
0.00076534595
0.00083605762
0.00090728477
0.00098318418
0.0010686318
0.0011667536
0.0012776467
0.001394609
0.0015091463
0.0016156908
0.001707938
0.001776448
0.0018096956
0.0017999133
0.0017459712
0.0016455359
0.0015209569
0.0013939367
0.00016726115
0.00041357
0.00051749362
0.00059935439
0.00067044081
0.00073715137
0.00080355573
0.00087433326
0.00095537773
0.0010514409
0.0011634595
0.0012835119
0.0014048191
0.0015203947
0.0016222856
0.0017025562
0.0017488091
0.0017516978
0.0017066863
0.0016108156
0.0014733675
0.0013198613
0.0011694053
0.00016399851
0.00040417981
0.0005064834
0.00058421471
0.0006504687
0.00071313593
0.00077807426
0.00085169424
0.00094069354
0.001048585
0.0011690319
0.0012957064
0.0014203985
0.0015332628
0.001625647
0.0016861069
0.0017042892
0.0016732024
0.0015898501
0.0014571197
0.0012877189
0.0011066878
0.0009297317
0.00015449656
0.00038885562
0.00049237464
0.00056859125
0.00063212938
0.00069254285
0.00075806816
0.0008368579
0.00093541166
0.0010531339
0.001184307
0.0013188001
0.0014436088
0.0015493348
0.0016259822
0.001660983
0.0016502437
0.0015842106
0.0014652347
0.0013014591
0.0011093038
0.00091119537
0.00071956142
0.00014860085
0.00037536121
0.00047694312
0.00055104667
0.00061290118
0.00067339056
0.00074245596
0.00082908731
0.00093825058
0.0010676983
0.0012080258
0.0013451077
0.0014667147
0.0015626867
0.0016187533
0.0016305408
0.0015905253
0.0014944448
0.0013475174
0.0011627116
0.00095889069
0.00075760998
0.00057094438
0.00013562343
0.000354158
0.00045493514
0.00052901325
0.00059177688
0.00065474992
0.00072912373
0.00082401131
0.00094256424
0.001081018
0.0012259657
0.0013629764
0.0014798565
0.0015650141
0.0016032901
0.0015998186
0.001538611
0.0014215699
0.0012566179
0.0010598664
0.00085163156
0.00065349545
0.0004801473
0.00013239734
0.00034409675
0.00044115438
0.00051088554
0.00057110672
0.00063477478
0.00071370152
0.00081599575
0.00094154171
0.0010840554
0.0012313984
0.0013684697
0.0014829698
0.0015609851
0.0015902794
0.0015771116
0.0015052295
0.0013781174
0.001205044
0.0010036159
0.00079490077
0.00060057454
0.00043549651
0.0001189014
0.00032360656
0.000420293
0.00049054454
0.00055069595
0.00061486345
0.00069623193
0.00080257673
0.0009335304
0.0010793916
0.0012277984
0.0013649903
0.0014785368
0.0015528298
0.0015793543
0.0015647366
0.0014934734
0.0013673836
0.0011961186
0.00099696024
0.00079063602
0.00059834236
0.0004345555
0.00011041894
0.00030620955
0.00039300211
0.00046003456
0.00051979116
0.00058335231
0.00066437556
0.00077309414
0.0009090651
0.0010589191
0.0012091586
0.0013471226
0.0014614082
0.0015386834
0.0015691947
0.0015611676
0.0014994852
0.0013837682
0.0012240871
0.0010352306
0.00083578633
0.00064432123
0.00047388377
9.6354052e-05
0.00026890769
0.00035715458
0.00041989126
0.00047603276
0.00053768933
0.00061650759
0.00072176023
0.00085489287
0.0010066443
0.0011602438
0.0013021141
0.0014218132
0.0015108607
0.0015560638
0.0015629238
0.0015256457
0.0014368514
0.0013012865
0.0011297943
0.00093727684
0.00074176431
0.00055885762
8.5921693e-05
0.00024934684
0.00033827033
0.00039473347
0.00044014576
0.00048745436
0.00055228063
0.00064680122
0.0007728819
0.00092135982
0.0010772166
0.001226157
0.0013572176
0.0014621093
0.0015314808
0.0015585959
0.0015526984
0.0015006733
0.0014003323
0.0012571164
0.0010825744
0.00089135504
0.00069816107
6.2914255e-05
0.00019841601
0.00030939926
0.00037423491
0.00041994434
0.0004572935
0.00050070782
0.00056838671
0.00067198877
0.00080829881
0.00096246033
0.0011180034
0.0012623382
0.0013858914
0.0014810603
0.0015391468
0.0015588503
0.0015492829
0.0014945562
0.0013940775
0.0012531949
0.0010820486
0.00089196922
5.5636233e-05
0.00013288768
0.00024426613
0.00032947151
0.00038812597
0.00042791445
0.00045976811
0.00049921201
0.00056595102
0.00067194609
0.00081241955
0.00097005589
0.0011269689
0.001270372
0.0013924886
0.0014870273
0.001542971
0.0015638062
0.0015577863
0.0015095389
0.001417876
0.0012862573
0.0011214332
5.5977123e-05
8.566168e-05
0.00015808957
0.00025122772
0.00032536308
0.00038198408
0.00042326109
0.00045590025
0.00049366661
0.00055600685
0.00065771521
0.0007969286
0.00095641644
0.0011160008
0.0012619837
0.0013867346
0.0014853997
0.0015454753
0.0015733214
0.0015763942
0.0015418408
0.0014649903
0.001346836
7.1114552e-05
7.8137829e-05
0.0001094911
0.00017714978
0.00024799712
0.0003086236
0.00035867881
0.00039974149
0.00043479152
0.00047261512
0.00052943675
0.00062165103
0.00075442118
0.0009154177
0.0010828331
0.0012381708
0.0013717873
0.0014783293
0.0015462164
0.001583392
0.0015992992
0.0015836657
0.0015262386
7.1596575e-05
6.5519577e-05
8.7166993e-05
0.00013636519
0.0001983268
0.00025570033
0.00030295192
0.00034058411
0.00037283306
0.00040296549
0.00043613767
0.00048293933
0.00055864774
0.00067533677
0.0008313118
0.0010087634
0.0011836546
0.0013378891
0.0014597115
0.0015421855
0.0015921004
0.00162261
0.0016255887
0.00010343666
6.41237e-05
7.568006e-05
0.00010784999
0.00015963236
0.00021436116
0.00026535434
0.00030664753