/*--------------------------------*- C++ -*----------------------------------*\
| =========                 |                                                 |
| \\      /  F ield         | OpenFOAM: The Open Source CFD Toolbox           |
|  \\    /   O peration     | Version:  2406                                  |
|   \\  /    A nd           | Website:  www.openfoam.com                      |
|    \\/     M anipulation  |                                                 |
\*---------------------------------------------------------------------------*/
FoamFile
{
    version     2.0;
    format      ascii;
    arch        "LSB;label=32;scalar=64";
    class       volScalarField;
    location    "165";
    object      TMean;
}
// * * * * * * * * * * * * * * * * * * * * * * * * * * * * * * * * * * * * * //

dimensions      [0 0 0 1 0 0 0];

internalField   nonuniform List<scalar> 
20580
(
1.0022307
1.0019491
1.0019319
1.001934
1.0019359
1.001926
1.0019266
1.0019359
1.001948
1.0019613
1.001977
1.0019924
1.0020053
1.0020227
1.0020309
1.0020457
1.0020521
1.0020405
1.0020266
1.0019996
1.0019734
1.0019541
1.0019486
1.0018972
1.0017542
1.00164
1.0016451
1.0016946
1.0015177
1.0011959
0.99986855
1.0021659
1.0019235
1.0019147
1.0019181
1.0019131
1.0019114
1.0019188
1.0019287
1.0019428
1.0019568
1.0019719
1.0019863
1.0019998
1.0020097
1.002023
1.0020321
1.0020324
1.0020154
1.0019935
1.0019655
1.0019269
1.0019087
1.0019031
1.0018567
1.0017197
1.0015048
1.0013408
1.0013331
1.0013439
1.0013578
1.0004811
1.0021892
1.001906
1.0019113
1.0019246
1.0019159
1.0019128
1.0019201
1.0019307
1.0019442
1.0019574
1.0019708
1.0019832
1.0019926
1.002002
1.0020123
1.0020164
1.0020057
1.0019835
1.0019522
1.0019146
1.0018695
1.0018378
1.0018197
1.0017794
1.001663
1.0014484
1.0011839
1.0010023
1.0009215
1.001026
1.0007732
1.002285
1.0019083
1.0019074
1.0019327
1.001927
1.0019228
1.0019275
1.0019364
1.0019484
1.0019609
1.0019721
1.0019827
1.0019926
1.0019995
1.0020069
1.0020073
1.0019951
1.0019699
1.0019325
1.0018911
1.0018432
1.0017898
1.0017642
1.0017339
1.0016213
1.0014237
1.0011706
1.0009219
1.0006851
1.0004916
1.0005308
1.0023159
1.0019662
1.0019181
1.0019371
1.0019293
1.0019225
1.0019281
1.0019341
1.0019455
1.0019589
1.0019718
1.0019831
1.0019928
1.0020009
1.0020055
1.0020049
1.0019945
1.0019699
1.0019305
1.0018849
1.0018222
1.00176
1.0017214
1.001691
1.0016165
1.0014603
1.0012477
1.0009672
1.0006429
1.000241
0.99997256
1.0022172
1.0019671
1.0019282
1.0019245
1.0019114
1.0019075
1.0019165
1.0019259
1.0019396
1.001955
1.0019688
1.0019809
1.0019913
1.0019996
1.0020067
1.0020067
1.0019988
1.0019753
1.0019371
1.0018935
1.0018292
1.0017502
1.001701
1.0016605
1.0015704
1.0014474
1.0013118
1.0010985
1.000791
1.0003853
0.99973748
1.0021729
1.0019245
1.001932
1.0019258
1.0019091
1.0019053
1.001913
1.0019224
1.001936
1.0019511
1.0019631
1.0019753
1.0019845
1.0019924
1.0019979
1.0020034
1.0019979
1.0019781
1.0019416
1.0019025
1.0018407
1.0017569
1.001685
1.001606
1.0014836
1.0013391
1.0011961
1.0010706
1.0009013
1.000721
1.0001611
1.0022008
1.0018847
1.0019059
1.0019344
1.0019213
1.0019144
1.0019164
1.0019229
1.0019327
1.0019468
1.0019584
1.0019687
1.0019762
1.0019828
1.0019874
1.0019886
1.0019765
1.0019507
1.0019168
1.0018772
1.0018296
1.0017505
1.0016472
1.0015167
1.0013763
1.0012381
1.001087
1.0009005
1.0006937
1.0004613
1.0003171
1.0021912
1.0018598
1.0018554
1.0019154
1.0019181
1.0019122
1.0019138
1.001917
1.0019276
1.0019415
1.0019534
1.0019641
1.0019712
1.0019773
1.0019803
1.0019793
1.0019688
1.0019417
1.0019042
1.0018631
1.0018116
1.0017397
1.0016305
1.0014879
1.0013401
1.001194
1.0010095
1.0007656
1.0004766
1.0001009
0.9998756
1.0019562
1.0017464
1.0017813
1.0018447
1.001866
1.0018774
1.0018925
1.0019067
1.0019206
1.0019367
1.0019501
1.0019604
1.0019685
1.0019729
1.0019748
1.0019737
1.0019651
1.0019411
1.0019049
1.0018586
1.0018096
1.0017445
1.0016714
1.0015602
1.0014231
1.0012867
1.0011011
1.0008408
1.0005007
1.0001014
0.99958769
1.0017958
1.0015664
1.0016537
1.0017054
1.0017396
1.001785
1.0018246
1.0018572
1.0018829
1.0019079
1.0019282
1.0019445
1.0019579
1.0019664
1.0019703
1.0019693
1.0019665
1.0019455
1.0019132
1.0018657
1.001811
1.0017502
1.0016908
1.0016139
1.0015231
1.0014238
1.0012935
1.00112
1.0008708
1.0006159
1.0000531
1.0018401
1.0015505
1.0015715
1.0016344
1.0016616
1.0016856
1.0017208
1.0017579
1.0017922
1.001829
1.0018598
1.0018853
1.0019051
1.001921
1.0019335
1.0019418
1.0019479
1.0019377
1.0019112
1.001859
1.0017925
1.0017293
1.0016368
1.0015172
1.0014188
1.0013544
1.0012774
1.001136
1.0009263
1.0006723
1.0004186
1.0020377
1.0016549
1.0015966
1.0016317
1.0016353
1.0016386
1.0016538
1.0016773
1.0017068
1.0017406
1.0017705
1.0017968
1.0018181
1.0018339
1.0018486
1.0018621
1.0018713
1.0018641
1.0018469
1.0018103
1.0017395
1.0016456
1.0015109
1.0013349
1.0011776
1.0010794
1.0009987
1.0008554
1.0006301
1.0002769
1.0000781
1.0021271
1.0017753
1.0017352
1.0017211
1.0016969
1.0016836
1.0016814
1.0016861
1.0016953
1.0017137
1.0017317
1.0017498
1.0017674
1.0017834
1.0017918
1.0017956
1.0017985
1.0017943
1.0017789
1.0017446
1.0016785
1.0015811
1.0014374
1.0012572
1.0010826
1.0009277
1.0007769
1.0005958
1.0003505
1.0000197
0.9997066
1.002019
1.00175
1.0017805
1.0017595
1.0017347
1.0017305
1.0017318
1.0017337
1.0017364
1.0017466
1.0017535
1.0017595
1.0017669
1.0017736
1.0017772
1.0017759
1.0017767
1.0017648
1.0017448
1.0017239
1.0016569
1.0015825
1.0014809
1.0013528
1.0012087
1.0010261
1.0008328
1.000673
1.0004861
1.0002619
0.9999094
1.0019308
1.0016768
1.0017084
1.0017207
1.0017134
1.0017115
1.0017136
1.0017196
1.0017294
1.0017483
1.0017594
1.0017665
1.0017736
1.0017785
1.0017813
1.0017807
1.00178
1.0017664
1.0017441
1.0017117
1.0016738
1.0016276
1.0015667
1.0014851
1.001385
1.0012767
1.0011636
1.0010343
1.0008568
1.0006669
1.000392
1.0020764
1.0017295
1.0017178
1.0017364
1.0017273
1.001718
1.0017145
1.0017148
1.0017181
1.0017381
1.0017475
1.0017538
1.0017602
1.0017635
1.0017651
1.0017661
1.0017684
1.0017569
1.0017322
1.0016946
1.0016536
1.0016008
1.0015346
1.0014371
1.001323
1.0012232
1.0011417
1.0010236
1.0008519
1.0006031
1.0004256
1.002151
1.0017783
1.001795
1.0018049
1.0017905
1.0017814
1.0017751
1.0017753
1.0017661
1.0017796
1.0017808
1.0017815
1.0017834
1.0017813
1.0017786
1.0017756
1.0017736
1.0017586
1.001726
1.0016788
1.0016139
1.001519
1.0014005
1.0012624
1.0011084
1.0009457
1.0007807
1.0006067
1.0004188
1.0001737
1.0000408
1.0019753
1.0016975
1.0017588
1.0017457
1.001735
1.0017449
1.0017547
1.0017621
1.0017657
1.001791
1.0017952
1.0017966
1.0017983
1.0017981
1.0017972
1.0017958
1.0017873
1.0017727
1.0017362
1.0016824
1.0016093
1.0015028
1.0013601
1.0011977
1.0010228
1.0008305
1.0006122
1.000373
1.0001336
0.99990341
0.99974402
1.0019237
1.0016296
1.0016686
1.0016553
1.0016496
1.0016555
1.0016549
1.0016739
1.0016664
1.0017089
1.0017214
1.0017314
1.0017435
1.00175
1.0017564
1.0017604
1.0017563
1.0017489
1.0017245
1.0016838
1.0016277
1.0015443
1.0014387
1.0013265
1.0011989
1.0010356
1.0008449
1.0006484
1.0004642
1.0003058
1.0001581
1.0019748
1.0016468
1.0016881
1.0016942
1.0016866
1.0016813
1.0016767
1.0016703
1.0016669
1.0016983
1.0016968
1.0016986
1.0017023
1.0017066
1.0017117
1.0017128
1.0017086
1.0017005
1.0016817
1.0016617
1.00163
1.0015859
1.0015376
1.0014859
1.0014137
1.0013136
1.0012215
1.0011207
1.00103
1.0009068
1.0007632
1.0019933
1.0015837
1.0016984
1.0016326
1.0016084
1.0015888
1.001578
1.0015761
1.0015292
1.001578
1.001566
1.0015602
1.001556
1.0015417
1.0015434
1.0015429
1.0015319
1.0015171
1.001494
1.0014666
1.0014265
1.0013766
1.0013198
1.0012469
1.0011623
1.0010498
1.0009285
1.0007853
1.0006476
1.0004821
1.0003784
1.0018924
1.0010432
1.0012848
1.0009532
1.0010563
1.0010872
1.0010943
1.0009746
1.0011585
1.0011563
1.0011593
1.0011232
1.0011023
1.0010785
1.0011752
1.001212
1.0010521
1.0010969
1.0011311
1.0010498
1.0009872
1.0009105
1.000809
1.0007132
1.0005973
1.0004559
1.000256
1.0000071
0.99975035
0.99950381
0.99937329
0.99898888
1.0000774
1.0006052
1.000092
0.99941303
0.9993705
0.99980874
1.000194
0.99987228
0.99910623
0.99899429
0.99970289
0.9999942
0.99925235
0.99878237
0.99926232
0.99981247
0.99949942
0.99901551
0.99933651
1.000113
1.0001555
0.99925459
0.99870791
0.99978305
1.0004455
1.000064
0.99921018
0.99875052
0.99913568
0.99989591
0.999932
0.99883088
0.99806955
0.99879518
0.99975735
0.99927754
0.99809119
0.9980633
0.99896174
0.99935954
0.99844365
0.99781034
0.99841469
0.9993344
0.99908838
0.99808949
0.99937548
1.0002061
0.99979464
0.9986373
0.99782107
0.99846442
0.99955124
0.99978171
0.9983844
0.99702055
0.99769819
0.99917129
0.99925116
0.99756016
0.9966872
0.99757606
0.99872768
0.99824858
0.99666393
0.99673774
0.9980401
0.99866443
0.99703212
0.99863792
0.99981673
0.99945325
0.99780184
0.99636388
0.99718141
0.99879102
0.99956224
0.99808601
0.99571689
0.99587465
0.9978365
0.9990181
0.99741864
0.9951484
0.99552447
0.9973715
0.99801667
0.99579354
0.99456925
0.99573708
0.99722816
0.99583031
0.99774007
0.9992676
0.99908132
0.9970062
0.99480812
0.99545782
0.99760028
0.99911408
0.99786984
0.99441112
0.99336352
0.99566264
0.99813082
0.99745535
0.99360281
0.99244802
0.99466072
0.99693501
0.99571824
0.99235311
0.99251663
0.99469451
0.99435163
0.99658229
0.9985071
0.99858399
0.99606229
0.99295113
0.99290898
0.9955679
0.99813623
0.9976715
0.99343169
0.99015648
0.99220299
0.99591752
0.99731749
0.99340233
0.98932697
0.99078193
0.99441859
0.99562199
0.99162361
0.98898063
0.99080452
0.99236933
0.99503745
0.9974706
0.99786187
0.9949425
0.99081302
0.98964516
0.99268678
0.99645171
0.9973863
0.99297551
0.98714194
0.98790033
0.99225369
0.99595441
0.99392541
0.98705941
0.98584608
0.98974223
0.99369332
0.99229025
0.98618388
0.98568125
0.98969711
0.99295545
0.99602323
0.996872
0.99365049
0.98834234
0.98556648
0.98875436
0.99371189
0.99639257
0.99262923
0.98463303
0.98225876
0.98670602
0.99284017
0.99400799
0.98687076
0.98067364
0.98325382
0.98915069
0.99192223
0.98647154
0.98086742
0.98618701
0.99014639
0.99408121
0.99539452
0.99182153
0.98495794
0.98010501
0.98322565
0.98939638
0.99430398
0.99209328
0.98285792
0.97593168
0.97942386
0.98715394
0.9921847
0.98749419
0.9773127
0.97592377
0.98169326
0.98835864
0.98736074
0.97882335
0.98147973
0.98634176
0.99149207
0.99337403
0.98943759
0.98071019
0.97351073
0.97619692
0.9834509
0.99081435
0.9909202
0.98130248
0.97020988
0.97099849
0.97904002
0.98781203
0.98724599
0.97615592
0.96844238
0.97240472
0.98137291
0.98588065
0.9793883
0.97585884
0.9816847
0.98826052
0.99074318
0.98618352
0.97523807
0.96567137
0.96745812
0.97570702
0.9856125
0.98836532
0.97912916
0.96511515
0.96106706
0.96871959
0.9805131
0.98493784
0.97547288
0.96224699
0.96192494
0.97106034
0.98083142
0.97937099
0.96887036
0.97574594
0.98400627
0.98715878
0.98163208
0.96810159
0.95601624
0.9562407
0.9658093
0.9785618
0.98411057
0.97586396
0.95984173
0.9498672
0.9566791
0.97075129
0.9800517
0.97376578
0.9580049
0.95053438
0.95843851
0.97202387
0.97711952
0.96052761
0.96850057
0.97872016
0.9825968
0.97562653
0.95927349
0.94443817
0.94263147
0.95391833
0.96979321
0.97806386
0.97110188
0.95319047
0.93816214
0.94342034
0.95908269
0.97276349
0.97050789
0.9540858
0.93945293
0.94476423
0.96041583
0.97187317
0.95105089
0.96018958
0.97235646
0.97677574
0.9681544
0.94893186
0.93142785
0.92776796
0.94087244
0.95972143
0.97037
0.96422852
0.94473397
0.92672471
0.92996651
0.94644861
0.96364007
0.96524158
0.94868148
0.92989533
0.93123044
0.94744828
0.96403737
0.94088526
0.95113359
0.96501568
0.96977815
0.95924091
0.93731354
0.91764876
0.91267762
0.92734079
0.94857139
0.96097178
0.95530856
0.93492585
0.91581854
0.91711185
0.93382457
0.95345585
0.95799176
0.94191167
0.92125814
0.91806996
0.93437563
0.95452481
0.92987608
0.94132741
0.95659813
0.96144922
0.94925101
0.92504617
0.90371841
0.89789876
0.91377308
0.9366454
0.95009205
0.94455242
0.92386713
0.90482686
0.90485678
0.9217063
0.94277387
0.94909574
0.9336409
0.91229105
0.90527518
0.92195655
0.94445326
0.91864439
0.93113056
0.94746955
0.95209665
0.93817102
0.91201825
0.88947223
0.88325036
0.90015145
0.92416085
0.93813451
0.93247001
0.91183844
0.89340923
0.89290482
0.91012922
0.93193073
0.93904264
0.92396093
0.90232316
0.89324282
0.91072846
0.93461846
0.90699522
0.92020045
0.93737396
0.94194497
0.92683711
0.89898511
0.87507874
0.86836502
0.88599509
0.91092675
0.92531118
0.91969427
0.89928927
0.88147841
0.881053
0.89896542
0.92110344
0.92807981
0.91294131
0.89136812
0.88209784
0.90095074
0.92543191
0.89430841
0.90834361
0.92632373
0.9312603
0.91548836
0.88609998
0.86060221
0.85331963
0.87148554
0.89714905
0.9118459
0.90624154
0.88611516
0.86900335
0.86951101
0.88844602
0.91038176
0.91619116
0.90048339
0.87959579
0.87206781
0.89286055
0.91698876
0.8802682
0.89547936
0.91456054
0.92024419
0.90412802
0.87321461
0.84599997
0.83827857
0.85680794
0.88300449
0.89785961
0.89204802
0.87209376
0.85591507
0.85846642
0.87854472
0.89973774
0.90342934
0.88684852
0.86743803
0.86344137
0.88638864
0.90888804
0.86403102
0.88075155
0.90168835
0.90895998
0.89313674
0.8608597
0.83196837
0.82407281
0.84267209
0.86884283
0.88337573
0.87695998
0.85729418
0.84277264
0.84859944
0.86969805
0.88914295
0.88953676
0.87188074
0.85500425
0.85694288
0.88153504
0.90023709
0.8460578
0.86387291
0.88707815
0.89692217
0.88265162
0.84969451
0.8190345
0.81100212
0.82931089
0.85487096
0.86850208
0.86123908
0.84225804
0.83028974
0.84025107
0.86178731
0.87810642
0.87422268
0.85608957
0.84349703
0.85334034
0.87751398
0.88968965
0.82152231
0.84110644
0.86817313
0.88281926
0.87290364
0.84162096
0.80929831
0.79981895
0.81686507
0.84092671
0.85335363
0.84553876
0.82809129
0.81969316
0.83337741
0.85435274
0.86627251
0.85828489
0.84107253
0.8344941
0.85193764
0.87298227
0.87640771
0.78825048
0.80858879
0.83926729
0.86005026
0.85796112
0.83315634
0.80291519
0.79298829
0.80742588
0.82826324
0.83859604
0.83048645
0.81542636
0.81165656
0.82782275
0.84696098
0.85358353
0.84233912
0.82823882
0.83013408
0.8515469
0.86627086
0.86079171
0.75076001
0.77255214
0.80735233
0.83332778
0.83730396
0.81973959
0.79533292
0.78785549
0.80027785
0.81723225
0.82451951
0.81642926
0.80484505
0.80654326
0.82345363
0.83911922
0.84001639
0.82770088
0.81949253
0.83044626
0.8502357
0.85603992
0.84480072
0.72028967
0.74019334
0.7733792
0.80256818
0.81427517
0.80605589
0.78899214
0.78553192
0.79552928
0.80762859
0.8112836
0.80417306
0.79739041
0.80426983
0.81992271
0.83043977
0.82662338
0.81603757
0.81613269
0.83314991
0.84638886
0.84290725
0.83143515
0.71772604
0.73318137
0.7568604
0.77642831
0.78550109
0.78540018
0.78254834
0.78601472
0.79378269
0.80015014
0.80044332
0.7953306
0.7940781
0.80408475
0.81650605
0.82134997
0.81542334
0.80978
0.81834301
0.83451165
0.83879755
0.83013249
0.82426469
0.72219092
0.7338993
0.75045991
0.76325509
0.76788337
0.76723301
0.77066844
0.78207474
0.79055955
0.79402746
0.79291543
0.7905829
0.79407714
0.8042624
0.81260227
0.81328332
0.80803993
0.80936339
0.82254361
0.83223518
0.82859569
0.82056442
0.82296688
0.73224675
0.74018516
0.74856038
0.75403085
0.75607636
0.75902237
0.76475976
0.77683402
0.7863657
0.78923675
0.78846874
0.78920205
0.79540547
0.80400133
0.80853987
0.80740798
0.80546709
0.81275066
0.82423282
0.82591311
0.81901431
0.81616293
0.82545007
0.74093178
0.74515895
0.74836042
0.74840313
0.74905376
0.75422539
0.76357829
0.77475548
0.78332738
0.78615802
0.78674683
0.79007503
0.79691657
0.80307256
0.80496752
0.80410816
0.80658744
0.81593584
0.82153886
0.81779798
0.81286826
0.81666727
0.82523597
0.74863793
0.75116983
0.75081517
0.74827663
0.74821951
0.75392313
0.76425521
0.77509647
0.78230649
0.78502222
0.78704212
0.79188141
0.79804503
0.80198793
0.80287741
0.80377593
0.80933696
0.8164038
0.81638309
0.81206508
0.81179981
0.81841012
0.81995046
0.75289735
0.75482909
0.7534535
0.75067384
0.7511162
0.75692766
0.76670483
0.77650798
0.78242377
0.78520754
0.78842192
0.79350951
0.7983537
0.80076604
0.80189707
0.8049463
0.81096076
0.81399976
0.81150546
0.80956276
0.81300581
0.81697458
0.81300485
0.75704812
0.75848772
0.75687458
0.75453977
0.75550125
0.76105254
0.76996376
0.77859203
0.78346838
0.78644424
0.79019975
0.79477675
0.79853075
0.80054758
0.80260749
0.80664291
0.81100059
0.81110146
0.80901943
0.80980697
0.81367586
0.81369107
0.80917104
0.75921534
0.76082522
0.75965504
0.75824436
0.76013002
0.76560777
0.77336003
0.78039738
0.78445873
0.78760772
0.79145702
0.7954695
0.79837555
0.80055563
0.80357536
0.80758929
0.80989397
0.80887035
0.80845101
0.81119831
0.81343783
0.81151713
0.81007371
0.76150662
0.76340023
0.76301811
0.76242837
0.76492503
0.77018232
0.77682322
0.78254209
0.78619157
0.78945853
0.79317042
0.79662174
0.79932099
0.80207504
0.80528754
0.80791809
0.80851392
0.8081546
0.80958731
0.81197657
0.81272176
0.81279343
0.81647405
0.76214417
0.76445521
0.76500692
0.76513782
0.76754102
0.77205626
0.77756366
0.78266439
0.78614556
0.78919137
0.79262471
0.79599802
0.79868214
0.80132952
0.80440522
0.80710422
0.80818475
0.80834618
0.81008808
0.8130521
0.81520998
0.81672076
0.82054136
0.76240794
0.76486515
0.76609762
0.76680968
0.76909193
0.77295243
0.77759297
0.78219298
0.78561952
0.78849899
0.79167509
0.79492541
0.79766969
0.80029688
0.80323774
0.80610524
0.80785155
0.80861692
0.81037698
0.81346969
0.81653938
0.81894299
0.82275129
0.76246054
0.76484675
0.76652299
0.76778044
0.77011141
0.77355759
0.77759092
0.78174043
0.78508991
0.78782929
0.79078966
0.79393147
0.79669369
0.79932434
0.80218212
0.80513606
0.80742293
0.80882498
0.81071718
0.81375717
0.81723699
0.82035769
0.8243668
0.76226037
0.76447588
0.76642739
0.76812403
0.77056005
0.77379435
0.77745226
0.78123268
0.78450685
0.78716213
0.78992761
0.79292652
0.79571575
0.79833973
0.80115727
0.80418994
0.80690095
0.80888974
0.81101364
0.81399028
0.81765571
0.8212979
0.82559721
0.76193549
0.76384587
0.76584534
0.76783871
0.77043116
0.77363312
0.77713281
0.78064423
0.78384745
0.78648288
0.78908342
0.79192179
0.79471355
0.79736647
0.800145
0.80322708
0.80630397
0.8088644
0.81132616
0.8142947
0.81798087
0.82191758
0.82647775
0.76144921
0.76303006
0.76500892
0.76714411
0.76982804
0.77305832
0.77653533
0.77992742
0.78308443
0.78574695
0.78822914
0.79090095
0.79366749
0.79639315
0.79919273
0.80227134
0.80556708
0.8086711
0.81155823
0.8146746
0.81829966
0.82223631
0.82691765
0.76125676
0.76221701
0.7639509
0.76610387
0.76882108
0.77208655
0.77561238
0.77902449
0.78219116
0.78492098
0.78734993
0.7898778
0.79259778
0.79539121
0.79828866
0.80138552
0.80477064
0.80824302
0.81159598
0.81498223
0.81861803
0.82240833
0.8269777
0.76183402
0.76182506
0.7630206
0.76494601
0.76755737
0.77077758
0.7743279
0.77783643
0.78110293
0.78395875
0.78641958
0.7888637
0.79153164
0.7943892
0.7973863
0.80056148
0.80399178
0.80764328
0.81136395
0.81506763
0.81879045
0.82243936
0.82678711
0.76359373
0.76238433
0.76261527
0.7639431
0.76622471
0.76927023
0.77275943
0.77634659
0.77975561
0.78280375
0.78540292
0.78785592
0.79049423
0.79339248
0.79648537
0.79975241
0.80324288
0.80699283
0.81092624
0.81484946
0.81865527
0.82224337
0.82643313
0.7657105
0.76379577
0.76310097
0.76353279
0.76515924
0.76779071
0.77106007
0.77461654
0.7781321
0.78139514
0.7842406
0.78682363
0.78949721
0.79242356
0.79558583
0.79895239
0.80252455
0.8063532
0.8103472
0.81432809
0.81816376
0.8217636
0.82592524
0.76804456
0.76613655
0.76467972
0.76405732
0.76472271
0.76664359
0.76946825
0.77281237
0.77631938
0.77974531
0.78288379
0.78571889
0.78851701
0.79149468
0.79470495
0.798149
0.80181233
0.80567406
0.80963458
0.81356488
0.81739509
0.82105135
0.82527386
0.77027225
0.76883375
0.76704388
0.76559554
0.76520309
0.76615787
0.76827155
0.7711688
0.77448899
0.77794829
0.78132663
0.78448409
0.78751208
0.79059719
0.7938605
0.79735284
0.80105912
0.8049093
0.80880244
0.81266566
0.81648379
0.82021325
0.82453471
0.77239658
0.77128642
0.76943039
0.7676363
0.76649106
0.76649191
0.76772541
0.76996219
0.77288316
0.77619418
0.77967051
0.78310771
0.78642264
0.78969198
0.79304971
0.79657819
0.80027554
0.80408154
0.80792181
0.81174868
0.815571
0.81937925
0.82380739
0.7740586
0.77293327
0.77117256
0.76942955
0.76804289
0.76742842
0.76787534
0.76937852
0.7717302
0.77470382
0.77808988
0.78166618
0.78524145
0.78875007
0.79225596
0.79584049
0.79952983
0.80330092
0.80711122
0.81093531
0.81478993
0.81867943
0.82320922
0.77560659
0.77418434
0.77242091
0.77080271
0.76944363
0.7685774
0.76851599
0.76939593
0.77117118
0.77369114
0.77681126
0.78034516
0.78407245
0.78781515
0.79151375
0.79520095
0.79892294
0.80269592
0.80651009
0.81035997
0.81426614
0.81824447
0.82286583
0.77669825
0.7750813
0.7734169
0.77197417
0.77073066
0.76980289
0.76946164
0.76990548
0.77120534
0.77329585
0.77607209
0.77942387
0.78316297
0.7870635
0.7909574
0.79479324
0.79860037
0.80241762
0.80626849
0.81016581
0.81414209
0.81821599
0.8229231
0.77745558
0.77595818
0.77442959
0.77317859
0.77208117
0.77118886
0.77072549
0.77090768
0.77186463
0.77361752
0.77610117
0.77922715
0.78287753
0.78683204
0.79087041
0.79486622
0.79879904
0.8027078
0.80663276
0.81060774
0.81466464
0.81882464
0.8235731
0.77818606
0.77673739
0.77552761
0.77457394
0.77371559
0.77296429
0.7725215
0.7726029
0.7733726
0.77491088
0.77719393
0.78016552
0.78370253
0.78763053
0.79174165
0.79587057
0.79995118
0.80398893
0.80802641
0.81210105
0.81624466
0.82046981
0.82517641
0.77867368
0.77760607
0.77680384
0.77625871
0.77578158
0.7753427
0.7751105
0.77529835
0.77608837
0.77758587
0.77982197
0.78274256
0.78623178
0.79012676
0.79426273
0.79848987
0.80271198
0.80689913
0.81106823
0.81525754
0.81948952
0.82375645
0.82833407
0.77908291
0.77837261
0.77817493
0.77821977
0.77830284
0.77839822
0.7786115
0.77916481
0.7802335
0.78193895
0.78432823
0.78734833
0.79089581
0.79483746
0.79902582
0.80333821
0.80768742
0.81202495
0.81634744
0.82066807
0.8249939
0.82927491
0.83365333
0.77927855
0.77920647
0.77968758
0.78042344
0.78121902
0.78202534
0.78292949
0.78408709
0.78569228
0.78785599
0.79060816
0.79390607
0.79765225
0.80174228
0.80606033
0.81050128
0.81499664
0.81950196
0.82399369
0.8284743
0.83291901
0.83723521
0.84139356
0.77938982
0.77995811
0.78127058
0.78281346
0.78443432
0.78608662
0.78782511
0.78977657
0.79209167
0.79488215
0.79816052
0.80188184
0.80596391
0.81031573
0.81485965
0.8195169
0.82421651
0.82892361
0.83361491
0.83826866
0.84284101
0.84721269
0.85118538
0.77973937
0.78091131
0.78304598
0.78540862
0.78789241
0.79044969
0.79309608
0.79592497
0.79904339
0.80253721
0.80642383
0.81065129
0.81516025
0.81987792
0.82473808
0.829681
0.83464888
0.83958265
0.84444312
0.84920665
0.85380582
0.858112
0.86186473
0.78028854
0.78206036
0.78508245
0.78827605
0.79160757
0.79506779
0.79863836
0.80236472
0.80631075
0.81052122
0.81502094
0.81978635
0.82476122
0.82988836
0.83510389
0.84034581
0.84553421
0.85060763
0.85554371
0.86034823
0.86493796
0.86910009
0.87243604
0.78110246
0.78362524
0.78747333
0.79143754
0.7955713
0.79990915
0.80440095
0.80901894
0.81377288
0.81869159
0.8237857
0.82906567
0.83449169
0.84000668
0.84553388
0.8509639
0.85625429
0.8614233
0.86646376
0.87132012
0.87583827
0.87956739
0.88212375
0.78208847
0.7854875
0.79018434
0.79489979
0.79979093
0.80495305
0.81032392
0.81580749
0.82135041
0.82695178
0.83263138
0.83837956
0.84419103
0.84998677
0.85565268
0.86116767
0.86656886
0.87186787
0.87701995
0.88188787
0.88599213
0.88880708
0.89057168
0.78349043
0.78785981
0.79328985
0.79867542
0.80424411
0.81014444
0.81631909
0.82261779
0.82892512
0.83520411
0.84144711
0.84764
0.85372213
0.85961303
0.86531918
0.87092754
0.87646092
0.88187827
0.88703423
0.89146094
0.89453947
0.89649079
0.89780196
0.78533743
0.79076433
0.79686174
0.80281065
0.80892505
0.81542575
0.82227805
0.82931594
0.83635832
0.84329447
0.8500833
0.85667173
0.86292474
0.8688532
0.87463433
0.88034399
0.8859624
0.89135685
0.89605168
0.89935069
0.90147126
0.90299435
0.90408061
0.78772288
0.79433408
0.80104899
0.80748393
0.81400682
0.82090456
0.82822115
0.83582692
0.84350933
0.85107186
0.85836505
0.86524072
0.87164904
0.87774906
0.88367427
0.88947492
0.89505842
0.90001701
0.90358106
0.90586385
0.90750717
0.90877166
0.90967619
0.79077814
0.79859503
0.80592623
0.81279292
0.81963102
0.82677821
0.83435092
0.84228447
0.85039226
0.85842827
0.86611035
0.87321566
0.87985934
0.88622253
0.89236232
0.89823777
0.90354268
0.90748447
0.90997695
0.91173559
0.91308197
0.91412756
0.91483359
0.79457279
0.80358565
0.81156203
0.81885474
0.82595477
0.83324787
0.84090958
0.84894895
0.85723028
0.86548471
0.87333308
0.88064008
0.88756432
0.89421632
0.90058437
0.90641781
0.91096041
0.91386877
0.91583573
0.91730493
0.91841772
0.91926222
0.91976204
0.79902319
0.80922573
0.81785515
0.82558168
0.83295858
0.84039078
0.84808013
0.85608238
0.86430543
0.87246897
0.88026007
0.88770909
0.89489065
0.90179026
0.90824783
0.91362461
0.91722512
0.91958527
0.92131277
0.92261995
0.92358464
0.9242826
0.92460379
0.80390137
0.8153004
0.82457592
0.83275639
0.840439
0.84804881
0.85579159
0.86373017
0.87177082
0.87963168
0.88722302
0.89468726
0.90201149
0.9090311
0.91523439
0.91974906
0.92270766
0.92483464
0.92643726
0.92765158
0.92853955
0.92916733
0.9293821
0.80910035
0.82163497
0.83151439
0.84012264
0.8481262
0.85595185
0.86379623
0.87170124
0.87951632
0.88702665
0.89439569
0.90177802
0.90908562
0.91595255
0.92144157
0.9251203
0.92771706
0.92970665
0.93124418
0.93240579
0.93326093
0.93385942
0.93401516
0.81460241
0.82819333
0.83862651
0.84762699
0.85592941
0.86397194
0.87193192
0.87980634
0.88738148
0.89460474
0.90177791
0.90901495
0.91613468
0.92241568
0.92693372
0.9300549
0.93242509
0.93429853
0.93576759
0.93689684
0.93772358
0.93830646
0.93843536
0.82031488
0.83485716
0.84580736
0.85517659
0.86376251
0.87201283
0.88008353
0.88791433
0.89527576
0.90231681
0.9093434
0.91638657
0.92306104
0.92835903
0.9320016
0.93472915
0.93691595
0.93867368
0.94006129
0.94113582
0.94193208
0.94248319
0.94259241
0.82618533
0.84154025
0.85295619
0.86266731
0.87152766
0.87998089
0.88814821
0.89590851
0.90312049
0.9100753
0.91700481
0.92380641
0.92971368
0.93390313
0.93688421
0.9392716
0.94125383
0.94287559
0.94416954
0.94517142
0.94591435
0.94642776
0.94651162
0.83222979
0.84830079
0.86010382
0.87011832
0.87921829
0.88783717
0.89606383
0.90374545
0.91087892
0.91781441
0.92466953
0.93106903
0.93598084
0.9392603
0.94172857
0.94378017
0.94551314
0.94695972
0.94813114
0.94905026
0.94972757
0.95019038
0.95024348
0.83833369
0.8549497
0.86710085
0.87738236
0.88669294
0.89544862
0.90371374
0.91133732
0.91846794
0.92542754
0.93217469
0.93793709
0.94186814
0.94452931
0.94659776
0.94832276
0.94977812
0.95100654
0.95201698
0.95282033
0.95341849
0.95382382
0.95384226
0.8445402
0.8616182
0.87401643
0.8845022
0.89396491
0.90280814
0.91106819
0.91865273
0.92582869
0.9328132
0.93930713
0.94424933
0.94742352
0.94967855
0.95146073
0.95291399
0.9541125
0.95510389
0.95591412
0.95656057
0.95704395
0.9573699
0.95733952
0.85073878
0.86815349
0.88076226
0.89140146
0.90096816
0.90984966
0.91807085
0.92563889
0.93287171
0.93982228
0.94581157
0.94992121
0.95260358
0.9545903
0.95616706
0.95742728
0.958438
0.95924275
0.95986959
0.96034676
0.96068451
0.96089795
0.96078654
0.85696745
0.87458736
0.88733682
0.89808361
0.90769805
0.91655661
0.92470003
0.93224407
0.93949004
0.94625701
0.951528
0.9549358
0.9572909
0.95910016
0.96053627
0.961671
0.96255787
0.96324085
0.96374608
0.96410506
0.96432378
0.96442594
0.96421737
0.86325377
0.88098383
0.89381877
0.90461152
0.91420907
0.92298682
0.93101787
0.93851426
0.94567773
0.95196921
0.9564022
0.95927903
0.96138551
0.96304873
0.96438066
0.96543846
0.96626204
0.96688953
0.96733685
0.96763022
0.96777759
0.96779936
0.96751481
0.86948793
0.88724035
0.90011899
0.91091215
0.92044661
0.92910086
0.93699896
0.94441447
0.95136239
0.95692217
0.96054772
0.96300555
0.96488205
0.9663883
0.96760571
0.96858525
0.96936041
0.96996058
0.97039759
0.97068637
0.9708287
0.97083458
0.97053075
0.87568582
0.89350203
0.90638563
0.91710774
0.92651488
0.93499224
0.94272638
0.94998971
0.95648038
0.96115255
0.96411553
0.96622445
0.9678759
0.96920259
0.97027763
0.97114875
0.97183947
0.97238256
0.97278628
0.97306886
0.97322265
0.97325234
0.97299118
0.88187605
0.89972054
0.91256157
0.9231575
0.93238711
0.94064797
0.94819683
0.95521049
0.96097879
0.96475285
0.96720654
0.96902056
0.97045214
0.9715933
0.9725106
0.973244
0.9738175
0.97425753
0.97457518
0.97479164
0.97490473
0.97491986
0.97467296
0.8880372
0.90592768
0.91866607
0.92905804
0.93805124
0.94606322
0.9533862
0.9599653
0.9648214
0.96783194
0.96988525
0.97143848
0.97265435
0.97360889
0.97436039
0.97494417
0.97537881
0.97569095
0.97588826
0.97599374
0.9760104
0.97595951
0.97567771
0.89406654
0.91193761
0.92452302
0.93466546
0.94337996
0.95112833
0.95817691
0.96407026
0.96795947
0.97039221
0.97212494
0.97344121
0.97445339
0.97522957
0.97581637
0.9762471
0.97653788
0.9767144
0.97677967
0.97676214
0.97666131
0.97651759
0.97617363
0.89985781
0.91770309
0.9300533
0.93990022
0.9483269
0.95581785
0.96248011
0.96746337
0.970495
0.97247899
0.9739301
0.97501739
0.97583293
0.97642997
0.97684938
0.97712013
0.97725827
0.97728946
0.9772206
0.97708209
0.97687387
0.97663539
0.9762362
0.90532473
0.92298322
0.93506454
0.94461189
0.9527678
0.95999938
0.9660402
0.97002004
0.9724129
0.97403934
0.97523458
0.97610197
0.97672022
0.97713099
0.97737353
0.97747669
0.97746261
0.97735887
0.97717886
0.97694995
0.97667137
0.97637032
0.97594329
0.91052942
0.9279106
0.93965308
0.94886944
0.95673465
0.96361284
0.96878908
0.97186379
0.97376882
0.97507983
0.97601302
0.97664628
0.97705346
0.97727447
0.97734991
0.97731089
0.97718178
0.97698651
0.97674174
0.97646237
0.97615061
0.97582431
0.97539464
0.91530156
0.93239197
0.94377289
0.95264952
0.96021531
0.96650136
0.97066254
0.97305751
0.97457279
0.97559377
0.97627698
0.97669861
0.97692788
0.97700418
0.97696188
0.97682597
0.97662055
0.97636378
0.97607357
0.97575642
0.97541995
0.97507564
0.97464295
0.91948775
0.93626036
0.94726014
0.95581338
0.96300259
0.9684318
0.97167891
0.97357891
0.97479514
0.97560091
0.9761179
0.97640749
0.97652593
0.97650283
0.97637021
0.97615199
0.9758763
0.97556076
0.97522006
0.97486133
0.97449531