/*--------------------------------*- C++ -*----------------------------------*\
| =========                 |                                                 |
| \\      /  F ield         | OpenFOAM: The Open Source CFD Toolbox           |
|  \\    /   O peration     | Version:  2406                                  |
|   \\  /    A nd           | Website:  www.openfoam.com                      |
|    \\/     M anipulation  |                                                 |
\*---------------------------------------------------------------------------*/
FoamFile
{
    version     2.0;
    format      ascii;
    arch        "LSB;label=32;scalar=64";
    class       volVectorField;
    location    "165";
    object      U;
}
// * * * * * * * * * * * * * * * * * * * * * * * * * * * * * * * * * * * * * //

dimensions      [0 1 -1 0 0 0 0];

internalField   nonuniform List<vector> 
20580
(
(0.082543173 -0.00043735563 1.054209e-21)
(0.08397234 -0.0012129055 -3.3630388e-20)
(0.091704628 0.0002884686 -4.3851396e-22)
(0.090539025 0.0009514811 1.6450603e-20)
(0.090132198 0.00045019976 3.9288385e-23)
(0.089422392 0.001489573 1.6839773e-20)
(0.088909358 0.0013054237 -4.9177006e-20)
(0.088657003 0.0011990573 -1.0210769e-20)
(0.086857216 0.0027272558 1.2513796e-20)
(0.085999114 0.0033524658 0)
(0.085178628 0.0027683605 -1.2656173e-20)
(0.084526871 0.0020857486 2.0326926e-20)
(0.082961817 0.0036083282 9.4866659e-21)
(0.081881419 0.0035090821 2.7478729e-21)
(0.081707077 0.0016784732 1.7391918e-20)
(0.080729979 0.00042280468 -3.3342683e-20)
(0.077686571 0.0054101198 -6.4391256e-20)
(0.077794843 0.0016898378 -7.0233211e-21)
(0.078658075 -0.0029292578 -3.3920885e-20)
(0.074291104 0.0035229834 4.2044513e-21)
(0.073825647 0.0015513015 5.011236e-22)
(0.076091084 -0.0068534692 -7.3027973e-21)
(0.072763008 -0.0044689106 6.167554e-20)
(0.066997616 0.0031350929 -7.8456732e-20)
(0.067888388 0.0015037434 -1.3494404e-19)
(0.07610693 -0.01122379 -1.3307296e-19)
(0.076324557 -0.024326452 -1.0081961e-19)
(0.071097377 -0.026777678 7.3025566e-21)
(0.074060146 -0.016570744 6.9012718e-20)
(0.075053105 -0.010430053 -1.1323907e-19)
(0.055716033 -0.016458431 -8.2951078e-20)
(0.079964625 -0.00036289428 0)
(0.080787007 0.00035342704 -1.3894483e-19)
(0.089001604 0.00035961597 1.3960726e-20)
(0.089123586 0.00044448735 -1.8669326e-20)
(0.088838854 0.00078678034 -9.7563562e-21)
(0.088609159 0.0013039756 -3.0087984e-22)
(0.088467836 0.00095424614 -9.5319821e-20)
(0.087483585 0.0021390877 2.4356888e-20)
(0.086505742 0.0023349884 1.6769473e-20)
(0.085789548 0.0029909296 -9.0099892e-21)
(0.085158398 0.0023349681 2.846795e-20)
(0.083991737 0.0023681561 5.9982149e-21)
(0.082557112 0.0036377339 1.087257e-20)
(0.082056114 0.0031066204 4.0271835e-22)
(0.081575978 0.0020837002 -1.8531057e-20)
(0.079559603 0.0018330187 -1.1646849e-21)
(0.077840146 0.0048819841 6.7117886e-21)
(0.079687343 7.3012041e-05 -7.6241226e-20)
(0.078006557 -0.0013381468 0)
(0.074335939 0.0036090007 3.4537744e-20)
(0.076776647 -0.000478967 0)
(0.077573081 -0.0060951309 -2.8680865e-20)
(0.072390647 -0.003300643 -5.9603817e-20)
(0.068875882 -0.00091690067 -8.1404151e-22)
(0.073063449 -0.0065568322 -8.9675696e-20)
(0.080810944 -0.014052607 3.537935e-20)
(0.078983977 -0.019170875 -2.6444387e-20)
(0.069305591 -0.01960151 -1.5916084e-20)
(0.06946736 -0.011588685 -1.7002242e-19)
(0.079133623 -0.0053710556 -1.9932679e-21)
(0.071918405 -0.01380827 2.2366555e-19)
(0.077503738 -1.2374019e-05 0)
(0.078105532 0.0024258616 0)
(0.086054744 0.0003856515 5.3680727e-20)
(0.086801357 -7.972104e-05 2.6910929e-19)
(0.086926065 0.0011609139 -5.904212e-20)
(0.087221533 0.0009165577 3.0843273e-24)
(0.0872372 0.0007926053 5.2722806e-20)
(0.086401407 0.0027851264 4.0773037e-21)
(0.085752885 0.0019401062 0)
(0.085263546 0.0024169629 -4.4635176e-20)
(0.084794206 0.0020513194 4.2852366e-21)
(0.083561546 0.0026463319 -4.3240902e-21)
(0.082342196 0.0032285027 0)
(0.082011593 0.0024541926 -1.1559667e-21)
(0.081541121 0.0023578325 3.0291951e-23)
(0.079199578 0.0026876285 -5.547089e-21)
(0.078135931 0.003401622 -4.4952704e-21)
(0.080305608 -0.00082603721 -1.5982444e-21)
(0.07751034 8.9099986e-05 -5.3295625e-20)
(0.074541518 0.0026009222 0)
(0.07834104 -0.0022786157 0)
(0.078512263 -0.0052117282 -5.3903324e-21)
(0.07314624 -0.0021178556 -2.5424426e-20)
(0.071039774 -0.0048384831 -7.1107722e-20)
(0.075099042 -0.012271171 -3.093509e-20)
(0.081753072 -0.014578526 8.1602417e-21)
(0.079942935 -0.011995954 -8.1047344e-20)
(0.067817107 -0.011418477 -3.0725958e-20)
(0.064583411 -0.010509124 5.6127309e-20)
(0.079383785 -0.0070705894 4.3207124e-20)
(0.090824653 -0.011362032 -1.7743761e-20)
(0.075109914 -0.00012133991 0)
(0.075675045 0.0033538349 -4.8969085e-23)
(0.083418011 0.00018847522 2.4088159e-21)
(0.084058616 -0.00041400679 3.1708536e-21)
(0.084451754 0.0012531168 -1.6493922e-19)
(0.085204344 0.00050770726 -5.541319e-20)
(0.085367489 0.00094176252 1.201182e-20)
(0.084926541 0.0028382912 0)
(0.084640012 0.0017579275 -1.8153909e-22)
(0.084338748 0.001785212 1.6664075e-20)
(0.083946458 0.0018823833 6.3230957e-20)
(0.082839083 0.0029723399 -3.4353976e-21)
(0.081983647 0.002785153 9.9875224e-23)
(0.081718881 0.001843086 -1.4314182e-21)
(0.081195503 0.00273234 -2.0277292e-20)
(0.079175264 0.0036052119 -2.1719921e-21)
(0.07877777 0.0019733724 -6.5675184e-20)
(0.080582756 -0.0013196406 1.7697296e-22)
(0.077275848 0.0018370948 1.4655813e-21)
(0.07517245 0.0019127263 -5.6734754e-21)
(0.079349572 -0.0039876842 9.0690431e-21)
(0.078476901 -0.0037073905 -2.7091266e-20)
(0.074180647 0.00020322237 6.7348556e-21)
(0.074507886 -0.0058328527 -1.2323567e-19)
(0.077065254 -0.015955742 0)
(0.080381287 -0.014143759 5.6452548e-21)
(0.079523595 -0.0048147654 6.3768857e-20)
(0.069244086 -0.0037978173 -6.0393966e-21)
(0.062058931 -0.011264408 -2.0639015e-20)
(0.073205124 -0.013777933 4.8673059e-20)
(0.095712518 -0.014328888 3.4929102e-20)
(0.072905103 -0.00031838923 0)
(0.073513175 0.0028301234 -5.96911e-21)
(0.081225351 -7.0177658e-05 -2.358552e-19)
(0.081311868 -0.00036381273 -2.0739882e-19)
(0.08183694 0.00097121859 -8.4744506e-22)
(0.082817358 0.00022117784 -5.2320688e-20)
(0.083026506 0.0013637829 0)
(0.083159951 0.0021583819 2.520027e-20)
(0.083154624 0.001777028 2.170886e-20)
(0.08303358 0.0011991868 2.9385074e-20)
(0.082678627 0.0016832935 5.4391317e-20)
(0.08183904 0.0031428024 7.3253329e-23)
(0.081430077 0.0022814194 2.6873703e-20)
(0.081108203 0.0013004631 3.9333911e-21)
(0.080505749 0.0026495202 -1.8953421e-20)
(0.079072097 0.0039554483 1.2126224e-20)
(0.079279114 0.00075092049 -9.2446767e-20)
(0.080319053 -0.0016083608 -5.5134726e-20)
(0.076998409 0.0033824093 4.1442535e-20)
(0.076379981 0.0011108265 0)
(0.080053021 -0.0053979036 5.1166347e-21)
(0.077779069 -0.0019565013 -9.5447819e-21)
(0.075036238 0.0020425435 -1.2153149e-20)
(0.078472028 -0.004146719 -7.5631828e-21)
(0.079335446 -0.014910597 0)
(0.077667609 -0.013111823 -1.928194e-19)
(0.078276879 -0.00043834188 8.7659582e-20)
(0.07524149 0.0017943133 9.5192897e-20)
(0.067368141 -0.011937382 -1.9370479e-19)
(0.069345468 -0.023866235 -2.1560365e-20)
(0.088488018 -0.023360953 -1.092065e-19)
(0.071044954 -0.00062664589 -1.6576999e-19)
(0.071660469 0.0012666226 3.8198408e-22)
(0.079344121 -0.00027540606 2.1314872e-23)
(0.079025171 0.00012169262 3.5143114e-20)
(0.079498661 0.00047369637 6.0196282e-20)
(0.080422229 0.00021593725 5.7969373e-23)
(0.080783453 0.0017616525 1.8399873e-20)
(0.081305254 0.0011605005 -2.4108355e-23)
(0.081510677 0.0018176479 3.2313891e-20)
(0.08153728 0.00085064533 -2.0030482e-20)
(0.081166718 0.0016448206 4.2277337e-20)
(0.080665453 0.0030757016 1.1157039e-20)
(0.080693208 0.0018083693 2.7237646e-20)
(0.080237593 0.001105679 8.6358959e-22)
(0.079542305 0.0021191344 -2.2965159e-20)
(0.078853618 0.0038030662 -7.0587412e-22)
(0.079577629 -3.1419025e-05 -8.3018202e-20)
(0.079533531 -0.0012294 -7.1683719e-20)
(0.076613257 0.0046203903 2.2191485e-21)
(0.077758297 0.0003776525 0)
(0.080298047 -0.0054911796 -9.144e-22)
(0.07658173 -0.0004324677 2.2199794e-19)
(0.075337149 0.0025173473 1.5373364e-20)
(0.08135607 -0.0025384102 0)
(0.081558471 -0.010138401 5.8894776e-20)
(0.074902927 -0.010404284 9.2211948e-20)
(0.075240811 -0.00066902568 -7.952755e-20)
(0.081326333 0.0024885058 9.6697933e-20)
(0.07970936 -0.0109455 1.4518124e-19)
(0.074129007 -0.029807833 6.6930977e-20)
(0.076987575 -0.030987365 -1.6570377e-19)
(0.06960463 -0.00075146122 3.6228898e-21)
(0.070291947 -0.00054763077 -4.8484517e-20)
(0.077890478 -0.00027922856 1.562592e-22)
(0.077438715 0.00060403725 1.4266506e-19)
(0.077891546 -1.183976e-05 -2.9824022e-20)
(0.07847801 0.0005042195 -7.0264784e-20)
(0.079047715 0.0017584409 -1.5875948e-20)
(0.07969446 0.0004336502 1.0308697e-23)
(0.080012256 0.0016264512 -4.526016e-23)
(0.080110472 0.00089331227 -3.492747e-21)
(0.079670728 0.0017806869 -4.4554027e-22)
(0.079522223 0.0026865865 1.017766e-21)
(0.079842087 0.0014230389 -1.6291606e-20)
(0.079296252 0.0012999924 -5.7169241e-23)
(0.0784677 0.0014494535 1.510882e-20)
(0.078414766 0.0029910513 -3.1638729e-21)
(0.079504607 -0.00058381571 5.4575183e-22)
(0.078197243 -0.00023564252 1.359208e-19)
(0.076174203 0.0047523222 0)
(0.078882595 -0.00056594756 -8.6017783e-20)
(0.080002666 -0.0042929772 7.1273052e-21)
(0.0753196 0.00044148155 7.4366008e-20)
(0.075107092 0.0011140596 1.5696881e-20)
(0.082487949 -0.0025895656 2.0156495e-20)
(0.083146318 -0.0048230623 5.2861942e-20)
(0.073444648 -0.0056142755 1.3390925e-20)
(0.071070245 -0.0031108448 6.9831867e-20)
(0.082494921 -0.0013590841 -8.782418e-21)
(0.091301365 -0.010181961 3.2679402e-19)
(0.08558819 -0.028014537 -2.4260748e-19)
(0.074010691 -0.033814334 1.6850611e-20)
(0.069510963 -0.00082189021 -1.1978639e-18)
(0.070182478 -0.001870727 0)
(0.077422363 -6.0850225e-05 -6.6180905e-20)
(0.076916984 0.00084849226 -2.2080403e-19)
(0.077291005 -0.0002186089 1.5028748e-19)
(0.077686534 0.0009499504 -1.6813948e-22)
(0.078265429 0.0011741536 1.0038729e-20)
(0.078781776 0.00023761004 2.9687371e-22)
(0.079035679 0.0012350092 -2.3438964e-20)
(0.079101108 0.0012457911 -2.9666884e-20)
(0.078600058 0.0019864569 1.0906879e-21)
(0.078699705 0.0020516849 7.7223179e-22)
(0.07905031 0.0011988562 -2.3077692e-22)
(0.078377876 0.0018440081 -1.6177446e-21)
(0.07753033 0.0010890172 1.9616304e-21)
(0.077820087 0.0017419863 -1.4397857e-20)
(0.078939564 -0.00060953395 1.6645975e-20)
(0.076730593 0.0010753502 5.8571232e-20)
(0.075571518 0.0036396154 -4.0826413e-22)
(0.079239748 -0.0016873097 1.5061697e-21)
(0.079152056 -0.0025905913 -9.6743548e-21)
(0.074247391 0.0016241728 8.8766558e-23)
(0.074534154 -0.0019013345 0)
(0.081690419 -0.00547822 1.1014599e-20)
(0.083417727 -0.0016296324 -2.4051824e-21)
(0.074622013 -0.00027350063 1.6998906e-19)
(0.069696463 -0.0056715243 -2.3123332e-20)
(0.079805038 -0.0089356977 8.0575395e-20)
(0.093776801 -0.011731606 -4.9594997e-20)
(0.093197434 -0.018164159 2.6704536e-19)
(0.077954196 -0.02591199 6.9301318e-20)
(0.070290868 -0.00061702939 5.3390756e-19)
(0.070787778 -0.0019079803 1.799591e-23)
(0.077723784 0.00021687195 -7.8232573e-20)
(0.077340092 0.00063067958 -2.595684e-19)
(0.077520468 -0.00017985074 1.6053756e-21)
(0.077808119 0.0011825121 5.2451415e-23)
(0.078445402 0.00029695179 -3.1824896e-20)
(0.078706502 0.0004921521 1.6693178e-23)
(0.078848885 0.00080246955 7.1607513e-21)
(0.078756314 0.0016669605 1.1185129e-20)
(0.078207399 0.0020533543 3.0170098e-20)
(0.078311077 0.0013158513 0)
(0.078364015 0.0010796203 -2.3154347e-22)
(0.077666342 0.0023271044 -1.864188e-21)
(0.076770035 0.0011301807 2.9953115e-20)
(0.077153899 0.00054225941 9.5255656e-21)
(0.077937185 -0.00011988885 2.8548086e-21)
(0.075329269 0.002451629 -4.3302261e-20)
(0.075075813 0.0021726223 5.1960591e-20)
(0.078671956 -0.0027592217 3.118932e-20)
(0.077605153 -0.00097913785 -5.2977318e-20)
(0.074079872 0.0033821261 -1.527757e-22)
(0.075287604 -0.0043358305 1.0179547e-20)
(0.07995734 -0.0092253929 7.8799053e-21)
(0.081707795 -0.00084845892 -3.5321942e-21)
(0.077282362 0.0034338295 -6.6301747e-20)
(0.072758947 -0.0069449227 1.8210716e-19)
(0.078198788 -0.016870896 2.9429679e-20)
(0.090536768 -0.014709788 1.6355669e-19)
(0.09504259 -0.0079162325 -1.838496e-20)
(0.08488786 -0.0099188412 1.4532289e-19)
(0.073959525 -0.00016025379 1.2174994e-18)
(0.074325343 -0.00034201627 2.1001977e-22)
(0.080216139 0.0006021873 3.1242149e-19)
(0.079393507 0.00026032263 2.4284546e-19)
(0.07894091 0.00015699836 -9.6665632e-22)
(0.079015202 0.0010676131 0)
(0.079436769 -0.00033829356 -3.3981196e-21)
(0.079302186 0.00096174119 1.9700736e-20)
(0.07923537 0.00048800416 -4.0281053e-20)
(0.078964494 0.0019418317 8.5644447e-21)
(0.078459838 0.002066982 -7.6826009e-23)
(0.078361595 0.00078957043 -1.6405645e-22)
(0.07794167 0.0010322063 0)
(0.077253876 0.0026401959 -1.5175509e-20)
(0.076367837 0.0013635868 -2.2774806e-20)
(0.076329917 -0.00010040054 -1.4067933e-21)
(0.076519425 0.0004281451 -6.1488879e-20)
(0.074066742 0.0033889356 -1.696185e-20)
(0.074593103 0.00078005693 7.7849753e-20)
(0.077456184 -0.0036612946 -7.7903692e-21)
(0.075069451 0.00068487273 -8.0676486e-20)
(0.073698899 0.0048041696 4.7837127e-20)
(0.076659494 -0.0045893946 1.8261627e-19)
(0.077453463 -0.011620539 -3.7644897e-20)
(0.077176278 -0.0022739381 2.7317877e-19)
(0.078440168 0.0043978362 1.4327205e-22)
(0.078403969 -0.0056313358 -2.7412362e-21)
(0.078733176 -0.020578331 -3.3170445e-20)
(0.083899574 -0.017300572 2.076917e-19)
(0.090808411 -0.0030933135 2.3042983e-19)
(0.090893948 0.005664412 -1.0433623e-19)
(0.088103633 0.00083549253 1.8078176e-20)
(0.083029779 0.002559793 1.9965663e-22)
(0.086684345 0.00092551204 7.286486e-20)
(0.085232245 -9.0883075e-05 5.5125025e-22)
(0.083440772 0.00060600514 -1.1747968e-22)
(0.082668082 0.00062393806 3.49056e-20)
(0.082133429 -0.00033497069 1.4735145e-20)
(0.081331452 0.0013255123 7.8453479e-24)
(0.080724225 0.00047333742 -5.3052282e-20)
(0.079971744 0.0020133728 -7.5280104e-21)
(0.079354638 0.0019652896 -1.9000418e-20)
(0.078891722 0.00056623661 2.2669468e-20)
(0.077951902 0.0010093461 0)
(0.077318052 0.0025160869 3.0187032e-22)
(0.076646595 0.0016882244 -4.5835776e-20)
(0.076093401 -0.00018140527 -2.0345951e-22)
(0.075566474 0.00096604605 2.6477661e-21)
(0.073586602 0.0039708464 -1.9950028e-23)
(0.074750857 -0.00043383304 5.6344432e-21)
(0.07619529 -0.0039498323 3.4331558e-22)
(0.072533365 0.0015850822 1.0123526e-19)
(0.073248413 0.0041749797 2.9102446e-20)
(0.07840049 -0.003437697 2.345775e-22)
(0.076092764 -0.010181012 4.0293709e-20)
(0.072185719 -0.0040111025 7.4750571e-20)
(0.076694369 0.0027599663 2.539782e-20)
(0.083135495 -0.0033730786 -1.4376554e-19)
(0.081568499 -0.017318857 1.7658831e-19)
(0.077391385 -0.018538087 -1.3693911e-20)
(0.080338334 -0.004191368 -2.7502652e-19)
(0.088353747 0.0098725651 -3.1093919e-20)
(0.1036679 0.0016545421 8.4746484e-19)
(0.093205286 0.0049015951 0)
(0.095902787 0.0011222185 5.2780855e-21)
(0.09385301 0.00010043498 2.773791e-19)
(0.09113515 0.0011809106 1.6560835e-19)
(0.089742411 0.00021950348 3.2382055e-21)
(0.087973096 0.00039051586 -1.6604614e-23)
(0.086138063 0.0013319951 4.6273308e-23)
(0.08443958 0.00087425504 3.621587e-20)
(0.082708503 0.0018477657 -9.722452e-21)
(0.081580492 0.0017484299 1.1177603e-20)
(0.080402782 0.00061524546 -3.9830684e-23)
(0.078788752 0.0011677573 3.3675991e-20)
(0.078039376 0.0019491352 0)
(0.077444671 0.0019327833 -2.8054306e-20)
(0.076513173 0.00010122719 -2.6971869e-20)
(0.075319698 0.0013157673 5.466811e-20)
(0.074154346 0.0038495888 3.3758844e-20)
(0.076046288 -0.0012870406 -4.7763039e-22)
(0.075893335 -0.0028377688 4.163397e-20)
(0.071201777 0.0021061281 6.8799578e-20)
(0.073040889 0.0024672663 -1.935501e-21)
(0.079480552 -0.0025159211 -6.9285348e-20)
(0.075744601 -0.0055356606 -6.6525084e-20)
(0.068713633 -0.0039117601 -5.5109721e-20)
(0.073345663 -0.0003612602 4.5596363e-20)
(0.084052758 -0.0030716659 4.2195761e-20)
(0.083872723 -0.0094073503 2.6102849e-21)
(0.073573328 -0.014029607 1.0561833e-19)
(0.069544507 -0.0074560471 9.8652797e-20)
(0.079037479 0.0025937285 -1.0550189e-19)
(0.10370619 0.0020082432 -4.8534302e-19)
(0.097312613 0.0059291274 -4.0769548e-20)
(0.10125433 0.0011109883 1.1508714e-21)
(0.099540622 0.00043084549 3.9261368e-21)
(0.097376949 0.001384882 3.8841822e-24)
(0.096280206 2.988553e-05 -1.0641337e-20)
(0.094503146 0.0013435087 -2.9530132e-20)
(0.092478529 0.00089029509 9.3356617e-23)
(0.090131348 0.0013236746 -2.2416636e-22)
(0.087709146 0.0013647692 8.2922086e-21)
(0.085921833 0.001135071 -3.3137127e-22)
(0.083990053 0.00071714765 1.8340434e-21)
(0.08160456 0.0013855658 -1.4218015e-22)
(0.08033656 0.00088207817 1.1365967e-21)
(0.079643708 0.0017558723 0)
(0.078407014 0.00060050136 0)
(0.076573936 0.0016660171 -2.5989553e-20)
(0.076200788 0.002672587 3.1853557e-21)
(0.078269837 -0.0020812596 -4.6044319e-20)
(0.076905416 -0.0010405314 9.2904574e-21)
(0.072128475 0.0019902722 1.5768888e-20)
(0.074381073 -0.00073558159 7.9771076e-21)
(0.080942161 -0.0034290171 0)
(0.077402299 -0.00038544727 0)
(0.068830209 -0.00081788471 0)
(0.071559305 -0.0037335975 1.2187159e-20)
(0.082959482 -0.0050921856 -2.8163187e-21)
(0.086122547 -0.0025943129 -4.1046684e-21)
(0.075315166 -0.0042632627 -3.8897183e-20)
(0.064346149 -0.0077951487 1.3857535e-20)
(0.068606046 -0.0082732331 3.490658e-20)
(0.10322755 0.0020075413 -2.3080571e-19)
(0.097431793 0.0055130209 -3.8594784e-22)
(0.10179951 0.0011473235 -1.4937053e-21)
(0.10012033 0.00096114046 -3.3407343e-19)
(0.098580504 0.0014103418 0)
(0.097757315 0.00039115279 -2.7985469e-22)
(0.096201671 0.0020339076 1.5000285e-20)
(0.09460216 0.00052468959 -2.085373e-20)
(0.092685437 0.0015870274 7.2941574e-23)
(0.090804984 0.00069553603 3.2689467e-21)
(0.089388583 0.00051147833 2.3996954e-21)
(0.087669639 0.0009592748 0)
(0.085480187 0.0017379357 4.6375247e-20)
(0.084097982 3.1014442e-06 1.7305578e-20)
(0.083546271 0.0010641018 -3.7709739e-20)
(0.082456334 0.0010601309 -1.8042845e-21)
(0.080456171 0.0018696374 8.564485e-23)
(0.080671391 0.0012794759 -3.5890111e-21)
(0.082384986 -0.002172471 2.3622932e-21)
(0.080428899 0.0012764906 1.00782e-20)
(0.076545501 0.0030334572 3.1020017e-22)
(0.078578451 -0.0038056531 4.3407476e-20)
(0.083456388 -0.0041730083 -6.4111526e-20)
(0.081080479 0.0040766776 0)
(0.074571688 0.0043232982 -8.9772879e-21)
(0.075151325 -0.0059422874 3.1591038e-20)
(0.082674591 -0.007851904 1.2311116e-19)
(0.087058766 0.00041420593 -6.5091841e-20)
(0.082312459 0.0062309243 -6.677367e-20)
(0.072099181 -0.001594856 -1.178475e-19)
(0.069381903 -0.0139336 -5.2411244e-20)
(0.10575969 0.0015886068 2.5376492e-19)
(0.096244027 0.0030007549 -1.834238e-20)
(0.10057717 0.00087960108 1.088302e-21)
(0.098997588 0.0011183282 9.6103649e-20)
(0.097543462 0.00083602989 -3.9282969e-20)
(0.096382008 0.00074277923 5.5005132e-23)
(0.094984072 0.0017513993 -5.5724752e-20)
(0.093636767 0.00027380458 1.3666035e-20)
(0.092042243 0.0014075184 -1.0338246e-22)
(0.090547556 9.1848804e-05 -1.9252374e-22)
(0.089335205 -4.2175713e-05 -3.9125161e-21)
(0.087865888 0.0010020414 -4.0226337e-22)
(0.086715645 0.0016705417 -5.2012763e-22)
(0.085908934 -0.00053149697 -3.1217149e-22)
(0.085537641 0.00035884465 -5.3014482e-20)
(0.084996845 0.0014505522 -1.1857764e-22)
(0.083476389 0.001740287 -1.5074924e-20)
(0.084161115 -0.00020511741 -4.3736844e-21)
(0.085217471 -0.0021432087 9.0405858e-22)
(0.083231096 0.0029964736 0)
(0.081750172 0.0042907806 9.6727551e-20)
(0.083669004 -0.0053562333 2.2412835e-21)
(0.085420191 -0.0053366583 -1.5824074e-19)
(0.083703609 0.0055969069 3.8686921e-21)
(0.081981445 0.0075381118 5.0492836e-20)
(0.082585555 -0.0058775989 -2.8118476e-19)
(0.084277071 -0.011208254 -4.5742206e-20)
(0.086153295 -0.00088793356 -4.274571e-22)
(0.087107588 0.010055622 3.4510014e-21)
(0.085059821 0.0054674972 1.2440854e-19)
(0.080412538 -0.012118652 -1.6985962e-21)
(0.10899388 0.0010702355 -2.9674561e-19)
(0.092784505 0.00010200188 3.996155e-23)
(0.096467324 0.00057157365 3.589023e-20)
(0.094461277 0.0012192505 -2.5751297e-21)
(0.092809933 0.00018943148 1.1205835e-21)
(0.091918491 0.0010067286 -7.4693741e-21)
(0.091218875 0.00081955194 0)
(0.09032497 0.00040606277 7.4010726e-23)
(0.089214615 0.00090917444 -3.2164343e-23)
(0.088285294 -0.00018794741 -9.0250863e-20)
(0.087397961 -0.00011017158 3.6139758e-23)
(0.08645962 0.0011546424 6.7369879e-23)
(0.086036267 0.0016539192 -2.8920302e-20)
(0.085414651 -0.00056504316 -4.8936111e-20)
(0.084854307 -0.00030134588 4.3394395e-20)
(0.08449018 0.0012662509 3.7608976e-22)
(0.08364152 0.0015292035 2.4582684e-22)
(0.084541401 -0.00097319272 4.5621801e-22)
(0.084613343 -0.0016088801 0)
(0.082490367 0.0038384841 -7.9265867e-20)
(0.083529984 0.0043043294 9.5841153e-20)
(0.085870013 -0.0047142756 -6.6650868e-20)
(0.084007314 -0.0061859583 -4.8894655e-20)
(0.081967483 0.0045033714 -1.1098067e-21)
(0.085802447 0.0070198287 7.1102826e-21)
(0.08927739 -0.0039771081 1.0494612e-19)
(0.085927002 -0.012457182 -3.0209963e-20)
(0.082719325 -0.0046503929 9.3916129e-20)
(0.086644389 0.0068049084 -7.6250392e-20)
(0.093968117 0.007752765 4.0810653e-20)
(0.094467197 -0.005798852 7.5667709e-21)
(0.10423075 0.00019345322 -4.8317372e-19)
(0.085802087 -0.0027988554 2.9398791e-24)
(0.089786165 3.6943438e-05 -2.8908634e-21)
(0.08787188 0.00063685256 4.0995807e-19)
(0.086756112 -0.0005804453 -1.5981829e-21)
(0.086338094 0.00055410594 2.1780021e-20)
(0.086269408 -0.00045873534 0)
(0.085912706 0.00060669186 0)
(0.085608445 0.00024947265 -2.3642282e-20)
(0.085338643 -0.00020782463 0)
(0.084754511 -0.00024425462 3.3481379e-20)
(0.084264438 0.0007345387 -4.6231595e-20)
(0.084506555 0.00091746991 0)
(0.084189611 -0.00032075591 -7.6783221e-20)
(0.083361906 -0.00042494041 1.8421281e-20)
(0.082988647 0.00082879417 4.101472e-20)
(0.082675985 0.0010810479 1.0248435e-21)
(0.083650971 -0.0015067529 -8.235645e-22)
(0.082693047 -0.001017549 -5.809297e-20)
(0.080491439 0.0032851448 -5.9809379e-20)
(0.08355058 0.0029404418 -6.3401157e-20)
(0.086671181 -0.0028251949 -9.254974e-22)
(0.081884553 -0.0043457583 1.2460081e-20)
(0.078226202 0.0018835337 -6.1221041e-20)
(0.085106291 0.0034778881 3.4479752e-20)
(0.092378502 -0.0024341233 1.6538871e-19)
(0.087299233 -0.0089183597 -1.5724129e-20)
(0.078567879 -0.007324524 -1.183455e-20)
(0.08093392 3.66113e-05 1.8303099e-19)
(0.093453671 0.0027299366 8.4330931e-20)
(0.10165605 -0.0013400724 -8.6785885e-20)
(0.087454013 -0.00086899726 4.7831474e-19)
(0.080336459 -0.0033072427 -1.4295792e-22)
(0.085728436 -0.00016691993 3.3548145e-19)
(0.08489024 0.00020785364 -3.8445554e-19)
(0.084512524 -0.00053999501 2.1592553e-19)
(0.08463452 0.0001898403 4.6078444e-22)
(0.084967809 -0.00094406662 3.4488258e-23)
(0.084948664 0.0012116404 -5.4218472e-20)
(0.085104812 -0.00010406847 2.6246123e-21)
(0.085076742 0.00018242858 1.4786082e-20)
(0.084641487 0.00029316435 -1.0201689e-20)
(0.08427533 0.00067917126 3.1811125e-22)
(0.084723443 0.00045965183 -2.8529184e-22)
(0.084545459 0.00013778997 -1.3877129e-20)
(0.08358205 -0.00047137127 -1.0271358e-20)
(0.083230375 0.00037683397 2.8389988e-20)
(0.083359066 0.00086932743 -1.5898591e-20)
(0.084219539 -0.0010695613 1.4256471e-21)
(0.082391553 0.00061343012 -5.6972773e-21)
(0.079848388 0.0020767831 9.2604807e-21)
(0.083347314 0.00070050269 -2.1215483e-20)
(0.086750422 -0.0011374966 6.644274e-21)
(0.081030114 -0.00027585432 -6.9918818e-20)
(0.075737249 0.000174987 -5.1033507e-23)
(0.082324825 -0.0012697069 2.1175821e-20)
(0.091596635 -0.0032473791 9.8000478e-21)
(0.088157858 -0.0026271568 -2.4022161e-21)
(0.077234605 -0.0041793521 9.0947266e-20)
(0.075897356 -0.0056692207 -5.0346479e-20)
(0.08779294 -0.0052037091 6.5132864e-20)
(0.099826016 -0.0033567537 1.3514365e-19)
(0.080711447 -0.00059056153 5.2452501e-19)
(0.080056174 -0.0010677659 -6.1132987e-23)
(0.086052517 -8.5877916e-05 -3.2366614e-22)
(0.085649124 -0.00035134724 -1.248218e-21)
(0.085440317 -0.00036609746 -6.1550348e-20)
(0.085725075 -0.00036787207 -6.4266724e-20)
(0.086044841 -0.0010425743 3.2894449e-20)
(0.086291252 0.00059632216 1.8650549e-20)
(0.086693876 -0.00030525013 -2.3505791e-20)
(0.086675225 -2.0086616e-05 4.1168569e-22)
(0.086567296 0.00019531811 -3.1221871e-21)
(0.086441482 0.00025489365 -4.8326835e-20)
(0.087085294 -0.00064095004 -1.3060589e-21)
(0.086986647 0.0011187399 -1.9051545e-20)
(0.085913737 0.00020802306 2.0696078e-22)
(0.085332869 3.9427269e-05 -4.2566992e-21)
(0.085620316 0.00012626944 7.8594801e-21)
(0.086202155 -0.0008561285 0)
(0.084366595 0.0018845492 -1.3888423e-22)
(0.082023371 0.00065779202 6.6601332e-22)
(0.084853795 -0.0028146969 -3.0425867e-20)
(0.087926507 -0.00089491703 -3.6418697e-20)
(0.083180535 0.0035534523 3.7188094e-21)
(0.07770952 0.00040654586 -6.0801486e-20)
(0.082163178 -0.0065939829 4.1433041e-21)
(0.089938911 -0.0056870439 -6.154602e-20)
(0.088881545 0.0019666026 -1.713698e-20)
(0.080462098 0.0025227726 -9.5080464e-20)
(0.076325566 -0.0061511595 1.6339243e-19)
(0.083442694 -0.011764539 -9.6806833e-20)
(0.094206034 -0.008124343 -2.8807252e-19)
(0.084728221 -0.00032564239 -9.1597504e-20)
(0.084815993 0.0018877824 -1.320553e-20)
(0.090900719 0.0001555293 -5.7806877e-21)
(0.090433421 -0.000242931 -2.7909732e-19)
(0.089826486 0.00051069223 4.8658572e-22)
(0.089779624 -0.00024121098 4.269087e-24)
(0.089598316 4.0833417e-05 3.19433e-23)
(0.089581644 4.232394e-05 -6.6277597e-21)
(0.089942069 -0.00054591353 5.794929e-20)
(0.089779824 0.00039728942 3.174706e-20)
(0.089455481 0.0014275931 3.382324e-21)
(0.08935042 0.0006606488 2.8295241e-22)
(0.08936251 -0.00094396778 -7.6511388e-21)
(0.089234515 0.0010133355 -3.2228743e-23)
(0.088598529 0.00059022052 7.9320648e-20)
(0.087971182 0.00020466426 -1.4293596e-20)
(0.087745403 0.00010574341 -2.2923327e-22)
(0.087466279 6.5980867e-05 -9.0414148e-23)
(0.085751315 0.0036142134 -6.3748519e-21)
(0.084063192 0.00080604657 1.160718e-19)
(0.085240304 -0.005055747 -4.0455216e-21)
(0.086638721 -0.00040612197 1.5493478e-19)
(0.083893844 0.0071807373 5.7818407e-21)
(0.080877821 0.003316864 -1.7411747e-19)
(0.082968976 -0.0079795792 1.6978562e-20)
(0.086794998 -0.0062812804 -8.4773296e-20)
(0.086858283 0.0052330575 -3.0885195e-19)
(0.084150112 0.010273228 -4.939128e-20)
(0.081881268 -0.00047208343 -1.0433178e-19)
(0.083080325 -0.012337992 -5.4905092e-20)
(0.087525374 -0.010311844 4.0339111e-20)
(0.1049407 0.00079899158 1.0862e-18)
(0.093191531 0.0044856583 -2.7816122e-22)
(0.097239521 0.00085023241 -2.2804713e-21)
(0.095589899 -0.00014544077 -2.3483982e-21)
(0.093956191 0.0010866186 -1.0108232e-21)
(0.093192103 -0.00038374315 -1.5379899e-22)
(0.09213957 0.00079632922 7.3228957e-23)
(0.091622995 -0.0013112113 -7.3631065e-23)
(0.091095181 -0.00024249832 7.2334562e-24)
(0.090257816 -0.00063321349 -1.1328501e-24)
(0.090043036 0.00088859972 -2.7008391e-23)
(0.090037478 0.0002281456 1.3260091e-19)
(0.089737594 -0.0017272913 4.3808509e-21)
(0.089261422 0.0018369366 -3.4294733e-23)
(0.088518676 0.00068144357 3.7626116e-23)
(0.087652889 -0.00035632051 4.3332306e-22)
(0.087263411 -0.00074675677 7.4281632e-22)
(0.086594384 -0.00030674093 -1.0920213e-21)
(0.085668139 0.0035046771 7.7608637e-21)
(0.085757567 0.00034433745 -1.3287146e-19)
(0.085543024 -0.0061519385 -2.2493823e-20)
(0.084559929 -0.0017836143 -1.1429509e-21)
(0.083795338 0.0066972773 -1.3961485e-21)
(0.084869624 0.0036814826 2.5244366e-21)
(0.085807998 -0.0075189324 6.1981263e-20)
(0.08423 -0.0080009639 4.6819346e-20)
(0.083183612 0.0041267842 4.0998039e-21)
(0.085994646 0.011698506 -3.0991602e-20)
(0.089383952 0.0037902892 -1.0151059e-19)
(0.088021532 -0.0092408533 1.9866846e-19)
(0.084799377 -0.011354789 2.4663765e-22)
(0.10715714 -0.00019363099 1.5522406e-20)
(0.095292512 0.0035333347 2.3393409e-20)
(0.098787523 0.0005621662 2.035442e-19)
(0.096873719 -3.7761015e-05 4.1447835e-19)
(0.094988538 0.0010843399 2.2356608e-19)
(0.094076408 -7.2628401e-05 2.9233301e-20)
(0.093141385 0.0013577954 7.9011229e-20)
(0.09251844 -0.0013090265 -6.2422703e-23)
(0.092101994 -0.00073957717 5.0535355e-21)
(0.091367472 0.00022808766 6.5768205e-20)
(0.09089937 0.0015892873 -2.7850103e-21)
(0.091211298 0.00025835124 -2.0730675e-22)
(0.090166721 -0.00096039484 -1.6379331e-20)
(0.089949228 -4.4025002e-07 -1.2849599e-19)
(0.090246514 0.00044843407 7.7081733e-22)
(0.0894562 0.00020149512 5.7088799e-20)
(0.089004929 2.997284e-06 -1.1388515e-22)
(0.087850994 0.00023257656 -3.6987629e-20)
(0.087529881 0.0030873575 -1.8372172e-22)
(0.089427328 0.0010172038 -9.3153913e-20)
(0.088592564 -0.0038648399 5.6881941e-20)
(0.085262839 -0.0019308914 1.0577148e-21)
(0.085443951 0.005179353 -5.4303925e-21)
(0.090428397 0.0043241089 9.2285598e-20)
(0.092267605 -0.0030869316 -6.8818221e-21)
(0.086424342 -0.0057658264 9.3541934e-21)
(0.082304728 0.0022245165 3.3543839e-19)
(0.088384069 0.0092476846 0)
(0.097847795 0.0062424647 4.0183511e-20)
(0.097722874 -0.0026516413 2.6256817e-19)
(0.089780568 -0.006319257 4.0741265e-20)
(0.093578163 0.00011530181 -2.0196489e-19)
(0.100862 0.0010806312 0)
(0.095262376 0.00026429932 -1.3301799e-22)
(0.10617786 -8.8160836e-05 4.4640477e-20)
(0.094640444 0.00024176652 2.5159125e-20)
(0.10492699 -0.00035033131 4.0198991e-22)
(0.098951816 0.00020840282 5.105027e-20)
(0.1040075 -0.00072862701 1.1085541e-20)
(0.098114433 0.00060248791 -8.0844164e-22)
(0.10436977 -0.0014855402 2.304717e-20)
(0.10535545 0.00036509165 8.2774816e-22)
(0.096519249 0.00011275665 -1.793859e-20)
(0.1040338 -0.00053883706 1.2729345e-20)
(0.094740663 0.0016834887 -3.7694979e-20)
(0.10258339 -0.0012062885 -6.0628261e-21)
(0.10297528 -0.00034078257 4.7545376e-22)
(0.1026866 -0.00041670164 -1.4686672e-20)
(0.1015372 -0.00034086206 -6.8003085e-21)
(0.10171212 0.00039326971 -2.9641661e-20)
(0.10434436 1.6834366e-05 1.3448044e-22)
(0.10269882 -0.0010671275 5.0162063e-20)
(0.098123419 -0.0010088548 8.8392337e-21)
(0.099306302 0.00043640882 9.7930681e-21)
(0.10621414 0.00048839068 -1.7749555e-20)
(0.10898112 -0.00092100042 -3.6304694e-20)
(0.10105331 -0.0018924359 3.8826718e-20)
(0.094892072 -0.00047417638 -1.4134255e-21)