/*--------------------------------*- C++ -*----------------------------------*\
| =========                 |                                                 |
| \\      /  F ield         | OpenFOAM: The Open Source CFD Toolbox           |
|  \\    /   O peration     | Version:  2406                                  |
|   \\  /    A nd           | Website:  www.openfoam.com                      |
|    \\/     M anipulation  |                                                 |
\*---------------------------------------------------------------------------*/
FoamFile
{
    version     2.0;
    format      ascii;
    arch        "LSB;label=32;scalar=64";
    class       volVectorField;
    location    "165";
    object      U_0;
}
// * * * * * * * * * * * * * * * * * * * * * * * * * * * * * * * * * * * * * //

dimensions      [0 1 -1 0 0 0 0];

internalField   nonuniform List<vector> 
20580
(
(0.0826772 -0.00076510182 8.9152278e-22)
(0.083818861 -0.0011996422 3.5881821e-20)
(0.091839054 8.0684078e-05 -5.4142537e-22)
(0.090667614 0.00067707042 1.6406591e-20)
(0.089951025 0.00072261201 4.546115e-23)
(0.089590173 0.0012768338 1.9731621e-20)
(0.088839522 0.0012505898 -3.9334439e-20)
(0.088659073 0.00097178528 -5.5110001e-21)
(0.086920602 0.0025214464 1.2782043e-20)
(0.08605038 0.003292893 0)
(0.085057801 0.0031030045 -1.256801e-20)
(0.08454965 0.0020480717 -4.9116696e-21)
(0.083038776 0.0033126584 1.0910329e-20)
(0.081777811 0.0036669217 1.488776e-21)
(0.081586452 0.00199624 2.0505579e-20)
(0.08096041 -8.158034e-05 -2.1418241e-20)
(0.077877039 0.0047979622 -9.5715212e-20)
(0.077301577 0.0027903798 -6.2056306e-21)
(0.078869949 -0.0032408149 -7.8643191e-21)
(0.074797858 0.0024986271 6.8043531e-21)
(0.073432577 0.0026389418 3.4026917e-22)
(0.075945186 -0.0062692247 -6.6460915e-21)
(0.073820149 -0.0063774492 5.734882e-20)
(0.067719448 0.0017466772 -1.2333589e-19)
(0.066650127 0.0030633214 -7.8679615e-20)
(0.074342271 -0.0076970533 -1.4213467e-19)
(0.076595459 -0.022049258 -6.7792217e-20)
(0.071401773 -0.028314812 7.6238021e-23)
(0.073611008 -0.020251568 6.0634154e-20)
(0.077549255 -0.011829943 -1.3515517e-19)
(0.060831428 -0.014546327 -1.0092911e-19)
(0.080049544 -0.00021111272 0)
(0.080783542 4.9624575e-05 -1.5875115e-19)
(0.089085326 0.000276495 1.7288025e-20)
(0.089024104 0.00056629687 -2.1785152e-20)
(0.088833416 0.00073054457 -9.5506938e-21)
(0.08863396 0.0013807042 -3.5733985e-22)
(0.088451848 0.00084934473 -4.1379913e-20)
(0.087524431 0.0019158233 2.8725225e-20)
(0.086530393 0.0021859321 1.3585537e-20)
(0.085706154 0.0030908018 -4.9748996e-21)
(0.08510323 0.0025214182 3.4890291e-20)
(0.084097573 0.0022815207 2.1218874e-21)
(0.082566879 0.0034730335 1.4095905e-20)
(0.081933038 0.003227277 4.3360721e-22)
(0.08160293 0.0022135273 -2.1089095e-20)
(0.079844795 0.0014316018 -1.3624878e-21)
(0.077652151 0.0047421762 1.8313838e-20)
(0.079302686 0.00091628013 -8.3774171e-20)
(0.078538567 -0.0018973017 0)
(0.074401317 0.0031403768 5.2353719e-20)
(0.076070194 0.00080944032 0)
(0.077917487 -0.0058373453 -4.5020081e-20)
(0.073269427 -0.0042437427 -5.1886887e-20)
(0.068558833 -0.00087311332 -1.9810642e-22)
(0.071193454 -0.004906366 -8.2759452e-20)
(0.079668788 -0.012706471 2.9615169e-20)
(0.080781141 -0.019113223 -3.5296288e-20)
(0.07129104 -0.021690453 -4.8359451e-20)
(0.068664786 -0.014884177 -1.8517975e-19)
(0.078399909 -0.0058241602 2.7204389e-20)
(0.07556476 -0.010036001 1.9380255e-19)
(0.077552576 0.00075894583 0)
(0.078139292 0.0018802056 0)
(0.086089281 0.00048317026 2.8646546e-20)
(0.086683268 0.00043896024 2.8019278e-19)
(0.086947506 0.00077580591 -6.7687614e-20)
(0.087222575 0.0012429455 -1.5726295e-23)
(0.087242881 0.0007072939 7.8858409e-21)
(0.086434845 0.0026800492 2.2643781e-20)
(0.085742812 0.0018982094 0)
(0.085158813 0.0025883367 -3.3957945e-20)
(0.084776103 0.0020215693 1.5711258e-21)
(0.083680389 0.0025674251 -4.8853702e-21)
(0.082327313 0.0032471092 0)
(0.08187134 0.0025423802 -1.2518428e-21)
(0.081615704 0.0023202019 4.9925503e-22)
(0.079483011 0.0024916188 -6.611802e-21)
(0.077805206 0.0036645697 -3.3701222e-21)
(0.080008038 -0.00031515552 -2.830084e-21)
(0.078175726 -0.00062865709 -4.6896523e-20)
(0.074346546 0.0026445103 0)
(0.077560967 -0.0012448932 0)
(0.079057099 -0.0053385163 1.1388468e-20)
(0.073993209 -0.0023780186 -2.4950238e-20)
(0.070569457 -0.0037373941 -7.2957616e-20)
(0.073355508 -0.011300669 -3.0039941e-20)
(0.080781687 -0.015239269 1.4386938e-20)
(0.082088558 -0.013671138 -7.9689579e-20)
(0.070642847 -0.012932831 -3.5867006e-20)
(0.063785756 -0.012186256 5.5467665e-20)
(0.075836548 -0.0071874393 6.7909612e-20)
(0.091265684 -0.0082821534 5.1797356e-23)
(0.075101625 0.00093582175 0)
(0.075725768 0.0028639608 -4.894009e-23)
(0.083381618 0.00046661367 1.9665948e-21)
(0.08397123 0.00030606963 3.3988177e-21)
(0.084487688 0.00070790031 -1.8817372e-19)
(0.085182544 0.00088326907 -5.4092362e-20)
(0.0853928 0.00093322277 -1.3606494e-20)
(0.08494261 0.0028862025 0)
(0.084604023 0.00185294 -1.2178917e-22)
(0.084249888 0.0019786213 1.665967e-20)
(0.083959146 0.0016591491 5.5842617e-20)
(0.082933538 0.0028784135 -6.9886519e-21)
(0.081950604 0.0029951925 4.5799265e-24)
(0.081607658 0.0018782002 1.2343224e-21)
(0.081282078 0.0025246815 -2.6540623e-20)
(0.079391233 0.0035678873 -2.6296338e-21)
(0.078387391 0.0026688618 -6.3302011e-20)
(0.080459612 -0.0013102137 1.7594248e-22)
(0.077930218 0.0010224496 1.5221317e-21)
(0.074771029 0.0024934494 -3.1174008e-21)
(0.078667935 -0.0033714127 1.1226955e-20)
(0.079101089 -0.004409339 -1.9477754e-20)
(0.074685427 4.6518397e-05 8.1744445e-21)
(0.074057165 -0.0038542085 -1.3027228e-19)
(0.076178059 -0.015092043 0)
(0.079883825 -0.016607289 9.250286e-21)
(0.081047572 -0.0077186096 7.9029128e-20)
(0.071947524 -0.0042658283 1.4402604e-20)
(0.061863394 -0.010594863 -4.9399856e-20)
(0.06871605 -0.013719447 5.2234335e-20)
(0.092321864 -0.013765441 8.687633e-20)
(0.072842465 0.00054370569 0)
(0.073561169 0.0026072811 -1.0225434e-19)
(0.081130709 0.00031279616 -2.2764511e-19)
(0.08129429 0.00022943871 -2.3073732e-19)
(0.081876197 0.00050397664 -9.0856018e-22)
(0.082780304 0.00043353891 -6.8852702e-20)
(0.083058298 0.0014339636 0)
(0.083160935 0.0023192866 1.2658175e-20)
(0.083106989 0.0019824009 2.0363997e-20)
(0.082987098 0.0013766502 3.6677598e-20)
(0.08271565 0.0013966806 4.5360053e-20)
(0.081883546 0.002999035 1.1123425e-22)
(0.081384617 0.0026268943 2.5136267e-20)
(0.081061412 0.0012926141 -1.4276626e-21)
(0.080580421 0.0023118592 -2.2853611e-20)
(0.079151423 0.0040518693 3.233808e-21)
(0.078940222 0.0016547432 -9.3768783e-20)
(0.080414767 -0.002073004 -3.3773804e-20)
(0.077495727 0.0026459867 5.5040675e-20)
(0.075851181 0.0020755193 0)
(0.079645816 -0.0051917074 7.843672e-21)
(0.078476668 -0.0032754166 -8.5272372e-21)
(0.074992504 0.0018122681 -3.2103413e-20)
(0.077857142 -0.0022314266 -9.1115263e-21)
(0.079612767 -0.013895035 0)
(0.07804543 -0.015935226 -1.483579e-19)
(0.078643428 -0.0036557708 1.072454e-19)
(0.076651407 0.0022676579 3.450634e-20)
(0.067933904 -0.0088307507 -2.0178445e-19)
(0.066223911 -0.022763372 4.4845202e-21)
(0.083295874 -0.025085059 -1.052354e-19)
(0.070956131 -0.0003215923 -1.5124837e-19)
(0.07169455 0.0012929755 -1.7586135e-22)
(0.079231192 6.6174448e-05 3.035255e-23)
(0.079085646 0.00029651616 3.1010976e-20)
(0.079530642 0.000286636 5.5879593e-20)
(0.080378334 0.00017815906 -4.4209906e-23)
(0.080809015 0.0018351289 -2.8525053e-22)
(0.081296333 0.0013509652 -2.9812214e-23)
(0.08146335 0.0021020094 2.43148e-20)
(0.081543221 0.00094436497 -4.188521e-20)
(0.081225059 0.0014152086 3.394435e-20)
(0.080645117 0.0029273345 1.6817207e-20)
(0.080638585 0.002170279 2.6906461e-20)
(0.080274671 0.001111629 -4.8741312e-21)
(0.079591745 0.0017644408 -2.2730776e-20)
(0.078774744 0.003946342 -3.4023981e-22)
(0.079363579 0.00077933381 -9.0386579e-20)
(0.079825949 -0.0019412149 -4.882128e-20)
(0.076868457 0.0040634744 3.5311925e-21)
(0.077171084 0.0015084581 0)
(0.080293074 -0.0055684458 1.8626621e-21)
(0.077330811 -0.00207106 2.2490055e-19)
(0.074773306 0.0023053127 4.3045806e-20)
(0.080434062 -0.0013717734 0)
(0.082668288 -0.0094047868 7.708542e-20)
(0.076269093 -0.012194268 5.7206163e-20)
(0.074726303 -0.0031173934 -9.1583412e-20)
(0.080538638 0.003392754 -3.5403023e-20)
(0.080314848 -0.0063523943 1.3346848e-19)
(0.073985865 -0.026907947 8.5414567e-20)
(0.073658534 -0.033589506 -1.2064239e-19)
(0.069533238 -0.001116277 2.9075144e-21)
(0.070298073 -0.00026876599 -7.8677292e-20)
(0.077803475 -0.00011478527 2.1943706e-22)
(0.077547705 0.00027755628 1.9587572e-19)
(0.077905957 0.00018387178 -3.4764005e-20)
(0.078442033 0.00029472694 -5.7364795e-20)
(0.07905819 0.0017444691 2.7884632e-20)
(0.07967197 0.00057635501 1.5810774e-23)
(0.079978053 0.0019357972 -1.4289992e-22)
(0.080165701 0.0008656481 3.8296448e-21)
(0.079739206 0.0016509377 -5.5106171e-22)
(0.079446103 0.002625212 8.003888e-22)
(0.079781283 0.0016574224 -1.8054214e-20)
(0.079404298 0.0013167223 -5.5152837e-23)
(0.078501453 0.0012394613 1.0694165e-20)
(0.078214956 0.0030617346 -3.0155705e-21)
(0.079418233 -5.9040775e-05 7.9442621e-22)
(0.07863912 -0.0010088242 1.0407198e-19)
(0.076163671 0.0044569458 0)
(0.07826443 0.00057232713 -8.5499867e-20)
(0.080414396 -0.0046473289 4.3450974e-21)
(0.076110394 -0.00081769242 7.3400449e-20)
(0.074225517 0.0010310521 1.1565171e-20)
(0.081281912 -0.0022242454 2.571769e-20)
(0.084441953 -0.0049202457 3.4948218e-20)
(0.075463211 -0.0060467853 1.5770107e-20)
(0.070328258 -0.0040247542 2.5437632e-20)
(0.079800424 -0.00029934359 -8.1803496e-21)
(0.090716991 -0.0062805017 2.4262494e-19)
(0.087965117 -0.024291771 -2.9613813e-19)
(0.075267792 -0.035125478 2.1421904e-20)
(0.069488347 -0.0017172156 -9.8155947e-19)
(0.070151614 -0.0013476557 0)
(0.07740251 -0.00015783609 -5.6188435e-20)
(0.077022396 0.00017054421 -2.4223959e-19)
(0.077282547 0.00026757421 1.5852431e-19)
(0.077678299 0.00072654088 -7.6986318e-23)
(0.078257819 0.0010691841 1.9618021e-20)
(0.078739276 0.00029226227 3.310694e-22)
(0.079026084 0.0014364419 -1.8825137e-20)
(0.079191143 0.0011255744 -2.296014e-20)
(0.078660622 0.0019578406 -5.7185279e-21)
(0.078596586 0.0021226883 6.8775992e-22)
(0.078996052 0.0012367107 -3.3732352e-21)
(0.078513889 0.0017972064 8.3453497e-22)
(0.077565934 0.0011115079 9.3203379e-21)
(0.07756535 0.0017291949 -1.6501164e-20)
(0.078959321 -0.0004473608 2.7494225e-20)
(0.07723153 0.00033300094 5.5474358e-20)
(0.075311285 0.0037546594 -2.2046272e-22)
(0.078664049 -0.00073974917 1.7242005e-21)
(0.079814773 -0.0032982086 -7.1886619e-21)
(0.07500835 0.0011905288 2.2879529e-22)
(0.07363879 -0.0013351556 0)
(0.080439729 -0.0057709502 1.3282643e-20)
(0.084348392 -0.0027245963 1.9647194e-20)
(0.076716047 -4.962674e-06 1.3332561e-19)
(0.069246326 -0.0045743207 -3.2886689e-20)
(0.076410712 -0.0078481066 8.4155083e-20)
(0.091765465 -0.010433245 -6.5176959e-20)
(0.096012401 -0.016227662 2.483111e-19)
(0.082611507 -0.025234118 1.2423387e-19)
(0.070333295 -0.0016577885 4.2798152e-19)
(0.070738991 -0.0014122918 1.6315979e-23)
(0.077786977 -0.00016329686 -7.5226921e-20)
(0.077395278 -0.00010199856 -2.5863994e-19)
(0.077490176 0.00034754654 1.6234749e-21)
(0.077832739 0.0010598627 1.7543896e-22)
(0.078424571 0.00021183401 -1.3420631e-20)
(0.078652337 0.00046187099 1.7573333e-23)
(0.078866709 0.00074143445 4.7955701e-21)
(0.07885015 0.0015183643 1.3402159e-20)
(0.078242611 0.0021354716 2.0224801e-20)
(0.078213663 0.0015151598 0)
(0.078333879 0.00093681041 -4.5895782e-22)
(0.077779054 0.0022000114 -1.7542783e-21)
(0.076809929 0.001346471 3.2387892e-20)
(0.076912857 0.00057194575 -1.588797e-21)
(0.078034694 -0.00034840682 6.8469717e-22)
(0.075781286 0.0018468709 -5.0802531e-20)
(0.074623002 0.0027783638 4.14249e-20)
(0.07826064 -0.0022168844 4.2662668e-20)
(0.078300766 -0.0019676724 -4.984066e-20)
(0.07458452 0.0035536918 -8.1455375e-22)
(0.074649117 -0.0026240755 6.7922992e-21)
(0.079080565 -0.0097947333 8.9670021e-21)
(0.082089374 -0.0028198608 -8.5692392e-22)
(0.078687937 0.0036794124 -1.8864818e-20)
(0.072724552 -0.0040741384 1.9294541e-19)
(0.075656 -0.015828512 -2.0579931e-20)
(0.088131847 -0.016184768 1.8388158e-19)
(0.096377611 -0.0096326667 7.184242e-20)
(0.089881677 -0.00918775 1.4589651e-19)
(0.074061896 -0.00082959073 1.0174877e-18)
(0.074296003 -0.00018085028 1.4026636e-22)
(0.080337825 7.1953314e-05 2.9859339e-19)
(0.079373953 -0.0001772499 2.2010982e-19)
(0.078896575 0.00049067832 -1.0075487e-21)
(0.07906347 0.0010572632 0)
(0.079411819 -0.00028522655 1.858304e-20)
(0.079263546 0.00088213849 2.7136688e-20)
(0.079269889 0.00015047105 -2.9259225e-20)
(0.079023389 0.0018182214 1.325631e-20)
(0.078459069 0.002247258 -5.5253293e-23)
(0.078298474 0.0010776231 -1.7553303e-22)
(0.077952253 0.00076031785 0)
(0.077303019 0.0024875234 -2.6745834e-20)
(0.076392094 0.0016850173 -2.2925317e-20)
(0.076169994 5.2281393e-05 -1.3059968e-21)
(0.076676176 -0.00013685861 -5.6198345e-20)
(0.074349607 0.0030869232 -3.2949314e-20)
(0.074057323 0.0017502525 7.3171591e-20)
(0.077303443 -0.0035843483 1.5837601e-20)
(0.075693426 -0.00048537384 -8.075176e-20)
(0.073643822 0.0052377964 1.3278967e-20)
(0.076273295 -0.0021557524 1.9105956e-19)
(0.077496955 -0.011805249 2.3351281e-20)
(0.077250417 -0.0047852264 2.7230996e-19)
(0.078426844 0.0043323265 4.0036363e-22)
(0.078518736 -0.0022972938 -2.4428919e-21)
(0.078170044 -0.019095793 -6.7509345e-20)
(0.082434219 -0.020589834 1.6403169e-19)
(0.090369352 -0.0074123044 2.6336398e-19)
(0.093289267 0.0042352659 5.0002763e-20)
(0.088232191 0.0008788059 1.7218704e-20)
(0.083028286 0.0023489519 1.0136765e-22)
(0.08680263 0.00054597044 6.8426801e-20)
(0.085148856 6.3091566e-06 5.5470182e-22)
(0.083402747 0.00060428841 -1.2725796e-22)
(0.082717062 0.00066973815 2.8789486e-20)
(0.082114099 -0.00013998278 3.7127139e-20)
(0.081334355 0.0012531188 9.3534418e-24)
(0.080758172 3.3233571e-05 -3.7857104e-20)
(0.079971605 0.0019150665 -1.3316399e-20)
(0.079316804 0.0021625697 -1.4499412e-20)
(0.078883446 0.00085311737 2.6976785e-20)
(0.078005391 0.0007016165 0)
(0.077287728 0.0023641563 3.4411246e-22)
(0.07663881 0.0020049437 -4.1066071e-20)
(0.076059646 3.5559585e-05 -3.0407804e-22)
(0.075744712 0.00029702179 2.2868564e-21)
(0.073635385 0.0040004889 -1.3752942e-22)
(0.074242574 0.00062619788 5.5221858e-21)
(0.076366471 -0.0041815273 -2.2560104e-23)
(0.073055705 0.00031006634 1.0975341e-19)
(0.072545748 0.0046750885 -3.4119413e-22)
(0.078052416 -0.0013807278 4.5705947e-21)
(0.077173491 -0.009861943 3.7950047e-20)
(0.07240329 -0.0061031482 6.4206622e-20)
(0.075344828 0.002385469 2.4071779e-20)
(0.082680626 -0.0011263292 -1.1879902e-19)
(0.082849902 -0.015281139 2.2557249e-19)
(0.078100979 -0.021256339 -2.2477023e-20)
(0.079421698 -0.009353954 -2.7916754e-19)
(0.087158928 0.0066556951 -4.0007563e-20)
(0.10374868 0.002342935 7.6689692e-19)
(0.093223384 0.0044919509 0)
(0.095959876 0.0011335091 6.5678642e-21)
(0.093747348 0.00069643277 3.2688028e-19)
(0.091126327 0.00082893322 1.6842372e-19)
(0.089763959 0.00029155704 2.0107661e-20)
(0.087961451 0.00059823556 -2.4906781e-23)
(0.086186704 0.001303043 3.7020592e-23)
(0.084464848 0.00056734867 2.7905486e-20)
(0.08265604 0.0017487789 -1.39001e-20)
(0.08150921 0.0018695735 6.6643862e-21)
(0.080445736 0.00079177533 -6.9785272e-23)
(0.078878807 0.00094295358 2.7359199e-20)
(0.077942689 0.0018187654 0)
(0.077397594 0.0021163934 -1.6001551e-20)
(0.076594779 0.00029926239 -3.4251856e-20)
(0.075490849 0.00078977346 5.2339217e-20)
(0.073987488 0.0041062421 6.5190645e-21)
(0.075608542 -0.0003816538 -5.774084e-22)
(0.076397305 -0.0033123171 1.6131115e-20)
(0.071659075 0.0010864731 6.9520429e-20)
(0.071864217 0.002906436 -1.4970777e-21)
(0.078973836 -0.0015453506 -6.6961792e-20)
(0.077447414 -0.0053734925 -8.0212559e-20)
(0.069405548 -0.0048265475 -2.221495e-20)
(0.071435199 -0.00084312039 5.0153217e-20)
(0.082548832 -0.0022759041 3.3200597e-20)
(0.085746528 -0.0081053294 1.3340627e-21)
(0.076464956 -0.014663942 2.2990031e-19)
(0.069666094 -0.010970537 8.0264885e-20)
(0.075823039 -6.2680306e-05 -1.1965532e-19)
(0.10372693 0.0030090101 -4.031349e-19)
(0.097351683 0.0054859425 -1.4953425e-19)
(0.10123105 0.0014831054 1.1219179e-21)
(0.099471655 0.0012247861 3.8772183e-21)
(0.097399681 0.00085436928 3.1643593e-23)
(0.096256494 0.00012875397 -1.0220788e-19)
(0.09449939 0.001385328 1.9407617e-21)
(0.092549546 0.00087516491 8.8485826e-23)
(0.090148114 0.00128652 -2.4060967e-22)
(0.087633694 0.0012986687 9.7024729e-21)
(0.085828096 0.0011793508 -3.8554674e-22)
(0.084058807 0.00069851928 -1.4550131e-21)
(0.081710962 0.0013211907 -1.8686785e-22)
(0.080214289 0.00086848198 9.2384533e-22)
(0.0795583 0.0017156697 0)
(0.078547472 0.00074713459 0)
(0.07672532 0.0013827037 -3.0531007e-20)
(0.07589001 0.0030827321 2.60643e-21)
(0.077942459 -0.0014943895 -6.1265633e-20)
(0.077613056 -0.0018044967 7.8934897e-21)
(0.072522457 0.001635106 1.7444015e-20)
(0.073101404 -0.00026400781 1.0019488e-20)
(0.08030496 -0.0036516801 0)
(0.079125282 -0.0011245459 0)
(0.069934896 -0.00050778741 0)
(0.069814958 -0.0035992189 1.0405895e-20)
(0.080880446 -0.0053026136 -3.6413938e-21)
(0.087285597 -0.0033894254 1.6739831e-20)
(0.078943453 -0.003709907 -3.8642505e-20)
(0.066048225 -0.0076187612 2.6675942e-20)
(0.065793063 -0.0085968525 2.245805e-20)
(0.10318457 0.0028797035 -1.7889165e-19)
(0.097476172 0.005211317 -2.0462184e-21)
(0.101712 0.0016696747 -1.3867328e-21)
(0.10012397 0.001569945 -2.8583397e-19)
(0.098623996 0.00098760038 0)
(0.097702414 0.00051156335 -3.435661e-22)
(0.096210239 0.0018416252 3.6822074e-20)
(0.094656429 0.00045703088 -7.4836213e-23)
(0.092696479 0.0017726323 1.030691e-22)
(0.09073183 0.00074178633 8.0842144e-21)
(0.08930081 0.00053471776 -2.2368897e-21)
(0.087734887 0.00075418532 0)
(0.085569861 0.0018173065 2.4684591e-20)
(0.083999781 0.00018581846 2.9008934e-20)
(0.083443555 0.00082065863 -4.0706794e-20)
(0.082597439 0.0011149598 -1.4255995e-21)
(0.08057551 0.0017871203 -7.7971118e-21)
(0.080303723 0.001817799 -3.253587e-21)
(0.082231963 -0.0020735267 -1.4297926e-20)
(0.081127878 0.0003121089 8.9507857e-21)
(0.076835266 0.0033970112 -2.4704115e-22)
(0.077541315 -0.0029148273 6.7102744e-20)
(0.082944547 -0.005447745 -5.8106228e-20)
(0.082277945 0.0024439998 0)
(0.075595118 0.0052960534 -1.2058613e-20)
(0.074098577 -0.004334637 4.7009249e-20)
(0.080933244 -0.0088037949 1.0785922e-19)
(0.087161941 -0.0019187555 -7.9024932e-20)
(0.084745051 0.006191959 -2.6065946e-21)
(0.074367804 0.0014423105 -1.1402109e-19)
(0.068710733 -0.011124314 -7.9502352e-20)
(0.10567045 0.0019285173 1.9956756e-19)
(0.096273672 0.0030087378 1.7373624e-20)
(0.10046456 0.0013128276 8.8410611e-22)
(0.099066235 0.0012518295 4.9327644e-20)
(0.097586412 0.00071805829 -6.0633726e-20)
(0.096329218 0.00083917397 5.8861147e-24)
(0.095005691 0.0014550117 -9.6495107e-20)
(0.0936485 0.00019640159 1.7837259e-21)
(0.092040162 0.0016858389 -1.9417697e-22)
(0.090489476 0.00029627607 -2.3473543e-22)
(0.089284025 -4.0390764e-05 1.0476393e-21)
(0.087913679 0.0006911781 -3.7152698e-22)
(0.086754247 0.0018182223 -5.1624092e-22)
(0.085869883 -0.00020534902 -3.8987972e-22)
(0.085458593 3.4581064e-05 -4.5351157e-20)
(0.085094742 0.0013441742 -9.5006919e-23)
(0.083532867 0.0018138497 -9.046748e-21)
(0.083841356 0.00037519986 -4.4315069e-21)
(0.085258448 -0.0025357529 -5.117462e-22)
(0.083747484 0.0019640195 0)
(0.081762695 0.0051827615 6.1257138e-20)
(0.0831306 -0.0038821955 1.4805927e-21)
(0.085360589 -0.0070695823 -1.2902083e-19)
(0.084207825 0.003497908 3.477554e-21)
(0.082205604 0.0085191631 1.9961842e-20)
(0.082293418 -0.0030206151 -3.1076381e-19)
(0.083769477 -0.012066081 -2.0996195e-20)
(0.08578219 -0.0038587129 -5.7138477e-22)
(0.087366918 0.0085907244 9.9033886e-22)
(0.086121674 0.0089167278 9.1946009e-20)
(0.081258806 -0.007320049 -4.8406672e-21)
(0.10889135 0.00065268113 -2.4867215e-19)
(0.092779525 0.00040061459 2.0921761e-23)
(0.09637835 0.00066762382 2.6368476e-20)
(0.094550664 0.00077014677 -2.9167172e-21)
(0.092828701 0.00040556683 1.0763761e-21)
(0.091893813 0.0010011548 1.1661728e-20)
(0.091240291 0.00061591291 0)
(0.090288971 0.00042899303 9.3717276e-23)
(0.08919008 0.0012006284 -2.2749155e-23)
(0.088255879 0.00013727415 -1.0367706e-19)
(0.08740661 -0.00017983081 2.3707166e-23)
(0.086484657 0.0008137889 1.0771344e-22)
(0.086003377 0.00180943 -1.4773407e-20)
(0.085439341 -0.00022333619 -5.9017218e-20)
(0.084833033 -0.00057405753 3.2158282e-20)
(0.084526066 0.0010009296 3.0231777e-22)
(0.083607969 0.0017307429 1.9020831e-22)
(0.084333979 -0.00048721356 5.7459512e-22)
(0.084860552 -0.0022621854 0)
(0.082740697 0.0028798362 -9.6585651e-20)
(0.083116882 0.0053527487 6.0133335e-20)
(0.085821939 -0.003113959 -7.4205691e-20)
(0.084651564 -0.0074517161 -2.4032779e-20)
(0.081980301 0.0023660242 5.9513099e-22)
(0.084851935 0.0078757703 -1.8482794e-20)
(0.089294431 -0.0012292574 1.0110423e-19)
(0.08698876 -0.012187145 -3.2399625e-20)
(0.082810986 -0.0075559354 8.5996441e-20)
(0.085259391 0.0046736758 -9.3308048e-20)
(0.092734732 0.0093608786 4.79941e-21)
(0.095258816 -0.0015808322 6.3619082e-21)
(0.1041504 -0.00083052344 -4.0917446e-19)
(0.085759547 -0.0023775077 5.079035e-24)
(0.089763654 -0.00030517645 -2.5240713e-21)
(0.087931741 -0.00019208877 4.0882267e-19)
(0.086741873 -0.00010307284 -1.7880459e-21)
(0.0863488 0.00043140099 4.7303863e-20)
(0.086275875 -0.0004334231 0)
(0.085848396 0.00076045845 0)
(0.085566024 0.00047364191 -2.2840998e-20)
(0.085354261 9.8241826e-05 0)
(0.084831727 -0.00037785346 2.5196673e-20)
(0.084263639 0.00045900158 -4.9239412e-20)
(0.084403581 0.0010429065 0)
(0.08426339 -7.2176268e-05 -9.1401927e-20)
(0.08341442 -0.00054960218 8.6790972e-21)
(0.082965887 0.00052819185 4.0705775e-20)
(0.082551765 0.0013382199 8.910245e-22)
(0.083565883 -0.0012273763 -1.8420059e-21)
(0.08311949 -0.0016693685 -4.0315513e-20)
(0.080506262 0.0026164855 -7.6462436e-20)
(0.082734224 0.0038026112 -3.9832987e-20)
(0.086864366 -0.0016827975 -7.2036594e-22)
(0.083209022 -0.0047885008 -4.9655819e-21)
(0.078065014 0.0005125532 -5.5418822e-20)
(0.083230771 0.0041005764 3.3920249e-20)
(0.092051122 -0.00081515922 1.2666753e-19)
(0.089495237 -0.0079506468 -3.4801163e-20)
(0.079850766 -0.0088243001 -1.8646502e-20)
(0.079067497 -0.0016806346 1.7436309e-19)
(0.090444283 0.0026012604 1.2600907e-19)
(0.10106277 0.00033353048 -3.7469864e-20)
(0.087443225 -0.0019072385 3.9889478e-19)
(0.080297909 -0.0029688262 -1.0921505e-22)
(0.085787675 -0.00072691186 2.8174287e-19)
(0.084884754 -0.0005355762 -3.4141358e-19)
(0.084472516 -2.0623046e-05 2.5185418e-19)
(0.08467178 8.6707981e-06 4.7320118e-22)
(0.084950873 -0.00065179214 9.318462e-23)
(0.084890391 0.0013854411 -1.1707638e-20)
(0.085063798 -7.7639131e-05 1.2217703e-20)
(0.085127038 0.00029125214 9.6859517e-21)
(0.084763358 0.00016952053 -7.5251448e-21)
(0.08425254 0.00058871132 1.0959519e-22)
(0.084577967 0.00051901601 -4.8184119e-21)
(0.084636568 0.00019677142 -1.3956432e-20)
(0.083691615 -0.0004249283 -1.7811836e-20)
(0.083177154 0.00019223361 2.4820369e-20)
(0.083179019 0.0010740267 -1.0341786e-20)
(0.084232465 -0.001047376 -1.1011434e-20)
(0.082899941 0.00015155833 -5.8388838e-21)
(0.079737806 0.0019654079 1.7965375e-20)
(0.082310772 0.0012153305 -1.3258678e-20)
(0.086897093 -0.0009193258 1.3331505e-20)
(0.082660801 -0.00034261365 -7.0230269e-20)
(0.075795571 0.00033841268 -1.6520455e-22)
(0.080150567 -0.00077698348 1.9101401e-20)
(0.090660087 -0.003058739 8.4097415e-21)
(0.090438425 -0.0025110622 -1.9362149e-21)
(0.079510101 -0.0037683833 1.2089304e-19)
(0.074758177 -0.0057912527 -2.0675914e-20)
(0.084371904 -0.0057671084 5.8877438e-20)
(0.097817029 -0.0042159562 1.8396549e-19)
(0.080811504 -0.0010411803 4.020777e-19)
(0.080023981 -0.00096985021 -4.095162e-23)
(0.086151663 -0.00048303375 -5.7727956e-22)
(0.085574735 -0.00060734805 -6.8482961e-22)
(0.085392318 -0.00012149332 -8.1020528e-20)
(0.085759777 -0.00049368769 -2.8963431e-20)
(0.086014447 -0.00070522515 5.2209847e-20)
(0.086275277 0.00069625003 6.2442241e-22)
(0.086668798 -0.00049759322 -1.776334e-20)
(0.086727914 -0.00016766142 3.0256544e-22)
(0.086687349 0.00013876462 -2.3427834e-21)
(0.086415784 0.00040562034 -4.7686699e-20)
(0.086948972 -0.00065275354 -1.4910809e-21)
(0.087057511 0.00093579818 -2.8312792e-20)
(0.086035882 0.00037950694 2.0627703e-22)
(0.08528835 2.5639418e-05 -2.2245385e-21)
(0.08544151 0.00025371795 8.2011568e-21)
(0.086245808 -0.0010847111 0)
(0.084827776 0.0015774406 -2.8469906e-22)
(0.081911913 0.0012721087 6.6526099e-22)
(0.083897851 -0.0025554625 6.2679046e-21)
(0.087923049 -0.0017470506 -3.8190412e-20)
(0.084552907 0.0031990574 1.8392495e-20)
(0.077991941 0.0018457653 -6.3103966e-20)
(0.080439632 -0.0056888895 -1.4540355e-20)
(0.088830291 -0.0067890978 -5.4957047e-20)
(0.090317217 0.00045395387 -1.1800972e-20)
(0.082720003 0.0035045144 -8.4218496e-20)
(0.076383109 -0.0040541531 2.3054919e-19)
(0.080919212 -0.011521636 -8.3573669e-20)
(0.091823719 -0.010133611 -2.6944742e-19)
(0.084838659 5.2283385e-05 -8.257332e-20)
(0.084793462 0.0017193445 -5.5912256e-20)
(0.090991894 0.00016526229 -1.2277146e-20)
(0.090339429 0.00012933275 -3.0617846e-19)
(0.089791526 0.00036295242 5.0658145e-22)
(0.089794319 -0.00021205937 6.2722386e-23)
(0.08956493 0.0001582806 4.3715861e-23)
(0.089610695 6.0948167e-06 -6.266027e-21)
(0.089940672 -0.00078495404 4.2100581e-20)
(0.089805766 8.2943585e-05 2.9777134e-20)
(0.089526351 0.0014180552 -9.152859e-22)
(0.089335501 0.00098739125 2.2900375e-22)
(0.08928138 -0.0009618459 2.1784595e-21)
(0.089259638 0.00062861396 -8.6327677e-24)
(0.088687295 0.0008126076 5.9147588e-20)
(0.087948755 0.00032644902 -1.5749618e-20)
(0.087617774 0.00024433867 -2.9868946e-22)
(0.087522453 -0.00035211432 -2.7384548e-23)
(0.086011356 0.0033897234 -3.0154908e-20)
(0.083970258 0.001974597 1.1084652e-19)
(0.084669964 -0.0047961582 -4.6524091e-21)
(0.086610624 -0.0021084929 1.5181817e-19)
(0.084640643 0.0062882251 5.5324906e-21)
(0.08103505 0.005295735 -1.5248749e-19)
(0.082120276 -0.0063734865 1.4937991e-20)
(0.086214117 -0.0082689414 -7.0872264e-20)
(0.087352155 0.0025471487 -3.640131e-19)
(0.085120553 0.010602288 -1.7251959e-20)
(0.082398042 0.002933526 -9.307869e-20)
(0.082474008 -0.010550946 -1.1774233e-19)
(0.086202565 -0.012249359 3.7542059e-20)
(0.1049831 0.0017742749 9.08086e-19)
(0.093189121 0.0041452598 -2.1552886e-21)
(0.097266328 0.0012526101 -1.7044799e-21)
(0.095522885 0.0006726239 -2.1808991e-21)
(0.093944556 0.00061852946 -1.2663255e-21)
(0.093184075 -0.0002084006 -2.0066474e-22)
(0.092121163 0.00060403723 1.325615e-22)
(0.091661925 -0.0015184235 -1.2233222e-22)
(0.091107997 -0.00038784419 2.4216774e-24)
(0.090258253 -0.0010154442 -1.8512364e-23)
(0.09004004 0.00090287731 2.2265963e-23)
(0.090026925 0.00060756985 1.2363959e-19)
(0.089744335 -0.0017016501 -1.90148e-20)
(0.089248599 0.0013434942 -2.6931965e-23)
(0.088533974 0.0008983303 8.0616285e-23)
(0.087640654 -0.00014004728 4.9735129e-22)
(0.087222486 -0.00056597294 1.1509111e-21)
(0.086681916 -0.00078233863 -1.0352675e-21)
(0.085650309 0.0033400053 3.6802294e-20)
(0.085635616 0.0016306105 -1.2183562e-19)
(0.085553822 -0.0057342767 -6.843359e-20)
(0.084709558 -0.0037789657 -1.0400155e-21)
(0.083737385 0.0055563248 -6.1067473e-22)
(0.084518593 0.0054679201 2.0541325e-21)
(0.085905854 -0.0057073755 8.0825417e-20)
(0.084719884 -0.0097853855 2.1825823e-20)
(0.083131338 0.0010938873 6.605894e-21)
(0.085233686 0.011226078 -2.9819937e-20)
(0.089221086 0.0068612932 -8.5289479e-20)
(0.088912856 -0.0065138654 2.2140875e-19)
(0.085512189 -0.012186072 -3.1701328e-20)
(0.10712255 0.00082011021 1.3076667e-20)
(0.095303314 0.0031374925 1.3712836e-19)
(0.098742701 0.001062857 1.4943198e-19)
(0.096883066 0.00078316672 3.7155284e-19)
(0.095004541 0.00051758174 2.7083181e-19)
(0.094056637 0.00012107017 2.3190642e-20)
(0.093150953 0.00095780555 1.2249416e-19)
(0.092531673 -0.0015123174 -6.8935356e-24)
(0.09212381 -0.0007963777 5.7963677e-21)
(0.091352383 -9.2618244e-05 6.2786239e-20)
(0.090821394 0.0016039321 8.9593278e-21)
(0.091197301 0.00056483929 -4.5266567e-22)
(0.090270215 -0.00088105756 -4.0940045e-20)
(0.089910195 -0.00043245429 -1.34702e-19)
(0.090171289 0.000569344 7.9367188e-22)
(0.089445061 0.00041521664 5.4244106e-20)
(0.089058979 0.00016581164 -1.4767165e-22)
(0.087989144 -0.00014189894 -3.0429638e-20)
(0.087258766 0.0029210277 -4.3280843e-22)
(0.089183727 0.0019737711 -7.7775378e-20)
(0.0891335 -0.0033744456 8.1315071e-20)
(0.085742996 -0.0033007185 9.7522862e-22)
(0.084818465 0.0040236839 -3.862593e-21)
(0.0894199 0.0052922959 3.9360315e-20)
(0.092815186 -0.0016905356 -3.6629303e-21)
(0.088050415 -0.0064544659 3.3048853e-20)
(0.082364051 -0.00021945771 3.2140786e-19)
(0.086313335 0.0083965512 0)
(0.096382543 0.0078689485 1.3414531e-20)
(0.099097209 -0.00041966854 2.4436656e-19)
(0.092186135 -0.0061686993 6.8584202e-20)
(0.093540731 0.00040494059 -1.625823e-19)
(0.10079972 0.00095044714 0)
(0.095292199 0.00040324782 5.3740457e-23)
(0.10651088 0.00012610835 3.9298767e-20)
(0.094455097 8.0295339e-05 3.0009351e-20)
(0.10497723 -0.00030279189 2.8170773e-22)
(0.098768953 7.5617364e-05 7.5823338e-20)
(0.10394379 -0.00076018394 -3.5004819e-22)
(0.098145398 0.00059233205 1.5026081e-22)
(0.10424345 -0.0015501966 2.3083848e-20)
(0.10522197 0.00036482013 9.189289e-22)
(0.096585032 0.00017813526 -1.5996013e-20)
(0.10425482 -0.00051034717 1.6686073e-20)
(0.094576984 0.001597022 -3.7756008e-20)
(0.10245605 -0.0011975713 -9.2197919e-21)
(0.10300617 -0.00029711814 2.1678771e-22)
(0.10284251 -0.00038350956 -1.2461645e-20)
(0.10163995 -0.00041973876 -2.5022724e-21)
(0.10127739 0.00034909818 -3.2732585e-20)
(0.10412948 0.00020142806 4.032799e-22)
(0.10358661 -0.00094338325 4.9719867e-20)
(0.098737901 -0.0012425068 3.5385353e-21)
(0.098302902 0.00014118215 7.6271823e-21)
(0.10479051 0.0006294596 -2.5571041e-20)
(0.1096261 -0.00060792708 -2.1130887e-20)
(0.10331372 -0.0019401767 4.4960084e-20)
(0.095162965 -0.00098880022 1.2946669e-20)