/*--------------------------------*- C++ -*----------------------------------*\
| =========                 |                                                 |
| \\      /  F ield         | OpenFOAM: The Open Source CFD Toolbox           |
|  \\    /   O peration     | Version:  2406                                  |
|   \\  /    A nd           | Website:  www.openfoam.com                      |
|    \\/     M anipulation  |                                                 |
\*---------------------------------------------------------------------------*/
FoamFile
{
    version     2.0;
    format      ascii;
    arch        "LSB;label=32;scalar=64";
    class       volScalarField;
    location    "400";
    object      kMean;
}
// * * * * * * * * * * * * * * * * * * * * * * * * * * * * * * * * * * * * * //

dimensions      [0 2 -2 0 0 0 0];

internalField   nonuniform List<scalar> 
132739
(
3.3829818e-06
2.7128079e-06
2.2505507e-06
1.9230905e-06
1.6816323e-06
1.4967896e-06
1.350822e-06
1.2326378e-06
1.1349945e-06
1.0529728e-06
9.8311344e-07
9.2291016e-07
8.7050242e-07
8.2447628e-07
7.8374296e-07
7.4744603e-07
7.149023e-07
6.8556339e-07
6.5898223e-07
6.3479041e-07
6.1268242e-07
5.9240405e-07
5.7374114e-07
5.5650811e-07
5.4054359e-07
5.2570542e-07
5.1186842e-07
4.9893381e-07
4.8684042e-07
4.7556813e-07
4.650938e-07
4.5536689e-07
4.4637651e-07
4.3812757e-07
4.3060856e-07
4.2378657e-07
4.1762043e-07
4.1206211e-07
4.0705784e-07
4.0255978e-07
3.9852815e-07
3.9492689e-07
3.9172672e-07
3.8890425e-07
3.864383e-07
3.8431173e-07
3.8249949e-07
3.8098205e-07
3.7973614e-07
3.7874027e-07
3.7797348e-07
3.773798e-07
3.7698302e-07
3.767281e-07
3.7663776e-07
3.7667798e-07
3.7688735e-07
3.772705e-07
3.7788306e-07
3.7873378e-07
3.7983178e-07
3.8117783e-07
3.8270774e-07
3.8437215e-07
3.8613731e-07
3.8798413e-07
3.8990404e-07
3.9189206e-07
3.9394676e-07
3.9607554e-07
3.9829101e-07
4.0061728e-07
4.0310016e-07
4.0572953e-07
4.0873545e-07
4.1195684e-07
4.1618099e-07
4.2128559e-07
4.2751876e-07
4.3526763e-07
4.4499322e-07
4.5718746e-07
4.7223382e-07
4.9046319e-07
5.1239719e-07
5.3819647e-07
5.6646656e-07
5.9594205e-07
6.2594419e-07
6.5717734e-07
6.9121926e-07
7.2927281e-07
7.7182977e-07
8.1903126e-07
8.7103964e-07
9.2813447e-07
9.9073318e-07
1.0592416e-06
1.1342253e-06
1.2156658e-06
1.3055024e-06
1.4004572e-06
1.5131825e-06
1.6200198e-06
3.383058e-06
2.7132379e-06
2.2511379e-06
1.9237362e-06
1.6822909e-06
1.49744e-06
1.3514562e-06
1.2332518e-06
1.1355879e-06
1.0535479e-06
9.8367333e-07
9.2345576e-07
8.7103439e-07
8.2499905e-07
7.8425776e-07
7.4795232e-07
7.1540261e-07
6.8606015e-07
6.5947786e-07
6.3528684e-07
6.1318045e-07
5.9290472e-07
5.7424611e-07
5.5701864e-07
5.4106032e-07
5.2622812e-07
5.123993e-07
4.9947365e-07
4.8738813e-07
4.7612232e-07
4.6565337e-07
4.5593342e-07
4.4695305e-07
4.3871303e-07
4.3120069e-07
4.2438634e-07
4.1822623e-07
4.1267318e-07
4.0767772e-07
4.0319071e-07
3.9917226e-07
3.9558614e-07
3.9240043e-07
3.8959379e-07
3.8714496e-07
3.8502577e-07
3.8321072e-07
3.8167393e-07
3.8040218e-07
3.7937606e-07
3.7857453e-07
3.7799032e-07
3.7761543e-07
3.7743412e-07
3.7744099e-07
3.7763157e-07
3.7801751e-07
3.7860363e-07
3.7940733e-07
3.804294e-07
3.8167317e-07
3.8312942e-07
3.8474781e-07
3.8647968e-07
3.8828646e-07
3.9014797e-07
3.9205755e-07
3.9401418e-07
3.960257e-07
3.9810041e-07
4.0024772e-07
4.0248524e-07
4.0483567e-07
4.0732314e-07
4.0997475e-07
4.1287105e-07
4.160969e-07
4.1976827e-07
4.2397909e-07
4.2892127e-07
4.3491008e-07
4.4241162e-07
4.5202027e-07
4.6446695e-07
4.8071202e-07
5.0170325e-07
5.27668e-07
5.5778535e-07
5.9044462e-07
6.2487995e-07
6.6125111e-07
7.0052835e-07
7.4327765e-07
7.8959801e-07
8.3953406e-07
8.933898e-07
9.51456e-07
1.0143191e-06
1.0824626e-06
1.1562679e-06
1.2364369e-06
1.3226118e-06
1.4165967e-06
1.529785e-06
3.3831276e-06
2.7136106e-06
2.2516454e-06
1.9242976e-06
1.6828646e-06
1.498007e-06
1.3520087e-06
1.2337842e-06
1.1360987e-06
1.0540355e-06
9.8413686e-07
9.2389786e-07
8.7145496e-07
8.2539665e-07
7.8463214e-07
7.4830397e-07
7.1573203e-07
6.8636655e-07
6.5976078e-07
6.3554568e-07
6.1341606e-07
5.9311601e-07
5.7443042e-07
5.571772e-07
5.4119211e-07
5.2633306e-07
5.1247727e-07
4.9952456e-07
4.8741338e-07
4.7612045e-07
4.6562209e-07
4.5587219e-07
4.4686141e-07
4.3859101e-07
4.3104632e-07
4.241982e-07
4.1800656e-07
4.1242318e-07
4.0739929e-07
4.028876e-07
3.988455e-07
3.9523813e-07
3.9203417e-07
3.8921002e-07
3.8674215e-07
3.8461132e-07
3.8280221e-07
3.8129869e-07
3.8008516e-07
3.7913245e-07
3.7843328e-07
3.7795894e-07
3.7770264e-07
3.7763894e-07
3.7777276e-07
3.7809448e-07
3.7860677e-07
3.7929525e-07
3.8015429e-07
3.8119035e-07
3.8241056e-07
3.8378011e-07
3.8525106e-07
3.8679215e-07
3.8839831e-07
3.9006483e-07
3.9179111e-07
3.9357889e-07
3.9542856e-07
3.9734498e-07
3.9933914e-07
4.0142331e-07
4.0360926e-07
4.0593707e-07
4.0845948e-07
4.1137311e-07
4.1471663e-07
4.1845724e-07
4.227005e-07
4.2751405e-07
4.3294018e-07
4.3907662e-07
4.4614628e-07
4.545796e-07
4.6515376e-07
4.7906257e-07
4.9761303e-07
5.2147943e-07
5.502375e-07
5.8248187e-07
6.1764579e-07
6.5587697e-07
6.9769839e-07
7.4340365e-07
7.9264271e-07
8.4517998e-07
9.0101922e-07
9.6035997e-07
1.0236068e-06
1.0912138e-06
1.1635792e-06
1.2416559e-06
1.3218219e-06
1.427393e-06
3.3832345e-06
2.7140338e-06
2.252204e-06
1.9248954e-06
1.6834586e-06
1.4985846e-06
1.3525619e-06
1.2343121e-06
1.1366036e-06
1.0545201e-06
9.846027e-07
9.2434442e-07
8.7188411e-07
8.258113e-07
7.8503439e-07
7.4869507e-07
7.1611467e-07
6.8674293e-07
6.6013083e-07
6.3591055e-07
6.1377672e-07
5.9347427e-07
5.7478872e-07
5.575358e-07
5.4155132e-07
5.266937e-07
5.1284113e-07
4.9989569e-07
4.8779484e-07
4.7651059e-07
4.6601856e-07
4.5627982e-07
4.472832e-07
4.3902604e-07
4.3149682e-07
4.2466486e-07
4.1848976e-07
4.1292602e-07
4.0792333e-07
4.0343531e-07
3.9942086e-07
3.9584113e-07
3.926661e-07
3.8986968e-07
3.874303e-07
3.8532801e-07
3.8354572e-07
3.8206639e-07
3.8087372e-07
3.7995703e-07
3.7929811e-07
3.7888569e-07
3.7870669e-07
3.7874847e-07
3.7899489e-07
3.7943443e-07
3.8004966e-07
3.808261e-07
3.8175174e-07
3.8281229e-07
3.8399064e-07
3.8527166e-07
3.8664574e-07
3.881066e-07
3.8964864e-07
3.9126229e-07
3.929435e-07
3.9468982e-07
3.9649902e-07
3.9837654e-07
4.0032564e-07
4.0236009e-07
4.0449308e-07
4.0675202e-07
4.0916582e-07
4.1185493e-07
4.149101e-07
4.1841763e-07
4.223395e-07
4.2683782e-07
4.3198442e-07
4.3782597e-07
4.4440318e-07
4.5179006e-07
4.6022688e-07
4.7036005e-07
4.8334653e-07
5.0057074e-07
5.2292598e-07
5.5001359e-07
5.8065164e-07
6.1466766e-07
6.5241053e-07
6.944295e-07
7.407044e-07
7.9093623e-07
8.4481455e-07
9.020825e-07
9.6269097e-07
1.0267464e-06
1.0943788e-06
1.1666676e-06
1.2394481e-06
1.3323061e-06
3.3833309e-06
2.7144052e-06
2.2526934e-06
1.9254305e-06
1.6840054e-06
1.4991242e-06
1.3530859e-06
1.2348166e-06
1.137087e-06
1.0549815e-06
9.8504231e-07
9.2476502e-07
8.7228715e-07
8.2619628e-07
7.8540043e-07
7.4904425e-07
7.1644761e-07
6.8705947e-07
6.6043199e-07
6.3619588e-07
6.1404712e-07
5.9373117e-07
5.7503029e-07
5.5776012e-07
5.4176033e-07
5.2688826e-07
5.1302134e-07
5.0006337e-07
4.8794909e-07
4.7665021e-07
4.6614757e-07
4.5639845e-07
4.4739253e-07
4.3912741e-07
4.3158856e-07
4.2474883e-07
4.1856746e-07
4.1299591e-07
4.0798736e-07
4.0349487e-07
3.9947806e-07
3.9590003e-07
3.9272623e-07
3.8993061e-07
3.8749229e-07
3.8539189e-07
3.8361109e-07
3.8213437e-07
3.8094529e-07
3.8002822e-07
3.7937104e-07
3.7895699e-07
3.7877224e-07
3.7880428e-07
3.7903543e-07
3.7945662e-07
3.8005455e-07
3.808116e-07
3.8171533e-07
3.8275144e-07
3.839101e-07
3.8517512e-07
3.8653536e-07
3.8798092e-07
3.8950188e-07
3.9109167e-07
3.9274444e-07
3.9445498e-07
3.962198e-07
3.9804538e-07
3.9993621e-07
4.0189925e-07
4.0394746e-07
4.0611635e-07
4.0845167e-07
4.1108872e-07
4.1411469e-07
4.175462e-07
4.2145478e-07
4.2590096e-07
4.3094465e-07
4.3665543e-07
4.4309624e-07
4.5029244e-07
4.5827008e-07
4.6720825e-07
4.7770005e-07
4.9089026e-07
5.081181e-07
5.3003594e-07
5.5606675e-07
5.8523483e-07
6.1761964e-07
6.5384251e-07
6.9436753e-07
7.3930502e-07
7.886073e-07
8.4203988e-07
8.9934397e-07
9.6030406e-07
1.0247033e-06
1.0932456e-06
1.1622647e-06
1.247479e-06
3.3834551e-06
2.7148168e-06
2.2532241e-06
1.9259959e-06
1.6845662e-06
1.4996649e-06
1.353604e-06
1.2353117e-06
1.1375584e-06
1.0554309e-06
9.8547193e-07
9.2517623e-07
8.7268139e-07
8.2657546e-07
7.8576666e-07
7.4939842e-07
7.1678996e-07
6.8738961e-07
6.6075239e-07
6.3650938e-07
6.143529e-07
5.9402902e-07
5.7532151e-07
5.5804617e-07
5.4204243e-07
5.2716532e-07
5.1329456e-07
5.0033541e-07
4.882229e-07
4.7692843e-07
4.6642863e-07
4.56686e-07
4.4769114e-07
4.3943893e-07
4.3191329e-07
4.250846e-07
4.1891417e-07
4.1335496e-07
4.0836204e-07
4.0388965e-07
3.9989076e-07
3.9632991e-07
3.9317872e-07
3.9040677e-07
3.879923e-07
3.8591701e-07
3.8415925e-07
3.8270482e-07
3.8153561e-07
3.8063926e-07
3.8000366e-07
3.7961046e-07
3.7944615e-07
3.794974e-07
3.7974899e-07
3.8018902e-07
3.8080331e-07
3.815727e-07
3.8249314e-07
3.8355051e-07
3.8472019e-07
3.8599228e-07
3.8735496e-07
3.8880403e-07
3.9032704e-07
3.919138e-07
3.935622e-07
3.9526478e-07
3.9702012e-07
3.9882959e-07
4.0069769e-07
4.0263365e-07
4.0464821e-07
4.0677112e-07
4.0904112e-07
4.1157174e-07
4.1442732e-07
4.1766422e-07
4.2134238e-07
4.2552618e-07
4.3028849e-07
4.3570678e-07
4.4186451e-07
4.4882269e-07
4.5659928e-07
4.6521707e-07
4.7488768e-07
4.8625945e-07
5.004846e-07
5.1865627e-07
5.4095762e-07
5.6665911e-07
5.9501734e-07
6.2620584e-07
6.6081927e-07
6.9926272e-07
7.4184775e-07
7.8878789e-07
8.4010748e-07
8.9569781e-07
9.5530462e-07
1.0194309e-06
1.0845964e-06
1.1651826e-06
3.3835751e-06
2.7151849e-06
2.2536984e-06
1.9265103e-06
1.6850888e-06
1.5001783e-06
1.354101e-06
1.2357882e-06
1.1380126e-06
1.0558642e-06
9.8588596e-07
9.255711e-07
8.7305915e-07
8.2693676e-07
7.8611325e-07
7.497308e-07
7.1710818e-07
6.8769635e-07
6.6104652e-07
6.3679026e-07
6.1462233e-07
5.9428722e-07
5.755694e-07
5.5828277e-07
5.4226615e-07
5.273776e-07
5.1349661e-07
5.0053024e-07
4.8841371e-07
4.7711573e-07
4.6661246e-07
4.5686945e-07
4.4787783e-07
4.3962945e-07
4.3210715e-07
4.2528328e-07
4.1911703e-07
4.1356423e-07
4.0857983e-07
4.0411489e-07
4.0012817e-07
3.9658325e-07
3.9344693e-07
3.9069087e-07
3.8829287e-07
3.8623239e-07
3.8448959e-07
3.8305063e-07
3.8189607e-07
3.8101463e-07
3.8039499e-07
3.8001158e-07
3.7985242e-07
3.7991309e-07
3.8017384e-07
3.8062097e-07
3.812433e-07
3.8201969e-07
3.8294251e-07
3.8399731e-07
3.8516741e-07
3.8644568e-07
3.8781198e-07
3.8925735e-07
3.9077572e-07
3.9235691e-07
3.9399487e-07
3.9568448e-07
3.974209e-07
3.9920436e-07
4.0104041e-07
4.0293232e-07
4.0489535e-07
4.069636e-07
4.0918108e-07
4.1166294e-07
4.1447e-07
4.1765061e-07
4.2125454e-07
4.2533458e-07
4.2994726e-07
4.3516123e-07
4.4105974e-07
4.477238e-07
4.5520779e-07
4.6354361e-07
4.7282535e-07
4.8338827e-07
4.9599951e-07
5.1169936e-07
5.3121052e-07
5.5434729e-07
5.8030307e-07
6.0857127e-07
6.3931005e-07
6.7282508e-07
7.094622e-07
7.4963422e-07
7.9371109e-07
8.4196186e-07
8.9442515e-07
9.5179375e-07
1.0109646e-06
1.0853163e-06
3.3837162e-06
2.7155876e-06
2.2542055e-06
1.9270413e-06
1.685616e-06
1.5006876e-06
1.3545859e-06
1.2362494e-06
1.1384525e-06
1.0562836e-06
9.8628552e-07
9.2595391e-07
8.7342581e-07
8.2728863e-07
7.8645041e-07
7.5005442e-07
7.1742005e-07
6.8799701e-07
6.61337e-07
6.3707134e-07
6.1489446e-07
5.9455092e-07
5.7582518e-07
5.5853062e-07
5.4250637e-07
5.2761103e-07
5.1372535e-07
5.0075668e-07
4.8863997e-07
4.773434e-07
4.6684302e-07
4.5710777e-07
4.4812839e-07
4.3989402e-07
4.3238702e-07
4.2557717e-07
4.1942666e-07
4.1389137e-07
4.0892619e-07
4.0448361e-07
4.0051991e-07
3.9699836e-07
3.9388502e-07
3.9115398e-07
3.8878135e-07
3.867466e-07
3.8502977e-07
3.8361586e-07
3.8248784e-07
3.8162824e-07
3.8102664e-07
3.8066574e-07
3.8053442e-07
3.8062029e-07
3.809019e-07
3.8136799e-07
3.8201065e-07
3.8280909e-07
3.8374792e-07
3.8481981e-07
3.8600601e-07
3.8729682e-07
3.8867883e-07
3.9014225e-07
3.9167361e-07
3.9326616e-07
3.949159e-07
3.9660738e-07
3.9834338e-07
4.0012347e-07
4.0195061e-07
4.0382847e-07
4.0577432e-07
4.0781493e-07
4.099957e-07
4.1242187e-07
4.1514311e-07
4.1820659e-07
4.2166584e-07
4.2557749e-07
4.2999965e-07
4.3500094e-07
4.4065412e-07
4.4703539e-07
4.5420938e-07
4.6222594e-07
4.7116906e-07
4.81264e-07
4.9300548e-07
5.0716168e-07
5.2452871e-07
5.4543883e-07
5.694964e-07
5.9601005e-07
6.24624e-07
6.5538914e-07
6.8839003e-07
7.2386012e-07
7.6215045e-07
8.0365259e-07
8.4866132e-07
8.9803906e-07
9.4954048e-07
1.0146864e-06
3.3838532e-06
2.7159515e-06
2.2546669e-06
1.9275384e-06
1.6861127e-06
1.5011701e-06
1.3550524e-06
1.2366972e-06
1.1388813e-06
1.0566939e-06
9.8667719e-07
9.2632734e-07
8.7378192e-07
8.2762826e-07
7.8677521e-07
7.5036586e-07
7.1771797e-07
6.8828233e-07
6.6161073e-07
6.3733392e-07
6.151465e-07
5.947941e-07
5.7605972e-07
5.5875589e-07
5.4272206e-07
5.2781695e-07
5.1392276e-07
5.0094708e-07
4.8882838e-07
4.7753379e-07
4.6703642e-07
4.5730781e-07
4.4833916e-07
4.4011924e-07
4.3262556e-07
4.2583e-07
4.1969675e-07
4.1418061e-07
4.092355e-07
4.0481315e-07
4.0087101e-07
3.9737373e-07
3.9428606e-07
3.9157968e-07
3.892339e-07
3.8722419e-07
3.8553252e-07
3.841437e-07
3.8303926e-07
3.8220446e-07
3.8162647e-07
3.8129015e-07
3.8117881e-07
3.8128255e-07
3.8158676e-07
3.8207549e-07
3.827362e-07
3.8355313e-07
3.8451291e-07
3.8560402e-07
3.8680994e-07
3.8811727e-07
3.8951458e-07
3.9099023e-07
3.9253365e-07
3.9413539e-07
3.9579109e-07
3.9748957e-07
3.9922854e-07
4.0100635e-07
4.0282523e-07
4.0468866e-07
4.0661351e-07
4.0862592e-07
4.1077695e-07
4.1316748e-07
4.1585157e-07
4.1886874e-07
4.2226405e-07
4.2608655e-07
4.3038853e-07
4.352316e-07
4.4068491e-07
4.4682705e-07
4.5372678e-07
4.6143565e-07
4.7003517e-07
4.7973421e-07
4.9094111e-07
5.0423178e-07
5.2020457e-07
5.3927194e-07
5.6143894e-07
5.8631371e-07
6.1341203e-07
6.4254462e-07
6.7353852e-07
7.063559e-07
7.4119859e-07
7.7827347e-07
8.1781875e-07
8.6053921e-07
9.0501165e-07
9.5997781e-07
3.3840051e-06
2.7163329e-06
2.2551399e-06
1.9280311e-06
1.6865994e-06
1.5016431e-06
1.3555059e-06
1.2371313e-06
1.1392947e-06
1.0570864e-06
9.8705067e-07
9.2668345e-07
8.741229e-07
8.2795493e-07
7.8708823e-07
7.5066532e-07
7.1800513e-07
6.8855825e-07
6.6187578e-07
6.3758882e-07
6.1539218e-07
5.9503038e-07
5.7628701e-07
5.5897491e-07
5.4293228e-07
5.2801959e-07
5.1411944e-07
5.0114113e-07
4.8902388e-07
4.7773309e-07
4.6724187e-07
4.5752598e-07
4.4857473e-07
4.4037333e-07
4.3290169e-07
4.2613014e-07
4.2002003e-07
4.1452787e-07
4.0960874e-07
4.0521509e-07
4.0130331e-07
3.9783656e-07
3.9478118e-07
3.9210833e-07
3.897939e-07
3.8781554e-07
3.8615656e-07
3.8479852e-07
3.8372531e-07
3.829229e-07
3.8237583e-07
3.8206953e-07
3.8198957e-07
3.8212302e-07
3.8245576e-07
3.8297467e-07
3.8366317e-07
3.8450883e-07
3.8549996e-07
3.8661624e-07
3.8784883e-07
3.8918342e-07
3.9060706e-07
3.9210749e-07
3.9367414e-07
3.953008e-07
3.9697407e-07
3.9868896e-07
4.0044232e-07
4.0223124e-07
4.040563e-07
4.0592005e-07
4.078452e-07
4.0984935e-07
4.1198479e-07
4.143449e-07
4.1697831e-07
4.1992617e-07
4.2323444e-07
4.2695075e-07
4.3112756e-07
4.3582153e-07
4.4109486e-07
4.4702249e-07
4.5367985e-07
4.6112525e-07
4.6942397e-07
4.7875587e-07
4.8952544e-07
5.0230437e-07
5.1758851e-07
5.3561271e-07
5.5635904e-07
5.796379e-07
6.0516247e-07
6.3275315e-07
6.6224872e-07
6.9341138e-07
7.2622425e-07
7.6072984e-07
7.9707272e-07
8.356119e-07
8.7560449e-07
9.2240302e-07
3.3841551e-06
2.7166943e-06
2.2555878e-06
1.9285056e-06
1.6870731e-06
1.502104e-06
1.3559477e-06
1.2375514e-06
1.1396932e-06
1.0574658e-06
9.8741332e-07
9.2702803e-07
8.7444994e-07
8.2826681e-07
7.8738626e-07
7.5095082e-07
7.1827921e-07
6.8882063e-07
6.6212685e-07
6.3782963e-07
6.1562359e-07
5.9525317e-07
5.7650056e-07
5.5917886e-07
5.4312669e-07
5.2820433e-07
5.1429687e-07
5.0131515e-07
4.8919839e-07
4.7791273e-07
4.6743128e-07
4.5773104e-07
4.4879952e-07
4.4062173e-07
4.3317299e-07
4.2642583e-07
4.2034355e-07
4.1488102e-07
4.0999287e-07
4.0563108e-07
4.0175358e-07
3.9832332e-07
3.9530393e-07
3.9266559e-07
3.9038611e-07
3.8844435e-07
3.8682055e-07
3.8549821e-07
3.8446046e-07
3.8369221e-07
3.8317926e-07
3.829079e-07
3.828629e-07
3.8303096e-07
3.8339831e-07
3.8394942e-07
3.8467002e-07
3.8554918e-07
3.865738e-07
3.8772208e-07
3.8898436e-07
3.903505e-07
3.9180327e-07
3.9333207e-07
3.9492593e-07
3.9657496e-07
3.9827358e-07
4.0001312e-07
4.0178517e-07
4.0358855e-07
4.0542694e-07
4.072976e-07
4.0922457e-07
4.1122848e-07
4.1335906e-07
4.1570607e-07
4.1831792e-07
4.2123278e-07
4.2449009e-07
4.2813581e-07
4.3221963e-07
4.3679514e-07
4.4192181e-07
4.4766508e-07
4.5410321e-07
4.6130971e-07
4.6934896e-07
4.7835526e-07
4.8869039e-07
5.0098696e-07
5.1587236e-07
5.3358173e-07
5.5388756e-07
5.7638539e-07
6.0076678e-07
6.2691052e-07
6.5485259e-07
6.8444617e-07
7.1562337e-07
7.4835867e-07
7.8270766e-07
8.1873066e-07
8.5621686e-07
8.9808622e-07
3.3843116e-06
2.7170568e-06
2.2560311e-06
1.92897e-06
1.6875324e-06
1.5025476e-06
1.3563713e-06
1.2379539e-06
1.1400761e-06
1.0578306e-06
9.8776083e-07
9.2735947e-07
8.7476588e-07
8.2856739e-07
7.876724e-07
7.5122437e-07
7.1854017e-07
6.8907027e-07
6.6236688e-07
6.3805999e-07
6.1584411e-07
5.9546463e-07
5.7670347e-07
5.5937245e-07
5.4331139e-07
5.2838098e-07
5.1446687e-07
5.0148276e-07
4.8936965e-07
4.7809277e-07
4.6762408e-07
4.5794385e-07
4.4903626e-07
4.4088277e-07
4.3346463e-07
4.267511e-07
4.2070428e-07
4.1527957e-07
4.1042921e-07
4.0610863e-07
4.0227183e-07
3.9888196e-07
3.9590502e-07
3.9330953e-07
3.9107194e-07
3.8917129e-07
3.8758953e-07
3.863085e-07
3.8531247e-07
3.84587e-07
3.8411517e-07
3.838846e-07
3.8388124e-07
3.8408922e-07
3.844968e-07
3.8508726e-07
3.8584898e-07
3.8676741e-07
3.8782752e-07
3.8901901e-07
3.9032282e-07
3.9172809e-07
3.9322444e-07
3.9479301e-07
3.9642299e-07
3.9810885e-07
3.998438e-07
4.0161487e-07
4.0341585e-07
4.0524519e-07
4.0710614e-07
4.0899709e-07
4.1094226e-07
4.1295654e-07
4.1509236e-07
4.1743433e-07
4.2002573e-07
4.2290621e-07
4.2611474e-07
4.2969489e-07
4.3369338e-07
4.3816308e-07
4.431595e-07
4.4874227e-07
4.5498648e-07
4.6197631e-07
4.6979312e-07
4.7854182e-07
4.8848975e-07
5.0022846e-07
5.1455836e-07
5.3202276e-07
5.5250997e-07
5.7536865e-07
5.9989333e-07
6.2566713e-07
6.5268312e-07
6.8097668e-07
7.1059377e-07
7.4163023e-07
7.7425401e-07
8.0841972e-07
8.4416492e-07
8.8303288e-07
3.3844703e-06
2.7174064e-06
2.2564566e-06
1.9294189e-06
1.6879774e-06
1.5029769e-06
1.3567807e-06
1.2383432e-06
1.1404463e-06
1.0581815e-06
9.8809279e-07
9.276745e-07
8.7506513e-07
8.2885245e-07
7.8794465e-07
7.5148421e-07
7.1878845e-07
6.8930676e-07
6.6259294e-07
6.3827731e-07
6.1605288e-07
5.956638e-07
5.7689344e-07
5.5955333e-07
5.434828e-07
5.2854372e-07
5.1462208e-07
5.0163552e-07
4.8952682e-07
4.7826107e-07
4.6780979e-07
4.581529e-07
4.4927286e-07
4.4115383e-07
4.3377312e-07
4.2709813e-07
4.2109108e-07
4.1570948e-07
4.1090538e-07
4.066313e-07
4.0284296e-07
3.9950095e-07
3.9657033e-07
3.9402157e-07
3.9183137e-07
3.899792e-07
3.8844375e-07
3.872088e-07
3.8626108e-07
3.8558159e-07
3.8515648e-07
3.8497297e-07
3.8501614e-07
3.8527209e-07
3.857269e-07
3.863646e-07
3.8717177e-07
3.8813808e-07
3.8924786e-07
3.904829e-07
3.9183299e-07
3.9328354e-07
3.9482257e-07
3.9643726e-07
3.9811583e-07
3.9984669e-07
4.0161959e-07
4.0343116e-07
4.052743e-07
4.0714175e-07
4.090342e-07
4.1095351e-07
4.1292106e-07
4.1495584e-07
4.171113e-07
4.1946072e-07
4.2205038e-07
4.2491502e-07
4.2809663e-07
4.3163435e-07
4.3557002e-07
4.3995549e-07
4.4484421e-07
4.5029304e-07
4.5636896e-07
4.6315983e-07
4.7076986e-07
4.7931116e-07
4.8897025e-07
5.0018205e-07
5.1372421e-07
5.3044406e-07
5.5072444e-07
5.741713e-07
5.9985715e-07
6.2684702e-07
6.5461054e-07
6.8301271e-07
7.1206136e-07
7.419457e-07
7.7304093e-07
8.0545386e-07
8.394853e-07
8.7587553e-07
3.384632e-06
2.7177503e-06
2.2568732e-06
1.9298524e-06
1.6884056e-06
1.5033901e-06
1.3571758e-06
1.2387193e-06
1.1408023e-06
1.0585184e-06
9.884114e-07
9.2797635e-07
8.7535267e-07
8.2912617e-07
7.8820525e-07
7.5173205e-07
7.1902475e-07
6.895333e-07
6.628083e-07
6.3848154e-07
6.1624687e-07
5.958497e-07
5.7707127e-07
5.597216e-07
5.4364089e-07
5.2869278e-07
5.1476622e-07
5.0178072e-07
4.8968069e-07
4.7842763e-07
4.6799699e-07
4.5836908e-07
4.4952378e-07
4.4144273e-07
4.3410407e-07
4.2747653e-07
4.2151991e-07
4.1619161e-07
4.1144199e-07
4.0722292e-07
4.0348995e-07
4.0020209e-07
3.9732598e-07
3.9483204e-07
3.9269587e-07
3.9089693e-07
3.8941617e-07
3.8823595e-07
3.8734139e-07
3.8671619e-07
3.8634581e-07
3.8621725e-07
3.8631422e-07
3.8662289e-07
3.8713203e-07
3.8782469e-07
3.8868947e-07
3.8971283e-07
3.9087662e-07
3.9216961e-07
3.9357531e-07
3.9508103e-07
3.9667755e-07
3.9834721e-07
4.0007684e-07
4.0185961e-07
4.0368681e-07
4.0554756e-07
4.074345e-07
4.0934562e-07
4.1127981e-07
4.1324018e-07
4.1524491e-07
4.1730983e-07
4.1949377e-07
4.2186252e-07
4.2446607e-07
4.2733456e-07
4.3048974e-07
4.3398776e-07
4.3787006e-07
4.4218344e-07
4.469805e-07
4.5231586e-07
4.5824993e-07
4.6486549e-07
4.7227648e-07
4.8062353e-07
4.900743e-07
5.0091129e-07
5.1369783e-07
5.2927403e-07
5.4842033e-07
5.7137734e-07
5.9763558e-07
6.2618861e-07
6.5597998e-07
6.8631731e-07
7.1675546e-07
7.4724689e-07
7.7810561e-07
8.0957023e-07
8.4215635e-07
8.7628597e-07
3.3847949e-06
2.7180902e-06
2.2572824e-06
1.9302772e-06
1.6888226e-06
1.5037891e-06
1.3575549e-06
1.2390789e-06
1.1411431e-06
1.0588408e-06
9.8871689e-07
9.2826619e-07
8.7562748e-07
8.2938722e-07
7.8845319e-07
7.5196794e-07
7.1924928e-07
6.897462e-07
6.6301097e-07
6.3867519e-07
6.164315e-07
5.9602453e-07
5.7723598e-07
5.5987691e-07
5.4378586e-07
5.2882849e-07
5.1489768e-07
5.0191365e-07
4.8982328e-07
4.7859061e-07
4.681853e-07
4.5858865e-07
4.4978491e-07
4.4175154e-07
4.3446419e-07
4.2789355e-07
4.2199759e-07
4.1673165e-07
4.1204555e-07
4.0788961e-07
4.0421937e-07
4.0099284e-07
3.9817769e-07
3.957457e-07
3.9367089e-07
3.9193143e-07
3.9051114e-07
3.8939387e-07
3.8855889e-07
3.8799432e-07
3.8768667e-07
3.8761877e-07
3.8777672e-07
3.8815022e-07
3.8872469e-07
3.8948099e-07
3.9040748e-07
3.9149352e-07
3.9272383e-07
3.9407938e-07
3.9555053e-07
3.97126e-07
3.9878551e-07
4.0051709e-07
4.0231033e-07
4.0415835e-07
4.0604423e-07
4.0796359e-07
4.0991395e-07
4.1188005e-07
4.1386195e-07
4.158705e-07
4.1792113e-07
4.2002723e-07
4.2224911e-07
4.2465007e-07
4.2727331e-07
4.3015111e-07
4.3331232e-07
4.3679209e-07
4.4064224e-07
4.4490064e-07
4.4962028e-07
4.5485894e-07
4.6067259e-07
4.6713752e-07
4.7436362e-07
4.8250834e-07
4.9176405e-07
5.023501e-07
5.1461216e-07
5.2913413e-07
5.4668208e-07
5.6790702e-07
5.929798e-07
6.21465e-07
6.5244843e-07
6.8494367e-07
7.1797676e-07
7.5087491e-07
7.83508e-07
8.1595121e-07
8.4860257e-07
8.8180094e-07
3.3849594e-06
2.718416e-06
2.2576728e-06
1.9306844e-06
1.6892249e-06
1.5041762e-06
1.3579225e-06
1.2394264e-06
1.1414714e-06
1.0591516e-06
9.8901068e-07
9.2854393e-07
8.7588986e-07
8.2963536e-07
7.8868763e-07
7.5219062e-07
7.1946057e-07
6.8994664e-07
6.63201e-07
6.3885479e-07
6.1660296e-07
5.9618765e-07
5.7738881e-07
5.6001865e-07
5.4391786e-07
5.2895281e-07
5.1501842e-07
5.0203928e-07
4.8996303e-07
4.787521e-07
4.6837998e-07
4.5882437e-07
4.5006651e-07
4.4208844e-07
4.348625e-07
4.2835811e-07
4.2253369e-07
4.1734093e-07
4.1272927e-07
4.0864711e-07
4.0504978e-07
4.0189468e-07
3.9914847e-07
3.9678498e-07
3.9477868e-07
3.9310896e-07
3.9175702e-07
3.9070714e-07
3.8994193e-07
3.894475e-07
3.8920996e-07
3.892121e-07
3.8944349e-07
3.8988802e-07
3.9053128e-07
3.9136213e-07
3.9236181e-07
3.9352142e-07
3.9482893e-07
3.9626073e-07
3.9780642e-07
3.99456e-07
4.01192e-07
4.0299927e-07
4.0486805e-07
4.0678796e-07
4.0874656e-07
4.1073644e-07
4.1275239e-07
4.1478855e-07
4.1683381e-07
4.1890266e-07
4.2101801e-07
4.2317683e-07
4.2544448e-07
4.2788755e-07
4.3054013e-07
4.3343763e-07
4.3660886e-07
4.4008776e-07
4.4391424e-07
4.4814076e-07
4.5280558e-07
4.5796385e-07
4.6367625e-07
4.7001605e-07
4.7708414e-07
4.8503468e-07
4.9407857e-07
5.0444415e-07
5.163785e-07
5.3021226e-07
5.4643675e-07
5.6565197e-07
5.8836083e-07
6.1474718e-07
6.4454028e-07
6.7710281e-07
7.1156921e-07
7.4686287e-07
7.8221193e-07
8.172355e-07
8.5176112e-07
8.8651127e-07
3.385123e-06
2.7187418e-06
2.2580573e-06
1.9310774e-06
1.689608e-06
1.5045434e-06
1.3582729e-06
1.2397583e-06
1.1417842e-06
1.0594473e-06
9.8929045e-07
9.288086e-07
8.7613988e-07
8.2987072e-07
7.8891061e-07
7.5240069e-07
7.1965794e-07
6.9013319e-07
6.6337768e-07
6.3902168e-07
6.1676084e-07
5.9633658e-07
5.7752809e-07
5.6014797e-07
5.4403665e-07
5.2906465e-07
5.1513032e-07
5.0215882e-07
4.9010074e-07
4.789179e-07
4.6858227e-07
4.5907349e-07
4.5037254e-07
4.4245805e-07
4.3530513e-07
4.288818e-07
4.2314252e-07
4.1803603e-07
4.1351063e-07
4.095123e-07
4.0599535e-07
4.0291971e-07
4.0025331e-07
3.9796821e-07
3.9603867e-07
3.9444519e-07
3.9317052e-07
3.9219838e-07
3.9151152e-07
3.910953e-07
3.9093823e-07
3.9102123e-07
3.9133349e-07
3.9186251e-07
3.9258953e-07
3.9350288e-07
3.9458814e-07
3.9583281e-07
3.9722266e-07
3.9874107e-07
4.0037507e-07
4.0210837e-07
4.039299e-07
4.0582628e-07
4.077831e-07
4.0978958e-07
4.1183294e-07
4.1390605e-07
4.160036e-07
4.1811493e-07
4.2023617e-07
4.2237639e-07
4.2455585e-07
4.2678311e-07
4.2911421e-07
4.3161225e-07
4.3431094e-07
4.3724061e-07
4.4043196e-07
4.4392055e-07
4.4774507e-07
4.5194539e-07
4.5657465e-07
4.6167502e-07
4.6730651e-07
4.7354363e-07
4.8048252e-07
4.8826422e-07
4.9709589e-07
5.0722307e-07
5.1888825e-07
5.3231334e-07
5.477485e-07
5.6552661e-07
5.8604771e-07
6.0968611e-07
6.366469e-07
6.6686079e-07
7.0002042e-07
7.3535599e-07
7.7198702e-07
8.0927439e-07
8.4620534e-07
8.8427874e-07
3.3852856e-06
2.7190496e-06
2.2584208e-06
1.9314557e-06
1.6899801e-06
1.5048991e-06
1.358609e-06
1.240075e-06
1.1420832e-06
1.0597274e-06
9.8955394e-07
9.2905692e-07
8.7637412e-07
8.3009202e-07
7.8911859e-07
7.5259685e-07
7.1984283e-07
6.9030619e-07
6.6353969e-07
6.3917524e-07
6.1690572e-07
5.9647226e-07
5.7765424e-07
5.6026376e-07
5.441433e-07
5.2916485e-07
5.1523192e-07
5.0227207e-07
4.9023612e-07
4.7908679e-07
4.68796e-07
4.593434e-07
4.5070932e-07
4.4287378e-07
4.3581019e-07
4.2948162e-07
4.2384158e-07
4.1883497e-07
4.144072e-07
4.105049e-07
4.0707854e-07
4.0409224e-07
4.0151453e-07
3.9931483e-07
3.9747256e-07
3.9596733e-07
3.9478025e-07
3.9389728e-07
3.9330042e-07
3.9297535e-07
3.9290833e-07
3.930853e-07
3.9349195e-07
3.9411169e-07
3.9493431e-07
3.9594779e-07
3.9713139e-07
3.9847283e-07
3.9996018e-07
4.015769e-07
4.0330979e-07
4.0514286e-07
4.0706615e-07
4.0906218e-07
4.11118e-07
4.1322594e-07
4.1536826e-07
4.175366e-07
4.1972507e-07
4.2192726e-07
4.2413788e-07
4.2636499e-07
4.2862559e-07
4.3092888e-07
4.33334e-07
4.3589847e-07
4.3865267e-07
4.416266e-07
4.4485313e-07
4.4836209e-07
4.5219261e-07
4.5638472e-07
4.6098603e-07
4.6604477e-07
4.7161472e-07
4.7776946e-07
4.8460158e-07
4.9224538e-07
5.0088941e-07
5.1077291e-07
5.2215213e-07
5.3524459e-07
5.5021586e-07
5.6720542e-07
5.863798e-07
6.0796519e-07
6.3221348e-07
6.5932274e-07
6.8941663e-07
7.2231745e-07
7.5749306e-07
7.9460513e-07
8.3226323e-07
8.729671e-07
3.3854461e-06
2.7193524e-06
2.2587755e-06
1.9318188e-06
1.6903337e-06
1.5052373e-06
1.3589294e-06
1.2403768e-06
1.1423662e-06
1.0599936e-06
9.8980407e-07
9.2929135e-07
8.7659421e-07
8.3029896e-07
7.8931265e-07
7.5277808e-07
7.2001339e-07
6.9046753e-07
6.6369154e-07
6.3931747e-07
6.1703837e-07
5.9659457e-07
5.7776593e-07
5.6036526e-07
5.4423527e-07
5.2925364e-07
5.1532621e-07
5.0238274e-07
4.9037479e-07
4.792659e-07
4.6902902e-07
4.5964202e-07
4.5108829e-07
4.4334699e-07
4.3638784e-07
4.3017344e-07
4.2465031e-07
4.1975886e-07
4.1544283e-07
4.1164672e-07
4.0832334e-07
4.0543734e-07
4.0295773e-07
4.0085767e-07
3.9911411e-07
3.977078e-07
3.9662003e-07
3.958368e-07
3.9534257e-07
3.9511945e-07
3.951561e-07
3.9543764e-07
3.9595053e-07
3.9667932e-07
3.9761033e-07
3.9873275e-07
4.0002909e-07
4.0148287e-07
4.0308361e-07
4.0481583e-07
4.0666497e-07
4.0861629e-07
4.1065483e-07
4.1276777e-07
4.1494018e-07
4.1716089e-07
4.1941682e-07
4.2169696e-07
4.2399544e-07
4.263059e-07
4.2861966e-07
4.309457e-07
4.3330188e-07
4.3569459e-07
4.3818738e-07
4.408327e-07
4.4365661e-07
4.4668981e-07
4.4995964e-07
4.5349867e-07
4.5734605e-07
4.6154172e-07
4.6612402e-07
4.7115361e-07
4.7667324e-07
4.8276003e-07
4.895048e-07
4.9703316e-07
5.0551832e-07
5.1518023e-07
5.2626673e-07
5.390068e-07
5.5357556e-07
5.7006733e-07
5.8852284e-07
6.0898753e-07
6.3154684e-07
6.5633739e-07
6.8354117e-07
7.1330754e-07
7.4544659e-07
7.8007483e-07
8.159596e-07
8.5637719e-07
3.3856043e-06
2.7196445e-06
2.2591167e-06
1.9321689e-06
1.6906744e-06
1.505563e-06
1.3592363e-06
1.2406643e-06
1.1426357e-06
1.060245e-06
9.9003827e-07
9.2951177e-07
8.7680124e-07
8.3049217e-07
7.8949286e-07
7.5294707e-07
7.2017046e-07
6.9061349e-07
6.6382865e-07
6.394455e-07
6.1715643e-07
5.9670274e-07
5.7786326e-07
5.6045067e-07
5.4431316e-07
5.2933047e-07
5.1541167e-07
5.0249109e-07
4.9051917e-07
4.794603e-07
4.6928802e-07
4.5998065e-07
4.5152328e-07
4.4389519e-07
4.3706462e-07
4.3098468e-07
4.2559599e-07
4.2083708e-07
4.1664721e-07
4.12971e-07
4.0976481e-07
4.0699189e-07
4.0462289e-07
4.0263373e-07
4.0100058e-07
3.9970403e-07
3.9872922e-07
3.9806038e-07
3.9767977e-07
3.9757441e-07
3.9773024e-07
3.981316e-07
3.9876602e-07
3.996187e-07
4.0067465e-07
4.0192309e-07
4.0334801e-07
4.0493182e-07
4.0666176e-07
4.0852763e-07
4.1051076e-07
4.1259546e-07
4.1477028e-07
4.1701564e-07
4.1931975e-07
4.2167276e-07
4.2405945e-07
4.2646977e-07
4.2889528e-07
4.3132555e-07
4.3375797e-07
4.3620319e-07
4.3867252e-07
4.4117151e-07
4.4376728e-07
4.4650549e-07
4.4941511e-07
4.5252057e-07
4.5584957e-07
4.5943547e-07
4.6331215e-07
4.6752045e-07
4.7210199e-07
4.771058e-07
4.8258966e-07
4.8861557e-07
4.9528005e-07
5.0270628e-07
5.1105314e-07
5.2051925e-07
5.313316e-07
5.4371163e-07
5.5784668e-07
5.7385715e-07
5.917789e-07
6.1159422e-07
6.3326679e-07
6.5679102e-07
6.8220417e-07
7.0965762e-07
7.3904219e-07
7.7064323e-07
8.0358509e-07
8.4113536e-07
3.3857601e-06
2.7199289e-06
2.2594473e-06
1.9325063e-06
1.6910016e-06
1.5058739e-06
1.359529e-06
1.2409377e-06
1.1428909e-06
1.0604835e-06
9.9026108e-07
9.2971851e-07
8.7699302e-07
8.3067098e-07