/*--------------------------------*- C++ -*----------------------------------*\
| =========                 |                                                 |
| \\      /  F ield         | OpenFOAM: The Open Source CFD Toolbox           |
|  \\    /   O peration     | Version:  2406                                  |
|   \\  /    A nd           | Website:  www.openfoam.com                      |
|    \\/     M anipulation  |                                                 |
\*---------------------------------------------------------------------------*/
FoamFile
{
    version     2.0;
    format      ascii;
    arch        "LSB;label=32;scalar=64";
    class       volScalarField;
    location    "400";
    object      nut;
}
// * * * * * * * * * * * * * * * * * * * * * * * * * * * * * * * * * * * * * //

dimensions      [0 2 -1 0 0 0 0];

internalField   nonuniform List<scalar> 
132739
(
8.7509404e-07
8.6010733e-07
8.4729031e-07
8.3660031e-07
8.2761902e-07
8.1994475e-07
8.1327429e-07
8.0739186e-07
8.0214326e-07
7.9741571e-07
7.9312441e-07
7.8920384e-07
7.8560238e-07
7.8227841e-07
7.7919819e-07
7.7633383e-07
7.7366199e-07
7.7116317e-07
7.6882086e-07
7.6662093e-07
7.6455129e-07
7.6260155e-07
7.6076273e-07
7.59027e-07
7.573875e-07
7.5583841e-07
7.5437455e-07
7.529914e-07
7.516851e-07
7.504523e-07
7.4929032e-07
7.4819701e-07
7.471702e-07
7.4620825e-07
7.4530995e-07
7.4447395e-07
7.4369929e-07
7.4298509e-07
7.4233038e-07
7.4173448e-07
7.4119674e-07
7.4071679e-07
7.4029466e-07
7.3993023e-07
7.3962355e-07
7.3937498e-07
7.3918359e-07
7.3905133e-07
7.3897341e-07
7.3893751e-07
7.3892867e-07
7.3893892e-07
7.3901309e-07
7.3873239e-07
7.3864349e-07
7.3861833e-07
7.3840729e-07
7.3795171e-07
7.37521e-07
7.3722376e-07
7.3713459e-07
7.3723994e-07
7.3770633e-07
7.3831812e-07
7.3900487e-07
7.3974034e-07
7.4052643e-07
7.4136591e-07
7.4225604e-07
7.4319613e-07
7.4419025e-07
7.4525106e-07
7.4639721e-07
7.4773261e-07
7.488496e-07
7.5046647e-07
7.5148177e-07
7.541736e-07
7.5767457e-07
7.6172597e-07
7.6598673e-07
7.7173504e-07
7.7889731e-07
7.8758045e-07
7.9787423e-07
8.0984493e-07
8.2355993e-07
8.3914578e-07
8.5683333e-07
8.7695945e-07
8.998759e-07
9.2607415e-07
9.552842e-07
9.8699328e-07
1.0211392e-06
1.0576686e-06
1.0966014e-06
1.1380711e-06
1.1823104e-06
1.2296416e-06
1.2804963e-06
1.3354335e-06
1.3950401e-06
1.4604294e-06
8.7507905e-07
8.6010176e-07
8.4729238e-07
8.366083e-07
8.2763162e-07
8.1996102e-07
8.1329369e-07
8.0741408e-07
8.0216817e-07
7.9744339e-07
7.9315513e-07
7.8923792e-07
7.8564021e-07
7.8232068e-07
7.7924558e-07
7.7638701e-07
7.7372177e-07
7.7123039e-07
7.6889631e-07
7.6670538e-07
7.6464541e-07
7.6270595e-07
7.6087805e-07
7.5915378e-07
7.5752625e-07
7.5598944e-07
7.5453831e-07
7.531682e-07
7.5187507e-07
7.5065568e-07
7.4950705e-07
7.4842667e-07
7.474124e-07
7.4646229e-07
7.4557481e-07
7.4474859e-07
7.4398227e-07
7.4327468e-07
7.4262502e-07
7.4203256e-07
7.4149663e-07
7.4101699e-07
7.4059341e-07
7.4022599e-07
7.3991493e-07
7.3966037e-07
7.3946118e-07
7.3932358e-07
7.3921622e-07
7.391139e-07
7.3899702e-07
7.3888688e-07
7.3879262e-07
7.3852323e-07
7.3833416e-07
7.3820835e-07
7.3804317e-07
7.3785723e-07
7.3772542e-07
7.3771411e-07
7.3791354e-07
7.3833467e-07
7.3905226e-07
7.4002174e-07
7.4102292e-07
7.4201595e-07
7.4299678e-07
7.4397476e-07
7.4497024e-07
7.4600967e-07
7.471231e-07
7.4834367e-07
7.4971085e-07
7.5127004e-07
7.5306776e-07
7.5519884e-07
7.5747803e-07
7.6003188e-07
7.6283421e-07
7.6602651e-07
7.6960068e-07
7.737518e-07
7.7869668e-07
7.8474775e-07
7.9226394e-07
8.0157976e-07
8.1297637e-07
8.2666134e-07
8.4278703e-07
8.6150763e-07
8.8298658e-07
9.0744136e-07
9.3524763e-07
9.6510692e-07
9.9624711e-07
1.0288374e-06
1.0632061e-06
1.0996634e-06
1.1384802e-06
1.1799332e-06
1.2242151e-06
1.2721403e-06
1.3217222e-06
1.3853585e-06
8.7506752e-07
8.6009938e-07
8.4729712e-07
8.3661815e-07
8.276451e-07
8.1997706e-07
8.1331156e-07
8.0743305e-07
8.021876e-07
7.9746261e-07
7.9317336e-07
7.8925445e-07
7.856542e-07
7.8233116e-07
7.7925158e-07
7.7638745e-07
7.7371554e-07
7.712162e-07
7.6887279e-07
7.666711e-07
7.6459891e-07
7.6264567e-07
7.6080221e-07
7.590608e-07
7.5741443e-07
7.5585703e-07
7.543835e-07
7.5298912e-07
7.5166993e-07
7.5042269e-07
7.4924429e-07
7.4813234e-07
7.4708495e-07
7.4610018e-07
7.4517658e-07
7.4431304e-07
7.4350844e-07
7.4276174e-07
7.4207229e-07
7.4143964e-07
7.4086306e-07
7.403424e-07
7.3987731e-07
7.3946787e-07
7.3911403e-07
7.3881563e-07
7.38573e-07
7.3838455e-07
7.3825147e-07
7.3817643e-07
7.3815434e-07
7.381585e-07
7.3832663e-07
7.3812013e-07
7.3814603e-07
7.3831627e-07
7.3840411e-07
7.3848079e-07
7.3861969e-07
7.3881567e-07
7.3907429e-07
7.3944951e-07
7.4005652e-07
7.4067303e-07
7.412666e-07
7.4183727e-07
7.4239345e-07
7.4295141e-07
7.435327e-07
7.4416061e-07
7.4486032e-07
7.4565766e-07
7.4658839e-07
7.4766828e-07
7.4903785e-07
7.5090053e-07
7.5330596e-07
7.5567982e-07
7.584094e-07
7.6177175e-07
7.6614629e-07
7.7126412e-07
7.7705567e-07
7.8352558e-07
7.9076402e-07
7.98958e-07
8.0838809e-07
8.1939972e-07
8.32367e-07
8.4766229e-07
8.6564082e-07
8.865651e-07
9.1082351e-07
9.3839199e-07
9.6870572e-07
1.0001207e-06
1.0323895e-06
1.0656978e-06
1.1003675e-06
1.1368177e-06
1.1752026e-06
1.216815e-06
1.2581675e-06
1.3147572e-06
8.7505938e-07
8.6010003e-07
8.4730476e-07
8.3663093e-07
8.2766154e-07
8.1999636e-07
8.133331e-07
8.0745646e-07
8.0221279e-07
7.9748958e-07
7.9320216e-07
7.8928516e-07
7.8568706e-07
7.8236653e-07
7.7928988e-07
7.7642918e-07
7.7376132e-07
7.7126672e-07
7.6892865e-07
7.6673296e-07
7.6466744e-07
7.6272164e-07
7.6088642e-07
7.5915399e-07
7.5751733e-07
7.5597046e-07
7.5450829e-07
7.531262e-07
7.5182033e-07
7.5058733e-07
7.4942411e-07
7.4832842e-07
7.472982e-07
7.4633149e-07
7.4542698e-07
7.4458333e-07
7.4379939e-07
7.4307419e-07
7.4240688e-07
7.4179678e-07
7.4124318e-07
7.4074586e-07
7.4030416e-07
7.399178e-07
7.3958693e-07
7.393112e-07
7.3909057e-07
7.3892477e-07
7.3881175e-07
7.3875112e-07
7.3874193e-07
7.3877183e-07
7.3883077e-07
7.3904546e-07
7.3920006e-07
7.3936819e-07
7.3964614e-07
7.399864e-07
7.4033341e-07
7.406725e-07
7.4102477e-07
7.414142e-07
7.4179997e-07
7.4219314e-07
7.4259281e-07
7.4300214e-07
7.434274e-07
7.4387756e-07
7.4436575e-07
7.4490908e-07
7.4552806e-07
7.4624722e-07
7.4709711e-07
7.4810999e-07
7.4934963e-07
7.5078617e-07
7.5281256e-07
7.5515195e-07
7.574782e-07
7.6002648e-07
7.6344011e-07
7.676848e-07
7.7285042e-07
7.7901635e-07
7.8622435e-07
7.9449271e-07
8.0385023e-07
8.1437286e-07
8.2621282e-07
8.3961567e-07
8.5492412e-07
8.7252645e-07
8.9283477e-07
9.1630566e-07
9.4337566e-07
9.7237226e-07
1.0026761e-06
1.0339986e-06
1.0662399e-06
1.0995554e-06
1.1339002e-06
1.170583e-06
1.2062952e-06
1.2544044e-06
8.7505423e-07
8.6010339e-07
8.473147e-07
8.3664561e-07
8.276797e-07
8.2001707e-07
8.1335573e-07
8.0748054e-07
8.0223792e-07
7.9751537e-07
7.9322822e-07
7.893112e-07
7.8571273e-07
7.8239142e-07
7.7931349e-07
7.7645111e-07
7.7378112e-07
7.7128385e-07
7.6894264e-07
7.667432e-07
7.646733e-07
7.6272254e-07
7.6088161e-07
7.5914259e-07
7.5749869e-07
7.5594392e-07
7.54473e-07
7.5308135e-07
7.517651e-07
7.5052078e-07
7.4934556e-07
7.4823709e-07
7.4719313e-07
7.4621212e-07
7.4529262e-07
7.4443337e-07
7.4363343e-07
7.4289169e-07
7.422073e-07
7.4157948e-07
7.4100766e-07
7.4049151e-07
7.4003022e-07
7.3962364e-07
7.3927164e-07
7.3897389e-07
7.3873057e-07
7.3854081e-07
7.3840395e-07
7.3832056e-07
7.3828809e-07
7.3830501e-07
7.3836823e-07
7.3846592e-07
7.3861135e-07
7.3878813e-07
7.3899607e-07
7.3924211e-07
7.3951225e-07
7.3979407e-07
7.4008518e-07
7.4038743e-07
7.4070583e-07
7.4102955e-07
7.4135505e-07
7.4168467e-07
7.4202224e-07
7.4237419e-07
7.4275083e-07
7.4316629e-07
7.4363782e-07
7.4418613e-07
7.4483571e-07
7.4562177e-07
7.4656539e-07
7.4777589e-07
7.4946645e-07
7.5131299e-07
7.5349724e-07
7.5628567e-07
7.5965961e-07
7.6368134e-07
7.6845099e-07
7.7409232e-07
7.807364e-07
7.8850096e-07
7.9747452e-07
8.0771417e-07
8.192584e-07
8.3215689e-07
8.4651188e-07
8.6251416e-07
8.8044176e-07
9.0062591e-07
9.2382476e-07
9.4942613e-07
9.7663182e-07
1.0052013e-06
1.0349442e-06
1.0657884e-06
1.0974365e-06
1.1307609e-06
1.1629892e-06
1.2045966e-06
8.7505207e-07
8.6010939e-07
8.4732714e-07
8.366628e-07
8.2770032e-07
8.2004017e-07
8.1338078e-07
8.0750722e-07
8.0226591e-07
7.975445e-07
7.932584e-07
7.8934235e-07
7.8574483e-07
7.8242452e-07
7.7934772e-07
7.7648658e-07
7.7381799e-07
7.7132223e-07
7.6898281e-07
7.667855e-07
7.6471796e-07
7.6276969e-07
7.6093153e-07
7.5919559e-07
7.575551e-07
7.5600388e-07
7.5453677e-07
7.5314927e-07
7.5183743e-07
7.505979e-07
7.4942774e-07
7.4832474e-07
7.4728674e-07
7.4631194e-07
7.4539904e-07
7.4454662e-07
7.4375364e-07
7.4301904e-07
7.4234202e-07
7.4172186e-07
7.4115748e-07
7.4064851e-07
7.4019445e-07
7.3979485e-07
7.3944951e-07
7.3915818e-07
7.3892071e-07
7.3873643e-07
7.3860443e-07
7.3852434e-07
7.3849497e-07
7.3850725e-07
7.3856824e-07
7.3869285e-07
7.3882712e-07
7.389903e-07
7.3920826e-07
7.3946628e-07
7.3973701e-07
7.4000818e-07
7.4028405e-07
7.4057631e-07
7.4087583e-07
7.4117665e-07
7.4147775e-07
7.4177958e-07
7.4208465e-07
7.4239849e-07
7.4273045e-07
7.4309336e-07
7.4350359e-07
7.4398127e-07
7.4455128e-07
7.4524442e-07
7.4609944e-07
7.471556e-07
7.484455e-07
7.500079e-07
7.5188299e-07
7.5417251e-07
7.5697556e-07
7.6039369e-07
7.645316e-07
7.6949934e-07
7.7541431e-07
7.8240189e-07
7.9058885e-07
8.0008966e-07
8.1099326e-07
8.2335568e-07
8.3720855e-07
8.5258305e-07
8.6955833e-07
8.8822164e-07
9.0893409e-07
9.3202433e-07
9.5633844e-07
9.8176988e-07
1.008356e-06
1.0361635e-06
1.0649661e-06
1.0953535e-06
1.1249468e-06
1.1621642e-06
8.7505252e-07
8.6011766e-07
8.4734152e-07
8.3668161e-07
8.2772238e-07
8.2006465e-07
8.1340714e-07
8.0753503e-07
8.0229479e-07
7.9757418e-07
7.932887e-07
7.8937304e-07
7.8577572e-07
7.8245537e-07
7.7937836e-07
7.7651681e-07
7.7384754e-07
7.71351e-07
7.6901049e-07
7.6681178e-07
7.6474262e-07
7.6279244e-07
7.6095211e-07
7.5921364e-07
7.5757013e-07
7.5601561e-07
7.5454485e-07
7.5315339e-07
7.5183727e-07
7.5059308e-07
7.4941788e-07
7.4830946e-07
7.4726566e-07
7.4628462e-07
7.4536523e-07
7.4450613e-07
7.4370617e-07
7.429643e-07
7.4227985e-07
7.4165193e-07
7.4107958e-07
7.4056247e-07
7.4009987e-07
7.3969114e-07
7.3933627e-07
7.3903462e-07
7.3878626e-07
7.3859063e-07
7.3844672e-07
7.3835416e-07
7.38312e-07
7.383153e-07
7.3836161e-07
7.3845902e-07
7.3858387e-07
7.3873689e-07
7.3892503e-07
7.3914375e-07
7.393806e-07
7.3962529e-07
7.3987477e-07
7.4013073e-07
7.4038866e-07
7.4064459e-07
7.4089598e-07
7.4114206e-07
7.413841e-07
7.4162671e-07
7.4187765e-07
7.4214772e-07
7.424516e-07
7.4280735e-07
7.4323697e-07
7.4376842e-07
7.4443423e-07
7.4527575e-07
7.4634911e-07
7.4771215e-07
7.4942518e-07
7.51549e-07
7.5414886e-07
7.5729811e-07
7.6107986e-07
7.6558776e-07
7.7092648e-07
7.772113e-07
7.8456791e-07
7.9313226e-07
8.0303967e-07
8.1441079e-07
8.2734271e-07
8.4189368e-07
8.58098e-07
8.7596775e-07
8.9549736e-07
9.1709174e-07
9.3991204e-07
9.6333529e-07
9.8737137e-07
1.0122216e-06
1.0378973e-06
1.0650421e-06
1.0917322e-06
1.125124e-06
8.7505513e-07
8.6012791e-07
8.4735773e-07
8.367021e-07
8.2774606e-07
8.2009072e-07
8.1343492e-07
8.0756415e-07
8.0232505e-07
7.9760538e-07
7.9332061e-07
7.8940561e-07
7.8580887e-07
7.8248904e-07
7.7941247e-07
7.7655135e-07
7.7388252e-07
7.7138646e-07
7.6904649e-07
7.6684835e-07
7.6477986e-07
7.6283039e-07
7.6099081e-07
7.5925316e-07
7.5761051e-07
7.5605691e-07
7.5458718e-07
7.5319677e-07
7.5188166e-07
7.5063848e-07
7.4946443e-07
7.4835712e-07
7.4731445e-07
7.4633469e-07
7.454166e-07
7.4455878e-07
7.4376015e-07
7.4301973e-07
7.4233677e-07
7.4171023e-07
7.4113932e-07
7.4062328e-07
7.4016142e-07
7.3975338e-07
7.393987e-07
7.3909711e-07
7.3884841e-07
7.3865197e-07
7.3850685e-07
7.3841258e-07
7.3836764e-07
7.3836707e-07
7.3841063e-07
7.3850253e-07
7.3862095e-07
7.3876698e-07
7.3894928e-07
7.391612e-07
7.3938777e-07
7.3961863e-07
7.3985107e-07
7.4008744e-07
7.4032413e-07
7.4055606e-07
7.4077971e-07
7.4099404e-07
7.4120027e-07
7.4140182e-07
7.4160597e-07
7.4182288e-07
7.4206577e-07
7.4235177e-07
7.4270205e-07
7.4314319e-07
7.4370805e-07
7.4443215e-07
7.4534266e-07
7.4648367e-07
7.4791343e-07
7.4970108e-07
7.5192353e-07
7.5466344e-07
7.5800777e-07
7.6204602e-07
7.6687001e-07
7.7257561e-07
7.7926288e-07
7.8704092e-07
7.9602958e-07
8.0635705e-07
8.1815129e-07
8.3153163e-07
8.4658939e-07
8.6339544e-07
8.8191246e-07
9.0230176e-07
9.2441827e-07
9.4701151e-07
9.6980978e-07
9.9287803e-07
1.016245e-06
1.0405615e-06
1.0643773e-06
1.0938008e-06
8.7505947e-07
8.6013958e-07
8.4737516e-07
8.3672376e-07
8.2777069e-07
8.2011749e-07
8.1346345e-07
8.0759407e-07
8.023561e-07
7.9763736e-07
7.9335332e-07
7.8943883e-07
7.8584242e-07
7.8252275e-07
7.794462e-07
7.7658502e-07
7.7391597e-07
7.7141952e-07
7.6907907e-07
7.6688035e-07
7.648111e-07
7.6286077e-07
7.6102023e-07
7.5928138e-07
7.5763738e-07
7.5608221e-07
7.546107e-07
7.5321825e-07
7.5190089e-07
7.5065533e-07
7.4947868e-07
7.4836849e-07
7.473226e-07
7.4633957e-07
7.4541787e-07
7.4455624e-07
7.4375399e-07
7.4300974e-07
7.4232278e-07
7.4169212e-07
7.4111672e-07
7.4059617e-07
7.4012946e-07
7.397163e-07
7.3935619e-07
7.3904862e-07
7.3879369e-07
7.3859066e-07
7.3843858e-07
7.3833658e-07
7.3828346e-07
7.3827495e-07
7.3830929e-07
7.383889e-07
7.3849777e-07
7.3863308e-07
7.3879847e-07
7.3898941e-07
7.3919471e-07
7.3940509e-07
7.3961604e-07
7.3982681e-07
7.4003377e-07
7.4023237e-07
7.4041926e-07
7.405929e-07
7.4075365e-07
7.4090398e-07
7.4104967e-07
7.411996e-07
7.4136565e-07
7.4156352e-07
7.4181262e-07
7.421375e-07
7.425679e-07
7.4313921e-07
7.4389309e-07
7.4487771e-07
7.4614614e-07
7.4775588e-07
7.4976949e-07
7.5225579e-07
7.5529078e-07
7.5895701e-07
7.6334234e-07
7.6853954e-07
7.7464366e-07
7.8175305e-07
7.8996966e-07
7.9940043e-07
8.1015965e-07
8.2236835e-07
8.3614693e-07
8.5161007e-07
8.6882556e-07
8.8781252e-07
9.0885526e-07
9.3088046e-07
9.5314784e-07
9.7547769e-07
9.9774396e-07
1.0204043e-06
1.0422994e-06
1.0683836e-06
8.7506592e-07
8.601531e-07
8.4739419e-07
8.3674671e-07
8.277965e-07
8.2014552e-07
8.1349314e-07
8.0762512e-07
8.023882e-07
7.9767022e-07
7.933868e-07
7.8947278e-07
7.8587678e-07
7.8255745e-07
7.7948114e-07
7.7662009e-07
7.7395114e-07
7.7145477e-07
7.6911434e-07
7.6691558e-07
7.6484629e-07
7.6289586e-07
7.6105516e-07
7.5931615e-07
7.5767196e-07
7.5611663e-07
7.5464492e-07
7.5325217e-07
7.519345e-07
7.5068858e-07
7.4951141e-07
7.4840058e-07
7.4735409e-07
7.4637039e-07
7.45448e-07
7.4458572e-07
7.437826e-07
7.4303741e-07
7.4234945e-07
7.4171773e-07
7.4114125e-07
7.406195e-07
7.4015137e-07
7.3973658e-07
7.393745e-07
7.3906477e-07
7.3880727e-07
7.3860119e-07
7.3844593e-07
7.3834048e-07
7.3828324e-07
7.3827027e-07
7.3829965e-07
7.3837191e-07
7.3847379e-07
7.3860171e-07
7.3875774e-07
7.3893719e-07
7.3912952e-07
7.3932554e-07
7.395205e-07
7.3971282e-07
7.3989914e-07
7.4007463e-07
7.4023546e-07
7.4037977e-07
7.4050719e-07
7.4061993e-07
7.4072309e-07
7.4082455e-07
7.4093542e-07
7.4107039e-07
7.412478e-07
7.4149064e-07
7.4182823e-07
7.4229184e-07
7.4291127e-07
7.4372907e-07
7.4479634e-07
7.4617166e-07
7.4792042e-07
7.5011318e-07
7.5282464e-07
7.561334e-07
7.6012078e-07
7.6487108e-07
7.7047176e-07
7.7701135e-07
7.8458108e-07
7.9327544e-07
8.0318771e-07
8.1441535e-07
8.2706415e-07
8.4124475e-07
8.5707693e-07
8.7458308e-07
8.9403041e-07
9.1508372e-07
9.3665937e-07
9.5843369e-07
9.8016287e-07
1.0020695e-06
1.0231056e-06
1.0472202e-06
8.7507335e-07
8.6016745e-07
8.4741394e-07
8.367704e-07
8.2782306e-07
8.2017424e-07
8.1352353e-07
8.0765675e-07
8.0242078e-07
7.9770359e-07
7.9342084e-07
7.8950726e-07
7.8591151e-07
7.8259236e-07
7.7951615e-07
7.7665512e-07
7.7398613e-07
7.7148956e-07
7.6914882e-07
7.6694966e-07
7.6487982e-07
7.6292874e-07
7.6108722e-07
7.5934729e-07
7.5770208e-07
7.5614554e-07
7.546725e-07
7.5327837e-07
7.5195917e-07
7.5071148e-07
7.4953246e-07
7.4841975e-07
7.4737121e-07
7.4638522e-07
7.4546034e-07
7.4459536e-07
7.4378943e-07
7.4304135e-07
7.4235035e-07
7.4171549e-07
7.4113571e-07
7.4061057e-07
7.401389e-07
7.3972025e-07
7.3935409e-07
7.3904002e-07
7.3877796e-07
7.3856705e-07
7.384067e-07
7.3829578e-07
7.3823253e-07
7.3821335e-07
7.3823581e-07
7.3829924e-07
7.3839271e-07
7.3851136e-07
7.3865532e-07
7.3882013e-07
7.3899658e-07
7.3917597e-07
7.3935289e-07
7.3952484e-07
7.3968791e-07
7.3983765e-07
7.3997006e-07
7.4008265e-07
7.4017486e-07
7.4024812e-07
7.4030643e-07
7.4035669e-07
7.4040912e-07
7.4047712e-07
7.4057799e-07
7.4073355e-07
7.409706e-07
7.4132032e-07
7.4181684e-07
7.4250224e-07
7.4342455e-07
7.4463666e-07
7.4619638e-07
7.4816717e-07
7.5061765e-07
7.5362136e-07
7.5725615e-07
7.6160279e-07
7.6674529e-07
7.7276928e-07
7.7975962e-07
7.8780207e-07
7.9698504e-07
8.0739182e-07
8.1910629e-07
8.322173e-07
8.4682318e-07
8.6299449e-07
8.8082264e-07
9.0061498e-07
9.2116725e-07
9.4205761e-07
9.6306707e-07
9.8432972e-07
1.0048588e-06
1.0280187e-06
8.7508213e-07
8.6018296e-07
8.474347e-07
8.3679496e-07
8.278504e-07
8.2020364e-07
8.135545e-07
8.0768893e-07
8.0245393e-07
7.9773754e-07
7.9345541e-07
7.8954229e-07
7.8594688e-07
7.8262792e-07
7.795518e-07
7.766908e-07
7.7402173e-07
7.7152503e-07
7.6918413e-07
7.6698467e-07
7.6491436e-07
7.6296274e-07
7.6112061e-07
7.5937994e-07
7.57734e-07
7.5617667e-07
7.5470271e-07
7.5330765e-07
7.5198755e-07
7.507389e-07
7.4955889e-07
7.4844501e-07
7.4739516e-07
7.4640759e-07
7.454811e-07
7.4461458e-07
7.4380682e-07
7.430569e-07
7.4236388e-07
7.4172681e-07
7.411446e-07
7.4061699e-07
7.4014281e-07
7.3972146e-07
7.393525e-07
7.3903538e-07
7.3877008e-07
7.3855571e-07
7.3839168e-07
7.3827687e-07
7.3820921e-07
7.3818523e-07
7.3820219e-07
7.3825847e-07
7.3834455e-07
7.384552e-07
7.3858932e-07
7.3874233e-07
7.3890564e-07
7.390711e-07
7.3923301e-07
7.3938811e-07
7.3953259e-07
7.3966142e-07
7.3977049e-07
7.3985717e-07
7.3992038e-07
7.3996096e-07
7.3998224e-07
7.3999056e-07
7.3999534e-07
7.400091e-07
7.4004818e-07
7.4013325e-07
7.4029035e-07
7.4054821e-07
7.4093594e-07
7.4149183e-07
7.4226187e-07
7.4329826e-07
7.4465823e-07
7.4640388e-07
7.4860177e-07
7.5132222e-07
7.5463851e-07
7.5862629e-07
7.6336242e-07
7.6892849e-07
7.7540557e-07
7.8287145e-07
7.9140819e-07
8.0109428e-07
8.1200432e-07
8.2421278e-07
8.3779941e-07
8.5284142e-07
8.6934476e-07
8.8764387e-07
9.0711016e-07
9.2700841e-07
9.470855e-07
9.6748217e-07
9.8729711e-07
1.0096926e-06
8.7509215e-07
8.6019941e-07
8.4745622e-07
8.3682026e-07
8.2787845e-07
8.2023372e-07
8.135861e-07
8.0772174e-07
8.0248772e-07
7.9777206e-07
7.9349043e-07
7.895777e-07
7.8598253e-07
7.8266372e-07
7.7958767e-07
7.7672664e-07
7.7405743e-07
7.7156044e-07
7.6921914e-07
7.6701919e-07
7.6494828e-07
7.6299584e-07
7.6115276e-07
7.5941112e-07
7.5776407e-07
7.5620556e-07
7.5473029e-07
7.5333382e-07
7.5201223e-07
7.5076208e-07
7.495805e-07
7.4846492e-07
7.4741316e-07
7.4642366e-07
7.4549504e-07
7.4462618e-07
7.4381569e-07
7.430628e-07
7.4236667e-07
7.4172644e-07
7.4114111e-07
7.4061007e-07
7.4013235e-07
7.3970726e-07
7.3933461e-07
7.3901366e-07
7.3874424e-07
7.3852581e-07
7.3835748e-07
7.3823793e-07
7.3816513e-07
7.3813554e-07
7.3814619e-07
7.3819484e-07
7.3827289e-07
7.3837466e-07
7.3849813e-07
7.3863871e-07
7.3878838e-07
7.3893926e-07
7.3908556e-07
7.3922327e-07
7.3934836e-07
7.3945605e-07
7.3954196e-07
7.3960288e-07
7.3963718e-07
7.3964552e-07
7.3963072e-07
7.3959818e-07
7.395565e-07
7.3951732e-07
7.3949618e-07
7.3951286e-07
7.3959232e-07
7.3976215e-07
7.4005155e-07
7.4049782e-07
7.4114433e-07
7.4203991e-07
7.4323809e-07
7.447966e-07
7.4677778e-07
7.4924871e-07
7.5227931e-07
7.5594192e-07
7.6031079e-07
7.6546024e-07
7.7147007e-07
7.7841752e-07
7.8637403e-07
7.9541416e-07
8.056099e-07
8.1702612e-07
8.2972971e-07
8.4379504e-07
8.5923512e-07
8.7620376e-07
8.9465845e-07
9.1359301e-07
9.3270175e-07
9.5212436e-07
9.7103584e-07
9.9241618e-07
8.7510344e-07
8.60217e-07
8.4747873e-07
8.3684633e-07
8.2790714e-07
8.2026437e-07
8.1361828e-07
8.0775512e-07
8.02522e-07
7.9780703e-07
7.935259e-07
7.8961352e-07
7.8601862e-07
7.8269995e-07
7.7962393e-07
7.767628e-07
7.7409339e-07
7.7159618e-07
7.692544e-07
7.6705379e-07
7.6498212e-07
7.6302887e-07
7.6118493e-07
7.5944231e-07
7.5779413e-07
7.5623443e-07
7.5475799e-07
7.533603e-07
7.5203742e-07
7.5078581e-07
7.4960269e-07
7.4848553e-07
7.4743205e-07
7.4644071e-07
7.4551e-07
7.4463879e-07
7.4382576e-07
7.4307017e-07
7.4237119e-07
7.417279e-07
7.4113951e-07
7.4060509e-07
7.4012394e-07
7.396954e-07
7.3931922e-07
7.3899463e-07
7.3872155e-07
7.3849933e-07
7.3832699e-07
7.3820321e-07
7.3812571e-07
7.3809094e-07
7.3809549e-07
7.3813674e-07
7.382068e-07
7.3829984e-07
7.3841327e-07
7.3854221e-07
7.38679e-07
7.3881631e-07
7.3894811e-07
7.3906993e-07
7.3917773e-07
7.3926629e-07
7.3933108e-07
7.3936878e-07
7.3937751e-07
7.3935728e-07
7.3931033e-07
7.3924169e-07
7.3915926e-07
7.3907423e-07
7.3900128e-07
7.3895931e-07
7.3897245e-07
7.3906623e-07
7.3926743e-07
7.3961085e-07
7.4013738e-07
7.4089481e-07
7.4193534e-07
7.4331507e-07
7.450942e-07
7.473366e-07
7.5010922e-07
7.5348035e-07
7.5752038e-07
7.6230111e-07
7.6789213e-07
7.7437027e-07
7.8180647e-07
7.9027011e-07
7.9982555e-07
8.1053624e-07
8.2245902e-07
8.3565513e-07
8.5017475e-07
8.6602535e-07
8.8349015e-07
9.016363e-07
9.199216e-07
9.3843731e-07
9.5645504e-07
9.7667346e-07
8.7511514e-07
8.6023491e-07
8.4750159e-07
8.3687282e-07
8.2793629e-07
8.2029546e-07
8.1365085e-07
8.0778886e-07
8.0255665e-07
7.9784235e-07
7.9356172e-07
7.8964969e-07
7.8605499e-07
7.8273641e-07
7.7966037e-07
7.7679912e-07
7.7412949e-07
7.7163185e-07
7.6928952e-07
7.6708827e-07
7.6501577e-07
7.6306153e-07
7.6121645e-07
7.594726e-07
7.5782311e-07
7.5626203e-07
7.5478411e-07
7.5338477e-07
7.5206021e-07
7.5080688e-07
7.4962184e-07
7.485027e-07
7.4744716e-07
7.4645366e-07
7.4552047e-07
7.4464652e-07
7.4383057e-07
7.4307183e-07
7.4236942e-07
7.4172235e-07
7.4113014e-07
7.4059161e-07
7.4010626e-07
7.396736e-07
7.3929329e-07
7.3896454e-07
7.3868715e-07
7.3846073e-07
7.3828383e-07
7.3815502e-07
7.3807211e-07
7.3803131e-07
7.3802911e-07
7.3806233e-07
7.3812368e-07
7.3820726e-07
7.3830964e-07
7.3842613e-07
7.3854954e-07
7.3867255e-07
7.3878933e-07
7.3889507e-07
7.3898511e-07
7.3905442e-07
7.3909831e-07
7.3911329e-07
7.3909691e-07
7.3904882e-07
7.3897113e-07
7.3886794e-07
7.3874671e-07
7.3861822e-07
7.3849674e-07
7.3840028e-07
7.3835168e-07
7.38375e-07
7.3849595e-07
7.3874866e-07
7.3917225e-07
7.3981155e-07
7.4071624e-07
7.4193971e-07
7.4353971e-07
7.4557762e-07
7.4811751e-07
7.5122418e-07
7.549652e-07
7.5940947e-07
7.646248e-07
7.7067969e-07
7.7764443e-07
7.8558621e-07
7.9456465e-07
8.0464258e-07
8.1586632e-07
8.2828779e-07
8.4197019e-07
8.568959e-07
8.732997e-07
8.9072473e-07
9.0834654e-07
9.261424e-07
9.4343974e-07
9.626227e-07
8.7512811e-07
8.6025387e-07
8.4752525e-07
8.3689995e-07
8.2796597e-07
8.2032707e-07
8.1368389e-07
8.0782301e-07
8.0259166e-07
7.9787804e-07
7.9359787e-07
7.8968615e-07
7.860916e-07
7.8277305e-07
7.796969e-07
7.7683544e-07
7.7416547e-07
7.7166734e-07
7.6932434e-07
7.6712223e-07
7.6504882e-07
7.6309348e-07
7.6124717e-07
7.5950195e-07
7.5785103e-07
7.5628845e-07
7.5480885e-07
7.5340776e-07
7.5208141e-07
7.5082623e-07
7.4963921e-07
7.4851798e-07
7.4746016e-07
7.4646416e-07
7.4552831e-07
7.4465137e-07
7.4383222e-07
7.4306984e-07
7.4236362e-07
7.4171256e-07
7.4111608e-07
7.4057319e-07
7.4008334e-07
7.3964608e-07
7.3926118e-07
7.3892796e-07
7.3864588e-07
7.3841474e-07
7.3823293e-07
7.3809858e-07
7.3800972e-07
7.3796231e-07
7.3795251e-07
7.3797685e-07
7.3802844e-07
7.3810149e-07
7.3819212e-07
7.3829558e-07
7.3840506e-07
7.385135e-07
7.3861484e-07
7.3870412e-07
7.3877655e-07
7.3882684e-07
7.3885027e-07
7.3884298e-07
7.3880238e-07
7.3872788e-07
7.3862099e-07
7.3848579e-07
7.3832906e-07
7.3816128e-07
7.3799664e-07
7.3785173e-07
7.3774782e-07
7.3770785e-07
7.37756e-07
7.3792482e-07
7.3825196e-07
7.387804e-07
7.3955822e-07
7.4063769e-07
7.4207402e-07
7.4392579e-07
7.4625481e-07
7.4912358e-07
7.5259661e-07
7.5673859e-07
7.6161599e-07
7.6729344e-07
7.7383552e-07
7.8130473e-07
7.8976195e-07
7.9926551e-07
8.0986192e-07
8.2159535e-07
8.345204e-07
8.4864456e-07
8.6406704e-07
8.8079351e-07
8.9779074e-07
9.1496208e-07
9.3167721e-07
9.5001159e-07
8.7514136e-07
8.6027308e-07
8.4754919e-07
8.3692733e-07
8.2799588e-07
8.2035886e-07
8.1371719e-07
8.0785745e-07
8.0262692e-07
7.9791392e-07
7.9363421e-07
7.8972276e-07
7.8612831e-07
7.8280966e-07
7.7973333e-07
7.7687153e-07
7.7420102e-07
7.7170221e-07
7.6935843e-07
7.671553e-07
7.6508069e-07
7.6312409e-07
7.6127635e-07
7.5952961e-07
7.5787701e-07
7.5631261e-07
7.5483117e-07
7.5342806e-07
7.5209951e-07
7.5084207e-07
7.4965257e-07
7.4852873e-07
7.4746826e-07
7.4646925e-07
7.4553015e-07
7.4464987e-07
7.4382699e-07
7.4306042e-07
7.4234977e-07
7.416939e-07
7.410922e-07
7.4054412e-07
7.4004904e-07
7.3960637e-07
7.3921582e-07
7.3887706e-07
7.3858938e-07
7.383523e-07
7.3816428e-07
7.3802334e-07
7.3792724e-07
7.3787189e-07
7.3785295e-07
7.3786681e-07
7.3790706e-07
7.379678e-07
7.3804501e-07
7.3813374e-07
7.3822753e-07
7.3831959e-07
7.3840386e-07
7.3847505e-07
7.3852824e-07
7.3855811e-07
7.3855975e-07
7.3852919e-07
7.3846361e-07
7.3836216e-07
7.382262e-07
7.3805936e-07
7.3786838e-07
7.3766311e-07
7.3745706e-07
7.3726629e-07
7.3711073e-07
7.3701247e-07
7.3699477e-07
7.3708872e-07
7.373304e-07
7.3776104e-07
7.3842633e-07
7.3937697e-07
7.4066711e-07
7.4235252e-07
7.4449209e-07
7.4714736e-07
7.5037903e-07
7.5424801e-07
7.5881969e-07
7.6415514e-07
7.7031807e-07
7.7736659e-07
7.8535607e-07
7.9434204e-07
8.0437097e-07
8.1548375e-07
8.2772374e-07
8.4112744e-07
8.5569171e-07
8.7166048e-07
8.8812307e-07
9.0475315e-07
9.2095179e-07
9.3856865e-07
8.7515557e-07
8.6029305e-07
8.4757368e-07
8.369552e-07
8.2802625e-07
8.2039108e-07
8.1375077e-07
8.0789207e-07
8.0266236e-07
7.9794986e-07
7.9367048e-07
7.8975918e-07
7.8616472e-07
7.8284594e-07
7.7976927e-07
7.7690701e-07
7.7423586e-07
7.7173618e-07
7.6939129e-07
7.6718699e-07
7.6511102e-07
7.631529e-07
7.6130351e-07
7.5955495e-07
7.5790043e-07
7.5633383e-07
7.5485004e-07
7.5344453e-07
7.5211331e-07
7.508531e-07
7.4966074e-07
7.4853389e-07
7.4747022e-07
7.4646773e-07
7.4552499e-07
7.4464053e-07
7.4381313e-07
7.4304167e-07
7.4232568e-07
7.4166411e-07
7.4105624e-07
7.4050186e-07
7.4000025e-07
7.3955084e-07
7.3915357e-07
7.3880807e-07
7.3851355e-07
7.3826935e-07
7.3807374e-07
7.3792459e-07
7.3781925e-07
7.3775367e-07
7.3772357e-07
7.3772468e-07
7.37751e-07
7.3779685e-07
7.3785791e-07
7.379293e-07
7.3800472e-07
7.3807768e-07
7.3814207e-07
7.3819251e-07
7.3822393e-07
7.3823075e-07
7.382082e-07
7.3815207e-07
7.3805942e-07
7.3792931e-07
7.3776298e-07
7.3756406e-07
7.3733939e-07
7.3709788e-07
7.3685229e-07
7.3661771e-07
7.3641356e-07
7.3626133e-07
7.3618262e-07
7.362077e-07
7.3637135e-07
7.3671248e-07
7.3727595e-07
7.3811092e-07
7.3926916e-07
7.4080546e-07
7.4277686e-07
7.4524179e-07
7.4825706e-07
7.5188369e-07
7.5618382e-07
7.6121273e-07
7.6703441e-07
7.7370446e-07
7.8127436e-07
7.8979594e-07
7.9931715e-07
8.0987439e-07
8.2150164e-07
8.3424615e-07
8.4808324e-07
8.632212e-07
8.7915264e-07
8.9530922e-07
9.1106902e-07
9.2809001e-07
8.7516996e-07
8.6031313e-07
8.4759829e-07
8.3698316e-07
8.2805667e-07
8.2042336e-07
8.1378445e-07
8.0792678e-07
8.0269778e-07
7.9798577e-07
7.9370664e-07
7.8979538e-07
7.8620078e-07
7.828817e-07
7.7980455e-07
7.7694158e-07
7.7426958e-07
7.7176889e-07
7.6942274e-07
7.6721692e-07
7.6513923e-07
7.6317917e-07
7.6132769e-07
7.595769e-07
7.5791986e-07
7.5635064e-07
7.5486409e-07
7.5345555e-07
7.521211e-07
7.5085745e-07
7.4966151e-07
7.4853073e-07
7.4746298e-07
7.4645615e-07
7.4550857e-07
7.4461894e-07
7.437859e-07
7.4300853e-07
7.4228585e-07
7.4161715e-07
7.4100177e-07
7.4043934e-07
7.3992961e-07
7.3947189e-07
7.3906602e-07
7.3871182e-07
7.3840824e-07
7.3815455e-07
7.3794884e-07
7.3778856e-07
7.3767096e-07
7.3759177e-07
7.3754664e-07
7.3753113e-07
7.3753944e-07
7.3756603e-07
7.3760651e-07
7.3765598e-07
7.3770845e-07
7.3775754e-07
7.377972e-07
7.3782189e-07
7.3782633e-07
7.3780511e-07
7.3775324e-07
7.3766651e-07
7.375423e-07
7.3737952e-07
7.3717957e-07
7.3694596e-07
7.3668532e-07
7.3640616e-07
7.3612033e-07
7.358424e-07
7.3559127e-07
7.3538805e-07
7.3525297e-07
7.3521552e-07
7.3530951e-07
7.3557229e-07
7.3604729e-07
7.3678179e-07
7.3782584e-07
7.3923138e-07
7.4105405e-07
7.4335104e-07
7.4617599e-07
7.4958805e-07
7.5364621e-07
7.5840293e-07
7.6391995e-07
7.7024928e-07
7.7744666e-07
7.8555666e-07
7.9461889e-07
8.0467369e-07
8.1575114e-07
8.2789741e-07
8.4110498e-07
8.5546773e-07
8.7086859e-07
8.865565e-07
9.0190637e-07
9.1840081e-07
8.7518482e-07
8.6033364e-07
8.4762325e-07
8.3701142e-07
8.2808734e-07
8.2045584e-07
8.1381826e-07
8.0796153e-07
8.0273318e-07
7.9802151e-07
7.9374244e-07
7.8983113e-07
7.8623626e-07
7.8291666e-07
7.7983878e-07
7.7697491e-07
7.7430171e-07
7.7179952e-07
7.6945173e-07
7.6724398e-07
7.6516408e-07
7.6320161e-07
7.6134753e-07
7.5959383e-07
7.5793372e-07
7.5636115e-07
7.5487095e-07
7.5345856e-07
7.5212006e-07
7.5085201e-07
7.4965148e-07
7.4851576e-07
7.4744261e-07
7.464301e-07
7.4547642e-07
7.4458014e-07
7.4373983e-07
7.4295464e-07
7.4222363e-07
7.4154588e-07
7.4092094e-07
7.4034838e-07
7.3982795e-07
7.393593e-07
7.3894214e-07
7.3857609e-07
7.382602e-07
7.3799334e-07
7.3777355e-07
7.375979e-07
7.374632e-07
7.3736521e-07
7.3729939e-07
7.3726123e-07
7.3724516e-07
7.3724582e-07
7.3725873e-07
7.3727902e-07
7.3730089e-07
7.3731827e-07
7.37325e-07
7.3731549e-07
7.3728451e-07
7.3722657e-07
7.3713683e-07
7.3701136e-07
7.3684772e-07
7.3664503e-07
7.3640497e-07
7.3613093e-07
7.3582916e-07
7.3550805e-07
7.3517915e-07
7.348573e-07
7.3455985e-07
7.3430774e-07
7.3412025e-07
7.3402609e-07
7.3405863e-07
7.3425403e-07
7.3465383e-07
7.3530333e-07
7.3625185e-07
7.3754875e-07
7.3924589e-07
7.413982e-07
7.4405835e-07
7.4728365e-07
7.5112937e-07
7.5564791e-07
7.6089837e-07
7.6692883e-07
7.7379099e-07
7.8152937e-07
7.9018652e-07
7.9979563e-07
8.1038297e-07
8.2198574e-07
8.346279e-07
8.4830751e-07
8.6320908e-07
8.7847314e-07
8.9342401e-07
9.0941888e-07
8.7519984e-07
8.6035419e-07
8.4764822e-07
8.3703968e-07
8.28118e-07
8.2048828e-07
8.1385201e-07
8.0799615e-07
8.0276834e-07
7.9805692e-07
7.9377782e-07
7.8986617e-07
7.8627071e-07
7.8295033e-07