/*--------------------------------*- C++ -*----------------------------------*\
| =========                 |                                                 |
| \\      /  F ield         | OpenFOAM: The Open Source CFD Toolbox           |
|  \\    /   O peration     | Version:  2406                                  |
|   \\  /    A nd           | Website:  www.openfoam.com                      |
|    \\/     M anipulation  |                                                 |
\*---------------------------------------------------------------------------*/
FoamFile
{
    version     2.0;
    format      ascii;
    arch        "LSB;label=32;scalar=64";
    class       volScalarField;
    location    "400";
    object      nutMean;
}
// * * * * * * * * * * * * * * * * * * * * * * * * * * * * * * * * * * * * * //

dimensions      [0 2 -1 0 0 0 0];

internalField   nonuniform List<scalar> 
132739
(
8.7371369e-07
8.584555e-07
8.4542016e-07
8.3453605e-07
8.2537005e-07
8.1751482e-07
8.1066512e-07
8.04605e-07
7.9917887e-07
7.9427285e-07
7.8980194e-07
7.8570032e-07
7.8191653e-07
7.7840786e-07
7.7514114e-07
7.7208807e-07
7.6922383e-07
7.6652862e-07
7.6398533e-07
7.6157893e-07
7.5929688e-07
7.5712976e-07
7.5506967e-07
7.5310592e-07
7.5122425e-07
7.4940635e-07
7.4763379e-07
7.459052e-07
7.4425762e-07
7.4277775e-07
7.4153009e-07
7.4050892e-07
7.3974559e-07
7.3928588e-07
7.3917388e-07
7.394058e-07
7.399178e-07
7.4065245e-07
7.4155736e-07
7.4259297e-07
7.4373207e-07
7.4495428e-07
7.4624828e-07
7.4760931e-07
7.4903294e-07
7.5051806e-07
7.520548e-07
7.5363636e-07
7.5525297e-07
7.5689183e-07
7.5854556e-07
7.6015399e-07
7.617627e-07
7.6331948e-07
7.6485421e-07
7.6633762e-07
7.6782792e-07
7.6934672e-07
7.709675e-07
7.7271862e-07
7.7463016e-07
7.7670751e-07
7.7889238e-07
7.811413e-07
7.8342553e-07
7.8573145e-07
7.8805705e-07
7.9040472e-07
7.9278026e-07
7.9519788e-07
7.9767806e-07
8.0025172e-07
8.0298927e-07
8.0580598e-07
8.0918353e-07
8.1233261e-07
8.1683566e-07
8.2201159e-07
8.2819256e-07
8.354983e-07
8.4462668e-07
8.5585175e-07
8.6934761e-07
8.8538447e-07
9.0435041e-07
9.2605783e-07
9.4909196e-07
9.7257032e-07
9.9615388e-07
1.0202932e-06
1.0459255e-06
1.0736461e-06
1.1035185e-06
1.1355319e-06
1.1697595e-06
1.2063382e-06
1.2454734e-06
1.2873278e-06
1.3322122e-06
1.3799393e-06
1.4316758e-06
1.4849907e-06
1.5472178e-06
1.6045482e-06
8.7369146e-07
8.5844232e-07
8.4541414e-07
8.34536e-07
8.2537451e-07
8.1752236e-07
8.1067505e-07
8.0461658e-07
7.9919174e-07
7.9428754e-07
7.8981926e-07
7.8572025e-07
7.8193876e-07
7.7843408e-07
7.7517165e-07
7.7212207e-07
7.6926229e-07
7.6657265e-07
7.6403614e-07
7.6163763e-07
7.5936382e-07
7.5720551e-07
7.5515526e-07
7.5320215e-07
7.5133159e-07
7.49525e-07
7.4776615e-07
7.4605235e-07
7.4441787e-07
7.4294675e-07
7.4170613e-07
7.4069901e-07
7.3996063e-07
7.3952569e-07
7.3943124e-07
7.3966967e-07
7.4018445e-07
7.4092149e-07
7.4183093e-07
7.4287114e-07
7.4401485e-07
7.4524166e-07
7.4653791e-07
7.4790085e-07
7.4932712e-07
7.5080373e-07
7.523186e-07
7.5385886e-07
7.5542168e-07
7.5699888e-07
7.585806e-07
7.6017011e-07
7.6176976e-07
7.6337443e-07
7.649902e-07
7.6662152e-07
7.6829432e-07
7.7003182e-07
7.7186757e-07
7.7381855e-07
7.759079e-07
7.7813725e-07
7.804549e-07
7.8281051e-07
7.8516659e-07
7.8750843e-07
7.898377e-07
7.9216368e-07
7.9450398e-07
7.9687875e-07
7.9930986e-07
8.0182647e-07
8.0446431e-07
8.0726008e-07
8.1027062e-07
8.1347697e-07
8.1692496e-07
8.2074911e-07
8.2499153e-07
8.2981453e-07
8.3552939e-07
8.4255068e-07
8.5136251e-07
8.6257624e-07
8.7696828e-07
8.9518299e-07
9.1699628e-07
9.413947e-07
9.6711322e-07
9.9367667e-07
1.0211275e-06
1.0499849e-06
1.080298e-06
1.1118552e-06
1.1446652e-06
1.1790092e-06
1.2150978e-06
1.2532996e-06
1.2938911e-06
1.3370132e-06
1.3830897e-06
1.4317315e-06
1.4835333e-06
1.5464296e-06
8.7367118e-07
8.5842984e-07
8.454075e-07
8.3453301e-07
8.2537374e-07
8.1752304e-07
8.1067721e-07
8.046193e-07
7.9919459e-07
7.9428965e-07
7.8981959e-07
7.8571919e-07
7.8193555e-07
7.7842707e-07
7.7515969e-07
7.7210438e-07
7.6923814e-07
7.6654054e-07
7.6399471e-07
7.615854e-07
7.5930033e-07
7.5712901e-07
7.5506266e-07
7.5309312e-07
7.5120423e-07
7.4937828e-07
7.4759972e-07
7.4586598e-07
7.4421185e-07
7.4271816e-07
7.4145144e-07
7.4041645e-07
7.3964964e-07
7.3918617e-07
7.3905998e-07
7.3926346e-07
7.3974309e-07
7.4044333e-07
7.4131569e-07
7.4231897e-07
7.434238e-07
7.4461233e-07
7.4587192e-07
7.4719806e-07
7.4858476e-07
7.5002957e-07
7.5153283e-07
7.5309278e-07
7.5470628e-07
7.5635458e-07
7.5804398e-07
7.5975251e-07
7.6148522e-07
7.6322414e-07
7.6498705e-07
7.6677514e-07
7.6860476e-07
7.7047075e-07
7.7237958e-07
7.7435271e-07
7.7641302e-07
7.7852844e-07
7.8065123e-07
7.8275403e-07
7.8483902e-07
7.8691099e-07
7.8898086e-07
7.9105936e-07
7.931574e-07
7.9529032e-07
7.9747974e-07
7.9974963e-07
8.021223e-07
8.0465804e-07
8.074376e-07
8.1065662e-07
8.1425028e-07
8.1805881e-07
8.2229376e-07
8.2708557e-07
8.3245082e-07
8.3843136e-07
8.4517675e-07
8.5302922e-07
8.6264471e-07
8.7502083e-07
8.9105226e-07
9.1083549e-07
9.3365225e-07
9.5842304e-07
9.8487302e-07
1.0131013e-06
1.0432837e-06
1.075322e-06
1.1086002e-06
1.1428282e-06
1.1780258e-06
1.2143552e-06
1.252109e-06
1.2915893e-06
1.3329919e-06
1.3771446e-06
1.4207283e-06
1.4805346e-06
8.7365516e-07
8.5842138e-07
8.4540542e-07
8.3453551e-07
8.2537832e-07
8.1752946e-07
8.1068414e-07
8.0462623e-07
7.9920197e-07
7.9429791e-07
7.8982879e-07
7.8572839e-07
7.8194483e-07
7.7843723e-07
7.7517125e-07
7.7211752e-07
7.6925394e-07
7.6656001e-07
7.640175e-07
7.6161196e-07
7.5933108e-07
7.5716499e-07
7.5510547e-07
7.531428e-07
7.5126084e-07
7.4944247e-07
7.4767359e-07
7.4595454e-07
7.4431882e-07
7.4284051e-07
7.4158434e-07
7.4056509e-07
7.3982027e-07
7.3938114e-07
7.3928119e-07
7.395073e-07
7.4000742e-07
7.4072889e-07
7.4162148e-07
7.4264599e-07
7.4377422e-07
7.449839e-07
7.4626506e-07
7.4761055e-07
7.4901718e-07
7.5048178e-07
7.5200307e-07
7.5357838e-07
7.5520431e-07
7.5688261e-07
7.5860689e-07
7.603774e-07
7.6219186e-07
7.640476e-07
7.6593866e-07
7.6786399e-07
7.6981534e-07
7.7178562e-07
7.7377243e-07
7.7577096e-07
7.7777085e-07
7.7976498e-07
7.8175348e-07
7.837395e-07
7.8572625e-07
7.8771372e-07
7.8970743e-07
7.9171417e-07
7.9374149e-07
7.9580501e-07
7.9791889e-07
8.0010842e-07
8.0239532e-07
8.048287e-07
8.07451e-07
8.1030016e-07
8.1345746e-07
8.1703143e-07
8.2081804e-07
8.2512753e-07
8.3004682e-07
8.3561776e-07
8.4187009e-07
8.4883822e-07
8.5669608e-07
8.6598182e-07
8.7759967e-07
8.9238573e-07
9.1049865e-07
9.3123578e-07
9.5381977e-07
9.7842107e-07
1.005404e-06
1.0350581e-06
1.0669592e-06
1.1005715e-06
1.1355025e-06
1.1714703e-06
1.2083783e-06
1.2463018e-06
1.2852134e-06
1.3262244e-06
1.3655541e-06
1.418153e-06
8.7364039e-07
8.5841372e-07
8.4540255e-07
8.3453554e-07
8.2538091e-07
8.1753367e-07
8.106895e-07
8.0463227e-07
7.992082e-07
7.9430362e-07
7.8983344e-07
7.8573248e-07
7.8194841e-07
7.7843928e-07
7.751705e-07
7.7211422e-07
7.6924775e-07
7.6655002e-07
7.6400363e-07
7.615932e-07
7.5930733e-07
7.5713661e-07
7.550705e-07
7.5309889e-07
7.5120865e-07
7.4938216e-07
7.4760523e-07
7.4588012e-07
7.4423752e-07
7.4274985e-07
7.4148731e-07
7.4046197e-07
7.397134e-07
7.3927222e-07
7.3916668e-07
7.3938647e-07
7.3987833e-07
7.4058695e-07
7.4146529e-07
7.4247357e-07
7.4358602e-07
7.447819e-07
7.4604672e-07
7.4737442e-07
7.487628e-07
7.502105e-07
7.5171427e-07
7.5327311e-07
7.5488408e-07
7.5654334e-07
7.5825132e-07
7.6000175e-07
7.6179133e-07
7.6361812e-07
7.6547372e-07
7.6735891e-07
7.6926991e-07
7.7119766e-07
7.7313816e-07
7.7508558e-07
7.770392e-07
7.7899138e-07
7.8093897e-07
7.8288171e-07
7.8481736e-07
7.8674853e-07
7.8867884e-07
7.9061215e-07
7.9255361e-07
7.945195e-07
7.9652466e-07
7.9858625e-07
8.0072612e-07
8.0300389e-07
8.0547758e-07
8.0820703e-07
8.1127997e-07
8.1464913e-07
8.1841782e-07
8.2265302e-07
8.2740794e-07
8.3275412e-07
8.3875989e-07
8.4545109e-07
8.5284188e-07
8.6108278e-07
8.7066612e-07
8.8240511e-07
8.9693752e-07
9.1410998e-07
9.3315919e-07
9.536172e-07
9.7592763e-07
1.0007698e-06
1.0283451e-06
1.0584432e-06
1.0908155e-06
1.1250994e-06
1.1609138e-06
1.1979784e-06
1.2359054e-06
1.2754653e-06
1.3132768e-06
1.3616343e-06
8.7362881e-07
8.5840898e-07
8.4540314e-07
8.3454034e-07
8.2538781e-07
8.1754113e-07
8.1069746e-07
8.0464063e-07
7.9921622e-07
7.9431125e-07
7.8984084e-07
7.8573952e-07
7.8195503e-07
7.784457e-07
7.7517721e-07
7.7212116e-07
7.692545e-07
7.6655576e-07
7.6400935e-07
7.616004e-07
7.5931517e-07
7.5714456e-07
7.5507908e-07
7.5310873e-07
7.512203e-07
7.4939471e-07
7.4762001e-07
7.4590033e-07
7.4426677e-07
7.4279038e-07
7.4153497e-07
7.4052088e-07
7.397908e-07
7.3937311e-07
7.3928979e-07
7.3952425e-07
7.4002783e-07
7.407465e-07
7.4163546e-07
7.4265574e-07
7.4377443e-07
7.449749e-07
7.4624897e-07
7.4758631e-07
7.4898426e-07
7.5044241e-07
7.5195498e-07
7.5352218e-07
7.5513897e-07
7.5680521e-07
7.585211e-07
7.6027933e-07
7.6207668e-07
7.6391004e-07
7.6577342e-07
7.6766461e-07
7.6957881e-07
7.7150519e-07
7.7344759e-07
7.7540141e-07
7.7735102e-07
7.7929409e-07
7.8122693e-07
7.8315407e-07
7.8507194e-07
7.8697844e-07
7.8888082e-07
7.9078085e-07
7.9268541e-07
7.9460517e-07
7.9655484e-07
7.9855417e-07
8.0062365e-07
8.0281446e-07
8.0516823e-07
8.0771797e-07
8.105102e-07
8.1359221e-07
8.1702749e-07
8.2088572e-07
8.2524139e-07
8.3017262e-07
8.3576297e-07
8.4207424e-07
8.4912343e-07
8.5693321e-07
8.6569593e-07
8.7592102e-07
8.8830511e-07
9.0312675e-07
9.1987209e-07
9.3784031e-07
9.5682147e-07
9.7732726e-07
9.9996953e-07
1.0249113e-06
1.0522649e-06
1.0820952e-06
1.1142714e-06
1.1485528e-06
1.1844363e-06
1.2223697e-06
1.259011e-06
1.3057343e-06
8.73619e-07
8.5840542e-07
8.454039e-07
8.3454394e-07
8.2539368e-07
8.1754831e-07
8.1070555e-07
8.0464884e-07
7.9922372e-07
7.9431811e-07
7.8984721e-07
7.8574477e-07
7.8195938e-07
7.7844885e-07
7.7517933e-07
7.7212195e-07
7.6925326e-07
7.6655353e-07
7.6400489e-07
7.6159267e-07
7.5930485e-07
7.5713131e-07
7.5506294e-07
7.5308838e-07
7.5119377e-07
7.4936274e-07
7.4758375e-07
7.4586292e-07
7.4423216e-07
7.4275847e-07
7.4150478e-07
7.4049581e-07
7.3977572e-07
7.3937082e-07
7.3929733e-07
7.3953882e-07
7.4004439e-07
7.407633e-07
7.4165079e-07
7.4266534e-07
7.4378095e-07
7.4497986e-07
7.4625028e-07
7.4758457e-07
7.4897971e-07
7.5043326e-07
7.5194115e-07
7.5350455e-07
7.5511733e-07
7.5678025e-07
7.5849392e-07
7.6024355e-07
7.6202763e-07
7.6385174e-07
7.657057e-07
7.6758494e-07
7.6948754e-07
7.7140126e-07
7.7332652e-07
7.7525736e-07
7.7718507e-07
7.791109e-07
7.8102368e-07
7.8292239e-07
7.8480883e-07
7.8668123e-07
7.8854194e-07
7.9039507e-07
7.9224494e-07
7.9409953e-07
7.959746e-07
7.9788329e-07
7.9985156e-07
8.0193559e-07
8.04177e-07
8.0661736e-07
8.0929803e-07
8.1226467e-07
8.1556747e-07
8.1925903e-07
8.2339517e-07
8.2804269e-07
8.3328129e-07
8.3918923e-07
8.4581773e-07
8.5319467e-07
8.6140772e-07
8.7074412e-07
8.8174032e-07
8.9486204e-07
9.1002404e-07
9.2659195e-07
9.4400419e-07
9.6222445e-07
9.8168885e-07
1.0026263e-06
1.0252112e-06
1.0497486e-06
1.0765025e-06
1.1056428e-06
1.1369824e-06
1.1710966e-06
1.2048161e-06
1.2490395e-06
8.7361157e-07
8.5840457e-07
8.4540781e-07
8.3455038e-07
8.254023e-07
8.1755805e-07
8.1071477e-07
8.0465755e-07
7.9923225e-07
7.9432617e-07
7.8985425e-07
7.8575149e-07
7.8196542e-07
7.784542e-07
7.7518343e-07
7.7212474e-07
7.6925524e-07
7.6655448e-07
7.6400498e-07
7.6159198e-07
7.593033e-07
7.5712886e-07
7.5505951e-07
7.5308337e-07
7.5118684e-07
7.4935436e-07
7.4757593e-07
7.4585899e-07
7.4423526e-07
7.4276997e-07
7.4152498e-07
7.4053051e-07
7.3983128e-07
7.3944996e-07
7.3939952e-07
7.3965727e-07
7.4017631e-07
7.4090639e-07
7.4180282e-07
7.428265e-07
7.4394909e-07
7.4515421e-07
7.4642935e-07
7.477699e-07
7.4917166e-07
7.5063217e-07
7.5214775e-07
7.5371835e-07
7.5533952e-07
7.570067e-07
7.5872102e-07
7.6047591e-07
7.6227042e-07
7.6410253e-07
7.6596071e-07
7.6784244e-07
7.6974851e-07
7.7166709e-07
7.7359068e-07
7.7552029e-07
7.7744583e-07
7.7936511e-07
7.8127281e-07
7.8316735e-07
7.850441e-07
7.8690331e-07
7.8875001e-07
7.905777e-07
7.9239735e-07
7.9421733e-07
7.9604927e-07
7.9790694e-07
7.9981981e-07
8.0183519e-07
8.0398623e-07
8.0630753e-07
8.0883295e-07
8.1160686e-07
8.146834e-07
8.1812122e-07
8.2197947e-07
8.2632444e-07
8.3122581e-07
8.3675624e-07
8.4297497e-07
8.4992006e-07
8.5765129e-07
8.6634812e-07
8.7637899e-07
8.8817614e-07
9.0191312e-07
9.1728335e-07
9.3373114e-07
9.50895e-07
9.6881772e-07
9.876975e-07
1.0075069e-06
1.0283882e-06
1.0506225e-06
1.07456e-06
1.10035e-06
1.1288063e-06
1.1575265e-06
1.1962572e-06
8.7360564e-07
8.5840426e-07
8.4541177e-07
8.3455744e-07
8.2541012e-07
8.175657e-07
8.1072322e-07
8.046665e-07
7.9924144e-07
7.9433551e-07
7.8986312e-07
7.8575935e-07
7.8197193e-07
7.7845905e-07
7.7518676e-07
7.7212673e-07
7.6925518e-07
7.6655227e-07
7.6400071e-07
7.6158543e-07
7.5929443e-07
7.5711838e-07
7.5504712e-07
7.5306792e-07
7.5116746e-07
7.4933053e-07
7.4754909e-07
7.4583142e-07
7.4421263e-07
7.4275652e-07
7.4152093e-07
7.4054102e-07
7.3986126e-07
7.3950363e-07
7.3947262e-07
7.3974529e-07
7.4027767e-07
7.4101799e-07
7.4192127e-07
7.4294807e-07
7.4407331e-07
7.4528217e-07
7.4656186e-07
7.4790503e-07
7.4931223e-07
7.507763e-07
7.5229608e-07
7.5387013e-07
7.5549439e-07
7.571661e-07
7.5888365e-07
7.6064295e-07
7.624381e-07
7.6426889e-07
7.6613011e-07
7.680145e-07
7.699183e-07
7.7183479e-07
7.7375879e-07
7.7568649e-07
7.7760983e-07
7.7952328e-07
7.8142291e-07
7.8330525e-07
7.8516822e-07
7.8700981e-07
7.8883336e-07
7.9063685e-07
7.9242636e-07
7.9420821e-07
7.9599417e-07
7.9779488e-07
7.9964349e-07
8.0158407e-07
8.0365381e-07
8.0588671e-07
8.0831885e-07
8.1098795e-07
8.1393964e-07
8.1722496e-07
8.2089577e-07
8.2501092e-07
8.2963535e-07
8.3484235e-07
8.4069634e-07
8.4724e-07
8.5452272e-07
8.6268136e-07
8.7199869e-07
8.8282902e-07
8.9538321e-07
9.095534e-07
9.2497256e-07
9.4128301e-07
9.5830575e-07
9.7613807e-07
9.9463065e-07
1.0136782e-06
1.0334127e-06
1.0540263e-06
1.0756684e-06
1.0990578e-06
1.1226573e-06
1.154001e-06
8.736019e-07
8.5840579e-07
8.4541727e-07
8.3456453e-07
8.2541817e-07
8.1757505e-07
8.1073292e-07
8.046765e-07
7.9925104e-07
7.9434387e-07
7.8987034e-07
7.8576542e-07
7.8197729e-07
7.7846348e-07
7.7519e-07
7.7212824e-07
7.6925505e-07
7.6655062e-07
7.6399724e-07
7.6158016e-07
7.5928758e-07
7.5710944e-07
7.5503578e-07
7.5305407e-07
7.5115005e-07
7.4931019e-07
7.4752775e-07
7.4581324e-07
7.4420309e-07
7.4275856e-07
7.4153673e-07
7.4057847e-07
7.3992547e-07
7.3959613e-07
7.3959354e-07
7.3989042e-07
7.4044018e-07
7.4119342e-07
7.421073e-07
7.4314485e-07
7.4427952e-07
7.4549663e-07
7.4678615e-07
7.4814064e-07
7.495561e-07
7.5102831e-07
7.525586e-07
7.5414263e-07
7.5577691e-07
7.5745955e-07
7.5918774e-07
7.6095718e-07
7.627637e-07
7.6460388e-07
7.6647352e-07
7.6836813e-07
7.7028009e-07
7.7220506e-07
7.7413972e-07
7.7607197e-07
7.7800052e-07
7.7991905e-07
7.8182225e-07
7.8370611e-07
7.8556713e-07
7.8740719e-07
7.8922184e-07
7.9101302e-07
7.9278579e-07
7.9454686e-07
7.9630475e-07
7.9806963e-07
7.9988071e-07
8.0177078e-07
8.0377325e-07
8.0592196e-07
8.0824562e-07
8.1078263e-07
8.1358023e-07
8.1668803e-07
8.2016051e-07
8.24052e-07
8.2842091e-07
8.333352e-07
8.3886349e-07
8.4505572e-07
8.5194974e-07
8.5964307e-07
8.6837867e-07
8.784955e-07
8.9021131e-07
9.0345696e-07
9.1793652e-07
9.3334278e-07
9.4948578e-07
9.6639726e-07
9.8403442e-07
1.0021339e-06
1.0206351e-06
1.0395729e-06
1.059007e-06
1.0793254e-06
1.0997285e-06
1.1247481e-06
8.735991e-07
8.5840837e-07
8.4542361e-07
8.3457312e-07
8.2542806e-07
8.1758571e-07
8.1074358e-07
8.0468636e-07
7.9925977e-07
7.9435184e-07
7.8987799e-07
7.8577153e-07
7.8198129e-07
7.7846586e-07
7.7519079e-07
7.7212757e-07
7.6925301e-07
7.6654652e-07
7.6399077e-07
7.6157154e-07
7.5927699e-07
7.5709702e-07
7.5502052e-07
7.5303495e-07
7.5112636e-07
7.4928156e-07
7.4749673e-07
7.4578463e-07
7.4418229e-07
7.4275158e-07
7.4154786e-07
7.4061528e-07
7.3999215e-07
7.3969565e-07
7.3972064e-07
7.4004027e-07
7.4060997e-07
7.4137951e-07
7.4230657e-07
7.4335393e-07
7.4449919e-07
7.4572822e-07
7.470283e-07
7.4839132e-07
7.4981696e-07
7.5130268e-07
7.5284414e-07
7.5443936e-07
7.5608575e-07
7.5778008e-07
7.5951938e-07
7.6130077e-07
7.6312001e-07
7.6497287e-07
7.668551e-07
7.6876004e-07
7.7068216e-07
7.7261867e-07
7.7456449e-07
7.7650618e-07
7.7844132e-07
7.8036735e-07
7.8227524e-07
7.8416207e-07
7.8602452e-07
7.8785985e-07
7.8967014e-07
7.9145547e-07
7.9321551e-07
7.9495668e-07
7.9669164e-07
7.984249e-07
8.0019775e-07
8.0204605e-07
8.0399409e-07
8.060768e-07
8.0832638e-07
8.1077771e-07
8.1346843e-07
8.1644583e-07
8.197612e-07
8.2346786e-07
8.2762034e-07
8.3227782e-07
8.375094e-07
8.4337723e-07
8.4992261e-07
8.5720726e-07
8.6541873e-07
8.7490059e-07
8.8595422e-07
8.9858436e-07
9.124874e-07
9.2728268e-07
9.4272236e-07
9.5876341e-07
9.7550905e-07
9.9275733e-07
1.0103794e-06
1.0283404e-06
1.0466288e-06
1.0653381e-06
1.0841674e-06
1.1055517e-06
8.7359768e-07
8.5841192e-07
8.4543049e-07
8.3458191e-07
8.2543785e-07
8.1759574e-07
8.1075324e-07
8.0469519e-07
7.9926788e-07
7.9435931e-07
7.8988461e-07
7.8577718e-07
7.819856e-07
7.784682e-07
7.7519096e-07
7.7212594e-07
7.6924903e-07
7.6654034e-07
7.6398303e-07
7.6156183e-07
7.5926481e-07
7.5708243e-07
7.5500333e-07
7.5301379e-07
7.511008e-07
7.4925217e-07
7.4746541e-07
7.4575701e-07
7.4416646e-07
7.4275352e-07
7.4157188e-07
7.4067003e-07
7.4008178e-07
7.39819e-07
7.3987854e-07
7.4022873e-07
7.4082418e-07
7.4161468e-07
7.4255753e-07
7.4362219e-07
7.4478222e-07
7.4602431e-07
7.4734008e-07
7.4872005e-07
7.5016113e-07
7.5166093e-07
7.5321834e-07
7.5482959e-07
7.5649245e-07
7.5820519e-07
7.5996188e-07
7.6176084e-07
7.6359831e-07
7.6546809e-07
7.6736762e-07
7.6928915e-07
7.7122943e-07
7.7318232e-07
7.7514062e-07
7.7710152e-07
7.7905432e-07
7.8099522e-07
7.8292149e-07
7.8482229e-07
7.8669437e-07
7.8853907e-07
7.9035693e-07
7.9214405e-07
7.9390189e-07
7.9563634e-07
7.9735872e-07
7.9907681e-07
8.0082959e-07
8.0264733e-07
8.0455435e-07
8.0657993e-07
8.0875312e-07
8.1111412e-07
8.1369986e-07
8.1655151e-07
8.1971698e-07
8.2325118e-07
8.2720621e-07
8.3163549e-07
8.3660254e-07
8.4217546e-07
8.4840897e-07
8.5534771e-07
8.6310652e-07
8.7197444e-07
8.8233378e-07
8.9437341e-07
9.0790638e-07
9.2249583e-07
9.3773288e-07
9.5338697e-07
9.6950554e-07
9.8601555e-07
1.0027886e-06
1.0198287e-06
1.0371957e-06
1.0548769e-06
1.0727407e-06
1.092272e-06
8.7359752e-07
8.5841594e-07
8.4543731e-07
8.3459107e-07
8.2544801e-07
8.176058e-07
8.1076274e-07
8.0470397e-07
7.9927599e-07
7.9436612e-07
7.8988955e-07
7.857804e-07
7.8198699e-07
7.7846785e-07
7.7518902e-07
7.7212204e-07
7.692431e-07
7.6653168e-07
7.6397199e-07
7.6154913e-07
7.5925026e-07
7.5706486e-07
7.5498231e-07
7.5298858e-07
7.5107039e-07
7.4921709e-07
7.4742767e-07
7.4572336e-07
7.4414539e-07
7.4275366e-07
7.4160088e-07
7.4073397e-07
7.401841e-07
7.399644e-07
7.4006349e-07
7.4044596e-07
7.4106744e-07
7.4188244e-07
7.4284785e-07
7.4393116e-07
7.4511089e-07
7.4637136e-07
7.4770266e-07
7.4909936e-07
7.5055905e-07
7.5207934e-07
7.5365533e-07
7.5528579e-07
7.5697059e-07
7.5870305e-07
7.6048051e-07
7.6230086e-07
7.6415952e-07
7.6605227e-07
7.679742e-07
7.6991835e-07
7.7187951e-07
7.7385539e-07
7.7583841e-07
7.7781818e-07
7.7979183e-07
7.8175254e-07
7.8369544e-07
7.8561521e-07
7.8750755e-07
7.8936864e-07
7.9119533e-07
7.9299153e-07
7.9475842e-07
7.964969e-07
7.982151e-07
7.9992523e-07
8.0166265e-07
8.0345992e-07
8.0533942e-07
8.0732428e-07
8.0944605e-07
8.1173602e-07
8.1424208e-07
8.1699762e-07
8.2004283e-07
8.2342909e-07
8.2721125e-07
8.3144034e-07
8.3617238e-07
8.4147479e-07
8.4741778e-07
8.5405363e-07
8.614461e-07
8.6977426e-07
8.7938768e-07
8.9063644e-07
9.0359635e-07
9.179785e-07
9.3330925e-07
9.491552e-07
9.653021e-07
9.8166258e-07
9.9803496e-07
1.0144015e-06
1.0309112e-06
1.0476239e-06
1.0645338e-06
1.0827547e-06
8.7359851e-07
8.5842101e-07
8.4544536e-07
8.3460029e-07
8.2545772e-07
8.1761553e-07
8.1077219e-07
8.0471291e-07
7.9928361e-07
7.9437216e-07
7.898937e-07
7.8578261e-07
7.8198777e-07
7.7846687e-07
7.7518602e-07
7.7211664e-07
7.6923539e-07
7.6652226e-07
7.6395954e-07
7.6153318e-07
7.59231e-07
7.5704323e-07
7.5495772e-07
7.5295902e-07
7.5103467e-07
7.4917616e-07
7.4738631e-07
7.4568926e-07
7.4412947e-07
7.4276133e-07
7.4164153e-07
7.4081662e-07
7.4031241e-07
7.401375e-07
7.4027953e-07
7.4070263e-07
7.4135867e-07
7.4220263e-07
7.4319401e-07
7.4430141e-07
7.4550341e-07
7.4678565e-07
7.4813977e-07
7.4956007e-07
7.5104288e-07
7.5258592e-07
7.5418707e-07
7.5584322e-07
7.5755262e-07
7.5931125e-07
7.6111592e-07
7.6296415e-07
7.6484985e-07
7.6676882e-07
7.6871864e-07
7.7069146e-07
7.7268383e-07
7.7469049e-07
7.7670128e-07
7.7871238e-07
7.8071511e-07
7.827039e-07
7.8467676e-07
7.8662376e-07
7.8853899e-07
7.9042272e-07
7.9227342e-07
7.9408803e-07
7.9586707e-07
7.9761596e-07
7.9934022e-07
8.0105557e-07
8.0279274e-07
8.0458018e-07
8.0644221e-07
8.0839771e-07
8.1048103e-07
8.1272262e-07
8.1514318e-07
8.1780751e-07
8.2074557e-07
8.2400104e-07
8.2762652e-07
8.3167685e-07
8.3620186e-07
8.4126267e-07
8.4693297e-07
8.5328568e-07
8.6037678e-07
8.6829299e-07
8.772522e-07
8.8759873e-07
8.9961751e-07
9.1332181e-07
9.2841952e-07
9.4446395e-07
9.6102351e-07
9.7785358e-07
9.9458253e-07
1.011022e-06
1.0272459e-06
1.0433557e-06
1.0594017e-06
1.076409e-06
8.7360022e-07
8.5842678e-07
8.4545401e-07
8.3461039e-07
8.2546806e-07
8.1762517e-07
8.1078083e-07
8.0472063e-07
7.9929022e-07
7.9437728e-07
7.8989719e-07
7.8578443e-07
7.8198754e-07
7.7846458e-07
7.751814e-07
7.7210967e-07
7.6922592e-07
7.6650961e-07
7.6394408e-07
7.6151536e-07
7.5921044e-07
7.5701887e-07
7.5492844e-07
7.5292439e-07
7.5099338e-07
7.4912923e-07
7.4733966e-07
7.4565107e-07
7.4411035e-07
7.4277529e-07
7.4169458e-07
7.4091446e-07
7.404636e-07
7.4034268e-07
7.4053345e-07
7.4100162e-07
7.4169797e-07
7.4257736e-07
7.4360018e-07
7.4473579e-07
7.4596474e-07
7.4727247e-07
7.4865256e-07
7.5010059e-07
7.5161158e-07
7.5318195e-07
7.5481195e-07
7.5649983e-07
7.5823831e-07
7.6002741e-07
7.6186513e-07
7.6374481e-07
7.6566267e-07
7.6761772e-07
7.6960435e-07
7.7161265e-07
7.7363884e-07
7.7568012e-07
7.7772913e-07
7.7977476e-07
7.818143e-07
7.8384367e-07
7.8585084e-07
7.8783068e-07
7.8977953e-07
7.9169772e-07
7.9357643e-07
7.9541726e-07
7.9722538e-07
7.9899539e-07
8.0073226e-07
8.0245969e-07
8.0420512e-07
8.0599399e-07
8.0784906e-07
8.0978923e-07
8.1184391e-07
8.1404428e-07
8.1642092e-07
8.1900369e-07
8.2185964e-07
8.2500666e-07
8.2849602e-07
8.3238432e-07
8.3672355e-07
8.4156851e-07
8.4698649e-07
8.5306041e-07
8.5986692e-07
8.6746153e-07
8.7594064e-07
8.8551213e-07
8.9646645e-07
9.090291e-07
9.2320735e-07
9.3878098e-07
9.5536129e-07
9.7259842e-07
9.9001719e-07
1.0071524e-06
1.0238728e-06
1.0401849e-06
1.0560756e-06
1.0723974e-06
8.7360305e-07
8.5843287e-07
8.4546251e-07
8.3462027e-07
8.2547842e-07
8.1763519e-07
8.1078975e-07
8.0472816e-07
7.9929622e-07
7.9438189e-07
7.8990002e-07
7.8578519e-07
7.8198586e-07
7.7846034e-07
7.7517421e-07
7.7209996e-07
7.6921339e-07
7.6649401e-07
7.6392529e-07
7.6149294e-07
7.591855e-07
7.5699073e-07
7.5489482e-07
7.5288365e-07
7.5094596e-07
7.4907745e-07
7.47289e-07
7.4561279e-07
7.4409692e-07
7.4279641e-07
7.4176431e-07
7.4103974e-07
7.4064537e-07
7.4058513e-07
7.4083313e-07
7.4135153e-07
7.4209425e-07
7.4301441e-07
7.4407454e-07
7.4524488e-07
7.4650781e-07
7.4784829e-07
7.4925972e-07
7.5073968e-07
7.522836e-07
7.5388903e-07
7.5555337e-07
7.5727541e-07
7.590509e-07
7.608779e-07
7.6275392e-07
7.6467229e-07
7.6663245e-07
7.6862794e-07
7.7065311e-07
7.7270553e-07
7.7477504e-07
7.7685982e-07
7.7895569e-07
7.810476e-07
7.8313183e-07
7.8520523e-07
7.8725826e-07
7.8928298e-07
7.9127611e-07
7.9323478e-07
7.9515374e-07
7.9703246e-07
7.9887279e-07
8.0067728e-07
8.0244182e-07
8.0419302e-07
8.0596391e-07
8.0776639e-07
8.096229e-07
8.1155786e-07
8.1359397e-07
8.157642e-07
8.1809863e-07
8.2063149e-07
8.2339683e-07
8.2646236e-07
8.2984276e-07
8.3359005e-07
8.3776214e-07
8.4241591e-07
8.4761059e-07
8.5342305e-07
8.5994403e-07
8.6724267e-07
8.7536907e-07
8.8440135e-07
8.9449934e-07
9.0588184e-07
9.1872578e-07
9.3307759e-07
9.4880018e-07
9.6564007e-07
9.8324781e-07
1.0009942e-06
1.0184838e-06
1.0355492e-06
1.0519891e-06
1.0686434e-06
8.7360626e-07
8.584398e-07
8.4547148e-07
8.3462944e-07
8.2548716e-07
8.1764332e-07
8.1079742e-07
8.0473475e-07
7.9930098e-07
7.9438496e-07
7.8990132e-07
7.8578446e-07
7.8198268e-07
7.78454e-07
7.7516527e-07
7.7208757e-07
7.6919698e-07
7.664742e-07
7.6390224e-07
7.6146635e-07
7.5915541e-07
7.5695652e-07
7.5485496e-07
7.5283697e-07
7.5089163e-07
7.4901933e-07
7.4723576e-07
7.4557517e-07
7.4408934e-07
7.428316e-07
7.4185221e-07
7.4118961e-07
7.4086304e-07
7.4086814e-07
7.4118002e-07
7.4175975e-07
7.4255678e-07
7.4352534e-07
7.4462987e-07
7.4584086e-07
7.4714106e-07
7.4851924e-07
7.4996996e-07
7.5148906e-07
7.5307156e-07
7.5471603e-07
7.5642115e-07
7.5818509e-07
7.6000369e-07
7.6187424e-07
7.6379643e-07
7.6576197e-07
7.677696e-07
7.6981631e-07
7.7189252e-07
7.7399507e-07
7.7611775e-07
7.7825565e-07
7.8040219e-07
7.8254852e-07
7.8468893e-07
7.8681435e-07
7.8892063e-07
7.910016e-07
7.9304981e-07
7.9506172e-07
7.9703187e-07
7.9895955e-07
8.0084667e-07
8.0269109e-07
8.0449447e-07
8.0628108e-07
8.0807883e-07
8.0990901e-07
8.11784e-07
8.1372711e-07
8.157616e-07
8.1791567e-07
8.2022022e-07
8.2271042e-07
8.2542376e-07
8.2839521e-07
8.3168878e-07
8.3532415e-07
8.3935161e-07
8.4383446e-07
8.4883222e-07
8.5441093e-07
8.6065812e-07
8.6765877e-07
8.7547129e-07
8.8412647e-07
8.9366907e-07
9.0419596e-07
9.1584973e-07
9.287734e-07
9.4304279e-07
9.5861279e-07
9.7539011e-07
9.9287339e-07
1.0105822e-06
1.02825e-06
1.0453681e-06
1.0630168e-06
8.7361025e-07
8.5844638e-07
8.4547959e-07
8.3463851e-07
8.2549628e-07
8.176514e-07
8.108039e-07
8.0473952e-07
7.9930419e-07
7.9438559e-07
7.898995e-07
7.8578022e-07
7.8197579e-07
7.7844448e-07
7.7515223e-07
7.7207123e-07
7.691771e-07
7.664499e-07
7.6387358e-07
7.6143459e-07
7.5911995e-07
7.5691615e-07
7.5480839e-07
7.5278264e-07
7.5083045e-07
7.4895496e-07
7.4717836e-07
7.4553809e-07
7.440875e-07
7.4287939e-07
7.419619e-07
7.4137058e-07
7.4111987e-07
7.4120265e-07
7.4158998e-07
7.4223772e-07
7.430972e-07
7.4412189e-07
7.4527694e-07
7.4653623e-07
7.4788025e-07
7.493025e-07
7.5079826e-07
7.5236056e-07
7.5398928e-07
7.5568195e-07
7.5743547e-07
7.5925002e-07
7.6112067e-07
7.6304504e-07
7.6502044e-07
7.6704337e-07
7.6910941e-07
7.7121147e-07
7.7334787e-07
7.7551511e-07
7.7770121e-07
7.7990139e-07
7.8211109e-07
7.8432147e-07
7.8652648e-07
7.8871742e-07
7.9089093e-07
7.9303718e-07
7.9514983e-07
7.9722789e-07
7.9926156e-07
8.012493e-07
8.0319177e-07
8.0509032e-07
8.069461e-07
8.0878222e-07
8.1062346e-07
8.124902e-07
8.1439473e-07
8.1635826e-07
8.1840125e-07
8.2055159e-07
8.2284153e-07
8.253008e-07
8.279682e-07
8.3087866e-07
8.3408058e-07
8.3761796e-07
8.4152802e-07
8.4585995e-07
8.5068048e-07
8.5605423e-07
8.6205472e-07
8.6876595e-07
8.7626291e-07
8.8458474e-07
8.9374252e-07
9.0374444e-07
9.146273e-07
9.2647003e-07
9.3937645e-07
9.5341888e-07
9.6868062e-07
9.8497389e-07
1.001898e-06
1.0192855e-06
1.0364499e-06
1.0548372e-06
8.7361448e-07
8.5845313e-07
8.4548769e-07
8.3464674e-07
8.2550386e-07
8.1765806e-07
8.1080923e-07
8.0474299e-07
7.9930532e-07
7.9438445e-07
7.8989581e-07
7.8577342e-07
7.8196585e-07
7.7843132e-07
7.7513538e-07
7.7205003e-07
7.6915221e-07
7.6642177e-07
7.6384169e-07
7.6139844e-07
7.5907892e-07
7.5686872e-07
7.5475314e-07
7.5271906e-07
7.5075941e-07
7.4888376e-07
7.4711849e-07
7.4550474e-07
7.4409617e-07
7.4294588e-07
7.4210002e-07
7.4158887e-07
7.4142485e-07
7.4159589e-07
7.4206734e-07
7.4279521e-07
7.4372724e-07
7.4481672e-07
7.4603081e-07
7.4734385e-07
7.4874003e-07
7.5021374e-07
7.5176063e-07
7.533771e-07
7.5506042e-07
7.5680888e-07
7.5861948e-07
7.604922e-07
7.6242445e-07
7.6441034e-07
7.6644951e-07
7.6853756e-07
7.7067071e-07
7.72843e-07
7.7504949e-07
7.7728753e-07
7.7954828e-07
7.8182321e-07
7.8410876e-07
7.8639721e-07
7.8868107e-07
7.9095281e-07
7.9320463e-07
7.9543056e-07
7.9762275e-07
7.9977691e-07
8.0188699e-07
8.0394931e-07
8.0596436e-07
8.079328e-07
8.0985416e-07
8.1175224e-07
8.1365106e-07
8.1556789e-07
8.1751632e-07
8.1951518e-07
8.2158189e-07
8.237443e-07
8.2603016e-07
8.2847073e-07
8.3110319e-07
8.3396708e-07
8.3708746e-07
8.4054041e-07
8.4433932e-07
8.4854733e-07
8.5320611e-07
8.5839309e-07
8.6417337e-07
8.7061938e-07
8.7780764e-07
8.8579151e-07
8.9459709e-07
9.0421529e-07
9.1462567e-07
9.2582399e-07
9.3783759e-07
9.5071567e-07
9.6454947e-07
9.7936827e-07
9.9489198e-07
1.0111254e-06
1.0274089e-06
1.0454555e-06
8.7361905e-07
8.5846009e-07
8.4549583e-07
8.3465493e-07
8.2551116e-07
8.1766422e-07
8.1081358e-07
8.047449e-07
7.993048e-07
7.9438082e-07
7.8988866e-07
7.8576355e-07
7.8195292e-07
7.7841437e-07
7.7511418e-07
7.7202487e-07
7.6912219e-07
7.6638677e-07
7.6380276e-07
7.6135497e-07
7.5902954e-07
7.568123e-07
7.5468782e-07
7.5264337e-07
7.5067759e-07
7.488041e-07
7.4705409e-07
7.4547418e-07
7.44117e-07
7.43035e-07
7.4227162e-07
7.418528e-07
7.4178737e-07
7.4205912e-07
7.4263047e-07
7.4345006e-07
7.4446385e-07
7.4562815e-07
7.4690981e-07
7.4828538e-07
7.4974364e-07
7.5127779e-07
7.5288467e-07
7.5456311e-07
7.5630921e-07
7.5812087e-07
7.5999857e-07
7.619405e-07
7.6394189e-07
7.6600139e-07
7.6811606e-07
7.7028076e-07
7.7249262e-07
7.7474623e-07
7.770355e-07
7.7935768e-07
7.8170521e-07
7.840687e-07
7.864425e-07
7.8882323e-07
7.9120017e-07
7.9356458e-07
7.9591186e-07
7.9823035e-07
8.0051448e-07
8.0276118e-07
8.0496263e-07
8.0711541e-07
8.0921838e-07
8.1126811e-07
8.1326948e-07
8.1524808e-07
8.172217e-07
8.192056e-07
8.2121389e-07
8.2326123e-07
8.2536848e-07
8.2755784e-07
8.2985656e-07
8.3229616e-07
8.3490925e-07
8.3773417e-07
8.4080683e-07
8.4416839e-07
8.4787436e-07
8.5195689e-07
8.5647953e-07
8.6148805e-07
8.6706427e-07
8.7326807e-07
8.8016757e-07
8.8781913e-07
8.9626121e-07
9.0550407e-07
9.1552786e-07
9.26297e-07
9.3778087e-07
9.4996671e-07
9.62864e-07
9.7655288e-07
9.9079229e-07
1.00564e-06
1.0205906e-06
1.0372789e-06
8.7362383e-07
8.5846696e-07
8.455036e-07
8.3466251e-07
8.2551769e-07
8.1766921e-07
8.1081661e-07
8.0474526e-07
7.9930225e-07
7.943753e-07
7.8987988e-07
7.8575063e-07
7.8193552e-07
7.783928e-07