/*--------------------------------*- C++ -*----------------------------------*\
| =========                 |                                                 |
| \\      /  F ield         | OpenFOAM: The Open Source CFD Toolbox           |
|  \\    /   O peration     | Version:  2406                                  |
|   \\  /    A nd           | Website:  www.openfoam.com                      |
|    \\/     M anipulation  |                                                 |
\*---------------------------------------------------------------------------*/
FoamFile
{
    version     2.0;
    format      ascii;
    arch        "LSB;label=32;scalar=64";
    class       volScalarField;
    location    "400";
    object      omega;
}
// * * * * * * * * * * * * * * * * * * * * * * * * * * * * * * * * * * * * * //

dimensions      [0 0 -1 0 0 0 0];

internalField   nonuniform List<scalar> 
132739
(
3.8781474
3.1654775
2.6667381
2.3085587
2.0412289
1.8344242
1.6696234
1.5351229
1.4232138
1.3286151
1.2475843
1.1773914
1.1159966
1.0618433
1.0137232
0.97068329
0.93196175
0.89694253
0.86512195
0.83608408
0.80948254
0.78502637
0.76246937
0.74160163
0.72224305
0.70423822
0.68745216
0.67176711
0.65707992
0.64329987
0.63034709
0.61815098
0.60664869
0.5957845
0.58550885
0.57577722
0.56654989
0.55779109
0.54946847
0.54155288
0.53401779
0.52683915
0.51999511
0.51346549
0.50723174
0.50127689
0.49558455
0.49014104
0.48493027
0.4799336
0.47513244
0.47051274
0.46608673
0.46164289
0.4574437
0.45341379
0.44942866
0.44545983
0.44163071
0.43798409
0.43454565
0.43130115
0.42831945
0.42549542
0.42279279
0.42019602
0.41770245
0.41530994
0.41301449
0.41081299
0.40870519
0.40669462
0.40478839
0.40299661
0.40133205
0.39980183
0.39845463
0.39732293
0.39651645
0.39587602
0.39601145
0.39649719
0.3975346
0.39918145
0.40146052
0.40437887
0.407951
0.41221497
0.4172362
0.42310551
0.42991471
0.43780248
0.44663156
0.45617462
0.46637981
0.47720384
0.48862693
0.5006641
0.51335735
0.52677123
0.54099889
0.55613477
0.57244953
0.58929401
3.8783595
3.1660345
2.6674538
2.3093383
2.0420267
1.8352183
1.6704038
1.5358852
1.4239565
1.3293386
1.2482898
1.1780804
1.1166706
1.0625045
1.0143733
0.97132409
0.93259498
0.89756973
0.86574445
0.83670305
0.81009891
0.78564097
0.76308301
0.74221508
0.72285708
0.70485356
0.68806973
0.67238778
0.65770446
0.6439291
0.63098148
0.61879065
0.60729366
0.59643446
0.58616324
0.57643543
0.56721106
0.55845421
0.55013265
0.54221721
0.53468136
0.52750113
0.52065455
0.5141216
0.50788387
0.50192433
0.49622656
0.49077913
0.48555233
0.48052136
0.47566596
0.47098716
0.46647963
0.46204364
0.4577973
0.45372199
0.44976165
0.44592079
0.44222916
0.43871081
0.43539988
0.43229385
0.42941972
0.4267503
0.42418127
0.4216919
0.41927784
0.41694076
0.41468703
0.41252562
0.41046671
0.40852189
0.40670459
0.40503102
0.40351918
0.40220015
0.40103742
0.40001758
0.39915357
0.3984195
0.39791415
0.39768643
0.39783383
0.39845891
0.39967298
0.40159286
0.40431702
0.40791755
0.41244065
0.41791563
0.42436042
0.43180872
0.44034536
0.44947153
0.45887744
0.468596
0.4787231
0.4893492
0.5005479
0.51238428
0.5249077
0.53826155
0.55209532
0.56904338
3.8785766
3.166578
2.6681409
2.3100769
2.0427733
1.8359533
1.6711183
1.5365757
1.4246219
1.3299787
1.2489051
1.1786717
1.1172388
1.0630501
1.0148971
0.97182657
0.93307658
0.89803066
0.86618475
0.83712261
0.81049754
0.78601839
0.76343875
0.74254891
0.72316871
0.70514278
0.68833641
0.67263183
0.65792595
0.64412808
0.63115791
0.61894449
0.60742493
0.59654309
0.5862491
0.57649849
0.56725136
0.55847183
0.55012771
0.54218993
0.53463192
0.52742975
0.52056136
0.51400679
0.50774749
0.50176635
0.49604773
0.49057622
0.48533897
0.48032483
0.47551974
0.4709001
0.46652318
0.46211641
0.4579733
0.45403811
0.45019458
0.44647256
0.442901
0.43947131
0.43618023
0.43304712
0.43011849
0.4272877
0.42453694
0.42186363
0.41926893
0.4167574
0.41433567
0.41201097
0.40979107
0.40768452
0.40570137
0.40385416
0.40215851
0.40062509
0.39932339
0.39829902
0.39757943
0.39717874
0.39708351
0.39729193
0.39779321
0.39859092
0.39971163
0.40121817
0.40320961
0.40581309
0.40916721
0.41339997
0.41861582
0.42487618
0.43227411
0.44076179
0.45010396
0.45968823
0.46939829
0.47927683
0.48942005
0.49994671
0.510925
0.52263681
0.53434333
0.54972426
3.8787988
3.1671127
2.6688129
2.3107975
2.0435009
1.8366694
1.6718149
1.5372498
1.425273
1.3306078
1.2495132
1.1792603
1.1178095
1.0636046
1.0154371
0.9723535
0.93359202
0.89853602
0.86668118
0.83761116
0.81097912
0.78649386
0.76390894
0.74301454
0.72363053
0.70560165
0.68879324
0.6730877
0.65838204
0.64458551
0.63161781
0.61940804
0.60789309
0.5970167
0.58672897
0.57698518
0.56774531
0.55897344
0.55063721
0.54270737
0.53515736
0.5279632
0.52110271
0.51455575
0.50830395
0.50233015
0.49661857
0.49115451
0.48592344
0.48091277
0.47611048
0.47149998
0.46706721
0.46286462
0.45877746
0.45483705
0.45108173
0.44748014
0.44400007
0.44063042
0.43737673
0.43424505
0.43121174
0.42827802
0.42544006
0.42269616
0.42004605
0.41749065
0.41503261
0.41267633
0.41042761
0.40829403
0.40628516
0.40441324
0.40269349
0.40114659
0.39976114
0.39855071
0.3975464
0.39679433
0.39634592
0.39625383
0.39656
0.39729109
0.39845615
0.40005223
0.40207857
0.40455392
0.40753007
0.41109508
0.41536649
0.42046899
0.4265248
0.4336614
0.44198805
0.45088353
0.46011058
0.46955251
0.47916206
0.48896445
0.49896398
0.50945512
0.51970711
0.5330158
3.8790246
3.1676371
2.6694674
2.3114975
2.044207
1.8373637
1.6724896
1.5379018
1.4259018
1.3312136
1.2500969
1.1798231
1.1183524
1.0641287
1.0159432
0.97284262
0.93406501
0.89899354
0.86712385
0.83803935
0.8113931
0.78689382
0.76429488
0.74338635
0.72398831
0.70594554
0.68912333
0.67340421
0.65868529
0.64487584
0.63189578
0.61967412
0.6081476
0.59726015
0.58696165
0.5772073
0.56795708
0.55917488
0.55082825
0.54288785
0.53532718
0.52812218
0.52125063
0.51469248
0.50842927
0.50244387
0.49672069
0.49124472
0.48600221
0.48098101
0.47616837
0.47155299
0.46712367
0.4628657
0.4587773
0.45484339
0.45105688
0.44741427
0.44390293
0.44051191
0.4372354
0.43406957
0.43101225
0.42805452
0.42519127
0.42242038
0.4197405
0.41715152
0.41465504
0.41225431
0.40995399
0.40776005
0.40568043
0.40372563
0.40190764
0.40024187
0.39876597
0.39750676
0.39648627
0.39572437
0.39524229
0.39506689
0.39523297
0.39578229
0.39675858
0.39819901
0.40012717
0.40255256
0.40547794
0.40891252
0.41288642
0.41746004
0.42272041
0.42876814
0.43583353
0.4436627
0.45194882
0.46059553
0.46953476
0.47872564
0.48808713
0.49779865
0.50720288
0.51896168
3.8792545
3.1681525
2.670107
2.3121801
2.0448946
1.8380392
1.6731459
1.5385364
1.4265141
1.3318042
1.2506669
1.1803738
1.1188852
1.064645
1.0164443
0.97332983
0.93453949
0.89945635
0.86757605
0.83848194
0.81182679
0.78731914
0.76471236
0.74379645
0.72439149
0.70634211
0.68951378
0.67378917
0.6590654
0.64525195
0.63226873
0.62004488
0.60851717
0.59762927
0.58733105
0.57757745
0.56832829
0.55954733
0.55120209
0.54326319
0.5357038
0.52849986
0.52162934
0.51507204
0.50880954
0.50282479
0.49710205
0.49162648
0.48638419
0.48136261
0.47654965
0.4719303
0.46749856
0.46325257
0.45915765
0.45521661
0.45143472
0.44779775
0.44428686
0.44089144
0.43760892
0.43444006
0.43137614
0.4284105
0.42553921
0.42275931
0.42006894
0.41746762
0.41495665
0.41253879
0.41021838
0.40800135
0.40589554
0.40391125
0.4020615
0.40036087
0.39881447
0.39743844
0.39625696
0.39530055
0.39460357
0.39420196
0.39413235
0.39443245
0.39514179
0.39630198
0.39795374
0.40013103
0.4028562
0.40613843
0.40997831
0.41437683
0.41935088
0.42492119
0.43119579
0.43825818
0.44566765
0.45336696
0.46136462
0.46967551
0.47824472
0.48719541
0.49592936
0.50665038
3.8794869
3.1686574
2.6707299
2.3128432
2.045562
1.8386946
1.6737824
1.5391514
1.4271071
1.3323757
1.2512181
1.1809056
1.1193989
1.0651417
1.0169251
0.97379574
0.93499137
0.89989516
0.86800248
0.83889655
0.81223014
0.78771158
0.76509418
0.74416775
0.72475224
0.70669245
0.6898538
0.67411911
0.65938562
0.64556286
0.63257088
0.62033889
0.60880367
0.59790881
0.5876042
0.57784471
0.56858992
0.55980348
0.55145286
0.54350851
0.53594364
0.52873418
0.52185797
0.51529478
0.50902628
0.50303528
0.4973062
0.49182427
0.48657559
0.48154758
0.4767283
0.47210476
0.4676662
0.46340764
0.45930923
0.45536439
0.45156957
0.4479159
0.44439155
0.44098661
0.43769496
0.43451286
0.43143389
0.42845238
0.42556368
0.42276429
0.42005182
0.41742549
0.41488596
0.41243526
0.41007711
0.40781667
0.40566071
0.40361844
0.40170064
0.39992185
0.3983052
0.39687153
0.39564151
0.39463607
0.39387725
0.39338963
0.39320109
0.39334301
0.39385037
0.39476147
0.39611777
0.39796352
0.40034106
0.40328547
0.40682161
0.41095953
0.41569972
0.42103485
0.4269529
0.43357367
0.44057314
0.4477074
0.45496803
0.46241367
0.47006415
0.47808385
0.48598644
0.49569753
3.8797208
3.1691528
2.6713378
2.3134889
2.0462111
1.8393315
1.6744005
1.5397484
1.4276827
1.3329306
1.2517532
1.1814223
1.1198984
1.0656252
1.0173938
0.97425073
0.93543374
0.90032589
0.86842248
0.83930664
0.81263107
0.78810392
0.76547839
0.74454417
0.72512112
0.707054
0.6902083
0.67446678
0.65972676
0.64589797
0.63290063
0.62066394
0.60912477
0.5982268
0.58791975
0.57815835
0.56890208
0.56011452
0.55176295
0.54381765
0.53625186
0.52904124
0.5221637
0.51559912
0.50932903
0.50333642
0.49760562
0.49212186
0.48687129
0.48184128
0.47701962
0.47239334
0.46795278
0.46369107
0.45958934
0.45564115
0.45184381
0.44818748
0.44465922
0.44124908
0.43795114
0.43476201
0.43167572
0.4286861
0.42578809
0.42297809
0.42025371
0.41761369
0.41505854
0.41259008
0.41021148
0.40792759
0.4057449
0.40367216
0.40172038
0.39990194
0.39822759
0.39671334
0.39537995
0.39425203
0.39335676
0.39272295
0.39238039
0.39235911
0.39268924
0.39340164
0.39452797
0.39610256
0.39816283
0.40074816
0.40389625
0.40764017
0.41200189
0.41699412
0.42259465
0.428846
0.43567623
0.44262044
0.44957062
0.4565374
0.46353978
0.47075398
0.47781856
0.48640603
3.8799538
3.1696358
2.6719281
2.314115
2.0468396
1.8399478
1.6749986
1.5403261
1.4282398
1.3334676
1.2522711
1.1819222
1.1203815
1.0660925
1.0178464
0.9746897
0.93585994
0.90074016
0.86882563
0.8396994
0.81301401
0.7884776
0.76584322
0.74490037
0.72546886
0.70739335
0.6905393
0.67478948
0.66004134
0.64620476
0.63320005
0.62095648
0.60941097
0.59850741
0.5881953
0.5784294
0.56916927
0.56037812
0.55202314
0.54407452
0.53650529
0.52929129
0.5224102
0.51584199
0.50956814
0.5035716
0.49783685
0.49234909
0.48709448
0.48206019
0.47723422
0.47260392
0.4681589
0.46389144
0.4597856
0.45583292
0.45202841
0.4483634
0.44482677
0.44140904
0.4381034
0.43490508
0.43180818
0.42880681
0.42589598
0.42307188
0.42033178
0.41767401
0.41509851
0.41260659
0.41020095
0.4078859
0.4056673
0.40355314
0.40155321
0.39968013
0.39795075
0.39638268
0.39499469
0.3938068
0.39284064
0.39211983
0.3916703
0.39151994
0.39169801
0.39223488
0.39316093
0.3945069
0.39630399
0.39858427
0.40138149
0.4047304
0.40866444
0.4132128
0.41838814
0.42418744
0.43069331
0.4375069
0.44435467
0.45116423
0.45789959
0.46468108
0.47121552
0.47887134
3.8801886
3.1701099
2.6725038
2.3147236
2.0474498
1.8405459
1.6755787
1.5408863
1.4287798
1.333988
1.2527728
1.1824065
1.1208495
1.0665455
1.0182854
0.97511576
0.93627396
0.90114302
0.86921814
0.84008229
0.81338796
0.78884319
0.7662009
0.74525054
0.72581178
0.70772923
0.69086827
0.67511161
0.66035682
0.64651385
0.63350308
0.6212539
0.60970347
0.59879562
0.58847992
0.57871107
0.56944843
0.56065513
0.55229828
0.54434795
0.5367771
0.52956145
0.52267862
0.51610857
0.50983273
0.50383414
0.49809719
0.49260708
0.48735013
0.48231349
0.47748494
0.47285206
0.46840434
0.46413322
0.46002413
0.45606823
0.45225979
0.44859019
0.44504863
0.44162565
0.43831436
0.4351096
0.43200565
0.42899649
0.42607695
0.42324308
0.42049182
0.41782145
0.41523163
0.41272332
0.41029891
0.40796236
0.40571914
0.40357667
0.40154467
0.39963419
0.39785715
0.39622903
0.39476798
0.39349477
0.39243244
0.39160562
0.39104006
0.3907625
0.39080007
0.39118039
0.39193156
0.39308127
0.39465736
0.39668797
0.3991998
0.40222005
0.40577779
0.40990258
0.41462475
0.41994275
0.42593572
0.43246624
0.43913558
0.44582182
0.45244812
0.45906518
0.46539631
0.47254191
3.8804201
3.1705709
2.6730622
2.3153136
2.0480412
1.8411254
1.6761407
1.5414289
1.4293027
1.3344919
1.2532589
1.1828757
1.1213029
1.0669842
1.0187105
0.97552814
0.93667461
0.90153268
0.86959754
0.84045212
0.81374883
0.78919562
0.7665453
0.74558727
0.72614111
0.70805124
0.69118307
0.67541934
0.66065756
0.64680769
0.63379033
0.62153501
0.60997892
0.59906591
0.58874561
0.57897272
0.56970656
0.56091021
0.5525506
0.54459772
0.53702441
0.52980637
0.52292111
0.51634851
0.51007005
0.50406874
0.49832902
0.49283606
0.48757623
0.4825366
0.47770492
0.47306894
0.46861792
0.46434277
0.46023009
0.4562704
0.4524571
0.44878174
0.44523419
0.44180522
0.43848759
0.43527577
0.4321638
0.42914586
0.42621671
0.42337212
0.42060896
0.41792519
0.41532003
0.41279404
0.41034932
0.40798932
0.40571913
0.40354576
0.40147795
0.39952687
0.39770632
0.39603162
0.39451978
0.39318937
0.39206049
0.39115518
0.39049701
0.390111
0.39002335
0.39026073
0.39085049
0.39181985
0.39319494
0.39500142
0.39726508
0.40000881
0.40325473
0.40702596
0.4113467
0.41623162
0.4217016
0.42784744
0.43422246
0.44066491
0.44710397
0.45356722
0.45978666
0.46671045
3.8806506
3.1710219
2.6736062
2.3158873
2.0486157
1.8416879
1.6766861
1.5419553
1.42981
1.3349809
1.2537305
1.1833309
1.1217429
1.06741
1.019123
0.97592847
0.93706353
0.90191104
0.86996613
0.84081156
0.81409965
0.78953839
0.76688048
0.7459152
0.72646215
0.70836561
0.69149087
0.67572074
0.66095275
0.64709682
0.63407363
0.62181274
0.61025147
0.59933368
0.58900924
0.57923288
0.56996368
0.56116482
0.55280302
0.54484817
0.53727298
0.53005318
0.52316623
0.51659188
0.51031165
0.50430847
0.49856681
0.49307184
0.48780993
0.4827682
0.47793425
0.47329593
0.46884236
0.46456403
0.46044829
0.45648548
0.45266841
0.44898867
0.44543643
0.44200271
0.43868014
0.4354628
0.43234482
0.42932015
0.4263835
0.42353055
0.42075798
0.41806349
0.41544603
0.41290596
0.41044507
0.40806649
0.40577494
0.40357703
0.40148122
0.39949778
0.39763842
0.395917
0.39434985
0.39295545
0.3917539
0.39076687
0.39001745
0.38952961
0.38932802
0.38943769
0.38988352
0.39069165
0.3918873
0.39349372
0.39553502
0.39803315
0.40100774
0.40447768
0.40846269
0.41297966
0.41802198
0.42369244
0.42974908
0.43591313
0.44209528
0.44832546
0.45435695
0.4610916
3.8808789
3.171461
2.6741344
2.3164441
2.0491731
1.8422337
1.6772151
1.5424659
1.4303023
1.3354553
1.2541879
1.1837725
1.1221696
1.0678229
1.0195232
0.97631678
0.9374408
0.90227799
0.87032347
0.84115995
0.81443966
0.78987043
0.76720498
0.74623258
0.72677268
0.70866957
0.6917884
0.67601196
0.66123778
0.64737584
0.63434682
0.62208031
0.61051368
0.59959106
0.58926222
0.57948197
0.57020927
0.56140735
0.55304289
0.54508575
0.53750857
0.53028681
0.52339797
0.5168217
0.51053964
0.50453458
0.49879092
0.49329401
0.4880301
0.4829862
0.47814996
0.47350924
0.46905309
0.46477172
0.46065298
0.45668699
0.45286617
0.44918212
0.44562533
0.44218693
0.43885947
0.43563671
0.43251268
0.42948142
0.42653756
0.42367652
0.42089472
0.4181898
0.4155605
0.4130068
0.41053016
0.40813337
0.40582087
0.40359892
0.40147559
0.39946079
0.39756623
0.39580547
0.39419388
0.39274868
0.39148865
0.39043387
0.38960591
0.38902776
0.38872314
0.38871604
0.38903071
0.38969084
0.39072167
0.39214673
0.39398664
0.39626253
0.39899379
0.40219641
0.40588673
0.41008187
0.41477833
0.42001926
0.42577381
0.43166236
0.43757337
0.44353496
0.44931863
0.45577715
3.8811066
3.1718913
2.6746497
2.3169859
2.0497149
1.8427638
1.6777289
1.5429619
1.4307802
1.3359159
1.254632
1.1842012
1.122584
1.068224
1.0199119
0.97669391
0.93780722
0.90263455
0.8706707
0.84149844
0.81476996
0.79019308
0.76752043
0.74654121
0.72707475
0.70896537
0.69207823
0.67629602
0.66151619
0.64764864
0.63461414
0.62234239
0.61077073
0.59984345
0.58951034
0.57972625
0.57045021
0.56164545
0.55327857
0.54531934
0.53774041
0.53051696
0.52362659
0.51704889
0.51076542
0.50475893
0.49901387
0.49351552
0.48825009
0.48320462
0.47836666
0.47372411
0.46926584
0.46498192
0.4608606
0.45689192
0.45306806
0.44938051
0.44581995
0.44237774
0.43904632
0.4358192
0.43269043
0.42965385
0.42670395
0.42383619
0.42104682
0.41833321
0.41569385
0.41312858
0.41063856
0.40822641
0.40589624
0.40365397
0.40150735
0.39946548
0.3975391
0.39574078
0.394085
0.39258872
0.39127036
0.39014955
0.38924719
0.38858526
0.38818643
0.38807358
0.38826974
0.38879794
0.38967983
0.39093931
0.39259727
0.39467343
0.39718485
0.4001476
0.4035749
0.40748046
0.41187373
0.41674941
0.42219519
0.4278587
0.43353974
0.43924954
0.44478562
0.45092212
3.8813292
3.1723086
2.675149
2.317511
2.0502401
1.8432777
1.678227
1.5434427
1.4312437
1.3363626
1.2550629
1.1846172
1.1229861
1.0686132
1.0202892
0.97706011
0.93816313
0.90298081
0.87100799
0.84182736
0.81509099
0.79050663
0.76782689
0.74684096
0.72736815
0.70925274
0.69235981
0.67657194
0.66178664
0.64791376
0.63487398
0.62259711
0.61102058
0.60008872
0.58975131
0.57996334
0.57068391
0.56187623
0.55350682
0.54554535
0.53796456
0.5307394
0.52384749
0.51726847
0.51098378
0.50497612
0.49922985
0.49373039
0.48846371
0.48341683
0.4785774
0.4739332
0.46947314
0.46518703
0.46106348
0.4570925
0.45326587
0.44957519
0.44601139
0.44256581
0.43923094
0.43600015
0.43286715
0.42982587
0.42687075
0.42399707
0.42120084
0.41847934
0.41583096
0.41325511
0.41075277
0.40832639
0.4059799
0.40371885
0.4015505
0.39948336
0.39752773
0.395696
0.39400201
0.39246165
0.39109245
0.38991315
0.38894388
0.38820583
0.38772082
0.38751053
0.3875972
0.38800337
0.38875024
0.38985881
0.39135027
0.39324388
0.39555551
0.39830152
0.40149154
0.40513694
0.40925186
0.41382323
0.41892392
0.42437412
0.42986965
0.43538207
0.44072062
0.44657329
3.8815516
3.1727177
2.675636
2.318022
2.0507507
1.8437772
1.6787109
1.5439097
1.4316938
1.3367965
1.2554814
1.1850213
1.1233768
1.0689914
1.0206558
0.97741594
0.93850899
0.90331739
0.87133589
0.84214711
0.81540314
0.79081159
0.76812504
0.74713265
0.72765377
0.70953263
0.69263419
0.67684104
0.66205066
0.64817285
0.63512822
0.62284663
0.6112655
0.60032926
0.58998774
0.58019604
0.57091333
0.56210272
0.55373087
0.54576739
0.53818488
0.53095833
0.52406525
0.5174852
0.51119964
0.50519129
0.49944428
0.49394415
0.48867677
0.483629
0.47878861
0.47414334
0.46968195
0.46539419
0.46126888
0.45729611
0.45346744
0.44977448
0.4462083
0.44276035
0.43942298
0.43618945
0.43305341
0.43000864
0.42704953
0.42417116
0.42136948
0.4186415
0.41598548
0.41340076
0.41088796
0.40844942
0.406089
0.40381165
0.40162396
0.39953402
0.39755149
0.39568816
0.39395739
0.39237444
0.39095638
0.3897217
0.38868971
0.38788071
0.38731589
0.38701628
0.38700325
0.38729776
0.38792131
0.38889362
0.39023402
0.39196043
0.39408964
0.39663686
0.39961223
0.40302483
0.40688628
0.41119213
0.41596955
0.42120693
0.42652108
0.43185842
0.43703642
0.44265548
3.8817688
3.1731145
2.676108
2.3185172
2.0512455
1.8442613
1.6791802
1.5443628
1.4321306
1.3372176
1.2558877
1.1854137
1.1237563
1.0693588
1.021012
0.97776173
0.9388451
0.90364452
0.87165471
0.84245808
0.81570674
0.79110827
0.76841518
0.74741666
0.72793196
0.70980532
0.69290173
0.67710364
0.66230845
0.64842601
0.63537677
0.62309072
0.61150534
0.60056493
0.59021955
0.58042433
0.57113849
0.56232509
0.55395096
0.54598553
0.53840137
0.53117364
0.52427971
0.517699
0.51141288
0.50540418
0.49965695
0.49415653
0.48888888
0.48384081
0.47900004
0.47435431
0.46989219
0.46560342
0.4614771
0.45750327
0.45367341
0.44997905
0.4464114
0.44296201
0.43962318
0.43638798
0.43324997
0.43020286
0.42724091
0.4243591
0.42155319
0.41882007
0.41615774
0.41356531
0.41104353
0.4085943
0.40622115
0.40392875
0.40172315
0.39961207
0.39760477
0.3957125
0.39394809
0.39232623
0.3908632
0.38957708
0.388487
0.38761237
0.38697352
0.38659137
0.38648612
0.38667755
0.38718686
0.38803284
0.38923546
0.39081103
0.39277454
0.39514056
0.39791967
0.40112008
0.4047502
0.40881549
0.41330841
0.41830422
0.42346371
0.4286489
0.43368203
0.43909909
3.8819849
3.1735029
2.6765681
2.3189992
2.0517267
1.8447319
1.6796362
1.5448029
1.4325549
1.3376266
1.2562823
1.1857949
1.1241249
1.0697158
1.0213582
0.97809802
0.93917214
0.90396292
0.87196502
0.84276093
0.81600256
0.79139749
0.76869821
0.74769383
0.72820367
0.71007181
0.69316331
0.67736061
0.66256095
0.64867422
0.63562087
0.62333084
0.61174161
0.60079752
0.59044876
0.58065034
0.57136155
0.56254568
0.55416947
0.5462024
0.53861695
0.53138838
0.52449394
0.51791299
0.51162695
0.50561859
0.49987185
0.49437201
0.48910494
0.48405743
0.47921703
0.47457159
0.47010976
0.46582102
0.46169468
0.4577209
0.45389103
0.4501966
0.44662888
0.44317949
0.43984069
0.43660542
0.43346711
0.43041929
0.42745619
0.4245726
0.42176413
0.4190275
0.41636055
0.41376233
0.41123329
0.40877514
0.4063909
0.40408476
0.40186256
0.39973173
0.39770078
0.3957807
0.39398389
0.39232428
0.39081803
0.38948287
0.38833723
0.38740046
0.38669245
0.38623324
0.3860418
0.38613836
0.38654312
0.38727299
0.38834803
0.38978416
0.39159622
0.3937972
0.39639857
0.39940698
0.40282811
0.40667125
0.41092171
0.4156437
0.42064396
0.4256956
0.4306073
0.43585609
3.8821956
3.1738795
2.6770139
2.3194662
2.0521931
1.8451881
1.6800784
1.5452299
1.4329667
1.3380238
1.2566657
1.1861653
1.1244834
1.0700631
1.0216951
0.97842533
0.93949062
0.90427327
0.87226777
0.84305654
0.81629147
0.7916801
0.76897492
0.74796506
0.7284697
0.71033305
0.69342009
0.67761316
0.66280948
0.64891891
0.63586193
0.62356829
0.6119757
0.60102844
0.59067664
0.58087551
0.57158436
0.56276645
0.55438854
0.54642026
0.53883408
0.53160514
0.52471087
0.51813051
0.51184532
0.50583817
0.50009281
0.49459451
0.48932907
0.48428312
0.47944426
0.4748003
0.47033992
0.46605256
0.46192768
0.45795549
0.45412731
0.45043462
0.44686879
0.44342145
0.44008478
0.43685157
0.43371505
0.43066872
0.42770658
0.42482326
0.42201435
0.41927632
0.41660691
0.41400487
0.41147047
0.40900482
0.40661047
0.40429168
0.40205383
0.3999041
0.39785034
0.3959033
0.39407513
0.39237931
0.39083171
0.3894496
0.3882511
0.38725478
0.38648038
0.38594789
0.38567539
0.38568283
0.38598953
0.3866117
0.38756878
0.38887579
0.39054868
0.3925998
0.39503717
0.39786907
0.4011
0.40473934
0.40877807
0.41324126
0.41807791
0.42299227
0.42778822
0.43288537
3.8824037
3.1742474
2.6774481
2.3199205
2.0526464
1.8456316
1.6805082
1.545645
1.4333671
1.33841
1.2570386
1.1865258
1.1248323
1.0704014
1.0220235
0.97874467
0.93980152
0.90457636
0.8725637
0.84334576
0.81657442
0.79195721
0.76924661
0.74823164
0.7287316
0.7105906
0.69367358
0.67786292
0.66305582
0.64916198
0.63610198
0.62380546
0.6122101
0.60126033
0.59090629
0.58110316
0.57181032
0.56299118
0.55461227
0.54664354
0.53905748
0.53182916
0.52493596
0.51835723
0.51207412
0.50606935
0.50032674
0.49483137
0.48956907
0.48452636
0.47969072
0.47505005
0.47059304
0.46630913
0.46218792
0.45821973
0.4543958
0.45070756
0.44714644
0.44370409
0.44037255
0.43714442
0.43401282
0.43097102
0.42801288
0.42513289
0.42232648
0.41958989
0.41692069
0.41431728
0.41177945
0.40930798
0.40690517
0.40457474
0.402322
0.40015374
0.3980773
0.39610315
0.39424347
0.39251154
0.3909228
0.38949414
0.38824387
0.38719
0.38635132
0.38574743
0.38539654
0.38531843
0.38553164
0.38605286
0.38690066
0.38808869
0.38963155
0.39154108
0.39382737
0.39649855
0.39955664
0.40300791
0.40685417
0.41108717
0.4157669
0.42055626
0.4252365
0.4301831
3.8826067
3.1746041
2.6778688
2.3203608
2.053086
1.8460617
1.6809255
1.5460481
1.4337562
1.3387857
1.2574016
1.1868769
1.1251724
1.0707314
1.0223443
0.97905684
0.94010585
0.90487345
0.87285402
0.84362989
0.81685286
0.79223033
0.76951487
0.74849548
0.72899137
0.71084662
0.69392623
0.67811245
0.66330253
0.64940616
0.63634385
0.62404529
0.6124482
0.60149693
0.59114163
0.58133759
0.57204422
0.56322494
0.5548464
0.54687835
0.53929362
0.53206724
0.52517655
0.51860098
0.51232167
0.50632123
0.50058337
0.4950931
0.48983618
0.48479909
0.47996929
0.4753346
0.47088382
0.46660654
0.4624924
0.45853175
0.45471581
0.45103609
0.4474839
0.44405079
0.44072871
0.43751008
0.4343878
0.43135498
0.42840521
0.42553277
0.42273282
0.42000138
0.41733565
0.41473367
0.41219467
0.40971926
0.40730945
0.40496845
0.40270116
0.40051401
0.39841452
0.39641281
0.39452105
0.3927524
0.3911219
0.38964578
0.38834294
0.38723165
0.38632956
0.38565608
0.38522888
0.3850676
0.38518831
0.38561032
0.38635144
0.38742667
0.38884931
0.39062941
0.39277734
0.39529895
0.39819833
0.40147951
0.40514826
0.40918341
0.41365437
0.41833545
0.42293174
0.42775015
3.8828067
3.1749525
2.6782787
2.3207892
2.0535138
1.8464802
1.6813314
1.5464405
1.4341352
1.3391518
1.2577557
1.1872198
1.125505
1.0710544
1.0226587
0.97936333
0.94040512
0.90516612
0.87314068
0.84391104
0.817129
0.79250195
0.76978236
0.74875924
0.72925184
0.71110419
0.69418128
0.67836541
0.6635537
0.64965587
0.63659248
0.62429317
0.61269567
0.60174429
0.59138928
0.58158589
0.57229359
0.56347585
0.5550994
0.54713412
0.53955267
0.53233009
0.52544425
0.51887442
0.51260158
0.5066083
0.50087827
0.49539633
0.49014819
0.48512035
0.48030023
0.47567577
0.47123586
0.46696999
0.46286804
0.45892037
0.45511816
0.4514528
0.44791559
0.44449798
0.44119167
0.43798886
0.43488216
0.43186442
0.42892896
0.42606973
0.42328161
0.42056018
0.41790206
0.41530493
0.41276778
0.41029081
0.40787564
0.40552503
0.40324342
0.40103722
0.39891349
0.39688282
0.39495697
0.39314949
0.39147514
0.38994967
0.3885911
0.38741907
0.38645153
0.38570593
0.38520715
0.38493065
0.38500547
0.38531734
0.38595028
0.38691414
0.38822055
0.38987769
0.39189504
0.39427734
0.39703107
0.40015541
0.40365978
0.40752067
0.41178404
0.41634919
0.42086364
0.42556969
3.8830021
3.1752907
2.6786763
2.321205
2.053929
1.8468868
1.6817262
1.5468226
1.4345046
1.3395092
1.2581017
1.1875555
1.125831
1.0713719
1.0229683
0.97966588
0.94070127
0.90545658
0.87342606
0.84419185
0.81740581
0.79277519
0.77005251
0.74902684
0.72951736
0.71136811
0.69444403
0.67862745
0.66381552
0.64991786
0.6368551
0.62455691
0.61296091
0.60201154
0.591659
0.58185858
0.57256982
0.56375623
0.55538474
0.54742513
0.53985023
0.53263532
0.52575759
0.51919711
0.51293475
0.50695295
0.50123532
0.49576669
0.49053259
0.48551961
0.48071519
0.47610732
0.47168493
0.46743765
0.46335544
0.45942861
0.45564832
0.45200583
0.44849224
0.44509878
0.44181696
0.43863866
0.435556
0.43256147
0.429648
0.42680915
0.42403929
0.42133347
0.41868791
0.41609993
0.41356809
0.41109207
0.40867298
0.40631342
0.40401749
0.40179145
0.39964269
0.39758084
0.39561773
0.3937681
0.39204607
0.39046712
0.38904937
0.38781141
0.38677354
0.38594953
0.38537753
0.38499293
0.38500635
0.38521609
0.38575041
0.38660779
0.38779846
0.38933364
0.39122266
0.39347075
0.39608301
0.39905934
0.40240538
0.40610377
0.41017821
0.41463096
0.41905833
0.42366279
3.8831948
3.1756215
2.6790642
2.3216101
2.0543336
1.8472832
1.6821115
1.5471958
1.434866
1.3398594
1.2584415
1.1878857
1.1261528
1.071686
1.0232756
0.97996722
0.94099746
0.90574823
0.8737139
0.84447648
0.81768778
0.79305515
0.77033105
0.74930451
0.72979474
0.7116458
0.69472256
0.67890738
0.66409743
0.65020238
0.63714283
0.62484849
0.61325701
0.6023128
0.59196608
0.58217225
0.57289087
0.56408553
0.55572327
0.54777408
0.54021077
0.53300865
0.52614526
0.51959967
0.51335391
0.50739018
0.50169195
0.49624395
0.49103172
0.48604186
0.48126187
0.4766799
0.47228495
0.4680666
0.46401481
0.46011987
0.45637272
0.45276448
0.44928592
0.44592801
0.44268177
0.43953859
0.43649023
0.43352861
0.4306461
0.42783573
0.42509126
0.4224074
0.41977994
0.41720566
0.41468259
0.41220994
0.40978838
0.40742024
0.40510959
0.4028626
0.40068675
0.39859154
0.39658863
0.39469202
0.39291575
0.39127725
0.38979377
0.38848485
0.38737018
0.38646536
0.3857975
0.38536048
0.38518584
0.38532869
0.3857689
0.38652457
0.38760792
0.3890294
0.3907976
0.39291876
0.3953973
0.398234
0.40143162
0.40498088
0.40887972
0.41318075
0.41755296
0.42199512
3.8833833
3.1759429
2.679441
2.3220041
2.0547276
1.8476698
1.6824878
1.5475611
1.4352206
1.3402039
1.2587768
1.1882128
1.1264726
1.0719996
1.023584
0.98027126
0.94129801
0.90604607
0.87400981
0.84477118
0.81798197
0.79334963
0.77062646
0.74960168
0.73009436
0.71194851
0.69502918
0.67921866
0.66441422
0.65052553
0.63747323
0.62518702
0.61360464
0.60267052
0.59233488
0.58255324
0.57328515
0.56449444
0.55614813
0.54821649
0.54067242
0.5334913
0.5266507
0.52012987
0.5139096
0.50797364
0.50230485
0.49688806
0.49170888
0.48675399
0.48201092
0.47746775
0.47311343
0.46893761
0.46493006
0.46108099
0.45738104
0.45382083
0.45039084
0.44708152
0.44388331
0.44078707
0.43778386
0.4348649
0.43202204
0.42924785
0.42653566
0.4238797
0.42127522
0.41871844
0.41620681
0.41373922
0.41131601
0.40893935
0.40661351
0.40434436
0.40213918
0.40000754
0.39796099
0.39601342
0.39417891
0.39247334
0.39091703
0.38952979
0.38833094
0.38733833
0.38657011
0.38604757
0.38577601
0.38579035
0.38610865
0.38674583
0.38771318
0.38901941
0.39067021
0.39267057
0.39502389
0.39772998
0.40079085
0.40419961
0.40795444
0.4120601
0.41644996
0.42117552
3.8835692
3.1762576
2.6798091
2.322389
2.0551127
1.8480483
1.682857
1.5479206
1.4355706
1.3405453
1.2591106
1.1885402
1.1267948
1.0723176
1.0238989
0.98058411
0.94160987
0.90635786
0.87432247
0.8450857
0.81829923
0.79367068
0.77095225
0.74993309
0.73043238
0.71229416
0.69538357
0.67958289
0.66478946
0.65091301
0.63787422
0.62560291
0.6140367
0.60312025
0.59280376
0.58304283
0.57379719
0.56503075
0.55671071
0.54880751
0.5412942
0.53414621
0.52734105
0.52085801
0.51467789
0.50878318
0.50315673
0.49778568
0.49265483
0.48775042
0.48305992
0.47857133
0.47427357
0.47015613
0.46620859
0.46242079
0.45878289
0.455285
0.45191704
0.44866871
0.44552982
0.44249042
0.43954093
0.43667218
0.43387558
0.43114321
0.42846797
0.42584358
0.42326462
0.42072693
0.41822756
0.41576515
0.41334001
0.41095418
0.40861211
0.40631951
0.40408323
0.40191278
0.39981965
0.39781774
0.39592119
0.39414587
0.3925112
0.39103787
0.38974858
0.38866089
0.38779207
0.38716183
0.38678823
0.38669119
0.38689049
0.3874049
0.38824835
0.38942994
0.39095739
0.39283409
0.39506228
0.39764186
0.40057391
0.40384919
0.40747023
0.41141973
0.41566457
0.42036876
3.8837515
3.1765642
2.680168
2.3227647