-0.5 	0.99881123
-0.48412699 	1.0036715
-0.46825397 	1.0157867
-0.45238095 	0.97645898
-0.43650794 	0.99429933
-0.42063492 	0.98521765
-0.40476191 	0.96237194
-0.3888889 	1.0041919
-0.37301588 	0.95780217
-0.35714287 	0.97924073
-0.34126985 	0.98509205
-0.32539684 	0.95322398
-0.30952379 	0.99198596
-0.29365078 	0.99911279
-0.27777776 	0.93587646
-0.26190475 	0.93945527
-0.24603173 	1.0338681
-0.23015872 	0.97926428
-0.2142857 	0.89309601
-0.19841269 	0.96188697
-0.18253967 	1.1076854
-0.16666666 	1.024474
-0.15079364 	0.89082349
-0.13492063 	0.8788175
-0.11904758 	0.94052107
-0.10317457 	1.0600498
-0.087301552 	1.1515165
-0.071428537 	1.1190072
-0.055555522 	1.0345884
-0.039682507 	0.99168544
-0.023809493 	0.99470948
-0.0079364777 	1.0213451
0.0079365373 	1.0444521
0.023809552 	1.0308679
0.039682567 	0.93923937
0.055555582 	1.0235895
0.071428597 	0.99052964
0.087301612 	1.1651203
0.10317463 	1.1318525
0.11904764 	1.0685276
0.13492066 	1.0782729
0.15079367 	0.87228777
0.16666669 	0.90897129
0.1825397 	1.1144623
0.19841272 	0.9810548
0.21428573 	0.85624099
0.23015875 	0.88757314
0.24603176 	1.040635
0.26190484 	1.0892548
0.27777785 	0.88132324
0.29365087 	0.870945
0.30952388 	0.99456061
0.3253969 	0.97017511
0.34126991 	0.92217329
0.35714292 	0.99018531
0.37301594 	0.9773845
0.38888895 	0.95453063
0.40476197 	0.99388502
0.42063499 	0.97374249
0.436508 	0.98222232
0.45238101 	0.98803556
0.46825403 	0.98977877
0.48412704 	0.98724953
0.5 	0.98491837
