/*--------------------------------*- C++ -*----------------------------------*\
| =========                 |                                                 |
| \\      /  F ield         | OpenFOAM: The Open Source CFD Toolbox           |
|  \\    /   O peration     | Version:  2406                                  |
|   \\  /    A nd           | Website:  www.openfoam.com                      |
|    \\/     M anipulation  |                                                 |
\*---------------------------------------------------------------------------*/
FoamFile
{
    version     2.0;
    format      ascii;
    arch        "LSB;label=32;scalar=64";
    class       volScalarField;
    location    "1300";
    object      kMean;
}
// * * * * * * * * * * * * * * * * * * * * * * * * * * * * * * * * * * * * * //

dimensions      [0 2 -2 0 0 0 0];

internalField   nonuniform List<scalar> 
132739
(
3.3554496e-06
2.6911036e-06
2.2327052e-06
1.9079481e-06
1.6684909e-06
1.4851931e-06
1.340456e-06
1.2232749e-06
1.1264676e-06
1.0451553e-06
9.7590686e-07
9.1623658e-07
8.6429808e-07
8.1869111e-07
7.7833465e-07
7.4237952e-07
7.1015013e-07
6.8110256e-07
6.5479362e-07
6.308597e-07
6.0899738e-07
5.8895372e-07
5.7051602e-07
5.5350237e-07
5.3775735e-07
5.2314553e-07
5.0955054e-07
4.9687365e-07
4.8503453e-07
4.7397235e-07
4.6363093e-07
4.5395331e-07
4.448997e-07
4.3643639e-07
4.285297e-07
4.2114483e-07
4.1424666e-07
4.0780184e-07
4.0177735e-07
3.9614358e-07
3.9087495e-07
3.8594841e-07
3.8134334e-07
3.7704195e-07
3.7302868e-07
3.6928945e-07
3.6580838e-07
3.6257268e-07
3.5956924e-07
3.5678372e-07
3.542039e-07
3.5180579e-07
3.4958473e-07
3.4751576e-07
3.4557709e-07
3.4374213e-07
3.4199937e-07
3.4035412e-07
3.3878622e-07
3.3732741e-07
3.3599539e-07
3.3482273e-07
3.3380439e-07
3.3296801e-07
3.3230942e-07
3.3182421e-07
3.3156901e-07
3.3150932e-07
3.3161701e-07
3.3187323e-07
3.3225983e-07
3.3277532e-07
3.3336997e-07
3.3403077e-07
3.3482173e-07
3.3571874e-07
3.3698576e-07
3.3859842e-07
3.4066195e-07
3.4332339e-07
3.4675115e-07
3.5114134e-07
3.5667419e-07
3.6352621e-07
3.7192881e-07
3.8204035e-07
3.9364736e-07
4.0658555e-07
4.2084356e-07
4.3676345e-07
4.5490763e-07
4.7573865e-07
4.9950414e-07
5.262617e-07
5.5607994e-07
5.8910098e-07
6.2560079e-07
6.6596433e-07
7.1077211e-07
7.6046901e-07
8.1641839e-07
8.7775275e-07
9.5060262e-07
1.0242719e-06
3.3555291e-06
2.6915242e-06
2.2332804e-06
1.908584e-06
1.6691428e-06
1.4858405e-06
1.3410909e-06
1.2238937e-06
1.1270693e-06
1.0457411e-06
9.7647823e-07
9.167951e-07
8.6484564e-07
8.1922986e-07
7.7886667e-07
7.4290686e-07
7.1067473e-07
6.8162643e-07
6.553186e-07
6.3138671e-07
6.0952782e-07
5.8948899e-07
5.7105729e-07
5.5405055e-07
5.383128e-07
5.2370891e-07
5.1012214e-07
4.9745383e-07
4.8562308e-07
4.7456755e-07
4.6423226e-07
4.5456111e-07
4.4551316e-07
4.3705397e-07
4.2914973e-07
4.2176636e-07
4.1486845e-07
4.0842236e-07
4.0239637e-07
3.967607e-07
3.9148865e-07
3.8655812e-07
3.8194845e-07
3.7764115e-07
3.7362091e-07
3.6987139e-07
3.6637668e-07
3.6312296e-07
3.6009747e-07
3.5728535e-07
3.5467104e-07
3.5223916e-07
3.4997537e-07
3.478609e-07
3.4587026e-07
3.4399742e-07
3.4227248e-07
3.4073023e-07
3.393678e-07
3.381782e-07
3.3715801e-07
3.3630178e-07
3.3559625e-07
3.3504088e-07
3.3462855e-07
3.3433831e-07
3.3415117e-07
3.3406062e-07
3.3406768e-07
3.341713e-07
3.3439267e-07
3.3471092e-07
3.3509591e-07
3.355731e-07
3.3617421e-07
3.3694539e-07
3.3792146e-07
3.3913802e-07
3.4064829e-07
3.4253185e-07
3.4489781e-07
3.4791096e-07
3.5176289e-07
3.566917e-07
3.6301155e-07
3.7105129e-07
3.8096e-07
3.9264973e-07
4.0587201e-07
4.2061991e-07
4.3714783e-07
4.5594081e-07
4.7740133e-07
5.0174684e-07
5.2905072e-07
5.5942476e-07
5.9296411e-07
6.2986668e-07
6.7034405e-07
7.1468737e-07
7.6338753e-07
8.1684978e-07
8.7523381e-07
9.4871991e-07
3.3556219e-06
2.6919298e-06
2.2338226e-06
1.9091754e-06
1.6697424e-06
1.4864299e-06
1.3416618e-06
1.2244423e-06
1.1275945e-06
1.0462419e-06
9.7695473e-07
9.1724817e-07
8.6527545e-07
8.1963635e-07
7.7924981e-07
7.4326667e-07
7.1101084e-07
6.8193859e-07
6.556063e-07
6.316493e-07
6.0976517e-07
5.8970018e-07
5.7124133e-07
5.5420677e-07
5.384405e-07
5.2380744e-07
5.1019111e-07
4.9749291e-07
4.8563147e-07
4.7454429e-07
4.6417652e-07
4.5447269e-07
4.4539158e-07
4.3689919e-07
4.2896146e-07
4.2154413e-07
4.1461277e-07
4.0813351e-07
4.0207494e-07
3.9640735e-07
3.9110476e-07
3.8614452e-07
3.8150542e-07
3.7716916e-07
3.7312023e-07
3.6934396e-07
3.6582701e-07
3.6255771e-07
3.5952404e-07
3.567121e-07
3.5411257e-07
3.5171284e-07
3.4950307e-07
3.4746854e-07
3.4559537e-07
3.4389225e-07
3.4235384e-07
3.4096652e-07
3.3971918e-07
3.3860786e-07
3.376325e-07
3.3678004e-07
3.360422e-07
3.354155e-07
3.3489012e-07
3.3445448e-07
3.3409529e-07
3.3380272e-07
3.335759e-07
3.3341322e-07
3.3332479e-07
3.3331968e-07
3.3340605e-07
3.3359947e-07
3.3394333e-07
3.3450323e-07
3.3526439e-07
3.3624071e-07
3.3749607e-07
3.3909205e-07
3.410926e-07
3.4356579e-07
3.4660863e-07
3.5037228e-07
3.5509892e-07
3.6114099e-07
3.6891172e-07
3.7865922e-07
3.9036044e-07
4.0376199e-07
4.1884114e-07
4.357846e-07
4.5491846e-07
4.7655276e-07
5.0084155e-07
5.278799e-07
5.5778062e-07
5.9069439e-07
6.2679769e-07
6.6629578e-07
7.0930263e-07
7.5664063e-07
8.054218e-07
8.7199887e-07
3.3557375e-06
2.6923491e-06
2.2343718e-06
1.9097671e-06
1.6703376e-06
1.4870124e-06
1.3422245e-06
1.2249833e-06
1.128114e-06
1.0467416e-06
9.7743674e-07
9.1771341e-07
8.657259e-07
8.2007437e-07
7.7967713e-07
7.4368468e-07
7.1142138e-07
6.8234334e-07
6.5600686e-07
6.3204703e-07
6.1016138e-07
5.9009641e-07
5.7163878e-07
5.5460672e-07
5.3884411e-07
5.2421618e-07
5.1060586e-07
4.9791489e-07
4.8606222e-07
4.7498457e-07
4.6462676e-07
4.5493386e-07
4.4586515e-07
4.3738572e-07
4.2946167e-07
4.2205848e-07
4.1514169e-07
4.0867783e-07
4.0263517e-07
3.9698454e-07
3.9169904e-07
3.8675585e-07
3.8213464e-07
3.7781622e-07
3.7378455e-07
3.7002491e-07
3.6652404e-07
3.6326955e-07
3.6024956e-07
3.5745362e-07
3.5486975e-07
3.5249029e-07
3.503046e-07
3.4830114e-07
3.4647286e-07
3.4480957e-07
3.4330341e-07
3.4194492e-07
3.4072561e-07
3.3963729e-07
3.3866875e-07
3.3780969e-07
3.3705104e-07
3.3638431e-07
3.3580286e-07
3.3529925e-07
3.3486762e-07
3.34504e-07
3.3420688e-07
3.3397838e-07
3.3381871e-07
3.3374122e-07
3.3375194e-07
3.3386536e-07
3.3409643e-07
3.3447007e-07
3.3505957e-07
3.3587106e-07
3.3691287e-07
3.3825657e-07
3.3996761e-07
3.4209576e-07
3.4470085e-07
3.4784805e-07
3.5164934e-07
3.5632009e-07
3.622005e-07
3.6970041e-07
3.7912122e-07
3.9045416e-07
4.0350181e-07
4.1833432e-07
4.3516503e-07
4.5427604e-07
4.7585179e-07
4.9995397e-07
5.2662262e-07
5.5592829e-07
5.879975e-07
6.2300905e-07
6.6101411e-07
7.0288894e-07
7.4553316e-07
8.0267918e-07
3.3558635e-06
2.6927565e-06
2.2348994e-06
1.910336e-06
1.670911e-06
1.487574e-06
1.3427675e-06
1.225505e-06
1.1286141e-06
1.0472207e-06
9.7789505e-07
9.1815214e-07
8.6614612e-07
8.2047678e-07
7.8006216e-07
7.4405294e-07
7.1177342e-07
6.8267958e-07
6.5632775e-07
6.3235267e-07
6.104519e-07
5.903723e-07
5.7189985e-07
5.54853e-07
5.3907554e-07
5.244324e-07
5.1080722e-07
4.9810148e-07
4.8623401e-07
4.7514144e-07
4.6476887e-07
4.550615e-07
4.4597865e-07
4.3748495e-07
4.2954629e-07
4.2212854e-07
4.1519714e-07
4.087191e-07
4.0266217e-07
3.9699796e-07
3.9170028e-07
3.867436e-07
3.8210898e-07
3.7777841e-07
3.7373389e-07
3.6996127e-07
3.664472e-07
3.631792e-07
3.601456e-07
3.5733519e-07
3.5473754e-07
3.5234238e-07
3.5013946e-07
3.4811954e-07
3.4627307e-07
3.4459149e-07
3.430657e-07
3.4168368e-07
3.4043572e-07
3.3931303e-07
3.3830648e-07
3.3740756e-07
3.3660748e-07
3.358977e-07
3.3527139e-07
3.3472068e-07
3.3423939e-07
3.3382225e-07
3.3346633e-07
3.3317099e-07
3.3293728e-07
3.3277056e-07
3.3267349e-07
3.3265941e-07
3.3274933e-07
3.3298381e-07
3.3342774e-07
3.3406506e-07
3.3494987e-07
3.3612908e-07
3.3764855e-07
3.3955967e-07
3.419175e-07
3.4477135e-07
3.4817703e-07
3.5223436e-07
3.5715597e-07
3.6328819e-07
3.7102643e-07
3.8059607e-07
3.919169e-07
4.0481849e-07
4.1941864e-07
4.3597881e-07
4.5475126e-07
4.7589239e-07
4.9946019e-07
5.2548143e-07
5.5400219e-07
5.8512157e-07
6.1883312e-07
6.5588283e-07
6.9378151e-07
7.4339887e-07
3.3560075e-06
2.6931742e-06
2.2354318e-06
1.9109041e-06
1.6714793e-06
1.4881271e-06
1.3433003e-06
1.2260162e-06
1.1291037e-06
1.0476895e-06
9.7834469e-07
9.1858446e-07
8.6656275e-07
8.208792e-07
7.8045164e-07
7.4443106e-07
7.1214137e-07
6.8303822e-07
6.5667842e-07
6.3269653e-07
6.1078963e-07
5.9070493e-07
5.7222822e-07
5.5517741e-07
5.3939669e-07
5.2475081e-07
5.1112355e-07
4.9841698e-07
4.8655026e-07
4.7545923e-07
4.6508801e-07
4.5538287e-07
4.4630366e-07
4.378145e-07
4.2988031e-07
4.2246711e-07
4.1554098e-07
4.0906826e-07
4.0301742e-07
3.973592e-07
3.9206727e-07
3.8711877e-07
3.824918e-07
3.7816723e-07
3.7412977e-07
3.7036463e-07
3.6685704e-07
3.6359503e-07
3.6056677e-07
3.5776116e-07
3.5516717e-07
3.5277508e-07
3.5057489e-07
3.4855619e-07
3.4671048e-07
3.4502765e-07
3.4349812e-07
3.4211136e-07
3.4085984e-07
3.3973461e-07
3.3872311e-07
3.3781675e-07
3.370074e-07
3.3628548e-07
3.3564286e-07
3.3507232e-07
3.3456656e-07
3.3412065e-07
3.3373084e-07
3.3339489e-07
3.3311367e-07
3.3288937e-07
3.3272837e-07
3.3264375e-07
3.3265202e-07
3.3279198e-07
3.3309335e-07
3.335851e-07
3.3429966e-07
3.3527577e-07
3.3655812e-07
3.3819823e-07
3.4025296e-07
3.4277715e-07
3.4582072e-07
3.494385e-07
3.5373556e-07
3.5893513e-07
3.6538725e-07
3.7344043e-07
3.8321656e-07
3.9459279e-07
4.0745209e-07
4.2191425e-07
4.3821451e-07
4.5656086e-07
4.7707914e-07
4.9985526e-07
5.2494815e-07
5.5243013e-07
5.8226385e-07
6.1501938e-07
6.4867796e-07
6.9225703e-07
3.3561606e-06
2.6935813e-06
2.2359442e-06
1.9114507e-06
1.6720282e-06
1.4886639e-06
1.3438185e-06
1.2265134e-06
1.12958e-06
1.0481455e-06
9.7878149e-07
9.1900353e-07
8.6696478e-07
8.2126531e-07
7.8082285e-07
7.4478804e-07
7.1248519e-07
6.8336967e-07
6.5699804e-07
6.3300459e-07
6.1108671e-07
5.9099118e-07
5.7250391e-07
5.5544278e-07
5.3965182e-07
5.2499607e-07
5.1135969e-07
4.9864486e-07
4.8677034e-07
4.7567146e-07
4.652924e-07
4.5558085e-07
4.4649618e-07
4.3800182e-07
4.3006214e-07
4.2264362e-07
4.1571236e-07
4.0923479e-07
4.0317933e-07
3.975176e-07
3.9222261e-07
3.8727011e-07
3.8263997e-07
3.7831291e-07
3.7427251e-07
3.7050415e-07
3.6699326e-07
3.6372754e-07
3.6069547e-07
3.5788515e-07
3.5528635e-07
3.5288897e-07
3.5068229e-07
3.4865697e-07
3.4680367e-07
3.4511203e-07
3.4357288e-07
3.421761e-07
3.4091097e-07
3.3976876e-07
3.3874003e-07
3.3781443e-07
3.3698271e-07
3.3623573e-07
3.3556538e-07
3.3496386e-07
3.3442379e-07
3.3393936e-07
3.335063e-07
3.331217e-07
3.3278538e-07
3.3249789e-07
3.3226473e-07
3.3209837e-07
3.3201613e-07
3.3205628e-07
3.3224627e-07
3.3261332e-07
3.3318868e-07
3.3400767e-07
3.3510989e-07
3.3654158e-07
3.3835599e-07
3.4060913e-07
3.4335419e-07
3.4664313e-07
3.5054942e-07
3.5521102e-07
3.6087294e-07
3.6785442e-07
3.7640344e-07
3.865437e-07
3.9814052e-07
4.1113545e-07
4.2563679e-07
4.4180528e-07
4.5978528e-07
4.7967807e-07
5.0158302e-07
5.2561125e-07
5.5176521e-07
5.8052596e-07
6.1023371e-07
6.4841504e-07
3.3563277e-06
2.693995e-06
2.2364591e-06
1.9119948e-06
1.6725697e-06
1.4891901e-06
1.3443246e-06
1.2269981e-06
1.1300436e-06
1.0485893e-06
9.7920729e-07
9.1941206e-07
8.6735761e-07
8.2164369e-07
7.8118774e-07
7.4514089e-07
7.1282698e-07
6.8370096e-07
6.5731967e-07
6.3331752e-07
6.1139188e-07
5.9128912e-07
5.7279543e-07
5.5572846e-07
5.3993187e-07
5.2527115e-07
5.1163047e-07
4.9891234e-07
4.870353e-07
4.7593461e-07
4.6555452e-07
4.5584295e-07
4.4675953e-07
4.3826675e-07
4.3032935e-07
4.2291332e-07
4.1598459e-07
4.0951005e-07
4.0345829e-07
3.9780054e-07
3.9250969e-07
3.8756183e-07
3.829364e-07
3.7861401e-07
3.7457818e-07
3.7081428e-07
3.6730741e-07
3.6404503e-07
3.6101641e-07
3.5820959e-07
3.5561312e-07
3.532174e-07
3.51012e-07
3.489867e-07
3.4713254e-07
3.4543919e-07
3.4389707e-07
3.4249675e-07
3.4122722e-07
3.4007919e-07
3.3904331e-07
3.38109e-07
3.3726753e-07
3.365089e-07
3.3582433e-07
3.3520568e-07
3.346459e-07
3.3413772e-07
3.3367705e-07
3.3326142e-07
3.3288762e-07
3.3255672e-07
3.3227494e-07
3.3205269e-07
3.319056e-07
3.3186817e-07
3.3196531e-07
3.3222194e-07
3.3266667e-07
3.3333306e-07
3.3425846e-07
3.3548611e-07
3.3706578e-07
3.3905166e-07
3.414967e-07
3.4445314e-07
3.4798424e-07
3.5219373e-07
3.5725668e-07
3.6341956e-07
3.7093998e-07
3.7996529e-07
3.9046348e-07
4.0232917e-07
4.1553927e-07
4.3017482e-07
4.4632998e-07
4.6406546e-07
4.834493e-07
5.0458234e-07
5.2750291e-07
5.5263192e-07
5.7869157e-07
6.1182529e-07
3.3565013e-06
2.694398e-06
2.2369569e-06
1.912522e-06
1.6730957e-06
1.4897022e-06
1.3448178e-06
1.2274707e-06
1.1304957e-06
1.049022e-06
9.7962157e-07
9.1980915e-07
8.6773874e-07
8.2200958e-07
7.8153986e-07
7.4548042e-07
7.131547e-07
6.8401787e-07
6.5762612e-07
6.3361413e-07
6.116792e-07
5.9156762e-07
5.7306533e-07
5.559901e-07
5.4018568e-07
5.2551732e-07
5.1186914e-07
4.9914423e-07
4.8726174e-07
4.7615653e-07
4.6577261e-07
4.5605864e-07
4.4697378e-07
4.3848003e-07
4.3054222e-07
4.2312623e-07
4.1619725e-07
4.0972282e-07
4.0367168e-07
3.9801453e-07
3.9272508e-07
3.8777923e-07
3.8315599e-07
3.7883575e-07
3.7480197e-07
3.7103961e-07
3.6753422e-07
3.6427376e-07
3.6124658e-07
3.5843977e-07
3.5584313e-07
3.5344723e-07
3.512408e-07
3.4921378e-07
3.4735743e-07
3.456609e-07
3.4411469e-07
3.4270943e-07
3.4143363e-07
3.4027812e-07
3.3923379e-07
3.3828926e-07
3.374347e-07
3.3666135e-07
3.3595989e-07
3.3532236e-07
3.3474016e-07
3.342062e-07
3.3371579e-07
3.3326537e-07
3.328538e-07
3.3247931e-07
3.321476e-07
3.3186778e-07
3.3165654e-07
3.3154655e-07
3.3156101e-07
3.3172331e-07
3.3206031e-07
3.3260323e-07
3.3338655e-07
3.3445016e-07
3.3583964e-07
3.3760491e-07
3.3979834e-07
3.4247131e-07
3.4568489e-07
3.4953427e-07
3.5416649e-07
3.5977205e-07
3.6654992e-07
3.7465668e-07
3.8415131e-07
3.9499774e-07
4.0714063e-07
4.2059673e-07
4.3539723e-07
4.515675e-07
4.6913759e-07
4.8814501e-07
5.0860276e-07
5.3082059e-07
5.53839e-07
5.8249177e-07
3.3566844e-06
2.6948031e-06
2.2374514e-06
1.9130405e-06
1.6736104e-06
1.4902015e-06
1.3452977e-06
1.2279303e-06
1.1309352e-06
1.0494426e-06
9.800241e-07
9.2019491e-07
8.6810939e-07
8.2236623e-07
7.8188354e-07
7.4581213e-07
7.1347515e-07
6.8432796e-07
6.579265e-07
6.3390564e-07
6.1196236e-07
5.918431e-07
5.7333391e-07
5.562521e-07
5.404411e-07
5.2576653e-07
5.12113e-07
4.9938366e-07
4.8749827e-07
4.7639118e-07
4.6600603e-07
4.5629266e-07
4.4720938e-07
4.3871807e-07
4.3078318e-07
4.2337013e-07
4.1644466e-07
4.0997423e-07
4.0392782e-07
3.9827577e-07
3.9299164e-07
3.8805116e-07
3.8343308e-07
3.7911837e-07
3.7509025e-07
3.7133306e-07
3.6783287e-07
3.6457693e-07
3.6155314e-07
3.587502e-07
3.5615749e-07
3.5376433e-07
3.5156064e-07
3.4953599e-07
3.4768098e-07
3.4598522e-07
3.4443896e-07
3.4303217e-07
3.4175425e-07
3.405962e-07
3.3954746e-07
3.3859795e-07
3.3773742e-07
3.3695637e-07
3.3624601e-07
3.3559629e-07
3.3499975e-07
3.3444962e-07
3.3393991e-07
3.3346597e-07
3.330263e-07
3.3261904e-07
3.3225017e-07
3.3192673e-07
3.3166573e-07
3.3149711e-07
3.3144119e-07
3.3152091e-07
3.317594e-07
3.321894e-07
3.3284304e-07
3.3375315e-07
3.3496528e-07
3.3652757e-07
3.3849102e-07
3.4090523e-07
3.4382415e-07
3.4733263e-07
3.5157436e-07
3.567369e-07
3.6298943e-07
3.7043799e-07
3.7912683e-07
3.890588e-07
4.0021902e-07
4.1262082e-07
4.2628737e-07
4.4121929e-07
4.5740691e-07
4.7484607e-07
4.9352902e-07
5.1364332e-07
5.3447615e-07
5.5960969e-07
3.3568698e-06
2.6951981e-06
2.2379304e-06
1.9135437e-06
1.6741115e-06
1.4906879e-06
1.3457651e-06
1.2283778e-06
1.1313628e-06
1.0498513e-06
9.8041505e-07
9.2056934e-07
8.6846846e-07
8.2271132e-07
7.8221562e-07
7.4613192e-07
7.1378369e-07
6.8462619e-07
6.5821517e-07
6.341852e-07
6.1223365e-07
5.9210668e-07
5.7358972e-07
5.5650028e-07
5.4068202e-07
5.2600049e-07
5.1234076e-07
4.9960636e-07
4.8771714e-07
4.7660787e-07
4.6622139e-07
4.5650821e-07
4.4742628e-07
4.3893722e-07
4.3100507e-07
4.2359482e-07
4.1667291e-07
4.1020693e-07
4.04165e-07
3.9851763e-07
3.9323874e-07
3.8830387e-07
3.8369145e-07
3.7938231e-07
3.7535927e-07
3.7160724e-07
3.6811206e-07
3.648608e-07
3.6184158e-07
3.5904304e-07
3.564547e-07
3.5406509e-07
3.5186389e-07
3.4984193e-07
3.4798884e-07
3.4629413e-07
3.4474884e-07
3.4334176e-07
3.4206365e-07
3.4090511e-07
3.3985336e-07
3.3889947e-07
3.3803373e-07
3.3724575e-07
3.3652693e-07
3.3586625e-07
3.352591e-07
3.3469562e-07
3.3416738e-07
3.3367278e-07
3.3320646e-07
3.3276801e-07
3.3236403e-07
3.3199992e-07
3.316923e-07
3.3146998e-07
3.3135279e-07
3.3136074e-07
3.3151704e-07
3.3184979e-07
3.3239098e-07
3.3317595e-07
3.3424157e-07
3.356322e-07
3.3739794e-07
3.395898e-07
3.4225947e-07
3.4547789e-07
3.4937448e-07
3.541481e-07
3.5999822e-07
3.670266e-07
3.7521987e-07
3.8452018e-07
3.9489681e-07
4.0636985e-07
4.1899989e-07
4.3281307e-07
4.4780921e-07
4.6396607e-07
4.8126255e-07
4.9979291e-07
5.1904782e-07
5.4170017e-07
3.3570579e-06
2.695587e-06
2.2383998e-06
1.9140348e-06
1.6745981e-06
1.4911594e-06
1.3462173e-06
1.2288102e-06
1.1317763e-06
1.0502466e-06
9.8079336e-07
9.2093181e-07
8.6881619e-07
8.2304537e-07
7.8253694e-07
7.4644183e-07
7.140831e-07
6.8491539e-07
6.58495e-07
6.3445652e-07
6.1249699e-07
5.9236233e-07
5.7383794e-07
5.5674158e-07
5.4091686e-07
5.2622928e-07
5.1256425e-07
4.9982595e-07
4.8793446e-07
4.7682383e-07
4.6643742e-07
4.5672647e-07
4.4764795e-07
4.3916276e-07
4.3123548e-07
4.2383098e-07
4.1691554e-07
4.1045636e-07
4.0442138e-07
3.987815e-07
3.9351042e-07
3.8858326e-07
3.8397836e-07
3.7967696e-07
3.7566162e-07
3.7191693e-07
3.6842901e-07
3.6518471e-07
3.6217244e-07
3.5938024e-07
3.5679731e-07
3.5441385e-07
3.5221861e-07
3.5020145e-07
3.4835306e-07
3.4666274e-07
3.4512082e-07
3.4371718e-07
3.4244109e-07
3.4128328e-07
3.4023244e-07
3.3927935e-07
3.3841337e-07
3.3762348e-07
3.3689984e-07
3.3623424e-07
3.356188e-07
3.3504363e-07
3.3450284e-07
3.3399231e-07
3.335084e-07
3.3304919e-07
3.3261947e-07
3.3222442e-07
3.3188092e-07
3.3161455e-07
3.3144416e-07
3.3138957e-07
3.3147291e-07
3.3171941e-07
3.3215917e-07
3.32827e-07
3.3375918e-07
3.3499622e-07
3.3658505e-07
3.3857711e-07
3.4102556e-07
3.4399111e-07
3.4757708e-07
3.5196964e-07
3.5740846e-07
3.6407069e-07
3.7196949e-07
3.8098216e-07
3.9097013e-07
4.0187097e-07
4.1372554e-07
4.2659355e-07
4.4052337e-07
4.555239e-07
4.7160387e-07
4.8881529e-07
5.0677383e-07
5.2755871e-07
3.3572451e-06
2.695966e-06
2.238855e-06
1.9145101e-06
1.6750693e-06
1.4916162e-06
1.3466559e-06
1.2292296e-06
1.1321766e-06
1.0506288e-06
9.8115849e-07
9.2128143e-07
8.6915143e-07
8.2336754e-07
7.8284709e-07
7.4674039e-07
7.1437095e-07
6.8519347e-07
6.587641e-07
6.3471747e-07
6.127501e-07
5.926078e-07
5.7407635e-07
5.5697304e-07
5.4114145e-07
5.2644766e-07
5.1277716e-07
5.000347e-07
4.8814058e-07
4.7702949e-07
4.666443e-07
4.5693559e-07
4.4786103e-07
4.3938157e-07
4.3146045e-07
4.2406279e-07
4.1715472e-07
4.107034e-07
4.0467701e-07
3.990463e-07
3.9378421e-07
3.8886588e-07
3.8427001e-07
3.7997743e-07
3.7597099e-07
3.7223516e-07
3.6875548e-07
3.6551978e-07
3.6251553e-07
3.597309e-07
3.5715589e-07
3.5477947e-07
3.5259063e-07
3.5058039e-07
3.4873843e-07
3.4705388e-07
3.4551772e-07
3.4411948e-07
3.4284808e-07
3.4169384e-07
3.4064568e-07
3.3969368e-07
3.3882774e-07
3.3803684e-07
3.3731238e-07
3.3664343e-07
3.3602177e-07
3.3543977e-07
3.3489096e-07
3.3436962e-07
3.3387041e-07
3.3339155e-07
3.3293996e-07
3.3252043e-07
3.3214623e-07
3.3184252e-07
3.3162769e-07
3.3151953e-07
3.3153994e-07
3.3171319e-07
3.3206764e-07
3.3263521e-07
3.3345141e-07
3.3455485e-07
3.3598912e-07
3.3780426e-07
3.4005696e-07
3.4280883e-07
3.4613981e-07
3.5019331e-07
3.5520077e-07
3.6141086e-07
3.6896009e-07
3.7778639e-07
3.8769235e-07
3.9848213e-07
4.1005828e-07
4.2242617e-07
4.3563298e-07
4.4971777e-07
4.6474075e-07
4.8077522e-07
4.9755301e-07
5.1672609e-07
3.3574319e-06
2.6963356e-06
2.2392972e-06
1.9149711e-06
1.6755253e-06
1.4920581e-06
1.3470795e-06
1.2296341e-06
1.1325628e-06
1.0509977e-06
9.8151113e-07
9.2161898e-07
8.6947532e-07
8.2367863e-07
7.8314631e-07
7.4702875e-07
7.1464925e-07
6.8546234e-07
6.5902423e-07
6.3496931e-07
6.1299411e-07
5.9284455e-07
5.7430617e-07
5.5719624e-07
5.4135815e-07
5.2665812e-07
5.1298284e-07
5.0023723e-07
4.8834194e-07
4.7723083e-07
4.6684756e-07
4.5714344e-07
4.4807473e-07
4.3960229e-07
4.3168949e-07
4.2430109e-07
4.1740329e-07
4.1096257e-07
4.0494737e-07
3.9932799e-07
3.9407696e-07
3.891697e-07
3.8458484e-07
3.8030359e-07
3.7630789e-07
3.7258222e-07
3.6911299e-07
3.6588768e-07
3.628933e-07
3.601188e-07
3.5755393e-07
3.5518679e-07
3.5300724e-07
3.5100582e-07
3.4917268e-07
3.4749675e-07
3.4596813e-07
3.4457718e-07
3.4331244e-07
3.4216481e-07
3.4112272e-07
3.4017561e-07
3.3931455e-07
3.3852648e-07
3.378032e-07
3.3713539e-07
3.3651239e-07
3.3592761e-07
3.3537251e-07
3.3484216e-07
3.3433274e-07
3.3384231e-07
3.3337432e-07
3.3293255e-07
3.3253429e-07
3.3220063e-07
3.3195011e-07
3.3179903e-07
3.3176454e-07
3.3187351e-07
3.321519e-07
3.3263082e-07
3.3334424e-07
3.3432887e-07
3.3562616e-07
3.3728323e-07
3.3935719e-07
3.4191484e-07
3.4502965e-07
3.488053e-07
3.5341634e-07
3.591067e-07
3.6610817e-07
3.7451647e-07
3.8423923e-07
3.9505689e-07
4.0673771e-07
4.191385e-07
4.3219025e-07
4.4588668e-07
4.6027319e-07
4.7543909e-07
4.9121153e-07
5.0896442e-07
3.3576183e-06
2.6966974e-06
2.2397279e-06
1.9154189e-06
1.6759676e-06
1.4924858e-06
1.3474894e-06
1.2300253e-06
1.1329362e-06
1.051354e-06
9.8185168e-07
9.2194507e-07
8.6978789e-07
8.2397877e-07
7.8343495e-07
7.4730652e-07
7.1491696e-07
6.8572092e-07
6.5927407e-07
6.3521114e-07
6.1322864e-07
5.9307216e-07
5.7452702e-07
5.5741032e-07
5.4156559e-07
5.2685957e-07
5.1317937e-07
5.0043058e-07
4.8853454e-07
4.7742544e-07
4.6704585e-07
4.5734702e-07
4.4828593e-07
4.398221e-07
4.3191928e-07
4.2454247e-07
4.1765694e-07
4.1122964e-07
4.0522809e-07
3.9962212e-07
3.9438423e-07
3.8949026e-07
3.8491846e-07
3.8064924e-07
3.7666575e-07
3.7295251e-07
3.6949568e-07
3.6628241e-07
3.6329994e-07
3.6053711e-07
3.5798351e-07
3.5562784e-07
3.5346027e-07
3.5147032e-07
3.4964779e-07
3.479823e-07
3.4646389e-07
3.4508304e-07
3.4382754e-07
3.426882e-07
3.416542e-07
3.407144e-07
3.3985887e-07
3.3907682e-07
3.383582e-07
3.3769346e-07
3.3707271e-07
3.36488e-07
3.3593208e-07
3.3539807e-07
3.3488108e-07
3.3438071e-07
3.3390024e-07
3.3344238e-07
3.3302407e-07
3.3266567e-07
3.3238381e-07
3.3219449e-07
3.3211625e-07
3.3217042e-07
3.32385e-07
3.3278769e-07
3.3341153e-07
3.3429248e-07
3.3546985e-07
3.3698864e-07
3.3890372e-07
3.412837e-07
3.4420619e-07
3.4775746e-07
3.520555e-07
3.5727807e-07
3.6364951e-07
3.713654e-07
3.8050137e-07
3.9098016e-07
4.0260474e-07
4.1515295e-07
4.2841417e-07
4.4224101e-07
4.5657229e-07
4.7144166e-07
4.8668022e-07
5.0347412e-07
3.3578068e-06
2.697051e-06
2.2401462e-06
1.9158533e-06
1.6763963e-06
1.4928998e-06
1.347886e-06
1.2304039e-06
1.1332973e-06
1.0516985e-06
9.8218083e-07
9.2226012e-07
8.7008969e-07
8.2426829e-07
7.8371317e-07
7.4757439e-07
7.1517504e-07
6.8597011e-07
6.5951511e-07
6.3544411e-07
6.1345417e-07
5.932908e-07
5.7473875e-07
5.5761532e-07
5.4176414e-07
5.270525e-07
5.1336817e-07
5.0061757e-07
4.8872204e-07
4.7761515e-07
4.6724078e-07
4.5754946e-07
4.4849719e-07
4.4004467e-07
4.321548e-07
4.2479245e-07
4.1792281e-07
4.1151135e-07
4.0552571e-07
3.9993588e-07
3.9471373e-07
3.8983505e-07
3.8527851e-07
3.8102409e-07
3.7705519e-07
3.7335642e-07
3.6991353e-07
3.6671426e-07
3.63746e-07
3.6099754e-07
3.5845811e-07
3.5611617e-07
3.5396211e-07
3.5198571e-07
3.5017615e-07
3.4852382e-07
3.4701789e-07
3.4564821e-07
3.4440518e-07
3.4327758e-07
3.4225416e-07
3.4132473e-07
3.4047884e-07
3.3970587e-07
3.3899515e-07
3.3833641e-07
3.3772028e-07
3.3713881e-07
3.3658424e-07
3.3604962e-07
3.3553038e-07
3.3502486e-07
3.3453625e-07
3.3406724e-07
3.3363416e-07
3.3325645e-07
3.3294883e-07
3.327273e-07
3.3261031e-07
3.3261861e-07
3.3277648e-07
3.3311453e-07
3.3366124e-07
3.3445118e-07
3.3552307e-07
3.3692025e-07
3.3869454e-07
3.4091201e-07
3.4365347e-07
3.4700582e-07
3.5106081e-07
3.5593097e-07
3.6176921e-07
3.6875682e-07
3.7704902e-07
3.8671909e-07
3.9773063e-07
4.0995072e-07
4.2318565e-07
4.3719419e-07
4.51766e-07
4.6681003e-07
4.8204237e-07
4.9860615e-07
3.3579931e-06
2.6973973e-06
2.240554e-06
1.9162751e-06
1.6768116e-06
1.4933007e-06
1.3482697e-06
1.23077e-06
1.1336462e-06
1.0520312e-06
9.8249867e-07
9.2256393e-07
8.7038032e-07
8.2454697e-07
7.83981e-07
7.4783201e-07
7.154233e-07
6.862094e-07
6.5974604e-07
6.3566768e-07
6.1367063e-07
5.9350037e-07
5.7494153e-07
5.5781137e-07
5.4195404e-07
5.2723715e-07
5.1354917e-07
5.0079729e-07
4.8890321e-07
4.7780036e-07
4.6743287e-07
4.5775068e-07
4.487099e-07
4.4027123e-07
4.3239721e-07
4.2505235e-07
4.1820126e-07
4.1180914e-07
4.0584302e-07
4.0027162e-07
3.9506741e-07
3.9020636e-07
3.8566683e-07
3.8142912e-07
3.7747694e-07
3.7379499e-07
3.7036862e-07
3.6718564e-07
3.6423389e-07
3.6150182e-07
3.5897845e-07
3.5665294e-07
3.5451508e-07
3.5255448e-07
3.5076061e-07
3.4912331e-07
3.4763335e-07
3.4627898e-07
3.4504916e-07
3.4393566e-07
3.4292642e-07
3.4200954e-07
3.411757e-07
3.4041323e-07
3.3971253e-07
3.3906319e-07
3.3845525e-07
3.3788092e-07
3.3733064e-07
3.3679843e-07
3.3627928e-07
3.357719e-07
3.3527845e-07
3.3480155e-07
3.3435744e-07
3.3396425e-07
3.3363653e-07
3.3338825e-07
3.3323763e-07
3.3320561e-07
3.333157e-07
3.3359498e-07
3.3407547e-07
3.3478785e-07
3.3576908e-07
3.370613e-07
3.3871378e-07
3.407886e-07
3.433641e-07
3.4652987e-07
3.5037507e-07
3.5498385e-07
3.6044672e-07
3.6687527e-07
3.7439848e-07
3.8313491e-07
3.9316193e-07
4.0448844e-07
4.1706037e-07
4.3070896e-07
4.4520961e-07
4.6040571e-07
4.7582323e-07
4.9268492e-07
3.3581823e-06
2.6977365e-06
2.2409504e-06
1.9166848e-06
1.6772152e-06
1.4936897e-06
1.3486413e-06
1.2311243e-06
1.1339835e-06
1.0523527e-06
9.8280517e-07
9.2285662e-07
8.7066048e-07
8.2481542e-07
7.8423846e-07
7.4807932e-07
7.1566148e-07
6.864392e-07
6.5996793e-07
6.3588217e-07
6.1387792e-07
5.9370085e-07
5.7513552e-07
5.5799887e-07
5.4213568e-07
5.274138e-07
5.1372301e-07
5.0097091e-07
4.8907936e-07
4.7798234e-07
4.6762319e-07
4.5795208e-07
4.4892571e-07
4.4050418e-07
4.326498e-07
4.2532673e-07
4.1849842e-07
4.1212914e-07
4.0618515e-07
4.0063533e-07
3.9545179e-07
3.9061058e-07
3.860904e-07
3.8187197e-07
3.7793887e-07
3.7427547e-07
3.7086815e-07
3.6770464e-07
3.6477184e-07
3.6205866e-07
3.5955414e-07
3.572473e-07
3.5512827e-07
3.5318584e-07
3.5141063e-07
3.4979179e-07
3.483187e-07
3.4698242e-07
3.4577046e-07
3.4467317e-07
3.4368053e-07
3.4277943e-07
3.4196018e-07
3.4121244e-07
3.4052447e-07
3.3988612e-07
3.3928831e-07
3.3872256e-07
3.3817929e-07
3.376516e-07
3.3713468e-07
3.3662759e-07
3.361321e-07
3.3565034e-07
3.3519867e-07
3.3479411e-07
3.3445038e-07
3.3418099e-07
3.3400248e-07
3.3393564e-07
3.3400361e-07
3.3423245e-07
3.3465228e-07
3.3529507e-07
3.3619605e-07
3.3739673e-07
3.389442e-07
3.4089659e-07
3.4332647e-07
3.4632e-07
3.499678e-07
3.5435254e-07
3.5954191e-07
3.6559714e-07
3.7258879e-07
3.8059615e-07
3.8970382e-07
3.9998562e-07
4.1149591e-07
4.2420808e-07
4.3799835e-07
4.5278216e-07
4.6801201e-07
4.8506595e-07
3.3583673e-06
2.6980661e-06
2.2413351e-06
1.9170815e-06
1.6776049e-06
1.4940654e-06
1.3490005e-06
1.2314661e-06
1.1343086e-06
1.0526625e-06
9.8310064e-07
9.2313851e-07
8.7093001e-07
8.2507369e-07
7.8448625e-07
7.483174e-07
7.1589044e-07
6.8665959e-07
6.6018044e-07
6.3608726e-07
6.1407612e-07
5.9389227e-07
5.7532036e-07
5.5817753e-07
5.4230842e-07
5.2758227e-07
5.1388938e-07
5.0113822e-07
4.8925101e-07
4.7816133e-07
4.678128e-07
4.5815587e-07
4.4914688e-07
4.4074641e-07
4.3291632e-07
4.2561938e-07
4.1881815e-07
4.124752e-07
4.0655654e-07
4.0103137e-07
3.9587141e-07
3.9105275e-07
3.865547e-07
3.8235795e-07
3.7844638e-07
3.7480467e-07
3.7141888e-07
3.6827707e-07
3.6536598e-07
3.6267407e-07
3.6019111e-07
3.5790612e-07
3.5580835e-07
3.538873e-07
3.5213307e-07
3.505352e-07
3.4908322e-07
3.4776659e-07
3.4657463e-07
3.4549696e-07
3.4452186e-07
3.4363898e-07
3.4283757e-07
3.4210548e-07
3.4143171e-07
3.4080696e-07
3.4022108e-07
3.3966455e-07
3.3912969e-07
3.3860857e-07
3.3809622e-07
3.3759119e-07
3.37096e-07
3.3661236e-07
3.3615553e-07
3.3574192e-07
3.3538463e-07
3.3509775e-07
3.3489699e-07
3.3480158e-07
3.3483396e-07
3.3502007e-07
3.3538704e-07
3.3596939e-07
3.3679886e-07
3.3791702e-07
3.3937062e-07
3.4121509e-07
3.4351808e-07
3.4635933e-07
3.4982527e-07
3.5399963e-07
3.589504e-07
3.6472666e-07
3.7136515e-07
3.788997e-07
3.8737505e-07
3.968439e-07
4.0737349e-07
4.190157e-07
4.3173989e-07
4.4557665e-07
4.6003475e-07
4.7661031e-07
3.3585532e-06
2.6983885e-06
2.2417089e-06
1.9174658e-06
1.6779822e-06
1.4944286e-06
1.3493471e-06
1.231796e-06
1.1346223e-06
1.0529607e-06
9.8338466e-07
9.234099e-07
8.7118965e-07
8.2532207e-07
7.8472431e-07
7.4854587e-07
7.1610972e-07
6.8687039e-07
6.6038349e-07
6.3628316e-07
6.1426512e-07
5.9407441e-07
5.7549585e-07
5.5834662e-07
5.4247218e-07
5.2774257e-07
5.1404895e-07
5.0130013e-07
4.8941867e-07
4.7833863e-07
4.680033e-07
4.5836389e-07
4.4937684e-07
4.4100254e-07
4.3320215e-07
4.2593627e-07
4.1916627e-07
4.1285406e-07
4.0696462e-07
4.0146684e-07
3.9633328e-07
3.9153967e-07
3.870662e-07
3.8289473e-07
3.7900742e-07
3.7539023e-07
3.7202912e-07
3.6891119e-07
3.6602433e-07
3.6335728e-07
3.6089925e-07
3.5863849e-07
3.5656515e-07
3.5466828e-07
3.5293782e-07
3.5136333e-07
3.4993471e-07
3.4864118e-07
3.4747082e-07
3.4641425e-07
3.4545974e-07
3.4459564e-07
3.4381172e-07
3.4309685e-07
3.4243959e-07
3.4182924e-07
3.4125603e-07
3.4071045e-07
3.4018475e-07
3.3967104e-07
3.3916353e-07
3.3866218e-07
3.3816836e-07
3.3768288e-07
3.3722355e-07
3.3680479e-07
3.3643811e-07
3.3613701e-07
3.3591753e-07
3.3579825e-07
3.358008e-07
3.3595078e-07
3.3627509e-07
3.3680388e-07
3.3757257e-07
3.3861877e-07
3.3998864e-07
3.417365e-07
3.4392665e-07
3.4663234e-07
3.4993428e-07
3.5391182e-07
3.5863506e-07
3.6415741e-07
3.7051116e-07
3.7771407e-07
3.8578039e-07
3.9472674e-07
4.0458272e-07
4.1539749e-07
4.2716295e-07
4.3995722e-07
4.5339029e-07
4.6889241e-07
3.3587348e-06
2.698702e-06
2.2420713e-06
1.9178374e-06
1.6783462e-06
1.4947788e-06
1.3496812e-06
1.2321136e-06
1.1349243e-06
1.0532479e-06
9.8365802e-07
9.2367034e-07
8.7143828e-07
8.2555985e-07