/*--------------------------------*- C++ -*----------------------------------*\
| =========                 |                                                 |
| \\      /  F ield         | OpenFOAM: The Open Source CFD Toolbox           |
|  \\    /   O peration     | Version:  2406                                  |
|   \\  /    A nd           | Website:  www.openfoam.com                      |
|    \\/     M anipulation  |                                                 |
\*---------------------------------------------------------------------------*/
FoamFile
{
    version     2.0;
    format      ascii;
    arch        "LSB;label=32;scalar=64";
    class       volScalarField;
    location    "1300";
    object      p;
}
// * * * * * * * * * * * * * * * * * * * * * * * * * * * * * * * * * * * * * //

dimensions      [1 -1 -2 0 0 0 0];

internalField   nonuniform List<scalar> 
132739
(
1.0028067
1.0028106
1.002823
1.0028378
1.002856
1.0028787
1.0029054
1.0029358
1.0029698
1.0030075
1.0030487
1.0030934
1.0031415
1.0031929
1.0032476
1.0033056
1.0033668
1.0034312
1.0034987
1.0035694
1.0036431
1.0037198
1.0037996
1.0038824
1.0039681
1.0040567
1.0041481
1.0042424
1.0043394
1.0044392
1.0045415
1.0046465
1.0047539
1.0048637
1.0049759
1.0050903
1.0052068
1.0053254
1.0054458
1.0055681
1.005692
1.0058174
1.0059442
1.0060723
1.0062014
1.0063314
1.0064622
1.0065936
1.0067255
1.0068576
1.0069899
1.007122
1.0072539
1.0073852
1.0075159
1.0076451
1.0077741
1.0079006
1.0080259
1.0081501
1.0082708
1.0083883
1.0085065
1.0086219
1.0087346
1.0088438
1.0089496
1.0090519
1.0091503
1.0092446
1.0093344
1.0094193
1.009499
1.009573
1.0096409
1.009702
1.0097557
1.0098011
1.0098374
1.0098639
1.0098797
1.0098839
1.0098756
1.0098539
1.0098176
1.0097659
1.0096974
1.0096112
1.009506
1.0093808
1.0092344
1.0090658
1.0088737
1.0086571
1.0084149
1.0081463
1.0078503
1.0075259
1.007173
1.0067901
1.0063791
1.0059374
1.0054757
1.004985
1.0028074
1.0028116
1.0028241
1.0028389
1.0028571
1.0028798
1.0029065
1.0029368
1.0029708
1.0030085
1.0030497
1.0030943
1.0031423
1.0031937
1.0032483
1.0033062
1.0033673
1.0034316
1.0034991
1.0035696
1.0036432
1.0037199
1.0037996
1.0038822
1.0039678
1.0040563
1.0041476
1.0042417
1.0043386
1.0044382
1.0045404
1.0046451
1.0047524
1.004862
1.004974
1.0050882
1.0052045
1.0053228
1.005443
1.0055649
1.0056885
1.0058136
1.00594
1.0060677
1.0061963
1.0063259
1.0064561
1.0065869
1.006718
1.0068493
1.0069806
1.0071117
1.0072426
1.0073726
1.0075019
1.0076296
1.0077566
1.0078818
1.0080053
1.0081282
1.0082479
1.0083645
1.0084797
1.008592
1.0087007
1.0088065
1.0089088
1.0090074
1.0091018
1.0091919
1.0092773
1.0093575
1.0094322
1.0095011
1.0095635
1.0096191
1.0096673
1.0097075
1.0097392
1.0097616
1.0097739
1.0097753
1.0097649
1.0097418
1.0097051
1.0096538
1.009587
1.0095037
1.009403
1.0092838
1.0091451
1.008986
1.0088055
1.0086026
1.0083765
1.0081264
1.0078514
1.0075508
1.0072241
1.0068701
1.0064886
1.0060774
1.005633
1.005157
1.002808
1.0028126
1.0028252
1.0028399
1.0028582
1.002881
1.0029076
1.002938
1.0029721
1.0030097
1.003051
1.0030956
1.0031437
1.0031951
1.0032498
1.0033078
1.003369
1.0034334
1.0035009
1.0035715
1.0036453
1.003722
1.0038018
1.0038846
1.0039703
1.0040589
1.0041503
1.0042446
1.0043416
1.0044413
1.0045437
1.0046486
1.0047559
1.0048657
1.0049779
1.0050922
1.0052086
1.005327
1.0054474
1.0055694
1.0056931
1.0058183
1.0059447
1.0060724
1.006201
1.0063305
1.0064607
1.0065913
1.0067221
1.0068529
1.0069837
1.0071141
1.0072441
1.0073733
1.0075015
1.0076288
1.0077549
1.0078791
1.0080014
1.0081224
1.0082407
1.0083561
1.0084693
1.008579
1.0086847
1.0087875
1.0088867
1.0089818
1.0090725
1.0091585
1.0092395
1.0093151
1.0093849
1.0094486
1.0095056
1.0095554
1.0095975
1.0096311
1.0096554
1.00967
1.0096741
1.009667
1.009648
1.0096164
1.0095712
1.0095117
1.0094369
1.0093459
1.0092379
1.0091119
1.008967
1.0088023
1.008617
1.0084102
1.008181
1.0079287
1.0076526
1.0073519
1.0070261
1.0066749
1.0062972
1.0058953
1.0054617
1.0050219
1.0028086
1.0028135
1.0028262
1.0028409
1.0028592
1.002882
1.0029086
1.002939
1.002973
1.0030107
1.0030519
1.0030966
1.0031446
1.003196
1.0032507
1.0033087
1.0033698
1.0034342
1.0035017
1.0035723
1.003646
1.0037227
1.0038025
1.0038852
1.0039708
1.0040594
1.0041508
1.004245
1.004342
1.0044417
1.004544
1.0046488
1.0047561
1.0048659
1.0049779
1.0050921
1.0052085
1.0053268
1.005447
1.0055689
1.0056925
1.0058174
1.0059437
1.0060711
1.0061995
1.0063287
1.0064585
1.0065887
1.0067191
1.0068495
1.0069797
1.0071096
1.0072387
1.0073671
1.007494
1.0076206
1.0077453
1.007868
1.0079888
1.008108
1.0082248
1.0083384
1.0084497
1.0085567
1.00866
1.00876
1.0088561
1.008948
1.0090352
1.0091174
1.0091945
1.0092658
1.0093312
1.0093901
1.0094422
1.0094869
1.0095239
1.0095523
1.0095716
1.0095812
1.0095805
1.0095686
1.0095447
1.0095082
1.0094581
1.0093936
1.009314
1.0092183
1.0091058
1.0089756
1.0088268
1.0086588
1.0084707
1.0082617
1.0080312
1.0077784
1.0075028
1.0072036
1.0068805
1.0065331
1.0061603
1.005764
1.005339
1.0048937
1.002809
1.0028144
1.0028271
1.0028417
1.0028601
1.0028829
1.0029095
1.0029399
1.002974
1.0030117
1.0030529
1.0030975
1.0031456
1.003197
1.0032518
1.0033097
1.0033709
1.0034353
1.0035028
1.0035735
1.0036472
1.003724
1.0038037
1.0038865
1.0039722
1.0040608
1.0041523
1.0042465
1.0043435
1.0044432
1.0045456
1.0046505
1.0047578
1.0048676
1.0049797
1.0050939
1.0052103
1.0053286
1.0054488
1.0055707
1.0056942
1.0058192
1.0059454
1.0060727
1.006201
1.00633
1.0064596
1.0065895
1.0067196
1.0068497
1.0069795
1.0071088
1.0072373
1.0073651
1.0074915
1.007617
1.0077408
1.0078626
1.0079822
1.0081
1.0082151
1.0083269
1.008436
1.0085411
1.0086424
1.00874
1.0088334
1.0089224
1.0090065
1.0090855
1.009159
1.0092266
1.009288
1.0093428
1.0093906
1.0094308
1.009463
1.0094863
1.0095003
1.0095043
1.0094978
1.0094802
1.0094506
1.0094086
1.0093533
1.0092839
1.0091997
1.0090999
1.0089838
1.0088506
1.0086994
1.0085296
1.0083404
1.0081312
1.0079013
1.00765
1.0073769
1.0070814
1.0067631
1.0064215
1.0060561
1.0056671
1.0052531
1.0048127
1.0028093
1.0028152
1.002828
1.0028425
1.0028609
1.0028837
1.0029104
1.0029408
1.0029748
1.0030125
1.0030537
1.0030984
1.0031464
1.0031978
1.0032526
1.0033105
1.0033717
1.0034361
1.0035036
1.0035742
1.0036479
1.0037247
1.0038044
1.0038872
1.0039729
1.0040614
1.0041529
1.0042471
1.0043441
1.0044438
1.0045461
1.004651
1.0047583
1.004868
1.00498
1.0050942
1.0052105
1.0053288
1.0054489
1.0055708
1.0056941
1.0058189
1.005945
1.0060722
1.0062002
1.006329
1.0064583
1.0065879
1.0067177
1.0068473
1.0069767
1.0071055
1.0072335
1.0073605
1.0074862
1.0076107
1.0077335
1.0078542
1.0079727
1.0080889
1.0082025
1.0083128
1.00842
1.0085233
1.0086225
1.0087177
1.0088086
1.0088949
1.0089761
1.0090519
1.0091221
1.0091862
1.0092439
1.0092947
1.0093384
1.0093743
1.0094021
1.009421
1.0094306
1.0094303
1.0094194
1.0093974
1.0093635
1.0093171
1.0092575
1.009184
1.0090958
1.0089922
1.0088726
1.0087362
1.0085824
1.0084105
1.0082198
1.0080097
1.0077796
1.007529
1.0072574
1.0069644
1.0066495
1.0063125
1.0059529
1.0055708
1.0051657
1.0047368
1.0028096
1.002816
1.0028288
1.0028433
1.0028617
1.0028845
1.0029112
1.0029415
1.0029756
1.0030133
1.0030545
1.0030991
1.0031472
1.0031986
1.0032533
1.0033113
1.0033725
1.0034369
1.0035044
1.003575
1.0036487
1.0037255
1.0038052
1.003888
1.0039737
1.0040623
1.0041537
1.0042479
1.0043449
1.0044446
1.0045469
1.0046518
1.0047591
1.0048688
1.0049808
1.005095
1.0052113
1.0053295
1.0054496
1.0055713
1.0056947
1.0058194
1.0059453
1.0060723
1.0062002
1.0063288
1.0064579
1.0065873
1.0067167
1.006846
1.006975
1.0071033
1.0072308
1.0073573
1.0074823
1.007606
1.007728
1.0078477
1.0079651
1.0080802
1.0081924
1.0083012
1.0084067
1.0085083
1.0086057
1.0086989
1.0087876
1.0088714
1.00895
1.0090231
1.0090904
1.0091514
1.0092058
1.0092533
1.0092933
1.0093256
1.0093496
1.0093645
1.0093698
1.0093652
1.0093499
1.0093235
1.0092853
1.0092346
1.0091709
1.0090935
1.0090017
1.0088949
1.0087724
1.0086335
1.0084775
1.008304
1.0081123
1.0079017
1.0076719
1.0074223
1.0071525
1.0068621
1.0065508
1.0062182
1.0058642
1.0054887
1.0050911
1.0046725
1.0028098
1.0028167
1.0028296
1.002844
1.0028624
1.0028852
1.0029119
1.0029422
1.0029763
1.003014
1.0030552
1.0030998
1.0031479
1.0031993
1.003254
1.003312
1.0033731
1.0034375
1.003505
1.0035756
1.0036493
1.003726
1.0038058
1.0038885
1.0039742
1.0040628
1.0041542
1.0042484
1.0043454
1.004445
1.0045473
1.0046521
1.0047594
1.0048691
1.004981
1.0050952
1.0052114
1.0053296
1.0054495
1.0055712
1.0056944
1.005819
1.0059448
1.0060717
1.0061994
1.0063278
1.0064566
1.0065858
1.0067149
1.0068438
1.0069724
1.0071003
1.0072273
1.0073532
1.0074776
1.0076005
1.0077216
1.0078405
1.0079569
1.0080707
1.0081816
1.0082891
1.0083931
1.0084931
1.0085888
1.00868
1.0087666
1.0088482
1.0089244
1.008995
1.0090595
1.0091176
1.009169
1.0092133
1.00925
1.0092788
1.0092991
1.0093104
1.0093121
1.0093038
1.0092849
1.0092549
1.0092131
1.0091589
1.0090918
1.0090111
1.0089163
1.0088066
1.0086815
1.0085404
1.0083827
1.0082079
1.0080153
1.0078046
1.0075752
1.0073267
1.0070587
1.0067709
1.006463
1.0061348
1.005786
1.0054169
1.0050262
1.0046171
1.0028099
1.0028174
1.0028303
1.0028446
1.0028631
1.0028859
1.0029125
1.0029429
1.0029769
1.0030146
1.0030558
1.0031005
1.0031485
1.0031999
1.0032546
1.0033125
1.0033737
1.0034381
1.0035055
1.0035761
1.0036498
1.0037266
1.0038063
1.003889
1.0039747
1.0040632
1.0041546
1.0042488
1.0043458
1.0044454
1.0045477
1.0046525
1.0047597
1.0048694
1.0049813
1.0050954
1.0052115
1.0053296
1.0054496
1.0055711
1.0056943
1.0058188
1.0059444
1.0060712
1.0061987
1.0063269
1.0064555
1.0065844
1.0067133
1.0068419
1.0069701
1.0070976
1.0072241
1.0073494
1.0074733
1.0075956
1.0077159
1.0078339
1.0079494
1.0080622
1.008172
1.0082783
1.0083809
1.0084794
1.0085735
1.0086631
1.0087478
1.0088274
1.0089015
1.0089698
1.0090319
1.0090874
1.0091361
1.0091776
1.0092114
1.0092371
1.0092544
1.0092624
1.0092608
1.0092491
1.0092267
1.0091932
1.009148
1.0090906
1.0090203
1.0089367
1.008839
1.0087268
1.0085995
1.0084565
1.0082973
1.0081214
1.0079283
1.0077175
1.0074886
1.0072412
1.006975
1.0066897
1.0063851
1.006061
1.005717
1.0053539
1.0049696
1.0045693
1.00281
1.002818
1.002831
1.0028452
1.0028637
1.0028865
1.0029131
1.0029435
1.0029775
1.0030152
1.0030564
1.003101
1.0031491
1.0032004
1.0032551
1.0033131
1.0033742
1.0034385
1.003506
1.0035766
1.0036502
1.003727
1.0038067
1.0038894
1.003975
1.0040635
1.0041549
1.0042491
1.004346
1.0044456
1.0045478
1.0046526
1.0047598
1.0048694
1.0049812
1.0050953
1.0052114
1.0053294
1.0054492
1.0055707
1.0056937
1.0058181
1.0059437
1.0060702
1.0061976
1.0063256
1.0064541
1.0065827
1.0067113
1.0068396
1.0069674
1.0070945
1.0072206
1.0073454
1.0074687
1.0075904
1.00771
1.0078273
1.0079419
1.0080537
1.0081624
1.0082676
1.0083689
1.0084661
1.0085588
1.0086468
1.0087298
1.0088076
1.0088797
1.0089459
1.0090058
1.009059
1.0091052
1.009144
1.0091751
1.0091981
1.0092124
1.0092175
1.0092129
1.0091983
1.009173
1.0091366
1.0090885
1.0090283
1.0089553
1.0088691
1.008769
1.0086547
1.0085255
1.0083809
1.0082205
1.0080438
1.0078502
1.0076395
1.0074113
1.0071651
1.0069007
1.0066178
1.0063163
1.0059961
1.0056568
1.0052993
1.004921
1.0045285
1.00281
1.0028187
1.0028316
1.0028457
1.0028642
1.0028871
1.0029137
1.002944
1.0029781
1.0030157
1.0030569
1.0031015
1.0031495
1.0032009
1.0032556
1.0033135
1.0033746
1.0034389
1.0035064
1.003577
1.0036506
1.0037273
1.003807
1.0038897
1.0039753
1.0040638
1.0041551
1.0042492
1.0043461
1.0044457
1.0045479
1.0046526
1.0047597
1.0048693
1.0049811
1.0050951
1.0052111
1.0053291
1.0054488
1.0055702
1.0056932
1.0058174
1.0059428
1.0060693
1.0061965
1.0063243
1.0064525
1.0065809
1.0067092
1.0068373
1.0069648
1.0070915
1.0072172
1.0073416
1.0074644
1.0075854
1.0077044
1.007821
1.0079349
1.0080458
1.0081535
1.0082576
1.0083579
1.0084538
1.0085452
1.0086318
1.0087133
1.0087894
1.0088598
1.0089241
1.008982
1.0090331
1.0090771
1.0091137
1.0091424
1.0091628
1.0091747
1.0091771
1.0091699
1.0091525
1.0091245
1.0090854
1.0090347
1.0089719
1.0088966
1.008808
1.0087059
1.0085897
1.0084589
1.008313
1.0081516
1.0079742
1.0077804
1.0075699
1.0073424
1.0070974
1.0068348
1.0065544
1.0062559
1.0059394
1.0056044
1.0052521
1.0048795
1.0044941
1.00281
1.0028192
1.0028321
1.0028462
1.0028647
1.0028876
1.0029142
1.0029445
1.0029786
1.0030162
1.0030573
1.003102
1.00315
1.0032013
1.003256
1.0033139
1.003375
1.0034393
1.0035067
1.0035773
1.0036509
1.0037275
1.0038072
1.0038898
1.0039754
1.0040639
1.0041552
1.0042493
1.0043461
1.0044457
1.0045478
1.0046525
1.0047596
1.0048691
1.0049808
1.0050947
1.0052107
1.0053286
1.0054482
1.0055695
1.0056924
1.0058165
1.0059418
1.0060681
1.0061951
1.0063228
1.0064508
1.006579
1.006707
1.0068348
1.006962
1.0070884
1.0072137
1.0073376
1.00746
1.0075805
1.0076989
1.0078148
1.0079279
1.0080381
1.0081449
1.0082481
1.0083473
1.0084421
1.0085324
1.0086176
1.0086978
1.0087724
1.0088411
1.0089037
1.0089598
1.009009
1.009051
1.0090855
1.009112
1.0091303
1.0091398
1.0091399
1.0091303
1.0091105
1.0090802
1.0090388
1.0089858
1.0089208
1.0088433
1.0087529
1.0086489
1.0085311
1.0083989
1.008252
1.0080897
1.0079119
1.0077181
1.0075079
1.0072811
1.0070374
1.0067766
1.0064985
1.0062029
1.0058899
1.005559
1.0052116
1.0048444
1.0044656
1.00281
1.0028197
1.0028327
1.0028467
1.0028652
1.0028881
1.0029147
1.002945
1.002979
1.0030166
1.0030578
1.0031024
1.0031504
1.0032017
1.0032563
1.0033142
1.0033753
1.0034396
1.003507
1.0035775
1.0036511
1.0037277
1.0038074
1.00389
1.0039755
1.0040639
1.0041552
1.0042493
1.0043461
1.0044455
1.0045476
1.0046522
1.0047593
1.0048687
1.0049804
1.0050943
1.0052101
1.0053279
1.0054475
1.0055688
1.0056915
1.0058155
1.0059407
1.0060668
1.0061937
1.0063212
1.006449
1.0065769
1.0067048
1.0068323
1.0069592
1.0070852
1.0072102
1.0073337
1.0074557
1.0075757
1.0076935
1.0078088
1.0079213
1.0080308
1.0081368
1.0082391
1.0083373
1.0084312
1.0085203
1.0086045
1.0086833
1.0087566
1.0088239
1.008885
1.0089394
1.0089869
1.0090272
1.0090598
1.0090844
1.0091006
1.0091081
1.0091062
1.0090944
1.0090726
1.0090401
1.0089966
1.0089416
1.0088747
1.0087953
1.0087031
1.0085977
1.0084785
1.0083451
1.0081973
1.0080344
1.0078563
1.0076625
1.0074528
1.0072269
1.0069844
1.0067254
1.0064495
1.0061567
1.0058471
1.0055201
1.0051772
1.004815
1.0044423
1.00281
1.0028202
1.0028331
1.0028471
1.0028657
1.0028885
1.0029151
1.0029454
1.0029794
1.003017
1.0030581
1.0031027
1.0031507
1.003202
1.0032566
1.0033145
1.0033756
1.0034398
1.0035072
1.0035777
1.0036512
1.0037278
1.0038074
1.00389
1.0039755
1.0040639
1.0041551
1.0042492
1.0043459
1.0044453
1.0045474
1.0046519
1.0047589
1.0048683
1.0049799
1.0050937
1.0052095
1.0053272
1.0054467
1.0055678
1.0056904
1.0058143
1.0059394
1.0060654
1.0061921
1.0063194
1.0064471
1.0065748
1.0067024
1.0068297
1.0069563
1.0070821
1.0072067
1.0073299
1.0074514
1.0075709
1.0076883
1.007803
1.0079149
1.0080237
1.008129
1.0082305
1.0083279
1.0084209
1.008509
1.0085921
1.0086698
1.0087418
1.0088079
1.0088675
1.0089206
1.0089665
1.0090052
1.0090361
1.009059
1.0090734
1.0090791
1.0090753
1.0090617
1.0090379
1.0090036
1.0089583
1.0089015
1.0088329
1.008752
1.0086583
1.0085515
1.0084312
1.0082969
1.0081483
1.0079851
1.0078068
1.0076132
1.007404
1.0071789
1.0069378
1.0066804
1.0064068
1.0061166
1.0058102
1.0054869
1.0051483
1.0047908
1.0044238
1.0028099
1.0028206
1.0028336
1.0028475
1.0028661
1.0028889
1.0029155
1.0029458
1.0029798
1.0030174
1.0030585
1.003103
1.003151
1.0032023
1.0032569
1.0033147
1.0033758
1.00344
1.0035073
1.0035778
1.0036513
1.0037279
1.0038075
1.00389
1.0039755
1.0040638
1.004155
1.004249
1.0043457
1.0044451
1.004547
1.0046515
1.0047585
1.0048678
1.0049793
1.005093
1.0052088
1.0053264
1.0054458
1.0055668
1.0056893
1.0058131
1.005938
1.0060639
1.0061905
1.0063176
1.0064451
1.0065726
1.0067001
1.0068271
1.0069534
1.0070789
1.0072032
1.007326
1.0074472
1.0075663
1.0076832
1.0077974
1.0079088
1.008017
1.0081216
1.0082224
1.008319
1.0084111
1.0084984
1.0085805
1.0086572
1.0087282
1.008793
1.0088515
1.0089032
1.0089478
1.008985
1.0090145
1.0090358
1.0090487
1.0090527
1.0090472
1.009032
1.0090066
1.0089706
1.0089237
1.0088654
1.0087953
1.008713
1.008618
1.0085101
1.0083889
1.0082538
1.0081047
1.0079411
1.0077628
1.0075695
1.0073608
1.0071367
1.0068969
1.0066412
1.0063697
1.0060821
1.0057787
1.0054589
1.0051244
1.0047713
1.0044095
1.0028098
1.002821
1.002834
1.0028478
1.0028664
1.0028893
1.0029158
1.0029461
1.0029801
1.0030177
1.0030588
1.0031033
1.0031513
1.0032025
1.0032571
1.0033149
1.0033759
1.0034401
1.0035074
1.0035779
1.0036514
1.0037279
1.0038074
1.0038899
1.0039754
1.0040637
1.0041548
1.0042487
1.0043454
1.0044447
1.0045466
1.0046511
1.004758
1.0048672
1.0049787
1.0050923
1.0052079
1.0053255
1.0054448
1.0055657
1.0056881
1.0058118
1.0059366
1.0060623
1.0061888
1.0063158
1.006443
1.0065704
1.0066976
1.0068244
1.0069505
1.0070757
1.0071997
1.0073223
1.007443
1.0075618
1.0076782
1.007792
1.0079029
1.0080105
1.0081145
1.0082147
1.0083106
1.0084019
1.0084884
1.0085697
1.0086455
1.0087154
1.0087792
1.0088366
1.0088871
1.0089305
1.0089665
1.0089946
1.0090145
1.009026
1.0090286
1.0090217
1.009005
1.0089781
1.0089407
1.0088924
1.0088328
1.0087614
1.0086779
1.0085819
1.008473
1.008351
1.0082153
1.0080658
1.0079021
1.0077238
1.0075308
1.0073229
1.0070997
1.0068612
1.0066072
1.0063377
1.0060526
1.0057521
1.0054356
1.0051049
1.004756
1.004399
1.0028097
1.0028214
1.0028344
1.0028481
1.0028668
1.0028896
1.0029161
1.0029464
1.0029804
1.0030179
1.003059
1.0031036
1.0031515
1.0032027
1.0032573
1.0033151
1.0033761
1.0034402
1.0035075
1.0035779
1.0036514
1.0037279
1.0038074
1.0038898
1.0039752
1.0040635
1.0041546
1.0042484
1.004345
1.0044443
1.0045462
1.0046505
1.0047574
1.0048665
1.0049779
1.0050915
1.005207
1.0053245
1.0054437
1.0055645
1.0056868
1.0058104
1.0059351
1.0060607
1.006187
1.0063138
1.0064409
1.0065681
1.0066951
1.0068217
1.0069476
1.0070725
1.0071963
1.0073185
1.007439
1.0075574
1.0076734
1.0077868
1.0078972
1.0080043
1.0081078
1.0082073
1.0083026
1.0083933
1.008479
1.0085595
1.0086345
1.0087036
1.0087665
1.0088228
1.0088723
1.0089146
1.0089494
1.0089764
1.0089951
1.0090053
1.0090066
1.0089985
1.0089805
1.0089524
1.0089137
1.0088642
1.0088034
1.0087309
1.0086464
1.0085495
1.0084399
1.0083172
1.0081811
1.0080313
1.0078675
1.0076894
1.0074969
1.0072896
1.0070674
1.0068302
1.0065779
1.0063104
1.0060276
1.0057299
1.0054165
1.0050894
1.0047445
1.004392
1.0028095
1.0028218
1.0028347
1.0028484
1.0028671
1.0028899
1.0029164
1.0029467
1.0029806
1.0030182
1.0030593
1.0031038
1.0031517
1.0032029
1.0032574
1.0033152
1.0033762
1.0034403
1.0035075
1.0035779
1.0036513
1.0037278
1.0038073
1.0038897
1.003975
1.0040632
1.0041543
1.0042481
1.0043446
1.0044438
1.0045456
1.00465
1.0047567
1.0048658
1.0049771
1.0050906
1.0052061
1.0053235
1.0054426
1.0055633
1.0056855
1.0058089
1.0059335
1.006059
1.0061852
1.0063118
1.0064388
1.0065658
1.0066926
1.006819
1.0069447
1.0070694
1.0071929
1.0073148
1.007435
1.007553
1.0076687
1.0077817
1.0078917
1.0079983
1.0081013
1.0082004
1.0082951
1.0083851
1.0084702
1.00855
1.0086242
1.0086925
1.0087546
1.0088101
1.0088586
1.0089
1.0089338
1.0089597
1.0089773
1.0089864
1.0089866
1.0089774
1.0089583
1.008929
1.0088893
1.0088387
1.0087769
1.0087035
1.0086182
1.0085205
1.0084103
1.0082871
1.0081507
1.0080007
1.007837
1.0076592
1.0074671
1.0072605
1.0070394
1.0068035
1.0065528
1.0062872
1.0060068
1.0057117
1.0054013
1.0050776
1.0047364
1.0043881
1.0028093
1.0028222
1.002835
1.0028487
1.0028674
1.0028902
1.0029167
1.0029469
1.0029809
1.0030184
1.0030595
1.0031039
1.0031518
1.003203
1.0032575
1.0033153
1.0033762
1.0034403
1.0035075
1.0035779
1.0036513
1.0037277
1.0038071
1.0038895
1.0039748
1.0040629
1.0041539
1.0042477
1.0043442
1.0044433
1.0045451
1.0046493
1.004756
1.004865
1.0049763
1.0050897
1.0052051
1.0053224
1.0054414
1.005562
1.0056841
1.0058074
1.0059319
1.0060572
1.0061833
1.0063098
1.0064366
1.0065635
1.0066901
1.0068163
1.0069418
1.0070663
1.0071895
1.0073112
1.0074311
1.0075488
1.0076642
1.0077768
1.0078864
1.0079926
1.0080952
1.0081937
1.0082879
1.0083774
1.008462
1.0085411
1.0086147
1.0086823
1.0087436
1.0087983
1.008846
1.0088865
1.0089194
1.0089444
1.0089611
1.0089693
1.0089685
1.0089582
1.0089382
1.008908
1.0088673
1.0088159
1.0087532
1.008679
1.008593
1.0084947
1.008384
1.0082604
1.0081238
1.0079738
1.0078101
1.0076327
1.0074411
1.0072354
1.0070152
1.0067807
1.0065315
1.0062679
1.0059896
1.005697
1.0053895
1.005069
1.0047314
1.004387
1.0028091
1.0028225
1.0028353
1.002849
1.0028676
1.0028904
1.0029169
1.0029472
1.0029811
1.0030186
1.0030596
1.0031041
1.003152
1.0032032
1.0032576
1.0033153
1.0033762
1.0034403
1.0035075
1.0035778
1.0036512
1.0037275
1.0038069
1.0038893
1.0039745
1.0040626
1.0041536
1.0042473
1.0043437
1.0044428
1.0045445
1.0046487
1.0047553
1.0048642
1.0049754
1.0050887
1.005204
1.0053212
1.0054402
1.0055607
1.0056827
1.0058059
1.0059302
1.0060554
1.0061814
1.0063078
1.0064344
1.0065611
1.0066876
1.0068136
1.0069389
1.0070631
1.0071862
1.0073076
1.0074272
1.0075447
1.0076598
1.0077721
1.0078813
1.0079872
1.0080893
1.0081874
1.0082811
1.0083702
1.0084542
1.0085328
1.0086057
1.0086727
1.0087334
1.0087874
1.0088344
1.0088741
1.0089063
1.0089304
1.0089463
1.0089536
1.008952
1.0089409
1.00892
1.008889
1.0088475
1.0087953
1.0087319
1.0086571
1.0085705
1.0084717
1.0083606
1.0082368
1.0081001
1.0079501
1.0077867
1.0076096
1.0074186
1.0072137
1.0069946
1.0067613
1.0065137
1.0062519
1.0059757
1.0056855
1.0053807
1.0050633
1.0047291
1.0043883
1.0028089
1.0028228
1.0028356
1.0028492
1.0028679
1.0028907
1.0029171
1.0029474
1.0029813
1.0030188
1.0030598
1.0031042
1.0031521
1.0032032
1.0032577
1.0033154
1.0033763
1.0034403
1.0035075
1.0035777
1.003651
1.0037274
1.0038067
1.003889
1.0039742
1.0040623
1.0041532
1.0042468
1.0043432
1.0044422
1.0045438
1.004648
1.0047545
1.0048634
1.0049745
1.0050877
1.0052029
1.00532
1.0054389
1.0055593
1.0056812
1.0058043
1.0059285
1.0060536
1.0061794
1.0063057
1.0064322
1.0065587
1.0066851
1.0068109
1.006936
1.0070601
1.0071829
1.0073041
1.0074235
1.0075407
1.0076555
1.0077675
1.0078764
1.0079819
1.0080837
1.0081814
1.0082747
1.0083633
1.0084468
1.008525
1.0085974
1.0086638
1.0087239
1.0087773
1.0088237
1.0088627
1.0088942
1.0089176
1.0089328
1.0089393
1.008937
1.0089252
1.0089035
1.0088718
1.0088297
1.0087768
1.0087129
1.0086375
1.0085504
1.0084514
1.00834
1.008216
1.0080792
1.0079294
1.0077662
1.0075896
1.0073993
1.0071952
1.0069771
1.0067451
1.006499
1.006239
1.0059648
1.005677
1.0053748
1.0050601
1.0047292
1.0043918
1.0028087
1.0028231
1.0028359
1.0028494
1.0028681
1.0028909
1.0029173
1.0029476
1.0029814
1.0030189
1.0030599
1.0031044
1.0031522
1.0032033
1.0032577
1.0033154
1.0033762
1.0034402
1.0035074
1.0035776
1.0036509
1.0037272
1.0038065
1.0038887
1.0039739
1.0040619
1.0041527
1.0042463
1.0043427
1.0044416
1.0045432
1.0046472
1.0047537
1.0048625
1.0049735
1.0050867
1.0052018
1.0053188
1.0054376
1.0055579
1.0056797
1.0058027
1.0059268
1.0060518
1.0061775
1.0063036
1.00643
1.0065564
1.0066825
1.0068082
1.0069331
1.007057
1.0071796
1.0073007
1.0074198
1.0075368
1.0076513
1.0077631
1.0078717
1.0079769
1.0080783
1.0081757
1.0082686
1.0083568
1.0084399
1.0085176
1.0085896
1.0086555
1.008715
1.0087679
1.0088137
1.0088522
1.0088831
1.0089059
1.0089205
1.0089264
1.0089233
1.0089109
1.0088887
1.0088564
1.0088137
1.0087603
1.0086959
1.0086201
1.0085327
1.0084333
1.0083218
1.0081978
1.008061
1.0079113
1.0077485
1.0075724
1.0073827
1.0071795
1.0069625
1.0067317
1.0064871
1.0062288
1.0059566
1.005671
1.0053713
1.0050594
1.0047314
1.0043973
1.0028085
1.0028234
1.0028361
1.0028496
1.0028683
1.0028911
1.0029175
1.0029477
1.0029816
1.0030191
1.00306
1.0031044
1.0031522
1.0032034
1.0032578
1.0033154
1.0033762
1.0034402
1.0035073
1.0035775
1.0036507
1.003727
1.0038062
1.0038884
1.0039735
1.0040615
1.0041523
1.0042458
1.0043421
1.004441
1.0045425
1.0046465
1.0047529
1.0048616
1.0049726
1.0050856
1.0052007
1.0053176
1.0054363
1.0055565
1.0056782
1.0058011
1.0059251
1.00605
1.0061755
1.0063015
1.0064278
1.006554
1.00668
1.0068056
1.0069303
1.007054
1.0071765
1.0072973
1.0074163
1.007533
1.0076473
1.0077588
1.0078671
1.0079721
1.0080732
1.0081702
1.0082628
1.0083507
1.0084334
1.0085107
1.0085823
1.0086477
1.0087068
1.0087592
1.0088046
1.0088426
1.0088729
1.0088953
1.0089093
1.0089146
1.008911
1.0088981
1.0088754
1.0088426
1.0087994
1.0087456
1.0086808
1.0086047
1.008517
1.0084175
1.0083058
1.0081818
1.0080452
1.0078958
1.0077333
1.0075577
1.0073688
1.0071664
1.0069504
1.0067209
1.0064778
1.0062211
1.0059508
1.0056673
1.00537
1.0050607
1.0047356
1.0044045
1.0028082
1.0028237
1.0028363
1.0028498
1.0028685
1.0028913
1.0029177
1.0029479
1.0029817
1.0030192
1.0030601
1.0031045
1.0031523
1.0032034
1.0032578
1.0033154
1.0033761
1.0034401
1.0035072
1.0035773
1.0036505
1.0037267
1.0038059
1.0038881
1.0039731
1.0040611
1.0041518
1.0042453
1.0043415
1.0044404
1.0045418
1.0046457
1.004752
1.0048607
1.0049716
1.0050846
1.0051995
1.0053164
1.005435
1.0055551
1.0056767
1.0057995
1.0059234
1.0060481
1.0061736
1.0062995
1.0064256
1.0065517
1.0066776
1.0068029
1.0069275
1.0070511
1.0071734
1.007294
1.0074128
1.0075293
1.0076434
1.0077547
1.0078628
1.0079674
1.0080683
1.008165
1.0082573
1.0083449
1.0084273
1.0085042
1.0085754
1.0086405
1.0086992
1.0087512
1.0087961
1.0088337
1.0088636
1.0088855
1.008899
1.0089039
1.0088998
1.0088865
1.0088633
1.0088302
1.0087866
1.0087324
1.0086673
1.008591
1.0085032
1.0084035
1.0082919
1.0081679
1.0080315
1.0078824
1.0077204
1.0075453
1.0073571
1.0071556
1.0069407
1.0067124
1.0064707
1.0062156
1.0059472
1.0056657
1.0053706
1.0050638
1.0047415
1.0044132
1.002808
1.0028239
1.0028365
1.00285
1.0028687
1.0028914
1.0029178
1.002948
1.0029818
1.0030193
1.0030602
1.0031046
1.0031523
1.0032034
1.0032577
1.0033153
1.0033761
1.00344
1.003507
1.0035771
1.0036503
1.0037265
1.0038057
1.0038878
1.0039728
1.0040606
1.0041513
1.0042448
1.0043409
1.0044397
1.0045411
1.0046449
1.0047512
1.0048598
1.0049706
1.0050835
1.0051984
1.0053151
1.0054336
1.0055537
1.0056751
1.0057979
1.0059216
1.0060463
1.0061716
1.0062974
1.0064234
1.0065494
1.0066751
1.0068003
1.0069248
1.0070482
1.0071703
1.0072908
1.0074094
1.0075257
1.0076396
1.0077507
1.0078585
1.007963
1.0080636
1.0081601
1.0082521
1.0083394
1.0084215
1.0084981
1.008569
1.0086338
1.0086921
1.0087438
1.0087883
1.0088255
1.008855
1.0088765
1.0088897
1.0088941
1.0088897
1.008876
1.0088526
1.008819
1.0087752
1.0087208
1.0086555
1.008579
1.008491
1.0083914
1.0082797
1.0081559
1.0080198
1.007871
1.0077095
1.007535
1.0073475
1.0071469
1.0069331
1.006706
1.0064656
1.0062121
1.0059454
1.0056659
1.005373
1.0050686
1.004749
1.0044233
1.0028077
1.0028241
1.0028367
1.0028501
1.0028688
1.0028916
1.002918
1.0029481
1.0029819
1.0030194
1.0030603
1.0031046
1.0031524
1.0032034
1.0032577
1.0033153
1.003376
1.0034399
1.0035069
1.003577
1.0036501
1.0037262
1.0038053
1.0038874
1.0039724
1.0040602
1.0041508
1.0042442
1.0043403
1.004439
1.0045403
1.0046441
1.0047503
1.0048588
1.0049695
1.0050824
1.0051972
1.0053139
1.0054323
1.0055522
1.0056736
1.0057962
1.0059199
1.0060445
1.0061697
1.0062953
1.0064212
1.0065471
1.0066727
1.0067978
1.0069221
1.0070454
1.0071673
1.0072876
1.007406
1.0075222
1.0076359
1.0077468
1.0078545
1.0079587
1.0080591
1.0081554
1.0082472
1.0083341
1.008416
1.0084924
1.008563
1.0086275
1.0086855
1.0087369
1.0087811
1.008818
1.0088472
1.0088684
1.0088813
1.0088853
1.0088805
1.0088666
1.0088429
1.0088091
1.0087651
1.0087104
1.008645
1.0085684
1.0084804
1.0083808
1.0082693
1.0081457
1.0080098
1.0078614
1.0077004
1.0075266
1.0073398
1.0071401
1.0069273
1.0067014
1.0064624
1.0062104
1.0059454
1.0056678
1.005377
1.0050748
1.0047577
1.0044346
1.0028075
1.0028244
1.0028368
1.0028502
1.002869
1.0028917
1.0029181
1.0029482
1.002982
1.0030194
1.0030603
1.0031047
1.0031524
1.0032034
1.0032577
1.0033152
1.0033759
1.0034398
1.0035067
1.0035768
1.0036499
1.003726
1.003805
1.003887
1.003972
1.0040597
1.0041503
1.0042436
1.0043397
1.0044383
1.0045396
1.0046433
1.0047494
1.0048579
1.0049685
1.0050813
1.005196
1.0053126
1.0054309
1.0055508
1.0056721
1.0057946
1.0059182
1.0060426
1.0061677
1.0062933
1.006419
1.0065448
1.0066703
1.0067952
1.0069194
1.0070426
1.0071644
1.0072845
1.0074028
1.0075188
1.0076324
1.007743
1.0078506
1.0079546
1.0080548
1.0081509
1.0082424
1.0083292
1.0084108
1.008487
1.0085573
1.0086216
1.0086794
1.0087305
1.0087745
1.0088111
1.00884
1.0088609
1.0088736
1.0088773
1.0088722
1.0088582
1.0088342
1.0088003
1.008756
1.0087013
1.0086358
1.0085592
1.0084712
1.0083717
1.0082603
1.008137
1.0080014
1.0078535
1.007693
1.0075198
1.0073338
1.007135
1.0069232
1.0066985
1.0064608
1.0062103
1.005947
1.0056712
1.0053824
1.0050823
1.0047676
1.0044469
1.0028072
1.0028246
1.002837
1.0028504
1.0028691
1.0028918
1.0029182
1.0029483
1.0029821
1.0030195
1.0030604
1.0031047
1.0031524
1.0032034
1.0032576
1.0033151
1.0033758
1.0034396
1.0035065
1.0035766
1.0036496
1.0037257
1.0038047
1.0038867
1.0039715
1.0040593
1.0041498
1.0042431
1.004339
1.0044377
1.0045388
1.0046425
1.0047485
1.0048569
1.0049675
1.0050802
1.0051948
1.0053113
1.0054296
1.0055494
1.0056706
1.005793
1.0059165
1.0060408
1.0061658
1.0062913
1.0064169
1.0065425
1.0066679
1.0067928
1.0069168
1.0070398
1.0071615
1.0072815
1.0073996
1.0075155
1.0076289
1.0077394
1.0078468
1.0079506
1.0080507
1.0081465
1.0082379
1.0083245
1.0084059
1.0084819
1.008552
1.0086161
1.0086737
1.0087245
1.0087683
1.0088047
1.0088334
1.0088541
1.0088666
1.0088701
1.0088648
1.0088506
1.0088265
1.0087924
1.0087481
1.0086933
1.0086277
1.0085511
1.0084633
1.0083639
1.0082527
1.0081297
1.0079945
1.007847
1.007687
1.0075145
1.0073294
1.0071314
1.0069207
1.0066971
1.0064607
1.0062116
1.0059498
1.0056758
1.0053889
1.0050909
1.0047785
1.0044601
1.002807
1.0028248
1.0028371
1.0028505
1.0028692
1.0028919
1.0029183
1.0029484
1.0029822
1.0030195
1.0030604
1.0031047
1.0031523
1.0032033
1.0032576
1.003315
1.0033757
1.0034395
1.0035064
1.0035763
1.0036494
1.0037254
1.0038044
1.0038863
1.0039711
1.0040588
1.0041493
1.0042425
1.0043384
1.004437
1.0045381
1.0046417
1.0047477