/*--------------------------------*- C++ -*----------------------------------*\
| =========                 |                                                 |
| \\      /  F ield         | OpenFOAM: The Open Source CFD Toolbox           |
|  \\    /   O peration     | Version:  2406                                  |
|   \\  /    A nd           | Website:  www.openfoam.com                      |
|    \\/     M anipulation  |                                                 |
\*---------------------------------------------------------------------------*/
FoamFile
{
    version     2.0;
    format      ascii;
    arch        "LSB;label=32;scalar=64";
    class       volScalarField;
    location    "1300";
    object      pMean;
}
// * * * * * * * * * * * * * * * * * * * * * * * * * * * * * * * * * * * * * //

dimensions      [1 -1 -2 0 0 0 0];

internalField   nonuniform List<scalar> 
132739
(
1.0030946
1.0030889
1.0031005
1.0031192
1.0031407
1.0031658
1.0031955
1.0032292
1.0032669
1.0033084
1.0033537
1.0034027
1.0034554
1.0035117
1.0035715
1.0036348
1.0037016
1.0037719
1.0038455
1.0039225
1.0040028
1.0040864
1.0041733
1.0042634
1.0043567
1.0044532
1.0045527
1.0046553
1.004761
1.0048695
1.004981
1.0050952
1.0052122
1.0053318
1.005454
1.0055786
1.0057056
1.0058348
1.0059662
1.0060995
1.0062347
1.0063716
1.0065101
1.00665
1.0067911
1.0069333
1.0070765
1.0072204
1.0073649
1.0075098
1.0076549
1.0078001
1.0079451
1.0080898
1.0082339
1.0083771
1.0085193
1.0086604
1.0088
1.0089382
1.0090746
1.0092091
1.0093414
1.0094712
1.0095986
1.0097232
1.0098448
1.0099631
1.0100778
1.0101892
1.0102967
1.0103998
1.0104984
1.0105921
1.0106805
1.0107633
1.0108398
1.0109097
1.0109724
1.0110275
1.0110742
1.011112
1.0111403
1.0111582
1.0111651
1.0111601
1.0111423
1.011111
1.0110653
1.0110043
1.0109273
1.0108334
1.0107217
1.0105914
1.0104417
1.010272
1.0100817
1.00987
1.0096367
1.0093811
1.0091044
1.008805
1.0084913
1.0081569
1.0030954
1.00309
1.0031018
1.0031204
1.0031419
1.003167
1.0031966
1.0032303
1.003268
1.0033094
1.0033547
1.0034036
1.0034563
1.0035125
1.0035722
1.0036355
1.0037022
1.0037723
1.0038459
1.0039228
1.004003
1.0040865
1.0041733
1.0042633
1.0043565
1.0044528
1.0045522
1.0046547
1.0047602
1.0048686
1.0049799
1.005094
1.0052108
1.0053303
1.0054522
1.0055767
1.0057035
1.0058325
1.0059636
1.0060967
1.0062316
1.0063682
1.0065064
1.0066459
1.0067867
1.0069285
1.0070712
1.0072146
1.0073586
1.0075028
1.0076473
1.0077916
1.0079357
1.0080794
1.0082224
1.0083644
1.0085054
1.0086451
1.0087832
1.0089198
1.0090544
1.009187
1.0093172
1.0094449
1.0095699
1.0096922
1.0098113
1.0099268
1.0100387
1.0101468
1.0102506
1.0103499
1.0104445
1.010534
1.0106181
1.0106965
1.0107687
1.0108342
1.0108928
1.0109439
1.0109869
1.0110215
1.0110469
1.0110625
1.0110679
1.0110623
1.0110451
1.0110154
1.0109726
1.010916
1.0108447
1.0107581
1.0106553
1.0105358
1.0103989
1.0102438
1.0100702
1.0098772
1.0096647
1.0094317
1.0091783
1.0089024
1.0086029
1.0082771
1.003096
1.003091
1.0031029
1.0031215
1.0031431
1.0031682
1.0031978
1.0032316
1.0032693
1.0033108
1.0033561
1.0034051
1.0034577
1.003514
1.0035738
1.0036372
1.003704
1.0037742
1.0038479
1.0039249
1.0040052
1.0040888
1.0041757
1.0042658
1.0043592
1.0044556
1.0045552
1.0046578
1.0047635
1.004872
1.0049835
1.0050978
1.0052148
1.0053344
1.0054566
1.0055812
1.0057082
1.0058374
1.0059686
1.0061019
1.006237
1.0063737
1.006512
1.0066516
1.0067925
1.0069343
1.007077
1.0072204
1.0073642
1.0075082
1.0076524
1.0077964
1.0079401
1.0080831
1.0082254
1.0083668
1.0085072
1.0086462
1.0087834
1.0089189
1.0090524
1.0091835
1.0093122
1.0094381
1.009561
1.0096809
1.0097974
1.0099102
1.010019
1.0101238
1.0102242
1.0103199
1.0104105
1.0104959
1.0105756
1.0106493
1.0107165
1.0107769
1.0108299
1.0108752
1.0109123
1.0109406
1.0109597
1.0109689
1.0109678
1.0109556
1.0109318
1.0108957
1.0108467
1.0107842
1.0107075
1.010616
1.010509
1.0103859
1.0102461
1.010089
1.0099142
1.0097211
1.0095093
1.0092784
1.0090281
1.0087593
1.0084679
1.0081689
1.0030965
1.0030919
1.003104
1.0031225
1.0031441
1.0031693
1.0031989
1.0032326
1.0032703
1.0033118
1.0033571
1.0034061
1.0034587
1.003515
1.0035748
1.0036381
1.0037049
1.0037751
1.0038487
1.0039257
1.004006
1.0040896
1.0041764
1.0042665
1.0043598
1.0044563
1.0045558
1.0046584
1.004764
1.0048726
1.004984
1.0050982
1.0052152
1.0053348
1.0054569
1.0055814
1.0057084
1.0058375
1.0059687
1.0061018
1.0062368
1.0063734
1.0065116
1.0066511
1.0067917
1.0069334
1.0070759
1.0072189
1.0073624
1.0075061
1.0076498
1.0077933
1.0079365
1.0080789
1.0082205
1.0083612
1.0085006
1.0086385
1.0087746
1.0089087
1.0090407
1.0091703
1.0092972
1.0094213
1.0095422
1.0096599
1.0097739
1.0098842
1.0099903
1.0100921
1.0101893
1.0102816
1.0103687
1.0104503
1.0105261
1.0105958
1.0106589
1.0107151
1.0107639
1.0108049
1.0108378
1.0108619
1.0108768
1.010882
1.0108768
1.0108608
1.0108334
1.0107939
1.0107417
1.0106762
1.0105968
1.010503
1.0103941
1.0102696
1.0101289
1.0099717
1.0097974
1.0096056
1.009396
1.0091684
1.008922
1.0086581
1.0083735
1.0080739
1.003097
1.0030928
1.003105
1.0031235
1.0031451
1.0031703
1.0031999
1.0032336
1.0032713
1.0033128
1.0033581
1.0034071
1.0034598
1.0035161
1.0035759
1.0036392
1.003706
1.0037763
1.0038499
1.0039269
1.0040073
1.0040909
1.0041778
1.004268
1.0043613
1.0044578
1.0045574
1.00466
1.0047657
1.0048743
1.0049858
1.0051001
1.0052171
1.0053367
1.0054589
1.0055835
1.0057105
1.0058397
1.0059709
1.0061041
1.0062391
1.0063757
1.0065138
1.0066533
1.0067939
1.0069355
1.0070778
1.0072207
1.007364
1.0075075
1.0076509
1.0077941
1.0079368
1.0080788
1.0082198
1.0083598
1.0084985
1.0086355
1.0087707
1.0089038
1.0090346
1.0091629
1.0092883
1.0094108
1.0095299
1.0096456
1.0097576
1.0098655
1.0099691
1.0100683
1.0101627
1.010252
1.0103359
1.0104142
1.0104865
1.0105525
1.0106118
1.0106639
1.0107086
1.0107454
1.0107739
1.0107936
1.0108042
1.010805
1.0107956
1.0107755
1.0107442
1.0107011
1.0106457
1.0105774
1.0104957
1.0104001
1.0102901
1.0101652
1.0100249
1.0098687
1.0096963
1.0095074
1.0093015
1.0090785
1.0088379
1.00858
1.0083035
1.008009
1.0030973
1.0030936
1.0031059
1.0031244
1.003146
1.0031712
1.0032008
1.0032345
1.0032722
1.0033137
1.003359
1.003408
1.0034607
1.0035169
1.0035767
1.0036401
1.0037069
1.0037771
1.0038507
1.0039277
1.0040081
1.0040917
1.0041786
1.0042687
1.0043621
1.0044585
1.0045581
1.0046608
1.0047664
1.004875
1.0049865
1.0051007
1.0052177
1.0053373
1.0054595
1.0055841
1.005711
1.0058401
1.0059713
1.0061045
1.0062394
1.0063759
1.006514
1.0066533
1.0067938
1.0069352
1.0070773
1.00722
1.0073631
1.0075062
1.0076493
1.0077921
1.0079344
1.0080758
1.0082163
1.0083556
1.0084935
1.0086297
1.0087639
1.0088959
1.0090256
1.0091526
1.0092766
1.0093975
1.0095149
1.0096287
1.0097387
1.0098444
1.0099458
1.0100424
1.0101342
1.0102207
1.0103016
1.0103768
1.0104459
1.0105084
1.0105642
1.0106128
1.0106539
1.010687
1.0107118
1.0107279
1.0107348
1.0107321
1.0107193
1.0106958
1.0106613
1.0106153
1.0105571
1.0104864
1.0104027
1.0103054
1.0101942
1.0100685
1.009928
1.0097724
1.0096011
1.0094141
1.0092109
1.0089914
1.0087553
1.0085028
1.0082331
1.0079474
1.0030976
1.0030944
1.0031068
1.0031252
1.0031468
1.003172
1.0032016
1.0032354
1.003273
1.0033145
1.0033598
1.0034088
1.0034615
1.0035177
1.0035776
1.0036409
1.0037077
1.0037779
1.0038516
1.0039286
1.0040089
1.0040926
1.0041795
1.0042696
1.004363
1.0044594
1.004559
1.0046617
1.0047673
1.0048759
1.0049874
1.0051017
1.0052187
1.0053383
1.0054605
1.0055851
1.005712
1.0058411
1.0059722
1.0061053
1.0062402
1.0063767
1.0065147
1.006654
1.0067943
1.0069356
1.0070776
1.0072201
1.0073629
1.0075059
1.0076486
1.0077911
1.0079329
1.008074
1.0082139
1.0083527
1.0084899
1.0086253
1.0087587
1.0088898
1.0090184
1.0091442
1.009267
1.0093864
1.0095024
1.0096146
1.0097227
1.0098265
1.0099258
1.0100203
1.0101097
1.0101937
1.010272
1.0103444
1.0104106
1.0104702
1.0105229
1.0105683
1.010606
1.0106358
1.0106572
1.0106699
1.0106734
1.0106673
1.0106512
1.0106246
1.0105871
1.0105383
1.0104776
1.0104047
1.0103191
1.0102204
1.0101082
1.0099821
1.0098417
1.0096867
1.0095168
1.0093317
1.0091313
1.0089153
1.0086835
1.0084362
1.0081723
1.0078942
1.0030978
1.0030951
1.0031076
1.0031259
1.0031476
1.0031728
1.0032024
1.0032361
1.0032738
1.0033153
1.0033605
1.0034095
1.0034622
1.0035185
1.0035783
1.0036416
1.0037084
1.0037786
1.0038522
1.0039292
1.0040096
1.0040932
1.0041801
1.0042702
1.0043635
1.00446
1.0045596
1.0046622
1.0047679
1.0048764
1.0049879
1.0051021
1.0052191
1.0053387
1.0054608
1.0055854
1.0057123
1.0058413
1.0059724
1.0061055
1.0062403
1.0063767
1.0065146
1.0066537
1.006794
1.0069351
1.0070769
1.0072192
1.0073618
1.0075045
1.007647
1.007789
1.0079305
1.0080711
1.0082106
1.0083487
1.0084853
1.00862
1.0087526
1.0088828
1.0090104
1.0091351
1.0092567
1.0093749
1.0094894
1.0096
1.0097065
1.0098086
1.0099059
1.0099983
1.0100855
1.0101672
1.0102431
1.010313
1.0103765
1.0104333
1.0104831
1.0105256
1.0105604
1.0105872
1.0106056
1.0106153
1.0106158
1.0106068
1.0105879
1.0105587
1.0105187
1.0104676
1.0104048
1.0103301
1.010243
1.0101432
1.0100303
1.0099039
1.0097637
1.0096094
1.0094409
1.0092578
1.0090599
1.0088473
1.0086195
1.0083771
1.0081186
1.0078478
1.003098
1.0030958
1.0031083
1.0031266
1.0031483
1.0031735
1.0032031
1.0032368
1.0032745
1.0033159
1.0033612
1.0034102
1.0034629
1.0035191
1.0035789
1.0036422
1.003709
1.0037792
1.0038528
1.0039298
1.0040101
1.0040938
1.0041806
1.0042708
1.0043641
1.0044605
1.0045601
1.0046627
1.0047683
1.0048769
1.0049883
1.0051026
1.0052195
1.0053391
1.0054612
1.0055857
1.0057125
1.0058416
1.0059726
1.0061056
1.0062403
1.0063767
1.0065145
1.0066535
1.0067936
1.0069346
1.0070763
1.0072184
1.0073608
1.0075032
1.0076454
1.0077872
1.0079283
1.0080684
1.0082074
1.0083451
1.008481
1.0086151
1.008747
1.0088763
1.0090031
1.0091268
1.0092473
1.0093643
1.0094776
1.0095868
1.0096918
1.0097922
1.0098879
1.0099785
1.0100637
1.0101434
1.0102171
1.0102847
1.0103459
1.0104002
1.0104475
1.0104874
1.0105195
1.0105436
1.0105593
1.0105662
1.0105641
1.0105525
1.010531
1.0104994
1.0104571
1.0104038
1.0103392
1.0102629
1.0101745
1.0100736
1.0099601
1.0098335
1.0096936
1.00954
1.0093728
1.0091915
1.0089961
1.0087866
1.0085625
1.0083247
1.0080711
1.0078069
1.0030981
1.0030964
1.003109
1.0031272
1.0031489
1.0031741
1.0032037
1.0032375
1.0032751
1.0033166
1.0033618
1.0034108
1.0034634
1.0035197
1.0035794
1.0036427
1.0037095
1.0037797
1.0038533
1.0039303
1.0040106
1.0040942
1.0041811
1.0042712
1.0043644
1.0044609
1.0045604
1.004663
1.0047686
1.0048771
1.0049885
1.0051027
1.0052196
1.0053392
1.0054612
1.0055857
1.0057125
1.0058415
1.0059725
1.0061054
1.00624
1.0063763
1.006514
1.0066529
1.0067929
1.0069337
1.0070752
1.0072171
1.0073593
1.0075015
1.0076434
1.0077849
1.0079256
1.0080654
1.008204
1.0083411
1.0084765
1.0086099
1.0087411
1.0088697
1.0089956
1.0091185
1.009238
1.0093539
1.009466
1.0095739
1.0096775
1.0097765
1.0098706
1.0099595
1.0100429
1.0101207
1.0101925
1.010258
1.010317
1.0103691
1.0104141
1.0104516
1.0104813
1.010503
1.0105163
1.0105209
1.0105163
1.0105024
1.0104788
1.010445
1.0104008
1.0103457
1.0102795
1.0102018
1.0101124
1.0100108
1.0098968
1.0097701
1.0096306
1.0094779
1.0093119
1.0091324
1.0089393
1.0087327
1.0085121
1.0082786
1.0080296
1.0077713
1.0030981
1.003097
1.0031096
1.0031278
1.0031495
1.0031747
1.0032043
1.003238
1.0032757
1.0033171
1.0033624
1.0034113
1.0034639
1.0035202
1.0035799
1.0036432
1.00371
1.0037802
1.0038537
1.0039307
1.004011
1.0040946
1.0041814
1.0042715
1.0043647
1.0044611
1.0045606
1.0046632
1.0047688
1.0048773
1.0049886
1.0051028
1.0052197
1.0053392
1.0054612
1.0055856
1.0057123
1.0058412
1.0059722
1.006105
1.0062396
1.0063757
1.0065133
1.0066521
1.006792
1.0069327
1.007074
1.0072157
1.0073577
1.0074996
1.0076413
1.0077825
1.0079229
1.0080623
1.0082005
1.0083372
1.008472
1.0086049
1.0087355
1.0088634
1.0089885
1.0091105
1.0092291
1.0093441
1.0094551
1.0095619
1.0096643
1.0097619
1.0098546
1.0099419
1.0100238
1.0100999
1.0101699
1.0102336
1.0102906
1.0103408
1.0103837
1.0104191
1.0104467
1.0104662
1.0104773
1.0104797
1.0104731
1.0104572
1.0104315
1.0103959
1.0103499
1.0102933
1.0102257
1.0101468
1.0100564
1.0099542
1.0098399
1.0097133
1.0095741
1.0094222
1.0092575
1.0090797
1.0088889
1.008685
1.0084677
1.0082381
1.0079934
1.0077406
1.0030982
1.0030975
1.0031102
1.0031283
1.00315
1.0031753
1.0032048
1.0032386
1.0032762
1.0033176
1.0033628
1.0034118
1.0034644
1.0035206
1.0035804
1.0036436
1.0037104
1.0037805
1.0038541
1.003931
1.0040113
1.0040948
1.0041816
1.0042717
1.0043649
1.0044613
1.0045608
1.0046633
1.0047688
1.0048773
1.0049886
1.0051027
1.0052195
1.005339
1.0054609
1.0055853
1.005712
1.0058408
1.0059716
1.0061044
1.0062389
1.006375
1.0065124
1.0066511
1.0067908
1.0069314
1.0070725
1.0072141
1.0073559
1.0074976
1.007639
1.0077799
1.00792
1.0080591
1.0081968
1.0083331
1.0084675
1.0085998
1.0087298
1.0088571
1.0089816
1.0091028
1.0092205
1.0093346
1.0094446
1.0095504
1.0096516
1.0097481
1.0098394
1.0099254
1.0100058
1.0100804
1.0101488
1.0102108
1.0102661
1.0103144
1.0103555
1.010389
1.0104147
1.0104323
1.0104415
1.010442
1.0104335
1.0104158
1.0103884
1.0103511
1.0103037
1.0102457
1.0101769
1.0100971
1.010006
1.0099032
1.0097887
1.0096623
1.0095236
1.0093725
1.009209
1.0090329
1.0088442
1.0086429
1.0084287
1.0082027
1.0079621
1.0077141
1.0030981
1.003098
1.0031108
1.0031288
1.0031505
1.0031758
1.0032053
1.003239
1.0032766
1.0033181
1.0033633
1.0034122
1.0034648
1.003521
1.0035807
1.003644
1.0037107
1.0037808
1.0038544
1.0039313
1.0040115
1.004095
1.0041818
1.0042718
1.004365
1.0044613
1.0045608
1.0046633
1.0047688
1.0048772
1.0049884
1.0051025
1.0052193
1.0053387
1.0054606
1.0055849
1.0057115
1.0058402
1.005971
1.0061037
1.0062381
1.006374
1.0065114
1.00665
1.0067895
1.0069299
1.007071
1.0072123
1.0073539
1.0074954
1.0076366
1.0077772
1.007917
1.0080558
1.0081932
1.008329
1.008463
1.0085948
1.0087243
1.008851
1.0089748
1.0090953
1.0092123
1.0093256
1.0094347
1.0095395
1.0096397
1.0097351
1.0098253
1.00991
1.0099892
1.0100623
1.0101293
1.0101898
1.0102436
1.0102903
1.0103297
1.0103615
1.0103856
1.0104014
1.0104089
1.0104077
1.0103976
1.0103783
1.0103494
1.0103107
1.0102619
1.0102027
1.010133
1.0100523
1.0099606
1.0098575
1.0097429
1.0096166
1.0094785
1.0093283
1.009166
1.0089915
1.0088047
1.0086059
1.0083945
1.0081719
1.0079352
1.0076915
1.0030981
1.0030985
1.0031113
1.0031293
1.003151
1.0031762
1.0032058
1.0032395
1.0032771
1.0033185
1.0033637
1.0034126
1.0034652
1.0035213
1.003581
1.0036443
1.0037109
1.0037811
1.0038546
1.0039314
1.0040116
1.0040951
1.0041819
1.0042719
1.004365
1.0044613
1.0045607
1.0046631
1.0047686
1.004877
1.0049882
1.0051022
1.0052189
1.0053382
1.0054601
1.0055843
1.0057108
1.0058395
1.0059702
1.0061028
1.0062371
1.0063729
1.0065102
1.0066486
1.0067881
1.0069284
1.0070692
1.0072104
1.0073518
1.0074931
1.007634
1.0077744
1.0079139
1.0080524
1.0081894
1.0083249
1.0084585
1.0085898
1.0087188
1.008845
1.0089682
1.0090881
1.0092044
1.0093169
1.0094252
1.0095292
1.0096285
1.0097228
1.009812
1.0098956
1.0099735
1.0100455
1.0101111
1.0101703
1.0102227
1.010268
1.0103059
1.0103363
1.0103588
1.0103731
1.0103791
1.0103764
1.0103649
1.0103441
1.0103139
1.010274
1.0102241
1.0101639
1.0100933
1.010012
1.0099198
1.0098165
1.0097019
1.0095758
1.0094382
1.0092889
1.0091278
1.0089549
1.00877
1.0085735
1.0083648
1.0081453
1.0079122
1.0076725
1.003098
1.0030989
1.0031117
1.0031297
1.0031514
1.0031767
1.0032062
1.0032399
1.0032774
1.0033188
1.003364
1.0034129
1.0034655
1.0035216
1.0035813
1.0036445
1.0037112
1.0037813
1.0038547
1.0039316
1.0040117
1.0040952
1.0041819
1.0042718
1.004365
1.0044612
1.0045606
1.004663
1.0047684
1.0048767
1.0049878
1.0051018
1.0052185
1.0053377
1.0054595
1.0055836
1.0057101
1.0058387
1.0059693
1.0061018
1.006236
1.0063717
1.0065089
1.0066472
1.0067865
1.0069266
1.0070673
1.0072084
1.0073496
1.0074906
1.0076314
1.0077715
1.0079108
1.0080489
1.0081857
1.0083208
1.008454
1.0085849
1.0087134
1.0088391
1.0089618
1.0090811
1.0091968
1.0093086
1.0094162
1.0095194
1.0096178
1.0097113
1.0097995
1.0098821
1.009959
1.0100298
1.0100944
1.0101523
1.0102034
1.0102475
1.0102841
1.0103131
1.0103343
1.0103473
1.0103519
1.010348
1.0103351
1.0103132
1.0102818
1.0102408
1.0101899
1.0101289
1.0100576
1.0099758
1.0098832
1.0097797
1.0096652
1.0095395
1.0094024
1.009254
1.0090941
1.0089227
1.0087396
1.0085453
1.0083392
1.0081226
1.0078928
1.0076566
1.0030979
1.0030993
1.0031122
1.0031301
1.0031518
1.003177
1.0032066
1.0032402
1.0032778
1.0033192
1.0033643
1.0034132
1.0034657
1.0035219
1.0035815
1.0036447
1.0037113
1.0037814
1.0038548
1.0039317
1.0040118
1.0040952
1.0041819
1.0042718
1.0043648
1.0044611
1.0045604
1.0046627
1.0047681
1.0048763
1.0049874
1.0051013
1.0052179
1.0053371
1.0054588
1.0055829
1.0057092
1.0058378
1.0059683
1.0061007
1.0062348
1.0063704
1.0065074
1.0066457
1.0067848
1.0069248
1.0070654
1.0072062
1.0073473
1.0074881
1.0076286
1.0077685
1.0079076
1.0080454
1.0081819
1.0083167
1.0084495
1.0085801
1.0087082
1.0088334
1.0089556
1.0090744
1.0091895
1.0093006
1.0094076
1.0095101
1.0096077
1.0097004
1.0097877
1.0098695
1.0099454
1.0100153
1.0100788
1.0101356
1.0101857
1.0102285
1.010264
1.0102919
1.0103118
1.0103237
1.0103272
1.010322
1.0103081
1.0102851
1.0102527
1.0102108
1.0101591
1.0100974
1.0100255
1.0099433
1.0098504
1.0097469
1.0096325
1.0095071
1.0093707
1.0092231
1.0090644
1.0088944
1.0087131
1.0085208
1.0083171
1.0081032
1.0078767
1.0076437
1.0030977
1.0030997
1.0031126
1.0031304
1.0031522
1.0031774
1.0032069
1.0032406
1.0032781
1.0033195
1.0033646
1.0034135
1.003466
1.0035221
1.0035817
1.0036448
1.0037115
1.0037815
1.0038549
1.0039317
1.0040118
1.0040952
1.0041818
1.0042716
1.0043647
1.0044608
1.0045601
1.0046624
1.0047677
1.0048759
1.0049869
1.0051008
1.0052173
1.0053364
1.005458
1.005582
1.0057083
1.0058367
1.0059672
1.0060995
1.0062335
1.006369
1.0065059
1.006644
1.0067831
1.0069229
1.0070633
1.007204
1.0073449
1.0074855
1.0076259
1.0077655
1.0079043
1.0080419
1.0081781
1.0083126
1.0084451
1.0085753
1.008703
1.0088278
1.0089495
1.0090678
1.0091824
1.009293
1.0093994
1.0095012
1.0095982
1.0096901
1.0097767
1.0098577
1.0099328
1.0100017
1.0100643
1.0101202
1.0101693
1.0102111
1.0102456
1.0102724
1.0102913
1.0103021
1.0103046
1.0102985
1.0102836
1.0102596
1.0102264
1.0101837
1.0101314
1.0100691
1.0099967
1.0099142
1.0098212
1.0097176
1.0096034
1.0094785
1.0093427
1.0091959
1.0090383
1.0088697
1.0086901
1.0084998
1.0082984
1.008087
1.0078635
1.0076335
1.0030975
1.0031001
1.003113
1.0031307
1.0031525
1.0031777
1.0032072
1.0032409
1.0032784
1.0033197
1.0033648
1.0034137
1.0034662
1.0035222
1.0035818
1.003645
1.0037115
1.0037815
1.0038549
1.0039317
1.0040117
1.0040951
1.0041817
1.0042715
1.0043645
1.0044606
1.0045598
1.004662
1.0047672
1.0048754
1.0049864
1.0051001
1.0052166
1.0053356
1.0054572
1.0055811
1.0057073
1.0058357
1.005966
1.0060982
1.0062321
1.0063675
1.0065043
1.0066423
1.0067812
1.0069209
1.0070612
1.0072017
1.0073424
1.0074829
1.007623
1.0077625
1.007901
1.0080384
1.0081743
1.0083085
1.0084407
1.0085706
1.0086979
1.0088224
1.0089437
1.0090615
1.0091756
1.0092858
1.0093916
1.0094928
1.0095892
1.0096805
1.0097664
1.0098466
1.0099209
1.0099891
1.0100509
1.0101059
1.0101541
1.0101951
1.0102287
1.0102546
1.0102726
1.0102825
1.0102841
1.0102771
1.0102613
1.0102366
1.0102027
1.0101593
1.0101064
1.0100437
1.009971
1.0098881
1.0097951
1.0096916
1.0095777
1.0094531
1.009318
1.0091721
1.0090156
1.0088483
1.0086703
1.0084818
1.0082826
1.0080736
1.0078529
1.0076259
1.0030973
1.0031004
1.0031133
1.003131
1.0031528
1.003178
1.0032075
1.0032411
1.0032786
1.0033199
1.0033651
1.0034139
1.0034663
1.0035224
1.003582
1.003645
1.0037116
1.0037816
1.0038549
1.0039316
1.0040116
1.0040949
1.0041815
1.0042713
1.0043642
1.0044603
1.0045594
1.0046616
1.0047668
1.0048748
1.0049858
1.0050995
1.0052158
1.0053348
1.0054563
1.0055801
1.0057063
1.0058345
1.0059648
1.0060969
1.0062307
1.006366
1.0065027
1.0066405
1.0067793
1.0069189
1.007059
1.0071994
1.0073399
1.0074802
1.0076201
1.0077594
1.0078978
1.0080349
1.0081706
1.0083045
1.0084364
1.008566
1.008693
1.0088171
1.008938
1.0090555
1.0091691
1.0092788
1.0093841
1.0094848
1.0095807
1.0096714
1.0097567
1.0098363
1.0099099
1.0099774
1.0100384
1.0100927
1.0101401
1.0101803
1.0102131
1.0102382
1.0102554
1.0102646
1.0102654
1.0102577
1.0102412
1.0102158
1.0101813
1.0101374
1.010084
1.0100209
1.0099479
1.009865
1.0097719
1.0096685
1.0095549
1.0094308
1.0092963
1.0091513
1.0089958
1.0088298
1.0086534
1.0084667
1.0082695
1.0080628
1.0078447
1.0076204
1.0030971
1.0031007
1.0031136
1.0031313
1.0031531
1.0031783
1.0032078
1.0032414
1.0032788
1.0033201
1.0033652
1.003414
1.0034665
1.0035225
1.003582
1.0036451
1.0037116
1.0037816
1.0038549
1.0039315
1.0040115
1.0040948
1.0041813
1.004271
1.0043639
1.0044599
1.004559
1.0046611
1.0047662
1.0048743
1.0049851
1.0050987
1.0052151
1.005334
1.0054553
1.0055791
1.0057051
1.0058333
1.0059635
1.0060955
1.0062292
1.0063644
1.0065009
1.0066387
1.0067773
1.0069168
1.0070567
1.007197
1.0073373
1.0074775
1.0076172
1.0077563
1.0078945
1.0080314
1.0081668
1.0083005
1.0084321
1.0085615
1.0086882
1.0088119
1.0089325
1.0090496
1.0091629
1.0092721
1.009377
1.0094772
1.0095726
1.0096628
1.0097475
1.0098265
1.0098996
1.0099664
1.0100268
1.0100805
1.0101272
1.0101668
1.0101988
1.0102232
1.0102398
1.0102482
1.0102484
1.01024
1.010223
1.010197
1.010162
1.0101177
1.0100639
1.0100005
1.0099274
1.0098443
1.0097513
1.0096482
1.0095348
1.0094113
1.0092774
1.0091332
1.0089788
1.008814
1.008639
1.008454
1.0082588
1.0080542
1.0078385
1.0076169
1.0030969
1.003101
1.0031139
1.0031316
1.0031533
1.0031785
1.003208
1.0032416
1.003279
1.0033203
1.0033654
1.0034142
1.0034666
1.0035226
1.0035821
1.0036451
1.0037116
1.0037815
1.0038548
1.0039314
1.0040114
1.0040946
1.0041811
1.0042707
1.0043636
1.0044595
1.0045586
1.0046606
1.0047657
1.0048736
1.0049844
1.005098
1.0052142
1.005333
1.0054544
1.005578
1.005704
1.0058321
1.0059621
1.006094
1.0062276
1.0063627
1.0064992
1.0066368
1.0067753
1.0069146
1.0070544
1.0071946
1.0073348
1.0074748
1.0076143
1.0077532
1.0078912
1.0080279
1.0081631
1.0082966
1.008428
1.008557
1.0086834
1.0088069
1.0089272
1.0090439
1.0091568
1.0092657
1.0093702
1.00947
1.0095649
1.0096547
1.0097389
1.0098174
1.00989
1.0099563
1.0100161
1.0100692
1.0101153
1.0101543
1.0101857
1.0102095
1.0102255
1.0102334
1.0102329
1.0102241
1.0102065
1.0101801
1.0101446
1.0101
1.0100459
1.0099823
1.0099091
1.0098261
1.0097331
1.0096302
1.0095173
1.0093942
1.009261
1.0091177
1.0089642
1.0088007
1.0086271
1.0084437
1.0082502
1.0080477
1.0078343
1.0076152
1.0030967
1.0031012
1.0031142
1.0031318
1.0031536
1.0031788
1.0032082
1.0032418
1.0032792
1.0033205
1.0033655
1.0034143
1.0034667
1.0035226
1.0035821
1.0036451
1.0037116
1.0037815
1.0038547
1.0039313
1.0040112
1.0040944
1.0041808
1.0042704
1.0043632
1.0044591
1.0045581
1.0046601
1.0047651
1.004873
1.0049837
1.0050972
1.0052134
1.0053321
1.0054533
1.0055769
1.0057028
1.0058308
1.0059607
1.0060925
1.006226
1.006361
1.0064974
1.0066348
1.0067733
1.0069124
1.0070521
1.0071921
1.0073322
1.007472
1.0076114
1.0077502
1.0078879
1.0080244
1.0081595
1.0082927
1.0084239
1.0085527
1.0086788
1.008802
1.008922
1.0090384
1.0091511
1.0092596
1.0093637
1.0094632
1.0095577
1.009647
1.0097308
1.0098089
1.0098809
1.0099468
1.0100061
1.0100587
1.0101043
1.0101427
1.0101737
1.010197
1.0102124
1.0102198
1.0102189
1.0102096
1.0101916
1.0101648
1.0101291
1.0100841
1.0100299
1.0099662
1.0098929
1.0098099
1.0097171
1.0096145
1.0095019
1.0093794
1.0092468
1.0091043
1.0089519
1.0087895
1.0086172
1.0084354
1.0082436
1.0080431
1.0078318
1.0076149
1.0030964
1.0031015
1.0031144
1.003132
1.0031538
1.003179
1.0032084
1.0032419
1.0032794
1.0033206
1.0033656
1.0034144
1.0034667
1.0035227
1.0035822
1.0036451
1.0037115
1.0037814
1.0038546
1.0039311
1.004011
1.0040941
1.0041805
1.0042701
1.0043628
1.0044587
1.0045576
1.0046596
1.0047645
1.0048723
1.004983
1.0050964
1.0052125
1.0053311
1.0054523
1.0055758
1.0057016
1.0058295
1.0059593
1.006091
1.0062244
1.0063593
1.0064955
1.0066329
1.0067712
1.0069103
1.0070498
1.0071897
1.0073296
1.0074693
1.0076085
1.0077471
1.0078847
1.008021
1.0081559
1.0082889
1.0084198
1.0085484
1.0086743
1.0087973
1.008917
1.0090332
1.0091455
1.0092537
1.0093575
1.0094566
1.0095508
1.0096397
1.0097232
1.0098008
1.0098725
1.0099379
1.0099968
1.010049
1.0100942
1.0101321
1.0101627
1.0101855
1.0102005
1.0102075
1.0102062
1.0101965
1.0101782
1.0101511
1.0101151
1.0100699
1.0100156
1.0099518
1.0098785
1.0097956
1.0097031
1.0096007
1.0094886
1.0093666
1.0092347
1.0090931
1.0089415
1.0087803
1.0086093
1.0084289
1.0082388
1.0080401
1.0078309
1.0076161
1.0030962
1.0031017
1.0031147
1.0031322
1.003154
1.0031792
1.0032086
1.0032421
1.0032795
1.0033207
1.0033657
1.0034144
1.0034668
1.0035227
1.0035821
1.0036451
1.0037115
1.0037813
1.0038545
1.003931
1.0040108
1.0040939
1.0041802
1.0042697
1.0043624
1.0044582
1.0045571
1.004659
1.0047638
1.0048716
1.0049822
1.0050955
1.0052115
1.0053301
1.0054512
1.0055746
1.0057003
1.0058281
1.0059579
1.0060895
1.0062228
1.0063576
1.0064937
1.0066309
1.0067691
1.0069081
1.0070475
1.0071872
1.007327
1.0074665
1.0076056
1.007744
1.0078815
1.0080176
1.0081523
1.0082851
1.0084159
1.0085443
1.00867
1.0087927
1.0089121
1.0090281
1.0091401
1.0092481
1.0093516
1.0094504
1.0095443
1.0096329
1.009716
1.0097933
1.0098646
1.0099296
1.0099882
1.01004
1.0100848
1.0101224
1.0101525
1.010175
1.0101897
1.0101963
1.0101947
1.0101847
1.0101661
1.0101388
1.0101026
1.0100573
1.0100029
1.0099391
1.0098659
1.0097832
1.0096908
1.0095888
1.0094771
1.0093557
1.0092245
1.0090836
1.008933
1.0087729
1.0086032
1.0084241
1.0082356
1.0080386
1.0078313
1.0076184
1.0030959
1.0031019
1.0031149
1.0031324
1.0031541
1.0031793
1.0032087
1.0032422
1.0032796
1.0033208
1.0033658
1.0034145
1.0034668
1.0035227
1.0035821
1.003645
1.0037114
1.0037812
1.0038543
1.0039308
1.0040106
1.0040936
1.0041799
1.0042694
1.004362
1.0044577
1.0045566
1.0046584
1.0047632
1.0048709
1.0049814
1.0050947
1.0052106
1.0053291
1.0054501
1.0055735
1.0056991
1.0058268
1.0059564
1.006088
1.0062211
1.0063558
1.0064918
1.006629
1.0067671
1.0069059
1.0070452
1.0071847
1.0073244
1.0074638
1.0076028
1.007741
1.0078783
1.0080143
1.0081488
1.0082815
1.008412
1.0085402
1.0086657
1.0087882
1.0089075
1.0090231
1.009135
1.0092427
1.0093459
1.0094445
1.0095381
1.0096264
1.0097092
1.0097862
1.0098572
1.0099219
1.0099801
1.0100316
1.0100761
1.0101134
1.0101432
1.0101654
1.0101798
1.0101861
1.0101843
1.010174
1.0101552
1.0101278
1.0100914
1.0100461
1.0099916
1.0099279
1.0098548
1.0097723
1.0096802
1.0095785
1.0094673
1.0093464
1.0092159
1.0090758
1.0089262
1.0087671
1.0085985
1.0084208
1.0082338
1.0080384
1.007833
1.007622
1.0030957
1.0031021
1.0031151
1.0031325
1.0031543
1.0031795
1.0032088
1.0032424
1.0032797
1.0033209
1.0033659
1.0034145
1.0034668
1.0035227
1.0035821
1.003645
1.0037113
1.003781
1.0038541
1.0039306
1.0040103
1.0040933
1.0041795
1.004269
1.0043616
1.0044573
1.004556
1.0046578
1.0047625
1.0048701
1.0049806
1.0050938
1.0052097
1.0053281
1.005449
1.0055723
1.0056978
1.0058254
1.005955
1.0060864
1.0062195
1.0063541
1.00649
1.006627
1.006765
1.0069037
1.0070428
1.0071823
1.0073218
1.0074611
1.0075999
1.007738
1.0078752
1.008011
1.0081453
1.0082778
1.0084082
1.0085362
1.0086615
1.0087839
1.0089029
1.0090184
1.00913
1.0092375
1.0093405
1.0094388
1.0095322
1.0096202
1.0097028
1.0097796
1.0098503
1.0099147
1.0099727
1.0100239
1.0100681
1.0101051
1.0101347
1.0101566
1.0101707
1.0101769
1.0101748
1.0101644
1.0101455
1.0101179
1.0100815
1.0100361
1.0099817
1.009918
1.0098451
1.0097628
1.009671
1.0095697
1.009459
1.0093387
1.0092089
1.0090695
1.0089208
1.0087627
1.0085953
1.0084189
1.0082333
1.0080394
1.0078358
1.0076264
1.0030954
1.0031023
1.0031153
1.0031327
1.0031545
1.0031796
1.003209
1.0032425
1.0032798
1.003321
1.0033659
1.0034146
1.0034668
1.0035227
1.003582
1.0036449
1.0037112
1.0037809
1.003854
1.0039304
1.00401
1.004093
1.0041792
1.0042686
1.0043611
1.0044567
1.0045554
1.0046572
1.0047618
1.0048694
1.0049798
1.0050929
1.0052087
1.0053271
1.0054479
1.0055711
1.0056965
1.005824
1.0059535
1.0060849
1.0062178
1.0063523
1.0064881
1.006625
1.0067629
1.0069015
1.0070405
1.0071799
1.0073193
1.0074584
1.0075971
1.0077351
1.0078721
1.0080078
1.008142
1.0082743
1.0084045
1.0085324
1.0086575
1.0087796
1.0088985
1.0090138
1.0091252
1.0092325
1.0093353
1.0094334
1.0095266
1.0096144
1.0096967
1.0097733
1.0098438
1.009908
1.0099657
1.0100167
1.0100607
1.0100975
1.0101268
1.0101485
1.0101625
1.0101685
1.0101663
1.0101557
1.0101367
1.0101091
1.0100726
1.0100273
1.0099729
1.0099094
1.0098367
1.0097546
1.0096632
1.0095623
1.009452
1.0093323
1.0092032
1.0090646
1.0089167
1.0087596
1.0085934
1.0084182
1.0082339
1.0080415
1.0078395
1.0076318
1.0030951
1.0031025
1.0031154
1.0031328
1.0031546
1.0031797
1.0032091
1.0032426
1.0032799
1.0033211
1.003366
1.0034146
1.0034668
1.0035226
1.003582
1.0036448
1.0037111
1.0037807
1.0038538
1.0039301
1.0040098
1.0040927
1.0041788
1.0042682
1.0043606
1.0044562
1.0045549
1.0046565
1.0047612
1.0048687
1.004979
1.005092
1.0052077
1.005326
1.0054468
1.0055699
1.0056952
1.0058227
1.0059521
1.0060833
1.0062162
1.0063506
1.0064863
1.0066231
1.0067608
1.0068993
1.0070382
1.0071775
1.0073167
1.0074558
1.0075943
1.0077322
1.007869
1.0080046
1.0081386
1.0082708
1.0084009
1.0085286
1.0086536
1.0087755
1.0088943
1.0090094
1.0091206
1.0092277
1.0093304
1.0094283
1.0095212
1.0096089
1.009691
1.0097674
1.0098377
1.0099017
1.0099592
1.01001
1.0100538
1.0100904
1.0101196
1.0101412
1.010155
1.0101608
1.0101585
1.010148
1.0101289
1.0101012
1.0100648
1.0100195
1.0099653
1.0099019
1.0098294
1.0097476
1.0096565
1.0095561
1.0094463
1.0093272
1.0091987
1.0090609
1.0089139
1.0087577
1.0085925
1.0084185
1.0082356
1.0080445
1.0078442
1.0076379
1.0030948
1.0031027
1.0031156
1.003133
1.0031547
1.0031798
1.0032092
1.0032426
1.00328
1.0033211
1.003366
1.0034146
1.0034668
1.0035226
1.0035819
1.0036447
1.0037109
1.0037806
1.0038536
1.0039299
1.0040095
1.0040924
1.0041785
1.0042678
1.0043602
1.0044557
1.0045543
1.0046559
1.0047605