/*--------------------------------*- C++ -*----------------------------------*\
| =========                 |                                                 |
| \\      /  F ield         | OpenFOAM: The Open Source CFD Toolbox           |
|  \\    /   O peration     | Version:  2406                                  |
|   \\  /    A nd           | Website:  www.openfoam.com                      |
|    \\/     M anipulation  |                                                 |
\*---------------------------------------------------------------------------*/
FoamFile
{
    version     2.0;
    format      ascii;
    arch        "LSB;label=32;scalar=64";
    class       volScalarField;
    location    "25";
    object      alphat;
}
// * * * * * * * * * * * * * * * * * * * * * * * * * * * * * * * * * * * * * //

dimensions      [1 -1 -1 0 0 0 0];

internalField   nonuniform List<scalar> 
96472
(
9.0004236e-07
9.4351185e-07
9.1297632e-07
9.0755759e-07
9.0429187e-07
9.0803083e-07
9.1366147e-07
9.082369e-07
8.8737386e-07
8.5751798e-07
8.3139201e-07
8.1688828e-07
8.168004e-07
8.2391878e-07
8.3303748e-07
8.345659e-07
8.2960781e-07
8.1506715e-07
7.9889617e-07
7.8204677e-07
7.7179011e-07
7.6672486e-07
7.6950548e-07
7.7708446e-07
7.8776708e-07
7.9980985e-07
8.1001314e-07
8.172228e-07
8.2110418e-07
8.1984943e-07
8.1582196e-07
8.089489e-07
8.0126584e-07
7.9391269e-07
7.8952899e-07
7.863149e-07
7.8428254e-07
7.8286822e-07
7.8315268e-07
7.8414804e-07
7.8763856e-07
7.922057e-07
8.0139693e-07
8.1392084e-07
8.321882e-07
8.5179116e-07
8.787417e-07
9.0577584e-07
9.4455148e-07
9.7567472e-07
1.0192009e-06
1.0686875e-06
1.1106244e-06
1.1667135e-06
1.2558291e-06
8.946239e-07
9.4110817e-07
9.0960496e-07
9.0462478e-07
9.0192167e-07
9.0576206e-07
9.1156847e-07
9.0703292e-07
8.8736391e-07
8.5799419e-07
8.3139889e-07
8.1596223e-07
8.1466827e-07
8.2127803e-07
8.3064767e-07
8.331085e-07
8.2932888e-07
8.1595467e-07
8.004848e-07
7.8325399e-07
7.7217331e-07
7.6559969e-07
7.6754558e-07
7.7411747e-07
7.8425539e-07
7.9590582e-07
8.0635436e-07
8.1319889e-07
8.1810302e-07
8.1731344e-07
8.1309626e-07
8.0477124e-07
7.9542978e-07
7.8737925e-07
7.7736046e-07
7.7012418e-07
7.7099471e-07
7.7227583e-07
7.7671716e-07
7.8124531e-07
7.8570901e-07
7.954139e-07
8.0169378e-07
8.136692e-07
8.2310542e-07
8.4238671e-07
8.5648198e-07
8.8465877e-07
9.0350529e-07
9.4077292e-07
9.6411534e-07
1.0051855e-06
1.0526542e-06
1.0871272e-06
1.1712099e-06
8.918964e-07
9.3923507e-07
9.0695366e-07
9.0223396e-07
8.9947993e-07
9.0315967e-07
9.0937818e-07
9.0611952e-07
8.8765822e-07
8.5881083e-07
8.3166185e-07
8.1526537e-07
8.1294626e-07
8.1947627e-07
8.2881825e-07
8.3262347e-07
8.2957871e-07
8.1726289e-07
8.0205357e-07
7.8455442e-07
7.731763e-07
7.6563824e-07
7.6635597e-07
7.7213008e-07
7.8236814e-07
7.9351866e-07
8.047867e-07
8.1230207e-07
8.178051e-07
8.1812383e-07
8.1466663e-07
8.0666521e-07
7.9757492e-07
7.8698665e-07
7.7703723e-07
7.6696744e-07
7.5712186e-07
7.5717038e-07
7.5887367e-07
7.6424013e-07
7.7133425e-07
7.8667979e-07
7.9554829e-07
8.1080831e-07
8.1924764e-07
8.3788924e-07
8.4934634e-07
8.758086e-07
8.8864575e-07
9.1323962e-07
9.4284812e-07
9.6344628e-07
1.0055864e-06
1.0311061e-06
1.0941797e-06
8.9072466e-07
9.3808913e-07
9.0554129e-07
9.0082518e-07
8.9763637e-07
9.0084254e-07
9.0737554e-07
9.0531573e-07
8.8796591e-07
8.596756e-07
8.3205591e-07
8.1488973e-07
8.1156608e-07
8.1799565e-07
8.2735192e-07
8.3242625e-07
8.2989273e-07
8.1912158e-07
8.034938e-07
7.8637796e-07
7.7368815e-07
7.6554837e-07
7.6517444e-07
7.698434e-07
7.7974673e-07
7.904487e-07
8.0260643e-07
8.1020828e-07
8.1688377e-07
8.1790383e-07
8.1596017e-07
8.0921224e-07
8.0043139e-07
7.8987114e-07
7.7987852e-07
7.6878819e-07
7.5925755e-07
7.5154748e-07
7.5125998e-07
7.5399034e-07
7.5684448e-07
7.6630228e-07
7.7441786e-07
7.9368638e-07
8.0402845e-07
8.2626696e-07
8.3755751e-07
8.5850936e-07
8.8132474e-07
8.956576e-07
9.2585261e-07
9.4242523e-07
9.772702e-07
9.972224e-07
1.0447346e-06
8.904714e-07
9.375043e-07
9.0490907e-07
9.001758e-07
8.9642612e-07
8.9900358e-07
9.0558716e-07
9.0453095e-07
8.8817342e-07
8.6052976e-07
8.3250072e-07
8.1468038e-07
8.1028061e-07
8.164992e-07
8.2593196e-07
8.3197684e-07
8.3013398e-07
8.2056242e-07
8.0521387e-07
7.8834663e-07
7.7441528e-07
7.6588114e-07
7.6417185e-07
7.6816719e-07
7.7731409e-07
7.8766974e-07
8.0023083e-07
8.0810475e-07
8.161144e-07
8.1711571e-07
8.1706248e-07
8.106923e-07
8.0309e-07
7.9238483e-07
7.826428e-07
7.7300722e-07
7.6304583e-07
7.5329238e-07
7.495879e-07
7.5052503e-07
7.5352763e-07
7.5807685e-07
7.6354495e-07
7.7605848e-07
7.8453825e-07
7.9945756e-07
8.1954175e-07
8.3123981e-07
8.5787409e-07
8.7206809e-07
9.012795e-07
9.1756478e-07
9.5075889e-07
9.6767927e-07
1.008312e-06
8.9129159e-07
9.3753308e-07
9.0512989e-07
9.0010761e-07
8.9569614e-07
8.9760177e-07
9.0421866e-07
9.0399761e-07
8.8859967e-07
8.6138468e-07
8.3306346e-07
8.1446101e-07
8.0925e-07
8.1512264e-07
8.2463272e-07
8.314793e-07
8.3043852e-07
8.2181205e-07
8.0676872e-07
7.9015335e-07
7.755047e-07
7.6624352e-07
7.6330682e-07
7.6658841e-07
7.7501306e-07
7.8532567e-07
7.9749048e-07
8.0594806e-07
8.1511714e-07
8.1608567e-07
8.1756819e-07
8.1188333e-07
8.0518612e-07
7.9450249e-07
7.8479027e-07
7.7505565e-07
7.6638085e-07
7.5600967e-07
7.4937935e-07
7.4855599e-07
7.5128036e-07
7.5379472e-07
7.5789439e-07
7.649997e-07
7.7724135e-07
7.8508635e-07
8.0193506e-07
8.1233347e-07
8.3440055e-07
8.4717159e-07
8.7400356e-07
8.888532e-07
9.1847865e-07
9.3488165e-07
9.7186939e-07
8.9210374e-07
9.3775902e-07
9.055586e-07
9.0068518e-07
8.9587477e-07
8.9664298e-07
9.0244014e-07
9.0245787e-07
8.8802806e-07
8.6146669e-07
8.3318621e-07
8.1400433e-07
8.0818239e-07
8.1363622e-07
8.2331021e-07
8.3080535e-07
8.308132e-07
8.2290353e-07
8.0851398e-07
7.9182497e-07
7.7666653e-07
7.6685698e-07
7.6277767e-07
7.6515576e-07
7.7271631e-07
7.8323971e-07
7.9475528e-07
8.0440493e-07
8.1321481e-07
8.1567035e-07
8.1774091e-07
8.1292525e-07
8.0726688e-07
7.9726106e-07
7.8729947e-07
7.7704661e-07
7.6887283e-07
7.5907636e-07
7.5053171e-07
7.4686252e-07
7.4866746e-07
7.5096207e-07
7.5429295e-07
7.5901145e-07
7.6893837e-07
7.757788e-07
7.9037938e-07
7.9909996e-07
8.1724886e-07
8.2826581e-07
8.5073278e-07
8.6331062e-07
8.8972123e-07
9.0470973e-07
9.3775208e-07
8.9178652e-07
9.3803406e-07
9.0611744e-07
9.0045766e-07
8.9429683e-07
8.9347058e-07
8.9829633e-07
8.9866698e-07
8.8561825e-07
8.6044344e-07
8.3272672e-07
8.1341513e-07
8.070122e-07
8.1219376e-07
8.2199895e-07
8.3013976e-07
8.310878e-07
8.240437e-07
8.1034955e-07
7.9374663e-07
7.7792177e-07
7.6744003e-07
7.6252515e-07
7.6406923e-07
7.7064662e-07
7.8099256e-07
7.9203732e-07
8.0288391e-07
8.1098655e-07
8.1563472e-07
8.1723326e-07
8.1416008e-07
8.0847296e-07
8.0002136e-07
7.8990063e-07
7.7919523e-07
7.7038417e-07
7.6219868e-07
7.5286527e-07
7.464919e-07
7.4592633e-07
7.4828648e-07
7.5078872e-07
7.5421347e-07
7.6249636e-07
7.6843923e-07
7.8066694e-07
7.88192e-07
8.0432598e-07
8.1353105e-07
8.3252283e-07
8.4386863e-07
8.6656543e-07
8.7847968e-07
9.0637004e-07
8.8795942e-07
9.3616611e-07
9.0175956e-07
8.9451667e-07
8.8735189e-07
8.860384e-07
8.9157986e-07
8.9381835e-07
8.8290864e-07
8.5940335e-07
8.3236381e-07
8.1295241e-07
8.0606998e-07
8.1086645e-07
8.2079592e-07
8.2953928e-07
8.3128895e-07
8.2511739e-07
8.1206866e-07
7.9570363e-07
7.795865e-07
7.681349e-07
7.6241642e-07
7.6307915e-07
7.6896667e-07
7.7888981e-07
7.8951817e-07
8.0108039e-07
8.0884208e-07
8.1540808e-07
8.1650143e-07
8.1544905e-07
8.0978388e-07
8.0233213e-07
7.9255151e-07
7.8217799e-07
7.7196426e-07
7.6481828e-07
7.5577119e-07
7.4763389e-07
7.4434543e-07
7.4568137e-07
7.4795291e-07
7.504619e-07
7.5678858e-07
7.6170111e-07
7.7260302e-07
7.7938542e-07
7.9313892e-07
8.0098818e-07
8.1805444e-07
8.2719012e-07
8.4646718e-07
8.5800666e-07
8.8217032e-07
8.8269668e-07
9.3200175e-07
8.9301191e-07
8.8472751e-07
8.7777343e-07
8.7753958e-07
8.8502367e-07
8.8959758e-07
8.8096662e-07
8.5889108e-07
8.3245485e-07
8.1275742e-07
8.0541847e-07
8.0981502e-07
8.1976128e-07
8.2898918e-07
8.3163016e-07
8.2624005e-07
8.137487e-07
7.9754462e-07
7.8130805e-07
7.691177e-07
7.6252056e-07
7.6229879e-07
7.673634e-07
7.7692547e-07
7.8735324e-07
7.9901784e-07
8.0704116e-07
8.1447979e-07
8.1595574e-07
8.1594764e-07
8.1102991e-07
8.0454916e-07
7.9465651e-07
7.8524754e-07
7.7439782e-07
7.6661725e-07
7.5824045e-07
7.501612e-07
7.4416066e-07
7.4353445e-07
7.453778e-07
7.4760437e-07
7.5178998e-07
7.5614039e-07
7.6541731e-07
7.7124195e-07
7.8341841e-07
7.9069592e-07
8.0540711e-07
8.1347735e-07
8.3122219e-07
8.3972243e-07
8.6110175e-07
8.8368125e-07
9.3172805e-07
8.9189015e-07
8.8317665e-07
8.7591981e-07
8.7550439e-07
8.832568e-07
8.8875797e-07
8.8128161e-07
8.5993495e-07
8.3356638e-07
8.1326894e-07
8.0516737e-07
8.0895875e-07
8.1877875e-07
8.2840546e-07
8.3194163e-07
8.2737675e-07
8.1555384e-07
7.9953642e-07
7.8298455e-07
7.7019346e-07
7.6277872e-07
7.6187578e-07
7.6589934e-07
7.7488006e-07
7.8531038e-07
7.968703e-07
8.0545757e-07
8.1329036e-07
8.1561904e-07
8.1623774e-07
8.1209035e-07
8.0654576e-07
7.971686e-07
7.8803979e-07
7.7718978e-07
7.6868817e-07
7.6047563e-07
7.5305797e-07
7.4539304e-07
7.422567e-07
7.432413e-07
7.4525751e-07
7.4784995e-07
7.5126772e-07
7.5908416e-07
7.6409538e-07
7.7535222e-07
7.8167247e-07
7.9443015e-07
8.0205373e-07
8.170242e-07
8.2498033e-07
8.4266111e-07
8.8652572e-07
9.3337841e-07
8.9474926e-07
8.8578363e-07
8.7773277e-07
8.7654692e-07
8.8396327e-07
8.8959375e-07
8.8243974e-07
8.6143331e-07
8.3492676e-07
8.1403747e-07
8.0508581e-07
8.0824461e-07
8.1797547e-07
8.27984e-07
8.3219003e-07
8.285013e-07
8.1738335e-07
8.0169261e-07
7.849728e-07
7.7139917e-07
7.6318757e-07
7.6152552e-07
7.6486835e-07
7.7303753e-07
7.8331651e-07
7.9473278e-07
8.0381628e-07
8.119684e-07
8.1526228e-07
8.1648382e-07
8.1291566e-07
8.0829938e-07
7.9956361e-07
7.9068221e-07
7.8027203e-07
7.709433e-07
7.6230702e-07
7.5580804e-07
7.4786393e-07
7.4248035e-07
7.4132791e-07
7.4310664e-07
7.4495148e-07
7.4748345e-07
7.5352865e-07
7.5830704e-07
7.6753605e-07
7.7314749e-07
7.849973e-07
7.9186511e-07
8.0420752e-07
8.1304025e-07
8.2755579e-07
8.9178955e-07
9.3587242e-07
9.0194397e-07
8.9477358e-07
8.866258e-07
8.8419084e-07
8.901035e-07
8.9441092e-07
8.863652e-07
8.6476031e-07
8.375275e-07
8.1556717e-07
8.055849e-07
8.0790111e-07
8.173572e-07
8.2765165e-07
8.3249637e-07
8.2960491e-07
8.1904424e-07
8.0369924e-07
7.8696537e-07
7.7283896e-07
7.6377547e-07
7.6120829e-07
7.6392522e-07
7.7143055e-07
7.8138044e-07
7.9285596e-07
8.0208007e-07
8.1071521e-07
8.1451144e-07
8.1673216e-07
8.1357267e-07
8.0987281e-07
8.016943e-07
7.932197e-07
7.8340045e-07
7.7379574e-07
7.6417951e-07
7.5786956e-07
7.5077905e-07
7.4389201e-07
7.4050467e-07
7.4109089e-07
7.42752e-07
7.4455036e-07
7.4902287e-07
7.5270502e-07
7.6127596e-07
7.6630358e-07
7.7677085e-07
7.8226491e-07
7.9490092e-07
8.0077899e-07
8.1416399e-07
8.931184e-07
9.354799e-07
9.0240396e-07
8.9733682e-07
8.9122714e-07
8.8971352e-07
8.9560998e-07
8.9930336e-07
8.9048072e-07
8.6801108e-07
8.3999404e-07
8.1700854e-07
8.0608483e-07
8.0762722e-07
8.1678181e-07
8.272678e-07
8.328751e-07
8.3078623e-07
8.2086013e-07
8.0581894e-07
7.8894763e-07
7.7440816e-07
7.6462872e-07
7.6127991e-07
7.631311e-07
7.6998136e-07
7.7957024e-07
7.9111542e-07
8.0036551e-07
8.0966577e-07
8.1358411e-07
8.1686028e-07
8.1419587e-07
8.1124243e-07
8.0371585e-07
7.9586163e-07
7.8619337e-07
7.7698526e-07
7.6683288e-07
7.5975841e-07
7.5301654e-07
7.4663199e-07
7.4106016e-07
7.3952455e-07
7.4082594e-07
7.4233861e-07
7.4520436e-07
7.4825405e-07
7.5554945e-07
7.5962803e-07
7.6931687e-07
7.7393164e-07
7.8538004e-07
7.9041438e-07
8.0341301e-07
8.9278809e-07
9.3515554e-07
9.0354885e-07
9.0028354e-07
8.9548325e-07
8.9473818e-07
9.0091561e-07
9.0461044e-07
8.9552695e-07
8.7241376e-07
8.4340047e-07
8.1918986e-07
8.0702917e-07
8.076245e-07
8.1637628e-07
8.2700931e-07
8.3321963e-07
8.3191629e-07
8.2263182e-07
8.0799171e-07
7.9105218e-07
7.7597321e-07
7.6548385e-07
7.6139505e-07
7.626088e-07
7.6870806e-07
7.777887e-07
7.8932754e-07
7.9863399e-07
8.085583e-07
8.1276363e-07
8.1686965e-07
8.1485068e-07
8.1233738e-07
8.054869e-07
7.9833512e-07
7.8891377e-07
7.800929e-07
7.6996698e-07
7.6167871e-07
7.5505502e-07
7.4949215e-07
7.4289755e-07
7.3915453e-07
7.3900495e-07
7.4086673e-07
7.4220813e-07
7.4505164e-07
7.5040019e-07
7.5460939e-07
7.6244927e-07
7.6774136e-07
7.7640954e-07
7.8248154e-07
7.9325489e-07
8.9120892e-07
9.3416064e-07
9.0334382e-07
9.0024142e-07
8.9540289e-07
8.9487358e-07
9.0153101e-07
9.0599497e-07
8.9750942e-07
8.7481907e-07
8.4559887e-07
8.2078804e-07
8.077139e-07
8.0756315e-07
8.1600766e-07
8.2682044e-07
8.3350861e-07
8.3297816e-07
8.2433142e-07
8.1012638e-07
7.9328349e-07
7.7789642e-07
7.6659025e-07
7.6169844e-07
7.6227886e-07
7.6787323e-07
7.7641375e-07
7.8773193e-07
7.973413e-07
8.0736878e-07
8.1207944e-07
8.1671263e-07
8.1551367e-07
8.1345931e-07
8.0720205e-07
8.0066865e-07
7.9168068e-07
7.8295166e-07
7.7310437e-07
7.6440439e-07
7.5690134e-07
7.5171905e-07
7.4556801e-07
7.4000632e-07
7.3788416e-07
7.3891081e-07
7.4047484e-07
7.4182568e-07
7.4618541e-07
7.4961079e-07
7.5645458e-07
7.6098114e-07
7.6851608e-07
7.7463763e-07
7.8394085e-07
8.8717385e-07
9.3214197e-07
9.0134403e-07
8.9909832e-07
8.9520683e-07
8.9548842e-07
9.0279792e-07
9.0761839e-07
8.9934489e-07
8.7676029e-07
8.4745674e-07
8.2210907e-07
8.0837711e-07
8.0759714e-07
8.1571758e-07
8.2661156e-07
8.3387285e-07
8.3401391e-07
8.2593581e-07
8.1205808e-07
7.9523462e-07
7.796753e-07
7.6768563e-07
7.6208988e-07
7.6184108e-07
7.6698286e-07
7.7503556e-07
7.8605472e-07
7.9601209e-07
8.0626219e-07
8.1139159e-07
8.1639512e-07
8.1593754e-07
8.1447687e-07
8.0852757e-07
8.027473e-07
7.9457923e-07
7.8580668e-07
7.7630138e-07
7.6741411e-07
7.5895255e-07
7.5387257e-07
7.4834867e-07
7.4226014e-07
7.3791565e-07
7.3773422e-07
7.3898316e-07
7.3997582e-07
7.4320663e-07
7.4553014e-07
7.5229297e-07
7.5593107e-07
7.6215106e-07
7.6836392e-07
7.7650186e-07
8.8664757e-07
9.3156551e-07
9.0109433e-07
8.9941639e-07
8.9595227e-07
8.9637218e-07
9.0355842e-07
9.0836024e-07
9.0032845e-07
8.7798928e-07
8.4878114e-07
8.2314073e-07
8.0891112e-07
8.0761412e-07
8.1548461e-07
8.2640099e-07
8.3425996e-07
8.350508e-07
8.2762195e-07
8.1417317e-07
7.9741318e-07
7.8156161e-07
7.6908405e-07
7.6278981e-07
7.6189293e-07
7.6636269e-07
7.7401449e-07
7.8473385e-07
7.9474009e-07
8.0515573e-07
8.1077797e-07
8.161901e-07
8.1624342e-07
8.1556165e-07
8.09975e-07
8.0458743e-07
7.9690275e-07
7.8868005e-07
7.7925917e-07
7.7057702e-07
7.6185262e-07
7.5551664e-07
7.5010819e-07
7.4475748e-07
7.391804e-07
7.3711791e-07
7.3733239e-07
7.3860937e-07
7.3985654e-07
7.4233441e-07
7.4703617e-07
7.5053955e-07
7.559778e-07
7.6252826e-07
7.6871003e-07
8.8776387e-07
9.315723e-07
9.0099208e-07
8.9943173e-07
8.9629667e-07
8.9702848e-07
9.0438577e-07
9.0938233e-07
9.015312e-07
8.7939863e-07
8.5016234e-07
8.2424506e-07
8.0948239e-07
8.0773117e-07
8.1538761e-07
8.2639233e-07
8.3463281e-07
8.3593177e-07
8.2907437e-07
8.1597017e-07
7.9930072e-07
7.8324083e-07
7.7010817e-07
7.630939e-07
7.6155715e-07
7.6545814e-07
7.7275383e-07
7.8312969e-07
7.931697e-07
8.0380797e-07
8.0999211e-07
8.1583111e-07
8.1624207e-07
8.1593067e-07
8.1101843e-07
8.0585651e-07
7.9918801e-07
7.9134589e-07
7.8137803e-07
7.7311752e-07
7.6490339e-07
7.579328e-07
7.5185725e-07
7.4733561e-07
7.4169474e-07
7.3722562e-07
7.3656998e-07
7.3706105e-07
7.3796953e-07
7.3988339e-07
7.4404941e-07
7.4661541e-07
7.5220679e-07
7.5696703e-07
7.6260488e-07
8.9049611e-07
9.3240436e-07
9.0212305e-07
9.0077472e-07
8.9763922e-07
8.9804331e-07
9.0510368e-07
9.1009499e-07
9.0247001e-07
8.8068491e-07
8.5153506e-07
8.254151e-07
8.1024374e-07
8.0809019e-07
8.1552049e-07
8.2664233e-07
8.3517315e-07
8.3699309e-07
8.3050458e-07
8.1770771e-07
8.011305e-07
7.8484846e-07
7.7125946e-07
7.6344879e-07
7.6119044e-07
7.6447155e-07
7.714588e-07
7.8126015e-07
7.9139088e-07
8.0190775e-07
8.0909826e-07
8.1496597e-07
8.1618968e-07
8.1593591e-07
8.1183779e-07
8.0629477e-07
7.9988541e-07
7.9263866e-07
7.8356814e-07
7.7503746e-07
7.668471e-07
7.5939835e-07
7.5238202e-07
7.4750286e-07
7.4298294e-07
7.3823214e-07
7.3534406e-07
7.3497777e-07
7.3551769e-07
7.3667733e-07
7.3901183e-07
7.4171433e-07
7.4538563e-07
7.5048754e-07
7.5695017e-07
8.9378818e-07
9.3353358e-07
9.0314401e-07
9.0150343e-07
8.9822891e-07
8.9850601e-07
9.0550382e-07
9.1058411e-07
9.0321277e-07
8.8158992e-07
8.5247369e-07
8.2609272e-07
8.1060947e-07
8.0812652e-07
8.154244e-07
8.2662438e-07
8.3558838e-07
8.3786125e-07
8.3186472e-07
8.1905776e-07
8.022776e-07
7.8540158e-07
7.7140948e-07
7.6264447e-07
7.5966594e-07
7.6235643e-07
7.6926167e-07
7.7824736e-07
7.8862219e-07
7.9905139e-07
8.0834366e-07
8.1471578e-07
8.1780375e-07
8.1748514e-07
8.1399675e-07
8.0847409e-07
8.0261011e-07
7.947364e-07
7.8469597e-07
7.7560781e-07
7.6746749e-07
7.6025028e-07
7.5230618e-07
7.4674965e-07
7.4219869e-07
7.3689011e-07
7.3262524e-07
7.3162976e-07
7.3194759e-07
7.3256179e-07
7.3455703e-07
7.3710636e-07
7.3922474e-07
7.443729e-07
7.4676025e-07
8.9607291e-07
9.3443184e-07
9.0460442e-07
9.0329607e-07
8.999209e-07
8.9967858e-07
9.0621394e-07
9.1127204e-07
9.0445112e-07
8.8309811e-07
8.5387808e-07
8.2685955e-07
8.1034501e-07
8.0705794e-07
8.1428271e-07
8.263175e-07
8.3700682e-07
8.4151675e-07
8.3743838e-07
8.2561019e-07
8.0862565e-07
7.9023703e-07
7.7586709e-07
7.6603959e-07
7.6258799e-07
7.6524477e-07
7.728409e-07
7.81626e-07
7.9269044e-07
8.0564245e-07
8.1748711e-07
8.2529098e-07
8.3432179e-07
8.4097309e-07
8.3965572e-07
8.3286267e-07
8.2647614e-07
8.1685179e-07
8.0287946e-07
7.8917712e-07
7.7701201e-07
7.6643692e-07
7.5632279e-07
7.4803697e-07
7.4214029e-07
7.3625439e-07
7.3119691e-07
7.2742614e-07
7.2558686e-07
7.2549964e-07
7.2730434e-07
7.2823468e-07
7.3046175e-07
7.3531931e-07
7.372972e-07
8.9781923e-07
9.3518073e-07
9.0584413e-07
9.0530504e-07
9.0285014e-07
9.0297795e-07
9.0969706e-07
9.1701399e-07
9.1418123e-07
8.9394821e-07
8.6293818e-07
8.3267769e-07
8.1376266e-07
8.0953858e-07
8.1853741e-07
8.3710863e-07
8.5924008e-07
8.7867313e-07
8.8763908e-07
8.8523871e-07
8.7174346e-07
8.5160257e-07
8.3530195e-07
8.2510695e-07
8.2334871e-07
8.2943691e-07
8.380389e-07
8.4592734e-07
8.7081999e-07
9.0550648e-07
9.3413475e-07
9.5877828e-07
9.7329204e-07
9.8513614e-07
9.969144e-07
1.0009812e-06
1.0016106e-06
9.9924282e-07
9.8291517e-07
9.3980597e-07
9.057576e-07
8.7934577e-07
8.5448211e-07
8.3260389e-07
8.1575358e-07
7.9815493e-07
7.8003534e-07
7.7074421e-07
7.6629497e-07
7.6096834e-07
7.5611543e-07
7.5375939e-07
7.5498585e-07
7.5470913e-07
7.5091937e-07
8.984072e-07
9.3405915e-07
9.086697e-07
9.178147e-07
9.2330001e-07
9.3047632e-07
9.4300319e-07
9.6688806e-07
9.9027388e-07
9.8803448e-07
9.5829585e-07
9.1621828e-07
8.9989144e-07
9.1621105e-07
9.435314e-07
9.8241986e-07
1.0710567e-06
1.1573779e-06
1.2137504e-06
1.2486926e-06
1.2729699e-06
1.2769343e-06
1.2498194e-06
1.2308075e-06
1.2246649e-06
1.2254312e-06
1.229943e-06
1.2504829e-06
1.3518122e-06
1.4215854e-06
1.473942e-06
1.5521683e-06
1.600837e-06
1.6367827e-06
1.6369097e-06
1.6380797e-06
1.6523015e-06
1.6728404e-06
1.6683041e-06
1.6354064e-06
1.5535989e-06
1.4919623e-06
1.4265296e-06
1.3684983e-06
1.3307732e-06
1.2845898e-06
1.2177292e-06
1.1692527e-06
1.1527439e-06
1.1365603e-06
1.112906e-06
1.1000903e-06
1.091558e-06
1.0873382e-06
1.0546208e-06
8.8750606e-07
9.0518389e-07
9.0312342e-07
9.5762193e-07
9.7986619e-07
1.0124317e-06
1.083797e-06
1.1668702e-06
1.3131748e-06
1.4036141e-06
1.4806152e-06
1.4787487e-06
1.4749387e-06
1.4875468e-06
1.538085e-06
1.7068408e-06
1.9426532e-06
2.1129604e-06
2.230664e-06
2.2962142e-06
2.3235272e-06
2.3289519e-06
2.32585e-06
2.3013793e-06
2.2938566e-06
2.2977217e-06
2.3121514e-06
2.3427801e-06
2.5124669e-06
2.6712843e-06
2.7251578e-06
2.8259221e-06
2.8939586e-06
2.9879515e-06
2.941388e-06
3.0331642e-06
3.05637e-06
3.0748806e-06
3.0725794e-06
3.04343e-06
2.9437947e-06
2.8661347e-06
2.7830632e-06
2.7009783e-06
2.6641152e-06
2.6308553e-06
2.4732911e-06
2.400687e-06
2.3835793e-06
2.3597828e-06
2.2138559e-06
2.2894074e-06
2.2742047e-06
2.1569327e-06
2.1937415e-06
5.9098781e-07
1.0135734e-06
1.080222e-06
1.1869341e-06
1.3300907e-06
1.4091039e-06
1.5269179e-06
1.7580717e-06
2.1235731e-06
2.2775251e-06
2.3176963e-06
2.3684423e-06
2.4140929e-06
2.454166e-06
2.5810603e-06
2.7664954e-06
2.9645686e-06
3.1369647e-06
3.2566759e-06
3.3560233e-06
3.4517807e-06
3.4980777e-06
3.5302255e-06
3.5557929e-06
3.5459452e-06
3.6082192e-06
3.6006213e-06
3.6376181e-06
3.5415563e-06
3.9332736e-06
3.782207e-06
4.068585e-06
3.9573047e-06
4.0073417e-06
4.3006311e-06
4.2508004e-06
4.0834199e-06
4.3226471e-06
4.3194428e-06
4.2697874e-06
4.1943731e-06
4.0512803e-06
4.1277495e-06
3.9691292e-06
4.007944e-06
4.033967e-06
4.0268486e-06
3.8473641e-06
3.8696426e-06
3.6399593e-06
3.8246551e-06
3.6728164e-06
3.4622994e-06
3.7192957e-06
3.5257464e-06
5.3007965e-07
1.2186055e-06
1.5213435e-06
1.4863741e-06
1.4653499e-06
1.3751224e-06
1.3079262e-06
1.2879067e-06
1.2983981e-06
1.3269869e-06
1.3255391e-06
1.3591407e-06
1.3899818e-06
1.4160646e-06
1.4334678e-06
1.4715288e-06
1.4997848e-06
1.5152364e-06
1.5372176e-06
1.5692973e-06
1.6049306e-06
1.6605958e-06
1.7386774e-06
1.8199825e-06
1.9295556e-06
2.003737e-06
2.088715e-06
2.1564866e-06
2.3679099e-06
2.3325815e-06
2.5985474e-06
2.4616211e-06
2.6986048e-06
2.695898e-06
2.6006986e-06
2.6767944e-06
2.6441792e-06
2.6713578e-06
2.6999507e-06
2.7519762e-06
2.7667834e-06
2.7428977e-06
2.7649564e-06
2.7373101e-06
2.7122255e-06
2.7152534e-06
2.7785031e-06
2.6977473e-06
2.7050612e-06
2.6228725e-06
2.6362021e-06
2.5749528e-06
2.4986799e-06
2.5121955e-06
2.3922002e-06
2.3175551e-06
3.7233315e-06
2.281627e-06
1.1093907e-06
7.6479165e-07
7.4099747e-07
7.5094184e-07
7.6118184e-07
7.6875944e-07
7.7579081e-07
7.832219e-07
7.914367e-07
8.0028398e-07
8.1056887e-07
8.2310688e-07
8.3675835e-07
8.5320943e-07
8.7061794e-07
8.9212497e-07
9.1807916e-07
9.4822056e-07
9.8515507e-07
1.0218799e-06
1.060113e-06
1.1112312e-06
1.1856656e-06
1.2672542e-06
2.1264832e-06
3.7349975e-06
2.34089e-06
1.2046323e-06
7.7859623e-07
7.5000973e-07
7.5864691e-07
7.6786074e-07
7.7575178e-07
7.8454654e-07
7.924996e-07
8.013523e-07
8.1147553e-07
8.2155037e-07
8.3380859e-07
8.477508e-07
8.6367418e-07
8.8315322e-07
9.0377855e-07
9.2931529e-07
9.5919481e-07
9.9561686e-07
1.0340851e-06
1.0704502e-06
1.116488e-06
1.1906078e-06
1.2715437e-06
1.8173645e-06
3.5871561e-06
2.5695886e-06
1.3396344e-06
6.7827974e-07
6.6140506e-07
7.6532333e-07
7.7506636e-07
7.8356481e-07
7.9210386e-07
8.003602e-07
8.0921602e-07
8.1931897e-07
8.3086426e-07
8.4343082e-07
8.5827973e-07
8.744936e-07
8.9314719e-07
9.1556675e-07
9.3974785e-07
9.7061711e-07
1.0060826e-06
1.0470882e-06
1.0862794e-06
1.1268331e-06
1.1992887e-06
1.2825689e-06
1.6506369e-06
3.3511767e-06
2.5225584e-06
1.174634e-06
6.609561e-07
6.1489012e-07
7.6927646e-07
7.8258997e-07
7.9325023e-07
8.0187995e-07
8.102625e-07
8.1983577e-07
8.3053889e-07
8.4279555e-07
8.565832e-07
8.7089109e-07
8.8811645e-07
9.0670287e-07
9.2857336e-07
9.5329539e-07
9.8221064e-07
1.0175648e-06
1.0589504e-06
1.1009775e-06
1.138873e-06
1.2141346e-06
1.2948321e-06
1.5830436e-06
3.3534336e-06
2.434471e-06
1.2474798e-06
7.3355187e-07
6.0098812e-07
7.6757691e-07
7.920936e-07
8.0371999e-07
8.136254e-07
8.2212304e-07
8.321771e-07
8.4360874e-07
8.5576257e-07
8.7078547e-07
8.8590793e-07
9.0361544e-07
9.2324543e-07
9.4443933e-07
9.6982261e-07
9.9777263e-07
1.032443e-06
1.0745046e-06
1.1163304e-06
1.1530263e-06
1.2257286e-06
1.3028078e-06
1.3710231e-06
3.4116699e-06
2.6885301e-06
1.5369208e-06
7.6658014e-07
5.5874642e-07
6.4092122e-07
8.038868e-07
8.1767903e-07
8.2870326e-07
8.3754999e-07
8.4613997e-07
8.5668999e-07
8.6840489e-07
8.8191577e-07
8.9884993e-07
9.1670976e-07
9.3785757e-07
9.6093453e-07
9.8558305e-07
1.014796e-06
1.0494746e-06
1.093159e-06
1.1383275e-06
1.1692989e-06
1.2377148e-06
1.3190586e-06
1.1244666e-06
3.2741563e-06
2.8259676e-06
1.7558149e-06
7.2703317e-07
5.3665249e-07
5.4672255e-07
8.1420248e-07
8.2926634e-07
8.4018647e-07
8.5129048e-07
8.6107295e-07
8.7247074e-07
8.8442925e-07
8.9715694e-07
9.129484e-07
9.3009079e-07
9.5079158e-07
9.7385494e-07
9.9897631e-07
1.0278051e-06
1.0638869e-06
1.1055777e-06
1.1615377e-06
1.1924661e-06
1.2519335e-06
1.337951e-06
9.1635917e-07
2.7383095e-06
2.9348168e-06
1.5825878e-06
6.7039336e-07
4.9632908e-07
5.1812136e-07
7.0219343e-07
8.3542965e-07
8.4666429e-07
8.591754e-07
8.7215392e-07
8.8641213e-07
9.0215075e-07
9.1683492e-07
9.325585e-07
9.5038549e-07
9.6928246e-07
9.9093851e-07
1.0156708e-06
1.0426423e-06
1.0760848e-06
1.1163812e-06
1.1724752e-06
1.2144194e-06
1.2575944e-06
1.3498099e-06
8.5910216e-07
2.6255369e-06
2.8436454e-06
1.4838655e-06
6.7895009e-07
4.968828e-07
5.2485258e-07
6.3555449e-07
8.422049e-07
8.5624139e-07
8.6944064e-07
8.8311342e-07
8.9711293e-07
9.1260623e-07
9.2955505e-07
9.4753266e-07
9.6784915e-07
9.8793551e-07
1.0110111e-06
1.0358647e-06
1.0625244e-06
1.0943268e-06
1.1326764e-06
1.1865138e-06
1.2302248e-06
1.2730741e-06
1.3542102e-06
7.5012586e-07
2.6999215e-06
2.92817e-06
1.6384072e-06
7.4519421e-07
5.1843663e-07
5.2554707e-07
5.8086615e-07
8.5907177e-07
8.793611e-07
8.9389419e-07
9.0536017e-07
9.1613872e-07
9.2881218e-07
9.4332649e-07
9.5957827e-07
9.7977137e-07
1.0010119e-06
1.0260004e-06
1.0520658e-06
1.0812558e-06
1.1130848e-06
1.1508494e-06
1.2084665e-06
1.2480944e-06
1.2925652e-06
1.3629507e-06
5.6375268e-07
2.7325043e-06
3.0374278e-06
1.8149726e-06
7.92103e-07
5.0245051e-07
4.8830073e-07
5.3812048e-07
7.8027678e-07
9.0639897e-07
9.2169497e-07
9.3377358e-07
9.4461765e-07
9.5608729e-07
9.6826642e-07
9.8132566e-07
9.9765894e-07
1.0168868e-06
1.0407425e-06
1.0659144e-06
1.0959552e-06
1.1274215e-06
1.1645682e-06
1.2224578e-06
1.265552e-06
1.3057838e-06
1.3801909e-06
4.2540187e-07
2.672202e-06
3.1185874e-06
2.0373866e-06
8.8445967e-07
5.0739814e-07
4.5790331e-07
5.0582562e-07
7.0682978e-07
9.1929477e-07
9.3591527e-07
9.4922802e-07
9.630491e-07
9.7722807e-07
9.9181493e-07
1.0072697e-06
1.0228446e-06
1.0415456e-06
1.0616139e-06
1.0861991e-06
1.1136183e-06
1.1459106e-06
1.1764433e-06
1.2376181e-06
1.2846021e-06
1.3203251e-06
1.3934863e-06
3.2933276e-07
2.4762493e-06
3.2735769e-06
2.1878907e-06
9.3012519e-07
5.0641478e-07
4.4530126e-07
4.7017429e-07
6.4534978e-07
9.3323819e-07
9.5046879e-07
9.6347047e-07
9.7549043e-07
9.9102285e-07
1.0076404e-06
1.0264403e-06
1.0452094e-06
1.0666414e-06
1.0883012e-06
1.1133e-06
1.1395543e-06
1.1708883e-06
1.1974233e-06
1.2567919e-06
1.3078957e-06
1.3382901e-06
1.4063066e-06
2.6522641e-07
2.1530633e-06
3.3145848e-06
2.2366532e-06
9.8852403e-07
5.1771222e-07
4.2405915e-07
4.544138e-07
5.7980604e-07
8.432723e-07
9.6898517e-07
9.8354496e-07
9.9639194e-07
1.0093094e-06
1.0254668e-06
1.0431474e-06
1.0626891e-06
1.0842831e-06
1.1072796e-06
1.1346757e-06
1.1618856e-06
1.1950279e-06
1.2201336e-06
1.2725208e-06
1.3322578e-06
1.3632855e-06
1.4226758e-06
2.2182858e-07
1.8430945e-06
3.2926853e-06
2.3499749e-06
1.0886112e-06
5.4190653e-07
4.1354903e-07
4.3783766e-07
5.3838501e-07
7.5017025e-07
9.8525431e-07
1.0038968e-06
1.0189873e-06
1.0341267e-06
1.0497722e-06
1.0671902e-06
1.0852088e-06
1.1055314e-06
1.127889e-06
1.1541717e-06
1.1798753e-06
1.2133946e-06
1.2396896e-06
1.28984e-06
1.3512905e-06
1.3895037e-06
1.4365047e-06
1.9168848e-07
1.5778233e-06
3.1749365e-06
2.4703841e-06
1.1715337e-06
5.9230979e-07
4.1311974e-07
4.121932e-07
5.0859582e-07
6.886294e-07
9.9076307e-07
1.025597e-06
1.0419996e-06
1.0556632e-06
1.0712132e-06
1.0875428e-06
1.1055465e-06
1.126236e-06
1.1487474e-06
1.1752085e-06
1.2015583e-06
1.2341739e-06
1.2588427e-06
1.3081449e-06
1.3711628e-06
1.4124613e-06
1.4569832e-06
1.7093769e-07
1.3759096e-06
3.0281838e-06
2.5512622e-06
1.2548877e-06
6.0684552e-07
4.1764292e-07
4.0000672e-07
4.7668555e-07
6.2942621e-07
8.9158745e-07
1.0451307e-06
1.061144e-06
1.0741753e-06
1.0885208e-06
1.1040361e-06
1.1218318e-06
1.142421e-06
1.1644183e-06
1.1900771e-06
1.2202316e-06
1.2529542e-06
1.2766736e-06
1.3169604e-06
1.3924581e-06
1.4329869e-06
1.4829461e-06
1.5584015e-07
1.229273e-06
2.9216669e-06
2.5999042e-06
1.3085724e-06
5.9755914e-07
4.1177713e-07
3.9487939e-07
4.4522487e-07
5.8451667e-07
8.1269918e-07
1.0595236e-06
1.0744157e-06
1.0907262e-06
1.1056201e-06
1.1222472e-06
1.1408951e-06
1.1602294e-06
1.1822435e-06
1.2050324e-06
1.2350893e-06
1.2682696e-06
1.2928377e-06
1.325736e-06
1.400119e-06
1.4462608e-06
1.5004311e-06
1.4009344e-07
1.1292074e-06
2.8301745e-06
2.5962466e-06
1.3146706e-06
6.0009274e-07
4.0155173e-07
3.9242701e-07
4.2136378e-07
5.4329992e-07
7.6461125e-07
1.0462141e-06
1.0969871e-06
1.1116382e-06
1.1276132e-06
1.1443513e-06
1.1630407e-06
1.1830958e-06
1.2042089e-06
1.226843e-06
1.2537428e-06
1.2866132e-06
1.3096797e-06
1.3371085e-06
1.4021524e-06
1.4525816e-06
1.5090809e-06
1.5905292e-07
1.0811715e-06
2.7738532e-06
2.5538132e-06
1.3089323e-06
6.1871615e-07
4.068064e-07
3.848575e-07
4.1075378e-07
5.0767387e-07
7.105789e-07
9.750557e-07
1.1259763e-06
1.1423972e-06
1.1555389e-06
1.1697574e-06
1.1869343e-06
1.2059582e-06
1.2285497e-06
1.2503587e-06
1.2757933e-06
1.3088229e-06
1.3327606e-06
1.3561591e-06
1.4111039e-06
1.4616609e-06
1.5208891e-06
1.6487431e-07
1.0290567e-06
2.7152643e-06
2.5736216e-06
1.3532333e-06
6.4279459e-07
4.2550324e-07
3.8102673e-07
4.0367893e-07
4.8999025e-07
6.5385024e-07
9.1316099e-07
1.1494395e-06
1.167849e-06
1.1818732e-06
1.1981263e-06
1.2141039e-06
1.2314065e-06
1.2528112e-06
1.2735571e-06
1.2981638e-06
1.3295716e-06
1.3581361e-06
1.3783721e-06
1.42362e-06
1.476876e-06
1.5360201e-06
1.4345208e-07
9.6705307e-07
2.6530133e-06
2.6456361e-06
1.4431739e-06
7.0677345e-07
4.4689202e-07
3.869849e-07
4.0244576e-07
4.661489e-07
6.1989687e-07
8.5964243e-07
1.1655145e-06
1.1892356e-06
1.2065656e-06
1.2239201e-06
1.2406335e-06
1.2574815e-06
1.2769667e-06
1.2952948e-06
1.3160949e-06
1.3461654e-06
1.3785797e-06
1.3974023e-06
1.4351547e-06
1.4872481e-06
1.5489209e-06
2.2953938e-07
9.0581953e-07
2.546276e-06
2.7664789e-06
1.5999932e-06
7.7880833e-07
4.8454641e-07
3.9285478e-07
3.999257e-07
4.5203858e-07
5.79831e-07
8.2242787e-07
1.0997025e-06
1.2102631e-06
1.2278944e-06