/*--------------------------------*- C++ -*----------------------------------*\
| =========                 |                                                 |
| \\      /  F ield         | OpenFOAM: The Open Source CFD Toolbox           |
|  \\    /   O peration     | Version:  2406                                  |
|   \\  /    A nd           | Website:  www.openfoam.com                      |
|    \\/     M anipulation  |                                                 |
\*---------------------------------------------------------------------------*/
FoamFile
{
    version     2.0;
    format      ascii;
    arch        "LSB;label=32;scalar=64";
    class       volScalarField;
    location    "25";
    object      k;
}
// * * * * * * * * * * * * * * * * * * * * * * * * * * * * * * * * * * * * * //

dimensions      [0 2 -2 0 0 0 0];

internalField   nonuniform List<scalar> 
96472
(
3.434668e-06
2.7514882e-06
2.1833658e-06
1.854699e-06
1.6189097e-06
1.4513588e-06
1.3227132e-06
1.2044833e-06
1.0880946e-06
9.8099027e-07
8.9427662e-07
8.3205602e-07
7.91236e-07
7.6238926e-07
7.3759622e-07
7.0982776e-07
6.785333e-07
6.4400494e-07
6.104602e-07
5.8064984e-07
5.5723526e-07
5.4043462e-07
5.297619e-07
5.2429148e-07
5.2079606e-07
5.1929134e-07
5.1645289e-07
5.1266055e-07
5.0692059e-07
4.9853148e-07
4.9017323e-07
4.806831e-07
4.7125105e-07
4.6309413e-07
4.5896043e-07
4.5573534e-07
4.534502e-07
4.5123157e-07
4.4989647e-07
4.4877087e-07
4.4941093e-07
4.5123704e-07
4.5709531e-07
4.6576656e-07
4.7897714e-07
4.9369206e-07
5.1462227e-07
5.362387e-07
5.6748725e-07
5.9385382e-07
6.3129942e-07
6.7601008e-07
7.1441758e-07
7.6887622e-07
8.5920297e-07
3.4117668e-06
2.7440387e-06
2.1783822e-06
1.8510504e-06
1.6164455e-06
1.4492489e-06
1.321149e-06
1.2045468e-06
1.0900138e-06
9.8364548e-07
8.9662203e-07
8.3367138e-07
7.9206456e-07
7.6305967e-07
7.3878157e-07
7.1190544e-07
6.8147074e-07
6.4764672e-07
6.1419603e-07
5.838503e-07
5.5955999e-07
5.4167408e-07
5.3029989e-07
5.2415148e-07
5.2035554e-07
5.1859837e-07
5.1560556e-07
5.1155805e-07
5.0597748e-07
4.9744277e-07
4.8799911e-07
4.7673353e-07
4.6553163e-07
4.5632273e-07
4.4728638e-07
4.4099991e-07
4.4073427e-07
4.416007e-07
4.4446046e-07
4.4698737e-07
4.4967304e-07
4.5548012e-07
4.5959432e-07
4.6714689e-07
4.7375808e-07
4.8759805e-07
4.9809074e-07
5.1987258e-07
5.3436585e-07
5.6497568e-07
5.840956e-07
6.1956477e-07
6.5995879e-07
6.9172607e-07
7.7222376e-07
3.4002629e-06
2.7407003e-06
2.1771612e-06
1.8512494e-06
1.6167276e-06
1.4497296e-06
1.3228753e-06
1.2083135e-06
1.0951404e-06
9.8884275e-07
9.0063542e-07
8.3615637e-07
7.9336345e-07
7.6402206e-07
7.3982405e-07
7.1370668e-07
6.8381869e-07
6.5050058e-07
6.1707717e-07
5.8635636e-07
5.6159464e-07
5.4297774e-07
5.3082885e-07
5.2411309e-07
5.2036601e-07
5.1856929e-07
5.1617385e-07
5.1272767e-07
5.0740468e-07
4.9985428e-07
4.9065347e-07
4.7930085e-07
4.6760002e-07
4.5677288e-07
4.4645824e-07
4.3743025e-07
4.2934887e-07
4.2729218e-07
4.2830803e-07
4.3211049e-07
4.3733359e-07
4.4823507e-07
4.5453024e-07
4.6525891e-07
4.7122214e-07
4.8479915e-07
4.9321193e-07
5.1322222e-07
5.2337559e-07
5.4372695e-07
5.6619871e-07
5.8386999e-07
6.1936258e-07
6.4149326e-07
6.9899118e-07
3.3960417e-06
2.7408902e-06
2.1781338e-06
1.8530087e-06
1.6182094e-06
1.451095e-06
1.3253593e-06
1.2125991e-06
1.1004239e-06
9.9394928e-07
9.0451271e-07
8.3869347e-07
7.9476831e-07
7.6516349e-07
7.4114339e-07
7.1586235e-07
6.8658158e-07
6.5387123e-07
6.2035372e-07
5.89305e-07
5.6371297e-07
5.4441285e-07
5.3149105e-07
5.2413513e-07
5.2016777e-07
5.1831847e-07
5.1618326e-07
5.1339054e-07
5.0828944e-07
5.0176152e-07
4.9280845e-07
4.825199e-07
4.7093301e-07
4.5990772e-07
4.4889613e-07
4.3936734e-07
4.3027735e-07
4.2393602e-07
4.2207457e-07
4.2270681e-07
4.2441349e-07
4.3054278e-07
4.3648263e-07
4.5071888e-07
4.584896e-07
4.7555869e-07
4.8402844e-07
5.0067893e-07
5.1717219e-07
5.2945233e-07
5.5359267e-07
5.6742589e-07
5.9643696e-07
6.1332068e-07
6.5467959e-07
3.3959048e-06
2.7428489e-06
2.1804941e-06
1.8559528e-06
1.6206085e-06
1.4530141e-06
1.3279615e-06
1.2167649e-06
1.1055475e-06
9.990168e-07
9.0844731e-07
8.4133409e-07
7.9620577e-07
7.6623531e-07
7.4238225e-07
7.1779118e-07
6.8912887e-07
6.570349e-07
6.2361393e-07
5.9235049e-07
5.6598103e-07
5.4603223e-07
5.3235442e-07
5.2434556e-07
5.2006685e-07
5.1796763e-07
5.1624852e-07
5.1366476e-07
5.0918078e-07
5.0307519e-07
4.9475349e-07
4.850512e-07
4.7363091e-07
4.6296316e-07
4.5146063e-07
4.4328422e-07
4.3314398e-07
4.2579549e-07
4.2105447e-07
4.208195e-07
4.2122183e-07
4.2397783e-07
4.2726873e-07
4.3572231e-07
4.4173357e-07
4.5312232e-07
4.6761953e-07
4.7758753e-07
4.9855633e-07
5.0990786e-07
5.3359591e-07
5.4680072e-07
5.7410824e-07
5.8884793e-07
6.237534e-07
3.4008101e-06
2.747696e-06
2.1848016e-06
1.8602903e-06
1.624526e-06
1.4566297e-06
1.3322916e-06
1.2223426e-06
1.1116892e-06
1.0046405e-06
9.1275339e-07
8.4413418e-07
7.9784565e-07
7.6740346e-07
7.436166e-07
7.1966355e-07
6.9162491e-07
6.6004103e-07
6.2678327e-07
5.9532118e-07
5.6837825e-07
5.4770051e-07
5.3329041e-07
5.2459096e-07
5.2003882e-07
5.1769779e-07
5.1619131e-07
5.1376503e-07
5.1006293e-07
5.0411885e-07
4.9637911e-07
4.8714991e-07
4.7600817e-07
4.6540972e-07
4.536734e-07
4.4514984e-07
4.3560688e-07
4.2814811e-07
4.212938e-07
4.1987746e-07
4.1986228e-07
4.2100268e-07
4.233783e-07
4.2775254e-07
4.3550872e-07
4.4121874e-07
4.5337701e-07
4.6119524e-07
4.7811039e-07
4.8817463e-07
5.0944506e-07
5.2147627e-07
5.4621171e-07
5.5997421e-07
5.9171703e-07
3.4052647e-06
2.751992e-06
2.1898837e-06
1.8672354e-06
1.6321609e-06
1.4631135e-06
1.3376709e-06
1.2274854e-06
1.1169213e-06
1.0094182e-06
9.1652069e-07
8.4661293e-07
7.9932698e-07
7.6838362e-07
7.4473017e-07
7.2135238e-07
6.9405182e-07
6.6296698e-07
6.3000832e-07
5.9833111e-07
5.7085896e-07
5.4953699e-07
5.343927e-07
5.2496802e-07
5.2006236e-07
5.1758507e-07
5.1611472e-07
5.1397872e-07
5.1077952e-07
5.0519066e-07
4.981252e-07
4.8925065e-07
4.7873403e-07
4.6794749e-07
4.5656031e-07
4.4696532e-07
4.379307e-07
4.3025848e-07
4.2240403e-07
4.1895322e-07
4.1856294e-07
4.1905456e-07
4.2085041e-07
4.2362566e-07
4.2992951e-07
4.3454584e-07
4.4456559e-07
4.5088764e-07
4.6441319e-07
4.7269862e-07
4.9011244e-07
5.0017266e-07
5.2130342e-07
5.3329424e-07
5.6102589e-07
3.404936e-06
2.759293e-06
2.2019172e-06
1.8786094e-06
1.6409551e-06
1.4684529e-06
1.3403742e-06
1.2293037e-06
1.1193076e-06
1.0124023e-06
9.193339e-07
8.4870718e-07
8.0061257e-07
7.6930455e-07
7.457958e-07
7.2299863e-07
6.9644126e-07
6.6589803e-07
6.332614e-07
6.0145124e-07
5.7339276e-07
5.5140866e-07
5.3565815e-07
5.2555427e-07
5.2013782e-07
5.1749406e-07
5.1596493e-07
5.1424947e-07
5.1126591e-07
5.0632305e-07
4.9955e-07
4.9110632e-07
4.8117372e-07
4.7031568e-07
4.5946294e-07
4.4882159e-07
4.3996447e-07
4.3216835e-07
4.2430564e-07
4.1879955e-07
4.1718568e-07
4.1733999e-07
4.1838699e-07
4.2037192e-07
4.2534744e-07
4.2923006e-07
4.3762213e-07
4.4299245e-07
4.5452927e-07
4.6142003e-07
4.7589748e-07
4.8444258e-07
5.0219608e-07
5.1211756e-07
5.3512367e-07
3.3889593e-06
2.7591545e-06
2.2036881e-06
1.8779839e-06
1.6380904e-06
1.4642954e-06
1.3368049e-06
1.2278098e-06
1.1200724e-06
1.0145716e-06
9.2177187e-07
8.5064822e-07
8.0190771e-07
7.7023456e-07
7.4687974e-07
7.2464958e-07
6.9876364e-07
6.6880826e-07
6.3649991e-07
6.0463174e-07
5.7615465e-07
5.5341e-07
5.3699243e-07
5.262641e-07
5.2031634e-07
5.1748458e-07
5.1585251e-07
5.1443402e-07
5.1161091e-07
5.0743697e-07
5.0095993e-07
4.9299219e-07
4.8357244e-07
4.7285006e-07
4.6227319e-07
4.5131309e-07
4.4206973e-07
4.3403173e-07
4.2654444e-07
4.1967677e-07
4.1631078e-07
4.159098e-07
4.1637216e-07
4.176522e-07
4.2133287e-07
4.2452077e-07
4.3170331e-07
4.3639347e-07
4.4628252e-07
4.5214919e-07
4.647225e-07
4.7187441e-07
4.8689549e-07
4.9563974e-07
5.1495942e-07
3.3653032e-06
2.7444992e-06
2.1847793e-06
1.8611267e-06
1.6242508e-06
1.454073e-06
1.3308835e-06
1.2259376e-06
1.1212524e-06
1.0171898e-06
9.2460319e-07
8.5285162e-07
8.0343938e-07
7.7137104e-07
7.4808719e-07
7.2634357e-07
7.0116531e-07
6.7176157e-07
6.3974981e-07
6.0781482e-07
5.7901326e-07
5.5560095e-07
5.3844829e-07
5.271223e-07
5.2060545e-07
5.1752496e-07
5.1583928e-07
5.1453588e-07
5.1200305e-07
5.0826164e-07
5.022256e-07
4.9464818e-07
4.8572358e-07
4.7536003e-07
4.6480332e-07
4.5402325e-07
4.4431785e-07
4.357051e-07
4.2868305e-07
4.2140472e-07
4.1635458e-07
4.1467208e-07
4.1480589e-07
4.1553536e-07
4.1792394e-07
4.2054611e-07
4.2650066e-07
4.305322e-07
4.3912587e-07
4.4432215e-07
4.5521265e-07
4.614182e-07
4.7466657e-07
4.8174052e-07
4.9819278e-07
3.3706624e-06
2.7466905e-06
2.1841341e-06
1.8606812e-06
1.623787e-06
1.4536951e-06
1.3313484e-06
1.2280355e-06
1.124863e-06
1.0213925e-06
9.2844677e-07
8.5571343e-07
8.0533994e-07
7.7266651e-07
7.4933804e-07
7.2802378e-07
7.0355614e-07
6.7470943e-07
6.4304427e-07
6.1107157e-07
5.8188794e-07
5.5784702e-07
5.400391e-07
5.2814414e-07
5.2097937e-07
5.175458e-07
5.1586406e-07
5.1456832e-07
5.1246207e-07
5.0895321e-07
5.0352683e-07
4.9626786e-07
4.8775992e-07
4.7781268e-07
4.6744636e-07
4.5677895e-07
4.469207e-07
4.3761798e-07
4.3065948e-07
4.2345562e-07
4.1741682e-07
4.1399591e-07
4.136061e-07
4.1386517e-07
4.1524071e-07
4.1723516e-07
4.2203969e-07
4.2546343e-07
4.3304373e-07
4.3756601e-07
4.4700644e-07
4.5258355e-07
4.6397045e-07
4.7026066e-07
4.8400309e-07
3.3855502e-06
2.7604755e-06
2.1962191e-06
1.8705355e-06
1.6311093e-06
1.4592154e-06
1.3361071e-06
1.2326926e-06
1.129623e-06
1.0261113e-06
9.3255986e-07
8.58794e-07
8.0739316e-07
7.7407817e-07
7.5070047e-07
7.2978238e-07
7.0592503e-07
6.7770393e-07
6.4641279e-07
6.1447332e-07
5.8495925e-07
5.6023516e-07
5.4175555e-07
5.2925316e-07
5.2155179e-07
5.1766196e-07
5.1592505e-07
5.1459772e-07
5.1285687e-07
5.0957166e-07
5.0472255e-07
4.9783346e-07
4.8964789e-07
4.8017752e-07
4.7005129e-07
4.5941898e-07
4.4965504e-07
4.3984032e-07
4.3240466e-07
4.2544342e-07
4.1925866e-07
4.1433668e-07
4.1259207e-07
4.1257558e-07
4.1319796e-07
4.1460202e-07
4.1821068e-07
4.2121027e-07
4.2752431e-07
4.3147578e-07
4.3986944e-07
4.4482649e-07
4.5452199e-07
4.60571e-07
4.7213504e-07
3.4101352e-06
2.7738879e-06
2.2128929e-06
1.8889608e-06
1.648172e-06
1.4731687e-06
1.3471088e-06
1.2415204e-06
1.1370783e-06
1.0325518e-06
9.3781307e-07
8.6258219e-07
8.0993468e-07
7.7577114e-07
7.5219737e-07
7.3159176e-07
7.0831274e-07
6.8067336e-07
6.4970477e-07
6.1783356e-07
5.8805889e-07
5.6276838e-07
5.4356647e-07
5.3041079e-07
5.2221659e-07
5.1785056e-07
5.1596187e-07
5.1473083e-07
5.1313667e-07
5.1018583e-07
5.0571805e-07
4.9938334e-07
4.9144045e-07
4.8242729e-07
4.7254022e-07
4.6206381e-07
4.5244184e-07
4.4243946e-07
4.3427543e-07
4.2718934e-07
4.2133795e-07
4.1553628e-07
4.1224726e-07
4.1151301e-07
4.1174431e-07
4.1254259e-07
4.1509448e-07
4.1748043e-07
4.229732e-07
4.2642456e-07
4.3376884e-07
4.379253e-07
4.4691633e-07
4.5173159e-07
4.6199507e-07
3.4171844e-06
2.7754659e-06
2.2124088e-06
1.893492e-06
1.6571667e-06
1.4834664e-06
1.3569261e-06
1.250172e-06
1.1445457e-06
1.0387567e-06
9.427696e-07
8.6618219e-07
8.1240606e-07
7.7748577e-07
7.5372435e-07
7.3340941e-07
7.1078054e-07
6.837319e-07
6.531167e-07
6.2131866e-07
5.912605e-07
5.6544569e-07
5.4560584e-07
5.3179179e-07
5.2303245e-07
5.1820266e-07
5.1605008e-07
5.1495822e-07
5.1342284e-07
5.1092574e-07
5.0657101e-07
5.0085469e-07
4.9318178e-07
4.8454009e-07
4.7497657e-07
4.6481677e-07
4.5510726e-07
4.45268e-07
4.3660223e-07
4.2892245e-07
4.2325705e-07
4.1741289e-07
4.1283253e-07
4.1070279e-07
4.1066699e-07
4.1097335e-07
4.125398e-07
4.1439586e-07
4.1889909e-07
4.2177197e-07
4.2827536e-07
4.3180861e-07
4.3980851e-07
4.4397647e-07
4.5328932e-07
3.416629e-06
2.7784653e-06
2.2162075e-06
1.8983007e-06
1.6623712e-06
1.4890362e-06
1.3629744e-06
1.2567929e-06
1.1514038e-06
1.0451133e-06
9.480443e-07
8.701227e-07
8.1510997e-07
7.7936711e-07
7.5535069e-07
7.3526737e-07
7.1319835e-07
6.8675304e-07
6.5647432e-07
6.2478991e-07
5.9449254e-07
5.6814462e-07
5.4763735e-07
5.3318861e-07
5.2392296e-07
5.1862572e-07
5.1614145e-07
5.150848e-07
5.1367513e-07
5.1156511e-07
5.0743874e-07
5.0221311e-07
4.9493637e-07
4.8647738e-07
4.7721261e-07
4.6743554e-07
4.5776902e-07
4.4814163e-07
4.3922793e-07
4.3076656e-07
4.2507393e-07
4.19517e-07
4.1431878e-07
4.1071537e-07
4.0982249e-07
4.0994701e-07
4.1063663e-07
4.1215905e-07
4.1553365e-07
4.1818301e-07
4.2361232e-07
4.2705987e-07
4.3345785e-07
4.3763452e-07
4.4577102e-07
3.4116196e-06
2.7826397e-06
2.2210233e-06
1.9002305e-06
1.6616463e-06
1.4874986e-06
1.3621307e-06
1.2576311e-06
1.1539072e-06
1.0487976e-06
9.5182926e-07
8.7331907e-07
8.1744152e-07
7.8109381e-07
7.5692183e-07
7.3711915e-07
7.1556271e-07
6.8975268e-07
6.5986171e-07
6.2833631e-07
5.9788649e-07
5.7113804e-07
5.4990715e-07
5.3482765e-07
5.2503045e-07
5.1934784e-07
5.1651109e-07
5.1534385e-07
5.1414255e-07
5.1216578e-07
5.0839283e-07
5.0345484e-07
4.9669861e-07
4.8848352e-07
4.794614e-07
4.6998536e-07
4.6047264e-07
4.5085975e-07
4.4197397e-07
4.3315308e-07
4.2684406e-07
4.2132491e-07
4.1626061e-07
4.1154086e-07
4.0933149e-07
4.0895949e-07
4.0932066e-07
4.101063e-07
4.1264023e-07
4.1479444e-07
4.1935031e-07
4.2235578e-07
4.2750549e-07
4.318891e-07
4.3886144e-07
3.3943913e-06
2.7778651e-06
2.2200461e-06
1.901007e-06
1.6631362e-06
1.4892741e-06
1.3640165e-06
1.2595474e-06
1.1560172e-06
1.0513089e-06
9.5451805e-07
8.7570901e-07
8.1936949e-07
7.8264669e-07
7.5840859e-07
7.3886497e-07
7.1787967e-07
6.926131e-07
6.6309965e-07
6.3169193e-07
6.010731e-07
5.7399205e-07
5.5213141e-07
5.3642872e-07
5.2604693e-07
5.2000172e-07
5.1682557e-07
5.1553035e-07
5.1457375e-07
5.1275719e-07
5.0932664e-07
5.0458655e-07
4.9828668e-07
4.9038541e-07
4.8142136e-07
4.7238887e-07
4.6332554e-07
4.5368764e-07
4.4472739e-07
4.3570527e-07
4.2883175e-07
4.2324781e-07
4.185169e-07
4.133058e-07
4.0975369e-07
4.0845659e-07
4.0852429e-07
4.0890657e-07
4.1069862e-07
4.1230236e-07
4.1639167e-07
4.1891413e-07
4.2313441e-07
4.2729637e-07
4.3307398e-07
3.39342e-06
2.7816807e-06
2.2242768e-06
1.9060265e-06
1.668239e-06
1.4935826e-06
1.367197e-06
1.2620809e-06
1.1585693e-06
1.0541482e-06
9.574518e-07
8.7831515e-07
8.2146745e-07
7.843318e-07
7.5998906e-07
7.4062533e-07
7.2022322e-07
6.9554519e-07
6.6642879e-07
6.3524467e-07
6.0452098e-07
5.7709697e-07
5.5469138e-07
5.3839401e-07
5.2744661e-07
5.2094944e-07
5.1744352e-07
5.1599334e-07
5.1507319e-07
5.1344447e-07
5.102921e-07
5.0583429e-07
4.9987414e-07
4.9244101e-07
4.8355841e-07
4.7469703e-07
4.6582302e-07
4.5653775e-07
4.4748761e-07
4.3854021e-07
4.3135014e-07
4.2491028e-07
4.2013526e-07
4.1519484e-07
4.1089072e-07
4.0831754e-07
4.0776555e-07
4.0799526e-07
4.0879887e-07
4.1015946e-07
4.130878e-07
4.1527351e-07
4.1881944e-07
4.2300036e-07
4.2769913e-07
3.3988166e-06
2.7844661e-06
2.227182e-06
1.9094742e-06
1.6720891e-06
1.4974264e-06
1.3707048e-06
1.2653565e-06
1.1617492e-06
1.0573317e-06
9.6042783e-07
8.8087895e-07
8.234774e-07
7.8596965e-07
7.6156854e-07
7.4240284e-07
7.2245335e-07
6.9822375e-07
6.6951043e-07
6.3846526e-07
6.0764001e-07
5.7995532e-07
5.5695345e-07
5.400701e-07
5.2861989e-07
5.2173116e-07
5.179593e-07
5.163461e-07
5.1544621e-07
5.1412797e-07
5.1121922e-07
5.0718649e-07
5.0137901e-07
4.9415851e-07
4.8548408e-07
4.7687821e-07
4.6856904e-07
4.5949685e-07
4.4984607e-07
4.4094793e-07
4.3413243e-07
4.2743389e-07
4.2227576e-07
4.1755718e-07
4.1295962e-07
4.0895557e-07
4.0753845e-07
4.07432e-07
4.079163e-07
4.0895078e-07
4.1132404e-07
4.1298961e-07
4.1620578e-07
4.1963797e-07
4.2329665e-07
3.4126119e-06
2.7946074e-06
2.2352038e-06
1.9171045e-06
1.6788571e-06
1.5028598e-06
1.3751369e-06
1.2694186e-06
1.1658713e-06
1.0615831e-06
9.6437782e-07
8.842159e-07
8.2609672e-07
7.8810636e-07
7.6351443e-07
7.4457154e-07
7.2500547e-07
7.013198e-07
6.7284891e-07
6.4202354e-07
6.1111957e-07
5.8313494e-07
5.5964044e-07
5.4214872e-07
5.3016424e-07
5.2286963e-07
5.1890239e-07
5.1706494e-07
5.1612312e-07
5.1504743e-07
5.1260865e-07
5.0895586e-07
5.0347309e-07
4.9646801e-07
4.8804932e-07
4.7920396e-07
4.7082675e-07
4.6221567e-07
4.5290977e-07
4.4377572e-07
4.3665637e-07
4.2964809e-07
4.237372e-07
4.1877746e-07
4.1475646e-07
4.1044509e-07
4.0764265e-07
4.0691218e-07
4.0708395e-07
4.0751913e-07
4.0877815e-07
4.102456e-07
4.1253723e-07
4.1593245e-07
4.1984477e-07
3.4272362e-06
2.8007823e-06
2.2401022e-06
1.9217906e-06
1.6833509e-06
1.506762e-06
1.3785256e-06
1.2727664e-06
1.1693904e-06
1.0651286e-06
9.6761645e-07
8.8689184e-07
8.282338e-07
7.8992972e-07
7.6541387e-07
7.4685785e-07
7.2797222e-07
7.0483929e-07
6.7697924e-07
6.4601261e-07
6.1489515e-07
5.864217e-07
5.6246974e-07
5.4433779e-07
5.3197305e-07
5.2449842e-07
5.2063652e-07
5.1890161e-07
5.1821796e-07
5.1761904e-07
5.1639004e-07
5.1389404e-07
5.0934075e-07
5.0241029e-07
4.9390411e-07
4.8527881e-07
4.7739079e-07
4.6824975e-07
4.5748007e-07
4.4774311e-07
4.40526e-07
4.3369389e-07
4.2702778e-07
4.2142842e-07
4.171873e-07
4.1221345e-07
4.08204e-07
4.0695609e-07
4.0704016e-07
4.0732048e-07
4.080871e-07
4.0918382e-07
4.1071666e-07
4.1354115e-07
4.1523278e-07
3.4388301e-06
2.8101669e-06
2.2485493e-06
1.9305524e-06
1.6913796e-06
1.5135063e-06
1.3843935e-06
1.2791764e-06
1.1768897e-06
1.0729181e-06
9.743488e-07
8.9205524e-07
8.3174296e-07
7.9268852e-07
7.6864082e-07
7.5194946e-07
7.3572046e-07
7.1533358e-07
6.8980061e-07
6.595054e-07
6.279292e-07
5.9796706e-07
5.7332886e-07
5.544483e-07
5.4199217e-07
5.3491907e-07
5.3212697e-07
5.317263e-07
5.3246437e-07
5.3435427e-07
5.3525248e-07
5.3550843e-07
5.3506789e-07
5.3253555e-07
5.2459828e-07
5.1491072e-07
5.0672937e-07
4.9623643e-07
4.8119499e-07
4.6732006e-07
4.5654349e-07
4.4711997e-07
4.3833815e-07
4.3068781e-07
4.2539574e-07
4.1969143e-07
4.1435584e-07
4.1092146e-07
4.0959502e-07
4.0930295e-07
4.095832e-07
4.0983206e-07
4.1097381e-07
4.1381772e-07
4.1482008e-07
3.4467442e-06
2.8150842e-06
2.254026e-06
1.9394843e-06
1.7048222e-06
1.5300016e-06
1.4032089e-06
1.3056823e-06
1.2118226e-06
1.1088797e-06
1.0038931e-06
9.1458337e-07
8.4990626e-07
8.1044493e-07
7.9033353e-07
7.8399758e-07
7.8281302e-07
7.789688e-07
7.6753649e-07
7.4456103e-07
7.1357131e-07
6.7892679e-07
6.4993211e-07
6.290175e-07
6.1755215e-07
6.1319366e-07
6.1207843e-07
6.1433953e-07
6.2980176e-07
6.4932743e-07
6.6407097e-07
6.7918617e-07
6.8638677e-07
6.8761241e-07
6.8638296e-07
6.8347172e-07
6.8133239e-07
6.7539349e-07
6.5206745e-07
6.0847081e-07
5.7705502e-07
5.5359373e-07
5.3105699e-07
5.1174009e-07
4.9726438e-07
4.8128903e-07
4.6517703e-07
4.5711878e-07
4.5388836e-07
4.4992685e-07
4.4530159e-07
4.429683e-07
4.425253e-07
4.4211045e-07
4.3775137e-07
3.4552185e-06
2.8367653e-06
2.2878639e-06
2.0067706e-06
1.8010171e-06
1.6533734e-06
1.5475972e-06
1.4970194e-06
1.4564715e-06
1.3695081e-06
1.2357001e-06
1.1080069e-06
1.0319177e-06
1.0103457e-06
1.0140147e-06
1.0449969e-06
1.1370321e-06
1.2249513e-06
1.277724e-06
1.2996897e-06
1.299419e-06
1.2695179e-06
1.2131079e-06
1.1681947e-06
1.1462984e-06
1.1385477e-06
1.137111e-06
1.1564096e-06
1.2666944e-06
1.352908e-06
1.4137632e-06
1.5132235e-06
1.5737221e-06
1.6159374e-06
1.6103752e-06
1.6053234e-06
1.6251512e-06
1.655208e-06
1.6440516e-06
1.5740383e-06
1.4304185e-06
1.3369834e-06
1.2401119e-06
1.1569702e-06
1.1075976e-06
1.0441744e-06
9.5036888e-07
8.8500019e-07
8.6272551e-07
8.444937e-07
8.1467133e-07
7.9721754e-07
7.8579583e-07
7.801377e-07
7.4370669e-07
3.4762865e-06
2.962992e-06
2.4881726e-06
2.3688262e-06
2.2295408e-06
2.191274e-06
2.2124292e-06
2.3288687e-06
2.5978751e-06
2.699776e-06
2.671206e-06
2.5158297e-06
2.4277707e-06
2.4325085e-06
2.5254013e-06
2.8650774e-06
3.4090983e-06
3.8288752e-06
4.134647e-06
4.3114138e-06
4.3787421e-06
4.3739226e-06
4.3209011e-06
4.1877702e-06
4.1323148e-06
4.114405e-06
4.1075678e-06
4.1572189e-06
4.5334009e-06
4.9673707e-06
5.1160299e-06
5.3766124e-06
5.5405206e-06
5.8130574e-06
5.9133817e-06
5.9376133e-06
6.07566e-06
6.2785255e-06
6.2809554e-06
6.1429663e-06
5.6891724e-06
5.4239789e-06
5.1527478e-06
4.8842093e-06
4.7767374e-06
4.6729629e-06
4.358983e-06
3.9221745e-06
3.7521755e-06
3.6760203e-06
3.5342091e-06
3.3997247e-06
3.3351211e-06
3.3115072e-06
3.1888395e-06
3.9738942e-06
4.7186289e-06
4.2097403e-06
4.2774346e-06
4.6035069e-06
4.842479e-06
5.2908396e-06
6.4379249e-06
8.0001391e-06
8.7856409e-06
8.9090216e-06
8.9356956e-06
9.0249836e-06
9.3222249e-06
1.002558e-05
1.1153342e-05
1.2223905e-05
1.3052692e-05
1.3766437e-05
1.4384102e-05
1.4808686e-05
1.4972097e-05
1.5087478e-05
1.5074634e-05
1.5109899e-05
1.5112411e-05
1.5050239e-05
1.5043011e-05
1.5652969e-05
1.6255375e-05
1.6780413e-05
1.7005919e-05
1.7176503e-05
1.7941945e-05
1.8000919e-05
1.803245e-05
1.8763776e-05
1.9398109e-05
1.9372683e-05
1.876593e-05
1.7577236e-05
1.7397798e-05
1.7117877e-05
1.700227e-05
1.7027783e-05
1.7073644e-05
1.6656514e-05
1.5602047e-05
1.5150999e-05
1.5067476e-05
1.4863171e-05
1.441812e-05
1.4277503e-05
1.420016e-05
1.4042387e-05
7.9277825e-06
3.5929558e-05
3.3081683e-05
3.6763646e-05
3.6150994e-05
3.551913e-05
3.3010634e-05
3.1602481e-05
3.1457291e-05
3.1849756e-05
3.2530416e-05
3.2648164e-05
3.2372991e-05
3.1046872e-05
2.9908192e-05
2.8946373e-05
2.8365856e-05
2.8141231e-05
2.8137671e-05
2.8341484e-05
2.8804318e-05
2.9433927e-05
3.0142188e-05
3.0890903e-05
3.1536181e-05
3.2246727e-05
3.2735927e-05
3.2928582e-05
3.2811153e-05
3.3125118e-05
3.3071212e-05
3.3334046e-05
3.3135792e-05
3.3122846e-05
3.3362715e-05
3.2891108e-05
3.2464982e-05
3.2830936e-05
3.321702e-05
3.3925783e-05
3.4144361e-05
3.384781e-05
3.4163807e-05
3.3814369e-05
3.3501799e-05
3.3564404e-05
3.4434998e-05
3.3364069e-05
3.3475466e-05
3.2379098e-05
3.2571518e-05
3.1748269e-05
3.0739663e-05
3.091885e-05
2.9353231e-05
2.9292427e-05
1.4560717e-05
3.4024717e-06
7.9933239e-07
4.4809972e-07
4.1807713e-07
4.1827831e-07
4.2339619e-07
4.2785637e-07
4.329596e-07
4.385286e-07
4.4453728e-07
4.5143512e-07
4.5918085e-07
4.686771e-07
4.7943181e-07
4.9206641e-07
5.0615287e-07
5.2319005e-07
5.4426714e-07
5.7058065e-07
6.0287168e-07
6.3591271e-07
6.6880631e-07
7.1515985e-07
7.8696192e-07
8.6919603e-07
2.8411034e-05
1.4848213e-05
3.6691548e-06
8.9852777e-07
4.7239768e-07
4.2618725e-07
4.2437816e-07
4.2837831e-07
4.3308489e-07
4.3911846e-07
4.4517593e-07
4.5201091e-07
4.5969652e-07
4.6781544e-07
4.7733456e-07
4.8827639e-07
5.0097147e-07
5.1604333e-07
5.329615e-07
5.5374949e-07
5.7950541e-07
6.1221819e-07
6.4681277e-07
6.7915798e-07
7.2100882e-07
7.9231233e-07
8.733798e-07
2.5593465e-05
1.5860912e-05
4.3219551e-06
1.073344e-06
5.0156921e-07
4.3380991e-07
4.3142226e-07
4.347619e-07
4.3943371e-07
4.4505659e-07
4.5105528e-07
4.5787287e-07
4.6578216e-07
4.746921e-07
4.8490539e-07
4.9659459e-07
5.0969808e-07
5.2470678e-07
5.4253494e-07
5.6291258e-07
5.8897297e-07
6.2144085e-07
6.5892245e-07
6.934298e-07
7.3108864e-07
8.0297749e-07
8.8484e-07
2.4620487e-05
1.6594809e-05
4.8036989e-06
1.1758108e-06
5.1816084e-07
4.3786736e-07
4.357334e-07
4.4088819e-07
4.4695942e-07
4.5290329e-07
4.5937015e-07
4.6661403e-07
4.7490251e-07
4.8433098e-07
4.9513629e-07
5.0687396e-07
5.2058176e-07
5.3584964e-07
5.5377265e-07
5.7431879e-07
5.9946065e-07
6.3125641e-07
6.7031694e-07
7.0796539e-07
7.4342483e-07
8.1754458e-07
8.9934565e-07
2.5097145e-05
1.6391703e-05
4.9197548e-06
1.2338826e-06
5.3570175e-07
4.4254042e-07
4.4220349e-07
4.4856523e-07
4.5539889e-07
4.6202672e-07
4.6889909e-07
4.7664694e-07
4.8554403e-07
4.9529668e-07
5.0698089e-07
5.1927604e-07
5.3367209e-07
5.4955467e-07
5.6743644e-07
5.8852503e-07
6.1311062e-07
6.4472461e-07
6.8447594e-07
7.2375724e-07
7.5784443e-07
8.2939902e-07
9.1023112e-07
2.3017239e-05
1.6246488e-05
5.1028278e-06
1.3608236e-06
5.7774016e-07
4.540021e-07
4.5279e-07
4.5987505e-07
4.67358e-07
4.7426776e-07
4.8093365e-07
4.8781483e-07
4.9611572e-07
5.0552044e-07
5.1659964e-07
5.2995954e-07
5.4483795e-07
5.621132e-07
5.8139178e-07
6.0267917e-07
6.280296e-07
6.6027046e-07
7.0150907e-07
7.4485608e-07
7.7512564e-07
8.4288952e-07
9.2721237e-07
1.9982903e-05
1.6495093e-05
5.7779569e-06
1.7160971e-06
6.7477999e-07
4.7711013e-07
4.6179737e-07
4.7041761e-07
4.7753782e-07
4.8404698e-07
4.9168867e-07
4.9978066e-07
5.0891511e-07
5.1868077e-07
5.2939137e-07
5.4215507e-07
5.5647975e-07
5.7373239e-07
5.9320673e-07
6.1497962e-07
6.4041676e-07
6.7320554e-07
7.1430631e-07
7.6670178e-07
7.9741553e-07
8.5846075e-07
9.4718344e-07
1.726081e-05
1.648335e-05
6.8576723e-06
2.011579e-06
7.3489568e-07
4.9095482e-07
4.6603182e-07
4.7534406e-07
4.8303118e-07
4.8969901e-07
4.9818542e-07
5.0852522e-07
5.2012188e-07
5.326212e-07
5.4507421e-07
5.5852083e-07
5.7345599e-07
5.901457e-07
6.0877648e-07
6.3060563e-07
6.5472991e-07
6.8552306e-07
7.2521505e-07
7.7995707e-07
8.189028e-07
8.6723904e-07
9.6180648e-07
1.7238175e-05
1.6253362e-05
7.0728397e-06
2.0835113e-06
7.549557e-07
4.9709929e-07
4.6836998e-07
4.7806787e-07
4.8922344e-07
4.9775952e-07
5.0727734e-07
5.1808478e-07
5.296214e-07
5.4219627e-07
5.5629116e-07
5.7160614e-07
5.8861505e-07
6.0653574e-07
6.2674621e-07
6.4905318e-07
6.7345703e-07
7.0299826e-07
7.4099876e-07
7.9547267e-07
8.3735046e-07
8.8287376e-07
9.7020482e-07
1.6016925e-05
1.6016741e-05
7.0927952e-06
2.131783e-06
7.8021283e-07
5.0599678e-07
4.7274417e-07
4.833256e-07
5.0425663e-07
5.1710097e-07
5.2796955e-07
5.3745344e-07
5.4683205e-07
5.5724815e-07
5.6936413e-07
5.8325259e-07
6.0012765e-07
6.1868749e-07
6.4063535e-07
6.6403039e-07
6.9092459e-07
7.2059608e-07
7.5840197e-07
8.1625562e-07
8.5750428e-07
9.0258621e-07
9.8224956e-07
1.278177e-05
1.5884696e-05
7.2523677e-06
2.2723937e-06
8.4763956e-07
5.2837936e-07
4.8497713e-07
4.9609029e-07
5.2620767e-07
5.4164232e-07
5.5196172e-07
5.6147769e-07
5.7070176e-07
5.8016878e-07
5.9081718e-07
6.0231385e-07
6.1670814e-07
6.337129e-07
6.5487645e-07
6.7813797e-07
7.0532793e-07
7.3563495e-07
7.7178729e-07
8.310961e-07
8.7639458e-07
9.1869817e-07
1.0004719e-06
1.0259183e-05
1.5790691e-05
7.9472691e-06
2.7085344e-06
1.0164198e-06
5.8130173e-07
5.0498475e-07
5.0970283e-07
5.4056055e-07
5.5538708e-07
5.6587929e-07
5.7573632e-07
5.8650712e-07
5.9828804e-07
6.1083966e-07
6.2446275e-07
6.3896078e-07
6.5578799e-07
6.7469413e-07
6.9764315e-07
7.2317737e-07
7.5422307e-07
7.8549188e-07
8.4682266e-07
8.9687052e-07
9.3587883e-07
1.0164769e-06
8.4618639e-06
1.558113e-05
9.0181608e-06
3.1711577e-06
1.1443658e-06
6.1633298e-07
5.1661773e-07
5.1705757e-07
5.4520229e-07
5.6744279e-07
5.7810467e-07
5.8760427e-07
5.9808636e-07
6.1107725e-07
6.2571563e-07
6.4208627e-07
6.5933314e-07
6.7888476e-07
6.9930927e-07
7.2337886e-07
7.4867094e-07
7.7896362e-07
8.0735415e-07
8.670715e-07
9.2182529e-07
9.5690116e-07
1.0330072e-06
7.2679444e-06
1.5111842e-05
9.7499921e-06
3.5764082e-06
1.2657112e-06
6.4875305e-07
5.2500267e-07
5.2201437e-07
5.4623351e-07
5.8205921e-07
5.9528164e-07
6.0572181e-07
6.1703137e-07
6.2899347e-07
6.4322279e-07
6.5924353e-07
6.7684522e-07
6.9682195e-07
7.1844701e-07
7.443063e-07
7.7144115e-07
8.0333072e-07
8.3054122e-07
8.8556422e-07
9.4870474e-07
9.8423699e-07
1.0532687e-06
6.4854928e-06
1.4139112e-05
1.0335849e-05
3.9766784e-06
1.4400055e-06
7.057955e-07
5.4077474e-07
5.3062026e-07
5.4912226e-07
5.9558982e-07
6.1523053e-07
6.2799771e-07
6.403903e-07
6.5357218e-07
6.6755559e-07
6.8299762e-07
6.9970503e-07
7.1861595e-07
7.3974838e-07
7.6483476e-07
7.9097868e-07
8.237728e-07
8.5140256e-07
9.0460759e-07
9.7187482e-07
1.0128332e-06
1.0712823e-06
5.9808975e-06
1.2979821e-05
1.0598054e-05
4.4283357e-06
1.6472961e-06
7.7814471e-07
5.6455471e-07
5.4117823e-07
5.565951e-07
6.0572228e-07
6.3487849e-07
6.4921163e-07
6.6167343e-07
6.7394034e-07
6.8749481e-07
7.0224971e-07
7.1915627e-07
7.3861946e-07
7.6052827e-07
7.8632609e-07
8.1358909e-07
8.4671476e-07
8.7271424e-07
9.2530742e-07
9.9566018e-07
1.0399776e-06
1.0950175e-06
5.6903959e-06
1.1893927e-05
1.0604931e-05
4.8536068e-06
1.8305328e-06
8.4251669e-07
5.8682904e-07
5.5100515e-07
5.6392043e-07
6.1124332e-07
6.5108991e-07
6.6701173e-07
6.7852291e-07
6.8992307e-07
7.0281074e-07
7.1734479e-07
7.3430146e-07
7.5383952e-07
7.7582872e-07
8.0142546e-07
8.3186821e-07
8.6646471e-07
8.9193515e-07
9.3673309e-07
1.0192044e-06
1.0654574e-06
1.1232884e-06
5.5341813e-06
1.0971748e-05
1.0545154e-05
5.161468e-06
1.9554994e-06
8.8656796e-07
6.0304603e-07
5.5881039e-07
5.6960263e-07
6.1293915e-07
6.6483828e-07
6.820054e-07
6.9257268e-07
7.0568417e-07
7.1953097e-07
7.3493903e-07
7.5274222e-07
7.7173978e-07
7.9358616e-07
8.1737525e-07
8.4755942e-07
8.8329886e-07
9.0954081e-07
9.4646129e-07
1.0292254e-06
1.0826224e-06
1.1435323e-06
5.3047479e-06
1.0317262e-05
1.0395508e-05
5.3367306e-06
2.0334752e-06
9.1607992e-07
6.144606e-07
5.6544243e-07
5.7446425e-07
6.1447538e-07
6.7303274e-07
7.0247148e-07
7.1485619e-07
7.2723421e-07
7.4167398e-07
7.5741448e-07
7.7514346e-07
7.9478043e-07
8.166289e-07
8.3986746e-07
8.6811565e-07
9.0339163e-07
9.2930298e-07
9.598629e-07
1.0339403e-06
1.0929927e-06
1.15668e-06
6.4242072e-06
1.0062526e-05
1.0307095e-05
5.4348498e-06
2.0996114e-06
9.4623166e-07
6.2680203e-07
5.7250444e-07
5.7917309e-07
6.1795466e-07
6.7837034e-07
7.2266074e-07
7.4276507e-07
7.5611677e-07
7.6856573e-07
7.8284576e-07
7.9931121e-07
8.1851244e-07
8.413956e-07
8.6437657e-07
8.9162081e-07
9.2718931e-07
9.5466265e-07
9.8076187e-07
1.0445624e-06
1.105706e-06
1.1737651e-06
7.0924212e-06
9.8066692e-06
1.0215779e-05
5.5469832e-06
2.195383e-06
9.9454673e-07
6.482803e-07
5.820454e-07
5.8595661e-07
6.2078246e-07
6.8548849e-07
7.4337333e-07
7.6893837e-07
7.827725e-07
7.9617841e-07
8.1132711e-07
8.2729317e-07
8.4510103e-07
8.6684403e-07
8.8903792e-07
9.1499337e-07
9.5023821e-07
9.8192327e-07
1.005473e-06
1.0590989e-06
1.1228712e-06
1.1937813e-06
6.5600391e-06
9.4552232e-06
1.0149079e-05
5.7458437e-06
2.3741506e-06
1.0864109e-06
6.8443562e-07
5.9528624e-07
5.9503221e-07
6.2439763e-07
6.9039473e-07
7.5988558e-07
7.8984967e-07
8.070353e-07
8.2238831e-07
8.3858211e-07
8.5539725e-07
8.7254926e-07
8.9318251e-07
9.1309677e-07
9.3541822e-07
9.6934163e-07
1.004724e-06
1.0271554e-06
1.0729457e-06
1.1350712e-06
1.2105857e-06
1.1184525e-05
9.2286185e-06
1.0035591e-05
6.0688362e-06
2.6408966e-06
1.2129244e-06
7.3268151e-07
6.1265629e-07
6.0529415e-07
6.2928896e-07
6.9146507e-07
7.6534115e-07
8.1106234e-07
8.3003673e-07
8.4488288e-07