/*--------------------------------*- C++ -*----------------------------------*\
| =========                 |                                                 |
| \\      /  F ield         | OpenFOAM: The Open Source CFD Toolbox           |
|  \\    /   O peration     | Version:  2406                                  |
|   \\  /    A nd           | Website:  www.openfoam.com                      |
|    \\/     M anipulation  |                                                 |
\*---------------------------------------------------------------------------*/
FoamFile
{
    version     2.0;
    format      ascii;
    arch        "LSB;label=32;scalar=64";
    class       volScalarField;
    location    "25";
    object      k_0;
}
// * * * * * * * * * * * * * * * * * * * * * * * * * * * * * * * * * * * * * //

dimensions      [0 2 -2 0 0 0 0];

internalField   nonuniform List<scalar> 
96472
(
3.4345257e-06
2.7513273e-06
2.1834057e-06
1.854754e-06
1.618955e-06
1.4514082e-06
1.3227595e-06
1.2045115e-06
1.0881031e-06
9.8099739e-07
8.9429097e-07
8.3208438e-07
7.9126884e-07
7.6242322e-07
7.3762527e-07
7.0984503e-07
6.7853715e-07
6.4400841e-07
6.1046391e-07
5.806559e-07
5.5724339e-07
5.404535e-07
5.2979806e-07
5.2433239e-07
5.2083213e-07
5.1932378e-07
5.1648216e-07
5.1268458e-07
5.0693454e-07
4.9853552e-07
4.9016802e-07
4.8066889e-07
4.71232e-07
4.6307402e-07
4.5894818e-07
4.557182e-07
4.5343289e-07
4.5121454e-07
4.4988166e-07
4.4876107e-07
4.4939222e-07
4.5124322e-07
4.5708718e-07
4.6576075e-07
4.7899711e-07
4.9368854e-07
5.1461629e-07
5.3623808e-07
5.6750028e-07
5.938503e-07
6.3128731e-07
6.7602169e-07
7.1445334e-07
7.6887541e-07
8.5924132e-07
3.4116476e-06
2.7438697e-06
2.1784166e-06
1.8511006e-06
1.6164909e-06
1.4493007e-06
1.3211978e-06
1.2045763e-06
1.0900266e-06
9.8364839e-07
8.9663418e-07
8.3369491e-07
7.9210019e-07
7.6309534e-07
7.388115e-07
7.1192257e-07
6.8147622e-07
6.4764352e-07
6.1418969e-07
5.8385198e-07
5.5957173e-07
5.416909e-07
5.30327e-07
5.241912e-07
5.2039859e-07
5.1863481e-07
5.1563284e-07
5.1157942e-07
5.059899e-07
4.9744849e-07
4.8799709e-07
4.7672299e-07
4.6551918e-07
4.5630735e-07
4.4726637e-07
4.4098675e-07
4.407242e-07
4.415916e-07
4.4445554e-07
4.4697657e-07
4.4967898e-07
4.5547662e-07
4.5959915e-07
4.6715092e-07
4.7375781e-07
4.8761138e-07
4.981039e-07
5.1989595e-07
5.3438105e-07
5.6497049e-07
5.8411007e-07
6.1958562e-07
6.599682e-07
6.917703e-07
7.7220462e-07
3.4001612e-06
2.7405258e-06
2.1771897e-06
1.8512974e-06
1.6167718e-06
1.4497823e-06
1.3229262e-06
1.2083468e-06
1.0951548e-06
9.8884753e-07
9.0064722e-07
8.3617815e-07
7.93398e-07
7.640587e-07
7.3985126e-07
7.1372562e-07
6.8383002e-07
6.5050001e-07
6.17071e-07
5.863517e-07
5.616008e-07
5.4299835e-07
5.308559e-07
5.2414654e-07
5.2040741e-07
5.1861256e-07
5.1620984e-07
5.1275111e-07
5.0741627e-07
4.9985595e-07
4.9064801e-07
4.7928788e-07
4.6758359e-07
4.567537e-07
4.4643633e-07
4.3740687e-07
4.2933089e-07
4.2728222e-07
4.2830148e-07
4.3211126e-07
4.3732727e-07
4.482456e-07
4.5453167e-07
4.6525992e-07
4.7123126e-07
4.8480855e-07
4.9322481e-07
5.1323696e-07
5.2338419e-07
5.4375552e-07
5.662328e-07
5.8389273e-07
6.193864e-07
6.4151856e-07
6.990322e-07
3.3959553e-06
2.7407116e-06
2.1781603e-06
1.853056e-06
1.6182537e-06
1.4511475e-06
1.3254119e-06
1.2126358e-06
1.1004349e-06
9.9395632e-07
9.0452239e-07
8.3871877e-07
7.9479919e-07
7.6519906e-07
7.4117546e-07
7.1588245e-07
6.8658848e-07
6.538716e-07
6.2035317e-07
5.8930333e-07
5.6371414e-07
5.4442679e-07
5.3152182e-07
5.2417122e-07
5.2020438e-07
5.1835583e-07
5.1621823e-07
5.1341941e-07
5.0830868e-07
5.0176966e-07
4.9280621e-07
4.8251004e-07
4.7091771e-07
4.5988815e-07
4.4887488e-07
4.393426e-07
4.3025404e-07
4.2392262e-07
4.2206732e-07
4.2269966e-07
4.2441535e-07
4.3054324e-07
4.3648694e-07
4.5073148e-07
4.5849004e-07
4.7556827e-07
4.8404322e-07
5.0069142e-07
5.1719752e-07
5.2947176e-07
5.5359496e-07
5.6743386e-07
5.9649453e-07
6.1333453e-07
6.5474387e-07
3.3958266e-06
2.742669e-06
2.1805175e-06
1.8559961e-06
1.6206506e-06
1.4530665e-06
1.3280155e-06
1.2168024e-06
1.1055624e-06
9.990202e-07
9.0845687e-07
8.4135745e-07
7.9624071e-07
7.6627326e-07
7.4241538e-07
7.1781203e-07
6.8913327e-07
6.5703236e-07
6.2360734e-07
5.9235005e-07
5.6598742e-07
5.4604326e-07
5.3237737e-07
5.2438323e-07
5.2010912e-07
5.1800637e-07
5.1628187e-07
5.1369164e-07
5.0920056e-07
5.0308736e-07
4.9475635e-07
4.8504393e-07
4.7361692e-07
4.6294321e-07
4.5144088e-07
4.4326196e-07
4.3311955e-07
4.2577333e-07
4.2104679e-07
4.2081585e-07
4.2121656e-07
4.2397908e-07
4.2727694e-07
4.3572004e-07
4.4174856e-07
4.531382e-07
4.6762311e-07
4.7760111e-07
4.9856419e-07
5.099125e-07
5.3362482e-07
5.4684464e-07
5.7411541e-07
5.8885771e-07
6.2373546e-07
3.400735e-06
2.7475113e-06
2.1848214e-06
1.8603329e-06
1.6245675e-06
1.4566826e-06
1.332348e-06
1.2223802e-06
1.111706e-06
1.0046416e-06
9.1276066e-07
8.4415178e-07
7.9788133e-07
7.6744392e-07
7.4365235e-07
7.1968707e-07
6.9163758e-07
6.6003936e-07
6.2677189e-07
5.9531237e-07
5.6838173e-07
5.4771592e-07
5.3331184e-07
5.246217e-07
5.2007915e-07
5.1774154e-07
5.1623052e-07
5.1379598e-07
5.1008254e-07
5.0412892e-07
4.9638136e-07
4.8714314e-07
4.7599537e-07
4.6539098e-07
4.5365368e-07
4.4512787e-07
4.3558201e-07
4.2812556e-07
4.2127803e-07
4.1987138e-07
4.1985567e-07
4.2100719e-07
4.2337581e-07
4.2776908e-07
4.3551684e-07
4.4121803e-07
4.5339844e-07
4.6121239e-07
4.7813122e-07
4.8820353e-07
5.0946668e-07
5.2148175e-07
5.4620354e-07
5.6002282e-07
5.9176885e-07
3.4051907e-06
2.7517992e-06
2.1899033e-06
1.8672792e-06
1.6322018e-06
1.4631655e-06
1.3377258e-06
1.2275251e-06
1.116937e-06
1.0094211e-06
9.1652686e-07
8.4663357e-07
7.9935966e-07
7.6842375e-07
7.4476403e-07
7.2137463e-07
6.9406271e-07
6.6296618e-07
6.3000435e-07
5.983238e-07
5.7085461e-07
5.4954696e-07
5.3441743e-07
5.2499928e-07
5.2009788e-07
5.1762482e-07
5.1615438e-07
5.1401285e-07
5.1080377e-07
5.0520396e-07
4.9812991e-07
4.8924665e-07
4.787233e-07
4.6792974e-07
4.5654058e-07
4.4694396e-07
4.3790993e-07
4.3023113e-07
4.223846e-07
4.1894364e-07
4.1856283e-07
4.1904456e-07
4.208578e-07
4.2362665e-07
4.2993435e-07
4.345698e-07
4.4457849e-07
4.5089963e-07
4.6442636e-07
4.7271808e-07
4.9012432e-07
5.0020128e-07
5.2136228e-07
5.3330713e-07
5.6102826e-07
3.4048652e-06
2.7590938e-06
2.2019282e-06
1.8786442e-06
1.6409919e-06
1.4685007e-06
1.340428e-06
1.2293455e-06
1.1193222e-06
1.0124072e-06
9.1934013e-07
8.4872906e-07
8.0064542e-07
7.6934381e-07
7.4583377e-07
7.2302489e-07
6.9644897e-07
6.6589765e-07
6.3325635e-07
6.0144799e-07
5.733928e-07
5.5141444e-07
5.3567785e-07
5.2558725e-07
5.2017685e-07
5.1753237e-07
5.1600137e-07
5.1428187e-07
5.1129311e-07
5.0634142e-07
4.9955868e-07
4.9110584e-07
4.8116427e-07
4.7030009e-07
4.5944223e-07
4.4879932e-07
4.3994318e-07
4.3214542e-07
4.2428084e-07
4.1878798e-07
4.1717619e-07
4.1734248e-07
4.1838413e-07
4.2037351e-07
4.2536248e-07
4.2923287e-07
4.3763158e-07
4.4300685e-07
4.5456111e-07
4.6143761e-07
4.7592822e-07
4.8446812e-07
5.022023e-07
5.1213988e-07
5.3513997e-07
3.3888999e-06
2.758944e-06
2.2036856e-06
1.8780109e-06
1.6381202e-06
1.464341e-06
1.3368609e-06
1.227853e-06
1.120092e-06
1.0145728e-06
9.2177515e-07
8.506653e-07
8.0194311e-07
7.7027728e-07
7.4692043e-07
7.2467825e-07
6.9877542e-07
6.6880629e-07
6.3648763e-07
6.0462087e-07
5.7615504e-07
5.5341937e-07
5.370075e-07
5.2629179e-07
5.2035517e-07
5.1752767e-07
5.1589329e-07
5.1446896e-07
5.1163699e-07
5.0745448e-07
5.0096894e-07
4.9299269e-07
4.8356416e-07
4.72835e-07
4.6225341e-07
4.512921e-07
4.4204751e-07
4.3400862e-07
4.2652219e-07
4.196537e-07
4.1630541e-07
4.1590335e-07
4.1637084e-07
4.1765589e-07
4.2133632e-07
4.2453144e-07
4.3172094e-07
4.3641709e-07
4.4628338e-07
4.5216001e-07
4.6475134e-07
4.7188138e-07
4.8693229e-07
4.9566034e-07
5.1503674e-07
3.3652714e-06
2.7442785e-06
2.1847651e-06
1.861147e-06
1.6242793e-06
1.454121e-06
1.3309428e-06
1.2259838e-06
1.1212757e-06
1.0171922e-06
9.2460908e-07
8.5286777e-07
8.0347391e-07
7.7141528e-07
7.4812698e-07
7.2637002e-07
7.0118156e-07
6.7176232e-07
6.3974183e-07
6.0780323e-07
5.7900565e-07
5.5560783e-07
5.3846815e-07
5.2714754e-07
5.2063809e-07
5.175636e-07
5.1588058e-07
5.1457411e-07
5.1203307e-07
5.0828153e-07
5.0223527e-07
4.9464969e-07
4.8571719e-07
4.7534733e-07
4.6478436e-07
4.5400029e-07
4.4429705e-07
4.3568334e-07
4.2865727e-07
4.2138445e-07
4.163392e-07
4.1466617e-07
4.1480229e-07
4.1553512e-07
4.1792899e-07
4.205556e-07
4.2651318e-07
4.3053136e-07
4.3915357e-07
4.4435737e-07
4.5521739e-07
4.6144989e-07
4.7470791e-07
4.8174507e-07
4.9818863e-07
3.3706338e-06
2.7464717e-06
2.1841227e-06
1.8607026e-06
1.6238154e-06
1.4537434e-06
1.3314086e-06
1.2280855e-06
1.1248849e-06
1.0213969e-06
9.2844833e-07
8.5573123e-07
8.0537059e-07
7.7270649e-07
7.4937746e-07
7.2805243e-07
7.035685e-07
6.7471048e-07
6.4303983e-07
6.1106571e-07
5.8188232e-07
5.5784761e-07
5.4005409e-07
5.2817262e-07
5.2101432e-07
5.1758396e-07
5.1590268e-07
5.1460471e-07
5.1249388e-07
5.0897649e-07
5.0354087e-07
4.9627328e-07
4.8775625e-07
4.7780127e-07
4.6742933e-07
4.5675804e-07
4.4689543e-07
4.3759677e-07
4.3063808e-07
4.2343063e-07
4.1739726e-07
4.1398909e-07
4.1360573e-07
4.1385951e-07
4.152457e-07
4.1723923e-07
4.22049e-07
4.2548911e-07
4.3305858e-07
4.3757167e-07
4.4702492e-07
4.5262632e-07
4.6393163e-07
4.7034206e-07
4.8401855e-07
3.3855158e-06
2.7602556e-06
2.1962065e-06
1.8705549e-06
1.6311353e-06
1.4592612e-06
1.3361659e-06
1.232743e-06
1.1296441e-06
1.0261147e-06
9.3256132e-07
8.5881039e-07
8.0742624e-07
7.7412206e-07
7.5074523e-07
7.2981735e-07
7.0593933e-07
6.7770326e-07
6.4640266e-07
6.1446291e-07
5.8495671e-07
5.6023876e-07
5.4176673e-07
5.292758e-07
5.2158632e-07
5.1770296e-07
5.1596564e-07
5.1463475e-07
5.1288842e-07
5.0959703e-07
5.0473866e-07
4.9783914e-07
4.8964546e-07
4.8016718e-07
4.7003341e-07
4.5939869e-07
4.4963094e-07
4.3981654e-07
4.3238339e-07
4.2541967e-07
4.1923652e-07
4.1432335e-07
4.1258115e-07
4.1257658e-07
4.1319576e-07
4.1460918e-07
4.1821901e-07
4.2122214e-07
4.2753498e-07
4.3149564e-07
4.3990133e-07
4.4483168e-07
4.5457403e-07
4.6058173e-07
4.7215321e-07
3.4100902e-06
2.7736647e-06
2.212884e-06
1.8889809e-06
1.6481968e-06
1.4732114e-06
1.347166e-06
1.2415679e-06
1.1371018e-06
1.0325514e-06
9.3781201e-07
8.6259322e-07
8.0996616e-07
7.7581414e-07
7.522405e-07
7.316227e-07
7.0833078e-07
6.8067617e-07
6.4969521e-07
6.1781924e-07
5.8804897e-07
5.627717e-07
5.4357963e-07
5.3043204e-07
5.2224609e-07
5.1788796e-07
5.1600355e-07
5.1477183e-07
5.1317181e-07
5.1021096e-07
5.0573362e-07
4.9939046e-07
4.9143895e-07
4.8241823e-07
4.7252577e-07
4.6204289e-07
4.5241868e-07
4.4241402e-07
4.3425142e-07
4.2716798e-07
4.2131628e-07
4.1551215e-07
4.1224284e-07
4.1150687e-07
4.1174625e-07
4.1253843e-07
4.151131e-07
4.1747887e-07
4.2300177e-07
4.264352e-07
4.3379792e-07
4.3791135e-07
4.4698462e-07
4.5169824e-07
4.6205064e-07
3.4171359e-06
2.7752321e-06
2.2123989e-06
1.8935149e-06
1.6571917e-06
1.4835091e-06
1.356983e-06
1.2502186e-06
1.1445694e-06
1.0387564e-06
9.4276751e-07
8.6619163e-07
8.1243575e-07
7.7752909e-07
7.5376774e-07
7.3344092e-07
7.1079979e-07
6.8373543e-07
6.5311192e-07
6.2130966e-07
5.9125093e-07
5.6544225e-07
5.4561724e-07
5.3181466e-07
5.2306248e-07
5.1823773e-07
5.1608827e-07
5.1499649e-07
5.1345646e-07
5.1095389e-07
5.065907e-07
5.0086401e-07
4.9318252e-07
4.8453348e-07
4.7496178e-07
4.6479887e-07
4.5508409e-07
4.4524378e-07
4.3657797e-07
4.2890227e-07
4.2323295e-07
4.1739607e-07
4.1281274e-07
4.1069918e-07
4.1066196e-07
4.1097995e-07
4.125344e-07
4.144208e-07
4.1890192e-07
4.2179249e-07
4.2827871e-07
4.3186151e-07
4.3978803e-07
4.4402576e-07
4.5332871e-07
3.4165854e-06
2.7782297e-06
2.2161978e-06
1.8983256e-06
1.6623974e-06
1.4890811e-06
1.3630332e-06
1.2568447e-06
1.1514245e-06
1.0451144e-06
9.4804017e-07
8.7013548e-07
8.1513752e-07
7.7940752e-07
7.553945e-07
7.3530439e-07
7.1321549e-07
6.8675494e-07
6.56467e-07
6.2478064e-07
5.9448678e-07
5.6814385e-07
5.4764378e-07
5.332076e-07
5.2395365e-07
5.1866314e-07
5.1618199e-07
5.1512424e-07
5.1371175e-07
5.1159388e-07
5.0746004e-07
5.0222567e-07
4.9493837e-07
4.8647179e-07
4.7720022e-07
4.6741708e-07
4.5774648e-07
4.4811531e-07
4.392004e-07
4.3074113e-07
4.250584e-07
4.1949048e-07
4.1430066e-07
4.1070376e-07
4.0981911e-07
4.0994389e-07
4.1064389e-07
4.1216292e-07
4.1554183e-07
4.1821328e-07
4.2361561e-07
4.2708704e-07
4.3347245e-07
4.3768e-07
4.4575265e-07
3.4115873e-06
2.7823983e-06
2.2210084e-06
1.9002519e-06
1.6616723e-06
1.4875446e-06
1.3621924e-06
1.257686e-06
1.1539329e-06
1.0487982e-06
9.5182446e-07
8.733271e-07
8.1747046e-07
7.8113789e-07
7.5696882e-07
7.3715664e-07
7.1558306e-07
6.897568e-07
6.5985198e-07
6.2832136e-07
5.9787597e-07
5.7113758e-07
5.4991506e-07
5.3484362e-07
5.2505536e-07
5.1938197e-07
5.1655123e-07
5.1538479e-07
5.1418066e-07
5.1219689e-07
5.0841505e-07
5.0346772e-07
4.9670179e-07
4.8847776e-07
4.7944941e-07
4.6996898e-07
4.6045116e-07
4.5083574e-07
4.4194537e-07
4.3313135e-07
4.2681961e-07
4.213074e-07
4.1623672e-07
4.1152446e-07
4.0932829e-07
4.0895264e-07
4.0933064e-07
4.1009828e-07
4.1267128e-07
4.1478093e-07
4.1939442e-07
4.2235418e-07
4.2753513e-07
4.3189728e-07
4.389102e-07
3.3943789e-06
2.7776197e-06
2.2200282e-06
1.9010285e-06
1.6631617e-06
1.4893214e-06
1.3640802e-06
1.2596016e-06
1.1560474e-06
1.0513106e-06
9.5451484e-07
8.7571541e-07
8.193977e-07
7.8268913e-07
7.5845402e-07
7.3889956e-07
7.1790282e-07
6.9261951e-07
6.6309432e-07
6.3168062e-07
6.0106066e-07
5.7398596e-07
5.5213812e-07
5.3644735e-07
5.2607366e-07
5.2003471e-07
5.1686262e-07
5.1557009e-07
5.1461103e-07
5.127889e-07
5.0935023e-07
5.0460137e-07
4.9829209e-07
4.903815e-07
4.8141095e-07
4.7237368e-07
4.6330509e-07
4.5366215e-07
4.4470175e-07
4.3567688e-07
4.2881411e-07
4.2322652e-07
4.1849875e-07
4.1328418e-07
4.0973689e-07
4.0846462e-07
4.0850974e-07
4.0892355e-07
4.1069494e-07
4.1232315e-07
4.1640296e-07
4.1893347e-07
4.2313999e-07
4.2734192e-07
4.3308908e-07
3.3934204e-06
2.7814342e-06
2.2242588e-06
1.9060467e-06
1.6682631e-06
1.4936295e-06
1.3672598e-06
1.2621367e-06
1.158599e-06
1.0541523e-06
9.5744803e-07
8.7832389e-07
8.2149494e-07
7.8437436e-07
7.6003554e-07
7.4066299e-07
7.202453e-07
6.9554986e-07
6.664229e-07
6.3523526e-07
6.045123e-07
5.7709171e-07
5.5469433e-07
5.3840835e-07
5.2747212e-07
5.2098199e-07
5.1748258e-07
5.1603392e-07
5.1511129e-07
5.1347676e-07
5.1031752e-07
5.0585163e-07
4.9988144e-07
4.9243834e-07
4.8354863e-07
4.7468299e-07
4.6580255e-07
4.5651449e-07
4.4745826e-07
4.3851455e-07
4.3132357e-07
4.2489243e-07
4.2011044e-07
4.1517599e-07
4.1087759e-07
4.0830314e-07
4.0777064e-07
4.0799561e-07
4.0879794e-07
4.1018179e-07
4.1309193e-07
4.1527564e-07
4.1886436e-07
4.2300853e-07
4.2771601e-07
3.3988126e-06
2.7842129e-06
2.2271614e-06
1.909494e-06
1.6721143e-06
1.4974727e-06
1.3707676e-06
1.265414e-06
1.1617775e-06
1.057336e-06
9.6042417e-07
8.8088911e-07
8.2350463e-07
7.8601274e-07
7.6161546e-07
7.4244446e-07
7.2247557e-07
6.9822933e-07
6.6950282e-07
6.3845144e-07
6.0762929e-07
5.7995225e-07
5.56957e-07
5.4008296e-07
5.2864281e-07
5.2176341e-07
5.1799658e-07
5.1638767e-07
5.1548666e-07
5.1416379e-07
5.112466e-07
5.0720465e-07
5.0138704e-07
4.9415667e-07
4.8547508e-07
4.7686565e-07
4.6855247e-07
4.5947045e-07
4.4981783e-07
4.4092197e-07
4.3411041e-07
4.2740856e-07
4.2226019e-07
4.1753439e-07
4.1293833e-07
4.0893942e-07
4.0754165e-07
4.0742339e-07
4.0793382e-07
4.0894772e-07
4.1133882e-07
4.1300604e-07
4.1622786e-07
4.1963374e-07
4.2334217e-07
3.4126004e-06
2.79435e-06
2.2351811e-06
1.9171246e-06
1.6788812e-06
1.5029041e-06
1.3751981e-06
1.2694746e-06
1.165902e-06
1.0615869e-06
9.6437397e-07
8.8422227e-07
8.261249e-07
7.8814989e-07
7.6356325e-07
7.4461167e-07
7.2503126e-07
7.0132824e-07
6.728424e-07
6.4200959e-07
6.1110501e-07
5.8312727e-07
5.5964332e-07
5.4216124e-07
5.3018558e-07
5.2290032e-07
5.1893944e-07
5.1710429e-07
5.1616345e-07
5.1508375e-07
5.1263611e-07
5.0897588e-07
5.0348284e-07
4.9646742e-07
4.8804078e-07
4.7919138e-07
4.7080919e-07
4.6219301e-07
4.5288138e-07
4.4374918e-07
4.3663174e-07
4.2962461e-07
4.2371678e-07
4.1876063e-07
4.1473297e-07
4.1043625e-07
4.0762665e-07
4.0691702e-07
4.0708688e-07
4.0752528e-07
4.0877521e-07
4.1028484e-07
4.1250897e-07
4.1599477e-07
4.1984306e-07
3.427214e-06
2.8005176e-06
2.2400779e-06
1.9218109e-06
1.683373e-06
1.5068055e-06
1.378586e-06
1.2728207e-06
1.1694229e-06
1.0651325e-06
9.676124e-07
8.8689744e-07
8.2826037e-07
7.8997397e-07
7.6546324e-07
7.4689713e-07
7.2799777e-07
7.0484617e-07
6.7697338e-07
6.460007e-07
6.1488205e-07
5.8641195e-07
5.6246815e-07
5.443493e-07
5.3199505e-07
5.245279e-07
5.2067372e-07
5.1894231e-07
5.1825823e-07
5.1765647e-07
5.164235e-07
5.1391795e-07
5.0935287e-07
5.0241023e-07
4.938958e-07
4.8526745e-07
4.7737349e-07
4.682211e-07
4.5744537e-07
4.4771552e-07
4.4050024e-07
4.3367194e-07
4.2699809e-07
4.2140993e-07
4.1717027e-07
4.1218356e-07
4.0819429e-07
4.0695901e-07
4.0703891e-07
4.073144e-07
4.0811599e-07
4.0916707e-07
4.107353e-07
4.1356817e-07
4.1522042e-07
3.4388016e-06
2.8098989e-06
2.2485246e-06
1.9305714e-06
1.6914013e-06
1.5135491e-06
1.3844536e-06
1.2792323e-06
1.1769211e-06
1.0729219e-06
9.7434178e-07
8.9206076e-07
8.3176792e-07
7.927314e-07
7.6869073e-07
7.519954e-07
7.3574871e-07
7.1534299e-07
6.8979293e-07
6.5948779e-07
6.2791065e-07
5.9795329e-07
5.7332383e-07
5.5445273e-07
5.4201034e-07
5.3494878e-07
5.321637e-07
5.3176797e-07
5.3250997e-07
5.3439856e-07
5.3529112e-07
5.3554321e-07
5.3509703e-07
5.3254687e-07
5.2458221e-07
5.1489674e-07
5.0670907e-07
4.9619322e-07
4.8113955e-07
4.6726992e-07
4.5650571e-07
4.4707551e-07
4.3830779e-07
4.3065633e-07
4.2536716e-07
4.1966483e-07
4.1433203e-07
4.1091174e-07
4.0958425e-07
4.0931633e-07
4.0958759e-07
4.0980526e-07
4.1103645e-07
4.1378925e-07
4.1485564e-07
3.4467152e-06
2.814815e-06
2.2540037e-06
1.9395087e-06
1.704848e-06
1.5300444e-06
1.4032712e-06
1.3057447e-06
1.2118502e-06
1.1088662e-06
1.0038628e-06
9.1456852e-07
8.4991715e-07
8.1047962e-07
7.9038541e-07
7.8405748e-07
7.828616e-07
7.7899628e-07
7.6752875e-07
7.445261e-07
7.1351658e-07
6.7887195e-07
6.4989017e-07
6.2899418e-07
6.1754799e-07
6.1320442e-07
6.1209961e-07
6.143807e-07
6.2989625e-07
6.4940377e-07
6.6414177e-07
6.7924305e-07
6.8641835e-07
6.8762869e-07
6.8639029e-07
6.8348032e-07
6.8133255e-07
6.7535472e-07
6.5187532e-07
6.0828251e-07
5.7691096e-07
5.5347392e-07
5.3093763e-07
5.1164619e-07
4.97173e-07
4.8118374e-07
4.6510554e-07
4.5708065e-07
4.538754e-07
4.4990496e-07
4.4525025e-07
4.4299627e-07
4.425148e-07
4.4210043e-07
4.3775457e-07
3.4551847e-06
2.8364994e-06
2.2878657e-06
2.0068291e-06
1.8010696e-06
1.6534321e-06
1.5476815e-06
1.4971173e-06
1.4565051e-06
1.3694071e-06
1.2355331e-06
1.1078687e-06
1.0318583e-06
1.0103479e-06
1.0140445e-06
1.0451017e-06
1.1372075e-06
1.2250414e-06
1.2777277e-06
1.2996151e-06
1.2992935e-06
1.2692503e-06
1.2128475e-06
1.1679881e-06
1.1461386e-06
1.1384162e-06
1.1370176e-06
1.1564748e-06
1.2670501e-06
1.3530729e-06
1.4139657e-06
1.513415e-06
1.5738418e-06
1.6159037e-06
1.6102679e-06
1.6052893e-06
1.6252499e-06
1.6551548e-06
1.6438319e-06
1.5732807e-06
1.4297064e-06
1.3363885e-06
1.2395172e-06
1.1565301e-06
1.1071861e-06
1.0435754e-06
9.4978229e-07
8.8466709e-07
8.625925e-07
8.4426176e-07
8.1449927e-07
7.9715527e-07
7.8570215e-07
7.8010268e-07
7.4366514e-07
3.4762025e-06
2.9627468e-06
2.4882628e-06
2.368965e-06
2.2296155e-06
2.1913743e-06
2.2125596e-06
2.3291237e-06
2.5980058e-06
2.6995549e-06
2.6707889e-06
2.5152558e-06
2.4274232e-06
2.4322673e-06
2.5254448e-06
2.8657488e-06
3.4096931e-06
3.8292053e-06
4.1346844e-06
4.311143e-06
4.3782074e-06
4.3732658e-06
4.319985e-06
4.1868475e-06
4.1315807e-06
4.1137272e-06
4.1069812e-06
4.1571415e-06
4.5347729e-06
4.9678784e-06
5.1162518e-06
5.3768375e-06
5.5409361e-06
5.8132892e-06
5.9130795e-06
5.9374987e-06
6.0762721e-06
6.2782707e-06
6.2802138e-06
6.1408707e-06
5.6862891e-06
5.4220428e-06
5.1507852e-06
4.8827585e-06
4.7757155e-06
4.6714319e-06
4.3554123e-06
3.9198125e-06
3.7510649e-06
3.6749301e-06
3.5330548e-06
3.3988369e-06
3.3347194e-06
3.3113625e-06
3.1888623e-06
3.9733874e-06
4.7167254e-06
4.2089731e-06
4.2770287e-06
4.6031428e-06
4.8421768e-06
5.2908681e-06
6.4389837e-06
8.0007408e-06
8.7849179e-06
8.9079863e-06
8.9347924e-06
9.0244296e-06
9.3223064e-06
1.0026737e-05
1.1154978e-05
1.2225254e-05
1.3053712e-05
1.3767238e-05
1.4384541e-05
1.4808549e-05
1.4971633e-05
1.5086738e-05
1.5073725e-05
1.5108981e-05
1.5111334e-05
1.5049065e-05
1.5042637e-05
1.5655332e-05
1.625712e-05
1.6780806e-05
1.7005973e-05
1.7177225e-05
1.794296e-05
1.8000618e-05
1.8033089e-05
1.8767579e-05
1.9398278e-05
1.9371417e-05
1.8758594e-05
1.7573305e-05
1.7395355e-05
1.7116292e-05
1.7001238e-05
1.7027493e-05
1.7072416e-05
1.6650157e-05
1.5595076e-05
1.5148895e-05
1.5066376e-05
1.4860094e-05
1.4415406e-05
1.4276565e-05
1.4200305e-05
1.4041811e-05
7.9292694e-06
3.5921743e-05
3.3070108e-05
3.675005e-05
3.6134815e-05
3.5500266e-05
3.2993374e-05
3.1588635e-05
3.1445853e-05
3.1840352e-05
3.2521421e-05
3.2639426e-05
3.2364328e-05
3.1039282e-05
2.9902142e-05
2.8942198e-05
2.836318e-05
2.8139428e-05
2.8136473e-05
2.8341369e-05
2.8805627e-05
2.9436835e-05
3.0146827e-05
3.0897139e-05
3.1543821e-05
3.2255755e-05
3.2745437e-05
3.2937673e-05
3.2822267e-05
3.313704e-05
3.3084551e-05
3.3347304e-05
3.3150208e-05
3.31384e-05
3.3376442e-05
3.2904155e-05
3.2480685e-05
3.2849174e-05
3.3235623e-05
3.3945357e-05
3.4160182e-05
3.3863349e-05
3.4179992e-05
3.3828183e-05
3.3516606e-05
3.3581341e-05
3.4452785e-05
3.3375229e-05
3.3486767e-05
3.238957e-05
3.2584514e-05
3.1754108e-05
3.0749957e-05
3.0925743e-05
2.935908e-05
2.9303395e-05
1.4560136e-05
3.4013799e-06
7.9917746e-07
4.4811281e-07
4.1809199e-07
4.1830897e-07
4.2342231e-07
4.2786949e-07
4.3299506e-07
4.3854941e-07
4.4456183e-07
4.5148365e-07
4.5919023e-07
4.6871057e-07
4.7945651e-07
4.9210176e-07
5.0620551e-07
5.2318328e-07
5.4432178e-07
5.7060649e-07
6.0288211e-07
6.3596245e-07
6.6880826e-07
7.1520017e-07
7.8701073e-07
8.6918093e-07
2.8410387e-05
1.4848529e-05
3.6693533e-06
8.987228e-07
4.724375e-07
4.2621738e-07
4.2440415e-07
4.2840667e-07
4.3311119e-07
4.3913399e-07
4.4520868e-07
4.5202481e-07
4.5971634e-07
4.678536e-07
4.7734224e-07
4.8831733e-07
5.0098018e-07
5.1606254e-07
5.3300746e-07
5.5374502e-07
5.7954919e-07
6.1224471e-07
6.4682427e-07
6.7920005e-07
7.2102509e-07
7.9234394e-07
8.7340557e-07
2.5594676e-05
1.5865504e-05
4.32348e-06
1.0733159e-06
5.015178e-07
4.338083e-07
4.314386e-07
4.3478142e-07
4.3946554e-07
4.450799e-07
4.5107136e-07
4.579094e-07
4.65793e-07
4.7471841e-07
4.8494045e-07
4.9660277e-07
5.0974702e-07
5.2471379e-07
5.4256154e-07
5.6294506e-07
5.8897837e-07
6.2146831e-07
6.5893966e-07
6.934531e-07
7.3111293e-07
8.0303392e-07
8.848538e-07
2.4634846e-05
1.6593868e-05
4.8022208e-06
1.1751729e-06
5.1803162e-07
4.3785002e-07
4.357504e-07
4.4091144e-07
4.4698686e-07
4.529449e-07
4.5939658e-07
4.6664549e-07
4.7494987e-07
4.8435369e-07
4.9518342e-07
5.0691324e-07
5.2060834e-07
5.3591073e-07
5.5379079e-07
5.7436848e-07
5.9949201e-07
6.3128299e-07
6.703583e-07
7.0798836e-07
7.434645e-07
8.1761008e-07
8.9933889e-07
2.5109895e-05
1.6388043e-05
4.917826e-06
1.2334008e-06
5.3564822e-07
4.4253686e-07
4.4223995e-07
4.4861921e-07
4.5543754e-07
4.620723e-07
4.6895161e-07
4.7667143e-07
4.8558879e-07
4.9533132e-07
5.0699706e-07
5.1932909e-07
5.3369146e-07
5.4959771e-07
5.674866e-07
5.8855327e-07
6.1317396e-07
6.4476334e-07
6.8453959e-07
7.2381093e-07
7.5789735e-07
8.294441e-07
9.1024521e-07
2.3013511e-05
1.6246389e-05
5.1021478e-06
1.3612602e-06
5.7798159e-07
4.5407512e-07
4.5282694e-07
4.5993695e-07
4.6739904e-07
4.7429666e-07
4.8098442e-07
4.8785147e-07
4.9614019e-07
5.055711e-07
5.1661849e-07
5.2997852e-07
5.4488332e-07
5.6211114e-07
5.8144198e-07
6.026919e-07
6.280624e-07
6.6032525e-07
7.0154645e-07
7.4494284e-07
7.7518738e-07
8.4296428e-07
9.2725995e-07
1.9978001e-05
1.6496853e-05
5.7828885e-06
1.7176239e-06
6.7503623e-07
4.7716682e-07
4.6179251e-07
4.7043239e-07
4.7756183e-07
4.8402971e-07
4.9170524e-07
4.9981462e-07
5.0892407e-07
5.1874258e-07
5.294354e-07
5.4218759e-07
5.5653382e-07
5.737604e-07
5.9323055e-07
6.1501814e-07
6.4042383e-07
6.7322888e-07
7.1433462e-07
7.6673778e-07
7.9749891e-07
8.5849271e-07
9.4722025e-07
1.7270268e-05
1.6485048e-05
6.8578513e-06
2.0110318e-06
7.3464005e-07
4.9092166e-07
4.6600936e-07
4.7531444e-07
4.830398e-07
4.8969016e-07
4.981651e-07
5.0856028e-07
5.2012941e-07
5.3262696e-07
5.4513806e-07
5.5853638e-07
5.7350863e-07
5.9020792e-07
6.0879543e-07
6.3067846e-07
6.5475117e-07
6.8556136e-07
7.2523109e-07
7.7998895e-07
8.1894016e-07
8.6726265e-07
9.6179475e-07
1.7253151e-05
1.625416e-05
7.0692754e-06
2.0821592e-06
7.5458846e-07
4.9704158e-07
4.6836354e-07
4.7804428e-07
4.8924853e-07
4.9781536e-07
5.0729103e-07
5.1814671e-07
5.296699e-07
5.4218298e-07
5.5633635e-07
5.7160564e-07
5.8862432e-07
6.0657075e-07
6.2676169e-07
6.4909702e-07
6.7349712e-07
7.0304698e-07
7.4104487e-07
7.9552851e-07
8.3737838e-07
8.8293823e-07
9.7019111e-07
1.6029125e-05
1.6018459e-05
7.0896748e-06
2.1308043e-06
7.7996583e-07
5.0597416e-07
4.727748e-07
4.8333964e-07
5.043641e-07
5.1726308e-07
5.2806374e-07
5.3755757e-07
5.4693883e-07
5.5728902e-07
5.6942706e-07
5.8328175e-07
6.001287e-07
6.1870861e-07
6.406332e-07
6.640393e-07
6.909432e-07
7.2061787e-07
7.58444e-07
8.1629968e-07
8.5753221e-07
9.0262811e-07
9.8228697e-07
1.2778172e-05
1.588726e-05
7.2518135e-06
2.2727623e-06
8.4797246e-07
5.2853359e-07
4.8509774e-07
4.9616575e-07
5.2630756e-07
5.4174532e-07
5.5200985e-07
5.6154934e-07
5.7077658e-07
5.8022784e-07
5.9090225e-07
6.0236875e-07
6.167745e-07
6.3374225e-07
6.549185e-07
6.7815398e-07
7.0534155e-07
7.3565897e-07
7.7178922e-07
8.3113312e-07
8.7640531e-07
9.1873959e-07
1.0005111e-06
1.025487e-05
1.5793212e-05
7.9535492e-06
2.7113579e-06
1.0171437e-06
5.8151505e-07
5.0506208e-07
5.0974143e-07
5.4059763e-07
5.5539501e-07
5.6589098e-07
5.7573767e-07
5.8650708e-07
5.9832047e-07
6.108559e-07
6.245323e-07
6.3902688e-07
6.5585193e-07
6.7478183e-07
6.9769982e-07
7.232556e-07
7.5427446e-07
7.8553749e-07
8.4688533e-07
8.9692496e-07
9.359254e-07
1.0165059e-06
8.4588877e-06
1.5582494e-05
9.0232349e-06
3.1728586e-06
1.1445612e-06
6.1636516e-07
5.166414e-07
5.1704359e-07
5.4518298e-07
5.6748032e-07
5.78087e-07
5.8763412e-07
5.9810277e-07
6.1107641e-07
6.2574559e-07
6.4208987e-07
6.5939332e-07
6.7891154e-07
6.9939169e-07
7.2342097e-07
7.4877722e-07
7.7902354e-07
8.0744716e-07
8.6713298e-07
9.2192492e-07
9.5697424e-07
1.0330834e-06
7.26605e-06
1.5110926e-05
9.7534933e-06
3.577603e-06
1.2660589e-06
6.4887329e-07
5.2500588e-07
5.2202116e-07
5.4621633e-07
5.820909e-07
5.9534033e-07
6.0575691e-07
6.1710302e-07
6.2905175e-07
6.4326675e-07
6.5930077e-07
6.7685689e-07
6.9688105e-07
7.184618e-07
7.4435368e-07
7.7147527e-07
8.0337259e-07
8.306148e-07
8.85605e-07
9.4881921e-07
9.8432972e-07
1.0533461e-06
6.484006e-06
1.413565e-05
1.0337711e-05
3.9780057e-06
1.4406744e-06
7.0602272e-07
5.4083384e-07
5.30656e-07
5.4913047e-07
5.9561321e-07
6.1529494e-07
6.2805429e-07
6.4043378e-07
6.5365737e-07
6.6759079e-07
6.8303891e-07
6.9975447e-07
7.1862974e-07
7.3979683e-07
7.6485627e-07
7.9100958e-07
8.2380614e-07
8.514464e-07
9.0466164e-07
9.7199239e-07
1.0129022e-06
1.0713575e-06
5.9792538e-06
1.2976079e-05
1.0598374e-05
4.4295168e-06
1.6477977e-06
7.7837209e-07
5.6461685e-07
5.4119367e-07
5.5664442e-07
6.0572377e-07
6.3492286e-07
6.4923176e-07
6.6166997e-07
6.7397819e-07
6.8746612e-07
7.0225376e-07
7.1913651e-07
7.3860213e-07
7.6055447e-07
7.8630108e-07
8.136038e-07
8.4674934e-07
8.7275265e-07
9.2529536e-07
9.9578975e-07
1.0400246e-06
1.0951625e-06
5.6882965e-06
1.189155e-05
1.0604561e-05
4.8539615e-06
1.8305364e-06
8.4252421e-07
5.8684301e-07
5.5099843e-07
5.6394688e-07
6.1122652e-07
6.5110291e-07
6.6702143e-07
6.7848169e-07
6.8989744e-07
7.0277024e-07
7.1735359e-07
7.3425499e-07
7.5380462e-07
7.7583463e-07
8.0137209e-07
8.3184877e-07
8.6645441e-07
8.9192024e-07
9.3668676e-07
1.0192781e-06
1.0654332e-06
1.1233887e-06
5.5308549e-06
1.0971329e-05
1.0544103e-05
5.1605547e-06
1.9549991e-06
8.8631595e-07
6.0299638e-07
5.5880344e-07
5.6959266e-07
6.1292805e-07
6.648129e-07
6.8203523e-07
6.9256838e-07
7.0565862e-07
7.1957946e-07
7.349222e-07
7.5277757e-07
7.7172682e-07
7.9363888e-07
8.1734893e-07
8.4754928e-07
8.8331006e-07
9.0948029e-07
9.4644034e-07
1.0291715e-06
1.0825468e-06
1.1435295e-06
5.3034927e-06
1.0319843e-05
1.0395171e-05
5.3347489e-06
2.0326398e-06
9.1576638e-07
6.1436083e-07
5.6544487e-07
5.7444981e-07
6.1444756e-07
6.7303897e-07
7.0249195e-07
7.1493019e-07
7.2729569e-07
7.417393e-07
7.5749208e-07
7.751476e-07
7.9485197e-07
8.1667521e-07
8.3989992e-07
8.6817615e-07
9.0340973e-07
9.2930371e-07
9.5983871e-07
1.033974e-06
1.0928765e-06
1.1566349e-06
6.4273306e-06
1.0066823e-05
1.0307535e-05
5.4325637e-06
2.0988468e-06
9.4604005e-07
6.2673074e-07
5.7252904e-07
5.791566e-07
6.1793902e-07
6.7840135e-07
7.2268895e-07
7.4289322e-07
7.5618665e-07
7.686409e-07
7.8295867e-07
7.9933757e-07
8.1863833e-07
8.4140052e-07
8.6445813e-07
8.9167041e-07
9.2726395e-07
9.5470514e-07
9.8077902e-07
1.0446177e-06
1.1057233e-06
1.1737807e-06
7.0859314e-06
9.8106559e-06
1.0216181e-05
5.545447e-06
2.1951304e-06
9.9456044e-07
6.4837336e-07
5.8207441e-07
5.8595964e-07
6.2081071e-07
6.8547167e-07
7.4345617e-07
7.6900186e-07
7.8282179e-07
7.9628179e-07
8.1136285e-07
8.2743111e-07
8.4517587e-07
8.6691908e-07
8.890714e-07
9.1502937e-07
9.5030713e-07
9.8193044e-07
1.0055437e-06
1.0591042e-06
1.1229282e-06
1.1937953e-06
6.5640351e-06
9.4592971e-06
1.014955e-05
5.7461142e-06
2.3749416e-06
1.0869545e-06
6.8463419e-07
5.9533808e-07
5.9507997e-07
6.2440209e-07
6.9038061e-07
7.5990535e-07
7.8986217e-07
8.0711382e-07
8.2240602e-07
8.386244e-07
8.5548223e-07
8.7258295e-07
8.9326784e-07
9.1309063e-07
9.3546443e-07
9.6934102e-07
1.0047051e-06
1.0271959e-06
1.0729373e-06
1.1350456e-06
1.2105626e-06
1.1195155e-05
9.2312975e-06
1.003552e-05
6.0699324e-06
2.6420995e-06
1.2135151e-06
7.3294978e-07
6.1273027e-07
6.0532745e-07
6.2931818e-07
6.9140354e-07
7.6530142e-07
8.1110828e-07
8.300317e-07
8.4491304e-07
8.6031671e-07