/*--------------------------------*- C++ -*----------------------------------*\
| =========                 |                                                 |
| \\      /  F ield         | OpenFOAM: The Open Source CFD Toolbox           |
|  \\    /   O peration     | Version:  2406                                  |
|   \\  /    A nd           | Website:  www.openfoam.com                      |
|    \\/     M anipulation  |                                                 |
\*---------------------------------------------------------------------------*/
FoamFile
{
    version     2.0;
    format      ascii;
    arch        "LSB;label=32;scalar=64";
    class       volScalarField;
    location    "25";
    object      nut;
}
// * * * * * * * * * * * * * * * * * * * * * * * * * * * * * * * * * * * * * //

dimensions      [0 2 -1 0 0 0 0];

internalField   nonuniform List<scalar> 
20580
(
8.9111793e-07
8.9107408e-07
8.4053048e-07
8.2354662e-07
8.1501801e-07
8.0311632e-07
7.897289e-07
7.7861183e-07
7.7077986e-07
7.6669679e-07
7.6354616e-07
7.596373e-07
7.5362281e-07
7.4707392e-07
7.3952989e-07
7.3582402e-07
7.3400022e-07
7.3491554e-07
7.3828393e-07
7.44016e-07
7.485376e-07
7.5189591e-07
7.571548e-07
7.5805913e-07
7.5364732e-07
7.5357256e-07
7.5894101e-07
7.6564515e-07
7.7638715e-07
7.9524679e-07
8.3571627e-07
8.9137292e-07
9.0089835e-07
8.4519669e-07
8.2539158e-07
8.1777431e-07
8.0560434e-07
7.9129441e-07
7.7998154e-07
7.7199377e-07
7.6757857e-07
7.643577e-07
7.6026197e-07
7.5407957e-07
7.480439e-07
7.3962679e-07
7.3600547e-07
7.3317718e-07
7.3386629e-07
7.3582955e-07
7.4185132e-07
7.4671498e-07
7.5007695e-07
7.5446819e-07
7.5695679e-07
7.5546324e-07
7.5763752e-07
7.6378694e-07
7.7065854e-07
7.7843661e-07
7.9199154e-07
8.2437456e-07
8.9112117e-07
9.1729365e-07
8.543002e-07
8.2982797e-07
8.2008084e-07
8.0764517e-07
7.9368397e-07
7.8164779e-07
7.7327612e-07
7.6860193e-07
7.6469057e-07
7.610382e-07
7.5472448e-07
7.4866419e-07
7.4078857e-07
7.3603462e-07
7.3405151e-07
7.3361584e-07
7.334896e-07
7.391531e-07
7.448471e-07
7.4710612e-07
7.5095762e-07
7.5435108e-07
7.5329906e-07
7.5600291e-07
7.6237099e-07
7.6883811e-07
7.7653551e-07
7.8760552e-07
8.1678225e-07
8.9225037e-07
9.262137e-07
8.6092903e-07
8.3380924e-07
8.2169436e-07
8.0914592e-07
7.9506929e-07
7.829406e-07
7.7451289e-07
7.6980156e-07
7.6583085e-07
7.6175789e-07
7.5610848e-07
7.4907662e-07
7.4175712e-07
7.3604498e-07
7.3394408e-07
7.3484134e-07
7.323791e-07
7.3718392e-07
7.4335204e-07
7.4485556e-07
7.4686438e-07
7.5091921e-07
7.4980048e-07
7.5036083e-07
7.5647348e-07
7.624903e-07
7.7149434e-07
7.805743e-07
8.0376712e-07
8.9333022e-07
9.2951549e-07
8.6672727e-07
8.3885652e-07
8.2485763e-07
8.1223852e-07
7.9712459e-07
7.8499668e-07
7.7701755e-07
7.7253651e-07
7.68786e-07
7.6442736e-07
7.5844953e-07
7.5140148e-07
7.4471496e-07
7.3794451e-07
7.3446946e-07
7.355737e-07
7.338369e-07
7.3462836e-07
7.4377622e-07
7.4389349e-07
7.4416181e-07
7.4806903e-07
7.4893488e-07
7.4635148e-07
7.5063279e-07
7.552153e-07
7.6273315e-07
7.7014016e-07
7.8936734e-07
8.9381283e-07
9.3290415e-07
8.7225472e-07
8.4847108e-07
8.3321209e-07
8.1801768e-07
8.0127063e-07
7.8791712e-07
7.7918049e-07
7.7389663e-07
7.7029039e-07
7.6535349e-07
7.6032428e-07
7.5341452e-07
7.4727505e-07
7.4066062e-07
7.3771149e-07
7.3610068e-07
7.3861566e-07
7.3552472e-07
7.4277904e-07
7.4681972e-07
7.437086e-07
7.4575271e-07
7.4840548e-07
7.4572205e-07
7.4831298e-07
7.5309156e-07
7.5922082e-07
7.6544102e-07
7.8061145e-07
8.9210861e-07
9.3562283e-07
8.7323741e-07
8.5116896e-07
8.4059775e-07
8.2791972e-07
8.1103976e-07
7.9558229e-07
7.8402862e-07
7.7662706e-07
7.7266376e-07
7.6707661e-07
7.6179001e-07
7.5509719e-07
7.491373e-07
7.4150905e-07
7.3935426e-07
7.3751412e-07
7.3959417e-07
7.3833576e-07
7.42471e-07
7.4899507e-07
7.4671117e-07
7.4671616e-07
7.499594e-07
7.4767791e-07
7.4649251e-07
7.5146173e-07
7.5582288e-07
7.6063341e-07
7.7394677e-07
8.9017355e-07
9.3178378e-07
8.7044197e-07
8.4875416e-07
8.4098848e-07
8.2936902e-07
8.1450204e-07
8.0074065e-07
7.8974605e-07
7.8328329e-07
7.7934312e-07
7.7402988e-07
7.6729094e-07
7.6007865e-07
7.5366956e-07
7.4456345e-07
7.4156539e-07
7.38396e-07
7.3967766e-07
7.4111521e-07
7.4047385e-07
7.4794371e-07
7.5126666e-07
7.4752925e-07
7.4971257e-07
7.496613e-07
7.4635991e-07
7.4797629e-07
7.5199988e-07
7.5536911e-07
7.6425469e-07
8.8913225e-07
9.2811688e-07
8.6790524e-07
8.4502827e-07
8.3642286e-07
8.2722376e-07
8.1332919e-07
8.0096364e-07
7.9246256e-07
7.8715871e-07
7.8354024e-07
7.790581e-07
7.7278061e-07
7.6526569e-07
7.5808098e-07
7.5042191e-07
7.4402555e-07
7.4296265e-07
7.4017461e-07
7.4448119e-07
7.4337857e-07
7.4472353e-07
7.5191932e-07
7.543274e-07
7.5015533e-07
7.5189904e-07
7.4935481e-07
7.4778122e-07
7.5084503e-07
7.5469767e-07
7.5847379e-07
8.8916609e-07
9.3262379e-07
8.694009e-07
8.4594265e-07
8.3649915e-07
8.2594365e-07
8.1125262e-07
7.9966351e-07
7.9166243e-07
7.8673529e-07
7.8295568e-07
7.7904476e-07
7.7282853e-07
7.6642551e-07
7.5869114e-07
7.5374718e-07
7.4644168e-07
7.4574211e-07
7.4290203e-07
7.4646124e-07
7.4640993e-07
7.4626089e-07
7.4952918e-07
7.5621098e-07
7.5604461e-07
7.5396209e-07
7.5315779e-07
7.5314748e-07
7.5177158e-07
7.5571078e-07
7.5835628e-07
8.8861629e-07
9.516848e-07
8.7903716e-07
8.5092726e-07
8.384923e-07
8.2591476e-07
8.1153394e-07
7.994214e-07
7.9026704e-07
7.8501401e-07
7.8116959e-07
7.7754889e-07
7.7188807e-07
7.6673582e-07
7.5826658e-07
7.5429012e-07
7.4800663e-07
7.4586927e-07
7.4433162e-07
7.4616344e-07
7.466359e-07
7.4846188e-07
7.5057996e-07
7.546573e-07
7.5739809e-07
7.5910342e-07
7.5748973e-07
7.5709989e-07
7.5832229e-07
7.5980986e-07
7.6323707e-07
8.8269859e-07
9.5607582e-07
8.8641487e-07
8.5738522e-07
8.4481303e-07
8.3258793e-07
8.1684383e-07
8.0266786e-07
7.9226713e-07
7.8624998e-07
7.8172894e-07
7.7751508e-07
7.71757e-07
7.669227e-07
7.5852849e-07
7.5415113e-07
7.4909586e-07
7.4508065e-07
7.4456841e-07
7.4521654e-07
7.4657063e-07
7.4820551e-07
7.5129012e-07
7.5291164e-07
7.5647571e-07
7.5870512e-07
7.5928721e-07
7.5934253e-07
7.6002977e-07
7.6266113e-07
7.6730068e-07
8.7566737e-07
9.1578127e-07
8.7027448e-07
8.4920415e-07
8.4115224e-07
8.3351046e-07
8.195217e-07
8.0611228e-07
7.9538894e-07
7.891249e-07
7.8389543e-07
7.7913278e-07
7.7320876e-07
7.6797719e-07
7.6060218e-07
7.5422125e-07
7.5056877e-07
7.4465533e-07
7.4416514e-07
7.4462215e-07
7.4601958e-07
7.4764576e-07
7.516223e-07
7.5235415e-07
7.5476353e-07
7.5797942e-07
7.5876875e-07
7.5980621e-07
7.58889e-07
7.6087793e-07
7.6552949e-07
8.7439663e-07
8.8320494e-07
8.4718012e-07
8.3613804e-07
8.3150451e-07
8.2508796e-07
8.133125e-07
8.0068579e-07
7.908068e-07
7.8550757e-07
7.8131239e-07
7.7798453e-07
7.7333431e-07
7.6831601e-07
7.6262692e-07
7.5513146e-07
7.5121523e-07
7.4619732e-07
7.4425447e-07
7.4465932e-07
7.4632492e-07
7.4722179e-07
7.513815e-07
7.540761e-07
7.5527039e-07
7.588853e-07
7.5888376e-07
7.599725e-07
7.5955657e-07
7.5910536e-07
7.6279787e-07
8.7509265e-07
8.8410304e-07
8.4332274e-07
8.3111993e-07
8.2494415e-07
8.1802363e-07
8.0753534e-07
7.9581031e-07
7.8670084e-07
7.8149133e-07
7.7742041e-07
7.7462578e-07
7.7096114e-07
7.661573e-07
7.6167032e-07
7.5407002e-07
7.5050136e-07
7.4559232e-07
7.4406285e-07
7.433447e-07
7.4503877e-07
7.4667963e-07
7.4950367e-07
7.5448565e-07
7.5681569e-07
7.5879738e-07
7.6315266e-07
7.6156803e-07
7.6408269e-07
7.6175299e-07
7.6391367e-07
8.7455955e-07
8.8195354e-07
8.4095394e-07
8.2763364e-07
8.2127871e-07
8.1622959e-07
8.057278e-07
7.9466769e-07
7.8555965e-07
7.7979667e-07
7.7558952e-07
7.7332681e-07
7.7034174e-07
7.6610065e-07
7.6205461e-07
7.5475926e-07
7.5048675e-07
7.4463228e-07
7.4299821e-07
7.4117129e-07
7.4308104e-07
7.4515761e-07
7.4741754e-07
7.5159561e-07
7.5640706e-07
7.5875554e-07
7.6162214e-07
7.6415347e-07
7.6692038e-07
7.6680768e-07
7.6876279e-07
8.7429284e-07
8.8613179e-07
8.400103e-07
8.2301447e-07
8.168355e-07
8.1227983e-07
8.0248997e-07
7.9205431e-07
7.8348781e-07
7.7770892e-07
7.749347e-07
7.7249592e-07
7.706681e-07
7.6613002e-07
7.6372919e-07
7.5612843e-07
7.5284957e-07
7.454677e-07
7.4417372e-07
7.4061523e-07
7.4348365e-07
7.4435248e-07
7.4654033e-07
7.4928307e-07
7.5476467e-07
7.5747199e-07
7.5928158e-07
7.6173749e-07
7.666358e-07
7.6558456e-07
7.6900733e-07
8.7436253e-07
8.8682987e-07
8.3905593e-07
8.2072069e-07
8.1503103e-07
8.0864528e-07
7.989629e-07
7.884516e-07
7.7972878e-07
7.738038e-07
7.7138442e-07
7.6910781e-07
7.6801439e-07
7.6423808e-07
7.616347e-07
7.5504164e-07
7.5081687e-07
7.4469977e-07
7.421828e-07
7.3922533e-07
7.4096371e-07
7.4234881e-07
7.4477555e-07
7.4712868e-07
7.5239157e-07
7.5467852e-07
7.5611126e-07
7.5748426e-07
7.6175771e-07
7.6133577e-07
7.6554097e-07
8.73864e-07
8.9538145e-07
8.4491181e-07
8.2691629e-07
8.2052647e-07
8.143579e-07
8.028201e-07
7.905206e-07
7.8068272e-07
7.736719e-07
7.7072578e-07
7.6779987e-07
7.6646199e-07
7.6239649e-07
7.601318e-07
7.5390903e-07
7.4927324e-07
7.4396748e-07
7.4028643e-07
7.3808408e-07
7.379755e-07
7.3942017e-07
7.4298139e-07
7.4547174e-07
7.4956306e-07
7.5252698e-07
7.5422876e-07
7.5619436e-07
7.5858722e-07
7.5976182e-07
7.6301515e-07
8.7126776e-07
8.8358632e-07
8.3883927e-07
8.2351946e-07
8.1807415e-07
8.1659416e-07
8.0670958e-07
7.9585653e-07
7.8678635e-07
7.803474e-07
7.7817006e-07
7.7482112e-07
7.7492219e-07
7.7354662e-07
7.7025017e-07
7.6373233e-07
7.5961019e-07
7.5572926e-07
7.5495365e-07
7.5265292e-07
7.5616976e-07
7.5692069e-07
7.5978043e-07
7.6079088e-07
7.6661142e-07
7.6616879e-07
7.664139e-07
7.6675299e-07
7.6958962e-07
7.704551e-07
7.6990309e-07
8.6405023e-07
8.7790071e-07
8.6367633e-07
8.4650346e-07
8.6267042e-07
9.1195055e-07
9.1925274e-07
9.3222183e-07
9.4018291e-07
9.5292671e-07
9.6325937e-07
9.6784145e-07
9.9437218e-07
1.0118363e-06
9.964126e-07
9.9543181e-07
9.9559e-07
1.0090047e-06
1.0478465e-06
1.0537098e-06
1.0907847e-06
1.094494e-06
1.0968988e-06
1.1070618e-06
1.106011e-06
1.0928652e-06
1.0763118e-06
1.0697356e-06
1.0626021e-06
1.0554822e-06
1.0014268e-06
9.5114666e-07
1.323308e-06
1.5236575e-06
1.5906664e-06
1.5710793e-06
1.9239706e-06
1.8133963e-06
1.8046354e-06
1.7530676e-06
1.8954967e-06
1.9097118e-06
1.8382491e-06
2.0789307e-06
2.2832954e-06
2.1153641e-06
2.0885047e-06
2.0692131e-06
2.1751955e-06
2.3150026e-06
2.3266055e-06
2.5997316e-06
2.6032085e-06
2.5647771e-06
2.7286068e-06
2.6856792e-06
2.6046125e-06
2.5613352e-06
2.5866879e-06
2.5808002e-06
2.5830403e-06
2.4969921e-06
9.6904204e-07
1.8662662e-06
2.2458677e-06
2.0996421e-06
2.2058947e-06
2.1234008e-06
2.03749e-06
2.1375685e-06
1.9368029e-06
2.0845632e-06
1.9340123e-06
2.0850298e-06
2.110477e-06
2.1362718e-06
1.8999256e-06
2.2313821e-06
1.9737603e-06
2.3378512e-06
2.1648917e-06
2.3396793e-06
2.455949e-06
2.2271218e-06
2.579002e-06
2.7310832e-06
2.2117881e-06
2.9825175e-06
2.6533242e-06
3.0898959e-06
2.5779289e-06
3.4348918e-06
2.4162832e-06
4.2638662e-06
2.7311668e-06
7.5712201e-07
8.2070944e-07
7.6905707e-07
7.6593792e-07
7.7014519e-07
7.7108302e-07
7.6834817e-07
7.6796238e-07
7.7019692e-07
7.7130039e-07
7.6818865e-07
7.6319692e-07
7.6347479e-07
7.6977529e-07
7.8223546e-07
7.899216e-07
7.9864394e-07
8.1446653e-07
8.286077e-07
8.4051091e-07
8.5311844e-07
7.7172483e-07
8.0124374e-07
1.3249107e-06
8.1412747e-07
7.6918899e-07
7.6658954e-07
7.7161999e-07
7.7598768e-07
7.7360567e-07
7.7285186e-07
7.7451924e-07
7.7816119e-07
7.7806518e-07
7.7449994e-07
7.7267883e-07
7.7629709e-07
7.9036833e-07
7.9871042e-07
8.0536149e-07
8.2170923e-07
8.4261421e-07
8.662196e-07
8.7202596e-07
9.607241e-07
1.3665157e-06
1.1334947e-06
5.3768562e-07
5.829087e-07
7.7869854e-07
7.818793e-07
7.8528977e-07
7.8446805e-07
7.7894442e-07
7.7817058e-07
7.8347942e-07
7.8809625e-07
7.873245e-07
7.8379684e-07
7.8561052e-07
7.9938928e-07
8.1031538e-07
8.1571468e-07
8.2773528e-07
8.52054e-07
8.8200201e-07
8.9411086e-07
1.8747932e-06
5.4134476e-06
2.9776172e-06
4.4991424e-07
5.5193706e-07
7.9525604e-07
7.859174e-07
7.8963543e-07
7.8881133e-07
7.8419028e-07
7.8473557e-07
7.9138025e-07
7.9797129e-07
7.9959068e-07
7.9749124e-07
7.9892986e-07
8.0830737e-07
8.2731734e-07
8.3263125e-07
8.4193661e-07
8.6125538e-07
8.991925e-07
9.239402e-07
1.0203112e-06
2.4655458e-06
8.8458308e-07
2.9236466e-07
6.7504424e-07
7.8873557e-07
7.8316406e-07
7.8994213e-07
7.9244595e-07
7.902156e-07
7.9203325e-07
7.9964374e-07
8.083624e-07
8.0865064e-07
8.0692394e-07
8.0730052e-07
8.1445657e-07
8.3767195e-07
8.5128466e-07
8.574994e-07
8.7170953e-07
9.0513385e-07
9.3843233e-07
9.1505184e-07
1.7346621e-06
3.2995704e-06
1.0083602e-06
5.966661e-07
7.7840423e-07
8.3389029e-07
8.1989833e-07
8.205541e-07
8.1521007e-07
8.1091156e-07
8.1521328e-07
8.2839925e-07
8.315841e-07
8.2886777e-07
8.2516022e-07
8.278234e-07
8.4510008e-07
8.6831714e-07
8.806908e-07
8.8835736e-07
9.0881943e-07
9.5707264e-07
1.9243814e-06
6.7034771e-06
8.2177228e-06
7.134958e-06
3.411875e-06
1.7730111e-06
1.0370579e-06
9.2094686e-07
8.9301902e-07
8.6933987e-07
8.4462357e-07
8.3438828e-07
8.3816727e-07
8.4698017e-07
8.5045184e-07
8.4874293e-07
8.4993783e-07
8.5844571e-07
8.8162244e-07
8.9460861e-07
9.038995e-07
9.1861546e-07
9.5475311e-07
3.193542e-06
6.2934306e-06
7.9828502e-06
5.7927881e-06
2.6448372e-06
1.1904259e-06
1.0163911e-06
9.243844e-07
8.837175e-07
8.5887741e-07
8.3795494e-07
8.2924637e-07
8.3277787e-07
8.4433771e-07
8.5237594e-07
8.5594077e-07
8.6013964e-07
8.6796731e-07
8.9411376e-07
9.1539485e-07
9.2346619e-07
9.3538866e-07
9.5908838e-07
3.438397e-06
6.7073632e-06
3.2326576e-06
1.5128285e-06
7.1349245e-07
7.3697512e-07
9.8342603e-07
9.2212748e-07
8.7957496e-07
8.558335e-07
8.3547168e-07
8.2782701e-07
8.3148298e-07
8.4513513e-07
8.5645414e-07
8.6284182e-07
8.6634185e-07
8.7279617e-07
8.9518459e-07
9.3341858e-07
9.4739734e-07
9.5628998e-07
9.7427546e-07
3.0758734e-06
7.3255961e-06
4.40587e-06
2.0399238e-06
2.1352079e-06
9.1163459e-07
1.170032e-06
9.9133443e-07
9.2194729e-07
8.8698683e-07
8.6062438e-07
8.4725791e-07
8.4785941e-07
8.599519e-07
8.7607209e-07
8.8260859e-07
8.827083e-07
8.8588254e-07
9.0133303e-07
9.4270577e-07
9.7028297e-07
9.8029165e-07
9.9429047e-07
4.4342155e-06
1.3606522e-05
1.2289986e-05
8.8998597e-06
6.5198883e-06
4.3297027e-06
2.646343e-06
1.5272729e-06
1.149791e-06
1.0248917e-06
9.6423056e-07
9.1832462e-07
9.0569294e-07
9.1571229e-07
9.4097182e-07
9.4238597e-07
9.3652454e-07
9.3076299e-07
9.3438566e-07
9.6674414e-07
9.9849774e-07
1.0095543e-06
1.0207051e-06
6.1377725e-06
1.4156739e-05
1.2296994e-05
9.0310443e-06
6.7387239e-06
4.8609456e-06
3.159119e-06
1.8414916e-06
1.2939545e-06
1.1253965e-06
1.0506306e-06
9.9754287e-07
9.7199939e-07
9.7246824e-07
9.8468609e-07
9.8415968e-07
9.7873883e-07
9.7388711e-07
9.744257e-07
9.8841274e-07
1.017419e-06
1.0285569e-06
1.0371656e-06
4.6991931e-06
9.8538695e-06
9.8863828e-06
7.7321157e-06
6.0704437e-06
4.4729913e-06
2.9087457e-06
1.737845e-06
1.2692826e-06
1.1230714e-06
1.0527496e-06
1.0021026e-06
9.8026529e-07
9.7921496e-07
9.8551209e-07
9.8519344e-07
9.8108474e-07
9.8004525e-07
9.850916e-07
9.9794307e-07
1.0254235e-06
1.0419441e-06
1.0487061e-06
2.7651932e-06
7.4056859e-06
7.5114766e-06
5.797694e-06
4.5058481e-06
3.2183568e-06
2.0092786e-06
1.3232451e-06
1.1181049e-06
1.0581427e-06
1.0188626e-06
9.8872968e-07
9.7370699e-07
9.7353753e-07
9.7836097e-07
9.790448e-07
9.7721033e-07
9.7798741e-07
9.8467948e-07
1.0005221e-06
1.0309154e-06
1.0498896e-06
1.0533749e-06
2.44078e-06
5.7577067e-06
5.3815575e-06
4.3015206e-06
3.1891352e-06
2.0709901e-06
1.3494362e-06
1.0810002e-06
1.0110085e-06
9.8299017e-07
9.6123163e-07
9.5014061e-07
9.5335283e-07
9.57904e-07
9.6513422e-07
9.6911537e-07
9.682983e-07
9.7206426e-07
9.8317254e-07
9.9932166e-07
1.0348123e-06
1.0553883e-06
1.0592898e-06
2.6161035e-06
5.2178702e-06
4.1779941e-06
2.9488918e-06
1.9571586e-06
1.3083823e-06
1.0464558e-06
9.9314807e-07
9.7874694e-07
9.5840244e-07
9.3890678e-07
9.3128413e-07
9.3708497e-07
9.4753233e-07
9.6024931e-07
9.6556088e-07
9.6415762e-07
9.6669443e-07
9.7722478e-07
9.9866433e-07
1.0346267e-06
1.0574117e-06
1.0625216e-06
2.7130486e-06
5.2006546e-06
4.4703603e-06
2.8950323e-06
1.7431051e-06
9.0370487e-07
7.0173089e-07
7.1263928e-07
9.8078193e-07
9.6051338e-07
9.4028341e-07
9.3089051e-07
9.3596725e-07
9.4737228e-07
9.6179452e-07
9.6720667e-07
9.6536634e-07
9.6714382e-07
9.7684475e-07
9.9769199e-07
1.036738e-06
1.0650497e-06
1.0684598e-06
3.2255328e-06
5.6299486e-06
4.8382396e-06
3.3344424e-06
1.9175043e-06
1.1721044e-06
7.8016388e-07
7.4012079e-07
1.0088335e-06
9.8216736e-07
9.5702819e-07
9.390953e-07
9.4351318e-07
9.5466835e-07
9.7234813e-07
9.7816358e-07
9.7419072e-07
9.7351359e-07
9.8013616e-07
1.0025081e-06
1.0487379e-06
1.0816806e-06
1.0844439e-06
2.9533848e-06
4.8358149e-06
4.6120624e-06
3.3192553e-06
2.0962197e-06
1.2859845e-06
1.0078344e-06
1.0135051e-06
1.0407048e-06
1.0157402e-06
9.8828714e-07
9.7012055e-07
9.7413534e-07
9.8474064e-07
1.0011123e-06
1.0078287e-06
9.9944314e-07
9.9538747e-07
9.9904088e-07
1.0264343e-06
1.0679034e-06
1.0904432e-06
1.0906622e-06
1.9838039e-06
3.5812187e-06
4.2247934e-06
3.1798154e-06
2.0671977e-06
1.3196384e-06
1.0265349e-06
1.0264714e-06
1.0497264e-06
1.0226868e-06
9.9797015e-07
9.9607419e-07
1.0131199e-06
1.0218408e-06
1.0263027e-06
1.0187278e-06
1.0133962e-06
1.0158211e-06
1.0263931e-06
1.0402203e-06
1.0852454e-06
1.0996961e-06
1.0984441e-06
1.3349828e-06
2.6541617e-06
3.0423403e-06
2.5798595e-06
1.8492909e-06
1.2725147e-06
1.0230348e-06
1.0312095e-06
1.053403e-06
1.0250039e-06
1.0008324e-06
1.0036273e-06
1.0379143e-06
1.0500646e-06
1.0446556e-06
1.0246294e-06
1.0186511e-06
1.0261564e-06
1.0402583e-06
1.0779231e-06
1.1038975e-06
1.1042035e-06
1.1035336e-06
1.1946928e-06
1.8920736e-06
2.3338051e-06
1.9982334e-06
1.5224301e-06
1.1307621e-06
1.00149e-06
1.0421553e-06
1.0584433e-06
1.0217102e-06
1.0039718e-06
1.014266e-06
1.0570078e-06
1.0695978e-06
1.0518653e-06
1.0293943e-06
1.0238377e-06
1.0365077e-06
1.0800953e-06
1.1058894e-06
1.1143733e-06
1.1122255e-06
1.1143546e-06
1.1163303e-06
1.3912907e-06
1.8442974e-06
1.6747297e-06
1.304156e-06
1.0309783e-06
9.9215106e-07
1.0419567e-06
1.0415302e-06
1.0055417e-06
1.0001719e-06
1.0295619e-06
1.0721587e-06
1.0771359e-06
1.0568359e-06
1.0330315e-06
1.0318726e-06
1.0605822e-06
1.115444e-06
1.1302913e-06
1.1207135e-06
1.1189574e-06
1.1278257e-06
1.0710966e-06
1.1152187e-06
1.5426386e-06
1.4346377e-06
1.1415965e-06
8.8278467e-07
8.6019265e-07
1.0423465e-06
1.0209722e-06
9.9745128e-07
1.0047285e-06
1.048872e-06
1.0773996e-06
1.0787839e-06
1.0511377e-06
1.0348308e-06
1.0416114e-06
1.1064507e-06
1.1362649e-06
1.1369491e-06
1.1297644e-06
1.1294278e-06
1.1606071e-06
1.1077627e-06
9.9550456e-07
1.3785974e-06
1.2841324e-06
6.4532221e-07
4.7805449e-07
6.6678136e-07
1.0482578e-06
1.0100812e-06
9.9791113e-07
1.0132186e-06
1.0661156e-06
1.0779849e-06
1.0801123e-06
1.0488211e-06
1.043425e-06
1.0721026e-06
1.1324029e-06
1.1470699e-06
1.1451e-06
1.1408284e-06
1.1483649e-06
1.2254519e-06
1.2351447e-06
9.394414e-07
1.2871792e-06
7.0841824e-07
4.0027387e-07
4.6914947e-07
9.6056938e-07
1.0434409e-06
1.0108678e-06
1.006836e-06
1.0330161e-06
1.074572e-06
1.0824856e-06
1.0704392e-06
1.0537084e-06
1.0533886e-06
1.1070429e-06
1.14994e-06
1.1545434e-06
1.1542879e-06
1.1538395e-06
1.2045369e-06
1.3221769e-06
1.3839459e-06
9.2325668e-07
1.019078e-06
5.1985921e-07
5.1259476e-07
9.6602025e-07
1.0112263e-06
1.0329144e-06
1.0186764e-06
1.0208709e-06
1.0520907e-06
1.0793757e-06
1.0867453e-06
1.0704842e-06
1.0643363e-06
1.0836354e-06
1.1397436e-06
1.1602347e-06
1.1672757e-06
1.1654931e-06
1.1852436e-06
1.2795072e-06
1.3626211e-06
1.4033688e-06
9.104616e-07
9.674995e-07
7.350684e-07
7.6063986e-07
9.6976757e-07
1.0222034e-06
1.0296652e-06
1.024493e-06
1.028805e-06
1.0633638e-06
1.0819526e-06
1.0848983e-06
1.0762739e-06
1.0733562e-06
1.1041263e-06
1.1605742e-06
1.1727129e-06
1.1785965e-06
1.1835687e-06
1.2410194e-06
1.360781e-06
1.4097877e-06
1.4272279e-06
9.0470745e-07
1.102968e-06
5.6507556e-07
3.8095656e-07
6.6415992e-07
1.0310979e-06
1.0351912e-06
1.0305476e-06
1.0464836e-06
1.0768999e-06
1.0866328e-06
1.0874795e-06
1.0836119e-06
1.0905671e-06
1.1379467e-06
1.1699607e-06
1.1831577e-06
1.1880948e-06
1.2175928e-06
1.3225997e-06
1.4117577e-06
1.4426702e-06
1.4260716e-06
8.9521426e-07
6.4442888e-07
5.6962624e-07
9.3916047e-07
9.9435675e-07
1.0357849e-06
1.0449704e-06
1.0478713e-06
1.0607747e-06
1.0853377e-06
1.0920044e-06
1.0915595e-06
1.0905724e-06
1.108725e-06
1.1556646e-06
1.1775661e-06
1.1886682e-06
1.2101535e-06
1.2863029e-06
1.4019663e-06
1.4340744e-06
1.4945002e-06
1.3890099e-06
8.9443048e-07
1.0064905e-06
5.0638283e-07
5.1545208e-07
1.0086179e-06
1.0423587e-06
1.0495257e-06
1.0608451e-06
1.0859908e-06
1.0984661e-06
1.1021038e-06
1.1058292e-06
1.1209363e-06
1.156249e-06
1.1790629e-06
1.1901506e-06
1.2209355e-06
1.2853975e-06
1.3721172e-06
1.4189485e-06
1.4956614e-06
1.6259396e-06
1.3331686e-06
9.0741338e-07
6.9020685e-07
8.655862e-07
9.3987206e-07
1.0229228e-06
1.0523053e-06
1.0564951e-06
1.071986e-06
1.096678e-06
1.1071785e-06
1.1130586e-06
1.12641e-06
1.1433423e-06
1.1731279e-06
1.1951941e-06
1.2142071e-06
1.2568725e-06
1.3324317e-06
1.415656e-06
1.5013728e-06
1.7159014e-06
2.2546538e-06
1.2806489e-06
9.1880651e-07
9.749096e-07
5.9872592e-07
9.7593559e-07
1.0428871e-06
1.0705175e-06
1.0846937e-06
1.1011278e-06
1.1150865e-06
1.1197206e-06
1.1291697e-06
1.161521e-06
1.1952401e-06
1.2150709e-06
1.2394073e-06
1.3023875e-06
1.3899524e-06
1.4627983e-06
1.526145e-06
1.831999e-06
2.8084957e-06
5.4812331e-06
1.2352432e-06
9.2433302e-07
8.6274091e-07
9.2568468e-07
9.9162607e-07
1.0570536e-06
1.0849755e-06
1.1065538e-06
1.1252559e-06
1.1292723e-06
1.1301388e-06
1.1452445e-06
1.1786936e-06
1.2156285e-06
1.2373977e-06
1.27415e-06
1.3430021e-06
1.4212818e-06
1.5078953e-06
1.7881605e-06
2.9552861e-06
6.6482115e-06
1.4620556e-05
1.2137996e-06
9.2447965e-07
8.8195588e-07
8.0856879e-07
1.0313339e-06
1.0895075e-06
1.1086465e-06
1.1334851e-06
1.1581822e-06
1.1649677e-06
1.1675867e-06
1.1985853e-06
1.2443645e-06
1.2919276e-06
1.3632845e-06
1.5592057e-06
1.9892963e-06
2.9007633e-06
4.9370222e-06
9.1621339e-06
1.6301659e-05
2.6039097e-05
3.7902869e-05
1.1032042e-06
9.3274257e-07
9.8751152e-07
9.8354627e-07
1.0455602e-06
1.0986215e-06
1.1214969e-06
1.1446907e-06
1.1684692e-06
1.1798321e-06
1.1874454e-06
1.2148324e-06
1.2636083e-06
1.307365e-06
1.3709162e-06
1.546245e-06
1.9596282e-06
2.8607323e-06
4.8145809e-06
8.7342216e-06
1.5276595e-05
2.4213787e-05
3.3569131e-05
7.6106864e-07
9.0128489e-07
9.654903e-07
9.831052e-07
1.0499915e-06
1.1011531e-06
1.1306973e-06
1.1528276e-06
1.1731216e-06
1.1894111e-06
1.2006325e-06
1.2232622e-06
1.2708022e-06
1.3136333e-06
1.3663533e-06
1.5041783e-06
1.8515295e-06
2.6831467e-06
4.560091e-06
8.2995528e-06
1.4535572e-05
2.2694426e-05
2.9556484e-05
5.9322504e-07
8.6966316e-07
9.3984043e-07
9.8016598e-07
1.0498041e-06
1.1002713e-06
1.1345299e-06
1.1578718e-06
1.1783252e-06
1.1975482e-06
1.2069605e-06
1.2267939e-06
1.2734248e-06
1.3272174e-06
1.3731357e-06
1.4802102e-06
1.7435506e-06
2.4235876e-06
4.0792658e-06
7.5919434e-06
1.3865703e-05
2.3571845e-05
2.6995367e-05
4.3889778e-07
8.4059264e-07
9.2681411e-07
9.7964342e-07
1.0498209e-06
1.0962602e-06
1.1334767e-06
1.1577085e-06
1.1808117e-06
1.201637e-06
1.2114549e-06
1.2268587e-06
1.2688533e-06
1.3304468e-06
1.3767891e-06
1.4657362e-06
1.6627974e-06
2.1672926e-06
3.4747444e-06
6.435129e-06
1.2205085e-05
2.4158997e-05
2.5972678e-05
4.5604147e-07
7.8309824e-07
8.9770585e-07
9.3682662e-07
1.0445042e-06
1.0884542e-06
1.1285131e-06
1.1497561e-06
1.1800904e-06
1.2025483e-06
1.21483e-06
1.2306855e-06
1.2695792e-06
1.3278484e-06
1.3734928e-06
1.4464272e-06
1.5979287e-06
1.9604832e-06
2.8988203e-06
5.0949077e-06
9.8014511e-06
2.1359207e-05
2.4252103e-05
3.7792551e-07
7.7018418e-07
8.6982051e-07
9.5502992e-07
1.0310945e-06
1.0744815e-06
1.117775e-06
1.1397378e-06
1.169772e-06
1.1988099e-06
1.21307e-06
1.2300724e-06
1.268991e-06
1.3237787e-06
1.3659335e-06
1.4331994e-06
1.5489633e-06
1.7963599e-06
2.4066316e-06
3.889763e-06
7.0564655e-06
1.4111358e-05
2.0602395e-05
3.5269147e-07
7.5337554e-07
8.5101752e-07
9.5037856e-07
1.0234504e-06
1.0634293e-06
1.1057336e-06
1.1303314e-06
1.1557219e-06
1.1824951e-06
1.1976841e-06
1.2156305e-06
1.255344e-06
1.3127028e-06
1.3584885e-06
1.4172805e-06
1.4967563e-06
1.6573785e-06
2.0294941e-06
2.9395013e-06
4.8852375e-06
9.1292061e-06
1.998133e-05
3.408929e-07
7.593347e-07
8.4989039e-07
9.464756e-07
1.0165295e-06
1.0532025e-06
1.0915948e-06
1.1177845e-06
1.1425158e-06
1.1648367e-06
1.1782844e-06
1.193459e-06
1.2272539e-06
1.2899936e-06
1.3408691e-06
1.3881356e-06
1.4520736e-06
1.5748963e-06
1.8309588e-06
2.4536096e-06
3.8113498e-06
6.6995707e-06
2.0539019e-05
4.0950298e-07
7.8903567e-07
8.6146863e-07
9.4468504e-07
1.0044566e-06
1.0360978e-06
1.0704972e-06
1.0991194e-06
1.125102e-06
1.1482757e-06
1.1612421e-06
1.1762923e-06
1.2109788e-06
1.2676695e-06
1.3120524e-06
1.3629244e-06
1.4294416e-06
1.5593372e-06
1.830931e-06
2.4592331e-06
3.8089906e-06
7.2708499e-06
2.5723513e-05
4.022336e-07
8.3653511e-07
8.7154417e-07
9.4295503e-07
9.9622714e-07
1.0250678e-06
1.054519e-06
1.0823235e-06
1.1069653e-06
1.1303663e-06
1.1449908e-06
1.1634896e-06
1.2044714e-06
1.2552491e-06
1.2992096e-06
1.3560945e-06
1.4359994e-06
1.5940679e-06
1.9174334e-06
2.6803208e-06
4.7133709e-06
1.2698494e-05
6.0832661e-05
4.1966983e-07
8.7738922e-07
8.9289372e-07
9.4315037e-07
9.9392708e-07
1.0211342e-06
1.04693e-06
1.0729388e-06
1.0972586e-06
1.1186208e-06
1.1346976e-06
1.1565603e-06
1.2039198e-06
1.2549047e-06
1.3028013e-06
1.3657511e-06
1.4629999e-06
1.6797272e-06
2.2446317e-06
4.2880885e-06
1.2144331e-05
3.6062703e-05
8.1105037e-05
4.879233e-07
9.2244292e-07
9.100005e-07
9.5168925e-07
9.9747933e-07
1.020767e-06
1.0426866e-06
1.0677533e-06
1.0937993e-06
1.1151366e-06
1.1336951e-06
1.1582304e-06
1.2071653e-06
1.260612e-06
1.318651e-06
1.4092465e-06
1.5990546e-06
2.1386468e-06
4.2976796e-06
1.3687851e-05
3.885096e-05
0.00010513944
0.00023076588
4.9874843e-07
9.6501497e-07
9.2483388e-07
9.6609843e-07
1.0021525e-06
1.0233159e-06
1.042988e-06
1.0674618e-06
1.094505e-06
1.1163367e-06
1.1365795e-06
1.165417e-06
1.2176706e-06
1.2846143e-06
1.3968487e-06
1.624844e-06
2.1924557e-06
4.2477375e-06
1.3500204e-05
3.9734049e-05
0.00011325451
0.00023095847
0.00034118007
5.0383036e-07
1.0216659e-06
9.5033097e-07
9.765967e-07
1.0057833e-06
1.0275402e-06
1.0478582e-06
1.0731591e-06
1.1009047e-06
1.122747e-06
1.1471536e-06
1.1859311e-06
1.2505507e-06
1.3725868e-06
1.649343e-06
2.300042e-06
4.1979366e-06
1.1254074e-05
3.2290941e-05
8.8128784e-05
0.00019931529
0.00030318221
0.00039854955
5.1706423e-07
1.0827461e-06
9.7839815e-07
9.8540222e-07
1.0164078e-06
1.038179e-06
1.0596041e-06
1.0849126e-06
1.11249e-06
1.1378037e-06
1.1746142e-06
1.2373705e-06
1.3581595e-06
1.6448626e-06
2.3960317e-06
4.5182827e-06
1.105031e-05
2.7746961e-05
6.2530071e-05
0.00015737832
0.00026198509
0.00034733937
0.00041796773
5.2996064e-07
1.1636555e-06
9.0701881e-07
1.005427e-06
1.0392783e-06
1.0662511e-06
1.0891519e-06
1.1111552e-06
1.1405452e-06
1.1841774e-06
1.2688429e-06
1.455826e-06
1.9289622e-06
3.2645592e-06
6.9222842e-06
1.5844719e-05
3.1877955e-05
6.3730361e-05
0.00014917206
0.00024364064
0.00031686378
0.00036770675
0.00040633555
5.4466511e-07
1.2451928e-06
7.6432216e-07
1.036337e-06
1.0784685e-06
1.1152069e-06
1.1346752e-06
1.168804e-06
1.2593365e-06
1.4861952e-06
2.1196353e-06
3.8570264e-06
8.2425988e-06
1.7687548e-05
3.2768344e-05
5.4387866e-05
0.00010162232
0.00018491376
0.00025949293
0.00031044309
0.00034400208
0.00036677629
0.0003739336
5.6385646e-07
1.2993886e-06
6.3136877e-07
8.6516802e-07
1.15668e-06
1.1769724e-06
1.2499088e-06
1.526391e-06
2.4134011e-06
5.0668189e-06
1.1619875e-05
2.4489278e-05
4.2607939e-05
6.7907745e-05
0.00011283437
0.00018037722
0.00024480411
0.0002865948
0.0003107345
0.0003250008
0.00032568059
0.00030128519
0.00025900526
6.1788667e-07
9.3421376e-07
5.1788219e-07
8.0314173e-07
1.2624737e-06
1.4218861e-06
2.1994501e-06
4.9960781e-06
1.3123629e-05
2.9780107e-05
5.2170661e-05
8.5197928e-05
0.0001415378
0.00020561508
0.00025772309
0.00028587936
0.00029739472
0.00029919852
0.00029409376
0.00026531563
0.00020525171
0.00013763739
9.4959621e-05
1.2217074e-06
7.3292142e-07
4.824422e-07
8.8273808e-07
1.7035281e-06
3.1664943e-06
8.2462157e-06
1.8208779e-05
4.7165474e-05
9.3865934e-05
0.00016362753
0.00023353954
0.00028022799
0.00030014283
0.00030443324
0.00029267505
0.00027559357
0.00023853049
0.00017282464
0.00010991456
6.9815525e-05
4.1725855e-05
2.8692296e-05
1.2574163e-06
6.7508664e-07
4.6793017e-07
1.2447425e-06
3.0903874e-06
6.289654e-06
1.9704585e-05
6.1934611e-05
0.00014261487
0.00024213765
0.00029919894
0.0003236783
0.00033004189
0.0003137949
0.00028655
0.00023655731
0.00016605787
9.6808228e-05
6.0290058e-05
3.9925452e-05
2.9133753e-05
2.2335238e-05
1.5550371e-05
1.1161129e-06
5.4778519e-07
4.9399331e-07
2.186181e-06
4.2571488e-06
1.6527663e-05
6.0179128e-05
0.00016326302
0.00026873872
0.00031881441
0.00032968163
0.0003199594
0.00029826083
0.00028080024
0.00022208657
0.0001535199
8.4865297e-05
4.7739169e-05
3.2352532e-05
2.5355412e-05
2.1828705e-05
1.8381544e-05
1.2564635e-05
6.9708522e-07
4.5851043e-07
7.7959092e-07
3.3890042e-06
1.2543057e-05
5.3953751e-05
0.00015283297
0.00025719239
0.000292299
0.00029990406
0.00028966003
0.00026264094
0.00023744237
0.00021717128
0.00020241392
0.00014696581
8.8763147e-05
5.0427963e-05
3.2641764e-05
2.4541347e-05
2.0537683e-05
1.7895329e-05
1.3745513e-05
7.0933934e-07
7.024092e-07
2.1196038e-06
1.090278e-05
4.7596375e-05
0.00014074189
0.00025950419
0.00030380352
0.000302206
0.00029259599
0.00026472854
0.0002348123
0.00021219447
0.00019596607
0.0001837864
0.00017816675
0.00015330617
0.0001089395
6.6194257e-05
3.8437729e-05
2.6057977e-05
2.0269402e-05
1.7118763e-05
9.0078943e-07
7.8797276e-07
2.8241028e-06
1.5970451e-05
7.5837852e-05
0.00020028005
0.00029603861
0.00031567616
0.00031011951
0.00029189229
0.00026170817
0.00023305442
0.00021069778
0.00019897951
0.00019553953
0.00019601857
0.00019766489
0.00019852505
0.00017095772
0.00011843867
7.2210161e-05
4.0960701e-05
2.6321401e-05
1.2517172e-06
5.6602034e-07
3.7849969e-06