/*--------------------------------*- C++ -*----------------------------------*\
| =========                 |                                                 |
| \\      /  F ield         | OpenFOAM: The Open Source CFD Toolbox           |
|  \\    /   O peration     | Version:  2406                                  |
|   \\  /    A nd           | Website:  www.openfoam.com                      |
|    \\/     M anipulation  |                                                 |
\*---------------------------------------------------------------------------*/
FoamFile
{
    version     2.0;
    format      ascii;
    arch        "LSB;label=32;scalar=64";
    class       volScalarField;
    location    "25";
    object      omega;
}
// * * * * * * * * * * * * * * * * * * * * * * * * * * * * * * * * * * * * * //

dimensions      [0 0 -1 0 0 0 0];

internalField   nonuniform List<scalar> 
62344
(
4.3915311
3.3040214
2.6376951
2.2053858
1.9190389
1.7096025
1.5524955
1.4241695
1.3195273
1.2343119
1.1614026
1.1110749
1.0638189
1.0163877
0.97730546
0.95443795
0.92435522
0.88858056
0.86110338
0.84468254
0.83524833
0.8307498
0.82700106
0.81571257
0.80538832
0.80080415
0.79955268
0.79881901
0.80493595
0.81095422
0.81964157
0.85645105
0.92286902
0.96830964
1.0313449
1.1174814
1.2226757
1.4093722
1.5957514
1.8075261
2.0658358
2.3506336
2.6295656
2.9169548
3.1829489
3.4362914
3.6041439
3.7075154
3.7695182
3.8019372
3.7873576
3.7290355
3.7150059
3.8032758
4.0641603
4.397963
3.3143927
2.6475915
2.2123107
1.9255233
1.7168988
1.5601527
1.4320455
1.3262833
1.2379799
1.1675433
1.1120812
1.064084
1.0178814
0.97955928
0.95212522
0.92647793
0.89296396
0.86267429
0.84316339
0.83139118
0.82588374
0.81976396
0.80779745
0.79940049
0.79665116
0.79171334
0.7853375
0.78835352
0.78997163
0.79203915
0.81145291
0.85587151
0.91525635
0.96876862
1.0234228
1.1268583
1.2743339
1.4253099
1.5902557
1.8102986
2.1086063
2.4419403
2.8007707
3.1482247
3.407744
3.6194445
3.7813831
3.9326944
4.0154463
4.1304771
4.2132676
4.2863203
4.3474459
4.4063666
4.4056769
3.3217109
2.6532441
2.2144689
1.926886
1.7198311
1.5630865
1.4318916
1.3296723
1.2425882
1.1710912
1.1122395
1.0684072
1.0254458
0.98612077
0.95825917
0.92900185
0.89550665
0.86634198
0.84350888
0.83100099
0.82505755
0.81753871
0.80766379
0.80051256
0.79803254
0.79687798
0.79256403
0.7938029
0.79511997
0.79673578
0.80781988
0.83573472
0.89142421
0.94117708
0.99028306
1.0845473
1.1991496
1.3241725
1.4553358
1.6274542
1.8423976
2.1242342
2.3977527
2.721494
3.0059998
3.31992
3.5880558
3.8212393
3.9968712
4.151902
4.3565776
4.5058679
4.6097975
4.7158277
4.412007
3.3307508
2.6587722
2.2224868
1.9345802
1.7248143
1.5694612
1.4392189
1.3351006
1.2500931
1.175539
1.1184191
1.0725094
1.0335439
0.99014269
0.95970064
0.93358517
0.89696211
0.86900044
0.84947746
0.83395676
0.82439488
0.81715304
0.80878834
0.80430678
0.80393855
0.80111117
0.792915
0.79392152
0.79576888
0.79715098
0.80530287
0.8257855
0.87333833
0.92476469
0.98066244
1.0727851
1.1756962
1.2947989
1.4211903
1.5711903
1.7627696
2.0078687
2.2368829
2.4606273
2.6638703
2.9107538
3.1283972
3.3809687
3.6752729
3.918672
4.2149338
4.388644
4.5595264
4.7377562
4.418152
3.336966
2.6664376
2.228044
1.9393316
1.7299573
1.5754148
1.4472765
1.3422193
1.2531811
1.1829457
1.1215701
1.074872
1.0342705
0.99269146
0.95982793
0.93813528
0.91055541
0.87594789
0.85380866
0.83678105
0.82695165
0.81880153
0.80990551
0.8052915
0.8055167
0.8027952
0.79294608
0.78952782
0.79018458
0.79351341
0.80364911
0.8210646
0.86016293
0.91226161
0.96871367
1.0397047
1.1237541
1.2249066
1.3420829
1.4933258
1.6997284
1.9414853
2.1678459
2.385878
2.6156788
2.8558842
3.0399182
3.220615
3.4059068
3.6117099
3.7806216
3.9654153
4.1436989
4.4674771
4.4239451
3.3445728
2.6742597
2.2339877
1.9445115
1.7319255
1.5768137
1.4472147
1.3444453
1.2548137
1.1877484
1.1218681
1.0764178
1.0396696
1.0019042
0.97102621
0.94164951
0.91409969
0.88420562
0.85817771
0.83803802
0.82673094
0.81780966
0.81156575
0.80783447
0.80708063
0.8038383
0.79684875
0.79122758
0.79072582
0.79517507
0.80815908
0.82255449
0.85041711
0.90191146
0.95880433
1.0209495
1.0968625
1.1894394
1.2960815
1.4472399
1.650779
1.8812685
2.1069792
2.3391951
2.5959605
2.843052
3.040225
3.248162
3.4437529
3.6460579
3.7664116
3.8961366
4.0038311
4.2158858
4.4290591
3.3522074
2.6793694
2.2401921
1.9507205
1.7375555
1.5815301
1.4509061
1.346722
1.2610001
1.1882098
1.1274099
1.0796633
1.0465152
1.0057182
0.9730604
0.94653758
0.91612549
0.89109054
0.86542154
0.84404055
0.83086519
0.82304551
0.81529844
0.81079145
0.81033007
0.80440232
0.79490383
0.7936852
0.79488526
0.80050642
0.81449151
0.8259319
0.84288208
0.88409728
0.94165587
1.0022451
1.0800915
1.1635569
1.2616164
1.4084697
1.5983311
1.8063678
2.0177831
2.2518868
2.517256
2.7633585
2.9935162
3.2348882
3.4527416
3.6606821
3.8167109
3.9097716
4.0342512
4.1709548
4.4340941
3.358575
2.6878821
2.2464885
1.9568504
1.7456064
1.5887716
1.4606365
1.354825
1.2667951
1.1924876
1.1352968
1.0868225
1.0491902
1.0064145
0.9707331
0.94644212
0.92042709
0.8938627
0.86768435
0.84489673
0.83291279
0.82401825
0.81480027
0.80970352
0.80760575
0.80192451
0.79428745
0.7941781
0.79680395
0.80585967
0.82054971
0.82872594
0.83964304
0.86784423
0.92910461
0.99467276
1.0728257
1.1523181
1.2514582
1.3840449
1.5363135
1.7070921
1.9110898
2.1387376
2.3573226
2.5774502
2.8082186
3.0590074
3.2905169
3.4932687
3.6864875
3.8053195
3.9539257
4.0792785
4.439148
3.3638568
2.6942695
2.2499845
1.960957
1.748881
1.5921377
1.4626468
1.3602439
1.2668007
1.1984485
1.1373967
1.0876587
1.0473369
1.0096839
0.97608068
0.94362141
0.92532381
0.89853252
0.86965369
0.84460712
0.83126874
0.82077
0.81358269
0.81068711
0.80576751
0.80352557
0.80220055
0.80032892
0.79976585
0.80606426
0.82024455
0.82814808
0.8379253
0.86024908
0.91382786
0.98827287
1.0582172
1.1302889
1.2381204
1.3688353
1.4926635
1.6385352
1.8418006
2.0656291
2.2683438
2.473233
2.7093713
2.9462459
3.1292065
3.2657415
3.4164579
3.5569379
3.6759004
3.8210671
4.4434338
3.371711
2.6981874
2.2540262
1.9635916
1.7523242
1.5954795
1.4617006
1.3605027
1.2669843
1.2017177
1.1380582
1.084142
1.0497968
1.0143299
0.98127421
0.94811039
0.92979808
0.90934984
0.88001794
0.85446525
0.8338628
0.82306551
0.81876584
0.81477984
0.80959071
0.80772279
0.80614517
0.80292971
0.79963066
0.80333966
0.81229658
0.82479462
0.8394775
0.86179891
0.90486027
0.9731539
1.0342565
1.1012486
1.2128857
1.3439838
1.4587167
1.6015324
1.7984419
2.0156419
2.2093574
2.4345859
2.6895227
2.9231566
3.0896207
3.2127172
3.3586081
3.4938949
3.5859165
3.687869
4.4476005
3.3795929
2.7029723
2.259918
1.9671968
1.757371
1.5998293
1.4672654
1.3621325
1.2712332
1.203336
1.1422848
1.0877574
1.0588595
1.0198714
0.98153876
0.95413333
0.93074106
0.91128767
0.88675145
0.86229787
0.8395691
0.82862639
0.82399433
0.81453891
0.80949301
0.80843112
0.80717849
0.80216737
0.7970105
0.79997933
0.80722415
0.82175502
0.84174341
0.86537207
0.90472547
0.95817828
1.0053964
1.0685947
1.1815074
1.3125949
1.4343779
1.5794462
1.7713249
1.9712634
2.1615519
2.3864364
2.6528624
2.8804101
3.0625868
3.2112263
3.3965003
3.539896
3.6776871
3.7655147
4.4514457
3.3854772
2.7103334
2.2676506
1.974722
1.7633091
1.6041998
1.4770833
1.3695604
1.2813547
1.2066827
1.1494763
1.0972355
1.0649266
1.0229323
0.98118747
0.95669219
0.93033686
0.90872783
0.88693188
0.86102571
0.83963771
0.82885023
0.82243154
0.81297198
0.80752656
0.8074684
0.80789558
0.80177062
0.79554897
0.79829492
0.80589358
0.82021569
0.83994337
0.86505409
0.90444852
0.95135534
0.99344862
1.0522451
1.1582248
1.2825887
1.4037826
1.5583054
1.7333952
1.9137058
2.0893556
2.3094027
2.568637
2.7958186
2.9919622
3.1692358
3.3888111
3.5537481
3.7449855
3.8607893
4.4554671
3.3896565
2.7173129
2.2736243
1.981845
1.7676697
1.609914
1.4802054
1.3773151
1.2868548
1.2126282
1.1537675
1.1012628
1.0618586
1.0227573
0.98449328
0.95612326
0.93535903
0.91318459
0.8890577
0.8583352
0.83843946
0.82726223
0.81964515
0.81524311
0.8100586
0.80924107
0.81005893
0.80431326
0.79745733
0.79934385
0.8061307
0.81904081
0.83721158
0.86231109
0.89993503
0.94402551
0.98859143
1.0451568
1.1460218
1.2635731
1.3790496
1.5218918
1.6915479
1.8578256
2.0293933
2.2423984
2.4723989
2.6725586
2.8564268
3.0387818
3.2765124
3.4443165
3.6495537
3.7987591
4.459117
3.39372
2.722459
2.278134
1.984523
1.7707143
1.6141961
1.4796947
1.378906
1.2850871
1.2169743
1.1549406
1.1008957
1.059921
1.0229515
0.98836861
0.95621434
0.93936004
0.92222629
0.89656107
0.86226993
0.84128973
0.82945913
0.81985045
0.81737839
0.81358623
0.81084555
0.81094537
0.80765137
0.80285781
0.80304029
0.80696004
0.8158391
0.83532372
0.86197557
0.8952735
0.93634603
0.98704422
1.044582
1.1384063
1.2485757
1.3600418
1.4826644
1.6311439
1.7878474
1.9582
2.1629754
2.3682867
2.5457509
2.70283
2.8659118
3.0516543
3.1963055
3.3736917
3.551446
4.4623969
3.399765
2.7277231
2.2821634
1.9853488
1.7730223
1.6153676
1.4805152
1.377493
1.2816358
1.2165955
1.1542332
1.1007588
1.0623505
1.0263563
0.99098631
0.95649722
0.93741956
0.92351362
0.89836681
0.86850555
0.8469019
0.83361445
0.82384431
0.81927983
0.81492991
0.81157571
0.8113756
0.80991119
0.80833478
0.80883208
0.81236124
0.81839633
0.83801188
0.86847321
0.89925091
0.93131085
0.98609288
1.0487874
1.1353656
1.241863
1.351628
1.4668422
1.5991533
1.7458995
1.9203494
2.1213297
2.3137368
2.460948
2.6021273
2.7511687
2.9041332
3.0345841
3.1630917
3.2893842
4.4645811
3.4072297
2.7347778
2.2882295
1.989076
1.7764852
1.6160951
1.485495
1.3780113
1.2832092
1.2161688
1.1545992
1.1027693
1.0661309
1.0297843
0.99319558
0.95875468
0.93432422
0.91943547
0.8951567
0.87051926
0.8488306
0.83445711
0.82690994
0.82195694
0.81705638
0.81450277
0.81431697
0.81394297
0.81310359
0.81467155
0.82065476
0.82876575
0.84817789
0.87960268
0.91212103
0.93892774
0.98749317
1.0556209
1.1392663
1.240845
1.3586717
1.4784165
1.6033962
1.7453483
1.9258407
2.1262584
2.3043479
2.4425252
2.5844094
2.732982
2.8733399
2.9984523
3.1123557
3.2055587
4.4667652
3.4161817
2.7439625
2.2965735
1.9976895
1.7829457
1.6199546
1.4939602
1.3834015
1.2916331
1.2201683
1.1601004
1.1070582
1.0692307
1.0337426
0.99865917
0.9662287
0.93872695
0.92071455
0.89858151
0.87295116
0.85148976
0.83692675
0.83042801
0.82718365
0.82489122
0.82438628
0.82478384
0.82525253
0.82460996
0.82626147
0.83551516
0.84916664
0.86971281
0.90005094
0.93785526
0.96587848
1.0066792
1.0723575
1.1557888
1.2519442
1.3796131
1.5102071
1.6357378
1.7748547
1.9658623
2.1732339
2.3429094
2.4849865
2.6424707
2.806135
2.9553504
3.0714633
3.1995383
3.2898281
4.4683683
3.4234647
2.7525397
2.3045294
2.0077514
1.7912725
1.6284504
1.5014353
1.3942945
1.3041886
1.2301127
1.1723614
1.1144103
1.0764839
1.0426862
1.0100699
0.97969944
0.95563625
0.93954328
0.92012002
0.88710659
0.8646938
0.85211798
0.84384142
0.84217735
0.84297391
0.84553586
0.84736545
0.84931945
0.85032576
0.85220997
0.86122026
0.87965342
0.90522341
0.93347357
0.97559594
1.0168534
1.0594797
1.1162686
1.1995677
1.2887279
1.4070346
1.5466221
1.6867298
1.8229831
2.0132545
2.2215822
2.4001994
2.5523767
2.7404475
2.9101838
3.0957499
3.2096959
3.3725442
3.49988
4.4707744
3.4298982
2.7599753
2.3111955
2.0151128
1.7989727
1.638852
1.507541
1.4060864
1.314686
1.242898
1.187716
1.1273004
1.0908958
1.0583117
1.027015
0.99769779
0.98286455
0.97505781
0.95901162
0.92044688
0.89561822
0.8866791
0.87664076
0.87454486
0.8776464
0.88635796
0.89042065
0.8953516
0.90038003
0.90366068
0.91257456
0.93003826
0.96374187
0.99452149
1.0390037
1.0904324
1.1357243
1.1915307
1.2858799
1.3809507
1.4874941
1.6173032
1.7553738
1.8953131
2.0805207
2.2906347
2.4779681
2.6390424
2.8396039
3.0101137
3.2090555
3.3228954
3.5051208
3.6641639
4.4725449
3.4338854
2.7652868
2.316623
2.020352
1.8065527
1.6494662
1.5163001
1.4187101
1.326581
1.2593112
1.2068497
1.1492795
1.114769
1.0837846
1.0522608
1.026348
1.0182046
1.0160698
1.0062176
0.97191152
0.94672703
0.94197119
0.93495904
0.93219278
0.93780571
0.9552331
0.96408813
0.97660476
0.98888479
0.99609447
1.0062552
1.0235327
1.0643732
1.1041398
1.1517456
1.2102903
1.265461
1.3223119
1.4201066
1.5268875
1.6416533
1.7645514
1.8947932
2.0305949
2.2114642
2.4047968
2.6058962
2.7655192
2.9759748
3.1402832
3.3282554
3.4438879
3.6375439
3.796377
4.4769074
3.4415707
2.7751135
2.3287061
2.0334321
1.8239289
1.6702288
1.5388375
1.4438517
1.3527646
1.2891207
1.2386396
1.1873912
1.1560874
1.1277925
1.0995368
1.0810741
1.0809264
1.086937
1.0841448
1.0630306
1.0449595
1.0481332
1.0486777
1.049665
1.062456
1.0946705
1.1165486
1.1426036
1.1676908
1.185491
1.2059779
1.2355275
1.2761436
1.3326404
1.3983471
1.478492
1.5615138
1.6318506
1.7190307
1.8194879
1.9308661
2.0432048
2.1762636
2.3028571
2.4733714
2.6424333
2.8483843
3.0068236
3.2319504
3.3852965
3.573587
3.67492
3.8690952
3.9889415
4.4830322
3.459971
2.8049743
2.366942
2.0763156
1.8699508
1.717494
1.5898128
1.4978072
1.4126985
1.3578575
1.3164269
1.2796996
1.2624557
1.2436391
1.232923
1.2319159
1.2496403
1.2865291
1.3070144
1.3036736
1.3137342
1.3401311
1.3726727
1.4017954
1.4374592
1.4955063
1.5496091
1.6011329
1.6523727
1.6954903
1.7456212
1.8023302
1.8434757
1.9180105
2.0110127
2.1212363
2.238602
2.3361707
2.4211712
2.5054562
2.6045216
2.6966352
2.8083689
2.9026291
3.032191
3.1698794
3.3585827
3.5088367
3.7466008
3.888304
4.079824
4.1597877
4.3400583
4.399638
4.5210174
3.5311375
2.9027458
2.4725314
2.1929646
1.9903426
1.8556159
1.7534467
1.6880118
1.6379668
1.6257912
1.6266685
1.6384168
1.6592396
1.6931522
1.7284053
1.765899
1.844166
1.9362094
2.0093717
2.0355641
2.095688
2.1804986
2.253953
2.3241785
2.389064
2.4734997
2.5739121
2.6643222
2.7471538
2.8306409
2.9156235
2.9946372
3.0539676
3.1367072
3.2398205
3.3645923
3.4836073
3.5929824
3.6905156
3.7861029
3.8801403
3.980297
4.0662175
4.1493194
4.2139198
4.2836794
4.382009
4.5203753
4.7141613
4.8732386
5.0574369
5.1238748
5.2878043
5.2855837
4.5979748
3.7038029
3.2040287
2.8755648
2.7053298
2.5765828
2.5363801
2.5425267
2.5831468
2.6481886
2.7458269
2.8366742
2.9421615
3.0630865
3.1677987
3.2759096
3.3644367
3.5030382
3.6487167
3.777456
3.8534272
3.9537437
4.0899996
4.1797634
4.2831753
4.3696136
4.4645965
4.5910901
4.7098872
4.8151674
4.9253425
5.0262851
5.100133
5.1500587
5.2056705
5.2755697
5.3592711
5.4435235
5.5380416
5.6326431
5.7240271
5.8368436
5.9729666
6.0892101
6.200363
6.2522876
6.3247978
6.3657566
6.4215589
6.5168916
6.6787402
6.7760014
6.8202443
6.9501853
6.9169968
4.7801939
4.6989572
4.8993605
5.0841487
5.2558273
5.353592
5.4492156
5.6048136
5.8138857
5.9932611
6.192577
6.3577852
6.5359048
6.7257181
6.872239
7.0203282
7.1291221
7.3165261
7.4860932
7.6187372
7.7109084
7.804707
7.973924
8.0703539
8.1985769
8.3026401
8.4283645
8.6449679
8.8189635
8.9405565
9.0343805
9.1449407
9.2105861
9.2374768
9.2642957
9.3120132
9.341684
9.363488
9.4330605
9.5133774
9.559251
9.5992099
9.6637745
9.7436969
9.7745634
9.8904283
9.9452075
9.9802565
10.01203
10.058323
10.206497
10.220907
10.212676
10.253187
10.180414
8.9424878
11.916134
13.12291
13.662503
14.079224
14.268318
14.437842
14.785206
15.068854
15.335522
15.628129
15.894882
16.131874
16.249656
16.380322
16.519526
16.632154
16.959371
17.254014
17.414517
17.317933
17.254667
17.566951
17.6307
17.580451
17.542856
17.61329
17.730058
17.80941
17.837844
17.971239
18.187203
18.201672
17.992108
17.951106
18.091739
18.235348
18.227484
18.340538
18.522671
18.584616
18.680127
18.764598
18.746463
18.729168
18.713974
18.610454
18.675037
18.761542
18.92352
18.991676
18.856766
18.758618
18.757355
18.539966
55.828558
56.27463
55.870009
55.36121
55.105332
55.056119
54.931182
54.803483
54.864606
54.91173
54.82692
54.775719
54.781145
54.526873
54.442083
54.77446
54.947379
55.258406
55.623535
55.736002
55.746831
55.934263
56.03752
55.657884
55.630691
55.88441
55.775857
55.942254
55.89033
55.779805
56.207533
56.798386
56.91956
56.480337
55.977182
55.935612
56.427391
56.862435
56.74143
56.250206
55.835205
55.756835
56.055191
56.362677
56.241363
55.661656
55.115292
54.846728
55.112461
55.722471
56.32977
56.620955
56.364375
55.686586
54.866528
55.553385
18.968647
10.467487
7.1439778
5.4933356
4.6586555
4.2881403
4.1033254
3.9495628
3.7483851
3.4960897
3.3526941
3.4023269
3.6258575
3.8867428
3.9569344
3.8535584
3.7285597
3.834215
4.1096072
4.2171281
4.2553175
4.4838009
4.7238811
4.7432333
4.6111865
4.6055985
58.520083
20.214608
10.827541
7.4856778
5.8016913
4.9357872
4.5389934
4.3389004
4.1425784
3.9169071
3.6595134
3.513808
3.5586238
3.7675509
4.0472788
4.1274767
4.0221377
3.8616513
3.9323568
4.2106039
4.3258389
4.3207896
4.5018244
4.7638416
4.7188146
4.6374273
4.8862699
63.019587
21.008431
11.164383
7.7932679
6.0876566
5.2053464
4.8017566
4.5986713
4.3692497
4.0825315
3.7677595
3.617711
3.7029339
3.9972989
4.3007693
4.3796001
4.2640249
4.0899833
4.1477161
4.4392088
4.5770242
4.5119233
4.606424
4.8630408
4.7677968
4.7660976
5.2318487
68.134317
21.225086
11.35255
7.9729832
6.2990448
5.5462437
5.251596
5.0456281
4.7496191
4.3426324
3.9228973
3.7551918
3.8609737
4.1955767
4.5110451
4.6160815
4.5321554
4.3538938
4.4287694
4.7728902
4.9742673
4.844601
4.8362007
5.0892044
4.9227232
4.94633
5.4964674
72.774357
22.425717
11.782004
8.2710229
6.6580666
6.0256568
5.7715889
5.5256376
5.1038956
4.6058463
4.1315988
3.9429927
4.0203921
4.320353
4.6946472
4.8669265
4.8314299
4.6361995
4.6731367
5.0334377
5.3636596
5.2942939
5.118131
5.3962989
5.3391607
5.2418588
5.7008504
76.597064
23.546182
12.277338
8.6315802
7.1143358
6.5327479
6.2132411
5.834503
5.3779803
4.8868415
4.3947579
4.1619301
4.1919455
4.4893385
4.9698199
5.2022214
5.2020167
4.9719666
4.9082488
5.203328
5.6038667
5.6636687
5.4708121
5.7284367
5.8182612
5.6841298
6.0976099
79.671663
24.019146
12.548316
9.0405755
7.535196
6.9153282
6.5759181
6.1956316
5.8016166
5.3450116
4.791976
4.4594151
4.4566509
4.8014684
5.3282493
5.5621322
5.5680436
5.3226574
5.1747129
5.3784025
5.7709202
5.9357691
5.8521967
6.0801374
6.2410703
6.1511424
6.7588086
83.328694
24.553399
12.830212
9.3419225
7.918616
7.3209533
7.0687205
6.816849
6.4292489
5.8812048
5.2229105
4.8374513
4.8352657
5.1984205
5.7010199
5.9011296
5.9089632
5.700758
5.4933579
5.5856655
5.938864
6.1974075
6.3104483
6.6054173
6.6393005
6.4554253
7.2737177
88.640572
26.513433
13.578458
9.578398
8.2207304
7.8249376
7.6935749
7.4566909
6.9619855
6.307995
5.600693
5.2452286
5.2576637
5.6007228
6.1380364
6.4052881
6.447368
6.2428886
5.9375722
5.8899056
6.1506042
6.4727652
6.7166564
7.0771749
7.1205631
6.7258208
7.3662051
95.864162
28.191478
14.333527
10.124331
8.6690298
8.3519402
8.2304181
7.9065919
7.3598548
6.7302005
6.0656467
5.6930792
5.6856708
6.0201652
6.6724733
7.086376
7.2243114
7.02194
6.5789746
6.3916501
6.5840457
6.8458588
7.0332942
7.2798274
7.3523715
7.0271771
7.4508558
103.2115
29.638787
14.969529
10.588238
9.0831512
8.7765876
8.6780939
8.421347
7.9677439
7.4144327
6.7463928
6.2204104
6.102734
6.404736
7.1418174
7.6998368
7.9375514
7.8174384
7.3180295
7.0496512
7.2689469
7.5396651
7.5452242
7.517757
7.4721262
7.2367565
7.716228
109.88708
30.195343
15.190222
10.847357
9.4409542
9.1977694
9.2264351
9.1482159
8.8166951
8.2239739
7.4793772
6.784644
6.5603501
6.7706643
7.4342104
8.1386857
8.4985768
8.486028
8.0492882
7.7264568
7.9315508
8.3505108
8.438013
8.2455106
7.9073121
7.4130573
7.9944158
115.08296
31.865649
15.854267
11.19549
9.9762215
9.8779658
9.9395066
9.8723535
9.5360127
8.9033697
8.1664989
7.4192383
7.1013583
7.1936721
7.6767983
8.5225354
9.0423273
9.2072778
8.9806001
8.4915063
8.477755
8.9160393
9.2790875
9.3127085
8.8797839
7.9162311
8.1853308
119.16315
34.056128
16.895097
11.893553
10.515486
10.442636
10.578058
10.517008
10.217813
9.6644313
9.0450953
8.3207429
7.848094
7.7914159
8.1509136
9.0612175
9.6808419
9.9679247
9.890615
9.3593907
9.0690621
9.2143133
9.5742491
9.8656351
9.8196511
8.8452046
8.5495588
124.41267
35.531297
17.417543
12.362553
10.995681
10.948491
11.155806
11.207963
11.088826
10.77888
10.201993
9.3125997
8.7315889
8.670688
9.0414594
9.9199893
10.424332
10.596326
10.428761
9.9201255
9.6706034
9.6077135
9.6582034
9.8416465
10.040451
9.680912
9.0721414
132.10784
37.20373
18.163737
12.883352
11.480647
11.454956
11.792604
12.138197
12.141679
11.87591
11.140146
10.070463
9.5145764
9.5789311
10.119425
10.997862
11.37072
11.307642
10.889082
10.260647
10.01842
9.981451
9.9613967
9.9629233
10.059673
10.021586
9.6531558
141.89024
40.049798
19.727413
13.904865
12.34252
12.34385
12.724666
13.101003
13.043238
12.671321
11.765274
10.752236
10.283642
10.367973
10.876642
11.917302
12.495836
12.4332
11.803511
10.846164
10.400031
10.29079
10.306321
10.375662
10.379957
10.328018
9.9549979
152.61178
42.771143
21.180444
14.862845
13.286273
13.254013
13.62194
13.946042
13.800977
13.317545
12.538363
11.751925
11.201631
11.114996
11.424343
12.311166
13.197013
13.494433
13.041605
11.901368
11.118793
10.785789
10.714328
10.787221
10.892593
10.783597
10.24965
162.87003
45.001675
22.583871
15.735911
14.023942
13.971966
14.246455
14.405603
14.258019
13.893631
13.376859
12.822031
12.218023
11.877399
11.980883
12.424672
13.260567
13.796375
13.759656
13.040069
12.077858
11.504602
11.233517
11.140124
11.211114
11.082428
10.58353
170.63581
46.388599
23.248769
16.27638
14.555985
14.516859
14.657807
14.627935
14.479416
14.221733
13.878727
13.409142
12.861326
12.446301
12.419213
12.622414
13.192638
13.681893
13.764302
13.454789
12.771974
12.317995
11.987497
11.733563
11.545584
11.297759
10.854293
175.33795
46.711813
24.107707
17.623586
15.730958
15.369359
15.144934
15.024276
14.820253
14.562527
14.218916
13.704081
13.106506
12.691861
12.661597
12.865031
13.309529
13.607273
13.626487
13.433206
13.003871
12.813039
12.707408
12.486249
12.145574
11.705173
11.224992
179.70933
49.773021
26.673741
20.220547
17.954656
16.668478
15.968428
15.670194
15.441091
15.097308
14.568607
13.868216
13.191155
12.816841
12.797938
13.083277
13.437829
13.597396
13.576976
13.431945
13.127206
13.058349
13.093851
13.088771
12.860979
12.313117
11.788627
189.2434
53.958482
29.715813
22.675678
19.261998
17.429683
16.560974
16.059275
15.627272
15.111513
14.466522
13.772576
13.232788
12.982136
12.962544
13.156939
13.379252
13.504767
13.501948
13.432771
13.25284
13.218611
13.283698
13.318
13.214778
12.838803
12.44433
199.91636
54.996647
32.154539
24.276283
19.848627
17.695719
16.463123
15.615302
14.910528
14.321242
13.864283
13.538994
13.319314
13.185767
13.123603
13.140686
13.203757
13.274783
13.313306
13.316894
13.230355
13.246642
13.354231
13.408638
13.281461
12.99467
12.829975
211.87348
57.72517
36.562673
25.531809
20.447323
17.52237
15.680014
14.521336
13.855391
13.531549
13.401472
13.348726
13.308342
13.242159
13.157336
13.080663
13.030354
13.021498
13.052705
13.081181
13.089045
13.167218
13.318833
13.396725
13.26123
12.959626
12.900968
220.94272
65.925576
40.600736
26.80154
20.495106
17.042098
15.076336
13.965239
13.385098
13.125837
13.038439
13.034405
13.069394
13.075842
13.040537
12.969359
12.89033
12.8234
12.798457
12.804408
12.855133
12.983416
13.188148
13.29209
13.17001
12.920454
12.862716
226.49207
75.697081
40.236358
26.400115
19.800068
16.472708
14.657092
13.619104
13.024276
12.701025
12.54584
12.496044
12.517462
12.587444
12.691225
12.745943
12.728575
12.637586
12.551411
12.523282
12.57335
12.73035
12.933125
13.037716
12.998698
12.871549
12.876206
228.91415
82.042898
39.748536
24.962917
18.795738
15.755958
14.080564
13.102705
12.526413
12.207407
12.059409
12.029862
12.074596
12.193911
12.334251
12.437376
12.470596
12.413425
12.341022
12.317023
12.35283
12.48107
12.628358
12.725069
12.776963
12.834674
12.984169
225.78914
83.16844
37.735553
23.700942
17.998911
15.163998
13.586176
12.671291
12.154633
11.891409
11.793422
11.803508
11.867695
11.970378
12.066973
12.143208
12.190226
12.227797
12.283675
12.328923
12.355074
12.358846
12.390708
12.462146
12.600126
12.853399
13.198093
214.6555
77.841007
35.179881
22.573061
17.394663
14.79392
13.354745
12.540197
12.09645
11.882388
11.811825
11.823963
11.874621
11.929209
11.960473
11.988772
12.068077
12.230596
12.415079
12.532095
12.503778
12.355064
12.243971
12.269076
12.465133
12.887749
13.323921
202.99942
67.072535
31.741069
21.327802
16.895892
14.621278
13.356894
12.650638
12.284884
12.124849
12.077418
12.073698
12.068025
12.035181
11.997991
12.007708
12.122119
12.355551
12.673758
12.852505
12.741328
12.397639
12.164933
12.116418
12.353031
12.867892
13.327717
200.74416
60.196973
30.101452
20.935058
16.877641
14.758837
13.597777
12.972882
12.658822
12.52083
12.466714
12.42905
12.364085
12.266132
12.174033
12.167818
12.313529
12.629491
13.046673
13.207574
12.973584
12.463992
12.127359
12.017304
12.250643
12.798894
13.263104
202.34561
57.536932
29.977381
21.173842
17.204226
15.132381
13.996638
13.390027
13.096302
12.977872
12.935877
12.895158
12.809816
12.684023
12.56456
12.534193
12.652277
12.942951
13.309087
13.411336
13.109721
12.518412
12.134542
11.999184
12.2285
12.774103
13.219473
204.97755
57.901048
30.627963
21.716421
17.659735
15.54994
14.418305
13.843594
13.596757
13.528486
13.532541
13.522291
13.441141
13.281403
13.087804
12.952624
12.936645
13.128624
13.437416
13.538817
13.242686
12.649959
12.249542
12.112814
12.359774
12.917275
13.337916
206.68167
58.515179
31.314257
22.239083
18.097652
15.965257
14.855442
14.334083
14.156251
14.151442
14.222677
14.245536
14.153264
13.926855
13.603748
13.27627
13.123056
13.205225
13.497883
13.618308
13.421432
12.911706
12.546282
12.425547
12.661949
13.160432
13.487822
206.02761
58.639949
31.960632
22.837233
18.630645
16.478964
15.392052
14.914134
14.780932
14.812278
14.928995
14.962514
14.850917
14.532256
14.069857
13.562692
13.275933
13.266704
13.531986
13.676082
13.576164
13.16688
12.820629
12.700392
12.894796
13.341865
13.617566
202.10584
58.642588
32.781143
23.548169
19.210584
17.027976
15.974393
15.539532
15.43183
15.492965
15.656985
15.722617
15.597795
15.220732
14.612679
13.933275
13.481518
13.386935
13.58341
13.756719
13.717988
13.406198
13.07685
12.954915
13.094538
13.476338
13.772371
196.64724
58.542151
33.309186
24.019323
19.618311
17.434551
16.421122
16.018925
15.921717
16.022974
16.268668
16.4151
16.345673
16.038735
15.40785
14.61078
13.929753
13.696581
13.760025
13.929554
13.974919
13.753724
13.502404
13.393429
13.486131
13.781179
14.145128
190.12796
58.988437
33.939943
24.490912
20.020919
17.840595
16.811527
16.372837
16.25201
16.366169
16.658612
16.91678
16.932607
16.760337
16.234081
15.489426
14.774846
14.436862
14.384315
14.539473
14.690498
14.65646
14.583112
14.57546
14.778312
15.186231
15.813056
185.71375
59.97739
34.676797
25.008084
20.431333
18.16657
17.067965
16.569345
16.401602
16.465958
16.780239
17.154453
17.325013
17.269273
16.884534
16.224515
15.497612
15.074274
14.999327
15.192436
15.590694
15.930824
16.187287
16.440889
16.757291
17.201612
17.85882
184.68442
60.681428
34.998519
25.460072
21.045666
18.767867
17.524854
16.929731
16.686747
16.629254
16.866642
17.229554
17.56526
17.663038
17.587168
17.156242
16.553809
16.064291
15.857988
15.930101
16.225921
16.623538
17.007521
17.405025
17.823214
18.220506
18.62666
184.457
61.899385
35.380707
25.798634
21.546526
19.414385
18.224761
17.535984
17.202395
17.092969
17.200402
17.493044
17.835674
18.094009
18.177313
18.038022
17.66081
17.208286
16.888426
16.825952
16.922388
17.150184
17.482303
17.861088
18.23696
18.570765
18.866022
183.62409
66.203178
36.784589
26.479781
22.0146
19.814701
18.67729
18.079766
17.798401
17.702391
17.757919
17.978225
18.293702
18.628063
18.895932
18.998674
18.964419
18.952287
18.988704
18.949435
18.804311
18.628321
18.516803
18.536346
18.64567
18.7544
18.857144
179.24223
70.164615
39.23416
28.383067
23.456419
21.001074
19.758233
19.157466
18.906225
18.860333
18.915936
19.036171
19.251176
19.604725
20.111449
20.818191
21.541544
22.015548
22.065621
21.805311
21.436732
21.061894
20.745781
20.470831
20.154628
19.71954
19.211992
156.52649
67.947271
39.301019
29.478983
25.348991
23.285089
22.162513
21.593259
21.364133
21.350474
21.404998
21.519808
21.792682
22.308373
23.021307
23.706832
23.931034
23.634924
22.894041
22.254979
21.863122
21.755358
21.899098
21.951075
21.729001
21.255163
20.316399
131.87204
48.887344
33.491947
27.827234
24.938139
23.4008
22.707972
22.450689
22.462263
22.636883
23.127401
23.728046
24.208908
24.437273
24.4358
24.137915
23.719075
22.980982
22.110487
21.539682
21.432117
21.662255
21.945716
22.103615
22.08238
21.807931
21.190556
122.74476
44.020753
29.915075
25.732531
24.025279
23.400577
23.175097
23.254503
23.55675
24.008636
24.564449
24.905314
24.792088
24.407046
23.83641
22.972209
21.681326
20.300932
19.432894
19.349873
19.881027
20.710191
21.257393
21.522637
21.588413
21.450431
21.178487
126.19881
51.660031
31.891661
26.598479
24.812381
24.350853
24.670676
25.971446
27.106531
27.613438
26.957886
25.411213
24.123387
22.719115
21.327717
19.938417
18.572823
17.402433
16.769101
16.89626
17.69103
18.962552
19.739533
20.054289
20.295446
20.693159
21.03878
126.49722
63.962375
38.670177
30.834096
28.136958
27.598592
28.028664
28.824472
29.073374
28.634914
26.940215
24.360293
21.923208
20.282412
19.089006
17.945844
16.741502
15.662265
15.08766
15.212049
15.924143
17.058568
17.778259
18.139411
18.583778
19.514329
20.603128
100.41948
56.170937
37.287461
30.497096
27.851856
27.072615
26.974019
26.945296
26.340164
24.798957
22.838104
21.043412
19.925078
19.136509
18.204137
16.947994
15.558261
14.453043
13.986992
14.154975
14.816359
15.569874
16.004706
16.264676
16.752165
17.903549
19.36199
89.292614
49.408791
33.066531
26.624753
23.641051
22.036661
20.951533
20.099175
19.469629
19.065522
18.795869
18.596461
18.326634
17.738972
16.69514
15.406687
14.295654
13.677699
13.577672
13.836477
14.278356
14.571898
14.638097
14.729755
15.165188
16.225218
17.518042
105.05162
48.240988
29.585153
22.770619
19.616803
18.013387
17.223905
16.868506
16.739565
16.723892
16.725499
16.636562
16.337461
15.734193
14.913611
14.17177
13.705892
13.556333
13.624061
13.755986
13.790451
13.706989
13.586022
13.607882
13.995034
14.841741
15.83632
109.74409
43.236628
26.130313
20.132764
17.398262
16.048755
15.419152
15.158403
15.046304