/*--------------------------------*- C++ -*----------------------------------*\
| =========                 |                                                 |
| \\      /  F ield         | OpenFOAM: The Open Source CFD Toolbox           |
|  \\    /   O peration     | Version:  2406                                  |
|   \\  /    A nd           | Website:  www.openfoam.com                      |
|    \\/     M anipulation  |                                                 |
\*---------------------------------------------------------------------------*/
FoamFile
{
    version     2.0;
    format      ascii;
    arch        "LSB;label=32;scalar=64";
    class       volScalarField;
    location    "25";
    object      omega;
}
// * * * * * * * * * * * * * * * * * * * * * * * * * * * * * * * * * * * * * //

dimensions      [0 0 -1 0 0 0 0];

internalField   nonuniform List<scalar> 
96472
(
3.8243031
2.9271321
2.4000202
2.0523281
1.7979639
1.6038903
1.4502291
1.3256842
1.2234677
1.140087
1.0714236
1.0149664
0.96646
0.92495685
0.8870232
0.85393108
0.82272549
0.79598106
0.77074635
0.74965043
0.72967634
0.71297008
0.69668752
0.68282946
0.66912842
0.65718482
0.64534372
0.63491184
0.62479125
0.6153181
0.60790823
0.60108152
0.59480567
0.58979966
0.58768593
0.58586256
0.58439054
0.58253544
0.58060637
0.57838864
0.57670731
0.57573193
0.57655108
0.57849603
0.58186774
0.58601085
0.5921502
0.59853888
0.60732054
0.61545433
0.62624855
0.63934649
0.65013346
0.66594895
0.69146724
3.8219596
2.9268271
2.4036187
2.0551642
1.8001781
1.6057765
1.4520383
1.3276653
1.2257412
1.1425913
1.0742567
1.0180927
0.96993026
0.92860096
0.89084345
0.8577027
0.8263025
0.79945372
0.77384003
0.75261432
0.73229861
0.7154974
0.69908208
0.6852595
0.67145773
0.65935597
0.64705721
0.63658659
0.62587708
0.61586296
0.60719487
0.59917919
0.59183516
0.58593417
0.58163347
0.57877668
0.57771817
0.57787395
0.57825916
0.57820845
0.57836115
0.57873986
0.57940766
0.58032348
0.58183772
0.58513081
0.58791835
0.59402347
0.59804787
0.60705556
0.61224372
0.62300806
0.63364662
0.64301542
0.66626039
3.8208037
2.9292769
2.4094986
2.0610661
1.8056104
1.6111585
1.4576369
1.3333034
1.2312296
1.1475592
1.0787529
1.0219318
0.97352982
0.93166096
0.8938404
0.86016407
0.82875677
0.80153102
0.77576974
0.75447823
0.73398135
0.71711135
0.70071689
0.68685868
0.67306405
0.66124761
0.64892859
0.63861611
0.62772719
0.61813022
0.60924785
0.60091675
0.59278772
0.58672768
0.58072928
0.57636823
0.57304252
0.5702057
0.57030567
0.57128146
0.57296
0.57573459
0.57743708
0.5799007
0.5813701
0.58487085
0.58696798
0.59242925
0.59520432
0.60170575
0.60709342
0.61258992
0.62233733
0.62869595
0.64522671
3.8211525
2.9332349
2.4145255
2.0664502
1.8112055
1.6170449
1.4637898
1.339389
1.2368297
1.1523987
1.08291
1.0254976
0.97681563
0.93460786
0.89681651
0.86276278
0.83164868
0.8037424
0.77841832
0.75638612
0.73611681
0.71904871
0.70261281
0.6887938
0.67493446
0.66344051
0.65065391
0.64099987
0.62940684
0.62051256
0.61083128
0.60296089
0.59481117
0.58852928
0.58168647
0.57748609
0.5725741
0.5699143
0.56759287
0.56643785
0.56651431
0.56775213
0.56947525
0.57390772
0.57629836
0.58163973
0.58411107
0.5893761
0.59314334
0.5975791
0.60425547
0.60829049
0.61661825
0.62144195
0.63317871
3.8221569
2.9373461
2.4189963
2.0714374
1.8165416
1.622703
1.4697563
1.345326
1.2423587
1.1572083
1.0870744
1.0290408
0.98004597
0.93747003
0.89967922
0.86534564
0.83426129
0.80609321
0.78081604
0.75838822
0.73830026
0.72073534
0.70463199
0.69052309
0.67680313
0.66516375
0.65252743
0.64291867
0.63103135
0.62266073
0.61233055
0.60494014
0.596158
0.59048066
0.58288738
0.57936398
0.57346786
0.57099837
0.56744608
0.56638077
0.56479142
0.56496037
0.56544198
0.56729679
0.56890144
0.5728365
0.57663161
0.5806897
0.58728311
0.59080951
0.59816931
0.60216424
0.61035156
0.61468641
0.62490861
3.8242198
2.9425879
2.4233564
2.076587
1.8226033
1.6294732
1.4769742
1.3524293
1.2487842
1.162603
1.0915355
1.03273
0.98329656
0.94038845
0.9024401
0.86793887
0.83679941
0.80839786
0.78311422
0.76038747
0.74038909
0.72252387
0.70651865
0.69220574
0.67874834
0.66673673
0.65457349
0.64461461
0.63276402
0.62463681
0.61387179
0.60657208
0.59750548
0.59193712
0.5840413
0.58020653
0.57413648
0.57202617
0.56783952
0.56660778
0.56445574
0.56425597
0.56431351
0.56489391
0.56623799
0.56784306
0.57122215
0.57368699
0.57906249
0.58227222
0.58904192
0.59285142
0.60059963
0.60492947
0.61483133
3.8258127
2.9466502
2.4279845
2.0831639
1.8309566
1.6386559
1.4860456
1.3605808
1.255588
1.1680821
1.0959319
1.0363356
0.98640793
0.94320975
0.90505879
0.87049202
0.8392378
0.81077598
0.78533403
0.76248218
0.74241132
0.72435463
0.70841484
0.69386238
0.68069134
0.66831342
0.65669051
0.64605226
0.63500193
0.62612418
0.61575659
0.60829077
0.59928414
0.59302082
0.58582452
0.58099297
0.57524849
0.57245759
0.56840675
0.56650374
0.56471397
0.56362436
0.56360415
0.56389827
0.56480405
0.56590471
0.56839246
0.57017537
0.57408132
0.57663442
0.58199833
0.58515004
0.59179017
0.59563322
0.60450823
3.8269124
2.9538433
2.4399946
2.0965295
1.8442191
1.6506406
1.4960915
1.368522
1.26179
1.1730295
1.0999739
1.0397219
0.98935651
0.94589719
0.90762494
0.87297219
0.84166099
0.81312498
0.78758287
0.76458662
0.74439689
0.72615569
0.71030635
0.69558306
0.6825039
0.66999087
0.65863976
0.64751396
0.63726565
0.62746103
0.61779946
0.60957449
0.60135248
0.59388622
0.58751185
0.58172125
0.5767275
0.57255787
0.56909773
0.56658141
0.56480379
0.56328771
0.5628657
0.56296824
0.56354228
0.56438835
0.56628902
0.56774161
0.57098593
0.57304794
0.57738158
0.5800306
0.58551153
0.588614
0.595844
3.8255579
2.9598319
2.45394
2.1098711
1.8555422
1.6599232
1.50352
1.3744331
1.266615
1.177071
1.1034394
1.0427606
0.99211335
0.94848317
0.91013272
0.875443
0.84405054
0.81546744
0.78982221
0.7667187
0.74640561
0.72806018
0.71205309
0.69738192
0.68421858
0.67172721
0.66049189
0.64908844
0.6392849
0.6289119
0.61999771
0.61084961
0.60326846
0.59527148
0.58905431
0.58263803
0.57820789
0.57300265
0.56986305
0.56679425
0.56477618
0.56328987
0.56222564
0.56212204
0.56237059
0.56292474
0.56445992
0.56573033
0.56843278
0.57014261
0.57390857
0.57609558
0.58070611
0.5834915
0.58951027
3.8216813
2.957555
2.4568873
2.1142133
1.8600235
1.6644085
1.5080997
1.3789695
1.2708916
1.180864
1.1067859
1.0457228
0.99483163
0.95107609
0.91263839
0.87791126
0.84648054
0.81781472
0.79207076
0.76883674
0.74839869
0.73000868
0.71382569
0.69912874
0.68595206
0.67344902
0.66225688
0.65082112
0.64107595
0.63052151
0.6218456
0.61239442
0.60491067
0.59668377
0.5906086
0.58377878
0.5792578
0.57377705
0.57077907
0.5671517
0.56491729
0.56314701
0.5619631
0.56137024
0.56146222
0.56181995
0.56285651
0.56386737
0.56610533
0.56762833
0.57087229
0.57278236
0.57692843
0.57909128
0.58431118
3.823629
2.9610687
2.4594334
2.1174693
1.8634726
1.6679159
1.5117479
1.3827479
1.2746442
1.1844109
1.1100127
1.0486391
0.99749682
0.95360265
0.91507889
0.88034021
0.84889749
0.82016453
0.7943374
0.77097974
0.75038598
0.73186419
0.71569096
0.70083724
0.68767071
0.67515181
0.6639414
0.65256596
0.64285383
0.63219753
0.62359125
0.61407301
0.60655628
0.5981909
0.5920232
0.58513766
0.5804965
0.57467598
0.57164564
0.56767174
0.56536666
0.56312503
0.561957
0.56080205
0.56075159
0.56090005
0.56156121
0.56233816
0.56420046
0.56545499
0.56814168
0.56989335
0.57343563
0.57542295
0.57979319
3.8283025
2.9709249
2.4652617
2.1224543
1.8680029
1.6722774
1.5160115
1.3868123
1.278432
1.1879235
1.1131924
1.0515286
1.0001339
0.95610701
0.91753175
0.88278421
0.85129878
0.82253503
0.79663684
0.77317441
0.75244081
0.73375863
0.71749714
0.70261122
0.68934725
0.67687606
0.66562963
0.65425753
0.64456687
0.6339204
0.62526793
0.61572841
0.6081851
0.59975271
0.59343953
0.58649761
0.58163627
0.57584645
0.5725316
0.56819088
0.56589522
0.5634283
0.56192528
0.56061244
0.56012935
0.56016755
0.56046503
0.56110603
0.56247016
0.56352149
0.56585937
0.5674027
0.57028255
0.57231947
0.57592374
3.833442
2.9776714
2.4642795
2.1218326
1.8685801
1.6736424
1.517993
1.3893039
1.2812424
1.1908689
1.1160979
1.0542683
1.0027166
0.9585764
0.91995895
0.88520593
0.85370607
0.82488896
0.79890186
0.77533808
0.75447644
0.73571171
0.71927285
0.70435874
0.69103829
0.67853031
0.66731573
0.6559391
0.64625526
0.63557418
0.62697114
0.61734622
0.60980893
0.60128446
0.59490636
0.58788487
0.58284511
0.57702135
0.57353459
0.56888698
0.5664791
0.5638614
0.56203035
0.56067188
0.55972998
0.559504
0.55967153
0.56002809
0.56110095
0.56197761
0.56392467
0.56512601
0.56786439
0.56937572
0.57258152
3.8357881
2.980916
2.4626379
2.120873
1.8690275
1.6748283
1.5196624
1.3914197
1.2838189
1.1935909
1.118782
1.056841
1.0052006
0.96100888
0.92237394
0.88762359
0.85615703
0.82729373
0.8012276
0.77755029
0.75655309
0.73764923
0.72116685
0.70609581
0.69276684
0.68020064
0.66894781
0.65764859
0.6479467
0.63724146
0.62864173
0.61896501
0.61139985
0.60280389
0.59638844
0.58934732
0.58411608
0.57827247
0.57453247
0.56974643
0.56726116
0.56429855
0.56237588
0.56065969
0.55971053
0.55898129
0.55902959
0.55919176
0.55991157
0.56054363
0.56218752
0.56313051
0.56549467
0.56676225
0.56973836
3.8367757
2.9854978
2.4639209
2.1193252
1.8659093
1.6716046
1.517425
1.3906179
1.2843001
1.1949377
1.1206174
1.0589312
1.0073983
0.96329447
0.92470622
0.89000731
0.85855794
0.82968531
0.80353297
0.77976828
0.75863015
0.73958399
0.72298041
0.70784313
0.69443282
0.68186763
0.67054939
0.65925229
0.64961586
0.63886237
0.63029833
0.6205594
0.61299834
0.60431971
0.59778811
0.59074877
0.58542959
0.57960663
0.57558963
0.57066464
0.5681361
0.56493372
0.56292349
0.56092768
0.55982734
0.55871756
0.55851448
0.5586652
0.55900968
0.55960926
0.56079254
0.56175028
0.56340931
0.56470893
0.56720128
3.8381167
2.9935131
2.4700329
2.1216283
1.8652086
1.6695512
1.515415
1.3894738
1.2842777
1.1959407
1.1222435
1.0608813
1.0094804
0.96549081
0.92699048
0.89237113
0.86092798
0.83206761
0.80585759
0.78202076
0.76078289
0.7416311
0.7248636
0.70965665
0.69617319
0.68356893
0.67224269
0.66091539
0.65125524
0.64050983
0.63195158
0.62214439
0.61459793
0.60588554
0.59925368
0.59215938
0.58674404
0.58092343
0.5767417
0.57172314
0.56904837
0.56560713
0.56348767
0.56134313
0.55999737
0.55868459
0.55814713
0.55807735
0.55829782
0.55869493
0.55957594
0.56028234
0.56157747
0.5627277
0.56485999
3.8363069
2.9951848
2.4746515
2.1252781
1.8672515
1.6703096
1.515345
1.3891196
1.284076
1.1962052
1.1230465
1.0621344
1.0111006
0.96738254
0.92908273
0.89457825
0.86321699
0.83436256
0.80810225
0.78418487
0.76283514
0.74358043
0.72673343
0.71139428
0.69787357
0.68520137
0.6738315
0.66256466
0.652877
0.64210988
0.6336001
0.62370225
0.61615851
0.60739888
0.60062634
0.59357529
0.58817481
0.58237106
0.57790625
0.57279911
0.5700837
0.56653591
0.56439052
0.56197581
0.56048368
0.55888044
0.55807611
0.55779714
0.55796244
0.55810824
0.55887014
0.5593676
0.56031158
0.56129078
0.56303593
3.8376086
3.0014908
2.4802742
2.1302125
1.8713634
1.6734053
1.5175422
1.3907739
1.2855791
1.1978144
1.1248219
1.0640314
1.0130832
0.96945025
0.9312281
0.89679145
0.86550474
0.83671077
0.81040801
0.78647986
0.76502897
0.74568734
0.72872272
0.71332921
0.6996941
0.68699868
0.67552421
0.66426485
0.65453767
0.64382159
0.63523357
0.62535738
0.61782472
0.60906041
0.60214465
0.59504245
0.58954078
0.58383477
0.57922562
0.57407886
0.57122629
0.567454
0.56520343
0.56260854
0.56099253
0.55917514
0.55812768
0.55766633
0.55763751
0.55779804
0.55810062
0.55847775
0.55913514
0.56001733
0.56138209
3.8389894
3.004761
2.4840065
2.1340922
1.8749035
1.6764038
1.5199889
1.39284
1.2874187
1.1995747
1.1265631
1.0658192
1.0148933
0.97134039
0.93321578
0.89886872
0.86763522
0.83888018
0.81258446
0.78862895
0.76711786
0.74773717
0.73064647
0.71520729
0.70153856
0.68884222
0.67732135
0.6661092
0.6563207
0.64575868
0.63700094
0.62727133
0.61963502
0.61084571
0.6036989
0.59677208
0.59125743
0.58558465
0.58062658
0.57530094
0.57252203
0.56898693
0.56665572
0.56382567
0.56191968
0.55977526
0.55848971
0.55789341
0.55787356
0.5578907
0.55800241
0.55813117
0.55867727
0.55927021
0.56019346
3.8427944
3.013306
2.4900468
2.1395058
1.8796479
1.6805034
1.5236367
1.3962396
1.2906641
1.2026934
1.1294334
1.0684241
1.0172324
0.97356594
0.93541589
0.90115958
0.87000984
0.8413903
0.81507346
0.79118506
0.76963699
0.75024295
0.73304613
0.71758041
0.7038935
0.69124801
0.67969961
0.66865261
0.65869125
0.64847242
0.6394281
0.63009961
0.62221586
0.61363998
0.60620711
0.59927713
0.59353098
0.58802224
0.58291027
0.57748159
0.57438368
0.57071876
0.56826939
0.56526292
0.56328502
0.56109464
0.55945209
0.55870137
0.55861068
0.55831268
0.55817361
0.55828043
0.55856377
0.55912752
0.55989671
3.8451054
3.0165189
2.4928508
2.1430877
1.8834017
1.683917
1.5266581
1.3991571
1.2935482
1.2055038
1.1320379
1.0708116
1.0194599
0.97579265
0.93782998
0.90382598
0.87302123
0.84460763
0.81861406
0.79468099
0.77316404
0.75383151
0.73654019
0.72121917
0.70768985
0.69530953
0.68393942
0.67363894
0.66369786
0.65404451
0.64475116
0.63640076
0.6282054
0.6197658
0.61179952
0.60518275
0.5996923
0.59407645
0.58788473
0.58218542
0.57892109
0.57547507
0.57262225
0.56942027
0.56716156
0.56450464
0.56223429
0.56131701
0.56124231
0.56108031
0.56056649
0.56043309
0.56033327
0.5608889
0.56094915
3.8482887
3.0239701
2.4983883
2.1486656
1.8887933
1.6891902
1.5319109
1.4051406
1.3001176
1.212284
1.138087
1.0761027
1.0241516
0.98051583
0.94307434
0.91022917
0.88068668
0.85330237
0.82843312
0.80474581
0.78328821
0.76389109
0.74636753
0.73131078
0.71825033
0.70644966
0.69581312
0.68734298
0.67848118
0.66969785
0.66085178
0.65467819
0.6468607
0.63855709
0.62992581
0.62328483
0.61812528
0.61248164
0.60430531
0.59713159
0.59257637
0.58843018
0.58464347
0.58086529
0.57835356
0.57513856
0.5718089
0.57004691
0.56959148
0.56922067
0.56845633
0.56769062
0.56773815
0.56799225
0.56758853
3.8497138
3.0269611
2.5011536
2.1538717
1.8976049
1.7013253
1.5467688
1.4253229
1.3244919
1.237774
1.1603349
1.0956512
1.0421749
0.99941473
0.96461333
0.93675015
0.91269522
0.8897848
0.86951282
0.84719694
0.82558211
0.80477847
0.78585012
0.770209
0.75795607
0.74716228
0.73811103
0.73381857
0.73057838
0.72411471
0.71757968
0.71476875
0.71134257
0.70385697
0.69417095
0.6883433
0.68575733
0.68142354
0.66886714
0.65283826
0.6425059
0.6349401
0.62696059
0.62003091
0.61498953
0.60843644
0.60168966
0.59845232
0.59758368
0.59671323
0.59420288
0.59280069
0.59171918
0.59087408
0.58827283
3.8566236
3.054225
2.5309731
2.1983285
1.9603103
1.7841983
1.6457117
1.5499779
1.4696679
1.3832126
1.2862103
1.2063899
1.1443038
1.1009034
1.0736752
1.0638776
1.06345
1.0621804
1.0584682
1.0482905
1.029424
1.0035232
0.98027312
0.95889863
0.94585179
0.93899416
0.93437947
0.93450113
0.94665912
0.96115677
0.96834474
0.98386577
0.9917372
0.99570075
0.99200486
0.98803506
0.99159204
0.99757656
0.99360492
0.97052907
0.9284743
0.90385634
0.87683832
0.85287428
0.83970314
0.82005028
0.78750378
0.76358344
0.75520541
0.74970338
0.73841171
0.73139173
0.72633015
0.72380649
0.7115072
3.9279989
3.2921344
2.7696554
2.4872979
2.2868013
2.1733994
2.0472576
1.9982822
1.977184
1.9197413
1.799783
1.6973211
1.6426741
1.6326263
1.6404412
1.6788945
1.7579575
1.8186327
1.8637567
1.8911666
1.9006101
1.8957452
1.876276
1.8384619
1.8205013
1.8098254
1.7956104
1.7933896
1.8232238
1.8784548
1.8958045
1.9206348
1.9320486
1.9628304
1.9717678
1.9742028
2.0046865
2.0591327
2.0615333
2.0356227
1.9492013
1.9087909
1.8676215
1.82424
1.8087827
1.7920702
1.7333901
1.6294498
1.5883801
1.5713796
1.5365409
1.4983346
1.4793196
1.4716743
1.4403953
5.2557263
4.6829552
3.9183294
3.6242291
3.4790026
3.4514999
3.4757784
3.5833723
3.7664085
3.8514312
3.8358297
3.7648357
3.731543
3.7379489
3.767573
3.8417498
3.931872
3.9946501
4.0608789
4.1465183
4.216349
4.2394481
4.2548507
4.2399479
4.2363267
4.2250541
4.1646
4.114713
4.1687373
4.1700619
4.1951427
4.2210405
4.2001869
4.2767987
4.2244151
4.1877674
4.2946138
4.5283389
4.5256654
4.4348515
4.2282004
4.2129396
4.1841452
4.1696176
4.1861515
4.2375618
4.1727772
4.0055288
3.9494011
3.9446142
3.9206538
3.8405626
3.8047098
3.7827083
3.7206204
11.395278
12.253263
12.189024
12.309068
12.306057
12.305781
12.250712
12.229126
12.24762
12.280426
12.316198
12.331118
12.330417
12.297908
12.269317
12.240217
12.218297
12.20545
12.19932
12.199844
12.211083
12.229589
12.255652
12.286582
12.313004
12.339318
12.357832
12.367498
12.368548
12.383061
12.387012
12.401279
12.39991
12.404767
12.416782
12.40436
12.394546
12.408019
12.42222
12.447858
12.460132
12.457717
12.472676
12.468259
12.465145
12.472531
12.50349
12.475349
12.482209
12.45154
12.460202
12.435692
12.407205
12.413374
12.370746
12.747057
3.9195703
1.4915942
0.72701501
0.59113792
0.56931476
0.56206961
0.56120729
0.56165161
0.56317926
0.56497919
0.56695534
0.56919947
0.57171675
0.57477671
0.57822193
0.58228398
0.58673093
0.59209384
0.59873099
0.60738445
0.61819147
0.62839692
0.63724664
0.6501856
0.67049525
0.69286072
13.473591
4.0103586
1.5467863
0.75249489
0.60168532
0.57328989
0.56438725
0.56292482
0.56323928
0.56479618
0.56680288
0.56908557
0.57174321
0.57449875
0.57773295
0.58126005
0.58526973
0.58987738
0.59508924
0.60150216
0.6099818
0.62070197
0.63166562
0.64060466
0.65217443
0.67209465
0.69376187
14.199536
4.419503
1.696918
0.80831991
0.61650796
0.57997159
0.56868187
0.56589868
0.5657987
0.56678004
0.56861321
0.57082924
0.57347191
0.576515
0.57991452
0.58384377
0.58808601
0.59269263
0.59809639
0.60436331
0.61249708
0.62343672
0.63517918
0.64443403
0.65499686
0.67596909
0.6966459
15.039617
4.9952577
1.846718
0.84551608
0.62420884
0.58389214
0.57135423
0.56826766
0.56840577
0.56970023
0.57183055
0.5741643
0.57671179
0.5796502
0.58314127
0.58698652
0.59140797
0.59615345
0.60160705
0.60795166
0.61567352
0.62610611
0.63870543
0.6490038
0.65876011
0.67970732
0.70098511
15.987011
4.9302735
1.8762631
0.86160973
0.63033419
0.58758884
0.57437869
0.57113279
0.57145449
0.57278737
0.57515897
0.57764757
0.5805347
0.58359184
0.58726278
0.59115314
0.59559493
0.60049405
0.60590533
0.61218466
0.61986172
0.62994682
0.64270388
0.65409104
0.66317857
0.68276298
0.70498587
16.927835
4.8025856
1.9143295
0.89311511
0.64453744
0.59632246
0.58165317
0.5769184
0.57633882
0.57714784
0.5790585
0.58126023
0.5839936
0.58701059
0.5905523
0.59466538
0.59923464
0.60441864
0.6102343
0.61657056
0.62432651
0.63441468
0.64740217
0.65990792
0.66876939
0.68685585
0.7091969
17.915022
5.0811185
2.0619435
0.98574023
0.67683018
0.61089381
0.59100394
0.58270387
0.5805509
0.58084342
0.58245937
0.5850565
0.58811271
0.59132409
0.59479479
0.5987928
0.60320489
0.60836277
0.61418756
0.62073186
0.6282346
0.63817625
0.65143421
0.66573474
0.67428655
0.69156325
0.71390623
18.987575
6.0715507
2.3565754
1.0778106
0.69760814
0.62003994
0.59600422
0.58594213
0.58291354
0.58295483
0.58458283
0.58778199
0.59135416
0.59523106
0.59925008
0.60361611
0.60838334
0.61358637
0.61939761
0.62586837
0.63300579
0.64232321
0.6548499
0.67072924
0.67976528
0.69532577
0.7183248
20.227876
6.2432114
2.4172344
1.1003971
0.70338768
0.62299793
0.5983829
0.58843733
0.58561809
0.58583036
0.58801887
0.59140367
0.59482986
0.59883507
0.60317322
0.60784404
0.61307285
0.61862561
0.62483239
0.63148832
0.63880629
0.64744352
0.65938852
0.67570567
0.68602583
0.69893444
0.72208195
21.52353
5.9813895
2.3983078
1.1094213
0.70902438
0.62633961
0.60246868
0.59353448
0.59169532
0.59248835
0.5951366
0.59833336
0.60131679
0.60457529
0.60824034
0.61234038
0.6172625
0.62275087
0.62912549
0.63602572
0.64382941
0.65233321
0.66398493
0.6805962
0.69224589
0.70356407
0.72606906
22.85092
5.8605599
2.4066612
1.1353779
0.72448094
0.63494248
0.61367838
0.60546223
0.602106
0.60197972
0.60334395
0.60589214
0.60856154
0.61140224
0.61468861
0.61834203
0.6227415
0.62778096
0.63394517
0.64081054
0.64843361
0.65717441
0.66767471
0.68474144
0.69757722
0.70858666
0.73012896
24.302648
5.9563963
2.469414
1.2208338
0.76725232
0.65757845
0.62934803
0.61581405
0.61036107
0.6085425
0.60905458
0.61094051
0.61349839
0.61662026
0.6203434
0.62450275
0.62908946
0.63425366
0.6400465
0.64687199
0.65406703
0.6627767
0.6724861
0.68892723
0.70312403
0.71363564
0.73446278
25.886756
6.3413306
2.6710398
1.3386206
0.80670508
0.67721858
0.63803681
0.62342385
0.61510903
0.61232737
0.61253973
0.61429731
0.61734969
0.62105083
0.62528885
0.62998215
0.63518848
0.64093726
0.64704565
0.65422032
0.66156224
0.66972838
0.67896253
0.6944003
0.70964343
0.7196095
0.73942559
27.602295
7.072442
2.9202465
1.4420159
0.84376453
0.69096403
0.64752384
0.63266272
0.62169113
0.61886235
0.61858853
0.62007098
0.62356974
0.62737622
0.6316062
0.63620528
0.64127345
0.64697452
0.65314612
0.66043724
0.66824134
0.67673417
0.68505971
0.70044415
0.71658244
0.72648544
0.74498507
29.445162
7.7280337
3.1514843
1.5557487
0.89425693
0.70953141
0.66170586
0.64481434
0.63377365
0.62937301
0.6286395
0.62963727
0.63268047
0.63618804
0.64000054
0.64427681
0.64888351
0.65424703
0.66008802
0.66689371
0.67460143
0.68320616
0.69093792
0.70573657
0.72350714
0.7332375
0.75016929
31.417665
8.2855396
3.3618102
1.6724828
0.95367812
0.73242267
0.67781612
0.65821092
0.64534805
0.63843439
0.63660193
0.63697763
0.63914622
0.64236026
0.64583463
0.64986487
0.65440781
0.65997327
0.66605288
0.67316973
0.68116058
0.69015941
0.69723127
0.71158069
0.73015963
0.74041583
0.75571827
33.5178
8.703778
3.5259329
1.7729536
1.0073928
0.75439932
0.69328778
0.67035709
0.65509276
0.64612882
0.64229255
0.64207324
0.64332884
0.64615108
0.6495646
0.65361256
0.6583693
0.66384763
0.67005214
0.67726869
0.68563964
0.69540484
0.70239261
0.71522511
0.7357173
0.74746601
0.76133873
35.749801
8.9848549
3.6326288
1.8433196
1.0457076
0.77094287
0.7053964
0.68029243
0.66446546
0.65398507
0.64859626
0.64748714
0.64818281
0.65085172
0.65443246
0.65859661
0.663465
0.66883079
0.67498094
0.68181938
0.69003761
0.69993446
0.70719053
0.71751865
0.73866757
0.75210653
0.7657665
38.10874
9.1962331
3.6960664
1.8866002
1.0699478
0.78177251
0.71427028
0.68878318
0.67398541
0.66282143
0.65665158
0.65482757
0.65525678
0.65767506
0.66132883
0.66529141
0.66997691
0.67532086
0.68143963
0.68811261
0.6957479
0.70555608
0.71280326
0.72129375
0.74059918
0.75573312
0.76978377
40.637818
9.3657853
3.7380369
1.9164375
1.0888529
0.79116461
0.72180115
0.69717658
0.68285689
0.67224255
0.6653208
0.66291986
0.66308657
0.66509345
0.66857168
0.67233058
0.67681877
0.68190819
0.68799273
0.69457894
0.70188269
0.71163634
0.71918312
0.72638728
0.74308193
0.75940994
0.77470339
43.271186
9.5863256
3.7835688
1.9518955
1.1151655
0.80615256
0.73229211
0.70656801
0.69276046
0.6826928
0.67517128
0.67244443
0.67201999
0.67348766
0.67665793
0.68024733
0.68445821
0.68913655
0.69494927
0.70089407
0.70782419
0.71732806
0.72580193
0.73218426
0.74659393
0.76282264
0.77973266
45.985001
9.8314537
3.8462851
2.0102074
1.1637784
0.83195686
0.74645072
0.71850271
0.70405769
0.69323681
0.6852892
0.6812475
0.68062251
0.6814495
0.68437454
0.6880735
0.69213113
0.69660095
0.70206846
0.70754709
0.71337942
0.72240024
0.73133951
0.7373676
0.74991742
0.76539462
0.78372298
48.978389
10.241091
3.9610303
2.1130945
1.2371135
0.86655939
0.76565781
0.73341641
0.71728487
0.70553327
0.6955642
0.68999729
0.6880734
0.68845465
0.69059256
0.69433314
0.69844866
0.70280068
0.70828668
0.71377613
0.71903895
0.72736149
0.73665297
0.74222445
0.75318006
0.76687342
0.786223
51.9956
10.767041
4.1589308
2.2260854
1.3126597
0.90399559
0.78600619
0.74826269
0.73067845
0.71753
0.7060722
0.69864698
0.69543579
0.69528758
0.69660868
0.69997274
0.70394326
0.70817519
0.71364906
0.71938961
0.72480315
0.73266989
0.74282404
0.74839639
0.7585904
0.77010776
0.78905301
55.097178
11.32341
4.3774412
2.3355006
1.3822682
0.93937268
0.80351659
0.76088953
0.74115057
0.72724041
0.71460147
0.70561951
0.70125896
0.70040114
0.70116739
0.70416409
0.70827347
0.71266338
0.71824777
0.72431365
0.73004407
0.73749293
0.74846732
0.7546127
0.76465599
0.77416169
0.7924527
58.264043
11.732692
4.5345751
2.4150562
1.4327071
0.96513156
0.81534185
0.76849545
0.74664655
0.73296013
0.72014629
0.71086729
0.70581601
0.70462104
0.70533263
0.70814203
0.71244663
0.71715915
0.72260242
0.72898065
0.73479876
0.74170775
0.75304681
0.75988349
0.76998532
0.77829609
0.79526401
61.481662
12.379683
4.7032078
2.4860323
1.472807
0.98496885
0.82273664
0.77231928
0.74959967
0.73594355
0.72448843
0.71523723
0.70982986
0.70820785
0.70871973
0.71132666
0.71586023
0.72074411
0.72611589
0.73270784
0.73887173
0.74542797
0.75676186
0.76447218
0.77470074
0.7820393
0.7968981
64.707119
12.815359
4.7945801
2.522991
1.4952728
0.99650509
0.82668211
0.77457553
0.75126901
0.73777643
0.72655773
0.71741367
0.71171378
0.7098414
0.71009495
0.71249457
0.71714313
0.72205323
0.72737539
0.73395713
0.74055444
0.74672676
0.75793498
0.76600537
0.7764722
0.78315533
0.79711953
67.933974
13.506072
4.9167352
2.5649724
1.5188008
1.0085028
0.83127866
0.77824621
0.75431248
0.74145786
0.72991309
0.72044438
0.71380459
0.71113557
0.71102644
0.7129478
0.71726951
0.72207416
0.72726476
0.733835
0.74045977
0.74654036
0.75760501
0.76578132
0.77691284
0.7838881
0.79699048
71.089819
13.974151
5.0027586
2.5986378
1.5454409
1.0238541
0.83789481
0.78512197
0.76102379
0.74850241
0.73641925
0.7261675
0.71786199
0.71369495
0.71289748
0.714024
0.7176978
0.72234202
0.72731548
0.73376797
0.74056602
0.74647111
0.75761829
0.76622825
0.77793347
0.78479143
0.79683861
74.188312
14.735661
5.1250606
2.647178
1.5916287
1.0512186
0.85170369
0.79482865
0.77043391
0.75661471
0.74489245
0.73394172
0.72487011
0.71954979
0.71769723
0.71780061
0.72002273
0.72457368
0.72907575
0.73547227
0.74255036
0.74814499
0.75867419
0.76663718
0.77793737
0.78461892
0.79632423
77.107604
15.266552
5.2774108
2.7319538
1.6618037
1.1006717
0.87328385
0.80465518
0.77763162
0.76285791
0.75176273
0.7412038
0.73196819
0.72586527
0.72312497
0.72281078
0.72418804
0.72797347
0.73194022
0.7375469
0.7440729
0.74888005
0.75849967
0.76614609
0.77729801
0.78391691
0.79539196
79.866048
16.143205
5.4753782
2.8060117
1.7119028
1.1337213
0.88737039
0.80944518
0.77969886
0.76433421
0.75351237
0.74340281
0.73427714
0.72773658
0.72446549
0.72383755
0.72487514
0.72828948
0.7320621
0.7374429
0.74384867
0.74852257
0.75787599
0.76538014
0.77626879
0.78286403
0.79404918
82.36889
16.556103
5.5783459
2.8464229
1.7382392
1.1514698
0.89369132
0.8108597
0.77988092
0.76427544
0.75334677
0.74324422
0.73406497
0.72742362
0.72401023
0.72333097
0.72427526
0.72764115
0.73135099
0.73668158
0.74301009
0.74763123
0.75669384
0.76402104
0.77439328
0.78096028
0.79197639
84.577645
17.154469
5.6664418
2.8663732
1.7484292
1.1573193
0.89460066
0.81011602
0.77853159
0.76257227
0.75136352
0.74128752
0.73202401
0.72539289
0.72182027
0.72116499
0.72210839
0.72557324
0.7292915
0.73471089
0.74094
0.74571448
0.75458455
0.76201573
0.77224589
0.77903062
0.79017138
86.514687
17.088648
5.6689159
2.8651528
1.7462828
1.1557537
0.89050669
0.80453985
0.77248823
0.7560487
0.74479842
0.73510942
0.72665196
0.7206305
0.71762478
0.71740784
0.71875632
0.72275179
0.7268531
0.73265867
0.73919874
0.74444056
0.75333566
0.76101099
0.77119108
0.77802785
0.78936902
88.147696
17.100087
5.677036
2.8643273
1.7467117
1.1556664
0.88889473
0.79911617
0.76590503
0.74980527
0.73923977
0.73041361
0.72295932
0.71749828
0.71497943
0.71498768
0.71666598
0.72101232
0.72542206
0.73140029
0.73807501
0.74361291
0.75241396
0.76024645
0.77043728
0.77724802
0.78900106
89.374599
17.492293
5.7354443
2.8856247
1.7590698
1.1624247
0.89075365
0.79732431
0.76276385
0.74673963
0.73680892
0.72871552
0.72168702
0.71646061
0.71397312
0.71390827
0.71561432
0.71985774
0.72418898
0.73016328
0.7369146
0.7428245
0.75156398
0.759586
0.76985265
0.77665129
0.78866182
90.186723
17.944887
5.8485559
2.9429831
1.7989468
1.1847338
0.89672186
0.79765161
0.76213276
0.74585466
0.73612441
0.72815074
0.7211489
0.71579315
0.71293284
0.71254403
0.71400427
0.71805582
0.72272072
0.72899148
0.7359359
0.7421048
0.75085809
0.75900239
0.76946554
0.77620419
0.78827428
90.545435
18.586378
6.028387
3.0195186
1.8443432
1.2141206
0.90818679
0.79857808
0.76177497
0.74504277
0.73530964
0.72717673
0.71997352
0.71429224
0.71119327
0.71079204
0.7123688
0.7167006
0.72166276
0.72808357
0.73507335
0.74142334
0.7502051
0.75842143
0.76899127
0.7758392
0.78788407
90.362481
20.041346
6.3379128
3.1020858
1.877338
1.2314902
0.9161179
0.79948486
0.75990966
0.74275087
0.73303925
0.724901
0.71775072
0.7120747
0.7091932
0.70895249
0.71096917
0.71544708
0.72059433
0.72698619
0.73406242
0.74059304
0.74948705
0.75776861
0.76845083
0.77554196
0.78758372
89.662492
21.629027
7.0132947
3.2519388
1.9271705
1.2543105
0.92435887
0.79993529
0.75834322
0.74084897
0.73114561
0.72292637
0.71586211
0.71018027
0.70755792
0.70740635
0.70940765
0.71373097
0.71884718
0.72546798
0.73253876
0.739581
0.74850563
0.75714348
0.76778984
0.77533561
0.78729504
88.484274
21.981916
7.7005397
3.5454642
2.0335157
1.2958204
0.93571538
0.80049624
0.75749067
0.73958062
0.72969239
0.72147894
0.71442766
0.70871992
0.70616691
0.70585336
0.70755653
0.71140355
0.71646478
0.72292201
0.73014843
0.73778287
0.74705504
0.7563362
0.76705486
0.77526154
0.78713086
86.898581
21.870236
7.9467033
3.7237258
2.1030304
1.3179271
0.94097248
0.80025911
0.75549211
0.73696526
0.72681656
0.71861019
0.71168419
0.70587169
0.70341523
0.70293164
0.70459526
0.70851001
0.71359649
0.72020741
0.72751687
0.7353613
0.7448302
0.75507812
0.76613556
0.77541383
0.78749944
84.971841
21.019625
7.957801
3.7646205
2.1153619
1.3192113
0.93946375
0.7950986
0.7489148
0.72971735
0.71945926
0.71157431
0.70501689
0.69988928
0.69807858
0.69807084
0.70033497
0.7051294
0.71061412
0.71772094
0.72515259
0.73334328
0.74311973
0.75381471
0.76524227
0.77542921
0.78742165
82.753838
19.73288
7.7827815
3.7390438
2.091505
1.2944122
0.92244142
0.78302418
0.73805252
0.7196488
0.70997465
0.70289602
0.69681444
0.69299874
0.69180947
0.69259876
0.69603314
0.70158203
0.70800687
0.71546882
0.72372411
0.73232162
0.74280358
0.75341975
0.76506917
0.77566584
0.78820702
80.29042
18.701628
7.3695114
3.6608749
2.0512983
1.2628268
0.90483197
0.77297295
0.72959622
0.71170491
0.7028616