/*--------------------------------*- C++ -*----------------------------------*\
| =========                 |                                                 |
| \\      /  F ield         | OpenFOAM: The Open Source CFD Toolbox           |
|  \\    /   O peration     | Version:  2406                                  |
|   \\  /    A nd           | Website:  www.openfoam.com                      |
|    \\/     M anipulation  |                                                 |
\*---------------------------------------------------------------------------*/
FoamFile
{
    version     2.0;
    format      ascii;
    arch        "LSB;label=32;scalar=64";
    class       volScalarField;
    location    "25";
    object      omega_0;
}
// * * * * * * * * * * * * * * * * * * * * * * * * * * * * * * * * * * * * * //

dimensions      [0 0 -1 0 0 0 0];

internalField   nonuniform List<scalar> 
96472
(
3.8242838
2.9271287
2.4000776
2.0523753
1.7979983
1.6039197
1.4502569
1.3257105
1.2234924
1.1401138
1.0714497
1.0149908
0.96647861
0.92497216
0.88703739
0.85394373
0.82273667
0.79599641
0.77076328
0.74966702
0.72968948
0.71298353
0.69670469
0.68284507
0.6691384
0.65719252
0.64535164
0.63491971
0.62479773
0.61532437
0.60791399
0.60108493
0.59480831
0.58980381
0.58769322
0.58586763
0.58439441
0.58253744
0.58060702
0.57839061
0.57670163
0.5757371
0.57654579
0.57849245
0.5818766
0.58600559
0.59214188
0.59853148
0.60732
0.61544326
0.62623373
0.63933887
0.65013546
0.66593699
0.69147175
3.8219383
2.9268243
2.4036782
2.0552113
1.8002136
1.6058073
1.4520669
1.3276912
1.2257671
1.1426158
1.0742821
1.0181155
0.96995099
0.9286172
0.89085741
0.85771424
0.82631348
0.79946467
0.77385117
0.75262874
0.73231465
0.71551074
0.6990949
0.6852751
0.67147195
0.65936545
0.64706371
0.63659231
0.62588089
0.61586841
0.60720095
0.59918388
0.59184006
0.58594043
0.58164
0.57878393
0.57772586
0.57788096
0.57826453
0.57821097
0.57836972
0.57873996
0.57941076
0.58032627
0.5818369
0.58513355
0.58791935
0.59402758
0.5980483
0.60704565
0.61224082
0.62300354
0.63363836
0.64302243
0.66624438
3.8207816
2.9292746
2.4095554
2.0611117
1.8056458
1.6111902
1.4576663
1.3333305
1.2312558
1.1475845
1.0787785
1.0219543
0.97355037
0.93167775
0.89385241
0.86017583
0.8287702
0.80154292
0.77578101
0.75448953
0.73399471
0.717128
0.70073077
0.6868712
0.67307778
0.66126081
0.64893902
0.63862216
0.62772982
0.6181326
0.609251
0.60091873
0.59279083
0.58673174
0.5807327
0.5763736
0.5730462
0.57021113
0.5703122
0.57129018
0.57296154
0.57574239
0.57743931
0.57990188
0.58137474
0.58487261
0.58696992
0.59242994
0.59520137
0.60171183
0.60709947
0.61258957
0.6223351
0.62869529
0.64523514
3.8211334
2.933231
2.4145809
2.0664954
1.8112417
1.6170773
1.46382
1.3394172
1.2368536
1.152425
1.0829349
1.0255226
0.9768346
0.93462406
0.89683053
0.86277448
0.8316589
0.80375432
0.77843267
0.75639935
0.73612828
0.71906227
0.70262986
0.68880857
0.67494603
0.66345015
0.6506634
0.64100808
0.62941261
0.62051717
0.61083445
0.60296421
0.59481463
0.58853177
0.58169021
0.57748959
0.57257706
0.56992071
0.56759744
0.5664417
0.56652213
0.56775588
0.56948008
0.57391503
0.576298
0.58164239
0.58411621
0.58937877
0.5931498
0.59758232
0.60424885
0.60828485
0.61663383
0.62143747
0.63319645
3.8221399
2.9373412
2.41905
2.0714812
1.8165778
1.6227361
1.4697872
1.345354
1.2423838
1.1572326
1.0870995
1.0290653
0.98006751
0.93748745
0.89969336
0.86535697
0.8342695
0.80610299
0.78082687
0.7584025
0.73831539
0.72074807
0.70464563
0.69053942
0.67681845
0.66517422
0.65253576
0.64292482
0.63103685
0.62266639
0.61233509
0.60494391
0.5961616
0.59048293
0.58289099
0.57936786
0.57347164
0.57100173
0.56745154
0.56638682
0.56479561
0.56496488
0.56545007
0.56729692
0.56890978
0.57284399
0.57663012
0.58069438
0.58728197
0.59080515
0.59817507
0.60217658
0.61034547
0.61468084
0.62489016
3.8242053
2.942579
2.4234081
2.0766316
1.8226406
1.6295076
1.4770065
1.3524568
1.2488095
1.1626256
1.0915594
1.0327517
0.98331881
0.94040714
0.90245518
0.86795089
0.83681131
0.80840759
0.78312224
0.76039727
0.74040322
0.72253993
0.7065324
0.69221895
0.67876287
0.66675032
0.654585
0.64462189
0.63276897
0.62464043
0.6138744
0.60657503
0.59750909
0.59193985
0.58404444
0.58020931
0.57413989
0.57203166
0.56784303
0.56661216
0.56445992
0.56426515
0.56431567
0.56490479
0.56624363
0.56784273
0.57123228
0.57369387
0.5790689
0.58228157
0.58904556
0.59284641
0.60058614
0.60494309
0.61484654
3.8257993
2.9466364
2.4280368
2.083211
1.8309958
1.6386915
1.4860775
1.3606083
1.2556115
1.1681048
1.0959551
1.0363591
0.98642881
0.94322822
0.90507245
0.87050267
0.83924807
0.81078561
0.78534586
0.76249312
0.74242149
0.72436835
0.70843143
0.69387685
0.68070351
0.66832511
0.65670188
0.64606087
0.6350087
0.62612811
0.61575992
0.6082941
0.59928728
0.5930239
0.58582793
0.58099537
0.57525341
0.57246047
0.56841068
0.56650834
0.56472161
0.5636264
0.56361345
0.56390269
0.56480819
0.5659189
0.56839855
0.57018003
0.57408476
0.57664051
0.58199845
0.5851577
0.59181204
0.59563237
0.60450129
3.8268978
2.9538287
2.4400469
2.0965754
1.8442586
1.650675
1.4961223
1.3685489
1.2618112
1.1730521
1.0999968
1.0397462
0.98937771
0.94591517
0.90764042
0.87298432
0.84166889
0.81313428
0.7875938
0.76460003
0.74441011
0.72616777
0.71032092
0.69559938
0.6825187
0.6700022
0.65864881
0.64752155
0.63727311
0.62746653
0.61780414
0.60957882
0.60135502
0.59388931
0.587515
0.58172376
0.57673075
0.57256174
0.56910149
0.56658835
0.56480616
0.56329698
0.56287054
0.56297413
0.56355334
0.5643913
0.56629385
0.56774849
0.57100134
0.57305462
0.57739318
0.58003885
0.58550829
0.5886183
0.59584365
3.8255381
2.9598176
2.453989
2.1099138
1.8555783
1.6599558
1.5035501
1.3744587
1.2666372
1.1770908
1.1034605
1.0427826
0.99213628
0.94850309
0.91014936
0.8754558
0.84405992
0.81547534
0.78982888
0.76672791
0.74641956
0.72807506
0.71206583
0.69739606
0.68423383
0.67174176
0.66050311
0.64909728
0.63929084
0.62891621
0.62000155
0.61085297
0.60327116
0.59527373
0.58905706
0.58264204
0.57821024
0.57300493
0.56986931
0.56679646
0.56478342
0.56329386
0.56223227
0.56213033
0.56237535
0.5629329
0.56447088
0.56574406
0.56843192
0.57014625
0.57392101
0.57609532
0.58071974
0.5834958
0.58954253
3.8216579
2.9575434
2.4569355
2.1142534
1.8600581
1.664441
1.5081304
1.3789955
1.2709146
1.1808839
1.1068083
1.0457447
0.9948545
0.951097
0.91265431
0.87792231
0.84649162
0.81782353
0.79207948
0.76884558
0.74840855
0.73002284
0.71384199
0.69914238
0.68596441
0.67346138
0.66226843
0.65083153
0.64108325
0.63052642
0.62184891
0.61239709
0.60491324
0.59668676
0.59061104
0.58378101
0.57926137
0.57378005
0.57078226
0.56715693
0.56492207
0.56315187
0.56196887
0.56137731
0.56146945
0.56182874
0.56286516
0.56386743
0.56612017
0.56764716
0.57087274
0.57279636
0.57694668
0.57908891
0.5843026
3.8236098
2.9610563
2.4594808
2.1175085
1.8635065
1.6679486
1.5117788
1.3827754
1.2746661
1.1844316
1.1100332
1.0486626
0.99751814
0.95362151
0.91509444
0.88035193
0.84890585
0.82017293
0.79434771
0.77099176
0.75039735
0.7318755
0.71570515
0.70085356
0.68768528
0.67516421
0.66395157
0.65257517
0.64286145
0.63220345
0.62359606
0.6140769
0.60655914
0.5981935
0.59202604
0.58514081
0.58049758
0.5746793
0.57165033
0.56767463
0.56537135
0.56313145
0.56196465
0.56080695
0.56076028
0.5609068
0.56156874
0.56235434
0.56420886
0.56545754
0.56815029
0.56991564
0.57341123
0.57546287
0.5797961
3.8282896
2.9709065
2.4653046
2.122491
1.8680356
1.6723095
1.5160424
1.3868404
1.2784537
1.1879439
1.1132133
1.051552
1.0001572
0.9561283
0.91755005
0.88279884
0.85130755
0.82254194
0.7966437
0.77318385
0.75245426
0.73377236
0.71750995
0.70262487
0.68936236
0.67689062
0.66564101
0.65426692
0.6445739
0.63392668
0.62527284
0.61573167
0.60818763
0.5997547
0.59344118
0.58650036
0.58163815
0.57584907
0.57253514
0.56819356
0.56590057
0.56343417
0.56192725
0.5606214
0.5601356
0.56017737
0.56047257
0.56111531
0.56247681
0.5635328
0.56587677
0.5674043
0.57030903
0.57232227
0.57593014
3.8334361
2.9776438
2.4643188
2.1218694
1.8686133
1.6736746
1.518025
1.389332
1.2812662
1.1908883
1.1161184
1.0542896
1.0027398
0.95859765
0.91997635
0.88521801
0.85371621
0.82489717
0.79890868
0.77534528
0.75448603
0.73572586
0.71928761
0.70437242
0.69105119
0.67854339
0.66732789
0.65595056
0.64626385
0.63557974
0.62697478
0.6173493
0.60981106
0.60128606
0.59490917
0.58788634
0.58284715
0.57702379
0.57353655
0.56888979
0.56648509
0.56386312
0.56203913
0.56067631
0.55973931
0.55950897
0.5596867
0.56002956
0.56111889
0.56198459
0.56394139
0.56511714
0.56790172
0.56935594
0.57260787
3.8357829
2.9808796
2.4626754
2.1209108
1.8690611
1.6748612
1.5196954
1.3914492
1.2838444
1.1936115
1.118803
1.0568625
1.0052236
0.9610308
0.92239151
0.8876356
0.85616723
0.82730174
0.8012366
0.77756034
0.75656313
0.7376601
0.72118129
0.7061112
0.69278085
0.68021291
0.66895822
0.65765851
0.64795395
0.63724813
0.62864685
0.61896826
0.61140232
0.60280587
0.59639021
0.58934975
0.58411758
0.57827545
0.57453486
0.56975009
0.56726443
0.56430579
0.56237869
0.56066683
0.5597159
0.5589938
0.55903145
0.55921037
0.55991549
0.56055705
0.5621897
0.56316104
0.56548246
0.56678853
0.56975877
3.8367709
2.9854591
2.4639548
2.1193612
1.8659418
1.6716383
1.5174595
1.3906505
1.2843251
1.1949601
1.1206386
1.0589558
1.0074213
0.96331547
0.92472416
0.89002197
0.85856648
0.8296919
0.80354022
0.77977802
0.75864254
0.73959694
0.72299272
0.70785697
0.69444794
0.68188191
0.67056138
0.65926291
0.6496244
0.63886881
0.63030359
0.62056341
0.61300073
0.6043213
0.59779018
0.5907502
0.58543099
0.5796079
0.57559063
0.57066594
0.5681433
0.56493499
0.5629298
0.56093328
0.55983357
0.55872382
0.55852629
0.55867316
0.5590174
0.55962932
0.56079532
0.56176633
0.56341768
0.56473369
0.5671904
3.8381125
2.9934705
2.4700636
2.1216617
1.8652404
1.6695852
1.5154509
1.3895082
1.2843056
1.1959635
1.1222651
1.0609044
1.0095051
0.96551441
0.92701029
0.89238579
0.86093769
0.83207485
0.80586316
0.78202724
0.76079273
0.7416447
0.72487749
0.70966948
0.69618556
0.68358192
0.67225487
0.66092674
0.65126433
0.64051716
0.63195663
0.62214766
0.61460012
0.60588622
0.59925501
0.59216108
0.58674562
0.5809256
0.57674195
0.5717275
0.56905021
0.56561254
0.56349169
0.56134869
0.56000547
0.55868844
0.55816132
0.55808059
0.55832013
0.55868994
0.55960315
0.56028296
0.56159462
0.56273033
0.56488804
3.8363027
2.9951419
2.4746803
2.12531
1.8672819
1.6703432
1.5153812
1.3891534
1.284106
1.1962289
1.1230696
1.0621574
1.0111257
0.9674059
0.92910193
0.89459115
0.86322773
0.83437051
0.80810981
0.78419321
0.76284403
0.74359126
0.72674729
0.7114094
0.69788768
0.68521418
0.67384241
0.66257535
0.65288523
0.64211714
0.63360531
0.62370574
0.61616101
0.60739977
0.60062775
0.59357668
0.58817653
0.58237189
0.57790772
0.57280047
0.57009014
0.56653832
0.56439748
0.5619806
0.56048638
0.55889332
0.5580766
0.55781616
0.55796571
0.55812423
0.55887896
0.55938159
0.56031461
0.56131591
0.56304621
3.8376079
3.0014474
2.4803014
2.1302426
1.8713924
1.6734385
1.5175779
1.3908083
1.2856088
1.1978393
1.124845
1.0640562
1.0131086
0.96947413
0.93124805
0.8968058
0.86551448
0.83671732
0.81041489
0.78648907
0.76504005
0.74569902
0.72873503
0.71334251
0.69970816
0.68701175
0.6755366
0.66427613
0.65454621
0.64382871
0.63523914
0.62536168
0.61782741
0.60906107
0.60214571
0.59504372
0.58954179
0.58383641
0.57922458
0.57408176
0.57122838
0.56745908
0.56520525
0.56261495
0.56100032
0.55917659
0.55813995
0.5576762
0.55764419
0.55781744
0.55810629
0.55848177
0.55916101
0.56002157
0.56139356
3.8389889
3.0047143
2.4840324
2.134122
1.8749326
1.6764363
1.5200243
1.3928751
1.2874477
1.1995997
1.1265865
1.0658452
1.0149191
0.97136495
0.93323609
0.89888501
0.86764468
0.83888682
0.81259011
0.78863565
0.7671279
0.74775048
0.73065977
0.71522046
0.70155179
0.68885562
0.67733311
0.66612117
0.65633044
0.64576691
0.63700722
0.62727556
0.61963745
0.61084582
0.60369972
0.59677353
0.5912597
0.58558434
0.58062567
0.57530278
0.57252756
0.56898917
0.56666243
0.56382838
0.56192408
0.55977822
0.55850172
0.55789969
0.55789288
0.55789493
0.55801481
0.55814293
0.55869247
0.55926804
0.56022255
3.8427957
3.0132553
2.4900704
2.1395353
1.8796764
1.6805351
1.5236715
1.396274
1.2906942
1.2027181
1.1294568
1.0684483
1.0172589
0.97359097
0.93543729
0.90117494
0.8700209
0.84139813
0.81507946
0.7911916
0.76964502
0.75025395
0.73305961
0.71759414
0.70390655
0.69126099
0.67971179
0.6686635
0.65870098
0.6484803
0.63943378
0.63010439
0.62221859
0.6136401
0.60620756
0.59927844
0.59353202
0.58802293
0.58290848
0.57748286
0.57438745
0.57072311
0.56827406
0.56526778
0.56328704
0.56110445
0.55945491
0.55871631
0.5586232
0.55832396
0.55817582
0.55831002
0.55854634
0.55916398
0.55989823
3.8451078
3.0164646
2.4928739
2.1431178
1.8834293
1.6839483
1.5266924
1.3991906
1.2935791
1.2055285
1.1320612
1.0708354
1.0194857
0.9758182
0.93785167
0.90384073
0.8730319
0.84461441
0.81862032
0.79468874
0.77317333
0.75384181
0.73655182
0.72123342
0.70770427
0.69532244
0.68395289
0.67365148
0.66370781
0.6540522
0.64475878
0.63640682
0.62820803
0.61976548
0.61179958
0.60518519
0.59969395
0.59407369
0.58787888
0.58218602
0.5789242
0.57548112
0.57262199
0.56942433
0.56716724
0.56450144
0.56224188
0.56133154
0.56125327
0.56108519
0.56058947
0.56042717
0.5603443
0.56091174
0.56094458
3.8482919
3.0239126
2.4984104
2.148695
1.8888211
1.6892216
1.5319456
1.4051753
1.300148
1.2123084
1.1381083
1.0761265
1.0241767
0.98054086
0.94309633
0.9102472
0.88069808
0.85331005
0.82843843
0.80475111
0.78329634
0.763901
0.74637904
0.73132321
0.71826453
0.70646431
0.69582881
0.68735957
0.67849434
0.66970806
0.66086339
0.6546886
0.64686384
0.63855514
0.62992437
0.62328854
0.61812852
0.61247379
0.60429141
0.59712347
0.59257731
0.58842543
0.58464657
0.58086452
0.57835263
0.57513654
0.57180834
0.57005717
0.56959762
0.56923992
0.56846367
0.56767823
0.56778464
0.56797202
0.56761732
3.8497186
3.0269021
2.5011761
2.1539041
1.8976355
1.7013578
1.5468057
1.4253612
1.3245203
1.2377898
1.1603451
1.0956654
1.0421944
0.99943813
0.96463798
0.93677414
0.91271234
0.88979678
0.86951837
0.84719515
0.82557833
0.80477653
0.78585106
0.77021457
0.75796421
0.74717255
0.73813031
0.73384697
0.73060029
0.72412805
0.71759737
0.71479022
0.71135485
0.70385086
0.69416846
0.68835544
0.68576943
0.68141733
0.66880789
0.65279327
0.64247945
0.63492096
0.62693747
0.62001781
0.61497381
0.60841027
0.60167817
0.59845192
0.59759991
0.59672484
0.59417847
0.59283172
0.59171695
0.5908712
0.58827952
3.8566266
3.0541625
2.5310038
2.1983749
1.960356
1.7842419
1.6457632
1.5500321
1.4696932
1.3831876
1.286168
1.2063618
1.144295
1.1009134
1.0737051
1.0639226
1.0634928
1.06221
1.0584803
1.0482712
1.0293778
1.0034633
0.9802132
0.95885215
0.94582152
0.93897406
0.93437724
0.93451568
0.9467289
0.96120007
0.96838866
0.9839128
0.99176869
0.99570755
0.99199333
0.98805497
0.99163697
0.99758578
0.99356589
0.97032508
0.92830641
0.90372165
0.87669504
0.85277614
0.83960739
0.81987506
0.78731791
0.76348197
0.75518243
0.74964308
0.73836316
0.73138353
0.72630769
0.72380744
0.71150549
3.9279807
3.2920385
2.7697238
2.4873697
2.2868794
2.1734727
2.0473412
1.998392
1.9772416
1.9196432
1.799604
1.6971781
1.642603
1.6326049
1.6404548
1.679006
1.7580801
1.8187206
1.8638072
1.891167
1.9005611
1.8956523
1.8761085
1.8383035
1.8203733
1.8096973
1.7955124
1.7933509
1.8233719
1.8785404
1.8958405
1.9206556
1.9321002
1.9628981
1.9717734
1.9742713
2.004964
2.0592173
2.0614949
2.0353252
1.9487757
1.9085684
1.8673825
1.8240818
1.8086796
1.7918645
1.7326789
1.6289486
1.5881771
1.5711756
1.5362759
1.4981374
1.4792429
1.4716549
1.4404076
5.2551746
4.6823575
3.9183355
3.6241768
3.4789054
3.4514796
3.4758077
3.5835267
3.7665225
3.8512904
3.8356012
3.7645837
3.7314224
3.7378857
3.7676121
3.8419391
3.9320622
3.9948498
4.0611283
4.1467783
4.216506
4.2395419
4.2548839
4.2399242
4.2362844
4.2249342
4.1643245
4.1147717
4.1689182
4.1702113
4.19525
4.221054
4.200265
4.2768274
4.2241542
4.1880536
4.2957049
4.5288052
4.5257194
4.4338535
4.2277835
4.2128884
4.1842009
4.1696875
4.1865088
4.2376713
4.1719722
4.0046832
3.9493273
3.9446715
3.9204086
3.8400239
3.8045031
3.7827051
3.7205505
11.395427
12.253317
12.188998
12.308964
12.305828
12.305379
12.250232
12.228611
12.247086
12.279931
12.315699
12.330566
12.329794
12.297286
12.268771
12.239806
12.218034
12.205291
12.199216
12.199753
12.210974
12.229462
12.255524
12.286472
12.31293
12.339289
12.357821
12.367474
12.368584
12.383136
12.38715
12.40144
12.400143
12.405082
12.417087
12.404689
12.395008
12.40862
12.422873
12.448584
12.460756
12.458332
12.473336
12.468808
12.465753
12.473147
12.5041
12.475849
12.482535
12.452028
12.460701
12.435837
12.407556
12.413998
12.37092
12.747506
3.918955
1.4913576
0.72695572
0.59114735
0.5693231
0.56208866
0.56122264
0.56165949
0.56319874
0.56498972
0.56696757
0.56922384
0.57171887
0.57479144
0.57823007
0.58229627
0.58674997
0.59208282
0.59874935
0.60738801
0.61818766
0.62840854
0.63723759
0.65019594
0.6705056
0.69284997
13.473763
4.0102428
1.5467375
0.75253498
0.60172484
0.57331669
0.56440426
0.56294209
0.56325503
0.56480422
0.56681948
0.56909062
0.57175107
0.57451565
0.57773303
0.58127728
0.58526924
0.58988103
0.59510369
0.601492
0.60999341
0.620705
0.6316616
0.64061099
0.65217007
0.67210048
0.69376657
14.199781
4.4220063
1.6974077
0.80840253
0.61651782
0.57998485
0.56869653
0.56591012
0.56581604
0.56679363
0.56862247
0.57084891
0.57347563
0.57652493
0.57992677
0.58384163
0.58810377
0.59268884
0.59810145
0.60437088
0.61249091
0.62344168
0.63517787
0.64443284
0.65499829
0.67597992
0.69664604
15.040185
4.9943651
1.846389
0.84535987
0.62417415
0.58388987
0.57136449
0.56827597
0.56841761
0.56972167
0.57184361
0.57417915
0.57673349
0.57965702
0.58315894
0.58699822
0.59141145
0.59617274
0.60160552
0.60796378
0.61567836
0.6261078
0.6387132
0.64900624
0.65876648
0.67971643
0.70098642
15.987587
4.9270471
1.8757035
0.86146593
0.63032591
0.58759663
0.57439578
0.57115913
0.57147165
0.57280679
0.57518091
0.57765463
0.58055327
0.583605
0.58726635
0.59117286
0.59559568
0.60050449
0.60591723
0.61218553
0.61987865
0.6299508
0.64271681
0.65410061
0.66319019
0.68276993
0.70499232
16.927941
4.8019357
1.9140583
0.89317786
0.64463189
0.59637995
0.58169143
0.57695368
0.57635687
0.57715882
0.57907752
0.58127135
0.58399876
0.58702947
0.59055605
0.5946687
0.59925054
0.60441033
0.61024938
0.61656863
0.62433175
0.6344265
0.64740709
0.65992516
0.66878147
0.68687053
0.70920326
17.915298
5.083705
2.0631818
0.98620102
0.67693176
0.61094283
0.59100789
0.58271166
0.58056338
0.58083383
0.58246546
0.58506808
0.58810808
0.5913433
0.59480368
0.59879711
0.60322018
0.60836678
0.61419209
0.62074239
0.6282315
0.63818081
0.65144025
0.66574193
0.67429784
0.69157426
0.71391176
18.988102
6.0744865
2.3568231
1.077714
0.6975305
0.62003047
0.59598414
0.58591865
0.58291982
0.58294925
0.58457346
0.58779831
0.59135284
0.59522726
0.59927123
0.60361202
0.60839492
0.61360288
0.6193951
0.62588928
0.63300633
0.6423323
0.65484906
0.67074097
0.67977313
0.69533029
0.71832593
20.228563
6.2405062
2.4163311
1.1000077
0.70325663
0.62296117
0.598373
0.58841663
0.58562828
0.58585038
0.58802191
0.59142926
0.59485068
0.59882817
0.60319395
0.60784123
0.61307204
0.61863443
0.62482848
0.63149657
0.63881071
0.64745099
0.65939435
0.67571339
0.68603597
0.69893998
0.72208766
21.524035
5.976421
2.3973823
1.1090971
0.70892106
0.62631651
0.60249244
0.59354263
0.59173622
0.59254826
0.59515928
0.59836552
0.60135286
0.60458109
0.6082596
0.61234743
0.61725883
0.62275642
0.6291191
0.63602435
0.64382851
0.65233421
0.66398934
0.68059867
0.69225214
0.70357071
0.7260798
22.850935
5.8577729
2.406
1.1353094
0.72451594
0.63499003
0.61377327
0.60550559
0.60214286
0.60202347
0.60335806
0.60591266
0.60857939
0.61140919
0.61470767
0.61834807
0.62275613
0.62778159
0.63395529
0.64081108
0.64843369
0.65717854
0.66767255
0.68474796
0.69757521
0.70859969
0.7301359
24.302723
5.955097
2.4695643
1.2214251
0.76746286
0.65769984
0.62939814
0.61582563
0.61036765
0.60854026
0.60905444
0.6109352
0.61349222
0.61662643
0.62033904
0.62451731
0.62910074
0.63426249
0.6400669
0.64687973
0.65408601
0.66278519
0.67249871
0.68893821
0.70313408
0.71364984
0.73447334
25.886826
6.3442044
2.6725491
1.3390821
0.80679172
0.67725862
0.63805622
0.62341924
0.61509962
0.61233484
0.61251906
0.61430147
0.61735144
0.62104853
0.62529965
0.62997948
0.6352068
0.64093807
0.64706691
0.6542222
0.66158965
0.6697382
0.67898412
0.69441415
0.70966659
0.71962944
0.73944825
27.602686
7.0758548
2.9214259
1.4423853
0.84388581
0.69100993
0.64754327
0.63268679
0.62171306
0.61888115
0.61861718
0.62008454
0.62359827
0.62739758
0.63162139
0.63622657
0.64127462
0.64699559
0.65314718
0.6604483
0.66824852
0.67674454
0.68507516
0.70045428
0.71661483
0.72650185
0.74501272
29.445775
7.7308636
3.1524074
1.5561416
0.89446051
0.70960043
0.66175008
0.64485732
0.63381493
0.62939185
0.62867271
0.6296605
0.63269333
0.63621578
0.6400058
0.64428529
0.64889487
0.6542456
0.66009931
0.666896
0.67460866
0.68321647
0.69094798
0.70574794
0.72354382
0.73325046
0.7501939
31.41806
8.2868878
3.3624481
1.6727793
0.95384251
0.73250668
0.67786019
0.65823109
0.64538079
0.63843295
0.63660762
0.63697108
0.63912891
0.64236222
0.64580989
0.64985521
0.65439002
0.65995652
0.66605386
0.67315435
0.68115581
0.69016674
0.69723996
0.71157603
0.7301916
0.74042998
0.75575092
33.518568
8.7040751
3.5259579
1.7730309
1.0074346
0.75442607
0.69331362
0.67035171
0.65510393
0.64612134
0.64227254
0.64206564
0.64330337
0.64613034
0.64953804
0.65360685
0.65834176
0.66382579
0.67004744
0.67724519
0.68562526
0.69539668
0.70238517
0.71520882
0.73573546
0.74746108
0.76135836
35.750784
8.9841131
3.6320666
1.8431343
1.0456113
0.77088099
0.70538309
0.68028135
0.66445466
0.65398857
0.64857491
0.64749391
0.64817494
0.65083555
0.65444524
0.6585813
0.66346937
0.66881658
0.67499293
0.68180447
0.69002961
0.69993649
0.70717047
0.71751404
0.73865602
0.75209185
0.7657718
38.10963
9.1943594
3.6952683
1.8862027
1.0697424
0.78167664
0.7142129
0.68877497
0.67397
0.66281068
0.65666854
0.65482518
0.65526618
0.6576814
0.66134024
0.6653083
0.66996838
0.67533633
0.68144553
0.68811383
0.69576074
0.70555702
0.71279972
0.72128495
0.74061362
0.75570851
0.76978349
40.638967
9.3637833
3.7372403
1.9159762
1.088647
0.7911018
0.72174615
0.6971766
0.68283797
0.6722365
0.66535127
0.662917
0.66311786
0.66510235
0.66858386
0.67235779
0.67681451
0.68194209
0.6879825
0.69459526
0.70188897
0.71165152
0.71918665
0.72638326
0.7430974
0.75941236
0.77471386
43.272601
9.5852173
3.7827482
1.9516013
1.1150963
0.80615188
0.73229954
0.70657059
0.69275425
0.68271675
0.67517342
0.6724645
0.67204424
0.67350192
0.67668656
0.68024754
0.68449366
0.68915143
0.69496563
0.70089764
0.70783014
0.71734597
0.72579523
0.73219826
0.74659538
0.76283163
0.7797393
45.986375
9.8305313
3.8457948
2.0103505
1.1639895
0.83207028
0.74649877
0.71852913
0.70409229
0.69324964
0.68530213
0.68126063
0.68062748
0.6814732
0.68437259
0.68808221
0.69215345
0.69660608
0.70209209
0.70754285
0.7133963
0.72240303
0.73133344
0.73738029
0.74991598
0.7653937
0.78371966
48.980481
10.242518
3.9614652
2.1135875
1.2374581
0.86670777
0.76574974
0.73346261
0.717319
0.70557085
0.69556043
0.69001595
0.68808013
0.68844836
0.69059813
0.6943269
0.69845757
0.70279819
0.70829796
0.71377069
0.71905772
0.72737147
0.73665484
0.74224149
0.75318853
0.76688597
0.7862253
51.997947
10.769643
4.159896
2.2266428
1.3129833
0.90413144
0.78610031
0.74829264
0.73070072
0.71755783
0.70605202
0.69866324
0.69542676
0.69527078
0.69660878
0.69994799
0.7039511
0.7081573
0.71365759
0.71938191
0.72481387
0.73268943
0.74283323
0.74843436
0.75861056
0.77013621
0.78906714
55.099779
11.325865
4.3782292
2.3358677
1.382442
0.93943738
0.80356213
0.76088484
0.74112931
0.72722877
0.71455725
0.7056206
0.70122712
0.7003756
0.7011636
0.70412718
0.7082822
0.71263161
0.71826631
0.72430634
0.73005248
0.73750659
0.74846689
0.75465994
0.76467418
0.77420119
0.79246921
58.265904
11.734609
4.5352155
2.4152467
1.432706
0.96513345
0.81531713
0.76844356
0.74659995
0.73288572
0.72012211
0.71083459
0.70577365
0.70460103
0.70530267
0.70814739
0.7124184
0.71714652
0.72260154
0.72897587
0.73482431
0.74169314
0.7530616
0.75990474
0.77002021
0.77832257
0.79528111
61.482471
12.380218
4.7034125
2.4859349
1.4726402
0.98488794
0.82264734
0.77224666
0.7495296
0.73585243
0.72446383
0.71516778
0.70979007
0.70816445
0.70867607
0.71132779
0.7158049
0.72074305
0.72607185
0.73270164
0.73886959
0.74540459
0.75676696
0.76445514
0.77472469
0.78203582
0.79690264
64.708487
12.816361
4.794563
2.5227552
1.4950613
0.9963569
0.8265959
0.77452058
0.75119275
0.73773247
0.72649998
0.71735721
0.71167757
0.70977879
0.71006633
0.71244725
0.71709971
0.72202599
0.7273188
0.73393192
0.74051826
0.74669992
0.75791009
0.76597047
0.77645424
0.78314197
0.79711505
67.935387
13.507173
4.9164777
2.5647185
1.5185702
1.0083835
0.83120978
0.77820733
0.7542965
0.74144108
0.72989202
0.72042552
0.71377374
0.71109456
0.71099689
0.71291159
0.71722075
0.72205716
0.7271987
0.73381297
0.7404133
0.74651298
0.75757892
0.7657439
0.77690685
0.78387225
0.79698696
71.0907
13.974647
5.0025537
2.5984508
1.5453547
1.0238308
0.83787134
0.78515009
0.7610623
0.7485267
0.7364666
0.72617266
0.71789473
0.71366879
0.7129013
0.71400697
0.71766362
0.72233868
0.72725415
0.73376804
0.74052061
0.74646962
0.75759698
0.76621063
0.77792747
0.78477453
0.79683215
74.189304
14.737278
5.1253878
2.6473136
1.5919798
1.0514483
0.85183598
0.79488582
0.77047501
0.7566664
0.74493227
0.73398285
0.72491747
0.7195847
0.71775531
0.71783099
0.72005008
0.72460153
0.72907755
0.73550556
0.74254853
0.74815886
0.75865691
0.76662185
0.77792515
0.78460168
0.79631249
77.109151
15.269203
5.2783364
2.7324586
1.6621422
1.1009453
0.87338045
0.80470505
0.77764142
0.76287693
0.75176756
0.74119974
0.73199915
0.72586534
0.7231671
0.72280435
0.72419845
0.72797313
0.73193064
0.73756748
0.74404676
0.74888729
0.75846562
0.76614075
0.77726995
0.78390718
0.79537479
79.868004
16.146746
5.4759541
2.8061468
1.711969
1.1337815
0.88737289
0.80945674
0.77968558
0.76432345
0.75348664
0.74335657
0.73427227
0.7277022
0.72447702
0.72380577
0.72486067
0.72827628
0.73203679
0.73745717
0.74381039
0.74853209
0.75783792
0.76537908
0.77623389
0.78284592
0.7940299
82.370314
16.558495
5.5783693
2.8462707
1.7380948
1.1513742
0.89361986
0.81083794
0.77985374
0.76425376
0.75331238
0.74319862
0.73404321
0.72737998
0.72400252
0.72329123
0.72425976
0.72762103
0.73132348
0.73667988
0.74296532
0.74763062
0.75665509
0.76401371
0.77435224
0.78092876
0.79195171
84.578461
17.153866
5.6657941
2.8660424
1.7481914
1.1571545
0.89449068
0.8100614
0.77846907
0.76251594
0.75129227
0.74121956
0.73196515
0.72532182
0.72177193
0.72109608
0.72207325
0.72553127
0.72925964
0.73468769
0.74089546
0.74570619
0.75454973
0.76201886
0.77222312
0.77901817
0.79015863
86.515513
17.086832
5.6682697
2.8648394
1.7460583
1.1555916
0.89041208
0.80444223
0.77238263
0.75594627
0.74469975
0.73502957
0.72659032
0.72057521
0.71758757
0.7173599
0.71873769
0.72272607
0.72684322
0.7326458
0.73917957
0.74444298
0.75332132
0.7610223
0.77118301
0.77803016
0.78936907
88.148734
17.09969
5.6768519
2.8642533
1.7466389
1.1555966
0.88886398
0.79908064
0.7658566
0.74975679
0.73920105
0.73038804
0.72294336
0.71748691
0.71497103
0.71497086
0.71666296
0.72100389
0.72542148
0.73139971
0.73806571
0.7436201
0.7524098
0.76025689
0.77044034
0.77725769
0.78900919
89.375275
17.496227
5.7359129
2.8858881
1.7592309
1.1624831
0.89077172
0.79733959
0.76276591
0.74673847
0.73680911
0.72872359
0.72169634
0.71646743
0.71397976
0.71390476
0.71561129
0.71985408
0.72418731
0.73016833
0.73691871
0.7428311
0.7515696
0.7595961
0.7698646
0.77666752
0.78867366
90.187456
17.949786
5.8501073
2.9440952
1.7996916
1.1851743
0.89683741
0.7976859
0.76216002
0.74587331
0.73613754
0.72816484
0.72116219
0.71580239
0.71294002
0.71254225
0.71400439
0.71805249
0.72272917
0.72899752
0.7359507
0.74210998
0.75087206
0.75900844
0.76948173
0.77621622
0.78828545
90.546114
18.596163
6.0312845
3.0205803
1.8449016
1.214434
0.90837086
0.79862686
0.76179929
0.7450642
0.73531723
0.72719183
0.71997483
0.7143053
0.71119184
0.71080046
0.71236919
0.71670834
0.72167097
0.72809287
0.73508431
0.74143319
0.75021728
0.75842839
0.76900384
0.77584997
0.78789253
90.362224
20.065748
6.3431087
3.1035292
1.8779519
1.2318054
0.91626633
0.79954809
0.75993362
0.74276824
0.73305338
0.72490393
0.71776863
0.71207029
0.70921484
0.70894691
0.71098894
0.71544228
0.72060567
0.72698719
0.73407055
0.74060148
0.74949357
0.75777739
0.76845844
0.77555262
0.78758864
89.661013
21.64724
7.023234
3.2548553
1.9281915
1.2547842
0.92455045
0.7999906
0.75839215
0.74086927
0.73117321
0.72294281
0.71588043
0.71019941
0.70756985
0.70742112
0.70941342
0.71372704
0.71884671
0.72545358
0.73254132
0.73957482
0.74851359
0.75714243
0.76779829
0.77533954
0.78729933
88.482114
21.992732
7.7077782
3.5489912
2.0350261
1.2964294
0.93592889
0.80055609
0.75754309
0.7395921
0.72972359
0.72147713
0.71446087
0.70871642
0.70618879
0.70584575
0.70755861
0.71139117
0.71644794
0.72291003
0.73012427
0.73776647
0.74703723
0.75633061
0.76705798
0.77526221
0.78713616
86.896126
21.876957
7.9503043
3.7255354
2.1037805
1.3182178
0.94111941
0.80028568
0.75552639
0.73694085
0.72681961
0.71857939
0.71166867
0.70586
0.70337786
0.70293417
0.70454479
0.70851505
0.71355583
0.72019997
0.72749308
0.73533816
0.74481027
0.75504987
0.76613044
0.77540928
0.78749952
84.969194
21.015301
7.9600687
3.7654777
2.1157784
1.3193251
0.93950016
0.79504167
0.74884431
0.72965546
0.71936284
0.71153467
0.70491144
0.69987882
0.69798853
0.69806631
0.70027137
0.70511821
0.71058761
0.7176917
0.72515843
0.73330042
0.74314067
0.75376633
0.76525707
0.77540638
0.78742445
82.75089
19.728227
7.7813797
3.7390998
2.0913493
1.2942644
0.92229322
0.78298318
0.73796314
0.7195878
0.70991073
0.70281559
0.69678646
0.69290929
0.69180472
0.69251889
0.69603966
0.70153427
0.70800817
0.71545396
0.72371111
0.73233159
0.74278069
0.75343735
0.76504216
0.77568134
0.78820363
80.28894
18.699341
7.3678584
3.6613247
2.0516488
1.2628791
0.90487651
0.77296412
0.72958207
0.71168759