/*--------------------------------*- C++ -*----------------------------------*\
| =========                 |                                                 |
| \\      /  F ield         | OpenFOAM: The Open Source CFD Toolbox           |
|  \\    /   O peration     | Version:  2406                                  |
|   \\  /    A nd           | Website:  www.openfoam.com                      |
|    \\/     M anipulation  |                                                 |
\*---------------------------------------------------------------------------*/
FoamFile
{
    version     2.0;
    format      ascii;
    arch        "LSB;label=32;scalar=64";
    class       volScalarField;
    location    "25";
    object      omega_0;
}
// * * * * * * * * * * * * * * * * * * * * * * * * * * * * * * * * * * * * * //

dimensions      [0 0 -1 0 0 0 0];

internalField   nonuniform List<scalar> 
20580
(
3.5422474
2.6356855
2.1389947
1.8217477
1.5941444
1.4204859
1.2870382
1.1821281
1.0979412
1.0286649
0.97085511
0.92024305
0.87693155
0.83842893
0.8053699
0.7758511
0.75079942
0.72801759
0.70925305
0.69131065
0.67628183
0.66308082
0.64937639
0.63820496
0.62936279
0.62288829
0.61593228
0.61356623
0.61536845
0.62128785
0.62859128
3.5545015
2.6439994
2.1452471
1.82801
1.6027534
1.427857
1.292545
1.1871615
1.1024393
1.03303
0.97489159
0.92406141
0.88064143
0.84174015
0.80864071
0.77904298
0.75337249
0.73032169
0.71098914
0.6919611
0.67792199
0.66519673
0.65212274
0.64168461
0.63266201
0.6281178
0.62310053
0.62070926
0.61930833
0.62207126
0.62878499
3.5696528
2.6516999
2.1492637
1.8326886
1.6080909
1.4344595
1.2992061
1.1926046
1.1072456
1.036825
0.97854064
0.92723311
0.88407614
0.84480552
0.81185877
0.78238274
0.75605311
0.73382323
0.71401517
0.69343497
0.67883301
0.66659585
0.65285716
0.64230177
0.63264526
0.6283164
0.62362602
0.62169921
0.62143118
0.62272001
0.62829012
3.575607
2.6497546
2.1497149
1.8339335
1.6089435
1.4376875
1.3034285
1.197175
1.1118311
1.0412504
0.98244879
0.93136488
0.88747143
0.848548
0.81497905
0.78561546
0.75891531
0.73663321
0.71736023
0.69652807
0.68087914
0.66913654
0.65451994
0.64326536
0.63278621
0.62726823
0.62301107
0.61999176
0.62011082
0.62116786
0.62590829
3.5770088
2.6409015
2.1507105
1.8362946
1.6104349
1.4405842
1.3060718
1.2007626
1.1163026
1.0464923
0.98737552
0.93622243
0.89163009
0.85315263
0.81875647
0.78957488
0.76235988
0.73970961
0.71980698
0.70108881
0.68280193
0.67160188
0.65764618
0.64587351
0.63418096
0.62679884
0.62278822
0.61881183
0.61749544
0.6181697
0.62129378
3.5799766
2.6400962
2.1515509
1.8403861
1.614836
1.4441171
1.3099478
1.2048184
1.1200693
1.0504327
0.99097699
0.94041204
0.89519068
0.85744937
0.8224232
0.793779
0.76602506
0.74396268
0.72293822
0.70576097
0.68663534
0.67357545
0.66110259
0.6496657
0.63818236
0.62813319
0.6232773
0.61948375
0.61729278
0.61705777
0.61909116
3.5846236
2.6452003
2.1490826
1.839271
1.6149538
1.4457949
1.3130816
1.2082363
1.1231094
1.0537755
0.9941886
0.94400073
0.89852422
0.86080759
0.82593284
0.79706128
0.76986566
0.74752273
0.72689676
0.7090404
0.69193849
0.67682815
0.66471489
0.65276319
0.64255679
0.63143607
0.62452224
0.62041223
0.61757749
0.61637949
0.61746338
3.5845717
2.645558
2.1438231
1.8306969
1.6093736
1.4434425
1.3124894
1.2088207
1.1250092
1.0565033
0.99806603
0.94760324
0.90268236
0.86410352
0.82980593
0.80008574
0.77350375
0.75068268
0.72982867
0.71188502
0.69645712
0.68066336
0.66725049
0.65619558
0.64626895
0.63511568
0.62563959
0.62081996
0.61734601
0.61554323
0.61574446
3.5869503
2.6476728
2.1448336
1.8290006
1.6064076
1.4393637
1.3093054
1.2078106
1.1256038
1.0576114
0.99935263
0.94915248
0.90469463
0.86646623
0.83228128
0.8024569
0.77678096
0.75310193
0.73294556
0.71476474
0.698909
0.68411314
0.67035636
0.65884025
0.64908375
0.63958413
0.62947924
0.62201332
0.61819478
0.61493225
0.61386443
3.5957926
2.6610642
2.1542028
1.8360459
1.6109406
1.4408912
1.3095374
1.2074412
1.1249087
1.0565623
0.99842789
0.94808819
0.90456459
0.86604701
0.8332894
0.80275964
0.77905282
0.7541501
0.73540379
0.7164598
0.70079531
0.68470817
0.67340543
0.66039731
0.65134865
0.64213575
0.6346775
0.62609526
0.62111803
0.61614985
0.61420987
3.6331766
2.6997237
2.1772797
1.8551731
1.6251709
1.449319
1.3143656
1.2095164
1.12528
1.056218
0.99829482
0.94769909
0.90481553
0.86611909
0.83403729
0.80362928
0.77953428
0.75588348
0.73556285
0.71813743
0.70098734
0.68637957
0.67375987
0.66276294
0.65208904
0.64446443
0.63636922
0.62964487
0.62433749
0.62066629
0.61684409
3.681078
2.7424979
2.2141424
1.8819183
1.6453515
1.4681888
1.3280725
1.2183057
1.1310146
1.0602708
1.0013416
0.95023485
0.90719771
0.86848518
0.83593369
0.8061557
0.78032718
0.75797302
0.7359902
0.71960962
0.70200957
0.68779658
0.67447576
0.66408728
0.65330217
0.64511986
0.63726823
0.63079219
0.62609222
0.62291473
0.61994594
3.6392126
2.7466906
2.2373086
1.9058329
1.6672064
1.4888831
1.3463221
1.2348492
1.1451073
1.072579
1.0113784
0.95943504
0.91451804
0.87556014
0.84087665
0.81190065
0.78334699
0.76205371
0.73879927
0.72238228
0.70552755
0.69089752
0.67719028
0.66626973
0.65625974
0.64675921
0.63929298
0.63186243
0.62685966
0.62210764
0.61962903
3.6051761
2.7418324
2.2387558
1.9146738
1.6785999
1.4997783
1.3570913
1.2435729
1.1534648
1.0806002
1.0196658
0.96692531
0.92202037
0.8823001
0.84721481
0.81730692
0.78946617
0.76627469
0.7451321
0.72659858
0.71086155
0.6948796
0.68267537
0.67082094
0.6608896
0.65077074
0.64361276
0.63488939
0.62870959
0.62261215
0.61908634
3.6103314
2.752133
2.2429582
1.9223379
1.6859854
1.5065609
1.3642724
1.2501604
1.1600253
1.0861412
1.0245922
0.97189646
0.92632016
0.88713652
0.8510907
0.82171133
0.7930998
0.77012068
0.7489407
0.73106339
0.7139486
0.69885835
0.68626295
0.67581356
0.66428095
0.65540094
0.64712468
0.64082091
0.63305044
0.62729378
0.62120759
3.6124162
2.7571204
2.2505236
1.9304979
1.6941237
1.5163672
1.3738955
1.2609814
1.1698128
1.0954302
1.0323951
0.97956241
0.93266007
0.89361365
0.85696751
0.82694911
0.79779221
0.77460571
0.75313669
0.73433214
0.71753238
0.70344666
0.68942502
0.67822512
0.66876367
0.65872893
0.65038999
0.64371577
0.63757057
0.63280847
0.62647386
3.6215874
2.7521198
2.2494775
1.9284663
1.6948619
1.5183928
1.3772271
1.2651274
1.175014
1.1005999
1.0386905
0.98549882
0.93860311
0.8987626
0.86302655
0.83225253
0.80356637
0.77935088
0.75817133
0.73824914
0.72204582
0.70799458
0.69301734
0.6803892
0.67187949
0.66122283
0.65347966
0.64509066
0.63911791
0.63438471
0.62913209
3.6148176
2.7501845
2.2478342
1.9287336
1.6972466
1.5192232
1.3790094
1.2668912
1.1768139
1.1025501
1.0412281
0.98795274
0.94198659
0.90176376
0.86627057
0.8351298
0.80669965
0.78205708
0.76163901
0.74091462
0.72438485
0.71085379
0.69621936
0.6829823
0.67341555
0.66268598
0.65433546
0.64520506
0.63814839
0.63346628
0.62858138
3.628487
2.7721481
2.261277
1.9429336
1.7103554
1.5324666
1.389298
1.2749307
1.1838356
1.1091074
1.0472994
0.99400773
0.94774385
0.90766268
0.87187159
0.84043128
0.81146142
0.78690864
0.76672285
0.74588378
0.72879878
0.71532333
0.70098117
0.68877926
0.677506
0.66671352
0.65821969
0.64890215
0.64081655
0.63584491
0.62989434
3.6286577
2.7916829
2.2857226
1.9701466
1.7371205
1.5658522
1.4195969
1.303015
1.2104625
1.1351061
1.0723043
1.0187208
0.97178093
0.93448944
0.89582202
0.86211751
0.83177085
0.80768832
0.78847956
0.76608913
0.75108776
0.73783011
0.7200126
0.71135874
0.69949793
0.68557913
0.6743503
0.66845469
0.65863535
0.65408635
0.64527484
3.6875191
2.8913838
2.4087611
2.1036123
1.8627697
1.7184061
1.5665253
1.4389532
1.3399363
1.2693029
1.2119192
1.1621338
1.1247915
1.0971382
1.0616266
1.0125537
0.97324773
0.95297807
0.94253888
0.92866192
0.92284319
0.91357264
0.88471318
0.8752843
0.86206137
0.83144296
0.80604146
0.79706147
0.78095987
0.77187759
0.74726336
4.0736057
3.8109047
3.6078824
3.3496584
3.1732294
3.1556302
2.8998509
2.756644
2.6139186
2.5838413
2.510919
2.4409245
2.4820163
2.5202599
2.3498741
2.2368339
2.1410137
2.1618558
2.1642218
2.1369074
2.1924225
2.155896
2.0366703
2.0953
2.0444307
1.9245013
1.8611618
1.8499908
1.7983757
1.7788565
1.7039735
13.000882
12.965657
12.304834
11.641471
11.093175
10.69083
10.190215
9.6416551
9.2919786
8.9068503
8.6927217
8.3884954
8.1511166
7.9628147
7.8098084
7.4940209
7.3462578
7.1342524
7.0370787
6.8709685
6.7517065
6.6873669
6.5289085
6.4166786
6.3853227
6.1998975
6.1542337
5.9959307
5.931959
5.7927248
5.7867624
5.8928112
2.3959992
0.87247512
0.65582716
0.62817147
0.62501948
0.62619439
0.62441668
0.619905
0.61815095
0.61856257
0.61861441
0.61654745
0.61376083
0.61331377
0.61484148
0.61886942
0.6213277
0.62287889
0.62650787
0.63050896
0.63250019
0.63264315
6.7827211
2.3659048
0.8230996
0.64823429
0.62155071
0.61591693
0.61838614
0.62015391
0.61889169
0.61653884
0.61709328
0.61843059
0.6180732
0.61540935
0.61450302
0.61590845
0.6198793
0.62225927
0.6235954
0.6268386
0.63307859
0.64011803
0.63981845
7.5588559
3.7974655
1.147661
0.69955054
0.6427412
0.62000534
0.6204845
0.62095387
0.61998764
0.61640176
0.61520872
0.61733996
0.61929264
0.61853011
0.61698808
0.61766856
0.62158198
0.62487865
0.62553084
0.62787121
0.63396818
0.6438177
0.64793046
10.103705
7.9149651
2.0223012
0.81422879
0.65484623
0.62519619
0.61929812
0.61989046
0.61890811
0.61571815
0.61505014
0.61749677
0.62122863
0.62165413
0.61891921
0.61948116
0.62336208
0.62884956
0.62993957
0.63141312
0.63623011
0.64649187
0.65310004
9.6312049
4.3910739
1.2610001
0.75426658
0.63986661
0.61780327
0.61283771
0.61541713
0.61779104
0.61618324
0.61618273
0.61958984
0.62423061
0.62392999
0.62135027
0.62086152
0.6237895
0.63128867
0.63548021
0.63648315
0.6399298
0.64759158
0.65905796
10.845123
5.9171405
1.700302
1.0073296
0.76630593
0.66101382
0.63505758
0.6310071
0.63022377
0.62542624
0.62244175
0.62420576
0.62896959
0.63118922
0.62929154
0.6257207
0.62663846
0.63236861
0.63929253
0.64357471
0.64489023
0.64846269
0.65964671
12.178648
9.1479865
6.4214713
3.3240637
1.5626089
0.88785972
0.72004679
0.67924669
0.66212402
0.6474571
0.63336446
0.62807213
0.62980605
0.63300399
0.63362685
0.63205305
0.63222791
0.63500286
0.64266033
0.64660965
0.6478123
0.64975362
0.65714842
21.203443
18.804899
5.9036321
2.8368263
1.4076976
0.86430413
0.7252374
0.67810177
0.65343062
0.63813733
0.62624488
0.62177296
0.6232633
0.62813419
0.63133059
0.63282966
0.63467067
0.63706393
0.64494707
0.65153433
0.65366949
0.65555011
0.65903066
17.388774
7.7782988
2.5942146
1.4798439
1.0045636
0.82147683
0.713093
0.67349604
0.64758449
0.63334575
0.62088991
0.61610656
0.61759208
0.62553591
0.63152806
0.6335614
0.63447758
0.63660543
0.64436308
0.65753903
0.6614958
0.66265846
0.66490207
25.63211
21.419921
4.5374612
1.9809663
1.2254621
0.93181603
0.75780765
0.69719355
0.66665891
0.64829615
0.63342964
0.62579578
0.62562189
0.6320746
0.63830136
0.63976781
0.63933663
0.64020068
0.64564563
0.6604716
0.67063623
0.67154911
0.67232465
27.235091
23.460292
13.219892
6.6602969
3.4789681
1.8548309
1.1398699
0.84337394
0.75394056
0.7102676
0.68244126
0.66018644
0.65383501
0.65738749
0.66468773
0.66364088
0.66029098
0.65690027
0.65760475
0.6672093
0.67676932
0.68001136
0.68215676
23.060694
19.084317
13.144937
7.8520862
4.4649433
2.3807721
1.3642306
0.935206
0.80338553
0.75040771
0.7165707
0.69003883
0.67705897
0.67615412
0.67864397
0.67646129
0.67144536
0.66763846
0.66733664
0.67137888
0.67973943
0.68333544
0.68470579
20.020854
12.323635
10.157267
6.9481387
4.1008422
2.2227484
1.2972364
0.91221223
0.79478969
0.74804303
0.71559167
0.6893396
0.67673373
0.6754199
0.67649974
0.67474559
0.67017583
0.66736896
0.66858696
0.67301858
0.68111038
0.68460069
0.68442512
19.834629
7.3057552
5.8135424
4.1438394
2.5581118
1.4780892
0.98016197
0.78929745
0.7360584
0.71246684
0.69258208
0.67726052
0.66993048
0.66934684
0.66910906
0.66685664
0.66318726
0.66285769
0.66603468
0.67132359
0.67952312
0.68394406
0.68334394
20.977275
5.8223848
3.2380791
2.0954442
1.3758613
0.95917718
0.77462421
0.70383183
0.67950042
0.66580727
0.65410392
0.64903223
0.65130585
0.65326278
0.65389477
0.65379411
0.65199481
0.65323153
0.65852458
0.66670258
0.67623229
0.68131297
0.67981534
22.559898
6.5229698
2.8116381
1.4954143
0.99294494
0.79006196
0.71072629
0.67737628
0.66204034
0.64915844
0.63814783
0.63403656
0.63708355
0.64184111
0.64616175
0.64667428
0.64496693
0.64565296
0.65055061
0.66038979
0.67227805
0.67799074
0.67685459
24.014892
10.616972
3.654219
1.643686
0.99792136
0.77906555
0.7085399
0.67715795
0.66314923
0.64869842
0.63713133
0.63145561
0.63400738
0.63920291
0.64443097
0.64499062
0.64324068
0.64338584
0.64719982
0.65550258
0.66843389
0.67586461
0.67475192
23.599116
11.93645
5.886908
2.697917
1.301032
0.84521609
0.73960748
0.68959167
0.67594785
0.65367475
0.64136533
0.63275179
0.63549573
0.64107542
0.64687336
0.64622283
0.64327395
0.64308852
0.64676824
0.65359692
0.66653308
0.67410513
0.67266663
22.228963
11.588804
6.3089527
3.5301748
1.7545458
0.9944991
0.78618861
0.70798728
0.68699545
0.6590661
0.64568289
0.63799885
0.64234552
0.64820519
0.65145562
0.646857
0.6430714
0.642672
0.64675308
0.65409906
0.66769067
0.67267871
0.66990343
20.814351
10.195241
6.1684883
3.610648
1.8397514
1.0360383
0.79706733
0.71341229
0.68851239
0.65924153
0.64567056
0.64101186
0.65044426
0.65427956
0.65378095
0.6468179
0.64252353
0.64199473
0.6472981
0.65862923
0.66865089
0.66999082
0.66464488
19.647203
8.0813598
5.4010031
3.3724872
1.7544116
1.0128637
0.78849252
0.71163416
0.68587625
0.65587461
0.6427258
0.64038505
0.65348593
0.65808374
0.65466606
0.64467397
0.64051612
0.64172754
0.65080526
0.66398544
0.66841674
0.66720578
0.66206241
18.663025
6.4173228
3.8620576
2.423541
1.350984
0.88708013
0.74772994
0.69603323
0.67144949
0.64292643
0.63415978
0.63983524
0.65605984
0.66020097
0.65384675
0.63955879
0.63603431
0.64243606
0.65857994
0.66647047
0.66720308
0.65989228
0.65720988
17.562229
5.274661
2.7041903
1.6164884
1.0188425
0.79062234
0.71656995
0.67934205
0.64971483
0.6291924
0.62623006
0.6408415
0.65705769
0.65977424
0.64827303
0.63352695
0.63189965
0.64585399
0.66386601
0.66703608
0.66326177
0.65596372
0.65766761
16.412269
4.5094945
1.9947041
1.1779612
0.84437831
0.73413641
0.69293635
0.66251414
0.63278406
0.62094154
0.62224788
0.64375066
0.65516219
0.65594402
0.63718626
0.62922803
0.63200218
0.65452122
0.66500553
0.66557685
0.65546428
0.65293462
0.66237497
15.214341
4.0388656
1.5980647
0.95740746
0.75948194
0.70094444
0.67427925
0.64439416
0.62206482
0.61591992
0.62175912
0.64382477
0.65136465
0.64611955
0.62872559
0.62530052
0.63569632
0.65926104
0.66405629
0.65830972
0.65086674
0.65410811
0.67647694
14.005894
3.6967538
1.3752474
0.84588147
0.71638897
0.6792708
0.65837783
0.62857833
0.61451588
0.61188796
0.62412804
0.64204138
0.6458648
0.6353534
0.62531649
0.62522399
0.64437762
0.65903987
0.66110108
0.6512054
0.64956662
0.66128406
0.69402437
12.800526
3.3905732
1.2293816
0.78533405
0.69496952
0.66625123
0.64091728
0.6178034
0.61115007
0.61102335
0.62458
0.6365425
0.63666525
0.62637435
0.62208459
0.62813543
0.64965246
0.6571574
0.65385779
0.64850183
0.65252816
0.68193083
0.70147879
11.559908
3.068123
1.1198967
0.74780343
0.67722972
0.65266586
0.62616369
0.61018027
0.60755817
0.61105539
0.62305445
0.62756933
0.62769589
0.6226324
0.62169832
0.63361693
0.64818911
0.65151895
0.64903883
0.65039664
0.66702454
0.69520183
0.70520559
10.339484
2.7345547
1.0211988
0.71928347
0.65993917
0.6360689
0.61538723
0.60812349
0.60728023
0.61179049
0.62092348
0.62272535
0.62135262
0.61990718
0.62271171
0.63710971
0.6440186
0.64529465
0.64854204
0.6578614
0.68073236
0.70066267
0.70939746
9.2518141
2.5220733
0.95636947
0.69973202
0.64678263
0.62044771
0.60835261
0.608613
0.6098143
0.61293786
0.61905558
0.62138902
0.62104014
0.62027791
0.62530227
0.63726798
0.64120919
0.64419237
0.64880557
0.66162371
0.68754033
0.70791698
0.71895761
8.342938
2.3303778
0.90842653
0.68314879
0.63585779
0.61570831
0.60661896
0.60608576
0.60969647
0.61590423
0.62025288
0.6218648
0.62271154
0.6247992
0.63211322
0.63805081
0.64157849
0.645919
0.6531778
0.67335375
0.70073208
0.7153724
0.73876868
7.4896332
2.2062871
0.87749277
0.67970947
0.63348225
0.6122486
0.60628159
0.60583934
0.6105273
0.61742232
0.62012747
0.62292126
0.62759982
0.62937036
0.63424242
0.63997005
0.64388684
0.65142759
0.66805648
0.69711357
0.71238564
0.73609109
0.78897191
6.6689953
2.0183987
0.84614986
0.67097234
0.62838809
0.61190709
0.60785635
0.60982376
0.61515578
0.61891004
0.61973998
0.62308493
0.63283139
0.63931485
0.64112174
0.64353001
0.65617357
0.67537094
0.70065038
0.71603016
0.73993135
0.7982615
0.96139113
5.9385109
1.9474232
0.83999699
0.66820186
0.62474673
0.61089057
0.60992905
0.61413905
0.6194476
0.62038649
0.62010151
0.62438109
0.6343917
0.64217353
0.64560318
0.65275458
0.66880985
0.69008041
0.71498091
0.74147013
0.80327916
0.98052641
1.5244798
5.312126
1.784111
0.81340012
0.66051096
0.62085644
0.61013664
0.61073692
0.61872951
0.62599807
0.62710454
0.6266456
0.63463142
0.64652375
0.65335574
0.65899013
0.68151471
0.71432352
0.75292325
0.80860761
0.94515531
1.2533016
1.9040018
3.0930194
5.0235768
1.8332417
0.84801023
0.66833106
0.62289125
0.61153353
0.61171769
0.61820915
0.62662701
0.6296596
0.63098582
0.63754282
0.64971109
0.6557837
0.66248998
0.68107961
0.71432804
0.75150674
0.80042734
0.91438612
1.1736379
1.7202258
2.8085188
5.0236165
1.9162524
0.89241925
0.67948858
0.62429831
0.61240668
0.6126687
0.61759387
0.62506044
0.62969786
0.63262188
0.63834104
0.65028839
0.65911852
0.66353491
0.67666178
0.70661834
0.74464504
0.78613699
0.87205437
1.0609434
1.4584361
2.3538249
5.0323041
1.9857048
0.92275157
0.6845877
0.62343113
0.61125027
0.61219852
0.61676038
0.62430269
0.62872943
0.63082263
0.63617589
0.64902623
0.66445759
0.66998278
0.67830691
0.7018834
0.73641516
0.77282716
0.84035454
0.98259753
1.2815425
2.0266039
5.0394826
1.9849971
0.93021038
0.6854636
0.62091555
0.60781509
0.60849007
0.61229791
0.62131995
0.62794797
0.6304709
0.63441619
0.64541329
0.66384222
0.67337828
0.68173446
0.70171706
0.73395679
0.76636921
0.82104023
0.93042987
1.147398
1.7342353
5.0207401
1.9653977
0.92353998
0.68024907
0.61450155
0.60231411
0.60301767
0.60612388
0.61531002
0.6257177
0.62975801
0.63391225
0.64391162
0.66181233
0.67183161
0.68087397
0.69990382
0.73144133
0.76546858
0.81511915
0.89090849
1.0471543
1.4796044
5.0687327
1.9726587
0.91697343
0.67198465
0.60579571
0.59463031
0.5965732
0.6008178
0.60949301
0.61895608
0.62353482
0.62848009
0.6394716
0.65619484
0.66795213
0.67792318
0.697012
0.72750073
0.76484117
0.80382778
0.88045252
0.98955509
1.3316445
5.1137092
1.9463891
0.89967851
0.66308925
0.59910801
0.58762836
0.58918361
0.59403428
0.60220493
0.60981319
0.61367133
0.61840454
0.62919249
0.6468394
0.66256145
0.67412388
0.69273175
0.72199048
0.7624059
0.79904299
0.86743448
0.94199244
1.2685699
5.1117297
1.8591905
0.85932618
0.64689686
0.58962078
0.57947464
0.5803143
0.58496085
0.59345485
0.60004575
0.60379082
0.6081777
0.61761366
0.63611035
0.65326903
0.66538169
0.68188527
0.70888236
0.75292211
0.78824752
0.83266104
0.94185572
1.0705708
5.1505213
1.795557
0.81776501
0.62624022
0.57672702
0.56837643
0.56958327
0.57498938
0.58421019
0.59152321
0.59556134
0.59923362
0.60771165
0.62497717
0.63772602
0.64660745
0.66308937
0.68774897
0.72497339
0.75604512
0.80659266
0.94636062
0.90645788
5.2257566
1.7560545
0.79069834
0.61072018
0.56712664
0.56016287
0.56103022
0.56632145
0.57513204
0.58242044
0.5858328
0.58983438
0.59937518
0.61327771
0.62238443
0.63172943
0.64898733
0.67170415
0.70414297
0.74294238
0.81184345
0.97439522
1.4265501
5.2656935
1.6515413
0.75268423
0.59606263
0.55783895
0.55283974
0.55391931
0.55964011
0.56758838
0.57405559
0.57765711
0.58273512
0.59318884
0.60564876
0.61505016
0.62578373
0.64294888
0.66523012
0.70008545
0.76029383
0.9199029
1.3402802
2.1230295
5.3033761
1.5041406
0.70997044
0.5808473
0.54981172
0.54591228
0.54781702
0.55483107
0.56283776
0.56941197
0.57447096
0.58135192
0.59239028
0.60412783
0.61299802
0.62458965
0.64273411
0.66885378
0.72672215
0.91486833
1.4992698
2.0987079
2.4732066
5.3330517
1.3737832
0.67219998
0.56800321
0.54586935
0.54319726
0.54617446
0.55389459
0.56211798
0.56876386
0.57443948
0.58199918
0.59287744
0.60421004
0.6141678
0.62831044
0.65055615
0.70103209
0.88234395
1.4979319
2.1219267
2.4303677
2.6250232
5.3471731
1.2760948
0.64277151
0.56175027
0.54541689
0.54349269
0.54701412
0.55503497
0.56327783
0.56978799
0.57558312
0.58414354
0.59525467
0.60754879
0.62014318
0.63963006
0.68107289
0.82379088
1.348756
2.084195
2.443967
2.6014313
2.6956044
5.3449167
1.2013615
0.62502905
0.56162751
0.54674917
0.54510462
0.54923228
0.55732101
0.56530817
0.57221973
0.58002542
0.59240784
0.60381515
0.61659706
0.63470343
0.67622506
0.80347659
1.2260281
2.0676821
2.4539387
2.5926823
2.6468382
2.6863016
5.3471821
1.1243844
0.62115587
0.56425174
0.55152301
0.55087544
0.55614449
0.56433789
0.57250662
0.58054285
0.59182022
0.60559722
0.61981934
0.64380262
0.70310414
0.86484181
1.352024
2.0944636
2.4208416
2.5264799
2.573014
2.5860811
2.5887599
5.3506576
1.0900473
0.62447904
0.57346033
0.56358411
0.56514168
0.57177478
0.5827954
0.58816717
0.59928009
0.61601205
0.64155583
0.69414947
0.81658615
1.112686
1.6396078
2.1077437
2.3315271
2.4210962
2.460311
2.4519179
2.433937
2.452799
5.3209982
1.0623434
0.64091372
0.59808401
0.58988398
0.59322007
0.60598294
0.60736654
0.62011159
0.64891424
0.71240296
0.84506237
1.1348423
1.5334648
1.8958928
2.1083806
2.2410256
2.3142265
2.3461797
2.3364404
2.3095207
2.2718731
2.3060206
5.3086644
1.0437294
0.67592614
0.63784062
0.63831113
0.63864064
0.645145
0.66377258
0.7286015
0.87915599
1.2056418
1.5608769
1.834488
1.9988304
2.1154962
2.1878921
2.2295011
2.2482938
2.2349451
2.1948782
2.1086174
1.9880292
1.9652807
5.3630845
1.0509873
0.71946932
0.68621628
0.68531287
0.69321927
0.73602427
0.87249328
1.2025656
1.5878223
1.834396
1.9781618
2.0727514
2.1295586
2.1588157
2.1712488
2.1637053
2.1192804
2.0325597
1.8848625
1.7410065
1.6725879
1.6627909
5.3936178
1.1009976
0.81525719
0.77783077
0.76272426
0.81055984
1.0220695
1.5410153
1.8401506
1.9844139
2.0813656
2.1321512
2.1510541
2.150125
2.1369026
2.0964061
2.005821
1.8732167
1.716363
1.5997312
1.5379891
1.4910971
1.4699949
5.395417
1.2620313
0.93387338
0.85141852
0.88989963
1.1159893
1.732819
2.0058037
2.1233684
2.184232
2.2054752
2.198202
2.1614014
2.119369
2.0458789
1.9450158
1.8238261
1.6833253
1.5632334
1.4868023
1.4340598
1.3928363
1.3516928
5.3630637
1.3016112
1.0238316
0.95226527
1.20971
1.7857384
2.1071391
2.2274981
2.2797619
2.2899198
2.2569081
2.1988454
2.1290327
2.0271794
1.9328727
1.8418494
1.744757
1.6397194
1.5387791
1.4517411
1.3862141
1.337518
1.2917747
5.7195361
1.2907863
1.0780563
1.192143
1.6807792
2.1175738
2.2636404
2.3291646
2.3439679
2.3125145
2.2457112
2.1580364
2.0484142
1.9569374
1.8754568
1.800459
1.7286934
1.6539241
1.5722102
1.4845027
1.3994455
1.3269899
1.2680622
6.256144
1.4180172
1.1402733
1.3742906
2.0416192
2.288341
2.3725788
2.3957582
2.374382
2.3006298
2.2007389
2.0871047
1.9937388
1.9167255
1.8498217
1.7883636
1.7306675
1.6756411
1.6217885
1.5627318
1.4926833
1.4124263
1.3261874
6.2820801
1.8274167
1.267564
1.6413021
2.2486217
2.3739329
2.4219276
2.4254059
2.3741544
2.2779982
2.1572893
2.0526388
1.9677634
1.8946961
1.8302958
1.7744598
1.7260389
1.6809717
1.6408473
1.604814
1.5679397
1.5239467
1.4674154
6.7129419
1.712804
1.3472072
1.8770504
2.2485637
2.3714263
2.413929
2.4140987
2.3539156
2.235741
2.1172153
2.0248878
1.9491107
1.8811184
1.8183261
1.762342
1.7134789
1.6716137
1.6355959
1.6062434
1.5829651
1.5614051
1.5356393
7.0218801
1.6060274
1.3425587
1.9170064
2.2197861
2.339296
2.3730338
2.3613629
2.2849087
2.1690707
2.0700136
1.990099
1.9221213
1.8602227
1.8017133
1.748047
1.6996153
1.6573772
1.622508
1.5953006
1.573994
1.5578373
1.5454221
8.1794756
1.6827551
1.2999287
1.8849053
2.1461273
2.2684809
2.2983933
2.2810383
2.2067975
2.1106587
2.0283779
1.9605357
1.8981418
1.8380517
1.7805347
1.7264354
1.6774789
1.6345666
1.5986477
1.5703182
1.5507968
1.5391987
1.5333314
9.6959916
2.1560494
1.2472324
1.7887201
2.047467
2.148067
2.1898985
2.190226
2.138722
2.0594652
1.9863103
1.9270031
1.8733562
1.8192353
1.7660118
1.714293
1.6645577
1.6188443
1.5794891
1.5466249
1.5212111
1.5051244
1.4991498
10.113541
3.1533767
1.2811878
1.5277975
1.9200833
2.0492101
2.0854321
2.0840591
2.0548096
1.994115
1.927223
1.8679954
1.8198362
1.7782773
1.7378172
1.6977767
1.6573016
1.6166604
1.578114
1.5429552
1.5130743
1.4899187
1.4730558
9.8662426
4.7650996
1.5098926
1.3860944
1.6159213
1.9141544
2.0105632
2.0210639
1.9984018
1.9515984
1.8913276
1.835002
1.7841355
1.7405078
1.7022917
1.6685076
1.638809
1.6114967
1.5841807
1.5560276
1.5263173
1.4978058
1.4704607
9.2764639
6.4411039
2.137851
1.4261557
1.4324308
1.5993377
1.8617028
1.9552777
1.9649507
1.9415719
1.8935
1.8384325
1.7864678
1.740503
1.6999171
1.6644999
1.6338796
1.6082021
1.5864695
1.5700109
1.5598853
1.5484046
1.5176277
8.680616
7.0160127
3.6153099
1.7271692
1.438338
1.4497288
1.5601075
1.7764661
1.894312
1.917493
1.8996561
1.8666556
1.8179842
1.7635977
1.7167379
1.67667
1.6430492
1.6148966
1.5923844
1.5753207
1.5660006
1.5696986
1.561227
7.9457904
6.86704
4.8508236
2.764419
1.6514872
1.4574061
1.4418722
1.5070122
1.6577274
1.8149571
1.8676418
1.8658576
1.8525715
1.8252274
1.7872575
1.7428917
1.6984125
1.6567971
1.6242272
1.5994479
1.583342
1.5842934
1.5803074
6.8894948
6.0849711
4.9023246
3.668017
2.3694604
1.6244066
1.4532388
1.4147464
1.4459872
1.5306587
1.6842503
1.7903232
1.824183
1.8229953
1.814385
1.7972391
1.776676
1.752274
1.7223658
1.6916929
1.6625914
1.6511402
1.626772
6.4132385
4.3377278
4.4221246
3.7763481
2.9897094
2.1909414
1.6127316
1.4364597
1.3792867
1.3662456
1.407296
1.5073922
1.6352449
1.725954
1.7656163
1.7776578
1.7747022
1.7676092
1.7575601
1.7461309
1.7297268
1.7212249
1.7000673
6.4675886
4.0961115
3.65529
3.5682033
3.1196308
2.6428579
2.1199005
1.6289693
1.4154484
1.3270675
1.2812747
1.2956682
1.33742
1.4233988
1.5329611
1.628782
1.6866299
1.7156737
1.7278999
1.7313015
1.7271005
1.7240597
1.7213708
7.0187566
4.1437261
3.104464
3.0060336
2.9430365
2.6885579
2.3724509
2.0161597
1.6404317
1.3911732
1.2810679
1.2195612
1.1982181
1.2133592
1.2497587
1.3059547
1.3874763
1.4710378
1.5418295
1.6009124
1.6395513
1.6573208
1.7027876
7.5536881
3.6535536
2.417355
2.3300867
2.4162646
2.4879762
2.3551756
2.1095986
1.8238314
1.560411
1.3483315
1.2194801
1.1481212
1.1102401
1.0988573
1.1097946
1.136444
1.1739902
1.2346141
1.2824028
1.3579656
1.4049873
1.4748064
7.6442787
2.5175258
1.9599845
1.9702396
2.0646907
2.193904
2.2115551
2.0772593
1.811455
1.5599508
1.351572
1.2102371
1.1213685
1.0587284
1.0221527
1.0048912
1.0052634
1.0131106
1.0382049
1.0621246
1.1135459
1.1433152
1.213041
7.5834032
2.0287512
1.8419214
1.862392
1.8833729
1.9385882
1.9659549
1.9099384
1.6965475
1.4826226
1.3029339
1.1715883
1.0803261
1.0172743
0.97850682
0.95290843
0.9399407
0.93577348
0.94092151
0.94859404
0.96452084
0.97764936
1.0391473
7.4562794
1.8906233
1.7952849
1.7505237
1.664274
1.6186732
1.5735101
1.4982703
1.3734534
1.2551866
1.1573617
1.0760244
1.00436
0.95994731
0.92813917
0.9045023
0.88931413
0.87831121
0.8724627
0.87059835
0.88000409
0.87195851
0.89634433
7.3156894
1.8406603
1.6743917
1.5499554
1.3882131
1.2852927
1.1996875
1.1255195
1.061892
1.007536
0.96210229
0.92339453
0.88877924
0.86195573
0.840659
0.82327035
0.81295957
0.80293375
0.80103401
0.79950675
0.80278279
0.81799709
0.78889102
7.1818616
1.811979
1.4899172
1.3272261
1.1351545
1.0205137
0.93927191
0.88335129
0.84947341
0.82564202
0.80403465
0.78513912
0.77090704
0.75472394
0.74344879
0.73305224
0.7275902
0.72295636
0.72241465
0.72362452
0.72636977
0.7389924
0.76771072
7.0632782
1.7922607
1.3311213
1.137516
0.94052598
0.83027103
0.76613826
0.73003257
0.7113554
0.69889279
0.68844905
0.67849148
0.67353427
0.66466709
0.66022835
0.65576271
0.6539934
0.65419811
0.65399445
0.65701591
0.66201338
0.66738408
0.76395174
6.9635417
1.749994
1.1929648
0.97902444
0.79149541
0.69655777
0.65190701
0.63051543
0.61959027
0.61167074
0.60678551
0.6012928
0.60004402
0.59626835
0.59561321
0.59528783
0.59636565
0.59953549
0.60056676
0.60519432
0.60819682
0.63280461
0.850601
6.884932
1.6912016
1.0668768
0.84441429
0.68111947
0.60765646
0.57864131
0.565946
0.55913971
0.55400474
0.55198196
0.54928361
0.54959987
0.54871382
0.54981035
0.55107617
0.55358083
0.5564999
0.55954572
0.56297406
0.56631565
0.63725351
0.9536787
6.8205463
1.6373977
0.95499859
0.73519734
0.60275336
0.54987627
0.53151026
0.52383794
0.51976797
0.51689937
0.51639133
0.51541119
0.51639152
0.51671594
0.51844851
0.51986057
0.52258669
0.52493411
0.52807725
0.53122897
0.54377072
0.64863722
1.0178199
6.772102
1.5863554
0.85639271
0.65014281
0.54789965
0.51195035
0.50057184
0.49595403
0.49374785
0.4924508
0.49272584
0.49272847
0.49395356
0.49461575
0.49630916
0.49752453
0.49969008
0.50149813
0.50396622
0.50823064
0.53176661
0.69120056
1.1102733
6.7357106
1.5283807
0.77169756
0.58678689
0.51033987
0.48677525
0.47985417
0.47724659
0.47624886
0.47594481
0.47661958
0.47714046
0.47827377
0.47893646
0.48021858
0.48127353
0.48284946
0.48448606
0.4869971
0.49181458
0.52086312
0.71111995
1.1529668
6.7101643
1.4802307
0.70682994
0.54267128
0.48599593
0.47030418
0.46600582
0.46465549
0.46439449
0.46462303
0.46540364
0.46605445
0.46693765
0.46752556
0.46840579
0.46937847
0.47066343
0.47244177
0.47483048
0.47903192
0.50805184
0.70288965
1.1192056
6.6940742
1.4383973
0.65806548
0.51308082
0.47033505
0.45939046
0.456573
0.45590816
0.45601147
0.4565204
0.45731688
0.45792763
0.45869617
0.45907979
0.45977465
0.46044597
0.46163459
0.4630214
0.46471466
0.46750086
0.49752993
0.68970999
1.1153759
6.6848907
1.4009393
0.62128105
0.4933099
0.46028306
0.45193194
0.4498913
0.44953593
0.44979542
0.45034592
0.45109281
0.45157923
0.45225847
0.4523735
0.45290844
0.45322601
0.45418478
0.45504208
0.45579384
0.45904718
0.49531987
0.69813518
1.1608427
6.6846092
1.3644105
0.59399598
0.48033303
0.45384448
0.44694567
0.44524994
0.4449477
0.44516044
0.44560859
0.44619637
0.44660317
0.44718837
0.44724507