/*--------------------------------*- C++ -*----------------------------------*\
| =========                 |                                                 |
| \\      /  F ield         | OpenFOAM: The Open Source CFD Toolbox           |
|  \\    /   O peration     | Version:  2406                                  |
|   \\  /    A nd           | Website:  www.openfoam.com                      |
|    \\/     M anipulation  |                                                 |
\*---------------------------------------------------------------------------*/
FoamFile
{
    version     2.0;
    format      ascii;
    arch        "LSB;label=32;scalar=64";
    class       volScalarField;
    location    "25";
    object      p_0;
}
// * * * * * * * * * * * * * * * * * * * * * * * * * * * * * * * * * * * * * //

dimensions      [1 -1 -2 0 0 0 0];

internalField   nonuniform List<scalar> 
20580
(
0.99877108
1.0016159
0.99371836
0.99389981
0.99507883
0.99073187
0.99161071
0.99085566
0.98987782
0.98952357
0.98950283
0.98850744
0.98933068
0.9884578
0.98835119
0.98956963
0.98971351
0.98920753
0.99231703
0.9911198
0.98935371
0.9918427
0.99291907
0.99330575
0.98978092
0.99317088
0.99372869
0.99247551
0.9932093
0.99349897
0.98483715
0.99878746
1.001731
0.99365111
0.99308244
0.99541821
0.99113249
0.99163137
0.99106727
0.98990616
0.98965238
0.98919374
0.98846172
0.98948943
0.98816298
0.98804535
0.98989664
0.9894835
0.98900393
0.99277968
0.98985376
0.98949265
0.99277273
0.9924672
0.99243726
0.98984404
0.99421202
0.99500695
0.99256209
0.99096281
0.9914803
0.99115618
1.000147
1.0013042
0.994895
0.99340499
0.99504466
0.99247031
0.99191449
0.99147701
0.99022026
0.98975702
0.98887528
0.98848074
0.98916601
0.98804539
0.98819038
0.99002004
0.98928395
0.98899766
0.99235429
0.98884631
0.98983909
0.994318
0.99199568
0.9918802
0.98964085
0.99418952
0.9952975
0.99125907
0.98943021
0.98818152
0.99251696
1.0024713
1.0005456
0.99707986
0.99472682
0.99411666
0.99406413
0.99227797
0.99178959
0.99065591
0.98986739
0.98869162
0.98864538
0.98890871
0.98824676
0.98844619
0.98971542
0.98912737
0.98958893
0.99200666
0.98861154
0.99035222
0.99553964
0.99149042
0.99205579
0.99033667
0.99297737
0.99471764
0.98964107
0.9888802
0.98841277
0.99214796
1.0049341
0.99986425
0.99945358
0.99623505
0.99311321
0.99492135
0.9924103
0.99161726
0.99079066
0.98990456
0.98879537
0.98877022
0.98844737
0.98826281
0.9889535
0.98937046
0.98885146
0.99020307
0.99139597
0.98917455
0.99074112
0.99536811
0.99054141
0.99264809
0.99152526
0.99088998
0.99338441
0.98914656
0.98727878
0.98971538
0.99384368
1.0063953
0.99950115
1.0008098
0.99737972
0.99250436
0.99454983
0.99222016
0.99091566
0.99056808
0.98969047
0.98912659
0.98896818
0.98820747
0.98828527
0.98942042
0.98915933
0.98869584
0.9905795
0.99039366
0.99010451
0.99157742
0.9940242
0.98888769
0.99289869
0.99315075
0.98860745
0.99106445
0.99087882
0.98668113
0.98849869
0.99219527
1.0061539
0.99958973
1.0003929
0.99773152
0.99262207
0.99328133
0.9919585
0.99029168
0.99049954
0.98938449
0.98924505
0.98903775
0.98815138
0.98849317
0.98941327
0.98888484
0.9886706
0.99079565
0.98918661
0.99059588
0.99268009
0.99281109
0.98745738
0.99113529
0.99480359
0.98873036
0.98835285
0.99328303
0.99009622
0.98860342
0.98796231
1.0044444
1.0002722
0.99866403
0.99677954
0.99342986
0.99187411
0.99171527
0.99036267
0.99059617
0.98920572
0.98896705
0.98894266
0.98803723
0.98877903
0.98925148
0.98854228
0.98865111
0.99087087
0.98768905
0.99063755
0.99314219
0.99191573
0.98852859
0.98933285
0.99456585
0.99181493
0.98662786
0.99276759
0.9942071
0.99258527
0.98812336
1.0019556
1.0013538
0.99651824
0.99487844
0.99444879
0.9911863
0.99161158
0.99121054
0.99074663
0.98922132
0.98873125
0.98873355
0.98789507
0.98885371
0.98859746
0.98819324
0.98855705
0.99104025
0.9872713
0.990716
0.99227634
0.99067645
0.9908873
0.98972956
0.99303457
0.99428546
0.98835699
0.99006955
0.99479143
0.99574943
0.99165057
0.99959942
1.002214
0.9948483
0.99322264
0.99517172
0.99156738
0.99163568
0.99224652
0.99078759
0.98938818
0.98894438
0.98861622
0.98806296
0.98860087
0.98786109
0.98793349
0.98825998
0.99084062
0.98785571
0.99120472
0.99138199
0.98924622
0.99224137
0.99055327
0.99195261
0.99335616
0.9915356
0.98899956
0.99266285
0.99473107
0.99258271
0.99855419
1.0022867
0.99430352
0.99266106
0.99530133
0.99291372
0.99171124
0.99257209
0.99051247
0.98965738
0.98939503
0.98858407
0.98857235
0.98836345
0.98764573
0.9883199
0.98864926
0.98997883
0.98859482
0.99143309
0.9910485
0.9884629
0.99264356
0.99112782
0.99156787
0.99098771
0.99253461
0.98937233
0.99051019
0.99162396
0.99186837
0.99942087
1.0016171
0.99531692
0.99323598
0.99480877
0.99430176
0.99197592
0.99188333
0.99004992
0.99001001
0.9896009
0.98854758
0.98896636
0.98822568
0.98784856
0.9888192
0.98928225
0.98891304
0.98919777
0.99139721
0.99099099
0.98832973
0.99313175
0.99195497
0.99048587
0.98980811
0.99257464
0.99026202
0.98912741
0.98862782
0.99075308
1.0017069
1.000579
0.99734007
0.99489122
0.99401477
0.99474266
0.99237739
0.99078573
0.98982264
0.99026772
0.98937962
0.9884142
0.98901835
0.98832024
0.9880972
0.98898666
0.98998833
0.98802567
0.98963343
0.99121132
0.99107773
0.98794143
0.99339296
0.99359843
0.98915545
0.98887901
0.99314468
0.99216108
0.9887004
0.98603056
0.9880239
1.0043103
0.99958311
0.9992259
0.99706989
0.9932676
0.99421138
0.99260685
0.99016621
0.99006972
0.99028338
0.98902466
0.98823277
0.98871531
0.9885085
0.988202
0.98868436
0.99037248
0.98754778
0.98999702
0.99061055
0.99108045
0.98767633
0.99249125
0.9952098
0.98910891
0.98768383
0.9924452
0.99428606
0.99042581
0.98558412
0.98569381
1.0059122
0.99897306
1.0000149
0.99842263
0.99287885
0.99280224
0.99254288
0.99053597
0.99065295
0.9899834
0.98890748
0.98830384
0.98820716
0.98846678
0.98819844
0.98783674
0.98990724
0.9874533
0.99063439
0.98987585
0.99071062
0.98871021
0.99041363
0.99441603
0.99020192
0.98775545
0.99009255
0.99424504
0.99330681
0.98836303
0.98712751
1.0060577
0.99926434
0.99952424
0.99799624
0.99310649
0.99142944
0.99223383
0.9915735
0.99127959
0.98959881
0.98898279
0.9886859
0.98812306
0.98820979
0.98842184
0.98741332
0.9890169
0.98720809
0.9910627
0.98922438
0.98976255
0.99131637
0.98945435
0.99071729
0.99119447
0.99005407
0.98825347
0.99149202
0.99401792
0.99192509
0.9913603
1.0040719
1.0004444
0.99799778
0.99645476
0.99382248
0.99134741
0.99178632
0.99240931
0.99153749
0.98943082
0.98922103
0.98920789
0.9883635
0.98777747
0.98863518
0.98786267
0.98862783
0.98721246
0.99126673
0.98860649
0.98810087
0.99354572
0.99093209
0.98700344
0.99103063
0.99327883
0.98918991
0.98846229
0.9914938
0.9931614
0.99429262
1.0010956
1.0019271
0.99632185
0.99419324
0.99462236
0.99252346
0.99158588
0.99243287
0.99115615
0.98961083
0.98946229
0.98932765
0.9886789
0.98743456
0.98883892
0.98852193
0.98856125
0.98795601
0.99135102
0.98837107
0.98677889
0.99356855
0.99340641
0.98564538
0.98957585
0.99504549
0.99261849
0.98741156
0.9878179
0.9916027
0.99423461
0.99891737
1.002762
0.9954622
0.99255564
0.99514981
0.99427077
0.99182895
0.99176639
0.99042128
0.9900527
0.98940777
0.98884471
0.98888933
0.98763372
0.98906842
0.98877311
0.98820981
0.98860789
0.99111314
0.98886876
0.98708675
0.99179285
0.99429403
0.98696777
0.98837344
0.99389972
0.99565544
0.98870447
0.98578531
0.98935388
0.99294917
0.99884711
1.0025832
0.99565748
0.99235679
0.99523589
0.99534587
0.99231308
0.99108198
0.98992066
0.99048681
0.98925543
0.98837172
0.98856844
0.9882252
0.98895021
0.98874051
0.98761636
0.98869668
0.99005819
0.98940501
0.98878601
0.99067856
0.99250284
0.98941589
0.9889102
0.99097747
0.99512014
0.99084234
0.98636887
0.988159
0.99154726
1.0007105
1.0014792
0.99683822
0.99398961
0.99470446
0.9949901
0.99268735
0.99096782
0.99002899
0.99055455
0.9891644
0.98833961
0.98807483
0.98866174
0.98844834
0.98865603
0.9872983
0.98889493
0.98822962
0.98959318
0.99076383
0.99016805
0.98981182
0.99101284
0.99104355
0.98940096
0.99104584
0.99173816
0.98972087
0.98923607
0.98978426
1.0038352
1.0000672
0.99833421
0.99684606
0.99395847
0.99292464
0.99260165
0.99154423
0.99082791
0.99031913
0.98939236
0.98885495
0.9880019
0.98884305
0.98783873
0.98852576
0.98743055
0.98982648
0.98696363
0.98953055
0.99171771
0.9901842
0.98800885
0.99126162
0.99312236
0.99042739
0.98691875
0.99030513
0.99379996
0.99242686
0.98849337
1.0063842
0.99902637
0.99928423
0.99891107
0.99334792
0.99107351
0.99214891
0.99211488
0.99180545
0.98980927
0.98979502
0.98948342
0.98812615
0.98910764
0.98736192
0.98831596
0.98768559
0.99100894
0.98657287
0.98938176
0.9926655
0.98986053
0.98764944
0.99016832
0.9936953
0.99269043
0.98500825
0.98728275
0.99547914
0.99570668
0.98850429
0.99086131
0.99072122
0.99171623
0.99078636
0.9904253
0.99198005
0.99295983
0.99038562
0.9883975
0.99057494
0.99341433
0.99205627
0.98884163
0.98811419
0.98713029
0.9855762
0.99048003
0.99675021
0.9947976
0.99036229
0.98964882
0.9864567
0.98211847
0.99008943
0.99039846
0.98891299
0.98672421
0.98620864
0.98796966
0.98893397
0.98786931
0.98992435
0.99477532
0.99522037
0.9909564
0.98795764
0.9878958
0.98825345
0.98887884
0.9910105
0.99231914
0.9885019
0.98461039
0.98574856
0.98841421
0.9911511
0.99364079
0.99124281
0.98895453
0.98810557
0.9890039
0.98923605
0.98868079
0.98879658
0.99049037
0.99054775
0.98731163
0.98499761
0.98699131
0.99175575
0.99526336
0.99441549
0.99163495
0.98845159
0.98332394
0.98107734
0.98313948
0.9878085
0.99219198
0.99028519
0.99043481
0.9902466
0.99188849
0.99278504
0.99250075
0.99189757
0.99121219
0.98874146
0.98534808
0.98362289
0.98449446
0.98729899
0.9905411
0.99213796
0.99221158
0.99188616
0.98922403
0.985748
0.98559521
0.98829936
0.99032924
0.98877958
0.98076457
0.98033208
0.98508394
0.98676248
0.98841489
0.98997536
0.9904259
0.98875881
0.98590412
0.98551713
0.98854718
0.99225407
0.9926567
0.98896199
0.9842287
0.98228695
0.98379353
0.98537585
0.98716834
0.99158035
0.99616793
0.99575666
0.98938016
0.99207276
0.98850704
0.98836951
0.98430833
0.98573185
0.98603317
0.98651119
0.9851695
0.98516071
0.9889024
0.99422023
0.99642875
0.99415273
0.98896204
0.98396525
0.98162243
0.98169092
0.98235541
0.98403207
0.98831293
0.99321166
0.99360184
0.98858255
1.0015285
0.99472861
0.99196087
0.98952578
0.98837463
0.98744578
0.98660067
0.98640381
0.9880622
0.99066727
0.99175089
0.98983914
0.98672048
0.98490901
0.9860428
0.98904801
0.99083902
0.98942302
0.98676148
0.98524016
0.98494807
0.9831817
0.98008966
0.98200829
0.98272011
0.98666281
0.98705946
0.9887467
0.98995522
0.99022667
0.99024494
0.98982644
0.98808292
0.98489435
0.98059129
0.97782792
0.97919065
0.98498785
0.99233117
0.99649379
0.99565002
0.99169248
0.98745699
0.98380655
0.98019456
0.97747452
0.97756427
0.97921044
0.98322022
0.98716484
0.99028677
0.99138809
0.99105941
0.99035856
0.98925889
0.98757922
0.98425159
0.98098898
0.97971541
0.9813035
0.98492207
0.98865895
0.99039127
0.98982636
0.98813053
0.98654281
0.98531186
0.98475603
0.98503081
0.98809168
0.97878125
0.98836871
0.9878334
0.98960752
0.98776357
0.98591075
0.98445619
0.9846379
0.98578265
0.98732342
0.98890627
0.99031941
0.99049503
0.98929218
0.98667596
0.98323314
0.98035035
0.97911703
0.97963688
0.98209949
0.98614726
0.99027879
0.98738154
0.99069322
0.99009746
0.98699078
0.98497243
0.98062815
0.97783111
0.97662123
0.97840996
0.9826293
0.98818436
0.9932772
0.99626157
0.99580546
0.9923228
0.98702554
0.98172331
0.97773888
0.97559168
0.97529167
0.97732553
0.98210408
0.9879495
0.99661513
0.99367935
0.99064943
0.98662682
0.98281973
0.97932213
0.97710248
0.97666709
0.97870055
0.98303926
0.98846676
0.99288204
0.9945439
0.99325138
0.98999517
0.98609394
0.9824437
0.97949528
0.97797005
0.97837963
0.97984999
0.98123868
0.98287036
0.99034078
0.98931418
0.98823978
0.98615892
0.98433653
0.98274572
0.98189819
0.98204629
0.98320623
0.98508689
0.98700768
0.98805695
0.98772691
0.98622118
0.98407596
0.98207796
0.98094444
0.98081493
0.98191647
0.98401888
0.98536622
0.98474129
0.98240084
0.98033132
0.98081076
0.98237059
0.98432095
0.9866464
0.98797965
0.98830173
0.98781123
0.98668573
0.98541555
0.98428613
0.98288304
0.98134412
0.97967688
0.97816628
0.97755763
0.97863397
0.98152703
0.98542793
0.98865245
0.98975662
0.98790931
0.98384938
0.97288358
0.97511021
0.97878797
0.98336161
0.98811987
0.99133177
0.99269345
0.99188794
0.98931663
0.98609641
0.98269533
0.97905393
0.97639199
0.97499176
0.97503003
0.97649366
0.97944342
0.98328222
0.98705147
0.98982942
0.99102469
0.989771
0.98600407
0.97225645
0.97462391
0.97879826
0.98354035
0.98871063
0.99201266
0.99335633
0.99262993
0.98990048
0.98629136
0.98247336
0.97881094
0.9763023
0.97505746
0.97533433
0.97690501
0.97952547
0.98267384
0.98585971
0.98855834
0.99002834
0.98932759
0.98669686
0.97633013
0.97737652
0.97988462
0.98281179
0.98575994
0.98827948
0.98969644
0.98974316
0.98840092
0.98597433
0.9834495
0.98105278
0.97916851
0.97780333
0.97754086
0.97838977
0.98005613
0.98209096
0.98447714
0.98634849
0.98730804
0.98690135
0.98509104
0.98057709
0.9808701
0.98161642
0.98229288
0.9830671
0.98400789
0.98484126
0.98554165
0.98590455
0.98542155
0.98468563
0.98341626
0.98211964
0.98069909
0.97983384
0.97978481
0.98038725
0.9815777
0.98288786
0.98417648
0.98466247
0.9839959
0.98231348
0.98490824
0.98442927
0.98341534
0.98267376
0.98158339
0.98113881
0.98135602
0.98207354
0.98345705
0.98463321
0.98541395
0.98527267
0.98436634
0.98268619
0.98097001
0.97994075
0.98019211
0.98142182
0.98290084
0.98388135
0.98392679
0.98298553
0.9813287
0.98789168
0.98692245
0.98515531
0.98305509
0.98104273
0.97961972
0.97923597
0.97975297
0.98113818
0.98299676
0.98477588
0.9856103
0.98575593
0.98489563
0.98334751
0.98193219
0.98140811
0.98186546
0.98284949
0.98361325
0.98372519
0.98308504
0.98191088
0.9878258
0.98717036
0.98581763
0.98402647
0.98224583
0.98057527
0.97938215
0.97898091
0.97974964
0.98132049
0.98317789
0.98495654
0.98625084
0.9865108
0.98570078
0.98423667
0.98275969
0.98175496
0.98146806
0.9814987
0.98144569
0.98121897
0.98093165
0.98783485
0.98710448
0.98577277
0.98388254
0.98196206
0.98021314
0.97920424
0.97923299
0.98043355
0.9826552
0.98512014
0.98720047
0.98826788
0.98792779
0.9861901
0.98374416
0.98157372
0.98039711
0.98028598
0.98066374
0.98112396
0.98153738
0.98151298
0.98964473
0.98795857
0.98524547
0.9819062
0.97922121
0.97804289
0.97873177
0.98103923
0.98404229
0.98672147
0.98851985
0.98914891
0.98853586
0.98667458
0.98389569
0.98113007
0.97961456
0.98022688
0.98250179
0.98471752
0.98540427
0.98428143
0.98241978
0.98610079
0.98570847
0.98438822
0.98257216
0.9810543
0.98108048
0.9830855
0.98621116
0.98875347
0.98955194
0.98835417
0.98577808
0.98313918
0.98136738
0.9805285
0.98041389
0.98123752
0.98372874
0.98702751
0.98860986
0.98716209
0.98404112
0.98159861
0.98161821
0.98202552
0.98242206
0.98354759
0.98546789
0.98773974
0.99023888
0.99180087
0.99170824
0.98970546
0.98609578
0.98201316
0.97878693
0.97747457
0.97861919
0.98185879
0.98569937
0.98815267
0.98856619
0.9876918
0.98628992
0.98482073
0.9837708
0.97560576
0.97848849
0.98270669
0.98712027
0.99113129
0.99419124
0.99518103
0.99379838
0.99097449
0.98777872
0.98450203
0.98162704
0.97967964
0.97930184
0.98113354
0.9847079
0.98825887
0.98982328
0.98938082
0.98838877
0.98747344
0.98611185
0.9839308
0.97290103
0.97759843
0.98512214
0.99277633
0.99878751
1.0000388
0.99782287
0.99352229
0.98778178
0.98268451
0.98031491
0.98084842
0.98272041
0.98427654
0.98518515
0.98661851
0.98941501
0.99196783
0.991807
0.98931482
0.98681212
0.9849681
0.98230724
0.98376433
0.98458258
0.98823431
0.99379529
0.99777843
0.99838903
0.9946521
0.98833077
0.98294375
0.98013228
0.98013387
0.98261423
0.9859991
0.9880864
0.98795349
0.98737761
0.98892865
0.99159208
0.99257589
0.99133981
0.98884526
0.98531147
0.98124171
1.0014361
0.99618511
0.99041529
0.98582799
0.98436409
0.98561885
0.98764519
0.98886783
0.98881769
0.98850725
0.98825975
0.98809059
0.98820827
0.98910484
0.98996838
0.98888753
0.98740172
0.98892364
0.99166479
0.99169362
0.9888924
0.9845744
0.98127992
1.0065208
1.0004354
0.99005919
0.98054767
0.97618446
0.97870557
0.9860166
0.99421211
0.99907506
0.99896254
0.9952745
0.99109906
0.98900697
0.98896942
0.98995763
0.99082404
0.98919007
0.98601367
0.98493658
0.98529494
0.98721897
0.9915382
0.9942038
0.99257159
0.99428413
0.99426595
0.99267711
0.9902399
0.98777805
0.98707052
0.98886385
0.99273939
0.99628832
0.99745222
0.99597763
0.99269657
0.99032875
0.98909487
0.98840974
0.98710172
0.98467911
0.9838814
0.98771873
0.99399334
0.99823181
0.99665511
0.98799506
0.98890673
0.99364844
0.99987972
1.0030933
1.0000806
0.99193738
0.9842207
0.98288925
0.98841557
0.99708532
1.0027593
1.0012062
0.99386563
0.9861796
0.98286187
0.9838231
0.98795434
0.99315427
0.99746819
0.99879742
0.99642897
0.99109343
0.9953602
0.99273347
0.99126514
0.99339153
0.99863905
1.0029887
1.0025184
0.99697719
0.9901396
0.98762833
0.99029015
0.99520039
0.99764026
0.99542471
0.99078347
0.98773181
0.98981991
0.99501719
0.9994949
0.99928542
0.9923645
0.98447905
0.98408463
1.0017222
0.99967652
0.99635892
0.99335247
0.99398833
0.99907341
1.0059628
1.0075263
1.0002771
0.98786737
0.97963959
0.98100585
0.99039455
1.0014699
1.0074451
1.0049973
0.99700557
0.99021879
0.98720519
0.9852091
0.98293217
0.98341096
0.99278667
1.0017833
1.0029174
1.0033191
1.0007144
0.99561399
0.99175913
0.99254568
0.99710091
1.000334
0.99817234
0.99302425
0.99121965
0.99513756
1.0017677
1.0044459
0.99893321
0.98977366
0.9853077
0.98726227
0.99051153
0.99179348
0.99288625
0.99639916
1.0022552
1.0020708
1.0034537
1.0039886
1.0002913
0.9931157
0.98856031
0.99141805
1.0003735
1.0086116
1.0094696
1.0027694
0.99315528
0.98881468
0.99232397
0.99803207
0.99843508
0.9938957
0.99234021
0.99508853
0.9962545
0.99302459
0.9884857
1.0025663
1.0007285
0.99874826
1.0002796
1.0035224
1.003949
1.000099
0.99680522
0.99893536
1.0053514
1.0110795
1.0111819
1.0026891
0.98943177
0.98160672
0.98517169
0.99603533
1.004094
1.0050529
1.0038437
1.0012462
0.99602336
0.98904031
1.001251
1.0031476
1.0035145
1.003239
1.0055806
1.0102155
1.0126477
1.0100773
1.0035789
0.99662119
0.993017
0.99551476
1.0018841
1.0046126
1.0010285
0.99620967
0.99511519
0.99755908
0.99868937
0.99703268
0.99596295
0.99581551
0.99497929
1.0063772
1.0065685
1.0103257
1.0126257
1.0109282
1.007139
1.0043422
1.0031507
1.0028298
1.0011826
0.99646061
0.99221958
0.99422018
1.0021994
1.009224
1.0105254
1.007393
1.0035119
0.99964432
0.99523813
0.99090353
0.98908202
0.9905307
1.016835
1.0120358
1.0058591
1.0029997
1.0035166
1.0041143
1.0025476
1.0002964
1.0003544
1.0043286
1.0094648
1.0104129
1.0072695
1.0038556
1.0029121
1.0044468
1.0051001
1.003984
1.0021059
1.0000113
0.99729701
0.99484025
0.99551408
1.0088218
1.010152
1.0078541
1.0035572
1.0010147
1.0027865
1.0079378
1.0125113
1.0137545
1.0125382
1.0111651
1.0101149
1.0083405
1.0060726
1.0029502
1.0007993
1.0001382
0.99973397
0.99890523
0.99924388
1.0025239
1.0050135
1.0057709
1.0035158
1.0068421
1.0126228
1.0165923
1.0169929
1.0144621
1.0117109
1.0106929
1.0102562
1.0093581
1.0081342
1.0064694
1.0064979
1.006835
1.0053435
1.0031285
1.0019002
1.002645
1.004134
1.0045407
1.0053028
1.0065584
1.0045869
1.0161156
1.0131175
1.0120062
1.0136381
1.0161868
1.0169097
1.0150237
1.0113813
1.0070884
1.003768
1.0019625
1.0009359
1.0021853
1.0066337
1.0114086
1.0136583
1.0121266
1.0097026
1.0087283
1.0080585
1.0073787
1.0069537
1.0061441
1.0204193
1.0185001
1.0140839
1.0087716
1.0057284
1.0048093
1.0057121
1.007888
1.0101502
1.0123187
1.0145586
1.0155576
1.0140808
1.0116587
1.010646
1.0098699
1.0087472
1.007678
1.0083277
1.0102822
1.0111393
1.0094402
1.0070414
1.0092646
1.0112421
1.0126663
1.013328
1.0137163
1.0144809
1.0146055
1.0142767
1.0141699
1.0137856
1.0141163
1.0155122
1.0157943
1.0140078
1.0120816
1.0112337
1.011103
1.0107374
1.0094768
1.007826
1.0052873
1.0027077
1.0017015
1.012326
1.0125885
1.0140831
1.016053
1.0177382
1.0190503
1.019715
1.0190656
1.0169823
1.0139176
1.0113658
1.0109431
1.0115084
1.0114644
1.0106331
1.0102289
1.010252
1.0098613
1.0085796
1.0082975
1.0096056
1.0115031
1.0131181
1.018301
1.0180721
1.0177814
1.0168427
1.0148667
1.0125335
1.0112583
1.0117082
1.0130624
1.0141893
1.0143847
1.0139049
1.0136013
1.0136117
1.0124203
1.0114605
1.0117569
1.0131224
1.0148884
1.0155847
1.016271
1.016254
1.0151341
1.0151827
1.0150921
1.0150773
1.0151366
1.0151265
1.0144093
1.0135528
1.013313
1.013887
1.0148207
1.0157628
1.0155038
1.0154761
1.0166989
1.0174991
1.0175945
1.0172468
1.0168972
1.0169479
1.0158888
1.0136387
1.0118638
1.0103901
1.0148589
1.0147368
1.0143312
1.0144804
1.0157228
1.0172126
1.0183865
1.0191642
1.0190159
1.0183494
1.017503
1.0163691
1.0150236
1.014866
1.0157731
1.0163012
1.0159665
1.0145997
1.013256
1.011866
1.0104644
1.0096179
1.0105441
1.0173325
1.0172449
1.0169016
1.0166732
1.0163658
1.0156179
1.0154355
1.0154296
1.0152985
1.0159245
1.0165574
1.0168054
1.0161468
1.0148898
1.0140897
1.0143165
1.0148331
1.0147225
1.0145179
1.0146881
1.0154153
1.0163626
1.0173211
1.0158954
1.0156541
1.0160915
1.0166196
1.0163483
1.0158207
1.0156788
1.0148443
1.0136869
1.0136795
1.0143131
1.0156412
1.0169923
1.0173262
1.0170702
1.0168939
1.0175398
1.0184715
1.0187406
1.0183382
1.0181124
1.0174223
1.016756
1.0137711
1.0131763
1.0138206
1.0148255
1.0152894
1.0163379
1.0177557
1.0180293
1.0177348
1.0179772
1.0176376
1.0177532
1.0181561
1.017939
1.0177711
1.0169992
1.0170813
1.0171256
1.016794
1.015818
1.0145862
1.0145726
1.0149216
1.0171065
1.0164076
1.0162308
1.0158034
1.0151377
1.0151415
1.0151269
1.0148837
1.0155111
1.0166272
1.0165276
1.0159274
1.0153857
1.0149433
1.0149305
1.015561
1.0163898
1.0169832
1.0169604
1.0168913
1.017045
1.0172348
1.0177802
1.0132818
1.0134578
1.0146287
1.0151019
1.0147179
1.0150643
1.014767
1.0141979
1.0146831
1.0152382
1.0150892
1.0155913
1.0159087
1.016076
1.0167336
1.0173878
1.0169255
1.0174365
1.0169169
1.0169591
1.0169277
1.0166057
1.0164238
1.0133088
1.0133435
1.0141704
1.0144893
1.0142635
1.0147023
1.0143738
1.0141996
1.0150151
1.0150182
1.0149769
1.0155371
1.0152499
1.0150576
1.0155287
1.0154852
1.0151501
1.0162118
1.0160278
1.0162919
1.0156601
1.0164437
1.0165496
1.0127398
1.0128935
1.0134267
1.0134342
1.0133401
1.0137184
1.0131513
1.013044
1.0134507
1.0135853
1.0144596
1.0147496
1.0147014
1.0146044
1.014863
1.0148447
1.0147318
1.016228
1.0159346
1.0159933
1.0148994
1.0147511
1.014515
1.0104608
1.0111549
1.0121348
1.0128894
1.0131572
1.0129451
1.0120887
1.0116787
1.0120436
1.0132096
1.014165
1.0137671
1.0136514
1.0131738
1.0139819
1.0145519
1.0134447
1.014517
1.0133416
1.0136784
1.0130333
1.0150305
1.0151477
1.0096006
1.009854
1.0101126
1.0099352
1.0102333
1.010746
1.0111756
1.0115279
1.0116715
1.0121628
1.0118854
1.0113291
1.0115453
1.011352
1.0121389
1.012815
1.012284
1.0125997
1.0124436
1.0128826
1.0137342
1.0147575
1.0135458
1.0068997
1.0073389
1.0081574
1.0078378
1.0073969
1.0076949
1.0086011
1.0088572
1.0087285
1.0091512
1.0091715
1.0093273
1.0097227
1.0104623
1.0109627
1.0101901
1.0112881
1.0111846
1.0113121
1.0104274
1.0107127
1.0104379
1.0097183
1.0031492
1.0036543
1.0041964
1.0046021
1.0041585
1.0040919
1.0051703
1.0061241
1.0064167
1.0067658
1.0068031
1.0069236
1.0069059
1.0070938
1.0079733
1.0078955
1.0083397
1.0080199
1.0080833
1.0074379
1.007882
1.0082652
1.0087861
0.99922657
0.99976816
1.0004792
1.001854
1.0025152
1.0022429
1.001909
1.0020019
1.0019355
1.0022843
1.0033144
1.0041807
1.0040416
1.0030591
1.0029462
1.0040311
1.0048614
1.0047639
1.0046378
1.0049166
1.0060695
1.0065226
1.0062272
0.99647999
0.99537503
0.99587292
0.99658803
0.99763915
0.99789349
0.99763589
0.99797501
0.99834262
0.99836875
0.99812757
0.99820763
0.99889778
0.99925454
0.99939392
0.99994437
1.000426
1.0005991
1.0004054
1.0008222
1.0015936
1.0016501
1.0013488
0.99308956
0.99309764
0.99219964
0.99180504
0.99223687
0.9930237
0.99341386
0.99347275
0.993518
0.99348697
0.99331153
0.99329982
0.9939246
0.99472176
0.99492318
0.99438757
0.9938096
0.99439573
0.99585973
0.99735861
0.99752313
0.99687994
0.99661693
0.99180281
0.99105537
0.98985324
0.9884834
0.98788158
0.98865509
0.98998211
0.99062886
0.99010786
0.98922792
0.98854567
0.98826696
0.98835947
0.98887533
0.98970262
0.98971372
0.98929985
0.98877498
0.98948904
0.99057789
0.99121099
0.99192239
0.99353353
0.98769719
0.98784495
0.98810837
0.98759406
0.98679372
0.9862589
0.9863705
0.98684928
0.98679624
0.98616355
0.98507122
0.98401681
0.98347754
0.98289609
0.9831787
0.98393025
0.98483241
0.98468722
0.98449709
0.98429792
0.98441604
0.98559758
0.98776536
0.9859735
0.98609427
0.98653517
0.98664004
0.98634264
0.98548404
0.98442013
0.98373194
0.98343589
0.98303829
0.98218976
0.98128537
0.98046099
0.97964153
0.97884983
0.97880599
0.97922315
0.97956664
0.97936334
0.9790668
0.97906049
0.9799944
0.98137008
0.98654935
0.98632888
0.98651481
0.98635278
0.98600607
0.98536328
0.98439884
0.98308228
0.98195479
0.98108304
0.97986939
0.97974296
0.97857853
0.9782977
0.97717672
0.97605674
0.97517841
0.97497497
0.97505262
0.97511907
0.975311
0.97595943
0.97625223
0.98859
0.98836976
0.98784005
0.98716756
0.98684783
0.98585429
0.98504297
0.9843539
0.98268457
0.98196352
0.98002026
0.97992245
0.97884624
0.97832049
0.97706952
0.97561992
0.97363393
0.97244089
0.97241985
0.97286654
0.97339192
0.97364392
0.9733862
0.99079212
0.99093839
0.98995052
0.98879417
0.98863875
0.98745263
0.98659255
0.98665572
0.98477561
0.98484746
0.98303017
0.9818521
0.98073526
0.97915957
0.97796636
0.97644703
0.97532574
0.97373563
0.9728443
0.97265401
0.97266836
0.97271489
0.97216661
0.99191979
0.99242402
0.99240589
0.99160814
0.99111442
0.9902654
0.98896043
0.98914814
0.98802447
0.98744413
0.98635767
0.98481504
0.98369929
0.98148251
0.98057821
0.97953351
0.97905785
0.97782754
0.97686729
0.97587719
0.97507839
0.97387084
0.97262204
0.99273914
0.99295608
0.99358754
0.99423712
0.99298895
0.9916921
0.9912199
0.99153652
0.99032316
0.98959859
0.98891427
0.98744855
0.98748742
0.98556346
0.9849919
0.98369157
0.98339941
0.9824807
0.98125635
0.98001828
0.9792323
0.97773524
0.97635115
0.99314272
0.99365769
0.99442302
0.99520987
0.9928717
0.99192595
0.99296305
0.99293618
0.99176556
0.99131103
0.9908803
0.99028003
0.9899614
0.98865201
0.98927026
0.98785584
0.98732234
0.98555789
0.98414197
0.98358074
0.98355736
0.98352996
0.98288371
0.99248373
0.99412426
0.99583243
0.99572212
0.99195275
0.99127596
0.99390747
0.99444902
0.9933805
0.99226898
0.99198979
0.99278406
0.99158269
0.98997048
0.99081819
0.99062922
0.99024651
0.98812171
0.98757458
0.98803713
0.98782252
0.98703925
0.9861482
0.9913556
0.9937335
0.99606065
0.9951858
0.99178781
0.99125232
0.99404158
0.99460741
0.9931701
0.99208618
0.99213166
0.993632
0.99316263
0.991565
0.99155652
0.9918503
0.99189609
0.9903578
0.99050154
0.99066806
0.99104846
0.99001314
0.98812487
0.99101632
0.99289997
0.99486539
0.9933885
0.99026351
0.99082071
0.99378017
0.99414345
0.99243072
0.99163865
0.99258967
0.99340116
0.99259768
0.99150074
0.99236317
0.99311111
0.99241456
0.99141412
0.99178277
0.99132494
0.99139035
0.9925041
0.99296012
0.99106006
0.99245419
0.99365709
0.99229848
0.98909156
0.98912427
0.99257923
0.99414981
0.99242296
0.99108098
0.9924647
0.99360637
0.99161287
0.9898624
0.99216348
0.99421853
0.99255059
0.9912285
0.99206637
0.99313842
0.99178104
0.99297056
0.99500466
0.99136339
0.99138348
0.99189058
0.99230039
0.9912958
0.99010451
0.99133783
0.99309597
0.99227186
0.99046317
0.99083518
0.99284462
0.99244499
0.99063932
0.99199498
0.99412362
0.99288357
0.99105839
0.99156422
0.99387237
0.99285121
0.99208585
0.9929022
0.99188521
0.9913463
0.99197371
0.99266548
0.99236417
0.99135126
0.99103711
0.99155289
0.99194106
0.99200756
0.99124342
0.99168525
0.99239344
0.99164722
0.99188244
0.99295624
0.99231948
0.99110663
0.99165212
0.99374651
0.99330677
0.99151828
0.99125909
0.99252959
0.99206402
0.99184412
0.9921131
0.992288
0.99201089
0.99178674
0.99185418
0.99196932
0.9919127
0.9917429
0.99178433
0.99251583
0.99211832
0.99132793
0.99166543
0.9922104
0.99172426
0.99139589
0.99287354
0.99363578
0.99197429
0.99025086
0.99295415
0.99198
0.99153467
0.99188764
0.99258346
0.99277803
0.99222203
0.99173835
0.99204057
0.99229785
0.99173818
0.99099657
0.99128408
0.9922663
0.99234037
0.99179424
0.99157921
0.9915109
0.9915402
0.99190997
0.99233025
0.99174485
0.99105164
0.99261311
0.99230676
0.99205236
0.99202205
0.99219319
0.99227608
0.9920892
0.9918959
0.99203918
0.99203464
0.99160686
0.99116784
0.99124283
0.99186767
0.99231807
0.99190177
0.99109849
0.99091633
0.99130868
0.9915124
0.99114814
0.99071927
0.99060921
0.99249592
0.99243402
0.99222051
0.99206443
0.99203567
0.99207064
0.99194313
0.99176189
0.99170798
0.99174393
0.99185912
0.99200784
0.99202372
0.99171976
0.99124699
0.99092925
0.99098945
0.99149134
0.99164191
0.99123297
0.99069041
0.99088338
0.99179942
0.99160271
0.9919503
0.99227557
0.99230892
0.99208483
0.9919374
0.99194101
0.99193098
0.99185358
0.9917228
0.99167178
0.99174883
0.99173537
0.99150722
0.99123759
0.99113971
0.99128697
0.99138954
0.99121556
0.9909428
0.99097075
0.9911291
0.9915655
0.99184097
0.99186641
0.99189196
0.99184791
0.99170704
0.99158449
0.99159559
0.9916859
0.99180666
0.99186248
0.99172985
0.99145732
0.99122633
0.99116188
0.99130124
0.9914194
0.99140998
0.99126702
0.99110198
0.99113743
0.99111216
0.99109231
0.99088883
0.99157255
0.99157882
0.99153368
0.99149206
0.99151377
0.99154027
0.99155686
0.9915514
0.99152484
0.99143365
0.99124147
0.99105263
0.99104259
0.99115714
0.99127422
0.99136112
0.9911173
0.99096994
0.99086062
0.99104959
0.99093281
0.99079172
0.99063467
0.99140916
0.99143288
0.99137697
0.99123401
0.99111393
0.99109118
0.99107638
0.99101241
0.99091587
0.99093151
0.99103741
0.99118157
0.99124743
0.99114408
0.99089247
0.99069491
0.99057199
0.99055097
0.99055383
0.99066928
0.99082335
0.99097474
0.99101132
0.99082894
0.99079832
0.99084176
0.99093345
0.99100234
0.99099987
0.99090998
0.99082921
0.99084561
0.99082739
0.9907789
0.99068291
0.99059302
0.99059142
0.99065135
0.99074173
0.99081325
0.99080128
0.99081262
0.99069041
0.99065322
0.99070797
0.99073874
0.99046177
0.99041559
0.99048901
0.99066253
0.99079936
0.99077937
0.99065816
0.9905506
0.99050424
0.99051857
0.99049921
0.99054381
0.99064786
0.99076247