/*--------------------------------*- C++ -*----------------------------------*\
| =========                 |                                                 |
| \\      /  F ield         | OpenFOAM: The Open Source CFD Toolbox           |
|  \\    /   O peration     | Version:  2406                                  |
|   \\  /    A nd           | Website:  www.openfoam.com                      |
|    \\/     M anipulation  |                                                 |
\*---------------------------------------------------------------------------*/
FoamFile
{
    version     2.0;
    format      ascii;
    arch        "LSB;label=32;scalar=64";
    class       surfaceScalarField;
    location    "25";
    object      phi_0;
}
// * * * * * * * * * * * * * * * * * * * * * * * * * * * * * * * * * * * * * //

dimensions      [1 0 -1 0 0 0 0];

oriented        oriented;

internalField   nonuniform List<scalar> 
192068
(
0.00081566417
6.6564913e-05
-8.0991029e-05
0.00082606248
0.00019657825
-0.00020797162
0.00082155553
0.0002341276
-0.00023428021
0.00081381146
0.00019778116
-0.0001967086
0.00080207659
0.00010887798
-0.00010572412
0.00079205633
1.2458033e-06
5.1311913e-06
0.000789668
-0.00010618009
0.00011453646
0.00079388175
-0.00018822505
0.00019798964
0.0008012276
-0.00024320425
0.00025451528
0.00081207101
-0.00027837215
0.00029369939
0.00082434229
-0.00030544071
0.00032016516
0.00083496024
-0.0003216807
0.00033699005
0.00084178181
-0.00032765311
0.00033796403
0.00084621491
-0.00031269119
0.00032262351
0.00085063891
-0.00028587237
0.00029775395
0.00085694887
-0.00025429441
0.00026443868
0.00086479598
-0.00023101066
0.00023815191
0.00087384122
-0.00021478302
0.00022980067
0.00088203538
-0.00020987447
0.0002287844
0.00088935465
-0.00021466756
0.00023313191
0.00089586993
-0.00022028012
0.00023160518
0.00090247077
-0.00021712465
0.00022765524
0.00090972328
-0.00020903742
0.00022639727
0.00091693966
-0.00020160242
0.00021671464
0.00092307837
-0.00018978394
0.00019652515
0.00092765402
-0.00017156619
0.00017634606
0.00093068085
-0.00014985326
0.00015750384
0.00093264015
-0.00012654286
0.0001359627
0.00093452933
-0.00010091534
0.00011032619
0.00093744588
-7.4332778e-05
8.0548817e-05
0.00094135322
-4.485592e-05
4.7649345e-05
0.00094635261
-1.3634076e-05
1.442747e-05
0.00095139479
1.987873e-05
-1.9890273e-05
0.0009568681
5.245831e-05
-5.4270816e-05
0.00096262242
8.6420821e-05
-8.9623469e-05
0.00096887664
0.00011951524
-0.00012446585
0.00097556541
0.00015249162
-0.00015946295
0.00098347441
0.00018435491
-0.00019357989
0.00099200819
0.00021488002
-0.00022701213
0.0010030302
0.00024521014
-0.00025795084
0.0010133888
0.00027086074
-0.0002915935
0.0010272271
0.00030068279
-0.00031632682
0.0010410417
0.00032332987
-0.0003458381
0.0010550418
0.00034670147
-0.0003722316
0.0010729748
0.00036913112
-0.00038892836
0.0010905797
0.00038852339
-0.00041512129
0.0011093125
0.00040486812
-0.0004347609
0.0011274245
0.00042125541
-0.00045162559
0.0011516137
0.00043722363
-0.00046183661
0.0011742226
0.00045130617
-0.00048174629
0.0011954324
0.00045794982
-0.00049124023
0.00122112
0.00046992251
-0.00050135668
0.0012472194
0.00047733741
-0.00050600058
0.0012771617
0.00047945857
-0.00051825147
0.00049885272
0.0013041891
-0.00052736884
0.000827667
5.705604e-05
0.00083001642
0.00019288642
0.00082268968
0.00023658629
0.00081234941
0.00019850599
0.00079981434
0.00011153365
0.00079004872
6.992429e-06
0.00078751962
-9.8365515e-05
0.00079214476
-0.0001801359
0.00080089883
-0.00023039829
0.0008127231
-0.00026721843
0.00082590279
-0.00029169795
0.00083695714
-0.00030971334
0.00084479363
-0.00031329008
0.00085041775
-0.00030133076
0.00085541279
-0.00027440478
0.00086124882
-0.00024479856
0.00086837105
-0.00022172066
0.00087644054
-0.0002063032
0.00088415617
-0.00020127666
0.00089131898
-0.00019999101
0.00089792554
-0.00020235245
0.00090453123
-0.00020558737
0.0009115796
-0.00019926277
0.00091879079
-0.00018692983
0.00092485309
-0.00017492493
0.00092926602
-0.00016223759
0.00093242479
-0.00014394281
0.00093482575
-0.00012064961
0.00093697738
-9.5319777e-05
0.00094002802
-6.8188357e-05
0.00094431513
-4.0481321e-05
0.00094919997
-1.1758697e-05
0.00095558381
1.8899939e-05
0.0009622093
4.9970315e-05
0.00096944389
8.1785756e-05
0.00097684029
0.00011299335
0.00098498194
0.00014440781
0.00099303972
0.00017459989
0.0010018969
0.00020345393
0.0010103042
0.00023025422
0.0010218729
0.00025884337
0.0010322127
0.00028032361
0.0010454264
0.00030482332
0.0010593454
0.00032661987
0.0010742556
0.00034423663
0.0010912664
0.00036419754
0.0011086114
0.00037932628
0.0011306781
0.00039670839
0.0011507183
0.00040808682
0.0011708344
0.00041728235
0.0011949772
0.00043011112
0.0012212929
0.00043863268
0.0012429415
0.00044794103
0.0012730497
0.00044963401
0.00046194599
0.0012963288
0.000836065
4.8748047e-05
0.00083568598
0.00018951431
0.0008262146
0.0002377858
0.00081376638
0.00019924106
0.00080018417
0.0001137174
0.00079033107
1.2217892e-05
0.00078809668
-9.1369054e-05
0.00079315973
-0.00017129846
0.00080209417
-0.00021777738
0.00081395298
-0.00025357358
0.00082718068
-0.0002768773
0.00083861602
-0.00029769515
0.00084699076
-0.00030002743
0.00085304079
-0.00028949092
0.00085801888
-0.00026699513
0.00086364679
-0.0002349543
0.00087009982
-0.00020739751
0.0008770727
-0.00019486814
0.00088437966
-0.00019145451
0.0008915201
-0.00019167821
0.00089815216
-0.00019037866
0.00090523105
-0.0001886956
0.0009127379
-0.00018814445
0.00092040592
-0.00017885109
0.00092721138
-0.00016335794
0.00093244266
-0.00014794626
0.00093625483
-0.00013213815
0.00093903302
-0.00011431505
0.0009416343
-9.2316363e-05
0.00094476044
-6.699383e-05
0.0009492259
-3.9134943e-05
0.0009547741
-1.1157232e-05
0.00096082187
1.8146681e-05
0.00096759369
4.7619704e-05
0.00097499244
7.7018757e-05
0.00098300157
0.00010709898
0.00099158193
0.0001356511
0.0010005085
0.00016368715
0.0010100557
0.00019106588
0.0010209234
0.00021800841
0.0010303002
0.00023931579
0.001042888
0.00026611549
0.0010542789
0.0002847624
0.0010673842
0.00030500009
0.0010820578
0.00032407431
0.0010973436
0.00033974815
0.0011143259
0.00035476879
0.0011323765
0.00036752314
0.0011494125
0.00038002361
0.0011737041
0.00039249445
0.0011961208
0.00040530487
0.0012172278
0.00040693736
0.0012408223
0.00041570786
0.0012634386
0.0004172752
0.00043059311
0.0012913934
0.00084190044
4.1616707e-05
0.00083959978
0.00018636455
0.00082882117
0.00023893304
0.0008152554
0.00020048238
0.0008012819
0.0001161831
0.00079154891
1.6422441e-05
0.00078963927
-8.497875e-05
0.0007951022
-0.00016197501
0.0008040492
-0.00020915091
0.00081576008
-0.00023746949
0.00082862564
-0.00026257949
0.000840254
-0.00028060741
0.00084885725
-0.00028996881
0.00085526832
-0.00027958745
0.00086054053
-0.00025575959
0.00086597924
-0.0002252432
0.00087151812
-0.00019887281
0.00087780915
-0.00018260065
0.00088464408
-0.00017490658
0.00089164125
-0.00017827331
0.00089856799
-0.00018214382
0.00090577954
-0.00017835525
0.00091379515
-0.00017193307
0.00092186808
-0.00016701541
0.00092911007
-0.00015668284
0.00093491431
-0.00014133325
0.00093919971
-0.00012403535
0.0009424318
-0.00010538226
0.00094532297
-8.4798303e-05
0.00094876626
-6.2327342e-05
0.00095327539
-3.6881729e-05
0.00095868992
-9.7762354e-06
0.00096499826
1.7810574e-05
0.00097176887
4.5529683e-05
0.00097910156
7.3371782e-05
0.00098674811
0.00010027262
0.00099504938
0.00012733707
0.0010041634
0.00015441831
0.0010137634
0.00017842079
0.0010234721
0.00020223282
0.0010355337
0.0002267743
0.0010462567
0.00024617954
0.0010588093
0.0002663979
0.0010732668
0.00028625395
0.0010857799
0.00030022798
0.001102067
0.00031675486
0.0011180211
0.00033289234
0.0011358247
0.00034336963
0.001155808
0.00035818815
0.0011761201
0.00036466171
0.0011931528
0.00037197133
0.0012135855
0.00037690277
0.001241776
0.00039332649
0.0012616052
0.00039128304
0.00040494539
0.0012898272
0.00084548808
3.5098306e-05
0.0008420905
0.00018398849
0.00083047045
0.00023910647
0.00081629771
0.00019938093
0.00080226067
0.00011727775
0.0007926994
1.9916063e-05
0.00079115269
-7.9175217e-05
0.00079694085
-0.00015411423
0.00080611958
-0.00019782152
0.00081743531
-0.00022444958
0.00083009517
-0.00024692786
0.0008415437
-0.00026438885
0.00085049895
-0.0002746084
0.00085731021
-0.00026720102
0.00086279272
-0.00024455692
0.00086787961
-0.00021586512
0.00087287386
-0.00019336026
0.00087877998
-0.00017419554
0.00088497795
-0.00016550091
0.00089179015
-0.00016322389
0.00089898028
-0.0001667295
0.00090653242
-0.00016943923
0.00091463851
-0.00016326952
0.00092315797
-0.00015306885
0.0009308545
-0.0001437953
0.00093706417
-0.00013348316
0.00094203404
-0.00011889887
0.00094607094
-0.0001006505
0.00094952974
-7.9349162e-05
0.00095331632
-5.660777e-05
0.00095810217
-3.280585e-05
0.00096384214
-8.1572096e-06
0.00097018117
1.7306598e-05
0.00097702608
4.3014218e-05
0.00098423215
6.9056534e-05
0.00099207535
9.4972767e-05
0.0010003147
0.00012010072
0.0010087199
0.00014334425
0.0010179615
0.00016759692
0.001028592
0.00018994077
0.0010381142
0.00020979007
0.0010499584
0.00022899818
0.0010624759
0.00024898233
0.0010742254
0.00026229174
0.0010894838
0.00028257579
0.0011052929
0.00029535753
0.0011198048
0.00030694217
0.0011382707
0.00031806404
0.0011556195
0.00033065545
0.0011725554
0.00033621274
0.0011944348
0.00035074037
0.0012203684
0.00035764517
0.0012380025
0.00036267896
0.0012594985
0.00035832757
0.00037010857
0.0012786722
0.00084732565
2.8343032e-05
0.00084341618
0.00018071428
0.00083156391
0.00023735833
0.00081750882
0.00019748135
0.00080390596
0.00011716195
0.00079464451
2.2853701e-05
0.00079343825
-7.320213e-05
0.0007995671
-0.00014762948
0.00080879465
-0.00018553394
0.00081952966
-0.00021226361
0.00083167026
-0.00023180942
0.00084281688
-0.00025218298
0.0008521304
-0.00025803099
0.00085931572
-0.00025272143
0.00086494527
-0.00023192273
0.00086961153
-0.00020479664
0.00087432577
-0.00017993481
0.00087935306
-0.00016485314
0.00088508748
-0.00016046824
0.0008918839
-0.00015706058
0.00089915012
-0.00015413964
0.00090704794
-0.00015443787
0.00091546347
-0.00015417668
0.00092413896
-0.00014578969
0.00093221573
-0.00013330795
0.00093895195
-0.00012154129
0.00094439492
-0.00010915389
0.00094896628
-9.390229e-05
0.00095277793
-7.6037748e-05
0.00095682524
-5.4727241e-05
0.00096171628
-3.1667622e-05
0.00096732891
-7.8523122e-06
0.00097384174
1.6423902e-05
0.0009808283
4.0902227e-05
0.00098826551
6.5102213e-05
0.00099607001
8.8721552e-05
0.0010038374
0.00011163334
0.001012857
0.00013482872
0.0010216448
0.00015577263
0.0010312331
0.00017553893
0.001041067
0.00019500478
0.0010530829
0.00021404442
0.001063084
0.00022926395
0.0010779294
0.00024655284
0.0010906432
0.00026047384
0.0011034665
0.00026910371
0.0011209382
0.0002871796
0.0011375833
0.00029583268
0.0011544204
0.00030755513
0.0011752161
0.00031474945
0.0011955263
0.00032426665
0.001212477
0.00032378482
0.0012289325
0.0003316188
0.0012559766
0.00033987943
0.00035084915
0.0012818099
0.00084834514
2.0861898e-05
0.00084446591
0.00017508797
0.00083278072
0.00023488272
0.00081952085
0.0001939656
0.00080692998
0.00011510791
0.00079813714
2.4990256e-05
0.0007970674
-6.836283e-05
0.0008032787
-0.00014001864
0.00081199152
-0.00017468189
0.00082191471
-0.00019754231
0.00083307615
-0.00021600444
0.0008440406
-0.00023512331
0.0008534265
-0.00024420891
0.00086095886
-0.00023911016
0.00086677636
-0.00022231026
0.00087146123
-0.00019646624
0.00087565915
-0.00016978494
0.00087986801
-0.00015477948
0.00088526763
-0.00014714188
0.00089193239
-0.00014784046
0.00089923943
-0.00014887736
0.00090727475
-0.00014473405
0.00091611513
-0.00014041388
0.00092503623
-0.00013632183
0.00093340605
-0.00012734249
0.00094066383
-0.00011438881
0.00094668972
-0.00010082754
0.00095158556
-8.6448711e-05
0.00095587485
-7.0582682e-05
0.00096016885
-5.1678081e-05
0.00096520969
-3.0017873e-05
0.0009712463
-7.1862228e-06
0.00097793244
1.6198579e-05
0.00098491653
3.8790162e-05
0.0009923297
6.1412217e-05
0.00099993252
8.3151656e-05
0.0010080718
0.00010495489
0.0010163371
0.00012425407
0.001024917
0.00014484533
0.001034354
0.00016261304
0.0010447074
0.00018222708
0.0010541941
0.00019497097
0.0010668056
0.00021419525
0.0010779463
0.00022527641
0.0010898769
0.00023970315
0.0011065824
0.00025369302
0.0011209961
0.00026464875
0.0011360872
0.00027098814
0.0011534698
0.00028214015
0.0011717861
0.00028889119
0.001187973
0.00029722338
0.0012079688
0.00030352164
0.00123512
0.00031522294
0.0012529213
0.00031088541
0.00031860145
0.0012698481
0.0008529991
1.177655e-05
0.00085048319
0.00016718079
0.00083868711
0.00022964408
0.00082562537
0.00018727044
0.00081320676
0.00011296338
0.00080404796
2.6935425e-05
0.00080227452
-6.2624504e-05
0.00080758282
-0.00013060533
0.00081514212
-0.00016498641
0.00082398033
-0.00018096293
0.00083420284
-0.00019922018
0.0008448397
-0.00021603446
0.0008543816
-0.00022930885
0.00086228215
-0.00022676089
0.00086851332
-0.00020947303
0.00087321852
-0.00018506028
0.00087685864
-0.00016375115
0.0008807802
-0.00014514224
0.00088563142
-0.00013563421
0.00089189571
-0.00013377513
0.00089931729
-0.0001371709
0.00090755153
-0.00013794398
0.00091649459
-0.00013124938
0.00092564674
-0.00012416179
0.00093434982
-0.00011697067
0.00094185546
-0.00010832043
0.00094825887
-9.649194e-05
0.00095373628
-8.2157783e-05
0.00095858157
-6.470563e-05
0.00096325341
-4.6493444e-05
0.0009685251
-2.6784587e-05
0.00097450735
-5.5680271e-06
0.00098107148
1.5737206e-05
0.00098809877
3.6889812e-05
0.00099541711
5.7526301e-05
0.0010030556
7.7297938e-05
0.0010107514
9.7440588e-05
0.0010191071
0.00011592553
0.0010274734
0.0001337895
0.0010370283
0.00015121551
0.0010455711
0.00016644212
0.0010569471
0.00018232134
0.0010669503
0.00019594747
0.0010784471
0.00020748564
0.0010927286
0.00022289092
0.0011046633
0.00022959332
0.0011184889
0.00024183822
0.0011342954
0.00025019241
0.0011524861
0.00026405593
0.0011677702
0.0002666899
0.0011881587
0.00027632208
0.0012075717
0.00027898029
0.0012239676
0.00028427503
0.0012426098
0.00028532809
0.00029265231
0.0012637084
0.00086621924
1.5217402e-07
0.00086499537
0.0001561498
0.00085132638
0.00022486639
0.00083586236
0.00018325399
0.00082096319
0.00011182327
0.00081020341
3.0079401e-05
0.0008070489
-5.4923881e-05
0.00081083857
-0.00012087008
0.00081723783
-0.00015153882
0.0008249323
-0.00016808915
0.00083460656
-0.0001848714
0.00084510971
-0.00020148027
0.00085517382
-0.0002117712
0.00086368233
-0.00021108569
0.00087036153
-0.00019498894
0.0008747337
-0.00017243152
0.00087815743
-0.00015411345
0.00088160939
-0.00013766921
0.00088590083
-0.00013168326
0.00089188202
-0.00012790752
0.00089932025
-0.00012476087
0.00090780371
-0.00012588275
0.00091683376
-0.00012511252
0.0009262016
-0.00011657128
0.00093512942
-0.00010676733
0.0009429444
-9.773272e-05
0.00094971594
-8.8591237e-05
0.00095577135
-7.6815522e-05
0.00096105271
-6.1908839e-05
0.00096608629
-4.4327676e-05
0.00097152694
-2.5095766e-05
0.00097754102
-5.2500725e-06
0.00098419594
1.4750205e-05
0.00099118124
3.4370858e-05
0.00099841513
5.3982935e-05
0.0010060041
7.2796469e-05
0.0010135547
8.9981312e-05
0.0010214304
0.00010688258
0.001030124
0.00012462403
0.0010381012
0.00013733677
0.0010480876
0.00015443453
0.0010572746
0.00016595344
0.0010677689
0.00018018005
0.0010796272
0.00019094773
0.0010905755
0.00020278578
0.0011037374
0.00021162565
0.0011184832
0.00022400324
0.0011347425
0.00023138468
0.0011476534
0.00023665047
0.0011648151
0.0002423283
0.0011835088
0.00025411901
0.0011983533
0.00025332617
0.0012198688
0.00026335949
0.0012362749
0.0002646655
0.0002764239
0.0012640352
0.00088119086
-9.7704921e-06
0.00087655337
0.00014649841
0.00086024823
0.00022182146
0.00084239803
0.00017929972
0.00082552118
0.0001117958
0.00081375658
3.4297147e-05
0.00080977007
-4.6110348e-05
0.0008127289
-0.0001101904
0.00081842458
-0.00013656825
0.00082539044
-0.00015398191
0.00083468441
-0.00016737974
0.00084529291
-0.00018680775
0.00085592595
-0.00019523425
0.00086507426
-0.00019482232
0.00087205715
-0.00018298298
0.00087631309
-0.00016354044
0.00087951047
-0.00014132314
0.00088221759
-0.00012762484
0.00088602097
-0.00012264107
0.00089184777
-0.00012170305
0.00089919161
-0.00012002181
0.00090776511
-0.00011566683
0.00091716557
-0.00011271592
0.0009265459
-0.00010979812
0.00093563769
-0.00010189882
0.00094377433
-9.1938444e-05
0.00095091
-8.1163124e-05
0.00095731611
-6.9736982e-05
0.000962978
-5.7131552e-05
0.00096828633
-4.188315e-05
0.00097389045
-2.4454625e-05
0.00097995853
-5.5629839e-06
0.00098660018
1.3758372e-05
0.00099363579
3.2674445e-05
0.0010009052
5.0398741e-05
0.0010080409
6.704037e-05
0.0010157218
8.438279e-05
0.0010233889
9.8396418e-05
0.0010309828
0.00011342602
0.0010399044
0.00012739286
0.001048434
0.00014089673
0.0010575928
0.00015111457
0.00106797
0.00016436756
0.0010786295
0.00017418483
0.0010902055
0.00018542881
0.0011031219
0.00019332422
0.0011167866
0.00020348289
0.0011279722
0.00020655032
0.0011454043
0.00022067192
0.0011637625
0.00022592968
0.0011757638
0.00022975811
0.0011967537
0.00023458908
0.0012153497
0.00024476868
0.0012328865
0.00023637346
0.00024636135
0.0012464807
0.00088128046
-2.2012089e-05
0.00087824015
0.0001347336
0.00086151604
0.00021774226
0.00084311747
0.00017434135
0.00082571512
0.00011133077
0.00081375173
3.860743e-05
0.00080975139
-3.740915e-05
0.00081290104
-9.7929945e-05
0.00081868235
-0.00012423214
0.00082567465
-0.00013867449
0.00083465792
-0.000153567
0.00084553574
-0.00016966334
0.00085650537
-0.00018219639
0.00086609892
-0.00018316724
0.0008734421
-0.00017181662
0.00087800032
-0.00015323954
0.00088074881
-0.00013363551
0.00088309715
-0.00011817636
0.00088646894
-0.00011034343
0.00089181053
-0.00010889522
0.00089913719
-0.00011154583
0.00090779029
-0.00011076249
0.00091718226
-0.0001046525
0.00092678331
-9.8603203e-05
0.00093598662
-9.3314439e-05
0.0009443531
-8.6041956e-05
0.0009518651
-7.6723919e-05
0.00095858335
-6.5691057e-05
0.00096465375
-5.2729371e-05
0.0009703718
-3.8435427e-05
0.0009762175
-2.1890176e-05
0.00098246689
-4.2603436e-06
0.0009890127
1.3371726e-05
0.00099592756
3.0773941e-05
0.00100297
4.7331414e-05
0.0010102463
6.2531692e-05
0.0010172226
7.6887058e-05
0.0010247033
9.0770268e-05
0.0010325515
0.00010442842
0.0010404524
0.00011580361
0.0010485087
0.0001282132
0.0010579008
0.00013846197
0.0010678174
0.00015062213
0.0010773959
0.00015694273
0.0010890097
0.00016900635
0.0011007011
0.00017477624
0.0011123884
0.00018495503
0.0011289113
0.00019216914
0.0011431007
0.0001991549
0.0011556084
0.00020109228
0.0011730031
0.00020996959
0.0011940236
0.00021451009
0.0011987413
0.00021341098
0.0012282683
0.00022474409
0.00022700932
0.0012427043
0.00087919312
-3.571692e-05
0.00087704472
0.00011979444
0.00086049566
0.00021081442
0.00084222644
0.00016761891
0.00082478018
0.0001098137
0.00081270221
4.2255669e-05
0.00080882392
-2.9009782e-05
0.00081231824
-8.559192e-05
0.00081857339
-0.00011310509
0.00082567839
-0.00012445115
0.00083463123
-0.00013885358
0.00084556303
-0.00015314284
0.00085692342
-0.00016570493
0.00086710148
-0.00016742672
0.00087495905
-0.00015628372
0.00087958215
-0.00013797024
0.00088196214
-0.00012465886
0.00088402445
-0.00011120633
0.00088690051
-0.00010445703
0.00089177466
-0.00010096211
0.00089898446
-9.9415032e-05
0.00090775725
-0.00010096101
0.00091722086
-9.894531e-05
0.00092682146
-9.2411356e-05
0.00093621632
-8.4491198e-05
0.00094482995
-7.7183558e-05
0.00095235808
-7.0289039e-05
0.00095940169
-6.1666797e-05
0.00096595738
-4.9766146e-05
0.00097220059
-3.5209709e-05
0.00097825142
-1.9817405e-05
0.00098435886
-4.1765612e-06
0.00099089766
1.2347035e-05
0.00099765794
2.8307204e-05
0.0010045231
4.3150001e-05
0.0010114816
5.7808739e-05
0.0010184959
7.071308e-05
0.0010255848
8.2813673e-05
0.0010330795
9.5391703e-05
0.0010404238
0.00010488929
0.00104871
0.00011657768
0.0010575326
0.00012528269
0.0010656841
0.00013377474
0.0010765514
0.000143193
0.0010866144
0.00015181125
0.0010984027
0.00015876848
0.0011111797
0.00016662307
0.0011236417
0.00017237296
0.0011368532
0.00017906518
0.0011517916
0.00018424008
0.0011700943
0.00019182407
0.0011792545
0.00019308142
0.001205312
0.000199886
0.0012160657
0.00020074688
0.00020275359
0.0012332544
0.00086899094
-4.9621664e-05
0.00086587062
0.00010320887
0.00084988971
0.00020201073
0.00083398728
0.00015768501
0.00081860202
0.00010569769
0.00080741557
4.4449185e-05
0.00080447422
-2.0869455e-05
0.00080917955
-7.5518672e-05
0.00081699344
-0.00010058556
0.00082493605
-0.0001139493
0.00083437143
-0.00012618801
0.0008455394
-0.00014096367
0.00085746648
-0.00015046618
0.00086822594
-0.00015277306
0.00087653201
-0.00014339055
0.00088097364
-0.00012817248
0.00088323916
-0.0001130377
0.00088478842
-0.00010116664
0.00088713112
-9.7458736e-05
0.00089174214
-9.6443474e-05
0.00089878273
-9.4418561e-05
0.00090763809
-9.0879181e-05
0.00091715029
-8.9491103e-05
0.00092688225
-8.606792e-05
0.00093635492
-7.9629748e-05
0.0009450425
-7.1498395e-05
0.00095286958
-6.34616e-05
0.00096025337
-5.5025053e-05
0.00096712099
-4.5062291e-05
0.00097350982
-3.3646821e-05
0.00097968095
-1.9927442e-05
0.00098596466
-4.4899729e-06
0.00099248103
1.073903e-05
0.00099898645
2.5813302e-05
0.0010059605
4.0413979e-05
0.0010124893
5.2452836e-05
0.0010194014
6.4737749e-05
0.0010262095
7.5176402e-05
0.0010330554
8.5969777e-05
0.001040418
9.4984844e-05
0.0010482093
0.00010532031
0.0010555153
0.0001108334
0.0010654552
0.00012252103
0.0010740097
0.00012743873
0.0010850067
0.00013745182
0.0010947963
0.00014101453
0.0011083122
0.00015235691
0.0011184518
0.0001522992
0.0011344738
0.00016406662
0.0011471599
0.0001647645
0.0011637297
0.00017312213
0.001173627
0.00016951032
0.0011984364
0.00018451794
0.0012024503
0.00017483447
0.00018615031
0.0012263717
0.00086912718
-6.1736773e-05
0.0008624687
8.8477798e-05
0.00084449076
0.00019341757
0.00082776882
0.00014624165
0.00081196631
0.00010023038
0.00080125319
4.6085672e-05
0.00079919535
-1.322466e-05
0.00080515324
-6.6356696e-05
0.00081437738
-8.8669092e-05
0.0008233972
-0.00010306209
0.00083340906
-0.00011365758
0.00084511473
-0.00012912129
0.00085768555
-0.00013669263
0.00086910202
-0.00013827103
0.00087773326
-0.00013114057
0.00088240328
-0.00011863194
0.00088459189
-0.00010161194
0.00088561332
-9.1114035e-05
0.00088744941
-8.5851831e-05
0.00089167692
-8.5755176e-05
0.00089858426
-8.764639e-05
0.00090734525
-8.6495948e-05
0.00091699891
-8.1063183e-05
0.00092673446
-7.6760738e-05
0.00093620316
-7.267769e-05
0.00094503968
-6.6978487e-05
0.00095295981
-5.9948884e-05
0.00096055174
-5.1677199e-05
0.00096755854
-4.2808603e-05
0.00097430269
-3.0881921e-05
0.0009807836
-1.8154331e-05
0.00098716739
-4.705415e-06
0.0009935483
9.7867498e-06
0.001000135
2.3754276e-05
0.0010065764
3.6555745e-05
0.0010131723
4.8422582e-05
0.0010196729
5.8796746e-05
0.0010262481
6.8598259e-05
0.0010328937
7.8174224e-05
0.001039795
8.5963976e-05
0.0010464869
9.342927e-05
0.0010552697
0.00010120191
0.0010627212
0.00010753364
0.0010722724
0.00011420885
0.0010813089
0.00012187437
0.0010934181
0.0001276845
0.0011017859
0.00013285524
0.0011175598
0.00014014159
0.0011271741
0.00014395285
0.0011429257
0.0001473537
0.0011521193
0.00015341526
0.00117546
0.00015754747
0.0011794691
0.00015821477
0.0012021742
0.00016243839
0.00016990446
0.0012187611
0.00087205078
-7.227303e-05
0.00086119997
7.7127937e-05
0.00083979005
0.00018589413
0.00082033497
0.00013623658
0.00080262146
9.5365138e-05
0.00079216161
4.6899256e-05
0.00079117849
-7.4742121e-06
0.00079868151
-5.6798692e-05
0.00080954912
-8.2220873e-05
0.00082035254
-9.2979637e-05
0.00083146462
-0.00010365026
0.00084422678
-0.00011393587
0.00085762856
-0.00012471238
0.00086982682
-0.00012683711
0.00087897501
-0.00011898738
0.00088407065
-0.00010482285
0.00088587419
-9.3393282e-05
0.000886598
-8.3652942e-05
0.000888
-7.7404166e-05
0.00089176905
-7.5643495e-05
0.00089839072
-7.6344909e-05
0.00090722017
-7.7837029e-05
0.00091680096
-7.6090201e-05
0.00092658511
-7.0509131e-05
0.00093608515
-6.4332236e-05
0.00094492395
-5.9314605e-05
0.0009529961
-5.3811344e-05
0.00096056273
-4.7393463e-05
0.00096802906
-3.9085289e-05
0.00097495809
-2.8928234e-05
0.00098168773
-1.6781533e-05
0.00098821924
-4.1168678e-06
0.00099459818
8.5964854e-06
0.0010009153
2.1598916e-05
0.0010071974
3.332859e-05
0.0010134075
4.342242e-05
0.0010197922
5.2646652e-05
0.0010260531
6.0858863e-05
0.001032358
6.9559091e-05
0.0010383908
7.5726333e-05
0.0010461071
8.4872899e-05
0.0010525733
8.7673733e-05
0.0010611008
9.6169435e-05
0.0010694241
0.00010070228
0.0010791164
0.0001076814
0.0010880969
0.00011212471
0.0011006266
0.00011921195
0.0011104194
0.00012220425
0.0011225898
0.00012728741
0.0011372462
0.0001339358
0.0011485384
0.00013398682
0.0011631633
0.00013978949
0.0011769903
0.00014320741
0.0011956228
0.00014507764
0.00014468393
0.0012024976
0.00088166396
-7.9168358e-05
0.00086483951
6.97611e-05
0.00084014473
0.00018055621
0.00081787159
0.00012822312
0.0007979598
9.2495222e-05
0.00078680026
4.7386169e-05
0.00078572376
-2.1607106e-06
0.00079353068
-4.8186404e-05
0.00080521319
-7.4729287e-05
0.00081696059
-8.6102157e-05
0.00082903537
-9.5346585e-05
0.00084252909
-0.00010407087
0.00085699844
-0.00011172755
0.00087021696
-0.00011246345
0.00088014645
-0.00010506
0.00088527933
-9.2168813e-05
0.00088692674
-8.2887021e-05
0.00088732761
-7.4474729e-05
0.00088826167
-7.1416116e-05
0.00089172366
-7.1178421e-05
0.00089811206
-6.9767343e-05
0.00090689042
-6.8239837e-05
0.00091646862
-6.8063244e-05
0.00092625465
-6.558815e-05
0.0009356744
-6.0549414e-05
0.0009446502
-5.4257916e-05
0.00095274155
-4.7950627e-05
0.00096045231
-4.2327e-05
0.000967989
-3.5008113e-05
0.00097522978
-2.621514e-05
0.00098206361
-1.5908126e-05
0.00098853611
-4.8661844e-06
0.0009948818
6.8746339e-06
0.0010010571
1.8504166e-05
0.0010070488
2.9500565e-05
0.0010131283
3.9113693e-05
0.00101921
4.7087946e-05
0.0010252625
5.4445125e-05
0.0010309855
6.1450669e-05
0.0010375861
6.8532637e-05
0.0010433235
7.3076751e-05
0.0010508995
7.83522e-05
0.0010582102
8.3433955e-05
0.0010662948
8.8377943e-05
0.0010757015
9.5387469e-05
0.0010843895
9.6996853e-05
0.001095998
0.00010647211
0.0011044141
0.00010546711
0.0011206567
0.00011552029
0.0011261298
0.00011248255
0.0011456591
0.00012295179
0.0011544136
0.00012085174
0.0011700128
0.00012681928
0.0011795987
0.00012515554
0.00013284756
0.0011987377
0.00089229619
-8.2587691e-05
0.00086875768
6.6286326e-05
0.00084080816
0.00017703783
0.00081642109
0.00012184318
0.00079483917
8.9445548e-05
0.00078299994
4.7806306e-05
0.00078148276
3.4398162e-06
0.00078904198
-4.1312762e-05
0.00080097378
-6.5414577e-05
0.00081318262
-7.9809099e-05
0.00082598139
-8.7079486e-05
0.00084036126
-9.6367432e-05
0.00085608001
-0.00010052805
0.00087039536
-0.0001009398
0.00088105513
-9.4036324e-05
0.00088639807
-8.3672685e-05
0.00088814677
-7.1154563e-05
0.00088802785
-6.3936067e-05
0.00088845489
-6.1104439e-05
0.00089159412
-6.2457071e-05
0.00089780148
-6.4194374e-05
0.00090644838
-6.3444474e-05
0.00091616936
-6.0261194e-05
0.00092597938
-5.6804754e-05
0.00093540754
-5.3588108e-05
0.00094431101
-4.9280853e-05
0.00095238255
-4.4226302e-05
0.00096021092
-3.8786044e-05
0.00096780481
-3.2430185e-05
0.00097507041
-2.4079692e-05
0.00098196473
-1.5091607e-05
0.00098863506
-5.2737103e-06
0.00099512097
5.4102157e-06
0.00100109
1.6179999e-05
0.0010068956
2.608588e-05
0.0010126053
3.437496e-05
0.0010184639
4.1399152e-05
0.0010242452
4.7441228e-05
0.0010303556
5.4951555e-05
0.0010353439
5.9458791e-05
0.0010421072
6.5642603e-05
0.0010481288
6.7129794e-05
0.0010559074
7.3875665e-05
0.0010635862
7.6145428e-05
0.0010711229
8.123991e-05
0.0010825837
8.7134735e-05
0.0010889006
8.8986734e-05
0.0011031226
9.4945726e-05
0.0011101784
9.731001e-05
0.0011251404
0.00010040427
0.0011354728
0.00010527361
0.0011482886
0.00010681031
0.0011592173
0.00010845573
0.0011761222
0.00011351885
0.00011429566
0.0011871733
0.00089802312
-8.3409248e-05
0.00087050194
6.5499362e-05
0.00084127721
0.00017361915
0.00081608908
0.00011423706
0.00079371385
8.5521546e-05
0.00078133096
4.8295703e-05
0.00077915287
8.8784489e-06
0.00078645393
-3.3457975e-05
0.00079835192
-5.764633e-05
0.00081078069
-7.265001e-05
0.00082375465
-8.0003004e-05
0.00083867126
-8.6813034e-05
0.00085501807
-9.0466086e-05
0.00087010263
-8.9973708e-05
0.00088127841
-8.2950581e-05
0.00088716718
-7.3351769e-05
0.00088889123
-6.2029829e-05
0.00088850306
-5.6059717e-05
0.00088866303
-5.2229219e-05
0.00089136163
-5.2140278e-05
0.00089732935
-5.4391552e-05
0.00090597955
-5.6631989e-05
0.00091570216
-5.515865e-05
0.0009254759
-5.1208489e-05
0.00093483341
-4.6958952e-05
0.00094358594
-4.3739034e-05
0.00095167745
-3.8131784e-05
0.00095935155
-3.4197559e-05
0.0009669701
-2.9557652e-05
0.00097442513
-2.2344189e-05
0.00098146807
-1.3807348e-05
0.00098818481
-5.0488397e-06
0.00099440296
4.1250977e-06
0.0010004076
1.3672251e-05
0.0010060689
2.263321e-05
0.0010115845
2.9837806e-05
0.0010170233
3.5190137e-05
0.0010228929
4.1164516e-05
0.0010280738
4.6711641e-05
0.0010336442
5.2090207e-05
0.0010389794
5.5329214e-05
0.0010458879
5.8626938e-05
0.0010518188
6.1128995e-05
0.0010596078
6.6031712e-05
0.0010688756
7.0690042e-05
0.0010754758
7.228911e-05
0.0010867079
7.8380659e-05
0.0010955012
8.0410519e-05
0.001105226
8.2641273e-05
0.001118602
8.8191494e-05
0.0011283498
8.9244045e-05
0.0011375888
9.0111944e-05
0.0011564219
9.7641721e-05
0.0011630366
9.5716665e-05
9.7494227e-05
0.0011761036
0.0008966308
-8.8783107e-05
0.00087236767
5.9962556e-05
0.0008417708
0.00017087767
0.00081577014
0.00010716293
0.00079261006
8.28034e-05
0.00077968524
4.8408661e-05
0.00077701378
1.4242546e-05
0.00078396243
-2.4596617e-05
0.00079577367
-5.1469666e-05
0.00080837805
-6.6043327e-05
0.00082164896
-7.3329251e-05
0.0008371397
-7.6490114e-05
0.00085407458
-8.0736891e-05
0.00086986725
-7.9078909e-05
0.00088156986
-7.223177e-05
0.0008878367
-6.0510113e-05
0.0008893578
-5.3484744e-05
0.00088880553
-4.7936362e-05
0.00088866136
-4.5386882e-05
0.00089102417
-4.625518e-05
0.00089684485
-4.6734775e-05
0.00090550848
-4.7204357e-05
0.00091529044
-4.8060239e-05
0.00092512263