/*--------------------------------*- C++ -*----------------------------------*\
| =========                 |                                                 |
| \\      /  F ield         | OpenFOAM: The Open Source CFD Toolbox           |
|  \\    /   O peration     | Version:  2406                                  |
|   \\  /    A nd           | Website:  www.openfoam.com                      |
|    \\/     M anipulation  |                                                 |
\*---------------------------------------------------------------------------*/
FoamFile
{
    version     2.0;
    format      ascii;
    arch        "LSB;label=32;scalar=64";
    class       surfaceScalarField;
    location    "25";
    object      phi_0;
}
// * * * * * * * * * * * * * * * * * * * * * * * * * * * * * * * * * * * * * //

dimensions      [1 0 -1 0 0 0 0];

oriented        oriented;

internalField   nonuniform List<scalar> 
123996
(
0.0014614335
9.396458e-05
-4.4447237e-05
0.0015192623
0.00025980634
-0.0003176311
0.0016123844
0.00019496492
-0.00024976421
0.0016933294
4.9666262e-05
-0.00010002859
0.0017691043
0.00014000859
-0.00032117566
0.0018870254
0.00018572284
-9.0574324e-05
0.0019382638
5.8888893e-05
-5.7874894e-05
0.0019312174
-6.0781803e-05
1.129414e-05
0.001899703
-0.00016046896
5.2295337e-05
0.001848281
1.3129404e-05
-1.0516235e-05
0.0017393773
0.00015057796
-0.00015429077
0.0015369197
-8.6121509e-05
6.1601554e-05
0.00142048
-0.00014518522
0.00034252765
0.0013138844
-0.0002094873
0.00021722967
0.0013108539
-0.00042022506
0.0003748903
0.0014102194
-5.6499421e-05
0.00020191736
0.0015649568
-6.0736139e-05
0.00038501074
0.001517109
-0.00027616315
0.0002796585
0.0014823949
-0.00011087954
0.0001790902
0.0015541457
-0.00010676353
0.00018971866
0.0015384541
-3.1931241e-05
5.3862973e-05
0.0014042773
-0.00017784959
0.00023476901
0.0012524228
-0.00028896828
0.00033111242
0.0012755928
-0.0001748532
0.00016328802
0.0012693274
-0.00010255643
6.6084264e-05
0.0010955766
-0.00020206094
0.0002479283
0.0011570161
-0.00032821363
0.00051467975
0.0013170757
-0.00022856474
0.00028916408
0.0010717271
-0.00017622477
5.8249567e-05
0.0010551332
-0.00023646892
0.00015210381
0.0013634415
-0.00017180061
0.00015821992
0.001183146
-0.00011893439
-1.4112349e-06
0.00068764661
-0.00025001016
-4.0511856e-06
0.00090135689
-0.00011843394
0.00017950283
0.0016011783
0.0002206081
0.00012581974
0.0018019769
0.00039221654
-0.00018580938
0.0012653477
4.4945289e-05
-0.00022447317
0.00043281133
-0.00043665368
8.4506017e-06
0.00028076958
-0.00062196236
0.00034799827
0.00098441658
-0.00012953664
0.00026107673
0.0020941488
0.00054088433
-0.00023047387
0.0028106077
0.0010022965
-0.00092141151
0.0027363887
0.00091903932
-0.0012790534
0.0020520928
0.00060062566
-0.0011528288
0.0011216713
0.00024326837
-0.00070152746
0.00050045803
-1.4329351e-05
-0.00015450692
0.00076654352
-3.6744313e-05
2.8763685e-06
0.0016766794
0.00026095591
-3.9371858e-05
0.0024796404
0.00067962993
-0.00030222452
0.0027839677
0.00095838201
-0.00065535499
0.0027405125
0.0010912003
-0.00090203611
0.0026425738
0.0010474832
-0.00099080878
0.002626945
0.00085454144
-0.00094533715
0.0026560618
0.00057531921
-0.00080725109
0.00029534332
0.0025463521
-0.00062050122
0.0014031687
5.2792244e-05
0.0014449805
4.4720998e-05
0.0015264202
8.3656163e-05
0.0016141797
8.2323608e-05
0.0016845653
-1.0692299e-05
0.0017875527
0.00016952426
0.0018338371
0.00012676307
0.0018366879
4.7699274e-05
0.0018278879
-1.0661848e-06
0.0017786698
0.00014434081
0.0016471073
8.8185238e-05
0.0014787042
-0.00013650322
0.001375325
1.076279e-05
0.0012449199
-0.00015339133
0.0012964944
-0.00038854104
0.0013461984
-0.00019590149
0.0014533757
6.6717432e-05
0.0014665253
-0.00018383294
0.0014067551
-0.00014567484
0.001467115
-6.696104e-05
0.0014366541
9.3889707e-06
0.0013470668
-3.2897699e-05
0.001236991
-0.00011792615
0.0012142362
-0.00016779979
0.0011787094
-0.00020425497
0.0010235057
-0.00018623959
0.0011319235
-0.00016923143
0.0012441475
-0.00012235168
0.00098268575
-0.00027788534
0.00096820678
-0.00033390244
0.0012049436
-0.00013146903
0.0010259677
-0.00011849837
0.00076005423
-0.00032474156
0.0010340789
-0.00020270016
0.0014644758
0.00025377021
0.0013482099
0.00042433061
0.00075908082
2.6306068e-05
0.00032839584
-0.00050066336
0.0006354069
-0.00047341122
0.0014281158
6.8416987e-05
0.0020989425
0.00060891667
0.0022493248
0.00075639908
0.0018802481
0.0004486949
0.0013009318
-6.8098931e-06
0.00072263943
-0.00029760787
0.00063459742
-0.00025824749
0.0011853714
9.4332867e-05
0.0020834909
0.00049068428
0.0027835725
0.00081810595
0.0030388014
0.00092363667
0.0028244701
0.00088976083
0.0023497646
0.00077867954
0.0018916303
0.0006170307
0.0016483429
0.00039014159
0.00018286403
0.0016772414
0.0013326191
1.0624645e-05
0.0013723785
-6.6024083e-05
0.0014504634
5.5662857e-05
0.0015265369
0.00017701575
0.0016059744
-7.4437667e-06
0.0017024848
7.7212414e-05
0.0017502641
0.00017276115
0.0017550731
0.00020029608
0.0017640133
0.0002165716
0.0016989231
0.00022767699
0.0015516012
2.6878844e-05
0.0014331897
-8.4678964e-05
0.0013023938
8.0298354e-05
0.0011628508
-0.00015000355
0.0012397336
-0.00023930149
0.0013073457
-0.00034768216
0.0013320498
-3.534935e-05
0.0014038472
-0.0001149988
0.0013690745
-0.00020389156
0.0014222599
-0.00013086963
0.001396138
6.4318116e-06
0.0013148123
7.0304399e-05
0.0012047915
-1.9832064e-05
0.0011534367
-0.00013325814
0.0011388811
-0.00020221602
0.0010070902
-0.00020154498
0.0010947527
-0.00014151426
0.0011583175
-9.3144482e-05
0.00095426291
-0.0002857444
0.00098669031
-0.00031820558
0.0011765246
-6.3777702e-05
0.00098533077
-6.0787644e-05
0.00082110913
-0.00025813374
0.0011209668
-0.00015483787
0.00140293
0.00021610971
0.0011333308
0.00028738436
0.00054928821
-7.2523134e-05
0.00041335357
-0.000385385
0.00089276679
-0.00021601753
0.0015659646
0.00027317062
0.001853271
0.00064017384
0.0015875972
0.0005743948
0.0010107998
0.00015875746
0.00050673345
-0.00032111069
0.0004175376
-0.00052344962
0.00075048449
-0.00029555841
0.0013523314
0.0001669373
0.002000918
0.00059771367
0.0024986075
0.00078643916
0.0026622484
0.00073692396
0.002476767
0.00057371921
0.001970266
0.00037715645
0.0013624849
0.00021693024
0.00097120122
0.00014433335
0.00013963071
0.0010393335
0.0012676562
-5.0718827e-07
0.0013112139
-2.3969482e-05
0.0013863754
0.00012625968
0.0014441003
0.000238046
0.0015345702
9.8209838e-05
0.0016205391
3.6045655e-05
0.0016651687
0.00017292759
0.0016718256
0.00024435105
0.0016873661
0.00027015644
0.001611652
0.00018128554
0.0014782775
3.0198233e-05
0.001393859
2.5335195e-05
0.0012328916
3.6296031e-05
0.0011116658
-0.00019771831
0.0011648948
-0.0001034055
0.0012649995
-0.00027621175
0.0012524553
-0.00024475705
0.0013250085
-8.5900105e-05
0.0013043248
-0.00019263904
0.0013564825
-0.00018325548
0.0013446642
6.4255613e-06
0.0012531434
9.6656899e-05
0.0011364287
-4.9639821e-05
0.0010839082
-0.00013897563
0.0010893699
-0.00011371727
0.00097582685
-0.00020589069
0.0010299904
-0.00022334691
0.0010397483
-0.00013560133
0.00089815096
-0.0002364838
0.0010039511
-0.00023303852
0.0011186274
-1.7645059e-05
0.00088455923
-5.5081516e-05
0.00081068552
-0.00018748348
0.001147432
-3.6105103e-05
0.0013348435
0.00020835288
0.00094558296
0.00012828111
0.00041860573
-0.0002066257
0.00049336811
-0.00036127436
0.0010958221
-4.9997976e-05
0.0016573243
0.0003874281
0.0016796308
0.00059427405
0.0011926232
0.0003938915
0.00054351252
-3.5169471e-05
0.00022002041
-0.00039177233
0.00047101235
-0.0004162054
0.0010730787
-0.00011110345
0.0016092317
0.00029703147
0.0019337816
0.00059833119
0.0020504135
0.00066973501
0.0020265604
0.00055699153
0.0018418053
0.00032291986
0.0014855841
7.203049e-05
0.0011261604
-3.2463572e-05
0.00089249624
4.5714639e-06
0.00011841796
0.00091116807
0.0012051433
1.5030536e-05
0.0012534721
0.00010806389
0.0013227685
0.00016852468
0.0013693992
0.00018216394
0.0014538568
0.00015309673
0.0015475177
8.6189161e-05
0.0015900182
0.00014970669
0.001595739
0.00015891243
0.0016016553
0.00018119333
0.0015307101
8.8653534e-05
0.0014223247
8.0913074e-05
0.0013431899
0.00015226243
0.001161999
-1.1767841e-05
0.0010738657
-0.00018632569
0.0010930499
-6.0730688e-05
0.0011953802
-0.00011649325
0.0012001924
-0.00030209502
0.0012453556
-3.1671303e-05
0.0012390241
-7.9107194e-05
0.0013157464
-0.00014483309
0.0013061573
4.231632e-05
0.0011863952
8.529138e-05
0.0010748787
-0.00011690149
0.001051396
-0.00016127631
0.0010397619
-3.2532399e-05
0.00092764774
-0.00018670224
0.00099068581
-0.00027879872
0.00097236937
-0.00018037384
0.00087474931
-0.00018776613
0.0010334505
-0.0001472883
0.0010874787
-3.3765871e-05
0.00084196066
-0.00011036314
0.00083803392
-0.00017398561
0.001174989
5.0251659e-05
0.0012542215
0.00024395098
0.00082158365
4.5823307e-05
0.00039075791
-0.0002887326
0.00058798195
-0.00033610689
0.0012010634
3.813265e-05
0.0015937327
0.0004366266
0.0014414527
0.00048861514
0.00085959528
0.00018099741
0.00026172745
-0.00021589612
0.00019234478
-0.00037185203
0.00061693475
-0.00019003027
0.0012827306
0.0001653886
0.0017322627
0.00045998269
0.0018317678
0.00057694897
0.0016544612
0.00053598048
0.0013832938
0.000375933
0.0011401541
0.0001435698
0.00097276046
-7.2178351e-05
0.00095503385
-0.00014666625
0.0010921714
-3.9626472e-05
0.00017570744
0.0012774573
0.001151442
4.1641851e-05
0.0011963806
0.00024040432
0.0012603576
0.00013841171
0.0013026829
5.5644729e-05
0.0013814435
0.000119837
0.0014755395
0.00015948204
0.0015139003
0.00012324228
0.001516225
5.9776192e-05
0.0015181434
8.9526157e-05
0.0014618121
6.5958304e-05
0.0013684686
0.00012220874
0.0012771617
0.00023018453
0.0011019226
-1.5401951e-05
0.001040152
-9.1013941e-05
0.0010393057
-6.5741598e-05
0.0011222941
-1.054801e-05
0.0011748017
-0.00022453034
0.0011876153
4.3096685e-05
0.0011728515
3.9163876e-05
0.0012790942
-2.990654e-05
0.0012609247
0.00010673365
0.0011058027
7.0423593e-05
0.0010241302
-0.00012444658
0.0010381652
-0.00011636133
0.00098615824
1.7502457e-07
0.00086261197
-0.00017472619
0.00095281351
-0.00025903571
0.00092459564
-0.00018477455
0.00084201694
-0.00016401102
0.00099632667
-8.539443e-05
0.0010063611
-4.0376718e-05
0.00078330431
-0.0001846399
0.0008444565
-0.00020877833
0.0011439944
9.3879639e-05
0.001121253
0.000262371
0.00069436183
1.5794494e-05
0.00038452321
-0.00031994602
0.00065088715
-0.00029663505
0.0012220627
0.00010402003
0.0014840806
0.00041398811
0.0012126487
0.00033254847
0.00064256608
-3.9779527e-05
0.00019384334
-0.00034841761
0.00028571991
-0.00034327353
0.00079280943
8.0282986e-06
0.0013947614
0.00037351593
0.0017005502
0.00057613
0.0016510138
0.00051811344
0.0013557439
0.00035441309
0.00096710049
0.00014775965
0.00064784484
-2.5172117e-05
0.00060800998
-0.00013304825
0.00083447646
-0.00010111017
0.0012057881
3.9937068e-05
0.00023593699
0.0015729515
0.0011007173
4.9800123e-05
0.0011344119
0.00023050776
0.0011956221
8.088172e-05
0.0012427665
-8.6917033e-06
0.0013163663
6.8197586e-05
0.0014024584
0.00022472184
0.00143736
0.00011991054
0.0014444228
3.0975717e-05
0.0014438046
6.9630477e-05
0.0013975255
0.00011315723
0.0013176393
0.00012919988
0.0012134256
0.00021790643
0.0010587912
2.074868e-05
0.0010003991
1.8769552e-05
0.00099521413
-0.00010265776
0.0010469411
2.0047091e-05
0.0011498949
-8.2144686e-05
0.0011364072
6.4864676e-05
0.0011162336
6.4490397e-05
0.0012410683
7.7069032e-05
0.0012091888
0.00015931452
0.0010378531
4.5980468e-05
0.00098915177
-6.9384345e-05
0.0010218028
2.4720952e-06
0.00092309848
1.012802e-05
0.0008139321
-0.00015067936
0.00092681836
-0.00016432941
0.0009005132
-0.00013755255
0.00082845601
-0.00015965639
0.00095317498
-5.3438117e-05
0.00093013637
-3.0443889e-05
0.00075295347
-0.00022315434
0.00087836789
-0.00021224683
0.00113063
9.448528e-05
0.0010264164
0.00023897136
0.0006150606
-4.3818146e-06
0.00041294683
-0.00030568529
0.00071658927
-0.00021947762
0.0012084208
0.00016668981
0.0013284698
0.00039193244
0.00097620754
0.00022000528
0.00045352462
-0.0001634616
0.00020936893
-0.00043139763
0.00045506605
-0.0003047749
0.00095428258
8.8814939e-05
0.0013516326
0.00043179622
0.0014935248
0.00055304566
0.0013598121
0.00042345456
0.0010585077
0.00017132242
0.00069025944
-6.4026187e-05
0.00044416614
-0.00018556501
0.00049567436
-0.00015484959
0.00079235905
-1.0915703e-05
0.0011931875
0.00016609466
0.00033104314
0.0016065999
0.0010529982
4.0813608e-05
0.0010754167
9.8251955e-05
0.0011345668
5.2191419e-05
0.0011860867
4.6986933e-06
0.0012596944
5.7028226e-05
0.0013335057
0.0002288353
0.0013658565
0.00014607422
0.0013793519
7.655693e-05
0.0013803469
0.00011167303
0.0013360966
0.0001802587
0.0012639644
0.00014092118
0.0011524922
0.00013976111
0.0010202735
2.9322125e-05
0.00094567349
8.4608522e-05
0.00095782125
-0.00013059842
0.00098698759
-1.1785457e-06
0.0011104177
7.8271624e-05
0.0010830201
2.1573977e-05
0.0010676157
-1.4948477e-05
0.0011956898
0.00010599842
0.0011505807
0.00016287998
0.00098867797
-1.4319244e-05
0.00096453818
-1.8129023e-05
0.00098683376
0.00010768422
0.00086555459
1.3666242e-05
0.00078080812
-0.00011337746
0.00088965672
-5.5810508e-05
0.00086477041
-8.0330979e-05
0.00081313929
-0.00015968729
0.00090437383
-3.8732329e-05
0.00084304226
-2.2440383e-05
0.00071795278
-0.00020850662
0.00088851431
-0.00017215131
0.0010954443
0.00010170598
0.00093216353
0.00018674099
0.00053705652
-4.863535e-05
0.00043026766
-0.00028833697
0.00076965341
-0.00015394132
0.0011744197
0.00021446579
0.0011763847
0.00037201859
0.00078233664
0.00014855994
0.00034387122
-0.0002235323
0.00027192839
-0.00042625034
0.00060043817
-0.00025322524
0.0010397826
0.00011463302
0.0012732612
0.0003938013
0.0012360644
0.00044716691
0.0010326664
0.00028718006
0.00073597877
3.6239766e-05
0.00046989247
-0.00020308215
0.00038925076
-0.00027858614
0.00054501932
-0.00015814364
0.00087136377
5.7470128e-05
0.0012435973
0.00027575856
0.00043655351
0.0015685291
0.0010047508
2.1852062e-05
0.0010223873
-3.403676e-05
0.0010778253
4.5363075e-05
0.0011302795
8.743932e-05
0.0012042596
8.1973562e-05
0.0012689373
0.00016435896
0.0013007188
0.00017144262
0.0013169388
0.00015685637
0.0013207427
0.00015463319
0.0012763552
0.00022485943
0.0012093108
0.00017255817
0.0010967198
4.5506848e-05
0.00098302416
1.6738733e-05
0.00088867772
7.5024681e-05
0.00091870046
-0.00011525228
0.00094460246
-4.0149992e-05
0.0010503488
0.00020402488
0.0010257383
-2.8927869e-05
0.0010207104
-0.00011953462
0.0011395901
9.1467129e-05
0.0010840554
0.00010831843
0.00095236966
-8.2480111e-05
0.00094530909
-3.7909977e-06
0.00093268173
0.00016418682
0.0008195078
-2.9292843e-06
0.00076034278
-8.6271656e-05
0.00084281373
9.4331104e-06
0.00081675772
-5.6572248e-05
0.00079970184
-0.00016027302
0.00086713167
-3.9910921e-05
0.00077557813
-3.2808358e-05
0.00069701955
-0.00017075727
0.00089642134
-0.00010799864
0.0010700806
0.00011231513
0.00086659203
0.00014014893
0.0004911825
-0.00010625828
0.00045833519
-0.00029194391
0.00081100977
-0.00011112067
0.0011311793
0.00023659195
0.0010409823
0.0003401885
0.00063492854
9.3594871e-05
0.00028248129
-0.00024687772
0.00033206223
-0.00036517787
0.00070100831
-0.00016309011
0.0010699567
0.00015425211
0.0011802055
0.00033121039
0.0010242868
0.00032133954
0.0007365734
0.00015695727
0.00045720604
-7.3925545e-05
0.00031162139
-0.00024452941
0.00040213182
-0.00025778617
0.00066636707
-0.00010500971
0.00099606067
0.00011851469
0.0013049699
0.00032428323
0.00047363889
0.0015330261
0.00095670537
1.2865922e-05
0.00097548168
-0.00011526488
0.0010277129
8.0772696e-05
0.0010767696
0.00019383961
0.0011485897
0.00012567702
0.0012091571
8.0175118e-05
0.0012411664
0.00017510999
0.0012573436
0.00022230787
0.0012649083
0.00017835472
0.0012196712
0.00023021046
0.0011498957
0.00020604615
0.001047807
-1.872691e-05
0.00094675687
2.0705984e-05
0.00083815432
4.6979774e-05
0.00087496604
-4.8622814e-05
0.00091408501
-7.3380157e-05
0.00098200084
0.00024169561
0.00096746527
-4.1550482e-05
0.00098093702
-0.00016777265
0.0010788672
7.3714797e-05
0.0010182526
3.8528945e-05
0.00092401428
-0.00010921064
0.00092784788
2.0867609e-06
0.00087188699
0.00012126519
0.00077991945
-3.6814239e-05
0.00074564053
-7.0103527e-05
0.00078945593
2.5707928e-05
0.000759042
-5.7494692e-05
0.00077963897
-0.00015680372
0.00082761073
-4.9901536e-05
0.00071769263
-4.3911067e-05
0.00067413702
-0.000134087
0.00088498391
-4.7869146e-05
0.0010225283
0.00013696752
0.00079521171
0.00010658689
0.00044709482
-0.0001585246
0.0004659937
-0.00030521497
0.00082812908
-9.2219749e-05
0.0010742835
0.00022921671
0.00092714298
0.0002928952
0.00053063724
4.1852768e-05
0.00026478098
-0.00025110577
0.0003934256
-0.00028999982
0.00075547146
-5.4440111e-05
0.0010579025
0.00019808911
0.0010919839
0.00029999081
0.00087699571
0.00022065552
0.00055551798
4.6928186e-05
0.00028901886
-0.00013682211
0.00025081734
-0.00022813261
0.00045146734
-0.00017004691
0.00076813523
-5.0633625e-06
0.001076228
0.00018824368
0.0013117628
0.00034216321
0.00044032671
0.0014534692
0.00090874676
1.350153e-05
0.00093275749
-0.00011016396
0.00098117284
0.00013615089
0.001024502
0.00026011521
0.0010915938
0.00015775099
0.0011518146
1.0705255e-05
0.0011840836
0.00015163935
0.0011981858
0.00024402727
0.0012090441
0.00019387326
0.0011657402
0.00020895715
0.0010907637
0.00020729898
0.0010048394
-2.3196892e-05
0.00090922619
5.6100621e-05
0.00079932352
1.3519318e-05
0.0008282244
4.5248703e-05
0.00088526105
-5.933538e-05
0.00091328967
0.00018707932
0.00091257286
-1.7827071e-05
0.00094574678
-0.00012814383
0.0010191196
7.8302442e-05
0.00095794245
1.0273869e-05
0.00089842276
-6.3804202e-05
0.00089796494
3.1350702e-05
0.00081709973
4.0537717e-05
0.0007484953
-6.5209229e-05
0.00073100916
-5.1240335e-05
0.00073875461
2.8051835e-05
0.00070546708
-6.306052e-05
0.00075745411
-0.00014461839
0.00079532746
-6.0045952e-05
0.00068203576
-5.6758624e-05
0.00065761347
-0.00010787105
0.00086695305
-4.6589249e-06
0.0009781602
0.00015460302
0.00073707238
7.9700893e-05
0.00042154511
-0.00019460056
0.00047772756
-0.00031073601
0.00082828495
-7.8739807e-05
0.0010130238
0.00022052925
0.00082394351
0.00024476152
0.00045504707
-1.3874332e-05
0.00027016602
-0.00025382972
0.0004375349
-0.00022199169
0.00077851894
2.6513929e-05
0.0010152924
0.00024841571
0.0010034809
0.0002983782
0.00076216882
0.00017252174
0.00044700034
-3.0809392e-05
0.00022559481
-0.00018474016
0.00025747116
-0.00019555771
0.00050596973
-6.3887382e-05
0.00082680829
0.00011138362
0.0011045355
0.00026616616
0.0012866739
0.00036292512
0.00039654558
0.0013418301
0.0008636953
2.0807346e-05
0.00089292326
-2.9763509e-05
0.00093740967
0.00017269573
0.00097445095
0.00024223888
0.0010348707
0.00016149975
0.0010985493
-1.6840822e-05
0.0011293458
0.00010696314
0.0011399506
0.00021436497
0.0011526969
0.00020172006
0.0011143704
0.00018309662
0.0010371145
0.00017521274
0.00096934191
3.5733725e-05
0.00087228657
0.0001184701
0.00076809641
2.6111749e-06
0.0007826633
0.00012481445
0.00085449836
-8.5041885e-06
0.00085407641
6.3552865e-05
0.00086163705
2.598226e-05
0.00091471328
-3.2342187e-05
0.00096514132
9.0790301e-05
0.00091484726
2.6489316e-05
0.00087568308
6.5137383e-05
0.00085994984
9.1936613e-05
0.00076884232
-2.4396342e-05
0.00072010682
-8.0000432e-05
0.00071242217
-2.1756894e-05
0.00069214809
3.0061071e-05
0.00065702369
-6.4286262e-05
0.00072834281
-0.00011947188
0.00076108664
-6.1579192e-05
0.00065016517
-6.0817663e-05
0.00063602168
-8.0476354e-05
0.0008359432
2.8041357e-05
0.00092214385
0.00015804308
0.00067874883
5.3160772e-05
0.00039874077
-0.0002187382
0.00048314092
-0.00030486955
0.00081356556
-5.9617239e-05
0.00095402882
0.00021206755
0.00074293988
0.00019585592
0.00040166454
-5.3578326e-05
0.00028509425
-0.00024732921
0.00048130848
-0.00017857322
0.00079414092
6.8821907e-05
0.00096760825
0.00027030631
0.00090257335
0.00029141571
0.0006637161
0.00014050475
0.00037918282
-7.3546836e-05
0.00022773356
-0.00020770942
0.00031490016
-0.00016123241
0.00056732951
1.5261683e-05
0.0008548613
0.00019894627
0.0010873071
0.00032541205
0.0012109376
0.00038327809
0.00036895621
0.0012023952
0.00082339312
2.9754168e-05
0.0008552996
9.471216e-05
0.00089483448
0.00017180315
0.00092623899
0.00016184943
0.00098078288
0.00013704012
0.0010483631
4.2279624e-06
0.0010774276
6.7618604e-05
0.0010842553
0.00014782689
0.0010971038
0.000202626
0.0010632385
0.00016610537
0.00098880353
0.00012885953
0.00093472324
0.00012791677
0.00083362086
0.00018700201
0.00074069119
-1.6248594e-06
0.00074018435
0.00015496742
0.0008148971
4.1390986e-05
0.00080739419
-5.8938062e-05
0.00081802724
6.9692695e-05
0.00087924708
7.3450733e-05
0.00091753071
7.9716253e-05
0.00088714819
7.3903981e-05
0.00085110024
0.00021021029
0.00081209444
0.00016679512
0.00072862363
-5.9997993e-05
0.0006966212
-8.8217643e-05
0.00069111837
4.0609175e-06
0.00065191533
3.4825031e-05
0.00061630564
-5.6385564e-05
0.00069757763
-8.3945857e-05
0.00073094304
-5.0996797e-05
0.00062910415
-6.0769485e-05
0.0006162231
-5.1908652e-05
0.00080013965
5.9174334e-05
0.00086680651
0.00015253075
0.00063435618
1.8595832e-05
0.00038756791
-0.00022866074
0.0004925219
-0.00028398718
0.00080057948
-3.2031719e-05
0.00090071471
0.00020741915
0.00067369281
0.00016534634
0.00036118346
-7.1467392e-05
0.00029654574
-0.00023379101
0.00050633048
-0.00015554051
0.00078600722
7.3306924e-05
0.00091596619
0.00025910253
0.0008108557
0.00027077432
0.00057117062
0.00011291639
0.00033690161
-9.3878535e-05
0.00026022448
-0.00020021438
0.00039033385
-0.00013674669
0.00063015054
4.8951877e-05
0.00087687524
0.00022838841
0.0010472086
0.00033713331
0.0011153085
0.00037455396
0.0003369527
0.0010674974
0.00078739997
3.7499969e-05
0.00081745508
0.00021463911
0.00085299342
0.0001511497
0.00088205087
6.0307477e-05
0.00093183879
9.463293e-05
0.0010000127
5.6079205e-05
0.0010276867
5.4327278e-05
0.0010327012
7.3529427e-05
0.0010442122
0.00019372843
0.0010136718
0.00015444492
0.00094739379
9.5751581e-05
0.00090028522
0.00021997256
0.00079378804
0.00024014013
0.00071491054
-3.1865218e-06
0.00070122359
0.00012967196
0.00076712948
8.1216184e-05
0.00077346901
-0.00013154884
0.00078147451
0.0001028716
0.00083672356
0.00014971543
0.00087510943
3.3515009e-05
0.00086792464
0.0001029867
0.00082350988
0.00030799858
0.00075996345
0.00022210109
0.00069467637
-6.3031965e-05
0.0006773763
-8.243288e-05
0.0006665136
1.9640862e-05
0.00061546087
4.2012466e-05
0.00058445373
-3.7690986e-05
0.00066285024
-4.4015595e-05
0.00069858745
-3.412661e-05
0.00061114091
-5.9722077e-05
0.00059433425
-2.4875691e-05
0.00075670934
8.7703242e-05
0.00080563364
0.00014519281
0.00058901878
-1.4017406e-05
0.00037945815
-0.00024117841
0.00049597214
-0.00026031937
0.00078202945
-2.8242605e-06
0.00085164735
0.00021066937
0.00062165228
0.00014945386
0.00033861641
-7.3873289e-05
0.00030077947
-0.00021494681
0.00051011944
-0.00014219598
0.00076975801
6.5528151e-05
0.00086578582
0.00022778988
0.00073868931
0.00022724594
0.00049765878
8.5246179e-05
0.00030081673
-0.00010819844
0.00028777933
-0.0001765802
0.00044358728
-0.00010874506
0.00066787897
5.6214523e-05
0.00086172533
0.00022795938
0.00098984126
0.00032735759
0.0010144732
0.00035215863
0.00029474485
0.00093768842
0.00075504584
4.0655601e-05
0.000779688
0.00028041329
0.00081212082
0.00012920722
0.00084106569
-2.1061262e-05
0.00088726538
4.9108424e-05
0.00095287281
0.00012178588
0.00097871545
6.1105309e-05
0.00098613381
2.1024822e-05
0.00099467284
0.00017793211
0.0009650054
0.0001416436
0.00090899279
8.8353244e-05
0.00086444717
0.00028371977
0.00075355464
0.00025808099
0.00068826294
4.6384523e-06
0.00066531795
7.4011678e-05
0.00071859791
9.7153319e-05
0.00074663847
-0.00013505519
0.00074852342
0.00014061679
0.00078743505
0.00017405637
0.00083442736
-1.7089455e-05
0.00084516985
9.1895115e-05
0.00079063183
0.00032514243
0.00071135565
0.00024555076
0.00066463565
-4.6491958e-05
0.00065719876
-7.7532109e-05
0.00063965545
2.5134466e-05
0.00058308781
3.8980325e-05
0.00055596062
-2.3847684e-05
0.00062714714
-9.3285647e-06
0.00066629595
-2.0957517e-05
0.00059899672
-6.4189223e-05
0.00057631432
-7.1471801e-06
0.00071184221
0.00011399968
0.00074583893
0.00013800697
0.00055050852
-3.951539e-05
0.00037265473
-0.00025259716
0.00049831492
-0.00023296548
0.00076192667
3.048761e-05
0.00080918879
0.00022411716
0.00058441833
0.00014689885
0.00032695063
-6.9954225e-05
0.00030069154
-0.0001941823
0.00049768262
-0.00012202726
0.00073985587
6.2798545e-05
0.000810541
0.00019433732
0.00066831425
0.00017512751
0.00043916537
4.0080658e-05
0.00027301086
-0.00010932192
0.00030334948
-0.00015561825
0.00046363748
-7.727438e-05
0.00067062711
6.4070362e-05
0.00083648829
0.00021348527
0.00092453382
0.00029690898
0.0009072655
0.00031411671
0.0002441753
0.0008001468
0.00072413879
3.9646688e-05
0.00074210207
0.00027343775
0.00077287364
0.00010940148
0.0008029637
-5.5450991e-05
0.00084744676
1.63526e-05
0.00090717524
0.00017106224
0.00093148258
8.6644278e-05
0.00094307201
6.1405996e-06
0.00094802838
0.00015790501
0.00091934761
0.00012466499
0.00087355694
0.00010017207
0.00082732327
0.00030614414
0.00071509265
0.00023738409
0.00066028897
2.4596839e-05
0.00063354079
1.8728011e-05
0.00067307739
9.1801715e-05
0.00072390173
-8.1348096e-05
0.0007173015
0.00016921867
0.00073595944
0.00016401282
0.00079479221
-5.4375043e-05
0.00081912635
6.1654283e-05
0.00075437137
0.0002748441
0.00066780332
0.00022583623
0.00063889662
-9.2450393e-06
0.00063929004
-6.3651862e-05
0.00061427333
2.2263771e-05
0.00055252003
2.6422661e-05
0.00053053758
-1.906372e-05
0.00058967183
1.4681248e-05
0.0006301265
-1.7302619e-05
0.00058721968
-7.6380343e-05
0.00056210325
-2.0147489e-06
0.00066631328
0.00013564711
0.00068625573
0.00013437016
0.00051304089
-5.750372e-05
0.00036590105
-0.00025991916
0.00049421115
-0.0002028112
0.00073637578
6.09392e-05
0.00076845956
0.00023333767
0.00055486117
0.00014140779
0.00032327621
-6.650034e-05
0.00030371733
-0.00017055405
0.00048232539
-9.6184303e-05
0.00070202048
7.1693882e-05
0.00075835544
0.00016932323
0.00061173438
0.00012150984
0.00039754669
-9.7195453e-06
0.00025924185
-0.00012386491
0.00029915932
-0.00014161671
0.00046327619
-5.0044389e-05
0.0006542162
8.8949798e-05
0.00080630161
0.00020290885
0.00085474699
0.00026583192
0.00080781403
0.00025100748
0.00018081678
0.00067329044
0.00069477837
3.5701373e-05
0.00070638298
0.00020908632
0.00073581285
8.2738305e-05
0.00076723902
-3.9048673e-05
0.00081061182
5.1243985e-06
0.00086370543
0.00018801552
0.00088638043
0.00011981148
0.00090187113
2.7950746e-05
0.00090342902
0.00013304139
0.00087657747
0.00010713662
0.00083887845
0.00011770714
0.00078911043
0.00027918999
0.00067919566
0.00018391752
0.00063062733
5.7718536e-05
0.00060482522
-1.3683326e-05
0.00063400175
7.1117024e-05
0.00070070428
2.0792239e-06
0.00068486383
0.00017443702
0.00068889042
0.00013365441
0.00075681073
-5.3135334e-05
0.00078827776
4.208255e-05
0.00071704323
0.00018050366
0.0006277578
0.00016942811
0.0006111808
3.481484e-05
0.00062000283
-3.6821853e-05
0.00058951108
1.837405e-05
0.00052509079
1.0397958e-05
0.00050800208
-2.0163984e-05
0.00055175138
2.6354864e-05
0.00059144279
-2.330797e-05
0.0005750295
-9.4984492e-05
0.0005547925
-7.8123757e-06
0.00062401507
0.00014774298
0.00063095421
0.00013458276
0.00047809395
-6.8012282e-05
0.00036264014
-0.00026039502
0.00048985474
-0.00018102575
0.00070501458
8.2997981e-05
0.00072397629
0.00023039603
0.00052787385
0.00012633525
0.00032027516
-6.2863403e-05
0.00030021181
-0.00014517583
0.00046038361
-6.5143882e-05
0.000657822
8.0791101e-05
0.00070314372
0.00015144644
0.00055655638
8.0299321e-05
0.00036064072
-5.3542236e-05
0.00024241231
-0.00014654835
0.00028859796
-0.00013576416
0.00044978865
-3.3406345e-05
0.0006304626
0.00010315654
0.00075692246
0.0002028993
0.00078406695
0.00024508605
0.00070952152
0.00020676682
0.00012530421
0.00056385843
0.0006653444
3.043127e-05
0.00067258686
0.00011486055
0.00070103272
4.7633385e-05
0.00073291276
7.112505e-06
0.000775595
1.4140114e-05
0.00082257172
0.00017295455
0.0008438977
0.00014651786
0.00086168082
7.3839455e-05
0.00086106805
0.00010381123
0.0008369032
9.2201033e-05
0.00080437321
0.00012878279
0.00075122715
0.00021412544
0.00064713116
0.00010945617
0.0006012296
9.5743338e-05
0.00057847384
-1.8919117e-05
0.00060093143
4.6641503e-05
0.00067536073
8.6177041e-05
0.00065256554
0.00014199303
0.00064690229
9.0716774e-05
0.00072190131
-2.1491226e-05
0.00075544847
4.5170188e-05
0.00068332461
8.2729016e-05
0.00059540593
9.5745893e-05
0.00058328901
7.6345145e-05
0.00059818769
-3.9647163e-06
0.00056504816
1.860254e-05
0.00050164432
-1.96488e-07
0.00048762311
-2.2845657e-05
0.00051544183
3.2478497e-05
0.00055059753
-3.0706459e-05
0.00055906665
-0.00011682296
0.00055098616
-2.3366599e-05
0.0005887548
0.00014785479
0.00058161668
0.00013811383
0.00044846194
-7.2128935e-05
0.00036155077
-0.00025104071
0.0004841632
-0.00016191174
0.00067491157
9.4029295e-05
0.0006808421
0.0002176164
0.00050336699
0.0001088558
0.00032190136
-6.1830706e-05
0.00029985764
-0.0001239904
0.00044124474
-3.7636968e-05
0.00061254706
9.6143718e-05
0.00064730734
0.00014411339
0.00051296005
5.6757257e-05
0.00033799212
-7.7408492e-05
0.00023979269
-0.00016500939
0.00028583749
-0.00013603517
0.00043549572
-2.7842429e-05
0.00060068375
0.00011304795
0.00070811391
0.00020865725
0.0007202367
0.00023793662
0.00063504169
0.00018504332
9.7149338e-05
0.00048450756
0.00063711503
2.5650709e-05
0.00064156222
1.6736314e-05
0.00066880593
1.4449859e-05
0.00069949344
6.9728087e-05
0.00074087049
3.6157092e-05
0.0007839843
0.00013512113
0.00080474985
0.00015962617
0.00082226828
0.0001275279
0.00082076352
7.3064094e-05
0.00079942367
8.2125561e-05
0.00076897302
0.00012748175
0.00071360905
0.00013440582
0.00061842232
2.7267248e-05
0.00057215289
0.00012931146
0.00055274976
-6.7604612e-07
0.00057257932
3.0573447e-05
0.00064655756
0.00014999139
0.00062015951
7.8178184e-05
0.00061088284
3.7853991e-05
0.00068875044
4.4552077e-05
0.00072017146
7.1813849e-05
0.00065170919
-5.1960839e-07
0.00056950503
1.9032178e-05
0.00055519514
0.00010666297
0.00057501805
2.8192725e-05
0.00054228248
2.644761e-05
0.00048056102