/*--------------------------------*- C++ -*----------------------------------*\
| =========                 |                                                 |
| \\      /  F ield         | OpenFOAM: The Open Source CFD Toolbox           |
|  \\    /   O peration     | Version:  2406                                  |
|   \\  /    A nd           | Website:  www.openfoam.com                      |
|    \\/     M anipulation  |                                                 |
\*---------------------------------------------------------------------------*/
FoamFile
{
    version     2.0;
    format      ascii;
    arch        "LSB;label=32;scalar=64";
    class       volScalarField;
    location    "25";
    object      rho_0;
}
// * * * * * * * * * * * * * * * * * * * * * * * * * * * * * * * * * * * * * //

dimensions      [1 -3 0 0 0 0 0];

internalField   nonuniform List<scalar> 
20580
(
0.99824187
1.0007076
0.99485146
0.99482385
0.99586198
0.99286191
0.99337462
0.99303197
0.99230108
0.99206706
0.99209382
0.99135746
0.99198387
0.99134573
0.99125215
0.99222978
0.99232309
0.99195754
0.99424188
0.99325474
0.99209854
0.99393601
0.9946563
0.9948081
0.99230445
0.99479054
0.9951737
0.99426843
0.9947943
0.9949834
0.98869434
0.99831666
1.0008791
0.99490339
0.99426773
0.99616008
0.99323964
0.9934364
0.99316066
0.99234755
0.99218004
0.99185888
0.99132677
0.99207593
0.99112458
0.99105115
0.99244631
0.9921609
0.99185902
0.99455185
0.99238436
0.99224979
0.99459798
0.99434818
0.99422788
0.99246662
0.99563258
0.9960771
0.99433762
0.99314008
0.99374395
0.99335476
0.99922153
1.0005589
0.9958121
0.99458131
0.99587477
0.99414077
0.993678
0.99343066
0.9925996
0.99228808
0.99163038
0.99136223
0.99180308
0.99100652
0.99118325
0.99250984
0.99196537
0.99186188
0.99423294
0.99172643
0.99254674
0.99570913
0.99392927
0.99384297
0.99234982
0.99562792
0.99624798
0.99341762
0.99206295
0.99144708
0.99464189
1.0007558
0.99985235
0.99737452
0.99567143
0.99518109
0.99517493
0.99398322
0.99363229
0.99290867
0.9923918
0.99151245
0.9914937
0.99162067
0.99115222
0.99139623
0.99226774
0.99180828
0.99227834
0.99395805
0.99157289
0.99292234
0.99656023
0.99353067
0.99397017
0.99281035
0.99470745
0.99581601
0.99223098
0.9918457
0.99147695
0.99426219
1.0023903
0.99930632
0.99902578
0.99686642
0.99449041
0.99573614
0.99413113
0.99352677
0.99301178
0.99242802
0.99163376
0.99161487
0.99135376
0.99122507
0.99177088
0.99203648
0.9916509
0.99274914
0.99353217
0.99197327
0.99317895
0.99639786
0.99286219
0.99440616
0.99356749
0.9931816
0.99486443
0.99180372
0.99083318
0.99252396
0.99546506
1.0034505
0.99908561
0.99995028
0.99776218
0.99411705
0.99546593
0.99402519
0.99310923
0.99288592
0.99227349
0.991907
0.99178689
0.99125957
0.99131963
0.9921381
0.9919094
0.99161629
0.99302915
0.99283212
0.99266569
0.99376804
0.99536773
0.99172215
0.99466311
0.99468191
0.99148372
0.99336398
0.99311397
0.99038773
0.99174755
0.9945277
1.0033029
0.99919679
0.99965572
0.99800883
0.99424855
0.99461289
0.99383423
0.992745
0.99287426
0.99207866
0.99202472
0.99182908
0.99123317
0.99151534
0.99212001
0.99171767
0.99163206
0.99315079
0.99199351
0.99309933
0.99456031
0.99442045
0.99075217
0.99352987
0.99597387
0.99153293
0.9915304
0.99496278
0.99271593
0.99171491
0.99146264
1.0020728
0.99970301
0.99850266
0.99726103
0.99483096
0.9937494
0.99362599
0.99274511
0.992943
0.99199273
0.99183875
0.99177244
0.99115014
0.991707
0.99199473
0.99149685
0.99162837
0.99315937
0.99093669
0.99321833
0.99494573
0.99386609
0.99149832
0.99222551
0.99594988
0.99382217
0.9902139
0.9947909
0.99563565
0.99434005
0.99123727
1.0002716
1.0004539
0.99703102
0.99578625
0.99554807
0.99337385
0.99350516
0.9932836
0.9930446
0.99206077
0.99166786
0.99166821
0.99105298
0.99173904
0.99152574
0.99128453
0.99161397
0.99329732
0.99065071
0.99329135
0.9943025
0.99316092
0.99327792
0.9924995
0.99490197
0.99577569
0.99131041
0.99286973
0.99613222
0.99665545
0.99364274
0.99869034
1.0011845
0.99575364
0.99445504
0.9960077
0.99362373
0.99352826
0.99403033
0.99308667
0.99218567
0.99181146
0.99160656
0.99116516
0.99155363
0.99102052
0.99109131
0.99141082
0.99323655
0.99115242
0.9936469
0.99361723
0.99223397
0.9943361
0.99314278
0.99409067
0.99523519
0.99368814
0.99203741
0.99466292
0.99608348
0.99439772
0.99815548
1.0013433
0.99537661
0.99406903
0.99608463
0.99451104
0.99365075
0.99431892
0.99292679
0.99232972
0.99211902
0.99155494
0.99154134
0.99139486
0.99089862
0.9913741
0.9916651
0.99268117
0.9917411
0.99381586
0.993381
0.99169184
0.99467372
0.99359441
0.99385238
0.9934677
0.99459753
0.99232036
0.99308476
0.99391737
0.99393744
0.99880365
1.0008404
0.99611804
0.99458838
0.99575098
0.99546232
0.99389802
0.99386264
0.99261821
0.99254816
0.99230708
0.99152921
0.99185637
0.99131841
0.99109533
0.9917951
0.99209459
0.99188098
0.99216593
0.99375217
0.99338154
0.99161529
0.99504391
0.99414068
0.99313685
0.99253906
0.99467247
0.99294385
0.99208869
0.99186429
0.99324472
1.0003275
0.99995494
0.99756657
0.99591095
0.99526425
0.99575917
0.99416626
0.9930837
0.99244817
0.99274943
0.99221994
0.99149216
0.9919516
0.99140172
0.9912855
0.99196321
0.99260377
0.99120477
0.99248808
0.99361156
0.99347479
0.99135425
0.9953137
0.99523506
0.99220124
0.99192
0.9951189
0.99425312
0.99171772
0.99003143
0.99149734
1.0020849
0.99922182
0.99884709
0.99753115
0.99476962
0.99534504
0.99430194
0.99261716
0.99258814
0.99279771
0.99195657
0.99137233
0.99176454
0.99154302
0.99133965
0.9917545
0.99291152
0.99084514
0.99274449
0.99319895
0.99347345
0.9911141
0.9947842
0.9964098
0.99213497
0.99118457
0.99470186
0.99579513
0.99294849
0.9896164
0.98985519
1.0033078
0.99884812
0.9995113
0.99861145
0.99457936
0.99442536
0.99429946
0.99286822
0.99299261
0.9926231
0.99182007
0.99140383
0.99135725
0.99150333
0.99131241
0.99109569
0.99258403
0.99083082
0.9931955
0.99264771
0.993232
0.99179234
0.99323819
0.99600062
0.99287326
0.99128688
0.99308466
0.99591047
0.99514549
0.99149105
0.99071915
1.0034636
0.9990928
0.99929185
0.99837569
0.99480502
0.99365265
0.99414226
0.99364008
0.99347758
0.99241575
0.99187931
0.99171179
0.99128362
0.99137041
0.99150939
0.99077385
0.99192217
0.99072657
0.99352225
0.9921722
0.99260115
0.9936981
0.9923482
0.99347855
0.99363188
0.99292526
0.99170094
0.99400541
0.99583863
0.9940979
0.99364679
1.0019997
0.99991969
0.99821379
0.99717894
0.99526214
0.99364045
0.99378129
0.99424482
0.99368043
0.99229296
0.99205761
0.99212506
0.99148123
0.99113275
0.99171076
0.99111879
0.99162637
0.99072577
0.99365629
0.99173029
0.99150275
0.99544388
0.99322936
0.9907878
0.99369662
0.99527388
0.9922571
0.99180062
0.99414347
0.99517717
0.99583743
0.99987812
1.0010077
0.99690653
0.9953504
0.99567082
0.99428216
0.99356927
0.9942446
0.99340711
0.99231068
0.99221168
0.99217701
0.99166818
0.99084241
0.99181099
0.9915581
0.99155932
0.99120713
0.99364215
0.99149827
0.99056883
0.99554939
0.99501454
0.98966313
0.99275502
0.99659934
0.99461955
0.9909594
0.99147758
0.99417433
0.99593426
0.99852317
1.00177
0.99628039
0.99417282
0.99604979
0.99554166
0.99378219
0.99381138
0.99291959
0.99256566
0.9922361
0.99181782
0.99183809
0.99095053
0.99195866
0.99172237
0.99132997
0.99168222
0.99346507
0.99180464
0.99073348
0.99421388
0.99580802
0.99050277
0.99185253
0.99579469
0.9967807
0.9917665
0.98986407
0.99251128
0.99513189
0.99854052
1.0016688
0.99643835
0.99411349
0.99618101
0.99640077
0.99417679
0.99338032
0.99263465
0.99292686
0.99223421
0.99152752
0.99170275
0.99143573
0.99193863
0.99176175
0.99098303
0.9918089
0.99280004
0.99225844
0.9919512
0.9933023
0.9946944
0.99229917
0.99219924
0.99366088
0.9964661
0.99334127
0.99014556
0.99155223
0.99416702
0.99968035
1.0007174
0.997227
0.99527878
0.99580205
0.99605855
0.99438056
0.99320213
0.99264895
0.99301107
0.99215517
0.99150092
0.99134745
0.99174805
0.99156695
0.99168652
0.99077075
0.99193974
0.99150858
0.99252602
0.99339782
0.99284207
0.99279424
0.99362499
0.99366679
0.99240908
0.99362208
0.99411933
0.99255774
0.9922722
0.99271115
1.0018027
0.99947186
0.99830613
0.99771555
0.99545114
0.99428642
0.99401693
0.99364421
0.99353657
0.99328824
0.99245429
0.99182288
0.99110279
0.99178849
0.99109353
0.99170335
0.99103762
0.99272472
0.99070537
0.99258237
0.99416179
0.99295183
0.9913956
0.99405007
0.99526659
0.99319407
0.99087159
0.99347853
0.99582144
0.99483909
0.99171086
1.0042183
0.99739583
1.0002504
1.0036632
0.99395164
0.98857596
0.99375846
0.9970466
0.99904334
0.99423369
0.99148626
0.98961025
0.98984982
0.99220518
0.99153733
0.9931477
0.99314056
0.9941069
0.99014093
0.99215621
0.99454337
0.99276886
0.99133609
0.99369389
0.99620243
0.99548774
0.99035499
0.99218667
0.99800418
0.99813804
0.99202446
0.99541204
0.99430039
0.99447582
0.99353095
0.99320486
0.99423726
0.99481018
0.99298272
0.99188616
0.9936302
0.99544749
0.99417107
0.99184864
0.99135656
0.99046094
0.98950924
0.9933315
0.99770864
0.99604328
0.99296271
0.99253573
0.99014102
0.98726468
0.99248755
0.9923861
0.99159524
0.99026671
0.99023177
0.99147164
0.99192894
0.99115495
0.99287643
0.99641208
0.99645581
0.99334465
0.99133887
0.99141812
0.99163425
0.9920353
0.9936428
0.99446855
0.99154828
0.98888276
0.98972911
0.99159153
0.99381646
0.99775885
0.99373959
0.99244039
0.99189532
0.99262893
0.99261546
0.99193774
0.99197041
0.99329043
0.99325228
0.99084743
0.98914865
0.99060175
0.99418142
0.99679704
0.99610827
0.99403488
0.99157713
0.98790482
0.98665039
0.9881909
0.99140453
0.99435156
0.99555656
0.99604805
0.99446931
0.99535945
0.99552988
0.99516021
0.99447823
0.99376837
0.99188049
0.98951276
0.9885044
0.98922877
0.9910928
0.99320934
0.99428715
0.99427754
0.99404768
0.99213173
0.98987872
0.99013174
0.99214393
0.99334724
0.99178123
0.98346575
0.98317485
0.98818087
0.98945912
0.99116892
0.99266036
0.99310514
0.99174512
0.98973599
0.98970081
0.99219502
0.99495984
0.99501586
0.99210749
0.98862419
0.98724502
0.98828436
0.98941358
0.99094216
0.99440544
0.99771646
0.99714111
0.99228352
0.99611542
0.99068657
0.99134058
0.9881587
0.98978228
0.99011324
0.99040915
0.98929128
0.98939332
0.99235482
0.99622684
0.99762293
0.99579395
0.99204746
0.9886821
0.98724818
0.98719929
0.98749803
0.98871
0.99184336
0.99529531
0.9953595
0.99167826
1.0072921
1.0000658
0.99856658
0.99661723
0.99466607
0.99282121
0.99155606
0.99105628
0.99209144
0.99381869
0.99431947
0.99272446
0.99035437
0.98912509
0.99028119
0.99273466
0.99400669
0.99276912
0.99076978
0.98969455
0.98937118
0.98794474
0.98562858
0.98172676
0.98901363
0.99225209
0.99309309
0.99345388
0.99388444
0.99373914
0.99349867
0.99301955
0.99167126
0.98931145
0.98613887
0.98415313
0.98522278
0.98950062
0.99485541
0.99781659
0.9971116
0.99427803
0.99128987
0.98869459
0.98615184
0.98420083
0.97187273
0.98264735
0.98599365
0.98923439
0.99181442
0.99290431
0.9927601
0.99241277
0.99172927
0.99085522
0.98875205
0.98669293
0.9858525
0.98697965
0.98948108
0.99209142
0.99325772
0.99275892
0.99149137
0.99039245
0.98970935
0.9896232
0.9899618
0.9987395
0.98129504
0.99396844
0.99086511
0.99311126
0.99104353
0.98974102
0.98841633
0.98866102
0.98968203
0.99113777
0.99258746
0.99371309
0.99375312
0.99272083
0.99074247
0.98819948
0.98602648
0.98502478
0.98536601
0.98730914
0.9905593
0.99371518
0.99894657
0.9992353
0.99774996
0.9939452
0.99178769
0.98787818
0.98536249
0.98413369
0.985168
0.98811876
0.99211995
0.99583082
0.99793874
0.99747519
0.99485849
0.99102828
0.98735478
0.98452891
0.9829074
0.98261101
0.98405082
0.98757711
0.99187769
1.0055986
1.0013073
0.99781888
0.9935733
0.99029276
0.98729602
0.98534612
0.98480847
0.98599349
0.98874349
0.99241773
0.99538069
0.99647714
0.99548063
0.99308096
0.99034527
0.98791272
0.98602702
0.98497664
0.98518784
0.9861736
0.98711027
0.98820481
0.99601423
0.99501565
0.99396543
0.99195715
0.99056387
0.98928348
0.98863933
0.9886608
0.98923907
0.99015337
0.99111093
0.99163844
0.99140372
0.99031672
0.9887328
0.98730224
0.98667888
0.986948
0.98798049
0.98948762
0.99028668
0.98971074
0.98790299
0.98704064
0.98732758
0.98840912
0.98982469
0.99163857
0.99269749
0.99299223
0.99258472
0.99149594
0.99015873
0.98904717
0.98798125
0.98690295
0.98568489
0.98453355
0.98407469
0.98496946
0.98732617
0.9903795
0.9927792
0.99345983
0.99201822
0.98896031
0.98113828
0.98256895
0.98531864
0.98868996
0.99232715
0.9947719
0.99581083
0.99511968
0.9930363
0.99042685
0.98789685
0.98536971
0.98363054
0.98263462
0.98253289
0.98347455
0.98557831
0.98851557
0.99142968
0.99348581
0.99423095
0.99320682
0.99045739
0.97995777
0.98181643
0.98510495
0.9884348
0.99244372
0.99488084
0.99581907
0.995143
0.99301381
0.99025491
0.98760884
0.98525624
0.98376888
0.98303649
0.98312925
0.98401035
0.98572334
0.9880252
0.99044103
0.99243184
0.9934198
0.99283047
0.9909109
0.98317322
0.98415102
0.98604563
0.98801966
0.99024814
0.99201571
0.99296862
0.99281904
0.99175711
0.98994166
0.98831196
0.9869631
0.98598663
0.98513471
0.98481112
0.98513199
0.98608059
0.98750569
0.98930922
0.99064357
0.99132466
0.99100872
0.98973079
0.98685922
0.98721345
0.98787332
0.98819728
0.98860826
0.98907203
0.98952362
0.98981978
0.9899442
0.98962441
0.98930047
0.98880421
0.98828105
0.98735991
0.98656613
0.98620946
0.98632631
0.9870573
0.9880456
0.9889944
0.9893351
0.98888253
0.98773655
0.99050925
0.98998286
0.98938735
0.98865842
0.98767029
0.98701489
0.98708981
0.98742122
0.98831139
0.98915516
0.98994491
0.99023463
0.98990264
0.98881759
0.98740435
0.98631226
0.98620247
0.9870064
0.98808499
0.98882134
0.98879684
0.98804936
0.98690194
0.99307787
0.9920462
0.99077858
0.98892661
0.9872069
0.9859057
0.98560134
0.9859089
0.98681454
0.9881424
0.98960061
0.99055768
0.99093306
0.99035275
0.98900305
0.98764443
0.98707907
0.98740694
0.98816071
0.98870413
0.98867712
0.98812097
0.98732949
0.99331813
0.9924338
0.99124875
0.98956309
0.98800231
0.98668737
0.9858637
0.98551487
0.98589681
0.9869318
0.98843071
0.99007719
0.99135281
0.99159501
0.99075934
0.98936708
0.98811047
0.9874045
0.98726557
0.98724035
0.98707334
0.98676681
0.98662385
0.9931577
0.99233601
0.9911033
0.98942259
0.98792711
0.98666031
0.98587707
0.98568008
0.9862887
0.98776256
0.98972357
0.99168976
0.9928811
0.99272971
0.99126976
0.98914345
0.98740266
0.98656438
0.98643197
0.98654715
0.98668875
0.98694754
0.98717933
0.99439964
0.99289941
0.9905249
0.9877644
0.98579304
0.98500813
0.98547622
0.98689229
0.98878541
0.99065861
0.99229446
0.99331242
0.99327337
0.99194949
0.98961782
0.98723036
0.98600032
0.98641311
0.98793663
0.98935787
0.9897629
0.9890838
0.98799654
0.99195471
0.99126428
0.98973318
0.98798443
0.98680925
0.98691649
0.9883916
0.99049752
0.9922143
0.9929108
0.99251126
0.99120122
0.98954663
0.98812771
0.98706186
0.9865345
0.98701506
0.98884952
0.99125056
0.99232702
0.99126771
0.98909209
0.98747363
0.98864987
0.98852696
0.98814307
0.98858803
0.98992464
0.99158419
0.99344908
0.99462967
0.99463394
0.99338357
0.99111888
0.98841789
0.98607759
0.98496872
0.98546151
0.98759811
0.99033288
0.99214789
0.99246949
0.99175069
0.99068323
0.98968118
0.98905098
0.98406417
0.98571655
0.98808603
0.99103197
0.99402077
0.99648453
0.99734034
0.99633748
0.99430035
0.9921799
0.99001708
0.98796806
0.98641187
0.98586915
0.98706755
0.98977124
0.99249681
0.9935188
0.99297564
0.99212404
0.99157971
0.9908029
0.98934997
0.98118454
0.98457283
0.98970133
0.99536951
1.0000434
1.0011742
0.99956232
0.99631617
0.99212338
0.98850702
0.98686864
0.98720455
0.98835039
0.98929323
0.99002674
0.99133447
0.99344898
0.99506851
0.99466626
0.99289631
0.99125053
0.99005486
0.98820186
0.98824308
0.98911326
0.99189667
0.99656553
1.0000913
1.0005654
0.99757081
0.99257143
0.98838466
0.98624337
0.98630838
0.98824883
0.99076492
0.99217273
0.99206452
0.99181655
0.99317188
0.99506618
0.99541931
0.99442416
0.99274988
0.99032027
0.98730522
1.0013187
0.99751426
0.99355387
0.990994
0.99058846
0.99153039
0.99238807
0.99262798
0.99227955
0.99211113
0.99204959
0.99214062
0.99237268
0.99306614
0.99366504
0.99285662
0.99189044
0.99315288
0.99503879
0.99502246
0.99295147
0.98958499
0.98697859
1.00615
1.0011204
0.99322848
0.98659705
0.98370482
0.98555803
0.99084037
0.99673768
1.0001883
1.000004
0.99728801
0.994315
0.99281566
0.99291598
0.99372771
0.99438792
0.99320958
0.99098095
0.99035303
0.9905265
0.9916932
0.99436211
0.99606894
0.9961771
0.99694539
0.99636421
0.99508948
0.99331031
0.99152764
0.99128051
0.99311414
0.99624728
0.99876877
0.99918377
0.99775839
0.99525599
0.99367706
0.9931554
0.99291644
0.9918988
0.98984337
0.98918391
0.99193694
0.99646464
0.99953748
0.99850474
0.99190775
0.99274468
0.99634707
1.0011078
1.0031487
1.0004171
0.99433853
0.98920828
0.98891418
0.99330322
0.99940801
1.0030157
1.0014576
0.99605883
0.99092003
0.98891194
0.98957215
0.99218454
0.99573992
0.99893246
1.0001665
0.99870271
0.99514696
0.9971713
0.99527861
0.99444721
0.99658287
1.0004821
1.0030472
1.0022224
0.99822346
0.993579
0.9921935
0.99452842
0.99804729
0.99950133
0.99758355
0.99422077
0.99200979
0.99347672
0.99734749
1.0009033
1.0008267
0.99585194
0.99038177
0.99030099
1.0020228
1.0002567
0.9978568
0.99611781
0.99680484
1.0005838
1.0055616
1.0064829
1.0008683
0.99196316
0.98637756
0.98765071
0.99445069
1.0022302
1.0061655
1.0041156
0.99845549
0.99424429
0.992509
0.9910655
0.98918476
0.98971689
0.99683271
1.002152
1.0028017
1.0030798
1.0014194
0.9978134
0.99520002
0.99613439
0.99953618
1.0013312
0.99920672
0.99536875
0.99448034
0.99776286
1.0029721
1.0047604
1.0003906
0.99374778
0.99094488
0.99241205
0.99452556
0.99544821
0.99675585
0.999866
1.00247
1.0022766
1.0035424
1.0041763
1.0012782
0.99581716
0.99273133
0.99504057
1.0014403
1.007
1.0074123
1.0026187
0.99613705
0.99364315
0.99652205
1.0001509
0.99974834
0.99633953
0.99554843
0.997698
0.99869075
0.99678944
0.99388014
1.0029021
1.0012446
1.000093
1.0016561
1.0037054
1.0033371
1.0003876
0.99837238
1.0003226
1.0053149
1.0095751
1.0093685
1.00285
0.9932635
0.98800744
0.99069799
0.99828989
1.0038199
1.0046518
1.0041386
1.0024464
0.99881369
0.99376156
1.002091
1.0029338
1.0030003
1.0032108
1.0051979
1.0084421
1.0100871
1.0081944
1.003636
0.99891614
0.99671308
0.99862283
1.0028039
1.0040416
1.0011176
0.99794479
0.99759934
0.99948282
1.0004339
0.99947897
0.9988056
0.99867427
0.99774459
1.0052855
1.0052963
1.0082428
1.0102821
1.0091895
1.0063834
1.0045534
1.0038532
1.0035053
1.001942
0.99827755
0.99532682
0.9969747
1.0027957
1.0078031
1.0086722
1.0064634
1.0037614
1.0009639
0.99792314
0.99494098
0.9938271
0.99469002
1.0130765
1.0093264
1.005196
1.0037902
1.0042627
1.0043126
1.0028047
1.0010767
1.0012007
1.0041232
1.0078255
1.0084738
1.0062465
1.0039585
1.00346
1.0047052
1.0051459
1.0042659
1.002884
1.0012925
0.99923044
0.99751429
0.99819075
1.0080035
1.0083245
1.006296
1.0034131
1.0017725
1.0030339
1.0066838
1.0099274
1.0108107
1.0100599
1.0093562
1.0087473
1.0074284
1.0056396
1.0033377
1.0019848
1.0016636
1.0013086
1.0005918
1.0007017
1.0029969
1.0047142
1.0057835
1.0034765
1.0057035
1.0098179
1.0128142
1.0130336
1.0111482
1.0093849
1.0089831
1.0088098
1.0082045
1.0073963
1.0062426
1.0062217
1.0062414
1.0049465
1.0033206
1.0025684
1.0032113
1.0042532
1.0044922
1.0052274
1.0062123
1.0053228
1.0122121
1.0098347
1.0093955
1.011204
1.0132215
1.0135392
1.0120908
1.0094982
1.0063521
1.0039196
1.0026324
1.0019115
1.0028407
1.0060137
1.0093755
1.0109644
1.0099188
1.0083269
1.0077295
1.0071497
1.0067644
1.0065064
1.0063989
1.0159823
1.0140863
1.0109532
1.0074551
1.0054727
1.0047503
1.0053356
1.0068723
1.0083071
1.0097407
1.011387
1.0121439
1.0111047
1.0095199
1.0090351
1.008502
1.0076053
1.0068272
1.0073672
1.0088119
1.0096292
1.0085013
1.0072403
1.0080162
1.0090311
1.0099361
1.0104642
1.0107132
1.0111596
1.0112606
1.0111418
1.0111716
1.0110374
1.0114479
1.0125222
1.0126197
1.011251
1.0099243
1.0093358
1.0092665
1.0090108
1.0082411
1.0071744
1.0055643
1.0036848
1.0031411
1.0096084
1.0096387
1.0108397
1.0125014
1.0138146
1.0147842
1.0152997
1.0148476
1.0132842
1.0110008
1.0092335
1.0091028
1.0095623
1.0094888
1.0088838
1.0086257
1.0086216
1.0082964
1.0073842
1.0071891
1.0082308
1.0094517
1.0107844
1.0139881
1.0136424
1.0135623
1.0131432
1.0117799
1.0101352
1.0093208
1.0096769
1.0105481
1.0112074
1.0112782
1.0110127
1.0108998
1.0108274
1.0098784
1.0091988
1.0094318
1.0104813
1.0117997
1.0123375
1.0129406
1.0130426
1.0124322
1.0118572
1.0116419
1.0117859
1.0120234
1.0119205
1.0112232
1.0105247
1.0104193
1.0108708
1.0116156
1.0123465
1.0121736
1.0122368
1.0130646
1.0135451
1.0135749
1.013325
1.0132255
1.0134228
1.0127359
1.0111819
1.0099916
1.0089322
1.0115841
1.0113057
1.0111201
1.0114063
1.0122745
1.0132843
1.014154
1.0147277
1.0146068
1.0141708
1.0136082
1.0127765
1.0118438
1.0117982
1.0124377
1.0127955
1.0125911
1.0116996
1.0108322
1.0097488
1.008687
1.0080685
1.0087105
1.0132527
1.0130969
1.0131021
1.013091
1.0127906
1.0122325
1.0122018
1.012183
1.0120998
1.0125738
1.0130266
1.0131783
1.0126259
1.0116893
1.0111609
1.0114361
1.0118482
1.0116826
1.0113986
1.0114481
1.0120102
1.012814
1.0137275
1.0124069
1.0121151
1.0126864
1.0131499
1.0128371
1.0123795
1.0122769
1.0116064
1.0108201
1.0108626
1.0112906
1.0122334
1.0131242
1.0133926
1.0132492
1.0131312
1.0135901
1.0142137
1.0144506
1.0143405
1.0144769
1.014271
1.0140106
1.0107918
1.0103422
1.0110115
1.0117508
1.0120209
1.012825
1.0138557
1.0139531
1.0137443
1.0138939
1.013513
1.0137556
1.0140422
1.0139826
1.013824
1.0132979
1.0134245
1.0136636
1.0136485
1.0131831
1.0125401
1.0127396
1.0131462
1.0132216
1.012686
1.0127737
1.0125065
1.0119838
1.0120871
1.0120903
1.011838
1.0123193
1.0130586
1.0128618
1.0125867
1.0121532
1.011924
1.0119936
1.0126484
1.0134095
1.0141625
1.0144026
1.014581
1.0148436
1.0150854
1.0155431
1.0106859
1.0108002
1.0118571
1.0121427
1.0118155
1.0120801
1.0118026
1.0113271
1.01176
1.0121485
1.0120322
1.0125746
1.012817
1.0132049
1.0139099
1.0147465
1.0146704
1.0153402
1.015094
1.0152209
1.0151168
1.0145647
1.0139906
1.010815
1.0108552
1.0115622
1.0117535
1.0115652
1.0118629
1.01162
1.011459
1.012217
1.0122892
1.012443
1.013223
1.0132014
1.0134531
1.0140587
1.0142744
1.0141326
1.0148965
1.0145562
1.0145151
1.0135238
1.0136044
1.0133082
1.0105047
1.010653
1.0111246
1.0111192
1.0110504
1.0113303
1.0109812
1.011018
1.0116098
1.0119238
1.0128957
1.0135465
1.0137271
1.0139344
1.0141472
1.0141077
1.0138526
1.0146209
1.0140228
1.0136436
1.0123762
1.0119441
1.011583
1.0089417
1.009683
1.0104961
1.0110033
1.011225
1.0110962
1.0106313
1.0106284
1.0113413
1.0125388
1.0136038
1.0136257
1.013597
1.013285
1.013673
1.0138528
1.0126792
1.0130763
1.0117517
1.0116173
1.0106868
1.0119003
1.0118874
1.0085534
1.0090076
1.0093906
1.0090897
1.0094938
1.0099839
1.01064
1.0112813
1.0118678
1.0125463
1.0125375
1.012182
1.0122339
1.0119181
1.0122748
1.0126221
1.0117776
1.0116753
1.0110471
1.0110483
1.0112461
1.0119378
1.0109284
1.0067911
1.0072649
1.0080712
1.0077001
1.0076759
1.0082603
1.0093933
1.0099555
1.0102138
1.0106873
1.0107102
1.0106812
1.0107812
1.0111214
1.0112752
1.0106618
1.0112309
1.0109243
1.0107058
1.0097943
1.0096304
1.0092366
1.008316
1.0042698
1.0049753
1.0053379
1.0056196
1.0056459
1.0061494
1.0074241
1.0083914
1.0087565
1.0089492
1.0087559
1.0085955
1.0083945
1.0084551
1.0089355
1.0087475
1.009018
1.008725
1.0087232
1.0081278
1.0082756
1.0083304
1.0082883
1.0013146
1.0024685
1.0029563
1.0040267
1.0050389
1.0053348
1.0054565
1.0056501
1.0055153
1.0054908
1.0058671
1.0061461
1.0057401
1.0048054
1.0046325
1.0053425
1.0059816
1.0060186
1.0060489
1.0063686
1.007311
1.0077083
1.007458
0.9993223
0.9986425
0.99951865
1.0001925
1.0017108
1.0023222
1.0023522
1.0026125
1.0025814
1.0021193
1.0014244
1.0010047
1.0010378
1.0008889
1.0008039
1.0011376
1.0015812
1.0018721
1.0019814
1.0025888
1.0035599
1.003983
1.004009
0.9964479
0.99696469
0.99646998
0.99684363
0.99784301
0.99872045
0.99903408
0.99890812
0.99852988
0.99788721
0.99699349
0.99622448
0.99600659
0.996001
0.9957445
0.99514746
0.99475205
0.99535037
0.9967606
0.9982736
0.99897344
0.99905428
0.99935522
0.99594409
0.99560132
0.99475366
0.99428279
0.99441684
0.99531617
0.99627254
0.99639975
0.99536895
0.9938958
0.99242497
0.99119116
0.99029363
0.9898076
0.98967651
0.98911447
0.98851479
0.98811652
0.98896824
0.99032912
0.99152223
0.99281099
0.99481971
0.99183843
0.99284633
0.9934887
0.99351845
0.99328522
0.99307272
0.99312284
0.99314364
0.99236615
0.99089007
0.98889515
0.9868207
0.98506587
0.98333996
0.98236137
0.98198057
0.981985
0.98160616
0.98151128
0.98179062
0.98255065
0.98425189
0.98686339
0.98984297
0.99085459
0.99170946
0.99239415
0.99267501
0.99219932
0.99124284
0.99033098
0.98937297
0.9880443
0.98612597
0.98401372
0.98179528
0.97958275
0.97743196
0.97604681
0.97521003
0.97467218
0.97417542
0.97404394
0.97447979
0.97590652
0.9779119
0.98990571
0.99042161
0.99108536
0.99134069
0.99171449
0.99168507
0.9910979
0.98984962
0.98836744
0.98670056
0.98439236
0.98270574
0.98013814
0.97815748
0.97565615
0.97326197
0.97125168
0.96992926
0.96908323
0.96855527
0.96859412
0.96942795
0.97041008
0.99001829
0.99117163
0.99166989
0.9913169
0.99150808
0.99125454
0.99094468
0.99053054
0.98899495
0.98784786
0.98551256
0.98390138
0.98134175
0.97896469
0.97618227
0.9732967
0.97025277
0.967951
0.96679502
0.96625986
0.96609194
0.96602785
0.96597949
0.99106821
0.99238604
0.99298546
0.99230984
0.99239977
0.99185556
0.99145291
0.99173713
0.99033393
0.9900081
0.98819555
0.98647189
0.98462638
0.98189855
0.97920401
0.9761012
0.97339576
0.97049082
0.96832787
0.96696007
0.9660867
0.96553556
0.96460528
0.99330365
0.99380765
0.99463575
0.99440875
0.99425608
0.99393681
0.99312907
0.99341831
0.99275477
0.99213427
0.9911863
0.98952449
0.98815033
0.98566577
0.98394207
0.98185624
0.97993974
0.97734202
0.97496596
0.97275136
0.97092033
0.96903626
0.96707384
0.99453433
0.99460901
0.99559294
0.99626348
0.9956159
0.99506515
0.99484037
0.99522997
0.99450271
0.99392209
0.99359059
0.99224869
0.99204574
0.99012883
0.9891356
0.98746086
0.98637005
0.98476525
0.98276847
0.98065219
0.97886296
0.97667299
0.97422928
0.99506581
0.99553337
0.9964407
0.99693946
0.99543529
0.99518636
0.996068
0.99619312
0.995383
0.99511829
0.99515132
0.99473678
0.99456198
0.99339036
0.99369552
0.99235223
0.99155506
0.98980312
0.98813447
0.98699894
0.98625014
0.98554429
0.98397919
0.99542493
0.9965256
0.99787566
0.99763163
0.99502573
0.99491241
0.99684884
0.99730358
0.99660526
0.99592833
0.9959074
0.9966077
0.99596262
0.99475689
0.99548228
0.99524694
0.99491363
0.99326523
0.99258633
0.99263779
0.99207586
0.99133838
0.9900994
0.99492508
0.99660206
0.99823351
0.9974643
0.99512631
0.99500811
0.99696848
0.99738921
0.99653464
0.99591337
0.99590888
0.99707939
0.99693337
0.9959098
0.99605156
0.99626526
0.99649534
0.99544253
0.99552879
0.99553377
0.99568256
0.9949344
0.99341986
0.99477586
0.99608604
0.99731021
0.99601262
0.99384608
0.99448111
0.99653661
0.99676878
0.99574289
0.99543304
0.99607614
0.99669124
0.9962972
0.99568941
0.99632742
0.99676953
0.99659282
0.99609073
0.99653398
0.99605982
0.99625279
0.9971281
0.99760166
0.99509881
0.9959708
0.996451
0.99505401
0.99263016
0.99286678
0.99537907
0.99644709
0.99531758
0.99468353
0.9958599
0.99672131
0.99538305
0.99435176
0.99606535
0.99738531
0.99640796
0.99566755
0.99651755
0.99703054
0.99626614
0.99725
0.99905385
0.99550351
0.99528774
0.99535581
0.99527805
0.99422276
0.99335419
0.9944586
0.99574834
0.99516217
0.99406775
0.99460828
0.99617123
0.99586916
0.99467886
0.99589851
0.99738774
0.99656235
0.99533224
0.99589686
0.9974169
0.99670077
0.99642772
0.99748242
0.99584917
0.9952593
0.99556999
0.99587973
0.99543688
0.99459708
0.99441671
0.99488416
0.9951468
0.99517507
0.99477405
0.99527907
0.99584127
0.99528825
0.99563655
0.99647531
0.99604575
0.99519446
0.99570556
0.99722992
0.99669631
0.99721847
0.98938026
0.99631356
0.9957369
0.99543035
0.99554029
0.99558573
0.99533934
0.99521103
0.99528418
0.99534021
0.99531156
0.99528892
0.99541607
0.99602057
0.9956761
0.99523018
0.99556837
0.99601847
0.99560428
0.99548608
0.99666374
0.99720932
0.9934418
1.043672
0.99652624
0.99561493
0.99518595
0.99538976
0.99585635
0.99598043
0.99563314
0.99536105
0.99560323
0.99579803
0.99545074
0.99497542
0.99527016
0.99596432
0.99604527
0.99569868
0.99567042
0.9955859
0.99564291
0.99599726
0.99641763
0.99380436
1.0013351
0.99626146
0.99577433
0.9954534
0.995433
0.9956302
0.99574946
0.9956551
0.99554835
0.99573773
0.99580431
0.99551866
0.99520643
0.9952963
0.99579768
0.99619068
0.99587457
0.99534084
0.99517809
0.99548746
0.99568121
0.99535315
0.99893154
0.87625835
0.99611829
0.99582557
0.99554641
0.99544363
0.99552841
0.99566037
0.99566226
0.99559796
0.9956464
0.9957567
0.99586003
0.99596857
0.9960001
0.99578954
0.99550279
0.99524283
0.99527454
0.99561534
0.99573636
0.99546316
0.99495158
0.99551834
1.0891658
0.99533311
0.99542235
0.99559524
0.99566458
0.99563384
0.99567064
0.99580712
0.99591011
0.99592334
0.99588559
0.99589112
0.99595762
0.99595436
0.99574984
0.99552529
0.99542487
0.99554193
0.99562075
0.99550122
0.99529761
0.99523184
0.99647891
1.0062914
0.99536821
0.99527387
0.99529168
0.99538266
0.99545357
0.99554088
0.9957026
0.99588231
0.99603866
0.99611231
0.99602961
0.99582189
0.99562948
0.99553624
0.99560797
0.99568166
0.99569347
0.99558568
0.99547213
0.99550049
0.99549515
0.99834521
0.91144877
0.99508181
0.99496496
0.99494965
0.99509264
0.99533856
0.99557201
0.99575095
0.99585742
0.99589091
0.99582729
0.99565057
0.9954635
0.99541288
0.99547033
0.995572
0.99565568
0.99550013
0.99540838
0.99535626
0.9955114
0.99556037
0.99862854
0.98479678
0.99486579
0.99476531
0.99475791
0.9948579
0.99502675
0.99524312
0.99540019
0.99543636
0.99537172
0.99534554
0.99537285
0.99543296
0.99546315
0.9953851
0.99523107
0.99512424
0.99506268
0.99507189
0.995107
0.99520669
0.99549779
0.99879483
1.0427407
0.99441255
0.99422927
0.99428255
0.99456089
0.9948733
0.9950965
0.99517959
0.99517599
0.99516765
0.99509834
0.99501364
0.99491526
0.99484532
0.99485151
0.99492502
0.99503011
0.99511895
0.99514667
0.99517466
0.99508934
0.99519166
0.99817516
1.0490354
0.99405558
0.99387492
0.9939395
0.99427441
0.9946375
0.99482898
0.99485132
0.99479568
0.99471832
0.99465586
0.99458593
0.99459616
0.99468861
0.9948036
0.99490553
0.99495847
0.99489599
0.99479623
0.99478302
0.99472205
0.99489584