/*--------------------------------*- C++ -*----------------------------------*\
| =========                 |                                                 |
| \\      /  F ield         | OpenFOAM: The Open Source CFD Toolbox           |
|  \\    /   O peration     | Version:  2406                                  |
|   \\  /    A nd           | Website:  www.openfoam.com                      |
|    \\/     M anipulation  |                                                 |
\*---------------------------------------------------------------------------*/
FoamFile
{
    version     2.0;
    format      ascii;
    arch        "LSB;label=32;scalar=64";
    class       volVectorField;
    location    "25";
    object      U;
}
// * * * * * * * * * * * * * * * * * * * * * * * * * * * * * * * * * * * * * //

dimensions      [0 1 -1 0 0 0 0];

internalField   nonuniform List<vector> 
62344
(
(0.078332185 -0.0011386007 -2.1661593e-21)
(0.076075479 -0.0036077611 -1.1250443e-21)
(0.087636778 -0.0025082764 -2.3471092e-21)
(0.090523054 -0.0011667578 1.219466e-21)
(0.094001109 -0.0029846993 0)
(0.099716015 -0.001930123 5.292789e-21)
(0.10470628 -0.0012224837 -5.5183851e-21)
(0.10626129 0.00063097318 2.8684398e-21)
(0.10539119 0.0019602012 0)
(0.10292225 -0.0011020917 0)
(0.097764642 -0.0029711047 1.2983381e-20)
(0.089434921 0.0020861883 -2.7775007e-20)
(0.081232113 0.0047572721 8.1934575e-22)
(0.07531732 0.0050520726 3.0118742e-20)
(0.07278934 0.0078867663 -1.5128118e-20)
(0.076353654 0.0014094115 1.4627788e-20)
(0.08357463 0.0033460381 -1.6532163e-20)
(0.086135844 0.003139616 0)
(0.084411453 0.00082949431 0)
(0.085640198 0.00032364111 -1.1487498e-21)
(0.086499973 -0.00043339752 -5.9276379e-22)
(0.082875715 0.0046646544 6.1653457e-22)
(0.075990293 0.0064822255 1.2939801e-21)
(0.072276136 0.002673225 -4.2893269e-20)
(0.071631338 0.0014325866 4.4514889e-20)
(0.067956335 0.0070484689 0)
(0.068077333 0.011158328 0)
(0.072086273 0.0036974082 -3.8965424e-22)
(0.067091807 0.0021982621 -5.2195473e-20)
(0.062812126 0.0061078446 5.4053672e-20)
(0.06980887 0.0022558475 5.6359949e-20)
(0.067936977 0.00057169717 -5.8190207e-20)
(0.052190086 0.0084815855 -4.7273837e-22)
(0.049249312 0.0066260489 6.1997194e-20)
(0.069401098 -0.012050721 -6.6250071e-20)
(0.083298593 -0.022038379 -5.2878232e-22)
(0.069548797 -0.0039548208 -7.2415743e-20)
(0.042699074 0.024842226 1.4722317e-19)
(0.030021319 0.033408234 -1.5248394e-19)
(0.045556667 0.0032809575 3.6301432e-21)
(0.077922641 -0.045286097 4.0555088e-21)
(0.10180655 -0.076949581 1.6681523e-19)
(0.098530583 -0.072941528 -8.3340619e-20)
(0.075396785 -0.042106835 0)
(0.047798551 -0.0070412001 -9.6990124e-20)
(0.033622255 0.015456882 1.9642614e-19)
(0.044817658 0.012004203 -3.637305e-21)
(0.077037423 -0.018172708 -2.0958221e-19)
(0.10424522 -0.053081364 1.1156153e-19)
(0.11149605 -0.075703946 0)
(0.10241361 -0.082799728 0)
(0.094722926 -0.078008165 1.1771499e-19)
(0.092517862 -0.06572379 -1.221661e-19)
(0.097073445 -0.049261075 -2.6317775e-22)
(0.088500295 -0.022076969 -1.390658e-19)
(0.079331591 -0.001139178 -1.1428889e-21)
(0.076359791 -0.0018984188 1.1875409e-21)
(0.087336496 -0.0018648499 3.714042e-21)
(0.090340287 -0.0010848884 -3.8709119e-21)
(0.09416894 -0.00089340655 0)
(0.099447688 -0.0022540941 5.5892038e-21)
(0.10385514 -0.00073682298 -7.2836486e-21)
(0.10570728 0.0010454231 -7.5656628e-21)
(0.10606752 0.0019555635 7.8518042e-21)
(0.10417118 -0.0012858599 0)
(0.098062336 -0.001561309 0)
(0.089455189 0.0020672198 8.8919919e-22)
(0.08166153 0.00044666939 -9.2494616e-22)
(0.075534087 0.003019552 1.3485787e-20)
(0.073996935 0.0056798806 -1.6003366e-20)
(0.076524148 0.00018067814 0)
(0.081745467 -0.00073210976 0)
(0.085872525 0.00496549 0)
(0.084913992 0.0028295731 1.8553033e-20)
(0.084901402 0.0024619462 5.2974153e-22)
(0.085475687 0.0021174144 -3.7877223e-23)
(0.08262554 0.0044347563 -6.3223956e-20)
(0.077809116 0.005756618 4.2915868e-20)
(0.073740963 0.0048565985 0)
(0.071496277 0.0053085746 4.7265598e-20)
(0.067198683 0.0069781244 1.3081997e-23)
(0.068155632 0.0073452336 -1.0128726e-19)
(0.072882414 0.0056344249 5.3311457e-20)
(0.067663367 0.0092907184 -4.2828284e-22)
(0.062798689 0.01003148 -5.7111509e-20)
(0.068426248 0.0054183749 5.9724737e-20)
(0.067070719 0.0083649386 4.8118408e-22)
(0.056572187 0.01345149 -6.3333948e-20)
(0.057539853 0.0017221496 1.3283857e-19)
(0.069974309 -0.01615643 -7.0258381e-20)
(0.071474288 -0.012257871 5.4906328e-22)
(0.054962061 0.012871261 0)
(0.039351502 0.031926337 0)
(0.043968845 0.020645647 3.1436105e-22)
(0.067121422 -0.015750061 8.1606209e-20)
(0.089013321 -0.046908017 -1.7326983e-19)
(0.094399512 -0.051172348 8.7379612e-20)
(0.082320191 -0.030315752 9.229111e-20)
(0.06253221 -0.0026653167 -1.9239924e-19)
(0.044376217 0.01407861 9.9344057e-20)
(0.040686684 0.0063965073 0)
(0.05768292 -0.021611859 0)
(0.086566822 -0.052116272 0)
(0.11288112 -0.074089068 2.2120112e-22)
(0.11936764 -0.080166791 -2.3011399e-22)
(0.10467921 -0.073452101 0)
(0.084390662 -0.059263842 -6.9544779e-24)
(0.067689643 -0.040379881 -2.6382832e-22)
(0.066225949 -0.021780218 3.9832541e-22)
(0.070088884 -0.0069468174 -1.4164593e-22)
(0.079371612 -0.00023953607 1.2060369e-21)
(0.076250398 0.00046416811 -1.2543137e-21)
(0.087212158 -0.0010778212 -1.3066012e-21)
(0.090034209 -0.0019422963 1.3627367e-21)
(0.093857852 -4.4730768e-05 -1.4176917e-21)
(0.099401631 -0.0021045737 1.4757049e-21)
(0.1038852 -0.0023173371 3.0705674e-21)
(0.10556563 -0.0024108769 0)
(0.10619388 -0.0024945507 4.9556799e-21)
(0.10446566 -0.0032322041 -7.7532723e-21)
(0.09771796 -0.00075361963 0)
(0.089710715 0.0013883428 -9.3645417e-22)
(0.081794589 -0.0014187329 7.7808105e-25)
(0.074500529 0.003222414 -1.8063015e-24)
(0.073973538 0.0058893565 1.6817648e-20)
(0.077814749 0.0042193703 -1.6480499e-20)
(0.080666576 -0.0012043382 0)
(0.084360684 0.0035772303 0)
(0.085693155 0.0035957046 0)
(0.085831345 0.0017441007 0)
(0.086009118 -0.00093046782 0)
(0.082436732 -0.0013762998 2.2830187e-20)
(0.077490494 0.0015257536 -2.3015621e-20)
(0.07389701 0.0037895111 -7.4978032e-22)
(0.072166183 0.0048650299 7.7849124e-22)
(0.06792397 0.004541901 0)
(0.067518511 0.0032237392 0)
(0.071233731 0.0034805947 4.3344873e-22)
(0.067538553 0.0098963222 4.5162582e-22)
(0.064893546 0.0085594246 0)
(0.06933064 0.0011794656 0)
(0.06656114 0.0043087769 -6.6009112e-20)
(0.059385897 0.0097603921 1.3340507e-19)
(0.064022076 -5.6539033e-05 -7.0845989e-20)
(0.072804464 -0.014182423 -2.8474668e-22)
(0.065753717 -0.010299205 7.7048808e-20)
(0.04653049 0.0095750598 -7.7747117e-20)
(0.036745116 0.020832261 0)
(0.050948431 0.0062664735 -5.005451e-24)
(0.074996847 -0.021982038 0)
(0.086940041 -0.03798779 9.150954e-20)
(0.077103288 -0.027316589 -9.2524682e-20)
(0.057374216 0.00040987031 -9.9410188e-20)
(0.041404564 0.026422661 1.0110925e-19)
(0.040320993 0.029826985 3.0255685e-24)
(0.052040278 0.0092316878 0)
(0.070936228 -0.024320222 0)
(0.091590867 -0.052063646 -2.2723335e-22)
(0.10802924 -0.063377041 -1.1908936e-19)
(0.1130348 -0.059672621 1.2064332e-19)
(0.10252075 -0.048433606 0)
(0.079126668 -0.032197797 1.400296e-19)
(0.055195339 -0.018236144 -1.3884408e-19)
(0.045768258 -0.009558965 1.4719035e-19)
(0.051175384 -0.0090759305 -1.5182159e-19)
(0.079477282 8.0508967e-05 -6.3694992e-22)
(0.076388897 0.0010110345 -1.984128e-21)
(0.087455798 -0.0012727983 4.1361407e-21)
(0.089914763 -0.0026120695 -2.8700102e-21)
(0.093893169 -0.0008243094 -4.4968662e-21)
(0.099595632 -0.0011107675 4.6646116e-21)
(0.10382424 -0.0025620335 -8.0974888e-21)
(0.1055509 -0.0032189608 1.3489558e-20)
(0.10611803 -0.0039336332 -7.8686186e-21)
(0.1042759 -0.002593907 1.8162021e-21)
(0.097730019 0.00041636852 9.5114543e-22)
(0.090742021 0.00026640009 1.5873087e-20)
(0.082171028 -0.00065464328 -1.4377838e-20)
(0.073975845 0.0036146344 1.8227274e-20)
(0.073246813 0.0033708693 -1.5889323e-22)
(0.078195509 0.0058238754 -3.8226917e-20)
(0.081091107 0.0023975339 1.8650739e-20)
(0.083790511 0.0022855081 -6.2548256e-22)
(0.085459845 0.0044843135 2.0768967e-20)
(0.086565774 0.0032221853 -2.0922082e-20)
(0.087146348 -0.00059629017 0)
(0.082842718 -0.0021163485 0)
(0.076897906 0.0019217209 -2.3553379e-20)
(0.073369093 0.0045340898 2.6092069e-20)
(0.072552154 0.0050030011 2.5472372e-20)
(0.069179728 0.0065926356 -2.7326174e-20)
(0.067580756 0.0056504642 -2.8176851e-20)
(0.069047013 0.0050098944 2.8897595e-20)
(0.066340274 0.010390724 0)
(0.06702872 0.0079938205 0)
(0.070279039 0.00067588969 0)
(0.064730832 0.0045194526 0)
(0.059498261 0.0094542843 0)
(0.068110269 0.00016730229 0)
(0.075676831 -0.010296822 2.9920207e-22)
(0.063595146 -0.0038663584 -8.1291379e-20)
(0.042030635 0.01302326 8.2528477e-20)
(0.037504889 0.016537138 3.398042e-22)
(0.057508162 -0.0027512104 -7.0360628e-22)
(0.081587988 -0.026730237 9.239016e-20)
(0.085503404 -0.032681611 -9.4482711e-20)
(0.065806509 -0.014624017 1.0095785e-19)
(0.041233829 0.011407547 -1.0297239e-19)
(0.029870464 0.02754747 1.0833131e-19)
(0.040119103 0.020658575 -2.2468591e-19)
(0.063853589 -0.004966902 4.4874549e-21)
(0.082702938 -0.033543807 3.0916871e-21)
(0.09149792 -0.050763336 7.5988943e-22)
(0.093031465 -0.051103596 -1.0972597e-21)
(0.092205555 -0.038794646 -2.0596319e-21)
(0.085894987 -0.021315904 1.366313e-19)
(0.073883835 -0.0058097954 0)
(0.059669027 0.00038234914 1.5155909e-19)
(0.051078316 -0.0057003213 1.176609e-21)
(0.052364562 -0.019326898 -1.604086e-19)
(0.079367071 -8.1802241e-05 1.3431418e-21)
(0.076415423 -0.00056250957 1.3959568e-21)
(0.087605348 -0.0018452647 1.4532594e-21)
(0.089745486 -0.0024767367 0)
(0.093470727 -0.0017231981 0)
(0.099501232 -0.0012551957 0)
(0.10414251 -0.0028459205 -8.5434297e-22)
(0.1057152 -0.003243165 7.1049454e-21)
(0.10602581 -0.003867764 -6.457187e-21)
(0.10376819 -0.0020811209 -9.5848606e-22)
(0.097884034 -0.00082104896 -8.0220798e-21)
(0.091211604 -0.0017114164 8.347394e-21)
(0.082231862 0.00039650864 -1.8581746e-20)
(0.073676462 0.0035184776 1.8069103e-20)
(0.072694612 0.0018402638 0)
(0.077323925 0.004604978 0)
(0.081109535 0.0051686451 1.265288e-21)
(0.083154715 0.0012552707 6.5451299e-22)
(0.08494243 0.003649854 -2.179563e-20)
(0.087619624 0.0025164657 2.2034827e-20)
(0.088728019 -0.0024101875 0)
(0.083194908 -0.0028068823 0)
(0.076405474 0.0027285806 -8.0101296e-22)
(0.073471717 0.0038721169 0)
(0.0722718 0.0023320587 -2.7097367e-20)
(0.068818742 0.0069142567 2.8728719e-20)
(0.068052498 0.0076164053 0)
(0.068765798 0.0053540158 0)
(0.066160737 0.0076088232 0)
(0.069262462 0.0048328209 0)
(0.072228952 -0.00025675034 0)
(0.06489009 0.0040518875 0)
(0.060833203 0.0055387664 -2.9434036e-22)
(0.070686457 -0.004873022 -3.047586e-22)
(0.076533152 -0.010958622 0)
(0.061643037 0.00065695158 -3.3004413e-22)
(0.041306878 0.014706809 4.4392605e-20)
(0.040941114 0.011458413 -4.6502797e-20)
(0.063359325 -0.01040252 3.7196203e-22)
(0.083751807 -0.028667693 3.8221781e-22)
(0.079670508 -0.024030643 0)
(0.055895916 -0.0028266352 4.0752458e-22)
(0.030568944 0.01924356 -2.3621066e-24)
(0.024916727 0.023925895 1.1396911e-19)
(0.042573433 0.008782164 -5.0364878e-21)
(0.071309862 -0.016708258 -1.2581322e-19)
(0.089960206 -0.036455463 -2.4793995e-22)
(0.091350612 -0.041655954 0)
(0.080838014 -0.033874859 -2.591002e-22)
(0.068931108 -0.017340543 -2.7599736e-22)
(0.061770168 0.00051967387 1.4650238e-19)
(0.060540574 0.011606742 -1.5079251e-19)
(0.06333693 0.0088399724 1.5377333e-22)
(0.068199985 -0.0073937095 -5.5651045e-24)
(0.074217363 -0.03064299 -1.6983159e-22)
(0.079604869 -0.00052210291 0)
(0.076529461 -0.0023365681 0)
(0.087586458 -0.0014253602 -1.5310545e-21)
(0.089709845 -0.001210249 0)
(0.093259371 -0.0011871961 3.3283616e-21)
(0.099555482 -0.0018913385 -2.6026311e-21)
(0.10428504 -0.0022278387 9.0195443e-22)
(0.10566604 -0.0014507136 0)
(0.10596574 -0.0018580306 9.7272638e-22)
(0.10385026 -0.0012253542 0)
(0.098419568 -0.001706698 -1.057745e-21)
(0.091340504 -0.0026179311 -7.7552667e-21)
(0.082023807 0.0011791139 1.8369891e-20)
(0.074104986 0.0027494031 -9.5440306e-21)
(0.072572801 0.0013768307 0)
(0.076409067 0.0020222992 0)
(0.081496852 0.0049659423 -9.1959235e-25)
(0.083360193 -0.0011441249 -6.904575e-22)
(0.084334952 0.00090036284 0)
(0.088201136 0.00087219173 0)
(0.089966024 -0.0033619859 7.7440598e-22)
(0.08272552 -0.0019851343 2.5192303e-20)
(0.076069969 0.0035718961 -5.4359838e-20)
(0.074410768 0.0026418877 2.863726e-20)
(0.072205625 0.00060788993 2.8777784e-20)
(0.067624024 0.0065764035 -3.0277423e-20)
(0.068147214 0.0078301199 -3.1337075e-20)
(0.069292301 0.0055146255 3.2646027e-20)
(0.066262417 0.0059429349 -3.3727314e-20)
(0.069613567 0.0031020656 7.0737687e-20)
(0.072072417 0.0018169513 -3.7391321e-20)
(0.064965339 0.0074513875 2.9836334e-22)
(0.062805836 0.0053539838 6.2106099e-22)
(0.072513921 -0.0069078085 6.426408e-22)
(0.074407954 -0.0090839336 0)
(0.058330808 0.0051878301 -4.4841063e-20)
(0.041266657 0.017306247 9.2816436e-20)
(0.045537831 0.0093183441 -4.873059e-20)
(0.068290901 -0.012206954 -3.8825945e-22)
(0.084161991 -0.024834875 -4.0299104e-22)
(0.075339758 -0.014521561 0)
(0.05059034 0.0076239156 -5.6973864e-20)
(0.029612784 0.022879079 -7.6519561e-22)
(0.028098735 0.016987209 6.1085424e-20)
(0.047766628 -0.0070682703 0)
(0.074122579 -0.031680913 0)
(0.089500925 -0.040145189 -6.6856143e-20)
(0.085568233 -0.033923345 6.7232465e-20)
(0.070217813 -0.018891999 -5.6311987e-24)
(0.053131857 -0.0029173196 1.5140416e-19)
(0.043452735 0.01009362 -3.0806648e-19)
(0.046523496 0.013083532 3.1685666e-19)
(0.060436142 0.0033823602 -1.6663317e-19)
(0.076968217 -0.015007779 -1.70153e-22)
(0.091946861 -0.038058144 1.7151281e-22)
(0.079814663 -0.00076438329 7.4664956e-22)
(0.076419924 -0.0029739616 -7.760499e-22)
(0.087108555 -0.00089238954 -3.2367084e-21)
(0.089661023 9.4797838e-05 3.372974e-21)
(0.093310862 -0.00077112749 4.3881808e-21)
(0.099450795 -0.002281816 -9.1463013e-21)
(0.10391928 -0.0015520469 2.8515207e-21)
(0.10563905 -0.00040638022 -9.8662109e-22)
(0.10601892 -0.0009312549 -1.0218321e-21)
(0.10414012 -0.0015626418 -8.5551993e-21)
(0.098841007 -0.0025130647 8.9041336e-21)
(0.091556432 -0.0034101544 0)
(0.08197466 0.0002014262 0)
(0.074578836 0.00055486182 -6.3096036e-22)
(0.072605677 0.001214782 -6.5379769e-22)
(0.075441293 -0.00016102469 1.0774432e-20)
(0.081360687 0.0026480186 -3.4545026e-20)
(0.084083081 -0.002712174 2.4879276e-20)
(0.083810655 -0.00093879559 -2.4080669e-20)
(0.088439293 -0.0013201398 5.0485744e-20)
(0.0904151 -0.0035161436 -8.0179197e-22)
(0.08241175 -0.00056099478 -5.4108499e-20)
(0.076017683 0.0023355729 2.9313353e-20)
(0.075317669 0.00022036134 2.9710113e-20)
(0.071856972 -0.00013780412 -3.0772043e-20)
(0.06648332 0.0054599018 0)
(0.068471239 0.0052734058 -3.3053506e-20)
(0.070322293 0.004229657 3.4484137e-20)
(0.067374383 0.0044436953 5.5807878e-22)
(0.069897416 0.00099333109 5.8243587e-22)
(0.0712628 0.0022068357 9.0626393e-22)
(0.065504489 0.0086891029 -3.1470982e-22)
(0.066542307 0.0042236831 -6.5448902e-22)
(0.075447875 -0.0085219207 -3.3925512e-22)
(0.073309673 -0.0092045749 0)
(0.055470989 0.0056711423 0)
(0.042160888 0.015578546 -4.8836452e-20)
(0.050104799 0.0057103207 1.0160466e-19)
(0.071172692 -0.014348628 -5.2741115e-20)
(0.081758665 -0.021311549 -2.1132472e-22)
(0.068776787 -0.0063277208 0)
(0.045172994 0.016020446 0)
(0.031018555 0.025040916 -6.2085693e-20)
(0.037569103 0.010501719 6.4941266e-20)
(0.05721845 -0.016237949 -6.5232233e-20)
(0.074318848 -0.03565538 6.9410776e-20)
(0.081103066 -0.035933919 2.7252189e-22)
(0.075657656 -0.023083735 -7.3620735e-20)
(0.061504205 -0.0050144023 7.546501e-20)
(0.046057197 0.0093721338 0)
(0.038190398 0.014285974 3.4888802e-25)
(0.042728168 0.0083129165 -8.3249439e-20)
(0.058919889 -0.0063921485 1.741761e-19)
(0.078449317 -0.024029717 -1.8119237e-19)
(0.096814238 -0.04183329 9.4468054e-20)
(0.08021503 -0.00074670564 0)
(0.076370702 -0.0019660219 1.638521e-21)
(0.086737806 -0.00070602622 1.3142879e-24)
(0.089600837 0.00030333135 -1.779786e-21)
(0.093615327 -0.00075746901 1.9253978e-25)
(0.099399092 -0.0024264016 9.624888e-22)
(0.10357652 -0.001170465 -2.0079662e-21)
(0.10559142 -0.00057016796 5.2158042e-21)
(0.10629745 -0.001137906 0)
(0.10450126 -0.0022453753 0)
(0.099322647 -0.0026492816 -8.2639849e-21)
(0.091801316 -0.0026205663 9.767651e-21)
(0.082255748 -0.00032350561 0)
(0.074571137 -0.00076290998 6.6527587e-22)
(0.072697149 0.0019172137 6.9019172e-22)
(0.075124724 -0.00065249024 0)
(0.081295524 -0.00057549091 -1.1883786e-20)
(0.084434437 -0.0016168114 -7.749532e-22)
(0.083722739 -0.00047349804 1.3550216e-20)
(0.088590262 -0.002712464 0)
(0.090391122 -0.0027651612 2.7723553e-20)
(0.082545732 0.0014130263 -5.7481038e-20)
(0.076663632 0.00055617224 2.9548519e-20)
(0.075859309 -0.0027065086 -3.1690118e-20)
(0.071338013 -8.287534e-05 3.2833829e-20)
(0.065707736 0.0034255513 0)
(0.068060042 0.0018524021 0)
(0.070320664 0.0032758363 0)
(0.068217643 0.0045743132 -5.8905164e-22)
(0.069968389 0.0002656255 -6.1459398e-22)
(0.069371881 0.0025744731 -4.1333775e-20)
(0.064956417 0.0092339679 4.2104983e-20)
(0.069324673 0.0040071941 3.4478548e-22)
(0.077957043 -0.007343905 0)
(0.072145717 -0.0065915922 0)
(0.05336066 0.0069083627 3.8809033e-22)
(0.042574561 0.014677079 0)
(0.053728634 0.0032535858 -4.2161643e-22)
(0.073869672 -0.015326206 -5.5859943e-20)
(0.07851298 -0.017389467 5.7412628e-20)
(0.062263562 -0.00018359262 6.0446253e-20)
(0.041611346 0.019491396 -6.2005728e-20)
(0.034385328 0.023100518 6.4907962e-20)
(0.046689477 0.0053594234 -6.8639647e-20)
(0.064982568 -0.018888673 -6.9433778e-20)
(0.074890289 -0.032595032 -2.3639254e-23)
(0.071869003 -0.028568112 1.4682364e-19)
(0.062830816 -0.012113416 -7.5317718e-20)
(0.051253807 0.0056898338 0)
(0.041243638 0.018798542 -8.4445274e-20)
(0.040183868 0.016370821 1.7220717e-19)
(0.048637355 0.002414244 -9.0481569e-20)
(0.063909163 -0.016124346 0)
(0.081755972 -0.03411825 -1.8482013e-22)
(0.096701402 -0.046791892 9.672948e-20)
(0.08047828 -0.00047244429 0)
(0.076398937 -0.00020089719 0)
(0.086607269 -0.00091437185 0)
(0.089496297 -0.00079838668 2.824669e-21)
(0.093678411 -0.0012384895 -4.8755585e-21)
(0.099361849 -0.0021475813 4.0617062e-21)
(0.10342228 -0.0013285261 -5.2883017e-21)
(0.10552556 -0.001470342 -1.1014591e-21)
(0.10641396 -0.0018455774 -1.1411879e-21)
(0.10471333 -0.0027867813 -1.0683587e-20)
(0.099796562 -0.0026795048 8.6699177e-21)
(0.092097483 -0.0013096644 0)
(0.082681781 -0.00045710569 1.0811201e-20)
(0.074444239 -0.0010438912 2.4737404e-23)
(0.072608346 0.0020284365 -2.3999162e-20)
(0.075325967 -0.00052424982 1.211846e-20)
(0.080753897 -0.003305355 -7.8662819e-22)
(0.083885427 0.00070815394 -8.1661509e-22)
(0.083929831 0.0012643744 -1.2027394e-25)
(0.088554038 -0.0026965095 4.38397e-22)
(0.090074981 -0.0011757634 4.5624241e-22)
(0.083247676 0.0031911037 4.7336183e-22)
(0.07825205 -0.0006490419 0)
(0.076011364 -0.0044978341 0)
(0.070832652 0.00046396444 -3.4779344e-20)
(0.065841239 0.0020140201 3.6023335e-20)
(0.067542304 -0.00033968374 0)
(0.06931995 0.0029686618 0)
(0.068897777 0.0049594828 0)
(0.070448446 0.00028897755 3.2358186e-22)
(0.067966403 0.002640176 0)
(0.064524829 0.0077996665 4.4281992e-20)
(0.071342536 0.0023907726 -4.6833649e-20)
(0.080415976 -0.007069624 3.7744242e-22)
(0.07243218 -0.0045094267 -5.130017e-20)
(0.052608713 0.0080795264 5.1054704e-20)
(0.044138518 0.012750047 0)
(0.057508671 -0.00016186837 5.5506595e-20)
(0.075217166 -0.01626369 -5.9586389e-20)
(0.075270015 -0.015278181 2.3602942e-22)
(0.056311862 0.0029493405 6.4505027e-20)
(0.038256677 0.019718585 -6.5587479e-20)
(0.037502316 0.019075174 0)
(0.053665126 0.0013387119 7.0100959e-20)
(0.071439768 -0.018678997 -7.4728986e-20)
(0.075412872 -0.026411539 5.9351989e-22)
(0.065604306 -0.019711658 0)
(0.05085118 -0.003597483 8.1925182e-20)
(0.039644474 0.012595648 -8.4362815e-20)
(0.036925189 0.019714057 8.8311508e-20)
(0.043299421 0.013299394 -9.1628733e-20)
(0.057167033 -0.0045943489 -9.3013327e-20)
(0.071950093 -0.024360318 1.9494612e-19)
(0.085193154 -0.039994809 -1.7945863e-21)
(0.09544086 -0.049087559 -1.1275759e-21)
(0.080622748 -0.00021999272 -8.749509e-22)
(0.076549694 0.0012813933 -9.0966218e-22)
(0.086735728 -0.0013238702 -1.895823e-21)
(0.08957882 -0.0021747293 -6.8286545e-24)
(0.093590529 -0.0018129354 2.0541172e-21)
(0.099357426 -0.0015634235 4.2862611e-21)
(0.1034416 -0.0018684576 -4.4587379e-21)
(0.10557021 -0.0024973614 1.1599448e-21)
(0.10663056 -0.0024678862 6.0085007e-21)
(0.1050197 -0.0032088321 -1.3761309e-20)
(0.099817091 -0.0025794176 6.1028817e-22)
(0.09236931 0.00019318534 1.0852795e-20)
(0.083385756 -0.00047274053 7.0901581e-22)
(0.074526198 -0.00078445178 0)
(0.072434233 0.0014686833 7.6673134e-22)
(0.075774697 -0.00010644123 -7.9482238e-22)
(0.080161108 -0.0044854294 -2.2348149e-24)
(0.08291657 0.0023162719 1.7136078e-21)
(0.084207972 0.0023965637 -8.9080296e-22)
(0.088643634 -0.0025116776 1.4315426e-20)
(0.089495938 -0.00020451067 -3.1270551e-20)
(0.084279943 0.0035505866 1.5962108e-20)
(0.080221493 -0.0012743569 0)
(0.076331059 -0.0038191376 -1.7335546e-20)
(0.070480424 0.0016050571 1.7400635e-20)
(0.066557867 0.0014398283 -5.8599523e-22)
(0.067037534 -0.00091340603 -6.0571699e-22)
(0.067830117 0.003304424 0)
(0.06905471 0.0053123086 0)
(0.070999425 0.001105048 -3.3927434e-22)
(0.06702874 0.0029228959 0)
(0.063868447 0.0062995557 0)
(0.072476497 0.00065342452 -4.8475312e-20)
(0.081250246 -0.0064956641 -2.5051595e-22)
(0.07202314 -0.0016494399 1.0600588e-19)
(0.052204597 0.01041995 -5.4958104e-20)
(0.04547336 0.012580433 0)
(0.060318695 -0.0017302526 2.3349888e-22)
(0.07661974 -0.01603297 -2.4109546e-22)
(0.072262281 -0.012531337 -2.4790297e-22)
(0.052423381 0.0048462226 -6.7489264e-20)
(0.036683022 0.018357056 6.9359974e-20)
(0.040422482 0.014246796 0)
(0.058711447 -0.0031576631 0)
(0.074775852 -0.017981798 -3.0238881e-22)
(0.076129615 -0.021192771 -3.0896442e-22)
(0.062184088 -0.011660505 -8.3630779e-20)
(0.044673679 0.0023460967 8.571659e-20)
(0.032211106 0.01471877 9.0260177e-20)
(0.033727292 0.016305219 -9.3216707e-20)
(0.046206004 0.0059333517 -1.8761005e-22)
(0.063652244 -0.011159059 9.8375673e-20)
(0.078429806 -0.028415603 -1.0363476e-19)
(0.087593429 -0.040478452 0)
(0.092243721 -0.045387281 -1.0861984e-19)
(0.080595433 -9.1958605e-05 1.3831494e-21)
(0.076675856 0.0015980915 -4.7893426e-22)
(0.08700295 -0.0019166312 9.981708e-22)
(0.089568408 -0.0030646635 1.0417286e-21)
(0.093478398 -0.0022355412 4.3466687e-21)
(0.099237581 -0.00071760153 -7.901858e-21)
(0.10345511 -0.0022384293 4.6977905e-21)
(0.10564158 -0.0032195699 0)
(0.10675476 -0.0028503253 5.6997977e-21)
(0.10520536 -0.0033824071 -4.6136293e-21)
(0.099693717 -0.0023136191 -1.3764862e-21)
(0.092606778 0.00092286224 0)
(0.084017825 -0.00086295616 -1.4946729e-21)
(0.074875189 -0.00040164754 7.7961253e-22)
(0.072385258 4.6923207e-05 -8.080029e-22)
(0.076017522 0.00048411742 1.3230313e-24)
(0.079502599 -0.0038826335 -1.2975617e-20)
(0.081936616 0.0026210558 2.8029494e-20)
(0.084631395 0.0020677505 -1.5028571e-20)
(0.088776735 -0.002632358 0)
(0.088890625 -8.5527117e-05 -5.0365252e-22)
(0.085031093 0.0020742644 0)
(0.081622309 -0.0016286876 -5.4958843e-22)
(0.076611727 -0.0016834007 0)
(0.070652309 0.0024738398 -9.054614e-25)
(0.067522526 0.00097784294 6.1932363e-22)
(0.066710192 -0.00067450534 6.4029213e-22)
(0.06658856 0.0036218615 2.1259942e-20)
(0.069229532 0.0049358923 -1.5642069e-22)
(0.071899853 0.0015945516 -2.2964181e-20)
(0.067200784 0.0027063871 4.7992654e-20)
(0.064263084 0.0041949924 -9.9099853e-20)
(0.073113411 -0.0014958186 5.2503644e-20)
(0.081674311 -0.0069506343 -4.1648372e-22)
(0.071631006 -7.346348e-05 -4.3472473e-22)
(0.052445941 0.011989669 4.5837328e-22)
(0.04750174 0.011935738 0)
(0.063317229 -0.0028603778 2.4457774e-22)
(0.077364176 -0.015263037 2.5446097e-22)
(0.069676484 -0.010064156 0)
(0.049184928 0.0063001171 -5.4936589e-22)
(0.036462256 0.015856703 0)
(0.042535097 0.0090395267 2.9766105e-22)
(0.060986663 -0.0072893128 -7.7706021e-20)
(0.075473435 -0.018957743 8.2862359e-20)
(0.074643394 -0.01770255 0)
(0.060223175 -0.0058702933 -1.7045788e-22)
(0.041295725 0.0081481922 0)
(0.030328834 0.01526763 9.5286698e-20)
(0.033023388 0.011401746 -9.851858e-20)
(0.048176453 -0.0018626322 1.9962856e-22)
(0.066749583 -0.017896095 0)
(0.081613403 -0.03093945 -1.0549969e-22)
(0.088898136 -0.03823442 0)
(0.08860337 -0.038475905 1.0935192e-22)
(0.080603294 -0.00012661976 -4.8586688e-22)
(0.076810002 0.00086699128 1.5143897e-21)
(0.087306248 -0.0022165464 -1.0505882e-21)
(0.089628601 -0.0030944299 2.197437e-21)
(0.093259077 -0.0021886937 -3.4242535e-21)
(0.09919922 -4.5416236e-05 -8.9429795e-25)
(0.10363802 -0.0022322622 -4.9551523e-21)
(0.1056285 -0.0034139621 5.1493126e-21)
(0.10675825 -0.0031265088 4.6702081e-21)
(0.10532121 -0.0032682139 -1.1815327e-20)
(0.099684011 -0.0022382003 7.0331943e-22)
(0.093036571 0.00019575319 6.0368336e-21)
(0.084767185 -0.001694052 -1.188206e-20)
(0.075274792 -0.00021196783 1.2246136e-20)
(0.072187969 -0.001526128 8.5056244e-22)
(0.075934317 0.00063746167 -1.3228295e-20)
(0.079149116 -0.0021896109 1.4690319e-20)
(0.081103001 0.0013558041 0)
(0.08501673 0.00046668911 1.6306732e-20)
(0.089040101 -0.003026851 -3.2864827e-20)
(0.088723544 -0.0009960991 -2.2617217e-23)
(0.085688743 -0.0014557671 1.7199433e-20)
(0.082379087 -0.0023690638 1.975306e-20)
(0.076659464 0.00058113481 -3.8010431e-20)
(0.070997546 0.0026898198 2.0683818e-20)
(0.068313192 0.00046907982 -3.2690729e-22)
(0.066406044 -0.00052278629 3.381453e-22)
(0.065535667 0.0034301873 2.2034231e-20)
(0.069080235 0.004050396 -2.3918955e-20)
(0.072486924 0.0016852872 3.7816291e-22)
(0.067670985 0.0025032007 0)
(0.064520044 0.0026211397 2.6021518e-20)
(0.073394412 -0.0030524248 -4.9285137e-22)
(0.081121872 -0.0066672075 -2.8089001e-20)
(0.070698347 0.0016174333 6.8619857e-22)
(0.052504958 0.013055951 -3.097203e-20)
(0.049578178 0.011830326 3.2021345e-20)
(0.065961514 -0.0032308473 -2.5853666e-22)
(0.077640912 -0.01375404 2.6771436e-22)
(0.068121058 -0.0073535786 0)
(0.04800939 0.0076089004 -7.4898995e-20)
(0.037054131 0.014147961 7.7240363e-20)
(0.045468288 0.0047551979 -1.5827458e-22)
(0.06365324 -0.010829413 -8.2021933e-20)
(0.075242609 -0.019844076 8.6542746e-20)
(0.071597303 -0.015108016 1.7269167e-22)
(0.057336043 -0.0015710638 1.7918447e-22)
(0.040194058 0.011869998 9.80637e-20)
(0.031876427 0.015695404 -1.0023092e-19)
(0.036927971 0.0067441529 -4.0677548e-22)
(0.051582479 -0.0086639972 0)
(0.068540933 -0.023643436 0)
(0.081406532 -0.033075787 -3.3949916e-25)
(0.08722522 -0.035321753 0)
(0.083433527 -0.0300831 -1.1697376e-22)
(0.080773633 -0.00023168176 -1.0236197e-21)
(0.077016348 -0.0005187239 -1.0630465e-21)
(0.087605287 -0.002009932 4.431948e-21)
(0.089623405 -0.0022537283 -2.3037252e-21)
(0.092956772 -0.0017346911 2.4090581e-21)
(0.099189025 3.3458622e-05 -3.7593111e-21)
(0.10398992 -0.001788093 -5.2224388e-21)
(0.10567432 -0.0029152143 5.4249563e-21)
(0.10669135 -0.0032216531 5.6188455e-21)
(0.10536108 -0.0028887544 -1.0992032e-20)
(0.09986219 -0.0018682467 5.33754e-21)
(0.093457405 -0.0013641164 0)
(0.085243911 -0.0024417254 8.2979969e-22)
(0.075657119 -3.5020391e-05 0)
(0.071980945 -0.0023300839 0)
(0.075672361 0.00061021492 1.4400499e-20)
(0.079049087 0.00025368534 -1.5542754e-20)
(0.080791985 -0.0005554396 -5.0459864e-22)
(0.085080098 -0.0012138782 -1.2202112e-25)
(0.089195326 -0.0024356758 0)
(0.089141352 -0.0027465792 1.8518689e-20)
(0.086126886 -0.0053489128 -1.7528377e-20)
(0.082118821 -0.0033745285 3.7788389e-25)
(0.076345189 0.0023756552 1.9434116e-20)
(0.07172552 0.0024773115 -4.2279254e-20)
(0.06927754 -0.00010989471 2.1380847e-20)
(0.066271048 -0.00077139942 -2.3261576e-20)
(0.064631818 0.00255902 4.815649e-22)
(0.068756625 0.0024851259 2.5109199e-20)
(0.072921148 0.0011481936 2.4776876e-20)
(0.068428239 0.0018985295 -2.6066697e-20)
(0.065162665 0.00074949196 0)
(0.073299336 -0.0044843242 -4.4764819e-22)
(0.080284138 -0.0065361142 -3.4935447e-25)
(0.069817693 0.0024554637 -2.4094897e-22)
(0.052945834 0.012942957 3.2840178e-20)
(0.051988934 0.010520797 -5.7039742e-22)
(0.068342652 -0.0039620727 -3.5320406e-20)
(0.078311301 -0.012742998 3.5527947e-20)
(0.06715953 -0.0051623013 -7.5018349e-20)
(0.046752489 0.0086039353 -5.9642803e-22)
(0.037682471 0.012787782 8.1444051e-20)
(0.048369618 0.0028868188 -4.2964943e-20)
(0.065557913 -0.011720502 -1.7144492e-22)
(0.074571434 -0.019276936 -4.5303982e-20)
(0.068604611 -0.013083708 4.6048854e-20)
(0.053210114 0.0012373006 0)
(0.039895247 0.013249141 -5.1703838e-20)
(0.03516051 0.014213853 5.2964504e-20)
(0.042782746 0.0031153404 4.2928178e-22)
(0.056971508 -0.0132706 0)
(0.07098799 -0.026161717 -1.1576958e-19)
(0.080617905 -0.033108828 1.3901018e-21)
(0.083489317 -0.032170923 1.2222153e-19)
(0.078486688 -0.024070537 1.2234365e-22)
(0.08107879 -0.00039062538 -1.6197051e-25)
(0.077250796 -0.0019988778 -2.240715e-21)
(0.08770941 -0.0013746217 0)
(0.089693757 -0.0008382054 1.218515e-21)
(0.092854026 -0.0010384126 1.9024938e-21)
(0.09920924 -0.00042544317 1.981428e-21)
(0.10428224 -0.0014112399 -8.248933e-21)
(0.1058455 -0.0019798004 -7.1272094e-22)
(0.10670761 -0.003193542 -7.3021301e-22)
(0.10538816 -0.0024956644 1.1582779e-20)
(0.10023795 -0.0017692726 -5.62226e-21)
(0.093999932 -0.0033115979 -6.7248567e-21)
(0.085461981 -0.0031246969 5.229054e-21)
(0.07594549 0.00013936323 0)
(0.071973953 -0.0023140395 0)
(0.075127152 0.00043526298 -1.5647589e-20)
(0.07909853 0.0019912223 5.9571671e-23)
(0.080940103 -0.0025704264 1.748614e-20)
(0.084872715 -0.002551546 -5.5073647e-22)
(0.089174957 -0.0011336758 1.8252471e-20)
(0.090075001 -0.0040967786 -1.8931897e-20)
(0.086610286 -0.0080969879 -6.1548551e-22)
(0.081232643 -0.0039688248 -3.2060447e-22)
(0.075979458 0.0030997601 -2.1459552e-20)
(0.072742094 0.002022314 2.2288223e-20)
(0.070229971 -0.00081096938 3.6255124e-22)
(0.06620912 -0.0010959838 0)
(0.064020278 0.0014289536 0)
(0.068284306 0.00088768274 0)
(0.072908707 0.00062710709 8.3921684e-22)
(0.06916146 0.0015937641 -4.3726176e-22)