/*--------------------------------*- C++ -*----------------------------------*\
| =========                 |                                                 |
| \\      /  F ield         | OpenFOAM: The Open Source CFD Toolbox           |
|  \\    /   O peration     | Version:  2406                                  |
|   \\  /    A nd           | Website:  www.openfoam.com                      |
|    \\/     M anipulation  |                                                 |
\*---------------------------------------------------------------------------*/
FoamFile
{
    version     2.0;
    format      ascii;
    arch        "LSB;label=32;scalar=64";
    class       volVectorField;
    location    "25";
    object      U;
}
// * * * * * * * * * * * * * * * * * * * * * * * * * * * * * * * * * * * * * //

dimensions      [0 1 -1 0 0 0 0];

internalField   nonuniform List<vector> 
96472
(
(0.077209272 -0.0010057231 -5.8607368e-22)
(0.077483089 -0.0024076191 1.8857178e-21)
(0.080032205 -0.0029459809 1.1347284e-21)
(0.078445683 -0.0026080246 4.356872e-21)
(0.077569747 -0.0015456073 -6.1281164e-21)
(0.076887053 -0.0001033816 -4.9789477e-21)
(0.076507885 0.0014354632 1.1904858e-21)
(0.077058875 0.002693264 2.7457667e-21)
(0.0780713 0.0036480281 2.2436008e-21)
(0.079415796 0.0043936519 -8.5540545e-22)
(0.080963059 0.0050084129 -4.2251663e-22)
(0.082320482 0.0054936811 9.8127425e-22)
(0.083299508 0.0057651041 1.4282799e-21)
(0.083798569 0.0057088132 7.8705775e-22)
(0.084061876 0.0054274843 -1.7602711e-23)
(0.084380438 0.0049848605 1.9328485e-23)
(0.084908655 0.004637915 3.1781501e-21)
(0.085584331 0.0045754323 9.5810073e-22)
(0.08640398 0.0047009424 2.4896789e-21)
(0.087234142 0.0049930767 2.8027744e-22)
(0.088051776 0.0052283052 -1.3139542e-22)
(0.088763569 0.0053555078 -1.7657949e-21)
(0.089445955 0.0054646692 -6.1659551e-22)
(0.090205546 0.0054382696 2.512571e-21)
(0.090884435 0.0051971637 5.583296e-22)
(0.091322494 0.0048453313 -2.7428407e-21)
(0.091525999 0.0044247356 2.2669796e-21)
(0.091547979 0.0038986421 -1.1839178e-22)
(0.091475262 0.0032162764 -1.8629198e-21)
(0.091383615 0.002378717 -3.7973998e-22)
(0.091319081 0.0013621805 -1.517221e-22)
(0.091198848 0.00022707355 9.8220902e-23)
(0.091150517 -0.0010905406 3.1910843e-21)
(0.090878451 -0.0024600878 3.1691985e-22)
(0.090680938 -0.0040075288 0)
(0.090277139 -0.0056180217 2.0684424e-21)
(0.090037233 -0.0073791739 -1.6093357e-21)
(0.089595731 -0.0092098405 1.8240092e-21)
(0.089424961 -0.011139517 -1.9519203e-21)
(0.089030131 -0.013128386 -9.1080386e-22)
(0.089071989 -0.015243338 9.2280014e-24)
(0.088678006 -0.01731261 7.25368e-22)
(0.088923961 -0.019534141 -7.6813697e-22)
(0.088646422 -0.021784831 1.9747014e-21)
(0.088991163 -0.023836165 4.2912007e-22)
(0.088934561 -0.026269602 -8.6243433e-22)
(0.089603625 -0.028539427 2.4835311e-22)
(0.089516315 -0.030833848 -3.7876966e-21)
(0.090411325 -0.032891125 -3.5909626e-22)
(0.090579332 -0.035545853 3.0354978e-22)
(0.091814359 -0.037599257 7.9174187e-22)
(0.092021656 -0.040001884 5.5961966e-23)
(0.093325241 -0.042000139 -8.0695499e-22)
(0.094209513 -0.044365508 3.9369268e-22)
(0.095215752 -0.04758755 -3.173104e-22)
(0.078922414 -0.00079835289 1.5962259e-22)
(0.07797554 -0.0024027767 1.0894431e-21)
(0.080260699 -0.0029647322 0)
(0.078417246 -0.0025951863 4.1160945e-21)
(0.077355781 -0.0015515565 4.6646404e-21)
(0.076680846 -0.00020066714 -1.9873801e-22)
(0.076327588 0.0012748621 -1.934958e-22)
(0.076837589 0.0025412882 -3.4255755e-21)
(0.077954411 0.0034547868 2.8192343e-21)
(0.079435854 0.0041674881 0)
(0.081065318 0.0047758634 4.0491292e-23)
(0.082498295 0.005261438 8.3866633e-22)
(0.083515006 0.0055573942 1.0985576e-21)
(0.084100776 0.0055177955 2.0207823e-22)
(0.084444785 0.0052081239 -1.8762853e-23)
(0.084790522 0.0047987444 5.719492e-21)
(0.085261826 0.0045227359 2.3168948e-22)
(0.085865362 0.0043601098 1.8667036e-22)
(0.086636215 0.0044181665 3.3224792e-21)
(0.08742084 0.0046482055 0)
(0.088185062 0.0049365833 1.7542941e-21)
(0.088922918 0.0051245325 -2.4564442e-21)
(0.089649688 0.0051411461 -1.3180349e-22)
(0.090378758 0.0050945198 1.6999088e-24)
(0.091026092 0.0049688638 -1.508241e-21)
(0.091479489 0.0047241844 -3.3871771e-23)
(0.091722761 0.0043212465 -8.6191629e-23)
(0.091781864 0.0037695703 2.6686949e-21)
(0.0917335 0.0030876634 -3.1743248e-21)
(0.091631017 0.00229904 -7.2111676e-22)
(0.091597161 0.0013791307 6.2489462e-22)
(0.091505153 0.0003341703 7.2020689e-22)
(0.091522055 -0.00086540404 -1.4580398e-21)
(0.091398211 -0.0021760901 -1.4131687e-22)
(0.091413815 -0.0036283757 -3.4815371e-22)
(0.091163918 -0.005172244 -9.4181395e-22)
(0.091125963 -0.0068256966 2.2880902e-22)
(0.090791634 -0.0085479503 -1.7441239e-23)
(0.09070639 -0.010330974 -1.4872832e-22)
(0.090275446 -0.01217155 1.5264103e-21)
(0.090267087 -0.014067644 9.7380837e-23)
(0.089895937 -0.016037729 -5.6200053e-25)
(0.090035052 -0.017988034 -2.0567105e-24)
(0.089782931 -0.020073213 -8.6580665e-23)
(0.090160789 -0.022092168 1.7151068e-21)
(0.090017579 -0.024229613 3.8199234e-22)
(0.090654392 -0.02625268 -1.3605523e-21)
(0.090759532 -0.028508467 3.5818079e-23)
(0.091693712 -0.030679062 -8.1495507e-25)
(0.092016046 -0.032803178 4.3184139e-22)
(0.092859812 -0.034801787 8.4739015e-24)
(0.093806899 -0.037058244 1.2275462e-22)
(0.094420809 -0.039358538 -2.2159346e-22)
(0.095992015 -0.040998012 3.4824897e-22)
(0.096527165 -0.044168521 2.2206127e-21)
(0.079892369 -0.00073920363 4.2143533e-25)
(0.078597206 -0.0023559462 0)
(0.080694327 -0.0029973163 2.7569295e-21)
(0.078644135 -0.0026267026 0)
(0.077397643 -0.0016038495 6.6777218e-21)
(0.076684214 -0.00025913946 9.6634839e-24)
(0.076348923 0.0012133077 2.1300249e-22)
(0.076890378 0.0024448174 -2.6483441e-23)
(0.078025184 0.0032900224 -2.7809388e-21)
(0.079507013 0.0040065917 -6.4078182e-22)
(0.081138578 0.0045687842 3.4434026e-23)
(0.082592421 0.0050856945 -9.7826336e-22)
(0.083653954 0.0053403189 -8.6347729e-22)
(0.084294733 0.0053345393 -5.7373636e-21)
(0.084669461 0.0050592533 -4.8592297e-22)
(0.084993128 0.0046411043 -2.7160649e-21)
(0.085411512 0.0042947438 -1.2797335e-21)
(0.085923498 0.0041608132 1.73989e-21)
(0.086615145 0.0042314106 0)
(0.087350892 0.0043866323 -3.2385271e-22)
(0.088082169 0.0045790455 2.3924861e-23)
(0.088843616 0.0047812572 -1.3199414e-23)
(0.089626624 0.0048710873 -9.6610679e-23)
(0.090383178 0.0047729069 5.78202e-23)
(0.09106371 0.004584538 8.9827322e-25)
(0.091590185 0.0043522299 1.3636019e-21)
(0.091924693 0.0039977023 -1.8567103e-21)
(0.092059414 0.0035038571 -1.1819243e-21)
(0.092068127 0.0028672748 1.4340449e-21)
(0.092005746 0.0020920166 1.269243e-21)
(0.091989384 0.0011920776 2.0118972e-24)
(0.091955459 0.00018846551 4.8599833e-22)
(0.091996739 -0.00096632453 -8.7698437e-23)
(0.091910309 -0.002214407 2.1378889e-22)
(0.091978139 -0.0035720562 -2.5623424e-22)
(0.091804267 -0.0050355147 -8.8348754e-22)
(0.091890894 -0.0065845481 4.7440861e-22)
(0.091648258 -0.0082029893 -7.5222986e-22)
(0.091732491 -0.0098937426 1.5502816e-23)
(0.091470014 -0.011659033 -7.2482794e-24)
(0.091583899 -0.013442163 -9.965922e-22)
(0.091264625 -0.01529122 -6.6289685e-22)
(0.091513824 -0.017150061 0)
(0.091232243 -0.019034012 -4.5240611e-22)
(0.091608711 -0.020914204 -4.9581881e-22)
(0.09155552 -0.022903824 8.0355751e-22)
(0.092035511 -0.024784755 -3.7710716e-22)
(0.092354627 -0.026830442 -1.5530985e-24)
(0.092765736 -0.028716156 0)
(0.093536096 -0.03060039 -5.3262214e-26)
(0.094088874 -0.032925175 -1.001301e-22)
(0.095329291 -0.034670778 6.2949872e-22)
(0.095682558 -0.036781199 4.4397079e-22)
(0.097206304 -0.038339133 2.0852157e-22)
(0.097717796 -0.041033988 5.0003207e-22)
(0.080574765 -0.00064247 1.6375761e-22)
(0.079021229 -0.0023125025 7.7851224e-23)
(0.080994822 -0.0030151466 2.23614e-24)
(0.078834396 -0.0026378513 -3.194245e-23)
(0.077494014 -0.0016265483 3.8101172e-23)
(0.076773675 -0.00032735485 -1.936954e-23)
(0.07645715 0.0011097769 -1.9819735e-22)
(0.077031384 0.002319716 3.9866656e-21)
(0.07817592 0.0031331945 8.865321e-23)
(0.079634997 0.0037828455 -1.1295185e-21)
(0.081235035 0.0043415626 1.5849198e-24)
(0.082681089 0.0048564846 4.5412548e-24)
(0.083770442 0.0051453059 -3.2851646e-21)
(0.084450746 0.0051475571 1.9482198e-21)
(0.084862767 0.0048949709 -4.2347159e-22)
(0.085179001 0.0044559393 -1.7461216e-23)
(0.085537657 0.0040730796 2.230522e-21)
(0.08595191 0.0039342411 1.9754564e-23)
(0.086577582 0.0039668598 -9.0975887e-22)
(0.087289943 0.0041641759 0)
(0.088021706 0.0043561553 -2.5016719e-21)
(0.088777955 0.0044683423 0)
(0.089591942 0.0045561072 -2.1690835e-21)
(0.090410363 0.004540368 -3.9001299e-21)
(0.09113765 0.0043589651 2.2507817e-23)
(0.091704206 0.0040955901 2.5052917e-21)
(0.092095696 0.0037635088 2.2079726e-21)
(0.092305111 0.003339755 -2.1446638e-21)
(0.092380201 0.0027736726 3.1998174e-21)
(0.092376668 0.0020668812 4.1002511e-24)
(0.092393401 0.0012025441 2.5593451e-25)
(0.092393175 0.00023609118 -6.9793233e-22)
(0.092461683 -0.00084059388 2.1292499e-21)
(0.092436333 -0.0020253006 1.5450261e-21)
(0.092525356 -0.0033067037 -1.5299497e-21)
(0.092392628 -0.0046839816 1.9330638e-23)
(0.09249168 -0.006126643 1.994786e-22)
(0.092299834 -0.0076757084 -1.3284885e-21)
(0.092444336 -0.0092453648 6.8789652e-22)
(0.092230671 -0.010902588 -1.4797997e-21)
(0.092444102 -0.012551008 -2.900629e-23)
(0.092286596 -0.014347343 6.5516513e-23)
(0.092511488 -0.016001219 2.2116768e-23)
(0.092518138 -0.017867442 3.8341986e-22)
(0.092786418 -0.019614053 -1.5474155e-21)
(0.092986827 -0.021407349 -2.4443831e-22)
(0.093249631 -0.023329258 -4.7477145e-22)
(0.09387032 -0.025057454 -9.4941544e-23)
(0.094099658 -0.02706318 4.9499038e-23)
(0.095195301 -0.028895081 -3.2856579e-23)
(0.095415677 -0.030846987 2.04896e-22)
(0.096498479 -0.032208421 1.5941618e-22)
(0.097002499 -0.034542097 -7.4206228e-23)
(0.098533821 -0.036016687 -1.1977497e-23)
(0.099080169 -0.038740407 8.0247e-22)
(0.080983906 -0.0005748089 2.8156385e-22)
(0.079292388 -0.0022828661 0)
(0.08117663 -0.0030224067 -5.0800463e-21)
(0.078956159 -0.0026413373 -3.1997334e-21)
(0.077575987 -0.0016514732 0)
(0.076862313 -0.00036835875 3.9821187e-21)
(0.076564457 0.0010433377 0)
(0.077171362 0.0022091844 0)
(0.078332282 0.0030024969 2.1500632e-21)
(0.07976622 0.0035716908 -7.2108976e-22)
(0.081324736 0.0041190192 2.2558955e-23)
(0.0827476 0.0045945694 8.2179187e-22)
(0.083856907 0.0049483441 6.5170886e-22)
(0.084582988 0.0049716267 4.8581245e-21)
(0.085031245 0.0047115423 4.2129005e-21)
(0.085344819 0.004291641 2.4222459e-21)
(0.085662529 0.0039446548 -4.5495778e-21)
(0.086003368 0.0037268051 -4.5206063e-21)
(0.086541255 0.0036895344 1.0536172e-21)
(0.087205516 0.0038531284 -2.7442639e-22)
(0.087950076 0.0040920244 7.2319646e-22)
(0.088735195 0.0042333653 1.9980466e-22)
(0.089549839 0.0042452072 9.1206921e-23)
(0.09039056 0.0042103027 -6.644624e-24)
(0.091179062 0.0040957632 4.708716e-23)
(0.091807743 0.0038763387 2.7452583e-24)
(0.092251555 0.0035458988 2.9217731e-21)
(0.092524151 0.0031070873 2.2543227e-23)
(0.092656582 0.0025420325 -1.1469827e-21)
(0.09271416 0.0018647743 0)
(0.092777801 0.0010543432 -2.7083624e-23)
(0.092837028 0.00012906353 3.6000946e-24)
(0.092937254 -0.00089956047 -4.2167468e-22)
(0.092976281 -0.0020085928 -1.583029e-21)
(0.09307879 -0.0032101977 -1.647242e-21)
(0.093042432 -0.0044837569 2.4035422e-22)
(0.093157254 -0.005840688 3.6254202e-22)
(0.09304453 -0.0072562643 9.9683362e-22)
(0.093149983 -0.0087141502 -3.123853e-23)
(0.093096377 -0.010246229 7.6720074e-22)
(0.093201315 -0.011829812 7.2171466e-22)
(0.093226962 -0.013355407 5.2370445e-22)
(0.093362888 -0.015050937 -8.5164633e-23)
(0.093587915 -0.016636638 8.7186101e-22)
(0.093654514 -0.018332108 1.9556335e-22)
(0.094255261 -0.02005145 -8.44515e-23)
(0.094336508 -0.021796224 1.2850872e-21)
(0.09515267 -0.023382968 -1.2057687e-22)
(0.095359188 -0.025347216 -1.820025e-23)
(0.096317117 -0.026769478 -1.0561343e-21)
(0.096594541 -0.028650235 7.8854028e-24)
(0.0980022 -0.030356127 5.1459445e-22)
(0.098517742 -0.032586646 -5.4201841e-22)
(0.099856641 -0.033565618 -1.033439e-21)
(0.10020331 -0.035940849 -9.7259629e-22)
(0.081196826 -0.00047247405 0)
(0.07943053 -0.0022643491 -5.7746468e-23)
(0.081271001 -0.0030329789 2.3370553e-21)
(0.07906011 -0.0026383955 3.2607646e-23)
(0.077713098 -0.0016666817 -3.2921689e-23)
(0.077025516 -0.00041920567 3.5425459e-21)
(0.076747317 0.00095828694 0)
(0.077385725 0.0021064252 2.8974976e-21)
(0.078554001 0.0028302408 -2.4091705e-21)
(0.079947918 0.0033774005 -1.3155388e-23)
(0.081439783 0.0038753935 -8.7613185e-23)
(0.082815198 0.0043605617 -2.7575604e-22)
(0.083923694 0.0046841412 1.6542377e-22)
(0.084693092 0.0047401856 -2.8016101e-21)
(0.085178708 0.0044938072 2.7214547e-23)
(0.085483001 0.0041066218 -6.3824821e-21)
(0.085770381 0.0037713262 -1.2295318e-21)
(0.086061573 0.0035475282 1.0587741e-21)
(0.086517701 0.0035410192 -3.4524815e-22)
(0.087131872 0.003621128 -1.814168e-22)
(0.08785598 0.0037783493 2.1117851e-23)
(0.088667824 0.0039617127 1.4492537e-22)
(0.089521964 0.0040250558 2.0090603e-21)
(0.090369598 0.0039410112 1.1937084e-23)
(0.091176471 0.0037959581 -2.7395931e-23)
(0.091861285 0.0036227722 3.8342903e-23)
(0.092378418 0.0033537859 -3.6355058e-21)
(0.092724625 0.0029516139 1.2209576e-21)
(0.09291282 0.002420841 -1.429368e-21)
(0.093012214 0.0017644542 -1.3202368e-21)
(0.09310709 0.00099778323 -1.1403888e-21)
(0.093208606 0.00013676154 -2.8838496e-24)
(0.093330296 -0.00081814563 5.4155532e-24)
(0.093447567 -0.0018621463 -2.178123e-21)
(0.093558046 -0.0029936465 1.3792807e-21)
(0.093634085 -0.0041997996 1.6934443e-21)
(0.093699084 -0.0054580726 8.6175918e-22)
(0.093744538 -0.006776648 5.3893405e-22)
(0.093789643 -0.0081630095 -5.8767593e-22)
(0.093887229 -0.0095670507 5.5402345e-22)
(0.093863286 -0.010991086 -5.5090834e-23)
(0.094128412 -0.012491688 0)
(0.094092741 -0.014012604 -5.5412518e-22)
(0.094517848 -0.015462664 2.2576517e-23)
(0.094580929 -0.017198481 5.2916125e-22)
(0.09516056 -0.018537313 1.5691769e-22)
(0.095248588 -0.020250049 7.5498294e-23)
(0.096154167 -0.021779159 3.2379375e-22)
(0.096361785 -0.023536767 3.8393235e-22)
(0.097440424 -0.024961844 0)
(0.097914347 -0.026958918 4.0567723e-22)
(0.099116214 -0.028310667 1.8124937e-21)
(0.099369054 -0.029879113 -9.725841e-23)
(0.10076213 -0.031171558 1.0487746e-23)
(0.101609 -0.033669904 -1.8270762e-22)
(0.081281881 -0.00042695282 0)
(0.079543545 -0.0021924375 -1.3008151e-21)
(0.081350364 -0.0029873569 6.0822899e-24)
(0.079208237 -0.0025913826 -3.1358541e-23)
(0.077973408 -0.001645639 -3.4788638e-23)
(0.077344373 -0.0004405586 1.656287e-23)
(0.077080477 0.00090038016 -1.7278789e-23)
(0.077727339 0.0020259461 2.8902621e-22)
(0.078855297 0.0026757332 3.083298e-22)
(0.080168026 0.003190619 -1.4681628e-22)
(0.08155632 0.003643569 -2.3195799e-23)
(0.082870445 0.0041352086 -1.3168525e-21)
(0.08397223 0.0044274962 -5.5983838e-22)
(0.084772249 0.0044988095 -4.3762545e-21)
(0.085298221 0.0043006538 -1.0012993e-23)
(0.085611195 0.0039309032 -2.5675609e-21)
(0.085866105 0.0035465573 3.7359186e-21)
(0.086097853 0.0033592633 3.4735639e-21)
(0.086490298 0.0033571173 1.493843e-22)
(0.087081841 0.0034538552 1.2950633e-21)
(0.087783714 0.0035674437 -4.5759595e-24)
(0.0885781 0.0036684104 1.257058e-21)
(0.089462693 0.0037520096 6.540234e-23)
(0.090355026 0.0037214336 -1.8170766e-21)
(0.091183802 0.0035668451 8.978313e-24)
(0.091894004 0.0033506297 1.9836929e-21)
(0.092461318 0.0030868974 -1.2890622e-23)
(0.092875377 0.002737184 9.6312111e-22)
(0.093137262 0.002282891 6.7224218e-24)
(0.093296214 0.0016751384 -1.261293e-21)
(0.093422755 0.00093776764 1.1722784e-21)
(0.093568277 0.00010268327 -9.2186719e-22)
(0.09372164 -0.0008239929 -4.2657402e-24)
(0.093894367 -0.0018118956 5.7975252e-24)
(0.094017058 -0.0028691087 1.1999329e-21)
(0.094179829 -0.0039746903 1.5840852e-21)
(0.094239197 -0.0051485075 -4.7180016e-22)
(0.094404064 -0.0063600172 -7.1381167e-23)
(0.094393902 -0.0076355387 -7.2343784e-22)
(0.09461116 -0.0088926881 -1.8280915e-24)
(0.094581771 -0.010299189 2.1325065e-22)
(0.09491423 -0.011588717 -1.057869e-22)
(0.094865043 -0.013032405 -1.6965219e-22)
(0.095381365 -0.014423759 -1.3095432e-22)
(0.095337995 -0.015854311 -1.8548592e-22)
(0.096035386 -0.017213967 3.5935299e-22)
(0.096231366 -0.018931496 1.1499067e-22)
(0.097058542 -0.020211951 5.8944267e-22)
(0.097321664 -0.021829093 -1.378675e-22)
(0.098364544 -0.023228961 3.0758575e-22)
(0.098751871 -0.024863577 1.1462281e-21)
(0.099860619 -0.026029934 -9.3038639e-23)
(0.10057582 -0.027981144 1.3227182e-21)
(0.10202995 -0.029358842 2.0630903e-21)
(0.10247398 -0.031321993 6.0644561e-22)
(0.081601247 -0.00028053104 -1.7367616e-22)
(0.080123105 -0.002148936 -1.4519624e-21)
(0.08190221 -0.0029755862 -2.2643762e-21)
(0.079786885 -0.0025525639 -1.6381112e-21)
(0.078582255 -0.0016250919 -2.1923238e-21)
(0.077936137 -0.00047481514 -2.566262e-21)
(0.077608274 0.00082341727 3.1620935e-21)
(0.078171116 0.0019032505 -3.3219617e-21)
(0.079167689 0.0025203004 2.4045022e-22)
(0.080351484 0.0029466692 1.1584937e-21)
(0.081624707 0.0033805112 -8.8714753e-22)
(0.082878399 0.0038351757 -1.7873104e-21)
(0.083983323 0.0041853379 -6.1804616e-22)
(0.084823755 0.0042717645 -3.5289251e-22)
(0.085397451 0.004100417 -3.4931486e-22)
(0.085735898 0.0037459705 4.6478164e-22)
(0.085963248 0.0033857097 0)
(0.086139624 0.0031642903 -1.8659286e-21)
(0.086461922 0.0030963539 1.1792492e-21)
(0.087009702 0.0032065994 -1.4850972e-22)
(0.087713276 0.0033825765 1.5849025e-24)
(0.088512775 0.0034699606 1.9612672e-22)
(0.089389116 0.0034700867 7.8414479e-23)
(0.09030227 0.0034557611 1.635684e-21)
(0.091174768 0.0033576133 4.2371903e-23)
(0.091927083 0.003168777 -1.9658578e-21)
(0.092530532 0.0029089139 2.3416839e-21)
(0.092990247 0.002568585 2.3425708e-24)
(0.093313222 0.0021183123 1.0177165e-21)
(0.093529417 0.0015574718 2.0186221e-21)
(0.093704891 0.0008742825 1.3689579e-24)
(0.093890796 7.8517692e-05 -3.3036811e-23)
(0.094067005 -0.00078353357 -7.5137762e-22)
(0.094276515 -0.0017029996 -5.812628e-24)
(0.094428029 -0.0026869951 -6.021335e-22)
(0.094641729 -0.0037059001 -7.0539198e-24)
(0.094710497 -0.0048142962 -3.391584e-22)
(0.094949347 -0.0059051659 -2.0933674e-22)
(0.094942436 -0.0070895866 4.5335158e-23)
(0.095245659 -0.0082798622 1.976792e-22)
(0.095193998 -0.0095451557 -1.8209719e-22)
(0.095591008 -0.010713874 1.7317504e-24)
(0.095595902 -0.01210978 7.6621278e-22)
(0.096065978 -0.013256489 -6.3521675e-22)
(0.096171537 -0.014726599 -1.2030535e-22)
(0.096854389 -0.016011759 2.1859415e-22)
(0.096984286 -0.01741286 -2.774974e-22)
(0.09778756 -0.018588361 2.3878288e-22)
(0.098169836 -0.0202732 -2.2397418e-22)
(0.099200573 -0.021487603 -5.4213579e-23)
(0.099652898 -0.023016536 2.0097993e-22)
(0.1008809 -0.024357248 -6.314827e-22)
(0.10142285 -0.026057107 9.4383795e-22)
(0.10268441 -0.026922649 -1.3400063e-21)
(0.10326657 -0.028656064 6.316471e-22)
(0.082693396 -0.00022707683 -1.7651903e-22)
(0.081562671 -0.0019954746 1.4332397e-21)
(0.083228072 -0.0028683743 1.9890051e-21)
(0.080906244 -0.0024412155 2.9808511e-21)
(0.079416939 -0.0015764989 -3.5398359e-23)
(0.078591346 -0.00048772955 -2.4334194e-22)
(0.07812784 0.00074922785 2.3517895e-23)
(0.078537152 0.0017843391 5.1856242e-22)
(0.079372549 0.0023678986 -2.4691323e-21)
(0.080426036 0.0027275213 8.1877469e-22)
(0.081610239 0.0031380534 -2.7059167e-21)
(0.082829154 0.0035576556 9.2165393e-23)
(0.083959177 0.0039147405 1.5099025e-22)
(0.084862516 0.0040339191 2.5790626e-21)
(0.085491807 0.0038575102 3.3765711e-21)
(0.085849257 0.0035255556 0)
(0.086050607 0.003240291 0)
(0.08620221 0.0029852248 0)
(0.086456826 0.0029278985 -1.538096e-21)
(0.086938244 0.0029837504 -1.7721741e-21)
(0.087616139 0.0031101184 -2.4170488e-22)
(0.088439295 0.0032494061 -5.650163e-22)
(0.089332874 0.0032717087 1.7289902e-21)
(0.090240908 0.003196132 4.6533066e-24)
(0.091130336 0.0030836179 8.4946422e-22)
(0.091924593 0.0029427638 -9.7193413e-22)
(0.092579551 0.0027337978 -3.0209181e-21)
(0.093099363 0.0024203487 4.3076663e-25)
(0.09348063 0.0019765171 2.3444528e-21)
(0.093744327 0.0014334534 2.360644e-21)
(0.09395986 0.00078286141 -1.1365701e-21)
(0.094176946 3.6433263e-05 2.0911151e-21)
(0.094389003 -0.00076959892 -1.8181417e-21)
(0.094628368 -0.0016306158 1.5331104e-21)
(0.094813669 -0.0025476146 -1.1721702e-21)
(0.095061779 -0.0034978938 -4.8982742e-22)
(0.095172307 -0.0044930286 3.9515812e-22)
(0.095427446 -0.0055068512 -7.2415244e-22)
(0.095475655 -0.0066137191 9.8681383e-22)
(0.095788089 -0.0076533673 -1.1606564e-21)
(0.095786754 -0.0088182277 -3.232114e-22)
(0.096197042 -0.0099420656 4.6521156e-22)
(0.096215166 -0.011138888 -1.6711182e-24)
(0.096753224 -0.012257949 7.9973822e-25)
(0.096859614 -0.013609068 2.3515466e-22)
(0.097492939 -0.014642255 -1.156942e-23)
(0.097724836 -0.016056867 -2.2628694e-22)
(0.098639167 -0.017301618 -5.4631227e-24)
(0.098982521 -0.01871382 -3.5555939e-22)
(0.099870297 -0.01969545 -4.2973551e-22)
(0.10043624 -0.021370135 -3.5565707e-23)
(0.10156348 -0.022336116 2.4776336e-21)
(0.10209954 -0.023793298 5.6546557e-23)
(0.10330121 -0.024866379 1.1719673e-21)
(0.10421416 -0.02688411 1.7344255e-21)
(0.084334553 3.9941423e-06 1.1349355e-21)
(0.082772977 -0.0019005037 1.7740201e-21)
(0.084207761 -0.0028722758 -2.3679214e-21)
(0.081636241 -0.0024508404 1.1779685e-21)
(0.079908861 -0.0016149681 8.9769137e-22)
(0.078959667 -0.00056545568 1.4446241e-21)
(0.078414208 0.0006121931 -5.1705233e-24)
(0.078722813 0.0016215202 -2.0706513e-21)
(0.079461935 0.0021422864 2.9745128e-21)
(0.080432222 0.0025121835 8.4152193e-23)
(0.08156046 0.0028808148 1.1733751e-21)
(0.08276555 0.0033158654 -4.5957844e-22)
(0.083924159 0.0036209754 -3.943824e-22)
(0.084889688 0.0037496478 2.1187523e-22)
(0.085576063 0.0036129332 6.0365201e-21)
(0.085951523 0.0033236735 3.3417665e-21)
(0.08613107 0.0030284861 1.7456026e-21)
(0.086251773 0.0028110341 1.5514874e-21)
(0.086454667 0.002799863 1.1299555e-21)
(0.086892239 0.0028534363 -2.0470355e-21)
(0.087534465 0.0029086221 0)
(0.088339395 0.0029906943 -1.5166019e-22)
(0.089260594 0.0030545466 4.8323188e-22)
(0.090196769 0.0030094933 -1.3505666e-21)
(0.091088068 0.0028821928 1.2491329e-24)
(0.091898463 0.0027163257 -1.1003798e-22)
(0.092591066 0.0025191509 3.5945691e-23)
(0.093162457 0.0022448725 7.7970562e-22)
(0.093608311 0.0018671809 -9.5345392e-22)
(0.093931342 0.0013665399 -2.3114193e-21)
(0.094187593 0.0007572939 1.1083264e-24)
(0.094432254 5.8373062e-05 2.1099843e-21)
(0.094670359 -0.0007184826 5.7691387e-23)
(0.094931757 -0.0015290052 2.183658e-21)
(0.095157516 -0.0023839866 -1.4511836e-21)
(0.095414708 -0.0032596746 -1.4877065e-21)
(0.095571337 -0.0041824943 -7.3034909e-22)
(0.095860741 -0.005095388 6.8168356e-23)
(0.095920022 -0.0061064248 7.7396456e-22)
(0.096263003 -0.0070370698 -6.4212072e-23)
(0.096315147 -0.0081525654 5.4051603e-23)
(0.096717644 -0.0090859027 -4.2604656e-24)
(0.096791878 -0.010233922 -1.182842e-22)
(0.097311734 -0.011273953 -1.5414338e-23)
(0.097460089 -0.01244902 -2.0453017e-22)
(0.098133136 -0.013494799 6.6006046e-23)
(0.098434896 -0.014828515 -1.293913e-22)
(0.099176406 -0.015760368 -5.191109e-22)
(0.099528735 -0.017053661 -1.1607301e-23)
(0.1006527 -0.018228642 -1.1377532e-22)
(0.1011156 -0.019608581 -1.1019529e-21)
(0.10213446 -0.020440397 -5.7467374e-22)
(0.10295108 -0.022263714 6.0868597e-22)
(0.1041807 -0.022883642 -8.6630526e-22)
(0.10464886 -0.024625196 2.1021322e-21)
(0.084204256 1.5919742e-06 -3.6324536e-22)
(0.082933087 -0.0017668267 -3.9956604e-21)
(0.084359443 -0.0027861144 -2.5914318e-21)
(0.081733389 -0.0023409654 -6.3728115e-22)
(0.079951313 -0.001563897 -3.1522056e-23)
(0.078960615 -0.00059203506 -1.113861e-22)
(0.078395182 0.00051458636 4.4243926e-22)
(0.078697337 0.0014760123 -2.3651464e-21)
(0.079430545 0.0019506448 4.0559883e-21)
(0.080395901 0.0022974825 1.3385845e-21)
(0.081501119 0.002633712 2.4888002e-21)
(0.082701872 0.0030566601 -1.1744276e-21)
(0.083892013 0.0033638663 1.6427454e-22)
(0.084905249 0.0034954903 -2.7202662e-22)
(0.085640631 0.0033983427 -7.3884974e-21)
(0.086052663 0.0031387454 4.6875949e-22)
(0.086214405 0.0028206617 4.7808434e-24)
(0.08628886 0.0026161191 1.6224214e-21)
(0.08644798 0.0025744193 1.4532248e-21)
(0.086837331 0.0026466713 1.3869266e-22)
(0.087466674 0.0027578746 -1.2913102e-21)
(0.088261189 0.0027985096 -1.8387501e-22)
(0.089165071 0.0027974045 -7.5515443e-22)
(0.090117717 0.0027839366 -2.0201994e-23)
(0.091041207 0.0026977809 -8.7268721e-22)
(0.091876465 0.0025502394 0)
(0.092594448 0.0023428017 2.4369776e-21)
(0.093200517 0.0020725867 -8.1013736e-22)
(0.093697034 0.0017254321 -4.7911278e-23)
(0.094080106 0.0012748334 -3.9207833e-24)
(0.094386686 0.000702485 1.497629e-23)
(0.094667695 3.4286366e-05 -1.8579725e-21)
(0.094933993 -0.00068986041 1.7328091e-21)
(0.095209054 -0.0014588272 -3.75683e-21)
(0.095462143 -0.0022505585 9.034525e-22)
(0.095742569 -0.0030471893 -2.2668774e-24)
(0.095928817 -0.0038986321 1.1182095e-22)
(0.096216767 -0.0047148708 2.6960038e-22)
(0.096342176 -0.0056211513 3.0680176e-22)
(0.096687187 -0.0065007635 -2.8601155e-23)
(0.096755324 -0.0074590698 6.1526193e-22)
(0.097174262 -0.0083161864 -1.880806e-22)
(0.09731626 -0.0094059926 0)
(0.097822914 -0.010271281 -4.7299863e-22)
(0.098006319 -0.011408211 -4.2072701e-23)
(0.098672058 -0.012318931 -6.6939374e-22)
(0.098928215 -0.013491323 -2.2219061e-22)
(0.099782421 -0.014394816 -5.9876641e-23)
(0.10027432 -0.015801393 -9.4719821e-23)
(0.10115504 -0.016684295 -1.5786632e-21)
(0.10164322 -0.017817034 2.1410639e-22)
(0.1029247 -0.018987336 -2.4891725e-22)
(0.10332367 -0.020113236 0)
(0.10447416 -0.020894061 8.8026346e-22)
(0.10548728 -0.022524198 1.5439416e-21)
(0.083979192 0.00031778234 -2.4311211e-21)
(0.082780979 -0.0016140625 -7.1322728e-23)
(0.084264322 -0.0027863476 5.0951428e-21)
(0.081628015 -0.00233808 7.336921e-22)
(0.079867239 -0.0016141036 -2.4710299e-24)
(0.078853552 -0.00068380259 -3.1009276e-22)
(0.078269727 0.0003713034 -1.2222684e-21)
(0.078581553 0.0012812857 2.1323025e-21)
(0.0793431 0.0017596096 -2.0215468e-22)
(0.080330733 0.0020564878 2.7314768e-21)
(0.081429756 0.002402008 -1.1852249e-21)
(0.082626244 0.0027751235 4.2662131e-24)
(0.083841828 0.0031162604 4.0193884e-22)
(0.084906857 0.0032613739 -5.5851797e-22)
(0.085695834 0.0031614933 -6.4297457e-21)
(0.086143296 0.0029014377 -1.6049617e-21)
(0.086299733 0.0026549889 -2.5078013e-21)
(0.086341748 0.0024472264 -2.0985982e-21)
(0.086454101 0.0023783877 2.5346159e-22)
(0.086770847 0.002417786 2.0697413e-21)
(0.087374122 0.0025286543 -2.0639098e-23)
(0.088184277 0.0026328606 4.9762272e-22)
(0.089091869 0.0026215145 -3.1037332e-24)
(0.090030595 0.0025588881 9.5371274e-22)
(0.090959784 0.0024765812 0)
(0.091828065 0.0023514429 4.659526e-23)
(0.092581954 0.0021889029 -2.2900282e-24)
(0.093220084 0.0019585628 3.1160144e-23)
(0.093757295 0.0016189121 8.3990762e-22)
(0.094197562 0.0011753053 -1.9456859e-23)
(0.094556106 0.00063492712 -2.7807977e-23)
(0.094866605 2.6439566e-05 -9.4719999e-22)
(0.09515858 -0.00064407892 -6.8001653e-23)
(0.095451577 -0.0013605025 -2.4269626e-21)
(0.095723658 -0.0020828845 1.5082627e-21)
(0.096013774 -0.0028286197 6.7704906e-23)
(0.096241463 -0.0035747966 1.0076473e-21)
(0.096534334 -0.0043397256 9.0762966e-22)
(0.096695049 -0.0051674083 -5.6004434e-22)
(0.097043176 -0.0059220971 -3.2492464e-23)
(0.097149688 -0.0068017022 6.6619798e-23)
(0.097596313 -0.0076174671 8.2616447e-24)
(0.097729448 -0.0085186047 -7.1201813e-24)
(0.098239856 -0.0093281119 1.8012856e-22)
(0.098477842 -0.0103652 1.9818703e-22)
(0.099131385 -0.011200604 -1.2182114e-22)
(0.099467906 -0.012263961 -1.8476225e-22)
(0.10026649 -0.013223365 0)
(0.10070898 -0.014252843 3.0090029e-22)
(0.10160083 -0.015081781 -4.6260397e-25)
(0.10224149 -0.016346284 -1.1727014e-21)
(0.10324185 -0.017276667 3.9345366e-22)
(0.10395013 -0.018172967 4.4813714e-23)
(0.10514806 -0.019518233 -9.0791072e-22)
(0.10580847 -0.020489863 -3.9408316e-22)
(0.083084002 0.00029943051 1.8875266e-22)
(0.081727045 -0.0013896734 -2.0654472e-21)
(0.083173108 -0.0026071627 4.3461986e-23)
(0.080714796 -0.0021597965 -6.2355331e-23)
(0.079241929 -0.0015135202 -2.0061723e-22)
(0.078321212 -0.00068163031 2.2620642e-22)
(0.077777833 0.00028002889 -1.9662113e-22)
(0.078182203 0.0011339847 1.6974238e-21)
(0.079069794 0.0015997464 -2.7365102e-21)
(0.080175219 0.0018710498 -8.5415335e-22)
(0.081327862 0.0021821197 1.3968578e-21)
(0.08254476 0.0025280497 8.4648949e-22)
(0.083788817 0.0028359081 -4.9009198e-22)
(0.084907525 0.0029809719 2.4423557e-22)
(0.085750194 0.0028908976 -3.5196653e-23)
(0.086220213 0.0026542719 -4.4646132e-22)
(0.086370131 0.0024541644 0)
(0.086392474 0.002266765 -1.940193e-21)
(0.086463549 0.0022353621 -4.5130123e-21)
(0.086728535 0.0022713443 -2.3686587e-21)
(0.087287206 0.002320743 1.3514262e-21)
(0.088081897 0.0023911505 -1.3841666e-22)
(0.089005416 0.0024370336 1.0996293e-24)
(0.089958255 0.0023895015 1.1295532e-23)
(0.090886795 0.0022799351 -3.833471e-23)
(0.091758686 0.0021448205 0)
(0.092533941 0.0019992207 -1.4662937e-22)
(0.093214271 0.0017978953 4.0491776e-23)
(0.093806358 0.0014939862 -2.4875808e-21)
(0.094292667 0.0010921538 -1.726818e-21)
(0.09468748 0.00060115597 1.9990289e-21)
(0.095031673 3.0093455e-05 3.229463e-25)
(0.095352383 -0.00060280429 8.7048453e-22)
(0.095656451 -0.0012623393 3.4938453e-24)
(0.095954442 -0.0019436778 -9.8872218e-23)
(0.096252594 -0.0026181256 6.165888e-22)
(0.09650698 -0.0033015456 -2.4909991e-22)
(0.096815368 -0.0039786951 -3.2396528e-24)
(0.096999476 -0.0047207127 -4.264053e-22)
(0.097343596 -0.0053846467 0)
(0.097506306 -0.0062057337 -4.9716107e-22)
(0.09791606 -0.0068438223 6.4505508e-22)
(0.09810874 -0.0077037991 -1.2279702e-22)
(0.098628049 -0.0084597737 3.8349786e-22)
(0.098893701 -0.0093863136 -5.0686674e-23)
(0.099511842 -0.010098884 5.0600515e-22)
(0.099909803 -0.011172677 -1.9594875e-22)
(0.10066879 -0.011831932 6.9109737e-22)
(0.10113697 -0.012953898 -2.2343633e-22)
(0.10207551 -0.013737985 6.3663588e-22)
(0.10272969 -0.014944083 -1.3525377e-22)