/*--------------------------------*- C++ -*----------------------------------*\
| =========                 |                                                 |
| \\      /  F ield         | OpenFOAM: The Open Source CFD Toolbox           |
|  \\    /   O peration     | Version:  2406                                  |
|   \\  /    A nd           | Website:  www.openfoam.com                      |
|    \\/     M anipulation  |                                                 |
\*---------------------------------------------------------------------------*/
FoamFile
{
    version     2.0;
    format      ascii;
    arch        "LSB;label=32;scalar=64";
    class       volScalarField;
    location    "10";
    object      alphat;
}
// * * * * * * * * * * * * * * * * * * * * * * * * * * * * * * * * * * * * * //

dimensions      [1 -1 -1 0 0 0 0];

internalField   nonuniform List<scalar> 
20229
(
8.3735608e-07
8.3419298e-07
8.3654148e-07
8.3946164e-07
8.4141841e-07
8.4162477e-07
8.4012866e-07
8.3953443e-07
8.4174935e-07
8.4358428e-07
8.4205037e-07
8.3761832e-07
8.3558784e-07
8.3748419e-07
8.4128425e-07
8.4447477e-07
8.4422575e-07
8.4094529e-07
8.3611811e-07
8.3174222e-07
8.2938104e-07
8.2991254e-07
8.3236366e-07
8.3576975e-07
8.393604e-07
8.4260905e-07
8.4509534e-07
8.47044e-07
8.4785784e-07
8.4833401e-07
8.4809774e-07
8.4765755e-07
8.4679914e-07
8.4566836e-07
8.448648e-07
8.6598063e-07
8.7014889e-07
8.5248105e-07
8.3634274e-07
8.2340183e-07
8.2213801e-07
8.2674821e-07
8.3450275e-07
8.4404274e-07
8.4487695e-07
8.3134816e-07
8.1749202e-07
8.1383909e-07
8.2310856e-07
8.3826619e-07
8.4600061e-07
8.4134394e-07
8.2954178e-07
8.1704907e-07
8.0992369e-07
8.0889345e-07
8.1327956e-07
8.2136721e-07
8.3091253e-07
8.3984101e-07
8.4711886e-07
8.5151359e-07
8.5469593e-07
8.5504035e-07
8.5436393e-07
8.5321643e-07
8.5132718e-07
8.496486e-07
8.4827098e-07
8.4742903e-07
8.3489993e-07
8.427557e-07
8.3558323e-07
8.2349239e-07
8.1251969e-07
8.1352462e-07
8.2215398e-07
8.352893e-07
8.4874842e-07
8.4679189e-07
8.2756801e-07
8.1065298e-07
8.0916497e-07
8.2275337e-07
8.3945194e-07
8.4237964e-07
8.3264011e-07
8.1872472e-07
8.076695e-07
8.0272493e-07
8.053095e-07
8.1278691e-07
8.2196488e-07
8.3037107e-07
8.3751152e-07
8.4268308e-07
8.4447613e-07
8.4615185e-07
8.4595073e-07
8.4581611e-07
8.4536058e-07
8.4438167e-07
8.4403608e-07
8.442996e-07
8.4507003e-07
8.2187078e-07
8.2720336e-07
8.2629876e-07
8.1698745e-07
8.0927073e-07
8.1074559e-07
8.2105081e-07
8.3847018e-07
8.5159998e-07
8.4538127e-07
8.2436848e-07
8.1025897e-07
8.1217624e-07
8.2368728e-07
8.3379586e-07
8.3227739e-07
8.2375837e-07
8.1612247e-07
8.1276958e-07
8.1414025e-07
8.1821077e-07
8.2270784e-07
8.2611619e-07
8.2739446e-07
8.278006e-07
8.2824422e-07
8.2887008e-07
8.3051226e-07
8.315355e-07
8.3275294e-07
8.3421077e-07
8.3520144e-07
8.3560992e-07
8.3692526e-07
8.3797602e-07
8.1492001e-07
8.1719822e-07
8.204923e-07
8.1335843e-07
8.0660835e-07
8.0709677e-07
8.16545e-07
8.3393755e-07
8.4435429e-07
8.3653811e-07
8.2046178e-07
8.135557e-07
8.1635867e-07
8.2190198e-07
8.2165755e-07
8.1846792e-07
8.1796369e-07
8.2165908e-07
8.2663825e-07
8.3098915e-07
8.3243451e-07
8.2914921e-07
8.2341829e-07
8.1750924e-07
8.1391081e-07
8.1284001e-07
8.1338646e-07
8.160846e-07
8.1902313e-07
8.2203693e-07
8.2478787e-07
8.2616546e-07
8.269797e-07
8.276157e-07
8.2797506e-07
8.0990376e-07
8.0954009e-07
8.1489894e-07
8.1083677e-07
8.0284825e-07
8.0087971e-07
8.07831e-07
8.2198571e-07
8.3057748e-07
8.2688655e-07
8.209028e-07
8.2097639e-07
8.2171503e-07
8.1607866e-07
8.0924319e-07
8.0768592e-07
8.1564714e-07
8.2822397e-07
8.3740499e-07
8.3815061e-07
8.3207006e-07
8.2224757e-07
8.1307516e-07
8.0648496e-07
8.0327688e-07
8.031135e-07
8.0524595e-07
8.0880406e-07
8.1254048e-07
8.161391e-07
8.1858721e-07
8.2001667e-07
8.2036492e-07
8.1972231e-07
8.190278e-07
8.1034248e-07
8.0345489e-07
8.10068e-07
8.0922865e-07
7.9974064e-07
7.9515775e-07
7.9806414e-07
8.0762087e-07
8.1408554e-07
8.203288e-07
8.2648835e-07
8.3173543e-07
8.2687022e-07
8.1314457e-07
8.0327764e-07
8.0534532e-07
8.1808466e-07
8.3131498e-07
8.3586146e-07
8.3035466e-07
8.1970027e-07
8.0965228e-07
8.0251244e-07
7.9905371e-07
7.9885309e-07
8.0129609e-07
8.0498613e-07
8.0935802e-07
8.1278801e-07
8.1505909e-07
8.1603173e-07
8.1532879e-07
8.1359853e-07
8.1160455e-07
8.0960714e-07
8.1031349e-07
8.0010699e-07
8.0622982e-07
8.0770002e-07
7.9804886e-07
7.9161349e-07
7.9118691e-07
7.929936e-07
7.986743e-07
8.1537077e-07
8.3581999e-07
8.440317e-07
8.3340425e-07
8.1554362e-07
8.0684117e-07
8.1185569e-07
8.2215178e-07
8.2658361e-07
8.2236347e-07
8.1403706e-07
8.0542339e-07
7.9918556e-07
7.9703092e-07
7.9894007e-07
8.0277747e-07
8.0728633e-07
8.1097957e-07
8.1332014e-07
8.1402795e-07
8.1297073e-07
8.1059184e-07
8.0683813e-07
8.0266006e-07
7.9844414e-07
7.9505082e-07
8.0769688e-07
7.9572859e-07
8.0200395e-07
8.0540171e-07
7.967661e-07
7.89743e-07
7.8680152e-07
7.8144907e-07
7.8593062e-07
8.1153644e-07
8.4198446e-07
8.5251691e-07
8.3948666e-07
8.2223546e-07
8.1743854e-07
8.2035551e-07
8.1944239e-07
8.1228662e-07
8.0352586e-07
7.9669628e-07
7.9418548e-07
7.963439e-07
8.011264e-07
8.0698293e-07
8.1285492e-07
8.1726647e-07
8.1915485e-07
8.1846537e-07
8.1511962e-07
8.1038562e-07
8.0507339e-07
7.9932087e-07
7.936822e-07
7.8837036e-07
7.8428273e-07
8.0674164e-07
7.8934913e-07
7.9643458e-07
8.0149672e-07
7.9501563e-07
7.8856855e-07
7.829975e-07
7.7240257e-07
7.7668102e-07
8.048875e-07
8.3783512e-07
8.5118706e-07
8.4186271e-07
8.2882728e-07
8.2592905e-07
8.2034736e-07
8.0723435e-07
7.9412973e-07
7.875293e-07
7.8713013e-07
7.9240806e-07
8.0239864e-07
8.13274e-07
8.223421e-07
8.2800861e-07
8.2993019e-07
8.2791987e-07
8.2345888e-07
8.1765016e-07
8.116107e-07
8.0475986e-07
7.9825917e-07
7.9186901e-07
7.8710816e-07
7.8349449e-07
8.0651362e-07
7.8422205e-07
7.9055481e-07
7.9671955e-07
7.9288919e-07
7.8730858e-07
7.7929595e-07
7.6702646e-07
7.7094053e-07
7.9659053e-07
8.2447715e-07
8.3944779e-07
8.3784271e-07
8.3287412e-07
8.2694973e-07
8.1104339e-07
7.9238866e-07
7.8212245e-07
7.8084985e-07
7.88836e-07
8.0420678e-07
8.2072311e-07
8.3398661e-07
8.4178766e-07
8.4317639e-07
8.3918827e-07
8.3288328e-07
8.2621993e-07
8.1926012e-07
8.1241484e-07
8.055693e-07
7.9936136e-07
7.9301307e-07
7.8797994e-07
7.8429263e-07
8.0693758e-07
7.8181839e-07
7.8648243e-07
7.9240776e-07
7.9186991e-07
7.8665305e-07
7.7672016e-07
7.6516201e-07
7.6902639e-07
7.8854278e-07
8.0830178e-07
8.2332589e-07
8.3047348e-07
8.3207385e-07
8.2362757e-07
8.028195e-07
7.858314e-07
7.793034e-07
7.8594184e-07
8.0461654e-07
8.2686214e-07
8.4531612e-07
8.5517617e-07
8.5620701e-07
8.5097483e-07
8.4321844e-07
8.3545227e-07
8.2736193e-07
8.1958934e-07
8.1220811e-07
8.0563096e-07
7.9985461e-07
7.9443853e-07
7.9097515e-07
7.8866613e-07
8.0801504e-07
7.8173228e-07
7.8593046e-07
7.9019239e-07
7.9214443e-07
7.8769508e-07
7.7708238e-07
7.6706082e-07
7.7155543e-07
7.8442903e-07
7.9744988e-07
8.1169555e-07
8.2420895e-07
8.3083976e-07
8.2146613e-07
8.0099671e-07
7.8858009e-07
7.8885141e-07
8.0373786e-07
8.2836294e-07
8.5149832e-07
8.6478233e-07
8.6711599e-07
8.6286357e-07
8.5570142e-07
8.4762527e-07
8.4061315e-07
8.3397073e-07
8.2829261e-07
8.2374583e-07
8.1950455e-07
8.1596028e-07
8.1178347e-07
8.0837814e-07
8.0615245e-07
8.1000692e-07
7.84889e-07
7.892798e-07
7.9078159e-07
7.9296242e-07
7.9012021e-07
7.8144199e-07
7.7357638e-07
7.7780181e-07
7.8624651e-07
7.9676826e-07
8.0965498e-07
8.2318967e-07
8.3211138e-07
8.234969e-07
8.0713655e-07
7.9961586e-07
8.0554539e-07
8.2609662e-07
8.5081593e-07
8.6535785e-07
8.7032297e-07
8.6995537e-07
8.6641113e-07
8.6371577e-07
8.612764e-07
8.591145e-07
8.5481235e-07
8.5049607e-07
8.4576862e-07
8.4120239e-07
8.3719547e-07
8.3305373e-07
8.2970273e-07
8.2794121e-07
8.1451261e-07
7.8928463e-07
7.952954e-07
7.9389161e-07
7.9432748e-07
7.9336831e-07
7.8844928e-07
7.8485435e-07
7.8808622e-07
7.9454489e-07
8.038226e-07
8.1505967e-07
8.2847166e-07
8.3675314e-07
8.2794976e-07
8.1583107e-07
8.1417334e-07
8.2621753e-07
8.4665811e-07
8.6133788e-07
8.6698089e-07
8.6752086e-07
8.6956957e-07
8.7206128e-07
8.7511161e-07
8.7669352e-07
8.769146e-07
8.7502911e-07
8.7172201e-07
8.6799175e-07
8.6437365e-07
8.6099436e-07
8.5805258e-07
8.5597079e-07
8.5563543e-07
8.1379679e-07
7.9494714e-07
8.0241489e-07
7.9935775e-07
7.9667618e-07
7.9631722e-07
7.9636718e-07
7.9856642e-07
8.0194208e-07
8.0766321e-07
8.1499293e-07
8.2397601e-07
8.3573116e-07
8.4016021e-07
8.3121973e-07
8.2502851e-07
8.2930693e-07
8.446161e-07
8.5985777e-07
8.6488965e-07
8.6324039e-07
8.6264521e-07
8.6679768e-07
8.7422451e-07
8.8199305e-07
8.8701359e-07
8.8926421e-07
8.8934212e-07
8.8944311e-07
8.8772479e-07
8.8492797e-07
8.8111595e-07
8.7666797e-07
8.741423e-07
8.7387714e-07
8.1584238e-07
8.0109643e-07
8.0827344e-07
8.0546946e-07
8.0032147e-07
7.9881761e-07
8.0307079e-07
8.1116191e-07
8.1695016e-07
8.2244422e-07
8.2730804e-07
8.331881e-07
8.4012837e-07
8.3990072e-07
8.331067e-07
8.3224513e-07
8.4233106e-07
8.5858718e-07
8.6596275e-07
8.6391567e-07
8.5868901e-07
8.5888176e-07
8.6459397e-07
8.7279888e-07
8.8132692e-07
8.8714562e-07
8.9121152e-07
8.9298332e-07
8.9123094e-07
8.8761401e-07
8.8326693e-07
8.780318e-07
8.7442321e-07
8.7305396e-07
8.7284597e-07
8.1866648e-07
8.0586127e-07
8.1204328e-07
8.1066409e-07
8.0514615e-07
8.0132377e-07
8.0686523e-07
8.2012315e-07
8.2956341e-07
8.3484717e-07
8.376799e-07
8.4012699e-07
8.4091063e-07
8.3666556e-07
8.331177e-07
8.3855407e-07
8.5402239e-07
8.6701718e-07
8.6853231e-07
8.6130301e-07
8.5539496e-07
8.5534737e-07
8.5877841e-07
8.6494363e-07
8.7300551e-07
8.7933238e-07
8.8189094e-07
8.805194e-07
8.7759536e-07
8.7458207e-07
8.7364493e-07
8.7330107e-07
8.7365494e-07
8.7467312e-07
8.7603116e-07
8.2002886e-07
8.0564909e-07
8.1280991e-07
8.1374749e-07
8.1026688e-07
8.0480107e-07
8.0835788e-07
8.2358438e-07
8.3652753e-07
8.4216932e-07
8.4394334e-07
8.4388384e-07
8.3931791e-07
8.3291581e-07
8.3395492e-07
8.4586439e-07
8.6436078e-07
8.7340607e-07
8.6746112e-07
8.5616708e-07
8.5029721e-07
8.5066572e-07
8.5559585e-07
8.6245854e-07
8.6822876e-07
8.7112661e-07
8.7138478e-07
8.7058226e-07
8.7031204e-07
8.7062504e-07
8.7175689e-07
8.7255324e-07
8.7332444e-07
8.7495719e-07
8.7688031e-07
8.2041389e-07
8.0296457e-07
8.1101167e-07
8.1487517e-07
8.1491167e-07
8.0911836e-07
8.0846643e-07
8.2250141e-07
8.3654848e-07
8.4216275e-07
8.4501315e-07
8.4394877e-07
8.3633911e-07
8.3042759e-07
8.3731164e-07
8.5684817e-07
8.7509559e-07
8.7692746e-07
8.6462767e-07
8.5334819e-07
8.5090129e-07
8.5480927e-07
8.6161541e-07
8.6823366e-07
8.727159e-07
8.749209e-07
8.7434075e-07
8.7297863e-07
8.7185763e-07
8.7156376e-07
8.7164987e-07
8.7196645e-07
8.7173748e-07
8.7162261e-07
8.7033431e-07
8.212948e-07
8.0055784e-07
8.0743597e-07
8.147983e-07
8.1886083e-07
8.1378145e-07
8.0861171e-07
8.1801069e-07
8.31072e-07
8.3620612e-07
8.4012565e-07
8.3936892e-07
8.3167626e-07
8.2972416e-07
8.441455e-07
8.6940786e-07
8.8366396e-07
8.7793186e-07
8.6413512e-07
8.5868521e-07
8.6041645e-07
8.6804468e-07
8.7792592e-07
8.84888e-07
8.8731551e-07
8.861874e-07
8.8335408e-07
8.7893171e-07
8.7514294e-07
8.7174658e-07
8.6871548e-07
8.6670395e-07
8.6483874e-07
8.6313217e-07
8.6042112e-07
8.2206377e-07
8.0012205e-07
8.0280912e-07
8.1359702e-07
8.2202134e-07
8.1800085e-07
8.0938392e-07
8.1275577e-07
8.2213502e-07
8.2642166e-07
8.3149096e-07
8.3203722e-07
8.2683738e-07
8.3055025e-07
8.5325991e-07
8.7889448e-07
8.8715699e-07
8.7851956e-07
8.7047047e-07
8.7021234e-07
8.7789873e-07
8.8839842e-07
8.9907158e-07
9.0444576e-07
9.0380719e-07
8.9950669e-07
8.9254533e-07
8.8412397e-07
8.767517e-07
8.700399e-07
8.6437023e-07
8.5850152e-07
8.5195528e-07
8.4718388e-07
8.4477816e-07
8.2251313e-07
8.0171517e-07
7.9794487e-07
8.1163866e-07
8.2436723e-07
8.2246467e-07
8.1046326e-07
8.0827408e-07
8.125898e-07
8.1647114e-07
8.2181439e-07
8.2422999e-07
8.2292753e-07
8.33952e-07
8.6006802e-07
8.8202347e-07
8.8611502e-07
8.7971921e-07
8.7839275e-07
8.8449434e-07
8.9684108e-07
9.0964722e-07
9.1851952e-07
9.2186959e-07
9.1701082e-07
9.0701282e-07
8.9665313e-07
8.8528589e-07
8.7350577e-07
8.6153132e-07
8.4950537e-07
8.4127355e-07
8.3532723e-07
8.3213304e-07
8.3098356e-07
8.2293595e-07
8.0378176e-07
7.9334857e-07
8.0942154e-07
8.2674451e-07
8.2622114e-07
8.1209769e-07
8.0581102e-07
8.0505621e-07
8.0782049e-07
8.1346847e-07
8.1750239e-07
8.2071259e-07
8.3748564e-07
8.6247139e-07
8.7786524e-07
8.7860294e-07
8.7870609e-07
8.8526121e-07
8.9786216e-07
9.1284739e-07
9.2590115e-07
9.3299698e-07
9.3119276e-07
9.2305851e-07
9.1203204e-07
8.9935516e-07
8.8526372e-07
8.702516e-07
8.5618132e-07
8.4296463e-07
8.3385933e-07
8.2803694e-07
8.2563887e-07
8.2682216e-07
8.2235733e-07
8.0393862e-07
7.8897737e-07
8.0590622e-07
8.2821642e-07
8.3006075e-07
8.1387691e-07
8.0471659e-07
8.0031729e-07
8.0171139e-07
8.0801583e-07
8.1379543e-07
8.2093685e-07
8.4067135e-07
8.6027466e-07
8.664531e-07
8.6764867e-07
8.7531513e-07
8.88165e-07
9.0559207e-07
9.2205678e-07
9.3461151e-07
9.3893782e-07
9.3762309e-07
9.3174842e-07
9.198135e-07
9.0422164e-07
8.8743647e-07
8.7076105e-07
8.5607014e-07
8.4396454e-07
8.3642434e-07
8.3191336e-07
8.3045909e-07
8.3278341e-07
8.2278715e-07
8.0403572e-07
7.8647557e-07
8.0255727e-07
8.2895909e-07
8.3271114e-07
8.1694578e-07
8.0484847e-07
7.9778611e-07
7.9849209e-07
8.0582893e-07
8.1267205e-07
8.2355767e-07
8.4262189e-07
8.5484545e-07
8.531512e-07
8.5547136e-07
8.6749123e-07
8.8456353e-07
9.0528692e-07
9.2297134e-07
9.3695725e-07
9.4629909e-07
9.4640795e-07
9.3815191e-07
9.2423759e-07
9.0732138e-07
8.9008696e-07
8.7344473e-07
8.5973149e-07
8.4961246e-07
8.4405228e-07
8.4320057e-07
8.4518109e-07
8.5365083e-07
8.2895369e-07
8.0658651e-07
7.8724011e-07
7.9870772e-07
8.2848166e-07
8.3542222e-07
8.2043143e-07
8.0644522e-07
7.9686663e-07
7.9725548e-07
8.0521545e-07
8.1440097e-07
8.2787599e-07
8.4404138e-07
8.47966e-07
8.417142e-07
8.4239634e-07
8.5650881e-07
8.7679862e-07
8.9917196e-07
9.2053478e-07
9.4202396e-07
9.5195053e-07
9.496904e-07
9.4107129e-07
9.2866807e-07
9.1301368e-07
8.9638622e-07
8.8179479e-07
8.71183e-07
8.6515235e-07
8.6363347e-07
8.6556106e-07
8.6970203e-07
8.8125884e-07
8.3316504e-07
8.1447683e-07
7.882611e-07
7.9533002e-07
8.2725852e-07
8.3761802e-07
8.2501172e-07
8.0916426e-07
7.968961e-07
7.9794132e-07
8.0710293e-07
8.177875e-07
8.320958e-07
8.4534871e-07
8.4280159e-07
8.3268515e-07
8.3224982e-07
8.4505703e-07
8.6694546e-07
8.9281415e-07
9.2176967e-07
9.4356069e-07
9.5263743e-07
9.5360474e-07
9.4675878e-07
9.3111689e-07
9.1246042e-07
8.9763069e-07
8.8590605e-07
8.7782343e-07
8.7649401e-07
8.7899371e-07
8.8491429e-07
8.9145546e-07
9.0526033e-07
8.3857235e-07
8.2060579e-07
7.9254735e-07
7.9228444e-07
8.2478681e-07
8.3811123e-07
8.3001395e-07
8.12384e-07
7.9848257e-07
7.992123e-07
8.0951035e-07
8.212498e-07
8.367956e-07
8.4638698e-07
8.3983992e-07
8.2716797e-07
8.2496432e-07
8.3638199e-07
8.5838492e-07
8.900674e-07
9.2110526e-07
9.4422713e-07
9.5560611e-07
9.5437124e-07
9.4089331e-07
9.2283637e-07
9.067048e-07
8.9246227e-07
8.8398359e-07
8.8145643e-07
8.8437074e-07
8.9286266e-07
9.0179102e-07
9.1043744e-07
9.2600294e-07
8.5085553e-07
8.2670462e-07
7.9737565e-07
7.9014938e-07
8.2149859e-07
8.382636e-07
8.3556272e-07
8.1730292e-07
8.0157316e-07
8.0191806e-07
8.1232402e-07
8.2427332e-07
8.4052547e-07
8.47729e-07
8.3930424e-07
8.2508468e-07
8.2086509e-07
8.3007804e-07
8.5489888e-07
8.8891427e-07
9.2385802e-07
9.4637026e-07
9.5163217e-07
9.4218441e-07
9.2742715e-07
9.0754449e-07
8.9093345e-07
8.805824e-07
8.7740947e-07
8.8092782e-07
8.897045e-07
9.0144324e-07
9.1393705e-07
9.2615352e-07
9.4281081e-07
8.5597825e-07
8.3301596e-07
8.0421174e-07
7.893333e-07
8.167454e-07
8.3659668e-07
8.4071445e-07
8.2358687e-07
8.056114e-07
8.0459087e-07
8.1443984e-07
8.2812728e-07
8.4494223e-07
8.5115315e-07
8.4094254e-07
8.2653472e-07
8.2239118e-07
8.3109134e-07
8.5610669e-07
8.943029e-07
9.2685175e-07
9.417443e-07
9.3712961e-07
9.2460464e-07
9.0488363e-07
8.8585259e-07
8.7352983e-07
8.6797341e-07
8.7061131e-07
8.8038411e-07
8.9455562e-07
9.1173119e-07
9.2600599e-07
9.3741228e-07
9.5222894e-07
8.6008964e-07
8.3792282e-07
8.111795e-07
7.897558e-07
8.1137561e-07
8.3404096e-07
8.4482695e-07
8.3006804e-07
8.1090407e-07
8.0804781e-07
8.1722854e-07
8.3211557e-07
8.5025354e-07
8.5528725e-07
8.4451236e-07
8.3147895e-07
8.2624884e-07
8.361054e-07
8.6538451e-07
9.0273937e-07
9.2627947e-07
9.2951267e-07
9.1856921e-07
8.9885462e-07
8.7924255e-07
8.6551038e-07
8.5753549e-07
8.583478e-07
8.6795109e-07
8.8377353e-07
9.0265104e-07
9.215202e-07
9.3579603e-07
9.4586308e-07
9.5895957e-07
8.6291615e-07
8.4186314e-07
8.184296e-07
7.9118893e-07
8.0572988e-07
8.2994914e-07
8.4636023e-07
8.3514903e-07
8.152499e-07
8.1168511e-07
8.202005e-07
8.3707549e-07
8.5561597e-07
8.6057404e-07
8.5064882e-07
8.3846e-07
8.3403377e-07
8.4756189e-07
8.7720508e-07
9.0855372e-07
9.216593e-07
9.1598587e-07
8.9549156e-07
8.7348728e-07
8.5906571e-07
8.5006312e-07
8.4815061e-07
8.5530767e-07
8.7069936e-07
8.9099623e-07
9.1279801e-07
9.3246142e-07
9.4598927e-07
9.5444072e-07
9.6372732e-07
8.6409747e-07
8.4708658e-07
8.2492159e-07
7.9440023e-07
8.0166325e-07
8.2475053e-07
8.4693736e-07
8.3764429e-07
8.1869086e-07
8.1459829e-07
8.2325061e-07
8.4246176e-07
8.6168454e-07
8.6651146e-07
8.5830392e-07
8.4801865e-07
8.4697661e-07
8.6233459e-07
8.9238936e-07
9.1381286e-07
9.1682501e-07
8.9916182e-07
8.7399989e-07
8.5452132e-07
8.437876e-07
8.4089453e-07
8.4587805e-07
8.5860708e-07
8.7864932e-07
9.0349887e-07
9.2678872e-07
9.4415009e-07
9.5415294e-07
9.573334e-07
9.6499021e-07
8.6568226e-07
8.5172988e-07
8.3089675e-07
7.9873265e-07
7.9851391e-07
8.196319e-07
8.4398988e-07
8.379185e-07
8.2060288e-07
8.1678975e-07
8.2674016e-07
8.477058e-07
8.6847772e-07
8.7524882e-07
8.6928746e-07
8.5950738e-07
8.6153175e-07
8.7877265e-07
9.0325525e-07
9.1688071e-07
9.0875386e-07
8.8373835e-07
8.5987432e-07
8.451079e-07
8.3899796e-07
8.4187509e-07
8.5339872e-07
8.7095364e-07
8.9372425e-07
9.1897944e-07
9.4216769e-07
9.5804845e-07
9.6505027e-07
9.6639942e-07
9.7614888e-07
8.6557692e-07
8.5813214e-07
8.3820246e-07
8.063061e-07
7.9774666e-07
8.1292312e-07
8.3471104e-07
8.3273173e-07
8.2029481e-07
8.1659133e-07
8.2680101e-07
8.5103244e-07
8.7640081e-07
8.8617067e-07
8.8118948e-07
8.7223181e-07
8.7431805e-07
8.9022487e-07
9.093256e-07
9.1686964e-07
9.0397489e-07
8.7918089e-07
8.5489209e-07
8.411745e-07
8.3762692e-07
8.4382223e-07
8.571096e-07
8.7531863e-07
8.9708719e-07
9.1941124e-07
9.3783119e-07
9.5121425e-07
9.5904609e-07
9.594037e-07
9.6870421e-07
8.6058326e-07
8.7075929e-07
8.4466008e-07
8.1732275e-07
8.0371779e-07
8.1022506e-07
8.2506124e-07
8.2217095e-07
8.1394743e-07
8.1224228e-07
8.230323e-07
8.4925135e-07
8.7962498e-07
8.9454954e-07
8.925066e-07
8.8499911e-07
8.8565128e-07
8.9877868e-07
9.1579119e-07
9.2057352e-07
9.0610977e-07
8.810087e-07
8.5857279e-07
8.4498595e-07
8.4148264e-07
8.4793724e-07
8.5959413e-07
8.7631648e-07
8.9671005e-07
9.1682607e-07
9.3524002e-07
9.4829045e-07
9.5797146e-07
9.601429e-07
9.6611492e-07
8.5209239e-07
8.5132106e-07
8.4280061e-07
8.2675758e-07
8.1239541e-07
8.1286988e-07
8.1886344e-07
8.1168297e-07
8.0433432e-07
8.0480092e-07
8.1603293e-07
8.434106e-07
8.7597125e-07
8.9657376e-07
8.9898532e-07
8.9255525e-07
8.9226017e-07
9.044761e-07
9.1961099e-07
9.2370461e-07
9.0945332e-07
8.858916e-07
8.6504857e-07
8.5269755e-07
8.4976454e-07
8.5477911e-07
8.6498123e-07
8.797182e-07
8.9817101e-07
9.1667119e-07
9.3367372e-07
9.4736342e-07
9.5763971e-07
9.6200141e-07
9.6422607e-07
8.4376909e-07
8.265814e-07
8.3967201e-07
8.3331341e-07
8.2110673e-07
8.2130761e-07
8.1887308e-07
8.0496242e-07
7.969373e-07
7.9807441e-07
8.0841895e-07
8.3374532e-07
8.6650033e-07
8.9216144e-07
8.9764199e-07
8.9268734e-07
8.9303075e-07
9.030962e-07
9.1683802e-07
9.228294e-07
9.1325216e-07
8.9375996e-07
8.7578485e-07
8.6506095e-07
8.6276874e-07
8.6462717e-07
8.7246564e-07
8.8435315e-07
8.9889577e-07
9.1582617e-07
9.3182683e-07
9.4440002e-07
9.5291704e-07
9.5884919e-07
9.6200407e-07
8.3734029e-07
8.0942714e-07
8.3364336e-07
8.3587025e-07
8.2842771e-07
8.2872979e-07
8.2211285e-07
8.0398122e-07
7.9429522e-07
7.9471701e-07
8.0367143e-07
8.2529196e-07
8.5532349e-07
8.8070122e-07
8.8844738e-07
8.8492154e-07
8.8662541e-07
8.9653329e-07
9.1196696e-07
9.2144154e-07
9.1735707e-07
9.0233372e-07
8.8767561e-07
8.7887396e-07
8.7559993e-07
8.7507608e-07
8.8022712e-07
8.8856457e-07
9.0028414e-07
9.1407118e-07
9.2707112e-07
9.3823444e-07
9.4669698e-07
9.5337766e-07
9.6150572e-07
8.3782154e-07
7.9974111e-07
8.2226173e-07
8.3229291e-07
8.2987959e-07
8.342832e-07
8.2602868e-07
8.0676802e-07
7.9817592e-07
7.9979589e-07
8.0724862e-07
8.2240819e-07
8.4832997e-07
8.690017e-07
8.7448928e-07
8.7147084e-07
8.7445453e-07
8.8688365e-07
9.0504979e-07
9.1872784e-07
9.2009157e-07
9.0986581e-07
8.9816788e-07
8.901422e-07
8.8602333e-07
8.8340562e-07
8.8622524e-07
8.913653e-07
8.9922404e-07
9.10021e-07
9.2177087e-07
9.327407e-07
9.4158573e-07
9.5122602e-07
9.6294182e-07
8.435021e-07
7.9617834e-07
8.1041292e-07
8.2572541e-07
8.2954717e-07
8.3447722e-07
8.2802569e-07
8.1072866e-07
8.0465253e-07
8.106896e-07
8.1829346e-07
8.2899521e-07
8.4885512e-07
8.6072908e-07
8.6092255e-07
8.5563795e-07
8.5879946e-07
8.7435626e-07
8.9583203e-07
9.1378406e-07
9.1950805e-07
9.1403822e-07
9.040138e-07
8.9629318e-07
8.9065506e-07
8.8695136e-07
8.8747967e-07
8.8944606e-07
8.9463632e-07
9.0393597e-07
9.1591688e-07
9.2782543e-07
9.3861607e-07
9.5037648e-07
9.6264283e-07
8.5106911e-07
7.9968004e-07
8.0040895e-07
8.1633042e-07
8.2823187e-07
8.363307e-07
8.2995869e-07
8.1556259e-07
8.118091e-07
8.2065973e-07
8.3010838e-07
8.4009254e-07
8.5638574e-07
8.6034256e-07
8.528205e-07
8.4224407e-07
8.441065e-07
8.6079529e-07
8.8570831e-07
9.0657008e-07
9.1645171e-07
9.1284808e-07
9.0346144e-07
8.950119e-07
8.8718208e-07
8.8178868e-07
8.7942602e-07
8.8093156e-07
8.859047e-07
8.9571755e-07
9.093925e-07
9.2324721e-07
9.3658785e-07
9.5025272e-07
9.6115015e-07
8.6634345e-07
8.0818267e-07
7.9502565e-07
8.0471254e-07
8.2331472e-07
8.3690799e-07
8.330055e-07
8.2134106e-07
8.1873645e-07
8.2868462e-07
8.407219e-07
8.5315753e-07
8.6783799e-07
8.6778384e-07
8.5290333e-07
8.3702483e-07
8.3563979e-07
8.5138201e-07
8.7588254e-07
8.9902396e-07
9.0912153e-07
9.05966e-07
8.9695124e-07
8.8652164e-07
8.7676571e-07
8.6941875e-07
8.6649577e-07
8.6803387e-07
8.7439604e-07
8.864374e-07
9.0212544e-07
9.1903277e-07
9.3534915e-07
9.4793349e-07
9.5847522e-07
8.8052348e-07
8.2131318e-07
7.9606474e-07
7.9589173e-07
8.1479995e-07
8.325175e-07
8.3297651e-07
8.2591231e-07
8.2486535e-07
8.3431336e-07
8.4788155e-07
8.6411176e-07
8.8119029e-07
8.8011112e-07
8.616375e-07
8.4145018e-07
8.3608456e-07
8.4863455e-07
8.7120695e-07
8.9205527e-07
8.9987658e-07
8.9551945e-07
8.8472106e-07
8.724454e-07
8.6207292e-07
8.5482529e-07
8.5176934e-07
8.5500388e-07
8.640261e-07
8.7847809e-07
8.9623257e-07
9.1533767e-07
9.3347986e-07
9.4714185e-07
9.59389e-07
8.8687363e-07
8.330515e-07
8.0208965e-07
7.9419396e-07
8.0729196e-07
8.2485972e-07
8.2874809e-07
8.264561e-07
8.2723151e-07
8.3711196e-07
8.5079822e-07
8.7028692e-07
8.9176004e-07
8.9401947e-07
8.7601479e-07
8.5487402e-07
8.459351e-07
8.5463445e-07
8.7331956e-07
8.8923675e-07
8.9351588e-07
8.8455503e-07
8.70573e-07
8.5763614e-07
8.4767747e-07
8.4144545e-07
8.4087323e-07
8.4566425e-07
8.5654429e-07
8.7224815e-07
8.9184658e-07
9.1335801e-07
9.335322e-07
9.4878747e-07
9.6115805e-07
8.8599574e-07
8.3728148e-07
8.1168857e-07
7.9964214e-07
8.0709855e-07
8.2005203e-07
8.2284496e-07
8.194328e-07
8.2064431e-07
8.3200251e-07
8.4826145e-07
8.71407e-07
8.9700241e-07
9.0569715e-07
8.9182987e-07
8.7236777e-07
8.6242942e-07
8.6733524e-07
8.8206698e-07
8.9179878e-07
8.9015424e-07
8.7670671e-07
8.6039977e-07
8.4670253e-07
8.3770542e-07
8.3392053e-07
8.3481673e-07
8.4101639e-07
8.5261907e-07
8.6963983e-07
8.9110237e-07
9.1299617e-07
9.3415503e-07
9.4982918e-07
9.615456e-07
8.7927589e-07
8.3255789e-07
8.1881793e-07
8.1251438e-07
8.1564266e-07
8.2338314e-07
8.2065818e-07
8.1138458e-07
8.076653e-07
8.1776269e-07
8.3635704e-07
8.6357246e-07
8.9562729e-07
9.1065926e-07
9.0524262e-07
8.8943692e-07
8.8038011e-07
8.830549e-07
8.9260713e-07
8.9816021e-07
8.9119224e-07
8.7507831e-07
8.5817131e-07
8.4471299e-07
8.3764727e-07
8.3412112e-07
8.3530175e-07
8.423872e-07
8.5425709e-07
8.7072929e-07
8.9117016e-07
9.1248716e-07
9.3294774e-07
9.4850205e-07
9.6065801e-07
8.6699286e-07
8.2182131e-07
8.2067255e-07
8.2439448e-07
8.3162251e-07
8.356e-07
8.2688891e-07
8.1039436e-07
7.9730627e-07
7.9997898e-07
8.162516e-07
8.4566515e-07
8.8238321e-07
9.0586119e-07
9.0868837e-07
8.9896374e-07
8.9199066e-07
8.9402966e-07
9.0165796e-07
9.0403468e-07
8.9560361e-07
8.8006539e-07
8.645615e-07
8.524615e-07
8.4489858e-07
8.4228675e-07
8.4326402e-07
8.4903373e-07
8.5927616e-07
8.737172e-07
8.9204698e-07
9.113676e-07
9.3048156e-07
9.4668096e-07
9.593675e-07
8.5551426e-07
8.1118389e-07
8.1771173e-07
8.3184599e-07
8.4596932e-07
8.5220971e-07
8.4121197e-07
8.1792674e-07
7.9768269e-07
7.901029e-07
7.9812314e-07
8.2203299e-07
8.5896504e-07
8.8791209e-07
8.9790226e-07
8.9411996e-07
8.9106744e-07
8.9469228e-07
9.0192185e-07
9.0479845e-07
8.9990933e-07
8.8844516e-07
8.7612545e-07
8.6635327e-07
8.6003759e-07
8.5629741e-07
8.5609978e-07
8.5950316e-07
8.6702492e-07
8.7818566e-07
8.9283288e-07
9.1012728e-07
9.2777025e-07
9.4255046e-07
9.540415e-07
8.3781078e-07
7.9814234e-07
8.123144e-07
8.3306676e-07
8.5297872e-07
8.6494349e-07
8.5762106e-07
8.3479254e-07
8.0839535e-07
7.9276671e-07
7.9088154e-07
8.0487175e-07
8.3301267e-07
8.6026649e-07
8.7159226e-07
8.7253247e-07
8.7401621e-07
8.8091622e-07
8.9204633e-07
9.003417e-07
9.0066822e-07
8.960814e-07
8.8839989e-07
8.8295009e-07
8.7744629e-07
8.7262028e-07
8.7023152e-07
8.7041153e-07
8.7426575e-07
8.816305e-07
8.9328639e-07
9.0721011e-07
9.2171816e-07
9.3518749e-07
9.4647056e-07
8.3491513e-07
7.8865086e-07
8.0703016e-07
8.2789347e-07
8.4888431e-07
8.6765872e-07
8.7042045e-07
8.5326857e-07
8.2771958e-07
8.0700277e-07
7.9669936e-07
7.9922276e-07
8.159595e-07
8.3333997e-07
8.407284e-07
8.419806e-07
8.4600869e-07
8.5764954e-07
8.738013e-07
8.8840167e-07
8.9598576e-07
8.9798176e-07
8.9756937e-07
8.9515349e-07
8.8991125e-07
8.8439465e-07
8.7941364e-07
8.7724138e-07
8.7816131e-07
8.8268708e-07
8.9062495e-07
9.014736e-07
9.1436157e-07
9.2684841e-07
9.3699776e-07
8.392999e-07
7.9204068e-07
8.0637968e-07
8.1804769e-07
8.3487239e-07
8.5916098e-07
8.7425765e-07
8.6834689e-07
8.4786283e-07
8.2685148e-07
8.1172105e-07
8.0623261e-07
8.1154255e-07
8.1822638e-07
8.1732908e-07
8.1597647e-07
8.1957277e-07
8.3256211e-07
8.514373e-07
8.7167783e-07
8.855594e-07
8.9406386e-07
8.9715718e-07
8.9664775e-07
8.9274048e-07
8.8665615e-07
8.810053e-07
8.7668295e-07
8.7505045e-07
8.7668982e-07
8.8221463e-07
8.9123063e-07
9.0228898e-07
9.1322213e-07
9.2295553e-07
8.588291e-07
8.0431407e-07
8.1125328e-07
8.0845332e-07
8.1534269e-07
8.4102352e-07
8.6740442e-07
8.7409784e-07
8.6282975e-07
8.4705278e-07
8.3209211e-07
8.2170251e-07
8.176502e-07
8.1529601e-07
8.0888821e-07
8.0377395e-07
8.0478863e-07
8.1605097e-07
8.3438943e-07
8.5503196e-07
8.7143727e-07
8.8216872e-07
8.8683656e-07
8.8656976e-07
8.8348388e-07
8.7747538e-07
8.7095925e-07
8.6498486e-07
8.6196016e-07
8.6240376e-07
8.6642607e-07
8.7366213e-07
8.8376988e-07
8.9462934e-07
9.0565045e-07
8.9872619e-07
8.2994367e-07
8.2218997e-07
8.0217623e-07
7.9613497e-07
8.1720212e-07
8.4953726e-07
8.6861805e-07
8.6895215e-07
8.6232e-07
8.5198025e-07
8.4016722e-07
8.3120372e-07
8.2395333e-07
8.1504771e-07
8.063536e-07
8.0530887e-07
8.115524e-07
8.2572419e-07
8.4250009e-07
8.5784266e-07
8.6613524e-07
8.6963049e-07
8.6889445e-07
8.6399894e-07
8.5774911e-07
8.507542e-07
8.4440014e-07
8.4067456e-07
8.407492e-07
8.4498729e-07
8.5231586e-07
8.6205448e-07
8.745159e-07
8.8704265e-07
9.0794903e-07
8.6133058e-07
8.3563221e-07
7.9984996e-07
7.8286156e-07
7.9593227e-07
8.2629478e-07
8.5014651e-07
8.6380443e-07
8.7026116e-07
8.6768172e-07
8.5844377e-07
8.494637e-07
8.4135419e-07
8.3173785e-07
8.2140562e-07
8.1644514e-07
8.1738757e-07
8.2538637e-07
8.3637451e-07
8.4707096e-07
8.5272711e-07
8.5366971e-07
8.4965804e-07
8.4377786e-07
8.3656601e-07
8.2916083e-07
8.2295748e-07
8.1968466e-07
8.2012613e-07
8.2398608e-07
8.314798e-07
8.427649e-07
8.5538007e-07
8.6828218e-07
9.222888e-07
8.9066312e-07
8.4757495e-07
8.0389467e-07
7.8143688e-07
7.8658361e-07
8.0782033e-07
8.2780553e-07
8.4639499e-07
8.6580712e-07
8.7507727e-07
8.7299511e-07
8.6728648e-07
8.6088749e-07
8.5316407e-07
8.4285539e-07
8.343352e-07
8.2960182e-07
8.3028603e-07
8.3636693e-07
8.4300039e-07
8.4573567e-07
8.4380511e-07
8.3852389e-07
8.3132077e-07
8.2314259e-07
8.1486137e-07
8.0839018e-07
8.0533672e-07
8.0579327e-07
8.0968509e-07
8.1699242e-07
8.2792853e-07
8.4064908e-07
8.5461895e-07
9.3272835e-07
9.0063515e-07
8.5582969e-07
8.1481851e-07
7.9242567e-07
7.9099219e-07
8.0093236e-07
8.1041887e-07
8.2425727e-07
8.476122e-07
8.6760764e-07
8.7575646e-07
8.7707541e-07
8.7631955e-07
8.7222484e-07
8.637446e-07
8.5344285e-07
8.4468106e-07
8.4042034e-07
8.4174943e-07
8.4430324e-07
8.4530151e-07
8.4268506e-07
8.3699983e-07
8.2884796e-07
8.1973503e-07
8.1069392e-07
8.0425721e-07
8.008359e-07
8.0047741e-07
8.0411468e-07
8.1123549e-07
8.2187777e-07
8.3442059e-07
8.4893466e-07
9.2704767e-07
8.9547419e-07
8.5852532e-07
8.3132216e-07
8.1440168e-07
8.0652826e-07
8.0700493e-07
8.0505171e-07
8.0771205e-07
8.2487422e-07
8.4768411e-07
8.636877e-07
8.7216824e-07
8.7914164e-07
8.8072831e-07
8.7661893e-07
8.6795782e-07
8.5836687e-07
8.519294e-07
8.50232e-07
8.5093727e-07
8.5127e-07
8.4923745e-07
8.4335421e-07
8.3466842e-07
8.246218e-07
8.1518707e-07
8.0790422e-07
8.0403849e-07
8.0422102e-07
8.0780225e-07
8.1493089e-07
8.247685e-07
8.3710119e-07
8.5012174e-07
9.047013e-07
8.7347904e-07
8.5599793e-07
8.4875593e-07
8.3920115e-07
8.2946428e-07
8.2195657e-07
8.1179421e-07
8.0417074e-07
8.0904378e-07
8.2561059e-07
8.4202395e-07
8.545663e-07
8.6694214e-07
8.7519891e-07
8.7673399e-07
8.7219283e-07
8.6626176e-07
8.6072088e-07
8.5957886e-07
8.6009454e-07
8.6110644e-07
8.5929157e-07
8.5382646e-07
8.4501502e-07
8.3452525e-07
8.254552e-07
8.1875615e-07
8.1497862e-07
8.1494286e-07
8.182021e-07