/*--------------------------------*- C++ -*----------------------------------*\
| =========                 |                                                 |
| \\      /  F ield         | OpenFOAM: The Open Source CFD Toolbox           |
|  \\    /   O peration     | Version:  2406                                  |
|   \\  /    A nd           | Website:  www.openfoam.com                      |
|    \\/     M anipulation  |                                                 |
\*---------------------------------------------------------------------------*/
FoamFile
{
    version     2.0;
    format      ascii;
    arch        "LSB;label=32;scalar=64";
    class       volScalarField;
    location    "10";
    object      alphat;
}
// * * * * * * * * * * * * * * * * * * * * * * * * * * * * * * * * * * * * * //

dimensions      [1 -1 -1 0 0 0 0];

internalField   nonuniform List<scalar> 
30397
(
5.3899744e-06
5.3900754e-06
5.3883164e-06
5.3881742e-06
5.3858549e-06
5.3785416e-06
5.3663187e-06
5.3597687e-06
5.368668e-06
5.3806701e-06
5.3833185e-06
5.3789666e-06
5.3740862e-06
5.3732823e-06
5.3713215e-06
5.3559717e-06
5.3384285e-06
5.3294671e-06
5.3312453e-06
5.3454714e-06
5.3538375e-06
5.3539263e-06
5.3494458e-06
5.3401049e-06
5.335185e-06
5.3361023e-06
5.339223e-06
5.3414423e-06
5.3432502e-06
5.3453359e-06
5.3489971e-06
5.3535606e-06
5.3571026e-06
5.3591479e-06
5.3605275e-06
5.361962e-06
5.3639717e-06
5.366742e-06
5.3699096e-06
5.3730918e-06
5.3760207e-06
5.3782501e-06
5.3794501e-06
5.3791925e-06
5.3772406e-06
5.3737046e-06
5.3689313e-06
5.2410333e-06
5.2389118e-06
5.2328022e-06
5.2297324e-06
5.2222418e-06
5.2033676e-06
5.1787434e-06
5.1669409e-06
5.1795265e-06
5.2096432e-06
5.2283185e-06
5.2262304e-06
5.213861e-06
5.2061932e-06
5.1922594e-06
5.1596748e-06
5.1407621e-06
5.1276203e-06
5.1232078e-06
5.1382569e-06
5.1527814e-06
5.1634217e-06
5.1707558e-06
5.1675785e-06
5.1656531e-06
5.161396e-06
5.152082e-06
5.1440813e-06
5.1459358e-06
5.1554263e-06
5.16972e-06
5.1834806e-06
5.1920964e-06
5.1955255e-06
5.1973191e-06
5.2006305e-06
5.206769e-06
5.2146959e-06
5.2226637e-06
5.2291034e-06
5.2325936e-06
5.2322877e-06
5.2278324e-06
5.2196622e-06
5.2087341e-06
5.1964077e-06
5.1837268e-06
5.1144089e-06
5.1125605e-06
5.1023585e-06
5.0977939e-06
5.0900341e-06
5.0638699e-06
5.0287671e-06
5.0139005e-06
5.0300118e-06
5.0656915e-06
5.0959414e-06
5.0986579e-06
5.0801279e-06
5.065675e-06
5.0453708e-06
5.0088168e-06
4.9916563e-06
4.9739166e-06
4.970133e-06
4.9888055e-06
5.0099773e-06
5.0345923e-06
5.0496172e-06
5.0454094e-06
5.0376697e-06
5.0240567e-06
5.0096475e-06
5.0030116e-06
5.0094065e-06
5.0247502e-06
5.04339e-06
5.0587922e-06
5.0682106e-06
5.0727837e-06
5.0756503e-06
5.0797197e-06
5.085106e-06
5.0895638e-06
5.090737e-06
5.0877305e-06
5.0810857e-06
5.0718698e-06
5.0608136e-06
5.0488965e-06
5.0370165e-06
5.0264224e-06
5.0167009e-06
5.0220173e-06
5.010235e-06
4.9929051e-06
4.985282e-06
4.9794688e-06
4.9567112e-06
4.9246693e-06
4.9088279e-06
4.9178052e-06
4.9465166e-06
4.978399e-06
4.9856021e-06
4.9726286e-06
4.9576238e-06
4.9258452e-06
4.8964637e-06
4.8873074e-06
4.8725426e-06
4.8749805e-06
4.894064e-06
4.913718e-06
4.9341108e-06
4.9336552e-06
4.9304447e-06
4.937452e-06
4.9437511e-06
4.9439753e-06
4.9410746e-06
4.9435378e-06
4.9490427e-06
4.9571706e-06
4.9636511e-06
4.9655824e-06
4.9644047e-06
4.9610019e-06
4.9566492e-06
4.9514661e-06
4.944813e-06
4.9366586e-06
4.9281112e-06
4.9206281e-06
4.9147955e-06
4.9102742e-06
4.906643e-06
4.9033133e-06
4.89988e-06
4.8952758e-06
4.9488502e-06
4.9328217e-06
4.9108114e-06
4.8982008e-06
4.891898e-06
4.8749465e-06
4.8500204e-06
4.8330881e-06
4.8336162e-06
4.8539869e-06
4.8820599e-06
4.8982229e-06
4.8922671e-06
4.870159e-06
4.8342949e-06
4.8140049e-06
4.8038952e-06
4.7968517e-06
4.8088198e-06
4.8240075e-06
4.8356268e-06
4.8484436e-06
4.8476019e-06
4.8631635e-06
4.8868937e-06
4.897856e-06
4.8903519e-06
4.8766618e-06
4.867005e-06
4.8640025e-06
4.8693567e-06
4.8728134e-06
4.8674134e-06
4.8550178e-06
4.8394423e-06
4.8250959e-06
4.8144507e-06
4.807984e-06
4.8063016e-06
4.8084232e-06
4.8128444e-06
4.8169546e-06
4.8186425e-06
4.8170961e-06
4.8124568e-06
4.8056588e-06
4.7975425e-06
4.8960871e-06
4.8731896e-06
4.8542689e-06
4.8396485e-06
4.8294497e-06
4.8161909e-06
4.7948263e-06
4.7753881e-06
4.7684236e-06
4.7783572e-06
4.8044554e-06
4.8263261e-06
4.8177047e-06
4.79063e-06
4.7580511e-06
4.7448318e-06
4.7409726e-06
4.7487943e-06
4.7555473e-06
4.7566047e-06
4.7715032e-06
4.7899605e-06
4.802066e-06
4.8337067e-06
4.8538267e-06
4.8519938e-06
4.8323303e-06
4.8125996e-06
4.8023506e-06
4.8005642e-06
4.7998118e-06
4.788344e-06
4.765007e-06
4.738729e-06
4.7178584e-06
4.7065232e-06
4.7053839e-06
4.7120589e-06
4.7215376e-06
4.7292095e-06
4.7328119e-06
4.7318424e-06
4.7265844e-06
4.7187724e-06
4.7101462e-06
4.7024396e-06
4.6969014e-06
4.87186e-06
4.8186594e-06
4.8035453e-06
4.79262e-06
4.782659e-06
4.7690947e-06
4.7485173e-06
4.7260783e-06
4.7128206e-06
4.7176874e-06
4.7398863e-06
4.7513776e-06
4.7446841e-06
4.7233689e-06
4.6942711e-06
4.6861033e-06
4.6898503e-06
4.7001896e-06
4.7073067e-06
4.7198591e-06
4.7461575e-06
4.7625813e-06
4.7870391e-06
4.8180399e-06
4.8168654e-06
4.7959193e-06
4.7709956e-06
4.7530532e-06
4.7425878e-06
4.7355641e-06
4.7182976e-06
4.6883276e-06
4.6568687e-06
4.6352738e-06
4.6297731e-06
4.6381253e-06
4.6522147e-06
4.6637232e-06
4.6693045e-06
4.6691249e-06
4.6645633e-06
4.6572268e-06
4.6493051e-06
4.6424787e-06
4.6379425e-06
4.6362564e-06
4.6369104e-06
4.8744768e-06
4.773209e-06
4.7565259e-06
4.7436203e-06
4.7334794e-06
4.7247202e-06
4.7108427e-06
4.6894326e-06
4.6722039e-06
4.672182e-06
4.6831545e-06
4.6855725e-06
4.6831234e-06
4.6587137e-06
4.6336297e-06
4.6343784e-06
4.6539666e-06
4.6664089e-06
4.6772433e-06
4.7058329e-06
4.7405724e-06
4.7613815e-06
4.7812165e-06
4.7865485e-06
4.7585589e-06
4.736624e-06
4.7190621e-06
4.6948967e-06
4.6702348e-06
4.6490277e-06
4.6235885e-06
4.5998712e-06
4.5891908e-06
4.5936865e-06
4.6074082e-06
4.6210909e-06
4.6274009e-06
4.6258273e-06
4.6189862e-06
4.6102011e-06
4.6021597e-06
4.5954923e-06
4.5909314e-06
4.5876864e-06
4.5860428e-06
4.5862518e-06
4.5877956e-06
4.8672408e-06
4.7259241e-06
4.7096357e-06
4.6974186e-06
4.683855e-06
4.676757e-06
4.6735435e-06
4.6623466e-06
4.6450181e-06
4.6332754e-06
4.6303082e-06
4.6310178e-06
4.6218506e-06
4.5927861e-06
4.5818389e-06
4.5949251e-06
4.6152825e-06
4.6304135e-06
4.6579564e-06
4.7041528e-06
4.7445363e-06
4.7609129e-06
4.7583437e-06
4.7351257e-06
4.702347e-06
4.6838996e-06
4.6535809e-06
4.6141383e-06
4.5851652e-06
4.5665644e-06
4.5515529e-06
4.5482252e-06
4.5586227e-06
4.5737667e-06
4.5844443e-06
4.5860077e-06
4.5806716e-06
4.5722114e-06
4.5634449e-06
4.5561153e-06
4.550321e-06
4.545901e-06
4.5426052e-06
4.5405638e-06
4.5398528e-06
4.539852e-06
4.5405077e-06
4.8546902e-06
4.6784336e-06
4.6627033e-06
4.6526396e-06
4.6406849e-06
4.6324474e-06
4.6360551e-06
4.6400017e-06
4.6279755e-06
4.6022843e-06
4.5847264e-06
4.5781638e-06
4.5565214e-06
4.5357283e-06
4.5391501e-06
4.5573448e-06
4.5772512e-06
4.6025046e-06
4.6464989e-06
4.7035204e-06
4.7397598e-06
4.7370632e-06
4.7148699e-06
4.6876621e-06
4.6560739e-06
4.6231857e-06
4.5795601e-06
4.5378677e-06
4.5140188e-06
4.5079579e-06
4.5159423e-06
4.5305674e-06
4.5419817e-06
4.5447796e-06
4.5403832e-06
4.532819e-06
4.5255201e-06
4.5202579e-06
4.5175327e-06
4.5159567e-06
4.5137569e-06
4.5103817e-06
4.5068525e-06
4.5044116e-06
4.503335e-06
4.5035755e-06
4.5047021e-06
4.8548565e-06
4.6411214e-06
4.6229848e-06
4.6171176e-06
4.6068143e-06
4.59603e-06
4.5998284e-06
4.6165262e-06
4.6153786e-06
4.5841456e-06
4.5548893e-06
4.5354569e-06
4.5055582e-06
4.4967451e-06
4.5077763e-06
4.5298122e-06
4.556917e-06
4.5919881e-06
4.6453074e-06
4.7031067e-06
4.7205664e-06
4.7042998e-06
4.6845163e-06
4.6529644e-06
4.6089227e-06
4.5612513e-06
4.5125915e-06
4.4837404e-06
4.4778908e-06
4.4891472e-06
4.5036716e-06
4.5088093e-06
4.5043582e-06
4.4964995e-06
4.4911476e-06
4.4903364e-06
4.492636e-06
4.495399e-06
4.4957416e-06
4.4928282e-06
4.487991e-06
4.4831666e-06
4.4799613e-06
4.4797599e-06
4.4813024e-06
4.4834818e-06
4.4857586e-06
4.8748543e-06
4.6153546e-06
4.5931299e-06
4.5899925e-06
4.5826549e-06
4.5725529e-06
4.5747792e-06
4.5962429e-06
4.601725e-06
4.5708129e-06
4.5362043e-06
4.5030087e-06
4.4757491e-06
4.4732521e-06
4.4835325e-06
4.5085826e-06
4.5468554e-06
4.5892532e-06
4.6397511e-06
4.681811e-06
4.6858811e-06
4.6748385e-06
4.6590207e-06
4.6155366e-06
4.5587552e-06
4.5102554e-06
4.4744562e-06
4.4648956e-06
4.4748474e-06
4.4856341e-06
4.4824939e-06
4.4696531e-06
4.4566399e-06
4.450907e-06
4.4541979e-06
4.4635734e-06
4.4713081e-06
4.472963e-06
4.469977e-06
4.465969e-06
4.463262e-06
4.4638864e-06
4.4677303e-06
4.4732097e-06
4.4790579e-06
4.4843541e-06
4.4898502e-06
4.9053568e-06
4.5859704e-06
4.566782e-06
4.5712223e-06
4.5663792e-06
4.5547238e-06
4.5525574e-06
4.567777e-06
4.5764206e-06
4.5575604e-06
4.5246172e-06
4.4833828e-06
4.4595266e-06
4.457907e-06
4.4651554e-06
4.4911343e-06
4.5333019e-06
4.5718051e-06
4.6139502e-06
4.6434621e-06
4.6541051e-06
4.6527428e-06
4.6215402e-06
4.5617208e-06
4.5098917e-06
4.4781632e-06
4.4617922e-06
4.4625564e-06
4.4649052e-06
4.454911e-06
4.4350256e-06
4.4175606e-06
4.4140346e-06
4.4257889e-06
4.4456361e-06
4.4625497e-06
4.4698766e-06
4.4681722e-06
4.4637295e-06
4.4619502e-06
4.4647267e-06
4.4715622e-06
4.4815809e-06
4.4927951e-06
4.5035751e-06
4.5125945e-06
4.5211321e-06
4.9104369e-06
4.5529643e-06
4.5438066e-06
4.5553059e-06
4.5545053e-06
4.5435374e-06
4.5336205e-06
4.5370036e-06
4.546183e-06
4.5417641e-06
4.5156032e-06
4.4771501e-06
4.4550648e-06
4.4468131e-06
4.4493328e-06
4.4740563e-06
4.5099421e-06
4.5415449e-06
4.587374e-06
4.6214395e-06
4.6362274e-06
4.6215991e-06
4.5694978e-06
4.5095936e-06
4.4733876e-06
4.4589168e-06
4.4552635e-06
4.450181e-06
4.4369811e-06
4.4175792e-06
4.4011085e-06
4.3983814e-06
4.4120765e-06
4.4345471e-06
4.4572483e-06
4.4700463e-06
4.4690914e-06
4.4608433e-06
4.4547069e-06
4.4543717e-06
4.4603267e-06
4.4716492e-06
4.4856815e-06
4.4996169e-06
4.5114534e-06
4.5196963e-06
4.5268142e-06
4.9089414e-06
4.5333949e-06
4.5287842e-06
4.540598e-06
4.5400198e-06
4.528424e-06
4.5135977e-06
4.5089442e-06
4.5167676e-06
4.5203663e-06
4.5042811e-06
4.4783519e-06
4.4605996e-06
4.443634e-06
4.4376123e-06
4.4563544e-06
4.4817971e-06
4.5181863e-06
4.5784655e-06
4.6139074e-06
4.6169265e-06
4.5803826e-06
4.522466e-06
4.4757568e-06
4.4568347e-06
4.4526865e-06
4.4475124e-06
4.430615e-06
4.4124176e-06
4.4001393e-06
4.3981153e-06
4.4076921e-06
4.4284943e-06
4.4515693e-06
4.465202e-06
4.463302e-06
4.4507622e-06
4.4389102e-06
4.4357829e-06
4.4430236e-06
4.4574927e-06
4.475688e-06
4.4937459e-06
4.5070564e-06
4.5131259e-06
4.512491e-06
4.5101333e-06
4.9042132e-06
4.5188301e-06
4.5137985e-06
4.5252232e-06
4.5215596e-06
4.5091702e-06
4.4932667e-06
4.4851735e-06
4.4908582e-06
4.4987972e-06
4.495306e-06
4.4815008e-06
4.4670525e-06
4.4417898e-06
4.4271553e-06
4.4402557e-06
4.463346e-06
4.5104413e-06
4.5747476e-06
4.6029849e-06
4.5958464e-06
4.5476385e-06
4.4950598e-06
4.4633515e-06
4.4549076e-06
4.4488947e-06
4.433975e-06
4.4142153e-06
4.4000263e-06
4.3992942e-06
4.4080676e-06
4.4210872e-06
4.4377552e-06
4.4487525e-06
4.4477933e-06
4.4374253e-06
4.4274495e-06
4.425754e-06
4.4344481e-06
4.449848e-06
4.4670784e-06
4.481105e-06
4.4882898e-06
4.4875468e-06
4.4814225e-06
4.4734789e-06
4.4692075e-06
4.9049714e-06
4.5059411e-06
4.494011e-06
4.5085683e-06
4.5065531e-06
4.4924447e-06
4.4747998e-06
4.4644171e-06
4.4670877e-06
4.4743168e-06
4.4808828e-06
4.481923e-06
4.4716767e-06
4.4425862e-06
4.4248512e-06
4.4370497e-06
4.4606233e-06
4.5102041e-06
4.5637299e-06
4.5819978e-06
4.5737071e-06
4.5312952e-06
4.4907897e-06
4.4622413e-06
4.4487758e-06
4.4299264e-06
4.4095232e-06
4.3966415e-06
4.3914148e-06
4.4028415e-06
4.4197006e-06
4.4304174e-06
4.4345421e-06
4.4312308e-06
4.4248705e-06
4.4206378e-06
4.4229885e-06
4.4304298e-06
4.4401787e-06
4.4493034e-06
4.4545627e-06
4.454494e-06
4.4504098e-06
4.4444605e-06
4.4403183e-06
4.4418518e-06
4.4518861e-06
4.9118804e-06
4.497172e-06
4.4752288e-06
4.4913008e-06
4.4944146e-06
4.4801959e-06
4.4606423e-06
4.4491341e-06
4.4483797e-06
4.4528761e-06
4.4666162e-06
4.4804134e-06
4.4748926e-06
4.4492273e-06
4.435163e-06
4.4454188e-06
4.466526e-06
4.5109225e-06
4.5498384e-06
4.5673125e-06
4.5614618e-06
4.5281132e-06
4.4892486e-06
4.4535405e-06
4.4336663e-06
4.4067465e-06
4.3914146e-06
4.3919272e-06
4.3961606e-06
4.4115128e-06
4.4261262e-06
4.4251017e-06
4.4156138e-06
4.4077262e-06
4.4089761e-06
4.4145073e-06
4.4188353e-06
4.4193282e-06
4.41752e-06
4.4149366e-06
4.4120542e-06
4.4107633e-06
4.4145762e-06
4.4238337e-06
4.4376913e-06
4.4557489e-06
4.4774366e-06
4.9396457e-06
4.4840189e-06
4.4569547e-06
4.47594e-06
4.4854301e-06
4.4719971e-06
4.4491147e-06
4.4343606e-06
4.4324002e-06
4.4391353e-06
4.4604158e-06
4.4825219e-06
4.4793401e-06
4.4588567e-06
4.4502219e-06
4.4544009e-06
4.4723634e-06
4.5127819e-06
4.5472353e-06
4.564714e-06
4.5522097e-06
4.5135454e-06
4.4686368e-06
4.432776e-06
4.4159699e-06
4.3938323e-06
4.3922995e-06
4.4048206e-06
4.4125081e-06
4.4214509e-06
4.4185314e-06
4.3987525e-06
4.3825327e-06
4.3816894e-06
4.3911891e-06
4.3980267e-06
4.3953432e-06
4.3861626e-06
4.3794958e-06
4.3804169e-06
4.389893e-06
4.4056496e-06
4.4256259e-06
4.4468887e-06
4.4666821e-06
4.4833413e-06
4.4986852e-06
4.9469934e-06
4.4679998e-06
4.4419309e-06
4.4668801e-06
4.4817003e-06
4.4677772e-06
4.4404264e-06
4.4208487e-06
4.4200261e-06
4.4337643e-06
4.4598474e-06
4.4863986e-06
4.4842223e-06
4.4651932e-06
4.4594884e-06
4.4601618e-06
4.4797571e-06
4.5194378e-06
4.5521548e-06
4.5614823e-06
4.529391e-06
4.4810272e-06
4.4361047e-06
4.4118753e-06
4.4058604e-06
4.3965882e-06
4.406337e-06
4.4218131e-06
4.4217782e-06
4.4107561e-06
4.3881149e-06
4.3637346e-06
4.3553496e-06
4.3628038e-06
4.3750451e-06
4.3798204e-06
4.3753884e-06
4.3708479e-06
4.3769921e-06
4.3953469e-06
4.419665e-06
4.4443137e-06
4.4658948e-06
4.4830021e-06
4.4926589e-06
4.4962197e-06
4.4984731e-06
4.9455611e-06
4.4508899e-06
4.429625e-06
4.4610222e-06
4.4811764e-06
4.4669956e-06
4.4351743e-06
4.4124112e-06
4.4132682e-06
4.4324615e-06
4.4599312e-06
4.4860218e-06
4.4839326e-06
4.4655189e-06
4.4602088e-06
4.4629981e-06
4.4878087e-06
4.5276725e-06
4.5544343e-06
4.5473239e-06
4.4949126e-06
4.4447845e-06
4.4116257e-06
4.4040504e-06
4.405775e-06
4.4054901e-06
4.4210235e-06
4.4271163e-06
4.4073999e-06
4.3790898e-06
4.3531058e-06
4.3405702e-06
4.3466844e-06
4.3624982e-06
4.3774849e-06
4.3836741e-06
4.3856761e-06
4.3948021e-06
4.4152786e-06
4.4428357e-06
4.4688879e-06
4.48613e-06
4.4944265e-06
4.4945846e-06
4.4911676e-06
4.4853548e-06
4.4794412e-06
4.9424664e-06
4.4429801e-06
4.4221914e-06
4.4549153e-06
4.4799936e-06
4.467774e-06
4.431937e-06
4.4075361e-06
4.4104265e-06
4.4339888e-06
4.4603224e-06
4.4811233e-06
4.4774832e-06
4.4589677e-06
4.4522725e-06
4.4630039e-06
4.4984552e-06
4.5355906e-06
4.5489577e-06
4.522828e-06
4.4615961e-06
4.4265735e-06
4.4112373e-06
4.4089887e-06
4.4085409e-06
4.4117351e-06
4.4262419e-06
4.4163391e-06
4.3822557e-06
4.3521704e-06
4.3396719e-06
4.3459074e-06
4.3652302e-06
4.3856656e-06
4.4002443e-06
4.4086263e-06
4.4176647e-06
4.4366937e-06
4.461863e-06
4.4839103e-06
4.4932401e-06
4.4915244e-06
4.4839225e-06
4.4737306e-06
4.4638184e-06
4.4541087e-06
4.4451476e-06
4.9355129e-06
4.4394247e-06
4.4146135e-06
4.4475133e-06
4.4775581e-06
4.4677123e-06
4.4298932e-06
4.4048486e-06
4.4096327e-06
4.4333356e-06
4.4567887e-06
4.4710888e-06
4.4646454e-06
4.4468726e-06
4.4430171e-06
4.4665343e-06
4.5114257e-06
4.5393559e-06
4.5375479e-06
4.4968702e-06
4.4439119e-06
4.4318591e-06
4.4244472e-06
4.4158688e-06
4.4092695e-06
4.4136987e-06
4.4204653e-06
4.3977146e-06
4.3639297e-06
4.3473828e-06
4.3537664e-06
4.3741646e-06
4.3985227e-06
4.4169972e-06
4.4273447e-06
4.4363974e-06
4.4510681e-06
4.4714683e-06
4.4864539e-06
4.4893542e-06
4.4827406e-06
4.4729181e-06
4.4612552e-06
4.4497073e-06
4.4395964e-06
4.4318535e-06
4.427908e-06
4.9335604e-06
4.4383661e-06
4.4030886e-06
4.4381029e-06
4.4730108e-06
4.4668239e-06
4.4284778e-06
4.4047501e-06
4.4083282e-06
4.4295309e-06
4.4492826e-06
4.4583931e-06
4.4493687e-06
4.4344652e-06
4.4396252e-06
4.4752152e-06
4.5210888e-06
4.5343656e-06
4.5220664e-06
4.4781114e-06
4.4435954e-06
4.4445084e-06
4.4335341e-06
4.4176892e-06
4.412567e-06
4.4188515e-06
4.4141722e-06
4.3836328e-06
4.3617951e-06
4.3657391e-06
4.3840957e-06
4.4072773e-06
4.4295875e-06
4.4439821e-06
4.4510151e-06
4.4604938e-06
4.4757323e-06
4.4888887e-06
4.4891244e-06
4.4789361e-06
4.4665169e-06
4.4546561e-06
4.445065e-06
4.4376771e-06
4.4341791e-06
4.4358431e-06
4.4441804e-06
4.9339833e-06
4.4560446e-06
4.3935495e-06
4.4285313e-06
4.4665069e-06
4.464637e-06
4.428243e-06
4.4057503e-06
4.4065936e-06
4.423918e-06
4.4403531e-06
4.4454571e-06
4.4349564e-06
4.4270831e-06
4.4432978e-06
4.4860175e-06
4.52158e-06
4.5236024e-06
4.5080582e-06
4.4708644e-06
4.4541641e-06
4.4520814e-06
4.4336121e-06
4.4225688e-06
4.4248171e-06
4.4287139e-06
4.4125936e-06
4.3819442e-06
4.3783443e-06
4.3927868e-06
4.4114893e-06
4.4324562e-06
4.4523977e-06
4.4658801e-06
4.4751541e-06
4.4855539e-06
4.4973173e-06
4.5002782e-06
4.4893147e-06
4.4730731e-06
4.4578234e-06
4.4478313e-06
4.4432107e-06
4.4448562e-06
4.4525502e-06
4.4651735e-06
4.484302e-06
4.9382367e-06
4.4757468e-06
4.3852956e-06
4.4190563e-06
4.4587615e-06
4.4613192e-06
4.4285627e-06
4.4069462e-06
4.4049157e-06
4.4178935e-06
4.4296007e-06
4.4329729e-06
4.4221872e-06
4.4254198e-06
4.4515696e-06
4.4916999e-06
4.5143925e-06
4.5123799e-06
4.5009387e-06
4.4733677e-06
4.4640651e-06
4.452402e-06
4.4386107e-06
4.4393401e-06
4.4422492e-06
4.4371229e-06
4.4158936e-06
4.3933812e-06
4.4001219e-06
4.4141556e-06
4.4320605e-06
4.4543525e-06
4.4776581e-06
4.4951182e-06
4.5055475e-06
4.512881e-06
4.5156609e-06
4.5081687e-06
4.4903542e-06
4.4697614e-06
4.4559335e-06
4.451539e-06
4.456671e-06
4.4697419e-06
4.4870123e-06
4.5065756e-06
4.5303027e-06
4.9520668e-06
4.4879989e-06
4.3769049e-06
4.4077221e-06
4.4492351e-06
4.4569012e-06
4.4294732e-06
4.4081698e-06
4.4031848e-06
4.4122754e-06
4.4183255e-06
4.4193691e-06
4.4121988e-06
4.4269342e-06
4.4605169e-06
4.4907615e-06
4.5056465e-06
4.5055657e-06
4.4977355e-06
4.4769785e-06
4.4691062e-06
4.4570799e-06
4.4572851e-06
4.4625573e-06
4.45457e-06
4.4400865e-06
4.4230818e-06
4.4088916e-06
4.4187709e-06
4.4327245e-06
4.457365e-06
4.4887152e-06
4.5152892e-06
4.529849e-06
4.53263e-06
4.5300239e-06
4.5228171e-06
4.5074121e-06
4.4864539e-06
4.4690905e-06
4.4617762e-06
4.466623e-06
4.4813137e-06
4.5021868e-06
4.5261177e-06
4.5473625e-06
4.5681627e-06
4.9681114e-06
4.491838e-06
4.3656082e-06
4.393561e-06
4.4363281e-06
4.449585e-06
4.4301187e-06
4.4086384e-06
4.4013023e-06
4.4078039e-06
4.4076451e-06
4.4059312e-06
4.4065537e-06
4.4293716e-06
4.4647271e-06
4.4863926e-06
4.4996519e-06
4.5026294e-06
4.4922134e-06
4.4770252e-06
4.4709486e-06
4.4730205e-06
4.4863824e-06
4.4823495e-06
4.456277e-06
4.4391124e-06
4.4310435e-06
4.4267483e-06
4.4432365e-06
4.4634016e-06
4.4972486e-06
4.5320867e-06
4.551223e-06
4.5517677e-06
4.542886e-06
4.5325653e-06
4.5188134e-06
4.5013128e-06
4.4835792e-06
4.4732333e-06
4.4750207e-06
4.4886511e-06
4.5110757e-06
4.5376615e-06
4.5606521e-06
4.5755637e-06
4.5875363e-06
4.9763148e-06
4.5018095e-06
4.3540293e-06
4.3778118e-06
4.4208229e-06
4.4394897e-06
4.4297426e-06
4.4081329e-06
4.3995926e-06
4.4052903e-06
4.3998017e-06
4.3946179e-06
4.4035349e-06
4.4303205e-06
4.462753e-06
4.4816993e-06
4.4990247e-06
4.4992093e-06
4.4834679e-06
4.4753856e-06
4.4756878e-06
4.4993613e-06
4.5159237e-06
4.4912149e-06
4.4529657e-06
4.4389268e-06
4.4447708e-06
4.452876e-06
4.4760096e-06
4.5039764e-06
4.5424443e-06
4.5688284e-06
4.5695933e-06
4.5560576e-06
4.540377e-06
4.5271319e-06
4.5129938e-06
4.4993795e-06
4.4910021e-06
4.4920866e-06
4.5029308e-06
4.5217557e-06
4.5448411e-06
4.5667162e-06
4.581767e-06
4.5897258e-06
4.5962499e-06
4.9819158e-06
4.5066566e-06
4.3434462e-06
4.3626419e-06
4.4045862e-06
4.4277108e-06
4.4262244e-06
4.4070834e-06
4.399788e-06
4.4058021e-06
4.3964144e-06
4.3869195e-06
4.4001164e-06
4.4281713e-06
4.4579365e-06
4.4807037e-06
4.5017794e-06
4.4938665e-06
4.477885e-06
4.4765282e-06
4.4884567e-06
4.5273526e-06
4.5334263e-06
4.4908969e-06
4.4484407e-06
4.4464514e-06
4.4671279e-06
4.4848564e-06
4.5128718e-06
4.5455996e-06
4.5790172e-06
4.5867909e-06
4.5714124e-06
4.5512817e-06
4.5346872e-06
4.5220952e-06
4.5149668e-06
4.5128754e-06
4.5165317e-06
4.5249248e-06
4.5380183e-06
4.5542173e-06
4.571031e-06
4.5852082e-06
4.5941088e-06
4.5989696e-06
4.6050972e-06
4.9893617e-06
4.5175921e-06
4.3517962e-06
4.3508163e-06
4.3884396e-06
4.414602e-06
4.420457e-06
4.406312e-06
4.4028473e-06
4.4088172e-06
4.3971553e-06
4.3828754e-06
4.3967184e-06
4.4236811e-06
4.454336e-06
4.4848028e-06
4.504304e-06
4.4888859e-06
4.4786348e-06
4.4845083e-06
4.5079969e-06
4.5454064e-06
4.5364704e-06
4.4834114e-06
4.4494441e-06
4.4630444e-06
4.4964533e-06
4.5194217e-06
4.548636e-06
4.5782146e-06
4.5946857e-06
4.5846101e-06
4.5643976e-06
4.5457545e-06
4.5338451e-06
4.529663e-06
4.5343842e-06
4.543167e-06
4.5518136e-06
4.5602458e-06
4.568491e-06
4.5769391e-06
4.5861725e-06
4.5954322e-06
4.6019942e-06
4.6059276e-06
4.6105219e-06
5.0001861e-06
4.5449192e-06
4.375805e-06
4.3415259e-06
4.3716724e-06
4.4013425e-06
4.4137199e-06
4.4067777e-06
4.4078831e-06
4.4129957e-06
4.4005576e-06
4.3839333e-06
4.3945892e-06
4.4176855e-06
4.45294e-06
4.4901044e-06
4.5035051e-06
4.4854119e-06
4.4864727e-06
4.5015387e-06
4.5282807e-06
4.5499392e-06
4.5276741e-06
4.4752554e-06
4.4576512e-06
4.4865468e-06
4.5278575e-06
4.5524052e-06
4.5756877e-06
4.5921424e-06
4.5927363e-06
4.5757168e-06
4.5563458e-06
4.544493e-06
4.5421368e-06
4.5505184e-06
4.5638482e-06
4.575158e-06
4.582346e-06
4.5860254e-06
4.587345e-06
4.5896659e-06
4.5960234e-06
4.6037501e-06
4.6091571e-06
4.6104317e-06
4.6115746e-06
5.0064806e-06
4.5925676e-06
4.3956042e-06
4.3349379e-06
4.355976e-06
4.3876876e-06
4.405714e-06
4.4068911e-06
4.4125999e-06
4.4186388e-06
4.4058158e-06
4.3897901e-06
4.3952264e-06
4.4141477e-06
4.4557607e-06
4.4935253e-06
4.4993155e-06
4.4858609e-06
4.5004582e-06
4.5245126e-06
4.5431604e-06
4.5436393e-06
4.5145542e-06
4.4713551e-06
4.4726457e-06
4.5139927e-06
4.5591954e-06
4.5785308e-06
4.5891437e-06
4.5929417e-06
4.5857228e-06
4.5670817e-06
4.5521602e-06
4.5493859e-06
4.5594531e-06
4.576644e-06
4.5925512e-06
4.6005856e-06
4.6006071e-06
4.59821e-06
4.5971883e-06
4.5985419e-06
4.6055014e-06
4.6128461e-06
4.6150938e-06
4.6133764e-06
4.613758e-06
5.0124367e-06
4.629757e-06
4.4039259e-06
4.3289992e-06
4.3416553e-06
4.3749786e-06
4.3989492e-06
4.4061213e-06
4.4176108e-06
4.4270605e-06
4.4137569e-06
4.3986859e-06
4.3989311e-06
4.416021e-06
4.4623192e-06
4.4959606e-06
4.4954368e-06
4.4908866e-06
4.5179879e-06
4.5464523e-06
4.549677e-06
4.533315e-06
4.5040595e-06
4.4750437e-06
4.4937496e-06
4.5429742e-06
4.5837592e-06
4.5915483e-06
4.5916808e-06
4.58995e-06
4.5794569e-06
4.5639665e-06
4.556504e-06
4.56332e-06
4.5807488e-06
4.602606e-06
4.615167e-06
4.6144381e-06
4.6068665e-06
4.6025001e-06
4.6014468e-06
4.6035268e-06
4.6095071e-06
4.615886e-06
4.6181357e-06
4.6192907e-06
4.6246929e-06
5.0144775e-06
4.657961e-06
4.4151008e-06
4.3278095e-06
4.3321677e-06
4.36443e-06
4.3928755e-06
4.4057417e-06
4.4244076e-06
4.4376414e-06
4.4234543e-06
4.4083673e-06
4.4058411e-06
4.42349e-06
4.4720796e-06
4.4992307e-06
4.4946131e-06
4.5001919e-06
4.5353205e-06
4.5603023e-06
4.5486453e-06
4.5231223e-06
4.5005993e-06
4.4866075e-06
4.516294e-06
4.5654578e-06
4.5953498e-06
4.5928502e-06
4.5890081e-06
4.5863952e-06
4.5781816e-06
4.5688319e-06
4.5673667e-06
4.5790183e-06
4.6027927e-06
4.6231589e-06
4.6282594e-06
4.6197559e-06
4.609457e-06
4.6046119e-06
4.6018377e-06
4.6029748e-06
4.6096184e-06
4.6197185e-06
4.6283666e-06
4.6365922e-06
4.6488652e-06
5.0184441e-06
4.678987e-06
4.4406162e-06
4.3270314e-06
4.3241555e-06
4.3578449e-06
4.3886477e-06
4.4078738e-06
4.4336736e-06
4.4494741e-06
4.4345189e-06
4.4187538e-06
4.41566e-06
4.4351805e-06
4.4824935e-06
4.5029491e-06
4.4983865e-06
4.5111441e-06
4.5492653e-06
4.5641607e-06
4.5416698e-06
4.5163143e-06
4.5043179e-06
4.5013822e-06
4.5346693e-06
4.5767982e-06
4.5959928e-06
4.5887415e-06
4.5857238e-06
4.5851463e-06
4.5827175e-06
4.5794688e-06
4.5808317e-06
4.5966779e-06
4.6198755e-06
4.6351698e-06
4.6339666e-06
4.6238554e-06
4.612816e-06
4.6042935e-06
4.599827e-06
4.6020417e-06
4.6139527e-06
4.6315616e-06
4.6477047e-06
4.6611673e-06
4.6754722e-06
5.0221179e-06
4.6950286e-06
4.4609344e-06
4.3302033e-06
4.320108e-06
4.3558013e-06
4.3884111e-06
4.4146669e-06
4.4446717e-06
4.4614299e-06
4.4455137e-06
4.4293472e-06
4.4270286e-06
4.4500954e-06
4.4930576e-06
4.5054384e-06
4.5044803e-06
4.5229903e-06
4.5585173e-06
4.561291e-06
4.5324955e-06
4.5133181e-06
4.5121251e-06
4.5153304e-06
4.5457087e-06
4.5810871e-06
4.5950337e-06
4.5874823e-06
4.58531e-06
4.5878988e-06
4.5900298e-06
4.589437e-06
4.5941965e-06
4.6099577e-06
4.6296117e-06
4.6398141e-06
4.6380595e-06
4.6277516e-06
4.6151458e-06
4.6054422e-06
4.6019968e-06
4.6097151e-06
4.6292453e-06
4.6531661e-06
4.6735874e-06
4.6874606e-06
4.698594e-06
5.0263915e-06
4.7079067e-06
4.4764855e-06
4.3328643e-06
4.3167468e-06
4.3558446e-06
4.3911649e-06
4.4230655e-06
4.4560158e-06
4.4735384e-06
4.4561604e-06
4.4397574e-06
4.4400153e-06
4.4670073e-06
4.5023807e-06
4.5062062e-06
4.5103154e-06
4.535074e-06
4.5641704e-06
4.5556255e-06
4.5240861e-06
4.5127151e-06
4.5198612e-06
4.5251222e-06
4.5514534e-06
4.5853664e-06
4.5991196e-06
4.5910485e-06
4.5877745e-06
4.5905405e-06
4.5945284e-06
4.5959872e-06
4.6029919e-06
4.6189587e-06
4.6358638e-06
4.6440924e-06
4.6410716e-06
4.6306346e-06
4.6188285e-06
4.611109e-06
4.6135164e-06
4.6294349e-06
4.6553532e-06
4.6841914e-06
4.7006134e-06
4.7061699e-06
4.7125027e-06
5.0280737e-06
4.7162102e-06
4.4900028e-06
4.3353611e-06
4.3157587e-06
4.3588692e-06
4.3980353e-06
4.4322077e-06
4.4684537e-06
4.4844803e-06
4.4653685e-06
4.4497603e-06
4.4541046e-06
4.4851017e-06
4.5101562e-06
4.506398e-06
4.5157388e-06
4.5459923e-06
4.5667573e-06
4.5502237e-06
4.51774e-06
4.5131985e-06
4.5241845e-06
4.5323062e-06
4.5571795e-06
4.5924739e-06
4.6084126e-06
4.5977483e-06
4.5890476e-06
4.5892609e-06
4.5942807e-06
4.599419e-06
4.6101569e-06
4.6276075e-06
4.6432428e-06
4.6500428e-06
4.6460547e-06
4.6361482e-06
4.6280804e-06
4.627937e-06
4.6379404e-06
4.6606541e-06
4.6895898e-06
4.7120653e-06
4.7216246e-06
4.7236907e-06
4.7270829e-06
5.0282685e-06
4.7204379e-06
4.4996373e-06
4.3389297e-06
4.3158601e-06
4.3604657e-06
4.4047142e-06
4.4405437e-06
4.4801291e-06
4.4934447e-06
4.4739315e-06
4.4582069e-06
4.4672539e-06
4.5001391e-06
4.514864e-06
4.5062022e-06
4.5212839e-06
4.5544574e-06
4.5675024e-06
4.5465068e-06
4.5143254e-06
4.5134609e-06
4.5257689e-06
4.5387465e-06
4.5642112e-06
4.6033152e-06
4.618998e-06
4.6023106e-06
4.5875069e-06
4.5850542e-06
4.5919979e-06
4.6017457e-06
4.6180298e-06
4.6368629e-06
4.6519009e-06
4.657214e-06
4.6520005e-06
4.6431457e-06
4.6410405e-06
4.6480931e-06
4.6651274e-06
4.6906752e-06
4.7188089e-06
4.7366709e-06
4.7393321e-06
4.7371147e-06
4.7381717e-06
5.0258195e-06
4.7216919e-06
4.5052762e-06
4.3407677e-06
4.3179099e-06
4.3618435e-06
4.409127e-06
4.4487351e-06
4.4906642e-06
4.5012462e-06
4.4814489e-06
4.4671539e-06
4.4801591e-06
4.5124321e-06
4.5182003e-06
4.5072747e-06
4.526005e-06
4.5598962e-06
4.5668121e-06
4.5446588e-06
4.514061e-06
4.5124515e-06
4.5247759e-06
4.5440091e-06
4.573202e-06
4.6163292e-06
4.6268364e-06
4.6031458e-06
4.5833007e-06
4.5792421e-06
4.5896456e-06
4.6056992e-06
4.6261237e-06
4.6462715e-06
4.6619107e-06
4.6657227e-06
4.6611204e-06
4.6557586e-06
4.6611743e-06
4.6745084e-06
4.6952166e-06
4.7206136e-06
4.7450796e-06
4.7560191e-06
4.7550427e-06
4.754743e-06
4.7619796e-06
5.0238814e-06
4.7203756e-06
4.5164792e-06
4.3436645e-06
4.3222779e-06
4.3650779e-06
4.4130106e-06
4.4558443e-06
4.4985408e-06
4.5065407e-06
4.487167e-06
4.4753104e-06
4.4907585e-06
4.519582e-06
4.5191631e-06
4.5088858e-06
4.5297263e-06
4.5608148e-06
4.5663225e-06
4.5459723e-06
4.5156865e-06
4.5104249e-06
4.5219537e-06
4.5487766e-06
4.5845225e-06
4.6275905e-06
4.6295637e-06
4.6005611e-06
4.5775992e-06
4.5751817e-06
4.5897166e-06
4.6101588e-06
4.6326898e-06
4.6536766e-06
4.6698348e-06
4.6746342e-06
4.6698449e-06
4.6684703e-06
4.679019e-06
4.694868e-06
4.7163987e-06
4.7401379e-06
4.7615748e-06
4.7725686e-06
4.7739942e-06
4.7756461e-06
4.7784591e-06
5.020651e-06
4.7182016e-06
4.5427445e-06
4.3468781e-06
4.3282625e-06
4.3682484e-06
4.4148055e-06
4.462826e-06
4.5036521e-06
4.5106914e-06
4.4924044e-06
4.4839765e-06
4.5009726e-06
4.5241996e-06
4.5201011e-06
4.5124388e-06
4.533976e-06
4.559178e-06
4.5655574e-06
4.5491534e-06
4.5170813e-06
4.5085603e-06
4.5199002e-06
4.5541992e-06
4.5950494e-06
4.6349768e-06
4.6269758e-06
4.5941513e-06
4.5725265e-06
4.5747639e-06
4.5933604e-06
4.6157485e-06
4.6381641e-06
4.6616569e-06
4.6818754e-06
4.6884088e-06
4.6841866e-06
4.684662e-06
4.6977409e-06
4.716226e-06
4.7384812e-06
4.7613945e-06
4.7821176e-06
4.7915677e-06
4.7921917e-06
4.7935435e-06
4.8015962e-06
5.0173767e-06
4.7158349e-06
4.541165e-06
4.3519916e-06
4.3375247e-06
4.3738116e-06
4.4168307e-06
4.4650407e-06
4.506081e-06
4.5129821e-06
4.495188e-06
4.491568e-06
4.5099721e-06
4.527149e-06
4.5193776e-06
4.5156365e-06
4.5363258e-06
4.5560107e-06
4.5656121e-06
4.5528091e-06
4.5172348e-06
4.5066303e-06
4.5199843e-06
4.5606398e-06
4.6038286e-06
4.6369961e-06
4.619982e-06
4.5838839e-06
4.5673842e-06
4.5752853e-06
4.5972359e-06
4.6205767e-06
4.6438666e-06
4.669455e-06
4.6909212e-06
4.6955626e-06
4.6923993e-06
4.6961703e-06
4.7108848e-06
4.7294138e-06
4.7509326e-06
4.7735685e-06
4.7943872e-06
4.8043362e-06
4.8078766e-06
4.8153743e-06
4.8233198e-06
5.0153201e-06
4.7134813e-06
4.5289006e-06
4.3565834e-06
4.3484437e-06
4.381096e-06
4.421889e-06
4.4697799e-06
4.5083006e-06
4.5144654e-06
4.4993466e-06
4.4996501e-06
4.518217e-06
4.5286377e-06
4.5192542e-06
4.5210071e-06
4.5382983e-06
4.5531901e-06
4.5674505e-06
4.555037e-06
4.5161137e-06
4.5050244e-06
4.5237563e-06
4.5691335e-06
4.6107527e-06
4.6344037e-06
4.6089659e-06