/*--------------------------------*- C++ -*----------------------------------*\
| =========                 |                                                 |
| \\      /  F ield         | OpenFOAM: The Open Source CFD Toolbox           |
|  \\    /   O peration     | Version:  2406                                  |
|   \\  /    A nd           | Website:  www.openfoam.com                      |
|    \\/     M anipulation  |                                                 |
\*---------------------------------------------------------------------------*/
FoamFile
{
    version     2.0;
    format      ascii;
    arch        "LSB;label=32;scalar=64";
    class       volScalarField;
    location    "10";
    object      alphat;
}
// * * * * * * * * * * * * * * * * * * * * * * * * * * * * * * * * * * * * * //

dimensions      [1 -1 -1 0 0 0 0];

internalField   nonuniform List<scalar> 
62344
(
1.0041739e-06
1.0005351e-06
1.0114091e-06
1.0052635e-06
9.7326604e-07
9.3029767e-07
8.9587187e-07
8.7431941e-07
8.6747989e-07
8.7575511e-07
8.9194937e-07
9.0403777e-07
9.1253873e-07
9.1681777e-07
9.227622e-07
9.2653669e-07
9.3022141e-07
9.2584263e-07
9.1972752e-07
9.17742e-07
9.1183897e-07
9.1315875e-07
9.23997e-07
9.328693e-07
9.3511787e-07
9.3444849e-07
9.3880768e-07
9.6396779e-07
9.7111005e-07
9.7521331e-07
9.9470863e-07
1.0206245e-06
1.0382095e-06
1.0679626e-06
1.1175339e-06
1.1716511e-06
1.2173324e-06
1.3692155e-06
1.549562e-06
1.645029e-06
1.7887539e-06
1.8553368e-06
2.1130926e-06
2.3621194e-06
2.6770895e-06
3.0686268e-06
3.6868031e-06
4.019015e-06
4.2787314e-06
4.4212547e-06
4.7625906e-06
5.0082454e-06
5.3108163e-06
5.4704542e-06
5.9913065e-06
1.0044234e-06
1.0009257e-06
1.0124503e-06
1.0070389e-06
9.7496796e-07
9.3264162e-07
8.985658e-07
8.7560866e-07
8.6730801e-07
8.7446477e-07
8.915765e-07
9.0456484e-07
9.1124154e-07
9.1665088e-07
9.2231716e-07
9.2444154e-07
9.2975857e-07
9.258499e-07
9.1712826e-07
9.1643548e-07
9.1075338e-07
9.0690272e-07
9.1552602e-07
9.2561226e-07
9.2553026e-07
9.2224199e-07
9.2798277e-07
9.5162705e-07
9.5521888e-07
9.5606051e-07
9.7211811e-07
9.935297e-07
1.0102051e-06
1.0351348e-06
1.0675512e-06
1.0959222e-06
1.1528659e-06
1.2826235e-06
1.4400218e-06
1.4737804e-06
1.6352321e-06
1.7828614e-06
2.0906046e-06
2.328713e-06
2.6796693e-06
2.984758e-06
3.6116867e-06
3.9763416e-06
4.2541361e-06
4.2740871e-06
4.6282033e-06
4.9985399e-06
5.6526923e-06
6.1241857e-06
6.7078701e-06
1.0043562e-06
1.0008839e-06
1.0133352e-06
1.0090174e-06
9.7684581e-07
9.3490007e-07
9.007722e-07
8.7600211e-07
8.6721459e-07
8.7446827e-07
8.9162005e-07
9.0477809e-07
9.1149417e-07
9.1801214e-07
9.2563577e-07
9.2748646e-07
9.3277124e-07
9.2776139e-07
9.2001631e-07
9.2118175e-07
9.161307e-07
9.1036307e-07
9.1541951e-07
9.2592234e-07
9.2677646e-07
9.21445e-07
9.2879556e-07
9.5285171e-07
9.5781215e-07
9.580005e-07
9.7188866e-07
9.9114648e-07
1.0063348e-06
1.0380464e-06
1.063954e-06
1.0715139e-06
1.113304e-06
1.1813486e-06
1.2910688e-06
1.3484779e-06
1.452659e-06
1.5567602e-06
1.8281828e-06
2.049707e-06
2.451629e-06
2.651877e-06
3.0861825e-06
3.4472789e-06
3.8822748e-06
4.1872613e-06
4.6168756e-06
4.9492746e-06
5.527153e-06
6.1840355e-06
7.0396789e-06
1.0045951e-06
1.0005939e-06
1.0136499e-06
1.0104254e-06
9.7876242e-07
9.3782064e-07
9.0224591e-07
8.7695005e-07
8.6749952e-07
8.7495567e-07
8.9043942e-07
9.0375445e-07
9.1024168e-07
9.1823759e-07
9.2658508e-07
9.2851761e-07
9.319628e-07
9.2684735e-07
9.2020326e-07
9.2036705e-07
9.1560172e-07
9.1076171e-07
9.1435861e-07
9.2237748e-07
9.2485093e-07
9.2100405e-07
9.2943313e-07
9.5081709e-07
9.5749194e-07
9.6053014e-07
9.7448853e-07
9.8923197e-07
1.0032346e-06
1.0406586e-06
1.0674055e-06
1.0674342e-06
1.1054716e-06
1.1645929e-06
1.2485041e-06
1.2938789e-06
1.3920092e-06
1.4710046e-06
1.6718691e-06
1.8797413e-06
2.1969735e-06
2.2955839e-06
2.5295447e-06
2.7092413e-06
3.0547697e-06
3.6419188e-06
4.1862199e-06
4.5016313e-06
5.1059165e-06
5.8671111e-06
6.6330455e-06
1.0047729e-06
1.0004468e-06
1.014138e-06
1.0122098e-06
9.8174903e-07
9.3996183e-07
9.035457e-07
8.7875629e-07
8.6793069e-07
8.7486328e-07
8.8945379e-07
9.0187379e-07
9.0964414e-07
9.1856904e-07
9.2662798e-07
9.3099789e-07
9.3366312e-07
9.2922047e-07
9.2281352e-07
9.2292177e-07
9.1726384e-07
9.122891e-07
9.1676337e-07
9.2169601e-07
9.2380527e-07
9.2115904e-07
9.3305064e-07
9.5151738e-07
9.5701058e-07
9.6268342e-07
9.7738531e-07
9.8688597e-07
1.0001108e-06
1.0394548e-06
1.0669599e-06
1.068028e-06
1.105145e-06
1.1529043e-06
1.2157634e-06
1.2615254e-06
1.3583775e-06
1.4345126e-06
1.6116299e-06
1.7855024e-06
2.0358991e-06
2.133615e-06
2.277749e-06
2.3724235e-06
2.6751461e-06
3.0301524e-06
3.6658889e-06
4.1107083e-06
4.6825315e-06
4.9982245e-06
5.6856525e-06
1.0051224e-06
1.0005429e-06
1.0145775e-06
1.0138424e-06
9.8464843e-07
9.4176693e-07
9.0509115e-07
8.8077912e-07
8.6805774e-07
8.7345078e-07
8.8933075e-07
9.0057674e-07
9.0839573e-07
9.1810987e-07
9.2624076e-07
9.3147316e-07
9.3335325e-07
9.2957555e-07
9.243233e-07
9.2349421e-07
9.1818877e-07
9.1362673e-07
9.1788213e-07
9.2058735e-07
9.2079446e-07
9.184881e-07
9.3513694e-07
9.5274907e-07
9.5669522e-07
9.6290669e-07
9.7952647e-07
9.8605146e-07
9.9877133e-07
1.0372215e-06
1.0617617e-06
1.0682259e-06
1.1066744e-06
1.1425345e-06
1.1870479e-06
1.2255423e-06
1.3132379e-06
1.3901213e-06
1.5493602e-06
1.6850645e-06
1.8867507e-06
1.9878223e-06
2.1441889e-06
2.2254392e-06
2.4851552e-06
2.6963354e-06
3.1664535e-06
3.5704483e-06
4.0638767e-06
4.2858166e-06
4.75351e-06
1.005335e-06
1.0008192e-06
1.0155632e-06
1.0154855e-06
9.8624608e-07
9.432873e-07
9.0668052e-07
8.8164176e-07
8.681538e-07
8.7320779e-07
8.8994103e-07
9.0027162e-07
9.0827421e-07
9.1853268e-07
9.2603976e-07
9.3194893e-07
9.3412324e-07
9.303108e-07
9.2593921e-07
9.2546888e-07
9.1967654e-07
9.161578e-07
9.1998237e-07
9.2163123e-07
9.2018321e-07
9.1741284e-07
9.3636341e-07
9.5420507e-07
9.5772816e-07
9.6335113e-07
9.8177811e-07
9.8741071e-07
9.9947465e-07
1.0343852e-06
1.0554936e-06
1.066833e-06
1.1081599e-06
1.1402685e-06
1.1758331e-06
1.2063744e-06
1.287847e-06
1.3680925e-06
1.5218463e-06
1.6246065e-06
1.7756212e-06
1.852391e-06
2.062036e-06
2.1736179e-06
2.4041953e-06
2.5835654e-06
2.932242e-06
3.1967227e-06
3.7326521e-06
4.1038525e-06
4.6121004e-06
1.0054332e-06
1.000989e-06
1.016641e-06
1.0170215e-06
9.8710493e-07
9.4466018e-07
9.0879148e-07
8.8179674e-07
8.6891362e-07
8.7215935e-07
8.895649e-07
8.9954003e-07
9.0742063e-07
9.1763969e-07
9.2710268e-07
9.3268951e-07
9.3515442e-07
9.3163572e-07
9.2769043e-07
9.270501e-07
9.2214392e-07
9.1914624e-07
9.2178696e-07
9.2199121e-07
9.1940351e-07
9.1641974e-07
9.3575428e-07
9.5410767e-07
9.5793932e-07
9.6386763e-07
9.8285009e-07
9.8854425e-07
1.0007229e-06
1.0295442e-06
1.0467285e-06
1.0648111e-06
1.1107034e-06
1.1417061e-06
1.1735824e-06
1.19867e-06
1.2741435e-06
1.3590797e-06
1.5075661e-06
1.5860694e-06
1.7123906e-06
1.7708102e-06
1.9892271e-06
2.1445424e-06
2.392733e-06
2.5615672e-06
2.8064552e-06
2.9103998e-06
3.2545986e-06
3.6250489e-06
4.1161716e-06
1.0054264e-06
1.0011749e-06
1.0176295e-06
1.0184676e-06
9.8848951e-07
9.4597124e-07
9.1018065e-07
8.8224008e-07
8.6923638e-07
8.7226527e-07
8.8742469e-07
8.9950974e-07
9.0783571e-07
9.1808791e-07
9.2932221e-07
9.3456233e-07
9.3610762e-07
9.3225068e-07
9.2853302e-07
9.2724166e-07
9.2322803e-07
9.2011068e-07
9.2231042e-07
9.2185614e-07
9.1949055e-07
9.1713216e-07
9.3626488e-07
9.5398908e-07
9.5794263e-07
9.6400704e-07
9.8139327e-07
9.8718682e-07
1.0014858e-06
1.0245447e-06
1.038682e-06
1.0625328e-06
1.1154981e-06
1.1486603e-06
1.1788687e-06
1.1999254e-06
1.2697145e-06
1.3542467e-06
1.501395e-06
1.5657508e-06
1.6767868e-06
1.719113e-06
1.9080591e-06
2.1173463e-06
2.3660211e-06
2.5996997e-06
2.8522181e-06
2.8768531e-06
3.1376317e-06
3.369979e-06
3.7905673e-06
1.0054928e-06
1.0013174e-06
1.0179933e-06
1.0197246e-06
9.9032518e-07
9.4766267e-07
9.1078196e-07
8.829718e-07
8.6951043e-07
8.7244234e-07
8.8649402e-07
8.9871327e-07
9.0814413e-07
9.1878761e-07
9.3056949e-07
9.3605718e-07
9.3826384e-07
9.3317276e-07
9.2805574e-07
9.2826871e-07
9.2427338e-07
9.219821e-07
9.2303594e-07
9.2111355e-07
9.1827221e-07
9.1692689e-07
9.3536541e-07
9.524217e-07
9.5763018e-07
9.6477285e-07
9.7966706e-07
9.8541249e-07
1.0028281e-06
1.0202463e-06
1.0320861e-06
1.0587392e-06
1.118674e-06
1.1524471e-06
1.1814649e-06
1.2080908e-06
1.2554678e-06
1.363638e-06
1.4682801e-06
1.5547442e-06
1.6404684e-06
1.6633683e-06
1.8178993e-06
1.9987755e-06
2.2250524e-06
2.4870709e-06
2.750372e-06
2.7841516e-06
3.0230975e-06
3.1720061e-06
3.4585323e-06
1.005616e-06
1.0013233e-06
1.0182009e-06
1.0206912e-06
9.9204782e-07
9.4932391e-07
9.1144507e-07
8.8390313e-07
8.6926543e-07
8.7156851e-07
8.8542258e-07
8.9802407e-07
9.0691531e-07
9.1879915e-07
9.3122084e-07
9.3640247e-07
9.3959817e-07
9.3461097e-07
9.2835847e-07
9.2914515e-07
9.2552582e-07
9.2255946e-07
9.2249802e-07
9.2013337e-07
9.1675469e-07
9.1653067e-07
9.3451654e-07
9.5079434e-07
9.5758182e-07
9.6570128e-07
9.7842233e-07
9.8310789e-07
1.0029221e-06
1.0162131e-06
1.0256077e-06
1.0528579e-06
1.1172565e-06
1.1490498e-06
1.1786395e-06
1.2097694e-06
1.2523438e-06
1.3663163e-06
1.4687908e-06
1.5618464e-06
1.5910491e-06
1.6660262e-06
1.7740164e-06
1.9446891e-06
2.0959705e-06
2.3139787e-06
2.6612655e-06
2.7314491e-06
2.8984667e-06
3.0553769e-06
3.2051766e-06
1.0057705e-06
1.0010954e-06
1.0182232e-06
1.0213239e-06
9.9327995e-07
9.508226e-07
9.1235187e-07
8.8464144e-07
8.6923654e-07
8.7116249e-07
8.8433625e-07
8.9703469e-07
9.0544858e-07
9.1796156e-07
9.3029805e-07
9.3630953e-07
9.401095e-07
9.3521623e-07
9.2994256e-07
9.2994481e-07
9.2680857e-07
9.2426688e-07
9.2375129e-07
9.2063238e-07
9.162444e-07
9.1739816e-07
9.3505972e-07
9.50913e-07
9.5899962e-07
9.6754416e-07
9.7845072e-07
9.834655e-07
1.0044461e-06
1.0145075e-06
1.0174825e-06
1.0446947e-06
1.1118929e-06
1.1400549e-06
1.169625e-06
1.1990133e-06
1.2470054e-06
1.3658852e-06
1.4665434e-06
1.5558921e-06
1.5873757e-06
1.6848112e-06
1.7764305e-06
1.9399722e-06
2.0531588e-06
2.2362172e-06
2.5339821e-06
2.7813218e-06
2.8470642e-06
3.0443473e-06
3.2400433e-06
1.0058864e-06
1.0006639e-06
1.0179507e-06
1.0219511e-06
9.9408486e-07
9.5231429e-07
9.1341706e-07
8.85433e-07
8.7005491e-07
8.7112911e-07
8.8448311e-07
8.9666244e-07
9.04755e-07
9.177481e-07
9.3020154e-07
9.3754416e-07
9.4105713e-07
9.3551599e-07
9.3027797e-07
9.302117e-07
9.2654365e-07
9.2511896e-07
9.2481549e-07
9.2022055e-07
9.1401289e-07
9.1566825e-07
9.3315481e-07
9.4907618e-07
9.5951357e-07
9.6927728e-07
9.7928886e-07
9.855876e-07
1.007937e-06
1.0131469e-06
1.0113173e-06
1.0359008e-06
1.1020408e-06
1.1350158e-06
1.1620408e-06
1.1865638e-06
1.2364453e-06
1.3644228e-06
1.4588444e-06
1.54313e-06
1.5858967e-06
1.689848e-06
1.7816877e-06
1.915454e-06
1.9994286e-06
2.1750907e-06
2.440671e-06
2.679153e-06
2.8009754e-06
2.9681822e-06
3.2885379e-06
1.0060205e-06
1.0000991e-06
1.0174306e-06
1.0224618e-06
9.947586e-07
9.5370622e-07
9.1522816e-07
8.8648858e-07
8.6984967e-07
8.7021669e-07
8.8449385e-07
8.9746095e-07
9.0598937e-07
9.1841651e-07
9.3203742e-07
9.4009912e-07
9.4265088e-07
9.3680553e-07
9.3166669e-07
9.3178333e-07
9.2823722e-07
9.2611532e-07
9.2637463e-07
9.2187914e-07
9.1507034e-07
9.159078e-07
9.3208395e-07
9.4690777e-07
9.5935534e-07
9.7022184e-07
9.7882063e-07
9.8641204e-07
1.0093022e-06
1.0127482e-06
1.0068262e-06
1.0307182e-06
1.0942268e-06
1.127786e-06
1.1624898e-06
1.1737968e-06
1.2393936e-06
1.3346536e-06
1.4528223e-06
1.5075617e-06
1.5730024e-06
1.6668263e-06
1.7725231e-06
1.8448099e-06
1.9766848e-06
2.1119373e-06
2.2938665e-06
2.4656466e-06
2.6375448e-06
2.841237e-06
3.2681677e-06
1.0061264e-06
9.9964296e-07
1.0171238e-06
1.0227284e-06
9.9547684e-07
9.5476661e-07
9.1709665e-07
8.871818e-07
8.6947865e-07
8.6933471e-07
8.8354305e-07
8.9712061e-07
9.0565659e-07
9.1852443e-07
9.3223388e-07
9.4140702e-07
9.4420479e-07
9.3846e-07
9.359285e-07
9.3413095e-07
9.3059234e-07
9.2863506e-07
9.2802459e-07
9.2376744e-07
9.16615e-07
9.1695632e-07
9.3179247e-07
9.45572e-07
9.5946265e-07
9.7173769e-07
9.7775427e-07
9.8681287e-07
1.0090443e-06
1.0137776e-06
1.0048789e-06
1.0317039e-06
1.0861649e-06
1.121042e-06
1.1625347e-06
1.1777657e-06
1.2302703e-06
1.3136498e-06
1.4415588e-06
1.4845329e-06
1.5579988e-06
1.6135692e-06
1.742031e-06
1.8227542e-06
1.951721e-06
2.0474728e-06
2.1376759e-06
2.2866417e-06
2.5056733e-06
2.7892357e-06
3.0886968e-06
1.0061411e-06
9.9923457e-07
1.0169727e-06
1.0228481e-06
9.9612697e-07
9.5563032e-07
9.1806527e-07
8.8760071e-07
8.7044963e-07
8.6938824e-07
8.8286464e-07
8.9600087e-07
9.0422567e-07
9.1768228e-07
9.31755e-07
9.4267928e-07
9.4521515e-07
9.396349e-07
9.3837878e-07
9.3355433e-07
9.2917893e-07
9.2820577e-07
9.2727827e-07
9.2291372e-07
9.1431442e-07
9.1427278e-07
9.2888078e-07
9.4260145e-07
9.5776876e-07
9.7200412e-07
9.7633528e-07
9.8647738e-07
1.0076258e-06
1.0128758e-06
1.0066167e-06
1.0344599e-06
1.0752432e-06
1.1202078e-06
1.1550957e-06
1.1865542e-06
1.2259942e-06
1.3164508e-06
1.4209857e-06
1.4804027e-06
1.5363725e-06
1.6090827e-06
1.6958562e-06
1.8355915e-06
1.9137704e-06
2.0415146e-06
2.0701036e-06
2.2323908e-06
2.4065992e-06
2.7071771e-06
2.9717225e-06
1.0061807e-06
9.9891608e-07
1.0170229e-06
1.0231348e-06
9.9695828e-07
9.5648229e-07
9.1852497e-07
8.8827094e-07
8.7150092e-07
8.6931547e-07
8.8228197e-07
8.949952e-07
9.0374715e-07
9.1717019e-07
9.3158356e-07
9.431732e-07
9.4469064e-07
9.396153e-07
9.3769085e-07
9.3225245e-07
9.2652726e-07
9.2567849e-07
9.2459649e-07
9.2008722e-07
9.1142578e-07
9.1124262e-07
9.2479027e-07
9.3823639e-07
9.5379634e-07
9.6929239e-07
9.7335618e-07
9.8397663e-07
1.0039312e-06
1.0093569e-06
1.0078734e-06
1.03622e-06
1.0660151e-06
1.1156241e-06
1.1491788e-06
1.1923366e-06
1.2335601e-06
1.3376492e-06
1.4194739e-06
1.5049121e-06
1.5440813e-06
1.6429206e-06
1.7222548e-06
1.8654499e-06
1.9327918e-06
2.0817307e-06
2.1160656e-06
2.2788217e-06
2.4020562e-06
2.6831151e-06
2.9332904e-06
1.0061469e-06
9.9858907e-07
1.0169807e-06
1.023305e-06
9.9800961e-07
9.5706105e-07
9.1926996e-07
8.8892346e-07
8.7051333e-07
8.6824049e-07
8.8057382e-07
8.9293184e-07
9.0309758e-07
9.1594454e-07
9.2949412e-07
9.4148564e-07
9.4285899e-07
9.3753834e-07
9.3425539e-07
9.3047664e-07
9.2344878e-07
9.2021738e-07
9.1931898e-07
9.1512328e-07
9.0662859e-07
9.0567094e-07
9.1766939e-07
9.29939e-07
9.4468267e-07
9.6039579e-07
9.6566009e-07
9.7572969e-07
9.9334442e-07
9.9993805e-07
1.0029537e-06
1.0304999e-06
1.0536713e-06
1.0979148e-06
1.1359434e-06
1.1874439e-06
1.2312483e-06
1.3403155e-06
1.4199312e-06
1.5121199e-06
1.5518047e-06
1.6604085e-06
1.7500979e-06
1.892026e-06
1.9928234e-06
2.1096517e-06
2.1610711e-06
2.3263679e-06
2.428842e-06
2.6333815e-06
2.8897161e-06
1.0062128e-06
9.9844946e-07
1.0171227e-06
1.0236928e-06
9.9922237e-07
9.5755725e-07
9.1960197e-07
8.8893204e-07
8.686439e-07
8.6612673e-07
8.7777541e-07
8.8951972e-07
8.999452e-07
9.1280499e-07
9.2482217e-07
9.3617318e-07
9.382396e-07
9.3101271e-07
9.269654e-07
9.2311879e-07
9.1515144e-07
9.105473e-07
9.0861457e-07
9.0311075e-07
8.9409606e-07
8.9181354e-07
9.021561e-07
9.1359776e-07
9.2787302e-07
9.4293651e-07
9.4983801e-07
9.5937747e-07
9.7229184e-07
9.7705249e-07
9.8039272e-07
1.0018114e-06
1.01618e-06
1.0180674e-06
9.4616685e-07
1.1300361e-06
1.0109699e-06
1.1041567e-06
1.329045e-06
1.4190339e-06
1.4593491e-06
1.5689616e-06
1.6560201e-06
1.7772524e-06
1.9350926e-06
2.0024474e-06
2.0935047e-06
2.2160771e-06
2.3409371e-06
2.4669606e-06
2.6870753e-06
1.0060964e-06
9.9830924e-07
1.0169379e-06
1.0234961e-06
9.989715e-07
9.5658953e-07
9.1713948e-07
8.8642735e-07
8.6598788e-07
8.6173863e-07
8.7229793e-07
8.8254659e-07
8.9149408e-07
9.0272247e-07
9.1377732e-07
9.2283648e-07
9.2476721e-07
9.1408969e-07
9.0932122e-07
9.0303415e-07
8.9396737e-07
8.8816836e-07
8.8514888e-07
8.7740206e-07
8.6638459e-07
8.6259728e-07
8.7075344e-07
8.1914091e-07
8.0777999e-07
9.0588822e-07
9.1377819e-07
9.2054665e-07
9.2606494e-07
8.1018238e-07
9.2432709e-07
9.3461723e-07
9.3833058e-07
6.392517e-07
5.3034742e-07
9.893475e-07
6.0606025e-07
6.3114229e-07
1.1201955e-06
1.1835943e-06
1.2232313e-06
1.3211754e-06
1.4051726e-06
1.4826222e-06
1.6569568e-06
1.7051187e-06
1.8204318e-06
1.8793247e-06
2.0484288e-06
2.0813551e-06
2.2756146e-06
1.0060388e-06
9.9787916e-07
1.0155915e-06
1.0207898e-06
9.940862e-07
9.4992192e-07
9.0780372e-07
8.7622611e-07
8.5525531e-07
8.4769634e-07
8.5550462e-07
8.6306248e-07
8.6889234e-07
8.7726817e-07
8.8649523e-07
8.9259825e-07
8.9387424e-07
8.8169453e-07
8.7552773e-07
8.6817433e-07
8.5754568e-07
8.5076406e-07
8.4688163e-07
8.3786949e-07
8.2619305e-07
8.2135332e-07
8.2730096e-07
6.7251931e-07
6.7609349e-07
7.4910842e-07
8.6507797e-07
8.711415e-07
8.72879e-07
6.7055727e-07
8.6774671e-07
8.512849e-07
6.7476144e-07
4.6422422e-07
3.4960266e-07
5.5880671e-07
3.5737241e-07
3.5481776e-07
9.1076869e-07
6.5355487e-07
7.8551746e-07
9.4086766e-07
1.0045638e-06
1.023445e-06
1.1218513e-06
1.1537942e-06
1.2564116e-06
1.2753406e-06
1.4004684e-06
1.4080848e-06
1.5455738e-06
1.0049381e-06
9.9442729e-07
1.0072019e-06
1.0070173e-06
9.7509391e-07
9.279948e-07
8.8381581e-07
8.508743e-07
8.2808571e-07
8.1663923e-07
8.1876871e-07
8.2174862e-07
8.2372463e-07
8.3007871e-07
8.3921203e-07
8.4565397e-07
8.487131e-07
8.3926738e-07
8.3215531e-07
8.2522959e-07
8.1392657e-07
8.0577513e-07
8.0025801e-07
7.8939484e-07
7.7723144e-07
7.7038904e-07
7.7332687e-07
6.5529931e-07
6.8608602e-07
6.5824107e-07
8.0529872e-07
8.1224831e-07
8.1235258e-07
6.3859888e-07
8.0862015e-07
8.1149397e-07
6.2113025e-07
3.8663644e-07
3.2230075e-07
3.4579839e-07
2.8205764e-07
2.7322751e-07
8.1566614e-07
4.1008056e-07
4.7112835e-07
7.7778431e-07
8.0486183e-07
8.0239821e-07
8.3981958e-07
8.4152139e-07
8.8562988e-07
8.8498845e-07
7.2225256e-07
7.584374e-07
9.6220194e-07
9.9960733e-07
9.7851336e-07
9.7878173e-07
9.7305364e-07
9.4140883e-07
8.9667098e-07
8.5464074e-07
8.2083263e-07
7.9408324e-07
7.7691022e-07
7.701522e-07
7.6414593e-07
7.5921829e-07
7.6259767e-07
7.6808359e-07
7.7264055e-07
7.7955715e-07
7.7306917e-07
7.6896334e-07
7.6783214e-07
7.6039462e-07
7.536276e-07
7.4796626e-07
7.3865859e-07
7.2650375e-07
7.1907151e-07
7.2149128e-07
6.8274079e-07
7.3527132e-07
6.3211747e-07
7.4982673e-07
7.5769161e-07
7.568206e-07
6.455736e-07
7.5200122e-07
7.5805416e-07
7.1419835e-07
3.7177994e-07
3.7285578e-07
3.1351469e-07
2.8529357e-07
3.1192465e-07
7.7604857e-07
3.698151e-07
4.1229014e-07
7.3089809e-07
7.4438719e-07
7.3552681e-07
7.5068338e-07
6.5496122e-07
7.5689565e-07
7.5015721e-07
7.0047862e-07
4.7958899e-07
3.9673987e-07
9.840725e-07
9.5043531e-07
9.4283303e-07
9.38353e-07
9.1546395e-07
8.8269887e-07
8.4943172e-07
8.1329174e-07
7.7929433e-07
7.5290894e-07
7.3831028e-07
7.2374579e-07
7.0630933e-07
7.0237795e-07
7.0372854e-07
7.0882182e-07
7.1998731e-07
7.2454944e-07
7.3365849e-07
7.4522759e-07
7.4664887e-07
7.4556862e-07
7.4799707e-07
7.4356573e-07
7.3640773e-07
7.3580994e-07
7.4525332e-07
7.5584873e-07
7.6719099e-07
6.7187246e-07
7.4480197e-07
7.9601741e-07
7.9518598e-07
6.8803159e-07
7.8832005e-07
7.9534651e-07
8.015067e-07
5.1350644e-07
4.9075131e-07
4.1549385e-07
3.9880331e-07
5.712365e-07
8.3756531e-07
4.5899089e-07
4.8104885e-07
6.6630473e-07
8.1744295e-07
8.1078058e-07
8.1136661e-07
6.4936731e-07
6.7314416e-07
8.0072001e-07
8.0056595e-07
6.7683254e-07
4.0343179e-07
9.6135368e-07
8.9151735e-07
8.8012802e-07
8.8760531e-07
9.0806279e-07
9.0389181e-07
8.8839626e-07
8.6373175e-07
8.3072915e-07
8.0628332e-07
8.0157408e-07
7.9237714e-07
7.7917438e-07
7.747187e-07
7.7617117e-07
7.815125e-07
7.9381639e-07
8.0161988e-07
8.1857527e-07
8.4067543e-07
8.5386743e-07
8.6580962e-07
8.7816272e-07
8.6982056e-07
8.5088715e-07
8.7784663e-07
9.0475244e-07
9.3905746e-07
9.5981427e-07
9.087893e-07
9.6055271e-07
1.0199428e-06
9.9301625e-07
8.9567737e-07
9.2092287e-07
1.0229421e-06
1.0264808e-06
8.5676041e-07
7.554208e-07
6.6514993e-07
6.4912365e-07
1.0243515e-06
1.0219835e-06
7.4165069e-07
7.4770955e-07
8.2820774e-07
9.8418439e-07
9.9819305e-07
9.9434175e-07
9.5299087e-07
9.010019e-07
9.8960144e-07
9.9304044e-07
9.8437277e-07
7.6244399e-07
7.0297169e-07
7.291256e-07
7.6882036e-07
7.7950575e-07
8.0063603e-07
7.965806e-07
7.8011103e-07
7.4957938e-07
7.1541106e-07
6.970624e-07
6.910647e-07
6.7316706e-07
6.6363531e-07
6.5653387e-07
6.5834398e-07
6.5911697e-07
6.6114318e-07
6.6429787e-07
6.6568348e-07
6.7363964e-07
6.8829314e-07
6.9913649e-07
7.2005206e-07
7.2834674e-07
7.2328747e-07
7.3134058e-07
7.3840604e-07
7.5514103e-07
7.8701941e-07
8.0273341e-07
8.3784808e-07
8.7375615e-07
8.7800813e-07
8.7673295e-07
8.7675099e-07
9.0020408e-07
9.1726387e-07
9.1595829e-07
8.9946222e-07
9.0870285e-07
9.2055589e-07
1.0186519e-06
1.0394352e-06
1.0131022e-06
9.919096e-07
9.9625781e-07
1.0198152e-06
1.0443535e-06
1.0490319e-06
1.0436106e-06
1.0428922e-06
1.0518025e-06
1.0650837e-06
1.0701317e-06
1.0681587e-06
3.8896729e-07
6.4113466e-07
5.0820383e-07
3.5846324e-07
2.7683901e-07
2.104986e-07
1.694643e-07
1.4332937e-07
1.2144305e-07
1.1059438e-07
1.096423e-07
1.1135398e-07
1.0367525e-07
8.9450201e-08
7.6915698e-08
7.1983101e-08
7.5694199e-08
8.0461821e-08
8.4408626e-08
8.9966279e-08
9.6684884e-08
1.033504e-07
1.1262907e-07
1.1838862e-07
1.1389242e-07
1.0276464e-07
9.0788573e-08
8.5430003e-08
9.1548249e-08
1.0428659e-07
1.2723268e-07
1.6370322e-07
2.0137665e-07
2.3317644e-07
2.549165e-07
2.7994926e-07
3.0638703e-07
3.2417838e-07
3.2294874e-07
3.1853123e-07
3.3517883e-07
3.7997875e-07
4.3509275e-07
4.6799206e-07
4.8153906e-07
4.9092232e-07
5.1599305e-07
5.4826091e-07
5.7656407e-07
5.9166139e-07
6.0855318e-07
6.3663577e-07
6.6906928e-07
6.9995876e-07
7.2193152e-07
6.9018493e-07
1.0082484e-06
6.2539036e-07
3.7141648e-07
3.9417039e-07
7.6451197e-07
1.5083467e-06
2.3266296e-06
2.8503015e-06
3.1097709e-06
3.1536238e-06
3.0951135e-06
3.1631332e-06
3.3791242e-06
3.5092878e-06
3.5331389e-06
3.6006191e-06
3.9385552e-06
4.2872257e-06
4.421725e-06
4.6693701e-06
4.9149288e-06
5.9773751e-06
7.2338256e-06
7.7232386e-06
7.3393609e-06
6.9573525e-06
6.0500467e-07
9.3407299e-07
7.1331962e-07
4.0182515e-07
3.2641364e-07
4.6812255e-07
1.2831457e-06
2.4726106e-06
3.1191325e-06
3.3962448e-06
3.4111597e-06
3.2896214e-06
3.2936135e-06
3.4574863e-06
3.7463997e-06
3.8901019e-06
4.1569959e-06
4.5763403e-06
4.7301509e-06
4.8118815e-06
5.0166201e-06
5.110076e-06
6.1273499e-06
7.6125366e-06
7.7990575e-06
8.1314816e-06
8.2896321e-06
5.4772232e-07
8.6359359e-07
5.9898015e-07
3.3493954e-07
2.7141983e-07
4.9166592e-07
1.5477347e-06
2.5926213e-06
3.2679088e-06
3.5372076e-06
3.5376715e-06
3.4206027e-06
3.4288818e-06
3.6559628e-06
3.997562e-06
4.267483e-06
4.5806202e-06
4.9989077e-06
5.1177275e-06
5.2452366e-06
5.7447504e-06
5.8793753e-06
6.7569114e-06
7.8529203e-06
7.8695537e-06
8.6928357e-06
9.8024705e-06
5.3151249e-07
8.3875069e-07
5.0344536e-07
3.6708339e-07
4.0457296e-07
9.5548537e-07
1.5988386e-06
2.6522125e-06
3.332749e-06
3.6443245e-06
3.6694957e-06
3.6069859e-06
3.6305908e-06
3.9120952e-06
4.4464125e-06
4.6667987e-06
4.847323e-06
5.1002322e-06
5.2046585e-06
5.4970729e-06
6.2330319e-06
6.7188406e-06
7.717172e-06
8.8572481e-06
8.7358443e-06
9.462237e-06
1.043578e-05
5.3867588e-07
8.4569406e-07
6.5911371e-07
6.5967791e-07
6.0390352e-07
8.4262234e-07
1.6383802e-06
2.9027221e-06
3.5025479e-06
3.9941755e-06
4.0090203e-06
3.9143177e-06
4.0244683e-06
4.4455782e-06
5.2360475e-06
5.6083993e-06
5.5455107e-06
5.557458e-06
5.6616509e-06
6.0431773e-06
6.9877115e-06
7.6596713e-06
8.7374989e-06
1.0004287e-05
1.0158857e-05
1.0106829e-05
1.1520093e-05
5.6297255e-07
8.4494249e-07
9.2473575e-07
8.2190669e-07
4.9406575e-07
6.8181626e-07
1.6194177e-06
3.0163394e-06
3.9081246e-06
4.4326891e-06
4.514876e-06
4.4354023e-06
4.5727192e-06
4.9820831e-06
5.6953917e-06
6.0122228e-06
6.073858e-06
6.1910657e-06
6.0711479e-06
6.5383506e-06
7.472352e-06
8.2877487e-06
9.0430329e-06
1.0517915e-05
1.147093e-05
1.1235078e-05
1.2600265e-05
5.6711239e-07
7.822531e-07
8.6901351e-07
6.2365516e-07
6.3369695e-07
9.8512248e-07
1.5682367e-06
3.1376448e-06
4.3984264e-06
5.0210199e-06
4.8836612e-06
5.3853482e-06
5.4540922e-06
5.6989507e-06
6.295332e-06
6.8561876e-06
6.8729905e-06
6.9691546e-06
7.1662395e-06
7.7308655e-06
8.3347669e-06
8.5989491e-06
9.0068844e-06
1.1216239e-05
1.2846719e-05
1.3483945e-05
1.5640201e-05
5.0410519e-07
6.8625115e-07
6.1011001e-07
4.4229697e-07
4.5764496e-07
7.6861113e-07
1.4974905e-06
3.1308952e-06
3.9594308e-06
5.28903e-06
6.3979502e-06
6.4449164e-06
6.49075e-06
6.7977764e-06
7.5657271e-06
7.7768665e-06
7.7464699e-06
7.887731e-06
8.3341302e-06
9.1712637e-06
9.842912e-06
9.6608665e-06
9.8114719e-06
1.2058645e-05
1.4234542e-05
1.5600137e-05
1.9289652e-05
4.274098e-07
6.0760922e-07
7.10782e-07
4.4951937e-07
3.4531215e-07
4.6754117e-07
1.192216e-06
2.6824152e-06
4.242385e-06
6.1771518e-06
6.8874793e-06
6.8950635e-06
6.983233e-06
7.4657054e-06
8.443018e-06
8.9694087e-06
9.2639464e-06
9.8492525e-06
1.0405129e-05
1.0858216e-05
1.1220177e-05
1.1222464e-05
1.1372567e-05
1.2941195e-05
1.540575e-05
1.7087001e-05
2.2378386e-05
3.9745756e-07
5.7371552e-07
5.0686279e-07
3.2083405e-07
2.8454121e-07
5.3964563e-07
1.6516037e-06
3.5779224e-06
5.5121118e-06
6.5582591e-06
5.7687458e-06
5.7401781e-06
6.9445707e-06
7.5105711e-06
8.6950577e-06
1.0358601e-05
1.1526652e-05
1.204226e-05
1.2169884e-05
1.2574396e-05
1.2802819e-05
1.2967036e-05
1.3440219e-05
1.4910393e-05
1.6770213e-05
1.8496617e-05
2.3163477e-05
4.0603906e-07
5.7823567e-07
3.7158365e-07
3.6493417e-07
4.8118221e-07
1.0685438e-06
1.8685758e-06
3.9100054e-06
5.947579e-06
6.9130355e-06
7.2760052e-06
7.1736449e-06
7.3407284e-06
8.0574741e-06
9.4685492e-06
1.1820962e-05
1.3202416e-05
1.3377446e-05
1.2987913e-05
1.3831419e-05
1.4833877e-05
1.5795763e-05
1.6223921e-05
1.761396e-05
1.9069034e-05
2.0099055e-05
2.4178047e-05
4.4424097e-07
6.2252828e-07
4.608187e-07
5.626375e-07
6.4724268e-07
1.1583068e-06
2.1114908e-06
4.2686947e-06
6.4144662e-06
7.5939639e-06
8.1289514e-06
8.159771e-06
8.6429521e-06
9.9744674e-06
1.1847699e-05
1.3830552e-05
1.4508453e-05
1.4384733e-05
1.4008202e-05
1.487001e-05
1.6407287e-05
1.8476332e-05
2.0379145e-05
2.2366469e-05
2.3809813e-05
2.4215218e-05
2.7802029e-05
5.2591289e-07
6.5700472e-07
7.40071e-07
6.2176359e-07
6.6680212e-07
1.1978631e-06
2.4181277e-06
3.9600293e-06
5.3131339e-06
6.4051577e-06
6.371327e-06
6.0291566e-06
7.7405681e-06
1.1887227e-05
1.3641159e-05
1.4931438e-05
1.5116015e-05
1.508613e-05
1.5534005e-05
1.7185935e-05
1.9370634e-05
2.1405636e-05
2.4002736e-05
2.8159883e-05
3.3153946e-05
3.4331069e-05
3.5005281e-05
5.7852211e-07
6.2507136e-07
5.6706711e-07
7.5979672e-07
1.0099922e-06
1.4392173e-06
2.5901361e-06
5.31802e-06
7.3438554e-06
6.0351493e-06
5.6008974e-06
6.5024199e-06
9.3959927e-06
1.4064754e-05
1.5891314e-05
1.6763645e-05
1.653247e-05
1.6429792e-05
1.7103165e-05
1.9818467e-05
2.3512686e-05
2.6211081e-05
2.7549173e-05
3.0835575e-05
3.7958012e-05
4.383667e-05
4.3633009e-05
5.3395388e-07
5.6449866e-07
5.2508226e-07
6.2897385e-07
9.231878e-07
1.4220268e-06
2.5796923e-06
5.4151711e-06
7.6133612e-06
1.0705807e-05
1.3651728e-05
1.4371742e-05
1.281999e-05
1.3039528e-05
1.6374489e-05
2.1301078e-05
2.1025645e-05
2.0253181e-05
1.9976372e-05
2.2724181e-05
2.7222878e-05
3.004112e-05
3.272098e-05
3.4572664e-05
4.1582044e-05
4.8925133e-05
5.1597512e-05
4.6459135e-07
5.3378391e-07
6.0110959e-07
6.7514209e-07
8.6249676e-07
1.5072097e-06
2.8182458e-06
4.7535561e-06
7.1667979e-06
9.6796357e-06
1.0737673e-05
1.1422923e-05
1.5894423e-05
2.0091873e-05
2.3856795e-05
2.8252559e-05
2.9271697e-05
2.8393863e-05
2.6231417e-05
2.6945115e-05
3.0165306e-05
3.2586835e-05
3.470331e-05
3.8529746e-05
4.4385914e-05
5.0096998e-05
5.6453835e-05
4.3944018e-07
5.5074888e-07
4.684407e-07
4.8357732e-07
9.8560152e-07
1.8641022e-06
3.5633149e-06
7.3034456e-06
1.1631257e-05
1.0000568e-05
8.3208288e-06
8.5051309e-06
1.1852357e-05
1.923764e-05
2.7742569e-05
3.5419739e-05
4.0871804e-05
4.1955333e-05
4.0091857e-05
3.8593416e-05
3.9657604e-05
4.0517778e-05
4.3032595e-05
4.6256973e-05
5.0735091e-05
5.4325834e-05
6.0569101e-05
4.9465117e-07
5.9584754e-07
4.1166111e-07
7.4373438e-07
1.4488686e-06
2.4162779e-06
4.4946883e-06
8.4208128e-06
1.2071815e-05
1.3673043e-05
1.5005731e-05
1.6062023e-05
1.733103e-05
1.8991786e-05
2.283828e-05
3.1885271e-05
4.6028748e-05
5.0343087e-05
5.2254261e-05
5.4700531e-05
5.6354442e-05
5.5930362e-05
5.4442148e-05
5.3420208e-05
5.7891532e-05
6.4626047e-05
7.2136544e-05
7.1796132e-07
6.859407e-07
6.6999318e-07
9.0541558e-07
1.8339514e-06
3.0082472e-06
5.3955718e-06
8.3223943e-06
1.3117302e-05
1.4825293e-05
1.6578263e-05
1.7960071e-05
2.128004e-05
2.7171733e-05
3.4305542e-05
3.718551e-05
4.1148835e-05
5.4700154e-05
5.8333197e-05
6.632999e-05
7.4952738e-05
7.6394611e-05
7.0937407e-05
6.4124648e-05
6.3254673e-05
7.1495833e-05
8.6171851e-05
7.3528434e-07
9.1787675e-07
1.003554e-06
1.2395409e-06
2.4212882e-06
4.0909564e-06
5.5491731e-06
7.6420193e-06
9.9583079e-06
1.1973258e-05
1.3469689e-05
1.774173e-05
2.6705298e-05
3.3489391e-05
4.2558177e-05
5.4059259e-05
6.0359218e-05
5.533118e-05
6.3454916e-05
7.5512835e-05
8.4924905e-05
8.9938464e-05
8.5700473e-05
7.7411262e-05
7.3733239e-05
8.1353091e-05
9.7818355e-05
9.1915285e-07
9.1418427e-07
8.5375541e-07
1.7441542e-06
2.6448096e-06
4.643674e-06
8.5864352e-06
1.2051451e-05
1.1367954e-05
1.1256533e-05
1.21544e-05
1.5825387e-05
2.4365141e-05
4.3401163e-05
5.1793609e-05
6.2277203e-05
6.6988453e-05
7.0687445e-05
7.5207348e-05
8.2375184e-05
9.1986499e-05
0.00010199934
0.00010209542
9.7142948e-05
9.4150348e-05
0.00010308721
0.00012099813
8.9906047e-07
8.776924e-07
1.1678762e-06
1.7422961e-06
2.5434756e-06
4.2437595e-06
8.1686647e-06
1.5783038e-05
2.429171e-05
2.372768e-05
2.3734045e-05
2.4727978e-05
2.7490764e-05
3.5676679e-05
5.3173044e-05
7.4959699e-05
7.8401119e-05
8.2170652e-05
8.6702137e-05
9.3178328e-05
0.00010240094
0.00011422554
0.00011842264
0.00012009291
0.00012063469
0.00013606675
0.00015977774
8.0613721e-07
8.9774309e-07
1.3044914e-06
2.0031716e-06
2.9921009e-06
5.0000779e-06
8.1807885e-06
1.1040372e-05
1.706019e-05
3.1015032e-05
4.5812112e-05
5.4236082e-05
4.8483335e-05
4.2379058e-05
4.6563734e-05