/*--------------------------------*- C++ -*----------------------------------*\
| =========                 |                                                 |
| \\      /  F ield         | OpenFOAM: The Open Source CFD Toolbox           |
|  \\    /   O peration     | Version:  2406                                  |
|   \\  /    A nd           | Website:  www.openfoam.com                      |
|    \\/     M anipulation  |                                                 |
\*---------------------------------------------------------------------------*/
FoamFile
{
    version     2.0;
    format      ascii;
    arch        "LSB;label=32;scalar=64";
    class       volScalarField;
    location    "10";
    object      alphat;
}
// * * * * * * * * * * * * * * * * * * * * * * * * * * * * * * * * * * * * * //

dimensions      [1 -1 -1 0 0 0 0];

internalField   nonuniform List<scalar> 
30397
(
8.3513844e-07
8.3748283e-07
8.3730993e-07
8.3755041e-07
8.3690806e-07
8.3627474e-07
8.350674e-07
8.3455245e-07
8.3581545e-07
8.3708369e-07
8.3690375e-07
8.3638204e-07
8.3612707e-07
8.353959e-07
8.3464418e-07
8.3400322e-07
8.3230292e-07
8.305649e-07
8.3066032e-07
8.3174538e-07
8.3208579e-07
8.3223941e-07
8.3249656e-07
8.3223022e-07
8.3176057e-07
8.3150425e-07
8.3189161e-07
8.3281881e-07
8.335622e-07
8.3431126e-07
8.3524464e-07
8.3625837e-07
8.3732468e-07
8.3837485e-07
8.3937386e-07
8.4026445e-07
8.411026e-07
8.419766e-07
8.4297104e-07
8.4410105e-07
8.4513161e-07
8.459358e-07
8.4654846e-07
8.469802e-07
8.4729174e-07
8.4750304e-07
8.4733945e-07
8.314859e-07
8.3204317e-07
8.3074268e-07
8.3041003e-07
8.2894213e-07
8.260246e-07
8.2196301e-07
8.2006728e-07
8.2203484e-07
8.268692e-07
8.2983384e-07
8.3032371e-07
8.287945e-07
8.2620148e-07
8.2383875e-07
8.2122064e-07
8.1742084e-07
8.1497012e-07
8.1539982e-07
8.175561e-07
8.2015581e-07
8.2282066e-07
8.2522418e-07
8.2552599e-07
8.2520931e-07
8.2495192e-07
8.2509526e-07
8.2563809e-07
8.2662714e-07
8.2812013e-07
8.3031501e-07
8.3285945e-07
8.3518829e-07
8.3707048e-07
8.3845119e-07
8.3962527e-07
8.4102949e-07
8.4268871e-07
8.4433009e-07
8.4566823e-07
8.4653913e-07
8.4685846e-07
8.4669406e-07
8.4613151e-07
8.4520705e-07
8.4370077e-07
8.420249e-07
8.2809967e-07
8.2878136e-07
8.2713557e-07
8.2700967e-07
8.2602183e-07
8.2245252e-07
8.1687632e-07
8.1396155e-07
8.1565948e-07
8.2125557e-07
8.265978e-07
8.2759475e-07
8.2578318e-07
8.2382036e-07
8.2101001e-07
8.1797569e-07
8.1361877e-07
8.1107699e-07
8.12896e-07
8.1692425e-07
8.21096e-07
8.2443758e-07
8.270734e-07
8.2767098e-07
8.270156e-07
8.2612472e-07
8.2601188e-07
8.2625394e-07
8.2728344e-07
8.2938893e-07
8.3248527e-07
8.3599648e-07
8.3917642e-07
8.4160238e-07
8.4304959e-07
8.438925e-07
8.4461654e-07
8.4525029e-07
8.4530529e-07
8.4459319e-07
8.4325736e-07
8.4179346e-07
8.4072258e-07
8.4015017e-07
8.3972619e-07
8.3915819e-07
8.3852577e-07
8.2984582e-07
8.2905043e-07
8.2520494e-07
8.2446595e-07
8.2306309e-07
8.1916008e-07
8.1401e-07
8.1142001e-07
8.1269341e-07
8.1844011e-07
8.2388438e-07
8.2529485e-07
8.252931e-07
8.2330927e-07
8.1844875e-07
8.1552802e-07
8.1332044e-07
8.1237605e-07
8.1509463e-07
8.1856238e-07
8.2099085e-07
8.229961e-07
8.2495868e-07
8.2670261e-07
8.2763916e-07
8.2922095e-07
8.309471e-07
8.3182231e-07
8.3291504e-07
8.34733e-07
8.3711661e-07
8.3952875e-07
8.4129861e-07
8.4178496e-07
8.4103212e-07
8.398182e-07
8.3863322e-07
8.3752158e-07
8.3627903e-07
8.3487736e-07
8.3369574e-07
8.3304795e-07
8.3334815e-07
8.3462247e-07
8.3623921e-07
8.3748156e-07
8.3810342e-07
8.2598768e-07
8.2674836e-07
8.215599e-07
8.1974874e-07
8.1769004e-07
8.1370254e-07
8.0876405e-07
8.06075e-07
8.0725986e-07
8.1190949e-07
8.1646377e-07
8.1994506e-07
8.2132849e-07
8.1694347e-07
8.1114754e-07
8.0939086e-07
8.0829534e-07
8.075786e-07
8.0979524e-07
8.1197911e-07
8.1384778e-07
8.160164e-07
8.1805689e-07
8.2163789e-07
8.247999e-07
8.2809997e-07
8.2951438e-07
8.2992341e-07
8.3033101e-07
8.3076091e-07
8.3182195e-07
8.3295771e-07
8.3298211e-07
8.3162385e-07
8.2959454e-07
8.2773998e-07
8.2633682e-07
8.2546279e-07
8.2512228e-07
8.253434e-07
8.2612342e-07
8.2709269e-07
8.2792162e-07
8.2882462e-07
8.2964262e-07
8.3008819e-07
8.3032223e-07
8.2170931e-07
8.1929306e-07
8.1496183e-07
8.1242151e-07
8.0988322e-07
8.0657943e-07
8.019432e-07
7.9853339e-07
7.9864736e-07
8.0136829e-07
8.057129e-07
8.1096405e-07
8.1076422e-07
8.0528367e-07
8.0118569e-07
8.0023004e-07
7.9942189e-07
8.0018701e-07
8.0221437e-07
8.0314716e-07
8.0564279e-07
8.0840789e-07
8.1139749e-07
8.1709338e-07
8.215454e-07
8.2415858e-07
8.2386965e-07
8.2374283e-07
8.2396433e-07
8.239439e-07
8.2399616e-07
8.2293473e-07
8.2037454e-07
8.1728204e-07
8.1456395e-07
8.130389e-07
8.1285779e-07
8.1390668e-07
8.156388e-07
8.1724861e-07
8.1850349e-07
8.1911599e-07
8.1882046e-07
8.1819573e-07
8.1751209e-07
8.1692955e-07
8.1686135e-07
8.1868027e-07
8.0948401e-07
8.0696536e-07
8.0446762e-07
8.0155872e-07
7.9875219e-07
7.9499135e-07
7.9141603e-07
7.8974602e-07
7.909778e-07
7.9512997e-07
7.9894788e-07
7.9862756e-07
7.9484528e-07
7.9138645e-07
7.9051161e-07
7.9156488e-07
7.941391e-07
7.9665325e-07
7.9905246e-07
8.0290132e-07
8.0558002e-07
8.1050663e-07
8.1641288e-07
8.1869062e-07
8.1832717e-07
8.1612873e-07
8.1539763e-07
8.1456696e-07
8.1337646e-07
8.1135778e-07
8.075897e-07
8.0349743e-07
8.0081727e-07
8.0031759e-07
8.01575e-07
8.0351963e-07
8.0518771e-07
8.0626858e-07
8.0645708e-07
8.0586987e-07
8.0494064e-07
8.0382706e-07
8.0293749e-07
8.0252561e-07
8.0275468e-07
8.0351596e-07
8.1611473e-07
8.0270578e-07
7.9983331e-07
7.9697564e-07
7.9372918e-07
7.9197917e-07
7.8981878e-07
7.8684317e-07
7.8443345e-07
7.8470351e-07
7.87239e-07
7.8894273e-07
7.8953027e-07
7.8643537e-07
7.8321154e-07
7.8411172e-07
7.8807338e-07
7.9131622e-07
7.9419407e-07
7.9919332e-07
8.0487736e-07
8.0780294e-07
8.118743e-07
8.144144e-07
8.1139929e-07
8.0837477e-07
8.0560256e-07
8.0324156e-07
8.0001942e-07
7.9718971e-07
7.9376758e-07
7.8961083e-07
7.8687693e-07
7.8651166e-07
7.8771846e-07
7.8897562e-07
7.8920864e-07
7.8843086e-07
7.8678998e-07
7.8472759e-07
7.8289597e-07
7.8165861e-07
7.8110965e-07
7.8101662e-07
7.8122744e-07
7.8199684e-07
7.8274583e-07
8.159734e-07
7.9816145e-07
7.9377859e-07
7.9179793e-07
7.8823274e-07
7.8658059e-07
7.8600384e-07
7.849655e-07
7.8231758e-07
7.8057397e-07
7.8056866e-07
7.8146382e-07
7.8189252e-07
7.7814564e-07
7.7699672e-07
7.7948789e-07
7.8432619e-07
7.8847229e-07
7.9220188e-07
7.9891908e-07
8.0568487e-07
8.0840236e-07
8.0825539e-07
8.0477516e-07
7.9969349e-07
7.9605382e-07
7.9041432e-07
7.8411366e-07
7.7884452e-07
7.7604394e-07
7.7317708e-07
7.7032269e-07
7.6944879e-07
7.7009077e-07
7.7054613e-07
7.6977924e-07
7.6790953e-07
7.6553432e-07
7.6281058e-07
7.6027874e-07
7.5821116e-07
7.5679776e-07
7.5616692e-07
7.5595363e-07
7.5613013e-07
7.5654774e-07
7.5719452e-07
8.1532569e-07
7.9318909e-07
7.8874513e-07
7.8687259e-07
7.8421662e-07
7.8260902e-07
7.8260907e-07
7.8311369e-07
7.8134871e-07
7.7835472e-07
7.7596712e-07
7.7508783e-07
7.728554e-07
7.6972072e-07
7.7068397e-07
7.7410755e-07
7.7829441e-07
7.8255402e-07
7.8771979e-07
7.9617662e-07
8.0255396e-07
8.0174126e-07
7.9663561e-07
7.9064014e-07
7.8542813e-07
7.7909945e-07
7.7029938e-07
7.6277303e-07
7.5785797e-07
7.5601286e-07
7.5530612e-07
7.5485138e-07
7.5481087e-07
7.5444079e-07
7.5343002e-07
7.519181e-07
7.499791e-07
7.4781413e-07
7.4572453e-07
7.4373221e-07
7.420493e-07
7.4078175e-07
7.4016779e-07
7.3993961e-07
7.4000287e-07
7.4033455e-07
7.4076383e-07
8.1329232e-07
7.8603573e-07
7.845037e-07
7.8256593e-07
7.7988739e-07
7.7811612e-07
7.7858809e-07
7.8078945e-07
7.8074297e-07
7.7663641e-07
7.7255862e-07
7.690294e-07
7.6431541e-07
7.6266101e-07
7.6422183e-07
7.6738135e-07
7.7175914e-07
7.7645404e-07
7.8271639e-07
7.9159675e-07
7.9466204e-07
7.9039088e-07
7.8475639e-07
7.7922557e-07
7.7293909e-07
7.6376833e-07
7.5370117e-07
7.4733482e-07
7.4485694e-07
7.458372e-07
7.4744371e-07
7.4746341e-07
7.4608501e-07
7.4442957e-07
7.4312576e-07
7.4254419e-07
7.4248125e-07
7.4228389e-07
7.4156408e-07
7.404405e-07
7.3936416e-07
7.3871464e-07
7.3857054e-07
7.3893028e-07
7.3952204e-07
7.4030149e-07
7.4071642e-07
8.1195771e-07
7.7922252e-07
7.7813256e-07
7.7789142e-07
7.7582841e-07
7.73499e-07
7.7384408e-07
7.7735451e-07
7.7905955e-07
7.7543564e-07
7.6997397e-07
7.6371459e-07
7.5834252e-07
7.5786288e-07
7.5834224e-07
7.6042924e-07
7.6603179e-07
7.7245353e-07
7.7807621e-07
7.8470478e-07
7.8538132e-07
7.8148383e-07
7.7774531e-07
7.7287007e-07
7.6489815e-07
7.5505542e-07
7.4686994e-07
7.4374369e-07
7.4483511e-07
7.4738371e-07
7.4779716e-07
7.4621928e-07
7.4437121e-07
7.4376481e-07
7.4495329e-07
7.4766567e-07
7.5029659e-07
7.5145023e-07
7.516027e-07
7.5165872e-07
7.5230825e-07
7.5336766e-07
7.5455631e-07
7.5598787e-07
7.5747386e-07
7.5891359e-07
7.601425e-07
8.1130431e-07
7.7421038e-07
7.7122519e-07
7.7211418e-07
7.7178699e-07
7.694361e-07
7.6872229e-07
7.7194622e-07
7.7457715e-07
7.7249285e-07
7.674876e-07
7.6012201e-07
7.5542526e-07
7.5474142e-07
7.5368695e-07
7.5598643e-07
7.6250723e-07
7.6872405e-07
7.7338379e-07
7.7914445e-07
7.8117076e-07
7.7967319e-07
7.7664719e-07
7.7027922e-07
7.6144321e-07
7.5387349e-07
7.4967096e-07
7.5002913e-07
7.5255654e-07
7.5346189e-07
7.5222951e-07
7.5104181e-07
7.5165816e-07
7.5473452e-07
7.5968182e-07
7.6485892e-07
7.6839762e-07
7.7020934e-07
7.715219e-07
7.734158e-07
7.7617236e-07
7.7932673e-07
7.8224213e-07
7.8478243e-07
7.8702443e-07
7.8887851e-07
7.9049189e-07
8.1008992e-07
7.6891734e-07
7.6574989e-07
7.6752756e-07
7.6788191e-07
7.6593065e-07
7.6471877e-07
7.6653365e-07
7.6932138e-07
7.6950232e-07
7.6596076e-07
7.5936746e-07
7.5534634e-07
7.5331872e-07
7.5187676e-07
7.5524774e-07
7.6174864e-07
7.6697389e-07
7.7372124e-07
7.8181305e-07
7.8447135e-07
7.8281857e-07
7.7860408e-07
7.7064998e-07
7.6313026e-07
7.5991546e-07
7.6055474e-07
7.6250911e-07
7.6349559e-07
7.633243e-07
7.6317354e-07
7.6507248e-07
7.6924184e-07
7.7483765e-07
7.8089966e-07
7.8575736e-07
7.8838783e-07
7.8953425e-07
7.9116658e-07
7.9428348e-07
7.9886596e-07
8.0394125e-07
8.0838e-07
8.120041e-07
8.1488815e-07
8.1693505e-07
8.1843166e-07
8.0422973e-07
7.6359492e-07
7.6254174e-07
7.6506563e-07
7.6497594e-07
7.6299798e-07
7.6177104e-07
7.6290337e-07
7.6598257e-07
7.6746947e-07
7.6558312e-07
7.6133103e-07
7.5834173e-07
7.5534729e-07
7.5379744e-07
7.5755435e-07
7.6340103e-07
7.7032897e-07
7.8199642e-07
7.913639e-07
7.9206229e-07
7.8874395e-07
7.8290914e-07
7.7493265e-07
7.7121987e-07
7.7211452e-07
7.7506213e-07
7.7584523e-07
7.7589592e-07
7.7692779e-07
7.7910161e-07
7.8291562e-07
7.8784396e-07
7.9316956e-07
7.9804585e-07
8.0124414e-07
8.0250706e-07
8.0326235e-07
8.0536387e-07
8.0932751e-07
8.150661e-07
8.219698e-07
8.2888651e-07
8.3449864e-07
8.382259e-07
8.4044604e-07
8.4183446e-07
7.9928863e-07
7.6141531e-07
7.6143453e-07
7.6451303e-07
7.6425759e-07
7.6247929e-07
7.610352e-07
7.6187666e-07
7.6499519e-07
7.6738014e-07
7.6705832e-07
7.6527949e-07
7.6365835e-07
7.6067617e-07
7.5907864e-07
7.6290055e-07
7.692299e-07
7.7918063e-07
7.9319202e-07
8.0119782e-07
8.0076836e-07
7.9612598e-07
7.8932858e-07
7.8348994e-07
7.8370977e-07
7.8646567e-07
7.8796789e-07
7.8678093e-07
7.8650844e-07
7.8877222e-07
7.9220968e-07
7.9599824e-07
7.9997805e-07
8.0399109e-07
8.0726026e-07
8.08876e-07
8.0958908e-07
8.1075016e-07
8.136137e-07
8.1828466e-07
8.2398475e-07
8.2943311e-07
8.3426181e-07
8.3900407e-07
8.4314468e-07
8.4713815e-07
8.5065576e-07
7.9454507e-07
7.6411164e-07
7.6277267e-07
7.6563205e-07
7.6617523e-07
7.6476818e-07
7.6323963e-07
7.6354516e-07
7.6568759e-07
7.6803966e-07
7.6984917e-07
7.7058138e-07
7.7028529e-07
7.6779802e-07
7.6655422e-07
7.707526e-07
7.7812278e-07
7.893273e-07
8.018118e-07
8.0833937e-07
8.086261e-07
8.0391364e-07
7.9816805e-07
7.9403546e-07
7.9438139e-07
7.9458394e-07
7.9349541e-07
7.9231572e-07
7.9315421e-07
7.9652107e-07
8.0045189e-07
8.0370767e-07
8.0678665e-07
8.0968973e-07
8.1170374e-07
8.1228336e-07
8.1258254e-07
8.1368376e-07
8.1606107e-07
8.1932882e-07
8.226901e-07
8.2547898e-07
8.2753878e-07
8.294729e-07
8.3184278e-07
8.3521997e-07
8.3941211e-07
7.9412939e-07
7.7100851e-07
7.6681924e-07
7.685261e-07
7.6957691e-07
7.687788e-07
7.6720162e-07
7.6691675e-07
7.6765079e-07
7.6981359e-07
7.7369671e-07
7.7685809e-07
7.778973e-07
7.7634794e-07
7.7626377e-07
7.8071192e-07
7.8757714e-07
7.9748586e-07
8.0779388e-07
8.1448552e-07
8.149879e-07
8.1066857e-07
8.0578212e-07
8.0086727e-07
7.9851708e-07
7.9539881e-07
7.9370371e-07
7.947871e-07
7.969765e-07
8.0071758e-07
8.0435933e-07
8.0597874e-07
8.0716181e-07
8.0849071e-07
8.0945785e-07
8.0941091e-07
8.0875308e-07
8.0816014e-07
8.0866128e-07
8.1003113e-07
8.117285e-07
8.1345382e-07
8.1516722e-07
8.1742166e-07
8.2042312e-07
8.2452557e-07
8.2924816e-07
7.9735908e-07
7.7782681e-07
7.7122515e-07
7.72759e-07
7.7427283e-07
7.7362089e-07
7.7166126e-07
7.7030863e-07
7.7015021e-07
7.7296003e-07
7.7866085e-07
7.8377138e-07
7.8558408e-07
7.8480834e-07
7.8578811e-07
7.8943855e-07
7.9450119e-07
8.0285521e-07
8.1334556e-07
8.1983411e-07
8.1796332e-07
8.1253513e-07
8.0699484e-07
8.0092129e-07
7.9729202e-07
7.9366395e-07
7.9390434e-07
7.9717416e-07
8.0002967e-07
8.0232735e-07
8.027732e-07
8.0175249e-07
8.0098282e-07
8.0104037e-07
8.0109292e-07
7.9984717e-07
7.9785952e-07
7.9621716e-07
7.9615055e-07
7.9774896e-07
8.0040642e-07
8.0344058e-07
8.0648707e-07
8.0949556e-07
8.1275056e-07
8.165739e-07
8.2003801e-07
8.0988803e-07
7.8287064e-07
7.7499474e-07
7.7730766e-07
7.7969142e-07
7.7862199e-07
7.7566338e-07
7.7313543e-07
7.7299559e-07
7.7717997e-07
7.8379335e-07
7.89975e-07
7.9200363e-07
7.911694e-07
7.9228506e-07
7.9478996e-07
7.9854864e-07
8.0658638e-07
8.1787449e-07
8.2237063e-07
8.159189e-07
8.0818588e-07
8.0230763e-07
7.9685026e-07
7.9424457e-07
7.9279902e-07
7.9520144e-07
7.9903138e-07
7.9991954e-07
7.9773022e-07
7.9466663e-07
7.9257125e-07
7.9184334e-07
7.9165261e-07
7.910387e-07
7.8929325e-07
7.8745354e-07
7.8675159e-07
7.883156e-07
7.9178451e-07
7.9612245e-07
8.0023287e-07
8.0347032e-07
8.0554143e-07
8.0684082e-07
8.0788751e-07
8.0805303e-07
8.1544969e-07
7.8540564e-07
7.7830557e-07
7.8059722e-07
7.8424481e-07
7.8287745e-07
7.7880969e-07
7.7541302e-07
7.757059e-07
7.8092893e-07
7.8789492e-07
7.9394152e-07
7.9549718e-07
7.9414863e-07
7.9467431e-07
7.9679979e-07
8.0096711e-07
8.0976177e-07
8.1994707e-07
8.2039707e-07
8.0948876e-07
8.0095052e-07
7.9643332e-07
7.9278422e-07
7.9159358e-07
7.9211583e-07
7.9537189e-07
7.9715055e-07
7.936432e-07
7.8761974e-07
7.8372789e-07
7.8292791e-07
7.8355942e-07
7.8411934e-07
7.8432123e-07
7.8376561e-07
7.8349995e-07
7.8445103e-07
7.8729007e-07
7.9155439e-07
7.9595908e-07
7.9914624e-07
8.0002637e-07
7.9901808e-07
7.9737776e-07
7.9583304e-07
7.9407715e-07
8.1729368e-07
7.8534705e-07
7.8046183e-07
7.8261214e-07
7.8716511e-07
7.8579954e-07
7.8085025e-07
7.7673731e-07
7.7775724e-07
7.8367847e-07
7.9019011e-07
7.9525017e-07
7.9590667e-07
7.9368765e-07
7.9358527e-07
7.969674e-07
8.0327038e-07
8.122769e-07
8.1864e-07
8.1451563e-07
8.0175051e-07
7.9575453e-07
7.9370319e-07
7.9022652e-07
7.8880125e-07
7.8990536e-07
7.9270838e-07
7.9104274e-07
7.8457804e-07
7.7786253e-07
7.7534614e-07
7.7683093e-07
7.7987517e-07
7.8227552e-07
7.8338094e-07
7.8309451e-07
7.8344347e-07
7.8555035e-07
7.8863483e-07
7.920381e-07
7.9440054e-07
7.9446346e-07
7.9205811e-07
7.8882256e-07
7.8593054e-07
7.8360167e-07
7.8142776e-07
8.1842728e-07
7.8354977e-07
7.8060262e-07
7.8324394e-07
7.8836501e-07
7.8728804e-07
7.8164875e-07
7.7733308e-07
7.7887701e-07
7.8479601e-07
7.9031832e-07
7.9398952e-07
7.9354615e-07
7.9084053e-07
7.9153226e-07
7.9704972e-07
8.0564126e-07
8.1272883e-07
8.1482758e-07
8.0745527e-07
7.9607136e-07
7.9414493e-07
7.9283731e-07
7.8802072e-07
7.8555002e-07
7.8631849e-07
7.8779722e-07
7.8332294e-07
7.762715e-07
7.7151242e-07
7.7188263e-07
7.7563075e-07
7.7999771e-07
7.8261525e-07
7.8319746e-07
7.8285401e-07
7.8377813e-07
7.8595898e-07
7.8792299e-07
7.8897129e-07
7.8863752e-07
7.8633419e-07
7.8260741e-07
7.7871609e-07
7.7560584e-07
7.7354451e-07
7.7236523e-07
8.1882196e-07
7.8121758e-07
7.7839721e-07
7.8186337e-07
7.8773234e-07
7.8724164e-07
7.8123519e-07
7.7741708e-07
7.7882431e-07
7.8421613e-07
7.88945e-07
7.9128992e-07
7.900929e-07
7.8776879e-07
7.9044835e-07
7.9785778e-07
8.0644245e-07
8.1040159e-07
8.0985617e-07
8.0123189e-07
7.9339684e-07
7.9361277e-07
7.9080907e-07
7.8449106e-07
7.8274576e-07
7.8363152e-07
7.8290274e-07
7.7645209e-07
7.7095456e-07
7.6960606e-07
7.7182481e-07
7.7630418e-07
7.8057211e-07
7.8240043e-07
7.8216632e-07
7.8193671e-07
7.8307739e-07
7.8430916e-07
7.8457083e-07
7.8369934e-07
7.8151146e-07
7.7801711e-07
7.7405139e-07
7.7081356e-07
7.6908868e-07
7.6893395e-07
7.7014693e-07
8.1891204e-07
7.7936789e-07
7.7462022e-07
7.7886196e-07
7.8567643e-07
7.860327e-07
7.8036574e-07
7.7701867e-07
7.7777031e-07
7.8260692e-07
7.8668905e-07
7.8818961e-07
7.8664374e-07
7.8571125e-07
7.9050814e-07
7.9845291e-07
8.0500563e-07
8.0657529e-07
8.0469185e-07
7.9713446e-07
7.9253568e-07
7.9178506e-07
7.8649995e-07
7.8172373e-07
7.816772e-07
7.8196417e-07
7.7866168e-07
7.7159244e-07
7.6875384e-07
7.6935134e-07
7.720796e-07
7.7631144e-07
7.7998122e-07
7.8129949e-07
7.8140344e-07
7.8186927e-07
7.8288294e-07
7.8283456e-07
7.8128623e-07
7.7866682e-07
7.7530397e-07
7.7177609e-07
7.6904913e-07
7.6787221e-07
7.6863905e-07
7.7067841e-07
7.7383706e-07
8.1889557e-07
7.7824253e-07
7.7009053e-07
7.7513235e-07
7.826753e-07
7.8408845e-07
7.7944428e-07
7.7652981e-07
7.7639951e-07
7.8060945e-07
7.8400045e-07
7.8474342e-07
7.8365471e-07
7.8481549e-07
7.9089257e-07
7.9783369e-07
8.020222e-07
8.0250916e-07
8.0045449e-07
7.9466539e-07
7.91375e-07
7.8798086e-07
7.833865e-07
7.8149454e-07
7.8174276e-07
7.8024604e-07
7.7534699e-07
7.6895422e-07
7.6784732e-07
7.6907383e-07
7.7199608e-07
7.7637508e-07
7.8027297e-07
7.8226358e-07
7.8296431e-07
7.8308961e-07
7.8273326e-07
7.8122734e-07
7.7834533e-07
7.7495397e-07
7.7177014e-07
7.6933469e-07
7.6841832e-07
7.6936956e-07
7.718788e-07
7.7502941e-07
7.7876966e-07
8.190158e-07
7.7840041e-07
7.6553958e-07
7.711355e-07
7.790695e-07
7.8157924e-07
7.7854704e-07
7.761273e-07
7.7534539e-07
7.7865069e-07
7.8102087e-07
7.813287e-07
7.8145098e-07
7.8450678e-07
7.9078648e-07
7.9589897e-07
7.9866417e-07
7.9900432e-07
7.9700637e-07
7.9237254e-07
7.8877338e-07
7.8500424e-07
7.8353667e-07
7.8304119e-07
7.8112592e-07
7.7798171e-07
7.7266341e-07
7.6732176e-07
7.6764074e-07
7.6971188e-07
7.7351078e-07
7.7881241e-07
7.836542e-07
7.8571301e-07
7.8519395e-07
7.8343118e-07
7.8144291e-07
7.7896264e-07
7.7574875e-07
7.7282867e-07
7.70715e-07
7.6968118e-07
7.701564e-07
7.7229466e-07
7.7584191e-07
7.7954605e-07
7.8334184e-07
8.1923065e-07
7.79286e-07
7.6135688e-07
7.6697234e-07
7.7513106e-07
7.786437e-07
7.7759547e-07
7.7564882e-07
7.74565e-07
7.7690156e-07
7.7801038e-07
7.7816396e-07
7.7992224e-07
7.8405381e-07
7.8962297e-07
7.93349e-07
7.9577349e-07
7.9601146e-07
7.9326525e-07
7.8910742e-07
7.8585181e-07
7.8439954e-07
7.8619736e-07
7.8431452e-07
7.7897651e-07
7.7487893e-07
7.7036006e-07
7.6725194e-07
7.6961536e-07
7.7279551e-07
7.7775373e-07
7.8377187e-07
7.8811901e-07
7.8816894e-07
7.8476227e-07
7.8124365e-07
7.7851624e-07
7.76101e-07
7.7376353e-07
7.7196546e-07
7.7109593e-07
7.7118243e-07
7.7269124e-07
7.7612279e-07
7.8039411e-07
7.8407518e-07
7.8738039e-07
8.1854507e-07
7.8024316e-07
7.5806292e-07
7.6287216e-07
7.7118566e-07
7.7571994e-07
7.7653053e-07
7.7485478e-07
7.7370825e-07
7.7556453e-07
7.7556562e-07
7.7555913e-07
7.78598e-07
7.8285534e-07
7.8733689e-07
7.9082579e-07
7.9366259e-07
7.9276716e-07
7.8884072e-07
7.8538029e-07
7.8404528e-07
7.8643655e-07
7.8917397e-07
7.8379627e-07
7.7577868e-07
7.7192902e-07
7.6949129e-07
7.6910474e-07
7.7339587e-07
7.7787388e-07
7.8383182e-07
7.8897859e-07
7.9046923e-07
7.8717825e-07
7.8190387e-07
7.7774983e-07
7.7544022e-07
7.7429111e-07
7.7369376e-07
7.7332192e-07
7.7360697e-07
7.7475916e-07
7.7720264e-07
7.80864e-07
7.8469943e-07
7.8781753e-07
7.9040939e-07
8.1731302e-07
7.8044363e-07
7.5661665e-07
7.5931521e-07
7.675302e-07
7.7284776e-07
7.7500675e-07
7.7379437e-07
7.7288915e-07
7.7471541e-07
7.7417796e-07
7.7362984e-07
7.7689654e-07
7.8088765e-07
7.8470412e-07
7.8891503e-07
7.9187478e-07
7.8928042e-07
7.8461133e-07
7.8258649e-07
7.8434035e-07
7.8918101e-07
7.9000356e-07
7.8147134e-07
7.7249554e-07
7.7039298e-07
7.7073543e-07
7.7300701e-07
7.7859845e-07
7.8383346e-07
7.8910084e-07
7.9125712e-07
7.8938583e-07
7.8411973e-07
7.7841973e-07
7.7504916e-07
7.7465796e-07
7.7580278e-07
7.7678652e-07
7.7744981e-07
7.784176e-07
7.7983214e-07
7.8210236e-07
7.8519628e-07
7.8822574e-07
7.9061988e-07
7.9265267e-07
8.156032e-07
7.8090839e-07
7.5825257e-07
7.5671991e-07
7.642009e-07
7.7014497e-07
7.734576e-07
7.7275934e-07
7.724654e-07
7.7441136e-07
7.7346373e-07
7.7205939e-07
7.7488275e-07
7.7826612e-07
7.8222695e-07
7.8780287e-07
7.8990024e-07
7.8595834e-07
7.8156585e-07
7.8168824e-07
7.8616368e-07
7.9048458e-07
7.8824916e-07
7.7806448e-07
7.7032158e-07
7.7044783e-07
7.7385622e-07
7.7828336e-07
7.8417376e-07
7.8842067e-07
7.9086655e-07
7.8985151e-07
7.8629126e-07
7.80875e-07
7.7630936e-07
7.7534278e-07
7.7740944e-07
7.8008928e-07
7.8196782e-07
7.8326619e-07
7.8414834e-07
7.8471561e-07
7.8603052e-07
7.883334e-07
7.9099719e-07
7.9312855e-07
7.9441097e-07
8.1412292e-07
7.8239795e-07
7.6146044e-07
7.5501034e-07
7.611122e-07
7.6756941e-07
7.7175267e-07
7.7183536e-07
7.723341e-07
7.7440236e-07
7.7320225e-07
7.710401e-07
7.7300148e-07
7.7553251e-07
7.8038583e-07
7.8685898e-07
7.8748541e-07
7.8293011e-07
7.8023562e-07
7.8280385e-07
7.8809718e-07
7.8940752e-07
7.8461755e-07
7.7468228e-07
7.6936503e-07
7.7224411e-07
7.7871885e-07
7.843234e-07
7.8850797e-07
7.9016812e-07
7.8986098e-07
7.8712616e-07
7.832573e-07
7.7912953e-07
7.7702797e-07
7.7828161e-07
7.8182366e-07
7.8518918e-07
7.8735043e-07
7.8825875e-07
7.8841676e-07
7.8854899e-07
7.896169e-07
7.916662e-07
7.9393802e-07
7.9525836e-07
7.9572593e-07
8.1703055e-07
7.8537562e-07
7.6467297e-07
7.5402531e-07
7.5826791e-07
7.6497415e-07
7.6983548e-07
7.7076856e-07
7.7204937e-07
7.7450334e-07
7.7326482e-07
7.7071329e-07
7.7152703e-07
7.7327737e-07
7.791649e-07
7.8555045e-07
7.8463327e-07
7.8068271e-07
7.8046325e-07
7.8511344e-07
7.891249e-07
7.8649224e-07
7.8064104e-07
7.7187844e-07
7.7019993e-07
7.7582831e-07
7.8435259e-07
7.8914797e-07
7.9030991e-07
7.8929488e-07
7.8752341e-07
7.8461111e-07
7.8190841e-07
7.8001994e-07
7.7986342e-07
7.8244511e-07
7.8663034e-07
7.8999238e-07
7.91248e-07
7.9145203e-07
7.9155819e-07
7.9113266e-07
7.9174626e-07
7.9357357e-07
7.9532401e-07
7.9607206e-07
7.9640854e-07
8.2092519e-07
7.9222682e-07
7.6706528e-07
7.5354752e-07
7.5596583e-07
7.6271324e-07
7.6772867e-07
7.6944421e-07
7.7163493e-07
7.7482374e-07
7.7350853e-07
7.7066378e-07
7.7039159e-07
7.7199875e-07
7.7857186e-07
7.8413593e-07
7.8201978e-07
7.795578e-07
7.8159207e-07
7.8750092e-07
7.888496e-07
7.8334369e-07
7.7712486e-07
7.7071688e-07
7.7250537e-07
7.802264e-07
7.888628e-07
7.9122606e-07
7.8965441e-07
7.8747507e-07
7.8544504e-07
7.8364811e-07
7.8265822e-07
7.8198461e-07
7.8314041e-07
7.8673837e-07
7.9087004e-07
7.9329517e-07
7.9399568e-07
7.9408317e-07
7.9260465e-07
7.9154244e-07
7.9193294e-07
7.937233e-07
7.9548116e-07
7.9658071e-07
7.9767306e-07
8.2621996e-07
7.992977e-07
7.7161767e-07
7.5409988e-07
7.5441937e-07
7.6076928e-07
7.6606641e-07
7.682966e-07
7.716205e-07
7.7523699e-07
7.7358871e-07
7.7065934e-07
7.6975123e-07
7.7147717e-07
7.7844462e-07
7.8285917e-07
7.8017435e-07
7.7952164e-07
7.8305138e-07
7.8883264e-07
7.8734402e-07
7.8041224e-07
7.7494545e-07
7.7126832e-07
7.7562961e-07
7.8388984e-07
7.9093169e-07
7.9075069e-07
7.8825545e-07
7.8582281e-07
7.8468897e-07
7.8456155e-07
7.8450793e-07
7.8498281e-07
7.8706836e-07
7.9084325e-07
7.9443157e-07
7.9637452e-07
7.9670271e-07
7.9505619e-07
7.9242002e-07
7.9075234e-07
7.9134528e-07
7.9368514e-07
7.9636107e-07
7.9873788e-07
8.0154454e-07
8.3276007e-07
8.0475873e-07
7.7629362e-07
7.5482129e-07
7.5325016e-07
7.5941704e-07
7.6481024e-07
7.6783932e-07
7.7218026e-07
7.7563675e-07
7.7371416e-07
7.7068917e-07
7.6964753e-07
7.7165767e-07
7.7847367e-07
7.8160151e-07
7.7915652e-07
7.8002635e-07
7.8437353e-07
7.8860305e-07
7.8501182e-07
7.7804501e-07
7.7421533e-07
7.7309337e-07
7.7849824e-07
7.8600798e-07
7.9073624e-07
7.8954613e-07
7.8723276e-07
7.8566851e-07
7.8573923e-07
7.8664366e-07
7.871947e-07
7.8801242e-07
7.902524e-07
7.9350249e-07
7.9647405e-07
7.9807883e-07
7.9755674e-07
7.9476916e-07
7.9170008e-07
7.9007555e-07
7.9150254e-07
7.9510169e-07
7.9907519e-07
8.0245234e-07
8.0601786e-07
8.3996379e-07
8.0908291e-07
7.8061139e-07
7.5592036e-07
7.5250554e-07
7.5862519e-07
7.6409812e-07
7.6827747e-07
7.731284e-07
7.7605381e-07
7.7373727e-07
7.7069352e-07
7.6992964e-07
7.7224608e-07
7.7857443e-07
7.8035865e-07
7.7876972e-07
7.8094626e-07
7.8522181e-07
7.8721487e-07
7.8238311e-07
7.7636316e-07
7.7465666e-07
7.7521876e-07
7.8045763e-07
7.8666506e-07
7.9012999e-07
7.8917618e-07
7.8725844e-07
7.8614625e-07
7.8743701e-07
7.889867e-07
7.8959444e-07
7.9041724e-07
7.9228848e-07
7.9538392e-07
7.9822676e-07
7.9893621e-07
7.9747677e-07
7.9442877e-07
7.9175122e-07
7.912311e-07
7.9403489e-07
7.9896348e-07
8.0420748e-07
8.0807715e-07
8.1151819e-07
8.469016e-07
8.1253492e-07
7.8387864e-07
7.566481e-07
7.5191704e-07
7.5826937e-07
7.6392782e-07
7.690546e-07
7.7427548e-07
7.7658941e-07
7.7365664e-07
7.7074737e-07
7.7012151e-07
7.7315632e-07
7.7856951e-07
7.7897055e-07
7.786347e-07
7.8209907e-07
7.8550525e-07
7.852764e-07
7.7992536e-07
7.751761e-07
7.754716e-07
7.77129e-07
7.8179013e-07
7.8682218e-07
7.9025709e-07
7.8991787e-07
7.8788337e-07
7.8695192e-07
7.887722e-07
7.9058715e-07
7.9143613e-07
7.9217554e-07
7.9381903e-07
7.9678848e-07
7.992264e-07
7.9923599e-07
7.9753157e-07
7.9498619e-07
7.9355523e-07
7.949062e-07
7.9960292e-07
8.0576518e-07
8.102335e-07
8.1268954e-07
8.1526661e-07
8.5206388e-07
8.1553309e-07
7.8739165e-07
7.5690048e-07
7.5152729e-07
7.5819643e-07
7.6423223e-07
7.6992976e-07
7.7545569e-07
7.7705198e-07
7.7353286e-07
7.7069284e-07
7.7063271e-07
7.7443144e-07
7.7853297e-07
7.7784891e-07
7.7879352e-07
7.832555e-07
7.8532314e-07
7.8333484e-07
7.7786759e-07
7.7459242e-07
7.7616967e-07
7.7882409e-07
7.8248486e-07
7.8728523e-07
7.9141821e-07
7.9125726e-07
7.8803798e-07
7.8651926e-07
7.8896658e-07
7.9158545e-07
7.9312373e-07
7.9412256e-07
7.9571928e-07
7.9845602e-07
8.0038279e-07
7.999276e-07
7.9862102e-07
7.9755705e-07
7.9807821e-07
8.0134544e-07
8.0669055e-07
8.1206836e-07
8.1555795e-07
8.1761229e-07
8.1962146e-07
8.549575e-07
8.1763435e-07
7.9007975e-07
7.5707913e-07
7.5122009e-07
7.5785196e-07
7.6457811e-07
7.7043523e-07
7.76467e-07
7.7738716e-07
7.7330047e-07
7.7049348e-07
7.7096306e-07
7.7550515e-07
7.783108e-07
7.7698683e-07
7.7915393e-07
7.8415896e-07
7.8473015e-07
7.8187332e-07
7.767612e-07
7.742751e-07
7.7653337e-07
7.8004554e-07
7.8320385e-07
7.8854176e-07
7.9330949e-07
7.922185e-07
7.8740362e-07
7.8539664e-07
7.8856908e-07
7.9244593e-07
7.949644e-07
7.9610305e-07
7.9744227e-07
7.9992348e-07
8.0157067e-07
8.0113474e-07
8.0056818e-07
8.0105403e-07
8.0302451e-07
8.0709918e-07
8.1286118e-07
8.1798692e-07
8.2034886e-07
8.2139909e-07
8.2261354e-07
8.5653383e-07
8.187719e-07
7.9350737e-07
7.5689085e-07
7.5114343e-07
7.5733124e-07
7.6429142e-07
7.707923e-07
7.7725937e-07
7.7749168e-07
7.7314001e-07
7.7028976e-07
7.7159995e-07
7.7655048e-07
7.7827594e-07
7.7671444e-07
7.7961402e-07
7.8458208e-07
7.8382008e-07
7.8086429e-07
7.7637966e-07
7.7385086e-07
7.7653627e-07
7.8102909e-07
7.8453031e-07
7.9060294e-07
7.9505744e-07
7.9246722e-07
7.8621458e-07
7.8420503e-07
7.8823509e-07
7.9347072e-07
7.9671698e-07
7.9792638e-07
7.9932956e-07
8.0206656e-07
8.0377153e-07
8.0378214e-07
8.042784e-07
8.0640475e-07
8.0929496e-07
8.136816e-07
8.1897648e-07
8.2288474e-07
8.2437805e-07
8.2562367e-07
8.2795009e-07
8.5753854e-07
8.1922164e-07
7.9369077e-07
7.5679029e-07
7.5137598e-07
7.5704901e-07
7.642088e-07
7.7083438e-07
7.775013e-07
7.7744223e-07
7.7287591e-07
7.7038664e-07
7.7247684e-07
7.7719076e-07
7.780265e-07
7.7669818e-07
7.7993878e-07
7.8426141e-07
7.8296366e-07
7.8043698e-07
7.7648635e-07
7.7366998e-07
7.7628833e-07
7.8197024e-07
7.8594481e-07
7.9244788e-07
7.9607237e-07
7.919477e-07
7.8488099e-07
7.833645e-07
7.8847612e-07
7.9454255e-07
7.9787356e-07
7.9909677e-07
8.008722e-07
8.0401533e-07
8.0578518e-07
8.0658107e-07
8.0840019e-07
8.1090283e-07
8.1398255e-07
8.1802875e-07
8.2266247e-07
8.2617317e-07
8.279143e-07
8.2943245e-07
8.3091094e-07
8.58473e-07
8.1916373e-07
7.9220039e-07
7.5666489e-07
7.5156758e-07
7.5671918e-07
7.6362557e-07
7.7092148e-07
7.7730075e-07
7.7712285e-07
7.7265593e-07
7.7086009e-07
7.7332805e-07
7.775752e-07
7.7792339e-07
7.7706075e-07
7.8035328e-07
7.8350195e-07
7.8233442e-07
7.8047915e-07
7.7673431e-07
7.7357478e-07
7.7624427e-07
7.8266417e-07
7.872175e-07
7.939757e-07
7.9613807e-07
7.9091117e-07
7.8375267e-07
7.8318012e-07
7.893771e-07
7.9566718e-07
7.989093e-07
8.0070371e-07
8.0353204e-07
8.0678617e-07
8.0892066e-07
8.1032388e-07
8.1298714e-07
8.1578327e-07
8.1889349e-07
8.2269655e-07
8.2701912e-07
8.3024322e-07
8.3175277e-07
8.3326674e-07
8.3562159e-07
8.5926108e-07
8.1933081e-07
7.9156024e-07
7.5687662e-07
7.5237603e-07
7.5676484e-07
7.630352e-07
7.7044721e-07
7.7679241e-07
7.7673672e-07
7.7261758e-07
7.7129438e-07
7.7419795e-07
7.7793474e-07
7.7754692e-07
7.7710751e-07
7.8030273e-07
7.8255611e-07
7.8201206e-07
7.8068697e-07
7.7692528e-07
7.7375782e-07
7.7653712e-07
7.8351117e-07
7.8850263e-07
7.9472666e-07
7.952828e-07
7.8941926e-07
7.8280993e-07
7.8345212e-07
7.9034693e-07
7.9677581e-07
7.9990031e-07
8.0206945e-07
8.0514588e-07
8.0840582e-07
8.1076342e-07
8.1290467e-07
8.1602781e-07
8.1880642e-07
8.2185382e-07
8.2542388e-07
8.2945102e-07
8.324899e-07
8.3447025e-07
8.3708809e-07
8.3973754e-07
8.6004954e-07
8.2065505e-07
7.9008282e-07
7.5692677e-07
7.5335108e-07
7.5720382e-07
7.6299571e-07
7.7011095e-07
7.761367e-07
7.7605908e-07
7.7259641e-07
7.7162583e-07
7.7527624e-07
7.7819016e-07
7.7716799e-07
7.7749996e-07
7.8016807e-07
7.8179575e-07
7.8206561e-07
7.8090152e-07
7.7676029e-07
7.7391688e-07
7.7734032e-07
7.8480833e-07
7.8969124e-07
7.9472046e-07