/*--------------------------------*- C++ -*----------------------------------*\
| =========                 |                                                 |
| \\      /  F ield         | OpenFOAM: The Open Source CFD Toolbox           |
|  \\    /   O peration     | Version:  2406                                  |
|   \\  /    A nd           | Website:  www.openfoam.com                      |
|    \\/     M anipulation  |                                                 |
\*---------------------------------------------------------------------------*/
FoamFile
{
    version     2.0;
    format      ascii;
    arch        "LSB;label=32;scalar=64";
    class       volScalarField;
    location    "10";
    object      k;
}
// * * * * * * * * * * * * * * * * * * * * * * * * * * * * * * * * * * * * * //

dimensions      [0 2 -2 0 0 0 0];

internalField   nonuniform List<scalar> 
30397
(
0.00010393545
0.00010301895
0.00010231699
0.00010163817
0.00010104602
0.0001003555
9.9635896e-05
9.9173855e-05
9.9068474e-05
9.9076984e-05
9.8884422e-05
9.8496454e-05
9.7996431e-05
9.7477184e-05
9.6913468e-05
9.6246871e-05
9.5687902e-05
9.5321841e-05
9.5157586e-05
9.5196061e-05
9.518938e-05
9.5081206e-05
9.4888207e-05
9.4612981e-05
9.4347829e-05
9.4116194e-05
9.3906476e-05
9.3709723e-05
9.3515372e-05
9.3339707e-05
9.3191808e-05
9.3047334e-05
9.288016e-05
9.2692266e-05
9.2484358e-05
9.2293917e-05
9.2129658e-05
9.1974977e-05
9.1821768e-05
9.1660175e-05
9.1482713e-05
9.1281955e-05
9.1048482e-05
9.0779163e-05
9.0489895e-05
9.0211117e-05
8.9993021e-05
6.6925642e-05
6.5775051e-05
6.5000142e-05
6.4182379e-05
6.3520322e-05
6.2748177e-05
6.1991507e-05
6.136816e-05
6.1035296e-05
6.0869263e-05
6.0638118e-05
6.0262109e-05
5.9786533e-05
5.9341849e-05
5.8871107e-05
5.8290941e-05
5.7823198e-05
5.7427397e-05
5.711583e-05
5.6942545e-05
5.6784578e-05
5.6624288e-05
5.643987e-05
5.6181467e-05
5.5897615e-05
5.5598686e-05
5.5282998e-05
5.4986863e-05
5.474283e-05
5.4552479e-05
5.439633e-05
5.4236405e-05
5.4043585e-05
5.3820409e-05
5.3585843e-05
5.3377093e-05
5.3205083e-05
5.3044292e-05
5.2885874e-05
5.2716277e-05
5.2527439e-05
5.2313458e-05
5.2066974e-05
5.1792605e-05
5.1513133e-05
5.1283821e-05
5.1144529e-05
4.8127463e-05
4.7282262e-05
4.666334e-05
4.5962377e-05
4.54598e-05
4.4822429e-05
4.4207815e-05
4.3652357e-05
4.3313273e-05
4.3077283e-05
4.2854416e-05
4.2514461e-05
4.2075454e-05
4.1681854e-05
4.128336e-05
4.0816817e-05
4.0435292e-05
4.0073677e-05
3.9790248e-05
3.9597787e-05
3.9428691e-05
3.9281987e-05
3.9094321e-05
3.8830598e-05
3.8544262e-05
3.8248363e-05
3.7959669e-05
3.7697271e-05
3.7481818e-05
3.7304964e-05
3.7143474e-05
3.6977467e-05
3.6794831e-05
3.6596373e-05
3.6397654e-05
3.6216913e-05
3.6054501e-05
3.5890638e-05
3.5720727e-05
3.5540184e-05
3.5348853e-05
3.5152101e-05
3.4947758e-05
3.4742877e-05
3.4554347e-05
3.4413827e-05
3.4333337e-05
3.7544787e-05
3.6546164e-05
3.6067385e-05
3.5473765e-05
3.5091114e-05
3.4586764e-05
3.4118956e-05
3.3654752e-05
3.3322138e-05
3.3049405e-05
3.2830288e-05
3.2542093e-05
3.2176018e-05
3.1824555e-05
3.1449666e-05
3.1089816e-05
3.0787383e-05
3.0484183e-05
3.0254142e-05
3.0073126e-05
2.9899606e-05
2.9726531e-05
2.9492572e-05
2.9253964e-05
2.904475e-05
2.8845119e-05
2.8633518e-05
2.8407149e-05
2.8197676e-05
2.8003122e-05
2.7816959e-05
2.7636978e-05
2.7453436e-05
2.7267103e-05
2.7083921e-05
2.6910674e-05
2.6744635e-05
2.6579399e-05
2.6416945e-05
2.6260132e-05
2.6108824e-05
2.5966669e-05
2.5829934e-05
2.5700885e-05
2.558548e-05
2.5493876e-05
2.5421333e-05
2.9762493e-05
2.9676488e-05
2.931463e-05
2.879534e-05
2.8473931e-05
2.8052149e-05
2.7678029e-05
2.7279202e-05
2.6962257e-05
2.6686696e-05
2.6470167e-05
2.6236439e-05
2.59333e-05
2.5604104e-05
2.5266777e-05
2.4978981e-05
2.4715947e-05
2.4475547e-05
2.4296281e-05
2.4124017e-05
2.394356e-05
2.3757707e-05
2.3544617e-05
2.337365e-05
2.3220398e-05
2.3044651e-05
2.2833094e-05
2.2609236e-05
2.2401138e-05
2.2217637e-05
2.2054424e-05
2.1894956e-05
2.1723913e-05
2.1543596e-05
2.1366845e-05
2.120267e-05
2.1053242e-05
2.0918213e-05
2.0797536e-05
2.0690368e-05
2.0591021e-05
2.0494902e-05
2.0396529e-05
2.029802e-05
2.0202051e-05
2.0114148e-05
2.0028558e-05
2.6130925e-05
2.4970316e-05
2.4713321e-05
2.4256882e-05
2.3966497e-05
2.3596925e-05
2.3275924e-05
2.2921258e-05
2.2623856e-05
2.2355972e-05
2.2152777e-05
2.1946775e-05
2.1673271e-05
2.1378988e-05
2.1092974e-05
2.0855716e-05
2.0642217e-05
2.0464649e-05
2.0292762e-05
2.0109448e-05
1.9954104e-05
1.9797854e-05
1.9632071e-05
1.9505371e-05
1.9354594e-05
1.9170265e-05
1.8961673e-05
1.8760929e-05
1.8585752e-05
1.843361e-05
1.8288284e-05
1.8128773e-05
1.7954442e-05
1.7781259e-05
1.7625581e-05
1.7492767e-05
1.7384129e-05
1.7294895e-05
1.7213226e-05
1.7131275e-05
1.7045176e-05
1.6955403e-05
1.6861612e-05
1.6770058e-05
1.6684349e-05
1.6605979e-05
1.6529136e-05
2.4222933e-05
2.16031e-05
2.1400435e-05
2.1001396e-05
2.0744488e-05
2.0412681e-05
2.0126445e-05
1.9808642e-05
1.9532806e-05
1.9289294e-05
1.9095505e-05
1.8882168e-05
1.8646337e-05
1.84037e-05
1.8159155e-05
1.7957387e-05
1.7783707e-05
1.763049e-05
1.7475684e-05
1.7332552e-05
1.7213817e-05
1.707302e-05
1.6947548e-05
1.6830415e-05
1.6660615e-05
1.6469826e-05
1.6283055e-05
1.6115155e-05
1.5964676e-05
1.5824878e-05
1.5677424e-05
1.5516675e-05
1.5359653e-05
1.5223116e-05
1.511768e-05
1.5038405e-05
1.4972668e-05
1.4905323e-05
1.4829741e-05
1.4747782e-05
1.4663418e-05
1.4578605e-05
1.4497839e-05
1.4424259e-05
1.4358484e-05
1.4298535e-05
1.4237625e-05
2.2993165e-05
1.9120254e-05
1.893091e-05
1.8569584e-05
1.833708e-05
1.8050677e-05
1.7802404e-05
1.7523124e-05
1.7273182e-05
1.7053463e-05
1.6856565e-05
1.664547e-05
1.6446049e-05
1.622546e-05
1.6011105e-05
1.5845505e-05
1.5716436e-05
1.5578575e-05
1.5442791e-05
1.5343735e-05
1.5255324e-05
1.5141359e-05
1.5021902e-05
1.4879413e-05
1.4695166e-05
1.4529822e-05
1.4376154e-05
1.4219427e-05
1.4069131e-05
1.3930169e-05
1.37939e-05
1.3667564e-05
1.3565163e-05
1.3487497e-05
1.3426944e-05
1.3368292e-05
1.3300333e-05
1.3222525e-05
1.3139303e-05
1.305699e-05
1.2979973e-05
1.2909354e-05
1.2847024e-05
1.279001e-05
1.273748e-05
1.2686097e-05
1.2633171e-05
2.2012337e-05
1.7204666e-05
1.7029411e-05
1.6706389e-05
1.6489004e-05
1.6234138e-05
1.6023597e-05
1.5789064e-05
1.5569155e-05
1.5358027e-05
1.515647e-05
1.4962081e-05
1.4773909e-05
1.4567743e-05
1.4393024e-05
1.4262811e-05
1.4147423e-05
1.402591e-05
1.3930356e-05
1.3870015e-05
1.3798442e-05
1.3689967e-05
1.3555102e-05
1.3396051e-05
1.3230415e-05
1.3089051e-05
1.2936609e-05
1.278031e-05
1.2646025e-05
1.2531261e-05
1.2426613e-05
1.2342781e-05
1.22817e-05
1.2228803e-05
1.2171438e-05
1.2102722e-05
1.2025915e-05
1.1947545e-05
1.1871856e-05
1.180235e-05
1.1738473e-05
1.1680974e-05
1.1628766e-05
1.1579925e-05
1.1533299e-05
1.1484603e-05
1.1436396e-05
2.1230908e-05
1.5686237e-05
1.5521061e-05
1.5235988e-05
1.5039192e-05
1.4804453e-05
1.4619027e-05
1.442736e-05
1.423875e-05
1.4030011e-05
1.3826688e-05
1.3641194e-05
1.3452433e-05
1.3276792e-05
1.3137412e-05
1.3028378e-05
1.2926097e-05
1.2834322e-05
1.2773715e-05
1.2730447e-05
1.2656675e-05
1.2535066e-05
1.2395867e-05
1.2254829e-05
1.2109595e-05
1.1967871e-05
1.1818759e-05
1.1678668e-05
1.1566346e-05
1.1480499e-05
1.1415042e-05
1.1360145e-05
1.1304217e-05
1.1238484e-05
1.1165986e-05
1.1092346e-05
1.1020443e-05
1.095459e-05
1.0895448e-05
1.0840638e-05
1.0787704e-05
1.0736555e-05
1.0689366e-05
1.064447e-05
1.0599544e-05
1.0553396e-05
1.0510753e-05
2.1177243e-05
1.4493552e-05
1.4302117e-05
1.405471e-05
1.3873088e-05
1.3652224e-05
1.3480129e-05
1.332252e-05
1.3166694e-05
1.2968393e-05
1.2769794e-05
1.2586321e-05
1.2403536e-05
1.2260055e-05
1.2144155e-05
1.2052621e-05
1.1973154e-05
1.1904921e-05
1.1861941e-05
1.181871e-05
1.1729072e-05
1.1608796e-05
1.1490229e-05
1.1358006e-05
1.1211866e-05
1.1068324e-05
1.092905e-05
1.0818331e-05
1.0736705e-05
1.0677405e-05
1.0624265e-05
1.0560788e-05
1.048913e-05
1.0414931e-05
1.0345309e-05
1.0284122e-05
1.0230167e-05
1.0180401e-05
1.0129694e-05
1.0075926e-05
1.0023434e-05
9.974704e-06
9.9317093e-06
9.8926867e-06
9.8533586e-06
9.8131028e-06
9.7766962e-06
2.1521646e-05
1.3560967e-05
1.330002e-05
1.308051e-05
1.2913025e-05
1.2710018e-05
1.2550867e-05
1.241265e-05
1.2278032e-05
1.2095507e-05
1.1911427e-05
1.1728475e-05
1.15681e-05
1.1447711e-05
1.1341648e-05
1.1259893e-05
1.1200852e-05
1.1148967e-05
1.1104196e-05
1.1047293e-05
1.0956192e-05
1.0856064e-05
1.074942e-05
1.0612806e-05
1.0465016e-05
1.0332505e-05
1.0218236e-05
1.0136466e-05
1.0076892e-05
1.0019849e-05
9.9482566e-06
9.8672746e-06
9.7889364e-06
9.7233943e-06
9.6705879e-06
9.6261656e-06
9.5809308e-06
9.5312655e-06
9.4783073e-06
9.4260103e-06
9.3796841e-06
9.341045e-06
9.3098604e-06
9.2798474e-06
9.2468277e-06
9.2117327e-06
9.1821591e-06
2.2120252e-05
1.2762167e-05
1.2452757e-05
1.226367e-05
1.2109921e-05
1.1923497e-05
1.1774271e-05
1.1638277e-05
1.151727e-05
1.1366167e-05
1.1201449e-05
1.1028327e-05
1.0890575e-05
1.0781504e-05
1.0675875e-05
1.0596111e-05
1.0546267e-05
1.0494904e-05
1.0445331e-05
1.038414e-05
1.0310941e-05
1.022419e-05
1.0103454e-05
9.9590165e-06
9.8269204e-06
9.7210468e-06
9.6316274e-06
9.5626173e-06
9.4958401e-06
9.41838e-06
9.3323534e-06
9.251051e-06
9.1884344e-06
9.148147e-06
9.117069e-06
9.0814368e-06
9.0347958e-06
8.9816212e-06
8.9293737e-06
8.8839506e-06
8.8473524e-06
8.8180045e-06
8.7943653e-06
8.7709573e-06
8.7427085e-06
8.7112488e-06
8.686363e-06
2.2246428e-05
1.2023319e-05
1.1725628e-05
1.1565322e-05
1.1428169e-05
1.1262586e-05
1.1117475e-05
1.097696e-05
1.0864359e-05
1.0745281e-05
1.0601763e-05
1.0449659e-05
1.0328695e-05
1.0214801e-05
1.0105544e-05
1.0027377e-05
9.974024e-06
9.9203994e-06
9.8812738e-06
9.8324308e-06
9.7653304e-06
9.6639318e-06
9.5266743e-06
9.3906064e-06
9.2790795e-06
9.1927838e-06
9.1169663e-06
9.0434955e-06
8.9632667e-06
8.8788012e-06
8.8020602e-06
8.7436628e-06
8.7048533e-06
8.6771794e-06
8.6472759e-06
8.6050113e-06
8.5491963e-06
8.4904271e-06
8.4376067e-06
8.3943851e-06
8.3618417e-06
8.3387788e-06
8.3193595e-06
8.2975891e-06
8.2679274e-06
8.2343321e-06
8.2097841e-06
2.2179724e-05
1.137862e-05
1.1104879e-05
1.0962295e-05
1.0837016e-05
1.0688897e-05
1.0550195e-05
1.0411348e-05
1.0303048e-05
1.0203827e-05
1.0081705e-05
9.9562844e-06
9.8453958e-06
9.7219752e-06
9.6090462e-06
9.5312685e-06
9.4701517e-06
9.4253671e-06
9.4051791e-06
9.3582947e-06
9.2778895e-06
9.158471e-06
9.0236052e-06
8.9036348e-06
8.80913e-06
8.732433e-06
8.6568354e-06
8.5743022e-06
8.4924197e-06
8.4209371e-06
8.3652114e-06
8.3238675e-06
8.2924787e-06
8.2619562e-06
8.2180263e-06
8.1589438e-06
8.092857e-06
8.0321401e-06
7.982379e-06
7.9459995e-06
7.9201185e-06
7.9011627e-06
7.8833506e-06
7.8586268e-06
7.8214029e-06
7.7788067e-06
7.7453265e-06
2.1937161e-05
1.0822808e-05
1.0563803e-05
1.0435629e-05
1.0317537e-05
1.0183321e-05
1.0052585e-05
9.9225801e-06
9.8178244e-06
9.7274687e-06
9.6266396e-06
9.5199303e-06
9.410486e-06
9.281152e-06
9.1695222e-06
9.093425e-06
9.0327239e-06
9.0002365e-06
8.9839369e-06
8.9272668e-06
8.8372203e-06
8.7148544e-06
8.5920218e-06
8.4875548e-06
8.402493e-06
8.3238801e-06
8.2406253e-06
8.1582621e-06
8.0848135e-06
8.0284836e-06
7.9855437e-06
7.9469047e-06
7.9058608e-06
7.8578858e-06
7.797723e-06
7.7322273e-06
7.6712151e-06
7.6203916e-06
7.579714e-06
7.5477919e-06
7.5215865e-06
7.4959659e-06
7.465996e-06
7.4269014e-06
7.3787038e-06
7.3310144e-06
7.2960512e-06
2.1949804e-05
1.0369544e-05
1.008299e-05
9.9711263e-06
9.8630419e-06
9.7375057e-06
9.6106355e-06
9.490477e-06
9.3898427e-06
9.2978149e-06
9.2118699e-06
9.1224843e-06
9.0148831e-06
8.8894212e-06
8.7846274e-06
8.7115189e-06
8.6524599e-06
8.6229449e-06
8.5945039e-06
8.5265177e-06
8.4387953e-06
8.3293613e-06
8.2221599e-06
8.1218038e-06
8.0329465e-06
7.9437242e-06
7.8561857e-06
7.780177e-06
7.7172717e-06
7.6727429e-06
7.6343265e-06
7.5877606e-06
7.5304573e-06
7.467904e-06
7.4043207e-06
7.3457159e-06
7.2958602e-06
7.2515758e-06
7.2091275e-06
7.1692199e-06
7.1304405e-06
7.0911214e-06
7.0505371e-06
7.0055022e-06
6.9594155e-06
6.9205704e-06
6.8968316e-06
2.2122593e-05
1.0010303e-05
9.6552778e-06
9.5561433e-06
9.4602492e-06
9.3421001e-06
9.2170634e-06
9.1046397e-06
9.008052e-06
8.9104893e-06
8.8331123e-06
8.7576308e-06
8.6569561e-06
8.5435438e-06
8.4476944e-06
8.3729687e-06
8.3134403e-06
8.2785037e-06
8.2344473e-06
8.1670796e-06
8.0863177e-06
7.9888123e-06
7.8847869e-06
7.7787572e-06
7.6863913e-06
7.5918051e-06
7.5073678e-06
7.4414203e-06
7.3870122e-06
7.3432996e-06
7.2975916e-06
7.2362787e-06
7.1670019e-06
7.1016492e-06
7.0459234e-06
6.9956254e-06
6.9457625e-06
6.8939527e-06
6.8421822e-06
6.7940636e-06
6.7489586e-06
6.7076016e-06
6.6720633e-06
6.6389431e-06
6.6080517e-06
6.5840623e-06
6.5707714e-06
2.2639792e-05
9.6886725e-06
9.2648929e-06
9.1823703e-06
9.0987828e-06
8.9880139e-06
8.8611061e-06
8.750163e-06
8.6592711e-06
8.5639422e-06
8.4932094e-06
8.4267525e-06
8.3345538e-06
8.2325716e-06
8.141588e-06
8.0614982e-06
8.0019274e-06
7.9612773e-06
7.9133437e-06
7.8497125e-06
7.7661498e-06
7.6636426e-06
7.5539586e-06
7.4476099e-06
7.3594246e-06
7.2681526e-06
7.1946316e-06
7.1404815e-06
7.0882951e-06
7.0357286e-06
6.9707852e-06
6.89249e-06
6.8200317e-06
6.7631136e-06
6.7157879e-06
6.6667405e-06
6.6116914e-06
6.5534798e-06
6.5001273e-06
6.4568435e-06
6.4230693e-06
6.3962321e-06
6.3741664e-06
6.3521102e-06
6.3282354e-06
6.3044105e-06
6.2880472e-06
2.2972367e-05
9.378456e-06
8.9073633e-06
8.8450738e-06
8.7714134e-06
8.6666877e-06
8.5369806e-06
8.4231088e-06
8.3391713e-06
8.2533801e-06
8.1850528e-06
8.1252741e-06
8.0412206e-06
7.9419718e-06
7.8513259e-06
7.7707515e-06
7.7148418e-06
7.6717716e-06
7.6238858e-06
7.5570534e-06
7.4586104e-06
7.3464261e-06
7.2347234e-06
7.1365144e-06
7.0569191e-06
6.975935e-06
6.9150993e-06
6.8654229e-06
6.8059034e-06
6.7348653e-06
6.6536954e-06
6.575702e-06
6.5135797e-06
6.4651294e-06
6.4208797e-06
6.3726951e-06
6.3202713e-06
6.2696362e-06
6.229664e-06
6.2031543e-06
6.1839109e-06
6.1666065e-06
6.146744e-06
6.1219463e-06
6.0924631e-06
6.0622348e-06
6.0397139e-06
2.3028202e-05
9.0795867e-06
8.5779246e-06
8.5373804e-06
8.4715204e-06
8.3726623e-06
8.2408381e-06
8.1260628e-06
8.0483489e-06
7.9707529e-06
7.9023839e-06
7.8454517e-06
7.7651176e-06
7.6652511e-06
7.5744715e-06
7.4999226e-06
7.449661e-06
7.406324e-06
7.3570332e-06
7.2800902e-06
7.1651799e-06
7.0489742e-06
6.9452544e-06
6.8596647e-06
6.7856957e-06
6.7136304e-06
6.6616816e-06
6.6059032e-06
6.5313248e-06
6.449912e-06
6.3703886e-06
6.3059023e-06
6.2589135e-06
6.219688e-06
6.1804627e-06
6.1362155e-06
6.0921905e-06
6.057254e-06
6.0333009e-06
6.0176828e-06
6.0018545e-06
5.98055e-06
5.9532778e-06
5.919822e-06
5.8873924e-06
5.8570335e-06
5.8333473e-06
2.2872084e-05
8.7951114e-06
8.2823456e-06
8.2531297e-06
8.1935792e-06
8.1032175e-06
7.9700074e-06
7.8565877e-06
7.7839837e-06
7.7139987e-06
7.6452313e-06
7.5847073e-06
7.5027217e-06
7.4026072e-06
7.3128178e-06
7.2489225e-06
7.2068453e-06
7.1637667e-06
7.10885e-06
7.0183593e-06
6.8955284e-06
6.789163e-06
6.7005528e-06
6.6194184e-06
6.5450229e-06
6.4785701e-06
6.4299819e-06
6.3636995e-06
6.2805484e-06
6.2023041e-06
6.1397091e-06
6.0943942e-06
6.061086e-06
6.0277403e-06
5.9918058e-06
5.9534835e-06
5.9190282e-06
5.896286e-06
5.8793829e-06
5.8624639e-06
5.8374072e-06
5.8069123e-06
5.7741913e-06
5.7414109e-06
5.7130676e-06
5.6876274e-06
5.6663935e-06
2.2594921e-05
8.5378175e-06
8.0141844e-06
7.9906201e-06
7.9369192e-06
7.854442e-06
7.7237345e-06
7.6130372e-06
7.5444937e-06
7.4775423e-06
7.408639e-06
7.3412623e-06
7.2543701e-06
7.1566539e-06
7.0734498e-06
7.0218433e-06
6.9859003e-06
6.9398736e-06
6.8768195e-06
6.7760293e-06
6.6592083e-06
6.5721053e-06
6.4916487e-06
6.4080123e-06
6.3328143e-06
6.2711101e-06
6.2200209e-06
6.1461828e-06
6.066615e-06
6.0032137e-06
5.9601397e-06
5.9297597e-06
5.9037147e-06
5.8734627e-06
5.8406843e-06
5.8086158e-06
5.7826829e-06
5.7639015e-06
5.7429747e-06
5.7161832e-06
5.6853677e-06
5.6564839e-06
5.6289697e-06
5.603566e-06
5.5821888e-06
5.5630661e-06
5.5490149e-06
2.2367647e-05
8.3219344e-06
7.7665661e-06
7.7482212e-06
7.700981e-06
7.6259652e-06
7.5001215e-06
7.3949125e-06
7.3249798e-06
7.2590444e-06
7.1904429e-06
7.1158812e-06
7.0242829e-06
6.9321506e-06
6.8608583e-06
6.8189951e-06
6.7827555e-06
6.729509e-06
6.6596243e-06
6.5574498e-06
6.4567946e-06
6.3837737e-06
6.3035582e-06
6.2185445e-06
6.1493173e-06
6.0942252e-06
6.0377886e-06
5.9602763e-06
5.8923403e-06
5.8490104e-06
5.8193459e-06
5.7954554e-06
5.7734617e-06
5.7474494e-06
5.7181417e-06
5.6905156e-06
5.6686403e-06
5.6480557e-06
5.6210514e-06
5.5910772e-06
5.564451e-06
5.5415766e-06
5.5220502e-06
5.505058e-06
5.4919917e-06
5.4818528e-06
5.4790618e-06
2.2314777e-05
8.1940679e-06
7.542787e-06
7.5263649e-06
7.4850351e-06
7.4171032e-06
7.2975785e-06
7.1977057e-06
7.1238917e-06
7.0573594e-06
6.9895522e-06
6.9088946e-06
6.8156601e-06
6.7331748e-06
6.6751981e-06
6.6371211e-06
6.5928953e-06
6.5334227e-06
6.4600496e-06
6.36508e-06
6.2822576e-06
6.2110603e-06
6.1284876e-06
6.0527807e-06
5.9947555e-06
5.9426042e-06
5.8805296e-06
5.8070324e-06
5.7576547e-06
5.7269399e-06
5.7029719e-06
5.6838176e-06
5.6666381e-06
5.644754e-06
5.6200433e-06
5.5954139e-06
5.5755516e-06
5.553608e-06
5.5256505e-06
5.4997496e-06
5.4795882e-06
5.4653244e-06
5.4531345e-06
5.4441799e-06
5.4405739e-06
5.4398198e-06
5.4466149e-06
2.2349561e-05
8.1459973e-06
7.3372863e-06
7.3234887e-06
7.2881058e-06
7.2262992e-06
7.113217e-06
7.0181264e-06
6.9393834e-06
6.8712307e-06
6.8019448e-06
6.7190962e-06
6.6278355e-06
6.5593324e-06
6.5115935e-06
6.4689583e-06
6.4161849e-06
6.3533451e-06
6.2817249e-06
6.1961182e-06
6.1235117e-06
6.0494859e-06
5.9743902e-06
5.9153637e-06
5.8651752e-06
5.8105847e-06
5.7474476e-06
5.6860105e-06
5.6505614e-06
5.6258911e-06
5.6078584e-06
5.5955807e-06
5.5847809e-06
5.5678292e-06
5.5467435e-06
5.5250796e-06
5.5059692e-06
5.4846512e-06
5.460639e-06
5.4388987e-06
5.4251298e-06
5.41756e-06
5.4135447e-06
5.4139456e-06
5.4193634e-06
5.42585e-06
5.4374315e-06
2.2692629e-05
8.1370246e-06
7.1512149e-06
7.137766e-06
7.1076541e-06
7.0520831e-06
6.945748e-06
6.8537048e-06
6.7686242e-06
6.6986055e-06
6.6263162e-06
6.5430224e-06
6.4601095e-06
6.4056634e-06
6.3638817e-06
6.3120691e-06
6.2538988e-06
6.1908769e-06
6.1216774e-06
6.043933e-06
5.9778881e-06
5.907776e-06
5.849433e-06
5.8031977e-06
5.7525073e-06
5.6956774e-06
5.6397443e-06
5.5911351e-06
5.5641813e-06
5.545034e-06
5.5375391e-06
5.5368266e-06
5.5326275e-06
5.5183082e-06
5.4966319e-06
5.4748748e-06
5.4556088e-06
5.4354199e-06
5.4148931e-06
5.3992743e-06
5.3919334e-06
5.3909995e-06
5.3943472e-06
5.4026563e-06
5.4158295e-06
5.4255296e-06
5.4369505e-06
2.3179684e-05
8.141436e-06
6.984043e-06
6.9673262e-06
6.9401417e-06
6.8905209e-06
6.7919824e-06
6.7013324e-06
6.6105053e-06
6.538476e-06
6.4617829e-06
6.3805869e-06
6.3108951e-06
6.2658305e-06
6.2248001e-06
6.1665641e-06
6.1076909e-06
6.0459459e-06
5.976562e-06
5.9072062e-06
5.8467753e-06
5.7917816e-06
5.7520121e-06
5.7090718e-06
5.6526619e-06
5.5986895e-06
5.554254e-06
5.5196716e-06
5.50351e-06
5.4941471e-06
5.4968785e-06
5.5024912e-06
5.4975477e-06
5.4796553e-06
5.4570677e-06
5.4368876e-06
5.4182459e-06
5.4003692e-06
5.3836392e-06
5.3741048e-06
5.3735427e-06
5.3791866e-06
5.3893426e-06
5.4044479e-06
5.4189887e-06
5.4266211e-06
5.4341014e-06
2.3566639e-05
8.1659539e-06
6.8401058e-06
6.8111281e-06
6.7847183e-06
6.7396915e-06
6.6500203e-06
6.5592981e-06
6.4649313e-06
6.3905356e-06
6.310397e-06
6.232202e-06
6.1758031e-06
6.1350679e-06
6.0908685e-06
6.032784e-06
5.9787626e-06
5.916635e-06
5.8477198e-06
5.788153e-06
5.7352873e-06
5.7022692e-06
5.6742717e-06
5.6260531e-06
5.5680047e-06
5.5211509e-06
5.4929263e-06
5.4744528e-06
5.4685634e-06
5.4684643e-06
5.4768429e-06
5.4790908e-06
5.4659008e-06
5.4453671e-06
5.4254795e-06
5.4087656e-06
5.3933992e-06
5.379322e-06
5.3694667e-06
5.3690658e-06
5.375663e-06
5.3851732e-06
5.3965654e-06
5.4101287e-06
5.4208999e-06
5.4259118e-06
5.4313734e-06
2.3852227e-05
8.195712e-06
6.7209784e-06
6.6694509e-06
6.6411544e-06
6.5984291e-06
6.5152e-06
6.426025e-06
6.331691e-06
6.2552793e-06
6.1736938e-06
6.098263e-06
6.0499703e-06
6.0099591e-06
5.9638727e-06
5.9128204e-06
5.8657024e-06
5.8030824e-06
5.739703e-06
5.6889802e-06
5.6491523e-06
5.6345929e-06
5.6076612e-06
5.5542452e-06
5.4979722e-06
5.4658421e-06
5.4551933e-06
5.4497427e-06
5.4517265e-06
5.4571857e-06
5.4650452e-06
5.4582389e-06
5.4393175e-06
5.4194262e-06
5.4032217e-06
5.3894703e-06
5.3795304e-06
5.3735621e-06
5.37443e-06
5.3805202e-06
5.3890017e-06
5.3961319e-06
5.4035005e-06
5.4135445e-06
5.4223721e-06
5.4279522e-06
5.4346501e-06
2.4113208e-05
8.2452172e-06
6.6488293e-06
6.5441898e-06
6.5086729e-06
6.4651348e-06
6.3864717e-06
6.3006237e-06
6.2094579e-06
6.1321054e-06
6.0517157e-06
5.9783901e-06
5.9334177e-06
5.8913029e-06
5.8482684e-06
5.8088918e-06
5.7671367e-06
5.7067374e-06
5.6533896e-06
5.6118502e-06
5.5870003e-06
5.579552e-06
5.5494563e-06
5.4923091e-06
5.4448274e-06
5.4295181e-06
5.434394e-06
5.4376408e-06
5.4444719e-06
5.4518807e-06
5.4520296e-06
5.4365833e-06
5.4173601e-06
5.400644e-06
5.3890443e-06
5.3816022e-06
5.380337e-06
5.3833112e-06
5.3896065e-06
5.3983509e-06
5.4044395e-06
5.4062575e-06
5.4094639e-06
5.417698e-06
5.4263281e-06
5.4328102e-06
5.4394048e-06
2.4412879e-05
8.3456385e-06
6.621717e-06
6.4343848e-06
6.3855295e-06
6.3396873e-06
6.2645256e-06
6.1835265e-06
6.0975209e-06
6.0203559e-06
5.9431196e-06
5.8730912e-06
5.8270148e-06
5.7811004e-06
5.745574e-06
5.7185883e-06
5.6808254e-06
5.6271507e-06
5.5869987e-06
5.5566156e-06
5.5413158e-06
5.5309724e-06
5.4972461e-06
5.4418203e-06
5.4070388e-06
5.407256e-06
5.4227168e-06
5.4313679e-06
5.4391568e-06
5.4426088e-06
5.4368058e-06
5.4192812e-06
5.4006179e-06
5.3877111e-06
5.3823491e-06
5.3848408e-06
5.3910085e-06
5.3979192e-06
5.4062492e-06
5.4136659e-06
5.4157685e-06
5.414352e-06
5.4176239e-06
5.4272035e-06
5.437455e-06
5.4431819e-06
5.4474557e-06
2.4597508e-05
8.5550309e-06
6.6190777e-06
6.3381247e-06
6.2720695e-06
6.2210652e-06
6.1480185e-06
6.0731278e-06
5.9940306e-06
5.9202285e-06
5.8464547e-06
5.7820335e-06
5.7328476e-06
5.6849123e-06
5.6590772e-06
5.6398601e-06
5.6057329e-06
5.5634616e-06
5.5377496e-06
5.5187753e-06
5.5044712e-06
5.487212e-06
5.4525945e-06
5.4032383e-06
5.3830997e-06
5.3966512e-06
5.4190104e-06
5.4274585e-06
5.4305211e-06
5.4307087e-06
5.4229222e-06
5.4053115e-06
5.3888645e-06
5.382281e-06
5.3863681e-06
5.3961745e-06
5.405705e-06
5.4119661e-06
5.4170355e-06
5.4226642e-06
5.4255671e-06
5.4259471e-06
5.4330751e-06
5.4451224e-06
5.4532444e-06
5.4559923e-06
5.4591187e-06
2.4860687e-05
8.7952369e-06
6.6224095e-06
6.2531164e-06
6.1670335e-06
6.110172e-06
6.0396744e-06
5.9699067e-06
5.899755e-06
5.8324112e-06
5.7623844e-06
5.703231e-06
5.6513345e-06
5.6059381e-06
5.5891925e-06
5.5737041e-06
5.5434005e-06
5.5130412e-06
5.5011415e-06
5.4904135e-06
5.4721613e-06
5.4500692e-06
5.4171452e-06
5.3774614e-06
5.3724876e-06
5.3958881e-06
5.4180819e-06
5.4204826e-06
5.4195828e-06
5.4188401e-06
5.4107906e-06
5.3965092e-06
5.3861719e-06
5.3878593e-06
5.3982115e-06
5.4120193e-06
5.419588e-06
5.420696e-06
5.4221288e-06
5.4292556e-06
5.4350891e-06
5.4380561e-06
5.4457713e-06
5.4577185e-06
5.4647252e-06
5.4686177e-06
5.4751915e-06
2.5142962e-05
9.0536994e-06
6.6378293e-06
6.1804731e-06
6.0724077e-06
6.0085005e-06
5.9389385e-06
5.8752367e-06
5.8155823e-06
5.7556498e-06
5.6891544e-06
5.6341396e-06
5.5826689e-06
5.5440263e-06
5.5351408e-06
5.5212464e-06
5.4937309e-06
5.4743741e-06
5.4724414e-06
5.464448e-06
5.4433932e-06
5.4194018e-06
5.3907256e-06
5.3633199e-06
5.3702125e-06
5.3968616e-06
5.4130984e-06
5.411017e-06
5.4096951e-06
5.4098265e-06
5.4039824e-06
5.3947368e-06
5.3910824e-06
5.397999e-06
5.4139208e-06
5.4268241e-06
5.4296709e-06
5.426581e-06
5.4285974e-06
5.4377347e-06
5.442934e-06
5.4458177e-06
5.454053e-06
5.4678839e-06
5.4795658e-06
5.4894489e-06
5.5033525e-06
2.5307224e-05
9.3196091e-06
6.6817938e-06
6.114944e-06
5.9831298e-06
5.9170532e-06
5.8481298e-06
5.7909778e-06
5.7417178e-06
5.688595e-06
5.625716e-06
5.5738858e-06
5.526064e-06
5.4967896e-06
5.4935971e-06
5.4805359e-06
5.4561784e-06
5.4445215e-06
5.4474341e-06
5.4382826e-06
5.4165705e-06
5.393731e-06
5.3723897e-06
5.3568353e-06
5.3700863e-06
5.3939038e-06
5.4053026e-06
5.4025755e-06
5.403402e-06
5.4044233e-06
5.402387e-06
5.3990304e-06
5.3997059e-06
5.4114681e-06
5.4275987e-06
5.4377826e-06
5.4380204e-06
5.4374686e-06
5.4409828e-06
5.4463625e-06
5.4487438e-06
5.4510427e-06
5.4628317e-06
5.4820248e-06
5.5002358e-06
5.5162856e-06
5.5355419e-06
2.545912e-05
9.5645326e-06
6.7305199e-06
6.0578375e-06
5.9030158e-06
5.8353847e-06
5.7682462e-06
5.7181461e-06
5.6776563e-06
5.6300812e-06
5.5704003e-06
5.5213946e-06
5.4795092e-06
5.4614407e-06
5.4621562e-06
5.448253e-06
5.4280665e-06
5.4218048e-06
5.42494e-06
5.4135479e-06
5.3915093e-06
5.3727728e-06
5.3604583e-06
5.3537226e-06
5.368214e-06
5.3899558e-06
5.4006161e-06
5.4000352e-06
5.4017018e-06
5.4039969e-06
5.404644e-06
5.404325e-06
5.4091329e-06
5.4218642e-06
5.4363261e-06
5.4450803e-06
5.448674e-06
5.4507468e-06
5.4530832e-06
5.4551796e-06
5.4552905e-06
5.4604071e-06
5.4782637e-06
5.5036045e-06
5.5276047e-06
5.5466578e-06
5.5665065e-06
2.5489178e-05
9.7659711e-06
6.7683139e-06
6.0031218e-06
5.8276244e-06
5.7621162e-06
5.699764e-06
5.6561511e-06
5.6216709e-06
5.5793921e-06
5.5227331e-06
5.4759222e-06
5.442559e-06
5.4356369e-06
5.4377133e-06
5.4214924e-06
5.4061497e-06
5.4046406e-06
5.4060695e-06
5.3919062e-06
5.3694587e-06
5.356043e-06
5.3522713e-06
5.3504014e-06
5.3652672e-06
5.3886012e-06
5.4021668e-06
5.4030893e-06
5.4037656e-06
5.4050409e-06
5.4067481e-06
5.4084973e-06
5.4157771e-06
5.429108e-06
5.4431036e-06
5.4533587e-06
5.4585809e-06
5.4610529e-06
5.4629602e-06
5.4635357e-06
5.4662799e-06
5.4782842e-06
5.5034701e-06
5.5372738e-06
5.5598076e-06
5.5712205e-06
5.5882102e-06
2.5491928e-05
9.8999893e-06
6.7952623e-06
5.9474873e-06
5.7578722e-06
5.6956991e-06
5.6398105e-06
5.601255e-06
5.5728836e-06
5.5346895e-06
5.4804635e-06
5.4367508e-06
5.4123626e-06
5.4159764e-06
5.4172055e-06
5.3997991e-06
5.3888455e-06
5.391446e-06
5.390328e-06
5.3739692e-06
5.3514711e-06
5.3438968e-06
5.3452858e-06
5.3478565e-06
5.3643553e-06
5.3907211e-06
5.408459e-06
5.4085942e-06
5.4049537e-06
5.404047e-06
5.4070921e-06
5.4121402e-06
5.4220613e-06
5.4369607e-06
5.4517007e-06
5.4625214e-06
5.4682334e-06
5.4710707e-06
5.4746895e-06
5.4804069e-06
5.4887632e-06
5.5095335e-06
5.542004e-06
5.5727494e-06
5.5901853e-06
5.6012053e-06
5.6163812e-06
2.543774e-05
9.9744623e-06
6.8101036e-06
5.8969231e-06
5.6945282e-06
5.6354883e-06
5.5889276e-06
5.5547348e-06
5.5306973e-06
5.4959415e-06
5.4450005e-06
5.4038973e-06
5.3889549e-06
5.3997806e-06
5.3993146e-06
5.3816739e-06
5.3755725e-06
5.3808187e-06
5.3775536e-06
5.359967e-06
5.3386229e-06
5.3354814e-06
5.3400974e-06
5.3478416e-06
5.3661919e-06
5.3969532e-06
5.4152634e-06
5.4109121e-06
5.4031935e-06
5.401441e-06
5.407283e-06
5.416376e-06
5.4302517e-06
5.4465494e-06
5.4616459e-06
5.471499e-06
5.4759796e-06
5.4788892e-06
5.487995e-06
5.500406e-06
5.517142e-06
5.5444614e-06
5.5816964e-06
5.6116827e-06
5.6228991e-06
5.6293078e-06
5.641106e-06
2.5370866e-05
1.0013713e-05
6.8139621e-06
5.8401203e-06
5.6344102e-06
5.5771307e-06
5.5385802e-06
5.5125588e-06
5.4935109e-06
5.4615526e-06
5.4140325e-06
5.3774064e-06
5.3698364e-06
5.3848617e-06
5.382701e-06
5.3671449e-06
5.3646804e-06
5.3717072e-06
5.3669043e-06
5.3496862e-06
5.3309832e-06
5.3290119e-06
5.3358133e-06
5.3492538e-06
5.3715539e-06
5.4058424e-06
5.4194567e-06
5.4098543e-06
5.399442e-06
5.3984007e-06
5.4080994e-06
5.4223945e-06
5.4392875e-06
5.4565807e-06
5.4722295e-06
5.4804795e-06
5.4862558e-06
5.4942265e-06
5.5127932e-06
5.5331206e-06
5.5560607e-06
5.5865745e-06
5.6229506e-06
5.6453988e-06
5.652755e-06
5.6642179e-06
5.6881647e-06
2.5268488e-05
1.0025051e-05
6.8121182e-06
5.7883729e-06
5.5827953e-06
5.5282772e-06
5.4964969e-06
5.4758178e-06
5.4608552e-06
5.4316631e-06
5.3879201e-06
5.3569615e-06
5.3554125e-06
5.370949e-06
5.3672496e-06
5.3542936e-06
5.3544937e-06
5.3618965e-06
5.3581647e-06
5.3435798e-06
5.3267094e-06
5.3239712e-06
5.3322992e-06
5.3522524e-06
5.3807812e-06
5.41385e-06
5.420318e-06
5.4068455e-06
5.395713e-06
5.3970668e-06
5.4102862e-06
5.4280065e-06
5.4464119e-06
5.4642581e-06
5.4802176e-06
5.4907533e-06
5.4981701e-06
5.5127283e-06
5.5386198e-06
5.5611593e-06
5.5854946e-06
5.6157525e-06
5.6504536e-06
5.6756642e-06
5.6883492e-06
5.7032817e-06
5.718934e-06
2.5157364e-05
1.0023079e-05
6.7962002e-06
5.7323296e-06
5.5321256e-06
5.479542e-06
5.4545552e-06
5.4445429e-06
5.4315787e-06
5.4050369e-06
5.3664521e-06
5.3424148e-06
5.3460799e-06
5.3596404e-06
5.3547679e-06
5.3443762e-06
5.3464231e-06
5.3522811e-06
5.3511516e-06
5.3406444e-06
5.3235187e-06
5.3205694e-06
5.3310467e-06
5.3568574e-06
5.3895365e-06
5.4195386e-06
5.4180449e-06
5.4021656e-06
5.392519e-06
5.3976632e-06
5.4136548e-06
5.4327543e-06
5.4517141e-06
5.4735998e-06
5.4960237e-06
5.5122362e-06
5.5232414e-06
5.5408278e-06
5.5693074e-06
5.5953432e-06
5.6221639e-06
5.6529852e-06
5.6880798e-06
5.7102572e-06
5.7203331e-06
5.7341766e-06
5.7616375e-06
2.5044168e-05
1.0015565e-05
6.741448e-06
5.6842383e-06
5.4921249e-06
5.4411387e-06
5.4188898e-06
5.413499e-06
5.4050912e-06
5.3827282e-06
5.3486664e-06
5.332463e-06
5.3393841e-06
5.3489928e-06
5.3419734e-06
5.3343089e-06
5.3376858e-06
5.3432887e-06
5.3461125e-06
5.3392432e-06
5.3208646e-06
5.3180893e-06
5.3312097e-06
5.36213e-06
5.3965548e-06
5.4209929e-06
5.4131615e-06
5.3944857e-06
5.3885526e-06
5.3968195e-06
5.4144517e-06
5.4345059e-06
5.4566923e-06
5.4831776e-06
5.5109016e-06
5.5273575e-06
5.5400637e-06
5.5615181e-06
5.5908734e-06
5.6162218e-06
5.6426848e-06
5.6747813e-06
5.710729e-06
5.7332211e-06
5.7491193e-06
5.7761446e-06
5.8038714e-06
2.4904191e-05
9.9950724e-06
6.649811e-06
5.6302152e-06
5.4528862e-06
5.406828e-06
5.390517e-06
5.3904003e-06
5.383104e-06
5.3639052e-06
5.3357382e-06
5.3271891e-06
5.3363416e-06
5.34132e-06
5.3327113e-06
5.3278363e-06
5.3306863e-06
5.3358335e-06
5.3428118e-06
5.3371003e-06
5.3182177e-06
5.3166792e-06
5.3338543e-06
5.3684774e-06
5.4018716e-06
5.4193915e-06
5.405897e-06
5.3884686e-06