/*--------------------------------*- C++ -*----------------------------------*\
| =========                 |                                                 |
| \\      /  F ield         | OpenFOAM: The Open Source CFD Toolbox           |
|  \\    /   O peration     | Version:  2406                                  |
|   \\  /    A nd           | Website:  www.openfoam.com                      |
|    \\/     M anipulation  |                                                 |
\*---------------------------------------------------------------------------*/
FoamFile
{
    version     2.0;
    format      ascii;
    arch        "LSB;label=32;scalar=64";
    class       volScalarField;
    location    "10";
    object      k;
}
// * * * * * * * * * * * * * * * * * * * * * * * * * * * * * * * * * * * * * //

dimensions      [0 2 -2 0 0 0 0];

internalField   nonuniform List<scalar> 
19701
(
6.6430211e-06
4.0935257e-06
4.0558769e-06
4.0556599e-06
4.0556658e-06
4.0559321e-06
4.0559771e-06
4.0561415e-06
4.0562165e-06
4.0563153e-06
4.0563901e-06
4.0564613e-06
4.0565233e-06
4.0565809e-06
4.0566333e-06
4.0566812e-06
4.0567257e-06
4.0567673e-06
4.0568064e-06
4.0568434e-06
4.0568781e-06
4.056911e-06
4.0569416e-06
4.0569707e-06
4.0569981e-06
4.0570241e-06
4.0570484e-06
4.0570717e-06
4.0570938e-06
4.0571146e-06
4.0571339e-06
4.0571516e-06
4.0571671e-06
4.0571817e-06
4.0571951e-06
4.0572081e-06
4.0572214e-06
4.0572351e-06
4.0572478e-06
4.0572581e-06
4.0572678e-06
4.0572771e-06
4.0572865e-06
4.0572962e-06
4.0573133e-06
4.0573222e-06
4.0573316e-06
4.0573392e-06
4.0573467e-06
4.057354e-06
4.0573611e-06
4.057368e-06
4.0573751e-06
4.0573827e-06
4.0573904e-06
4.0573983e-06
4.057406e-06
4.0574134e-06
4.0574199e-06
4.0574253e-06
4.0574293e-06
4.0574315e-06
4.0574317e-06
4.0574293e-06
4.0574238e-06
4.0574154e-06
4.0574043e-06
4.0573907e-06
4.0573756e-06
4.0573601e-06
4.0573465e-06
4.0573365e-06
4.0573313e-06
4.0573323e-06
4.0573412e-06
4.0573582e-06
4.057382e-06
4.0574096e-06
4.0574358e-06
4.057455e-06
4.0574636e-06
4.0574616e-06
4.0574509e-06
4.0574329e-06
4.0574131e-06
4.0573936e-06
4.057383e-06
4.0573785e-06
4.0573874e-06
4.0573959e-06
4.057422e-06
4.0574328e-06
4.0574759e-06
4.057478e-06
4.0575227e-06
4.0574872e-06
4.0575747e-06
4.0575105e-06
4.0562789e-06
1.7325301e-05
3.1739076e-06
3.2203801e-06
3.2215844e-06
3.2216525e-06
3.2219387e-06
3.2220361e-06
3.2222546e-06
3.2223883e-06
3.2225384e-06
3.2226734e-06
3.2227936e-06
3.2229044e-06
3.2230068e-06
3.223101e-06
3.2231878e-06
3.2232685e-06
3.2233442e-06
3.2234155e-06
3.2234819e-06
3.2235443e-06
3.2236032e-06
3.223657e-06
3.2237089e-06
3.2237569e-06
3.2238025e-06
3.2238453e-06
3.223886e-06
3.223924e-06
3.2239601e-06
3.2239937e-06
3.2240253e-06
3.2240558e-06
3.2240841e-06
3.224108e-06
3.2241286e-06
3.2241539e-06
3.2241797e-06
3.2242032e-06
3.2242235e-06
3.2242427e-06
3.2242616e-06
3.2242785e-06
3.2242971e-06
3.2243315e-06
3.2243421e-06
3.2243555e-06
3.2243663e-06
3.2243769e-06
3.2243871e-06
3.2243973e-06
3.2244066e-06
3.2244161e-06
3.2244262e-06
3.2244367e-06
3.2244476e-06
3.2244589e-06
3.2244701e-06
3.2244812e-06
3.2244914e-06
3.2245008e-06
3.2245088e-06
3.2245148e-06
3.2245178e-06
3.2245172e-06
3.2245126e-06
3.2245035e-06
3.2244899e-06
3.224472e-06
3.2244512e-06
3.2244303e-06
3.2244115e-06
3.2243955e-06
3.2243857e-06
3.2243847e-06
3.2243936e-06
3.2244128e-06
3.2244388e-06
3.2244662e-06
3.2244905e-06
3.2245079e-06
3.2245147e-06
3.2245115e-06
3.2244999e-06
3.224485e-06
3.2244652e-06
3.2244559e-06
3.2244487e-06
3.2244569e-06
3.2244606e-06
3.224494e-06
3.2245025e-06
3.22457e-06
3.22457e-06
3.2246538e-06
3.2245756e-06
3.2247184e-06
3.2243492e-06
3.228033e-06
3.6349496e-05
3.0643674e-06
2.6592705e-06
2.6592326e-06
2.6593295e-06
2.6596167e-06
2.6596762e-06
2.6599069e-06
2.6600222e-06
2.6601786e-06
2.6603128e-06
2.660433e-06
2.6605482e-06
2.6606565e-06
2.6607552e-06
2.6608501e-06
2.6609375e-06
2.6610184e-06
2.6610969e-06
2.6611687e-06
2.6612373e-06
2.6613007e-06
2.6613607e-06
2.6614183e-06
2.6614717e-06
2.6615222e-06
2.6615704e-06
2.6616158e-06
2.6616587e-06
2.6617e-06
2.6617395e-06
2.6617774e-06
2.661815e-06
2.6618492e-06
2.6618772e-06
2.6619026e-06
2.6619314e-06
2.6619602e-06
2.6619849e-06
2.6620084e-06
2.6620315e-06
2.6620541e-06
2.6620692e-06
2.6620912e-06
2.6621405e-06
2.6621529e-06
2.6621658e-06
2.6621777e-06
2.6621891e-06
2.6622002e-06
2.6622112e-06
2.662222e-06
2.6622326e-06
2.6622433e-06
2.6622543e-06
2.6622656e-06
2.662277e-06
2.6622884e-06
2.6622995e-06
2.6623103e-06
2.6623203e-06
2.6623292e-06
2.6623362e-06
2.6623405e-06
2.6623416e-06
2.662339e-06
2.6623321e-06
2.6623209e-06
2.6623054e-06
2.6622873e-06
2.6622681e-06
2.6622502e-06
2.6622357e-06
2.6622267e-06
2.6622256e-06
2.6622339e-06
2.6622491e-06
2.6622681e-06
2.6622885e-06
2.662306e-06
2.6623167e-06
2.6623189e-06
2.6623138e-06
2.6623034e-06
2.6622916e-06
2.6622739e-06
2.6622676e-06
2.6622625e-06
2.6622747e-06
2.6622806e-06
2.6623189e-06
2.6623256e-06
2.6623936e-06
2.6623793e-06
2.6624703e-06
2.6623833e-06
2.6625704e-06
2.6622509e-06
2.6616786e-06
6.4371164e-05
3.2627805e-06
2.2613268e-06
2.2570794e-06
2.2571366e-06
2.2573997e-06
2.2574262e-06
2.2576286e-06
2.2577211e-06
2.2578546e-06
2.2579663e-06
2.2580679e-06
2.2581668e-06
2.2582613e-06
2.2583474e-06
2.2584325e-06
2.2585094e-06
2.2585819e-06
2.2586523e-06
2.2587186e-06
2.2587834e-06
2.2588428e-06
2.2589019e-06
2.2589565e-06
2.2590097e-06
2.2590592e-06
2.2591073e-06
2.2591518e-06
2.2591949e-06
2.2592369e-06
2.2592777e-06
2.2593165e-06
2.2593537e-06
2.2593873e-06
2.2594162e-06
2.2594443e-06
2.2594719e-06
2.2594996e-06
2.2595236e-06
2.2595472e-06
2.2595705e-06
2.2595937e-06
2.2596091e-06
2.2596317e-06
2.2596758e-06
2.2596925e-06
2.259705e-06
2.259717e-06
2.2597287e-06
2.2597402e-06
2.2597515e-06
2.2597628e-06
2.259774e-06
2.2597851e-06
2.2597966e-06
2.2598083e-06
2.25982e-06
2.2598314e-06
2.2598422e-06
2.2598529e-06
2.2598629e-06
2.2598717e-06
2.2598783e-06
2.2598824e-06
2.2598833e-06
2.2598808e-06
2.2598744e-06
2.2598643e-06
2.2598511e-06
2.2598357e-06
2.2598194e-06
2.2598039e-06
2.2597925e-06
2.2597869e-06
2.2597878e-06
2.2597961e-06
2.2598103e-06
2.2598266e-06
2.259843e-06
2.2598563e-06
2.2598632e-06
2.2598622e-06
2.2598561e-06
2.2598456e-06
2.2598347e-06
2.2598181e-06
2.2598104e-06
2.2598039e-06
2.2598152e-06
2.2598201e-06
2.2598587e-06
2.259865e-06
2.2599265e-06
2.2599017e-06
2.2599939e-06
2.2599113e-06
2.2601226e-06
2.2599378e-06
2.2692445e-06
9.050539e-05
3.7816109e-06
1.9750411e-06
1.9555412e-06
1.9552495e-06
1.9554789e-06
1.9554911e-06
1.9556578e-06
1.9557361e-06
1.9558392e-06
1.9559262e-06
1.956006e-06
1.9560848e-06
1.9561595e-06
1.9562291e-06
1.9562985e-06
1.9563615e-06
1.9564232e-06
1.9564826e-06
1.956541e-06
1.9565981e-06
1.9566509e-06
1.9567042e-06
1.956753e-06
1.9568011e-06
1.9568463e-06
1.9568907e-06
1.9569314e-06
1.9569718e-06
1.9570112e-06
1.9570488e-06
1.9570841e-06
1.9571171e-06
1.9571473e-06
1.9571744e-06
1.9572018e-06
1.9572266e-06
1.9572515e-06
1.9572738e-06
1.9572956e-06
1.9573173e-06
1.9573384e-06
1.9573545e-06
1.9573743e-06
1.9574058e-06
1.9574238e-06
1.9574366e-06
1.9574485e-06
1.95746e-06
1.9574716e-06
1.9574828e-06
1.9574935e-06
1.9575048e-06
1.9575163e-06
1.9575279e-06
1.9575399e-06
1.9575518e-06
1.9575631e-06
1.9575744e-06
1.9575852e-06
1.957595e-06
1.9576033e-06
1.9576098e-06
1.9576138e-06
1.9576148e-06
1.9576126e-06
1.9576069e-06
1.9575978e-06
1.9575866e-06
1.9575737e-06
1.9575602e-06
1.9575477e-06
1.9575385e-06
1.957535e-06
1.9575374e-06
1.957545e-06
1.9575574e-06
1.957572e-06
1.9575864e-06
1.9575973e-06
1.9576029e-06
1.9576025e-06
1.9575974e-06
1.9575885e-06
1.9575787e-06
1.9575641e-06
1.9575546e-06
1.9575455e-06
1.9575531e-06
1.9575556e-06
1.9575902e-06
1.9575964e-06
1.9576518e-06
1.9576241e-06
1.9577115e-06
1.9576344e-06
1.9578366e-06
1.9577347e-06
1.9588283e-06
0.00011100873
4.523023e-06
1.7546003e-06
1.7216334e-06
1.7212683e-06
1.72145e-06
1.7214718e-06
1.7216035e-06
1.7216797e-06
1.7217619e-06
1.7218353e-06
1.7219003e-06
1.7219656e-06
1.7220247e-06
1.722082e-06
1.7221379e-06
1.7221901e-06
1.7222422e-06
1.7222918e-06
1.7223418e-06
1.7223894e-06
1.7224343e-06
1.722479e-06
1.7225211e-06
1.7225615e-06
1.7226e-06
1.7226374e-06
1.7226717e-06
1.7227063e-06
1.7227392e-06
1.7227704e-06
1.7227994e-06
1.7228268e-06
1.7228522e-06
1.722876e-06
1.7229e-06
1.7229212e-06
1.7229428e-06
1.7229628e-06
1.722982e-06
1.7230007e-06
1.7230188e-06
1.7230337e-06
1.7230498e-06
1.7230713e-06
1.7230869e-06
1.7230985e-06
1.7231096e-06
1.7231205e-06
1.7231312e-06
1.7231417e-06
1.7231512e-06
1.723162e-06
1.7231729e-06
1.7231843e-06
1.7231963e-06
1.723208e-06
1.7232191e-06
1.7232304e-06
1.7232411e-06
1.7232501e-06
1.7232579e-06
1.723264e-06
1.7232677e-06
1.7232686e-06
1.7232666e-06
1.7232618e-06
1.7232543e-06
1.723245e-06
1.7232349e-06
1.7232246e-06
1.7232154e-06
1.7232088e-06
1.7232062e-06
1.7232088e-06
1.7232161e-06
1.723227e-06
1.7232397e-06
1.7232524e-06
1.7232629e-06
1.723269e-06
1.7232698e-06
1.7232667e-06
1.7232593e-06
1.7232505e-06
1.7232369e-06
1.7232267e-06
1.7232157e-06
1.72322e-06
1.7232215e-06
1.7232524e-06
1.7232586e-06
1.7233062e-06
1.7232774e-06
1.7233523e-06
1.7232841e-06
1.7234542e-06
1.7233674e-06
1.7316004e-06
0.00012901453
5.3126042e-06
1.5689164e-06
1.5371109e-06
1.5372257e-06
1.5373686e-06
1.5374111e-06
1.5375164e-06
1.5375858e-06
1.5376582e-06
1.5377215e-06
1.5377799e-06
1.5378366e-06
1.5378862e-06
1.5379361e-06
1.5379827e-06
1.5380273e-06
1.5380709e-06
1.538111e-06
1.5381516e-06
1.538189e-06
1.538225e-06
1.5382602e-06
1.5382941e-06
1.538326e-06
1.5383564e-06
1.5383859e-06
1.5384131e-06
1.5384405e-06
1.5384662e-06
1.5384909e-06
1.5385139e-06
1.5385362e-06
1.5385573e-06
1.5385774e-06
1.5385973e-06
1.5386153e-06
1.5386333e-06
1.5386503e-06
1.5386665e-06
1.538682e-06
1.5386964e-06
1.5387091e-06
1.5387221e-06
1.5387367e-06
1.5387491e-06
1.5387588e-06
1.5387683e-06
1.5387776e-06
1.5387868e-06
1.5387962e-06
1.538805e-06
1.5388148e-06
1.5388249e-06
1.5388357e-06
1.5388466e-06
1.5388576e-06
1.5388684e-06
1.5388789e-06
1.5388888e-06
1.5388968e-06
1.538904e-06
1.5389094e-06
1.5389126e-06
1.5389134e-06
1.5389115e-06
1.5389074e-06
1.5389016e-06
1.5388945e-06
1.5388868e-06
1.5388793e-06
1.5388729e-06
1.5388682e-06
1.5388664e-06
1.5388688e-06
1.5388758e-06
1.5388857e-06
1.5388971e-06
1.5389089e-06
1.5389196e-06
1.5389267e-06
1.5389298e-06
1.5389286e-06
1.5389227e-06
1.5389143e-06
1.5389014e-06
1.5388906e-06
1.5388801e-06
1.5388836e-06
1.5388865e-06
1.5389151e-06
1.5389212e-06
1.5389597e-06
1.538929e-06
1.5389851e-06
1.538923e-06
1.5390445e-06
1.5389801e-06
1.5424603e-06
0.00014593365
6.7559261e-06
1.4532978e-06
1.3895732e-06
1.3893833e-06
1.3894862e-06
1.3895307e-06
1.389618e-06
1.3896663e-06
1.3897309e-06
1.3897774e-06
1.3898286e-06
1.3898734e-06
1.3899141e-06
1.3899558e-06
1.3899928e-06
1.390029e-06
1.3900632e-06
1.3900932e-06
1.3901251e-06
1.3901524e-06
1.3901806e-06
1.3902068e-06
1.3902326e-06
1.3902568e-06
1.3902798e-06
1.3903023e-06
1.3903231e-06
1.3903443e-06
1.3903639e-06
1.3903835e-06
1.390402e-06
1.3904198e-06
1.3904373e-06
1.3904539e-06
1.3904702e-06
1.3904851e-06
1.3904998e-06
1.3905137e-06
1.3905267e-06
1.3905392e-06
1.3905507e-06
1.3905611e-06
1.3905713e-06
1.3905818e-06
1.3905912e-06
1.3905993e-06
1.3906072e-06
1.3906151e-06
1.3906231e-06
1.3906312e-06
1.3906395e-06
1.3906484e-06
1.3906576e-06
1.3906675e-06
1.3906777e-06
1.3906879e-06
1.3906979e-06
1.3907077e-06
1.3907167e-06
1.3907236e-06
1.3907297e-06
1.3907342e-06
1.3907368e-06
1.3907373e-06
1.3907357e-06
1.3907323e-06
1.3907278e-06
1.3907226e-06
1.3907169e-06
1.3907112e-06
1.3907064e-06
1.3907032e-06
1.3907022e-06
1.3907046e-06
1.3907109e-06
1.3907204e-06
1.3907313e-06
1.3907431e-06
1.3907544e-06
1.3907634e-06
1.3907681e-06
1.3907686e-06
1.3907641e-06
1.390756e-06
1.3907444e-06
1.390735e-06
1.3907273e-06
1.3907334e-06
1.3907387e-06
1.3907656e-06
1.3907717e-06
1.3908026e-06
1.3907743e-06
1.3908157e-06
1.3907614e-06
1.3908521e-06
1.390809e-06
1.3975013e-06
0.00016034508
9.4937727e-06
1.4290086e-06
1.2669898e-06
1.2649311e-06
1.2649755e-06
1.2649933e-06
1.2650563e-06
1.2650749e-06
1.2651214e-06
1.2651435e-06
1.265179e-06
1.2652056e-06
1.2652321e-06
1.26526e-06
1.265284e-06
1.2653083e-06
1.2653304e-06
1.2653502e-06
1.2653725e-06
1.2653907e-06
1.2654104e-06
1.2654284e-06
1.2654468e-06
1.2654636e-06
1.2654804e-06
1.2654969e-06
1.2655125e-06
1.2655285e-06
1.2655433e-06
1.2655585e-06
1.2655729e-06
1.2655872e-06
1.2656011e-06
1.2656141e-06
1.265627e-06
1.2656392e-06
1.2656509e-06
1.2656623e-06
1.2656724e-06
1.2656822e-06
1.2656913e-06
1.2656996e-06
1.2657076e-06
1.2657155e-06
1.265723e-06
1.2657298e-06
1.2657363e-06
1.2657429e-06
1.26575e-06
1.2657571e-06
1.2657648e-06
1.265773e-06
1.2657817e-06
1.2657907e-06
1.2658e-06
1.2658094e-06
1.2658185e-06
1.2658275e-06
1.2658353e-06
1.2658414e-06
1.2658464e-06
1.26585e-06
1.2658519e-06
1.2658523e-06
1.2658509e-06
1.2658484e-06
1.2658449e-06
1.2658411e-06
1.2658368e-06
1.2658328e-06
1.2658292e-06
1.2658268e-06
1.2658263e-06
1.2658285e-06
1.2658339e-06
1.2658427e-06
1.2658539e-06
1.2658658e-06
1.2658779e-06
1.2658881e-06
1.2658942e-06
1.2658958e-06
1.265892e-06
1.2658853e-06
1.2658757e-06
1.2658683e-06
1.2658651e-06
1.2658754e-06
1.2658837e-06
1.2659081e-06
1.2659143e-06
1.2659417e-06
1.2659221e-06
1.2659662e-06
1.2659414e-06
1.2660211e-06
1.2660215e-06
1.2736473e-06
0.0001708383
1.2142567e-05
1.4229097e-06
1.1594011e-06
1.1552307e-06
1.1552009e-06
1.1551864e-06
1.1552136e-06
1.155205e-06
1.1552236e-06
1.1552223e-06
1.1552355e-06
1.1552418e-06
1.1552505e-06
1.1552613e-06
1.1552698e-06
1.1552803e-06
1.1552886e-06
1.1552978e-06
1.1553097e-06
1.1553185e-06
1.1553303e-06
1.15534e-06
1.155351e-06
1.1553611e-06
1.1553722e-06
1.1553832e-06
1.1553933e-06
1.1554046e-06
1.1554151e-06
1.1554262e-06
1.1554371e-06
1.1554474e-06
1.1554579e-06
1.1554679e-06
1.1554775e-06
1.1554868e-06
1.1554956e-06
1.1555042e-06
1.1555119e-06
1.1555194e-06
1.1555262e-06
1.1555325e-06
1.1555387e-06
1.1555444e-06
1.1555501e-06
1.1555554e-06
1.1555609e-06
1.1555665e-06
1.1555725e-06
1.1555788e-06
1.1555857e-06
1.1555932e-06
1.1556012e-06
1.1556094e-06
1.155618e-06
1.1556263e-06
1.1556343e-06
1.1556421e-06
1.155649e-06
1.1556541e-06
1.1556581e-06
1.1556609e-06
1.1556621e-06
1.1556623e-06
1.1556612e-06
1.1556592e-06
1.1556568e-06
1.1556538e-06
1.1556507e-06
1.1556474e-06
1.1556446e-06
1.1556427e-06
1.1556421e-06
1.1556441e-06
1.1556489e-06
1.155657e-06
1.1556674e-06
1.1556795e-06
1.155692e-06
1.1557027e-06
1.1557096e-06
1.1557115e-06
1.155708e-06
1.155702e-06
1.155694e-06
1.1556895e-06
1.1556903e-06
1.155704e-06
1.1557145e-06
1.155738e-06
1.1557459e-06
1.1557732e-06
1.1557656e-06
1.1558139e-06
1.1558154e-06
1.1558979e-06
1.1558895e-06
1.1605366e-06
0.0001773489
1.3406142e-05
1.3910746e-06
1.0637749e-06
1.0585969e-06
1.0585117e-06
1.0584791e-06
1.0584703e-06
1.0584467e-06
1.0584385e-06
1.0584218e-06
1.0584151e-06
1.0584066e-06
1.0584008e-06
1.0583973e-06
1.058393e-06
1.0583924e-06
1.0583902e-06
1.05839e-06
1.0583933e-06
1.0583939e-06
1.0583983e-06
1.058401e-06
1.058406e-06
1.0584101e-06
1.0584157e-06
1.0584214e-06
1.0584271e-06
1.0584339e-06
1.0584406e-06
1.0584473e-06
1.058454e-06
1.0584611e-06
1.0584679e-06
1.0584744e-06
1.0584809e-06
1.0584874e-06
1.0584935e-06
1.0584992e-06
1.0585046e-06
1.0585098e-06
1.0585144e-06
1.0585189e-06
1.0585231e-06
1.0585273e-06
1.0585313e-06
1.0585354e-06
1.0585397e-06
1.0585439e-06
1.0585487e-06
1.0585539e-06
1.0585598e-06
1.0585664e-06
1.0585731e-06
1.0585805e-06
1.0585877e-06
1.058595e-06
1.0586021e-06
1.0586085e-06
1.0586142e-06
1.0586183e-06
1.0586214e-06
1.0586231e-06
1.0586238e-06
1.0586237e-06
1.0586225e-06
1.0586211e-06
1.0586192e-06
1.0586172e-06
1.0586144e-06
1.0586118e-06
1.0586094e-06
1.0586076e-06
1.058607e-06
1.0586083e-06
1.0586125e-06
1.0586196e-06
1.0586295e-06
1.0586407e-06
1.0586524e-06
1.0586619e-06
1.0586681e-06
1.0586695e-06
1.0586658e-06
1.0586602e-06
1.058654e-06
1.0586524e-06
1.0586562e-06
1.0586709e-06
1.0586829e-06
1.0587046e-06
1.0587134e-06
1.0587397e-06
1.05874e-06
1.0587862e-06
1.0588034e-06
1.0588874e-06
1.0589307e-06
1.074101e-06
0.0001808063
1.3536292e-05
1.3128033e-06
9.8313984e-07
9.7820062e-07
9.7809811e-07
9.7806459e-07
9.7803503e-07
9.7800909e-07
9.7798592e-07
9.7796454e-07
9.7794743e-07
9.7793218e-07
9.7791855e-07
9.7790811e-07
9.7789763e-07
9.7789097e-07
9.7788306e-07
9.7787786e-07
9.7787545e-07
9.7787119e-07
9.7787078e-07
9.7786876e-07
9.7786952e-07
9.778695e-07
9.7787113e-07
9.7787305e-07
9.7787501e-07
9.7787819e-07
9.7788113e-07
9.7788474e-07
9.7788876e-07
9.7789231e-07
9.7789626e-07
9.779003e-07
9.7790412e-07
9.7790802e-07
9.7791141e-07
9.7791525e-07
9.7791822e-07
9.7792137e-07
9.779241e-07
9.7792664e-07
9.7792914e-07
9.7793139e-07
9.7793391e-07
9.7793635e-07
9.7793924e-07
9.7794249e-07
9.7794586e-07
9.779501e-07
9.7795474e-07
9.7795989e-07
9.7796556e-07
9.7797153e-07
9.7797789e-07
9.779838e-07
9.7798968e-07
9.7799488e-07
9.7799928e-07
9.780024e-07
9.7800458e-07
9.7800552e-07
9.7800542e-07
9.780048e-07
9.7800397e-07
9.7800229e-07
9.7800097e-07
9.7799887e-07
9.7799684e-07
9.7799409e-07
9.7799195e-07
9.7799003e-07
9.7798923e-07
9.7798996e-07
9.7799319e-07
9.7799932e-07
9.780078e-07
9.7801745e-07
9.7802733e-07
9.7803536e-07
9.7804026e-07
9.7804042e-07
9.7803655e-07
9.7803179e-07
9.7802749e-07
9.7802794e-07
9.7803259e-07
9.7804559e-07
9.780564e-07
9.7807461e-07
9.7808435e-07
9.7810688e-07
9.7811189e-07
9.7814665e-07
9.7816104e-07
9.7822758e-07
9.7829711e-07
9.8680168e-07
0.00018239243
1.3363622e-05
1.2219756e-06
9.2124412e-07
9.172089e-07
9.1712014e-07
9.170953e-07
9.1706308e-07
9.1704258e-07
9.17018e-07
9.16999e-07
9.169809e-07
9.1696677e-07
9.1695197e-07
9.169412e-07
9.1692972e-07
9.1692246e-07
9.1691341e-07
9.1690694e-07
9.1690271e-07
9.1689688e-07
9.1689446e-07
9.1689092e-07
9.1688935e-07
9.168877e-07
9.1688709e-07
9.1688659e-07
9.1688676e-07
9.1688755e-07
9.1688852e-07
9.1689007e-07
9.1689159e-07
9.1689315e-07
9.1689553e-07
9.1689721e-07
9.1689917e-07
9.1690121e-07
9.1690287e-07
9.1690474e-07
9.1690614e-07
9.1690758e-07
9.1690872e-07
9.1690988e-07
9.1691086e-07
9.1691202e-07
9.1691306e-07
9.1691462e-07
9.1691619e-07
9.1691803e-07
9.1692067e-07
9.169234e-07
9.1692695e-07
9.1693113e-07
9.1693574e-07
9.1694071e-07
9.1694544e-07
9.1695028e-07
9.1695518e-07
9.169592e-07
9.1696249e-07
9.1696463e-07
9.1696575e-07
9.16966e-07
9.1696557e-07
9.1696463e-07
9.1696334e-07
9.1696221e-07
9.1696026e-07
9.1695865e-07
9.1695647e-07
9.1695419e-07
9.1695141e-07
9.1694938e-07
9.1694835e-07
9.1694904e-07
9.1695187e-07
9.1695678e-07
9.1696349e-07
9.1697111e-07
9.1697873e-07
9.1698483e-07
9.1698772e-07
9.1698687e-07
9.1698315e-07
9.1697904e-07
9.1697643e-07
9.1697873e-07
9.1698368e-07
9.1699405e-07
9.1700297e-07
9.1701603e-07
9.1702256e-07
9.170376e-07
9.170403e-07
9.1706401e-07
9.1707831e-07
9.1712479e-07
9.1716433e-07
9.2982518e-07
0.00018303775
1.2672151e-05
1.1332092e-06
8.7858645e-07
8.7555194e-07
8.7548939e-07
8.7547462e-07
8.7545024e-07
8.7543723e-07
8.7541875e-07
8.7540539e-07
8.7539218e-07
8.7538195e-07
8.7537017e-07
8.7536228e-07
8.7535332e-07
8.7534745e-07
8.7534027e-07
8.7533507e-07
8.7533101e-07
8.7532608e-07
8.7532347e-07
8.753198e-07
8.7531855e-07
8.7531591e-07
8.7531523e-07
8.7531402e-07
8.7531372e-07
8.7531352e-07
8.7531364e-07
8.7531384e-07
8.7531482e-07
8.7531551e-07
8.75316e-07
8.7531716e-07
8.7531808e-07
8.7531864e-07
8.7531954e-07
8.7532025e-07
8.7532044e-07
8.7532077e-07
8.7532089e-07
8.7532105e-07
8.7532126e-07
8.7532126e-07
8.7532167e-07
8.7532188e-07
8.7532248e-07
8.753237e-07
8.7532523e-07
8.7532754e-07
8.7533022e-07
8.7533338e-07
8.7533718e-07
8.7534103e-07
8.7534502e-07
8.7534912e-07
8.7535278e-07
8.7535629e-07
8.7535862e-07
8.7536006e-07
8.7536042e-07
8.753599e-07
8.7535878e-07
8.7535763e-07
8.7535625e-07
8.7535469e-07
8.7535333e-07
8.7535142e-07
8.7534921e-07
8.7534698e-07
8.7534485e-07
8.7534292e-07
8.7534166e-07
8.7534193e-07
8.753437e-07
8.7534732e-07
8.7535224e-07
8.7535751e-07
8.753629e-07
8.7536688e-07
8.7536839e-07
8.7536756e-07
8.7536512e-07
8.7536254e-07
8.753622e-07
8.7536495e-07
8.7536868e-07
8.7537479e-07
8.7537969e-07
8.7538687e-07
8.7539032e-07
8.7539756e-07
8.75397e-07
8.7540856e-07
8.7541751e-07
8.7544578e-07
8.7547412e-07
8.8546316e-07
0.00018326818
1.1572057e-05
1.0632869e-06
8.5218837e-07
8.4993029e-07
8.4989114e-07
8.4988311e-07
8.4986866e-07
8.4986163e-07
8.4985046e-07
8.4984244e-07
8.4983427e-07
8.4982874e-07
8.4982098e-07
8.498165e-07
8.4981039e-07
8.4980676e-07
8.4980198e-07
8.4979832e-07
8.4979581e-07
8.4979229e-07
8.4979086e-07
8.4978802e-07
8.4978742e-07
8.4978523e-07
8.4978459e-07
8.4978384e-07
8.4978327e-07
8.4978305e-07
8.4978328e-07
8.4978325e-07
8.4978349e-07
8.4978365e-07
8.4978413e-07
8.4978455e-07
8.4978484e-07
8.4978538e-07
8.4978533e-07
8.4978552e-07
8.4978548e-07
8.4978533e-07
8.4978499e-07
8.4978441e-07
8.4978373e-07
8.4978336e-07
8.4978289e-07
8.4978299e-07
8.4978309e-07
8.4978364e-07
8.4978483e-07
8.497862e-07
8.4978835e-07
8.497911e-07
8.4979424e-07
8.4979747e-07
8.4980099e-07
8.4980411e-07
8.4980733e-07
8.4980979e-07
8.4981141e-07
8.498124e-07
8.4981224e-07
8.4981171e-07
8.4981032e-07
8.4980894e-07
8.4980756e-07
8.4980607e-07
8.4980421e-07
8.4980253e-07
8.4980103e-07
8.4979902e-07
8.4979692e-07
8.4979503e-07
8.4979378e-07
8.4979348e-07
8.4979416e-07
8.4979628e-07
8.4979944e-07
8.4980294e-07
8.4980652e-07
8.4980917e-07
8.4981012e-07
8.4980964e-07
8.498084e-07
8.4980753e-07
8.4980823e-07
8.4981058e-07
8.4981271e-07
8.4981491e-07
8.4981585e-07
8.4981864e-07
8.4982048e-07
8.4982453e-07
8.4982336e-07
8.4982713e-07
8.49831e-07
8.4984735e-07
8.4987702e-07
8.6836292e-07
0.00018331306
1.0790008e-05
1.0180454e-06
8.3741024e-07
8.3564897e-07
8.3562535e-07
8.3562103e-07
8.3561386e-07
8.356105e-07
8.3560499e-07
8.3560068e-07
8.3559675e-07
8.3559363e-07
8.355892e-07
8.3558724e-07
8.3558411e-07
8.3558178e-07
8.3557901e-07
8.3557723e-07
8.3557566e-07
8.3557367e-07
8.3557279e-07
8.3557101e-07
8.3557074e-07
8.3556976e-07
8.355692e-07
8.3556896e-07
8.3556858e-07
8.3556882e-07
8.3556871e-07
8.3556892e-07
8.3556954e-07
8.355696e-07
8.3556992e-07
8.3557041e-07
8.355705e-07
8.355706e-07
8.3557042e-07
8.3557064e-07
8.3556988e-07
8.355695e-07
8.3556888e-07
8.3556822e-07
8.3556752e-07
8.3556665e-07
8.3556613e-07
8.3556566e-07
8.3556561e-07
8.355658e-07
8.3556674e-07
8.3556802e-07
8.3556985e-07
8.3557198e-07
8.3557466e-07
8.3557779e-07
8.3558066e-07
8.3558369e-07
8.3558634e-07
8.3558847e-07
8.3558976e-07
8.3559026e-07
8.3559004e-07
8.3558927e-07
8.3558815e-07
8.3558673e-07
8.3558506e-07
8.3558371e-07
8.3558223e-07
8.3558082e-07
8.3557892e-07
8.3557721e-07
8.3557505e-07
8.3557337e-07
8.355719e-07
8.3557132e-07
8.3557133e-07
8.3557198e-07
8.3557281e-07
8.3557464e-07
8.355766e-07
8.3557831e-07
8.3557936e-07
8.3557998e-07
8.3558049e-07
8.3558124e-07
8.3558295e-07
8.355846e-07
8.3558532e-07
8.3558466e-07
8.3558322e-07
8.3558296e-07
8.3558253e-07
8.3558467e-07
8.3558444e-07
8.3558776e-07
8.3559145e-07
8.3559932e-07
8.3561878e-07
8.4638741e-07
0.00018330507
1.0312762e-05
9.9223458e-07
8.2985442e-07
8.2837629e-07
8.2836129e-07
8.2835914e-07
8.28356e-07
8.2835446e-07
8.2835212e-07
8.2835001e-07
8.283481e-07
8.2834675e-07
8.2834443e-07
8.2834391e-07
8.283418e-07
8.2834096e-07
8.2833971e-07
8.2833851e-07
8.2833765e-07
8.2833678e-07
8.283365e-07
8.2833552e-07
8.2833563e-07
8.2833529e-07
8.2833496e-07
8.2833525e-07
8.2833488e-07
8.283353e-07
8.283356e-07
8.2833577e-07
8.2833623e-07
8.2833662e-07
8.2833731e-07
8.283373e-07
8.2833746e-07
8.2833801e-07
8.2833759e-07
8.2833746e-07
8.2833708e-07
8.2833657e-07
8.2833577e-07
8.2833491e-07
8.2833408e-07
8.2833339e-07
8.2833266e-07
8.2833218e-07
8.2833204e-07
8.2833235e-07
8.2833268e-07
8.2833382e-07
8.2833542e-07
8.2833781e-07
8.2834021e-07
8.2834282e-07
8.2834549e-07
8.2834805e-07
8.283508e-07
8.2835269e-07
8.2835387e-07
8.2835419e-07
8.2835393e-07
8.2835252e-07
8.2835147e-07
8.2835011e-07
8.283488e-07
8.2834742e-07
8.2834646e-07
8.283452e-07
8.2834365e-07
8.2834209e-07
8.2834045e-07
8.2833838e-07
8.283365e-07
8.283345e-07
8.2833344e-07
8.2833283e-07
8.283331e-07
8.2833394e-07
8.283354e-07
8.283372e-07
8.2833928e-07
8.2834049e-07
8.2834181e-07
8.2834334e-07
8.2834509e-07
8.2834598e-07
8.283463e-07
8.2834429e-07
8.2834196e-07
8.2833885e-07
8.2833651e-07
8.2833748e-07
8.2833934e-07
8.2834487e-07
8.2835034e-07
8.283536e-07
8.2836291e-07
8.4250829e-07
0.00018328729
1.0049533e-05
9.7874126e-07
8.2629229e-07
8.2496469e-07
8.2495392e-07
8.2495289e-07
8.2495166e-07
8.2495107e-07
8.2494998e-07
8.2494902e-07
8.2494869e-07
8.2494752e-07
8.2494651e-07
8.2494654e-07
8.2494555e-07
8.2494481e-07
8.2494452e-07
8.2494412e-07
8.2494365e-07
8.2494345e-07
8.2494295e-07
8.2494241e-07
8.2494283e-07
8.249427e-07
8.249429e-07
8.2494327e-07
8.2494371e-07
8.2494391e-07
8.2494439e-07
8.2494433e-07
8.2494531e-07
8.2494596e-07
8.2494622e-07
8.2494666e-07
8.2494701e-07
8.2494729e-07
8.2494723e-07
8.2494705e-07
8.2494649e-07
8.2494601e-07
8.249452e-07
8.2494453e-07
8.2494364e-07
8.2494281e-07
8.2494209e-07
8.2494159e-07
8.2494142e-07
8.249416e-07
8.2494193e-07
8.2494328e-07
8.2494474e-07
8.2494655e-07
8.2494898e-07
8.2495127e-07
8.2495377e-07
8.2495651e-07
8.249588e-07
8.2496009e-07
8.2496123e-07
8.2496146e-07
8.2496128e-07
8.2496086e-07
8.2495964e-07
8.2495854e-07
8.2495766e-07
8.2495643e-07
8.2495546e-07
8.2495413e-07
8.2495316e-07
8.2495131e-07
8.2494968e-07
8.2494742e-07
8.2494524e-07
8.2494284e-07
8.2494112e-07
8.2494009e-07
8.2493997e-07
8.2494018e-07
8.2494142e-07
8.2494297e-07
8.2494491e-07
8.2494616e-07
8.2494732e-07
8.2494855e-07
8.249497e-07
8.2495088e-07
8.2495223e-07
8.2495113e-07
8.2494954e-07
8.2494502e-07
8.2494092e-07
8.249406e-07
8.2494416e-07
8.2495149e-07
8.2496042e-07
8.2496283e-07
8.2497095e-07
8.3499595e-07
0.00018326423
9.9141445e-06
9.7208943e-07
8.2473107e-07
8.2348046e-07
8.2347154e-07
8.234713e-07
8.2347066e-07
8.2347046e-07
8.2346979e-07
8.2346931e-07
8.234694e-07
8.2346879e-07
8.2346822e-07
8.2346841e-07
8.2346777e-07
8.2346715e-07
8.2346731e-07
8.234672e-07
8.2346658e-07
8.2346662e-07
8.2346675e-07
8.2346662e-07
8.2346702e-07
8.2346714e-07
8.2346735e-07
8.2346786e-07
8.2346799e-07
8.2346872e-07
8.2346963e-07
8.2346953e-07
8.234703e-07
8.2347102e-07
8.234715e-07
8.2347186e-07
8.2347233e-07
8.234727e-07
8.2347225e-07
8.2347254e-07
8.2347198e-07
8.2347167e-07
8.2347088e-07
8.2347003e-07
8.2346935e-07
8.2346873e-07
8.2346797e-07
8.2346734e-07
8.2346717e-07
8.2346698e-07
8.2346754e-07
8.234684e-07
8.2346992e-07
8.2347163e-07
8.2347384e-07
8.2347672e-07
8.2347901e-07
8.2348096e-07
8.2348306e-07
8.2348482e-07
8.2348605e-07
8.2348626e-07
8.2348621e-07
8.2348573e-07
8.2348544e-07
8.2348463e-07
8.2348399e-07
8.2348326e-07
8.234823e-07
8.2348159e-07
8.2348045e-07
8.2347859e-07
8.2347616e-07
8.2347336e-07
8.2347035e-07
8.2346766e-07
8.2346546e-07
8.2346417e-07
8.234638e-07
8.2346414e-07
8.2346518e-07
8.2346629e-07
8.2346754e-07
8.2346844e-07
8.2346923e-07
8.2347032e-07
8.234718e-07
8.2347436e-07
8.2347779e-07
8.2347847e-07
8.2347794e-07
8.234731e-07
8.234687e-07
8.2346781e-07
8.2347167e-07
8.2347777e-07
8.2348495e-07
8.2348278e-07
8.2348629e-07
8.3563993e-07
0.00018324237
9.8470701e-06
9.6889747e-07
8.2408929e-07
8.2287809e-07
8.228699e-07
8.2286973e-07
8.2286972e-07
8.2286955e-07
8.2286906e-07
8.2286874e-07
8.2286905e-07
8.2286829e-07
8.2286821e-07
8.2286822e-07
8.2286807e-07
8.2286745e-07
8.2286758e-07
8.228677e-07
8.2286724e-07
8.2286713e-07
8.2286733e-07
8.2286732e-07
8.2286756e-07
8.2286787e-07
8.2286799e-07
8.2286856e-07
8.2286903e-07
8.2286969e-07
8.228706e-07
8.2287097e-07
8.2287171e-07
8.2287238e-07
8.2287293e-07
8.2287345e-07
8.2287395e-07
8.2287429e-07
8.2287409e-07
8.2287424e-07
8.2287394e-07
8.2287359e-07
8.2287299e-07
8.2287233e-07
8.2287164e-07
8.2287038e-07
8.2287012e-07
8.2286957e-07
8.2286939e-07
8.228696e-07
8.2287014e-07
8.2287078e-07
8.2287205e-07
8.2287406e-07
8.2287587e-07
8.2287785e-07
8.2288002e-07
8.2288236e-07
8.2288461e-07
8.2288639e-07
8.2288756e-07
8.2288812e-07
8.2288852e-07
8.2288834e-07
8.2288823e-07
8.2288816e-07
8.228877e-07
8.2288722e-07
8.2288646e-07
8.2288526e-07
8.2288334e-07
8.22881e-07
8.2287777e-07
8.2287438e-07
8.2287075e-07
8.2286773e-07
8.2286576e-07
8.2286476e-07
8.2286471e-07
8.2286564e-07
8.228671e-07
8.2286812e-07
8.228689e-07
8.228692e-07
8.2286935e-07
8.2286985e-07
8.2287184e-07
8.2287557e-07
8.2288022e-07
8.2288248e-07
8.2288311e-07
8.2287923e-07
8.2287504e-07
8.2287296e-07
8.2287394e-07
8.2287539e-07
8.2287707e-07
8.2287529e-07
8.2288895e-07
8.3605803e-07
0.00018322357
9.8136709e-06
9.6734257e-07
8.2383928e-07
8.2264885e-07
8.2264099e-07
8.2264125e-07
8.2264101e-07
8.2264081e-07
8.2264036e-07
8.2264027e-07
8.2264047e-07
8.2264017e-07
8.2263966e-07
8.2263988e-07
8.2263961e-07
8.2263923e-07
8.2263933e-07
8.2263927e-07
8.2263907e-07
8.226391e-07
8.2263925e-07
8.226394e-07
8.226395e-07
8.2263992e-07
8.2264046e-07
8.2264067e-07
8.2264123e-07
8.2264193e-07
8.2264248e-07
8.2264328e-07
8.2264401e-07
8.2264481e-07
8.2264539e-07
8.2264608e-07
8.2264646e-07
8.2264693e-07
8.2264715e-07
8.2264714e-07
8.226467e-07
8.2264644e-07
8.2264595e-07
8.2264512e-07
8.2264457e-07
8.2264415e-07
8.2264339e-07
8.2264297e-07
8.2264279e-07
8.2264286e-07
8.2264319e-07
8.2264421e-07
8.2264546e-07
8.2264705e-07
8.2264869e-07
8.2265069e-07
8.2265288e-07
8.2265492e-07
8.2265718e-07
8.2265856e-07
8.2265985e-07
8.2266082e-07
8.2266129e-07
8.2266173e-07
8.2266183e-07
8.2266198e-07
8.2266181e-07
8.2266143e-07
8.2266079e-07
8.2265899e-07
8.2265648e-07
8.2265354e-07
8.2264989e-07
8.2264593e-07
8.2264204e-07
8.2263902e-07
8.226375e-07
8.226373e-07
8.2263802e-07
8.2263947e-07
8.2264126e-07
8.2264208e-07
8.2264247e-07
8.2264149e-07
8.226406e-07
8.2264076e-07
8.226436e-07
8.2264833e-07
8.2265386e-07
8.2265749e-07
8.2265917e-07
8.2265599e-07
8.2265081e-07
8.2264617e-07
8.2264465e-07
8.2264542e-07
8.2264944e-07
8.2265008e-07
8.2265625e-07
8.3761491e-07
0.00018320793
9.7960958e-06
9.6653449e-07
8.2374505e-07
8.2256718e-07
8.2255981e-07
8.2255975e-07
8.2255976e-07
8.2255927e-07
8.2255915e-07
8.2255877e-07
8.2255917e-07
8.2255888e-07
8.2255837e-07
8.2255831e-07
8.2255832e-07