/*--------------------------------*- C++ -*----------------------------------*\
| =========                 |                                                 |
| \\      /  F ield         | OpenFOAM: The Open Source CFD Toolbox           |
|  \\    /   O peration     | Version:  2406                                  |
|   \\  /    A nd           | Website:  www.openfoam.com                      |
|    \\/     M anipulation  |                                                 |
\*---------------------------------------------------------------------------*/
FoamFile
{
    version     2.0;
    format      ascii;
    arch        "LSB;label=32;scalar=64";
    class       volScalarField;
    location    "10";
    object      k;
}
// * * * * * * * * * * * * * * * * * * * * * * * * * * * * * * * * * * * * * //

dimensions      [0 2 -2 0 0 0 0];

internalField   nonuniform List<scalar> 
30397
(
3.2290634e-06
3.2359811e-06
3.2298981e-06
3.2264568e-06
3.2189499e-06
3.2143754e-06
3.2098207e-06
3.2065366e-06
3.2046031e-06
3.2028558e-06
3.197933e-06
3.1922744e-06
3.1871773e-06
3.1808185e-06
3.1754466e-06
3.1718615e-06
3.1667775e-06
3.1617721e-06
3.1601575e-06
3.1600821e-06
3.1584473e-06
3.1557339e-06
3.1536851e-06
3.1513555e-06
3.1493833e-06
3.147919e-06
3.1476697e-06
3.14862e-06
3.1494594e-06
3.1506521e-06
3.1523849e-06
3.1540391e-06
3.1557994e-06
3.1578246e-06
3.1600625e-06
3.1621545e-06
3.1640566e-06
3.1658428e-06
3.1678362e-06
3.1704327e-06
3.172921e-06
3.1750149e-06
3.1769925e-06
3.1790839e-06
3.1812654e-06
3.1831754e-06
3.184283e-06
2.883816e-06
2.8717576e-06
2.8536362e-06
2.8399562e-06
2.8248007e-06
2.809205e-06
2.7925469e-06
2.780825e-06
2.7771259e-06
2.779085e-06
2.7780005e-06
2.7730161e-06
2.764069e-06
2.7528819e-06
2.7415055e-06
2.7300772e-06
2.7182285e-06
2.7100169e-06
2.7072839e-06
2.7079444e-06
2.7094575e-06
2.7109329e-06
2.7116902e-06
2.7089512e-06
2.7050573e-06
2.7013675e-06
2.698391e-06
2.6960278e-06
2.6946455e-06
2.6942258e-06
2.6952105e-06
2.6969862e-06
2.6984917e-06
2.6993608e-06
2.699448e-06
2.6990575e-06
2.699025e-06
2.6992644e-06
2.6993117e-06
2.6989899e-06
2.698148e-06
2.6966478e-06
2.6943308e-06
2.6913468e-06
2.6878706e-06
2.6841053e-06
2.6813019e-06
2.6143955e-06
2.5949134e-06
2.5750314e-06
2.5592868e-06
2.5442045e-06
2.5256813e-06
2.5053008e-06
2.4893138e-06
2.4813371e-06
2.4800665e-06
2.4801012e-06
2.4737312e-06
2.4635175e-06
2.4537088e-06
2.4423914e-06
2.4309826e-06
2.4187717e-06
2.4098731e-06
2.4070415e-06
2.4070812e-06
2.4077945e-06
2.4073161e-06
2.4053947e-06
2.4003202e-06
2.3934929e-06
2.3866596e-06
2.3811673e-06
2.3761637e-06
2.3722394e-06
2.3699911e-06
2.3692744e-06
2.3692244e-06
2.3686545e-06
2.3669437e-06
2.3640241e-06
2.3604754e-06
2.3570102e-06
2.3534765e-06
2.3493956e-06
2.3445655e-06
2.3391352e-06
2.3339473e-06
2.329599e-06
2.3263471e-06
2.3238863e-06
2.3223289e-06
2.3216032e-06
2.3991863e-06
2.3725372e-06
2.3499706e-06
2.3322113e-06
2.3164385e-06
2.2958991e-06
2.2759692e-06
2.2599699e-06
2.2505486e-06
2.2481361e-06
2.2462686e-06
2.2384889e-06
2.2296191e-06
2.218522e-06
2.203836e-06
2.1926338e-06
2.1827943e-06
2.1737185e-06
2.1690896e-06
2.1661252e-06
2.1619851e-06
2.1566705e-06
2.1510789e-06
2.1455156e-06
2.1393672e-06
2.1342785e-06
2.129584e-06
2.1237514e-06
2.1181731e-06
2.1138057e-06
2.1100499e-06
2.1059529e-06
2.1009776e-06
2.094722e-06
2.0876785e-06
2.0807571e-06
2.0743529e-06
2.0680301e-06
2.061872e-06
2.0557523e-06
2.0501484e-06
2.0454934e-06
2.042529e-06
2.0416207e-06
2.0420213e-06
2.042935e-06
2.0431526e-06
2.1837275e-06
2.1774074e-06
2.1549923e-06
2.1344912e-06
2.1175923e-06
2.0960261e-06
2.0765156e-06
2.0599572e-06
2.0506351e-06
2.0456437e-06
2.0402877e-06
2.0341339e-06
2.0257121e-06
2.0101301e-06
1.9939049e-06
1.9835818e-06
1.9731249e-06
1.9625338e-06
1.9561136e-06
1.9500804e-06
1.9430417e-06
1.9356392e-06
1.9289321e-06
1.9251532e-06
1.9212057e-06
1.9172041e-06
1.9110894e-06
1.9040896e-06
1.8975427e-06
1.8911136e-06
1.8851216e-06
1.8793305e-06
1.8727437e-06
1.8652422e-06
1.8575911e-06
1.8503511e-06
1.843672e-06
1.8374559e-06
1.8321913e-06
1.8279292e-06
1.8245224e-06
1.8213747e-06
1.8181135e-06
1.815669e-06
1.8140375e-06
1.812762e-06
1.8114551e-06
2.0238233e-06
1.9993367e-06
1.982776e-06
1.9608691e-06
1.9434542e-06
1.9226813e-06
1.9037742e-06
1.8865126e-06
1.8756262e-06
1.8668373e-06
1.8595099e-06
1.8545092e-06
1.8439692e-06
1.8274687e-06
1.8134429e-06
1.8029184e-06
1.7923307e-06
1.7839991e-06
1.777124e-06
1.7684132e-06
1.7612099e-06
1.7550136e-06
1.7497823e-06
1.7479119e-06
1.7447443e-06
1.7398666e-06
1.7326818e-06
1.7259054e-06
1.7192431e-06
1.7121788e-06
1.7055169e-06
1.6984305e-06
1.6904886e-06
1.6823035e-06
1.674402e-06
1.6675212e-06
1.6619474e-06
1.6578842e-06
1.6548835e-06
1.6518472e-06
1.6486197e-06
1.6448055e-06
1.6399108e-06
1.6354091e-06
1.6315388e-06
1.6282336e-06
1.6254966e-06
1.9251286e-06
1.8454304e-06
1.8348979e-06
1.8132325e-06
1.7959822e-06
1.776594e-06
1.7590591e-06
1.7422034e-06
1.7283498e-06
1.7171045e-06
1.7095381e-06
1.7026498e-06
1.6926561e-06
1.6794916e-06
1.6661775e-06
1.6550097e-06
1.6469581e-06
1.6412509e-06
1.6344846e-06
1.6273924e-06
1.622648e-06
1.6178927e-06
1.6152074e-06
1.612888e-06
1.6073409e-06
1.6000449e-06
1.5913426e-06
1.583641e-06
1.5755477e-06
1.5676332e-06
1.5596351e-06
1.5504777e-06
1.5411717e-06
1.532974e-06
1.5267951e-06
1.5225311e-06
1.5190544e-06
1.5153032e-06
1.5111587e-06
1.5063819e-06
1.5010132e-06
1.4957383e-06
1.4906269e-06
1.4862961e-06
1.4827924e-06
1.4800034e-06
1.4774543e-06
1.8469965e-06
1.7242696e-06
1.7125455e-06
1.6912244e-06
1.6742883e-06
1.6571435e-06
1.6414974e-06
1.6257797e-06
1.6114902e-06
1.5999845e-06
1.5913057e-06
1.5825468e-06
1.574124e-06
1.5621413e-06
1.5487253e-06
1.5397302e-06
1.5350329e-06
1.5292723e-06
1.5226621e-06
1.5193311e-06
1.5177878e-06
1.5132947e-06
1.5088379e-06
1.5029752e-06
1.4927728e-06
1.4825567e-06
1.4721928e-06
1.4622517e-06
1.4522105e-06
1.4431005e-06
1.4335535e-06
1.4234299e-06
1.4146679e-06
1.4081877e-06
1.4034376e-06
1.3990142e-06
1.3933724e-06
1.3867549e-06
1.3794166e-06
1.3720931e-06
1.3656366e-06
1.3603051e-06
1.3561033e-06
1.3527892e-06
1.3499514e-06
1.3478057e-06
1.3453875e-06
1.7822498e-06
1.6279829e-06
1.6119373e-06
1.5922934e-06
1.5755639e-06
1.5596571e-06
1.5459487e-06
1.5323711e-06
1.5189659e-06
1.5070882e-06
1.496353e-06
1.4869345e-06
1.4783119e-06
1.4652796e-06
1.4542725e-06
1.4475693e-06
1.4431758e-06
1.4376382e-06
1.4322131e-06
1.4310332e-06
1.4293828e-06
1.4228944e-06
1.4139317e-06
1.4031629e-06
1.3909212e-06
1.3792238e-06
1.3659683e-06
1.353009e-06
1.3414441e-06
1.3321121e-06
1.3223409e-06
1.3128796e-06
1.3058531e-06
1.3005057e-06
1.2949793e-06
1.2881974e-06
1.2801638e-06
1.2719854e-06
1.2639109e-06
1.2565494e-06
1.2500422e-06
1.2446491e-06
1.2404839e-06
1.2370472e-06
1.2341192e-06
1.2315356e-06
1.2292203e-06
1.7319089e-06
1.5437298e-06
1.5274548e-06
1.5087948e-06
1.4934325e-06
1.4782036e-06
1.4658411e-06
1.4538661e-06
1.4424173e-06
1.430804e-06
1.4181028e-06
1.4068848e-06
1.3952079e-06
1.3826544e-06
1.3742398e-06
1.3688614e-06
1.3632367e-06
1.357944e-06
1.3542358e-06
1.352842e-06
1.3487069e-06
1.3385181e-06
1.3261126e-06
1.3134516e-06
1.3006502e-06
1.2869305e-06
1.2724565e-06
1.2592806e-06
1.2478192e-06
1.2388427e-06
1.2309751e-06
1.2241962e-06
1.2183436e-06
1.2120765e-06
1.2051358e-06
1.1979305e-06
1.1904415e-06
1.1831931e-06
1.1766181e-06
1.1703142e-06
1.1644076e-06
1.1592813e-06
1.155383e-06
1.1521367e-06
1.149124e-06
1.1463405e-06
1.143847e-06
1.6898173e-06
1.4675243e-06
1.4541159e-06
1.4360802e-06
1.4211576e-06
1.4064861e-06
1.3955742e-06
1.385757e-06
1.3765476e-06
1.3642726e-06
1.3508654e-06
1.3371038e-06
1.3227741e-06
1.3122854e-06
1.3052636e-06
1.2992989e-06
1.2936783e-06
1.2890435e-06
1.2854768e-06
1.2823491e-06
1.2750837e-06
1.2638476e-06
1.2520297e-06
1.2393085e-06
1.2258854e-06
1.2116728e-06
1.197491e-06
1.1854572e-06
1.1762027e-06
1.1702813e-06
1.1655657e-06
1.1600502e-06
1.1534565e-06
1.1466198e-06
1.1403116e-06
1.1349451e-06
1.130363e-06
1.1260402e-06
1.1213192e-06
1.1163115e-06
1.1115437e-06
1.1076776e-06
1.1046961e-06
1.102317e-06
1.1000669e-06
1.0979034e-06
1.0956042e-06
1.6620236e-06
1.401732e-06
1.3859094e-06
1.3703958e-06
1.3566904e-06
1.3425241e-06
1.332552e-06
1.3249258e-06
1.3172727e-06
1.3056768e-06
1.2922334e-06
1.2766365e-06
1.2624295e-06
1.2540979e-06
1.2460534e-06
1.2382038e-06
1.2337784e-06
1.2305084e-06
1.2250789e-06
1.220302e-06
1.2133513e-06
1.2041948e-06
1.193976e-06
1.1821666e-06
1.1689053e-06
1.155529e-06
1.1432497e-06
1.1343759e-06
1.1291658e-06
1.1259277e-06
1.1213675e-06
1.1153277e-06
1.1093366e-06
1.1046642e-06
1.1018529e-06
1.1004968e-06
1.0989998e-06
1.0963863e-06
1.0932372e-06
1.0903321e-06
1.088135e-06
1.0864953e-06
1.085035e-06
1.0836151e-06
1.0822107e-06
1.0807118e-06
1.0794435e-06
1.6398317e-06
1.3452254e-06
1.3234191e-06
1.3102248e-06
1.299116e-06
1.2859273e-06
1.2761588e-06
1.2693659e-06
1.2625931e-06
1.2525723e-06
1.2407034e-06
1.2256558e-06
1.2137737e-06
1.2053995e-06
1.1948676e-06
1.1867963e-06
1.1836393e-06
1.180213e-06
1.1746016e-06
1.1712089e-06
1.1669217e-06
1.159745e-06
1.1503064e-06
1.1391218e-06
1.1271323e-06
1.1159435e-06
1.1067853e-06
1.1015963e-06
1.0989403e-06
1.0954772e-06
1.0904311e-06
1.0857597e-06
1.0830412e-06
1.0826596e-06
1.0836659e-06
1.0845008e-06
1.0838589e-06
1.0822724e-06
1.0809183e-06
1.080434e-06
1.0807578e-06
1.0813129e-06
1.0814278e-06
1.0808759e-06
1.0799028e-06
1.0786797e-06
1.0779322e-06
1.615029e-06
1.2920166e-06
1.2688736e-06
1.2578366e-06
1.2485031e-06
1.2367926e-06
1.2276608e-06
1.2203829e-06
1.2141538e-06
1.2064019e-06
1.1963391e-06
1.1838114e-06
1.1740301e-06
1.1636593e-06
1.152043e-06
1.1456515e-06
1.1432899e-06
1.140056e-06
1.1380023e-06
1.1380673e-06
1.1340617e-06
1.1262343e-06
1.1170648e-06
1.1064739e-06
1.0963248e-06
1.0886328e-06
1.0837653e-06
1.0807373e-06
1.0775718e-06
1.0738016e-06
1.0705859e-06
1.0694515e-06
1.0703787e-06
1.0722324e-06
1.0737313e-06
1.0735786e-06
1.0717828e-06
1.0696672e-06
1.0687378e-06
1.0695164e-06
1.0717714e-06
1.0743661e-06
1.0761154e-06
1.0766959e-06
1.0762408e-06
1.0751941e-06
1.0746301e-06
1.5457287e-06
1.2416904e-06
1.2232929e-06
1.2138787e-06
1.2053685e-06
1.1948988e-06
1.186573e-06
1.1791861e-06
1.1737693e-06
1.1672687e-06
1.1584313e-06
1.149076e-06
1.1403495e-06
1.1286098e-06
1.1179142e-06
1.1135164e-06
1.1116586e-06
1.1107841e-06
1.1139936e-06
1.1153999e-06
1.1093297e-06
1.1007468e-06
1.0916145e-06
1.0815876e-06
1.0740541e-06
1.06987e-06
1.0676612e-06
1.0643344e-06
1.0605734e-06
1.057908e-06
1.0569249e-06
1.0575778e-06
1.058716e-06
1.0592262e-06
1.0585175e-06
1.0563088e-06
1.0533117e-06
1.0508202e-06
1.0499747e-06
1.0509424e-06
1.0536433e-06
1.0576059e-06
1.0618566e-06
1.064703e-06
1.0653989e-06
1.0649111e-06
1.0646281e-06
1.4481229e-06
1.1992775e-06
1.1864601e-06
1.1779172e-06
1.169957e-06
1.1607918e-06
1.1526823e-06
1.1455696e-06
1.1404472e-06
1.1346417e-06
1.1267454e-06
1.1194648e-06
1.1111836e-06
1.1000161e-06
1.0913729e-06
1.0886654e-06
1.087731e-06
1.0898434e-06
1.0954086e-06
1.0953367e-06
1.0885314e-06
1.0801628e-06
1.0711101e-06
1.0621601e-06
1.0570897e-06
1.0546326e-06
1.0517365e-06
1.046721e-06
1.0423982e-06
1.0405636e-06
1.0402165e-06
1.0400856e-06
1.0388967e-06
1.0366326e-06
1.0337096e-06
1.0301815e-06
1.0268117e-06
1.023872e-06
1.0223816e-06
1.022686e-06
1.0242769e-06
1.0263161e-06
1.0284838e-06
1.030745e-06
1.0322054e-06
1.0339868e-06
1.0360885e-06
1.388066e-06
1.1681134e-06
1.1574512e-06
1.148697e-06
1.1414609e-06
1.1333325e-06
1.1252914e-06
1.1181722e-06
1.112047e-06
1.1057641e-06
1.0997805e-06
1.0937795e-06
1.0860727e-06
1.076884e-06
1.0704832e-06
1.0685846e-06
1.0685345e-06
1.0719996e-06
1.0761028e-06
1.0745589e-06
1.0691097e-06
1.0616631e-06
1.0530736e-06
1.0447878e-06
1.0396063e-06
1.0349782e-06
1.0291935e-06
1.0232346e-06
1.0192657e-06
1.0177064e-06
1.0164757e-06
1.0141282e-06
1.0106893e-06
1.0067475e-06
1.0025449e-06
9.9786318e-07
9.9341135e-07
9.8950499e-07
9.8680965e-07
9.8531069e-07
9.8442592e-07
9.8379236e-07
9.8270094e-07
9.8120035e-07
9.8005397e-07
9.802189e-07
9.8166355e-07
1.3806288e-06
1.1478966e-06
1.1343049e-06
1.1245542e-06
1.1174163e-06
1.110166e-06
1.1020628e-06
1.0945486e-06
1.0869684e-06
1.0800316e-06
1.0761716e-06
1.0714752e-06
1.0651916e-06
1.0583796e-06
1.053408e-06
1.051117e-06
1.0507514e-06
1.0533651e-06
1.0549959e-06
1.0533047e-06
1.048864e-06
1.0418864e-06
1.0330728e-06
1.0235461e-06
1.0158107e-06
1.0077975e-06
1.0000243e-06
9.9477113e-07
9.9143677e-07
9.8937857e-07
9.863918e-07
9.8106954e-07
9.7531724e-07
9.7004567e-07
9.64908e-07
9.5930046e-07
9.5342267e-07
9.4769778e-07
9.4328467e-07
9.3993118e-07
9.3705071e-07
9.3476942e-07
9.3250022e-07
9.3032336e-07
9.288804e-07
9.2899841e-07
9.3004767e-07
1.3972154e-06
1.1323722e-06
1.1131141e-06
1.1033458e-06
1.0961099e-06
1.0891702e-06
1.0807944e-06
1.0721747e-06
1.0638115e-06
1.057195e-06
1.0550441e-06
1.0518634e-06
1.0471039e-06
1.0416063e-06
1.0365349e-06
1.0328113e-06
1.0313613e-06
1.0324147e-06
1.0332854e-06
1.0315052e-06
1.0257003e-06
1.0170633e-06
1.0066238e-06
9.9537024e-07
9.8569966e-07
9.7577627e-07
9.6837422e-07
9.6460416e-07
9.614925e-07
9.5741844e-07
9.5083324e-07
9.4305158e-07
9.3569729e-07
9.2939029e-07
9.2332977e-07
9.1668915e-07
9.0988888e-07
9.0352393e-07
8.9842635e-07
8.9475835e-07
8.9218878e-07
8.9033797e-07
8.8875277e-07
8.8688308e-07
8.8540487e-07
8.8516071e-07
8.854115e-07
1.4396014e-06
1.1165424e-06
1.0918475e-06
1.0830991e-06
1.0760562e-06
1.0689844e-06
1.0598691e-06
1.0500165e-06
1.0421147e-06
1.0366716e-06
1.0350427e-06
1.0331004e-06
1.0292499e-06
1.0232428e-06
1.0167743e-06
1.0119529e-06
1.0095618e-06
1.0094485e-06
1.0105308e-06
1.0075899e-06
9.9816517e-07
9.8664471e-07
9.7484062e-07
9.6273659e-07
9.5238375e-07
9.4299834e-07
9.3733878e-07
9.341467e-07
9.2898114e-07
9.2109423e-07
9.1198559e-07
9.0391715e-07
8.9699196e-07
8.9062364e-07
8.8398839e-07
8.7681043e-07
8.7021038e-07
8.6469615e-07
8.608617e-07
8.5859704e-07
8.5740452e-07
8.5639603e-07
8.5492639e-07
8.5258746e-07
8.5013999e-07
8.4833689e-07
8.4681969e-07
1.4558503e-06
1.0979312e-06
1.0703812e-06
1.0622492e-06
1.0558611e-06
1.0486042e-06
1.0386943e-06
1.0280708e-06
1.0212121e-06
1.0169431e-06
1.0150884e-06
1.013409e-06
1.0091365e-06
1.0014756e-06
9.9350342e-07
9.8865597e-07
9.8622619e-07
9.8572301e-07
9.8632343e-07
9.8083173e-07
9.6752287e-07
9.540811e-07
9.4215404e-07
9.3010128e-07
9.1995574e-07
9.1220525e-07
9.0763279e-07
9.0307808e-07
8.9458318e-07
8.8427491e-07
8.7534696e-07
8.6869818e-07
8.6305877e-07
8.5740001e-07
8.5148473e-07
8.4531365e-07
8.4006115e-07
8.3601102e-07
8.3340068e-07
8.3203525e-07
8.3130946e-07
8.3004699e-07
8.2740407e-07
8.2368948e-07
8.2016603e-07
8.1735638e-07
8.1510668e-07
1.457279e-06
1.0757354e-06
1.0484901e-06
1.0406992e-06
1.035097e-06
1.0278887e-06
1.0172173e-06
1.0062301e-06
1.0007848e-06
9.9740353e-07
9.9467274e-07
9.9220737e-07
9.8644392e-07
9.7687286e-07
9.681826e-07
9.6461566e-07
9.6301205e-07
9.623421e-07
9.6078904e-07
9.5207558e-07
9.3651705e-07
9.2367163e-07
9.127487e-07
9.0044619e-07
8.904707e-07
8.8379336e-07
8.7945911e-07
8.7264137e-07
8.622703e-07
8.519599e-07
8.4457143e-07
8.4000572e-07
8.3646326e-07
8.3240817e-07
8.2759232e-07
8.2193182e-07
8.1744752e-07
8.1477133e-07
8.1278804e-07
8.1135184e-07
8.0981766e-07
8.0721569e-07
8.0324855e-07
7.9921827e-07
7.9599233e-07
7.9350317e-07
7.9145134e-07
1.4556362e-06
1.051179e-06
1.0256087e-06
1.0186878e-06
1.0137953e-06
1.0070036e-06
9.9587543e-07
9.8507994e-07
9.8052915e-07
9.7754771e-07
9.7379033e-07
9.6969848e-07
9.6183663e-07
9.5124258e-07
9.4362692e-07
9.4130195e-07
9.4058127e-07
9.3881178e-07
9.3463686e-07
9.2334063e-07
9.0782355e-07
8.9735877e-07
8.8700545e-07
8.7432404e-07
8.6442574e-07
8.5821013e-07
8.5352517e-07
8.4482239e-07
8.3425836e-07
8.2563716e-07
8.2080892e-07
8.1822973e-07
8.1591536e-07
8.1246713e-07
8.0808242e-07
8.03179e-07
7.997595e-07
7.9773138e-07
7.9558454e-07
7.9331757e-07
7.9080047e-07
7.8761597e-07
7.8390898e-07
7.8061708e-07
7.7814051e-07
7.7628865e-07
7.7504838e-07
1.4503124e-06
1.0271721e-06
1.0014227e-06
9.9617613e-07
9.922003e-07
9.8606788e-07
9.7502686e-07
9.6506304e-07
9.6017433e-07
9.5720049e-07
9.5295451e-07
9.4681961e-07
9.3724665e-07
9.2717623e-07
9.215984e-07
9.19837e-07
9.1826891e-07
9.1506589e-07
9.0896904e-07
8.9623858e-07
8.8282585e-07
8.742349e-07
8.6342785e-07
8.5069794e-07
8.4221257e-07
8.3674744e-07
8.3084323e-07
8.209298e-07
8.1174464e-07
8.0578966e-07
8.0264218e-07
8.0096701e-07
7.9913836e-07
7.960115e-07
7.9214156e-07
7.8814002e-07
7.8529614e-07
7.8294745e-07
7.8048862e-07
7.7799725e-07
7.7536879e-07
7.7243861e-07
7.6949269e-07
7.6718271e-07
7.6578362e-07
7.6502325e-07
7.6527155e-07
1.4471858e-06
1.0067724e-06
9.7678462e-07
9.7366541e-07
9.709439e-07
9.6573204e-07
9.5534805e-07
9.4611542e-07
9.399975e-07
9.3674202e-07
9.3234121e-07
9.2455433e-07
9.1417778e-07
9.0595047e-07
9.0237359e-07
8.9982058e-07
8.964867e-07
8.9207013e-07
8.8450019e-07
8.7213408e-07
8.6118306e-07
8.5254553e-07
8.4098861e-07
8.3040664e-07
8.2382601e-07
8.1846828e-07
8.1087231e-07
8.0104521e-07
7.942591e-07
7.9018358e-07
7.8794701e-07
7.8676613e-07
7.855195e-07
7.8292364e-07
7.7978685e-07
7.7646365e-07
7.7378851e-07
7.7118586e-07
7.6854115e-07
7.662619e-07
7.6416606e-07
7.62179e-07
7.6039553e-07
7.5927575e-07
7.592475e-07
7.5966889e-07
7.6112356e-07
1.4472304e-06
9.9047942e-07
9.5271245e-07
9.5203414e-07
9.505591e-07
9.4635848e-07
9.3693125e-07
9.2837939e-07
9.205385e-07
9.1676349e-07
9.1209208e-07
9.0309907e-07
8.9337056e-07
8.8758726e-07
8.8496513e-07
8.8070079e-07
8.7582547e-07
8.7047159e-07
8.6214617e-07
8.5088205e-07
8.4127346e-07
8.3167362e-07
8.215701e-07
8.1412976e-07
8.0874838e-07
8.0245593e-07
7.9383546e-07
7.8524643e-07
7.8042799e-07
7.7759719e-07
7.7640362e-07
7.7614454e-07
7.75687e-07
7.7384972e-07
7.7128992e-07
7.6810837e-07
7.6516385e-07
7.6271326e-07
7.6047194e-07
7.5890169e-07
7.5772216e-07
7.5655299e-07
7.5567041e-07
7.5582212e-07
7.5696108e-07
7.5807172e-07
7.5991448e-07
1.4498453e-06
9.7929332e-07
9.3059578e-07
9.3185705e-07
9.3133164e-07
9.2790954e-07
9.1958613e-07
9.1167917e-07
9.022747e-07
8.9744913e-07
8.9206359e-07
8.8302231e-07
8.7508915e-07
8.7136223e-07
8.6840689e-07
8.6246316e-07
8.5672715e-07
8.5065476e-07
8.4201664e-07
8.3180914e-07
8.2266149e-07
8.1353016e-07
8.0657141e-07
8.0142193e-07
7.9573578e-07
7.8865879e-07
7.8011746e-07
7.7302318e-07
7.6987998e-07
7.6830743e-07
7.6837856e-07
7.6955494e-07
7.702422e-07
7.6877416e-07
7.6595049e-07
7.6260135e-07
7.5979146e-07
7.5765196e-07
7.5578193e-07
7.5469598e-07
7.5412444e-07
7.5352509e-07
7.5331805e-07
7.5432359e-07
7.5640144e-07
7.5815616e-07
7.6026992e-07
1.4550119e-06
9.7342327e-07
9.1116761e-07
9.1325328e-07
9.133223e-07
9.1030314e-07
9.0304903e-07
8.9558608e-07
8.8521737e-07
8.7905445e-07
8.7269247e-07
8.6452824e-07
8.5884705e-07
8.5614917e-07
8.5212461e-07
8.4533605e-07
8.3952141e-07
8.3273071e-07
8.2377417e-07
8.1473006e-07
8.0628714e-07
7.9923726e-07
7.9550587e-07
7.9091713e-07
7.840735e-07
7.7673255e-07
7.6949554e-07
7.6457168e-07
7.6334351e-07
7.6310165e-07
7.6440276e-07
7.664779e-07
7.6721839e-07
7.6517373e-07
7.6158847e-07
7.5842751e-07
7.5600131e-07
7.541598e-07
7.5278544e-07
7.5213398e-07
7.5210697e-07
7.520846e-07
7.5251921e-07
7.5452333e-07
7.5728351e-07
7.5935611e-07
7.6145999e-07
1.4604926e-06
9.7173641e-07
8.9519045e-07
8.963925e-07
8.9653876e-07
8.9363742e-07
8.8728497e-07
8.7986712e-07
8.6908949e-07
8.6194343e-07
8.5479515e-07
8.4778169e-07
8.4397977e-07
8.4117229e-07
8.3603189e-07
8.2954183e-07
8.241344e-07
8.1644421e-07
8.0759232e-07
7.9983115e-07
7.9299375e-07
7.891904e-07
7.8704542e-07
7.8157872e-07
7.7381509e-07
7.6726267e-07
7.6219884e-07
7.5969288e-07
7.6030603e-07
7.6136807e-07
7.6360795e-07
7.6522379e-07
7.6456523e-07
7.6138955e-07
7.5777703e-07
7.5503034e-07
7.5324276e-07
7.5213096e-07
7.5169303e-07
7.518595e-07
7.5248117e-07
7.5305155e-07
7.5405566e-07
7.5633297e-07
7.5895941e-07
7.6096953e-07
7.6288959e-07
1.4652831e-06
9.7149156e-07
8.836227e-07
8.8143962e-07
8.8092809e-07
8.7777908e-07
8.7184363e-07
8.6446563e-07
8.5387219e-07
8.4628088e-07
8.3892461e-07
8.3276791e-07
8.2980561e-07
8.2633904e-07
8.2068006e-07
8.1536261e-07
8.1035695e-07
8.0221934e-07
7.9394877e-07
7.8768595e-07
7.8351924e-07
7.8234998e-07
7.8009335e-07
7.7334017e-07
7.6538263e-07
7.6071556e-07
7.5819923e-07
7.5788898e-07
7.5982548e-07
7.6179535e-07
7.6380706e-07
7.6383072e-07
7.6166759e-07
7.580494e-07
7.5480873e-07
7.5281197e-07
7.522148e-07
7.5244855e-07
7.5301121e-07
7.5391256e-07
7.5492271e-07
7.5555891e-07
7.5656677e-07
7.5864127e-07
7.6091952e-07
7.6271381e-07
7.6449421e-07
1.472546e-06
9.719266e-07
8.7768742e-07
8.6842935e-07
8.6648558e-07
8.6291681e-07
8.57088e-07
8.4961419e-07
8.3965408e-07
8.3222237e-07
8.2497733e-07
8.192381e-07
8.1634774e-07
8.1182372e-07
8.0653033e-07
8.0302733e-07
7.9824403e-07
7.9043822e-07
7.8321318e-07
7.7879485e-07
7.7738014e-07
7.7708636e-07
7.7392706e-07
7.6629138e-07
7.5917373e-07
7.5648019e-07
7.5642367e-07
7.5792055e-07
7.6058827e-07
7.6237924e-07
7.6305215e-07
7.6166168e-07
7.5894018e-07
7.5560521e-07
7.5310267e-07
7.523684e-07
7.530806e-07
7.5429657e-07
7.5560954e-07
7.5720582e-07
7.5840876e-07
7.5867222e-07
7.5926681e-07
7.610228e-07
7.6326749e-07
7.6517645e-07
7.6649668e-07
1.4849855e-06
9.742469e-07
8.7581937e-07
8.5719469e-07
8.5301064e-07
8.4891326e-07
8.4300218e-07
8.3551754e-07
8.2645211e-07
8.1962253e-07
8.1276073e-07
8.0720091e-07
8.0391168e-07
7.9834346e-07
7.9418836e-07
7.922354e-07
7.8776454e-07
7.8092572e-07
7.7543248e-07
7.7302299e-07
7.7309841e-07
7.7213751e-07
7.6808606e-07
7.6047052e-07
7.5482948e-07
7.5418297e-07
7.5651766e-07
7.5924385e-07
7.6146421e-07
7.6223607e-07
7.6175224e-07
7.5965723e-07
7.569103e-07
7.543323e-07
7.5307919e-07
7.5339138e-07
7.5488597e-07
7.5665369e-07
7.5852156e-07
7.6040408e-07
7.6169814e-07
7.6211313e-07
7.6289456e-07
7.6483901e-07
7.6714025e-07
7.6861113e-07
7.6934735e-07
1.5099796e-06
9.8015095e-07
8.7573304e-07
8.4756201e-07
8.404538e-07
8.3559712e-07
8.2956561e-07
8.2226301e-07
8.1423151e-07
8.0833568e-07
8.0210373e-07
7.9682082e-07
7.9279982e-07
7.8666787e-07
7.8384531e-07
7.8281513e-07
7.7879906e-07
7.7352233e-07
7.7014855e-07
7.6948112e-07
7.6963439e-07
7.6723132e-07
7.6293945e-07
7.5585254e-07
7.5245829e-07
7.5394875e-07
7.5798581e-07
7.6068131e-07
7.6150989e-07
7.6106492e-07
7.5999686e-07
7.5808473e-07
7.5615655e-07
7.5489479e-07
7.5455949e-07
7.5545507e-07
7.5733165e-07
7.5932311e-07
7.6103765e-07
7.6314411e-07
7.6507914e-07
7.6538111e-07
7.6606187e-07
7.6807045e-07
7.7013568e-07
7.7121549e-07
7.7196389e-07
1.5402941e-06
9.9639835e-07
8.7666761e-07
8.3934529e-07
8.2885368e-07
8.2327917e-07
8.1682619e-07
8.0995273e-07
8.0313746e-07
7.9840016e-07
7.9284871e-07
7.87788e-07
7.8300933e-07
7.7729953e-07
7.7564953e-07
7.7502748e-07
7.7154474e-07
7.6802346e-07
7.6648642e-07
7.671123e-07
7.6653756e-07
7.6311316e-07
7.5863436e-07
7.5278837e-07
7.5173943e-07
7.5498284e-07
7.5957078e-07
7.6113655e-07
7.6050575e-07
7.5960909e-07
7.5860047e-07
7.5745282e-07
7.5673439e-07
7.562878e-07
7.5667189e-07
7.5806558e-07
7.6000205e-07
7.6171719e-07
7.6370929e-07
7.6655231e-07
7.6729159e-07
7.6708964e-07
7.6763282e-07
7.697144e-07
7.7178526e-07
7.7306268e-07
7.7440813e-07
1.570696e-06
1.0186409e-06
8.8045468e-07
8.3254804e-07
8.184554e-07
8.1196836e-07
8.0534195e-07
7.9898531e-07
7.9356832e-07
7.8964681e-07
7.8449339e-07
7.7985933e-07
7.7482284e-07
7.6997353e-07
7.6942361e-07
7.6902385e-07
7.6608529e-07
7.641235e-07
7.638167e-07
7.6496506e-07
7.6356239e-07
7.5965464e-07
7.5531679e-07
7.5112203e-07
7.5206985e-07
7.5617277e-07
7.6017874e-07
7.6041982e-07
7.5944035e-07
7.5850712e-07
7.5811357e-07
7.5803248e-07
7.5800686e-07
7.5846299e-07
7.595397e-07
7.6121683e-07
7.6311743e-07
7.6524041e-07
7.6793731e-07
7.6932694e-07
7.6874524e-07
7.677083e-07
7.6835389e-07
7.7081451e-07
7.7353773e-07
7.7584729e-07
7.7903113e-07
1.6007197e-06
1.0373635e-06
8.8473927e-07
8.2612925e-07
8.0859529e-07
8.0175485e-07
7.9517528e-07
7.8971498e-07
7.8562527e-07
7.8198923e-07
7.771404e-07
7.7288124e-07
7.6818806e-07
7.6447145e-07
7.6472756e-07
7.6439588e-07
7.6205811e-07
7.6118595e-07
7.6166076e-07
7.6256038e-07
7.6056369e-07
7.5658873e-07
7.5288807e-07
7.5058583e-07
7.5269751e-07
7.5682473e-07
7.5969299e-07
7.5956048e-07
7.5892758e-07
7.5873951e-07
7.5896951e-07
7.5936227e-07
7.597448e-07
7.6058902e-07
7.6198106e-07
7.6369275e-07
7.6574855e-07
7.6847553e-07
7.7089794e-07
7.7114527e-07
7.6974016e-07
7.6827503e-07
7.694031e-07
7.7264851e-07
7.7637641e-07
7.7962817e-07
7.8376238e-07
1.6271999e-06
1.0521509e-06
8.8816349e-07
8.2023959e-07
7.9972734e-07
7.9269852e-07
7.8641733e-07
7.8215867e-07
7.7907569e-07
7.7536872e-07
7.7057675e-07
7.6672964e-07
7.6288059e-07
7.603658e-07
7.6131319e-07
7.6095649e-07
7.5918462e-07
7.5903378e-07
7.597915e-07
7.5996331e-07
7.5751912e-07
7.5392366e-07
7.5140274e-07
7.50646e-07
7.531793e-07
7.5690486e-07
7.5930303e-07
7.5954112e-07
7.5950483e-07
7.5969817e-07
7.6049426e-07
7.6102296e-07
7.6119284e-07
7.6208114e-07
7.6364631e-07
7.6591609e-07
7.687436e-07
7.7114114e-07
7.7269009e-07
7.7241273e-07
7.7092401e-07
7.699394e-07
7.7197921e-07
7.7631812e-07
7.8142844e-07
7.8553498e-07
7.8996493e-07
1.6479262e-06
1.062687e-06
8.9007051e-07
8.1399277e-07
7.9136321e-07
7.8469311e-07
7.7906195e-07
7.7593202e-07
7.7366261e-07
7.6975369e-07
7.6478445e-07
7.6132575e-07
7.5831101e-07
7.5736463e-07
7.5871608e-07
7.5808352e-07
7.5697807e-07
7.5755359e-07
7.5809556e-07
7.5735366e-07
7.5464614e-07
7.5161242e-07
7.5055084e-07
7.5089277e-07
7.5356558e-07
7.5691733e-07
7.5952203e-07
7.6051721e-07
7.6076518e-07
7.6106271e-07
7.6192282e-07
7.6234691e-07
7.6243411e-07
7.6323618e-07
7.6519828e-07
7.683003e-07
7.710673e-07
7.7266961e-07
7.7382474e-07
7.7361564e-07
7.7275526e-07
7.7334187e-07
7.7733099e-07
7.8345068e-07
7.8794986e-07
7.9051836e-07
7.9438004e-07
1.6617007e-06
1.0703376e-06
8.9086199e-07
8.0727227e-07
7.8362269e-07
7.7748562e-07
7.7265226e-07
7.705834e-07
7.6905699e-07
7.6490261e-07
7.597324e-07
7.5644509e-07
7.5457412e-07
7.5517709e-07
7.5666307e-07
7.559227e-07
7.5543701e-07
7.565304e-07
7.5649914e-07
7.5498554e-07
7.5205976e-07
7.4995464e-07
7.5007636e-07
7.5143081e-07
7.5382121e-07
7.5713435e-07
7.6044004e-07
7.6178213e-07
7.6139617e-07
7.613125e-07
7.6255874e-07
7.6340214e-07
7.6389776e-07
7.6512569e-07
7.6765224e-07
7.7086829e-07
7.7311561e-07
7.7403437e-07
7.7524235e-07
7.761173e-07
7.7689871e-07
7.796968e-07
7.8482007e-07
7.903978e-07
7.9426159e-07
7.9705717e-07
8.0061722e-07
1.6685154e-06
1.0752441e-06
8.9079226e-07
8.0078268e-07
7.765047e-07
7.7093622e-07
7.6739672e-07
7.6591076e-07
7.6505469e-07
7.6081843e-07
7.5534463e-07
7.5223933e-07
7.5138526e-07
7.5341918e-07
7.5494715e-07
7.5415155e-07
7.5431801e-07
7.556994e-07
7.5496487e-07
7.530958e-07
7.5027519e-07
7.4886983e-07
7.4987466e-07
7.5196813e-07
7.5423509e-07
7.5798886e-07
7.6173242e-07
7.6248278e-07
7.6118255e-07
7.6089213e-07
7.6274028e-07
7.646454e-07
7.659614e-07
7.6758069e-07
7.7000577e-07
7.7282624e-07
7.7464824e-07
7.7538267e-07
7.771502e-07
7.7935777e-07
7.8157596e-07
7.8551435e-07
7.9185928e-07
7.9798116e-07
8.009159e-07
8.0278503e-07
8.0553651e-07
1.6707683e-06
1.0779307e-06
8.8951281e-07
7.9353933e-07
7.6978802e-07
7.6450131e-07
7.6190254e-07
7.6161905e-07
7.6139368e-07
7.5723741e-07
7.5168561e-07
7.4864273e-07
7.4901689e-07
7.5208178e-07
7.5353767e-07
7.5293345e-07
7.5353176e-07
7.5478742e-07
7.5346843e-07
7.5161076e-07
7.4918574e-07
7.4798498e-07
7.4969645e-07
7.5261641e-07
7.5533579e-07
7.5954349e-07
7.62885e-07
7.6253056e-07
7.6042117e-07
7.6022738e-07
7.6284353e-07
7.6597152e-07
7.6809335e-07
7.6990814e-07
7.72317e-07
7.7520638e-07
7.7712767e-07
7.7845485e-07
7.8131774e-07
7.8543164e-07
7.8883061e-07
7.93441e-07
7.9967119e-07
8.0461109e-07
8.0684771e-07
8.0950504e-07
8.1436304e-07
1.670513e-06
1.0789524e-06
8.8469121e-07
7.8688437e-07
7.6405671e-07
7.5915483e-07
7.5758767e-07
7.5754981e-07
7.5800611e-07
7.5421057e-07
7.4861814e-07
7.4602113e-07
7.4750708e-07
7.5091845e-07
7.522629e-07
7.5187971e-07
7.5263605e-07
7.5357747e-07
7.5207843e-07
7.5059117e-07
7.486586e-07
7.4756867e-07
7.4960596e-07
7.5354353e-07
7.5667658e-07
7.6094841e-07
7.6356996e-07
7.6220359e-07
7.5962557e-07
7.597684e-07
7.6319841e-07
7.6706308e-07
7.694355e-07
7.7137171e-07
7.7399531e-07
7.7744019e-07
7.7963564e-07
7.8217593e-07
7.8672819e-07
7.9097688e-07
7.9444947e-07
7.9876897e-07
8.0452131e-07
8.0948605e-07
8.1251943e-07
8.1582048e-07
8.194448e-07
1.6684339e-06
1.0789964e-06
8.7625254e-07
7.7999259e-07
7.5819765e-07
7.5371334e-07
7.5300803e-07
7.5419835e-07
7.5480949e-07
7.5150865e-07
7.4622655e-07
7.4443182e-07
7.4657781e-07
7.5005818e-07
7.5130305e-07
7.5109436e-07
7.5187479e-07
7.5226901e-07
7.510135e-07
7.4999613e-07
7.4841465e-07
7.4744855e-07
7.4984295e-07
7.5434746e-07
7.5783281e-07
7.620781e-07
7.6377105e-07
7.6179411e-07
7.5903843e-07
7.595654e-07
7.6369455e-07
7.6786204e-07
7.7043792e-07
7.732192e-07
7.7734717e-07
7.8130412e-07
7.8435803e-07
7.8781969e-07
7.9322858e-07
7.9758618e-07
8.0111617e-07
8.053784e-07
8.1103447e-07
8.1582173e-07
8.1852099e-07
8.2185205e-07
8.2722677e-07
1.6660685e-06
1.078618e-06
8.687564e-07
7.7409373e-07
7.5374223e-07
7.4936749e-07
7.4893418e-07
7.5059462e-07
7.5176194e-07
7.4924325e-07
7.446407e-07
7.4334942e-07
7.4604668e-07
7.4939787e-07
7.5010172e-07
7.498819e-07
7.5067403e-07
7.5092957e-07
7.5022923e-07
7.4964585e-07
7.4836492e-07
7.4769519e-07
7.5034237e-07
7.5519661e-07
7.5890826e-07
7.6271277e-07
7.6356274e-07
7.6127573e-07
7.5849033e-07
7.5938658e-07
7.6395397e-07
7.6850117e-07
7.7127783e-07
7.7471082e-07
7.7949997e-07
7.8393996e-07
7.8761929e-07
7.9198174e-07
7.9763996e-07
8.0163398e-07
8.0513281e-07
8.093768e-07
8.1489643e-07
8.1952636e-07
8.2318489e-07
8.2860626e-07
8.3436688e-07
1.6611993e-06
1.0775761e-06
8.5848307e-07
7.6774815e-07
7.4932961e-07
7.45589e-07
7.4601356e-07
7.4793523e-07
7.4920235e-07
7.4724273e-07
7.4366633e-07
7.4279632e-07
7.4614697e-07
7.490394e-07
7.4923488e-07
7.491964e-07
7.4962188e-07
7.4980299e-07
7.4969918e-07
7.4941354e-07
7.4826998e-07
7.4797285e-07
7.5105333e-07
7.561757e-07
7.5975304e-07
7.6291748e-07