/*--------------------------------*- C++ -*----------------------------------*\
| =========                 |                                                 |
| \\      /  F ield         | OpenFOAM: The Open Source CFD Toolbox           |
|  \\    /   O peration     | Version:  2406                                  |
|   \\  /    A nd           | Website:  www.openfoam.com                      |
|    \\/     M anipulation  |                                                 |
\*---------------------------------------------------------------------------*/
FoamFile
{
    version     2.0;
    format      ascii;
    arch        "LSB;label=32;scalar=64";
    class       volScalarField;
    location    "10";
    object      k;
}
// * * * * * * * * * * * * * * * * * * * * * * * * * * * * * * * * * * * * * //

dimensions      [0 2 -2 0 0 0 0];

internalField   nonuniform List<scalar> 
20229
(
3.2599985e-06
3.2396299e-06
3.2192785e-06
3.2237189e-06
3.2262265e-06
3.2195595e-06
3.1998755e-06
3.181054e-06
3.1734167e-06
3.1737491e-06
3.1768906e-06
3.1765885e-06
3.1759755e-06
3.1763918e-06
3.1770305e-06
3.1774116e-06
3.1739277e-06
3.1683185e-06
3.1604997e-06
3.1529801e-06
3.1491353e-06
3.1507338e-06
3.1551309e-06
3.159705e-06
3.1640642e-06
3.1673028e-06
3.1687376e-06
3.1703052e-06
3.1681662e-06
3.1665636e-06
3.1640363e-06
3.1607604e-06
3.1571123e-06
3.1532697e-06
3.1513271e-06
2.9161356e-06
2.9144454e-06
2.8431559e-06
2.7862548e-06
2.7395428e-06
2.7244657e-06
2.724686e-06
2.7309439e-06
2.737579e-06
2.7296428e-06
2.6998728e-06
2.6741292e-06
2.6683409e-06
2.6844397e-06
2.7091731e-06
2.7207427e-06
2.7112903e-06
2.6902087e-06
2.6685063e-06
2.655266e-06
2.6502727e-06
2.6528592e-06
2.6615177e-06
2.6724546e-06
2.6822541e-06
2.6893848e-06
2.6912503e-06
2.6920949e-06
2.6880178e-06
2.68314e-06
2.6782227e-06
2.671941e-06
2.6668855e-06
2.6627682e-06
2.6614371e-06
2.5074477e-06
2.4985273e-06
2.472811e-06
2.4399049e-06
2.4092311e-06
2.3999427e-06
2.4061597e-06
2.4203915e-06
2.4333555e-06
2.4235272e-06
2.3891092e-06
2.3577149e-06
2.3489821e-06
2.3626129e-06
2.3813141e-06
2.3802221e-06
2.3624098e-06
2.338462e-06
2.3179833e-06
2.3043325e-06
2.302193e-06
2.3067478e-06
2.3135e-06
2.3184015e-06
2.3214491e-06
2.3217314e-06
2.3167112e-06
2.3131724e-06
2.3079073e-06
2.3031667e-06
2.2978179e-06
2.2928356e-06
2.2892216e-06
2.2872534e-06
2.2890876e-06
2.2660006e-06
2.2144526e-06
2.208148e-06
2.1860461e-06
2.1708944e-06
2.1647177e-06
2.1714041e-06
2.1887643e-06
2.200119e-06
2.1866697e-06
2.1539257e-06
2.126967e-06
2.1189476e-06
2.123915e-06
2.1271785e-06
2.1173832e-06
2.0997542e-06
2.0819635e-06
2.0701714e-06
2.0657359e-06
2.0650658e-06
2.0633664e-06
2.0593102e-06
2.0518429e-06
2.0432779e-06
2.036368e-06
2.0299339e-06
2.0262431e-06
2.0216807e-06
2.016173e-06
2.0113775e-06
2.0071019e-06
2.0012317e-06
1.9984919e-06
1.9989169e-06
2.1016373e-06
2.0021636e-06
2.0045421e-06
1.9876825e-06
1.9774355e-06
1.9698664e-06
1.9742471e-06
1.9889044e-06
1.9959083e-06
1.9811571e-06
1.955731e-06
1.9420257e-06
1.938342e-06
1.9340736e-06
1.9203858e-06
1.905041e-06
1.8950801e-06
1.8919319e-06
1.8907683e-06
1.8894967e-06
1.8839592e-06
1.8705181e-06
1.8526421e-06
1.835593e-06
1.8230218e-06
1.8148045e-06
1.8077275e-06
1.8044553e-06
1.8011445e-06
1.7965496e-06
1.7933747e-06
1.7885753e-06
1.7830104e-06
1.7795519e-06
1.7784109e-06
1.965324e-06
1.8349398e-06
1.8389802e-06
1.8268561e-06
1.8141614e-06
1.8013869e-06
1.8022581e-06
1.812386e-06
1.8188574e-06
1.8081457e-06
1.7937839e-06
1.7924114e-06
1.7912429e-06
1.7740035e-06
1.7494921e-06
1.7323929e-06
1.7306355e-06
1.7374805e-06
1.7395378e-06
1.7316211e-06
1.7158976e-06
1.6961132e-06
1.6777231e-06
1.6631132e-06
1.6519296e-06
1.643894e-06
1.6386847e-06
1.6354891e-06
1.6331578e-06
1.6317162e-06
1.6299389e-06
1.6277095e-06
1.6244207e-06
1.6216215e-06
1.6196086e-06
1.8781944e-06
1.7009821e-06
1.7032677e-06
1.6946758e-06
1.6785165e-06
1.6623476e-06
1.6576297e-06
1.6631873e-06
1.6692982e-06
1.6700943e-06
1.6676049e-06
1.6717725e-06
1.6653748e-06
1.642718e-06
1.6176326e-06
1.6046364e-06
1.6050187e-06
1.6075094e-06
1.6022206e-06
1.5882782e-06
1.5704874e-06
1.5538538e-06
1.5408011e-06
1.5302133e-06
1.521863e-06
1.5157082e-06
1.5120047e-06
1.5104329e-06
1.5088131e-06
1.5070287e-06
1.505207e-06
1.5012269e-06
1.49665e-06
1.4927341e-06
1.489687e-06
1.8124315e-06
1.5932025e-06
1.5906963e-06
1.5833892e-06
1.5668346e-06
1.5520199e-06
1.5440896e-06
1.541055e-06
1.5468141e-06
1.5623017e-06
1.5773732e-06
1.5802059e-06
1.5645615e-06
1.5413196e-06
1.5237765e-06
1.5153131e-06
1.5102123e-06
1.4996703e-06
1.4852892e-06
1.4715889e-06
1.458499e-06
1.44622e-06
1.4364539e-06
1.429479e-06
1.4238892e-06
1.4201688e-06
1.4168712e-06
1.4136212e-06
1.4092052e-06
1.4043032e-06
1.3979876e-06
1.3905104e-06
1.3829259e-06
1.3758191e-06
1.3705367e-06
1.7529077e-06
1.5005578e-06
1.494799e-06
1.4881358e-06
1.4734345e-06
1.4639833e-06
1.4572299e-06
1.4465962e-06
1.4503649e-06
1.4792357e-06
1.5075268e-06
1.5072343e-06
1.4845967e-06
1.4647436e-06
1.4547781e-06
1.4441766e-06
1.4255924e-06
1.4048746e-06
1.3883193e-06
1.3757143e-06
1.3673255e-06
1.3618382e-06
1.3572646e-06
1.353846e-06
1.3516662e-06
1.3494822e-06
1.3460568e-06
1.3412646e-06
1.3335139e-06
1.3250284e-06
1.3163986e-06
1.3071605e-06
1.2983584e-06
1.2899417e-06
1.2844409e-06
1.7110899e-06
1.4190269e-06
1.4114504e-06
1.4060177e-06
1.394483e-06
1.3905057e-06
1.3866466e-06
1.3722271e-06
1.3755327e-06
1.4064891e-06
1.4367862e-06
1.4363608e-06
1.4162996e-06
1.3993937e-06
1.3890383e-06
1.3689959e-06
1.3412571e-06
1.3189901e-06
1.3058646e-06
1.2977542e-06
1.2941027e-06
1.2957751e-06
1.2991759e-06
1.3020014e-06
1.3025964e-06
1.3010654e-06
1.2965937e-06
1.2897873e-06
1.2824295e-06
1.2740738e-06
1.2648646e-06
1.2552206e-06
1.2457447e-06
1.2377692e-06
1.2328279e-06
1.6716292e-06
1.3497657e-06
1.3398331e-06
1.3362691e-06
1.3290686e-06
1.3274925e-06
1.324406e-06
1.3118098e-06
1.3148141e-06
1.3391449e-06
1.3588492e-06
1.3591772e-06
1.3479229e-06
1.3365562e-06
1.31925e-06
1.2907062e-06
1.264354e-06
1.2487361e-06
1.2402469e-06
1.2389876e-06
1.2452744e-06
1.2546049e-06
1.2624243e-06
1.2667942e-06
1.2664886e-06
1.2613652e-06
1.2537888e-06
1.2463824e-06
1.2384375e-06
1.228987e-06
1.2195477e-06
1.2100416e-06
1.2001105e-06
1.1912869e-06
1.1852829e-06
1.6271469e-06
1.2915097e-06
1.2804421e-06
1.2775639e-06
1.2765234e-06
1.274762e-06
1.2682013e-06
1.2589458e-06
1.2626007e-06
1.2756113e-06
1.2812132e-06
1.2823325e-06
1.2811324e-06
1.273189e-06
1.2543129e-06
1.2276677e-06
1.2084221e-06
1.1978717e-06
1.1966865e-06
1.2054483e-06
1.2189062e-06
1.23108e-06
1.2365959e-06
1.2350692e-06
1.2280173e-06
1.2189912e-06
1.2100229e-06
1.2007102e-06
1.1909554e-06
1.1802815e-06
1.1713344e-06
1.1624338e-06
1.1544739e-06
1.148893e-06
1.1455874e-06
1.5754286e-06
1.2423688e-06
1.2330371e-06
1.2295085e-06
1.2333697e-06
1.2320539e-06
1.2209426e-06
1.2120489e-06
1.216118e-06
1.220176e-06
1.2184271e-06
1.2210813e-06
1.2237078e-06
1.2203499e-06
1.2053245e-06
1.1859219e-06
1.1738889e-06
1.1695084e-06
1.1760431e-06
1.1899721e-06
1.2031206e-06
1.2094176e-06
1.2080124e-06
1.2021268e-06
1.1933641e-06
1.1839875e-06
1.1742277e-06
1.1648353e-06
1.1568389e-06
1.1510174e-06
1.146795e-06
1.1437201e-06
1.140078e-06
1.1363412e-06
1.1351828e-06
1.5321282e-06
1.2027365e-06
1.1957183e-06
1.1907654e-06
1.1952116e-06
1.1962384e-06
1.184913e-06
1.1737068e-06
1.1755564e-06
1.1777509e-06
1.1781884e-06
1.1809145e-06
1.1828551e-06
1.1834579e-06
1.1745232e-06
1.1624944e-06
1.1541469e-06
1.1535502e-06
1.1641505e-06
1.1765701e-06
1.1808339e-06
1.1814181e-06
1.1803766e-06
1.1765928e-06
1.1723936e-06
1.1673076e-06
1.1626928e-06
1.1561798e-06
1.1499059e-06
1.1453404e-06
1.1417426e-06
1.1386981e-06
1.1354279e-06
1.1321773e-06
1.1315783e-06
1.5144244e-06
1.1696005e-06
1.1649116e-06
1.1589909e-06
1.1605767e-06
1.1641175e-06
1.1571614e-06
1.1463e-06
1.1443958e-06
1.1491151e-06
1.1545632e-06
1.1566301e-06
1.1583873e-06
1.1600585e-06
1.154014e-06
1.1437354e-06
1.1373446e-06
1.1412634e-06
1.1506037e-06
1.1548189e-06
1.1545473e-06
1.1540556e-06
1.156539e-06
1.1587325e-06
1.1594826e-06
1.1564531e-06
1.1521488e-06
1.1480111e-06
1.1429391e-06
1.139327e-06
1.1362938e-06
1.132819e-06
1.1286951e-06
1.1248659e-06
1.1237399e-06
1.4995464e-06
1.1415485e-06
1.1367036e-06
1.1327174e-06
1.1296391e-06
1.1338825e-06
1.1338779e-06
1.1274287e-06
1.124017e-06
1.1312811e-06
1.1385078e-06
1.1389646e-06
1.1386323e-06
1.1386218e-06
1.1317561e-06
1.1221985e-06
1.1186263e-06
1.1246691e-06
1.1319145e-06
1.1322374e-06
1.1293055e-06
1.1288493e-06
1.1310312e-06
1.13476e-06
1.1374207e-06
1.1369018e-06
1.1348368e-06
1.1316153e-06
1.1287698e-06
1.1247253e-06
1.1184944e-06
1.1105593e-06
1.1005851e-06
1.0931227e-06
1.089656e-06
1.5068697e-06
1.1198266e-06
1.1083972e-06
1.1085815e-06
1.1030718e-06
1.1056199e-06
1.1115911e-06
1.1116415e-06
1.1105164e-06
1.1182269e-06
1.1230175e-06
1.1197092e-06
1.1147182e-06
1.1108905e-06
1.1025777e-06
1.0943233e-06
1.0949989e-06
1.1038518e-06
1.1093415e-06
1.1081581e-06
1.1040275e-06
1.1023263e-06
1.1030492e-06
1.1041172e-06
1.1042073e-06
1.1021035e-06
1.1004932e-06
1.0967235e-06
1.0882095e-06
1.0784956e-06
1.0674885e-06
1.0558558e-06
1.0455151e-06
1.0384572e-06
1.0346121e-06
1.5216179e-06
1.1003844e-06
1.0801738e-06
1.0840581e-06
1.0804926e-06
1.0806802e-06
1.087872e-06
1.0945205e-06
1.0971583e-06
1.1030946e-06
1.1029965e-06
1.0948037e-06
1.0847517e-06
1.0758871e-06
1.0670215e-06
1.0633944e-06
1.0701957e-06
1.0798241e-06
1.0843678e-06
1.0819416e-06
1.0769086e-06
1.0716218e-06
1.0665681e-06
1.0621762e-06
1.0613157e-06
1.0588699e-06
1.0539756e-06
1.044305e-06
1.0325101e-06
1.0222942e-06
1.0153051e-06
1.0092352e-06
1.0040858e-06
1.001004e-06
9.9993313e-07
1.5251791e-06
1.0772846e-06
1.0513138e-06
1.0580949e-06
1.0597858e-06
1.0595335e-06
1.0635533e-06
1.0730187e-06
1.0786751e-06
1.08147e-06
1.0761057e-06
1.0653191e-06
1.0512907e-06
1.0385475e-06
1.0320676e-06
1.0351821e-06
1.0466313e-06
1.0561865e-06
1.0560602e-06
1.049234e-06
1.0422558e-06
1.0367928e-06
1.0335784e-06
1.031278e-06
1.0291659e-06
1.0234538e-06
1.0142763e-06
1.0043846e-06
9.9620572e-07
9.8958894e-07
9.8597103e-07
9.8298543e-07
9.7977927e-07
9.7864266e-07
9.7914812e-07
1.5271768e-06
1.0546753e-06
1.0235782e-06
1.0321073e-06
1.0395233e-06
1.0412033e-06
1.0395276e-06
1.0473528e-06
1.0524989e-06
1.0503942e-06
1.0431288e-06
1.0321083e-06
1.0164501e-06
1.003773e-06
1.0034664e-06
1.01453e-06
1.0282392e-06
1.0322664e-06
1.0254465e-06
1.0176605e-06
1.0152341e-06
1.0149066e-06
1.0169357e-06
1.0175112e-06
1.0148463e-06
1.0085014e-06
9.9778216e-07
9.8646126e-07
9.7867541e-07
9.7422188e-07
9.714276e-07
9.6947067e-07
9.6683236e-07
9.6506972e-07
9.6263208e-07
1.5316955e-06
1.0364468e-06
9.9746533e-07
1.0080188e-06
1.019489e-06
1.0241114e-06
1.017005e-06
1.0187196e-06
1.0203634e-06
1.01265e-06
1.005229e-06
9.9584931e-07
9.8233643e-07
9.7438986e-07
9.8243223e-07
1.000956e-06
1.0120655e-06
1.0088817e-06
1.0008574e-06
9.9895449e-07
1.0019337e-06
1.0078466e-06
1.0157803e-06
1.0178149e-06
1.0124466e-06
1.0014465e-06
9.8934182e-07
9.7791545e-07
9.6983603e-07
9.6389668e-07
9.5938073e-07
9.5545074e-07
9.5072676e-07
9.4667188e-07
9.4098565e-07
1.5297785e-06
1.0221254e-06
9.7362121e-07
9.859093e-07
9.9969156e-07
1.0068752e-06
9.9593572e-07
9.9020311e-07
9.8584481e-07
9.7348983e-07
9.665032e-07
9.5985764e-07
9.5090526e-07
9.5044749e-07
9.6793519e-07
9.8834163e-07
9.9511142e-07
9.9075132e-07
9.8846661e-07
9.9187736e-07
1.0011088e-06
1.0093871e-06
1.0165182e-06
1.0159032e-06
1.0066184e-06
9.9394098e-07
9.8027064e-07
9.6740159e-07
9.5780471e-07
9.4925673e-07
9.4145891e-07
9.3329907e-07
9.2419942e-07
9.1765614e-07
9.1264044e-07
1.5253833e-06
1.0119443e-06
9.5281791e-07
9.6616894e-07
9.8042668e-07
9.8900077e-07
9.7523494e-07
9.6337619e-07
9.5283339e-07
9.3820072e-07
9.3136437e-07
9.2797521e-07
9.2411613e-07
9.3266583e-07
9.5492048e-07
9.7337606e-07
9.7867469e-07
9.7853447e-07
9.8324355e-07
9.9115587e-07
1.0000954e-06
1.0077152e-06
1.0095739e-06
1.0044253e-06
9.9197452e-07
9.7622651e-07
9.6252259e-07
9.4977817e-07
9.3771242e-07
9.2436711e-07
9.1080666e-07
9.0107775e-07
8.9401583e-07
8.905482e-07
8.881338e-07
1.5205364e-06
1.0074279e-06
9.3501796e-07
9.4924694e-07
9.6333623e-07
9.7008604e-07
9.5451431e-07
9.4011258e-07
9.2437873e-07
9.0842592e-07
9.0302593e-07
9.0194715e-07
9.0346367e-07
9.1873729e-07
9.4068696e-07
9.5440647e-07
9.5980436e-07
9.6852957e-07
9.8023025e-07
9.8936047e-07
9.9508362e-07
9.972444e-07
9.9286409e-07
9.8283861e-07
9.6827266e-07
9.5548632e-07
9.449758e-07
9.3336378e-07
9.200141e-07
9.0614937e-07
8.9283804e-07
8.8339697e-07
8.7766826e-07
8.7608359e-07
8.7795561e-07
1.5102383e-06
1.0050057e-06
9.1997104e-07
9.3262511e-07
9.4739958e-07
9.5094857e-07
9.3358153e-07
9.1850878e-07
9.0091273e-07
8.8543048e-07
8.8244412e-07
8.836285e-07
8.8932288e-07
9.076904e-07
9.2454279e-07
9.3161699e-07
9.4142827e-07
9.5867879e-07
9.7330928e-07
9.8282362e-07
9.8348106e-07
9.7991853e-07
9.7076143e-07
9.6106923e-07
9.543916e-07
9.4730032e-07
9.387825e-07
9.277322e-07
9.1427848e-07
9.011897e-07
8.8964537e-07
8.8253361e-07
8.7822727e-07
8.7741922e-07
8.8150582e-07
1.5080073e-06
1.004682e-06
9.0989117e-07
9.1846774e-07
9.3320472e-07
9.3167878e-07
9.1377153e-07
8.9862103e-07
8.8076683e-07
8.6836638e-07
8.6863585e-07
8.7168333e-07
8.8085253e-07
8.9819723e-07
9.0841676e-07
9.1097942e-07
9.2466642e-07
9.4690787e-07
9.6153469e-07
9.6813087e-07
9.6632946e-07
9.614797e-07
9.5778585e-07
9.5502398e-07
9.5247203e-07
9.4732428e-07
9.4000153e-07
9.2988868e-07
9.1736654e-07
9.0539564e-07
8.9563775e-07
8.8973403e-07
8.8857909e-07
8.901342e-07
9.0026961e-07
1.5213831e-06
1.0085067e-06
9.0512907e-07
9.0428176e-07
9.1978674e-07
9.1468886e-07
8.9490919e-07
8.800476e-07
8.6326708e-07
8.5474392e-07
8.5804788e-07
8.6414541e-07
8.7623766e-07
8.9021036e-07
8.9369835e-07
8.950851e-07
9.0954345e-07
9.3186164e-07
9.4563691e-07
9.505301e-07
9.5071819e-07
9.5493399e-07
9.5685656e-07
9.5648323e-07
9.5740431e-07
9.5637529e-07
9.5065158e-07
9.404931e-07
9.2889554e-07
9.1932586e-07
9.1339668e-07
9.1091393e-07
9.1183537e-07
9.1399698e-07
9.2688228e-07
1.5260472e-06
1.0220985e-06
9.0341033e-07
8.9173588e-07
9.0739265e-07
9.0055326e-07
8.7978923e-07
8.6328692e-07
8.4729413e-07
8.4427667e-07
8.5120446e-07
8.5933557e-07
8.7182597e-07
8.8343554e-07
8.834171e-07
8.8398621e-07
8.9833628e-07
9.1536199e-07
9.2852824e-07
9.3681285e-07
9.4661042e-07
9.555929e-07
9.6067007e-07
9.6792989e-07
9.7343049e-07
9.6869283e-07
9.5731982e-07
9.4664714e-07
9.356785e-07
9.270099e-07
9.2423131e-07
9.2534236e-07
9.2859937e-07
9.3185052e-07
9.460136e-07
1.5500408e-06
1.0344718e-06
9.0450411e-07
8.7951327e-07
8.9509945e-07
8.8751402e-07
8.6745918e-07
8.484215e-07
8.3418092e-07
8.3435686e-07
8.4456296e-07
8.533238e-07
8.6709996e-07
8.7701308e-07
8.7590636e-07
8.782897e-07
8.8876906e-07
9.0195281e-07
9.1430667e-07
9.3103973e-07
9.475476e-07
9.6141827e-07
9.7455211e-07
9.8305503e-07
9.7966047e-07
9.7002686e-07
9.5697539e-07
9.4214632e-07
9.3258463e-07
9.2812249e-07
9.2884678e-07
9.3432439e-07
9.3939624e-07
9.4308701e-07
9.5921924e-07
1.5935388e-06
1.0465247e-06
9.0732494e-07
8.6845604e-07
8.8235764e-07
8.7738508e-07
8.5979332e-07
8.3809588e-07
8.2434003e-07
8.2745899e-07
8.3833313e-07
8.4696772e-07
8.6141556e-07
8.7042193e-07
8.718739e-07
8.755974e-07
8.8290069e-07
8.9114524e-07
9.0801811e-07
9.3070529e-07
9.5502182e-07
9.7407755e-07
9.8323857e-07
9.8240775e-07
9.7606985e-07
9.5766268e-07
9.3895539e-07
9.2700984e-07
9.2186319e-07
9.2199847e-07
9.2711891e-07
9.3486537e-07
9.4243372e-07
9.5040008e-07
9.6866023e-07
1.6038809e-06
1.0583446e-06
9.1022995e-07
8.5862086e-07
8.6913849e-07
8.6735597e-07
8.5461128e-07
8.3302793e-07
8.1826214e-07
8.2130632e-07
8.3087993e-07
8.4056513e-07
8.5593879e-07
8.6584809e-07
8.7045081e-07
8.7482532e-07
8.8105572e-07
8.8927375e-07
9.0894743e-07
9.3755221e-07
9.6532366e-07
9.7868602e-07
9.7758756e-07
9.7208631e-07
9.5450021e-07
9.3358445e-07
9.194659e-07
9.1072848e-07
9.0928618e-07
9.1512758e-07
9.2483853e-07
9.382727e-07
9.4795024e-07
9.5553739e-07
9.7281453e-07
1.6171369e-06
1.0683501e-06
9.1285878e-07
8.5029752e-07
8.5533902e-07
8.572094e-07
8.5153554e-07
8.3189063e-07
8.1594825e-07
8.1724182e-07
8.2506895e-07
8.3610634e-07
8.518996e-07
8.6290936e-07
8.7080412e-07
8.7770317e-07
8.8210919e-07
8.9263879e-07
9.1792641e-07
9.4984134e-07
9.6973844e-07
9.7126654e-07
9.6244121e-07
9.4516338e-07
9.258969e-07
9.1143762e-07
9.0040572e-07
8.9731252e-07
9.0264709e-07
9.1476722e-07
9.2943705e-07
9.439517e-07
9.5379397e-07
9.6181384e-07
9.8020059e-07
1.6280119e-06
1.0752968e-06
9.1396334e-07
8.4214756e-07
8.4075979e-07
8.4583961e-07
8.4699199e-07
8.3182719e-07
8.1566274e-07
8.1538227e-07
8.2140712e-07
8.3401889e-07
8.49801e-07
8.622589e-07
8.7385124e-07
8.8174834e-07
8.8662747e-07
9.0229215e-07
9.2918459e-07
9.5671389e-07
9.652411e-07
9.5779258e-07
9.3597241e-07
9.1561988e-07
9.0362341e-07
8.9446988e-07
8.8968364e-07
8.9301993e-07
9.0452507e-07
9.2013883e-07
9.3756249e-07
9.5351355e-07
9.647875e-07
9.7409477e-07
9.9202087e-07
1.6395408e-06
1.0828874e-06
9.1369921e-07
8.374459e-07
8.2980885e-07
8.3537733e-07
8.4380771e-07
8.3160202e-07
8.1592791e-07
8.1364256e-07
8.1927263e-07
8.3458186e-07
8.5060938e-07
8.64162e-07
8.7879554e-07
8.8859108e-07
8.9698971e-07
9.1421475e-07
9.4367364e-07
9.5974941e-07
9.5761764e-07
9.3538808e-07
9.1019096e-07
8.9406544e-07
8.8642895e-07
8.8494806e-07
8.8801418e-07
8.9707252e-07
9.1247102e-07
9.3337469e-07
9.5355157e-07
9.683496e-07
9.7796027e-07
9.8327417e-07
1.0026109e-06
1.6494658e-06
1.086663e-06
9.1078383e-07
8.3349221e-07
8.1974579e-07
8.2446963e-07
8.3696313e-07
8.2983167e-07
8.1556337e-07
8.1262843e-07
8.2025698e-07
8.372302e-07
8.545518e-07
8.708861e-07
8.8905217e-07
8.9821537e-07
9.0877677e-07
9.2654469e-07
9.4802856e-07
9.5689031e-07
9.4213199e-07
9.1448617e-07
8.9466848e-07
8.8579835e-07
8.8466612e-07
8.8950949e-07
8.9937889e-07
9.1239789e-07
9.2987782e-07
9.5058105e-07
9.7255604e-07
9.8857091e-07
9.9766851e-07
1.0044039e-06
1.0332192e-06
1.6571782e-06
1.0888912e-06
9.0606874e-07
8.3189312e-07
8.118362e-07
8.1207157e-07
8.2279601e-07
8.2193524e-07
8.1311572e-07
8.1054595e-07
8.1975862e-07
8.4033652e-07
8.6149852e-07
8.8058009e-07
8.985104e-07
9.0683839e-07
9.1522914e-07
9.3125048e-07
9.4548307e-07
9.4654344e-07
9.2849253e-07
9.047306e-07
8.8633526e-07
8.8115757e-07
8.8411401e-07
8.9358681e-07
9.0667329e-07
9.2028374e-07
9.3498573e-07
9.4988725e-07
9.6399598e-07
9.7637119e-07
9.8860136e-07
9.9513023e-07
1.0239454e-06
1.6399499e-06
1.0714421e-06
8.9083817e-07
8.3133798e-07
8.1135251e-07
8.0669928e-07
8.1023567e-07
8.0815485e-07
8.0403198e-07
8.0432339e-07
8.1640707e-07
8.4135653e-07
8.6807655e-07
8.910103e-07
9.0820425e-07
9.1509139e-07
9.1922103e-07
9.3072953e-07
9.4335866e-07
9.4110389e-07
9.2247317e-07
8.9917973e-07
8.8552272e-07
8.8227037e-07
8.8714165e-07
8.9877609e-07
9.103996e-07
9.2402635e-07
9.3716199e-07
9.5032151e-07
9.6353814e-07
9.745824e-07
9.8798628e-07
9.9578672e-07
1.0162637e-06
1.6117226e-06
9.9725926e-07
8.6710121e-07
8.2846e-07
8.1427678e-07
8.0854639e-07
8.0468278e-07
7.9645273e-07
7.9239268e-07
7.9601248e-07
8.1040103e-07
8.3882431e-07
8.6896062e-07
8.9709757e-07
9.1578535e-07
9.2001482e-07
9.1948138e-07
9.2696591e-07
9.358211e-07
9.3315697e-07
9.1597833e-07
8.9727617e-07
8.8746593e-07
8.8839304e-07
8.9656022e-07
9.0711549e-07
9.1708249e-07
9.2797287e-07
9.3947881e-07
9.5004365e-07
9.6069167e-07
9.7195042e-07
9.8506716e-07
9.9573605e-07
1.008113e-06
1.5653111e-06
9.4121304e-07
8.4900831e-07
8.2248721e-07
8.1561305e-07
8.149374e-07
8.0581081e-07
7.9044938e-07
7.8540996e-07
7.9054541e-07
8.0522088e-07
8.3244491e-07
8.6393422e-07
8.9760812e-07
9.1727728e-07
9.1949986e-07
9.1544247e-07
9.1564781e-07
9.2080432e-07
9.2050913e-07
9.1005681e-07
8.9856431e-07
8.9462562e-07
9.0019027e-07
9.1133088e-07
9.185414e-07
9.2568358e-07
9.3207986e-07
9.3848016e-07
9.4651398e-07
9.5509378e-07
9.6401683e-07
9.7312218e-07
9.8508064e-07
9.976756e-07
1.5209508e-06
9.03021e-07
8.3680029e-07
8.1583194e-07
8.1296414e-07
8.1702871e-07
8.0839414e-07
7.9036591e-07
7.8414466e-07
7.8979746e-07
8.0450421e-07
8.2835245e-07
8.5747117e-07
8.9119027e-07
9.1137309e-07
9.1296373e-07
9.073026e-07
9.0384302e-07
9.0870357e-07
9.1162806e-07
9.0791612e-07
9.0263811e-07
9.0450099e-07
9.1363183e-07
9.2415399e-07
9.2857258e-07
9.3241011e-07
9.3394521e-07
9.3635289e-07
9.3971042e-07
9.4372194e-07
9.4954481e-07
9.57574e-07
9.6924013e-07
9.8954437e-07
1.4842409e-06
8.8227108e-07
8.2654087e-07
8.0967597e-07
8.0542766e-07
8.1311486e-07
8.073392e-07
7.9195247e-07
7.8980895e-07
7.9963276e-07
8.1490892e-07
8.3138479e-07
8.5547166e-07
8.8296905e-07
9.0014879e-07
9.018436e-07
8.965726e-07
8.9436935e-07
9.0097348e-07
9.0795612e-07
9.1013241e-07
9.097238e-07
9.1462455e-07
9.2444153e-07
9.3360595e-07
9.349208e-07
9.3546791e-07
9.3253928e-07
9.2911379e-07
9.2804177e-07
9.3028563e-07
9.3559304e-07
9.4367592e-07
9.5904998e-07
9.8422462e-07
1.4496063e-06
8.7047682e-07
8.1929506e-07
8.0704682e-07
8.0125554e-07
8.030331e-07
8.0044502e-07
7.9162714e-07
7.9586381e-07
8.1435369e-07
8.3324662e-07
8.4520936e-07
8.6128902e-07
8.7777171e-07
8.8813259e-07
8.8780476e-07
8.8408651e-07
8.8640155e-07
8.9706059e-07
9.0867704e-07
9.1455077e-07
9.1774348e-07
9.2238187e-07
9.3059503e-07
9.3651406e-07
9.3559426e-07
9.322947e-07
9.2420155e-07
9.1670209e-07
9.1387361e-07
9.1673184e-07
9.2361099e-07
9.3399539e-07
9.5206035e-07
9.7645314e-07
1.4291159e-06
8.6608254e-07
8.1349554e-07
8.054869e-07
8.0245204e-07
8.0083155e-07
7.9592729e-07
7.9119191e-07
7.9984362e-07
8.2350054e-07
8.4623275e-07
8.5957302e-07
8.7224209e-07
8.788786e-07
8.805139e-07
8.7549649e-07
8.7305645e-07
8.8003573e-07
8.9574547e-07
9.1090242e-07
9.2056006e-07
9.2302849e-07
9.2482059e-07
9.2918043e-07
9.2946411e-07
9.2496476e-07
9.1617636e-07
9.0737145e-07
9.0028738e-07
8.9885943e-07
9.0459995e-07
9.1437508e-07
9.2809853e-07
9.478785e-07
9.6817896e-07
1.461239e-06
8.6925724e-07
8.09666e-07
8.0035183e-07
8.0385288e-07
8.0323969e-07
7.984387e-07
7.9544267e-07
8.0430084e-07
8.2766411e-07
8.522662e-07
8.6875357e-07
8.8176256e-07
8.8497784e-07
8.7910271e-07
8.6982778e-07
8.6713085e-07
8.7706681e-07
8.950661e-07
9.1393959e-07
9.2217331e-07
9.2196585e-07
9.2108109e-07
9.1910033e-07
9.1391895e-07
9.0507043e-07
8.955573e-07
8.8729259e-07
8.8314844e-07
8.8613101e-07
8.9504718e-07
9.0898842e-07
9.2645765e-07
9.4328185e-07
9.6165118e-07
1.5119912e-06
8.7905241e-07
8.0921225e-07
7.9396191e-07
8.0046587e-07
8.0459457e-07
8.0337604e-07
8.0477813e-07
8.1311225e-07
8.3078404e-07
8.5235506e-07
8.7097276e-07
8.8670185e-07
8.90685e-07
8.8301373e-07
8.7180464e-07
8.6818734e-07
8.7827826e-07
8.9725918e-07
9.1461645e-07
9.1898505e-07
9.1516789e-07
9.0862506e-07
9.0119514e-07
8.9352065e-07
8.8456396e-07
8.7527674e-07
8.7070303e-07
8.7153915e-07
8.7867549e-07
8.9136525e-07
9.0833549e-07
9.2718404e-07
9.44041e-07
9.6368252e-07
1.5382167e-06
8.8689162e-07
8.1191918e-07
7.9146502e-07
7.9476361e-07
8.0203741e-07
8.0700676e-07
8.1549305e-07
8.2413864e-07
8.367879e-07
8.515699e-07
8.6887241e-07
8.8704151e-07
8.9423388e-07
8.8850058e-07
8.791982e-07
8.7585187e-07
8.8514428e-07
9.0236298e-07
9.1448063e-07
9.1453136e-07
9.0297816e-07
8.8977099e-07
8.8043017e-07
8.7313814e-07
8.6636622e-07
8.6250111e-07
8.6162972e-07
8.6646531e-07
8.7662307e-07
8.9274302e-07
9.1266927e-07
9.3391767e-07
9.5191646e-07
9.6924584e-07
1.552051e-06
8.8952501e-07
8.1932209e-07
7.9449005e-07
7.9355867e-07
7.9959826e-07
8.0677171e-07
8.1700836e-07
8.2738319e-07
8.3908945e-07
8.5158263e-07
8.676301e-07
8.8630449e-07
8.9714719e-07
8.9470258e-07
8.887501e-07
8.8678472e-07
8.9431075e-07
9.0814354e-07
9.1332558e-07
9.0647413e-07
8.8825346e-07
8.720527e-07
8.6195892e-07
8.5721006e-07
8.5593682e-07
8.5617833e-07
8.5957907e-07
8.6720909e-07
8.8116049e-07
9.0037726e-07
9.2116045e-07
9.4288904e-07
9.5947486e-07
9.74024e-07
1.5413678e-06
8.8526439e-07
8.2465792e-07
8.0487458e-07
7.9860216e-07
8.0255523e-07
8.0674344e-07
8.1413028e-07
8.2175132e-07
8.3288265e-07
8.4645557e-07
8.6469463e-07
8.8672361e-07
9.0050467e-07
9.0452332e-07
8.9988876e-07
8.97808e-07
9.013334e-07
9.0841487e-07
9.0928179e-07
8.9575746e-07
8.7589248e-07
8.6013825e-07
8.5239146e-07
8.522378e-07
8.5364593e-07
8.5713227e-07
8.6430344e-07
8.7471922e-07
8.8921688e-07
9.0785809e-07
9.2760125e-07
9.4743079e-07
9.6210159e-07
9.7542468e-07
1.520621e-06
8.8001915e-07
8.2588427e-07
8.1329777e-07
8.1077149e-07
8.1167496e-07
8.1244522e-07
8.1425569e-07
8.1537511e-07
8.2089108e-07
8.3291922e-07
8.5467538e-07
8.8204182e-07
9.0278688e-07
9.1169442e-07
9.0881274e-07
9.0393443e-07
9.0248907e-07
9.0467811e-07
9.0009735e-07
8.8512558e-07
8.6773227e-07
8.5621697e-07
8.5258378e-07
8.5405477e-07
8.5958995e-07
8.6549822e-07
8.7320649e-07
8.8325293e-07
8.9604897e-07
9.1231171e-07
9.2919665e-07
9.4653057e-07
9.6146798e-07
9.7419155e-07
1.483437e-06
8.785595e-07
8.2554236e-07
8.1849294e-07
8.2064367e-07
8.2336215e-07
8.2231843e-07
8.1918906e-07
8.164273e-07
8.1479718e-07
8.2086238e-07
8.395308e-07
8.6983021e-07
8.9698405e-07
9.0996569e-07
9.078745e-07
9.015046e-07
8.9648396e-07
8.93468e-07
8.8645594e-07
8.761772e-07
8.6455272e-07
8.5865888e-07
8.5998273e-07
8.6562922e-07
8.7136017e-07
8.7732086e-07
8.8343885e-07
8.9111604e-07
9.0047659e-07
9.1220347e-07
9.2665675e-07
9.4185008e-07
9.5409126e-07
9.637606e-07
1.3779167e-06
8.7390946e-07
8.2638909e-07
8.202921e-07
8.2617443e-07
8.3254708e-07
8.3213831e-07
8.2891148e-07
8.2428671e-07
8.1836321e-07
8.1794365e-07
8.3007069e-07
8.543249e-07
8.8073896e-07
8.9281902e-07
8.9202066e-07
8.852295e-07
8.7981134e-07
8.7787049e-07
8.7553369e-07
8.7030551e-07
8.6644173e-07
8.6652117e-07
8.7386394e-07
8.8152523e-07
8.8645262e-07
8.900893e-07
8.927181e-07
8.9605069e-07
9.0072786e-07
9.091558e-07
9.1912181e-07
9.2949175e-07
9.3913456e-07
9.4778978e-07
1.3467198e-06
8.6435952e-07
8.2644547e-07
8.1930896e-07
8.255505e-07
8.3569758e-07
8.4009069e-07
8.3820153e-07
8.3423823e-07
8.2783313e-07
8.2438061e-07
8.2912151e-07
8.4514853e-07
8.6164029e-07
8.6833663e-07
8.6561559e-07
8.6039995e-07
8.5976021e-07
8.6249813e-07
8.662424e-07
8.6796261e-07
8.7074197e-07
8.7835237e-07
8.8788585e-07
8.9469429e-07
8.9816617e-07
8.9821291e-07
8.9753117e-07
8.971073e-07
8.9831558e-07
9.0168298e-07
9.0746129e-07
9.1595571e-07
9.2423457e-07
9.3048876e-07
1.2556692e-06
8.5733056e-07
8.2778542e-07
8.1517275e-07
8.1933963e-07
8.327948e-07
8.44258e-07
8.464403e-07
8.4146451e-07
8.3555043e-07
8.3242931e-07
8.3479486e-07
8.4306687e-07
8.49717e-07
8.4710344e-07
8.4200083e-07
8.3857346e-07
8.4153834e-07
8.4914071e-07
8.5952825e-07
8.6772561e-07
8.7594933e-07
8.8534568e-07
8.9415817e-07
9.0010671e-07
9.0115258e-07
8.9936201e-07
8.9539262e-07
8.9131466e-07
8.8850599e-07
8.8887992e-07
8.9272605e-07
8.9886087e-07
9.0519141e-07
9.1099418e-07
1.2474627e-06
8.6203004e-07
8.326373e-07
8.118424e-07
8.0927784e-07
8.2414895e-07
8.4357249e-07
8.5102409e-07
8.4589466e-07
8.3937392e-07
8.3713319e-07
8.3948053e-07
8.4234182e-07
8.4256294e-07
8.3617946e-07
8.3074475e-07
8.2803863e-07
8.3401082e-07
8.4394972e-07
8.5620594e-07
8.6703363e-07
8.7599843e-07
8.8360235e-07
8.8914808e-07
8.9303545e-07
8.9227454e-07
8.8818632e-07
8.8121933e-07
8.7503123e-07
8.7084755e-07
8.6950031e-07
8.7181931e-07
8.7740171e-07
8.8408043e-07
8.921468e-07
1.3992054e-06
8.8045196e-07
8.4033753e-07
8.1063472e-07
7.987183e-07
8.0996027e-07
8.3503181e-07
8.5092009e-07
8.4879616e-07
8.4255168e-07
8.3961194e-07
8.4024569e-07
8.4150595e-07
8.3943062e-07
8.3565195e-07
8.2987568e-07
8.3063011e-07
8.353826e-07
8.4508701e-07
8.5528001e-07
8.6481957e-07
8.6925993e-07
8.7224051e-07
8.7400905e-07
8.7334143e-07
8.7067183e-07
8.6502409e-07
8.5738004e-07
8.5038991e-07
8.4655092e-07
8.466698e-07
8.4947323e-07
8.5572381e-07
8.6561846e-07
8.7638721e-07
1.3608466e-06
9.0112645e-07
8.4672295e-07
8.0846364e-07
7.9059387e-07
7.9623491e-07
8.2017815e-07
8.4041062e-07
8.4742584e-07
8.4724379e-07
8.4428936e-07
8.4263698e-07
8.4235843e-07
8.4129365e-07
8.3931815e-07
8.3683695e-07
8.3887084e-07
8.4162981e-07
8.4771771e-07
8.5401385e-07
8.591428e-07
8.5983525e-07
8.5835309e-07
8.5444696e-07
8.5086603e-07
8.4601408e-07
8.3953848e-07
8.3260557e-07
8.2740237e-07
8.2501765e-07
8.2599443e-07
8.3076781e-07
8.3993147e-07
8.5129982e-07
8.6339677e-07
1.5275315e-06
9.4147538e-07
8.5195069e-07
8.0797523e-07
7.8912266e-07
7.9118963e-07
8.083795e-07
8.2591871e-07
8.3737438e-07
8.4737515e-07
8.503579e-07
8.4993204e-07
8.4915282e-07
8.4745626e-07
8.4679991e-07
8.4597254e-07
8.4611554e-07
8.463849e-07
8.4729402e-07
8.5037732e-07
8.5267414e-07
8.5135818e-07
8.4598107e-07
8.4054739e-07
8.3523009e-07
8.2922916e-07
8.2193258e-07
8.1550723e-07
8.1184345e-07
8.1130653e-07
8.1382496e-07
8.1983111e-07
8.3018622e-07
8.4263598e-07
8.574019e-07
1.6907201e-06
9.8049572e-07
8.5855404e-07
8.1233338e-07
7.9486413e-07
7.9522281e-07
8.0551808e-07
8.1492793e-07
8.2289721e-07
8.3736389e-07
8.4958852e-07
8.5556562e-07
8.5731939e-07
8.5723314e-07
8.5630027e-07
8.5449549e-07
8.5185976e-07
8.4880573e-07
8.4597297e-07
8.4604286e-07
8.4512097e-07
8.4313215e-07
8.3924956e-07
8.3416844e-07
8.2829843e-07
8.2167927e-07
8.1451025e-07
8.0951238e-07
8.0672061e-07
8.0662881e-07
8.1043752e-07
8.1786645e-07
8.2941501e-07
8.4329801e-07
8.6011444e-07
1.7222465e-06
9.991833e-07
8.6475048e-07
8.2336897e-07
8.0796282e-07
8.0591834e-07
8.1247887e-07
8.1366722e-07
8.1319516e-07
8.2306928e-07
8.3893028e-07
8.5202073e-07
8.5830309e-07
8.6157886e-07
8.6139398e-07
8.5943924e-07
8.5588205e-07
8.509148e-07
8.4570454e-07
8.4249388e-07
8.4070223e-07
8.3925481e-07
8.3769479e-07
8.3360957e-07
8.2815214e-07
8.214187e-07
8.1463645e-07
8.0984928e-07
8.083341e-07
8.1057e-07
8.1617363e-07
8.2525146e-07
8.3752841e-07
8.5250626e-07
8.6791931e-07
1.6582619e-06
9.9685613e-07
8.6883787e-07
8.3662872e-07
8.2314511e-07
8.2006729e-07
8.2350183e-07
8.2118725e-07
8.1433735e-07
8.1463618e-07
8.2601556e-07
8.3964491e-07
8.4940509e-07
8.5575635e-07
8.5843571e-07
8.5860775e-07
8.5595563e-07
8.5251051e-07
8.4731513e-07
8.438276e-07
8.4159079e-07
8.4084378e-07
8.3945231e-07
8.3636115e-07
8.312946e-07
8.2471594e-07
8.196524e-07
8.1693532e-07
8.1690707e-07
8.2021796e-07