/*--------------------------------*- C++ -*----------------------------------*\
| =========                 |                                                 |
| \\      /  F ield         | OpenFOAM: The Open Source CFD Toolbox           |
|  \\    /   O peration     | Version:  2406                                  |
|   \\  /    A nd           | Website:  www.openfoam.com                      |
|    \\/     M anipulation  |                                                 |
\*---------------------------------------------------------------------------*/
FoamFile
{
    version     2.0;
    format      ascii;
    arch        "LSB;label=32;scalar=64";
    class       volScalarField;
    location    "10";
    object      k;
}
// * * * * * * * * * * * * * * * * * * * * * * * * * * * * * * * * * * * * * //

dimensions      [0 2 -2 0 0 0 0];

internalField   nonuniform List<scalar> 
158064
(
3.9434019e-06
3.0425734e-06
2.4902289e-06
2.1265846e-06
1.8586539e-06
1.6418501e-06
1.4618568e-06
1.3125717e-06
1.1902828e-06
1.0919834e-06
1.0148977e-06
9.5676485e-07
9.1504754e-07
8.8714194e-07
8.6923648e-07
8.5803101e-07
8.5137079e-07
8.4774561e-07
8.4575659e-07
8.4455644e-07
8.4372119e-07
8.4356843e-07
8.4381162e-07
8.4437641e-07
8.4496934e-07
8.4562278e-07
8.4659213e-07
8.4755013e-07
8.4887331e-07
8.5045955e-07
8.5228416e-07
8.5442264e-07
8.5717892e-07
8.6076692e-07
8.653664e-07
8.7059887e-07
8.7642567e-07
8.8106369e-07
8.8532346e-07
8.88399e-07
8.9124631e-07
8.9407641e-07
8.9560338e-07
8.9671461e-07
8.974735e-07
8.9856809e-07
8.9954561e-07
9.0100247e-07
9.0231161e-07
9.0393184e-07
9.0546388e-07
9.0718763e-07
9.0899242e-07
9.1093087e-07
9.1281041e-07
9.1481258e-07
9.1681342e-07
9.1898868e-07
9.2089808e-07
9.2273427e-07
9.2410884e-07
9.2647772e-07
9.2859458e-07
9.3213265e-07
9.350356e-07
9.4115597e-07
9.4777154e-07
9.5710151e-07
9.6614945e-07
9.7996927e-07
9.9123968e-07
1.0046657e-06
1.0154602e-06
1.0213283e-06
1.0305208e-06
1.0369003e-06
1.0465876e-06
1.0702604e-06
1.0844847e-06
1.112914e-06
1.1284776e-06
1.1491346e-06
1.1985952e-06
1.2209344e-06
1.2551622e-06
1.3268583e-06
1.3675824e-06
1.4150013e-06
1.5013166e-06
3.9448695e-06
3.04495e-06
2.4926601e-06
2.129035e-06
1.8611235e-06
1.6443201e-06
1.4642386e-06
1.3147468e-06
1.1922512e-06
1.0936471e-06
1.0162104e-06
9.5775768e-07
9.1573347e-07
8.8752954e-07
8.6944434e-07
8.5809701e-07
8.5131965e-07
8.4756957e-07
8.4550266e-07
8.4424956e-07
8.433403e-07
8.4297177e-07
8.4305554e-07
8.4334703e-07
8.4365278e-07
8.4406134e-07
8.4461756e-07
8.4534523e-07
8.4622458e-07
8.4743041e-07
8.4885403e-07
8.5077575e-07
8.5300142e-07
8.5637625e-07
8.6057905e-07
8.6614771e-07
8.7218966e-07
8.7777402e-07
8.8202181e-07
8.8535418e-07
8.8805305e-07
8.9028779e-07
8.9155671e-07
8.9248012e-07
8.9301047e-07
8.9377554e-07
8.9453315e-07
8.9548941e-07
8.9685073e-07
8.9807911e-07
8.9984702e-07
9.014746e-07
9.0352789e-07
9.0567231e-07
9.0768517e-07
9.0966216e-07
9.1212824e-07
9.1367471e-07
9.1649094e-07
9.1756448e-07
9.1934669e-07
9.2000849e-07
9.2235801e-07
9.2334118e-07
9.2587466e-07
9.2731092e-07
9.301957e-07
9.3303549e-07
9.3724573e-07
9.4032542e-07
9.456767e-07
9.4982163e-07
9.5970286e-07
9.662279e-07
9.8233282e-07
9.9763646e-07
1.0105658e-06
1.0398567e-06
1.0556537e-06
1.0903189e-06
1.1059003e-06
1.1417789e-06
1.1616868e-06
1.2023098e-06
1.223004e-06
1.259961e-06
1.3221905e-06
1.3501855e-06
1.400808e-06
3.9462539e-06
3.0471431e-06
2.4949302e-06
2.1313454e-06
1.8635634e-06
1.6467312e-06
1.4665616e-06
1.3168688e-06
1.1940914e-06
1.0951946e-06
1.0174801e-06
9.5874519e-07
9.1640107e-07
8.8790972e-07
8.6961251e-07
8.58107e-07
8.5122388e-07
8.474023e-07
8.4531771e-07
8.4405151e-07
8.4313993e-07
8.4274514e-07
8.4282842e-07
8.4311732e-07
8.4343492e-07
8.4384905e-07
8.4440903e-07
8.4515125e-07
8.4609289e-07
8.4735141e-07
8.4881441e-07
8.5076018e-07
8.5291189e-07
8.5615044e-07
8.6003289e-07
8.6512932e-07
8.7079077e-07
8.7614973e-07
8.8048305e-07
8.8372887e-07
8.8619853e-07
8.882393e-07
8.893632e-07
8.9020989e-07
8.9056196e-07
8.9132146e-07
8.9190488e-07
8.9284217e-07
8.9396849e-07
8.9545998e-07
8.9684804e-07
8.9873915e-07
9.0040204e-07
9.0250804e-07
9.0444522e-07
9.0618156e-07
9.083334e-07
9.0973477e-07
9.1181395e-07
9.1285453e-07
9.1437153e-07
9.1503405e-07
9.1659821e-07
9.1743903e-07
9.1968864e-07
9.2074056e-07
9.2338885e-07
9.2520244e-07
9.2908792e-07
9.3304208e-07
9.3585096e-07
9.4259706e-07
9.4736196e-07
9.5709284e-07
9.6394276e-07
9.7552997e-07
9.906629e-07
1.0012953e-06
1.0232922e-06
1.0396184e-06
1.0614486e-06
1.0982508e-06
1.1118239e-06
1.1528919e-06
1.1811106e-06
1.1992195e-06
1.2509074e-06
1.2798565e-06
1.3294051e-06
3.9476052e-06
3.0492928e-06
2.497149e-06
2.1336543e-06
1.8659451e-06
1.6491151e-06
1.4688238e-06
1.318918e-06
1.1959064e-06
1.0967495e-06
1.0187468e-06
9.5972687e-07
9.1713297e-07
8.8841918e-07
8.6996364e-07
8.5835176e-07
8.5139282e-07
8.4753378e-07
8.4543968e-07
8.4417564e-07
8.4326953e-07
8.4285805e-07
8.4292132e-07
8.4318043e-07
8.434817e-07
8.4386939e-07
8.4435227e-07
8.4500093e-07
8.4581881e-07
8.4696328e-07
8.4829163e-07
8.5015044e-07
8.5218524e-07
8.5528242e-07
8.5906325e-07
8.6425648e-07
8.7022388e-07
8.7608195e-07
8.8090997e-07
8.8447013e-07
8.8739302e-07
8.8944319e-07
8.9069912e-07
8.9144148e-07
8.9188298e-07
8.9261483e-07
8.9329538e-07
8.942878e-07
8.9547234e-07
8.9696049e-07
8.9852988e-07
9.0039974e-07
9.0207288e-07
9.040933e-07
9.0578516e-07
9.0784128e-07
9.0993776e-07
9.1180616e-07
9.1398895e-07
9.1502743e-07
9.1639072e-07
9.1713207e-07
9.1838971e-07
9.1887389e-07
9.2060188e-07
9.2106049e-07
9.2245692e-07
9.2315801e-07
9.2475668e-07
9.2651331e-07
9.2820479e-07
9.3279343e-07
9.3529952e-07
9.4121698e-07
9.4519102e-07
9.5292536e-07
9.6492734e-07
9.7173691e-07
9.8928284e-07
1.0009838e-06
1.0258139e-06
1.04569e-06
1.0612314e-06
1.096696e-06
1.1166382e-06
1.1323502e-06
1.1822766e-06
1.2048484e-06
1.2523705e-06
3.9488791e-06
3.0513305e-06
2.4992785e-06
2.1358083e-06
1.8681766e-06
1.6513484e-06
1.4709961e-06
1.3209393e-06
1.1977046e-06
1.0983142e-06
1.0200584e-06
9.6074071e-07
9.1782638e-07
8.8882785e-07
8.7016944e-07
8.5842227e-07
8.5139013e-07
8.4748012e-07
8.453791e-07
8.4410997e-07
8.432e-07
8.4278083e-07
8.4285056e-07
8.4312685e-07
8.4345024e-07
8.4383905e-07
8.4434831e-07
8.450321e-07
8.4589186e-07
8.4705211e-07
8.4840164e-07
8.5026164e-07
8.5227542e-07
8.5528551e-07
8.5884828e-07
8.6378793e-07
8.6952431e-07
8.7528284e-07
8.8036239e-07
8.8424763e-07
8.8696299e-07
8.8891886e-07
8.900657e-07
8.907726e-07
8.9105488e-07
8.9166811e-07
8.9222824e-07
8.9307308e-07
8.9405404e-07
8.9550252e-07
8.9691875e-07
8.9887135e-07
9.0039611e-07
9.0250007e-07
9.0413815e-07
9.0600366e-07
9.0805373e-07
9.0983478e-07
9.1183169e-07
9.130099e-07
9.1440801e-07
9.1508884e-07
9.1588686e-07
9.1637839e-07
9.1779913e-07
9.1854017e-07
9.2027872e-07
9.2127216e-07
9.2369657e-07
9.250314e-07
9.2795204e-07
9.2990257e-07
9.3361953e-07
9.3678517e-07
9.407327e-07
9.4454102e-07
9.525125e-07
9.5669516e-07
9.6625606e-07
9.7212657e-07
9.8856813e-07
9.9874082e-07
1.0104638e-06
1.0362222e-06
1.0512377e-06
1.0644239e-06
1.106286e-06
1.1247087e-06
1.1616342e-06
3.9501133e-06
3.0532798e-06
2.5013093e-06
2.1379009e-06
1.8704039e-06
1.6535818e-06
1.4731054e-06
1.3228276e-06
1.1993632e-06
1.0997144e-06
1.0212148e-06
9.616684e-07
9.1853511e-07
8.8932926e-07
8.7052225e-07
8.5866717e-07
8.515479e-07
8.4757648e-07
8.4544715e-07
8.4416102e-07
8.4324526e-07
8.4279487e-07
8.428424e-07
8.430826e-07
8.433927e-07
8.4375903e-07
8.4423257e-07
8.4486469e-07
8.456781e-07
8.4678762e-07
8.480972e-07
8.4988661e-07
8.5183722e-07
8.5475816e-07
8.5823706e-07
8.6315776e-07
8.6898988e-07
8.7512292e-07
8.8062787e-07
8.8458625e-07
8.8782036e-07
8.8987274e-07
8.9104166e-07
8.9165496e-07
8.9193072e-07
8.9256975e-07
8.9315875e-07
8.9408324e-07
8.9505225e-07
8.965158e-07
8.9797922e-07
8.9993521e-07
9.0154777e-07
9.0369882e-07
9.0530521e-07
9.0711555e-07
9.0899702e-07
9.1090316e-07
9.1281909e-07
9.1425147e-07
9.1576936e-07
9.1646548e-07
9.1722326e-07
9.1761302e-07
9.1825994e-07
9.1828959e-07
9.1891496e-07
9.1942198e-07
9.2076828e-07
9.2163913e-07
9.2379503e-07
9.2514265e-07
9.2817796e-07
9.3045433e-07
9.3510188e-07
9.3869473e-07
9.4614276e-07
9.507328e-07
9.5945819e-07
9.6471874e-07
9.7901738e-07
9.8657391e-07
9.9575269e-07
1.0159426e-06
1.0286387e-06
1.0389722e-06
1.0716362e-06
1.0865052e-06
1.1097648e-06
3.9512795e-06
3.0551413e-06
2.5032697e-06
2.1399038e-06
1.8724978e-06
1.6556849e-06
1.4751351e-06
1.3246994e-06
1.2010547e-06
1.1012245e-06
1.0224985e-06
9.626816e-07
9.1924251e-07
8.8975625e-07
8.7074775e-07
8.5876797e-07
8.5159105e-07
8.4759418e-07
8.4548226e-07
8.4420588e-07
8.4330249e-07
8.4287481e-07
8.4293718e-07
8.4322026e-07
8.4355519e-07
8.4393527e-07
8.44422e-07
8.4506237e-07
8.4588545e-07
8.4698538e-07
8.4829738e-07
8.5003724e-07
8.5196362e-07
8.5482643e-07
8.5815384e-07
8.6287275e-07
8.684708e-07
8.7458623e-07
8.8031065e-07
8.845281e-07
8.8770468e-07
8.8975558e-07
8.9081225e-07
8.9133333e-07
8.9157436e-07
8.9214461e-07
8.9271608e-07
8.9360184e-07
8.9453196e-07
8.9595703e-07
8.9730236e-07
8.9914567e-07
9.007572e-07
9.0298905e-07
9.0464693e-07
9.0650331e-07
9.0832746e-07
9.1015825e-07
9.1193376e-07
9.1340981e-07
9.1499195e-07
9.1588674e-07
9.1677675e-07
9.173698e-07
9.1797593e-07
9.1821316e-07
9.1893908e-07
9.1939485e-07
9.2072836e-07
9.2153615e-07
9.2358173e-07
9.2463611e-07
9.2722938e-07
9.2862404e-07
9.320197e-07
9.3439937e-07
9.384471e-07
9.44618e-07
9.5152546e-07
9.5591106e-07
9.6822966e-07
9.7584684e-07
9.8458811e-07
1.0036271e-06
1.0146512e-06
1.0253591e-06
1.0539729e-06
1.0649486e-06
1.0831088e-06
3.9524051e-06
3.0569186e-06
2.5051291e-06
2.1418375e-06
1.8745408e-06
1.6577554e-06
1.4771113e-06
1.3264885e-06
1.2026e-06
1.1025301e-06
1.023587e-06
9.635515e-07
9.199094e-07
8.9023526e-07
8.7109648e-07
8.590153e-07
8.5175061e-07
8.4766968e-07
8.4551536e-07
8.4422381e-07
8.4331299e-07
8.4284115e-07
8.4287745e-07
8.4310807e-07
8.4341665e-07
8.4377095e-07
8.4424029e-07
8.4485556e-07
8.4565821e-07
8.4674406e-07
8.4803775e-07
8.4972447e-07
8.5163344e-07
8.544171e-07
8.5762693e-07
8.622579e-07
8.6784736e-07
8.7417665e-07
8.8025317e-07
8.8470573e-07
8.8825047e-07
8.9039628e-07
8.9146905e-07
8.9200971e-07
8.9223927e-07
8.9290378e-07
8.9346927e-07
8.9441115e-07
8.9532667e-07
8.9673934e-07
8.9807659e-07
8.9981925e-07
9.0152282e-07
9.0357144e-07
9.052423e-07
9.0708401e-07
9.0891704e-07
9.1084292e-07
9.1261578e-07
9.1420362e-07
9.157116e-07
9.1668511e-07
9.1798573e-07
9.1857481e-07
9.1908635e-07
9.1920932e-07
9.1945981e-07
9.1957321e-07
9.2021876e-07
9.2084481e-07
9.2256515e-07
9.2348172e-07
9.258069e-07
9.2742006e-07
9.3027844e-07
9.3357975e-07
9.3683979e-07
9.4248164e-07
9.4791265e-07
9.5289533e-07
9.6436611e-07
9.6910297e-07
9.7879577e-07
9.9306218e-07
1.0010014e-06
1.0091879e-06
1.0356062e-06
1.0441514e-06
1.0590324e-06
3.9534748e-06
3.0586243e-06
2.5069125e-06
2.1436922e-06
1.8764961e-06
1.6597245e-06
1.4790031e-06
1.3282424e-06
1.2041849e-06
1.1039052e-06
1.024757e-06
9.6451519e-07
9.2061862e-07
8.907039e-07
8.7136784e-07
8.5915697e-07
8.5182339e-07
8.4772062e-07
8.4557887e-07
8.4428729e-07
8.433854e-07
8.4294278e-07
8.4299569e-07
8.4327752e-07
8.4360542e-07
8.4396867e-07
8.4444566e-07
8.4505596e-07
8.4584599e-07
8.4691957e-07
8.4820812e-07
8.498488e-07
8.5174882e-07
8.5448633e-07
8.5758929e-07
8.6213727e-07
8.6761071e-07
8.7391706e-07
8.8017414e-07
8.8483617e-07
8.8845422e-07
8.9058627e-07
8.9160846e-07
8.9215904e-07
8.923542e-07
8.928889e-07
8.933807e-07
8.9426563e-07
8.9512916e-07
8.9641175e-07
8.9763961e-07
8.9944018e-07
9.0113961e-07
9.0315113e-07
9.0471056e-07
9.0658691e-07
9.0842304e-07
9.105628e-07
9.1243021e-07
9.1390091e-07
9.15276e-07
9.1607529e-07
9.1749602e-07
9.1840011e-07
9.1931537e-07
9.1985521e-07
9.2022691e-07
9.2043366e-07
9.2078155e-07
9.209249e-07
9.2195457e-07
9.2268117e-07
9.2432408e-07
9.2571723e-07
9.281894e-07
9.305454e-07
9.3286897e-07
9.3752924e-07
9.4175482e-07
9.4519577e-07
9.5562207e-07
9.6150011e-07
9.6907101e-07
9.8130637e-07
9.8809602e-07
9.9502528e-07
1.0155749e-06
1.0245042e-06
1.0379532e-06
3.9545055e-06
3.0602548e-06
2.5086114e-06
2.1454642e-06
1.8783815e-06
1.6616402e-06
1.4808388e-06
1.3299038e-06
1.2056467e-06
1.1051761e-06
1.0258153e-06
9.6534623e-07
9.212387e-07
8.9112621e-07
8.716644e-07
8.5936365e-07
8.5196158e-07
8.4779298e-07
8.4560926e-07
8.4430856e-07
8.4339837e-07
8.4291863e-07
8.4294887e-07
8.4318877e-07
8.4350386e-07
8.4385503e-07
8.4432583e-07
8.4492939e-07
8.4570242e-07
8.4675847e-07
8.4802797e-07
8.4962583e-07
8.5150545e-07
8.5417294e-07
8.571648e-07
8.6158834e-07
8.6693618e-07
8.7330215e-07
8.7981556e-07
8.8488344e-07
8.8875804e-07
8.9097505e-07
8.920744e-07
8.9268494e-07
8.928906e-07
8.9345379e-07
8.9389979e-07
8.9484315e-07
8.9580111e-07
8.9710261e-07
8.9831127e-07
9.0001596e-07
9.0177767e-07
9.038264e-07
9.0545658e-07
9.0723717e-07
9.0891426e-07
9.1094451e-07
9.1280591e-07
9.1455302e-07
9.1594096e-07
9.1680354e-07
9.1784716e-07
9.1851967e-07
9.1949776e-07
9.2001613e-07
9.2045477e-07
9.2067558e-07
9.2092848e-07
9.2100127e-07
9.217879e-07
9.2219768e-07
9.2386351e-07
9.2497494e-07
9.2724082e-07
9.2962657e-07
9.3177107e-07
9.3598989e-07
9.3959594e-07
9.4225888e-07
9.5003604e-07
9.5488675e-07
9.6029795e-07
9.7255633e-07
9.7793238e-07
9.8382418e-07
1.0014642e-06
1.0070045e-06
1.0186953e-06
3.9554871e-06
3.0618175e-06
2.510241e-06
2.1471652e-06
1.8801997e-06
1.6634988e-06
1.4826059e-06
1.3315299e-06
1.2071074e-06
1.1064619e-06
1.0269069e-06
9.6623628e-07
9.2190586e-07
8.9158843e-07
8.7196974e-07
8.5955294e-07
8.5206422e-07
8.4784647e-07
8.4566771e-07
8.4437151e-07
8.4346612e-07
8.4300728e-07
8.4304957e-07
8.4331935e-07
8.4364615e-07
8.4401323e-07
8.4449214e-07
8.4509874e-07
8.4585821e-07
8.4690547e-07
8.4815168e-07
8.4970586e-07
8.5156512e-07
8.5414847e-07
8.5703453e-07
8.6136723e-07
8.6662172e-07
8.729663e-07
8.7960696e-07
8.8494854e-07
8.8896498e-07
8.9114776e-07
8.9211836e-07
8.9271384e-07
8.9293729e-07
8.9338695e-07
8.9368878e-07
8.944761e-07
8.9554222e-07
8.9679963e-07
8.9793755e-07
8.9942897e-07
9.0112559e-07
9.033488e-07
9.0508359e-07
9.06981e-07
9.0861062e-07
9.1051677e-07
9.1252201e-07
9.1442673e-07
9.1612052e-07
9.1719286e-07
9.1829737e-07
9.1890418e-07
9.1989277e-07
9.2030443e-07
9.2096466e-07
9.2138349e-07
9.2159368e-07
9.21612e-07
9.2197023e-07
9.2208324e-07
9.228506e-07
9.2383449e-07
9.2505539e-07
9.2750129e-07
9.2905908e-07
9.3261469e-07
9.3596746e-07
9.3872391e-07
9.4640428e-07
9.4969992e-07
9.5485652e-07
9.6578049e-07
9.7102006e-07
9.7623292e-07
9.9136852e-07
9.966688e-07
1.0052124e-06
3.9564327e-06
3.0633112e-06
2.5117993e-06
2.1487963e-06
1.8819447e-06
1.6652688e-06
1.4843018e-06
1.3330917e-06
1.2084928e-06
1.1076508e-06
1.0279237e-06
9.6704937e-07
9.2251478e-07
8.9200474e-07
8.7223944e-07
8.5971945e-07
8.5216906e-07
8.479075e-07
8.4569412e-07
8.4438494e-07
8.4347236e-07
8.4299365e-07
8.4302599e-07
8.432741e-07
8.4359318e-07
8.4394569e-07
8.4440112e-07
8.4500832e-07
8.4577593e-07
8.4683845e-07
8.4810941e-07
8.4966614e-07
8.5152089e-07
8.540856e-07
8.5688328e-07
8.6109843e-07
8.6624945e-07
8.7261025e-07
8.7941557e-07
8.850326e-07
8.8929023e-07
8.9163522e-07
8.9263793e-07
8.9318162e-07
8.9346537e-07
8.9404609e-07
8.943197e-07
8.9509438e-07
8.9607507e-07
8.9743288e-07
8.985998e-07
9.0013294e-07
9.0172711e-07
9.0379611e-07
9.0549307e-07
9.0749478e-07
9.0921373e-07
9.1107201e-07
9.1290819e-07
9.147416e-07
9.1655177e-07
9.1785499e-07
9.1902197e-07
9.1959609e-07
9.202575e-07
9.2050669e-07
9.2097273e-07
9.2131685e-07
9.2177343e-07
9.2199467e-07
9.2252173e-07
9.2276189e-07
9.2342821e-07
9.2416216e-07
9.2519621e-07
9.2719735e-07
9.2836324e-07
9.3125719e-07
9.3495641e-07
9.374073e-07
9.4325854e-07
9.4614988e-07
9.5200798e-07
9.5952363e-07
9.6386416e-07
9.6999697e-07
9.8484127e-07
9.8881643e-07
9.9618535e-07
3.9573357e-06
3.0647445e-06
2.5132831e-06
2.1503528e-06
1.8836326e-06
1.666983e-06
1.4859364e-06
1.3346019e-06
1.2098529e-06
1.1088553e-06
1.0289476e-06
9.6789137e-07
9.2314266e-07
8.9243331e-07
8.7253189e-07
8.5992415e-07
8.5230848e-07
8.4799134e-07
8.4576516e-07
8.4445753e-07
8.4355011e-07
8.4307606e-07
8.4311774e-07
8.4337199e-07
8.4370815e-07
8.4407864e-07
8.4454213e-07
8.4512692e-07
8.458447e-07
8.468376e-07
8.4805172e-07
8.4958379e-07
8.5138002e-07
8.5388678e-07
8.5661345e-07
8.6069324e-07
8.6569458e-07
8.7209129e-07
8.7899813e-07
8.8483057e-07
8.8922914e-07
8.9178917e-07
8.9284063e-07
8.9326679e-07
8.9342428e-07
8.9396321e-07
8.9431351e-07
8.9513596e-07
8.9593917e-07
8.9718984e-07
8.9838952e-07
9.0005793e-07
9.0164524e-07
9.0354513e-07
9.0515276e-07
9.0725776e-07
9.09114e-07
9.1116336e-07
9.1303672e-07
9.1484379e-07
9.1651506e-07
9.1798679e-07
9.1941824e-07
9.2034103e-07
9.2112407e-07
9.2147449e-07
9.2173384e-07
9.2180518e-07
9.221134e-07
9.2214182e-07
9.2254011e-07
9.2261111e-07
9.2348151e-07
9.2382874e-07
9.2495948e-07
9.2619656e-07
9.2761386e-07
9.3011221e-07
9.3282453e-07
9.3525493e-07
9.411911e-07
9.4391068e-07
9.4880285e-07
9.5596437e-07
9.5904035e-07
9.6468967e-07
9.8029352e-07
9.8412736e-07
9.8984916e-07
3.9582049e-06
3.0661184e-06
2.5147043e-06
2.1518454e-06
1.8852547e-06
1.6686173e-06
1.4875144e-06
1.3360663e-06
1.211148e-06
1.1099749e-06
1.029886e-06
9.6864921e-07
9.2373382e-07
8.928461e-07
8.7280597e-07
8.6008611e-07
8.5238776e-07
8.4803322e-07
8.4578304e-07
8.4447186e-07
8.4355824e-07
8.4307706e-07
8.4311234e-07
8.4336782e-07
8.4370248e-07
8.4407059e-07
8.4453973e-07
8.4514121e-07
8.4589803e-07
8.4690889e-07
8.4812402e-07
8.4966193e-07
8.5144324e-07
8.5390244e-07
8.5660034e-07
8.6062133e-07
8.6544472e-07
8.717746e-07
8.7885453e-07
8.8492147e-07
8.8950163e-07
8.9217365e-07
8.9326855e-07
8.93704e-07
8.9385161e-07
8.9434239e-07
8.9468516e-07
8.9552343e-07
8.9635129e-07
8.9749563e-07
8.9863316e-07
9.0027266e-07
9.0191617e-07
9.0387231e-07
9.0540446e-07
9.0740002e-07
9.0921375e-07
9.1132686e-07
9.1319477e-07
9.1505306e-07
9.1665163e-07
9.1803324e-07
9.194756e-07
9.2048506e-07
9.2144859e-07
9.2191765e-07
9.2230342e-07
9.2225251e-07
9.2256449e-07
9.2248641e-07
9.229794e-07
9.230922e-07
9.2404485e-07
9.2438984e-07
9.2538466e-07
9.2644712e-07
9.2762496e-07
9.3021319e-07
9.3193574e-07
9.3352074e-07
9.3926983e-07
9.4219464e-07
9.4563923e-07
9.527445e-07
9.5529708e-07
9.6037444e-07
9.7260629e-07
9.7627602e-07
9.8226542e-07
3.9590372e-06
3.0674328e-06
2.5160634e-06
2.1532824e-06
1.8868112e-06
1.6701882e-06
1.4890167e-06
1.3374613e-06
1.2124188e-06
1.1111308e-06
1.0309066e-06
9.6948447e-07
9.2434125e-07
8.9326086e-07
8.7309364e-07
8.6028507e-07
8.5252139e-07
8.4811496e-07
8.4584149e-07
8.4452386e-07
8.4360684e-07
8.4311742e-07
8.4314801e-07
8.4338981e-07
8.4373242e-07
8.4408831e-07
8.4454461e-07
8.4512658e-07
8.4586239e-07
8.4684686e-07
8.4803668e-07
8.4954376e-07
8.513134e-07
8.5370575e-07
8.5633473e-07
8.6027672e-07
8.6497593e-07
8.7125545e-07
8.7838988e-07
8.8471562e-07
8.8950238e-07
8.9228154e-07
8.9340554e-07
8.9388368e-07
8.9406361e-07
8.9453022e-07
8.9479569e-07
8.9567661e-07
8.9648898e-07
8.9765049e-07
8.9871199e-07
9.0025273e-07
9.0199131e-07
9.0392985e-07
9.0552699e-07
9.074182e-07
9.0914721e-07
9.1135598e-07
9.1335928e-07
9.1520706e-07
9.1695231e-07
9.1841076e-07
9.1987115e-07
9.209107e-07
9.2202739e-07
9.2247833e-07
9.2307248e-07
9.2289437e-07
9.2314703e-07
9.2296577e-07
9.2324227e-07
9.2324154e-07
9.2375909e-07
9.2406225e-07
9.2496003e-07
9.2646861e-07
9.2729838e-07
9.2959722e-07
9.3150446e-07
9.3318334e-07
9.3835523e-07
9.401243e-07
9.4420681e-07
9.4998841e-07
9.5262969e-07
9.5729278e-07
9.6691449e-07
9.6995618e-07
9.7697705e-07
3.9598371e-06
3.0686928e-06
2.5173505e-06
2.1546419e-06
1.8882965e-06
1.6717042e-06
1.4904856e-06
1.3388143e-06
1.2136121e-06
1.1121426e-06
1.0317546e-06
9.701747e-07
9.2488785e-07
8.9366888e-07
8.7335085e-07
8.6043897e-07
8.5261879e-07
8.4817239e-07
8.4588849e-07
8.4457266e-07
8.4365178e-07
8.4316619e-07
8.4320345e-07
8.4345407e-07
8.4380806e-07
8.4417745e-07
8.4464505e-07
8.4523588e-07
8.4596919e-07
8.4694644e-07
8.4811767e-07
8.4963054e-07
8.5139451e-07
8.5373944e-07
8.5632664e-07
8.6019024e-07
8.6474341e-07
8.7097696e-07
8.7811775e-07
8.8464701e-07
8.8963022e-07
8.9257558e-07
8.9369287e-07
8.9413309e-07
8.9432372e-07
8.9469426e-07
8.9497254e-07
8.9583325e-07
8.9671477e-07
8.9783337e-07
8.9888053e-07
9.0033309e-07
9.0204881e-07
9.0398726e-07
9.0558209e-07
9.0749001e-07
9.0916457e-07
9.113838e-07
9.133658e-07
9.1533058e-07
9.1707424e-07
9.1850167e-07
9.2001985e-07
9.2101958e-07
9.2222976e-07
9.2279212e-07
9.2345375e-07
9.2347068e-07
9.2371004e-07
9.2357888e-07
9.238227e-07
9.2376657e-07
9.2421213e-07
9.2446206e-07
9.2534567e-07
9.2621268e-07
9.2711583e-07
9.2930386e-07
9.3084881e-07
9.3278055e-07
9.368204e-07
9.3809088e-07
9.4099351e-07
9.4662207e-07
9.5004271e-07
9.5420265e-07
9.6422838e-07
9.6786026e-07
9.722219e-07
3.9606057e-06
3.0698975e-06
2.5185868e-06
2.1559538e-06
1.8897283e-06
1.6731225e-06
1.4918867e-06
1.3401433e-06
1.2148208e-06
1.1132169e-06
1.0326867e-06
9.7094325e-07
9.2549223e-07
8.9405247e-07
8.7362342e-07
8.6063105e-07
8.5273561e-07
8.4823969e-07
8.4592341e-07
8.4459683e-07
8.4367096e-07
8.4317317e-07
8.432003e-07
8.4344086e-07
8.4378562e-07
8.4414262e-07
8.44586e-07
8.4516924e-07
8.4590761e-07
8.468862e-07
8.4805611e-07
8.4956521e-07
8.5130233e-07
8.5363665e-07
8.5617846e-07
8.5996079e-07
8.6441128e-07
8.7055771e-07
8.7770296e-07
8.8444495e-07
8.8964619e-07
8.9273078e-07
8.9386751e-07
8.9435127e-07
8.9456469e-07
8.9495662e-07
8.9515726e-07
8.9597855e-07
8.9677563e-07
8.9796326e-07
8.9900432e-07
9.0043179e-07
9.0204881e-07
9.0397344e-07
9.0556316e-07
9.0752534e-07
9.0919794e-07
9.1145429e-07
9.1331621e-07
9.1535838e-07
9.1717029e-07
9.1875832e-07
9.20224e-07
9.2130007e-07
9.2254413e-07
9.2323263e-07
9.2380573e-07
9.2393337e-07
9.2420723e-07
9.2405567e-07
9.2423438e-07
9.2409883e-07
9.2442558e-07
9.2460063e-07
9.2558624e-07
9.2603695e-07
9.2700455e-07
9.2951973e-07
9.3069534e-07
9.3244104e-07
9.3614043e-07
9.3742318e-07
9.4070106e-07
9.4636194e-07
9.4884007e-07
9.5376455e-07
9.6314704e-07
9.6533402e-07
9.6962349e-07
3.9613422e-06
3.0710525e-06
2.5197868e-06
2.1572054e-06
1.8911037e-06
1.6745122e-06
1.4932478e-06
1.3413923e-06
1.2159433e-06
1.1142086e-06
1.0335321e-06
9.7164383e-07
9.2600317e-07
8.9443453e-07
8.7385905e-07
8.6078277e-07
8.5282534e-07
8.4829414e-07
8.4596422e-07
8.4463979e-07
8.4371897e-07
8.4322649e-07
8.4325685e-07
8.4350361e-07
8.4387192e-07
8.4424418e-07
8.4470278e-07
8.4527587e-07
8.4599373e-07
8.4694507e-07
8.4809216e-07
8.49576e-07
8.5126455e-07
8.5354866e-07
8.5603175e-07
8.5973932e-07
8.6411756e-07
8.701615e-07
8.7729823e-07
8.8426668e-07
8.8964258e-07
8.928639e-07
8.9412589e-07
8.9463363e-07
8.9477975e-07
8.9516039e-07
8.9538219e-07
8.9619788e-07
8.9697708e-07
8.9809481e-07
8.9915241e-07
9.0059337e-07
9.0217867e-07
9.0399424e-07
9.0556625e-07
9.0755178e-07
9.0930424e-07
9.1156479e-07
9.1342598e-07
9.1546423e-07
9.1718776e-07
9.1885742e-07
9.2043764e-07
9.2174089e-07
9.228335e-07
9.2360763e-07
9.241745e-07
9.2438672e-07
9.2481208e-07
9.2470556e-07
9.2479596e-07
9.2472084e-07
9.2497139e-07
9.2500508e-07
9.2566605e-07
9.2618829e-07
9.2683725e-07
9.2870804e-07
9.3016165e-07
9.3164091e-07
9.3434778e-07
9.3592056e-07
9.3959959e-07
9.4572022e-07
9.4732758e-07
9.5144035e-07
9.5879362e-07
9.6029301e-07
9.6525878e-07
3.9620531e-06
3.0721594e-06
2.520918e-06
2.1583956e-06
1.8924045e-06
1.6758444e-06
1.4945429e-06
1.3426193e-06
1.2170283e-06
1.1151801e-06
1.0343684e-06
9.7231111e-07
9.2650083e-07
8.9478225e-07
8.7411125e-07
8.6094291e-07
8.5292455e-07
8.4834316e-07
8.4598239e-07
8.4464821e-07
8.437102e-07
8.432095e-07
8.4323647e-07
8.4347125e-07
8.4383012e-07
8.4418509e-07
8.4463157e-07
8.4521536e-07
8.4594491e-07
8.4689637e-07
8.480547e-07
8.4954192e-07
8.5122791e-07
8.5349406e-07
8.5593809e-07
8.5957387e-07
8.6384791e-07
8.6981526e-07
8.7691417e-07
8.8404232e-07
8.8957572e-07
8.9297507e-07
8.942887e-07
8.9476346e-07
8.9489079e-07
8.9524839e-07
8.9548327e-07
8.9626016e-07
8.9701436e-07
8.9818436e-07
8.9920691e-07
9.0057036e-07
9.0207312e-07
9.039044e-07
9.054994e-07
9.074799e-07
9.0921879e-07
9.1147649e-07
9.1338989e-07
9.1538734e-07
9.1709655e-07
9.1890643e-07
9.2038209e-07
9.2189663e-07
9.2299508e-07
9.2388898e-07
9.2450962e-07
9.2475879e-07
9.2512447e-07
9.251156e-07
9.2527216e-07
9.2524636e-07
9.2556226e-07
9.2570725e-07
9.2617245e-07
9.2672218e-07
9.2738234e-07
9.2898812e-07
9.3036187e-07
9.3164346e-07
9.3449613e-07
9.3629842e-07
9.4005883e-07
9.4508388e-07
9.4644817e-07
9.4965998e-07
9.5732186e-07
9.5928161e-07
9.6450729e-07
3.962731e-06
3.0732223e-06
2.5220106e-06
2.1595283e-06
1.8936343e-06
1.6770931e-06
1.4958142e-06
1.3437923e-06
1.2180986e-06
1.116086e-06
1.035162e-06
9.7296476e-07
9.2700962e-07
8.9512541e-07
8.7432693e-07
8.6105558e-07
8.5297088e-07
8.4834728e-07
8.4597047e-07
8.4464364e-07
8.4370922e-07
8.4321687e-07
8.4324294e-07
8.4349095e-07
8.4386987e-07
8.4425279e-07
8.4470229e-07
8.452755e-07
8.4599703e-07
8.4691988e-07
8.4806603e-07
8.4952766e-07
8.5118699e-07
8.5343009e-07
8.5582299e-07
8.5938663e-07
8.6355575e-07
8.6944649e-07
8.7648583e-07
8.8373039e-07
8.8942928e-07
8.9299653e-07
8.9434639e-07
8.9486155e-07
8.9501476e-07
8.953465e-07
8.9555137e-07
8.9632113e-07
8.9703466e-07
8.9823343e-07
8.9927366e-07
9.0061247e-07
9.0210375e-07
9.0386534e-07
9.0546969e-07
9.0747688e-07
9.0921272e-07
9.1145405e-07
9.1334466e-07
9.1540913e-07
9.1708558e-07
9.1888968e-07
9.2039116e-07
9.2204946e-07
9.2321327e-07
9.2417462e-07
9.248002e-07
9.25185e-07
9.2542566e-07
9.2546151e-07
9.2568799e-07
9.2556104e-07
9.2580609e-07
9.2596322e-07
9.2632724e-07
9.265697e-07
9.2734384e-07
9.2874948e-07
9.2972767e-07
9.3105968e-07
9.3423789e-07
9.3609485e-07
9.3910653e-07
9.4234625e-07
9.4453873e-07
9.4701481e-07
9.5382361e-07
9.572497e-07
9.6120972e-07
3.96339e-06
3.0742386e-06
2.5230724e-06
2.1606268e-06
1.8948305e-06
1.6783228e-06
1.497005e-06
1.3449068e-06
1.2190848e-06
1.1169666e-06
1.0358912e-06
9.7353105e-07
9.2745221e-07
8.9539167e-07
8.7444523e-07
8.6111906e-07
8.5297084e-07
8.4830623e-07
8.4589765e-07
8.4454875e-07
8.4361176e-07
8.4309543e-07
8.4311969e-07
8.4334417e-07
8.4371291e-07
8.4408998e-07
8.4452628e-07
8.4510176e-07
8.4582351e-07
8.467374e-07
8.4789631e-07
8.4934621e-07
8.5098895e-07
8.531976e-07
8.5556761e-07
8.5906025e-07
8.6315379e-07
8.6895759e-07
8.7592069e-07
8.8327396e-07
8.892114e-07
8.9290437e-07
8.9427134e-07
8.9487726e-07
8.950228e-07
8.9532856e-07
8.9547242e-07
8.9621175e-07
8.9697709e-07
8.9812232e-07
8.9910004e-07
9.0041919e-07
9.0186537e-07
9.036197e-07
9.0522657e-07
9.0717932e-07
9.0888717e-07
9.1106879e-07
9.1299945e-07
9.1502364e-07
9.1671525e-07
9.186401e-07
9.2019285e-07
9.2189627e-07
9.2317117e-07
9.2422851e-07
9.2485426e-07
9.2531554e-07
9.2560728e-07
9.2563254e-07
9.2592687e-07
9.2579172e-07
9.2615375e-07
9.2626492e-07
9.2680535e-07
9.2688871e-07
9.277286e-07
9.2931173e-07
9.3015762e-07
9.3140043e-07
9.344358e-07
9.3567388e-07
9.3845782e-07
9.4161316e-07
9.4394541e-07
9.4727123e-07
9.5295123e-07
9.5638025e-07
9.5983941e-07
3.9640122e-06
3.0752123e-06
2.5240771e-06
2.1616685e-06
1.8959524e-06
1.6794791e-06
1.4981349e-06
1.3459342e-06
1.2199867e-06
1.1177396e-06
1.0365329e-06
9.7402166e-07
9.2769626e-07
8.9547671e-07
8.7441629e-07
8.609894e-07
8.5278205e-07
8.4807943e-07
8.4565754e-07
8.443099e-07
8.4337517e-07
8.4287498e-07
8.4289902e-07
8.4314459e-07
8.4354194e-07
8.4393042e-07
8.4436943e-07
8.4495177e-07
8.4566073e-07
8.4655361e-07
8.4769676e-07
8.4912672e-07
8.5075897e-07
8.5293984e-07
8.5529883e-07
8.5870901e-07
8.6275118e-07
8.6847996e-07
8.7539199e-07
8.8282803e-07
8.889288e-07
8.927775e-07
8.9423735e-07
8.9482315e-07
8.9498064e-07
8.9522619e-07
8.9537758e-07
8.9602917e-07
8.9681248e-07
8.9799513e-07
8.9891488e-07
9.0014316e-07
9.0157608e-07
9.032883e-07
9.0494839e-07
9.0685901e-07
9.0857756e-07
9.1078851e-07
9.1267742e-07
9.1471488e-07
9.1639138e-07
9.1829049e-07
9.1984399e-07
9.2164577e-07
9.2291363e-07
9.2400653e-07
9.2478599e-07
9.2522993e-07
9.2555421e-07
9.2568343e-07
9.2589062e-07
9.2576635e-07
9.2617993e-07
9.2609994e-07
9.2659485e-07
9.2694262e-07
9.2766702e-07
9.2921223e-07
9.2974448e-07
9.3095383e-07
9.3415335e-07
9.3475835e-07
9.3723878e-07
9.4106527e-07
9.426116e-07
9.4662439e-07
9.531581e-07
9.5575393e-07
9.5947744e-07
3.9646236e-06
3.0761459e-06
2.5250261e-06
2.1626395e-06
1.8969934e-06
1.6805599e-06
1.4991699e-06
1.3468872e-06
1.2207788e-06
1.1182985e-06
1.0368681e-06
9.7412267e-07
9.2760042e-07
8.9520833e-07
8.7401514e-07
8.6047666e-07
8.5220052e-07
8.4744047e-07
8.4497493e-07
8.4361182e-07
8.4265843e-07
8.4213933e-07
8.4215142e-07
8.4236475e-07
8.4273306e-07
8.4310549e-07
8.4352922e-07
8.4411167e-07
8.4481875e-07
8.457057e-07
8.4684628e-07
8.4825852e-07
8.4987468e-07
8.5200544e-07
8.5434269e-07
8.5764509e-07
8.616148e-07
8.6720979e-07
8.7403003e-07
8.8148367e-07
8.8773529e-07
8.9170607e-07
8.9321688e-07
8.9379512e-07
8.9394953e-07
8.9416173e-07
8.9431323e-07
8.9493944e-07
8.956521e-07
8.9676018e-07
8.97691e-07
8.9891302e-07
9.0028355e-07
9.0197319e-07
9.0363414e-07
9.0547182e-07
9.0721276e-07
9.0929967e-07
9.1124587e-07
9.1331464e-07
9.1506558e-07
9.1705169e-07
9.1875319e-07
9.2053652e-07
9.2196191e-07
9.2316881e-07
9.240571e-07
9.2467991e-07
9.2498615e-07
9.2524698e-07
9.254093e-07
9.2540729e-07
9.2585554e-07
9.2577263e-07
9.2616555e-07
9.2668233e-07
9.2735434e-07
9.2844663e-07
9.2901242e-07
9.3026562e-07
9.3326987e-07
9.3411279e-07
9.3610592e-07
9.4037784e-07
9.4155633e-07
9.4503198e-07
9.5203106e-07
9.5362007e-07
9.5803484e-07
3.9651887e-06
3.0770347e-06
2.5259333e-06
2.1635338e-06
1.8979158e-06
1.6814644e-06
1.500003e-06
1.347516e-06
1.2211474e-06
1.1183805e-06
1.0365921e-06
9.7348697e-07
9.2666709e-07
8.9397831e-07
8.7254662e-07
8.5886657e-07
8.5049479e-07
8.4568321e-07
8.4319598e-07
8.4182629e-07
8.4086859e-07
8.4034427e-07
8.4035632e-07
8.4058357e-07
8.4098169e-07
8.4136424e-07
8.4179494e-07
8.4237052e-07
8.4306369e-07
8.4393023e-07
8.4505278e-07
8.4644222e-07
8.4805083e-07
8.5012731e-07
8.5247971e-07
8.5567158e-07
8.5962825e-07
8.650892e-07
8.7188513e-07
8.7934366e-07
8.8578785e-07
8.8985164e-07
8.9147915e-07
8.9198828e-07
8.9215235e-07
8.9225919e-07