/*--------------------------------*- C++ -*----------------------------------*\
| =========                 |                                                 |
| \\      /  F ield         | OpenFOAM: The Open Source CFD Toolbox           |
|  \\    /   O peration     | Version:  2406                                  |
|   \\  /    A nd           | Website:  www.openfoam.com                      |
|    \\/     M anipulation  |                                                 |
\*---------------------------------------------------------------------------*/
FoamFile
{
    version     2.0;
    format      ascii;
    arch        "LSB;label=32;scalar=64";
    class       volScalarField;
    location    "10";
    object      k_0;
}
// * * * * * * * * * * * * * * * * * * * * * * * * * * * * * * * * * * * * * //

dimensions      [0 2 -2 0 0 0 0];

internalField   nonuniform List<scalar> 
30397
(
3.2284003e-06
3.2346949e-06
3.2284107e-06
3.2250087e-06
3.2178199e-06
3.2137383e-06
3.2097375e-06
3.2065464e-06
3.2046497e-06
3.2034156e-06
3.1986165e-06
3.1925018e-06
3.1871909e-06
3.1809328e-06
3.1754589e-06
3.1719687e-06
3.1672216e-06
3.1618506e-06
3.1595471e-06
3.1597533e-06
3.1586616e-06
3.156136e-06
3.1542199e-06
3.1523328e-06
3.1504339e-06
3.1485465e-06
3.1478689e-06
3.1487434e-06
3.1496762e-06
3.1509618e-06
3.1526488e-06
3.1542388e-06
3.1560108e-06
3.158111e-06
3.1603833e-06
3.1624061e-06
3.16415e-06
3.1657422e-06
3.1675919e-06
3.1701519e-06
3.1727049e-06
3.174926e-06
3.1770495e-06
3.1792846e-06
3.181616e-06
3.1837196e-06
3.1850542e-06
2.8846862e-06
2.8729612e-06
2.8549671e-06
2.8408672e-06
2.8256481e-06
2.8106387e-06
2.7937579e-06
2.7806348e-06
2.7753517e-06
2.7770506e-06
2.7768973e-06
2.7729387e-06
2.7649282e-06
2.7543658e-06
2.7433408e-06
2.7325711e-06
2.7208637e-06
2.7112377e-06
2.7070501e-06
2.7068791e-06
2.7077556e-06
2.7092094e-06
2.7105559e-06
2.708877e-06
2.7055474e-06
2.7017503e-06
2.6984819e-06
2.6961389e-06
2.6942508e-06
2.6932774e-06
2.6936515e-06
2.6952145e-06
2.6969191e-06
2.6980909e-06
2.6983913e-06
2.6979929e-06
2.6976905e-06
2.6976074e-06
2.697621e-06
2.6977587e-06
2.6977898e-06
2.697284e-06
2.6957729e-06
2.6933486e-06
2.6902953e-06
2.6869133e-06
2.6844157e-06
2.6152358e-06
2.5963728e-06
2.5767306e-06
2.5608507e-06
2.5457797e-06
2.5276107e-06
2.5066393e-06
2.4893967e-06
2.4799091e-06
2.477992e-06
2.4792487e-06
2.4746693e-06
2.4652484e-06
2.4554666e-06
2.4445519e-06
2.43363e-06
2.4220217e-06
2.4117023e-06
2.4069731e-06
2.4059096e-06
2.406124e-06
2.4057362e-06
2.4046615e-06
2.4003955e-06
2.3945952e-06
2.3877995e-06
2.3817844e-06
2.3765612e-06
2.3719713e-06
2.368972e-06
2.3674158e-06
2.3670127e-06
2.3665733e-06
2.3652267e-06
2.3627346e-06
2.359556e-06
2.3564209e-06
2.3533347e-06
2.3499154e-06
2.3458474e-06
2.3410835e-06
2.3362936e-06
2.332041e-06
2.3286683e-06
2.3259743e-06
2.3242075e-06
2.3233928e-06
2.3993144e-06
2.3736902e-06
2.3512114e-06
2.3332509e-06
2.3175758e-06
2.2974131e-06
2.2769219e-06
2.2598279e-06
2.2491058e-06
2.245887e-06
2.2449198e-06
2.2385956e-06
2.230342e-06
2.2203877e-06
2.2062695e-06
2.1944147e-06
2.1844243e-06
2.1738423e-06
2.1681613e-06
2.1652991e-06
2.161359e-06
2.1556425e-06
2.1501523e-06
2.1445574e-06
2.1387214e-06
2.1331177e-06
2.1285317e-06
2.1231163e-06
2.1174132e-06
2.1129519e-06
2.1090188e-06
2.1050006e-06
2.100594e-06
2.0952197e-06
2.0888488e-06
2.0821557e-06
2.0757697e-06
2.0694907e-06
2.063389e-06
2.0571879e-06
2.0512866e-06
2.0461547e-06
2.0426599e-06
2.0413387e-06
2.0415688e-06
2.0425751e-06
2.0430428e-06
2.183417e-06
2.177772e-06
2.1554144e-06
2.1344435e-06
2.117347e-06
2.0960147e-06
2.0763765e-06
2.0594499e-06
2.049368e-06
2.0436141e-06
2.0383294e-06
2.032589e-06
2.0253591e-06
2.0113313e-06
1.9947097e-06
1.9834826e-06
1.9733394e-06
1.9622792e-06
1.9555525e-06
1.9494435e-06
1.9421351e-06
1.9343735e-06
1.9274758e-06
1.9231011e-06
1.9191187e-06
1.9152434e-06
1.9100077e-06
1.903678e-06
1.8974375e-06
1.8911487e-06
1.8848564e-06
1.8792202e-06
1.8733054e-06
1.8664353e-06
1.8589735e-06
1.8515717e-06
1.8446531e-06
1.8381882e-06
1.8325646e-06
1.827811e-06
1.823948e-06
1.8205699e-06
1.8173735e-06
1.8152091e-06
1.8139358e-06
1.8129827e-06
1.8118776e-06
2.0245017e-06
1.9989905e-06
1.9826305e-06
1.960289e-06
1.9425324e-06
1.9219129e-06
1.9033016e-06
1.8859296e-06
1.8747245e-06
1.8653788e-06
1.8572633e-06
1.852603e-06
1.8437883e-06
1.8279175e-06
1.8132076e-06
1.8024196e-06
1.7921545e-06
1.783504e-06
1.7767148e-06
1.7678396e-06
1.7600042e-06
1.7538326e-06
1.7479007e-06
1.745329e-06
1.7427469e-06
1.7387353e-06
1.7324416e-06
1.7257056e-06
1.7190149e-06
1.7120334e-06
1.7057106e-06
1.6995246e-06
1.6923556e-06
1.6843682e-06
1.6761236e-06
1.668566e-06
1.6621759e-06
1.6573754e-06
1.6539321e-06
1.6508088e-06
1.647764e-06
1.6442909e-06
1.6397991e-06
1.6356301e-06
1.6319352e-06
1.6285811e-06
1.6255452e-06
1.9264521e-06
1.8451569e-06
1.8348392e-06
1.8128863e-06
1.7951472e-06
1.7757546e-06
1.7587861e-06
1.7421586e-06
1.727892e-06
1.7160096e-06
1.7079136e-06
1.7015571e-06
1.6925932e-06
1.679772e-06
1.6661723e-06
1.6549826e-06
1.6468488e-06
1.6409106e-06
1.6340688e-06
1.6266965e-06
1.6219681e-06
1.6171764e-06
1.6132547e-06
1.6109586e-06
1.6067778e-06
1.6004193e-06
1.5917391e-06
1.5834523e-06
1.5753062e-06
1.5675591e-06
1.5601549e-06
1.5516542e-06
1.5423628e-06
1.5334218e-06
1.5261595e-06
1.5210989e-06
1.5173362e-06
1.5137088e-06
1.5099578e-06
1.5056915e-06
1.5007982e-06
1.4958423e-06
1.4908436e-06
1.4864049e-06
1.4826193e-06
1.4794619e-06
1.47657e-06
1.8484766e-06
1.7244045e-06
1.7128318e-06
1.6914344e-06
1.6742995e-06
1.6568411e-06
1.641399e-06
1.6262133e-06
1.6118164e-06
1.5995928e-06
1.5906252e-06
1.5821748e-06
1.5741789e-06
1.5631157e-06
1.5491527e-06
1.5396904e-06
1.5346671e-06
1.5290156e-06
1.5221595e-06
1.5182296e-06
1.5170523e-06
1.5126913e-06
1.5075875e-06
1.5029714e-06
1.4937109e-06
1.4831202e-06
1.472109e-06
1.462059e-06
1.4521313e-06
1.4429851e-06
1.4337116e-06
1.4236285e-06
1.4141843e-06
1.4067031e-06
1.4014304e-06
1.3972059e-06
1.392142e-06
1.3861348e-06
1.3792744e-06
1.3722628e-06
1.3659332e-06
1.3605577e-06
1.3562076e-06
1.3527205e-06
1.3497257e-06
1.3474881e-06
1.3450769e-06
1.783776e-06
1.6282426e-06
1.6128276e-06
1.5931388e-06
1.5759695e-06
1.5596549e-06
1.5461108e-06
1.5330882e-06
1.5199083e-06
1.5077493e-06
1.4966551e-06
1.4868455e-06
1.4787472e-06
1.4663442e-06
1.4547721e-06
1.4475403e-06
1.4428854e-06
1.4375295e-06
1.431924e-06
1.4298698e-06
1.4283196e-06
1.4225248e-06
1.4144776e-06
1.4046484e-06
1.391897e-06
1.3799269e-06
1.3670591e-06
1.3538843e-06
1.3416032e-06
1.3316262e-06
1.3217852e-06
1.3120188e-06
1.3043992e-06
1.2987624e-06
1.2934328e-06
1.2871769e-06
1.2797134e-06
1.2719685e-06
1.2641408e-06
1.256844e-06
1.2503069e-06
1.2448631e-06
1.240616e-06
1.2370594e-06
1.2340284e-06
1.231387e-06
1.2290661e-06
1.7338529e-06
1.543855e-06
1.5282175e-06
1.5099372e-06
1.4943156e-06
1.4784018e-06
1.4656828e-06
1.4542407e-06
1.4435535e-06
1.4319841e-06
1.4186819e-06
1.4069897e-06
1.3956836e-06
1.3828581e-06
1.3741018e-06
1.3684974e-06
1.3627842e-06
1.3575744e-06
1.3531677e-06
1.3506742e-06
1.3475989e-06
1.3394241e-06
1.3279096e-06
1.3151357e-06
1.3017145e-06
1.2885591e-06
1.2743889e-06
1.2603884e-06
1.2478059e-06
1.2380009e-06
1.2298165e-06
1.2228138e-06
1.2170045e-06
1.2110821e-06
1.2045099e-06
1.1976729e-06
1.190603e-06
1.183701e-06
1.1773073e-06
1.1710602e-06
1.1651802e-06
1.160059e-06
1.1561421e-06
1.1528455e-06
1.1497473e-06
1.1468844e-06
1.1443242e-06
1.6923168e-06
1.4681085e-06
1.4547447e-06
1.4369053e-06
1.4220827e-06
1.4068581e-06
1.3950525e-06
1.3852384e-06
1.3770137e-06
1.3654276e-06
1.3517248e-06
1.3375214e-06
1.3229468e-06
1.3118578e-06
1.304672e-06
1.2984412e-06
1.2927812e-06
1.2880228e-06
1.283489e-06
1.2800141e-06
1.2750011e-06
1.2653677e-06
1.2533731e-06
1.2404145e-06
1.2272786e-06
1.2139196e-06
1.1995562e-06
1.1863495e-06
1.1756604e-06
1.1688445e-06
1.1644027e-06
1.1594891e-06
1.1533338e-06
1.1467917e-06
1.140593e-06
1.1352347e-06
1.1307563e-06
1.1267263e-06
1.1223551e-06
1.117594e-06
1.1129415e-06
1.1090918e-06
1.1060373e-06
1.1035401e-06
1.1011978e-06
1.0989962e-06
1.096702e-06
1.6648168e-06
1.4022699e-06
1.3864391e-06
1.3709222e-06
1.3570956e-06
1.3426533e-06
1.3319555e-06
1.3240572e-06
1.317253e-06
1.3066471e-06
1.293346e-06
1.2775913e-06
1.2626293e-06
1.2537606e-06
1.2454745e-06
1.2371087e-06
1.2323159e-06
1.2290897e-06
1.2233931e-06
1.2193211e-06
1.2141765e-06
1.2054137e-06
1.1946302e-06
1.1832897e-06
1.1709458e-06
1.1578555e-06
1.1447605e-06
1.1346247e-06
1.1283714e-06
1.1252559e-06
1.1217245e-06
1.1163284e-06
1.1103694e-06
1.1054509e-06
1.1022498e-06
1.1006156e-06
1.0993604e-06
1.0973582e-06
1.0946617e-06
1.0918707e-06
1.089519e-06
1.0876322e-06
1.0859459e-06
1.0843932e-06
1.0829578e-06
1.0814933e-06
1.0802573e-06
1.6423857e-06
1.3453932e-06
1.3233388e-06
1.3104986e-06
1.2994114e-06
1.2859143e-06
1.275734e-06
1.268709e-06
1.262483e-06
1.2533157e-06
1.2419694e-06
1.226983e-06
1.2142504e-06
1.2053603e-06
1.1946115e-06
1.1858468e-06
1.1824354e-06
1.1794302e-06
1.1739016e-06
1.1710403e-06
1.1674171e-06
1.1605139e-06
1.1512975e-06
1.1410659e-06
1.1294e-06
1.1178573e-06
1.107672e-06
1.1016507e-06
1.0990366e-06
1.0963098e-06
1.0919135e-06
1.0872859e-06
1.0840288e-06
1.0829169e-06
1.0834181e-06
1.0843288e-06
1.0843159e-06
1.0833973e-06
1.0823527e-06
1.0817657e-06
1.0817944e-06
1.0820871e-06
1.0820862e-06
1.0815941e-06
1.0807819e-06
1.0797108e-06
1.0791223e-06
1.616671e-06
1.2918789e-06
1.2685118e-06
1.2578626e-06
1.248823e-06
1.2370697e-06
1.227613e-06
1.2200148e-06
1.214006e-06
1.2068181e-06
1.1974797e-06
1.1850981e-06
1.1747035e-06
1.1640473e-06
1.1521958e-06
1.1453234e-06
1.1429328e-06
1.1399532e-06
1.1374151e-06
1.1379208e-06
1.1346719e-06
1.1273848e-06
1.1188499e-06
1.1088152e-06
1.0979669e-06
1.0893873e-06
1.0837508e-06
1.0810152e-06
1.0784744e-06
1.0749686e-06
1.0717127e-06
1.0701178e-06
1.0704009e-06
1.0716978e-06
1.0730698e-06
1.0734214e-06
1.0724258e-06
1.0708695e-06
1.0700151e-06
1.0705633e-06
1.0725273e-06
1.074988e-06
1.0768045e-06
1.0776358e-06
1.0774882e-06
1.0767171e-06
1.0763608e-06
1.5448308e-06
1.2417356e-06
1.2231613e-06
1.2139135e-06
1.2058238e-06
1.1956353e-06
1.1871211e-06
1.1792212e-06
1.1735811e-06
1.1673809e-06
1.1593029e-06
1.1501747e-06
1.1411754e-06
1.1294024e-06
1.1185935e-06
1.1138944e-06
1.1119862e-06
1.1106007e-06
1.1129894e-06
1.1155215e-06
1.1106835e-06
1.1025683e-06
1.0939033e-06
1.0837131e-06
1.0748721e-06
1.0699336e-06
1.0678232e-06
1.0651176e-06
1.0614032e-06
1.0585164e-06
1.05729e-06
1.0576507e-06
1.0584181e-06
1.0585202e-06
1.0579231e-06
1.0564767e-06
1.0542356e-06
1.0519522e-06
1.0507895e-06
1.0511887e-06
1.0533399e-06
1.0570357e-06
1.0615229e-06
1.065e-06
1.0663353e-06
1.066309e-06
1.0662901e-06
1.447255e-06
1.1997261e-06
1.1868518e-06
1.178308e-06
1.1706978e-06
1.1616837e-06
1.1534519e-06
1.1459275e-06
1.140423e-06
1.1346699e-06
1.127329e-06
1.1202355e-06
1.112073e-06
1.1013635e-06
1.0927186e-06
1.0895032e-06
1.0881847e-06
1.0893172e-06
1.0946597e-06
1.0959241e-06
1.0902259e-06
1.082468e-06
1.0734589e-06
1.0635723e-06
1.057353e-06
1.0549215e-06
1.0527164e-06
1.0479272e-06
1.0432194e-06
1.0409364e-06
1.0403203e-06
1.0399942e-06
1.0384848e-06
1.0359899e-06
1.0333882e-06
1.0304431e-06
1.0273277e-06
1.024141e-06
1.0220297e-06
1.0217196e-06
1.0229979e-06
1.025225e-06
1.0279062e-06
1.0306451e-06
1.0324263e-06
1.0343292e-06
1.0363887e-06
1.3891322e-06
1.1688468e-06
1.158172e-06
1.1495768e-06
1.1425413e-06
1.1343569e-06
1.1261506e-06
1.1187494e-06
1.1122578e-06
1.1058909e-06
1.1002419e-06
1.0943201e-06
1.0870885e-06
1.0786268e-06
1.0721171e-06
1.0695458e-06
1.0689766e-06
1.0715869e-06
1.0757899e-06
1.075266e-06
1.0706937e-06
1.0638225e-06
1.055016e-06
1.0459184e-06
1.0402475e-06
1.0360014e-06
1.0303961e-06
1.0240755e-06
1.0195955e-06
1.0174708e-06
1.0159008e-06
1.0133992e-06
1.0098116e-06
1.0059357e-06
1.0020701e-06
9.9767153e-07
9.9324514e-07
9.8917754e-07
9.8624348e-07
9.8450265e-07
9.8355612e-07
9.8313696e-07
9.8235768e-07
9.8100768e-07
9.7970955e-07
9.7943542e-07
9.8029506e-07
1.383353e-06
1.149035e-06
1.1350916e-06
1.1255163e-06
1.1186357e-06
1.1113217e-06
1.1029202e-06
1.0950755e-06
1.0871752e-06
1.0800968e-06
1.0763137e-06
1.0717785e-06
1.066332e-06
1.0601329e-06
1.0548272e-06
1.0519592e-06
1.0512815e-06
1.0532328e-06
1.0547341e-06
1.0536517e-06
1.0501338e-06
1.0433366e-06
1.0345987e-06
1.0248064e-06
1.0169298e-06
1.0089513e-06
1.000513e-06
9.9462458e-07
9.9100048e-07
9.8855762e-07
9.8543998e-07
9.8016399e-07
9.7449776e-07
9.6938087e-07
9.6445564e-07
9.5904819e-07
9.5332543e-07
9.476872e-07
9.4317623e-07
9.3954625e-07
9.363898e-07
9.3400797e-07
9.3171442e-07
9.2938463e-07
9.2759402e-07
9.272747e-07
9.279702e-07
1.4019426e-06
1.1337086e-06
1.1138867e-06
1.1040778e-06
1.0971821e-06
1.0902511e-06
1.0816001e-06
1.0726188e-06
1.0639247e-06
1.0570858e-06
1.0548231e-06
1.0520019e-06
1.04821e-06
1.0430584e-06
1.0375564e-06
1.0336151e-06
1.0320404e-06
1.0321701e-06
1.032596e-06
1.0318504e-06
1.0270435e-06
1.0181587e-06
1.0078587e-06
9.9649124e-07
9.8649737e-07
9.762103e-07
9.677853e-07
9.6369055e-07
9.60667e-07
9.5671429e-07
9.5038932e-07
9.4275817e-07
9.3535017e-07
9.2909242e-07
9.2328398e-07
9.1685995e-07
9.101612e-07
9.0374613e-07
8.9832421e-07
8.9409192e-07
8.9096667e-07
8.8881604e-07
8.8715055e-07
8.8526276e-07
8.8372833e-07
8.8355905e-07
8.8405385e-07
1.4438518e-06
1.1175407e-06
1.092312e-06
1.0836212e-06
1.0769077e-06
1.0699578e-06
1.0606318e-06
1.0503192e-06
1.0419554e-06
1.0362035e-06
1.0345064e-06
1.033056e-06
1.030087e-06
1.0242067e-06
1.0174852e-06
1.0128163e-06
1.0101353e-06
1.0088112e-06
1.0096558e-06
1.0083285e-06
9.9986867e-07
9.8771046e-07
9.7571812e-07
9.6312931e-07
9.5218363e-07
9.4238145e-07
9.3614006e-07
9.3325353e-07
9.2873666e-07
9.2136505e-07
9.1233402e-07
9.0393349e-07
8.9670272e-07
8.9042051e-07
8.8408441e-07
8.7699062e-07
8.7022831e-07
8.6436258e-07
8.6002794e-07
8.572064e-07
8.5560998e-07
8.5450792e-07
8.5330637e-07
8.5148813e-07
8.4962808e-07
8.4832329e-07
8.4721172e-07
1.4586496e-06
1.0984995e-06
1.0703405e-06
1.0625451e-06
1.056619e-06
1.049634e-06
1.0394544e-06
1.0281969e-06
1.0208347e-06
1.0162731e-06
1.0145061e-06
1.0133622e-06
1.0097933e-06
1.0021401e-06
9.9403686e-07
9.8938767e-07
9.8638073e-07
9.8481435e-07
9.8579648e-07
9.8211735e-07
9.6935362e-07
9.5502551e-07
9.4250733e-07
9.2973534e-07
9.1917096e-07
9.1122146e-07
9.0648154e-07
9.0290782e-07
8.9533229e-07
8.8522105e-07
8.7579841e-07
8.6846326e-07
8.6241914e-07
8.5681468e-07
8.511583e-07
8.4502638e-07
8.3952328e-07
8.3506094e-07
8.3203385e-07
8.3038635e-07
8.2971933e-07
8.2895314e-07
8.2707768e-07
8.240902e-07
8.2105317e-07
8.1849918e-07
8.1634886e-07
1.4596655e-06
1.0759585e-06
1.0480685e-06
1.0405885e-06
1.0357319e-06
1.0290277e-06
1.0179803e-06
1.0062696e-06
1.0003635e-06
9.9669055e-07
9.9412423e-07
9.9217174e-07
9.8689089e-07
9.7734726e-07
9.6854017e-07
9.6489483e-07
9.6254985e-07
9.6158999e-07
9.6094419e-07
9.5371924e-07
9.380333e-07
9.2398399e-07
9.1250485e-07
9.0006144e-07
8.8988578e-07
8.830178e-07
8.7883078e-07
8.7317131e-07
8.6333764e-07
8.5277112e-07
8.4454713e-07
8.3910799e-07
8.351143e-07
8.3127133e-07
8.2695921e-07
8.2150097e-07
8.1676959e-07
8.1373285e-07
8.1168068e-07
8.106276e-07
8.0978528e-07
8.0787991e-07
8.0441768e-07
8.0065793e-07
7.9755334e-07
7.9514937e-07
7.9308572e-07
1.4577997e-06
1.0513067e-06
1.0251e-06
1.0183068e-06
1.0141866e-06
1.0081007e-06
9.9662911e-07
9.8517931e-07
9.8010315e-07
9.768962e-07
9.7332619e-07
9.6964257e-07
9.6210152e-07
9.5159962e-07
9.4369738e-07
9.4092519e-07
9.3978677e-07
9.3854427e-07
9.3524657e-07
9.2503549e-07
9.0867654e-07
8.9696815e-07
8.8677074e-07
8.745344e-07
8.6433611e-07
8.5787602e-07
8.5354246e-07
8.4565056e-07
8.3513721e-07
8.2592842e-07
8.2012533e-07
8.168183e-07
8.1440918e-07
8.1151627e-07
8.0784423e-07
8.0316803e-07
7.9947422e-07
7.9724315e-07
7.9545795e-07
7.9392924e-07
7.9204204e-07
7.8917764e-07
7.8554044e-07
7.8224406e-07
7.7976879e-07
7.7790803e-07
7.764948e-07
1.4521789e-06
1.027402e-06
1.0009431e-06
9.9571558e-07
9.9236779e-07
9.8694425e-07
9.7581468e-07
9.6526981e-07
9.5978644e-07
9.5663852e-07
9.5248968e-07
9.4659098e-07
9.3732551e-07
9.2739718e-07
9.213314e-07
9.1895992e-07
9.1755571e-07
9.1521376e-07
9.0968519e-07
8.976846e-07
8.8304163e-07
8.7376433e-07
8.6377303e-07
8.5138421e-07
8.4224941e-07
8.3668306e-07
8.3133874e-07
8.2184906e-07
8.1221535e-07
8.0551971e-07
8.0167398e-07
7.9962384e-07
7.9805343e-07
7.9574773e-07
7.9255095e-07
7.8855411e-07
7.853495e-07
7.8303111e-07
7.81158e-07
7.793158e-07
7.7705828e-07
7.7420538e-07
7.7113775e-07
7.6862279e-07
7.6700621e-07
7.6595487e-07
7.6583377e-07
1.4492466e-06
1.0071782e-06
9.762516e-07
9.7315703e-07
9.7095406e-07
9.6636482e-07
9.5615195e-07
9.4635401e-07
9.3962843e-07
9.3620767e-07
9.318106e-07
9.2418119e-07
9.1421751e-07
9.0601434e-07
9.0186951e-07
8.9875163e-07
8.9607351e-07
8.9232315e-07
8.8506436e-07
8.7308632e-07
8.6110756e-07
8.5263259e-07
8.4169084e-07
8.3092723e-07
8.2373316e-07
8.1859222e-07
8.1162386e-07
8.0192188e-07
7.9435094e-07
7.8974898e-07
7.871841e-07
7.8588552e-07
7.8504672e-07
7.8310399e-07
7.802424e-07
7.7675042e-07
7.7397893e-07
7.7176303e-07
7.6972586e-07
7.6794148e-07
7.6605652e-07
7.6398016e-07
7.6185604e-07
7.6022942e-07
7.5968449e-07
7.5966767e-07
7.6081551e-07
1.4497099e-06
9.9112061e-07
9.5219179e-07
9.5146943e-07
9.5043714e-07
9.4681823e-07
9.3766933e-07
9.2857171e-07
9.2015403e-07
9.1628155e-07
9.1158369e-07
9.0274469e-07
8.9345885e-07
8.8750182e-07
8.8427696e-07
8.7977914e-07
8.7556687e-07
8.7059475e-07
8.6233882e-07
8.513602e-07
8.4136994e-07
8.3224538e-07
8.2203848e-07
8.1431212e-07
8.0879206e-07
8.0273015e-07
7.9473054e-07
7.8608065e-07
7.8049186e-07
7.7733797e-07
7.7590449e-07
7.7553197e-07
7.752801e-07
7.7376937e-07
7.7142486e-07
7.6844231e-07
7.6582685e-07
7.6382239e-07
7.6202498e-07
7.6075958e-07
7.5964017e-07
7.5821177e-07
7.5677352e-07
7.5627191e-07
7.5687477e-07
7.5767745e-07
7.5938519e-07
1.4524686e-06
9.8022926e-07
9.3031052e-07
9.3131222e-07
9.310882e-07
9.282095e-07
9.2025288e-07
9.1179097e-07
9.018944e-07
8.9705392e-07
8.9169105e-07
8.8279936e-07
8.7513631e-07
8.7115769e-07
8.676548e-07
8.6182348e-07
8.5645583e-07
8.5052317e-07
8.4192024e-07
8.3210019e-07
8.2298317e-07
8.14053e-07
8.0659779e-07
8.0165388e-07
7.9624655e-07
7.8906926e-07
7.8111494e-07
7.7381314e-07
7.6993554e-07
7.6806454e-07
7.6778934e-07
7.6872678e-07
7.6952375e-07
7.6859359e-07
7.664219e-07
7.635319e-07
7.6095234e-07
7.5903871e-07
7.5742725e-07
7.5646718e-07
7.5578317e-07
7.5478755e-07
7.5399059e-07
7.5437443e-07
7.5591538e-07
7.574993e-07
7.5970997e-07
1.4578977e-06
9.7470388e-07
9.1119798e-07
9.1281838e-07
9.1298557e-07
9.1047009e-07
9.0360456e-07
8.9568278e-07
8.8491142e-07
8.7883949e-07
8.7259925e-07
8.6447687e-07
8.5877416e-07
8.5588981e-07
8.5149418e-07
8.4493261e-07
8.3917019e-07
8.3245022e-07
8.2366867e-07
8.1497195e-07
8.0648082e-07
7.9925785e-07
7.9530797e-07
7.9174841e-07
7.8510147e-07
7.7727738e-07
7.7048193e-07
7.6511524e-07
7.6315026e-07
7.6264419e-07
7.6353916e-07
7.655043e-07
7.6675748e-07
7.6574235e-07
7.6289839e-07
7.5987679e-07
7.573889e-07
7.5564425e-07
7.543696e-07
7.5365038e-07
7.533504e-07
7.5288514e-07
7.5271523e-07
7.5405988e-07
7.5649711e-07
7.5869693e-07
7.6109504e-07
1.463759e-06
9.7332751e-07
8.9553565e-07
8.9608052e-07
8.9608888e-07
8.9364505e-07
8.8766493e-07
8.799753e-07
8.6885659e-07
8.6189522e-07
8.5503297e-07
8.4790637e-07
8.4384859e-07
8.4092319e-07
8.3558196e-07
8.29219e-07
8.2369245e-07
8.1626796e-07
8.0762879e-07
7.9990743e-07
7.9276198e-07
7.8863104e-07
7.8719604e-07
7.831305e-07
7.7514102e-07
7.6790625e-07
7.6297241e-07
7.5982896e-07
7.5980502e-07
7.6062851e-07
7.6263082e-07
7.6471412e-07
7.6506045e-07
7.6291034e-07
7.5965417e-07
7.5670323e-07
7.5467943e-07
7.5345242e-07
7.5287359e-07
7.5282743e-07
7.5314125e-07
7.5331576e-07
7.5388164e-07
7.5581239e-07
7.5833081e-07
7.605516e-07
7.6280861e-07
1.4689134e-06
9.73262e-07
8.8429809e-07
8.8122051e-07
8.8034873e-07
8.7754515e-07
8.7199339e-07
8.6450939e-07
8.5360577e-07
8.4627485e-07
8.3939443e-07
8.3309231e-07
8.2973859e-07
8.2609286e-07
8.2030158e-07
8.1495365e-07
8.1000534e-07
8.0230589e-07
7.9407428e-07
7.8751938e-07
7.8279998e-07
7.8165068e-07
7.808416e-07
7.7518563e-07
7.6671086e-07
7.6125014e-07
7.584998e-07
7.5756622e-07
7.5904989e-07
7.6101743e-07
7.6328501e-07
7.6426003e-07
7.6297159e-07
7.5996146e-07
7.5681821e-07
7.5438486e-07
7.5319975e-07
7.5310502e-07
7.5359959e-07
7.5440865e-07
7.5526237e-07
7.5573117e-07
7.5654952e-07
7.5844587e-07
7.6068685e-07
7.6266852e-07
7.6470745e-07
1.4764124e-06
9.7383236e-07
8.7871059e-07
8.683496e-07
8.6587879e-07
8.6242202e-07
8.5694223e-07
8.4948338e-07
8.3930549e-07
8.3223065e-07
8.2557882e-07
8.1975447e-07
8.164051e-07
8.1159134e-07
8.0615989e-07
8.0254658e-07
7.9815669e-07
7.9077658e-07
7.8334563e-07
7.7835648e-07
7.7645248e-07
7.7676616e-07
7.7498308e-07
7.6803891e-07
7.602232e-07
7.5660049e-07
7.5604894e-07
7.5718156e-07
7.5991298e-07
7.6208154e-07
7.6338206e-07
7.6266017e-07
7.6042905e-07
7.5745181e-07
7.5482315e-07
7.5329468e-07
7.5331385e-07
7.5440833e-07
7.5579172e-07
7.5748461e-07
7.5885187e-07
7.5922692e-07
7.5975816e-07
7.6130526e-07
7.6346655e-07
7.6552703e-07
7.6707658e-07
1.4898418e-06
9.7626648e-07
8.7709317e-07
8.5734508e-07
8.5251947e-07
8.4825106e-07
8.4258453e-07
8.351653e-07
8.2605661e-07
8.1968399e-07
8.1344425e-07
8.0786055e-07
8.0410846e-07
7.9817275e-07
7.9379698e-07
7.9188078e-07
7.879788e-07
7.81394e-07
7.7543701e-07
7.7233854e-07
7.7243807e-07
7.7238467e-07
7.6912935e-07
7.6192968e-07
7.5537636e-07
7.5369134e-07
7.5551855e-07
7.5854184e-07
7.6131268e-07
7.6272714e-07
7.6259103e-07
7.6087131e-07
7.5834751e-07
7.5583841e-07
7.5411292e-07
7.5362189e-07
7.5466196e-07
7.5649538e-07
7.5873588e-07
7.6105109e-07
7.6268923e-07
7.631823e-07
7.6376644e-07
7.6545208e-07
7.677086e-07
7.6936316e-07
7.7033187e-07
1.5163456e-06
9.8246135e-07
8.7711061e-07
8.4799288e-07
8.4011981e-07
8.3494187e-07
8.2899494e-07
8.2178804e-07
8.1382372e-07
8.0845882e-07
8.0287114e-07
7.9757499e-07
7.9316895e-07
7.8661325e-07
7.8348684e-07
7.8275428e-07
7.7929716e-07
7.7392685e-07
7.699152e-07
7.687112e-07
7.6958125e-07
7.6797473e-07
7.6393648e-07
7.5691726e-07
7.523915e-07
7.5289686e-07
7.568156e-07
7.6039767e-07
7.6214579e-07
7.6203142e-07
7.6106596e-07
7.5933138e-07
7.5736076e-07
7.5590541e-07
7.5509288e-07
7.5532268e-07
7.569246e-07
7.593425e-07
7.6172905e-07
7.6434088e-07
7.665233e-07
7.6670267e-07
7.6705822e-07
7.6881487e-07
7.7088897e-07
7.7213463e-07
7.7301498e-07
1.5471865e-06
9.9976692e-07
8.7819435e-07
8.4000434e-07
8.2864679e-07
8.2274738e-07
8.1622426e-07
8.0948429e-07
8.0270792e-07
7.9855949e-07
7.93679e-07
7.8862164e-07
7.8356215e-07
7.773893e-07
7.7540335e-07
7.7528793e-07
7.7224945e-07
7.682717e-07
7.6603003e-07
7.6649263e-07
7.6716073e-07
7.6417755e-07
7.5961105e-07
7.5340254e-07
7.5116304e-07
7.5367608e-07
7.5863636e-07
7.6155859e-07
7.615757e-07
7.6074696e-07
7.5970291e-07
7.585101e-07
7.5766716e-07
7.5703979e-07
7.569005e-07
7.5774576e-07
7.5981099e-07
7.6225269e-07
7.6496779e-07
7.6822612e-07
7.6897685e-07
7.6848553e-07
7.6862409e-07
7.7041403e-07
7.7244906e-07
7.7378259e-07
7.7508817e-07
1.5777246e-06
1.0219436e-06
8.8216014e-07
8.3331458e-07
8.1834719e-07
8.1155808e-07
8.0480267e-07
7.9854846e-07
7.9312748e-07
7.8981291e-07
7.8535481e-07
7.8075759e-07
7.7553655e-07
7.7022279e-07
7.6932993e-07
7.6952913e-07
7.668586e-07
7.6426976e-07
7.6328309e-07
7.6473198e-07
7.6461315e-07
7.6082237e-07
7.5617339e-07
7.5137508e-07
7.5116081e-07
7.5497544e-07
7.598388e-07
7.6125543e-07
7.6062118e-07
7.5962531e-07
7.5898726e-07
7.5882273e-07
7.5878275e-07
7.5906115e-07
7.5968004e-07
7.6107375e-07
7.6335678e-07
7.6630177e-07
7.6965111e-07
7.7131548e-07
7.7061988e-07
7.691296e-07
7.6921651e-07
7.7123713e-07
7.7378294e-07
7.7605684e-07
7.7923905e-07
1.6071449e-06
1.0404028e-06
8.8631636e-07
8.2694172e-07
8.0863294e-07
8.0140276e-07
7.947301e-07
7.8925802e-07
7.8521825e-07
7.8215772e-07
7.7802164e-07
7.7381095e-07
7.6903729e-07
7.6488187e-07
7.6483001e-07
7.650839e-07
7.6277762e-07
7.6131176e-07
7.6126722e-07
7.6276674e-07
7.6176451e-07
7.5762371e-07
7.5348771e-07
7.5065698e-07
7.518192e-07
7.5606153e-07
7.5985281e-07
7.6051514e-07
7.6002945e-07
7.596181e-07
7.5960764e-07
7.600031e-07
7.6048065e-07
7.6119477e-07
7.6226819e-07
7.6391464e-07
7.6644695e-07
7.6987128e-07
7.7288041e-07
7.7331341e-07
7.7171128e-07
7.695913e-07
7.6990817e-07
7.7254096e-07
7.761253e-07
7.7948016e-07
7.837201e-07
1.6333953e-06
1.0545122e-06
8.8963e-07
8.2108427e-07
7.9994293e-07
7.9238249e-07
7.8604722e-07
7.8166488e-07
7.787272e-07
7.7555607e-07
7.7150329e-07
7.6767457e-07
7.6381068e-07
7.6089767e-07
7.6165437e-07
7.6176447e-07
7.5978269e-07
7.5913544e-07
7.5971033e-07
7.6051342e-07
7.5867203e-07
7.5469599e-07
7.51737e-07
7.5064393e-07
7.5253325e-07
7.5655079e-07
7.59609e-07
7.6043361e-07
7.6057309e-07
7.6043554e-07
7.6090108e-07
7.6157262e-07
7.6192516e-07
7.6276987e-07
7.6422133e-07
7.6653932e-07
7.6975991e-07
7.7272539e-07
7.7478654e-07
7.7460165e-07
7.7273501e-07
7.7089104e-07
7.7203945e-07
7.7588782e-07
7.8100651e-07
7.8533889e-07
7.9002892e-07
1.6533478e-06
1.0645413e-06
8.9144846e-07
8.1485326e-07
7.9171941e-07
7.8446013e-07
7.7869283e-07
7.7543752e-07
7.733256e-07
7.6999189e-07
7.6579309e-07
7.6228774e-07
7.5925387e-07
7.5795895e-07
7.5931902e-07
7.5895189e-07
7.5743772e-07
7.5762451e-07
7.5835169e-07
7.5812602e-07
7.5570519e-07
7.5210213e-07
7.5067028e-07
7.5093255e-07
7.5319006e-07
7.5674457e-07
7.59792e-07
7.6147028e-07
7.6185352e-07
7.6166011e-07
7.6217188e-07
7.6279743e-07
7.6313163e-07
7.640808e-07
7.660945e-07
7.6921334e-07
7.7223841e-07
7.7431009e-07
7.7587025e-07
7.7559905e-07
7.7412281e-07
7.7387856e-07
7.7709869e-07
7.8296631e-07
7.8771517e-07
7.9067589e-07
7.9483816e-07
1.6663531e-06
1.0718123e-06
8.9219526e-07
8.0816357e-07
7.8408827e-07
7.7737873e-07
7.722691e-07
7.701016e-07
7.6866669e-07
7.6523435e-07
7.6079265e-07
7.5745206e-07
7.554677e-07
7.5579572e-07
7.5752345e-07
7.5680669e-07
7.5573158e-07
7.5657041e-07
7.5703485e-07
7.5591679e-07
7.5305448e-07
7.5025414e-07
7.5005922e-07
7.5143311e-07
7.5362965e-07
7.5695136e-07
7.6066763e-07
7.6280314e-07
7.6264499e-07
7.6194007e-07
7.6266349e-07
7.6368057e-07
7.6454927e-07
7.6611199e-07
7.6875365e-07
7.7189992e-07
7.7433374e-07
7.7564501e-07
7.7707354e-07
7.7778115e-07
7.7794207e-07
7.7989773e-07
7.8451659e-07
7.901533e-07
7.9444499e-07
7.9764673e-07
8.0143799e-07
1.6726666e-06
1.0765092e-06
8.9210299e-07
8.0165306e-07
7.770504e-07
7.7095096e-07
7.6699293e-07
7.6536222e-07
7.6458222e-07
7.6122165e-07
7.5639678e-07
7.532898e-07
7.5221356e-07
7.5406948e-07
7.5600937e-07
7.5503132e-07
7.5445345e-07
7.5573631e-07
7.5569821e-07
7.5410072e-07
7.5125038e-07
7.491158e-07
7.497478e-07
7.5187682e-07
7.5412985e-07
7.5776483e-07
7.6195534e-07
7.6374342e-07
7.6275628e-07
7.6160979e-07
7.6271383e-07
7.6472376e-07
7.6652879e-07
7.6861899e-07
7.7114486e-07
7.7386845e-07
7.758554e-07
7.7691972e-07
7.7881102e-07
7.8077173e-07
7.8235627e-07
7.8564784e-07
7.9173724e-07
7.9810229e-07
8.0148966e-07
8.0367755e-07
8.06656e-07
1.6747258e-06
1.0791529e-06
8.9055339e-07
7.943652e-07
7.7044172e-07
7.6463134e-07
7.6151853e-07
7.6090604e-07
7.6084654e-07
7.5765862e-07
7.5268508e-07
7.4970967e-07
7.4981166e-07
7.5279134e-07
7.5470553e-07
7.5377806e-07
7.535567e-07
7.5487822e-07
7.542946e-07
7.5261358e-07
7.5016852e-07
7.4834492e-07
7.4951819e-07
7.5243251e-07
7.5520167e-07
7.5920972e-07
7.6323127e-07
7.6411097e-07
7.6223655e-07
7.6102735e-07
7.6266902e-07
7.6583124e-07
7.6853563e-07
7.7089503e-07
7.7338352e-07
7.762017e-07
7.7832684e-07
7.8004413e-07
7.829812e-07
7.8669245e-07
7.8949964e-07
7.9362187e-07
7.9973456e-07
8.0494051e-07
8.0758481e-07
8.1046977e-07
8.1551847e-07
1.674234e-06
1.0801969e-06
8.8518795e-07
7.8767443e-07
7.6480347e-07
7.5936344e-07
7.5722132e-07
7.5670723e-07
7.5740479e-07
7.5459709e-07
7.4954041e-07
7.4708722e-07
7.4829156e-07
7.5169307e-07
7.5345135e-07
7.5265036e-07
7.526125e-07
7.5379165e-07
7.5290949e-07
7.5153718e-07
7.4970581e-07
7.481378e-07
7.4948662e-07
7.53274e-07
7.5640667e-07
7.6053643e-07
7.6414115e-07
7.6399902e-07
7.6161302e-07
7.6050783e-07
7.6286737e-07
7.6680006e-07
7.698516e-07
7.7232825e-07
7.7502836e-07
7.7844879e-07
7.8090913e-07
7.837676e-07
7.8829622e-07
7.920874e-07
7.950332e-07
7.9901515e-07
8.0473324e-07
8.0993667e-07
8.1328457e-07
8.1679206e-07
8.2065366e-07
1.6719796e-06
1.0802728e-06
8.7663131e-07
7.8076926e-07
7.5905555e-07
7.5399947e-07
7.5262951e-07
7.5331543e-07
7.5418045e-07
7.5182402e-07
7.4708613e-07
7.4546778e-07
7.4736256e-07
7.5088088e-07
7.5240653e-07
7.5174594e-07
7.5188155e-07
7.5262235e-07
7.5180884e-07
7.5087007e-07
7.4957024e-07
7.4821998e-07
7.4985398e-07
7.5399995e-07
7.5740719e-07
7.6169465e-07
7.6456777e-07
7.6367497e-07
7.6093647e-07
7.6008766e-07
7.6316247e-07
7.6759985e-07
7.7092646e-07
7.741789e-07
7.7836861e-07
7.8231872e-07
7.8565451e-07
7.8935061e-07
7.9458611e-07
7.9847322e-07
8.0160035e-07
8.0566002e-07
8.1131532e-07
8.1628725e-07
8.1928014e-07
8.228466e-07
8.2845612e-07
1.6693742e-06
1.079812e-06
8.6892184e-07
7.7485271e-07
7.5471818e-07
7.4980736e-07
7.4862835e-07
7.4979189e-07
7.5116058e-07
7.4949086e-07
7.4546676e-07
7.4433797e-07
7.4684569e-07
7.5026171e-07
7.5107996e-07
7.5044406e-07
7.5080928e-07
7.5138634e-07
7.5097201e-07
7.5051375e-07
7.4961726e-07
7.4859817e-07
7.503774e-07
7.5477779e-07
7.584015e-07
7.6249316e-07
7.6450511e-07
7.6310198e-07
7.6012814e-07
7.5961399e-07
7.6332853e-07
7.6835897e-07
7.7191433e-07
7.7578329e-07
7.8062866e-07
7.8506735e-07
7.889492e-07
7.9342409e-07
7.9878431e-07
8.0233934e-07
8.0556497e-07
8.0971545e-07
8.15237e-07
8.1997445e-07
8.2382176e-07
8.2944636e-07
8.3559012e-07
1.6643235e-06
1.0786422e-06
8.5831903e-07
7.6848676e-07
7.5038227e-07
7.4617901e-07
7.4575732e-07
7.4723793e-07
7.4866301e-07
7.4746885e-07
7.4445526e-07
7.4372025e-07
7.469766e-07
7.4998012e-07
7.5012699e-07
7.4967606e-07
7.499721e-07
7.503421e-07
7.5038523e-07
7.5034175e-07
7.4958085e-07
7.4884017e-07
7.509841e-07
7.5571358e-07
7.5929562e-07
7.6296711e-07
7.6421491e-07
7.6238328e-07