/*--------------------------------*- C++ -*----------------------------------*\
| =========                 |                                                 |
| \\      /  F ield         | OpenFOAM: The Open Source CFD Toolbox           |
|  \\    /   O peration     | Version:  2406                                  |
|   \\  /    A nd           | Website:  www.openfoam.com                      |
|    \\/     M anipulation  |                                                 |
\*---------------------------------------------------------------------------*/
FoamFile
{
    version     2.0;
    format      ascii;
    arch        "LSB;label=32;scalar=64";
    class       volScalarField;
    location    "10";
    object      k_0;
}
// * * * * * * * * * * * * * * * * * * * * * * * * * * * * * * * * * * * * * //

dimensions      [0 2 -2 0 0 0 0];

internalField   nonuniform List<scalar> 
158064
(
3.9434337e-06
3.0426508e-06
2.4903393e-06
2.1266878e-06
1.8587157e-06
1.6418658e-06
1.4618498e-06
1.3125478e-06
1.1902649e-06
1.0919664e-06
1.0149026e-06
9.5678763e-07
9.1508887e-07
8.8720295e-07
8.693111e-07
8.5811913e-07
8.5147088e-07
8.4785252e-07
8.4586807e-07
8.4466937e-07
8.4383493e-07
8.4368078e-07
8.4392381e-07
8.444872e-07
8.4507736e-07
8.4572921e-07
8.4669653e-07
8.4765055e-07
8.4896773e-07
8.5054962e-07
8.5236735e-07
8.5449518e-07
8.5723683e-07
8.6080222e-07
8.653727e-07
8.7058357e-07
8.7641238e-07
8.8107769e-07
8.8536565e-07
8.8845009e-07
8.9131068e-07
8.9416709e-07
8.9572581e-07
8.9685836e-07
8.9762445e-07
8.9870399e-07
8.9966591e-07
9.0113795e-07
9.0244774e-07
9.0402589e-07
9.0555246e-07
9.0729703e-07
9.0909569e-07
9.1102628e-07
9.1287299e-07
9.148671e-07
9.1686949e-07
9.1907423e-07
9.2100749e-07
9.2281526e-07
9.2420271e-07
9.2659864e-07
9.287253e-07
9.3227272e-07
9.3515355e-07
9.4126422e-07
9.4793878e-07
9.5726211e-07
9.6630178e-07
9.8014419e-07
9.9140937e-07
1.0047966e-06
1.0155998e-06
1.0213559e-06
1.0306749e-06
1.0370173e-06
1.0467523e-06
1.0703618e-06
1.0845706e-06
1.1131111e-06
1.1286394e-06
1.1494004e-06
1.1987361e-06
1.2210223e-06
1.2555127e-06
1.3268761e-06
1.3677304e-06
1.4150892e-06
1.501415e-06
3.9449003e-06
3.0450261e-06
2.4927647e-06
2.1291376e-06
1.861186e-06
1.6443387e-06
1.464229e-06
1.3147266e-06
1.1922304e-06
1.0936357e-06
1.0162116e-06
9.577772e-07
9.1577298e-07
8.8758768e-07
8.6951808e-07
8.5818323e-07
8.5141579e-07
8.4767619e-07
8.4561578e-07
8.4436559e-07
8.4345714e-07
8.430887e-07
8.4317194e-07
8.4346196e-07
8.4376435e-07
8.4416817e-07
8.4471972e-07
8.4544386e-07
8.463196e-07
8.4751878e-07
8.4893533e-07
8.5084658e-07
8.530566e-07
8.5640728e-07
8.605776e-07
8.6611645e-07
8.7215469e-07
8.7777028e-07
8.8205149e-07
8.8538759e-07
8.8811463e-07
8.9037858e-07
8.9167691e-07
8.9261863e-07
8.931552e-07
8.9391861e-07
8.9467022e-07
8.9561714e-07
8.9696627e-07
8.9818749e-07
8.9994726e-07
9.015622e-07
9.0360478e-07
9.0573808e-07
9.077436e-07
9.0971198e-07
9.121758e-07
9.1372206e-07
9.1654963e-07
9.1764321e-07
9.1943337e-07
9.2010499e-07
9.2245387e-07
9.234456e-07
9.2598397e-07
9.2743119e-07
9.3030376e-07
9.3315041e-07
9.373747e-07
9.4044568e-07
9.4580694e-07
9.4996601e-07
9.5982023e-07
9.6639899e-07
9.8246223e-07
9.9779839e-07
1.0106794e-06
1.0401111e-06
1.0558451e-06
1.0904292e-06
1.1061234e-06
1.1418931e-06
1.1619371e-06
1.202529e-06
1.2229822e-06
1.2603881e-06
1.3223821e-06
1.3501515e-06
1.4009923e-06
3.9462825e-06
3.047216e-06
2.4950355e-06
2.1314501e-06
1.8636288e-06
1.6467539e-06
1.4665549e-06
1.3168503e-06
1.1940736e-06
1.0951848e-06
1.0174844e-06
9.5876605e-07
9.1644079e-07
8.8796797e-07
8.696855e-07
8.581922e-07
8.5131977e-07
8.4750584e-07
8.4542683e-07
8.4416335e-07
8.4325298e-07
8.4285905e-07
8.4294223e-07
8.4322989e-07
8.43545e-07
8.4395665e-07
8.4451333e-07
8.4525108e-07
8.4618743e-07
8.4744101e-07
8.4889694e-07
8.5083334e-07
8.5297144e-07
8.5618904e-07
8.6004281e-07
8.6511204e-07
8.7076545e-07
8.7614536e-07
8.8050721e-07
8.8378891e-07
8.8626757e-07
8.8833407e-07
8.8948521e-07
8.9034842e-07
8.9070435e-07
8.9146087e-07
8.9203618e-07
8.9296441e-07
8.9408086e-07
8.9556281e-07
8.969434e-07
8.9882785e-07
9.0048248e-07
9.0258089e-07
9.045094e-07
9.062365e-07
9.0838985e-07
9.0979106e-07
9.118771e-07
9.1293264e-07
9.1445763e-07
9.1512934e-07
9.1669781e-07
9.1754105e-07
9.1978409e-07
9.2085031e-07
9.2351697e-07
9.2533297e-07
9.2921089e-07
9.3316828e-07
9.3598134e-07
9.4272936e-07
9.4750661e-07
9.5722104e-07
9.6407579e-07
9.7566373e-07
9.9081102e-07
1.0013933e-06
1.0234413e-06
1.0397612e-06
1.0616224e-06
1.0983815e-06
1.1119332e-06
1.1530634e-06
1.1812599e-06
1.1992727e-06
1.2511217e-06
1.2800673e-06
1.329733e-06
3.9476328e-06
3.0493614e-06
2.4972525e-06
2.1337576e-06
1.8660101e-06
1.6491384e-06
1.4688213e-06
1.3189033e-06
1.1958911e-06
1.0967409e-06
1.0187507e-06
9.5974767e-07
9.1717287e-07
8.884762e-07
8.7003579e-07
8.584361e-07
8.51487e-07
8.4763645e-07
8.4554809e-07
8.4428651e-07
8.4338147e-07
8.4297061e-07
8.4303345e-07
8.4329134e-07
8.4359025e-07
8.439755e-07
8.4445549e-07
8.4510106e-07
8.4591416e-07
8.4705247e-07
8.4837417e-07
8.5022392e-07
8.5224523e-07
8.5532119e-07
8.5907171e-07
8.6423227e-07
8.7018369e-07
8.7605991e-07
8.8092306e-07
8.8449587e-07
8.8745336e-07
8.8953613e-07
8.9082195e-07
8.9158167e-07
8.9202722e-07
8.927558e-07
8.9342846e-07
8.9441132e-07
8.9558442e-07
8.9706502e-07
8.9862607e-07
9.0048664e-07
9.0215132e-07
9.0416181e-07
9.0584497e-07
9.078912e-07
9.0998533e-07
9.1185076e-07
9.1403672e-07
9.1509189e-07
9.1646639e-07
9.1721557e-07
9.1847881e-07
9.1896404e-07
9.2070052e-07
9.2116048e-07
9.2255487e-07
9.2326539e-07
9.2487953e-07
9.2663534e-07
9.2833482e-07
9.3291244e-07
9.3544598e-07
9.4131591e-07
9.4533031e-07
9.5306992e-07
9.6502516e-07
9.7188278e-07
9.8941842e-07
1.0011104e-06
1.0259907e-06
1.0457503e-06
1.0613963e-06
1.0968377e-06
1.1166617e-06
1.1323877e-06
1.1825733e-06
1.2049738e-06
1.252521e-06
3.9489053e-06
3.0513967e-06
2.4993799e-06
2.1359106e-06
1.8682436e-06
1.6513748e-06
1.4709934e-06
1.3209256e-06
1.1976906e-06
1.0983069e-06
1.0200638e-06
9.6076286e-07
9.1786578e-07
8.8888506e-07
8.7024111e-07
8.5850528e-07
8.514841e-07
8.4758229e-07
8.454866e-07
8.4422079e-07
8.4331188e-07
8.4289291e-07
8.4296225e-07
8.4323746e-07
8.4355835e-07
8.4394431e-07
8.4445035e-07
8.4513122e-07
8.4598702e-07
8.4714208e-07
8.4848494e-07
8.5033614e-07
8.523377e-07
8.5532841e-07
8.5886375e-07
8.6377202e-07
8.6948939e-07
8.7525832e-07
8.8036651e-07
8.8428282e-07
8.8702457e-07
8.8901669e-07
8.9019318e-07
8.9091498e-07
8.9120044e-07
8.9181049e-07
8.9236266e-07
8.9319871e-07
8.9416911e-07
8.9560757e-07
8.9701831e-07
8.9896203e-07
9.0047787e-07
9.0257176e-07
9.042017e-07
9.0606039e-07
9.0810462e-07
9.0988303e-07
9.1188267e-07
9.1307481e-07
9.1448478e-07
9.1517244e-07
9.1597589e-07
9.1646963e-07
9.1789515e-07
9.1865565e-07
9.2039427e-07
9.2139869e-07
9.238096e-07
9.2515277e-07
9.2807894e-07
9.3003203e-07
9.3373484e-07
9.3692366e-07
9.4082988e-07
9.4468999e-07
9.52603e-07
9.5682433e-07
9.6632605e-07
9.7228267e-07
9.8872597e-07
9.9883338e-07
1.0105819e-06
1.0364173e-06
1.0512076e-06
1.0645305e-06
1.1065181e-06
1.1248924e-06
1.1616809e-06
3.9501382e-06
3.0533417e-06
2.5014083e-06
2.1380025e-06
1.8704714e-06
1.6536098e-06
1.4731076e-06
1.3228157e-06
1.1993513e-06
1.0997095e-06
1.0212216e-06
9.6168993e-07
9.1857494e-07
8.8938649e-07
8.7059316e-07
8.5874955e-07
8.5163921e-07
8.4767709e-07
8.455544e-07
8.4427116e-07
8.4335657e-07
8.4290691e-07
8.4295434e-07
8.4319375e-07
8.4350147e-07
8.4386493e-07
8.4433489e-07
8.4496359e-07
8.4577263e-07
8.4687712e-07
8.4818095e-07
8.4996199e-07
8.5190065e-07
8.5480296e-07
8.5825423e-07
8.6314077e-07
8.6894797e-07
8.7508549e-07
8.8062164e-07
8.8461701e-07
8.8788275e-07
8.8996917e-07
8.911689e-07
8.917991e-07
8.9207791e-07
8.9271356e-07
8.9329472e-07
8.9420831e-07
8.9516695e-07
8.9662202e-07
8.9807873e-07
9.0002412e-07
9.0162813e-07
9.0377027e-07
9.0536847e-07
9.071684e-07
9.0904362e-07
9.1094492e-07
9.1286202e-07
9.1430448e-07
9.1583579e-07
9.1653957e-07
9.1730322e-07
9.1769541e-07
9.183466e-07
9.1838624e-07
9.1901689e-07
9.1953273e-07
9.2088597e-07
9.2177314e-07
9.2390482e-07
9.2527413e-07
9.283155e-07
9.3056336e-07
9.3526789e-07
9.3878113e-07
9.4633051e-07
9.5084978e-07
9.5958268e-07
9.6483181e-07
9.7914469e-07
9.8668838e-07
9.9591626e-07
1.0160685e-06
1.0288081e-06
1.0391292e-06
1.0719004e-06
1.0866364e-06
1.1100381e-06
3.9513032e-06
3.0551995e-06
2.5033653e-06
2.1400038e-06
1.8725661e-06
1.6557145e-06
1.4751382e-06
1.3246915e-06
1.2010441e-06
1.1012205e-06
1.0225066e-06
9.6270535e-07
9.1928236e-07
8.8981189e-07
8.7081845e-07
8.5884957e-07
8.5168306e-07
8.4769323e-07
8.4558755e-07
8.4431483e-07
8.4341315e-07
8.4298606e-07
8.4304851e-07
8.4333117e-07
8.4366399e-07
8.4404132e-07
8.4452465e-07
8.4516168e-07
8.4598027e-07
8.470748e-07
8.4838101e-07
8.5011329e-07
8.5202809e-07
8.5487313e-07
8.5817463e-07
8.6286075e-07
8.684314e-07
8.7454613e-07
8.8029658e-07
8.8454192e-07
8.8776029e-07
8.8985529e-07
8.9094398e-07
8.914793e-07
8.9172309e-07
8.922902e-07
8.9285361e-07
8.937314e-07
8.9465033e-07
8.9606528e-07
8.9740186e-07
8.9923706e-07
9.0083904e-07
9.0306299e-07
9.0471309e-07
9.0655982e-07
9.0837655e-07
9.1020344e-07
9.1197855e-07
9.1346199e-07
9.150583e-07
9.1595987e-07
9.1685672e-07
9.1744991e-07
9.1807222e-07
9.1831055e-07
9.1905174e-07
9.1950977e-07
9.2084657e-07
9.2165865e-07
9.2372218e-07
9.2476288e-07
9.2735169e-07
9.287774e-07
9.3211511e-07
9.3457468e-07
9.3856901e-07
9.4473127e-07
9.5166944e-07
9.5609033e-07
9.6831573e-07
9.7599639e-07
9.8477858e-07
1.0038076e-06
1.0146434e-06
1.0255839e-06
1.0542446e-06
1.0649567e-06
1.0832027e-06
3.9524276e-06
3.0569744e-06
2.5052205e-06
2.1419366e-06
1.8746089e-06
1.6577878e-06
1.4771178e-06
1.3264819e-06
1.2025938e-06
1.1025275e-06
1.0235947e-06
9.6357407e-07
9.1994899e-07
8.9029257e-07
8.7116675e-07
8.5909625e-07
8.5184055e-07
8.4776884e-07
8.4562023e-07
8.4433073e-07
8.4342227e-07
8.4295138e-07
8.4298774e-07
8.4321788e-07
8.4352448e-07
8.4387614e-07
8.4434235e-07
8.4495479e-07
8.4575337e-07
8.4683419e-07
8.4812174e-07
8.4980047e-07
8.5169919e-07
8.5446574e-07
8.5765027e-07
8.6224736e-07
8.6780497e-07
8.7412628e-07
8.8022795e-07
8.8472099e-07
8.8830736e-07
8.9049508e-07
8.9159846e-07
8.9215714e-07
8.9238954e-07
8.930494e-07
8.936069e-07
8.9453754e-07
8.9544356e-07
8.9684798e-07
8.9817837e-07
8.9990979e-07
9.0160849e-07
9.0364831e-07
9.0530485e-07
9.0713992e-07
9.0896636e-07
9.1088624e-07
9.1265464e-07
9.1424763e-07
9.1576708e-07
9.1675113e-07
9.1805896e-07
9.1864838e-07
9.1917399e-07
9.1930126e-07
9.1956317e-07
9.1967686e-07
9.2033933e-07
9.2097825e-07
9.2268423e-07
9.2362617e-07
9.2592568e-07
9.2758419e-07
9.3039838e-07
9.3369269e-07
9.3699104e-07
9.4263306e-07
9.4801887e-07
9.5296522e-07
9.6457688e-07
9.6918467e-07
9.7897109e-07
9.9309571e-07
1.0012214e-06
1.0092802e-06
1.0357069e-06
1.0444081e-06
1.0591541e-06
3.9534963e-06
3.0586777e-06
2.5070017e-06
2.1437911e-06
1.8765657e-06
1.6597591e-06
1.4790106e-06
1.3282371e-06
1.2041775e-06
1.1039058e-06
1.0247671e-06
9.6453889e-07
9.2065863e-07
8.9075903e-07
8.7143631e-07
8.5923758e-07
8.5191355e-07
8.478179e-07
8.4568294e-07
8.4439534e-07
8.4349401e-07
8.4305215e-07
8.4310486e-07
8.4338624e-07
8.4371228e-07
8.4407342e-07
8.4454758e-07
8.4515519e-07
8.4594126e-07
8.4701025e-07
8.4829299e-07
8.499249e-07
8.5181492e-07
8.5453631e-07
8.5761419e-07
8.6212908e-07
8.6757016e-07
8.7386551e-07
8.801418e-07
8.8484165e-07
8.8850658e-07
8.9068415e-07
8.9174261e-07
8.9230613e-07
8.9250468e-07
8.9303745e-07
8.9352277e-07
8.9440147e-07
8.9525079e-07
8.965244e-07
8.9774067e-07
8.9953063e-07
9.0122251e-07
9.0322731e-07
9.0477253e-07
9.0664509e-07
9.0847634e-07
9.1060699e-07
9.1247102e-07
9.1394387e-07
9.1532908e-07
9.1614007e-07
9.1756515e-07
9.1847558e-07
9.1940455e-07
9.1994761e-07
9.2033107e-07
9.2054102e-07
9.2090379e-07
9.2105229e-07
9.2208285e-07
9.2280581e-07
9.2449594e-07
9.2578736e-07
9.2836575e-07
9.3067748e-07
9.3298186e-07
9.3766716e-07
9.418984e-07
9.4536103e-07
9.5575792e-07
9.616489e-07
9.6918397e-07
9.8145935e-07
9.8817172e-07
9.9525849e-07
1.0157293e-06
1.0246419e-06
1.0381826e-06
3.954526e-06
3.0603055e-06
2.5086965e-06
2.1455608e-06
1.8784505e-06
1.6616764e-06
1.4808498e-06
1.3299008e-06
1.2056401e-06
1.1051744e-06
1.025824e-06
9.6536911e-07
9.2127733e-07
8.9118124e-07
8.7173423e-07
8.594425e-07
8.5205007e-07
8.478902e-07
8.4571299e-07
8.4441496e-07
8.4350682e-07
8.4302778e-07
8.4305808e-07
8.4329763e-07
8.4361126e-07
8.4395989e-07
8.4442713e-07
8.4502777e-07
8.4579726e-07
8.4684905e-07
8.481134e-07
8.4970378e-07
8.5157335e-07
8.5422506e-07
8.5719368e-07
8.6158387e-07
8.6689567e-07
8.7324295e-07
8.7977205e-07
8.8488136e-07
8.8880554e-07
8.9107417e-07
8.9220763e-07
8.928376e-07
8.9304464e-07
8.9360114e-07
8.9403941e-07
8.9497192e-07
8.9592009e-07
8.9721462e-07
8.9841739e-07
9.0011163e-07
9.0186247e-07
9.0390387e-07
9.0552458e-07
9.0730048e-07
9.0896398e-07
9.1098271e-07
9.1284841e-07
9.1459237e-07
9.1598692e-07
9.1685943e-07
9.1790577e-07
9.1858863e-07
9.1957993e-07
9.2011262e-07
9.2055598e-07
9.2077691e-07
9.2106137e-07
9.2112051e-07
9.2191133e-07
9.2232816e-07
9.239892e-07
9.2512984e-07
9.2738683e-07
9.297595e-07
9.3192376e-07
9.3616353e-07
9.3965512e-07
9.4240786e-07
9.5020402e-07
9.5494898e-07
9.6043159e-07
9.7274993e-07
9.7798515e-07
9.8381521e-07
1.0016731e-06
1.0070661e-06
1.0186772e-06
3.9555067e-06
3.0618656e-06
2.5103248e-06
2.1472617e-06
1.8802721e-06
1.6635361e-06
1.4826185e-06
1.3315306e-06
1.2071066e-06
1.1064658e-06
1.0269208e-06
9.6626292e-07
9.2194749e-07
8.9164604e-07
8.7203854e-07
8.5963293e-07
8.5215239e-07
8.4794254e-07
8.4576979e-07
8.4447713e-07
8.4357369e-07
8.4311647e-07
8.4315894e-07
8.4342841e-07
8.4375319e-07
8.4411789e-07
8.4459402e-07
8.4519798e-07
8.4595317e-07
8.4699548e-07
8.4823591e-07
8.4978362e-07
8.5163454e-07
8.542022e-07
8.5706535e-07
8.6136475e-07
8.6658187e-07
8.729067e-07
8.7955994e-07
8.8494094e-07
8.8900965e-07
8.9124515e-07
8.9225357e-07
8.9286319e-07
8.9309082e-07
8.9353407e-07
8.9382824e-07
8.9461214e-07
8.956667e-07
8.9691264e-07
8.9803935e-07
8.9951891e-07
9.0120915e-07
9.0342653e-07
9.0514875e-07
9.0703826e-07
9.0866097e-07
9.1056359e-07
9.1255769e-07
9.1446699e-07
9.1616575e-07
9.1724727e-07
9.1835384e-07
9.1897059e-07
9.1996856e-07
9.2039529e-07
9.2105757e-07
9.214921e-07
9.217245e-07
9.2171857e-07
9.2209941e-07
9.2222932e-07
9.2296785e-07
9.239929e-07
9.2517462e-07
9.2767537e-07
9.2916775e-07
9.3272819e-07
9.3615118e-07
9.388206e-07
9.4651426e-07
9.4987796e-07
9.5504769e-07
9.6584157e-07
9.7114124e-07
9.7639079e-07
9.9154003e-07
9.9682432e-07
1.0053797e-06
3.9564515e-06
3.0633569e-06
2.5118799e-06
2.1488898e-06
1.8820164e-06
1.665309e-06
1.4843159e-06
1.3330906e-06
1.20849e-06
1.107651e-06
1.0279299e-06
9.6706987e-07
9.2255327e-07
8.9205853e-07
8.7230751e-07
8.5979771e-07
8.5225689e-07
8.4800316e-07
8.4579584e-07
8.4449133e-07
8.435795e-07
8.4310092e-07
8.4313373e-07
8.4338126e-07
8.4369876e-07
8.4404953e-07
8.4450291e-07
8.4510787e-07
8.4587182e-07
8.4692977e-07
8.4819511e-07
8.4974434e-07
8.5159002e-07
8.5414027e-07
8.5691837e-07
8.6110204e-07
8.6621227e-07
8.725449e-07
8.7935472e-07
8.8501225e-07
8.8932922e-07
8.9173141e-07
8.9277343e-07
8.9333638e-07
8.9362066e-07
8.9419935e-07
8.9446673e-07
8.9523087e-07
8.9619776e-07
8.975479e-07
8.9870493e-07
9.0023172e-07
9.0181772e-07
9.0387288e-07
9.0556077e-07
9.0755633e-07
9.0926737e-07
9.1111392e-07
9.1294537e-07
9.1477686e-07
9.1659335e-07
9.179043e-07
9.190713e-07
9.1965766e-07
9.2032903e-07
9.2059618e-07
9.2105928e-07
9.2144151e-07
9.2188968e-07
9.2211102e-07
9.2267065e-07
9.2287116e-07
9.2359244e-07
9.2427825e-07
9.2534866e-07
9.2730796e-07
9.2856178e-07
9.3133785e-07
9.3513703e-07
9.3756279e-07
9.434466e-07
9.4624846e-07
9.5216547e-07
9.5964313e-07
9.6397645e-07
9.7016391e-07
9.8506871e-07
9.8888115e-07
9.9639249e-07
3.9573537e-06
3.0647886e-06
2.5133606e-06
2.1504449e-06
1.8837056e-06
1.6670222e-06
1.4859498e-06
1.3346043e-06
1.2098519e-06
1.1088609e-06
1.0289623e-06
9.6791728e-07
9.231827e-07
8.924904e-07
8.7260015e-07
8.6000287e-07
8.5239603e-07
8.4808671e-07
8.4586777e-07
8.4456224e-07
8.4365558e-07
8.4318314e-07
8.4322554e-07
8.4348124e-07
8.4381573e-07
8.4418268e-07
8.4464227e-07
8.4522441e-07
8.4593897e-07
8.4692813e-07
8.4813692e-07
8.4966225e-07
8.5145071e-07
8.5394506e-07
8.5664993e-07
8.6069712e-07
8.6565917e-07
8.7202534e-07
8.7893534e-07
8.8480754e-07
8.8926341e-07
8.9188341e-07
8.9297617e-07
8.9341837e-07
8.935802e-07
8.9411154e-07
8.9445069e-07
8.9527017e-07
8.9606813e-07
8.9730959e-07
8.9849998e-07
9.0015669e-07
9.0173157e-07
9.0362251e-07
9.0522215e-07
9.0732531e-07
9.0917359e-07
9.1120755e-07
9.1307492e-07
9.1487874e-07
9.1655325e-07
9.1803304e-07
9.1946634e-07
9.203993e-07
9.2118897e-07
9.2155569e-07
9.2182048e-07
9.219248e-07
9.2221862e-07
9.2226903e-07
9.2267891e-07
9.2273076e-07
9.2362372e-07
9.2396721e-07
9.2509319e-07
9.2635272e-07
9.277438e-07
9.3031334e-07
9.3291618e-07
9.3540864e-07
9.4127892e-07
9.4415757e-07
9.4879778e-07
9.5616028e-07
9.5921882e-07
9.6486866e-07
9.8032317e-07
9.841528e-07
9.8989378e-07
3.9582222e-06
3.0661607e-06
2.5147795e-06
2.1519377e-06
1.8853298e-06
1.6686603e-06
1.4875303e-06
1.3360702e-06
1.2111488e-06
1.1099793e-06
1.0298998e-06
9.6867588e-07
9.2377396e-07
8.928988e-07
8.7287156e-07
8.6016404e-07
8.5247521e-07
8.4812901e-07
8.458839e-07
8.4457636e-07
8.4366572e-07
8.4318547e-07
8.4321951e-07
8.434748e-07
8.4380714e-07
8.4417393e-07
8.4464106e-07
8.4524027e-07
8.4599407e-07
8.4700001e-07
8.4821009e-07
8.4974274e-07
8.5151445e-07
8.5395943e-07
8.5663816e-07
8.6062892e-07
8.6541258e-07
8.717109e-07
8.7878369e-07
8.8488649e-07
8.8953234e-07
8.9226879e-07
8.9340582e-07
8.9385708e-07
8.9400682e-07
8.9449504e-07
8.9483449e-07
8.9565787e-07
8.9647335e-07
8.9761067e-07
8.9873758e-07
9.0036707e-07
9.0200526e-07
9.0394685e-07
9.0547626e-07
9.074594e-07
9.0926703e-07
9.1137665e-07
9.1323146e-07
9.1508343e-07
9.1668677e-07
9.1807155e-07
9.1952049e-07
9.2054044e-07
9.21516e-07
9.2199051e-07
9.2239901e-07
9.2235935e-07
9.2267902e-07
9.2261303e-07
9.2309973e-07
9.2323817e-07
9.2415503e-07
9.2454901e-07
9.2551659e-07
9.2665662e-07
9.2769903e-07
9.3039056e-07
9.3208219e-07
9.3363457e-07
9.3947357e-07
9.4222079e-07
9.4587549e-07
9.5283766e-07
9.5539014e-07
9.6044888e-07
9.7274713e-07
9.7653365e-07
9.8244435e-07
3.9590539e-06
3.067473e-06
2.5161347e-06
2.1533724e-06
1.8868852e-06
1.6702245e-06
1.4890333e-06
1.3374655e-06
1.2124216e-06
1.1111327e-06
1.030916e-06
9.6950629e-07
9.243789e-07
8.9331293e-07
8.7316274e-07
8.6036154e-07
8.5260724e-07
8.4820919e-07
8.459424e-07
8.4462871e-07
8.4371236e-07
8.4322271e-07
8.4325488e-07
8.4349576e-07
8.4383694e-07
8.4419205e-07
8.4464642e-07
8.4522483e-07
8.4595646e-07
8.4693616e-07
8.4812078e-07
8.4962286e-07
8.5138426e-07
8.5376533e-07
8.5637827e-07
8.6029287e-07
8.6494912e-07
8.7118482e-07
8.7831381e-07
8.8467369e-07
8.895238e-07
8.9237114e-07
8.9353976e-07
8.9404003e-07
8.9421969e-07
8.9468495e-07
8.9494033e-07
8.9582145e-07
8.966209e-07
8.9776685e-07
8.988226e-07
9.0035602e-07
9.0208204e-07
9.0401204e-07
9.0559841e-07
9.0747802e-07
9.0920215e-07
9.1140364e-07
9.1340011e-07
9.1523884e-07
9.1698727e-07
9.1844408e-07
9.1991336e-07
9.2095992e-07
9.2209032e-07
9.2254867e-07
9.2316189e-07
9.2300216e-07
9.2325801e-07
9.2308628e-07
9.2336801e-07
9.2337709e-07
9.2390609e-07
9.2419519e-07
9.2511054e-07
9.2659852e-07
9.274741e-07
9.2971659e-07
9.3165511e-07
9.3330017e-07
9.3855192e-07
9.4021031e-07
9.4441148e-07
9.5016065e-07
9.5274012e-07
9.574864e-07
9.6710792e-07
9.7007023e-07
9.7708469e-07
3.9598533e-06
3.0687312e-06
2.5174189e-06
2.1547318e-06
1.8883707e-06
1.6717479e-06
1.4905031e-06
1.3388228e-06
1.213614e-06
1.1121499e-06
1.0317697e-06
9.7020154e-07
9.2493011e-07
8.9372994e-07
8.7341815e-07
8.6051821e-07
8.5270533e-07
8.4826604e-07
8.4598801e-07
8.4467653e-07
8.4375734e-07
8.4327287e-07
8.4330967e-07
8.4356101e-07
8.4391471e-07
8.4427976e-07
8.4474383e-07
8.4533369e-07
8.4606453e-07
8.4703795e-07
8.4820385e-07
8.4970997e-07
8.5146552e-07
8.5379915e-07
8.5636489e-07
8.6019971e-07
8.6471565e-07
8.7091325e-07
8.7803469e-07
8.8459823e-07
8.8964972e-07
8.9266562e-07
8.9382891e-07
8.9428512e-07
8.9448228e-07
8.9484573e-07
8.9512112e-07
8.959672e-07
8.9684522e-07
8.9795911e-07
8.9899678e-07
9.004377e-07
9.0214352e-07
9.0407337e-07
9.0565206e-07
9.0755312e-07
9.0922671e-07
9.1143125e-07
9.1341279e-07
9.1536463e-07
9.1710615e-07
9.1853054e-07
9.2005697e-07
9.2106621e-07
9.2228987e-07
9.2286101e-07
9.2354281e-07
9.2357603e-07
9.2381878e-07
9.2370127e-07
9.2397015e-07
9.2388788e-07
9.2437252e-07
9.2457708e-07
9.2553576e-07
9.2629787e-07
9.2730055e-07
9.2945533e-07
9.3098238e-07
9.3296199e-07
9.3692428e-07
9.3826075e-07
9.4114489e-07
9.4669009e-07
9.5015067e-07
9.5442708e-07
9.6437545e-07
9.6790622e-07
9.7228817e-07
3.9606214e-06
3.0699338e-06
2.5186586e-06
2.1560426e-06
1.8898029e-06
1.6731651e-06
1.491908e-06
1.3401519e-06
1.2148273e-06
1.113224e-06
1.0327002e-06
9.7097107e-07
9.2552964e-07
8.9410252e-07
8.7368839e-07
8.6070628e-07
8.5282086e-07
8.4833255e-07
8.4602367e-07
8.4469889e-07
8.4377491e-07
8.4327862e-07
8.433061e-07
8.435481e-07
8.4389028e-07
8.4424621e-07
8.4468729e-07
8.452681e-07
8.460048e-07
8.4697951e-07
8.4814481e-07
8.4964748e-07
8.5137725e-07
8.5370041e-07
8.5622325e-07
8.599775e-07
8.6438757e-07
8.7049157e-07
8.7762017e-07
8.8438748e-07
8.8965386e-07
8.9281605e-07
8.9400166e-07
8.9450714e-07
8.9472629e-07
8.9511154e-07
8.9529995e-07
8.9612236e-07
8.969029e-07
8.9807562e-07
8.9911159e-07
9.0053099e-07
9.0214202e-07
9.0405238e-07
9.0563442e-07
9.0759342e-07
9.0925868e-07
9.1150616e-07
9.1335811e-07
9.1538941e-07
9.1720045e-07
9.1878693e-07
9.202566e-07
9.2134326e-07
9.2259791e-07
9.2329773e-07
9.2389724e-07
9.2402929e-07
9.2431839e-07
9.2417785e-07
9.2436765e-07
9.2423589e-07
9.2456079e-07
9.24729e-07
9.2574692e-07
9.2619084e-07
9.2715819e-07
9.2966302e-07
9.3084858e-07
9.3262931e-07
9.3620156e-07
9.3761512e-07
9.4081435e-07
9.4657375e-07
9.489231e-07
9.5390946e-07
9.6323858e-07
9.6548754e-07
9.6972854e-07
3.9613575e-06
3.0710878e-06
2.5198543e-06
2.1572918e-06
1.8911755e-06
1.6745513e-06
1.4932676e-06
1.3414032e-06
1.2159481e-06
1.1142127e-06
1.0335444e-06
9.7166212e-07
9.2604368e-07
8.9448682e-07
8.7392565e-07
8.6086089e-07
8.5291161e-07
8.4838898e-07
8.4606427e-07
8.4474394e-07
8.43824e-07
8.4333089e-07
8.4336217e-07
8.4360885e-07
8.4397591e-07
8.4434813e-07
8.4480387e-07
8.4537309e-07
8.4608672e-07
8.4703394e-07
8.4817614e-07
8.4965639e-07
8.5133585e-07
8.5360981e-07
8.5607842e-07
8.597598e-07
8.6410036e-07
8.700987e-07
8.7720875e-07
8.8420378e-07
8.8964928e-07
8.9294739e-07
8.9425989e-07
8.9479099e-07
8.9493483e-07
8.953146e-07
8.9553426e-07
8.9633604e-07
8.9711645e-07
8.9821953e-07
8.9926361e-07
9.006929e-07
9.0226718e-07
9.0407567e-07
9.0563921e-07
9.0761466e-07
9.093594e-07
9.1161451e-07
9.1346317e-07
9.1549517e-07
9.1721861e-07
9.1888672e-07
9.2046592e-07
9.2177931e-07
9.2288123e-07
9.2366752e-07
9.2426436e-07
9.2447908e-07
9.2492594e-07
9.2482435e-07
9.249175e-07
9.2486537e-07
9.2509705e-07
9.2517187e-07
9.2578235e-07
9.2637313e-07
9.2696194e-07
9.2887766e-07
9.302709e-07
9.3179818e-07
9.3448425e-07
9.360775e-07
9.3969248e-07
9.4590062e-07
9.4745151e-07
9.51679e-07
9.5893222e-07
9.6042048e-07
9.653766e-07
3.9620681e-06
3.0721933e-06
2.5209836e-06
2.1584804e-06
1.8924782e-06
1.6758874e-06
1.494566e-06
1.3426252e-06
1.2170332e-06
1.1151911e-06
1.0343845e-06
9.7233879e-07
9.2653677e-07
8.948393e-07
8.7418266e-07
8.6102058e-07
8.5300991e-07
8.484361e-07
8.460808e-07
8.4475067e-07
8.4381443e-07
8.4331557e-07
8.4334171e-07
8.4357575e-07
8.4393414e-07
8.4428583e-07
8.4473035e-07
8.4531209e-07
8.4603881e-07
8.4698577e-07
8.4813984e-07
8.4962209e-07
8.5130009e-07
8.5355509e-07
8.5598342e-07
8.5959311e-07
8.6382936e-07
8.697528e-07
8.7682503e-07
8.8397205e-07
8.8957236e-07
8.9305603e-07
8.9441954e-07
8.9491427e-07
8.9505213e-07
8.9540581e-07
8.9563189e-07
8.9640589e-07
8.9714075e-07
8.9831291e-07
8.9932803e-07
9.0067755e-07
9.0217194e-07
9.0399809e-07
9.0557652e-07
9.0755186e-07
9.0927482e-07
9.1152686e-07
9.1343275e-07
9.1542574e-07
9.1712672e-07
9.1893364e-07
9.2040803e-07
9.2193067e-07
9.2304395e-07
9.2394929e-07
9.245888e-07
9.2484956e-07
9.2523749e-07
9.2523544e-07
9.2540235e-07
9.2539079e-07
9.2568938e-07
9.2588612e-07
9.2629267e-07
9.2688034e-07
9.2750266e-07
9.2916169e-07
9.3054494e-07
9.3171515e-07
9.3469557e-07
9.3645963e-07
9.4026748e-07
9.4510014e-07
9.4665801e-07
9.4979502e-07
9.573913e-07
9.5942582e-07
9.6463017e-07
3.9627457e-06
3.0732547e-06
2.5220788e-06
2.159614e-06
1.8937072e-06
1.677139e-06
1.4958388e-06
1.3438102e-06
1.2181078e-06
1.1160921e-06
1.035178e-06
9.729935e-07
9.2704976e-07
8.9517644e-07
8.7438607e-07
8.6112923e-07
8.5305691e-07
8.4844029e-07
8.4607045e-07
8.4474656e-07
8.4381414e-07
8.4332302e-07
8.4334944e-07
8.4359758e-07
8.4397517e-07
8.4435469e-07
8.4480262e-07
8.4537499e-07
8.4609493e-07
8.4701397e-07
8.4815497e-07
8.4960994e-07
8.512632e-07
8.53496e-07
8.558705e-07
8.5940953e-07
8.6354136e-07
8.6938856e-07
8.7639187e-07
8.8365391e-07
8.8942113e-07
8.9307242e-07
8.944796e-07
8.9501706e-07
8.9517954e-07
8.9550474e-07
8.9569699e-07
8.9646103e-07
8.9717076e-07
8.9835117e-07
8.9938464e-07
9.007197e-07
9.0220443e-07
9.0394816e-07
9.0554719e-07
9.0754772e-07
9.0927525e-07
9.1150838e-07
9.1339493e-07
9.1545136e-07
9.1711329e-07
9.1891448e-07
9.2041904e-07
9.2208263e-07
9.2325493e-07
9.2423814e-07
9.2487246e-07
9.2527321e-07
9.2553495e-07
9.2557918e-07
9.2582631e-07
9.256989e-07
9.2594403e-07
9.2610706e-07
9.2647724e-07
9.2670393e-07
9.2749901e-07
9.2889747e-07
9.2989501e-07
9.311744e-07
9.3443168e-07
9.3618206e-07
9.3933373e-07
9.424182e-07
9.4475107e-07
9.4712127e-07
9.5394879e-07
9.5746805e-07
9.6139538e-07
3.9634044e-06
3.0742692e-06
2.5231391e-06
2.1607106e-06
1.8949035e-06
1.6783691e-06
1.4970335e-06
1.3449159e-06
1.2190902e-06
1.1169745e-06
1.0359036e-06
9.7355573e-07
9.2749655e-07
8.9544661e-07
8.745139e-07
8.6119584e-07
8.5305524e-07
8.4839955e-07
8.459974e-07
8.4465222e-07
8.4371608e-07
8.4319945e-07
8.432244e-07
8.434505e-07
8.4381629e-07
8.4419328e-07
8.4462767e-07
8.4520074e-07
8.4591991e-07
8.4682983e-07
8.4798331e-07
8.4942753e-07
8.51063e-07
8.5326283e-07
8.5561731e-07
8.5908543e-07
8.631429e-07
8.6890073e-07
8.7582952e-07
8.8319218e-07
8.8919957e-07
8.9297624e-07
8.9440067e-07
8.9503299e-07
8.9518227e-07
8.9548524e-07
8.9562622e-07
8.9635246e-07
8.9711449e-07
8.9825527e-07
8.9921288e-07
9.0052159e-07
9.0195722e-07
9.0369832e-07
9.0530178e-07
9.0724342e-07
9.0894941e-07
9.1112785e-07
9.1304605e-07
9.150601e-07
9.1674124e-07
9.1866097e-07
9.2022016e-07
9.219267e-07
9.2320653e-07
9.2428376e-07
9.2492803e-07
9.2540537e-07
9.2570491e-07
9.2575282e-07
9.2605304e-07
9.2592368e-07
9.2630927e-07
9.2638746e-07
9.2696788e-07
9.2703619e-07
9.2789606e-07
9.2947669e-07
9.3024458e-07
9.3159628e-07
9.3464703e-07
9.357508e-07
9.3855529e-07
9.418561e-07
9.4405348e-07
9.4741054e-07
9.531416e-07
9.5651795e-07
9.6002447e-07
3.9640264e-06
3.0752419e-06
2.5241398e-06
2.1617499e-06
1.8960235e-06
1.6795218e-06
1.49816e-06
1.3459445e-06
1.2199948e-06
1.1177486e-06
1.0365471e-06
9.7404099e-07
9.2772824e-07
8.9552789e-07
8.7448168e-07
8.6106746e-07
8.5286684e-07
8.4817211e-07
8.4575465e-07
8.4441068e-07
8.4347802e-07
8.4297764e-07
8.4300299e-07
8.4324902e-07
8.4364593e-07
8.4403458e-07
8.4447024e-07
8.450482e-07
8.4575461e-07
8.4664385e-07
8.47783e-07
8.4920797e-07
8.5083223e-07
8.5300384e-07
8.5534952e-07
8.5873568e-07
8.6274295e-07
8.6842547e-07
8.7529813e-07
8.8274077e-07
8.8890516e-07
8.9284425e-07
8.9436574e-07
8.9497862e-07
8.9514329e-07
8.9538384e-07
8.9552988e-07
8.9617784e-07
8.9694294e-07
8.9812339e-07
8.9903645e-07
9.0025251e-07
9.0167567e-07
9.0338211e-07
9.050276e-07
9.0692683e-07
9.0864321e-07
9.1084583e-07
9.1271975e-07
9.1474626e-07
9.1642194e-07
9.1831443e-07
9.1987006e-07
9.2167234e-07
9.2294839e-07
9.2406155e-07
9.2485451e-07
9.2532264e-07
9.2565469e-07
9.2579831e-07
9.2601998e-07
9.2588341e-07
9.2634069e-07
9.2623269e-07
9.2674811e-07
9.2709067e-07
9.2784017e-07
9.2935728e-07
9.2984441e-07
9.3115567e-07
9.3428176e-07
9.3494562e-07
9.3729118e-07
9.4133194e-07
9.4264502e-07
9.4678663e-07
9.5341753e-07
9.5573707e-07
9.5966034e-07
3.9646376e-06
3.0761747e-06
2.525088e-06
2.1627219e-06
1.8970624e-06
1.6806074e-06
1.4991999e-06
1.3469008e-06
1.2207852e-06
1.1183067e-06
1.0368872e-06
9.7414873e-07
9.2763643e-07
8.9525757e-07
8.7407972e-07
8.6055243e-07
8.5228535e-07
8.4753262e-07
8.4507303e-07
8.4371357e-07
8.4276125e-07
8.4224464e-07
8.4225487e-07
8.4246925e-07
8.4283684e-07
8.432074e-07
8.4362895e-07
8.4420824e-07
8.4491286e-07
8.4579616e-07
8.4693361e-07
8.4834064e-07
8.499498e-07
8.5207011e-07
8.5439488e-07
8.5767354e-07
8.6160821e-07
8.6715878e-07
8.7393805e-07
8.8139407e-07
8.8771214e-07
8.9176946e-07
8.9334515e-07
8.9394909e-07
8.9411252e-07
8.943205e-07
8.9446207e-07
8.9508878e-07
8.9579072e-07
8.9688011e-07
8.9780699e-07
8.9902163e-07
9.0038701e-07
9.0206532e-07
9.0371578e-07
9.0554429e-07
9.0727463e-07
9.0935064e-07
9.1129099e-07
9.133509e-07
9.1509799e-07
9.170765e-07
9.1877401e-07
9.2056225e-07
9.2199402e-07
9.2321891e-07
9.2411955e-07
9.2476674e-07
9.2508478e-07
9.2535077e-07
9.2554308e-07
9.2552353e-07
9.2600683e-07
9.2591789e-07
9.2632819e-07
9.2681574e-07
9.2753881e-07
9.285521e-07
9.2919936e-07
9.3047453e-07
9.3330817e-07
9.3432781e-07
9.3627743e-07
9.4053905e-07
9.4164696e-07
9.4519272e-07
9.5227741e-07
9.5365851e-07
9.5821656e-07
3.9652025e-06
3.0770626e-06
2.5259984e-06
2.1636188e-06
1.8979861e-06
1.6815142e-06
1.5000317e-06
1.3475313e-06
1.2211556e-06
1.1183941e-06
1.0366056e-06
9.7351794e-07
9.2671008e-07
8.9403785e-07
8.7261602e-07
8.5894073e-07
8.5058081e-07
8.4577664e-07
8.4329703e-07
8.4192972e-07
8.4097343e-07
8.4044984e-07
8.4046201e-07
8.4068887e-07
8.4108584e-07
8.4146512e-07
8.4189453e-07
8.4246908e-07
8.431603e-07
8.4402263e-07
8.4514119e-07
8.4652553e-07
8.4812789e-07
8.5019427e-07
8.5253279e-07
8.5570207e-07
8.596233e-07
8.650396e-07
8.7179405e-07
8.7924774e-07
8.8575626e-07
8.8991144e-07
8.9160712e-07
8.9214148e-07
8.9231635e-07