/*--------------------------------*- C++ -*----------------------------------*\
| =========                 |                                                 |
| \\      /  F ield         | OpenFOAM: The Open Source CFD Toolbox           |
|  \\    /   O peration     | Version:  2406                                  |
|   \\  /    A nd           | Website:  www.openfoam.com                      |
|    \\/     M anipulation  |                                                 |
\*---------------------------------------------------------------------------*/
FoamFile
{
    version     2.0;
    format      ascii;
    arch        "LSB;label=32;scalar=64";
    class       volScalarField;
    location    "10";
    object      nut;
}
// * * * * * * * * * * * * * * * * * * * * * * * * * * * * * * * * * * * * * //

dimensions      [0 2 -1 0 0 0 0];

internalField   nonuniform List<scalar> 
62344
(
1.0036317e-06
1.0003386e-06
1.0127399e-06
1.0074548e-06
9.7852082e-07
9.4077554e-07
9.0875376e-07
8.8725195e-07
8.7992588e-07
8.865056e-07
9.0181978e-07
9.1675629e-07
9.2838901e-07
9.341724e-07
9.3682917e-07
9.35687e-07
9.3276383e-07
9.2729185e-07
9.2206501e-07
9.1868294e-07
9.1556497e-07
9.164207e-07
9.21554e-07
9.2619908e-07
9.2917237e-07
9.3244098e-07
9.376107e-07
9.5109108e-07
9.5970754e-07
9.6729339e-07
9.8076788e-07
9.9838214e-07
1.0121634e-06
1.0369967e-06
1.072816e-06
1.1444121e-06
1.2072769e-06
1.3316589e-06
1.4698464e-06
1.576876e-06
1.7833567e-06
1.8966641e-06
2.1481409e-06
2.3654327e-06
2.6347163e-06
2.9147883e-06
3.3712756e-06
3.6480357e-06
3.9641923e-06
4.1662095e-06
4.5069751e-06
4.7545573e-06
5.1588393e-06
5.4636676e-06
6.0636841e-06
1.0037915e-06
1.000265e-06
1.0132159e-06
1.008525e-06
9.8000248e-07
9.4265841e-07
9.1057843e-07
8.883782e-07
8.7972091e-07
8.8540879e-07
9.0048354e-07
9.1588135e-07
9.2644772e-07
9.3299332e-07
9.3553626e-07
9.3412599e-07
9.3186459e-07
9.2638194e-07
9.1904531e-07
9.1558115e-07
9.1309757e-07
9.1184783e-07
9.1471474e-07
9.1879879e-07
9.2047571e-07
9.217287e-07
9.2584601e-07
9.3650668e-07
9.4241893e-07
9.4833453e-07
9.5950388e-07
9.7368162e-07
9.8624982e-07
1.0051886e-06
1.0287428e-06
1.072141e-06
1.1298416e-06
1.234674e-06
1.3815915e-06
1.4554125e-06
1.6554125e-06
1.7948026e-06
2.0738688e-06
2.2917615e-06
2.610323e-06
2.8349113e-06
3.3215607e-06
3.6131707e-06
3.9624943e-06
4.1594314e-06
4.6061111e-06
4.9049032e-06
5.3866438e-06
5.7406034e-06
6.2745346e-06
1.0037678e-06
1.000068e-06
1.0138146e-06
1.0103294e-06
9.821562e-07
9.4458471e-07
9.1212109e-07
8.8861016e-07
8.7935631e-07
8.8490096e-07
9.000235e-07
9.1527037e-07
9.2666467e-07
9.3418736e-07
9.3793645e-07
9.3696219e-07
9.3486708e-07
9.2875837e-07
9.2194104e-07
9.1958088e-07
9.168014e-07
9.1453222e-07
9.1589637e-07
9.1959189e-07
9.2101348e-07
9.2183328e-07
9.2661723e-07
9.3693745e-07
9.4268923e-07
9.4823787e-07
9.5859418e-07
9.7262544e-07
9.856654e-07
1.0062761e-06
1.0257172e-06
1.0468253e-06
1.0903831e-06
1.1428917e-06
1.2493994e-06
1.3362016e-06
1.4746707e-06
1.5764358e-06
1.8046542e-06
1.975682e-06
2.3397165e-06
2.5176509e-06
2.9265862e-06
3.2762765e-06
3.7066894e-06
4.0645885e-06
4.5392853e-06
4.8510821e-06
5.2823567e-06
5.6910085e-06
6.2976305e-06
1.0039659e-06
9.9983162e-07
1.0140441e-06
1.0115046e-06
9.8391955e-07
9.4685013e-07
9.1330807e-07
8.893335e-07
8.7923446e-07
8.8436752e-07
8.9885022e-07
9.1439618e-07
9.2542373e-07
9.3425698e-07
9.3850355e-07
9.3723627e-07
9.3451246e-07
9.2892282e-07
9.2251154e-07
9.1917461e-07
9.1624189e-07
9.1439392e-07
9.1531717e-07
9.1806337e-07
9.2022747e-07
9.2120008e-07
9.2620755e-07
9.357857e-07
9.4170256e-07
9.4798086e-07
9.5909425e-07
9.7240111e-07
9.8575409e-07
1.0085699e-06
1.0296154e-06
1.0438194e-06
1.0819856e-06
1.127684e-06
1.2115068e-06
1.2814012e-06
1.4067397e-06
1.4877237e-06
1.6584751e-06
1.7988298e-06
2.0563411e-06
2.1761837e-06
2.4775224e-06
2.7079207e-06
3.0165583e-06
3.5027842e-06
3.984755e-06
4.2713962e-06
4.7921203e-06
5.4410688e-06
6.0666104e-06
1.0040256e-06
9.996854e-07
1.0145287e-06
1.0130935e-06
9.8602701e-07
9.4854555e-07
9.1486935e-07
8.9081613e-07
8.7970658e-07
8.8389111e-07
8.9758351e-07
9.125796e-07
9.2473e-07
9.3424041e-07
9.3897412e-07
9.391526e-07
9.3656412e-07
9.3123698e-07
9.2459072e-07
9.2173562e-07
9.1822852e-07
9.1614271e-07
9.1720147e-07
9.1905747e-07
9.2108169e-07
9.2225473e-07
9.2769824e-07
9.3615522e-07
9.413293e-07
9.4796606e-07
9.5914223e-07
9.7028142e-07
9.8426765e-07
1.0078234e-06
1.0309012e-06
1.0455761e-06
1.0808089e-06
1.1177374e-06
1.1840563e-06
1.245353e-06
1.3590996e-06
1.4407898e-06
1.5999095e-06
1.7184231e-06
1.9107574e-06
2.029203e-06
2.2475747e-06
2.4024524e-06
2.7025989e-06
2.9672515e-06
3.4571596e-06
3.7871276e-06
4.2880595e-06
4.6233355e-06
5.3590181e-06
1.0042406e-06
9.9954839e-07
1.0148164e-06
1.0143363e-06
9.8793902e-07
9.5009372e-07
9.1632372e-07
8.9240001e-07
8.8009468e-07
8.8265568e-07
8.9630241e-07
9.1104878e-07
9.2344184e-07
9.3356661e-07
9.3913066e-07
9.3944396e-07
9.3655362e-07
9.3139355e-07
9.2544958e-07
9.2205128e-07
9.1926227e-07
9.1724956e-07
9.1774883e-07
9.1854554e-07
9.2012855e-07
9.2148019e-07
9.2828146e-07
9.3638773e-07
9.4088576e-07
9.4733082e-07
9.5868169e-07
9.6834657e-07
9.834603e-07
1.006588e-06
1.0300576e-06
1.0479083e-06
1.0808456e-06
1.109034e-06
1.1591839e-06
1.2083527e-06
1.303067e-06
1.3821651e-06
1.5282796e-06
1.6299711e-06
1.7996591e-06
1.9115893e-06
2.1116762e-06
2.2353738e-06
2.5069208e-06
2.6794035e-06
3.0392127e-06
3.3086576e-06
3.7160993e-06
3.9588575e-06
4.4918305e-06
1.0043718e-06
9.9948852e-07
1.0153368e-06
1.0156279e-06
9.8938842e-07
9.5152509e-07
9.1745854e-07
8.9324291e-07
8.8025818e-07
8.8289451e-07
8.9619482e-07
9.1066393e-07
9.2323093e-07
9.3423673e-07
9.3911298e-07
9.4016393e-07
9.3791058e-07
9.3249557e-07
9.2667948e-07
9.24027e-07
9.2077817e-07
9.1912158e-07
9.1966695e-07
9.1995179e-07
9.2101653e-07
9.2219387e-07
9.293291e-07
9.3706104e-07
9.4118914e-07
9.4729678e-07
9.5890962e-07
9.6813934e-07
9.8321441e-07
1.0049395e-06
1.0289257e-06
1.048484e-06
1.0810975e-06
1.1072321e-06
1.1512561e-06
1.1911108e-06
1.2711058e-06
1.3455415e-06
1.4849983e-06
1.5751606e-06
1.7306243e-06
1.819253e-06
2.0251831e-06
2.1365411e-06
2.3700944e-06
2.5429803e-06
2.850743e-06
3.0537131e-06
3.5065158e-06
3.8250187e-06
4.3204635e-06
1.0044761e-06
9.9944254e-07
1.0158428e-06
1.0166446e-06
9.9051568e-07
9.529374e-07
9.1906217e-07
8.9366673e-07
8.8071295e-07
8.8204733e-07
8.9603008e-07
9.0998073e-07
9.2232525e-07
9.3373973e-07
9.400762e-07
9.4114704e-07
9.3940854e-07
9.3443216e-07
9.2860248e-07
9.2600398e-07
9.2308197e-07
9.2151232e-07
9.2171755e-07
9.2111606e-07
9.2141154e-07
9.2230746e-07
9.2952003e-07
9.3713064e-07
9.4110159e-07
9.4715153e-07
9.5880367e-07
9.679327e-07
9.8228455e-07
1.0014883e-06
1.0255101e-06
1.0481267e-06
1.0829511e-06
1.1091026e-06
1.151046e-06
1.1856804e-06
1.2567402e-06
1.3257979e-06
1.4550079e-06
1.5357333e-06
1.689198e-06
1.7692715e-06
1.9701231e-06
2.0835407e-06
2.3047687e-06
2.4670898e-06
2.7235602e-06
2.8485543e-06
3.1762958e-06
3.4809273e-06
3.88118e-06
1.0045409e-06
9.9944919e-07
1.0163407e-06
1.0177388e-06
9.9202435e-07
9.5429269e-07
9.2033075e-07
8.9425165e-07
8.8072437e-07
8.8184735e-07
8.9458121e-07
9.099651e-07
9.228068e-07
9.3433328e-07
9.4205289e-07
9.4329496e-07
9.4043661e-07
9.3570009e-07
9.3013958e-07
9.2663824e-07
9.2390918e-07
9.2197377e-07
9.2255206e-07
9.2223665e-07
9.2270411e-07
9.2355399e-07
9.3078805e-07
9.3795238e-07
9.4127808e-07
9.4665278e-07
9.5723581e-07
9.6611669e-07
9.8069864e-07
9.9777748e-07
1.0221711e-06
1.0468207e-06
1.0867024e-06
1.1157348e-06
1.1578445e-06
1.1885893e-06
1.2534687e-06
1.3167988e-06
1.4374416e-06
1.5078501e-06
1.6571763e-06
1.7324189e-06
1.9141536e-06
2.0710934e-06
2.2553731e-06
2.4644288e-06
2.7418539e-06
2.8341085e-06
3.1318021e-06
3.3352928e-06
3.6623281e-06
1.0046609e-06
9.9938222e-07
1.0164504e-06
1.0187907e-06
9.9356269e-07
9.5593321e-07
9.2125141e-07
8.9494715e-07
8.8109182e-07
8.8174232e-07
8.9405049e-07
9.0900251e-07
9.2308768e-07
9.3488222e-07
9.4314195e-07
9.4496972e-07
9.4236708e-07
9.3696819e-07
9.3049858e-07
9.2776886e-07
9.2453702e-07
9.2320789e-07
9.2340344e-07
9.2271841e-07
9.2272996e-07
9.2363017e-07
9.3055137e-07
9.3759815e-07
9.4118279e-07
9.4644608e-07
9.557607e-07
9.6442049e-07
9.7973132e-07
9.9507329e-07
1.0195052e-06
1.0440793e-06
1.0884358e-06
1.1189791e-06
1.1614181e-06
1.1976287e-06
1.2407535e-06
1.3258423e-06
1.4006282e-06
1.4885096e-06
1.6133937e-06
1.6760884e-06
1.8371919e-06
1.981661e-06
2.1369327e-06
2.3473139e-06
2.6181628e-06
2.7128433e-06
3.0113308e-06
3.179612e-06
3.4226056e-06
1.0047712e-06
9.9922979e-07
1.0166073e-06
1.0196449e-06
9.9486224e-07
9.5737031e-07
9.2224864e-07
8.9572666e-07
8.8115323e-07
8.8070769e-07
8.9289991e-07
9.0804963e-07
9.2179828e-07
9.3473612e-07
9.4391342e-07
9.4550082e-07
9.4355337e-07
9.3851322e-07
9.3153376e-07
9.2863338e-07
9.2540878e-07
9.2317602e-07
9.2279615e-07
9.2261748e-07
9.2260775e-07
9.2356312e-07
9.3029427e-07
9.3713881e-07
9.412529e-07
9.4647835e-07
9.544251e-07
9.6231028e-07
9.7762782e-07
9.9269993e-07
1.0162155e-06
1.0393244e-06
1.0858043e-06
1.1151428e-06
1.1589167e-06
1.2001826e-06
1.2379889e-06
1.3295714e-06
1.4005818e-06
1.4894951e-06
1.5532824e-06
1.6665087e-06
1.7895129e-06
1.9421302e-06
2.0438243e-06
2.2087439e-06
2.5268038e-06
2.6249626e-06
2.8416494e-06
3.0428597e-06
3.1999033e-06
1.0048846e-06
9.9901491e-07
1.0167455e-06
1.0202308e-06
9.9590831e-07
9.5852065e-07
9.2321402e-07
8.9630993e-07
8.812876e-07
8.8027228e-07
8.9151748e-07
9.0667684e-07
9.2031663e-07
9.3387255e-07
9.4321362e-07
9.4555511e-07
9.4418605e-07
9.3930714e-07
9.3354176e-07
9.2967634e-07
9.2664484e-07
9.2438439e-07
9.2381578e-07
9.2356396e-07
9.2334103e-07
9.2497261e-07
9.3159202e-07
9.384749e-07
9.4280714e-07
9.4760769e-07
9.5436575e-07
9.6236807e-07
9.7700598e-07
9.923439e-07
1.0105938e-06
1.0324125e-06
1.0801552e-06
1.1054775e-06
1.1496616e-06
1.1910494e-06
1.2327738e-06
1.3287639e-06
1.4003494e-06
1.4832928e-06
1.5399594e-06
1.6696708e-06
1.7744493e-06
1.9332998e-06
2.0260994e-06
2.1746516e-06
2.4341185e-06
2.6619208e-06
2.7475106e-06
2.9762215e-06
3.2055412e-06
1.0049695e-06
9.9875342e-07
1.0167063e-06
1.0209016e-06
9.9694402e-07
9.5977951e-07
9.2395498e-07
8.9702538e-07
8.821791e-07
8.8036285e-07
8.912399e-07
9.0588097e-07
9.197169e-07
9.3384602e-07
9.4343704e-07
9.4685261e-07
9.4551802e-07
9.3992093e-07
9.338658e-07
9.302355e-07
9.2666634e-07
9.2496522e-07
9.2458048e-07
9.2335329e-07
9.2217835e-07
9.2392556e-07
9.3069471e-07
9.3795216e-07
9.4331519e-07
9.487243e-07
9.5549175e-07
9.638731e-07
9.7839199e-07
9.9115529e-07
1.0059065e-06
1.0251546e-06
1.0717793e-06
1.0998889e-06
1.1413782e-06
1.1802633e-06
1.22363e-06
1.3258515e-06
1.3952226e-06
1.4738566e-06
1.5343128e-06
1.6596588e-06
1.7589973e-06
1.8938037e-06
1.9813462e-06
2.1478653e-06
2.3851254e-06
2.5804936e-06
2.6773101e-06
2.8485196e-06
3.189149e-06
1.0050795e-06
9.9842728e-07
1.0164831e-06
1.0215476e-06
9.9797137e-07
9.6110773e-07
9.2526686e-07
8.9804464e-07
8.8199842e-07
8.7955664e-07
8.9093147e-07
9.0630473e-07
9.21056e-07
9.347449e-07
9.4566329e-07
9.4939654e-07
9.4771282e-07
9.4163244e-07
9.350137e-07
9.3218437e-07
9.2880703e-07
9.2599649e-07
9.2583233e-07
9.2496785e-07
9.2400007e-07
9.2484046e-07
9.307429e-07
9.3720082e-07
9.4316308e-07
9.4913781e-07
9.5573495e-07
9.6394972e-07
9.7826093e-07
9.9004589e-07
1.0016173e-06
1.0213028e-06
1.0665386e-06
1.0936779e-06
1.140656e-06
1.1684489e-06
1.2284094e-06
1.2962398e-06
1.3901648e-06
1.4436484e-06
1.522394e-06
1.6264918e-06
1.7309152e-06
1.8055104e-06
1.9515611e-06
2.1011694e-06
2.2740331e-06
2.4079114e-06
2.5270724e-06
2.6963783e-06
3.1125447e-06
1.0051663e-06
9.9822395e-07
1.0164418e-06
1.0220441e-06
9.9895099e-07
9.6222132e-07
9.2670442e-07
8.9870306e-07
8.8154443e-07
8.7873479e-07
8.8981867e-07
9.0577034e-07
9.207739e-07
9.3494229e-07
9.4622383e-07
9.5058741e-07
9.4989941e-07
9.4364575e-07
9.3890517e-07
9.3498147e-07
9.3168944e-07
9.2856049e-07
9.2725353e-07
9.2654105e-07
9.2592036e-07
9.2651168e-07
9.3168388e-07
9.3744581e-07
9.4365768e-07
9.5004265e-07
9.5557559e-07
9.6367911e-07
9.7728665e-07
9.9031867e-07
9.9856471e-07
1.0227115e-06
1.06229e-06
1.089492e-06
1.1399766e-06
1.1720604e-06
1.2204725e-06
1.2772055e-06
1.3797919e-06
1.4237462e-06
1.5114929e-06
1.5701324e-06
1.6891955e-06
1.7670654e-06
1.9116742e-06
2.0340982e-06
2.1360176e-06
2.263419e-06
2.4314756e-06
2.6493015e-06
2.9125317e-06
1.0051849e-06
9.9801667e-07
1.0164606e-06
1.0224227e-06
9.9965507e-07
9.6318105e-07
9.2745695e-07
8.9908796e-07
8.8251072e-07
8.7887366e-07
8.8914727e-07
9.0470815e-07
9.1938573e-07
9.3410496e-07
9.4607049e-07
9.5177316e-07
9.5145616e-07
9.4512354e-07
9.4108464e-07
9.3476255e-07
9.3074174e-07
9.2828892e-07
9.264527e-07
9.2538343e-07
9.2369033e-07
9.2429245e-07
9.2993437e-07
9.3599965e-07
9.4279233e-07
9.4978698e-07
9.5474733e-07
9.630893e-07
9.7589626e-07
9.8913274e-07
9.9808196e-07
1.0248887e-06
1.0555775e-06
1.092546e-06
1.132856e-06
1.1792649e-06
1.2159859e-06
1.2824793e-06
1.3611364e-06
1.4215433e-06
1.4944875e-06
1.5664282e-06
1.6397996e-06
1.7682842e-06
1.8588437e-06
2.0140457e-06
2.069095e-06
2.2300202e-06
2.3688721e-06
2.6048628e-06
2.8103129e-06
1.00524e-06
9.9779964e-07
1.0165509e-06
1.0229252e-06
1.0003528e-06
9.6416042e-07
9.2800076e-07
8.9969983e-07
8.8358324e-07
8.7888658e-07
8.8864705e-07
9.0391487e-07
9.189186e-07
9.336247e-07
9.4624504e-07
9.5234823e-07
9.5128623e-07
9.4528127e-07
9.4025345e-07
9.3358389e-07
9.2841997e-07
9.2583495e-07
9.2373246e-07
9.2233384e-07
9.207066e-07
9.2160294e-07
9.2693293e-07
9.3293673e-07
9.3996598e-07
9.4703553e-07
9.5178144e-07
9.6046838e-07
9.7288829e-07
9.8596286e-07
9.9697871e-07
1.0252078e-06
1.0497806e-06
1.0931299e-06
1.1285255e-06
1.1826264e-06
1.221745e-06
1.3055132e-06
1.3621773e-06
1.4467148e-06
1.5043166e-06
1.6029927e-06
1.6663139e-06
1.7933308e-06
1.8645406e-06
2.0354641e-06
2.1041046e-06
2.2823265e-06
2.3893088e-06
2.6216427e-06
2.8092706e-06
1.0052227e-06
9.9746694e-07
1.0164507e-06
1.0232376e-06
1.0011421e-06
9.6483745e-07
9.2903983e-07
9.0034642e-07
8.826188e-07
8.7786616e-07
8.8704579e-07
9.0211598e-07
9.1824518e-07
9.324105e-07
9.4450565e-07
9.5089069e-07
9.4966598e-07
9.4337158e-07
9.3701612e-07
9.3183013e-07
9.2547287e-07
9.2041424e-07
9.1830734e-07
9.1720079e-07
9.1584653e-07
9.1634356e-07
9.2077502e-07
9.2567467e-07
9.3204646e-07
9.3883801e-07
9.4375283e-07
9.5221144e-07
9.6378023e-07
9.7749523e-07
9.8980872e-07
1.0178748e-06
1.0395246e-06
1.0814009e-06
1.1186099e-06
1.1753353e-06
1.216845e-06
1.3085409e-06
1.3659759e-06
1.4564108e-06
1.5127637e-06
1.6237112e-06
1.6982376e-06
1.8212859e-06
1.9154191e-06
2.0475686e-06
2.1317499e-06
2.3234028e-06
2.427465e-06
2.6061363e-06
2.8160357e-06
1.0053081e-06
9.9724753e-07
1.0164628e-06
1.0236587e-06
1.0020919e-06
9.6534795e-07
9.2972548e-07
9.0037299e-07
8.8075973e-07
8.7578857e-07
8.8431575e-07
8.9888674e-07
9.1498835e-07
9.2926595e-07
9.400881e-07
9.458899e-07
9.4504192e-07
9.3693691e-07
9.3015353e-07
9.2437162e-07
9.1713794e-07
9.1066167e-07
9.0731958e-07
9.050273e-07
9.0314396e-07
9.0274976e-07
9.0614822e-07
9.1026376e-07
9.1627454e-07
9.2267018e-07
9.2762935e-07
9.3556077e-07
9.4457937e-07
9.5606848e-07
9.6581953e-07
9.8752346e-07
1.0030059e-06
1.0071841e-06
9.3555076e-07
1.1164617e-06
9.9688913e-07
1.0766424e-06
1.2816968e-06
1.3701531e-06
1.4235848e-06
1.535894e-06
1.6123785e-06
1.7163353e-06
1.8592866e-06
1.9344347e-06
2.0484645e-06
2.198882e-06
2.3368644e-06
2.4574774e-06
2.6577158e-06
1.0052089e-06
9.9695591e-07
1.0161061e-06
1.0233771e-06
1.001629e-06
9.6432489e-07
9.2752348e-07
8.9786948e-07
8.7809725e-07
8.7142414e-07
8.7883354e-07
8.9191241e-07
9.0632811e-07
9.1911378e-07
9.2913016e-07
9.3283309e-07
9.3139915e-07
9.1999247e-07
9.1293099e-07
9.041713e-07
8.9577723e-07
8.8825199e-07
8.8349977e-07
8.7911612e-07
8.7518974e-07
8.7358564e-07
8.755361e-07
8.1690577e-07
7.9827415e-07
8.8761211e-07
8.9181507e-07
8.9663887e-07
9.0072898e-07
7.9359064e-07
9.0965007e-07
9.1959105e-07
9.2547616e-07
6.3433757e-07
5.2706561e-07
9.7713447e-07
5.9587619e-07
6.1385756e-07
1.0817099e-06
1.1462301e-06
1.1953253e-06
1.2931969e-06
1.3707588e-06
1.4363443e-06
1.5951704e-06
1.6437845e-06
1.7698299e-06
1.8482174e-06
2.0323038e-06
2.0735112e-06
2.2684502e-06
1.0051603e-06
9.9634992e-07
1.0145778e-06
1.0204589e-06
9.9660346e-07
9.5751153e-07
9.1818851e-07
8.876195e-07
8.6726843e-07
8.5730894e-07
8.6190357e-07
8.7208788e-07
8.8323328e-07
8.9333214e-07
9.0157656e-07
9.0271382e-07
9.0012279e-07
8.8749067e-07
8.7944033e-07
8.6927884e-07
8.5913882e-07
8.5078313e-07
8.4490505e-07
8.3935443e-07
8.3451679e-07
8.3211736e-07
8.3266871e-07
6.7125629e-07
6.686221e-07
7.351691e-07
8.4374614e-07
8.471619e-07
8.4951893e-07
6.5738367e-07
8.5348232e-07
8.3608779e-07
6.6443637e-07
4.6149851e-07
3.4917555e-07
5.5301114e-07
3.5013799e-07
3.4403311e-07
8.7873282e-07
6.3460902e-07
7.6894286e-07
9.2075949e-07
9.7998398e-07
9.9311979e-07
1.0828908e-06
1.1121249e-06
1.2161041e-06
1.2430931e-06
1.376031e-06
1.3950677e-06
1.5421399e-06
1.0040601e-06
9.9274419e-07
1.0060318e-06
1.006388e-06
9.7752636e-07
9.3528879e-07
8.9385814e-07
8.6205364e-07
8.3981223e-07
8.2601403e-07
8.2487226e-07
8.3008149e-07
8.3718938e-07
8.4534604e-07
8.535566e-07
8.5564795e-07
8.5443486e-07
8.4483785e-07
8.3626716e-07
8.2638559e-07
8.1533023e-07
8.0574569e-07
7.980507e-07
7.9064977e-07
7.8489903e-07
7.8065052e-07
7.7908333e-07
6.5459295e-07
6.7891698e-07
6.4719975e-07
7.8533262e-07
7.8872119e-07
7.90571e-07
6.2644267e-07
7.9514591e-07
7.9588997e-07
6.1030984e-07
3.8457202e-07
3.2315709e-07
3.4355867e-07
2.7561955e-07
2.6400765e-07
7.8512348e-07
3.9890665e-07
4.6202902e-07
7.6146092e-07
7.841019e-07
7.7842593e-07
8.1174454e-07
8.1212547e-07
8.5495512e-07
8.5584286e-07
7.0216131e-07
7.4442492e-07
9.5548638e-07
9.987309e-07
9.7672946e-07
9.7752434e-07
9.7211559e-07
9.4379851e-07
9.0360312e-07
8.6413695e-07
8.3172513e-07
8.0544661e-07
7.8595711e-07
7.7587443e-07
7.7158031e-07
7.7150741e-07
7.7664925e-07
7.8114959e-07
7.821076e-07
7.8464773e-07
7.7821541e-07
7.7307898e-07
7.690792e-07
7.615464e-07
7.5362549e-07
7.4560192e-07
7.396002e-07
7.3350863e-07
7.2877235e-07
7.2748238e-07
6.8254198e-07
7.2791759e-07
6.2257809e-07
7.3148077e-07
7.3467779e-07
7.3622325e-07
6.3344374e-07
7.3968441e-07
7.4274007e-07
7.0007736e-07
3.6941854e-07
3.7482055e-07
3.1294925e-07
2.7871913e-07
3.0009639e-07
7.4481004e-07
3.5965384e-07
4.0499534e-07
7.1578516e-07
7.2419657e-07
7.1251064e-07
7.2542747e-07
6.3282574e-07
7.2983515e-07
7.2135726e-07
6.7464148e-07
4.6566991e-07
3.9063455e-07
9.8319416e-07
9.4860463e-07
9.415566e-07
9.3713515e-07
9.1785673e-07
8.8941187e-07
8.5853891e-07
8.2414092e-07
7.9056431e-07
7.6180406e-07
7.4378372e-07
7.3044835e-07
7.1759385e-07
7.1526209e-07
7.1557438e-07
7.1774615e-07
7.2453202e-07
7.2932886e-07
7.3781911e-07
7.4662994e-07
7.476507e-07
7.4553875e-07
7.4538999e-07
7.4427703e-07
7.4319213e-07
7.4574593e-07
7.520367e-07
7.5624488e-07
7.5989242e-07
6.6265252e-07
7.270309e-07
7.7072106e-07
7.7285687e-07
6.7472335e-07
7.7561051e-07
7.7857209e-07
7.8401092e-07
5.0916158e-07
4.9399061e-07
4.1651046e-07
3.9051664e-07
5.4732016e-07
8.0120335e-07
4.4560613e-07
4.7289884e-07
6.5294676e-07
7.9452683e-07
7.83356e-07
7.8292942e-07
6.2775516e-07
6.4890038e-07
7.6753305e-07
7.6565835e-07
6.5071936e-07
3.9309501e-07
9.6047318e-07
8.8972237e-07
8.7887507e-07
8.8613625e-07
9.104255e-07
9.1057807e-07
8.9753528e-07
8.7516884e-07
8.4271684e-07
8.1584166e-07
8.0741649e-07
7.992718e-07
7.9135404e-07
7.8877242e-07
7.8896269e-07
7.9143247e-07
7.9858126e-07
8.0681126e-07
8.233367e-07
8.4241828e-07
8.5484454e-07
8.6582386e-07
8.748475e-07
8.7038975e-07
8.583587e-07
8.8949693e-07
9.1347588e-07
9.402318e-07
9.5103812e-07
8.9753215e-07
9.3848778e-07
9.8697752e-07
9.6446091e-07
8.7778271e-07
9.0685127e-07
1.0009859e-06
1.0023004e-06
8.4702069e-07
7.6042305e-07
6.6911256e-07
6.3792189e-07
9.7907768e-07
9.7368461e-07
7.180307e-07
7.3496694e-07
8.1320674e-07
9.5654935e-07
9.6237785e-07
9.5760347e-07
9.2089232e-07
8.6893418e-07
9.4767811e-07
9.4557546e-07
9.3927374e-07
7.3568723e-07
7.0224947e-07
7.2754988e-07
7.6755818e-07
7.7784427e-07
8.0253362e-07
8.0223088e-07
7.8775286e-07
7.5934402e-07
7.2561573e-07
7.0523929e-07
6.9586982e-07
6.7857881e-07
6.7367659e-07
6.6820589e-07
6.6886524e-07
6.673693e-07
6.648061e-07
6.6826106e-07
6.6957634e-07
6.7504546e-07
6.8895262e-07
6.9915694e-07
7.1715603e-07
7.2853709e-07
7.2956493e-07
7.4095214e-07
7.4590027e-07
7.5659983e-07
7.7955834e-07
7.9335911e-07
8.1928022e-07
8.4439948e-07
8.5194517e-07
8.5817033e-07
8.6388144e-07
8.8085e-07
8.942602e-07
9.0282782e-07
9.0458916e-07
9.1790717e-07
9.0953787e-07
9.7397078e-07
9.8515954e-07
9.7784928e-07
9.7396359e-07
9.8063345e-07
9.9440806e-07
1.0072901e-06
1.009592e-06
1.0083223e-06
1.0077978e-06
1.00966e-06
1.0141843e-06
1.0174582e-06
1.0243368e-06
3.8843981e-07
6.3954031e-07
5.071267e-07
3.5749052e-07
2.7737782e-07
2.1191517e-07
1.7107366e-07
1.4517652e-07
1.2316565e-07
1.1189696e-07
1.1040341e-07
1.1220055e-07
1.0520098e-07
9.1018644e-08
7.8129377e-08
7.2887948e-08
7.6103254e-08
8.0919229e-08
8.4902513e-08
9.0171887e-08
9.6776402e-08
1.0338477e-07
1.1218738e-07
1.1837417e-07
1.1482204e-07
1.0411024e-07
9.1769884e-08
8.5706422e-08
9.0769413e-08
1.0317465e-07
1.2462666e-07
1.5834858e-07
1.9523863e-07
2.2781684e-07
2.5114501e-07
2.7407038e-07
2.9859883e-07
3.1856415e-07
3.2360036e-07
3.2216382e-07
3.3304601e-07
3.6575485e-07
4.1265086e-07
4.5018244e-07
4.712022e-07
4.8346207e-07
5.0512836e-07
5.3073829e-07
5.5606695e-07
5.7229857e-07
5.8952027e-07
6.1363394e-07
6.3958687e-07
6.6628905e-07
6.9064527e-07
6.7190726e-07
9.8663178e-07
6.1656049e-07
3.6941297e-07
3.948818e-07
7.6835782e-07
1.5129432e-06
2.3136822e-06
2.7907143e-06
2.9891722e-06
2.988687e-06
2.9197095e-06
3.0024677e-06
3.2630524e-06
3.4535408e-06
3.5099853e-06
3.5534193e-06
3.8016197e-06
4.0345119e-06
4.1280046e-06
4.4336515e-06
4.7638986e-06
5.7117256e-06
6.566032e-06
6.7754226e-06
6.8081424e-06
6.9229689e-06
6.0785175e-07
9.4429967e-07
7.2314667e-07
4.0847953e-07
3.3177154e-07
4.7361981e-07
1.2861591e-06
2.4480024e-06
3.0493806e-06
3.2893563e-06
3.289312e-06
3.1860755e-06
3.2264892e-06
3.4326226e-06
3.7427421e-06
3.8551675e-06
4.0186159e-06
4.2911224e-06
4.3609236e-06
4.4593492e-06
4.7806922e-06
4.9621135e-06
5.8593401e-06
7.0341434e-06
7.0191813e-06
7.5138774e-06
7.8746942e-06
5.621002e-07
8.8677892e-07
6.1222131e-07
3.4082594e-07
2.7443616e-07
4.9316879e-07
1.541711e-06
2.5721847e-06
3.2359759e-06
3.509223e-06
3.5302312e-06
3.4453539e-06
3.4811758e-06
3.7206414e-06
4.0333752e-06
4.2079093e-06
4.3802508e-06
4.6671372e-06
4.746126e-06
4.9202414e-06
5.45233e-06
5.5587915e-06
6.3218978e-06
7.3388392e-06
7.4226015e-06
8.2222774e-06
9.0762705e-06
5.4205925e-07
8.4897814e-07
5.0339387e-07
3.6441569e-07
4.0017648e-07
9.4584108e-07
1.5902631e-06
2.6564581e-06
3.3673016e-06
3.7145328e-06
3.7710841e-06
3.7217528e-06
3.740821e-06
3.993686e-06
4.4538773e-06
4.571557e-06
4.6741695e-06
4.888493e-06
5.0096812e-06
5.3066364e-06
5.917081e-06
6.1759036e-06
6.9905464e-06
8.2065785e-06
8.4337964e-06
9.1484461e-06
9.818038e-06
5.2732349e-07
8.1885395e-07
6.3445637e-07
6.3647958e-07
5.8675575e-07
8.2746531e-07
1.6299686e-06
2.9283241e-06
3.5762282e-06
4.1170557e-06
4.1451075e-06
4.0235302e-06
4.0837667e-06
4.4290096e-06
5.1302928e-06
5.4658703e-06
5.4513607e-06
5.5404949e-06
5.6923982e-06
5.9987855e-06
6.6834118e-06
7.0163499e-06
7.8403575e-06
9.1635695e-06
9.6596978e-06
9.7096332e-06
1.1082798e-05
5.3011595e-07
7.9074394e-07
8.6856666e-07
7.7979732e-07
4.7512466e-07
6.6602456e-07
1.6065636e-06
3.0332201e-06
3.9685486e-06
4.5051111e-06
4.5508071e-06
4.396806e-06
4.440832e-06
4.7710517e-06
5.4686433e-06
5.8755681e-06
6.0764222e-06
6.3040123e-06
6.2006186e-06
6.5256257e-06
7.2016004e-06
7.7407596e-06
8.3547401e-06
9.7614064e-06
1.0582376e-05
1.0451286e-05
1.1960294e-05
5.3418149e-07
7.3859727e-07
8.259106e-07
5.982731e-07
6.1501931e-07
9.6768156e-07
1.557544e-06
3.1322137e-06
4.3714651e-06
4.920029e-06
4.6853033e-06
5.0501305e-06
5.0333234e-06
5.2813221e-06
5.9632146e-06
6.6831727e-06
6.8694185e-06
7.0483699e-06
7.164338e-06
7.5276415e-06
7.9775067e-06
8.2552424e-06
8.7613853e-06
1.0845181e-05
1.1882647e-05
1.210328e-05
1.4130313e-05
4.9128287e-07
6.7244178e-07
6.0176035e-07
4.3980964e-07
4.5826381e-07
7.7312467e-07
1.5033528e-06
3.1087187e-06
3.8509244e-06
5.0106798e-06
5.9082465e-06
5.8502101e-06
5.8777018e-06
6.242646e-06
7.0979824e-06
7.4580909e-06
7.5337657e-06
7.6376603e-06
7.8957006e-06
8.5615156e-06
9.3113302e-06
9.4559595e-06
9.8698199e-06
1.2111663e-05
1.3613144e-05
1.3932232e-05
1.6514851e-05
4.3329768e-07
6.2024434e-07
7.2676835e-07
4.6013197e-07
3.5280788e-07
4.7458679e-07
1.1956513e-06
2.6446944e-06
4.101387e-06
5.8595083e-06
6.4303449e-06
6.3896829e-06
6.4919683e-06
6.994469e-06
7.960791e-06
8.4531098e-06
8.5988505e-06
8.9250019e-06
9.2374633e-06
9.7453275e-06
1.0477355e-05
1.0932678e-05
1.1438811e-05
1.3098558e-05
1.5134936e-05
1.5529945e-05
1.8976261e-05
4.1287464e-07
5.9490778e-07
5.2107867e-07
3.266082e-07
2.8632824e-07
5.3701335e-07
1.6281252e-06
3.5058896e-06
5.3845875e-06
6.4114558e-06
5.6417051e-06
5.6090242e-06
6.7886711e-06
7.3184662e-06
8.3696515e-06
9.7045837e-06
1.038782e-05
1.0504e-05
1.0489034e-05
1.1051587e-05
1.1668957e-05
1.224373e-05
1.3029983e-05
1.4660023e-05
1.636808e-05
1.7046262e-05
2.053119e-05
4.1217828e-07
5.7949123e-07
3.664833e-07
3.5577781e-07
4.6677872e-07
1.0397118e-06
1.8329051e-06
3.8752084e-06
5.9616416e-06
6.9810575e-06
7.3773158e-06
7.2688853e-06
7.3971528e-06
8.0162294e-06
9.1956381e-06
1.1118156e-05
1.2049374e-05
1.1932623e-05
1.1546321e-05
1.2346735e-05
1.3298895e-05
1.4195767e-05
1.4715603e-05
1.6281834e-05
1.7799002e-05
1.8572522e-05
2.2769759e-05
4.1587669e-07
5.7641484e-07
4.2499567e-07
5.2297031e-07
6.1056228e-07
1.1147437e-06
2.0768927e-06
4.2865737e-06
6.534862e-06
7.7842154e-06
8.3163664e-06
8.2572215e-06
8.5790258e-06
9.6756793e-06
1.129071e-05
1.3089088e-05
1.3745561e-05
1.3692292e-05
1.3301837e-05
1.3931128e-05
1.4944334e-05
1.6148769e-05
1.7333822e-05
1.9086053e-05
2.0917026e-05
2.201377e-05
2.7004663e-05
4.6516678e-07
5.7743224e-07
6.5589853e-07
5.6062166e-07
6.1481031e-07
1.1327871e-06
2.3448716e-06
3.9129571e-06
5.3016774e-06
6.390857e-06
6.2850546e-06
5.8113066e-06
7.2637577e-06
1.1003026e-05
1.2704642e-05
1.4248575e-05
1.4815911e-05
1.5044392e-05
1.5503435e-05
1.6845133e-05
1.827535e-05
1.9044906e-05
2.0131899e-05
2.2883036e-05
2.7450986e-05
3.0159734e-05
3.3614905e-05
5.1809391e-07
5.6150647e-07
5.1226998e-07
6.9349197e-07
9.3264272e-07
1.3454984e-06
2.4475582e-06
5.0529307e-06
6.9391102e-06
5.6013917e-06
5.0575395e-06
5.7269283e-06
8.2137104e-06
1.2520854e-05
1.4637033e-05
1.6050151e-05
1.6296045e-05
1.6460079e-05
1.7187022e-05
1.9616768e-05
2.270703e-05
2.4190812e-05
2.3975766e-05
2.5458922e-05
3.0775708e-05
3.7057404e-05
3.9882085e-05
5.0550509e-07
5.3513958e-07
4.9915751e-07
6.0082905e-07
8.8424081e-07
1.359766e-06
2.4438352e-06
5.0245947e-06
6.8379822e-06
9.2481873e-06
1.1398314e-05
1.1807375e-05
1.0656976e-05
1.1225316e-05
1.4719336e-05
1.9898721e-05
2.0131523e-05
1.9613072e-05
1.9359047e-05
2.1906889e-05
2.6070634e-05
2.8346429e-05
2.974507e-05
3.0188909e-05
3.5228452e-05
4.1346184e-05
4.4489252e-05
4.5819909e-07
5.2838736e-07
5.9334413e-07
6.6379614e-07
8.4242859e-07
1.4556088e-06
2.6704728e-06
4.3850035e-06
6.4084064e-06
8.3687941e-06
9.0198922e-06
9.4813446e-06
1.3236109e-05
1.7016991e-05
2.0635286e-05
2.4958512e-05
2.6289512e-05
2.5650766e-05
2.3820172e-05
2.4735573e-05
2.8107012e-05
3.0369564e-05
3.1934078e-05
3.5229844e-05
4.0620988e-05
4.4670388e-05
4.7752022e-05
4.3725048e-07
5.4271227e-07
4.5430355e-07
4.6235708e-07
9.3011697e-07
1.7401551e-06
3.3005567e-06
6.7431853e-06
1.0706927e-05
9.1564293e-06
7.5568424e-06
7.6128889e-06
1.0458668e-05
1.679005e-05
2.3867592e-05
3.0000327e-05
3.4149669e-05
3.4885551e-05
3.3682211e-05
3.3251419e-05
3.515196e-05
3.6415997e-05
3.8931928e-05
4.3067937e-05
4.913241e-05
5.1476909e-05
5.2780641e-05
4.5687563e-07
5.3942833e-07
3.6640456e-07
6.5675469e-07
1.2845291e-06
2.1803895e-06
4.1497869e-06
7.9692752e-06
1.1632373e-05
1.3264381e-05
1.4538745e-05
1.5398003e-05
1.6344918e-05
1.7490063e-05
2.0383037e-05
2.735445e-05
3.7862166e-05
4.0072171e-05
4.1300511e-05
4.4006204e-05
4.6725716e-05
4.75447e-05
4.772547e-05
4.9222141e-05
5.6487008e-05
6.3209301e-05
6.5278307e-05
5.7315486e-07
5.4308665e-07
5.3623708e-07
7.4610473e-07
1.5732077e-06
2.6970965e-06
5.0432827e-06
8.0486473e-06
1.2926128e-05
1.4656622e-05
1.6258382e-05
1.7375286e-05
2.0247312e-05
2.5453718e-05
3.1488627e-05
3.3181313e-05
3.5259184e-05
4.4889463e-05
4.6138021e-05
5.1503883e-05
5.8720002e-05
6.1297359e-05
5.9387998e-05
5.7024756e-05
6.0185672e-05
6.9194597e-05
7.8448544e-05
5.5368344e-07
6.8729144e-07
7.6752753e-07
9.8441225e-07
2.0135516e-06
3.5694094e-06
5.0502025e-06
7.1668171e-06
9.4815437e-06
1.1366307e-05
1.2584626e-05
1.6248376e-05
2.4073337e-05
3.0168932e-05
3.8568594e-05
4.9189078e-05
5.4421363e-05
4.8378473e-05
5.3078517e-05
6.027008e-05
6.5740226e-05
6.9580467e-05
6.8277018e-05
6.5628988e-05
6.7052473e-05
7.5695656e-05
8.6085914e-05
7.2394155e-07
7.2061692e-07
6.7788424e-07
1.4083357e-06
2.1878594e-06
3.9349112e-06
7.422627e-06
1.0536668e-05
9.8798776e-06
9.5714877e-06
1.0065713e-05
1.2922364e-05
2.0022034e-05
3.6823284e-05
4.5664686e-05
5.661155e-05
6.159002e-05
6.4299939e-05
6.6209484e-05
6.9248845e-05
7.3579799e-05
7.9225439e-05
7.9639241e-05
7.8953469e-05
8.1104744e-05
9.0823003e-05
0.0001008808
7.6483013e-07
7.429432e-07
9.9422333e-07
1.495188e-06
2.2012144e-06
3.6856088e-06
7.0330221e-06
1.3204957e-05
1.9429239e-05
1.7936631e-05
1.7135705e-05
1.7770277e-05
2.050658e-05
2.8502401e-05
4.5277817e-05
6.6811984e-05
7.1031706e-05
7.3970593e-05
7.6504692e-05
8.0263251e-05
8.5795287e-05
9.2704432e-05
9.4159855e-05
9.5646991e-05
9.8746322e-05
0.00011191777
0.00012527598
7.1126504e-07
7.8909723e-07
1.1457209e-06
1.7672607e-06
2.659844e-06
4.4436346e-06
7.1509898e-06
9.2781761e-06
1.3444142e-05
2.2592478e-05
3.1247048e-05
3.6372645e-05
3.368557e-05
3.17005e-05