/*--------------------------------*- C++ -*----------------------------------*\
| =========                 |                                                 |
| \\      /  F ield         | OpenFOAM: The Open Source CFD Toolbox           |
|  \\    /   O peration     | Version:  2406                                  |
|   \\  /    A nd           | Website:  www.openfoam.com                      |
|    \\/     M anipulation  |                                                 |
\*---------------------------------------------------------------------------*/
FoamFile
{
    version     2.0;
    format      ascii;
    arch        "LSB;label=32;scalar=64";
    class       volScalarField;
    location    "10";
    object      omega_0;
}
// * * * * * * * * * * * * * * * * * * * * * * * * * * * * * * * * * * * * * //

dimensions      [0 0 -1 0 0 0 0];

internalField   nonuniform List<scalar> 
30397
(
3.8751566
3.8741699
3.8682912
3.8633162
3.8567163
3.8510674
3.8452799
3.8405617
3.837681
3.8357418
3.832039
3.8274691
3.8228223
3.8175295
3.8125039
3.8084551
3.8040081
3.7995552
3.796967
3.7959451
3.7944321
3.7923668
3.7904595
3.788358
3.7860062
3.7836749
3.7819735
3.7809988
3.779999
3.7791606
3.778676
3.7782842
3.7779342
3.7775691
3.77709
3.7765182
3.7760495
3.7756628
3.7753427
3.7752652
3.7753264
3.7753983
3.7753874
3.7754701
3.7755229
3.7751909
3.7752053
3.4870924
3.4728647
3.4566042
3.442495
3.4288789
3.4141511
3.3981088
3.3849225
3.3777199
3.3745365
3.3709914
3.3649613
3.3570462
3.348318
3.3388991
3.3292232
3.3194523
3.3110222
3.3048458
3.3006553
3.2973108
3.2951005
3.2925125
3.288172
3.282643
3.2772971
3.2724373
3.2679993
3.2636134
3.2596174
3.2565185
3.2542404
3.2519714
3.2492013
3.2459775
3.2427166
3.2398431
3.2372062
3.2344409
3.2314876
3.228199
3.2244967
3.2200875
3.2152011
3.2102627
3.2066246
3.2044056
3.1741868
3.1493972
3.1295701
3.1110254
3.0962095
3.0789486
3.0605465
3.0438485
3.032875
3.0260383
3.0211168
3.0128057
3.0015913
2.9907741
2.9793316
2.9673911
2.9555476
2.9446348
2.9363076
2.9301103
2.9251509
2.9204676
2.9150902
2.9078336
2.8995994
2.8911963
2.8835368
2.8762049
2.8691234
2.8627557
2.8571902
2.8523139
2.8475605
2.8423909
2.8368289
2.8311979
2.8259044
2.8204788
2.8147699
2.808554
2.8019015
2.7951975
2.7883684
2.7817849
2.7762322
2.7727543
2.770696
2.9061659
2.8765485
2.8578302
2.8367578
2.8210798
2.8025958
2.7849429
2.7678947
2.7548297
2.7452087
2.737925
2.7272896
2.7147671
2.7021722
2.6876882
2.6741685
2.6614865
2.6491326
2.640091
2.6325545
2.6248219
2.6164114
2.6078408
2.5987725
2.5891907
2.5801994
2.5719235
2.5632726
2.5546957
2.5467746
2.5391892
2.5316079
2.5240159
2.5162218
2.5080949
2.4998238
2.4920616
2.4842163
2.476581
2.4690404
2.4616944
2.4548608
2.4485888
2.4430849
2.4387256
2.4357933
2.433129
2.6577646
2.6461769
2.6302593
2.6081471
2.5918777
2.5724858
2.5555978
2.5382165
2.5242322
2.5123949
2.5020323
2.4910899
2.4788027
2.4634388
2.4468802
2.4334347
2.4205891
2.4079473
2.3982772
2.3890639
2.3794704
2.3690731
2.3587742
2.3494538
2.3400203
2.3310846
2.3217385
2.3120508
2.30268
2.293231
2.2840372
2.2752082
2.2663676
2.2573074
2.248212
2.2392862
2.2309506
2.222826
2.2153722
2.2086958
2.2025694
2.1969222
2.1916941
2.186854
2.1824196
2.1785197
2.1744481
2.4780325
2.4528383
2.4407647
2.418645
2.4024624
2.3831686
2.3666106
2.3486439
2.3334818
2.319516
2.307323
2.2967644
2.2834909
2.2669076
2.2514265
2.2386325
2.2258362
2.2141221
2.2043034
2.1937097
2.1831338
2.1727635
2.1622948
2.1535645
2.1446973
2.1353462
2.1249459
2.1146829
2.1048795
2.0951713
2.0860335
2.0769937
2.067549
2.0579465
2.0485334
2.0396168
2.0315866
2.0245478
2.0183774
2.0128009
2.0075145
2.0022671
1.9968421
1.9916784
1.9868229
1.9823815
1.9780011
2.3678975
2.2930556
2.2835017
2.2615762
2.2458442
2.2267755
2.2104182
2.1927072
2.1763581
2.1610112
2.1481809
2.1364157
2.1227628
2.1076541
2.0931176
2.0800277
2.0682638
2.0580308
2.047892
2.0375022
2.0281301
2.0182261
2.0087812
2.0004888
1.9911396
1.9807727
1.9694702
1.9588079
1.9486381
1.9389146
1.9295353
1.9198374
1.9100573
1.9008483
1.8927699
1.8861183
1.8803232
1.874775
1.869197
1.8636109
1.8578655
1.8521183
1.8465045
1.8414472
1.8369836
1.8329658
1.829074
2.2800503
2.1619279
2.1522702
2.1304696
2.1147342
2.096258
2.0799554
2.0631062
2.0467335
2.0313697
2.0175231
2.0040119
1.9910576
1.9772419
1.9625299
1.9502131
1.9403326
1.9305173
1.9201411
1.9114256
1.904235
1.8953364
1.8862527
1.8774865
1.8663016
1.8546663
1.8431691
1.8324256
1.8221317
1.8126242
1.8034084
1.7941199
1.7855133
1.778322
1.7725053
1.7673813
1.761935
1.7560688
1.7498131
1.743518
1.7374915
1.7318874
1.7267883
1.7223684
1.718357
1.7144105
1.7104573
2.2020874
2.052298
2.0408918
2.0196416
2.0034518
1.98501
1.9690015
1.9532359
1.9380401
1.9231013
1.9077854
1.8935958
1.8812417
1.8672983
1.8538238
1.8431235
1.8341702
1.8250311
1.8157238
1.8088602
1.8027177
1.794207
1.7846918
1.7743049
1.7625197
1.7513421
1.7399207
1.7286501
1.7182408
1.709378
1.7008879
1.6927871
1.6860437
1.6805743
1.6754131
1.6698693
1.6636952
1.6573742
1.6511298
1.6451073
1.6394369
1.6343238
1.6295961
1.6253081
1.621107
1.6170291
1.6129158
2.1420267
1.9575213
1.9439195
1.9233698
1.9074512
1.8891241
1.8733334
1.8584588
1.8451412
1.8307976
1.8149128
1.8005173
1.7873992
1.7740397
1.762599
1.7534553
1.7450313
1.7369996
1.7296467
1.7236499
1.7177525
1.7089297
1.6984369
1.6875196
1.6762624
1.6651782
1.6538345
1.6427848
1.632839
1.6247142
1.6175346
1.6110806
1.6053454
1.59965
1.5937054
1.5877122
1.5816072
1.575699
1.5701135
1.5646743
1.5593637
1.5545252
1.5502123
1.5461939
1.5421709
1.5381387
1.5344161
2.0931206
1.8749849
1.8589311
1.8394128
1.8234551
1.805758
1.7907327
1.7768719
1.7651776
1.7518608
1.7365499
1.7219171
1.7080949
1.6961917
1.6864005
1.6779249
1.6702792
1.6636797
1.6572981
1.651671
1.6451646
1.6359184
1.6254036
1.6147768
1.6038815
1.5927414
1.5810902
1.5705364
1.5615482
1.5548198
1.5493132
1.5435377
1.5371004
1.5302816
1.5238046
1.5177763
1.5122354
1.5070957
1.5018545
1.4966198
1.491634
1.4873034
1.4836034
1.4801637
1.4766922
1.4730459
1.4698887
2.0595482
1.8023996
1.7832753
1.7655913
1.7501636
1.7333791
1.7195407
1.707184
1.696546
1.6841373
1.6703285
1.6555437
1.6420825
1.6317381
1.6221088
1.6132978
1.60659
1.600898
1.59451
1.5886069
1.5816107
1.5726335
1.5626441
1.5523527
1.5411884
1.5297339
1.5183771
1.5088534
1.5015471
1.4959706
1.4901954
1.4831699
1.4758061
1.4689392
1.4631098
1.45813
1.4533683
1.4484499
1.4431423
1.4378966
1.43314
1.4294758
1.4267463
1.4240288
1.4211537
1.4179678
1.4152581
2.0319281
1.739026
1.7161963
1.7003787
1.6864508
1.6709436
1.6582806
1.6466857
1.6363537
1.6252482
1.6130251
1.5989066
1.5867601
1.5768128
1.5661832
1.5569416
1.5507054
1.5449271
1.5378254
1.5317455
1.5250795
1.5166038
1.5066292
1.4957723
1.4839827
1.4729749
1.462666
1.4545336
1.4481568
1.4417836
1.4345832
1.4270669
1.4202368
1.4145958
1.4098762
1.4054715
1.4007398
1.3956387
1.3904442
1.3857442
1.3819017
1.3789939
1.3767314
1.3743308
1.3714718
1.368362
1.3658968
2.0028751
1.6811407
1.6576004
1.64295
1.6306075
1.6167998
1.6049464
1.5934332
1.583146
1.5731225
1.5621144
1.5493835
1.5383872
1.5275739
1.5157473
1.5065749
1.5002725
1.4936568
1.4868522
1.4817281
1.4746895
1.4651483
1.4543919
1.4427263
1.4309411
1.4210369
1.4125312
1.4053488
1.3981159
1.390466
1.3830757
1.3765653
1.3711822
1.366554
1.3620751
1.3571603
1.3516439
1.3459575
1.3404772
1.3358633
1.3322794
1.3295656
1.3273741
1.3248298
1.3215272
1.3180587
1.3155304
1.9267103
1.6261626
1.6062105
1.5924696
1.581242
1.5685863
1.5573429
1.5458576
1.5355487
1.5259808
1.5154751
1.5043698
1.4937199
1.4815569
1.4692364
1.4604367
1.4534821
1.4466022
1.4415076
1.4367687
1.4280865
1.4173446
1.405835
1.393748
1.382821
1.3744141
1.3671403
1.3593387
1.3510393
1.3434241
1.3370041
1.3315509
1.3264562
1.3212404
1.315828
1.3099582
1.3037348
1.2974321
1.291598
1.2868083
1.2831831
1.2803831
1.2780021
1.275059
1.2711432
1.2670192
1.263838
1.8147514
1.5738531
1.5601474
1.5473299
1.5369286
1.5249787
1.5137753
1.5023192
1.491969
1.4823645
1.4721418
1.4617886
1.4509638
1.4381943
1.4262693
1.4176793
1.4102093
1.4039599
1.3999428
1.3939062
1.3841136
1.3731603
1.3612296
1.3494553
1.3398829
1.3324412
1.3246484
1.3156604
1.3071958
1.3001576
1.2940889
1.2884087
1.2823935
1.2760342
1.2695457
1.2629327
1.2563551
1.249816
1.2438939
1.239019
1.2351183
1.2322511
1.2295953
1.225813
1.2207902
1.2157616
1.211909
1.7514523
1.5264299
1.5177858
1.5059994
1.4963853
1.4847567
1.4731189
1.4616173
1.4510926
1.4409652
1.4311118
1.4211392
1.4102005
1.3978407
1.3866506
1.3781726
1.3704976
1.3647004
1.3599164
1.3525487
1.3430518
1.3324673
1.3207773
1.3096207
1.300462
1.292078
1.2826734
1.2734079
1.2653095
1.2586058
1.2522815
1.2457134
1.2387423
1.2318044
1.2248008
1.217804
1.2109596
1.2043217
1.1983376
1.1931268
1.1885841
1.1847721
1.1808305
1.1760304
1.1707687
1.1659767
1.1622717
1.7435184
1.4856647
1.4783453
1.4675412
1.4582873
1.4469664
1.4347817
1.4230464
1.4122283
1.4012923
1.3920948
1.3825741
1.3721589
1.3609413
1.3503467
1.3417238
1.3339671
1.3277356
1.321552
1.3138207
1.3048286
1.2943897
1.2830881
1.271861
1.2618011
1.251832
1.2414827
1.232685
1.2253821
1.2186638
1.2115019
1.2038332
1.1961842
1.1889331
1.1818154
1.1745425
1.167248
1.1603249
1.1541223
1.1485602
1.1434558
1.1391574
1.1349871
1.1303297
1.1258161
1.1221074
1.1192277
1.7568741
1.4504959
1.4407133
1.4312463
1.4221327
1.4110432
1.3983044
1.3861902
1.3754046
1.3642097
1.3555383
1.3467985
1.3372255
1.3268479
1.316435
1.307424
1.2995566
1.2924964
1.2857895
1.2784622
1.2689169
1.2575484
1.2458788
1.2341428
1.2233053
1.2125713
1.2025921
1.1950207
1.1880258
1.1806157
1.1723329
1.1637597
1.1554537
1.1479856
1.1406909
1.1333194
1.1260155
1.1191504
1.1129549
1.1075158
1.102865
1.0989691
1.0954424
1.0916054
1.0879642
1.0849655
1.0826604
1.7795253
1.4187543
1.4043275
1.3968087
1.3879681
1.3770717
1.3637471
1.3511222
1.3409313
1.33001
1.3216615
1.3136747
1.3048343
1.2945414
1.283919
1.2747943
1.2666988
1.2591066
1.2527221
1.245263
1.2340815
1.2212907
1.2091296
1.1970602
1.1861198
1.1757398
1.167048
1.1602052
1.1526113
1.1440361
1.1346633
1.1259955
1.1180398
1.1108913
1.1038619
1.0966722
1.0897862
1.0836016
1.0782863
1.0738795
1.0703398
1.067287
1.0643663
1.0611468
1.057893
1.0547743
1.0522385
1.7853371
1.3891292
1.3697135
1.3638649
1.3555513
1.3449981
1.3313267
1.3183916
1.3089889
1.2988222
1.2903296
1.2828346
1.2741893
1.2634787
1.2524671
1.2436307
1.2354572
1.2279026
1.2217691
1.21318
1.2000754
1.1865012
1.1743661
1.1625124
1.1519037
1.1422924
1.1347004
1.1278528
1.1191328
1.1094768
1.1001402
1.0922579
1.0854149
1.079217
1.0729494
1.0665064
1.0605114
1.0553824
1.0511892
1.0479573
1.0455132
1.0429585
1.0399719
1.0364684
1.0329277
1.0295586
1.0268316
1.7817038
1.3603067
1.3376377
1.3325437
1.3248822
1.3150731
1.3011624
1.2882918
1.2796675
1.270188
1.2615886
1.2538981
1.2447506
1.2334478
1.2223355
1.2139778
1.2061675
1.1990633
1.1923236
1.1820348
1.1676696
1.1544835
1.1431899
1.1316901
1.1212483
1.112336
1.1054907
1.0979157
1.0882491
1.0786189
1.0703545
1.0640268
1.0586468
1.0535424
1.0481751
1.0425566
1.0375842
1.0336303
1.0304574
1.0279177
1.0255332
1.0226774
1.0191445
1.0153786
1.0119309
1.0089155
1.006518
1.776425
1.3317447
1.3078212
1.3033021
1.2961059
1.2872154
1.2734422
1.2609397
1.2527403
1.243875
1.2350241
1.2265516
1.2164785
1.2048619
1.194167
1.1862448
1.1788824
1.1718479
1.163962
1.1523406
1.1378757
1.1262112
1.1158733
1.1044354
1.0941212
1.0858557
1.0791882
1.0706848
1.0611022
1.0525694
1.0459901
1.0411895
1.0370122
1.0327329
1.0282474
1.0234562
1.0193892
1.0162691
1.0135242
1.011009
1.0082219
1.0050316
1.0015038
0.99831754
0.99563577
0.9933489
0.99158519
1.7686908
1.3047604
1.2794683
1.2761045
1.2695348
1.2614945
1.2482102
1.2361439
1.2277251
1.2192124
1.2101381
1.2006011
1.1896199
1.1782172
1.1682971
1.1605151
1.1531664
1.1458226
1.1369316
1.1246935
1.1113191
1.1013247
1.0911625
1.0798165
1.0703581
1.0628862
1.0559764
1.047069
1.0383304
1.0314127
1.0264569
1.022654
1.0193467
1.0158385
1.0120494
1.0079339
1.0044615
1.0017288
0.99917036
0.99652038
0.9937612
0.99090252
0.98802205
0.98554996
0.98365444
0.98211436
0.98125254
1.765071
1.2814769
1.2527153
1.250906
1.2452331
1.2378887
1.2252806
1.2135504
1.204334
1.1958193
1.1866589
1.176087
1.1645472
1.1537901
1.1446775
1.1366701
1.1289988
1.1211909
1.1114935
1.0995951
1.0879616
1.0786003
1.0681608
1.0578564
1.0497782
1.0429112
1.0356411
1.0269775
1.0197008
1.0144565
1.0105664
1.0075493
1.0050991
1.0021334
0.99872177
0.99517019
0.99233585
0.98988637
0.98737848
0.98509113
0.98294111
0.98085466
0.97872676
0.97693704
0.97577961
0.9750007
0.97499072
1.7657376
1.2623047
1.2281308
1.227742
1.2229867
1.2162419
1.2042909
1.1928151
1.1825149
1.1736124
1.1642731
1.1529337
1.1413669
1.1314653
1.1229255
1.1144842
1.1063714
1.0980714
1.0881068
1.0770979
1.066859
1.0574561
1.0475717
1.0392394
1.0323789
1.0255797
1.01817
1.0104066
1.0047768
1.0007488
0.99787349
0.99564259
0.99375732
0.99130753
0.98858947
0.98578364
0.98324783
0.98100167
0.97892799
0.97729482
0.97582431
0.97428984
0.97272314
0.97174215
0.97140131
0.97120941
0.97166516
1.7690973
1.2478914
1.2061319
1.206663
1.2024959
1.1961956
1.1848252
1.1735062
1.1620788
1.1525039
1.1427212
1.1310919
1.1200949
1.111099
1.1028277
1.093925
1.0854193
1.0767091
1.06695
1.0569379
1.0476233
1.0385779
1.0303849
1.0240219
1.0175883
1.0106888
1.003786
0.99728006
0.99301467
0.98990116
0.9879113
0.98677703
0.98581573
0.98410513
0.9818275
0.97925611
0.97686819
0.97498664
0.97337313
0.97206209
0.97096581
0.96979134
0.968747
0.96846101
0.96890478
0.96939289
0.970272
1.7756343
1.2395478
1.1868427
1.1874691
1.1834752
1.1773782
1.1664295
1.1552218
1.1428197
1.132488
1.1221679
1.1105544
1.1005095
1.0922742
1.0840566
1.0748257
1.0662484
1.0573855
1.0479702
1.0390294
1.0304263
1.0225706
1.016654
1.0114517
1.0048155
0.99810641
0.9922129
0.98709251
0.98423851
0.98227168
0.98129819
0.98111865
0.98074779
0.9792379
0.97687106
0.97436041
0.97230674
0.97075495
0.96944083
0.96839677
0.96768124
0.96701448
0.96651422
0.96685621
0.96786779
0.96886363
0.97000815
1.7847386
1.2363741
1.1705727
1.1699919
1.165719
1.1594664
1.148747
1.1375958
1.1244991
1.1135876
1.1027583
1.0914149
1.0823787
1.0746326
1.0662926
1.0571182
1.0488892
1.0401494
1.031225
1.0233008
1.0156934
1.0098409
1.0058225
1.0007434
0.99388515
0.98786914
0.98330066
0.97991139
0.97847948
0.97753854
0.97744807
0.97759946
0.97699556
0.97508071
0.97259601
0.97049334
0.96903915
0.96793619
0.96705756
0.9665849
0.96633965
0.96610516
0.96609031
0.96693979
0.96817435
0.96922194
0.970282
1.7941656
1.2358949
1.1574196
1.1541268
1.1490984
1.1423452
1.131574
1.1203937
1.1070516
1.0957513
1.084657
1.0737547
1.0653913
1.057871
1.0494826
1.0410203
1.0335034
1.0251134
1.0169013
1.009954
1.0039349
1.0001651
0.99701111
0.99150259
0.98479339
0.97998628
0.97702904
0.97524881
0.97495131
0.97486416
0.97522359
0.97498495
0.97362486
0.97147693
0.96940708
0.96776498
0.96689547
0.96646003
0.96632763
0.96649114
0.96670679
0.96674223
0.96693743
0.96776652
0.96882433
0.96975579
0.9706688
1.8074702
1.2360118
1.1472826
1.1397096
1.1335915
1.126014
1.1148664
1.1036362
1.0904383
1.0790961
1.0681401
1.0576712
1.0496371
1.042022
1.0339881
1.0268078
1.0201849
1.012407
1.0050977
0.99926181
0.99509936
0.99260968
0.98938903
0.98357642
0.97747457
0.97415919
0.97283162
0.97243823
0.97290666
0.97327649
0.97341113
0.97249683
0.97076891
0.96884961
0.96715737
0.96602231
0.96577532
0.96613223
0.96676228
0.96748008
0.96796531
0.96801762
0.96810172
0.96876185
0.9696677
0.97052066
0.97123295
1.8275002
1.2375134
1.1403815
1.1266389
1.1188836
1.1103264
1.0987902
1.0874586
1.074724
1.0636618
1.0531421
1.0431266
1.0353097
1.0274067
1.0201631
1.0144896
1.0087622
1.0018691
0.99569757
0.99109076
0.98847226
0.98622759
0.98261364
0.97691099
0.97198746
0.97008523
0.97021826
0.97097624
0.9718692
0.97201732
0.97150874
0.97023746
0.96858024
0.9670306
0.96581819
0.96536523
0.9657641
0.9666916
0.96771935
0.96880742
0.96943635
0.96931677
0.96930164
0.97009576
0.97113499
0.97190756
0.97234963
1.8534294
1.2415557
1.1359961
1.1148199
1.1049009
1.0953258
1.0834203
1.0721246
1.059919
1.0495489
1.0396546
1.0302693
1.0225243
1.0145099
1.0083579
1.0040655
0.99904799
0.99324072
0.98836316
0.9850578
0.98331006
0.98065247
0.97680937
0.97168646
0.96812389
0.96761428
0.96905546
0.97047832
0.97093805
0.97048686
0.96960251
0.96843747
0.96716676
0.96610783
0.96554177
0.96566735
0.96648758
0.96767553
0.96888064
0.97001005
0.97057873
0.97040319
0.97047776
0.97136461
0.97238657
0.97299783
0.97342472
1.8824095
1.2529586
1.134285
1.1043302
1.0915679
1.0810426
1.0689051
1.0577808
1.0461915
1.0367551
1.0276533
1.0189995
1.0112866
1.0036866
0.99870928
0.99539339
0.99099785
0.98632072
0.98260687
0.98053223
0.97909017
0.97597994
0.97216718
0.96780628
0.96573654
0.9664456
0.96878976
0.9699928
0.96970316
0.96892393
0.96808744
0.96724325
0.96657171
0.96623886
0.96614376
0.96658238
0.96765138
0.9688331
0.96989105
0.97105343
0.971381
0.9710148
0.97104001
0.97197046
0.97298248
0.97365054
0.97430101
1.9073945
1.2702042
1.1332169
1.0945741
1.0791488
1.0676864
1.0552814
1.0445101
1.0338231
1.0252713
1.0169444
1.0091066
1.0017288
0.99494125
0.99107656
0.98845033
0.98457248
0.98090405
0.97809522
0.97696873
0.97543165
0.97209399
0.96855627
0.96518696
0.96440572
0.9661623
0.96852478
0.96905537
0.96849103
0.96777371
0.96718857
0.96685836
0.9667777
0.96681049
0.96711019
0.96787767
0.96903408
0.97022371
0.97156926
0.97226752
0.97188379
0.97108384
0.97110461
0.97217504
0.97350108
0.97462512
0.976176
1.9280811
1.2850132
1.1327476
1.0854795
1.0672551
1.0551783
1.0428209
1.0326262
1.0230006
1.0151742
1.0074582
1.000398
0.9937291
0.98798219
0.98512642
0.98289402
0.97944824
0.97657207
0.97454829
0.97383829
0.97202395
0.96874669
0.96574588
0.96358442
0.9638948
0.96600717
0.96787651
0.96803382
0.96758403
0.9670502
0.96687031
0.96703299
0.96719585
0.96752121
0.96810496
0.96908662
0.9702679
0.97174399
0.97301854
0.97318883
0.97228653
0.97114689
0.97132678
0.97270075
0.97456091
0.97626491
0.97840273
1.943376
1.2962798
1.1316722
1.0767579
1.0562479
1.0437255
1.0315625
1.0221736
1.0136415
1.0064169
0.99917586
0.99287298
0.98709543
0.98258177
0.98057261
0.97850536
0.97537593
0.97312022
0.97174755
0.97092498
0.96885828
0.96591297
0.96373187
0.962825
0.96369044
0.96566744
0.96715245
0.96744421
0.96725811
0.96695403
0.96711451
0.96740162
0.96756832
0.9680472
0.96889696
0.96993062
0.97145409
0.97296195
0.97388701
0.97370954
0.97265427
0.97162449
0.97223289
0.97418443
0.97669147
0.97893409
0.9813962
1.9520284
1.3040078
1.1300167
1.068075
1.0457271
1.0332409
1.0216088
1.0131444
1.0055512
0.99885856
0.99198072
0.98632228
0.98158377
0.97845455
0.97705434
0.97486564
0.9720504
0.97044301
0.96948097
0.96829398
0.96611655
0.963621
0.96239305
0.96236893
0.96341403
0.96522034
0.96677362
0.96745923
0.96737559
0.96708692
0.96733003
0.96774826
0.96800965
0.96858714
0.96958502
0.97109771
0.97252681
0.9735506
0.97425032
0.97403009
0.97316476
0.97293657
0.97447229
0.97744561
0.97993601
0.9815207
0.98375549
1.9563506
1.3091176
1.1263604
1.0593317
1.0358037
1.0233958
1.0124492
1.004958
0.99849182
0.99226961
0.98573326
0.9805984
0.97680968
0.97506091
0.97413768
0.97189861
0.96940507
0.96838486
0.96755806
0.96610233
0.96391039
0.96182879
0.96149196
0.96208923
0.96323471
0.96490035
0.96679973
0.96766928
0.96742633
0.96697204
0.96735835
0.96797972
0.96856603
0.96941594
0.97070994
0.97224249
0.9734117
0.97403791
0.97462354
0.97477683
0.974667
0.97560151
0.9780209
0.9809747
0.98320999
0.98486644
0.98684919
1.957416
1.3122366
1.1226565
1.0508943
1.0266961
1.01469
1.0047403
0.99792285
0.99236533
0.98662709
0.98045443
0.97586751
0.97302881
0.97241586
0.97178543
0.96939163
0.96728472
0.96679828
0.96590456
0.96434179
0.96222457
0.96066632
0.96087923
0.96199859
0.96315839
0.96495655
0.96704462
0.96787615
0.96719706
0.96657779
0.96719501
0.96838073
0.96946276
0.97061221
0.97189129
0.97316653
0.9740862
0.97452041
0.97533621
0.97610814
0.97679725
0.9784974
0.98170387
0.9849755
0.98672006
0.98785342
0.98946206
1.9558835
1.3138321
1.1163321
1.0420169
1.0179792
1.0063426
0.99739689
0.99152445
0.98677885
0.98172312
0.97596765
0.97187317
0.96988671
0.9700457
0.96953732
0.96728929
0.96564469
0.96543741
0.96449599
0.96299762
0.96115242
0.95992086
0.96042397
0.96197939
0.96327647
0.9653308
0.96745338
0.96777372
0.96668503
0.96596926
0.9670024
0.96882625
0.97041704
0.97167181
0.97288942
0.97405308
0.97504494
0.97576535
0.97706991
0.97879607
0.98023534
0.98238119
0.98556
0.98821849
0.98962784
0.99116534
0.99379084
1.952691
1.314125
1.1101532
1.0338816
1.0103658
0.99924448
0.99120731
0.98588237
0.98201844
0.97757082
0.97224859
0.96873379
0.9674547
0.96801107
0.96763517
0.96554401
0.96428731
0.96419925
0.9631727
0.96196974
0.96057995
0.95950933
0.96014748
0.96201891
0.96361893
0.96585016
0.96769614
0.96754532
0.9661644
0.96554744
0.96698436
0.96928935
0.97107293
0.97236367
0.97355717
0.97506054
0.97621819
0.97750265
0.97961396
0.98145289
0.98295742
0.9850373
0.98800973
0.99075053
0.99254352
0.99438279
0.99638578
1.947819
1.3138149
1.1016671
1.0255886
1.0029198
0.99238656
0.98532322
0.98108778
0.97783553
0.9740227
0.96919131
0.96635974
0.96571335
0.96636343
0.96589325
0.96407133
0.96318538
0.96305906
0.9622141
0.96128949
0.96026761
0.95933381
0.96003995
0.96214693
0.96395974
0.96623111
0.9677098
0.96717858
0.96566449
0.96524287
0.96704015
0.96963938
0.9714791
0.97303561
0.97491467
0.97680667
0.97839456
0.9801392
0.98258049
0.98453086
0.98615149
0.98827297
0.99120507
0.99383142
0.99536537
0.99715111
1.0000794
1.9430852
1.3126232
1.093056
1.0182367
0.99680296
0.9868262
0.98024791
0.97663414
0.97408431
0.97098043
0.96677979
0.96452394
0.96439606
0.9648799
0.96420288
0.9626843
0.96214899
0.96202804
0.96147986
0.96087188
0.96006382
0.95928801
0.96010291
0.96240987
0.96432168
0.96649795
0.96753029
0.96668165
0.9651614
0.9649603
0.96705274
0.96991805
0.97185383
0.97369431
0.97596639
0.97809923
0.9799491
0.98208327
0.98463011
0.98643573
0.98810311
0.99029616
0.9932085
0.99568414
0.99770204
1.0006073
1.0036065
1.935679
1.3085486
1.0819637
1.0105797
0.99075593
0.98171913
0.97610761
0.97320108
0.97107393
0.96847645
0.96498301
0.96332807
0.96364296
0.96392577
0.96294179
0.96171314
0.96134649
0.96116605
0.96090106
0.96057336
0.95988027
0.95927356
0.9603096
0.9627801
0.96466508
0.96659335
0.96722063
0.96622825
0.96482944
0.96497596
0.96742692
0.970421
0.97290075
0.97548959
0.97810433
0.98027347
0.98235112
0.98483927
0.98721417
0.98876809
0.99045876
0.99300702
0.99609697
0.99834636
1.0000394
1.0028038
1.0064669
1.9323574
1.2942148
1.0706147
1.0039367
0.98572433
0.97731722
0.97223131
0.96998785
0.96837785
0.96632116
0.96353732
0.96242115
0.96308079
0.9631863
0.96192574
0.96091784
0.96080843
0.96064785
0.96053665
0.96032877
0.95959021
0.95916491
0.96054378
0.96320762
0.96495475
0.96641131
0.96666675
0.96556575
0.96436561
0.96504647
0.96792963
0.9712891
0.97415861
0.9768485
0.97909721
0.98105589
0.98322528
0.9860165
0.98855414
0.9901777
0.99188479
0.99457748
0.9977578
1.0000396
1.0020208
1.0058139
1.0113727
1.9226552
1.2678806
1.0588713
0.99752094
0.98100175
0.97349895
0.96928132
0.96763985
0.96637098
0.96471567
0.96252752
0.96174384
0.96256904
0.96236832
0.96085302
0.96012222
0.96023726
0.96025299
0.96048719
0.96026016
0.95933018
0.95908533
0.96084249
0.96374043
0.96532226
0.96635495
0.96632149
0.96524457
0.96447358
0.96551395
0.96902557
0.97341778
0.97692208
0.9793215
0.98105362
0.98285456
0.98517695
0.98826462
0.99094698
0.99265186
0.99484102
0.99831227
1.0019862
1.00463
1.0076763
1.0134248
1.0187324
1.8662223
1.1908043
1.0293128
0.98478301
0.97277161
0.96669214
0.96348269
0.96322725
0.96319438
0.96249671
0.96150128
0.96128769
0.96227315
0.96175644
0.95983088
0.95947898
0.95964835
0.95981591
0.96034046
0.9599643
0.95874803
0.95876668
0.9611325
0.96425493
0.96539607
0.96594111
0.96601878
0.96528611
0.96484104
0.96608523
0.9694346
0.97395319
0.97772422
0.97996577
0.98124628
0.98267662
0.98485834
0.98801024
0.99108035
0.99309615
0.9950013
0.99780612
1.0014782
1.0050036
1.0083579
1.0129188
1.0197176
1.6850307
1.0894248
0.99323615
0.96937171
0.96406073
0.96046683
0.95808186
0.95924308
0.96065954
0.9607766
0.96009976
0.96029609
0.96116879
0.96052397
0.95861075
0.95827988
0.95854168
0.9596927
0.96075238
0.95995764
0.95844974
0.95862339
0.96145538
0.96496332
0.96583679
0.96571391
0.96593666
0.96592427
0.96588229
0.96673025
0.96935052
0.97348588
0.97759237
0.98018541
0.98157246
0.98270716
0.98452998
0.98740479
0.99069133
0.9934238
0.99559545
0.99817236
1.0017012
1.0056822
1.0094689
1.0136949
1.0207825
1.554069
1.0292082
0.97171697
0.95925682
0.9584288
0.95743491
0.95609495
0.95737881
0.95941524
0.95958967
0.95910423
0.95899523
0.95937439
0.95843333
0.95719087
0.95714694
0.95745347
0.95984083
0.96122773
0.96022281
0.9587581
0.95904582
0.96187176
0.9653272
0.96624129
0.96570689
0.96587977
0.9665483
0.96712292
0.96792723
0.9699945
0.9733738
0.97695606
0.97975041
0.98144821
0.98264904
0.98422713
0.98653363
0.98988741
0.99332035
0.9962232
0.99889228
1.0021967
1.0063907
1.0107854
1.0155293
1.0232374
1.4993078
0.99984645
0.96101799
0.95354797
0.95507606
0.95673558
0.95649541
0.95711817
0.95896709
0.95926665
0.95859505
0.95790006
0.95760467
0.95657884
0.95599427
0.95624197
0.95690565
0.96016418
0.96159973
0.96028263
0.95917319
0.95982311
0.96227934
0.96505561
0.96598388
0.96520276
0.96522461
0.96657337
0.96795343
0.96922967
0.97121489
0.97379918
0.976558
0.97893975
0.9808222
0.98230007
0.98380214
0.98570378
0.98875966
0.99272369
0.99638623
0.99950939
1.0026982
1.0067896
1.0115318
1.0174607
1.0246649
1.4520508
0.98518714
0.95603103
0.95101192
0.95349871
0.95686749
0.95785738
0.95806642
0.95899707
0.95934225
0.95851446
0.95730505
0.95648051
0.95557266
0.95501097
0.95528964
0.95679745
0.96068047
0.96216264
0.96053261
0.95955021
0.96052546
0.96276391
0.96484552
0.96576123
0.96484834
0.96469794
0.96636812
0.96824467
0.97006507
0.97218671
0.97443781
0.97657253
0.97854969
0.98041025
0.98207497
0.98353226
0.9850818
0.98774607
0.99202553
0.99651271
1.0005208
1.0040384
1.0078626
1.0132401
1.0194426
1.0257764
1.4187825
0.98245034
0.95480111
0.95052832
0.95274182
0.95748814
0.96001909
0.95973111
0.95904311
0.95901556
0.95848043
0.95736729
0.95616928
0.95528927
0.95454281
0.95471389
0.95703641
0.9608969
0.96271823
0.96138126
0.96042419
0.9611313
0.9629901
0.96465818
0.96584502
0.96518359
0.96492554
0.96642574
0.96822457
0.97023375
0.97258456
0.97468073
0.97659384
0.97844537
0.98030684
0.98209273
0.98356087
0.98501608
0.98741679
0.9917941
0.99700353
1.0016778
1.0062074
1.0100242
1.0159278
1.0213212
1.0276153
1.4527616
0.98418145
0.95500102
0.95094248
0.95231889
0.95782893
0.96178962
0.96162198
0.95952171
0.95840158
0.95834431
0.95788395
0.95656087
0.95541286
0.95433551
0.95466165
0.95749072
0.96104477
0.96313525
0.96212211
0.96113139
0.96150281
0.96293494
0.96416329
0.96575731
0.96606863
0.96600294
0.96703217
0.96832339
0.97007422
0.97236729
0.97445869
0.97625051
0.97808326
0.98003578
0.98204461
0.98387376
0.98569154
0.98810431
0.99241252
0.99780982
1.0028463
1.0077815
1.0122716
1.0180059
1.0229563
1.0294886
1.5458718
0.99313847
0.9564169
0.95278333
0.95265067
0.95743304
0.96240677
0.96352047
0.96108574
0.95846454
0.95812762
0.95849046
0.95761003
0.95592025
0.95407401
0.95471237
0.95788926
0.96093313
0.96298405
0.96252114
0.96141444
0.96145726
0.9627318
0.96368172
0.96544987
0.96684552
0.96709685
0.96766744
0.96849225
0.9699497
0.97211897
0.97416698
0.97580779
0.97747011
0.97942458
0.98161488
0.98415495
0.98676086
0.98965277
0.99385157
0.99890961
1.004029
1.0090101
1.0141026
1.0193282
1.0244505
1.0307012
1.6304381
1.0109902
0.95932413
0.95513232
0.9540497
0.95648819
0.96174583
0.96463583
0.96329446
0.959925
0.95842014
0.95893392
0.95833882
0.95644235
0.95402486
0.95479634
0.95820897
0.96087094
0.9625638
0.96274693
0.96143672
0.96125599
0.96263815
0.96367974
0.96525096
0.96705651
0.96771251
0.96811753
0.96874299
0.97004739
0.97211711
0.97416736
0.97569328
0.97708546
0.9788388
0.98113331
0.98431894
0.98799786
0.99150057
0.99555603
1.0003507
1.0054981
1.0104682
1.0157112
1.0206658
1.0257967
1.0318525
1.7181569
1.0282365
0.96364424
0.95768405
0.95584353
0.9561027
0.9603735
0.9644803
0.96483253
0.96196583
0.95968901
0.95942675
0.95872374
0.95682511
0.95452699
0.95514099
0.95868204
0.961134
0.96238158
0.96302026
0.9615835
0.9610994
0.96253829
0.96414162
0.9657639
0.96746106
0.96826167
0.96833043
0.96869703
0.96983459
0.97172117
0.97394644
0.97579447
0.97733359
0.97901435
0.9812906
0.98472473
0.98896563
0.99295627
0.99732536
1.0022155
1.0073504
1.0122829
1.0171841
1.0220952
1.026962
1.0325576
1.7813094
1.0403383
0.96722729
0.9606532
0.95856639
0.95741496
0.95952147
0.9634489
0.96515699
0.96337561
0.9610016
0.96018627
0.95925341
0.95716849
0.9553167
0.95597953
0.95928602
0.96182344
0.96280224
0.9633071
0.96211096
0.96146693
0.96292329
0.96534963
0.967435
0.96870492
0.96885398
0.96832001
0.96817453
0.96891147
0.97069767
0.97310739
0.97557787
0.97785495
0.97994546
0.98233402
0.98582896
0.99015082
0.99464283
0.99920415
1.0040175
1.0088406
1.0137158
1.0180088
1.0230907
1.027586
1.0330029
1.7881211
1.0430936
0.96887521
0.96295091
0.96163759
0.96028387
0.96000335
0.96278606
0.96470679
0.96377365
0.96182512
0.96108075
0.9600667
0.95766791
0.9561842
0.95691543
0.95972095
0.96238827
0.96354722
0.96369419
0.96283354
0.96266301
0.9643728
0.96695721
0.96893744
0.97003729
0.96963931
0.96831082
0.96751102
0.96791117
0.96948721
0.97191809
0.97485092
0.97786794
0.98073006
0.98376809
0.98738032
0.99176571
0.99626759
1.0005717
1.0051826
1.0097112
1.0144867
1.0184168
1.0235258
1.0278141
1.0333653
1.723815
1.0384226
0.96911129
0.96373988
0.96412818
0.96338167
0.96180738
0.96275616
0.9641283
0.96349309
0.9623642
0.96187636
0.96091957
0.95848594
0.95717787
0.95788078
0.96002724
0.96256779
0.96390081
0.96386873
0.96321723
0.96365133
0.96560237
0.96795287
0.96964643
0.9707216
0.97017045
0.96855133
0.96723811
0.96727629
0.96864171
0.97088394
0.97383731
0.97721141
0.98086219
0.9846635
0.98862279
0.99288434
0.99716488
1.0012993