/*--------------------------------*- C++ -*----------------------------------*\
| =========                 |                                                 |
| \\      /  F ield         | OpenFOAM: The Open Source CFD Toolbox           |
|  \\    /   O peration     | Version:  2406                                  |
|   \\  /    A nd           | Website:  www.openfoam.com                      |
|    \\/     M anipulation  |                                                 |
\*---------------------------------------------------------------------------*/
FoamFile
{
    version     2.0;
    format      ascii;
    arch        "LSB;label=32;scalar=64";
    class       volScalarField;
    location    "10";
    object      omega;
}
// * * * * * * * * * * * * * * * * * * * * * * * * * * * * * * * * * * * * * //

dimensions      [0 0 -1 0 0 0 0];

internalField   nonuniform List<scalar> 
96472
(
3.6958374
3.0345102
2.5416512
2.1727352
1.9087409
1.7268368
1.6009235
1.5085205
1.4329368
1.363355
1.2945918
1.2263431
1.1613527
1.10317
1.0550452
1.0181468
0.9917044
0.97397579
0.96268701
0.95562918
0.95135007
0.94881893
0.94718161
0.94634934
0.94618368
0.94645213
0.94697048
0.94778591
0.9487664
0.95010067
0.95156886
0.95351765
0.95587987
0.96010727
0.9655065
0.97092979
0.97642647
0.97874931
0.98197856
0.9835777
0.98641099
0.98784292
0.99322434
0.99904369
1.0094734
1.0172623
1.0313261
1.04
1.055466
1.0662583
1.0820842
1.099059
1.116153
1.136719
1.1663801
3.6967937
3.0377378
2.5455606
2.1768295
1.9124611
1.7298386
1.6033245
1.5106113
1.4351525
1.3662393
1.2985067
1.2312227
1.1667135
1.1084287
1.0597116
1.0219504
0.99465829
0.97617279
0.96426728
0.95673772
0.95214018
0.94941409
0.9476392
0.94663729
0.94627289
0.94632202
0.9465965
0.94706208
0.94777918
0.94843827
0.94935794
0.95001861
0.95102577
0.95213951
0.9539307
0.95720193
0.96304866
0.96897498
0.97610607
0.9814667
0.98604188
0.98874333
0.99286394
0.9973009
1.0033968
1.0118117
1.0187514
1.0322383
1.0406059
1.0575154
1.0679635
1.0846177
1.1017526
1.1147809
1.143922
3.6979934
3.0416714
2.5507342
2.1819203
1.91676
1.7331841
1.6059679
1.5129659
1.4377413
1.369363
1.3020155
1.2347546
1.1699739
1.1112797
1.0620854
1.0238438
0.99611094
0.97726265
0.96506555
0.95731429
0.95258115
0.94979565
0.94803713
0.9469795
0.94654032
0.94656123
0.94680934
0.94731109
0.94800735
0.94874151
0.94974599
0.95050681
0.95160173
0.95236104
0.95340135
0.9547462
0.95628523
0.95950375
0.96288909
0.96987372
0.9771496
0.98496381
0.98936197
0.99552684
0.99942107
1.007651
1.0121796
1.0229975
1.028947
1.0402406
1.0537654
1.0635826
1.082334
1.092843
1.1192286
3.6990434
3.0453455
2.5556894
2.1868783
1.9209671
1.7364958
1.6086415
1.515401
1.4403564
1.3724196
1.3055898
1.2387996
1.1743255
1.1155537
1.0658881
1.0269715
0.9985022
0.97900312
0.96629941
0.95817643
0.9531075
0.95008621
0.94824365
0.94709963
0.94657567
0.94652431
0.94671591
0.94714581
0.94773287
0.94850087
0.94927189
0.95029896
0.9510926
0.95242516
0.95330145
0.95486032
0.95588385
0.95806882
0.95978392
0.96356058
0.96679752
0.9744015
0.97905646
0.98897968
0.99354376
1.0033732
1.007822
1.0160102
1.024112
1.0300263
1.0419933
1.0489183
1.0634094
1.071857
1.0926802
3.7002638
3.0491692
2.5606842
2.1918047
1.925133
1.7397833
1.6113174
1.5178721
1.442983
1.3754937
1.3091607
1.2427117
1.1782802
1.1192618
1.0691307
1.029652
1.0006133
0.98058168
0.9674303
0.95902046
0.95375008
0.95056996
0.94864555
0.94740289
0.94678748
0.94664399
0.94678649
0.94716038
0.94764979
0.94838005
0.94896783
0.9498954
0.95055865
0.95184249
0.95271747
0.95444191
0.95546795
0.95772915
0.95904942
0.96225003
0.96415496
0.96909516
0.97214424
0.97989049
0.98433408
0.99309767
1.0020113
1.0086377
1.0192465
1.0247264
1.0356701
1.0412949
1.0529332
1.0595705
1.0750815
3.701392
3.0528346
2.5655588
2.1966588
1.929282
1.7430974
1.6140197
1.5203185
1.4455619
1.3785123
1.3126888
1.2466571
1.1824127
1.1232527
1.0726831
1.0325882
1.0029069
0.9823083
0.96867201
0.95989008
0.95435235
0.95097636
0.94897561
0.9476666
0.94697225
0.94673553
0.94681062
0.947104
0.94754192
0.9481868
0.94869049
0.9495215
0.95005282
0.95115248
0.95181105
0.95338774
0.95437007
0.95671667
0.95807681
0.96120694
0.96295991
0.96658669
0.96985269
0.97377626
0.97947281
0.98386904
0.99281783
0.99812743
1.0093049
1.015153
1.0271488
1.0331904
1.0453627
1.0513583
1.0651903
3.702632
3.0564366
2.5703324
2.2014662
1.9334204
1.7463881
1.6166942
1.5227402
1.4481271
1.381505
1.3161972
1.2505877
1.1865295
1.1272367
1.076253
1.0355676
1.0052441
0.98406479
0.96996191
0.96085345
0.95504796
0.95147617
0.94935115
0.9479913
0.94722056
0.94691349
0.94692244
0.94713927
0.94752644
0.94810255
0.94857323
0.94929154
0.94976567
0.95065192
0.95123459
0.95250892
0.95335669
0.95525929
0.95672995
0.95895851
0.96200091
0.96418612
0.96831613
0.97084076
0.97617868
0.9793845
0.98617119
0.99036475
0.9992947
1.004475
1.0153428
1.0211791
1.0331355
1.0394583
1.0534453
3.7038939
3.0599655
2.5750225
2.2062192
1.9375644
1.7497448
1.6194247
1.5251808
1.4506222
1.3843619
1.319564
1.2544359
1.1906494
1.1313077
1.0799324
1.0386592
1.0077015
0.98590575
0.97127989
0.96182113
0.95576633
0.95201443
0.94972878
0.9483205
0.94747445
0.94709687
0.94703196
0.94719222
0.94751316
0.94800223
0.94842142
0.94903736
0.94945957
0.95015813
0.95080601
0.9514848
0.95271113
0.95370731
0.95576233
0.95724013
0.96024232
0.96216291
0.96616352
0.96857374
0.97339751
0.97614796
0.9820358
0.98547146
0.99254948
0.99671604
1.0054446
1.0105423
1.0207041
1.0265368
1.0394209
3.7051711
3.0633991
2.5796235
2.2109397
1.941706
1.7530915
1.622112
1.5275482
1.453076
1.3872646
1.3230722
1.2584971
1.1949608
1.1355106
1.0836964
1.0417818
1.0101686
0.98778577
0.97264832
0.9628027
0.95650914
0.95260113
0.9501752
0.94869664
0.94778552
0.94734833
0.9472193
0.94732396
0.9475698
0.94796115
0.94839189
0.94881488
0.94936491
0.94978938
0.95047522
0.95099954
0.95203355
0.95286029
0.95459423
0.9557965
0.95848876
0.9602276
0.96390305
0.96605178
0.97056157
0.97320129
0.97850722
0.9814022
0.98768084
0.99126534
0.99872982
1.0027684
1.0114274
1.0161124
1.0266839
3.7065507
3.0667909
2.5841486
2.2156422
1.9458652
1.7564541
1.6247939
1.5298938
1.4555038
1.3901228
1.3265068
1.2623962
1.1990565
1.139482
1.0872733
1.0447678
1.0125274
0.98958497
0.9739898
0.96378847
0.95725027
0.95317673
0.95063492
0.94908136
0.94810895
0.94761675
0.94742887
0.94748167
0.94766449
0.94798432
0.94836722
0.94873309
0.94918851
0.94956481
0.95013609
0.95056575
0.95147792
0.95213563
0.95358204
0.95469176
0.95696504
0.95850227
0.96175607
0.96374493
0.96787415
0.97017534
0.9749398
0.97775992
0.98348684
0.98653945
0.99323675
0.99672717
1.004236
1.0083289
1.017347
3.707865
3.0700554
2.5885797
2.2202857
1.95001
1.7598225
1.6274963
1.5322574
1.4579117
1.3929328
1.3298293
1.2661728
1.2030516
1.1434053
1.090852
1.0478042
1.0149554
0.99143284
0.97534529
0.96478962
0.95801906
0.95378647
0.95112474
0.94950388
0.94846433
0.94791204
0.94767722
0.94768182
0.94782019
0.94808346
0.94842011
0.94872647
0.94911356
0.94941972
0.94990077
0.95027827
0.95095933
0.95153573
0.95276844
0.95363651
0.95563539
0.95701157
0.95988355
0.96167353
0.96532451
0.96745501
0.97195589
0.97441432
0.97946438
0.98244885
0.98834704
0.99173911
0.99838584
1.0017745
1.0098416
3.7093596
3.0733286
2.5929745
2.2249129
1.9541686
1.7632305
1.6302531
1.5346598
1.4602988
1.3955868
1.3329313
1.2697046
1.2068381
1.1471933
1.0943727
1.0508181
1.0173789
0.99329792
0.97671645
0.96577509
0.95877233
0.9543954
0.95162352
0.94992859
0.94884383
0.94822643
0.94794229
0.94789795
0.94800879
0.9482156
0.94849503
0.94877761
0.9490847
0.94936512
0.94975648
0.95003907
0.95063972
0.95107499
0.95203007
0.95282645
0.95453458
0.95568911
0.95825989
0.95983597
0.96317556
0.96514639
0.96906683
0.9713178
0.97602949
0.97865907
0.98412078
0.98697471
0.99293983
0.99628717
1.0033083
3.7106946
3.076431
2.5972336
2.2294813
1.9583363
1.7666709
1.6330069
1.5369906
1.4625984
1.3981875
1.3360384
1.2733219
1.2107708
1.1511552
1.0980486
1.0539689
1.019897
0.99522155
0.97814523
0.96679769
0.95954248
0.95500018
0.95213491
0.95035795
0.94923822
0.94856155
0.9482297
0.94813906
0.94821818
0.94838262
0.94862696
0.94887113
0.94914445
0.94937398
0.94967845
0.94994884
0.95037957
0.95074769
0.95152659
0.95215233
0.95354565
0.95463123
0.95687342
0.95831111
0.96131463
0.9630535
0.9667006
0.96879446
0.97301086
0.97528056
0.98021174
0.9828717
0.98833951
0.99141521
0.99738362
3.712334
3.0796093
2.6015161
2.2340781
1.9625174
1.7701142
1.6357834
1.5393307
1.4648675
1.4007405
1.3390511
1.2768185
1.2145845
1.1550029
1.1016429
1.0570872
1.0224262
0.99715109
0.9795763
0.96783577
0.96031727
0.95559637
0.95262676
0.95077643
0.94961394
0.94888438
0.94851089
0.94838424
0.94843972
0.94856713
0.94877207
0.94899029
0.94923258
0.94944359
0.94969781
0.94988961
0.95026692
0.95055272
0.95115131
0.9516662
0.95288575
0.95375247
0.95569315
0.9569647
0.95968039
0.96124829
0.96458639
0.96635689
0.97016141
0.97235643
0.97674661
0.97918238
0.98422408
0.9867127
0.99211209
3.7136337
3.0825251
2.605584
2.2385444
1.9666876
1.7735884
1.6385542
1.5416284
1.467082
1.4032179
1.3420056
1.2803024
1.2184336
1.1589558
1.1053877
1.0603541
1.0250799
0.99918587
0.98107097
0.96890064
0.96110573
0.95621195
0.95310791
0.95118132
0.94998172
0.94920788
0.94879761
0.94863133
0.9486537
0.94876191
0.94895006
0.9491429
0.94935974
0.94955519
0.94975239
0.94994123
0.95022676
0.95043559
0.95092506
0.95135691
0.95230022
0.95307043
0.95478068
0.95592604
0.95832696
0.95983052
0.96270672
0.9645365
0.96791248
0.96978946
0.97387148
0.97606892
0.98045805
0.98294665
0.98794436
3.7155632
3.0856839
2.6097946
2.2431333
1.9709037
1.777085
1.6413445
1.5439454
1.4692834
1.4056911
1.344985
1.2838413
1.2223721
1.1630026
1.1092221
1.0636989
1.0277962
1.0012602
0.98261228
0.9700038
0.96190386
0.95682171
0.95361042
0.95160518
0.95034824
0.94952325
0.94907813
0.948889
0.94888339
0.9489656
0.94912761
0.94931065
0.94952152
0.94970505
0.9499118
0.95006259
0.95026188
0.950463
0.95082204
0.95114548
0.95196297
0.95261948
0.95401935
0.95500416
0.95719583
0.95845527
0.96123708
0.96267931
0.96571208
0.96755634
0.97115015
0.97310192
0.97727097
0.979565
0.98367734
3.7166903
3.0883196
2.6135989
2.2474368
1.9750496
1.7805857
1.6441121
1.546207
1.4714263
1.4081096
1.3479231
1.2873593
1.2262954
1.1670618
1.1130742
1.0670897
1.0305797
1.0034298
0.98424317
0.97115883
0.96276731
0.95746566
0.95410449
0.95200979
0.95071806
0.94983994
0.949346
0.94911849
0.94908368
0.94915794
0.94930662
0.94948096
0.94968382
0.94986978
0.95005234
0.95020112
0.95039257
0.95050572
0.95077396
0.9510679
0.95171462
0.95223333
0.95349326
0.9543938
0.95640481
0.95760143
0.96010167
0.96145761
0.9642752
0.96579701
0.96905573
0.97092076
0.9746009
0.9767762
0.98025622
3.7190924
3.0915803
2.6177826
2.2520215
1.9792812
1.7840913
1.6468994
1.5484873
1.4735716
1.4105452
1.3509004
1.2909417
1.2303434
1.1712432
1.1170747
1.070615
1.033494
1.0056714
0.98595007
0.9724126
0.96363995
0.95812559
0.95464381
0.95244769
0.95107352
0.95014692
0.94962898
0.94939209
0.94933395
0.94938418
0.94950825
0.94967357
0.94986523
0.95004327
0.95027066
0.9504259
0.95057868
0.95069818
0.95089802
0.95108872
0.95159357
0.95207057
0.95305877
0.95385509
0.95555945
0.95669164
0.95894698
0.96023761
0.96264644
0.9642217
0.9669849
0.96879903
0.97229636
0.97408058
0.9773666
3.7199781
3.0938875
2.6212779
2.256123
1.9833972
1.7876682
1.6497501
1.5507669
1.4756725
1.4128965
1.3537901
1.2944378
1.2342763
1.1753913
1.1210572
1.0741821
1.0364829
1.0080664
0.98776977
0.97371876
0.96466797
0.95889376
0.95521734
0.95294466
0.95155112
0.9505505
0.9499489
0.94965177
0.94957526
0.94962678
0.94975002
0.94991545
0.95009089
0.95025801
0.95047259
0.95064127
0.95082048
0.95090624
0.95101017
0.95118409
0.9516454
0.95200908
0.95288507
0.95356936
0.95527516
0.95634711
0.95857963
0.95960386
0.96171093
0.96333658
0.96525778
0.96771793
0.97078242
0.9721806
0.9748109
3.7229418
3.097324
2.6254127
2.2606527
1.9876271
1.7912364
1.6525955
1.5530986
1.4778009
1.4152504
1.3566832
1.2979979
1.2384036
1.179727
1.1253176
1.0780103
1.0397502
1.0106602
0.98986817
0.97536398
0.96586257
0.95986719
0.95609295
0.95368585
0.95218422
0.95115184
0.9505276
0.95020414
0.95006655
0.9500682
0.95015556
0.95030943
0.95048574
0.95065528
0.95085991
0.95105727
0.95125164
0.9513297
0.95139496
0.95148626
0.95175036
0.95206948
0.95277348
0.95340134
0.95485418
0.95587024
0.95788301
0.95898581
0.96099269
0.96239365
0.9639765
0.96654447
0.96889093
0.97020654
0.97278579
3.7234394
3.0991733
2.6284088
2.264399
1.9916417
1.7948876
1.6555588
1.5554568
1.4799949
1.417651
1.3596551
1.3015594
1.2424026
1.184073
1.1296363
1.0821855
1.043522
1.0140398
0.99269965
0.97777755
0.96810974
0.96172519
0.95772083
0.95524204
0.95371973
0.9525693
0.95182211
0.95142669
0.9512643
0.9512323
0.95129765
0.95141279
0.95152859
0.95166187
0.95179428
0.95199472
0.95215202
0.95221148
0.95222743
0.95228934
0.95255227
0.95277711
0.95317516
0.95374029
0.95516684
0.95639421
0.95828853
0.95910688
0.96087992
0.96202042
0.963763
0.96604631
0.968061
0.96938731
0.97222239
3.7271014
3.1033144
2.6328993
2.2691826
1.9962278
1.7989385
1.6589857
1.5583091
1.4826723
1.4206227
1.3630768
1.3055302
1.2468911
1.189142
1.1353921
1.088536
1.0500853
1.0206093
0.99895194
0.98394403
0.97382815
0.96712743
0.96296271
0.96034912
0.95860569
0.95739537
0.95657789
0.95608088
0.95581822
0.95567478
0.95563999
0.95562276
0.95561515
0.95561354
0.95558125
0.95560067
0.955596
0.95540266
0.95519396
0.95515489
0.9551769
0.95525118
0.95550747
0.95598645
0.95723612
0.95845486
0.96021144
0.96109037
0.96257619
0.96356011
0.96467244
0.96677971
0.96863607
0.97020552
0.97249688
3.726442
3.1059061
2.6360818
2.2739165
2.0021798
1.8047417
1.6640044
1.5626096
1.4880822
1.4279176
1.3722995
1.3157507
1.257508
1.201431
1.1497491
1.1061668
1.0694075
1.0420551
1.0196109
1.0055351
0.99553517
0.98755024
0.98243777
0.9798912
0.97796317
0.97633677
0.97541938
0.97477041
0.97447006
0.97423592
0.97416246
0.97386677
0.9734496
0.97307864
0.97252354
0.97215949
0.97140309
0.96982776
0.9686845
0.96786422
0.96744914
0.96736651
0.96737696
0.96763612
0.96850625
0.97005242
0.97166876
0.97259078
0.97345004
0.97412533
0.97444819
0.97600855
0.97691307
0.97889457
0.97965515
3.7321152
3.1303557
2.6542136
2.2983931
2.0294334
1.8283959
1.6837842
1.5809386
1.5132846
1.4644428
1.4184222
1.3644141
1.3027784
1.2475485
1.2013962
1.1682541
1.1386644
1.1194319
1.0975303
1.0877988
1.0781985
1.0698667
1.0627089
1.0599304
1.0562242
1.0534858
1.0520116
1.0503661
1.0495363
1.0488491
1.0484161
1.0467374
1.0451635
1.0426527
1.0400644
1.0385068
1.0354064
1.027541
1.0205834
1.0169944
1.0149344
1.0139385
1.0137632
1.0140192
1.0156566
1.0193044
1.0218499
1.0222526
1.0222884
1.0216703
1.0195056
1.0185151
1.0170769
1.0169109
1.0141048
3.7980729
3.3144847
2.7997431
2.4984939
2.22453
1.9784307
1.8000322
1.6887184
1.6547127
1.6554931
1.6589794
1.642725
1.5570302
1.4616399
1.4239076
1.4186121
1.4219313
1.4324529
1.4332788
1.435487
1.4349278
1.4347692
1.4333526
1.4327388
1.4299882
1.4286268
1.4291548
1.4302829
1.4314291
1.4321526
1.432358
1.429778
1.4268287
1.4209564
1.4067755
1.4012182
1.3912215
1.3623602
1.3246284
1.3053418
1.2960674
1.2929996
1.2929445
1.294966
1.3043866
1.3276186
1.344573
1.3481523
1.347711
1.3438485
1.3252463
1.3075172
1.2836104
1.2730052
1.2452666
4.5262774
4.4102376
3.8912894
3.8677751
3.7772986
3.4002074
3.1426603
3.1234242
3.1811258
3.3732681
3.53174
3.5299899
3.3909356
3.2053439
3.1647444
3.1798997
3.2439411
3.3321922
3.3587092
3.4077292
3.4237276
3.4574628
3.4764666
3.5050372
3.5082324
3.5168658
3.5284067
3.5473561
3.5529546
3.5629357
3.5703679
3.5625893
3.5644557
3.5553977
3.5328759
3.5611228
3.5429429
3.4647674
3.3550524
3.346144
3.3330226
3.3323034
3.3339488
3.3561178
3.4098035
3.4582519
3.5114652
3.5025987
3.4899787
3.4648036
3.3692113
3.319826
3.22649
3.1859096
3.0931063
11.272195
11.717737
11.85014
12.011542
12.209807
12.266281
12.122652
11.965019
11.888094
11.898435
11.933595
11.992446
12.051206
12.079839
12.085536
12.094377
12.11149
12.13511
12.159808
12.184403
12.210764
12.237439
12.267288
12.296765
12.326546
12.351264
12.377473
12.401639
12.42665
12.449124
12.473276
12.493673
12.512734
12.531605
12.542274
12.550366
12.594434
12.563262
12.557629
12.532908
12.516519
12.494695
12.47927
12.465515
12.465025
12.467845
12.477669
12.48554
12.48949
12.508846
12.501593
12.487678
12.506676
12.473369
12.473287
12.838517
3.162144
1.2550883
1.0188906
0.98249677
0.97467062
0.97429633
0.97522992
0.97747874
0.97995862
0.98329696
0.98671637
0.99072289
0.99537033
1.0005438
1.0065667
1.0133043
1.0210878
1.0309566
1.0436772
1.0584294
1.0702778
1.0804462
1.0987306
1.1244259
1.1520322
1.173769
13.555796
3.7049492
1.3483601
1.0391061
0.99077983
0.97993952
0.97847557
0.97952167
0.9817721
0.9841389
0.98728395
0.99106586
0.99555669
1.0003258
1.0059453
1.0119694
1.0188377
1.0263537
1.0355534
1.0479629
1.0630823
1.0763583
1.0855111
1.1009732
1.1260494
1.1555098
1.1766541
14.411671
3.8499033
1.3891913
1.0498645
0.99624932
0.9845082
0.9828408
0.98423423
0.98672994
0.9895699
0.9926462
0.99589877
1.0000553
1.004737
1.0100955
1.0162693
1.0231536
1.0309597
1.0402359
1.0524075
1.0679328
1.0824375
1.0922904
1.1062549
1.130369
1.1610871
1.1840332
15.220685
3.8495229
1.4020055
1.0552215
1.0002306
0.98753386
0.98559137
0.98685452
0.98950552
0.99260127
0.99624353
1.0006333
1.0054916
1.0108733
1.0165826
1.0228374
1.029748
1.0375007
1.0465269
1.0580611
1.073242
1.0883473
1.0986225
1.1109559
1.1331671
1.1649606
1.1906724
16.093142
4.2079755
1.4524678
1.0694544
1.0102506
0.9947378
0.99173189
0.99233558
0.99421241
0.99704918
1.000416
1.0045578
1.0093717
1.0146106
1.0205543
1.026929
1.0342079
1.0425277
1.0518963
1.064029
1.0793042
1.0958287
1.1070985
1.11941
1.1379437
1.1702035
1.1981901
17.128401
4.2967514
1.4876179
1.0801954
1.0172083
1.0004031
0.99778691
0.99902206
1.001914
1.0052455
1.0088278
1.0125899
1.0169909
1.0219184
1.027287
1.0332629
1.0399141
1.0474244
1.0564632
1.0678052
1.0828323
1.0997803
1.1125271
1.1249001
1.1417188
1.1722966
1.2038584
18.122992
4.3252606
1.5326598
1.0950909
1.0278969
1.0082376
1.0043047
1.0048137
1.0071492
1.0110471
1.0150678
1.0193001
1.0238955
1.0292
1.0349428
1.0414278
1.0486142
1.0563336
1.0653276
1.0759669
1.0902323
1.1069499
1.120262
1.1321107
1.1467201
1.1752959
1.2077683
19.175072
5.0146493
1.708171
1.139288
1.0487473
1.0217617
1.0145603
1.0135931
1.014831
1.0169961
1.0200978
1.0239943
1.0284483
1.0338393
1.0397854
1.0465058
1.0540432
1.062389
1.0716129
1.0826559
1.0970621
1.1146989
1.1292264
1.1417589
1.154973
1.1804755
1.2136436
20.445518
5.6448643
1.830483
1.1758275
1.057355
1.03012
1.0201984
1.0191165
1.020579
1.0236838
1.0274286
1.0319064
1.0364961
1.0417108
1.0478799
1.0543255
1.0616036
1.0694888
1.0780206
1.0884443
1.1021829
1.1203461
1.1356511
1.1498317
1.1623674
1.18663
1.2199074
21.745866
5.2192475
1.8169624
1.1780289
1.0611632
1.0342266
1.0237751
1.0227025
1.0241295
1.0279862
1.0324881
1.03782
1.043474
1.0494488
1.0564349
1.0633663
1.0711269
1.0790294
1.0875759
1.097359
1.1099409
1.1274828
1.1429546
1.1574492
1.168455
1.1892971
1.2240394
23.095127
5.1621554
1.8215136
1.1835412
1.0696057
1.041873
1.0313851
1.0302445
1.0315131
1.0358548
1.0396275
1.0443744
1.0496236
1.0555634
1.0622807
1.0694378
1.0773684
1.0856672
1.0949473
1.1051989
1.1179343
1.1355759
1.1524535
1.1681344
1.1795259
1.196081
1.230568
24.464504
5.5927924
1.9095772
1.2118992
1.0948959
1.0613059
1.0491171
1.0448474
1.0450208
1.0474029
1.0506815
1.054827
1.0593167
1.0644712
1.0704472
1.077094
1.0841318
1.0921938
1.1008815
1.1110582
1.1230736
1.1401016
1.1572974
1.1744865
1.1865397
1.2006018
1.2328805
26.064389
7.0979307
2.1355879
1.2705112
1.1149557
1.079435
1.0603657
1.0543744
1.0535378
1.0553436
1.0589368
1.0632943
1.0682024
1.0734837
1.0794316
1.0858504
1.0928588
1.1006394
1.1092738
1.1191536
1.1305557
1.1467932
1.1635203
1.1818513
1.1950469
1.2071747
1.2360025
27.8606
6.8612446
2.1091189
1.2685031
1.1151642
1.0834378
1.0629268
1.0575626
1.056693
1.0587551
1.0629809
1.0675015
1.0728061
1.0789343
1.0855675
1.0926484
1.1001241
1.1082049
1.1170573
1.1270308
1.1378836
1.1538974
1.169954
1.1892164
1.2043906
1.2153271
1.2398395
29.629226
5.7578682
1.9544224
1.2515338
1.1150093
1.0859666
1.0664122
1.0613008
1.0606425
1.0632207
1.0678086
1.0734399
1.0800003
1.0869363
1.0939868
1.1011611
1.1088529
1.1168477
1.1256543
1.1350279
1.1451007
1.1599133
1.1747875
1.1940071
1.2109028
1.2213661
1.2433191
31.46442
5.6529193
1.9482822
1.2568569
1.1201547
1.0925373
1.074608
1.0697601
1.0692533
1.0730409
1.0792516
1.0859766
1.0923254
1.0988419
1.1056872
1.1126662
1.1202017
1.1282654
1.1369401
1.1463158
1.1558292
1.1700936
1.1839809
1.202645
1.2207555
1.2310462
1.2503777
33.462361
6.1948569
2.0482891
1.2834895
1.1390785
1.1102392
1.0969833
1.0905316
1.0897983
1.0927921
1.0976259
1.1026116
1.1071747
1.1121222
1.1175026
1.1235231
1.1302832
1.1380347
1.1462437
1.1554246
1.16423
1.1776931
1.1908557
1.2081356
1.2278499
1.2385293
1.2577902
35.645467
7.8026404
2.3919807
1.3657712
1.1839348
1.138546
1.1227011
1.1097027
1.1056828
1.1063162
1.1089869
1.1127742
1.1168778
1.1216713
1.1267816
1.1327201
1.1390846
1.1466942
1.154851
1.1640853
1.1728106
1.1859235
1.1989148
1.2147944
1.2355059
1.2467619
1.2654828
37.97453
8.574331
2.6189855
1.440303
1.2159767
1.1617343
1.1402169
1.1232193
1.1160674
1.114863
1.116042
1.1189055
1.1229211
1.1277604
1.1333861
1.1399557
1.1470779
1.1552491
1.1638562
1.1735725
1.1819456
1.1947165
1.2073125
1.2212853
1.2419986
1.2534336
1.2725226
40.440438
8.6361724
2.6573946
1.4719872
1.2298271
1.1726675
1.1471446
1.1294756
1.1208668
1.1190872
1.1200245
1.1236605
1.1287211
1.1343169
1.1403442
1.1470412
1.1540909
1.1621409
1.170753
1.1808901
1.1893467
1.2020518
1.2154369
1.2279823
1.2496495
1.2619943
1.2821298
43.041375
8.3853292
2.6238157
1.4818177
1.2371146
1.182384
1.1556922
1.1387713
1.1285615
1.1262682
1.1272222
1.1308834
1.1356333
1.141067
1.1472302
1.1542685
1.1617172
1.1700036
1.1786243
1.1888971
1.1971085
1.2092068
1.2225313
1.2337969
1.2538198
1.2662815
1.286129
45.763996
8.1658073
2.5693158
1.4863557
1.242292
1.1899093
1.1622712
1.1485148
1.1385835
1.1371859
1.1385971
1.143197
1.1479084
1.1534936
1.159106
1.1651149
1.1716752
1.1787599
1.1866023
1.1961262
1.2040954
1.215107
1.2286392
1.2389426
1.2588481
1.272053
1.2929269
48.605588
8.2069634
2.5661314
1.4890197
1.2474994
1.1969556
1.1725432
1.1594131
1.1477529
1.1443468
1.1450352
1.1490692
1.1536871
1.1591972
1.1650377
1.1719888
1.1792328
1.1871126
1.1952869
1.2052551
1.2134304
1.2236843
1.2373775
1.2465679
1.2651556
1.2772451
1.2977107
51.550291
8.3820306
2.5838374
1.493126
1.2538946
1.2066054
1.1848039
1.1746652
1.1623398
1.1587486
1.1584741
1.1612637
1.1654069
1.1698772
1.1747635
1.1801006
1.1860399
1.1930934
1.2002648
1.2099861
1.2178894
1.2275811
1.2411587
1.2499533
1.2678002
1.2794694
1.2992378
54.581281
8.8686837
2.630953
1.5013327
1.264708
1.2176614
1.1987786
1.1863305
1.1731769
1.1672526
1.1663393
1.1685333
1.1724153
1.1775568
1.183058
1.1893092
1.1957366
1.2029914
1.2102869
1.2197356
1.2279667
1.2365663
1.2501608
1.2582907
1.2750928
1.2859552
1.3055733
57.68064
9.7780638
2.7422603
1.5205645
1.2822037
1.2335966
1.2139005
1.2019582
1.1882708
1.180962
1.1788245
1.1798078
1.1827496
1.1862609
1.1905446
1.1955865
1.201329
1.2084028
1.2151975
1.2245909
1.2327699
1.2412758
1.254346
1.2624555
1.2787955
1.2889252
1.3071125
60.819433
10.823583
3.0076808
1.569799
1.309225
1.2484819
1.228192
1.2135312
1.199166
1.190337
1.1871441
1.1879309
1.1907416
1.1947895
1.1994656
1.2045574
1.2101971
1.2166504
1.2229465
1.2316289
1.2398064
1.2478348
1.2605145
1.2683458
1.2834716
1.2937353
1.311176
63.961406
11.572019
3.2674962
1.6535004
1.3358205
1.2652193
1.242357
1.2266191
1.2122491
1.2011564
1.1966008
1.1961335
1.1977704
1.2011033
1.2050072
1.2099859
1.2156259
1.2222669
1.229063
1.237696
1.2461731
1.2540842
1.2665359
1.2740905
1.2892726
1.2988188
1.3151089
67.077894
12.517382
3.5967734
1.7583369
1.3729127
1.2826626
1.2558734
1.2379647
1.2229741
1.2108426
1.2055989
1.2047631
1.206346
1.209796
1.2136238
1.2183429
1.2231756
1.2289345
1.2345484
1.2423921
1.2503921
1.257921
1.2703244
1.2781547
1.2923342
1.3023717
1.3185219
70.131498
13.063183
3.7887456
1.8395393
1.4028341
1.299053
1.2679461
1.2488553
1.2334711
1.2199341
1.2130669
1.2111226
1.2120999
1.2148723
1.2186985
1.2234516
1.2288656
1.2351344
1.2410703
1.2490946
1.2565157
1.2638417
1.2751045
1.2819431
1.2951942
1.3046969
1.3201931
73.080831
13.988731
4.0740247
1.9270534
1.4333569
1.3115267
1.2769342
1.2567058
1.2416757
1.2280105
1.2207247
1.2183752
1.2190686
1.2217601
1.2253775
1.229559
1.2344314
1.2400691
1.2457031
1.2532798
1.2607383
1.2679794
1.2797759
1.2878595
1.3008028
1.3102617
1.3252343
75.875504
14.322334
4.2088754
1.9847499
1.4548727
1.3245678
1.2866186
1.2652995
1.249693
1.2352284
1.2269904
1.224081
1.2244415
1.2270669
1.230708
1.235167
1.2400198
1.2458593
1.2512981
1.2589547
1.2661902
1.2731211
1.2841299
1.2910945
1.3026312
1.3116273
1.3258347
78.497455
15.059141
4.4118599
2.0403817
1.4752186
1.3336061
1.2928522
1.2710461
1.2558306
1.241462
1.2327599
1.2293013
1.2294249
1.2317934
1.2354155
1.2397672
1.2442583
1.2500379
1.2549013
1.2620002
1.2687386
1.2752713
1.2860052
1.2935563
1.3058549
1.315164
1.3292141
80.840339
15.366659
4.5718589
2.096467
1.4938943
1.3433272
1.2997816
1.2771477
1.2613129
1.24652
1.2371804
1.2331309
1.2330235
1.2352159
1.2390213
1.2435867
1.2483388
1.254224
1.2593078
1.2666624
1.2737209
1.2805663
1.2911637
1.2990822
1.3095579
1.3177855
1.3312368
83.004274
15.731628
4.6818199
2.1247558
1.5028821
1.3476278
1.3034952
1.281336
1.2658014
1.2513794
1.2414393
1.2369127
1.2364468
1.2383295
1.2420559
1.2467161
1.2517274
1.2578471
1.2632183
1.2703658
1.2770993
1.2834131
1.2932249
1.300617
1.3111333
1.3195995
1.3332554
84.715979
16.504331
4.847866
2.156605
1.5111992
1.3512398
1.3065698
1.2842315
1.2687928
1.2544946
1.2442541
1.2393595
1.2386512
1.2404352
1.2440444
1.2485932
1.2535169
1.2596419
1.265094
1.2725198
1.2796497
1.2861796
1.2961736
1.3042066
1.315206
1.3225022
1.3351692
86.20574
16.801711
4.9593792
2.1829024
1.5173924
1.3543737
1.3099346
1.2876035
1.2719991
1.2575433
1.24681
1.2414184
1.2403126
1.2418713
1.2453785
1.249819
1.2547307
1.2609032
1.2665258
1.2739821
1.2812602
1.2883489
1.2985702
1.3063097
1.3171899
1.3246794
1.3380474
87.151456
17.568716
5.1243582
2.2099057
1.5222969
1.3564479
1.3120333
1.2899689
1.2743613
1.2597953
1.2488707
1.243065
1.2416949
1.2431085
1.2467014
1.2512051
1.2563053
1.2624173
1.2683496
1.2759534
1.2834434
1.2904789
1.3006963
1.3086597
1.3200132
1.3268543
1.3394579
87.756015
17.754231
5.247322
2.2360594
1.5257897
1.3580593
1.3134262
1.2919189
1.2765126
1.2620463
1.2510129
1.2449681
1.2434303
1.2445897
1.2478614
1.2522767
1.2575919
1.263706
1.2699264
1.277563
1.2853206
1.2927167
1.3029507
1.3110117
1.3222688
1.3290504
1.3419128
87.9487
17.65089
5.3202436
2.2581145
1.5278133
1.3588193
1.3142265
1.2933154
1.2779471
1.2636602
1.2525037
1.2464654
1.2449076
1.2459843
1.2492155
1.2534083
1.258405
1.2641752
1.2704489
1.2779795
1.2858153
1.2933846
1.3038166
1.3129226
1.3249097
1.332373
1.3450926
87.68478
17.579568
5.3937611
2.2784202
1.5298223
1.3590802
1.314555
1.2939857
1.2788816
1.2648829
1.2538644
1.2481185
1.246651
1.2475928
1.2507072
1.2545921
1.2597111
1.2654982
1.2718989
1.2795136
1.2875305
1.295574
1.30621
1.3153274
1.3262082
1.3337854
1.3465933
87.022228
17.47537
5.462801
2.2986014
1.5316467
1.3591829
1.3144242
1.2942831
1.2794549
1.2657853
1.2550859
1.2497464
1.2485637
1.2495688
1.2530614
1.2572134
1.2622621
1.267898
1.2740227
1.2814905
1.2894454
1.2977683
1.308494
1.3182318
1.3297817
1.3380849
1.3511193
86.007179
17.222651
5.4666318
2.3148754
1.5326593
1.3590359
1.3140473
1.2943461
1.2800392
1.2665152
1.2562896
1.2513996
1.2506255
1.2519767
1.2553296
1.259353
1.2639952
1.2696553
1.2754791
1.2829517
1.2907915
1.2991373
1.309786
1.3196856
1.3313279
1.3404574
1.3546766
84.588926
17.02084
5.4702505
2.3219904
1.5338411
1.3590808
1.3139947
1.2943137
1.2804649
1.2669927
1.2574423
1.2532773
1.2525516
1.2544795
1.2578709
1.262538
1.2673221
1.2733598
1.2791857
1.2866947
1.2947133
1.3031681
1.3141677
1.324243
1.3357016
1.3453944
1.3595007
82.848864
16.641794
5.3876084
2.3057898
1.5301174
1.3575324
1.3133868
1.2943826
1.2802753
1.2673298
1.258146
1.2552542
1.2545274
1.2573662
1.2607281
1.265049
1.2696302
1.2751325
1.2816836
1.2887604
1.2971258
1.3053081
1.3167986
1.3266826
1.3381705
1.3483231
1.363145
80.788325
16.416719
5.3527068
2.2939671
1.5246978
1.3564714
1.312563
1.2940752
1.2800471
1.2669302
1.2590644
1.2562426
1.2563213
1.2588632
1.2630514
1.2675189
1.2730923
1.279071
1.285026
1.2927587
1.3008826
1.3102983
1.3215808
1.3328777
1.3446069
1.3566246
1.3725838
78.483254
15.866354
5.2184251
2.2651056
1.516838
1.3542663
1.3117747
1.2938103
1.2795
1.2664602
1.2593692
1.2574804
1.257812
1.2614284
1.2660003
1.2709231
1.2762876
1.2825043
1.289965
1.2982728
1.306436
1.315791
1.3266709
1.3364975
1.3483173
1.3609984
1.3775611
75.933147
15.605687
5.102002
2.2105287
1.5010137
1.3500709
1.3098158
1.2928882
1.2784689
1.265457
1.2598912
1.2583002
1.2595593
1.2634852
1.2686337
1.2736462
1.2794245
1.2862236
1.2927481
1.3011502
1.3094848
1.3198096
1.3311387
1.3426062
1.3564827
1.37203
1.3893059
73.180551
15.360789
5.0304402
2.1855789
1.4919055
1.3472641
1.3081538
1.2914336
1.2766245
1.2646327
1.2603278
1.258946
1.2605845
1.2649064
1.2704222
1.2765413
1.2834897
1.2903486
1.2978244
1.3074464
1.317042
1.3288909
1.340551
1.3520049
1.3646555
1.3782473
1.3961945
70.369567
14.471571
4.7715627
2.1062208
1.4728895
1.3421048
1.3069674
1.2901376
1.2753191
1.2643611
1.2609329
1.260679
1.262698
1.2685236
1.27356
1.2801408
1.2869043
1.2961777
1.3053013
1.3143147
1.3243803
1.3349152
1.3457568
1.3578528
1.3740964
1.3940124
1.4138496
67.375921
14.293735
4.6768071
2.0537743
1.4545657
1.3360131
1.3032127
1.2879411
1.2727563
1.2642733
1.2618037
1.2616456
1.2646609
1.2707954
1.2766941
1.2840642
1.2917584
1.2993932
1.3091187
1.3186644
1.3295822
1.3418579
1.3559086
1.3723369
1.3894554
1.4047802
1.4233151