/*--------------------------------*- C++ -*----------------------------------*\
| =========                 |                                                 |
| \\      /  F ield         | OpenFOAM: The Open Source CFD Toolbox           |
|  \\    /   O peration     | Version:  2406                                  |
|   \\  /    A nd           | Website:  www.openfoam.com                      |
|    \\/     M anipulation  |                                                 |
\*---------------------------------------------------------------------------*/
FoamFile
{
    version     2.0;
    format      ascii;
    arch        "LSB;label=32;scalar=64";
    class       volScalarField;
    location    "10";
    object      omega;
}
// * * * * * * * * * * * * * * * * * * * * * * * * * * * * * * * * * * * * * //

dimensions      [0 0 -1 0 0 0 0];

internalField   nonuniform List<scalar> 
30397
(
19.325198
19.159107
19.035766
18.914236
18.811232
18.69362
18.574408
18.496924
18.472097
18.46595
18.431394
18.367255
18.282951
18.191455
18.09268
17.985584
17.899139
17.840336
17.809281
17.805093
17.798362
17.780292
17.750376
17.709159
17.665379
17.622625
17.582031
17.544568
17.507677
17.47388
17.443826
17.413595
17.379961
17.343674
17.304154
17.267725
17.235693
17.204895
17.174041
17.141598
17.106406
17.067371
17.02299
16.972983
16.920474
16.871094
16.834124
12.834987
12.625562
12.488829
12.340819
12.224887
12.094363
11.969385
11.860524
11.791235
11.742942
11.689694
11.621656
11.541014
11.463617
11.384761
11.295072
11.218156
11.151047
11.094435
11.052881
11.01478
10.978616
10.939861
10.893061
10.840779
10.786899
10.732475
10.680828
10.633598
10.5924
10.555128
10.517524
10.476383
10.432171
10.386629
10.345206
10.309387
10.274858
10.240769
10.205347
10.167789
10.127353
10.082743
10.034603
9.9868608
9.94937
9.9295765
9.4590421
9.2975125
9.188117
9.0590629
8.9696208
8.8618701
8.7616515
8.6629153
8.5917588
8.5317508
8.4766617
8.4108928
8.3349017
8.2656377
8.1978341
8.123342
8.0567214
7.9938513
7.9403819
7.8953431
7.8537971
7.8154057
7.7731342
7.723956
7.6716976
7.6198426
7.5694225
7.5209049
7.4763998
7.436014
7.3974695
7.3594719
7.3205383
7.2803614
7.2407548
7.2042192
7.1708035
7.1373524
7.1038731
7.069792
7.0348208
6.9996295
6.9635044
6.927493
6.8946671
6.8704449
6.8580183
7.5156364
7.3263777
7.2430339
7.1322705
7.0622944
6.9739899
6.8955419
6.8109895
6.7430966
6.6802433
6.6267246
6.5682216
6.501119
6.4375671
6.3747538
6.3136814
6.257146
6.2024206
6.1563826
6.1143944
6.0737268
6.0329733
5.9871211
5.9411862
5.897664
5.8562531
5.8143377
5.770522
5.7284121
5.6883875
5.6491901
5.6118152
5.5750972
5.5386678
5.5034585
5.4704339
5.4390304
5.4081332
5.3781441
5.3493402
5.321203
5.2943524
5.2681494
5.2431816
5.2207972
5.2029731
5.1892849
6.0497018
6.0431715
5.9808825
5.883812
5.823724
5.7467099
5.6809502
5.6072227
5.5443927
5.4838004
5.433007
5.3821135
5.3236215
5.2646781
5.2075597
5.1555351
5.1057074
5.0595474
5.0205399
4.9819801
4.9432866
4.9032515
4.8608476
4.8223383
4.7852064
4.7471293
4.7065984
4.6651829
4.6260533
4.5902075
4.5563839
4.5238075
4.490959
4.4578174
4.4259433
4.3962281
4.3686201
4.3430147
4.3191212
4.2970526
4.2759786
4.2556777
4.2354963
4.2159868
4.1976489
4.1812977
4.1656328
5.372117
5.1526972
5.1074411
5.0214443
4.9674184
4.8980458
4.8400919
4.7744663
4.7164938
4.660093
4.6131335
4.5665626
4.513559
4.460791
4.4105303
4.3653685
4.322765
4.2845806
4.2482224
4.2114799
4.1773393
4.1417825
4.1053334
4.0724291
4.0373571
4.0003389
3.9622491
3.9258184
3.8926666
3.8625216
3.8334897
3.8037287
3.7732547
3.7435301
3.7162852
3.6918053
3.6701835
3.6508067
3.6323122
3.6142668
3.5963068
3.5784623
3.5607562
3.5439469
3.528334
3.5139798
3.499582
5.0067617
4.5099457
4.4737677
4.3974432
4.3487427
4.2858781
4.2335012
4.1746744
4.1218259
4.0711841
4.026954
3.9811763
3.9341569
3.8885202
3.8444898
3.804957
3.768317
3.7344914
3.7016944
3.6707003
3.6414966
3.6091294
3.5782259
3.5482553
3.5139758
3.4790047
3.4454863
3.4146356
3.3861227
3.3592265
3.3325016
3.3053252
3.2791238
3.2553298
3.2349723
3.2173266
3.2012944
3.1854825
3.1691665
3.1526547
3.1364511
3.120678
3.1057535
3.0920498
3.0795851
3.0678015
3.0554984
4.7523857
4.0316239
3.9985207
3.9289075
3.8846109
3.8287951
3.7816806
3.7291907
3.6814224
3.6358834
3.592922
3.5488557
3.5076537
3.4662029
3.4268768
3.3929095
3.3626253
3.3321626
3.3027032
3.2770555
3.2521373
3.2245334
3.1966939
3.166973
3.1339524
3.1037458
3.0754528
3.0477789
3.0212661
2.9963598
2.9726261
2.9505621
2.9313146
2.9146523
2.8998836
2.88551
2.8706611
2.855224
2.8396383
2.8245923
2.8103762
2.7971743
2.7850852
2.7739154
2.7634713
2.7529244
2.741872
4.5577923
3.6625838
3.6304393
3.5674013
3.5261324
3.4753193
3.4325986
3.3865351
3.3439045
3.3016515
3.2598687
3.2190883
3.1811109
3.143327
3.1090902
3.0800685
3.0530963
3.0258567
3.0012674
2.9805282
2.9591481
2.9345729
2.907623
2.8785684
2.8496341
2.8238801
2.7974627
2.7712312
2.7477768
2.726749
2.7073483
2.6904579
2.6761769
2.6628658
2.6494695
2.6353606
2.6207417
2.6063364
2.5924836
2.5795103
2.567343
2.5561138
2.5458269
2.5360617
2.5265673
2.5165965
2.5065683
4.4050151
3.3687207
3.3364857
3.2798123
3.2413993
3.1939649
3.1545045
3.113977
3.076681
3.0369357
2.9967232
2.9586041
2.9228157
2.8897646
2.8599518
2.8343789
2.8104201
2.7870824
2.7674396
2.7500889
2.7301711
2.7060679
2.6804574
2.6551136
2.6298452
2.6052843
2.5804008
2.5570518
2.536987
2.5200283
2.5053424
2.4919337
2.478819
2.4649576
2.4508092
2.4369089
2.4234275
2.4107615
2.3990278
2.3879501
2.3773092
2.3672275
2.3579327
2.3489214
2.3397974
2.3302259
2.3211819
4.388696
3.1322557
3.0962314
3.0455396
3.0093883
2.9648331
2.9278753
2.8916895
2.8591354
2.8223697
2.7848368
2.7489962
2.7158322
2.6872844
2.6607836
2.6380014
2.6173274
2.5979962
2.5815626
2.5655879
2.545335
2.5223788
2.5000339
2.4767976
2.4523609
2.4285768
2.4057893
2.3862923
2.3702096
2.3565046
2.3432815
2.3293436
2.3150088
2.3007608
2.287341
2.2749589
2.2634533
2.2527276
2.2421489
2.2314308
2.22117
2.2116466
2.2031538
2.1948831
2.1863014
2.1773988
2.169232
4.437215
2.9439282
2.8962289
2.8508217
2.8167185
2.775424
2.7411707
2.708073
2.6788574
2.6454061
2.6110838
2.5775717
2.5481699
2.5228193
2.4983423
2.4776209
2.4600696
2.4433571
2.4279725
2.4113259
2.3916736
2.3712792
2.3508473
2.3278758
2.303896
2.2820674
2.262325
2.2463383
2.2325951
2.2190315
2.204313
2.1889091
2.1742355
2.1610903
2.1493737
2.1386747
2.1281061
2.1175528
2.1069211
2.0965139
2.0871295
2.0787251
2.0713013
2.0639519
2.0558614
2.0473961
2.0399413
4.5281445
2.7849328
2.7267074
2.6861717
2.6542953
2.6163403
2.584499
2.5531379
2.5263056
2.4971575
2.4665136
2.4356305
2.4096786
2.3862235
2.363095
2.343421
2.3271837
2.3113703
2.2960458
2.2792387
2.2616559
2.2431409
2.2216443
2.1983158
2.1761029
2.1571924
2.1402683
2.1255603
2.1108474
2.095374
2.0795432
2.0643964
2.0513958
2.040855
2.031166
2.0210989
2.0102963
1.9993505
1.9886519
1.9787111
1.9700019
1.9624413
1.9557728
1.9490617
1.9413142
1.9331544
1.9261244
4.5463492
2.6404526
2.5807088
2.5448649
2.5157114
2.4816027
2.4518703
2.4215474
2.3960649
2.370993
2.3439029
2.3162958
2.2928896
2.2698722
2.2472971
2.2278842
2.2116538
2.1959749
2.1814656
2.1658778
2.1494127
2.1299115
2.1068432
2.0841197
2.0639806
2.0471982
2.0315968
2.0162578
2.0001635
1.9842414
1.969466
1.9566221
1.9457155
1.9362359
1.9264116
1.9155736
1.9037681
1.8920153
1.8809497
1.8711735
1.8629044
1.8560215
1.849757
1.8430994
1.8349517
1.8264143
1.8192972
4.5314219
2.5100552
2.4543636
2.4224375
2.3955478
2.3649562
2.3370571
2.3082902
2.2839728
2.2616198
2.2375599
2.2134277
2.1914309
2.1680361
2.1454127
2.1260023
2.1091506
2.0942537
2.0812097
2.065933
2.0485216
2.0273521
2.0042087
1.9829801
1.9646263
1.9488817
1.933128
1.9168555
1.9007676
1.8859372
1.8729477
1.8615303
1.8510427
1.8412393
1.8301679
1.8178903
1.8051486
1.7931557
1.7823051
1.7730609
1.7655035
1.759108
1.7528548
1.7456245
1.7365561
1.7270882
1.7190242
4.4843627
2.3944293
2.3433604
2.314984
2.2899868
2.2622438
2.2358455
2.2090871
2.1859102
2.1651063
2.1435554
2.1218401
2.1000507
2.0761486
2.0535787
2.0342906
2.0173469
2.0035479
1.9907494
1.9746632
1.9562227
1.934549
1.9126666
1.8930878
1.8757663
1.8598149
1.8432942
1.8268571
1.8114931
1.7980171
1.7861003
1.774928
1.7635717
1.7522519
1.7397748
1.7269686
1.7146887
1.7035163
1.6934667
1.6846923
1.6769611
1.6697012
1.6620734
1.6532669
1.6430657
1.63307
1.624851
4.4838069
2.2975923
2.2442551
2.2193366
2.1965874
2.1707688
2.1453864
2.1203714
2.0982406
2.0776411
2.0578674
2.0379351
2.0160745
1.9921722
1.9701835
1.9512878
1.9346315
1.9210092
1.9073239
1.890111
1.8714579
1.851042
1.830989
1.812049
1.7944519
1.7772955
1.7601481
1.7445505
1.7305395
1.7180232
1.7065819
1.6948632
1.6821905
1.6694485
1.6564263
1.6441128
1.6327898
1.6222355
1.6120468
1.6025462
1.5935613
1.5847106
1.575825
1.566292
1.5564207
1.5475318
1.5404996
4.5094038
2.2194908
2.1551904
2.1332325
2.112595
2.088321
2.0634431
2.0396504
2.0186606
1.9975318
1.9786113
1.9599492
1.9383392
1.9152758
1.8943184
1.8756355
1.8590513
1.8449603
1.8302199
1.8129854
1.7947915
1.7755921
1.7563148
1.7370582
1.7190914
1.7014083
1.6847982
1.6704548
1.6572806
1.6451215
1.6330766
1.6198616
1.6059322
1.5927228
1.5803875
1.5688678
1.5574526
1.5460835
1.534968
1.5246274
1.5150919
1.5062722
1.4979951
1.489615
1.481356
1.4740159
1.4680435
4.5844453
2.1514129
2.0734832
2.0548613
2.0361435
2.0132853
1.9881817
1.9650488
1.9452371
1.9240712
1.9053434
1.887524
1.8664795
1.8445341
1.8244603
1.8057603
1.789328
1.7749541
1.7601088
1.7433432
1.7248795
1.7053928
1.686011
1.6668697
1.6495429
1.632424
1.6171458
1.6039632
1.5910456
1.5781043
1.5641008
1.5492089
1.5350307
1.5225276
1.5108555
1.4992841
1.487473
1.4757541
1.4647383
1.4552868
1.447047
1.4395485
1.4324045
1.425086
1.4177596
1.4107313
1.4045679
4.6402675
2.0870763
1.9980964
1.9832194
1.9661099
1.9443714
1.9188119
1.8958886
1.8771384
1.8564668
1.83766
1.8202926
1.8001416
1.7790485
1.7595236
1.7411886
1.725401
1.711004
1.6963593
1.6794542
1.6596971
1.639591
1.6204013
1.6022496
1.5861898
1.5702357
1.5562179
1.5432504
1.5293734
1.5147298
1.499245
1.4844651
1.4712775
1.4594862
1.4483502
1.4371939
1.4258929
1.4151246
1.4057518
1.3980781
1.3912091
1.384665
1.3778756
1.3704614
1.3629225
1.3555862
1.349047
4.6490593
2.0260035
1.9286692
1.917195
1.9013589
1.8807292
1.8547704
1.8320572
1.8141781
1.7941437
1.7752544
1.7580625
1.7387134
1.7184387
1.6992876
1.6818282
1.6668879
1.6526111
1.6379162
1.6202419
1.5993078
1.5791608
1.5609358
1.5441909
1.5290444
1.5138256
1.5004773
1.4866671
1.4713645
1.4558232
1.4406836
1.4273099
1.4157542
1.4052587
1.394955
1.3844615
1.3742747
1.3652819
1.357737
1.3513702
1.3450396
1.3384102
1.3310662
1.3232004
1.3156677
1.3086119
1.3024578
4.6177251
1.9649743
1.8647796
1.8561757
1.8412187
1.821897
1.7958068
1.7734331
1.7562709
1.7369979
1.7182651
1.7009775
1.6820656
1.6624626
1.6436238
1.6274075
1.6135272
1.5992624
1.5840453
1.5655164
1.5443367
1.5253963
1.5085622
1.4924018
1.4772005
1.4622879
1.4492091
1.4343904
1.4185573
1.4035014
1.3900869
1.3789514
1.3693317
1.3597296
1.3500464
1.3403744
1.3316578
1.324385
1.317938
1.3117211
1.305034
1.2978292
1.2903292
1.2830154
1.2764905
1.2704228
1.2649979
4.5670189
1.9083433
1.8062796
1.7998532
1.7856074
1.7676704
1.7419645
1.7200177
1.7032432
1.6846817
1.6662993
1.6488273
1.6299347
1.6108933
1.5928769
1.5780477
1.5648105
1.5501734
1.5344072
1.5154167
1.4952221
1.4780844
1.4620396
1.4455572
1.4300793
1.4155464
1.4024819
1.3872267
1.3719946
1.3587708
1.3477892
1.3384365
1.3298517
1.3209857
1.3122371
1.3038266
1.2964254
1.2899966
1.2837103
1.277205
1.2703047
1.2635469
1.2570398
1.2509571
1.2456
1.2405779
1.2363505
4.5223846
1.8595134
1.753471
1.747929
1.7344546
1.7179045
1.6928988
1.6716655
1.6548661
1.6368898
1.6189885
1.6012939
1.5823097
1.563849
1.5471069
1.5332644
1.5198021
1.5046782
1.4887035
1.4698864
1.4514325
1.4356052
1.419482
1.4027372
1.3878092
1.3741617
1.3610446
1.3458529
1.3322795
1.3214212
1.3122049
1.3038884
1.2962319
1.2884091
1.2806863
1.2733696
1.2670026
1.2609619
1.2546096
1.2482101
1.2420551
1.2363654
1.2311496
1.2265052
1.222545
1.2190144
1.2165495
4.5109646
1.8230696
1.7055684
1.7004314
1.6878516
1.6725337
1.6484188
1.6279922
1.6109157
1.5934846
1.5759971
1.5579484
1.5389803
1.5213461
1.5058067
1.4922247
1.4780436
1.4626461
1.4466992
1.4287163
1.4120067
1.3964688
1.3800905
1.3642709
1.3506253
1.33765
1.3246364
1.310492
1.2990653
1.2899626
1.2819845
1.2746943
1.2681233
1.2614124
1.2547737
1.2484956
1.2429796
1.2374132
1.2314312
1.2255863
1.2205207
1.2163557
1.2126197
1.2093278
1.2068499
1.204855
1.2038246
4.5143843
1.804541
1.6617747
1.6572165
1.6456267
1.6312857
1.6082874
1.5884774
1.570997
1.5538859
1.5365519
1.5181344
1.4994448
1.4829356
1.4682817
1.4542197
1.4392995
1.4240163
1.4083925
1.3913666
1.3757942
1.3601454
1.3446913
1.3307163
1.3182329
1.3056322
1.2932101
1.2807768
1.2712757
1.2634565
1.2567396
1.25087
1.2454635
1.2397723
1.2342434
1.2288485
1.2239878
1.2190233
1.2138941
1.2090532
1.2052152
1.2023778
1.1999989
1.1980289
1.1969444
1.1961253
1.1958236
4.5722687
1.7979952
1.6220081
1.6180077
1.6072748
1.5938442
1.5718928
1.5525344
1.5345389
1.5174495
1.4999625
1.4812129
1.4632639
1.4478869
1.4337125
1.4188306
1.4036679
1.3887472
1.3733685
1.3572888
1.3425344
1.3276392
1.3140791
1.3018587
1.28984
1.2777816
1.2666136
1.2561899
1.2483743
1.2417728
1.2366429
1.2324301
1.2283244
1.2235556
1.2185193
1.2137126
1.2093523
1.2051533
1.2010007
1.1972255
1.1945874
1.1928487
1.1915435
1.1908202
1.1907608
1.1905688
1.1905862
4.6563562
1.7973662
1.5869822
1.5823974
1.5722611
1.5596575
1.5386915
1.5196599
1.5010035
1.48362
1.4657683
1.4468783
1.4300076
1.4154177
1.4013892
1.3861077
1.3712089
1.3566399
1.3413766
1.3263103
1.3126201
1.2994935
1.2882263
1.2769287
1.2651168
1.2541052
1.2446788
1.236486
1.2303586
1.2253416
1.2217709
1.2188889
1.2153431
1.210854
1.2062661
1.2021384
1.1984858
1.1949606
1.191541
1.1889821
1.1875178
1.186732
1.1863064
1.1865041
1.1869346
1.1869741
1.187057
4.7267513
1.7983157
1.5570921
1.5500528
1.5402509
1.5282336
1.5081503
1.489341
1.4699783
1.4522233
1.4338713
1.4149987
1.399186
1.3850456
1.370971
1.355964
1.3418708
1.3274984
1.3125006
1.2988005
1.2864309
1.2758634
1.2663195
1.2552754
1.2440974
1.2345872
1.2273454
1.2214182
1.217043
1.2135695
1.2111665
1.2085545
1.2047909
1.2005545
1.1968128
1.1935016
1.1905616
1.187879
1.1855277
1.1840989
1.1834887
1.1833603
1.1836342
1.1842528
1.184657
1.1845631
1.1846028
4.7788153
1.8027744
1.5329619
1.5208886
1.5110047
1.4991262
1.4796805
1.4610859
1.4412277
1.4230404
1.4042543
1.3854877
1.3703666
1.3565418
1.3426307
1.3285905
1.3154905
1.3013194
1.2872253
1.2750462
1.2644118
1.2561956
1.2475142
1.2367888
1.2267025
1.2192345
1.2143169
1.2103971
1.2075109
1.2050826
1.2031347
1.200161
1.1964106
1.1928438
1.1899414
1.1873915
1.1852688
1.1836826
1.1826061
1.1820628
1.182004
1.1820177
1.1821062
1.1825946
1.1830296
1.1831969
1.1834114
4.8242479
1.8101184
1.5137351
1.4947561
1.4841815
1.4719867
1.452823
1.4344428
1.4144278
1.3957612
1.3768679
1.3583714
1.3435727
1.3299796
1.3167153
1.304207
1.2919481
1.2783106
1.2657809
1.2551995
1.2464819
1.2396728
1.2314547
1.2212946
1.2127595
1.2075194
1.2047924
1.20245
1.200484
1.1986741
1.1966272
1.1934232
1.19006
1.1871713
1.1849455
1.1832915
1.1822971
1.1816666
1.1815048
1.1817667
1.1818579
1.1815474
1.1814342
1.1818632
1.1823383
1.1825838
1.1828893
4.8747998
1.8226229
1.5000106
1.471679
1.4594307
1.4464469
1.4272797
1.4091954
1.3892931
1.3703055
1.351621
1.3336202
1.3189861
1.3055959
1.2934434
1.282512
1.2710708
1.2585544
1.247967
1.2390895
1.2318068
1.2255084
1.2177753
1.2085829
1.20184
1.1988832
1.1979233
1.1964673
1.1949873
1.1934178
1.1913062
1.188276
1.1852467
1.1829392
1.1816072
1.1810975
1.1810847
1.1812511
1.1816133
1.1818595
1.1816642
1.1811985
1.1811686
1.1817897
1.1823206
1.1824862
1.1826495
4.907043
1.8503389
1.4934735
1.4509077
1.4363118
1.4223407
1.4029574
1.3850939
1.3655416
1.3466971
1.3284775
1.3112779
1.2968258
1.2838389
1.2730199
1.2633043
1.2527287
1.2418539
1.2334557
1.2261358
1.2196059
1.2135106
1.2064817
1.1984958
1.1938657
1.1928957
1.1928996
1.1917566
1.1903082
1.1889521
1.1869975
1.1842731
1.1818246
1.1805181
1.1801677
1.1805925
1.1811695
1.1814273
1.1815349
1.1816546
1.1814907
1.1812318
1.1815247
1.1823052
1.1827348
1.1827952
1.1830135
4.9549478
1.888113
1.4920568
1.4326833
1.4148997
1.3994117
1.3798548
1.3621589
1.3431993
1.3249763
1.3073911
1.2911788
1.2771087
1.2649504
1.2554977
1.2466797
1.2369297
1.2279628
1.2216075
1.2155461
1.2094222
1.2036813
1.1973982
1.1910424
1.1884045
1.1887287
1.1891043
1.1877235
1.186291
1.1851797
1.1835517
1.1814975
1.179857
1.1794202
1.1800734
1.1811054
1.1815588
1.1813446
1.1811341
1.1813115
1.1814588
1.1813992
1.1818493
1.1827648
1.1832322
1.183476
1.1840466
5.01072
1.9327354
1.4923717
1.4160774
1.3947937
1.3778592
1.3580862
1.3405836
1.3224513
1.3051829
1.2883488
1.2731803
1.2597811
1.2488541
1.2406824
1.2326489
1.2237272
1.2165895
1.2117948
1.2066152
1.2009896
1.1957364
1.1904185
1.1857636
1.1846633
1.1856776
1.1857961
1.1843972
1.183332
1.1825417
1.1813538
1.1799077
1.179064
1.1794651
1.1806257
1.1816201
1.1816758
1.1810953
1.1808816
1.1811944
1.1814174
1.1814808
1.1821169
1.1832284
1.1841633
1.1849474
1.1860083
5.0415342
1.9815282
1.4944144
1.4013631
1.3758537
1.357701
1.337849
1.3206953
1.3033973
1.2872432
1.2712353
1.2571058
1.2447117
1.2352977
1.2282994
1.2208949
1.2129356
1.2073068
1.2035248
1.1989321
1.1939188
1.189288
1.1852114
1.1820833
1.1819781
1.1830814
1.1831182
1.1820295
1.1813886
1.180851
1.1800649
1.1791955
1.1789548
1.1797697
1.1811051
1.1818879
1.1817277
1.1813161
1.1812367
1.1814598
1.1815017
1.1815826
1.1826211
1.1842737
1.1857424
1.1870339
1.188689
5.0701409
2.0278694
1.49941
1.3875897
1.3579758
1.3388512
1.3188982
1.3023066
1.2861159
1.2711956
1.2560458
1.2429811
1.2317335
1.2239536
1.2179494
1.2110957
1.2042571
1.1997947
1.1966022
1.1924792
1.187961
1.1841671
1.1814521
1.1794397
1.1797699
1.1810683
1.1813204
1.1805919
1.1801542
1.179764
1.1792928
1.1788167
1.1789762
1.180098
1.1813691
1.1820733
1.1820444
1.1818933
1.1818519
1.1818765
1.1817701
1.1821641
1.1837621
1.18595
1.1878454
1.1893999
1.19132
5.0739139
2.0662752
1.5035036
1.3746224
1.3410865
1.3215531
1.3019343
1.2858851
1.2706226
1.256862
1.2426312
1.2306427
1.2207651
1.2146421
1.2093634
1.2028992
1.19724
1.1937425
1.1910022
1.1871753
1.1830247
1.1802272
1.1785577
1.1773773
1.1780568
1.1795555
1.1803469
1.1798638
1.1793388
1.1789615
1.1786742
1.1785714
1.1791463
1.1803824
1.1815931
1.1823479
1.1825233
1.1824411
1.1824336
1.1824082
1.1825221
1.1834935
1.1857128
1.1884151
1.1904004
1.1915093
1.1931497
5.0744376
2.0921482
1.5056385
1.3614773
1.3248476
1.3048863
1.2858366
1.2705511
1.2566426
1.2440945
1.2308123
1.2197875
1.2112771
1.2066855
1.201987
1.1961228
1.1915582
1.1889484
1.186525
1.1828857
1.1791402
1.1771884
1.1763294
1.1757637
1.1766799
1.1787655
1.1799547
1.1794281
1.1786137
1.1781318
1.1781389
1.1784669
1.1794082
1.1807328
1.1820035
1.1827509
1.1830191
1.1830584
1.1831889
1.183441
1.1840268
1.1857757
1.1885748
1.1913829
1.1929505
1.1939298
1.1953437
5.0642731
2.1067687
1.5061077
1.3491378
1.3098818
1.2898745
1.2717679
1.2571543
1.2444383
1.2329786
1.22067
1.2106591
1.2036846
1.2002382
1.1959433
1.1905914
1.1869699
1.1851994
1.1829125
1.1795363
1.1762427
1.1749325
1.1745833
1.1746899
1.1759623
1.1785429
1.1797683
1.1789087
1.1777478
1.1772744
1.1776821
1.1785434
1.1798114
1.1813079
1.182639
1.1833301
1.1835496
1.1835889
1.1841136
1.1849774
1.1863338
1.188735
1.1920472
1.1947539
1.1957524
1.1963327
1.1974569
5.0534719
2.1146484
1.5052723
1.335935
1.295247
1.275224
1.2581747
1.2448837
1.2334679
1.222941
1.2117547
1.2027807
1.1970179
1.1944153
1.1905847
1.1860552
1.183341
1.1821387
1.1801318
1.1770939
1.1742388
1.173224
1.1732638
1.1740276
1.1758009
1.178617
1.1794921
1.1781832
1.1768239
1.1766066
1.1774685
1.1788024
1.1803832
1.1819903
1.1833215
1.1839088
1.1841156
1.1845175
1.1857777
1.1874902
1.1895182
1.1922672
1.1954927
1.1975228
1.1982162
1.199283
1.2014343
5.0347678
2.1172898
1.5012221
1.3236245
1.2821827
1.2623223
1.246403
1.2342091
1.2238239
1.2144202
1.2043019
1.1964466
1.1917945
1.1896402
1.1861901
1.1824022
1.1804323
1.1795725
1.1778001
1.1753065
1.1728052
1.1719399
1.1722429
1.1736915
1.1759843
1.1787847
1.179047
1.1774242
1.176149
1.176256
1.1775552
1.1792047
1.1808936
1.1825287
1.1838626
1.1845151
1.1849309
1.1859125
1.1879004
1.189861
1.1920352
1.1947662
1.1978565
1.2001478
1.2013125
1.2026759
1.2041219
5.0155303
2.1172952
1.4891057
1.3103899
1.2692662
1.2497659
1.2352602
1.2246309
1.2153176
1.2067754
1.1978726
1.191243
1.1875951
1.185725
1.1825741
1.1794985
1.1780524
1.1773035
1.1760824
1.1741714
1.1717343
1.1709302
1.1714993
1.1735555
1.1762929
1.178876
1.1784447
1.1765988
1.1755667
1.1760821
1.1776877
1.1794819
1.1812215
1.1831156
1.1847717
1.185949
1.1868225
1.1881672
1.1904376
1.1927179
1.1951223
1.1979239
1.2010496
1.2030553
1.2039496
1.2051664
1.2076126
4.9959112
2.1163329
1.4776751
1.2985871
1.2582664
1.2392383
1.2256458
1.2161954
1.2078899
1.2004579
1.1927381
1.1872087
1.1841549
1.1822229
1.1794695
1.1770789
1.1760177
1.1754307
1.1748107
1.1733463
1.1709086
1.1701431
1.1710087
1.1736532
1.1766161
1.1786572
1.1776303
1.1756953
1.1750754
1.1759412
1.1776689
1.1795094
1.1815371
1.1837514
1.1858885
1.1872378
1.1881889
1.1898375
1.1922404
1.1944895
1.1968684
1.1997863
1.2030147
1.205057
1.206502
1.2088693
1.2111693
4.9697735
2.1128191
1.4615913
1.2857805
1.2473303
1.229431
1.2170587
1.2087439
1.2013888
1.1948962
1.1881544
1.1839437
1.1817156
1.1797201
1.1770348
1.1751739
1.1743335
1.1738771
1.1737812
1.1725412
1.1701595
1.1696168
1.1709746
1.1738898
1.1768407
1.1782329
1.1767146
1.1749073
1.1748122
1.1759864
1.1778191
1.179778
1.1822859
1.1855689
1.1881779
1.1894308
1.1904962
1.1925207
1.1949274
1.1969543
1.1991446
1.2020888
1.2053271
1.2073212
1.2085549
1.2107099
1.2136064
4.9397725
2.1051804
1.4438071
1.2744771
1.2380219
1.2208345
1.2095619
1.2023053
1.1959932
1.1903649
1.1846738
1.1814376
1.1797717
1.1777816
1.1753063
1.1740038
1.1732385
1.1728791
1.17307
1.1718282
1.1693868
1.169027
1.170964
1.1741785
1.1767696
1.177562
1.1756828
1.17409
1.1743248
1.1759484
1.1781475
1.1803752
1.1831727
1.1868061
1.1891351
1.1902082
1.1915082
1.1938893
1.1964334
1.1983632
1.200374
1.2033241
1.2066307
1.208762
1.2103323
1.2134132
1.2180798
4.913984
2.0790054
1.4243018
1.2628632
1.2289728
1.2132043
1.2030888
1.1968566
1.1913895
1.186403
1.18167
1.1792955
1.1781764
1.1759295
1.1735317
1.1727459
1.1722256
1.17211
1.1726757
1.1713619
1.1687719
1.1687848
1.1712805
1.1745294
1.1766791
1.1769867
1.1750842
1.173785
1.1743672
1.1763229
1.1788549
1.1816607
1.1854602
1.1891141
1.1911004
1.1921364
1.1936531
1.1963697
1.1990042
1.2008585
1.2031623
1.2065591
1.2102168
1.2129269
1.2154127
1.2201435
1.2241452
4.8220601
1.9596148
1.3667275
1.2396443
1.2123839
1.1994115
1.1915059
1.1877743
1.184367
1.1808542
1.1778969
1.1767088
1.176514
1.1743746
1.1720648
1.1717229
1.1712294
1.1712988
1.1720996
1.1706455
1.1679379
1.1684069
1.1714989
1.1744625
1.176015
1.1762372
1.1747706
1.1735994
1.1743558
1.1766444
1.1795694
1.1826525
1.1859618
1.1889497
1.191004
1.1923744
1.1940142
1.1965825
1.1992842
1.2011876
1.2030953
1.2058814
1.2094747
1.2128807
1.2160579
1.2199541
1.2256981
4.7876634
1.6841913
1.2828925
1.2097178
1.1942293
1.1853993
1.1799877
1.179013
1.1780896
1.1761831
1.174293
1.1738673
1.1740803
1.1725642
1.1706046
1.1701529
1.1699283
1.1710142
1.171967
1.1704961
1.167626
1.1682193
1.1720234
1.1747839
1.1756234
1.1756435
1.1751404
1.1742622
1.1744978
1.1763842
1.1795288
1.1831771
1.1863467
1.1888297
1.1906844
1.1923284
1.1941718
1.1966178
1.1993567
1.2015532
1.2034287
1.2058887
1.2093556
1.2132862
1.2171252
1.2208978
1.2269183
4.6575518
1.5002121
1.2277494
1.1888805
1.1821578
1.1774385
1.1741431
1.1742122
1.1744802
1.173394
1.1719564
1.1716186
1.171684
1.1705279
1.1693917
1.1687969
1.1689077
1.1710552
1.171668
1.1703201
1.1678839
1.1684967
1.1722138
1.1746362
1.1751902
1.1750722
1.1754909
1.175427
1.1754517
1.1766312
1.1794045
1.1832542
1.186557
1.1886694
1.1901784
1.1918833
1.1939066
1.1961889
1.1990338
1.2016138
1.2038957
1.2063856
1.2096082
1.2138317
1.2184827
1.2229802
1.2295609
4.4925797
1.395566
1.1974333
1.1762185
1.1753486
1.1745462
1.1726156
1.1721447
1.1724431
1.1715808
1.1705928
1.1702408
1.1698789
1.168739
1.1683379
1.1679418
1.1687814
1.1713074
1.1714069
1.1697794
1.1683754
1.1691617
1.172324
1.1740865
1.174298
1.1739858
1.1749979
1.1759809
1.1765262
1.1776085
1.1798084
1.1832434
1.1865747
1.1885395
1.1896879
1.1910892
1.1930457
1.1952459
1.1979828
1.2011752
1.2040265
1.2067258
1.209825
1.2140805
1.2191852
1.2250313
1.2316132
4.2746463
1.3440225
1.1822662
1.1694086
1.1716663
1.1737829
1.1730424
1.171781
1.1712561
1.1706129
1.1698736
1.1695355
1.1687103
1.1675639
1.1670171
1.1671704
1.1692285
1.1719468
1.1715355
1.1694509
1.1688392
1.1699535
1.1726931
1.1737904
1.1737061
1.1729834
1.1740957
1.1758472
1.1771409
1.1785114
1.1805694
1.1834506
1.1864515
1.1884978
1.1896313
1.1907223
1.192218
1.1941484
1.1967589
1.2004026
1.2040224
1.207357
1.2106989
1.2148589
1.2203304
1.2266735
1.2327612
4.2188349
1.3390843
1.17755
1.1664749
1.1693194
1.1736982
1.1745073
1.1725401
1.170713
1.1699677
1.1695085
1.1694741
1.1681916
1.1670982
1.1658839
1.1665065
1.16973
1.1723533
1.1720605
1.1699544
1.1695857
1.1706394
1.1729758
1.1739216
1.1740836
1.1731622
1.1738079
1.1754596
1.1770352
1.1788905
1.1809742
1.1834927
1.1864186
1.188608
1.1899419
1.1908412
1.1918997
1.1933829
1.1958273
1.1997701
1.2042362
1.2086159
1.2127842
1.2166677
1.2224317
1.2281872
1.2342289
4.4224719
1.3514994
1.1778641
1.1658728
1.1676652
1.1732905
1.1759982
1.17414
1.170923
1.1695317
1.1695385
1.1697971
1.1685842
1.1672203
1.1654054
1.1662783
1.1699528
1.1724377
1.1726352
1.1709474
1.1703277
1.1707976
1.1725683
1.1737946
1.1747019
1.1742887
1.1745141
1.1755603
1.1768297
1.1787472
1.1808114
1.1830633
1.1858349
1.1883363
1.190098
1.1912155
1.1921227
1.1934859
1.1958677
1.1998163
1.204691
1.2095648
1.2144203
1.2188034
1.2246709
1.2297795
1.2358239
4.8980088
1.4074118
1.1811241
1.1664698
1.1668691
1.1721565
1.1764907
1.1760447
1.1725195
1.1698257
1.1698061
1.1704557
1.1696095
1.1676597
1.1650234
1.1661479
1.1698893
1.172065
1.1726051
1.1713805
1.1705488
1.1706669
1.1717599
1.1730946
1.1749062
1.1753876
1.1755708
1.1760651
1.1769479
1.1787694
1.1806483
1.1823892
1.1847782
1.1874545
1.1896246
1.1912555
1.1927297
1.1943674
1.1968466
1.2006026
1.2053134
1.2102942
1.2155272
1.2205696
1.2263267
1.2311993
1.2371487
5.3350612
1.4885009
1.1903378
1.1685207
1.1668496
1.1706386
1.1759081
1.1775002
1.1751132
1.1715566
1.1705917
1.171207
1.1703242
1.1679211
1.1647304
1.1659169
1.1696418
1.1716117
1.1723496
1.1715991
1.1702382
1.1705332
1.1715115
1.1729459
1.1747126
1.1757938
1.1762169
1.1766914
1.1774926
1.179269
1.1809436
1.1822408
1.1839773
1.1863163
1.188647
1.1908129
1.1931592
1.1955716
1.198451
1.2019357
1.2063313
1.211288
1.2165677
1.2219279
1.2275436
1.2323283
1.2379056
5.8283707
1.5742412
1.2027236
1.1716894
1.1680686
1.1695323
1.1745102
1.1777548
1.1772058
1.1739047
1.171952
1.1718618
1.1706639
1.1680046
1.1648626
1.1659421
1.1696789
1.1716246
1.1724251
1.1719641
1.1700671
1.1703754
1.1716744
1.1733928
1.1749427
1.1760261
1.1765384
1.1768855
1.1776657
1.1794788
1.1812721
1.1824827
1.1838744
1.1858284
1.187953
1.1903574
1.1934699
1.1968136
1.2000806
1.2036358
1.2079376
1.212821
1.2180676
1.2231611
1.2286599
1.2332347
1.2382982
6.1412889
1.622703
1.2098583
1.1753793
1.1702991
1.1696921
1.1731026
1.1771339
1.1782507
1.1757358
1.1732394
1.1725855
1.1709457
1.1679944
1.1654747
1.1663671
1.1700651
1.1723386
1.1730193
1.1725294
1.1702812
1.1704008
1.1721639
1.1746984
1.1761695
1.1766812
1.1766862
1.1766941
1.1771584
1.1787486
1.1807885
1.1825006
1.1841313
1.1860747
1.1881026
1.1904959
1.193967
1.1980259
1.2018534
1.2056384
1.2097422
1.2142387
1.2193112
1.2239862
1.2294242
1.2337526
1.2384387
6.101894
1.6239842
1.210766
1.1779591
1.1731954
1.1714809
1.1727039
1.1762748
1.1781797
1.1765757
1.174182
1.1734457
1.1715322
1.1682616
1.1662682
1.1671317
1.1704363
1.1731805
1.1737949
1.1730151
1.1710107
1.1710354
1.1732766
1.1760068
1.1776261
1.1779717
1.1772518
1.1764889
1.1763376
1.1773715
1.1793163
1.1815799
1.1839845
1.1864524
1.1888761
1.1915335
1.1950727
1.1994268
1.2034923
1.20717
1.2110641
1.2151926
1.2199945
1.2242759
1.2296211
1.2337825
1.2383789
5.580108
1.5680326
1.2074015
1.1789392
1.1759881
1.1740461
1.1731021
1.1753469
1.1773412
1.1767393
1.1750269
1.1742694
1.1722733
1.16907
1.1674454
1.1679435
1.1704732
1.1734251
1.1739908
1.1731621
1.1716652
1.1720385
1.1742074
1.176698
1.1784672
1.1790155
1.1779498
1.1767066
1.1758799
1.1761255
1.1776922
1.1800608
1.1830966
1.1862085
1.1894666
1.1927437
1.1963391
1.2005075
1.2046686
1.2083266
1.2120665
1.2158171
1.2203469
1.2241773
1.2294318
1.2335522
1.2382552
5.0196787
1.5001163
1.2042614
1.1789705
1.1781734
1.1768291
1.174344
1.1744914
1.1761449
1.1762873
1.1756156
1.1749504
1.1729093
1.1700304
1.1688621
1.1691479
1.1708889
1.1735622
1.1739669
1.1728715
1.1718077
1.1726215
1.1751566
1.1772127
1.1785148
1.1790237
1.1781568
1.1768448
1.1757805
1.175552
1.1767503
1.1791582
1.1823925
1.1859444
1.1897923
1.1934782
1.196999
1.2009919
1.2051762
1.2089363
1.2127286
1.2163158
1.2206982
1.2241156
1.2291839
1.2332846
1.2380941
5.267776
1.508115
1.2050916
1.1789276
1.1795829
1.1795178
1.1765846
1.1743868
1.1746146
1.1750141
1.1753565
1.1754422
1.1735967
1.1708594
1.1699537
1.1705065
1.1720082
1.1743679
1.1742862
1.1727985
1.1717972
1.1728794
1.1756542
1.1776554
1.1783459
1.1784041
1.1773282
1.1764867
1.175965
1.1756351
1.1768233
1.1795998
1.1831519
1.1867467
1.1903817
1.1939113
1.1971272
1.2007637
1.2047696
1.2087016
1.2126975
1.216335
1.2208347
1.2240308
1.2288783
1.2330057
1.2379065
6.4506433
1.6126939
1.2132747
1.1799265
1.1800278
1.1818883
1.1794767
1.1755428
1.1735215
1.1733633
1.1743525
1.1753876
1.1743273
1.171763
1.1705447
1.1714125
1.1732809
1.175393
1.1751282
1.1734732
1.172471
1.1730078
1.1754097
1.1774081
1.1780385