/*--------------------------------*- C++ -*----------------------------------*\
| =========                 |                                                 |
| \\      /  F ield         | OpenFOAM: The Open Source CFD Toolbox           |
|  \\    /   O peration     | Version:  2406                                  |
|   \\  /    A nd           | Website:  www.openfoam.com                      |
|    \\/     M anipulation  |                                                 |
\*---------------------------------------------------------------------------*/
FoamFile
{
    version     2.0;
    format      ascii;
    arch        "LSB;label=32;scalar=64";
    class       volScalarField;
    location    "10";
    object      omega;
}
// * * * * * * * * * * * * * * * * * * * * * * * * * * * * * * * * * * * * * //

dimensions      [0 0 -1 0 0 0 0];

internalField   nonuniform List<scalar> 
30397
(
3.8752283
3.8744381
3.8686287
3.8636661
3.8569467
3.851086
3.8451468
3.8406259
3.8379337
3.8357773
3.8319126
3.8274137
3.8226995
3.8172112
3.8121576
3.8080301
3.803455
3.799357
3.7973195
3.7962886
3.7945801
3.7924425
3.7904432
3.7880608
3.7856362
3.7835221
3.7820514
3.7811234
3.7800944
3.7792307
3.7787876
3.7784308
3.7780586
3.777627
3.7770993
3.7765332
3.7761171
3.7757973
3.7755112
3.775402
3.7753717
3.7753158
3.775173
3.7751292
3.7750564
3.77459
3.7744657
3.4864082
3.4719367
3.4556061
3.4417511
3.4282065
3.4132029
3.3973718
3.3850819
3.3788567
3.375866
3.3717712
3.3650693
3.3565502
3.3474305
3.3377868
3.3277683
3.3179729
3.3104032
3.3051338
3.3015007
3.2985707
3.2963993
3.293495
3.2885733
3.282723
3.2774209
3.2727106
3.2682602
3.264152
3.2604605
3.2576944
3.255526
3.2531317
3.250172
3.2468009
3.2435083
3.2407424
3.2382447
3.2354649
3.2322412
3.2284705
3.2242397
3.219415
3.2142574
3.2091299
3.2053125
3.2029659
3.1738972
3.1487474
3.1287438
3.1103032
3.0955072
3.0780732
3.0600148
3.0440454
3.0339444
3.027501
3.0219199
3.012599
3.0009347
2.9900848
2.978431
2.9662872
2.9541888
2.9441044
2.9368363
2.9312456
2.9265573
2.9218435
2.9160315
2.9083646
2.8995907
2.8911693
2.883777
2.8765417
2.8697884
2.8637931
2.858647
2.8539338
2.849082
2.8436869
2.8378728
2.8320339
2.8265608
2.8209041
2.8148599
2.8082653
2.8012934
2.7944131
2.7875689
2.7810922
2.7757107
2.7723864
2.7704003
2.9066628
2.8762765
2.8574016
2.8364352
2.8207267
2.802052
2.7846813
2.768206
2.7558611
2.746713
2.7389822
2.7275883
2.7147241
2.7014961
2.6867423
2.6736282
2.6610638
2.6495186
2.6410047
2.6333826
2.6255364
2.6173679
2.6087789
2.5997619
2.5900323
2.5813067
2.5729407
2.5640305
2.5554802
2.5475723
2.5400497
2.5324042
2.5244983
2.5162361
2.5077657
2.4994037
2.4916709
2.4838456
2.4762259
2.4687689
2.4616152
2.455057
2.4490668
2.4437727
2.4395113
2.4365441
2.4337558
2.6583319
2.6461809
2.6301576
2.6082691
2.5921217
2.5726235
2.5557769
2.538555
2.5249729
2.5135628
2.503216
2.4920867
2.4791474
2.4629625
2.4466623
2.4337204
2.4206987
2.4082897
2.3987527
2.3895598
2.380117
2.3699294
2.3597566
2.3507654
2.3413362
2.3323054
2.3224653
2.3124053
2.3028575
2.2933218
2.2842783
2.275362
2.2661742
2.2568058
2.2476463
2.2388462
2.2306773
2.2227155
2.2154772
2.2090726
2.2031866
2.1976519
2.1923664
2.1873482
2.1827047
2.1786269
2.1744457
2.477287
2.452974
2.4407761
2.4188665
2.4028762
2.3835263
2.366803
2.348863
2.3338459
2.3201888
2.3084711
2.2977524
2.283567
2.2666843
2.2515975
2.2389497
2.2259819
2.2144362
2.2045582
2.1940474
2.1838137
2.1734229
2.1633306
2.1549505
2.1457235
2.1358796
2.1249991
2.1147268
2.1049472
2.0951974
2.0858794
2.0763621
2.0665213
2.0568401
2.0476373
2.039099
2.0315124
2.0248599
2.0189128
2.0133644
2.0079594
2.0025155
1.9968666
1.9915143
1.9865548
1.9821322
1.9779026
2.3662313
2.2930356
2.2833496
2.2615669
2.2461123
2.2270838
2.2104401
2.1925748
2.1764209
2.1614221
2.1489165
2.1368975
2.1227252
2.107459
2.0930994
2.0800438
2.0683367
2.0582175
2.0481155
2.0378764
2.0284632
2.0185353
2.0097201
2.0013577
1.9912242
1.9803392
1.9690319
1.9586963
1.9485627
1.9387574
1.9290659
1.9190225
1.9092447
1.9004415
1.8929415
1.8866966
1.881021
1.8753662
1.8695389
1.8636505
1.8576305
1.8517033
1.8460312
1.8410347
1.8367231
1.8329077
1.8292014
2.2782681
2.1616898
2.1519113
2.1301463
2.1145402
2.0962793
2.0799087
2.062748
2.0463983
2.0314118
2.01775
2.0041166
1.9909583
1.9766487
1.9622728
1.9502331
1.9405245
1.9306259
1.9203717
1.911957
1.9045023
1.8954548
1.8866506
1.8771464
1.8654254
1.8539901
1.8428415
1.8321549
1.821805
1.8123266
1.8029637
1.7936499
1.7854107
1.7787543
1.773197
1.767928
1.7621279
1.7558958
1.7493501
1.7428647
1.7367558
1.7311672
1.7261495
1.7218267
1.7179043
1.7140127
1.7100675
2.2002472
2.051974
2.0402394
2.0190075
2.0030863
1.9849054
1.9688524
1.9527773
1.9374097
1.9225924
1.9074836
1.8935379
1.8809037
1.8666286
1.8534883
1.8430749
1.8342344
1.8249614
1.8157152
1.8092878
1.8030117
1.7940375
1.7839542
1.7730149
1.7614994
1.750458
1.7388089
1.7276615
1.7176636
1.7091699
1.7007206
1.6927889
1.6863726
1.6810547
1.6757684
1.6699139
1.6634072
1.6568334
1.6504432
1.6443785
1.6387199
1.6336271
1.62894
1.6247178
1.6205758
1.6165283
1.612422
2.1397961
1.9572047
1.9433769
1.9225938
1.9068384
1.8889073
1.8733514
1.8581903
1.8444118
1.8299933
1.8144256
1.8002881
1.786965
1.7737781
1.7625212
1.7534777
1.7450686
1.7369471
1.7299371
1.7244993
1.7179444
1.707945
1.696931
1.6860623
1.675144
1.6637344
1.6522263
1.6416625
1.6323766
1.6247399
1.6177513
1.6114325
1.6056763
1.5997914
1.5936472
1.5874591
1.5811306
1.5750374
1.5693614
1.5638982
1.558577
1.5537368
1.5494292
1.5454366
1.5414587
1.5374717
1.5337763
2.0904302
1.8743789
1.8584443
1.8387928
1.8227879
1.8053921
1.7908786
1.7770279
1.7647669
1.7510163
1.735829
1.7214251
1.7077445
1.696193
1.6864725
1.6781169
1.6704731
1.6639149
1.6580374
1.6525647
1.6447592
1.6346
1.6241937
1.6137078
1.6026558
1.5910421
1.5795264
1.5696825
1.5615559
1.5553697
1.5497145
1.5436039
1.5369341
1.5299773
1.5234751
1.5174818
1.5119168
1.506635
1.5012172
1.4958663
1.4908375
1.4865104
1.4828494
1.4794723
1.476047
1.4724215
1.4692615
2.056569
1.801827
1.7827866
1.7650886
1.7497312
1.7330771
1.7196291
1.7074308
1.6963201
1.6833331
1.6694025
1.6546925
1.6416679
1.6316254
1.6221136
1.6135888
1.6070875
1.6013635
1.5951168
1.5888067
1.5807924
1.5716114
1.5619667
1.5514341
1.5397798
1.5281985
1.5173539
1.5086002
1.5019277
1.4962973
1.4899412
1.4825754
1.4752394
1.4685633
1.463006
1.4582218
1.4533448
1.4480955
1.4425538
1.4372746
1.4326396
1.4291415
1.4265462
1.423897
1.4210303
1.4178166
1.4150923
2.0290835
1.7386509
1.7160083
1.6999845
1.6860304
1.670664
1.6582114
1.6467512
1.6361328
1.6245454
1.6120088
1.5978497
1.5861933
1.5765258
1.5660202
1.5571986
1.5511214
1.5451141
1.5380018
1.5316447
1.5246185
1.5160097
1.50594
1.4945828
1.482666
1.471911
1.4622311
1.4546003
1.4482152
1.4414415
1.4339049
1.4264086
1.4199289
1.4147337
1.4103189
1.4058798
1.4007938
1.3953254
1.3899774
1.3853581
1.3817067
1.3789743
1.3767918
1.3743609
1.3714128
1.3682165
1.3656722
2.0009883
1.6809641
1.6575727
1.6427062
1.630164
1.616351
1.6046751
1.5933512
1.5829735
1.5726505
1.5612314
1.5484178
1.5377718
1.5271156
1.5154471
1.5065815
1.5003216
1.4936053
1.4871264
1.4817756
1.4743191
1.4644945
1.4534176
1.4414899
1.4301605
1.4208039
1.412756
1.4054141
1.3978421
1.390073
1.3827404
1.37651
1.3714994
1.3671772
1.3627578
1.3575503
1.3515885
1.345603
1.3400896
1.3356204
1.332222
1.3296367
1.3274506
1.3248033
1.3213528
1.3177538
1.3151192
1.9276595
1.6260184
1.606111
1.5922703
1.5807671
1.5679356
1.556803
1.5456305
1.5354883
1.5257796
1.5148524
1.5036231
1.4931276
1.4809961
1.4687646
1.4601635
1.4532749
1.4467349
1.442133
1.4367708
1.4274097
1.416431
1.4046988
1.3927471
1.3825924
1.3746244
1.3672993
1.3591558
1.3508424
1.3433663
1.3370889
1.3317919
1.3268888
1.3218814
1.3163933
1.3101
1.3034661
1.2970595
1.2913964
1.2869175
1.283575
1.2808824
1.2783909
1.2751923
1.2710105
1.2666989
1.2634097
1.8157333
1.5736781
1.5598603
1.5470159
1.5363832
1.5243456
1.5132279
1.5020315
1.4919224
1.4823221
1.4718088
1.4613557
1.4504603
1.4374431
1.425533
1.4172516
1.4100316
1.4043598
1.4004709
1.393697
1.383312
1.3720435
1.3601198
1.3488871
1.3399547
1.3324935
1.324319
1.3152096
1.3069601
1.3001641
1.2942376
1.2886507
1.2827946
1.2765454
1.2698752
1.2629422
1.2562256
1.2498171
1.2442111
1.2396521
1.2359021
1.2329109
1.2299272
1.2258192
1.2206081
1.2155387
1.2117629
1.7502039
1.5262442
1.5174398
1.505508
1.4957531
1.4841613
1.4726428
1.4613217
1.4510111
1.4409687
1.4309603
1.4209467
1.4097319
1.396958
1.3858355
1.3777392
1.370366
1.3650459
1.3602079
1.3522839
1.3423224
1.3314415
1.319883
1.3091718
1.3002702
1.291668
1.2821645
1.2730962
1.2652693
1.258862
1.25271
1.2462059
1.2392986
1.2323118
1.225117
1.2179617
1.2110953
1.2045287
1.1986549
1.1935566
1.18903
1.1850929
1.1809664
1.1760561
1.1708323
1.1662355
1.1628075
1.7405774
1.4852857
1.4780603
1.4670932
1.4576702
1.4463828
1.4343921
1.4228572
1.4122222
1.4014091
1.3921955
1.382582
1.3716819
1.3601037
1.3496898
1.3413739
1.3337755
1.3279052
1.3217938
1.3137235
1.3042331
1.2937127
1.2823707
1.2712827
1.2612918
1.2512968
1.2413048
1.2328447
1.2256839
1.2191557
1.2120444
1.2043336
1.1966247
1.1892782
1.1820357
1.1746465
1.1672601
1.1602771
1.1541124
1.1486857
1.1437186
1.1394647
1.1352894
1.13069
1.1263223
1.1228134
1.120102
1.7524539
1.44995
1.4404894
1.4309869
1.4216587
1.410548
1.3979823
1.3860812
1.3754858
1.3644548
1.3558575
1.3469055
1.3367705
1.3261784
1.3159852
1.3070719
1.2992514
1.2926922
1.2862227
1.2783118
1.2682231
1.2570059
1.2452646
1.2335905
1.2229228
1.2123816
1.2029505
1.1955362
1.1884731
1.1809705
1.1725268
1.1638642
1.1555844
1.1480809
1.140638
1.1331363
1.125766
1.1189184
1.1128896
1.1077478
1.1033879
1.0996431
1.0961409
1.0922898
1.0886382
1.0855759
1.0831169
1.7760077
1.4182988
1.4042911
1.3966824
1.3876357
1.3766437
1.3634417
1.3510863
1.3411613
1.3304338
1.322122
1.313841
1.3044849
1.2940982
1.2835946
1.2743669
1.2664206
1.2594771
1.2532042
1.2448516
1.2331492
1.2207208
1.2086702
1.1968642
1.1862405
1.1760897
1.1676964
1.1606598
1.1526863
1.1438084
1.13439
1.1259051
1.1181116
1.1109031
1.103695
1.0964475
1.0896416
1.0836392
1.078585
1.0744668
1.0711285
1.0681104
1.0650234
1.0614956
1.0578972
1.0544924
1.0517228
1.7826645
1.3888273
1.3699228
1.3638464
1.3552564
1.3445143
1.3309868
1.3184137
1.3093042
1.2993005
1.2907473
1.2829341
1.2738771
1.2631427
1.2521919
1.243244
1.2353855
1.2283889
1.2220211
1.2124426
1.1990545
1.1859787
1.1741685
1.1627007
1.1523173
1.1428126
1.1352858
1.1278716
1.1186311
1.1088621
1.0997979
1.0922911
1.0856614
1.0794194
1.0729948
1.0665148
1.0606429
1.055728
1.0517456
1.0486461
1.046148
1.0433
1.0398758
1.0359611
1.032144
1.0286294
1.0258433
1.7794484
1.3601548
1.3379828
1.3327074
1.3246175
1.3144869
1.3007704
1.2883053
1.2799512
1.2706216
1.2619103
1.2539243
1.2444979
1.2331724
1.2221282
1.2138249
1.2064208
1.199444
1.1921863
1.1810928
1.1668152
1.1542977
1.1432983
1.1318674
1.12153
1.1127078
1.1057592
1.097528
1.0875587
1.0780706
1.0702652
1.0644096
1.0592646
1.054027
1.0483602
1.0426103
1.0377547
1.0339832
1.0308286
1.0280551
1.025275
1.022023
1.0182039
1.0142816
1.0107622
1.0076977
1.0053049
1.7743995
1.3316405
1.3081392
1.3035525
1.2959188
1.2866021
1.2729989
1.2608675
1.2529697
1.2442104
1.235244
1.2265413
1.2162911
1.2046328
1.1941174
1.186452
1.1793072
1.1719527
1.1635788
1.1513719
1.137385
1.126397
1.1159577
1.1042652
1.0941079
1.0859602
1.0790827
1.070118
1.0605022
1.0522952
1.0462454
1.0418353
1.0376876
1.0330748
1.0281665
1.0232324
1.0193038
1.0162776
1.0133165
1.0103782
1.0072314
1.003857
1.0002892
0.99710158
0.99441196
0.99212406
0.9904517
1.7669144
1.3045804
1.2797088
1.276331
1.2694059
1.2609531
1.2476996
1.2359685
1.2278891
1.219458
1.2103271
1.2006644
1.1895271
1.178071
1.1684487
1.1610029
1.1535349
1.1456965
1.136499
1.1238647
1.1111733
1.1015396
1.0909119
1.0793689
1.0702594
1.0628266
1.055586
1.0464308
1.0379384
1.0314246
1.0268386
1.0232255
1.0197475
1.0157568
1.0115744
1.0074433
1.0041587
1.0013929
0.99849339
0.99547147
0.99249704
0.98958885
0.98677272
0.98441332
0.98263812
0.98125269
0.98059905
1.7630146
1.2811506
1.2529267
1.2511023
1.2451363
1.237444
1.2247297
1.2133261
1.2044587
1.1960328
1.1868702
1.1762241
1.1644835
1.1537485
1.1449684
1.1372574
1.1291945
1.1210124
1.1111504
1.0990375
1.087963
1.0784908
1.0676998
1.057488
1.0497358
1.0427237
1.0350821
1.0263388
1.0194898
1.0145204
1.0107942
1.0078241
1.0051244
1.001774
0.99819318
0.99472136
0.99192853
0.98925144
0.98639088
0.98381432
0.98153809
0.97949605
0.97755726
0.97604806
0.97517497
0.97464626
0.97480054
1.7632163
1.2617797
1.2282837
1.2279284
1.2229278
1.2158657
1.2037595
1.1926017
1.1826381
1.1737939
1.1644711
1.1530651
1.141288
1.1315164
1.1233055
1.1149739
1.1064777
1.0979714
1.0879668
1.0767925
1.0667462
1.0570608
1.0472292
1.0390353
1.0322317
1.0252784
1.0175011
1.0097569
1.0045418
1.0006804
0.99792013
0.99573492
0.99371703
0.99106489
0.98820821
0.98527568
0.98254556
0.98003882
0.97770302
0.97589058
0.97438208
0.97299109
0.97173116
0.97111411
0.97106461
0.97103969
0.97156063
1.7663905
1.2470838
1.2061133
1.2068085
1.2024872
1.1958933
1.1843297
1.173335
1.1622072
1.1526415
1.1428471
1.1311638
1.1200481
1.1112078
1.1032172
1.0942423
1.0855305
1.0767458
1.0669575
1.0567171
1.0473651
1.0381947
1.0302656
1.0237565
1.0171422
1.0102781
1.0030275
0.99662179
0.99275473
0.98978883
0.98797772
0.98695302
0.98591439
0.98387979
0.98121908
0.97838186
0.9758566
0.97383833
0.97206937
0.97068264
0.96964593
0.96868935
0.9679716
0.96803168
0.96875892
0.96932624
0.97014634
1.7725963
1.2383778
1.1866107
1.1875336
1.1835127
1.1771527
1.1660079
1.1550657
1.1429201
1.1325362
1.1221494
1.1105444
1.1005321
1.0923918
1.0843557
1.0750033
1.0663986
1.057485
1.0479603
1.0388096
1.030221
1.0224481
1.0166226
1.0108122
1.0040407
0.99758706
0.99143242
0.9865423
0.98408569
0.98224415
0.98148398
0.98133825
0.98066511
0.97855997
0.97576645
0.97316681
0.9711362
0.96952198
0.96814894
0.96713609
0.96657017
0.9661357
0.9659657
0.96666633
0.96787784
0.96881377
0.9697846
1.7812528
1.2348798
1.1701405
1.1699776
1.1658197
1.1593423
1.1484422
1.1374498
1.1245724
1.1135594
1.102576
1.0913159
1.0824288
1.0747229
1.0664809
1.0572419
1.0490715
1.0401625
1.0311061
1.0231472
1.0157053
1.0100086
1.0055528
0.99965968
0.99290714
0.98726711
0.98261221
0.97955354
0.97846183
0.97763428
0.9776515
0.97753495
0.97634755
0.97384478
0.97115049
0.96915249
0.96782162
0.96677898
0.96595549
0.96558551
0.96551428
0.9655203
0.96577485
0.96682287
0.96808763
0.96899776
0.96986741
1.7901999
1.2342346
1.1568183
1.1540617
1.149274
1.1423726
1.1314221
1.1203083
1.1071611
1.0957198
1.084358
1.0735408
1.0653922
1.0579441
1.0496252
1.0411749
1.0336021
1.0249484
1.0166995
1.0099112
1.0041838
1.0003693
0.99636638
0.99021877
0.98378767
0.97941503
0.97656438
0.97512026
0.97504636
0.97495131
0.97514792
0.9743721
0.97250026
0.96999891
0.96786299
0.96646613
0.96591249
0.9656445
0.96557781
0.96582386
0.96610917
0.96621325
0.96648825
0.96741011
0.96850004
0.96932989
0.97009689
1.8031576
1.2342789
1.1464887
1.1395722
1.1337924
1.1262119
1.1149069
1.1036766
1.0906134
1.0790732
1.0677679
1.0573366
1.049547
1.0420747
1.0341151
1.026975
1.0200972
1.0120648
1.0048603
0.99933913
0.99542172
0.992556
0.98853586
0.98232015
0.97659662
0.97378171
0.97271834
0.97249224
0.97293604
0.97306584
0.97285131
0.97151204
0.9695125
0.96738684
0.96576486
0.96506287
0.96520494
0.96567178
0.96622966
0.96685826
0.96725485
0.96725845
0.96738324
0.96815699
0.969108
0.96987611
0.9704595
1.8223775
1.2356807
1.1393847
1.1263759
1.119034
1.1106406
1.0990015
1.0876449
1.0749405
1.0636127
1.0527189
1.0426944
1.035117
1.027411
1.0202797
1.014546
1.0084682
1.0014172
0.99550197
0.99126554
0.98859971
0.98581319
0.98173773
0.97578543
0.97135501
0.97002965
0.97040793
0.97102476
0.97156128
0.97135412
0.97061462
0.96913446
0.96734576
0.96575121
0.96478486
0.96480077
0.96548573
0.96632656
0.96714266
0.96799548
0.96843541
0.96827902
0.96837205
0.9693084
0.97036724
0.97103279
0.97133669
1.8472471
1.2395881
1.1348065
1.1143918
1.1049783
1.0956556
1.0837258
1.0723894
1.0601498
1.0494584
1.0391706
1.0297589
1.0222078
1.0144269
1.00842
1.003915
0.99856061
0.99279256
0.98826622
0.98524082
0.98305584
0.97992641
0.97593096
0.97074919
0.96781357
0.96783411
0.96936061
0.97023646
0.9701813
0.96950988
0.96856763
0.967307
0.9660507
0.96509635
0.9648381
0.96532275
0.96625232
0.96721086
0.96804537
0.96889465
0.96932837
0.96921555
0.96946377
0.9704882
0.97150218
0.97201974
0.97237169
1.8759512
1.2501974
1.1329884
1.1037792
1.0915872
1.0813142
1.0692386
1.0580482
1.046433
1.0366308
1.0271096
1.018415
1.0108356
1.0034863
0.99866597
0.99502484
0.99036206
0.98593174
0.98260025
0.98059083
0.97842021
0.97504844
0.97127046
0.96709634
0.96569221
0.9668066
0.96890767
0.96933999
0.96866161
0.96784007
0.96702669
0.96620294
0.9656105
0.965398
0.96555534
0.96630008
0.96730632
0.96808644
0.9687417
0.96968201
0.96998644
0.96977288
0.97002018
0.97111026
0.97214041
0.97277907
0.97345468
1.9011463
1.2673866
1.1319138
1.0939715
1.0791224
1.0678931
1.0555879
1.0447612
1.0340596
1.0251177
1.0163556
1.0084577
1.0011553
0.99460949
0.99090369
0.98790869
0.98386801
0.98054377
0.97809948
0.97677301
0.97449504
0.97107981
0.96770253
0.96466114
0.96451037
0.9664243
0.9682784
0.96815381
0.96738487
0.96670701
0.96623952
0.96596851
0.96590232
0.96601769
0.96658413
0.96750609
0.96844764
0.96918122
0.97016145
0.97070017
0.97037725
0.96982375
0.9701567
0.97147124
0.97289074
0.97403265
0.97558404
1.9226714
1.282324
1.1314836
1.0848565
1.0671529
1.0553531
1.0430691
1.0328807
1.0231946
1.0149847
1.0068277
0.99970022
0.99304835
0.98751777
0.98480284
0.982219
0.97874935
0.97619644
0.97444319
0.97336988
0.97098273
0.96778537
0.96501665
0.96314223
0.96398018
0.96600445
0.96736306
0.96705405
0.96651471
0.96610151
0.96609368
0.96624132
0.96633403
0.96673018
0.96748954
0.96851259
0.96942684
0.97049963
0.97144814
0.9715137
0.97072124
0.96995153
0.97057345
0.97228645
0.97422892
0.97587677
0.97795048
1.9382094
1.2941556
1.1304955
1.0761304
1.0560488
1.0438754
1.0317543
1.0224283
1.0137717
1.0061831
0.99848561
0.99213521
0.9863314
0.98200528
0.98007875
0.97773581
0.97472376
0.97273491
0.97143816
0.97024247
0.96782407
0.96507789
0.96313531
0.9623991
0.96362612
0.96543319
0.96653124
0.96648367
0.96623349
0.96612519
0.96643707
0.96664086
0.96670308
0.96720178
0.9681154
0.96912824
0.97043411
0.97161444
0.97225283
0.97202482
0.97117976
0.97062991
0.97173601
0.97396292
0.97646282
0.97857417
0.98088964
1.9474625
1.3022809
1.1289411
1.0674468
1.0454541
1.0333469
1.0217902
1.0133799
1.0056422
0.99856768
0.9912136
0.98554806
0.98078466
0.97781481
0.97638806
0.97404158
0.9714563
0.97005169
0.96895945
0.96746553
0.96511306
0.96293077
0.96190352
0.96192236
0.96319037
0.96487903
0.96617264
0.96650824
0.96632257
0.96629401
0.96673894
0.9670402
0.96715834
0.96765255
0.9686263
0.97012605
0.97140948
0.97217069
0.97265036
0.97247059
0.97194616
0.97218035
0.97414361
0.97724827
0.97959774
0.98096532
0.98303491
1.952222
1.3076873
1.1254065
1.0586944
1.0354627
1.023413
1.0126147
1.0051559
0.99857765
0.99189764
0.9849028
0.97976543
0.97600853
0.97438377
0.97330549
0.97105093
0.96888646
0.96798774
0.96686057
0.9651678
0.96292976
0.96123734
0.96106899
0.96165134
0.9628975
0.96455368
0.96624149
0.96664611
0.96626208
0.96616419
0.96683295
0.96736287
0.96773975
0.9684023
0.96962978
0.97120079
0.97226516
0.97267723
0.97313645
0.97339659
0.97363394
0.97503062
0.97772119
0.98063701
0.98263598
0.98407047
0.98592543
1.9535663
1.3109694
1.1218237
1.0502862
1.0263063
1.0146115
1.004879
0.99811786
0.99247054
0.98618461
0.97959715
0.97497545
0.97223857
0.97170614
0.97083027
0.9685376
0.96683819
0.96638341
0.96507685
0.9633512
0.96124721
0.96008981
0.96050954
0.96160336
0.96277968
0.96465336
0.96646166
0.96670991
0.96588018
0.96571963
0.96674811
0.96787143
0.96868071
0.96956712
0.97078691
0.97212241
0.97295107
0.97320614
0.9739548
0.97487152
0.97590493
0.9779575
0.98129966
0.98443649
0.98593265
0.98689176
0.98837794
1.9521958
1.3126349
1.1156507
1.0414403
1.0175192
1.0061745
0.99749656
0.99177751
0.98689344
0.98123995
0.97511402
0.97094709
0.9691082
0.96929829
0.96851655
0.96644406
0.96523967
0.96497503
0.96360419
0.96199726
0.96015785
0.95927136
0.96007651
0.96164393
0.96291027
0.96505587
0.96680086
0.96644135
0.96519984
0.96505987
0.96662753
0.9684346
0.96969867
0.97065087
0.97182758
0.97303664
0.9739182
0.97442914
0.97569889
0.97764053
0.97940386
0.98181253
0.98505103
0.98756021
0.98874738
0.99015936
0.99268232
1.9491842
1.3129251
1.1096341
1.0333331
1.0098376
0.9990051
0.99126645
0.98617389
0.98212133
0.97707516
0.97141372
0.96779378
0.96666294
0.9672123
0.96659308
0.96472649
0.96389315
0.96365247
0.96226859
0.96099466
0.95954038
0.95874009
0.95976112
0.96172678
0.96331337
0.96562158
0.96691856
0.96607968
0.96458776
0.96466529
0.96671277
0.96896281
0.9703701
0.97136485
0.97252419
0.97403716
0.97505236
0.97616233
0.97829209
0.98037761
0.98216899
0.98442885
0.98741631
0.9900233
0.99164805
0.99337812
0.99524979
1.9444607
1.3126406
1.101346
1.0250545
1.002311
0.992074
0.98535591
0.98137337
0.97792563
0.97354335
0.96837691
0.96542351
0.96490051
0.96552996
0.96489302
0.96330434
0.96275866
0.96242278
0.96131907
0.96034705
0.95916477
0.95844417
0.95959237
0.9618848
0.96373946
0.96598471
0.96679635
0.9656655
0.96413488
0.96447754
0.96686154
0.96931461
0.97073818
0.9720383
0.97388686
0.97578037
0.97721678
0.97883195
0.98136952
0.98357411
0.98541197
0.98763869
0.99056628
0.99309176
0.99446694
0.99612807
0.99893525
1.9399403
1.3115946
1.0929619
1.0177186
0.9961155
0.98640181
0.98021252
0.9768386
0.97412867
0.97051606
0.96596875
0.96359079
0.96355588
0.96400997
0.96325709
0.96195093
0.96163488
0.96132563
0.96061162
0.95992894
0.95890386
0.95832878
0.95962873
0.96218412
0.96414398
0.96615612
0.96654854
0.96519413
0.96377784
0.96435821
0.96693143
0.96953473
0.97103779
0.97264043
0.97487554
0.97701087
0.97875268
0.98082663
0.9835294
0.98557157
0.98738626
0.98962782
0.99253497
0.99495352
0.99686926
0.99966562
1.002471
1.9325875
1.3080726
1.0821232
1.0100705
0.99000593
0.98118328
0.97600914
0.9733115
0.97105091
0.96800461
0.96417105
0.96241078
0.96277782
0.96299274
0.96203008
0.96101017
0.96070135
0.96040842
0.96005961
0.95959481
0.95868665
0.9583274
0.95988657
0.96257492
0.96445343
0.96609457
0.96616734
0.96482413
0.96364835
0.96450685
0.96727739
0.96997257
0.9719869
0.97431851
0.97693106
0.97914889
0.98120327
0.98370233
0.98623811
0.98796266
0.98974529
0.99233562
0.99543342
0.99761922
0.99919984
1.0018519
1.0053678
1.9293157
1.2956756
1.0709049
1.003402
0.98489624
0.97665191
0.97205099
0.97001044
0.9682604
0.96580386
0.96272037
0.96154435
0.96221267
0.96218331
0.96103069
0.96026426
0.96006537
0.95986147
0.95970564
0.9592689
0.95840165
0.95833039
0.96025471
0.9629696
0.96459625
0.96574447
0.9655394
0.96425195
0.96336202
0.9647026
0.96779677
0.9707726
0.9731706
0.97559744
0.97782571
0.97990281
0.98216198
0.98503339
0.98770085
0.98939857
0.99113396
0.99387767
0.99707616
0.99928331
1.0011415
1.0048225
1.0102391
1.920165
1.2701967
1.0593046
0.99698903
0.98012179
0.97272798
0.96901015
0.96757346
0.96612361
0.96411303
0.96167412
0.96088984
0.96168228
0.96126505
0.95993082
0.95948298
0.95944125
0.95948166
0.95965922
0.9591024
0.95818803
0.95842425
0.96068181
0.96344126
0.9647791
0.96547621
0.96510829
0.96398686
0.963555
0.96521713
0.96890224
0.97290763
0.9759403
0.97803698
0.97973502
0.98170891
0.98422085
0.98746502
0.99022832
0.99194039
0.99415832
0.99765973
1.0013142
1.0038287
1.0067281
1.0123778
1.0175387
1.8668185
1.1935967
1.0298077
0.98426088
0.97172016
0.96571977
0.9630071
0.96303593
0.96278235
0.96181236
0.96066644
0.96051743
0.9613716
0.96047529
0.9588575
0.95884366
0.95882057
0.9590894
0.95948671
0.95869591
0.95766522
0.95836003
0.96105456
0.96374882
0.96453733
0.9649206
0.96478584
0.96404736
0.96392358
0.96569581
0.96928405
0.9736288
0.97692781
0.97871466
0.97986642
0.98151457
0.98398965
0.9873098
0.99039222
0.99233309
0.99420389
0.99706709
1.0007596
1.0041741
1.0073615
1.0117984
1.0184634
1.686946
1.0911258
0.99342711
0.96897517
0.96307525
0.95938073
0.95745287
0.95884232
0.9600601
0.95995132
0.95927642
0.95962716
0.96039502
0.95937129
0.95761361
0.95749256
0.95780915
0.95916379
0.95980935
0.95860743
0.9573114
0.95834145
0.96155555
0.96450721
0.96484104
0.96458574
0.96480038
0.9647186
0.96477047
0.9660243
0.96895223
0.97324243
0.97708659
0.97919881
0.98027909
0.98153188
0.98368428
0.98684843
0.99019737
0.99277713
0.99478258
0.99732159
1.0008826
1.0048207
1.0084781
1.0125577
1.0194792
1.5545056
1.0295346
0.9714162
0.95884425
0.95759191
0.95626076
0.95520465
0.95686186
0.95870362
0.95874959
0.95827304
0.95834858
0.95859432
0.95750225
0.95634352
0.95617265
0.95679925
0.95941078
0.96017697
0.95887121
0.95760832
0.95865941
0.96186461
0.96488657
0.9652537
0.96458086
0.96501367
0.96564295
0.96601937
0.96691208
0.96917347
0.97285515
0.97652721
0.97902315
0.98035908
0.98153223
0.98340194
0.98606812
0.98959517
0.99289235
0.99555659
0.99803962
1.0012951
1.0054977
1.0098675
1.0144772
1.0221055
1.4986171
0.99922497
0.96022854
0.95300081
0.95445515
0.95567802
0.9554793
0.95639138
0.95816771
0.95828902
0.95776694
0.95720474
0.95679596
0.95575866
0.95526417
0.95527671
0.95636979
0.95969594
0.96038018
0.95895348
0.95819711
0.95933763
0.9619869
0.96444457
0.9649704
0.96407891
0.96459026
0.96599279
0.96706353
0.96814882
0.97011114
0.97294014
0.97590977
0.97823491
0.97987269
0.98124175
0.98291479
0.98518395
0.98855428
0.99253434
0.99592825
0.99873739
1.0017404
1.0058054
1.010546
1.0164376
1.0236911
1.451271
0.98410995
0.95492309
0.95030859
0.95301657
0.95601141
0.95686126
0.95713578
0.95810841
0.95834161
0.95767622
0.95654363
0.95560484
0.95470024
0.95418555
0.95450308
0.95652179
0.96021811
0.96078855
0.9591364
0.95870889
0.96008427
0.96228482
0.96400587
0.96455358
0.9634785
0.9639751
0.96590215
0.96759111
0.96915612
0.9710635
0.97341836
0.97574671
0.97776491
0.97948395
0.98099364
0.98249404
0.98430252
0.98733164
0.99183379
0.99621926
0.99990917
1.0031157
1.0068027
1.0121171
1.018398
1.0248104
1.4172788
0.98121649
0.95350628
0.94959571
0.95230707
0.95689982
0.95911292
0.95868277
0.95802831
0.95808618
0.95761121
0.95650893
0.95519955
0.95432566
0.95352613
0.95402236
0.95686069
0.96052137
0.96139781
0.95997835
0.9595952
0.96072597
0.96244974
0.96383355
0.9646256
0.9636394
0.96394816
0.96577973
0.96758685
0.9695435
0.97164682
0.97372733
0.97578018
0.97767675
0.97945985
0.9810645
0.98240966
0.98392198
0.98658349
0.99128314
0.99665268
1.0012185
1.0054675
1.0090377
1.0148278
1.0202782
1.0265886
1.4489294
0.98283631
0.95362079
0.94981777
0.95193536
0.95761897
0.96113123
0.96048202
0.95829287
0.95745198
0.95750828
0.95695519
0.95548549
0.95438472
0.95325531
0.95401514
0.95719546
0.96062727
0.96204635
0.96087124
0.96032943
0.96102585
0.96233332
0.96347187
0.96477152
0.96459322
0.96485383
0.96613051
0.96752328
0.96944043
0.97156675
0.9736081
0.97556496
0.97747343
0.97937748
0.98118919
0.98275153
0.98438241
0.98684643
0.99143144
0.99716031
1.0023415
1.0072063
1.0114722
1.0170915
1.0219746
1.0284652
1.5398772
0.99151767
0.95489486
0.95141221
0.95220417
0.95756382
0.96213573
0.9624485
0.95960142
0.95734716
0.95734625
0.95757473
0.95649973
0.95477214
0.95301979
0.95416989
0.95744177
0.96033547
0.96206806
0.96139455
0.96057998
0.96092696
0.96201957
0.96292388
0.96470293
0.96568197
0.96594734
0.96661821
0.96755927
0.96927874
0.97131858
0.9732654
0.97508548
0.97692459
0.97893814
0.98101467
0.9832552
0.98552925
0.98825563
0.99256295
0.99792394
1.0033083
1.008403
1.0134248
1.018582
1.023572
1.0297427
1.6262315
1.0093503
0.95775424
0.95367701
0.95338149
0.95675729
0.96191539
0.96388803
0.96178606
0.95852028
0.95757483
0.95805272
0.95725531
0.95518567
0.95294538
0.95431396
0.95763307
0.96006303
0.96178409
0.96166584
0.96044493
0.96074429
0.96193006
0.96278492
0.96444315
0.96613268
0.96659947
0.96702488
0.96784675
0.96942983
0.97135323
0.9731831
0.97476673
0.97634615
0.97825636
0.98058291
0.98360884
0.98700481
0.99026124
0.99424512
0.9991749
1.0045573
1.0097218
1.0150399
1.0199822
1.0250172
1.0309737
1.7149622
1.0270408
0.96219792
0.95609704
0.95478545
0.95605986
0.96073704
0.96412957
0.96358127
0.96052129
0.95866439
0.95851956
0.95760141
0.95547138
0.95335591
0.95461704
0.95808399
0.960152
0.9616187
0.96200409
0.96042941
0.9605513
0.96193469
0.9631951
0.96468692
0.96647393
0.96708541
0.96724242
0.96793885
0.96942091
0.97119543
0.97307589
0.97476233
0.97632272
0.9781281
0.9804998
0.98394471
0.98811001
0.99192074
0.99614758
1.0010431
1.0063286
1.0114429
1.0164969
1.0214359
1.026272
1.0317831
1.779105
1.0394502
0.96608662
0.95917913
0.95727792
0.95684534
0.95970676
0.96341007
0.96433003
0.9620754
0.95990279
0.95919642
0.95800762
0.95576131
0.9541824
0.9554232
0.95879708
0.96087723
0.96190211
0.96225972
0.9608531
0.9607733
0.96234767
0.96447409
0.96621928
0.96746464
0.96747332
0.96718301
0.96754212
0.9686893
0.97043588
0.972562
0.97474821
0.97683881
0.97883753
0.98120661
0.98478536
0.98922018
0.99370546
0.99817924
1.0029534
1.0078542
1.0128653
1.0173125
1.022448
1.0269558
1.0322911
1.7865141
1.0423218
0.96811915
0.96190892
0.96037346
0.95933218
0.95976531
0.9627822
0.96429577
0.9628494
0.96081371
0.96008517
0.95872169
0.95624498
0.9551092
0.95631678
0.95935471
0.96170146
0.96263556
0.96259083
0.9616296
0.96184249
0.96372679
0.96621909
0.96790549
0.96875128
0.96805687
0.96702159
0.96681307
0.96764152
0.96925848
0.97160386
0.97438473
0.97717142
0.97981083
0.98265311
0.98622272
0.99076142
0.99539487
0.99968112
1.0042007
1.0087277
1.0136046
1.0176903
1.0228875
1.027205
1.0326757
1.7235872
1.0379067
0.96842767
0.96303193
0.96296831
0.96217415
0.96106948
0.96257177
0.9639066
0.96307032
0.96164094
0.96095104
0.9595898
0.95707699
0.95613058
0.9571585
0.95959362
0.96206596
0.96302501
0.96275653
0.96218923
0.96289491
0.9649298
0.96720801
0.96878176
0.96959799
0.96863657
0.96715228
0.96636082
0.96676471
0.96819843
0.97048369
0.97345608
0.97679489
0.98028587
0.98384958
0.98766859
0.99201843
0.99645109
1.0005631
1.0049744