/*--------------------------------*- C++ -*----------------------------------*\
| =========                 |                                                 |
| \\      /  F ield         | OpenFOAM: The Open Source CFD Toolbox           |
|  \\    /   O peration     | Version:  2406                                  |
|   \\  /    A nd           | Website:  www.openfoam.com                      |
|    \\/     M anipulation  |                                                 |
\*---------------------------------------------------------------------------*/
FoamFile
{
    version     2.0;
    format      ascii;
    arch        "LSB;label=32;scalar=64";
    class       volScalarField;
    location    "10";
    object      omega_0;
}
// * * * * * * * * * * * * * * * * * * * * * * * * * * * * * * * * * * * * * //

dimensions      [0 0 -1 0 0 0 0];

internalField   nonuniform List<scalar> 
158064
(
4.0827149
3.2203298
2.6821961
2.3097156
2.0240971
1.7937777
1.6076503
1.4574022
1.3348267
1.2346827
1.1546656
1.0934864
1.0493145
1.0192973
1.0002259
0.98870338
0.98191424
0.97802847
0.97590729
0.97475284
0.97407877
0.97363668
0.97345009
0.97349011
0.97360045
0.97377675
0.97403851
0.97435545
0.97480751
0.97540119
0.97610224
0.97695265
0.97812886
0.97963848
0.98170751
0.98404052
0.98669091
0.98874241
0.99056315
0.99181571
0.99295872
0.99403991
0.99456848
0.99484452
0.99495323
0.99520392
0.99545307
0.99589135
0.99630739
0.99684574
0.99737343
0.99800558
0.99865172
0.99939912
1.0001193
1.0009218
1.0017379
1.0026315
1.0034446
1.0041939
1.0047829
1.0058143
1.0067526
1.0083099
1.0095914
1.012287
1.015283
1.0193827
1.0234542
1.029522
1.0345377
1.0403683
1.0449671
1.0474216
1.0511402
1.0536717
1.0574442
1.0668711
1.0729026
1.0850053
1.0915763
1.1001742
1.1197817
1.1281828
1.1412359
1.1671606
1.1809287
1.1971345
1.2244564
4.0840577
3.2223907
2.6844305
2.3120993
2.0265141
1.7961287
1.6098711
1.4594777
1.3367512
1.2364134
1.1561308
1.0946373
1.0501562
1.0198554
1.0005228
0.98883539
0.98195264
0.97799599
0.97579187
0.97458281
0.97386609
0.97337644
0.97309198
0.97300693
0.97300658
0.97305124
0.97315944
0.97334272
0.9736129
0.97400175
0.97454483
0.97526131
0.97622981
0.97761431
0.97953527
0.9820473
0.98482573
0.98733936
0.98919237
0.99058258
0.99165864
0.99248948
0.99286749
0.99306267
0.99306462
0.99316884
0.99329052
0.99351171
0.99392137
0.99430527
0.99489319
0.99547848
0.99622571
0.99704948
0.99782615
0.99862867
0.99961772
1.0002655
1.0014438
1.0018807
1.0026435
1.0029255
1.0039837
1.0044303
1.0055899
1.0062379
1.0075289
1.0087813
1.0107027
1.0120582
1.0145082
1.0163732
1.0207737
1.0236694
1.0307306
1.0371292
1.0426811
1.054934
1.0611478
1.0752853
1.0815567
1.0961954
1.104129
1.1202506
1.1280291
1.1424559
1.1652291
1.1751152
1.1923087
4.0853133
3.2243383
2.6865487
2.3143359
2.0288191
1.7983965
1.6120177
1.461504
1.3386503
1.2381252
1.1575932
1.0958014
1.0510074
1.0204203
1.0008605
0.98901135
0.98201818
0.97798911
0.97574505
0.9745177
0.97379083
0.97329707
0.97301245
0.97292578
0.97293119
0.9729811
0.97309466
0.97328682
0.9735829
0.97400308
0.97455608
0.97528572
0.97621586
0.97752469
0.97928942
0.9815674
0.98413685
0.98655512
0.98842856
0.98980199
0.99074839
0.99148063
0.99177671
0.99192125
0.9918374
0.99191172
0.99196421
0.9921437
0.99245145
0.99290327
0.99336744
0.99400712
0.99462003
0.99541374
0.99616329
0.99683502
0.99767397
0.99823998
0.99904936
0.99946544
1.0000617
1.0003069
1.0009677
1.0013445
1.002385
1.0028904
1.004144
1.0049958
1.0067795
1.0086535
1.0099925
1.0131764
1.0153646
1.0198049
1.0228841
1.0281799
1.0348616
1.0392434
1.0484852
1.0552943
1.0637283
1.0783787
1.0837178
1.0998405
1.1108285
1.1177545
1.1375764
1.1482667
1.1662923
4.0865473
3.2262445
2.6886144
2.3165425
2.0310834
1.8006109
1.6140826
1.4634067
1.3404092
1.2397303
1.1589778
1.0969175
1.0518456
1.0210089
1.0012352
0.98924099
0.98216372
0.97809007
0.97580792
0.97456756
0.97383637
0.97334093
0.9730403
0.9729394
0.97292965
0.9729622
0.97304535
0.97319535
0.97343753
0.97379918
0.97430169
0.97496946
0.97585895
0.97709806
0.97881255
0.98112665
0.98384785
0.98652663
0.98862925
0.99014923
0.99132386
0.99206826
0.99240629
0.9925045
0.99244214
0.99250181
0.99258396
0.99279215
0.99311492
0.99355667
0.99406344
0.99470815
0.99530951
0.99603017
0.9966846
0.99745486
0.99828449
0.99901813
0.99986193
1.0002478
1.0007517
1.0010334
1.0015419
1.0017296
1.0024995
1.002706
1.0033434
1.0036728
1.0044202
1.0052628
1.0060502
1.0082276
1.0094676
1.0123075
1.0141722
1.0178732
1.023215
1.0262857
1.0342545
1.0393252
1.0497401
1.0580009
1.0639836
1.0785098
1.086742
1.0926407
1.1115853
1.1197857
1.1370396
4.0877137
3.2280565
2.6905942
2.3186347
2.0332362
1.8027317
1.6160893
1.4653012
1.3421968
1.241364
1.1603885
1.0980447
1.0526685
1.0215505
1.0015595
0.98941721
0.98224837
0.97811674
0.97580634
0.97455608
0.97381733
0.97331547
0.97301641
0.97291876
0.97291519
0.97295338
0.97304822
0.97321197
0.97346737
0.97383924
0.97434607
0.97501717
0.97588978
0.97708206
0.97869646
0.98086745
0.98347404
0.98610642
0.98831369
0.99001241
0.9910606
0.99175869
0.99204077
0.99210432
0.99197247
0.99195516
0.99196747
0.99209541
0.99233067
0.99271884
0.99317502
0.993802
0.99434716
0.99505274
0.99567173
0.99635651
0.99714798
0.99783282
0.99857739
0.99900637
0.99949428
0.99969382
0.99995971
1.0001565
1.0007916
1.0011468
1.0019676
1.0024478
1.0036026
1.0042451
1.0056465
1.0065578
1.008367
1.009912
1.0117712
1.0136733
1.0174038
1.0193181
1.0236416
1.0263041
1.0336163
1.0380217
1.0427853
1.0538437
1.0602368
1.0656007
1.0824314
1.0894133
1.1031582
4.088847
3.2298008
2.6925017
2.3206643
2.0353371
1.8047941
1.6180146
1.4670696
1.3438223
1.2428271
1.1616534
1.0990775
1.0534583
1.0221228
1.0019355
0.98965473
0.98239648
0.97821594
0.9758596
0.97458322
0.97383323
0.97332809
0.97301529
0.9729037
0.97288751
0.97291395
0.97299078
0.97313197
0.97336281
0.97371038
0.97419263
0.97483049
0.97566702
0.97681425
0.97837972
0.98053793
0.98319388
0.98600429
0.98841123
0.99015791
0.99144278
0.99217819
0.99247137
0.99248508
0.99234753
0.99233897
0.99235888
0.99249552
0.99273129
0.99311973
0.99359591
0.99421086
0.9947771
0.99547511
0.99605646
0.99670119
0.99742368
0.99812329
0.99885468
0.99936761
0.99993007
1.0001319
1.0003401
1.0004328
1.0006627
1.0006625
1.0009446
1.0011897
1.0018238
1.0022399
1.0032523
1.0039152
1.0053793
1.0064578
1.0087012
1.0104101
1.0140177
1.0162222
1.0203072
1.0227206
1.0292712
1.0326738
1.0366429
1.0455274
1.0510192
1.0554083
1.0692255
1.0750729
1.0839093
4.089924
3.2314725
2.6943359
2.3226153
2.037361
1.8067889
1.6198916
1.4688267
1.3454879
1.2443721
1.1630011
1.1001688
1.0542639
1.022652
1.0022573
0.98983504
0.98249315
0.97826291
0.97589363
0.97461439
0.97386804
0.97336428
0.97305836
0.97295941
0.97295604
0.97298841
0.97307143
0.97321617
0.97344715
0.97379466
0.97427174
0.97489916
0.97571219
0.9768272
0.97832218
0.98037587
0.98292492
0.98571429
0.98822286
0.99010184
0.99134807
0.99207861
0.9923221
0.9922814
0.99211536
0.99206394
0.99206721
0.99217264
0.99237737
0.99273094
0.99315185
0.99369678
0.99426301
0.99498185
0.99558051
0.99622912
0.99690638
0.99757322
0.99822567
0.99874318
0.99931305
0.99957674
0.99986333
1.0000389
1.0002454
1.0003232
1.0006329
1.0008509
1.00148
1.0018745
1.0028751
1.0033645
1.0045761
1.0052378
1.0067923
1.0079594
1.0098187
1.0127633
1.0160932
1.0181545
1.0238317
1.0273968
1.0314472
1.0400166
1.0447514
1.049552
1.0619639
1.0663905
1.0737456
4.090966
3.233078
2.6960912
2.3244986
2.0393085
1.8087133
1.6216929
1.4704927
1.3470123
1.245746
1.1641924
1.1011378
1.0550043
1.0231931
1.002617
0.99006462
0.9826373
0.97835002
0.97593078
0.97462611
0.97386956
0.97335641
0.97303282
0.97291283
0.9728921
0.97291344
0.972985
0.97311906
0.973338
0.97367454
0.97413881
0.97474784
0.97553622
0.97661509
0.97805481
0.98005615
0.9826052
0.9854895
0.98817375
0.99017289
0.99159078
0.99236373
0.9926119
0.99257109
0.99238646
0.99236541
0.99236909
0.99247763
0.99267313
0.99301292
0.99341763
0.99390198
0.99448387
0.99514292
0.99574257
0.99635941
0.99699498
0.99765241
0.99828918
0.99887432
0.99942337
0.9997327
1.0001777
1.0002959
1.0004045
1.0003813
1.0004331
1.0004592
1.0007429
1.0010428
1.0018681
1.0023303
1.0034547
1.0042563
1.0056229
1.0072083
1.0087715
1.0114539
1.0140566
1.0163669
1.0217584
1.0238779
1.0284159
1.0347912
1.0384192
1.0420102
1.0537041
1.0574138
1.0636652
4.0919596
3.2346213
2.6977813
2.3263137
2.0411982
1.8105773
1.6234409
1.4721325
1.3485674
1.2471776
1.1654451
1.1021721
1.055784
1.0237257
1.0029496
0.99025738
0.98274309
0.97840979
0.97597653
0.9746627
0.97390677
0.97339938
0.9730879
0.97298415
0.97297429
0.97299922
0.97307195
0.97320519
0.97341936
0.97375099
0.9742079
0.97480369
0.975574
0.97662924
0.9780204
0.979967
0.98246519
0.98533053
0.98810139
0.99019433
0.99164531
0.99241965
0.99263753
0.99258447
0.99238477
0.99230033
0.99225666
0.99233273
0.99249218
0.99277838
0.99313005
0.99361149
0.99418468
0.99482752
0.995375
0.9960019
0.99664369
0.99735448
0.99803322
0.99857211
0.9990498
0.99929569
0.99976486
1.0000218
1.0002979
1.0004102
1.000475
1.0005157
1.0006434
1.0006993
1.0011613
1.0014936
1.0022829
1.0028957
1.004134
1.0052261
1.0063472
1.0085728
1.0105909
1.0122325
1.0171432
1.0198978
1.0234313
1.0290451
1.0320923
1.0353047
1.0445105
1.0484206
1.0543633
4.0929184
3.2361028
2.6993999
2.3280546
2.0430096
1.81237
1.6251243
1.4736863
1.3500017
1.2484872
1.1665817
1.103095
1.056485
1.0242252
1.0032805
0.99046575
0.98287534
0.97849058
0.97601187
0.97467585
0.97391045
0.97339273
0.97306403
0.9729441
0.97292384
0.9729426
0.97301013
0.97313924
0.97334529
0.97366634
0.97411054
0.97469012
0.97543838
0.97646262
0.97780227
0.97967686
0.9821136
0.98500563
0.98790443
0.99018116
0.9917615
0.99258948
0.99284055
0.99279233
0.99260004
0.99252995
0.99246646
0.99256226
0.99273837
0.99303142
0.9933787
0.99383716
0.99440135
0.99501881
0.9955723
0.99616494
0.99672484
0.99739227
0.99803625
0.99864786
0.99910042
0.99934094
0.99966279
0.99982973
1.0001196
1.0002124
1.0002753
1.0002759
1.0003272
1.0003329
1.0006809
1.0008788
1.0016724
1.0022186
1.0033139
1.0044462
1.0055062
1.00752
1.0091437
1.0104323
1.0140883
1.0163043
1.0188856
1.0245934
1.0269983
1.0296779
1.0378156
1.0402026
1.0454122
4.0938345
3.237526
2.7009589
2.3297336
2.0447698
1.8141191
1.6267531
1.4752091
1.3514397
1.2498224
1.1677546
1.1040596
1.0572199
1.0247422
1.0036196
0.99067666
0.98299421
0.97855422
0.97605735
0.9747128
0.97394701
0.97343368
0.97311304
0.97300107
0.97298784
0.9730118
0.97308301
0.97321226
0.97341335
0.97372771
0.97416091
0.97472193
0.97545187
0.97644027
0.97773243
0.97954999
0.98194268
0.98482741
0.987791
0.9901871
0.99184485
0.99265818
0.99284951
0.99277281
0.99257486
0.99245824
0.99232733
0.99238359
0.99254856
0.9928185
0.99312293
0.99352549
0.99404431
0.99468996
0.99528463
0.99592887
0.99646887
0.99709767
0.99780794
0.998466
0.99901903
0.99932771
0.9996601
0.99981083
1.0000928
1.0001285
1.0002827
1.000341
1.0003196
1.0002537
1.0003598
1.0004006
1.0007208
1.0011957
1.0017579
1.0029547
1.0036767
1.0053853
1.0070194
1.008285
1.0119158
1.0134876
1.0159188
1.0209133
1.0233588
1.0257888
1.0327366
1.035112
1.0390197
4.0947178
3.2388918
2.702454
2.3313469
2.0464556
1.8157887
1.62832
1.4766652
1.3527938
1.2510521
1.1688336
1.1049443
1.0578959
1.0252221
1.0039316
0.9908647
0.98310998
0.97862583
0.9760904
0.9747236
0.97394861
0.97342878
0.97310037
0.97297976
0.97295866
0.972976
0.97303826
0.9731646
0.97336855
0.97368931
0.97413
0.97469402
0.97541788
0.97639304
0.97764551
0.97940613
0.98174313
0.98462284
0.98767406
0.99020081
0.99198468
0.99285925
0.99306572
0.99298286
0.99279704
0.99271617
0.99257273
0.99261981
0.99276292
0.99303902
0.99335096
0.99374451
0.99422332
0.99482294
0.99538824
0.9960095
0.99656693
0.99718735
0.99781609
0.99843227
0.9990245
0.99941496
0.99974411
0.99985123
1.0000048
0.99999361
1.0000445
1.0000655
1.0001244
1.0001284
1.0002756
1.0003451
1.0006449
1.0009633
1.0014732
1.002401
1.0029976
1.0043121
1.0060939
1.0072281
1.0099807
1.011286
1.0140561
1.0175204
1.0195295
1.0223932
1.02924
1.030966
1.0344461
4.0955632
3.2402051
2.7038874
2.3328975
2.0480925
1.8174092
1.6298302
1.4780791
1.3541278
1.252297
1.1699317
1.1058527
1.0585862
1.0257116
1.0042562
0.99107614
0.98324524
0.97870637
0.97614566
0.97476617
0.97399048
0.97347181
0.97314681
0.97302831
0.97301098
0.97303487
0.97309932
0.9732165
0.97339858
0.97368976
0.9741024
0.97464553
0.9753504
0.976292
0.97750664
0.97920447
0.98147164
0.98434678
0.98746119
0.99009881
0.99195119
0.99291319
0.99313624
0.99301142
0.99277291
0.99265759
0.99253084
0.99258423
0.99267727
0.99290553
0.99321307
0.99362576
0.99409995
0.99466927
0.99518562
0.99581181
0.99641809
0.99709667
0.99773055
0.99834674
0.99888009
0.99933835
0.99974571
0.99997644
1.000175
1.0001836
1.0001687
1.0000884
1.0000663
0.99997807
1.0000159
0.99997431
1.0002928
1.0004127
1.0008875
1.0014688
1.0021285
1.0033451
1.0045726
1.005751
1.0085176
1.0098596
1.012026
1.0154362
1.0168497
1.019458
1.0265521
1.0282825
1.0309716
4.0963775
3.2414666
2.7052645
2.3343894
2.0496653
1.8189631
1.6312939
1.4794453
1.3553988
1.2534572
1.1709442
1.106688
1.0592378
1.0261753
1.0045646
0.9912636
0.9833495
0.97876768
0.97617519
0.97478082
0.97399881
0.97347525
0.97314558
0.97302725
0.97300669
0.97303125
0.97309813
0.97322408
0.9734185
0.97372001
0.97413583
0.97467496
0.97536995
0.97629719
0.97748948
0.9791484
0.98135169
0.98417407
0.98737018
0.99012782
0.9920661
0.99308003
0.99331921
0.9932009
0.99296431
0.9928316
0.99269045
0.99272501
0.99282437
0.99302607
0.99329359
0.9936803
0.99416211
0.9947495
0.99522638
0.99582724
0.99641425
0.99708513
0.99769318
0.99833821
0.99884116
0.99925131
0.9996629
0.99991469
1.0001561
1.0001846
1.000196
1.0000472
1.0000308
0.99989633
0.9999659
0.9999448
1.0002363
1.0003644
1.0007306
1.0012161
1.0016985
1.0029448
1.0037293
1.0044533
1.0071853
1.0084602
1.0101586
1.0133795
1.0145566
1.0168986
1.0225601
1.0242752
1.0270496
4.0971584
3.2426772
2.7065863
2.3358276
2.0511825
1.8204586
1.632693
1.4807541
1.3566427
1.2546295
1.1719959
1.1075603
1.0598949
1.0266459
1.0048842
0.99146838
0.98348329
0.97885228
0.9762302
0.97481627
0.97402696
0.97350078
0.97316933
0.9730436
0.97302448
0.97304356
0.9731033
0.97322036
0.97340303
0.97369214
0.97409598
0.97462083
0.9753022
0.9762065
0.97736004
0.97897154
0.98112599
0.98390752
0.98714339
0.99001442
0.99205875
0.99312088
0.9933827
0.99327164
0.99304187
0.99290509
0.99272259
0.99278525
0.99285195
0.99304922
0.99328386
0.99365258
0.99413914
0.99471135
0.995196
0.99577476
0.99632727
0.99699385
0.99764858
0.99828467
0.99884391
0.99928522
0.99971245
0.99998065
1.0002673
1.0002768
1.000339
1.000138
1.0000666
0.99987945
0.99985788
0.99977044
0.99988221
0.99992366
1.0001939
1.000802
1.0011756
1.0021716
1.0030761
1.0038493
1.0063068
1.0070698
1.0090299
1.0116849
1.0128739
1.0150685
1.0194872
1.0208274
1.0241018
4.0979095
3.2438402
2.7078497
2.3372027
2.0526367
1.821909
1.6340584
1.4820273
1.3578238
1.2557066
1.1729399
1.1083434
1.0605142
1.0271076
1.0051842
0.99165746
0.98360193
0.97892557
0.97628064
0.97485781
0.97406461
0.97353809
0.97320674
0.97308437
0.9730671
0.97309158
0.97315713
0.9732788
0.97346135
0.97374573
0.97414226
0.97466604
0.97534374
0.97623078
0.97735408
0.97892583
0.98101607
0.98377093
0.98701332
0.98997706
0.99212374
0.99326005
0.99353036
0.9933984
0.99316231
0.99298161
0.99280644
0.9928565
0.99295228
0.99312637
0.99334641
0.9936881
0.99415063
0.9947167
0.99519513
0.99577105
0.99629754
0.99695843
0.99760314
0.99827779
0.998816
0.99922822
0.99966957
0.99992428
1.0002454
1.0002917
1.0003784
1.0002215
1.000118
0.99993526
0.99989328
0.99976512
0.99986437
0.99986693
1.0001568
1.0004087
1.0008018
1.0016808
1.002371
1.0032704
1.005074
1.0056808
1.007003
1.0095405
1.011138
1.0131072
1.0176895
1.0192993
1.02137
4.0986313
3.244956
2.7090686
2.338531
2.0540442
1.823286
1.6353685
1.4832644
1.3590004
1.2568039
1.1739198
1.1091666
1.0611607
1.027556
1.0055004
0.99186932
0.9837405
0.9790174
0.97634012
0.97489324
0.97409147
0.97355963
0.97322203
0.97309567
0.97307036
0.97309095
0.97314774
0.97326296
0.97344608
0.97372917
0.97412573
0.97464698
0.97531486
0.97619732
0.97729667
0.9788335
0.98086899
0.983584
0.9868361
0.98989105
0.99215591
0.99334979
0.99363444
0.99352851
0.99329898
0.99312421
0.99289916
0.99294007
0.99298531
0.99317808
0.99339216
0.99371653
0.99415364
0.99469514
0.99517001
0.99575976
0.99627732
0.99695658
0.99754503
0.99823692
0.99880258
0.99927737
0.9996884
0.99997055
1.0002994
1.0003974
1.0004452
1.0003093
1.0001983
0.99998324
0.99988061
0.99970704
0.99972422
0.9997015
1.0000141
1.0001286
1.0004901
1.0015114
1.002016
1.0028001
1.0043979
1.0050349
1.0064968
1.0091458
1.0102221
1.012515
1.0167857
1.0177925
1.019785
4.0993245
3.2460286
2.7102443
2.3398051
2.0553979
1.8246276
1.6366435
1.4844532
1.3601186
1.2578453
1.1748466
1.1099448
1.0617672
1.0280159
1.0058114
0.99208233
0.98388401
0.97911929
0.97641842
0.97496564
0.97416531
0.97363323
0.97329809
0.97317227
0.97315441
0.97317775
0.97323917
0.97335235
0.97352732
0.97380013
0.97418111
0.97468644
0.97533444
0.97618799
0.97725816
0.97876009
0.98075629
0.98342996
0.98667492
0.98983544
0.99220301
0.99346471
0.99379775
0.99370926
0.99345737
0.99327464
0.99305515
0.99307921
0.99313419
0.99329734
0.99350439
0.9938257
0.99424239
0.99474879
0.99521146
0.99578795
0.99633521
0.99700646
0.99758488
0.99827925
0.99880781
0.99930873
0.99975058
1.0001129
1.000373
1.0005061
1.000559
1.0004464
1.0003759
1.0001786
0.99998637
0.99983131
0.99977545
0.99970496
0.99984192
1.0000178
1.0001702
1.000873
1.0014583
1.0020874
1.0031973
1.0038841
1.0054889
1.0083357
1.0090272
1.0109266
1.0142001
1.0148517
1.0171878
4.0999928
3.2470594
2.7113679
2.3410301
2.0567006
1.8259277
1.6378726
1.485615
1.3612143
1.2588852
1.175783
1.1107383
1.0623912
1.028497
1.0061736
0.99233791
0.98407429
0.97926393
0.9765325
0.97505698
0.97424115
0.97370616
0.97336379
0.97323041
0.97320349
0.97321601
0.97327018
0.97338668
0.97356494
0.97384166
0.9742288
0.97474121
0.97539208
0.97624211
0.97729319
0.97877079
0.98071408
0.98336053
0.98659341
0.98983479
0.99228152
0.99364124
0.99400074
0.99389824
0.99364278
0.99345283
0.99324023
0.99325545
0.9932827
0.99347468
0.99366405
0.9939474
0.99432426
0.99483237
0.99529918
0.99586892
0.99640204
0.99706077
0.9976588
0.99833166
0.99884516
0.99939889
0.99979006
1.000221
1.0004739
1.0006458
1.0007205
1.000627
1.0005325
1.0003564
1.0001593
0.99998765
0.99992323
0.99989979
0.99993822
1.000111
1.0002891
1.000868
1.0014457
1.001911
1.0031337
1.003887
1.0055522
1.0077338
1.0084203
1.0098141
1.0132359
1.0141206
1.0165512
4.1006331
3.248052
2.7124573
2.3422102
2.0579514
1.8271785
1.6390898
1.4867677
1.3623188
1.2599094
1.176732
1.1115689
1.0630879
1.0290411
1.0065861
0.99265517
0.98433115
0.97947822
0.97672376
0.97524136
0.97442427
0.9738904
0.97354745
0.97342042
0.97340288
0.97343032
0.97348932
0.97359793
0.97376715
0.9740272
0.9743993
0.97489662
0.9755374
0.97637447
0.97740148
0.97884758
0.98074266
0.98335396
0.98656917
0.98988449
0.99241148
0.99386759
0.99425678
0.99418023
0.99393643
0.99374436
0.99352764
0.99354545
0.99355887
0.99375521
0.99396544
0.9942529
0.99462455
0.99509477
0.99556228
0.99614686
0.99668042
0.99734333
0.99791077
0.99859555
0.99908521
0.99963828
1.0000353
1.0005071
1.0007576
1.0009579
1.001012
1.0009452
1.0008232
1.0006281
1.0004497
1.0002067
1.0000844
1.0000187
1.000028
1.000019
1.0002416
1.0006793
1.0010716
1.001559
1.0029091
1.0036635
1.0050125
1.0062726
1.0072879
1.0082779
1.0112862
1.0128492
1.0146458
4.1012537
3.2490077
2.7135165
2.3433631
2.0591839
1.8284228
1.6402846
1.4879115
1.3634289
1.2609996
1.1777521
1.1124888
1.0639077
1.0297362
1.0071723
0.99316794
0.98477992
0.97988781
0.97710301
0.97559116
0.97476406
0.97421678
0.97386769
0.97372431
0.97369169
0.97370871
0.97375767
0.97386138
0.97403178
0.97429091
0.97466308
0.9751633
0.97579819
0.97662851
0.9776413
0.97907624
0.98093826
0.9835267
0.98672614
0.99012094
0.99277839
0.99432311
0.99473799
0.99473087
0.99449005
0.99431078
0.99407827
0.99411413
0.99415598
0.99434114
0.99452742
0.99482814
0.99519107
0.99566357
0.99613116
0.99670041
0.99721909
0.99786178
0.99843377
0.99909162
0.99957414
1.0001819
1.0005921
1.0010736
1.0013387
1.001563
1.0015842
1.0015213
1.0013912
1.0011674
1.0009826
1.0006926
1.0005712
1.0004342
1.0004986
1.0003723
1.0005877
1.001091
1.0013627
1.0018704
1.0031071
1.0035499
1.0047268
1.0060969
1.0070381
1.00843
1.0109218
1.0124135
1.0139672
4.1018476
3.2499341
2.7145439
2.3444937
2.0603994
1.8296717
1.6415191
1.489124
1.36465
1.2622348
1.1789904
1.1137056
1.0650346
1.0307881
1.0081487
0.99407853
0.98564412
0.98071557
0.97790692
0.97638124
0.97554786
0.97500202
0.97464691
0.97450374
0.97447829
0.97449494
0.97454214
0.97464105
0.97480193
0.97504779
0.97540377
0.97588714
0.97651078
0.97733211
0.97833911
0.9797592
0.98159908
0.98418355
0.98738025
0.99086549
0.99362499
0.99529223
0.99578225
0.99581291
0.99559309
0.99543408
0.99522623
0.99527472
0.9953404
0.99557116
0.99576829
0.99607924
0.99644182
0.99694159
0.99741567
0.99799867
0.99852909
0.99919168
0.99972282
1.000381
1.0008363
1.0014297
1.0018234
1.0023354
1.0025691
1.0027867
1.0028114
1.0027124
1.0025679
1.0023366
1.002073
1.0017343
1.0015805
1.0012995
1.0012756
1.00122
1.001315
1.0017402
1.0018386
1.0022684
1.0034804
1.0036903
1.0046483
1.0063221
1.0068108
1.0085124
1.0113916
1.0123833
1.0140329
4.1024318
3.2508445
2.7155661
2.345638
2.0616576
1.8310166
1.6429044
1.4905761
1.366198
1.2639058
1.180797
1.1156031
1.0669786
1.0327601
1.0101219
0.99601831
0.98755862
0.98259469
0.97975252
0.97818992
0.97732879
0.97677021
0.97639183
0.9762173
0.97615904
0.97615235
0.97618183
0.97627086
0.97642178
0.97665755
0.97700631
0.97748324
0.97808995
0.978873
0.97986447
0.98126432
0.98307283
0.98566334
0.98884967
0.99244383
0.99532675
0.99714492
0.9976924
0.997826
0.99764057
0.99757072
0.9974178
0.99755267
0.99766039
0.99794499
0.99821289
0.99861045
0.99903257
0.99959492
1.0000919
1.0007184
1.0012626
1.0019322
1.0024718
1.0031505
1.003583
1.0042219
1.0046037
1.0051259
1.0053406
1.0055614
1.0055417
1.0054533
1.0052157
1.0049324
1.0045617
1.0041756
1.0038785
1.0034817
1.0032372
1.0031294
1.0030768
1.0031746
1.0032291
1.0034399
1.0043525
1.0046884
1.0053137
1.0070142
1.0073781
1.008756
1.0118195
1.0123635
1.0141642
4.1029987
3.2517675
2.7166515
2.346896
2.0631046
1.8326476
1.6447375
1.4926626
1.368635
1.2667649
1.1840753
1.119271
1.0709444
1.0369039
1.0143573
1.0002939
0.99183528
0.98684775
0.98397808
0.9823731
0.98147961
0.98089536
0.98048874
0.98028383
0.98019929
0.98016593
0.98017221
0.98024145
0.98036652
0.98057855
0.98091028
0.98137544
0.98196972
0.98275164
0.98372319
0.98505696
0.98685531
0.98947293
0.99269352
0.99644747
0.99951445
1.0015426
1.002184
1.0024772
1.0023369
1.0024175
1.0023473
1.0026153
1.0028164
1.003236
1.0035895
1.0041602
1.0046734
1.0053614
1.00593
1.0066502
1.0072311
1.0079608
1.0085247
1.0092547
1.0096851
1.0102944
1.0106042
1.0110764
1.0112196
1.0113658
1.0112468
1.0111111
1.0108198
1.0104287
1.0099216
1.0094396
1.0089531
1.0085114
1.0080931
1.0077704
1.0076634
1.0073804
1.0074123
1.0075669
1.0078169
1.0082227
1.0089554
1.0101379
1.0107392
1.0117529
1.0141152
1.0148679
1.0162184
4.1035947
3.2527887
2.7179506
2.3485432
2.0651703
1.8352129
1.6479109
1.496612
1.373517
1.272648
1.1909638
1.1269811
1.0792502
1.045609
1.0232992
1.0093472
1.0009211
0.99590866
0.99298567
0.99130063
0.99033619
0.98969746
0.98923286
0.98894588
0.98878191
0.98868039
0.98862527
0.98865247
0.98873041
0.98889736
0.98919368
0.98963421
0.99020579
0.99096175
0.99191395
0.99325926
0.99500639
0.99751851
1.0007014
1.0045909
1.0078417
1.0101253
1.0109004
1.0114364
1.011344
1.0116414
1.0116678
1.0121455
1.0124846
1.0132036
1.0137232
1.0146194
1.0153102
1.016298
1.0170302
1.0180125
1.0187137
1.0196638
1.0203133
1.0212305
1.0216923
1.0224545
1.0227859
1.0233142
1.0233976
1.0234745
1.0231557
1.0228892
1.0223751
1.0218633
1.0210448
1.0204151
1.019554
1.0188263
1.0181008
1.0174632
1.0169746
1.016252
1.0159643
1.0159133
1.0156397
1.0157803
1.0163358
1.0166399
1.0173591
1.0181654
1.0195161
1.020595
1.0210805
4.1042619
3.2541612
2.7199851
2.351446
2.069179
1.8405884
1.6549486
1.5055024
1.384306
1.2851413
1.2048095
1.1417157
1.0944292
1.0609802
1.0387699
1.0248482
1.0163923
1.01134
1.0083775
1.0066648
1.0056636
1.0049958
1.0045049
1.0041908
1.0040049
1.0038872
1.0038135
1.003831
1.0039084
1.0040832
1.0044026
1.0048863
1.0055094
1.0063418
1.0073671
1.0088468
1.0107151
1.0134523
1.0168349
1.0208728
1.0241303
1.0265091
1.0273037
1.0279257
1.0278403
1.0282422
1.0282472
1.028754
1.0290644
1.0298127
1.030392
1.0314231
1.0321863
1.0333082
1.0341093
1.0351808
1.0359849
1.0370685
1.037828
1.0388296
1.0394181
1.0402996
1.0407353
1.0413672
1.0415121
1.0416821
1.0414115
1.041123
1.040536
1.0399225
1.0389172
1.0381587
1.037183
1.0362069
1.0353571
1.0345695
1.0337927
1.0332019
1.0325932
1.0323697
1.0322043
1.032009
1.0324766
1.0321126
1.0323586
1.0334
1.0334306
1.0348979
1.0348283
4.1052663
3.2567959
2.7245438
2.358514
2.0791985
1.8538332
1.6714339
1.5246841
1.4051969
1.3066147
1.2260423
1.1623279
1.1143286
1.0802828
1.0577132
1.0435985
1.0350283
1.0299643
1.0270656
1.0254943
1.0246123
1.0240312
1.0236743
1.0235186
1.023493
1.0235239
1.0235997
1.0237577
1.024001
1.0243389
1.0248315
1.0255015
1.0262753
1.0273468
1.028507
1.0302749
1.0323444
1.0354345
1.0391637
1.0437221
1.0475968
1.0502731
1.0511738
1.0517046
1.0514566
1.0518165
1.0517368
1.0522415
1.0524122
1.0530467
1.0535321
1.0545068
1.0552215
1.0563546
1.0570533
1.0581094
1.0587976
1.0598787
1.060482
1.0614699
1.0619177
1.0627853
1.0631284
1.0636959
1.0637229
1.0637522
1.0633634
1.0629155
1.0620232
1.0612805
1.0600113
1.0589849
1.0576447
1.0563562
1.0550704
1.053917
1.0524974
1.0516769
1.0506211
1.0495835
1.0491247
1.04868
1.0484878
1.0481948
1.0479177
1.0486964
1.0489055
1.0499226
1.0494245
4.1074865
3.2641246
2.7377628
2.37803
2.1041923
1.8824515
1.7011705
1.5534744
1.432195
1.3319269
1.2502184
1.1858531
1.1375098
1.1033511
1.0808644
1.0668564
1.0583906
1.0534872
1.0508532
1.0495366
1.0488254
1.0484332
1.0483786
1.0484847
1.0487887
1.0491428
1.049519
1.0500393
1.0506
1.0513273
1.0521798
1.0533174
1.0543749
1.056043
1.0574687
1.059862
1.0622295
1.0659543
1.070006
1.0752617
1.0795293
1.0829647
1.0840778
1.0853693
1.0854418
1.0864146
1.0865792
1.0875081
1.0878859
1.0888814
1.0895419
1.0908519
1.0916644
1.0929896
1.0936937
1.0947727
1.0953768
1.0964065
1.0968961
1.09779
1.0981131
1.0988149
1.0989676
1.0992608
1.0990437
1.0988236
1.0980345
1.0972988
1.0958282
1.0946903
1.0929182
1.0913151
1.08955
1.087503
1.085868
1.0840897
1.0816963
1.0803361
1.0786777
1.0769181
1.0759466
1.0745417
1.0735009
1.0733737
1.0723248
1.0719949
1.0719594
1.0719737
1.0703141
4.115365
3.2876272
2.7731543
2.4188802
2.1439401
1.9186379
1.735126
1.5875683
1.4680645
1.3703014
1.2913664
1.229584
1.1832942
1.1508328
1.1297611
1.1167654
1.1090636
1.1048569
1.1028692
1.1020375
1.1017199
1.1018279
1.1024181
1.1031542
1.1040361
1.1050132
1.1059839
1.1071753
1.1083932
1.1099035
1.1114191
1.1134578
1.1150445
1.1177996
1.1196818
1.1231767
1.1259949
1.1309106
1.1354878
1.142138
1.1472109
1.1521357
1.1539459
1.1569688
1.1577774
1.1604568
1.1613911
1.1640071
1.1651023
1.1677082
1.1690471
1.1719346
1.1733887
1.1762085
1.1773718
1.1794923
1.1803012
1.1820731
1.1826053
1.1838934
1.1841515
1.1848749
1.1847977
1.1849255
1.1841874
1.1835263
1.1816068
1.1801909
1.1771437
1.1751224
1.1713117
1.1686868
1.164738
1.1611809
1.157606
1.1539238
1.1492288
1.1461184
1.1413566
1.1381128
1.1340852
1.1312768
1.1275869
1.1253531
1.1221144
1.1196995
1.1167791
1.1156782
1.1097785
4.1432484
3.3356199
2.8190395
2.4600881
2.1854678
1.9668521
1.7952968
1.662581
1.5584183
1.4743855
1.4068646
1.3538302
1.3137719
1.2858988
1.2683091
1.2578757
1.2520856
1.2496091
1.2487966
1.2487576
1.2495753
1.2515252
1.2534505
1.255203
1.2573756
1.2598038
1.2621576
1.2649111
1.2677205
1.2710874
1.2741991
1.2784106
1.2813144
1.2866608
1.2897462
1.2957545
1.2997365
1.3072744
1.3128479
1.322079
1.3281934
1.3359443
1.3389846
1.3455156
1.3479946
1.3543813
1.357173
1.3635153
1.3663074
1.3725431
1.37545
1.3818997
1.3849247
1.3912267
1.3936963
1.3985899
1.4002445
1.4040967
1.4051825
1.4079833
1.4084041
1.4099053
1.4096592
1.4098297
1.4085703
1.4075498
1.4042871
1.4018927
1.396673
1.3932432
1.386485
1.3821719
1.3743707
1.3692114
1.3614316
1.3551967
1.3452535
1.3390876
1.3279861
1.3214665
1.310689
1.3055738
1.2943487
1.2880574
1.278508
1.2727626
1.2629272
1.2585567
1.2406584
4.1631149
3.3691495
2.8781182
2.5478828
2.3027082
2.1193916
1.9921362
1.907781
1.8482533
1.8003618
1.7594777
1.724337
1.6956672
1.675494
1.6636943
1.6577166
1.6556604
1.6552982
1.6563962
1.6599246
1.6641018
1.6688617
1.6734978
1.6777581
1.6828259
1.6884254
1.6939761
1.7002199
1.7066724
1.7141036
1.7209226
1.729894
1.736017
1.7468882
1.752704
1.7641825
1.7710473
1.7842304
1.7928043
1.8080397
1.8174605
1.831485
1.8378508
1.8514368
1.8576912
1.8719174
1.8787829
1.8933911
1.9001835
1.9151031
1.9219277
1.9373186
1.944482
1.9598868
1.9659995
1.9779852
1.9817218
1.9902307
1.9924301
1.9981456
1.9989983
2.0026321
2.0025366
2.0035679
2.0018794
2.0010952
1.997279
1.9942602
1.9871203
1.9824174
1.9725113
1.9659207
1.9539365
1.94657
1.9327448
1.9237002
1.9054737
1.8934964
1.8717632
1.86011
1.8366774
1.8245902
1.8009258
1.7873589
1.7633668
1.751166
1.7262344
1.7138853
1.6663219
4.1966189
3.5492618
3.2189142
3.0106202
2.8527359
2.7451305
2.7056998
2.7101204
2.7240988
2.7360706
2.7385772
2.7322136
2.7182667
2.7082577
2.7052268
2.7051957
2.7076735
2.712484
2.7206748
2.7310414
2.7415276
2.7527341
2.7640407
2.7750106
2.7874582
2.800739
2.8155271
2.8311767
2.8470272
2.8640314
2.8806075
2.9004754
2.9160899
2.9394246
2.9533141
2.9788872
2.9942562
3.0208124
3.0389842
3.0676506
3.0864258
3.1131985
3.1267844
3.1533633
3.1670565
3.1930242
3.2042151
3.2260022
3.2344322
3.2554203
3.2669582
3.2959315
3.310779
3.3437932
3.3584796
3.3885975
3.4013024
3.428378
3.4391262
3.462556
3.4711219
3.4908666
3.4977105
3.5136442
3.5164638
3.5240773
3.5240791
3.5244149
3.5211626