/*--------------------------------*- C++ -*----------------------------------*\
| =========                 |                                                 |
| \\      /  F ield         | OpenFOAM: The Open Source CFD Toolbox           |
|  \\    /   O peration     | Version:  2406                                  |
|   \\  /    A nd           | Website:  www.openfoam.com                      |
|    \\/     M anipulation  |                                                 |
\*---------------------------------------------------------------------------*/
FoamFile
{
    version     2.0;
    format      ascii;
    arch        "LSB;label=32;scalar=64";
    class       volScalarField;
    location    "10";
    object      p;
}
// * * * * * * * * * * * * * * * * * * * * * * * * * * * * * * * * * * * * * //

dimensions      [1 -1 -2 0 0 0 0];

internalField   nonuniform List<scalar> 
30397
(
1.0038334
1.0045358
1.0048316
1.0049527
1.0047225
1.003553
1.0013008
0.99995008
1.0015742
1.0037045
1.0041811
1.0041837
1.0043893
1.0041164
1.0034819
1.0025272
1.0002421
0.99776415
0.99753968
0.99891339
0.99958962
1.000262
1.0009123
1.0007554
1.0000384
0.99945361
0.99962763
1.000421
1.0009335
1.001345
1.0019533
1.0027548
1.0036261
1.0043657
1.0048844
1.005259
1.0056636
1.0062128
1.006901
1.0076446
1.0083349
1.0088332
1.0090302
1.0089094
1.0085299
1.0079637
1.007252
1.0072629
1.0083612
1.0084417
1.0088839
1.0083472
1.0050671
0.99995806
0.99743419
0.99990508
1.0057951
1.0098637
1.0106266
1.0090945
1.0065542
1.004317
1.0015937
0.99709474
0.99374729
0.99341334
0.99509338
0.99742263
1.0002817
1.0028641
1.0028672
1.0019164
1.0010494
1.0007292
1.0009697
1.0015259
1.0026218
1.0045583
1.0070019
1.0091805
1.0106886
1.0115457
1.0122787
1.0134005
1.014903
1.0163975
1.0174822
1.0178941
1.0175229
1.0164546
1.01487
1.0129265
1.0107367
1.0084273
1.0074765
1.0081133
1.0071437
1.0071496
1.0070632
1.0034914
0.99696882
0.99331689
0.99574386
1.0029435
1.0097103
1.0109848
1.008438
1.0056242
1.0019223
0.99765286
0.99164796
0.98736283
0.98827365
0.9922826
0.99667679
1.00042
1.0034223
1.0038918
1.0027858
1.001206
1.0005583
1.0004005
1.0010396
1.0028627
1.00583
1.0094385
1.0128286
1.0153744
1.016761
1.0174547
1.0180455
1.0184507
1.0180784
1.0165977
1.0142106
1.0114732
1.0088633
1.0065804
1.0046086
1.0028862
1.0012794
1.0076995
1.0074071
1.0050329
1.0040015
1.0033376
1.0000097
0.99461624
0.99146336
0.99289821
0.99937702
1.0061931
1.0079367
1.0069797
1.0040285
0.99741034
0.99258722
0.98856118
0.98632135
0.9892406
0.99303353
0.99569911
0.99811789
1.0005892
1.0024181
1.0029117
1.0041698
1.0057389
1.0063169
1.0070876
1.0086206
1.0108885
1.0134386
1.0154678
1.0160621
1.0149193
1.01285
1.0107974
1.0088146
1.006634
1.0042573
1.0020339
1.0003486
0.99940702
0.99908344
0.99904988
0.99885281
0.9982268
1.007985
1.0069623
1.0040979
1.0025671
1.0014468
0.99845465
0.99388199
0.99090027
0.99152408
0.99639168
1.0021197
1.0062517
1.0074617
1.0019889
0.99395895
0.99051649
0.98865311
0.98758341
0.99027466
0.99294973
0.99566813
0.9986834
1.0010386
1.0045039
1.0071999
1.010352
1.0115031
1.0114009
1.0111982
1.0109035
1.0114935
1.0122514
1.0117031
1.0094114
1.0061094
1.002926
1.0004593
0.99866538
0.99749899
0.99701092
0.99713839
0.99767178
0.99827281
0.9985979
0.99839623
0.99761538
0.99638165
1.0083781
1.0075651
1.0047823
1.0032269
1.0019913
1.0000711
0.99608186
0.99217429
0.99135441
0.99427734
1.0000409
1.006467
1.0058854
0.99881429
0.99296776
0.99151979
0.99031801
0.99077677
0.99346869
0.99524584
0.99863424
1.0017315
1.0043641
1.0100724
1.0144301
1.0166108
1.0149831
1.0133939
1.0126167
1.0118049
1.0111877
1.009047
1.004796
0.9997826
0.99534563
0.99247202
0.99144896
0.99194926
0.99329438
0.99481795
0.99603611
0.9966461
0.99650263
0.99567526
0.99444795
0.99319959
0.99233642
1.008919
1.0084506
1.0061793
1.0049375
1.0035618
1.0019053
0.99881373
0.99469595
0.99240674
0.99381761
0.99898129
1.0035574
1.0021927
0.99658695
0.99208123
0.99121899
0.99198113
0.99444792
0.9977395
1.0009882
1.0053289
1.0072239
1.0116239
1.0180235
1.0200576
1.0183638
1.0141066
1.0120304
1.0105111
1.0084976
1.0053344
0.99999598
0.99423653
0.99034197
0.98924647
0.99051955
0.99284146
0.99507891
0.99658021
0.99711098
0.99672825
0.99567208
0.99429193
0.99301822
0.99224887
0.99225312
0.99301365
1.0094701
1.0091788
1.0074109
1.0056069
1.0036748
1.0027006
1.0012474
0.99796526
0.9947818
0.99470025
0.99718614
0.99841624
0.99780781
0.99328846
0.98932917
0.99038878
0.99466476
0.9986034
1.0022463
1.0078118
1.0139234
1.0166013
1.0210043
1.0240852
1.019829
1.0154131
1.0117252
1.0089173
1.005059
1.0015839
0.99773672
0.99314569
0.99032962
0.99057338
0.99292472
0.99545972
0.99712014
0.9976273
0.99706313
0.99575289
0.99423983
0.99301413
0.99226413
0.99194187
0.99198781
0.99235252
0.99292783
1.0103435
1.0086658
1.0069739
1.0059662
1.0032084
1.0014974
1.0015195
1.0007487
0.99723656
0.99404961
0.99283291
0.99280423
0.99250512
0.9877823
0.98630327
0.98924086
0.99536143
1.0011103
1.0058805
1.0136069
1.0224345
1.0269234
1.0278009
1.0239638
1.017887
1.0144201
1.0087275
1.0017422
0.99592966
0.99350349
0.99172187
0.98998894
0.99040782
0.99281244
0.99526967
0.9965127
0.99659279
0.99586306
0.99450399
0.99292077
0.99156186
0.99064465
0.99011781
0.98987722
0.98985471
0.98998102
0.99019171
1.0103179
1.0079905
1.0052265
1.0040938
1.0021066
1.0001151
1.0002054
1.0013196
0.99901808
0.99385165
0.98980431
0.98821614
0.9856368
0.98217863
0.98346813
0.9879008
0.99443301
1.0009705
1.0081035
1.0198909
1.0306836
1.0324275
1.0274973
1.0210423
1.0160222
1.0100955
1.0004287
0.99199932
0.9874127
0.9872349
0.98871469
0.99007828
0.9917137
0.9932187
0.99412455
0.99440929
0.99417125
0.99344953
0.99237638
0.99127938
0.99040112
0.98979779
0.98941929
0.98926093
0.98936093
0.98967686
0.9901113
1.0085841
1.0056397
1.0039192
1.0030408
1.0006365
0.99837483
0.99857426
1.0015401
1.0013736
0.99569611
0.98972516
0.98585633
0.98121627
0.97964555
0.98187453
0.98699575
0.99460176
1.0025623
1.0123788
1.0270016
1.034774
1.0312612
1.0251514
1.020276
1.0145374
1.004255
0.99192015
0.98498817
0.98349935
0.98646294
0.9901353
0.99149906
0.99095105
0.98991137
0.98925682
0.98925113
0.98970026
0.98993325
0.98956962
0.98879294
0.98803459
0.98756299
0.98753645
0.98796731
0.98866872
0.98942663
0.99014317
1.0066137
1.0022638
1.0014963
1.0028083
1.0009164
0.9979262
0.99784752
1.0021688
1.0044617
0.99978774
0.99267127
0.98580193
0.9803875
0.98003345
0.98163482
0.98663829
0.99597863
1.0063777
1.0171501
1.029313
1.0321286
1.0276616
1.0239463
1.0197173
1.0106545
0.99813508
0.98752651
0.98391531
0.985743
0.98920817
0.99005889
0.98793051
0.98507479
0.98341219
0.9837662
0.98588338
0.98813374
0.98885902
0.98802531
0.98676698
0.98615769
0.98664518
0.98803597
0.98984539
0.9915939
0.9930498
0.99428104
1.0053741
1.0007297
0.99994174
1.0025338
1.0023327
0.99951191
0.99821401
1.0017631
1.0050967
1.0027057
0.99618593
0.98744842
0.98189197
0.98163054
0.98242933
0.98781895
0.99782388
1.0078847
1.0164521
1.025412
1.0281737
1.0263329
1.0229631
1.014757
1.0021752
0.9917821
0.98581676
0.98533241
0.9870892
0.98681768
0.98393913
0.98053847
0.97866348
0.97946853
0.98274782
0.98680564
0.98936289
0.98956696
0.98849348
0.98780656
0.98847441
0.99046077
0.99319447
0.99595765
0.99825658
0.99995077
1.0011975
1.0050748
1.000303
1.0002412
1.0032483
1.0037076
1.001417
0.99928147
1.0008828
1.0040135
1.0042098
0.99945235
0.99060661
0.98493683
0.98378837
0.98415421
0.98946659
0.99829414
1.0054715
1.0139301
1.0237811
1.0268139
1.0244127
1.0178248
1.0053849
0.99306643
0.98738004
0.98654796
0.98683023
0.98533879
0.9822726
0.9788666
0.977391
0.97848584
0.9816271
0.98598796
0.98969735
0.99094601
0.9898336
0.98822334
0.98785795
0.98920273
0.99181941
0.99491524
0.99771148
0.99973805
1.0009215
1.001488
1.0040841
0.99973171
1.0014179
1.0048567
1.0045336
1.0017748
0.99923737
0.99974407
1.0025087
1.0040998
1.0014209
0.99461768
0.98991285
0.9874216
0.98598962
0.98972758
0.99592324
1.0029944
1.01526
1.0257385
1.0259996
1.0202766
1.0100682
0.99651604
0.98866285
0.98731838
0.98806918
0.98573608
0.98227859
0.97986215
0.97852165
0.97888956
0.98087827
0.98415699
0.98788257
0.99004304
0.98948388
0.98738005
0.98592813
0.98639543
0.98880746
0.99232809
0.99577334
0.99818139
0.99914969
0.99889919
0.99798932
1.0030634
0.99863847
1.0013537
1.0055824
1.0050989
1.0018056
0.99859262
0.9981825
1.0005857
1.0030032
1.0023576
0.9982268
0.99524692
0.99139218
0.98759714
0.98936582
0.9945368
1.003649
1.0176622
1.0258606
1.0238189
1.0152511
1.0028128
0.9920968
0.98932336
0.98970047
0.98789989
0.98299045
0.97938192
0.97842478
0.97851605
0.97931901
0.98139789
0.98451777
0.98695274
0.98719731
0.98576808
0.98455948
0.98497318
0.98715066
0.99032655
0.99342824
0.99544667
0.99591765
0.99507206
0.99351924
0.99200925
1.0025962
0.99758379
0.99986468
1.0047605
1.0056064
1.0020288
0.99812257
0.99657231
0.99812534
1.000565
1.0017271
1.0008052
0.99924346
0.99409244
0.98875385
0.99008407
0.99547527
1.0050576
1.0169196
1.0226831
1.0204206
1.0108761
0.99993434
0.99194899
0.98969974
0.98714975
0.98288025
0.97894403
0.97709653
0.97783773
0.97955998
0.9812199
0.98347985
0.98605913
0.98735464
0.98684301
0.98576913
0.9855661
0.98651628
0.98815608
0.98976418
0.99081186
0.9911106
0.99075523
0.99014254
0.98985752
0.99037807
1.0017703
0.99657271
0.99875517
1.0035491
1.0054462
1.0021174
0.99765163
0.99515352
0.99556162
0.9976106
1.0003063
1.0023483
1.001644
0.9961594
0.99160357
0.9934455
0.99784614
1.0053046
1.014747
1.0204318
1.0175789
1.0082312
0.99942161
0.99151926
0.98692611
0.98150794
0.97796002
0.97751599
0.97791119
0.97977991
0.9821286
0.98366052
0.98500048
0.98631278
0.98697486
0.98640074
0.98512111
0.98414555
0.98400251
0.98458523
0.98554859
0.98661753
0.98777343
0.98915274
0.99091761
0.99317334
0.99590048
1.0003326
0.99426848
0.9971706
1.0029104
1.0057637
1.0024018
0.99697681
0.99350653
0.99322096
0.99558311
0.99963016
1.0037175
1.0030352
0.99792074
0.99543647
0.99716328
0.99941022
1.0050487
1.014949
1.0205372
1.0147244
1.0047018
0.99651576
0.98847812
0.983604
0.97922508
0.97898647
0.98154038
0.98287066
0.98399578
0.98458145
0.98403396
0.98362427
0.98406957
0.98431483
0.98315864
0.98103023
0.97936472
0.97933812
0.98095251
0.98369246
0.98691852
0.99020944
0.99346498
0.99667352
0.99961666
1.0019152
0.99902335
0.99203128
0.99530773
1.0030256
1.0073727
1.003476
0.99647937
0.99193831
0.99159813
0.99491648
0.9999672
1.0048414
1.0038989
0.99939197
0.99868954
0.99962642
1.0005069
1.0063561
1.0173499
1.0206497
1.01002
0.99842063
0.99116785
0.98526321
0.9831901
0.98246912
0.98488833
0.98812251
0.98817278
0.98575976
0.98275569
0.98086272
0.98048761
0.98106614
0.98142027
0.98053995
0.97903412
0.97872473
0.9807921
0.98484849
0.9897302
0.99446546
0.99850085
1.0015104
1.0033115
1.0038255
1.0030702
0.99811032
0.99063124
0.99425426
1.0027498
1.0089255
1.005024
0.9966332
0.99117499
0.99092894
0.9950725
1.0006393
1.0051885
1.0040926
1.0004731
1.000297
1.0008859
1.0024031
1.0099311
1.0195291
1.0180473
1.0031392
0.99207677
0.9876128
0.98533836
0.98601448
0.98721189
0.99068965
0.99225772
0.98835632
0.98177738
0.97735242
0.9766789
0.97814413
0.98022624
0.98199067
0.98267238
0.98299029
0.98465224
0.98847687
0.99387808
0.99936316
1.0033796
1.0051382
1.0048239
1.0030943
1.0005622
0.99757028
0.99740983
0.98992552
0.99396711
1.002555
1.0098267
1.0066202
0.99734812
0.99118553
0.99100649
0.99563476
1.0012404
1.0048341
1.003615
1.0004696
1.0000871
1.0016479
1.0061558
1.0144376
1.0195408
1.0129368
0.99676825
0.98987507
0.98948615
0.98845013
0.98867863
0.9901266
0.99327218
0.991452
0.98435191
0.9768709
0.97388672
0.97591885
0.98022758
0.98440578
0.98714726
0.98855062
0.99005209
0.99299239
0.99751493
1.0023631
1.0056543
1.0061399
1.0038919
1.0000078
0.99577543
0.99183902
0.98826505
0.99696954
0.98945822
0.99356371
1.0025274
1.0102039
1.0079576
0.99816634
0.9917705
0.9916944
0.99617971
1.0010498
1.0035777
1.0023684
0.99948829
0.99945423
1.0035106
1.0110862
1.0174776
1.0176818
1.0078287
0.99406204
0.99275805
0.99401759
0.99135526
0.98994094
0.99092416
0.99254067
0.9878428
0.98028607
0.97503717
0.97526278
0.98001753
0.98600768
0.99052275
0.99273387
0.99395853
0.99597144
0.99911334
1.0024736
1.0046513
1.0044505
1.0015461
0.99667072
0.99118404
0.98629095
0.98261082
0.98020442
0.99690747
0.98895116
0.99234924
1.0017023
1.0100556
1.0088672
0.99885741
0.9926703
0.99252969
0.99626918
1.0001309
1.0020803
1.0010691
0.9983281
0.99965167
1.0063234
1.0149879
1.0176799
1.0150447
1.0046028
0.99543453
0.99706984
0.9965801
0.99168326
0.99045384
0.99142804
0.99087968
0.98428025
0.97841575
0.97695908
0.97978634
0.98549363
0.99152916
0.99511833
0.99606381
0.99697976
0.9993206
1.0019123
1.0030725
1.0020996
0.99902324
0.99406855
0.98824276
0.9830995
0.9797966
0.97862435
0.97915003
0.99701545
0.988358
0.99082707
1.0002442
1.0094576
1.0092796
0.99970666
0.99373723
0.99327803
0.99630641
0.99909241
1.0008963
0.99988932
0.99755836
1.0004288
1.0088955
1.0162307
1.0160568
1.012546
1.0039615
0.99893199
0.99968136
0.99582676
0.99164284
0.99209674
0.99250344
0.98983882
0.98242261
0.97928021
0.98038454
0.98385213
0.98925285
0.99435774
0.99694419
0.99783917
0.9996876
1.002368
1.0034783
1.0018427
0.99802684
0.99276144
0.98706118
0.98230684
0.97966425
0.97950363
0.98137778
0.98440229
0.99711629
0.98784578
0.98973525
0.99866983
1.0083295
1.0092857
1.0009423
0.99511988
0.99442281
0.99653986
0.9982699
0.99968199
0.99853202
0.99711482
1.0013261
1.0100588
1.0150797
1.0140514
1.0111792
1.0051817
1.0020556
0.99979908
0.9956666
0.9939637
0.99432187
0.99327054
0.98945335
0.98238174
0.98121128
0.98291194
0.98624795
0.99134857
0.99629592
0.99960689
1.0015781
1.0035302
1.0045697
1.0030997
0.9990723
0.99354914
0.98789539
0.98341628
0.9811095
0.98120403
0.98325157
0.98659802
0.99047965
0.99731723
0.98762842
0.98888929
0.99703215
1.0065968
1.008884
1.0025371
0.99690829
0.9961799
0.99736671
0.99778076
0.998209
0.99712913
0.99686926
1.0021733
1.0096438
1.0131288
1.0125606
1.0106367
1.0062764
1.0030821
0.99995366
0.99855648
0.99792456
0.99540664
0.99271566
0.988734
0.98268423
0.98302665
0.98527776
0.98920466
0.99500491
1.0009205
1.0046635
1.0054417
1.0045978
1.0027251
0.99951668
0.99487464
0.98974698
0.9854376
0.98298473
0.98274954
0.98443321
0.9876639
0.99172953
0.99574485
0.99767938
0.98781834
0.9879743
0.99510104
1.0043384
1.008051
1.004204
0.99895363
0.99811843
0.99867677
0.99765176
0.99647067
0.99591071
0.99674959
1.0024899
1.0084053
1.0113011
1.0116026
1.0093793
1.005403
1.0027006
1.0019713
1.0038509
1.0011275
0.99422257
0.99061818
0.98717507
0.9832651
0.98586604
0.9893311
0.99460119
1.0013474
1.0070172
1.0083656
1.0052963
1.0011057
0.99773916
0.99452766
0.99093372
0.98742212
0.98495887
0.98426729
0.98552587
0.9885635
0.99261981
0.99670935
1.0002065
0.99814781
0.98799882
0.9871087
0.99281786
1.0018789
1.0070421
1.0054437
1.0007775
0.99971497
1.0002534
0.99781956
0.99480645
0.99474738
0.99654171
1.0019367
1.0069587
1.0103153
1.0102843
1.0064927
1.0030562
1.0024513
1.0056468
1.008744
1.0014956
0.99128498
0.98771728
0.98602707
0.98523015
0.98992625
0.99478154
1.001302
1.0076062
1.0103493
1.0073143
1.0008753
0.99543602
0.99241706
0.99077802
0.98931981
0.98780334
0.98696439
0.98769469
0.99018542
0.99375206
0.99745523
1.0006861
1.0031344
0.9984463
0.98797414
0.98656667
0.99064938
0.99964297
1.0059781
1.0060867
1.0022481
1.0010951
1.0018195
0.99836732
0.99346726
0.99326492
0.99599894
1.0009728
1.0061375
1.0098775
1.00802
1.002951
1.0009156
1.0033967
1.0090232
1.0099067
0.99880414
0.9876484
0.98555191
0.98658052
0.98891243
0.99505759
1.0006736
1.0067875
1.0100661
1.0085609
1.0026533
0.99536024
0.99064308
0.98980433
0.99089311
0.99162054
0.99153153
0.99169067
0.99297027
0.99530758
0.99811122
1.0008197
1.0030393
1.004561
0.99866413
0.98819729
0.98642405
0.98900623
0.99762984
1.0047629
1.0062716
1.0035037
1.0027046
1.0033112
0.99905043
0.99241017
0.99169651
0.99504858
1.0000841
1.0061346
1.0090462
1.0050373
0.99993559
1.0001599
1.0052326
1.009892
1.0068417
0.99419794
0.98453709
0.98500045
0.98951408
0.99433635
1.0005651
1.0052064
1.008355
1.0076688
1.0038485
0.99753282
0.9914718
0.98947928
0.99167232
0.99488336
0.99672232
0.99711695
0.99705926
0.99751028
0.99874683
1.000576
1.0024885
1.0039351
1.0046864
0.9991697
0.9890028
0.98655928
0.98785394
0.99556197
1.0032803
1.005954
1.0045202
1.0043196
1.0045067
0.99964675
0.99187971
0.99055898
0.99382055
0.99950113
1.0063398
1.0071986
1.0016288
0.99812669
1.0010013
1.0068362
1.0075534
1.0012545
0.98912467
0.98281874
0.98661931
0.99438522
1.0005388
1.0049505
1.0065085
1.0060021
1.0031898
0.99896038
0.99402937
0.9908188
0.9920126
0.99624448
1.0003123
1.0021763
1.0017947
1.0004632
0.99964256
1.0000282
1.0013075
1.002638
1.0033201
1.0032591
0.99977694
0.99019273
0.98689515
0.98700539
0.99345303
1.001543
1.005134
1.0050001
1.0051844
1.0054002
1.0001645
0.9919657
0.98991733
0.99267259
0.99926291
1.006068
1.0043541
0.99858867
0.99763212
1.0029026
1.0073369
1.0031677
0.99511813
0.9849054
0.98307869
0.99004008
1.0000135
1.0055029
1.0064674
1.0046631
1.0022185
0.99887685
0.99574566
0.99315212
0.99277522
0.9960164
1.0012402
1.0052126
1.0058886
1.0039239
1.0012472
0.99961036
0.99958961
1.0005129
1.0013413
1.0015282
1.0012368
1.000223
0.99122839
0.98745328
0.98648909
0.99166605
0.9997132
1.0039567
1.0047315
1.0053002
1.0061116
1.0005324
0.9923103
0.98965115
0.99199301
0.99930817
1.0051971
1.0012484
0.99663681
0.99813125
1.0048941
1.0062194
0.99821411
0.98984727
0.98281325
0.98523895
0.994318
1.0045419
1.0073438
1.0051147
1.0017482
0.99878264
0.99648642
0.9950942
0.99429123
0.99556924
1.0001158
1.0054168
1.0081109
1.0070893
1.0036484
1.0000562
0.99801219
0.99780525
0.99863059
0.99950163
1.000035
1.0004436
1.0005321
0.99186244
0.9882872
0.98648447
0.99048109
0.9980211
1.0026514
1.0039095
1.0053356
1.0066828
1.0007567
0.99263111
0.98971857
0.99184257
0.99942972
1.0038124
0.9986391
0.99592931
0.99917661
1.0059334
1.0035121
0.99359717
0.9866886
0.98310554
0.98835259
0.99815901
1.0064908
1.0062288
1.0027039
0.99903595
0.99693972
0.99645618
0.99636536
0.99641491
0.9986328
1.0033773
1.0077741
1.0088841
1.0063709
1.0018725
0.99773286
0.99556954
0.99556432
0.99691308
0.99868421
1.000319
1.0017211
1.0007657
0.99225017
0.98933755
0.98700374
0.98980106
0.99670097
1.001373
1.0032542
1.0056341
1.0071714
1.0009595
0.99296239
0.99011196
0.99213179
0.99940833
1.0019845
0.99679217
0.9960305
1.0003618
1.0052458
0.99985715
0.99004841
0.98572747
0.98507227
0.99149808
1.000333
1.0059362
1.0040977
1.0004661
0.99722197
0.99672818
0.99790376
0.9984583
0.99886923
1.0011416
1.0051332
1.0082045
1.0080468
1.0045223
0.99940778
0.99520462
0.99343834
0.99432483
0.99696501
0.99997589
1.0024421
1.0042146
1.0010392
0.99271621
0.99040652
0.98781161
0.98936724
0.99582803
1.0002381
1.0031237
1.006109
1.007668
1.0012174
0.99339396
0.99068297
0.99280081
0.99917479
0.99974224
0.99556669
0.99668842
1.0011982
1.0032237
0.99611866
0.98775465
0.98628481
0.98759455
0.99368392
1.0007234
1.0044583
1.0026067
0.99891498
0.9961044
0.99715904
0.99938994
1.0004599
1.0010753
1.0027358
1.0054901
1.0074822
1.0065054
1.0024408
0.99733487
0.99375674
0.99324759
0.99559684
0.9993533
1.0029091
1.0053924
1.0068107
1.0014168
0.99341626
0.9912787
0.98859438
0.98902416
0.99520196
0.99941319
1.0031558
1.0066366
1.0082289
1.00141
0.99392519
0.9913283
0.99385047
0.99878675
0.99731866
0.99466394
0.99768348
1.0015229
1.0007264
0.99297909
0.98647624
0.98731567
0.98978796
0.9948616
1.0002842
1.0037291
1.0021555
0.99782462
0.99510177
0.99712411
1.0002042
1.0020083
1.0027771
1.0035254
1.0052654
1.0065405
1.0051457
1.0010354
0.99664776
0.99449628
0.99555068
0.99897411
1.0030409
1.0062328
1.0079844
1.0085887
1.0016504
0.99427714
0.99187624
0.98921483
0.98876353
0.9945553
0.99884857
1.0029076
1.007153
1.0086008
1.0015038
0.99446546
0.99207946
0.99514729
0.99826944
0.99507471
0.99408255
0.99876186
1.0013493
0.99837667
0.99074969
0.98584282
0.98802189
0.99137883
0.99537609
1.0002498
1.0041542
1.0024894
0.99691749
0.9936932
0.99635062
1.0003673
1.0030919
1.0038901
1.003951
1.0051561
1.0060899
1.0045156
1.0008743
0.99770141
0.99708568
0.99927839
1.0029908
1.0065355
1.0087606
1.0095142
1.0093631
1.0016185
0.99497297
0.99227556
0.98972926
0.98866606
0.99379042
0.99825681
1.0023511
1.0075547
1.0086121
1.0015788
0.9949448
0.99296418
0.9964021
0.99764086
0.99328625
0.99387895
0.99971169
1.0006842
0.99659781
0.98954591
0.98553231
0.98814644
0.99242178
0.99576165
1.0009529
1.0053872
1.0031223
0.99582396
0.99188602
0.99511473
1.0002336
1.0038401
1.0045729
1.004351
1.0054416
1.0062855
1.0047942
1.0017898
0.99978347
1.0002993
1.0029582
1.0063332
1.0089426
1.0101198
1.0101104
1.0095043
1.0013381
0.99521087
0.99260465
0.99028239
0.98880627
0.99299482
0.99746037
1.0017683
1.0076546
1.0083301
1.0015749
0.99538411
0.99384648
0.99727528
0.99696153
0.99213504
0.99397664
1.0002545
0.99975782
0.9955159
0.98927134
0.98528487
0.98778297
0.99292749
0.99620425
1.002212
1.0068448
1.0032313
0.99427403
0.99005742
0.99410147
1.0003438
1.0044503
1.0050592
1.004865
1.0060821
1.0069284
1.0054794
1.0030287
1.0019171
1.0030558
1.0057186
1.0084792
1.0102426
1.0107211
1.0102999
1.0094612
1.0010314
0.9949712
0.99290959
0.99096385
0.98925957
0.99242798
0.99652257
1.0012611
1.0073909
1.0077937
1.0013894
0.99580826
0.99461891
0.99758721
0.99618624
0.99168341
0.99439587
1.0001899
0.99885712
0.99509467
0.98955168
0.98501857
0.98710422
0.99295941
0.99670494
1.0036292
1.0076119
1.0024129
0.99251443
0.98879974
0.99394151
1.0009884
1.0050305
1.0054409
1.0054166
1.0067325
1.0074064
1.0059957
1.0040272
1.0035471
1.0049999
1.0074546
1.0096339
1.0108324
1.0109647
1.0103516
1.009351
1.0009066
0.99452819
0.99314524
0.99180395
0.99010017
0.99230012
0.9956145
1.0007057
1.0068184
1.0070363
1.0009978
0.99614314
0.99529786
0.99748323
0.99534828
0.99181459
0.99507997
0.99964667
0.99825997
0.99522897
0.98989518
0.98475067
0.98641011
0.9929069
0.99733871
1.0047278
1.00721
1.0006905
0.99080401
0.98842301
0.99473966
1.0020407
1.0056181
1.0058421
1.0058984
1.0070348
1.0074108
1.0060955
1.0046279
1.0046591
1.0062234
1.0083656
1.0101159
1.0110125
1.0109911
1.0102641
1.0091463
1.0009117
0.99416881
0.99328183
0.99277548
0.99133739
0.99263951
0.99485763
1.0000483
1.0060054
1.0060623
1.0003652
0.99627118
0.99595645
0.99723868
0.99452313
0.99224139
0.99580058
0.99894678
0.99804799
0.99562534
0.98995036
0.98449005
0.98613391
0.99329016
0.99817603
1.0051574
1.0057267
0.99819898
0.98937246
0.98882882
0.99606939
1.0032093
1.006317
1.0063847
1.0062466
1.0068535
1.0069127
1.0058553
1.0049821
1.0054249
1.0069626
1.0087938
1.0102567
1.011004
1.0108914
1.0100593
1.0088242
1.0009744
0.99400895
0.99330807
0.99384094
0.9929149
0.99331266
0.99432596
0.99935196
1.005079
1.004823
0.99953768
0.99620078
0.99667922
0.997021
0.99371102
0.99283878
0.99636549
0.99840723
0.99828535
0.99596372
0.98952308
0.98428556
0.98664074
0.99441259
0.99919321
1.0047791
1.0033375
0.99531728
0.9882961
0.98954429
0.99739304
1.0043386
1.0071556
1.0070455
1.0063645
1.0062666
1.0061261
1.0055433
1.0053465
1.0061176
1.0075451
1.0090911
1.0103513
1.010965
1.0107273
1.00974
1.0083881
1.0010355
0.99401076
0.9932308
0.99497398
0.99474787
0.99413249
0.99403319
0.998798
1.0040961
1.0033556
0.99859323
0.99602026
0.99745711
0.99683469
0.99288239
0.99352956
0.99675843
0.99815636
0.99893534
0.99602921
0.9885923
0.98426732
0.98815694
0.99622715
1.0001585
1.0036453
1.0003605
0.99247557
0.98743437
0.99014655
0.99843266
1.0052848
1.0080177
1.0076318
1.0062127
1.0054431
1.005371
1.0054834
1.0059787
1.0069695
1.0082337
1.0095503
1.010641
1.011074
1.0106118
1.0094036
1.0078944
1.001051
0.99409089
0.99308973
0.99612586
0.99672393
0.99497311
0.99399836
0.9984166
1.0030673
1.0018138
0.99757519
0.9958277
0.99822951
0.9966469
0.99203108
0.99419108
0.99707303
0.99829838
0.99985992
0.99574746
0.98735607
0.98457267
0.99046053
0.99848226
1.0008412
1.0019796
0.99725861
0.98999422
0.98670026
0.99054227
0.99916718
1.0059513
1.0087549
1.0080125
1.0057798
1.0045574
1.004863
1.0058078
1.0069354
1.0080664
1.0091659
1.0102878
1.0111873
1.0113588
1.0105542
1.0090661
1.0074178
1.0009835
0.99435881
0.99266981
0.99877523
1.0011606
0.99690681
0.99434035
0.99764459
1.0008948
0.99909723
0.99570839
0.99549738
0.99951112
0.99657916
0.99088598
0.99481384
0.99714482
0.99914923
1.0017315
0.99563012
0.98592267
0.98531756
0.99329619
1.0011633
1.0010336
0.99935645
0.99445735
0.98843532
0.98581848
0.98929373
0.99749487
1.005044
1.0089188
1.0084664
1.0054748
1.0036038
1.0043131
1.0062793
1.0080776
1.0092871
1.0101509
1.0110466
1.0118269
1.0119582
1.0111476
1.0096343
1.007909
1.0016947
0.99402943
0.99138468
1.0003569
1.0071556
1.0014338
0.9951035
0.99751425
0.99949124
0.99700404
0.99291582
0.99431981
0.99938088
0.99707048
0.99227396
0.9946361
0.99560657
1.0013572
1.0042088
0.99605011
0.98522935
0.98508969
0.99437594
1.0030204
1.0017809
0.99681803
0.99283847
0.98940018
0.9869374
0.9879901
0.99357181
1.0006184
1.0059675
1.0074403
1.0051898
1.002853
1.0031785
1.0056556
1.0084982
1.0104742
1.0115062
1.0120886
1.0125309
1.0126659
1.0121805
1.0110441
1.009511
1.0028084
0.99598482
0.99008708
0.99910681
1.0094358
1.0055979
0.99696637
0.99750666
0.99849531
0.99440772
0.99073758
0.99276233
0.99727355
0.99541906
0.99396083
0.99446405
0.99424081
1.0038874
1.0057615
0.99624465
0.98630373
0.98637108
0.99410506
1.0019456
1.0006826
0.99358992
0.99074336
0.99095964
0.99020916
0.98952244
0.99187878
0.99660941
1.0015427
1.0044274
1.0038544
1.0018182
1.0016389
1.0040344
1.0075609
1.0106468
1.0123715
1.012969
1.0129563
1.0127033
1.0122319
1.0114543
1.0103963
1.0033376
0.99852012
0.98989062
0.9974164
1.0096904
1.0108897
1.0028291
0.99868057
0.99776776
0.99250257
0.98944712
0.9916956
0.99466614
0.99279911
0.99322597
0.99364993
0.99489734
1.006542
1.0065704
0.99564057
0.98839684
0.98979831
0.99528186
0.99997818
0.9983508
0.98991568
0.98765127
0.99095085
0.99281196
0.99265895
0.99294286
0.99513699
0.99829079
1.001148
1.0019622
1.0007617
1.0000504
1.0015797
1.0050639
1.0089213
1.0117013
1.0128455
1.0127188
1.012035
1.011263
1.0105423
1.0098474
1.0034452
1.0010423
0.99081149
0.99605584
1.0088054
1.0147075
1.0095256
1.0020797
0.9975727
0.99237932
0.9889624
0.99122814
0.99223786
0.99075837
0.99025849
0.99072889
0.9962842
1.0089177
1.007795
0.99534956
0.99015587
0.99357515
0.99815299
0.99982234
0.99749177
0.98789702
0.98500098
0.98941452
0.99290328
0.9943378
0.99486743
0.99571907
0.99744904
0.99961432
1.0010885
1.0007751
0.99979321
0.99997157
1.0020987
1.0055998
1.0090224
1.0111572
1.0116522
1.0110268
1.0100304
1.0091214
1.008444
1.0006792
1.0015208
0.99362332
0.99604165
1.0073629
1.0169365
1.0157456
1.0066518
0.99777812
0.99207896
0.98919592
0.9914372
0.99091264
0.98995453
0.98726655
0.98707554
0.9961023
1.0088848
1.0087259
0.99674759
0.99213895
0.99577216
1.0000211
1.0005333
0.99866594
0.98911233
0.98484047
0.98814536
0.99096875
0.99336386
0.99528766
0.99635072
0.99789426
0.99991003
1.0018482
1.0025078
1.0017065
1.0006772
1.0007928
1.002529
1.0053507
1.0080314
1.0095642
1.0097695
1.009121
1.0081965
1.007361
0.99892149
1.0015985
0.99654311
0.99598238
1.0045427
1.0159607
1.019828
1.0120367
0.99913057
0.99123109
0.99007056
0.9924429
0.99080096
0.98933604
0.98511552
0.98581261
0.99617814
1.0066452
1.0082554
0.99897531
0.99457681
0.9968972
1.0000032
0.99979828
0.99967483
0.99224186
0.98691905
0.98822407
0.98924054
0.99133152
0.99408937
0.99571364
0.99763295
1.0001367
1.002818
1.0047067
1.0049164
1.0036454
1.0020874
1.0015999
1.0027451
1.0048941
1.0069718
1.0081904
1.0083942
1.0078896
1.0070975
0.9979461
1.003543
1.0009731
0.99707403
1.0002094
1.0110066
1.0195309
1.0172378
1.0029854
0.9909538
0.99049936
0.99349542
0.99175811
0.9885963
0.98342899
0.98669007
0.99739145
1.0043483
1.0067338
1.000935
0.99638348
0.99766572
0.99980135
0.99816244
0.99850083
0.9947336
0.98973055
0.98900007
0.98836175
0.99016743
0.99320034
0.99490806
0.99659268
0.99906862
1.0022116
1.0052007
1.0068575
1.0066477
1.0049169
1.0030175
1.0024035
1.0033887
1.0052278
1.0069403
1.0078738
1.0079227
1.0073749
0.99755133
1.0053659
1.0076066
1.0009999
0.99569293
1.0025832
1.0148571
1.0192345
1.0086309
0.99343137
0.99078167
0.99431899
0.99329437
0.98854197
0.98245618
0.98774332
0.99890154
1.0032404
1.0056243
1.0034341
0.99719595
0.99752516
0.99984002
0.99801514
0.99669089
0.99503756
0.9912355
0.98891128
0.98786726
0.99035383
0.99406158
0.99592698
0.99682908
0.99812462
1.0005165
1.0036112
1.00618
1.0073544
1.0068093
1.0051454
1.0037921
1.0037857
1.0050231
1.0066558
1.0078393
1.0082215
1.0078972
0.99636422
1.0041622
1.0119482
1.0065528
0.99434737
0.99438854
1.0073918
1.0166702
1.0124361
0.99860857
0.99280058
0.99522003
0.9946719
0.98906718
0.98313878
0.98888637
1.0007554
1.0039076
1.0049371
1.0052005
0.99749253
0.99625615
0.99943403
0.99944089
0.99664557
0.99476433
0.99120338
0.98756426
0.9870061
0.99082487
0.9958681
0.99880281
0.99963633
0.99954786
1.0002679
1.0021373
1.0042876
1.0061052
1.0069093
1.0063671
1.0053632
1.0050046
1.0057009
1.0069818
1.0080827
1.0085423
1.0083395
0.99482627
1.0011886
1.0147148
1.0149033
0.99932771
0.99105694
0.99973167
1.0111849
1.0127225
1.0039265
0.9973184
0.99806727
0.99663584
0.98982915
0.98472896
0.9897665
1.00171
1.0061174
1.0060727
1.00565
0.99793122
0.99542758
0.99879909
1.0013455
0.99911236
0.99608063
0.99097807
0.98613342
0.98597388
0.99053574
0.99636605
1.0005957
1.0026822
1.0028476
1.0026072
1.0029276
1.0037474
1.0051036
1.006513
1.0070085
1.0065746
1.0061239
1.0063706
1.0072192
1.0080989
1.0085162
1.0083762
0.99707084
0.99946087
1.0130006
1.0193303
1.0073848
0.99267982
0.99427082
1.0047304
1.0092777
1.0064568
1.002419
1.0026982
0.99959879
0.99074605
0.98603886
0.99010567
1.0007632
1.0077582
1.0085814
1.0056426
0.99853829
0.99585969
0.99865221
1.002029
1.0015997
0.99908691
0.99237798
0.98602732
0.98546197
0.98944674
0.99469083
0.99914717
1.0025034
1.0042336
1.0049489
1.005153
1.0051408
1.0057242
1.0070543
1.0079638
1.0077935
1.0070707
1.0067449
1.0071098
1.0077735
1.0082041
1.0081456
1.000783
0.99997408
1.0085961
1.0175842
1.0138673
0.99876926
0.99204655
0.99833569
1.0030435
1.0043845
1.0054645
1.0064595
1.0023244