/*--------------------------------*- C++ -*----------------------------------*\
| =========                 |                                                 |
| \\      /  F ield         | OpenFOAM: The Open Source CFD Toolbox           |
|  \\    /   O peration     | Version:  2406                                  |
|   \\  /    A nd           | Website:  www.openfoam.com                      |
|    \\/     M anipulation  |                                                 |
\*---------------------------------------------------------------------------*/
FoamFile
{
    version     2.0;
    format      ascii;
    arch        "LSB;label=32;scalar=64";
    class       volScalarField;
    location    "10";
    object      p;
}
// * * * * * * * * * * * * * * * * * * * * * * * * * * * * * * * * * * * * * //

dimensions      [1 -1 -2 0 0 0 0];

internalField   nonuniform List<scalar> 
62344
(
1.0013063
1.0003167
0.9991072
0.99824759
0.99372239
0.98551587
0.980802
0.97979179
0.9800703
0.98275928
0.98432728
0.98026265
0.97606684
0.97427222
0.97922846
0.9864487
0.99626488
0.99754796
0.99570718
0.99767194
0.99319224
0.99378159
1.0022393
1.0088866
1.007708
1.001482
0.99994019
1.0175876
1.0158177
1.0100295
1.0178501
1.028702
1.0337406
1.0391405
1.0562612
1.0310405
1.0066433
1.0320373
1.0678258
1.0537875
0.99641042
0.9571989
0.95891569
0.9742134
0.99428048
1.0422889
1.098632
1.1129149
1.0836363
1.0575039
1.0501467
1.0460582
1.0147214
0.97466805
0.95554133
1.0014195
1.0010078
0.99989185
0.99924661
0.99401507
0.98625029
0.98216702
0.98005921
0.98020106
0.98250439
0.98573541
0.98240765
0.97695216
0.9756426
0.98044365
0.98560731
0.99664002
0.99874235
0.99630041
1.0003575
0.99527852
0.99116938
0.99963871
1.0089122
1.0063472
0.99932244
1.0012864
1.0212005
1.0180719
1.0100416
1.0165144
1.0261893
1.0317218
1.0392971
1.050907
1.0285051
1.0239907
1.0486839
1.0545041
1.0125624
0.97445878
0.97772108
0.9922326
0.99847319
1.0090885
1.0421923
1.0894009
1.1103398
1.0721511
1.0037795
0.96552577
0.98043587
1.0208794
1.0448989
1.0519517
1.0013573
1.0012445
1.0003406
0.999561
0.99366438
0.9868272
0.98330526
0.98024522
0.98046139
0.9832754
0.98656246
0.98366131
0.97712816
0.97585712
0.98174769
0.98580974
0.99657586
0.99810899
0.99638553
1.001523
0.99788579
0.99248204
0.99781994
1.0080778
1.0072833
0.997957
1.0015104
1.0222982
1.0214373
1.013075
1.0174921
1.024464
1.0270117
1.0417207
1.0504581
1.0306935
1.0259028
1.0432074
1.0434158
1.0095753
0.97327967
0.97213777
1.0029792
1.033773
1.0468313
1.0532401
1.0536766
1.0470161
1.0347951
1.0047926
0.98118288
0.98134867
1.0132602
1.0654321
1.109857
1.0014091
1.0011376
1.000423
0.99988219
0.99397876
0.98783378
0.98377067
0.98073166
0.98103368
0.98483548
0.98655513
0.98332625
0.97696667
0.97600527
0.98220355
0.98682352
0.99599418
0.99670584
0.996014
1.0009494
0.99796083
0.9932321
0.99722202
1.0050716
1.0056064
0.99820447
1.0031291
1.0210222
1.0223095
1.017038
1.0204552
1.0220596
1.0223163
1.0418435
1.0496561
1.0294676
1.0269243
1.0420307
1.0397861
1.0106253
0.98030889
0.97567631
0.99905234
1.0479782
1.0817762
1.0640843
1.0149426
0.97990678
0.98903429
1.0210484
1.0324259
1.0327839
1.0458401
1.061476
1.0794087
1.0015707
1.001118
1.0003728
1.0000335
0.99520083
0.98844298
0.98341328
0.98137387
0.98109448
0.9854593
0.98691917
0.98304805
0.97685545
0.97651445
0.98164189
0.98780414
0.99558432
0.99676398
0.99683462
1.0010396
0.9975641
0.99283535
0.99789988
1.0025166
1.0027705
0.99678334
1.0063232
1.0214654
1.0221042
1.0201267
1.0246467
1.0218384
1.0198247
1.0410267
1.0470214
1.0277575
1.0279605
1.0402722
1.0344105
1.014753
0.99404241
0.98596044
1.0000372
1.0424029
1.0807538
1.0619434
1.0060513
0.96460294
0.96205512
1.0002403
1.0504776
1.0839086
1.0917436
1.0751562
1.0427787
1.0017638
1.0014779
1.0005529
1.000466
0.9965206
0.98884944
0.98359866
0.98202229
0.98077761
0.98510589
0.9885749
0.98332442
0.9768201
0.97689187
0.98096325
0.98819238
0.99516321
0.99691361
0.99775983
1.001501
0.99744108
0.99320713
0.99866616
1.0015328
0.99953878
0.99376281
1.0084975
1.0230183
1.0222573
1.0212821
1.0285777
1.0235994
1.0191602
1.0398271
1.0411055
1.0247122
1.0298123
1.0384226
1.03028
1.0162094
1.0054801
1.0004908
1.0102753
1.0374589
1.0585702
1.0461692
1.0088154
0.97722744
0.96768004
0.9854098
1.031205
1.0811688
1.1005893
1.0837078
1.0458733
1.0018697
1.001937
1.001182
1.0009896
0.9967372
0.98900004
0.98429904
0.9819517
0.98063016
0.98428185
0.9896414
0.98354397
0.97713047
0.97666159
0.98083844
0.98797352
0.99438579
0.9963348
0.99831442
1.0015008
0.99731674
0.99420888
0.99887895
1.0009242
0.99718753
0.99094931
1.0086512
1.0241334
1.0231799
1.0219037
1.0314169
1.0259963
1.0206151
1.0384704
1.0343311
1.0218256
1.0313018
1.0379614
1.0264679
1.0139131
1.0127597
1.0162028
1.0265375
1.0364751
1.028808
1.0153709
1.011291
1.0069683
1.0007442
1.0010084
1.0164374
1.0390202
1.0604727
1.0700559
1.0603611
1.0018422
1.0022021
1.0019777
1.0017584
0.99636353
0.988989
0.98502824
0.98153809
0.98107264
0.98394352
0.98928936
0.98347825
0.97731314
0.97612703
0.98101084
0.98770869
0.99385078
0.99557615
0.99813706
1.0009172
0.99756098
0.9950928
0.99853984
0.99969485
0.99535565
0.98920284
1.0073765
1.0237311
1.0235042
1.0227309
1.0329981
1.0278935
1.0238132
1.0370924
1.0272054
1.0195589
1.0322734
1.0375675
1.0240697
1.011309
1.0137689
1.0283526
1.0438522
1.040387
1.0133864
0.99236564
1.0000809
1.0243039
1.0357403
1.0345876
1.0226087
1.0073055
1.0069812
1.0260528
1.0495862
1.0017145
1.0024331
1.002669
1.0023117
0.99624427
0.98894223
0.98519908
0.98137087
0.98153013
0.98448675
0.98832748
0.98345204
0.97724322
0.97589002
0.98126877
0.98729821
0.99382224
0.99484944
0.99725665
1.0002879
0.9980195
0.99585214
0.99809542
0.99779659
0.99351656
0.98842956
1.0062583
1.0221887
1.0231682
1.0235946
1.033064
1.0284836
1.0272054
1.0355976
1.0208522
1.018373
1.0336108
1.0380733
1.0223203
1.009375
1.0126597
1.033375
1.0564598
1.0499466
1.0121471
0.9820587
0.98449853
1.0171887
1.0529262
1.0608801
1.0392755
1.0020216
0.97975222
0.98776547
1.0175025
1.0016211
1.0027266
1.0030111
1.0025679
0.99668269
0.98902639
0.9847668
0.98155348
0.98141649
0.98491647
0.98776065
0.98370593
0.97722241
0.97602417
0.98142246
0.98691549
0.99403167
0.99438834
0.99608224
1.0000645
0.99865246
0.99676426
0.99785131
0.99595939
0.99168494
0.9881188
1.0054349
1.0204909
1.022884
1.0250312
1.0328628
1.0283376
1.030541
1.0335853
1.015269
1.0169096
1.0354748
1.0389206
1.0212862
1.0082147
1.0110189
1.0334333
1.0620588
1.0589022
1.019886
0.98313946
0.97606041
1.0004271
1.0440808
1.0694461
1.0559915
1.0205435
0.98739278
0.97610813
0.99051163
1.0016296
1.0029608
1.0030569
1.0026511
0.99724424
0.98938884
0.98437412
0.98179821
0.98096956
0.98515437
0.98790171
0.98407814
0.97718264
0.97616357
0.98128397
0.98654025
0.99403185
0.99402554
0.99486572
0.99995539
0.99918187
0.99768289
0.99791449
0.99458313
0.98958643
0.98767615
1.0046932
1.0188615
1.0227666
1.0265554
1.0332997
1.0282083
1.033874
1.0313959
1.0108562
1.0151542
1.0369893
1.0397722
1.0210871
1.0069557
1.0102901
1.0318036
1.0621384
1.0641823
1.0301341
0.99349412
0.979292
0.99135017
1.0233473
1.0531355
1.0600419
1.0417219
1.0125574
0.98942856
0.98393707
1.0016887
1.0029538
1.0028779
1.0026596
0.99747302
0.98990192
0.98436815
0.98200593
0.98069832
0.98519678
0.98835518
0.98462498
0.97707963
0.97604892
0.98094015
0.98630484
0.99375386
0.99357542
0.99409404
0.99952796
0.99926103
0.99850136
0.99823088
0.99380727
0.98760923
0.98684865
1.0035338
1.0170259
1.0225175
1.0277039
1.0336317
1.0287433
1.0372487
1.0297414
1.0073486
1.0133371
1.0372838
1.04085
1.021589
1.0051227
1.0098108
1.0316854
1.0594381
1.0638164
1.0383868
1.006216
0.99273539
0.99457544
1.0072352
1.0262975
1.0423396
1.0468853
1.0346234
1.0157635
0.99899106
1.0017325
1.0027114
1.0025471
1.0025711
0.99713237
0.99024295
0.98488128
0.98209442
0.98056649
0.98500953
0.98894956
0.98521152
0.97690101
0.97569692
0.98039104
0.9861967
0.99315632
0.99299357
0.99399234
0.99905719
0.99877594
0.99895714
0.99875037
0.99354141
0.98594337
0.98572476
1.0019389
1.0150089
1.0223944
1.0285491
1.0331613
1.0295785
1.0403574
1.0296639
1.0054155
1.0110566
1.0355124
1.0415644
1.0226683
1.0033126
1.0081781
1.0328985
1.0567624
1.0600914
1.041502
1.0182339
1.0087099
1.0054232
1.0012232
1.0044076
1.0170204
1.035447
1.0462567
1.0403275
1.0260569
1.0017626
1.0023717
1.0021551
1.0024143
0.99665373
0.99033373
0.98559522
0.98221079
0.98057747
0.9848555
0.98937935
0.98571651
0.97671013
0.97536561
0.9797979
0.98621995
0.99233438
0.99245376
0.99436053
0.99852972
0.99801855
0.99894815
0.99935733
0.99376788
0.98484251
0.98467891
1.0001868
1.0127969
1.0222209
1.029204
1.0319523
1.0304189
1.0424137
1.0307299
1.0051604
1.0092714
1.0321033
1.0405111
1.0241668
1.0024258
1.0060473
1.0333518
1.0556882
1.0555969
1.039897
1.0264069
1.0237137
1.0195526
1.0061302
0.99344714
0.9959079
1.0147243
1.0403573
1.0542154
1.0497799
1.0017773
1.0020141
1.0017929
1.0021237
0.99632456
0.99024723
0.98617852
0.98229259
0.98073462
0.98476822
0.98960564
0.98595856
0.97661385
0.9753006
0.97929885
0.98640443
0.99146071
0.99199606
0.9950177
0.99797905
0.99721241
0.99884589
0.9997537
0.99427775
0.98429293
0.98380774
0.99836395
1.0104128
1.0215469
1.0300173
1.0305018
1.0311382
1.0432998
1.0316914
1.0067659
1.0087722
1.0273529
1.0373493
1.0251198
1.0030915
1.0048875
1.0322151
1.0550333
1.0530693
1.0355455
1.0296685
1.0333716
1.0329151
1.0170397
0.99539311
0.98484247
0.99566192
1.0215121
1.0510782
1.0624167
1.0017652
1.001724
1.0015543
1.0017837
0.99629213
0.99010267
0.98645908
0.98238403
0.98082079
0.98467068
0.98962525
0.98587406
0.97657025
0.97535555
0.9788487
0.98654209
0.9907182
0.99162359
0.9955646
0.99760086
0.99659491
0.99860744
0.99985973
0.99475282
0.98417545
0.98313251
0.99669671
1.0081884
1.020319
1.0308132
1.0296762
1.0314343
1.043256
1.0319918
1.0099246
1.0097946
1.0223475
1.0323316
1.02491
1.0051915
1.0056957
1.0299103
1.0543761
1.0514732
1.0316018
1.0287405
1.0375085
1.0423206
1.0298112
1.0060576
0.98573374
0.98419142
1.002882
1.0332797
1.0583312
1.0017428
1.0015861
1.0015015
1.0014718
0.99651103
0.9899809
0.9863888
0.9824835
0.98079704
0.98451468
0.98948874
0.98557459
0.97661577
0.97539779
0.97842303
0.98647034
0.99020699
0.9913713
0.99583263
0.99749224
0.99623841
0.99855813
0.99990929
0.99506338
0.98429212
0.98262266
0.99516012
1.0062933
1.0187222
1.0310255
1.0298463
1.0317743
1.0424203
1.0315831
1.0133628
1.0122063
1.0184292
1.0258742
1.0231156
1.0081766
1.0083234
1.0280035
1.0523784
1.0503488
1.0297461
1.0259249
1.0372364
1.0464124
1.0408904
1.0205349
0.99520593
0.98325894
0.9912117
1.0148203
1.0426186
1.0017205
1.0016015
1.0015763
1.0012446
0.99687998
0.98990231
0.98606303
0.98252568
0.98070387
0.98437656
0.98934634
0.98522793
0.97672027
0.97542502
0.97795562
0.98622329
0.98998591
0.9911747
0.99558808
0.99747748
0.99611252
0.99852325
1.0001051
0.99524987
0.98429617
0.98206284
0.99371217
1.0048077
1.0171382
1.030357
1.0306974
1.0323215
1.0409154
1.0306015
1.0167664
1.0148681
1.0163327
1.0187571
1.0191841
1.0110657
1.0118148
1.0284616
1.0498367
1.0484146
1.0296655
1.0236129
1.0342642
1.0457711
1.0477923
1.0332369
1.009159
0.99062319
0.98841904
1.0013689
1.0221368
1.0016959
1.0017309
1.0017439
1.0011717
0.99723365
0.98992975
0.9856587
0.98250824
0.98060753
0.98429797
0.98927577
0.98498843
0.97687882
0.97536398
0.97749711
0.98576992
0.99001632
0.9910231
0.99498013
0.997587
0.99616656
0.99866337
1.0005189
0.99539562
0.98433969
0.9814355
0.99233618
1.0035651
1.0159244
1.0289864
1.0318505
1.0336398
1.0392706
1.0292999
1.0194305
1.0179796
1.0159869
1.0128091
1.0133709
1.0136166
1.0154095
1.0310613
1.0472049
1.045732
1.0298869
1.0232262
1.0306954
1.0422928
1.0498
1.0417833
1.0231095
1.0028358
0.99343401
0.99597555
1.0055414
1.0016722
1.0019504
1.0019651
1.0012679
0.99750513
0.99003129
0.9853222
0.98245451
0.98050784
0.98419118
0.98924159
0.9849349
0.97703676
0.97519221
0.97709053
0.98517302
0.99015504
0.99090541
0.99423504
0.99765859
0.99635733
0.99872921
1.0011249
0.9956006
0.9842779
0.98083593
0.9909241
1.0023134
1.014941
1.0270099
1.0327531
1.0355162
1.0378179
1.0279311
1.0209343
1.0209271
1.0173307
1.0087587
1.0060474
1.013929
1.0197122
1.0350805
1.0462115
1.0422594
1.0283151
1.024082
1.0284872
1.038276
1.0476394
1.0456993
1.0335439
1.0170979
1.0043296
0.99810851
0.99684251
1.0016575
1.002199
1.0022058
1.0015522
0.99767248
0.99016544
0.98520147
0.98233557
0.9803939
0.98404904
0.98924662
0.98513567
0.97720089
0.97496511
0.97679746
0.98449602
0.99039052
0.9907467
0.99349562
0.99758802
0.99659543
0.99885292
1.0017844
0.99581802
0.98434582
0.98029374
0.98950354
1.0010849
1.0139983
1.0246746
1.0334924
1.0377889
1.036974
1.0266716
1.0216829
1.0236155
1.0198597
1.0064815
0.99898154
1.0108274
1.0245473
1.039524
1.0477547
1.0386599
1.0257914
1.0245319
1.0282001
1.0354605
1.0430854
1.0452778
1.0394984
1.0295062
1.0181861
1.0061439
0.99577663
1.0016543
1.0024216
1.0024224
1.0019753
0.9977082
0.9903132
0.98528214
0.98216898
0.98026596
0.98386877
0.98927313
0.9855217
0.9773447
0.97478715
0.97665324
0.98381072
0.99070489
0.99068611
0.99285778
0.99744607
0.99683211
0.99895955
1.0024016
0.99604498
0.98456236
0.97989315
0.9880546
0.99985364
1.0131288
1.0220135
1.0335426
1.039915
1.037028
1.0256937
1.021739
1.0254794
1.0230593
1.0059946
0.99356491
1.0048889
1.0278323
1.044341
1.0510499
1.0357796
1.0225375
1.0233744
1.0292229
1.0345024
1.0393706
1.0415059
1.0411069
1.038543
1.0313256
1.0176459
1.0007702
1.0016562
1.0025972
1.0025862
1.0024547
0.99762066
0.99043721
0.98553215
0.98200502
0.98013666
0.98368176
0.98930531
0.9860218
0.97746354
0.97461276
0.9766655
0.98315425
0.99096756
0.99069227
0.99229965
0.99717665
0.99711711
0.9988934
1.0029542
0.99642267
0.98475146
0.97951355
0.98665565
0.99853085
1.012363
1.0195204
1.0328653
1.0419054
1.0374805
1.0251669
1.0210184
1.0265199
1.0263583
1.0073745
0.98983849
0.99789833
1.0273327
1.049951
1.0546161
1.0354792
1.0192052
1.0216973
1.0298023
1.0347109
1.0371727
1.0369247
1.0394898
1.0433933
1.0413435
1.0297006
1.0095611
1.0016687
1.0027267
1.0026726
1.0029086
0.9974524
0.99052057
0.98590234
0.9818774
0.98000693
0.98347756
0.98930662
0.98655031
0.97757472
0.97452984
0.97677018
0.9825757
0.99115958
0.99076226
0.99188078
0.99687121
0.99734122
0.99891625
1.0034324
0.99687077
0.98528251
0.97931241
0.98531799
0.99711854
1.011493
1.0174532
1.0317429
1.0437494
1.038528
1.0256978
1.0204081
1.0274099
1.0291638
1.0101704
0.9878701
0.99143455
1.0230741
1.0550128
1.0585201
1.0370406
1.0169152
1.0192828
1.0294341
1.0362723
1.0367619
1.0331756
1.036278
1.0442772
1.0476662
1.0399043
1.0203794
1.0016784
1.0028144
1.0026964
1.0032896
0.99728198
0.99060042
0.98623959
0.98182803
0.97994369
0.98328043
0.98928345
0.98701279
0.9776805
0.97444273
0.97689867
0.98205114
0.99124408
0.9906824
0.99151118
0.99648774
0.99750019
0.99877227
1.0037938
0.99725829
0.98573445
0.97934131
0.98421094
0.99572858
1.0106385
1.0153378
1.0302046
1.0442948
1.03925
1.026262
1.0187677
1.0274363
1.0312498
1.0138326
0.98750034
0.98624288
1.0171211
1.0574186
1.0638417
1.0399622
1.0162597
1.0151381
1.0278179
1.0376444
1.0379193
1.0313251
1.0328455
1.042213
1.0503483
1.0472434
1.0308202
1.0016916
1.0028665
1.0026882
1.0035577
0.99714395
0.99057983
0.98651363
0.98178744
0.9798689
0.98310782
0.98933772
0.98739993
0.97777745
0.9743251
0.97696278
0.98165283
0.99126963
0.99093517
0.99121101
0.99627149
0.99761939
0.99871733
1.0041708
0.9978029
0.98587339
0.97938383
0.98326481
0.99439837
1.0106839
1.0140164
1.0287369
1.0457628
1.0402279
1.0276787
1.0175549
1.0269967
1.0328791
1.017725
0.98885422
0.98045564
1.0096177
1.0562536
1.0713387
1.0444669
1.018284
1.0121738
1.0233067
1.0376783
1.0393761
1.0320172
1.030298
1.0387268
1.0499892
1.0523461
1.0398596
1.0016836
1.0028898
1.0026822
1.0037038
0.99711511
0.99066466
0.98671727
0.98184346
0.97986001
0.98293724
0.9891932
0.98771064
0.97801344
0.97428435
0.97683659
0.98116271
0.9909957
0.99090201
0.99097173
0.99589582
0.99763283
0.99845342
1.0042342
0.99854736
0.98684082
0.97967967
0.9825301
0.99263755
1.0091247
1.0124567
1.0264041
1.0443603
1.0412252
1.0301874
1.0175931
1.0261812
1.0330525
1.0217702
0.99420583
0.9794013
1.0022882
1.0465521
1.0704424
1.0503704
1.0244279
1.0134767
1.0197968
1.0346976
1.0390018
1.0336226
1.0296858
1.0353729
1.0464603
1.0525743
1.0458886
1.0203526
1.0096142
0.99865719
0.98949203
0.98346794
0.98246555
0.98736291
0.99960888
1.0193499
1.0419453
1.0584628
1.0619716
1.0517014
1.0284659
1.0039679
0.99164839
0.99821167
1.0237078
1.0548155
1.0635537
1.0394589
1.0049467
1.0194207
1.0905637
1.139902
1.0619043
0.97376693
0.97459531
0.96251863
0.95808596
0.9574405
0.96155916
0.97140996
0.98684453
1.0051978
1.0217085
1.0314592
1.0327431
1.0225707
1.004338
0.98653045
0.98028134
0.99305113
1.0254497
1.0650257
1.0858123
1.075114
1.0324296
1.0004017
1.0156818
1.0627772
1.0993069
1.0625489
1.031338
0.94324231
0.93923889
0.94451153
0.9531734
0.96588743
0.98127108
0.99475124
1.0025022
1.0040194
0.99740706
0.98375482
0.96580775
0.95220488
0.9495953
0.96365695
0.99704987
1.0400698
1.0719268
1.0767709
1.0559763
1.035867
1.0362833
1.0458836
1.0446925
1.0262786
1.0230824
1.0637171
0.9488381
0.95616726
0.97185761
0.98418071
0.99394053
0.99838041
0.99622831
0.98871292
0.97612785
0.95996699
0.94299172
0.93135015
0.92969727
0.94188261
0.9694407
1.003235
1.0262378
1.0324593
1.0205291
1.011363
1.0323323
1.0763444
1.0934972
1.0568263
0.98859382
0.98567219
1.0353651
1.0011411
1.014066
1.0214831
1.0218165
1.017344
1.0080401
0.99462839
0.97813689
0.96080834
0.94386195
0.93291795
0.93416394
0.94684156
0.97082326
0.99666153
1.0078811
0.99738784
0.97453414
0.95627967
0.96853818
1.0174965
1.079428
1.1100987
1.0732479
1.006559
0.98793656
0.99555681
1.056181
1.0628169
1.0560303
1.0446452
1.0302319
1.0138923
0.99722921
0.98107014
0.96621653
0.95962016
0.96369997
0.97817584
1.0016166
1.0220373
1.0229141
1.0022741
0.97066214
0.94287901
0.93179753
0.95715881
1.0029443
1.0476007
1.0649325
1.0521609
1.045601
1.025775
1.0058715
1.0559589
1.05002
1.0385493
1.0282165
1.0169068
1.0053253
0.99470756
0.98926344
0.99272787
1.005813
1.0267402
1.0511755
1.0702947
1.0662383
1.0392951
1.0021066
0.967849
0.94839275
0.95687365
0.98784122
1.0098396
1.004176
0.9853479
0.9900584
1.0393712
1.071778
1.0696094
1.0062392
0.99554074
0.98490653
0.9767964
0.972069
0.9715339
0.97873872
0.99560025
1.0218299
1.0528985
1.0815069
1.0983234
1.0969981
1.0762562
1.0481963
1.0199817
1.0001794
1.0017746
1.0260499
1.0445004
1.0251311
0.97257408
0.93276966
0.93328166
0.98936714
1.0743002
1.1450349
0.94946279
0.93810757
0.93424554
0.93515256
0.94177331
0.95613982
0.97754829
1.0042107
1.0309565
1.0525361
1.0662026
1.0670319
1.0550615
1.0430315
1.0366831
1.0399083
1.0604703
1.0915564
1.1181391
1.0998332
1.0392859
0.97242094
0.92740926
0.91749461
0.94867133
1.040165
1.1557373
0.91359924
0.91324434
0.92266316
0.9375357
0.95767828
0.97986292
0.99979938
1.012611
1.0157101
1.0083118
0.99729398
0.987012
0.97908055
0.98220427
1.0025943
1.04532
1.1036777
1.1501891
1.1644393
1.1271425
1.066018
1.0074661
0.96798952
0.94963417
0.9532626
1.0136787
1.078419
0.93737868
0.95109755
0.97106309
0.98995085
1.0035031
1.0081634
1.00502
0.99522611
0.97860712
0.96095697
0.94406746
0.9331784
0.93190035
0.94760967
0.98452286
1.037682
1.0851926
1.1159634
1.1132396
1.0965586
1.082619
1.0690365
1.0502298
1.0255161
1.0116114
1.007125
0.98061408
1.0404649
1.0537759
1.0585058
1.0525278
1.0388205
1.0194551
0.99697274
0.97304881
0.9519535
0.93603274
0.9267768
0.92823414
0.94456381
0.97517099
1.007496
1.0261322
1.0270772
1.0143387
1.0084415
1.0182304
1.0537655
1.1045845
1.1370275
1.1336211
1.0930804
1.0261102
0.92663231
1.1256415
1.1300657
1.1141394
1.0922398
1.066723
1.0392377
1.0118132
0.98953721
0.97327461
0.96333081
0.96419185
0.98114571
1.0098559
1.033878
1.0354628
1.009502
0.97263195
0.94175673
0.93274365
0.94927282
0.99775877
1.0734068
1.1534099
1.2034542
1.1771869
1.0674129
0.92624539
1.1026062
1.0928558
1.0800606
1.0697171
1.0604774
1.0520148
1.0445354
1.0396852
1.0427982
1.0546943
1.0761616
1.0972284
1.1019018
1.0801033
1.040321
0.99408251
0.95431945
0.92693764
0.9158395
0.92922374
0.95981522
1.0150781
1.088114
1.1669117
1.2064632
1.1141445
0.97460035
1.0122943
1.0039993
0.99686489
0.99528772
1.0008268
1.0143505
1.037273
1.072083
1.116673
1.1620618
1.1950876
1.2009586
1.1701886
1.1164184
1.0590884
1.011256
0.97820448
0.9573211
0.9509765
0.95509286
0.96430769
0.97514502
1.010994
1.0672657
1.1269114
1.1065828
1.0417973
0.94425412
0.93459068
0.93610564
0.94562772
0.96296156
0.99018971
1.0295037
1.0766509
1.1234698
1.1618508
1.1834039
1.1768873
1.1547486
1.1278461
1.101411
1.0759536
1.0508208
1.0345413
1.0230657
1.0086607
0.98965922
0.98022333
0.98069738
0.98705519
1.0004043
1.0177601
1.0599007
0.91930077
0.92609615
0.94518261
0.96954522
1.0000118
1.0317772
1.0591209
1.0728536
1.072361
1.0608737
1.0460354
1.0424125
1.0493026
1.0695231
1.0998102
1.1303088
1.1476118
1.1432904
1.1193755
1.0810846
1.040783
1.0132032
0.9891443
0.95024918
0.91187251
0.92509572
1.0092554
0.99705023
1.0184315
1.0436891
1.0664759
1.079249
1.0761607
1.0592072
1.029946
0.99510604
0.96189403
0.93569085
0.92726526
0.93888742
0.97645103
1.0325826
1.101874
1.1689071
1.2065809
1.2006564
1.1623076
1.115192
1.0704317
1.0125797
0.94717098
0.88883704
0.87688978
0.9492769
1.1926761
1.1995746
1.1860877
1.1566923
1.1167285
1.072114
1.0274556
0.98473794
0.94958378
0.923031
0.90658862
0.90102927
0.91027541
0.9354613
0.97719318
1.0307712
1.0936509
1.1454754
1.1838447
1.2004588
1.1835395
1.1338637
1.0538836
0.97148983
0.90368877
0.88278131
0.93186455
1.2834907
1.2790501
1.2419316
1.1958594
1.1459598
1.0954593
1.0493033
1.0107366
0.978562
0.95621798
0.9448497
0.94672219
0.95811104
0.97023437
0.98029194
0.98831922
0.99762155
1.0239896
1.0733421
1.1402652
1.1897397
1.1765811
1.1083167
1.0138653
0.94072336
0.92028032
0.96534293
1.1755482
1.1609597
1.1511969
1.1443277
1.1368307
1.1274015
1.1145349
1.0992115
1.0857072
1.0774792
1.0709256
1.0653055
1.0541923
1.0329781
1.0027926
0.97187046
0.94659512
0.94158077
0.9732102
1.040883
1.1257573
1.1628337
1.1317665
1.0576903
0.9922094
0.9727092
1.0256607
1.0068572
1.002744
1.0030553
1.0158698
1.040022
1.0719008
1.1120826
1.158514
1.2020222
1.2356501
1.2466001
1.2219299
1.1656274
1.0930572
1.0266363
0.97486557
0.94290895
0.93613807
0.95028603
0.98766728
1.0408236
1.0874479
1.0968009
1.0759759
1.0438295
1.0455236
1.0979595
0.91364155
0.90961009
0.91902982
0.93712506
0.96532955
1.0074261
1.0637774
1.1334197
1.2107157
1.2793409
1.315675
1.3032456
1.2430336
1.1575259
1.0770817
1.0192697
0.99014682
0.98243969
0.98092663
0.98151466
0.9804268
0.98658887
1.0105848
1.050153
1.091532
1.1422355
1.1719949
0.91282786
0.91836096
0.9332294
0.95405839
0.98190755
1.0142819
1.051429
1.0912159
1.1338552
1.1708513
1.2043938
1.2257985
1.2223379
1.1945727
1.1548503
1.1151388
1.0832412
1.055499
1.024854
0.98236313
0.93782604
0.90938182
0.92534225
0.99437489
1.1186216
1.2386225
1.2351673
0.98569287
0.99695408
1.0102104
1.0232156
1.0336832
1.0420321
1.047313
1.0486315
1.0493131
1.0544101
1.0709819
1.0983366
1.1399717
1.1827353
1.2091523
1.2104336
1.1814236
1.1215461
1.0444373
0.9671707
0.90062956
0.86632064
0.88328541
0.96741577
1.1275613
1.2885263
1.2615174
1.0862056
1.0870136
1.0840232
1.0765531
1.0643649
1.0496789
1.0346303
1.0206241
1.0101735
1.009879
1.0237453
1.0510192
1.0965707
1.1578367
1.2183744
1.2456599
1.2168911
1.1366612
1.0388475
0.94833519
0.88562994
0.85924714
0.88224955
0.9732704
1.1301252
1.2802115
1.2478084
1.1107707
1.107254
1.0986168
1.086984
1.0727029
1.0562907
1.0398786
1.0280989
1.0227167
1.0269045
1.042692
1.0705269
1.1091689
1.1548546
1.1937533
1.2102179
1.1816387
1.111011
1.0214407
0.94479478
0.89312873
0.88357107
0.91554094
0.99949454
1.1136409
1.2209833
1.1972528
1.0905759
1.0878834
1.0828
1.0763378
1.0693347
1.0628077
1.0581846
1.0562412
1.0594128
1.0676197
1.0811797
1.0970394
1.1123158
1.1259464
1.1388751
1.1421867
1.1271823
1.0879123
1.0287078
0.96720399
0.92592744
0.92402696
0.95820383
1.0171088
1.0846151
1.1418545
1.1468209
1.0953517
1.0950035
1.0931006
1.0904369
1.0874645
1.0844204
1.0816002
1.0793419
1.0781148
1.0773645
1.0767844
1.0755239
1.0715457
1.0679544
1.0737243
1.0797234
1.08774
1.08342
1.0580066
1.0162711
0.98066344
0.96935829
0.9832261
1.0126119
1.0450494
1.0810335
1.1164641
1.1368812
1.1369353
1.1346744
1.1298891
1.1228293
1.1135236
1.1017614
1.0878409
1.0725812
1.0567015
1.0417832
1.0281088
1.01641
1.00975
1.0150684
1.0344998
1.0654112
1.0928898
1.1020149
1.0817759
1.0381887
1.0011647
0.99029555
0.9936994
1.0119852
1.0498977
1.0982669
1.189159
1.1870253
1.1797334
1.1674728
1.1504567
1.129631
1.1063139
1.0819692
1.0574794
1.0328719
1.0101114
0.99078758
0.97626483
0.96992685
0.97325805
1.0032496
1.0498564
1.1063648
1.1469429
1.1429715
1.0879696
1.0223981
0.9820403
0.97851472
0.99564748
1.0327831
1.0786964
1.2234561
1.2206676
1.2092112
1.1919903
1.1696504
1.1430679
1.1132233
1.0823338
1.0500889
1.0199373
0.99269425
0.96891735
0.95155121
0.9422741
0.94645108
0.97318545
1.0369875
1.1105769
1.1781396
1.1921624
1.1314417
1.0389138
0.97768253
0.96574497
0.9847271
1.0187935
1.0554387
1.2611951
1.256732
1.2413435
1.2184436
1.1922168
1.1610513
1.1242958
1.0858756
1.046981
1.0093046
0.97566349
0.9451989
0.9256497
0.91494692
0.91990981
0.94732038
1.0154802
1.1132621
1.2023633
1.2340251
1.1697993
1.0570752
0.97459732
0.95084332
0.96761064
0.99831127
1.0321094
1.3253688
1.3171112
1.2960637
1.2665761
1.2261619
1.1782766
1.1292525
1.0759428
1.0272107
0.98315558
0.94263483
0.90831834
0.88812708
0.88223717
0.89288791
0.92633243
1.004055
1.1237708
1.2339276
1.2777882
1.2027095
1.0682886
0.96499402
0.9288875
0.93679609
0.96522494
1.0116994
1.4600432
1.4359743
1.3882701
1.3304472
1.2612853
1.1872113
1.1086645
1.0367394
0.97591015
0.92390484
0.87743451
0.84400324
0.8321735
0.83748865
0.85668257
0.90916763
1.0111163
1.1618273
1.2948523
1.3336848
1.2247936
1.0609839
0.93963793
0.89102097
0.88390149
0.90792245
0.97715727
1.6734266
1.614505
1.5153045
1.4010112
1.2734175
1.1434143
1.0297358
0.93794005
0.87344661
0.82520095
0.79035591
0.76961782
0.76978919
0.78620338
0.81817765
0.89938132
1.0619179
1.2549857
1.4043096
1.401329
1.230098
1.030638
0.90139889
0.84203437
0.82152717
0.83754503
0.91408064
1.9539895
1.8193112
1.6152253
1.3987319
1.1964191
1.0281136
0.90618292
0.81775024
0.76153019
0.72389371
0.70313026
0.69084167
0.70075476
0.7279647
0.79464935
0.93693706
1.1581353
1.4000374
1.5517666
1.4596141
1.2142535
0.9967219
0.86145332
0.7901039
0.75971476
0.77285781
0.84559406
2.0626019
1.8799469
1.6093235
1.3397513
1.1137719
0.93816166
0.81935857
0.74327104
0.68805833
0.65233843
0.63469823
0.63613631
0.64617831
0.68596116
0.78785796
0.97610622
1.2333926
1.5029201
1.6199103
1.4654481
1.1949634
0.98525688
0.84536409
0.76481196
0.72824634
0.73344931
0.80477651
1.8097423
1.6848302
1.4875498
1.2831751
1.1010138
0.9500494
0.82481623
0.73559026
0.66747233
0.62263771
0.59853993
0.60558774
0.6327648
0.71304211
0.85031802
1.0449139
1.2723384
1.4609172
1.4811725
1.3454336
1.1572561
1.0028267
0.86884472
0.78155369
0.74447803
0.74165417
0.82472728
1.2947175
1.2892887
1.2667981
1.2136367
1.1356394
1.0357396
0.91472563
0.80891798
0.7257699
0.66699837
0.63406516
0.6380397
0.70377302
0.82818585
0.98326826
1.1235118
1.2367008
1.2668138
1.2194283
1.1631082
1.1014723
1.0243447
0.92942053
0.85287814
0.81955235
0.82380564
0.89232493
0.86502255
0.90504932
0.97131312
1.0386485
1.0799228
1.0775975
1.0388047
0.96123968
0.880771
0.80693439
0.76424243
0.770935
0.87957092
1.0182659
1.1172291
1.1513007
1.1087442
1.0199771
0.97249917
0.9900342
1.0308149
1.0401396
1.0126265
0.97170354
0.96003856
0.93849235
0.94237009
0.68433276
0.71037574
0.76139404
0.83395568
0.91539353
0.98074577
1.0220645
1.0534245
1.0463624
1.033942
1.0335531
1.0867877
1.1594536
1.1910736
1.1454344
1.0355108
0.90261431
0.80954728
0.79393375
0.84882608
0.94860221
1.046251
1.1115088
1.1436597
1.147346
1.0476662
0.95055361
0.64587269
0.659568
0.68890396
0.7295222
0.7839259
0.85685731
0.95153081
1.0501707
1.1608229
1.2736027
1.3870824
1.44051
1.3417382
1.1843476
0.99568055
0.83284133
0.72609424
0.6872262
0.6941596
0.75188386
0.8677487
1.0408321
1.2271777
1.3533996
1.3334547
1.1289566
0.92759972
0.66159653
0.66823972
0.68227501
0.70934605
0.75385934
0.82673284
0.92789815
1.0684692
1.2507991
1.4569261
1.6013126
1.5436218
1.3118248
1.0599298
0.85584307
0.73068107
0.664878
0.64328169
0.65748628
0.70631266
0.83337281
1.0477105
1.3258315
1.515996
1.4132623
1.1226578
0.88649248
0.70635499
0.71136698
0.72426781
0.75054906
0.79237489
0.85710992
0.95694102
1.1058582
1.295818
1.4887296
1.566425
1.449316
1.2074426
0.98143027
0.82652865
0.729779
0.67797972
0.65315335
0.66543839
0.72873948
0.86413974
1.0941744
1.3834397
1.5303468
1.3464184
1.0452682
0.83268592
0.76269005
0.76898255
0.78542553
0.81401995
0.85700889
0.91811242
1.0072018
1.1217628
1.2541725
1.3667167
1.3868129
1.292763
1.1236093
0.97126216
0.8585996
0.7765185
0.72568782
0.70715014
0.72805607
0.80940537
0.95784087
1.1577757
1.3592235
1.3909303
1.2070082
0.97556968
0.79958623
0.85008065
0.85629781
0.87217445
0.89847336
0.93434915
0.9813821
1.0328892
1.0888614
1.139914
1.1716016
1.1701653
1.1320604
1.0616759
0.98126597
0.90819279
0.84477215
0.802017
0.79470998
0.84302383
0.94037647
1.0570068
1.163529
1.2234527
1.1870106
1.0845606
0.95352927
0.81774877
0.97299822
0.97517298
0.98262558
0.99437428
1.0070746
1.0174254
1.0214389
1.0187549
1.0090998
0.99748878
0.98609392
0.98089897
0.97597775
0.96239025
0.93933438
0.91788371
0.91225261
0.93722413
1.0005127
1.0654343
1.091572
1.0782063
1.0402007
1.0161662
0.99230614
0.95088574
0.86636487
1.1122399
1.1025882
1.0894914
1.0703685
1.0440031
1.0112626
0.97472362
0.93879092
0.90652108
0.88038474
0.86733135
0.86706028
0.88141774
0.91289892
0.94997667
0.9996105
1.0611269
1.1198484
1.1472076
1.1217142
1.0473341
0.95758499
0.8976465
0.88965504
0.91852598
0.93735422
0.91873059
1.1416279
1.1315626
1.1042119
1.0678453
1.0272954
0.98441428
0.94145846
0.90064312
0.86508834
0.8373121
0.82005906
0.82179171
0.84786342
0.90441751
0.99498396