/*--------------------------------*- C++ -*----------------------------------*\
| =========                 |                                                 |
| \\      /  F ield         | OpenFOAM: The Open Source CFD Toolbox           |
|  \\    /   O peration     | Version:  2406                                  |
|   \\  /    A nd           | Website:  www.openfoam.com                      |
|    \\/     M anipulation  |                                                 |
\*---------------------------------------------------------------------------*/
FoamFile
{
    version     2.0;
    format      ascii;
    arch        "LSB;label=32;scalar=64";
    class       volScalarField;
    location    "10";
    object      p_0;
}
// * * * * * * * * * * * * * * * * * * * * * * * * * * * * * * * * * * * * * //

dimensions      [1 -1 -2 0 0 0 0];

internalField   nonuniform List<scalar> 
30397
(
1.0039037
1.0046376
1.0049232
1.0049394
1.0047737
1.0038771
1.0017897
1.0000091
1.0010968
1.0033146
1.0040037
1.0039456
1.0042823
1.004376
1.0039216
1.0031768
1.0011845
0.99830425
0.99719147
0.99834506
0.99923008
0.99996419
1.0006861
1.0008907
1.0003052
0.99947503
0.99932261
0.99997748
1.0005161
1.0009577
1.0014792
1.0021862
1.0030268
1.0038073
1.0043659
1.0047237
1.0050465
1.0054853
1.0061065
1.0068754
1.0076792
1.0083551
1.0087624
1.0088602
1.0086994
1.0083607
1.0078879
1.0073112
1.0086615
1.008859
1.0090376
1.0085333
1.0058388
1.0008146
0.99747037
0.99889264
1.0045169
1.0091329
1.0104992
1.0095105
1.0073597
1.0053245
1.0030864
0.99880642
0.99452628
0.99318594
0.99427892
0.99613158
0.9989168
1.0018324
1.0026444
1.0021309
1.0011765
1.0006268
1.0008594
1.001044
1.0017294
1.0031884
1.0054212
1.0077168
1.0094447
1.0104769
1.0112035
1.0120779
1.0132583
1.0146394
1.0159829
1.0169852
1.0173406
1.0168938
1.0157617
1.01418
1.0123362
1.0103407
1.0075282
1.008651
1.0078848
1.0077699
1.0076996
1.0045316
0.9976862
0.99308317
0.99430556
1.0009087
1.0086054
1.0113686
1.0094814
1.0065931
1.0031868
0.99934666
0.99394809
0.98857006
0.98788361
0.99092636
0.99486351
0.99868547
1.0023851
1.0036048
1.0034396
1.00199
1.0009027
1.0005351
1.0005895
1.0017237
1.0039229
1.0071458
1.010561
1.0133533
1.0150932
1.0161221
1.0169996
1.0177791
1.0180038
1.017287
1.0156406
1.0133825
1.0109418
1.0085875
1.0064202
1.0044972
1.0028088
1.0077578
1.0080214
1.0057854
1.0046163
1.0040762
1.0011931
0.99536375
0.99120521
0.99143237
0.9971216
1.0047236
1.007863
1.0074948
1.0055838
0.99964443
0.99425837
0.99013435
0.98656512
0.9884169
0.99226854
0.99517749
0.99730386
0.99989383
1.0016829
1.0025153
1.0032819
1.0048885
1.005848
1.0064609
1.0078185
1.0098323
1.0123634
1.0148442
1.0162627
1.0158638
1.014162
1.012226
1.0103583
1.0083075
1.0059339
1.0034881
1.0013941
0.99996638
0.99923208
0.99896696
0.99879879
0.99839975
1.0080999
1.0075114
1.0046476
1.0027235
1.0014769
0.99878915
0.99411833
0.9906979
0.99047653
0.99458748
1.0004734
1.0050084
1.0073624
1.0036449
0.99541947
0.99103757
0.98949639
0.98800335
0.99027069
0.992866
0.99532478
0.99793183
1.0001065
1.0028813
1.0055457
1.0086917
1.0106766
1.0112428
1.0113225
1.0111851
1.0114221
1.0122515
1.0123843
1.0108676
1.0079195
1.0046677
1.0019868
0.99993406
0.99838345
0.99736131
0.99697605
0.99721672
0.99785572
0.99848992
0.99873108
0.99838317
0.99746065
1.008398
1.0078355
1.0050877
1.0030804
1.0015252
0.99976266
0.99609959
0.99203038
0.99080271
0.99315446
0.99810198
1.0047803
1.0061825
1.000029
0.99348269
0.99168861
0.99088217
0.99094276
0.99364932
0.99529766
0.99786581
1.0008437
1.0026896
1.0074354
1.0123168
1.0153305
1.0148104
1.0132961
1.0124604
1.0117831
1.0115432
1.010524
1.0074119
1.0028306
0.9980758
0.99441317
0.99241012
0.99198991
0.99273282
0.99406449
0.99542588
0.9964002
0.99675679
0.99641691
0.99551409
0.99429539
0.99312148
1.0086428
1.0086367
1.0065376
1.0049034
1.002974
1.001283
0.99884364
0.99498759
0.99219437
0.99282834
0.99729342
1.0024786
1.0024404
0.99737275
0.99259174
0.99169695
0.99234223
0.99449488
0.99765357
1.0005388
1.0047495
1.0066031
1.0093545
1.0154399
1.0190522
1.0186465
1.0146742
1.0118608
1.0103095
1.0086077
1.0063265
1.0021021
0.99658621
0.99179254
0.98930145
0.98949366
0.9913598
0.99366526
0.99561148
0.99678036
0.99706062
0.99650037
0.99533695
0.99396069
0.99282703
0.99230929
0.99256628
1.0091403
1.0093428
1.0078921
1.0059563
1.0037727
1.0023533
1.0011391
0.99857884
0.99522873
0.99408975
0.99615298
0.99787471
0.99786526
0.99468357
0.99011923
0.99050317
0.99428091
0.99840473
1.0017525
1.0064676
1.0130119
1.0160142
1.0192707
1.0236136
1.0209436
1.016192
1.011717
1.0088608
1.0054263
1.002043
0.99865378
0.99425489
0.99053889
0.9893849
0.9909467
0.99370236
0.99611039
0.99747216
0.99764522
0.99690207
0.99566881
0.99442604
0.99345284
0.99285167
0.99264621
0.99284693
0.99337573
1.0098017
1.00878
1.0080267
1.0068812
1.0035766
1.0013295
1.0015415
1.0015174
0.99833449
0.99463435
0.99293194
0.99246604
0.99295669
0.98932154
0.98703558
0.98919115
0.99492564
1.000926
1.0055424
1.0121481
1.0211381
1.0265228
1.0284087
1.0260131
1.0194293
1.0155094
1.0106043
1.0036835
0.99706796
0.99358099
0.99156875
0.98941981
0.98897635
0.99085853
0.99350625
0.9954926
0.99645887
0.99643491
0.99552559
0.99412113
0.99278033
0.99181169
0.99115299
0.99071256
0.99051581
0.9905462
0.99072642
1.0099923
1.0079474
1.0061055
1.0054799
1.0030973
1.0001634
0.99974396
1.0015759
1.0003932
0.99527699
0.99035002
0.98816448
0.98633299
0.98257531
0.98323563
0.98731703
0.99373601
1.0004292
1.0066829
1.0169321
1.0290407
1.0336681
1.0302746
1.0238118
1.0178249
1.0128232
1.0040067
0.99443805
0.98802672
0.98635448
0.98715992
0.98808747
0.98970311
0.99167757
0.99313966
0.99398763
0.99437684
0.99420754
0.99345722
0.99247983
0.991652
0.99105335
0.99064244
0.99039482
0.99034262
0.9905105
0.99083722
1.0086376
1.0062589
1.0047284
1.0041476
1.001877
0.99877394
0.99764512
1.0005081
1.0017946
0.9972812
0.99081694
0.98632843
0.98152139
0.97898548
0.98089256
0.98561801
0.99311982
1.0009261
1.0094409
1.0231948
1.0341558
1.0334308
1.0271914
1.02193
1.0166618
1.0081299
0.99577779
0.98661861
0.98260059
0.98388782
0.98765506
0.98984874
0.9900575
0.9895637
0.98907038
0.98897127
0.98943049
0.99003495
0.99022478
0.98986514
0.98928386
0.98881139
0.98864284
0.98885158
0.98936403
0.990036
0.99074231
1.006775
1.0028482
1.0024238
1.0036227
1.0015123
0.99806467
0.99682234
1.0005857
1.0041265
1.0011313
0.99427099
0.98712119
0.98051146
0.97922267
0.98053144
0.98475392
0.9933502
1.0037555
1.0140861
1.0269854
1.0327292
1.0291295
1.0244496
1.0209286
1.0137207
1.0019546
0.98981363
0.98375491
0.98362062
0.98694274
0.98932831
0.98837788
0.98566592
0.983539
0.983093
0.9845141
0.98691064
0.9885904
0.98861764
0.98759859
0.98663742
0.98655601
0.98744197
0.98895738
0.99064227
0.99218374
0.99347362
1.00541
1.0008466
1.0000688
1.0030449
1.0027448
0.99936693
0.99736085
1.0004874
1.004643
1.0036445
0.99803896
0.98937448
0.98225321
0.98111176
0.98166395
0.98580578
0.99518104
1.0058361
1.0145081
1.0240277
1.0278352
1.0265826
1.0236016
1.0173458
1.0056413
0.99433045
0.98629688
0.98422556
0.98575216
0.98661344
0.98493631
0.98162735
0.9787409
0.97819642
0.98044601
0.9843794
0.98788159
0.98935364
0.98897345
0.98809744
0.98809997
0.98945873
0.99186494
0.99465464
0.99721697
0.999221
1.0007257
1.0051019
1.0000931
0.99973501
1.0032093
1.0040182
1.0015107
0.99878887
0.99994488
1.0034253
1.0044422
1.00096
0.99241392
0.98561509
0.98392575
0.98380535
0.98804223
0.99663689
1.0043023
1.0117701
1.0219735
1.026315
1.0250314
1.0198434
1.0088664
0.99517861
0.9873541
0.98489445
0.98548593
0.98505941
0.98254259
0.97909476
0.97671629
0.97659533
0.97878244
0.98286469
0.98728821
0.98996233
0.99009254
0.98880771
0.98801017
0.98873934
0.99091972
0.99394023
0.99699786
0.99949124
1.001174
1.002144
1.0043988
0.99972371
1.0008485
1.0044915
1.0048276
1.0024173
0.99952109
0.99923461
1.0016366
1.0036135
1.0022673
0.99598445
0.99087763
0.98817777
0.98630289
0.98922945
0.99529539
1.001506
1.0119488
1.0240508
1.0266835
1.0221252
1.0131804
0.99956674
0.98888243
0.98581505
0.98645388
0.98528274
0.98204206
0.97920737
0.97740633
0.97726701
0.97871328
0.9813953
0.9852366
0.98865693
0.98965568
0.98822359
0.98633811
0.98580198
0.98728358
0.99036864
0.99402566
0.99718308
0.99911378
0.99970533
0.99934847
1.003259
0.99887586
1.0011979
1.0054322
1.005602
1.0024856
0.99905294
0.99797024
0.99978418
1.0022267
1.0024862
0.99885061
0.99620843
0.992984
0.9889551
0.9896195
0.99408736
1.0013786
1.0146692
1.0250912
1.0252032
1.0181704
1.0061998
0.99367843
0.98831148
0.98849355
0.98800257
0.98379942
0.97958482
0.97776397
0.97742754
0.97805579
0.97970206
0.98241332
0.98535317
0.9867546
0.98605596
0.98456573
0.98388569
0.98494919
0.98758678
0.99101512
0.99409545
0.99581558
0.99588943
0.99473812
0.99311916
1.0027145
0.99768491
0.99999475
1.0052495
1.0064818
1.0027623
0.99857905
0.99660332
0.99764863
0.99994055
1.0015196
1.0008358
1.0001905
0.99626607
0.99067145
0.99065965
0.99507054
1.0030808
1.0150259
1.0224712
1.0218684
1.0138294
1.0026857
0.99305337
0.98963436
0.98790665
0.98422295
0.97974825
0.97702622
0.97670137
0.97784476
0.97937371
0.98142654
0.98405615
0.98597378
0.98616419
0.98535804
0.98494825
0.98547096
0.98671237
0.98833644
0.98990271
0.99095635
0.99116721
0.99057049
0.98966854
0.98917157
1.0021918
0.99687253
0.9988874
1.0041312
1.0065516
1.0030679
0.9980745
0.99509774
0.99508109
0.99688805
0.99950861
1.0018134
1.0026164
0.99828592
0.99321178
0.99396288
0.99780092
1.0041767
1.0133127
1.0198043
1.0188777
1.0102809
1.0016362
0.99331088
0.9885117
0.98346491
0.97881828
0.97713872
0.97704537
0.97816875
0.98021142
0.98187699
0.98344217
0.98507733
0.98616924
0.98609266
0.98528793
0.98462458
0.98437961
0.98450737
0.98501142
0.98592922
0.98712168
0.9883778
0.98969454
0.9912062
0.99319536
1.0010639
0.99496103
0.9974012
1.0031552
1.0067058
1.0033533
0.9974385
0.99345491
0.99263213
0.99452382
0.99821439
1.0028203
1.003938
0.99963172
0.99651618
0.99789511
1.0000518
1.0041573
1.0129178
1.0201341
1.0168008
1.0067212
0.99876088
0.99070039
0.98533733
0.98055286
0.97834588
0.98022014
0.98172521
0.98292083
0.98394085
0.98386706
0.98355278
0.98411668
0.98483186
0.98419237
0.98242536
0.98077549
0.98011134
0.98055104
0.98211051
0.98470284
0.98789208
0.99122495
0.99438612
0.99731775
0.99988001
0.99986431
0.9925241
0.99524171
1.0030206
1.0080376
1.0044517
0.99711924
0.99184087
0.99057824
0.99318704
0.99805385
1.0036914
1.0045191
1.0005419
0.99950822
1.0008942
1.001463
1.0051044
1.0151019
1.0213834
1.0136083
1.0011066
0.99332924
0.98657657
0.98336219
0.9819295
0.98327698
0.9869531
0.98815417
0.98687239
0.98431368
0.98192551
0.98095952
0.98157753
0.98239157
0.9817078
0.97995735
0.97898064
0.97999292
0.98283727
0.98679674
0.99121083
0.99563719
0.99954945
1.0024483
1.0040025
1.0042204
0.99896421
0.99091379
0.99352983
1.0025835
1.0095871
1.0063607
0.99753376
0.99093186
0.98959665
0.99304936
0.99877181
1.0042749
1.0047586
1.0014643
1.0011462
1.0022998
1.0029551
1.0083709
1.0181128
1.0205227
1.0078084
0.99492005
0.98902912
0.98531687
0.98502082
0.98584373
0.98884821
0.99226449
0.99056073
0.98486317
0.97951544
0.97731293
0.97777376
0.97971569
0.98183085
0.98258822
0.98246981
0.98337527
0.98640784
0.99109252
0.99629801
1.0009154
1.0041079
1.0055133
1.0052535
1.0036587
1.0011068
0.99838364
0.99010203
0.99277304
1.001884
1.0104805
1.008421
0.99847554
0.99091097
0.98971163
0.99365396
0.99956999
1.0042236
1.0042684
1.0014501
1.0008809
1.0024132
1.0056645
1.0131817
1.0198399
1.0169666
1.0012703
0.99138536
0.98965245
0.98835223
0.98800144
0.98899809
0.99215377
0.9929683
0.98753381
0.9796971
0.97477234
0.97480168
0.97794912
0.98230846
0.98603099
0.98793383
0.98896237
0.99119158
0.99550348
1.0008296
1.0052104
1.0072071
1.0065555
1.0039393
1.0003809
0.99666575
0.99299694
0.99799026
0.98976762
0.99242027
1.0015275
1.0106134
1.0099011
0.99946443
0.99169474
0.99053666
0.99447266
0.99967881
1.0032054
1.0029861
1.0004434
0.99973674
1.002949
1.0098255
1.0171675
1.0193752
1.0125241
0.99709621
0.99254333
0.99407911
0.99237205
0.99023973
0.99063027
0.99274749
0.99019019
0.98299968
0.97633103
0.97431559
0.97747869
0.98309579
0.98853544
0.99222601
0.99399451
0.99544148
0.99814499
1.0020892
1.005666
1.0070302
1.0053768
1.0012736
0.99613418
0.9911895
0.98707994
0.9839065
0.99796347
0.98944467
0.99149961
1.0007259
1.0102131
1.0105211
1.0003954
0.99288284
0.9915997
0.99492173
0.99888898
1.0015521
1.001457
0.99900951
0.99909315
1.0045675
1.0136447
1.0183794
1.0172797
1.0088441
0.99683523
0.99658494
0.99776281
0.99377817
0.99095315
0.99153782
0.99215354
0.98687605
0.97988878
0.97659992
0.97801092
0.98290538
0.98919268
0.994305
0.99682332
0.99786937
0.99938553
1.0018985
1.0042212
1.0048967
1.0031142
0.99884418
0.99296272
0.98711052
0.9827533
0.98041536
0.9797634
0.99809554
0.9889579
0.99007724
0.99930491
1.0094049
1.0104971
1.0013966
0.99409801
0.9925389
0.99516031
0.9978415
1.0001663
1.0001864
0.99776956
0.99920023
1.0065497
1.0154262
1.017097
1.0145104
1.0069533
0.99952088
1.0003762
0.99801079
0.99330771
0.9919613
0.99274225
0.99166393
0.98480053
0.97957214
0.97949871
0.98238429
0.98742939
0.99309043
0.99695313
0.99856767
1.0000014
1.0022188
1.0040465
1.004022
1.0018551
0.99759769
0.99176461
0.98578787
0.98139017
0.97958002
0.98023201
0.98252551
0.99823756
0.98854556
0.98904858
0.99766431
1.0080365
1.0101773
1.0025726
0.99545629
0.99374684
0.99563469
0.99720333
0.99903783
0.9988399
0.99683156
0.99962449
1.0079209
1.0146572
1.0148015
1.0121731
1.0068617
1.0028212
1.0017735
0.9973143
0.99464622
0.99417327
0.99363894
0.99145823
0.98443923
0.98128578
0.98236399
0.9852236
0.98982785
0.99484121
0.99865799
1.0010357
1.0031933
1.0048594
1.0046515
1.0021268
0.99782895
0.99248008
0.98706051
0.98291687
0.98111021
0.98183469
0.98446689
0.98809419
0.99838316
0.98842455
0.98854553
0.9960242
1.006057
1.0094761
1.0040581
0.9971667
0.99553865
0.99676076
0.99713953
0.99784809
0.99723278
0.99622476
1.0003109
1.0081721
1.0126717
1.012622
1.010787
1.0072481
1.0041972
1.0017668
0.99903248
0.99848136
0.9962103
0.99334811
0.9907554
0.98438343
0.98292454
0.98461927
0.98769828
0.99268838
0.99836165
1.0029837
1.0051376
1.0053801
1.0042522
1.001792
0.99800608
0.99340219
0.98884512
0.98518534
0.98324351
0.9833804
0.9854557
0.98906097
0.99322255
0.99890378
0.98876575
0.98806061
0.99421861
1.0036206
1.0084142
1.005478
0.99929244
0.99767031
0.99854112
0.99769445
0.99646283
0.99565235
0.99598192
1.0009327
1.0075105
1.0105723
1.0111631
1.00938
1.0060918
1.0032391
1.0021572
1.0034144
1.0027629
0.99642557
0.99156287
0.98895237
0.98413424
0.98492888
0.98789228
0.99217115
0.9983687
1.004591
1.0080657
1.0070754
1.0035657
1.0000533
0.99695751
0.99357039
0.99007667
0.98710328
0.98530432
0.98500068
0.9864433
0.98958131
0.99366272
0.99772066
0.99958452
0.98924998
0.98751105
0.99208837
1.0009711
1.0071102
1.0063334
1.0012784
0.99951614
1.0005104
0.99861763
0.99515266
0.99430005
0.99585656
1.0008862
1.0062108
1.009208
1.0099415
1.0067551
1.0031568
1.0015436
1.0038071
1.0083002
1.0047401
0.99434917
0.98875677
0.98706626
0.98497992
0.98813567
0.99248221
0.99824497
1.0050661
1.0097797
1.0095596
1.0045664
0.99869504
0.99475842
0.99249598
0.99080173
0.98915528
0.98790997
0.98759516
0.98865659
0.99109505
0.9943907
0.99792268
1.0010874
0.99989597
0.98960278
0.98711793
0.99001355
0.99848131
1.0055527
1.0064686
1.002686
1.0008793
1.0021064
0.99964396
0.99423546
0.99297442
0.99539507
1.0001127
1.0050251
1.0087728
1.0081631
1.0032237
1.0000702
1.0009083
1.0061709
1.0103494
1.0027822
0.99058819
0.9860411
0.98640407
0.98767053
0.99264349
0.99794168
1.004111
1.0092564
1.010165
1.0062479
0.9994479
0.99340355
0.99078289
0.99095475
0.9916924
0.99178707
0.9917581
0.99241137
0.99390475
0.99600361
0.99843559
1.0009242
1.003048
1.0000417
0.98993726
0.98711904
0.98853953
0.9963676
1.0037915
1.0059575
1.0034959
1.0022371
1.0034809
1.0005372
0.99363155
0.99172592
0.9944976
0.99914771
1.0046237
1.0083985
1.0056169
0.999822
0.99826818
1.0019069
1.0075453
1.0081043
0.99794243
0.98639835
0.98428223
0.98777518
0.99226984
0.99809621
1.0030744
1.0072683
1.008593
1.0061538
1.0008998
0.99448257
0.9903905
0.99073708
0.99361263
0.99601924
0.99700756
0.99725076
0.99754832
0.99822224
0.99935239
1.0009406
1.0026202
1.0039441
1.0005077
0.99052642
0.98742727
0.98773769
0.99448972
1.0019572
1.0050198
1.0038833
1.0035847
1.0046635
1.0012194
0.99340925
0.99089883
0.99333841
0.99831479
1.0049125
1.0071882
1.0023255
0.99723859
0.99821247
1.003826
1.0066515
1.0028938
0.99203437
0.98305089
0.98430142
0.99125686
0.99805671
1.0033046
1.0059252
1.006513
1.0047064
1.0010229
0.99620805
0.99189404
0.99106583
0.99419475
0.99856759
1.0015422
1.0023129
1.0015669
1.000564
1.0002192
1.0008098
1.0019736
1.003033
1.003538
1.0011697
0.99148925
0.9879078
0.98738659
0.99268699
1.0001919
1.0038577
1.0039476
1.0042626
1.0055749
1.0018266
0.99364371
0.99061205
0.9922954
0.99789226
1.0051633
1.0049888
0.99884648
0.99584782
0.9996511
1.0055066
1.0037978
0.99687005
0.98659697
0.98157338
0.9864348
0.99600081
1.003483
1.0062944
1.0055143
1.0033802
1.0004066
0.99699467
0.99389629
0.99231474
0.99409135
0.99874443
1.0036686
1.006093
1.0054807
1.0032068
1.0010711
1.0001867
1.0005329
1.001361
1.0019039
1.0019133
1.0017086
0.99247051
0.98849458
0.98729175
0.99113297
0.99855658
1.0025614
1.0035759
1.0041702
1.0062216
1.0022721
0.99409734
0.99069798
0.99174285
0.99790191
1.0048872
1.0022572
0.99619632
0.99564854
1.0017167
1.0060144
0.99989803
0.99143646
0.98312877
0.9823902
0.98998096
1.000764
1.0065194
1.0060871
1.0030016
0.9999289
0.9973651
0.99551904
0.99422927
0.99445011
0.99771
1.0031278
1.0074365
1.0083653
1.0061371
1.00259
0.99975385
0.99856976
0.99876266
0.99951308
1.0001377
1.0005091
1.0019296
0.99305347
0.98925749
0.98753328
0.9901334
0.99706887
1.0012886
1.0027026
1.0039774
1.0066479
1.0025161
0.99451119
0.99103848
0.99176458
0.99812013
1.0039351
0.9996074
0.99497858
0.9964421
1.0034859
1.004583
0.99562622
0.98765557
0.98235212
0.98484534
0.99393942
1.0038357
1.0064581
1.0038471
1.0000571
0.99734836
0.99649389
0.99634666
0.99619836
0.99737005
1.0012651
1.0062637
1.0092526
1.0086403
1.0051287
1.0007708
0.99752058
0.99619699
0.99657117
0.99787586
0.99939678
1.0007961
1.0018748
0.99324579
0.9902164
0.98820228
0.98972756
0.99579414
1.0000997
1.0018122
1.0041343
1.0069833
1.0026962
0.99486366
0.99163156
0.99226621
0.99836297
1.0024371
0.99739486
0.99489545
0.99787474
1.0039267
1.0015704
0.99164417
0.98577615
0.98379312
0.98791901
0.99700319
1.0044483
1.0045795
1.0013258
0.99752605
0.99618228
0.9973304
0.99845763
0.99885038
1.0003522
1.0038973
1.0077839
1.009371
1.0075824
1.0032967
0.99857461
0.99528718
0.99435754
0.99561204
0.99811467
1.00073
1.0028219
1.0017794
0.99340005
0.99126054
0.98917411
0.98964018
0.9948711
0.99900035
1.001347
1.0045413
1.007363
1.0029845
0.99526495
0.99230662
0.99309263
0.99858286
1.0004445
0.99566382
0.99543194
0.99939306
1.0029358
0.99787173
0.98853266
0.98544834
0.98608702
0.99066853
0.99838169
1.0033989
1.0028903
0.99951975
0.99580433
0.99593146
0.99858878
1.0004975
1.0013981
1.0027707
1.0053367
1.0079772
1.008502
1.0059909
1.0014318
0.99688097
0.99431881
0.9946401
0.99721726
1.0006343
1.0036049
1.0056209
1.0018098
0.99380862
0.99220369
0.99019673
0.98961911
0.99428882
0.99804449
1.0011701
1.0049089
1.0078763
1.0032959
0.99577292
0.99289661
0.99415219
0.99878756
0.99816613
0.99426576
0.99626324
1.0005166
1.0011338
0.9945239
0.98639035
0.98577886
0.98822746
0.99249691
0.99843072
1.0025021
1.0023891
0.99861192
0.99463933
0.99563553
0.99922049
1.0019403
1.0033975
1.0043114
1.0058735
1.0075634
1.0074064
1.0045598
1.0002356
0.99669114
0.99566332
0.99739603
1.0008103
1.0043359
1.0068747
1.0081807
1.0019079
0.9944794
0.99292939
0.99106486
0.9896169
0.99382405
0.9972752
1.0008269
1.0051232
1.0083136
1.0034334
0.99634827
0.9934209
0.99536102
0.99890184
0.99594035
0.99315955
0.9971603
1.0010332
0.9992168
0.99203832
0.9851457
0.98603738
0.98962452
0.99346271
0.99830098
1.0026559
1.0030643
0.99834313
0.99356159
0.99481962
0.99909182
1.0027776
1.0046015
1.0050805
1.0060172
1.0072179
1.0066723
1.0038729
1.0003656
0.99828759
0.99877754
1.0014203
1.0048929
1.00781
1.0094245
1.0098548
1.0019524
0.99517618
0.993451
0.99175381
0.98974798
0.99332354
0.99655792
1.0000424
1.0051648
1.0083874
1.0033535
0.99684049
0.99397914
0.99653575
0.99878217
0.99408821
0.99248658
0.99800468
1.000894
0.99758118
0.99064232
0.98461014
0.98588143
0.99033049
0.99395645
0.99863331
1.0038352
1.0043502
0.9981972
0.9923042
0.99360465
0.99862262
1.0031691
1.0051646
1.0053821
1.0061697
1.0072152
1.0066207
1.0041586
1.001618
1.000844
1.0023206
1.0052041
1.0081487
1.010105
1.0108335
1.0106498
1.0018399
0.99560827
0.99383168
0.99238071
0.99016088
0.99278189
0.99573052
0.99902953
1.0049836
1.0080441
1.0030511
0.9971557
0.99458037
0.99742208
0.99833782
0.99278485
0.99232772
0.9986546
1.0002102
0.99643218
0.99024101
0.98455403
0.98545827
0.99052772
0.99416382
0.99949743
1.0054282
1.0052833
0.99756351
0.9908499
0.99247483
0.99836319
1.0034948
1.0054673
1.0055988
1.0064804
1.0076115
1.0070374
1.0049145
1.0031518
1.0032537
1.0051616
1.0078101
1.0100257
1.0112039
1.0113771
1.0108951
1.0016131
0.99562448
0.9940908
0.99307881
0.99091944
0.99241662
0.9947697
0.9981171
1.0045501
1.0073409
1.0025129
0.99731219
0.99515279
0.99781331
0.99755156
0.99209459
0.99267307
0.99896008
0.99931261
0.99580485
0.99054456
0.98472157
0.98502593
0.99037858
0.99428752
1.0005962
1.0066451
1.0051035
0.99624153
0.989512
0.99199132
0.99883691
1.0041007
1.0057609
1.0058536
1.006857
1.0079597
1.0073571
1.0054992
1.0043237
1.0049384
1.0069377
1.0091717
1.0107819
1.0114854
1.0114117
1.0108016
1.0014306
0.9953536
0.99421206
0.99391663
0.9920614
0.99247468
0.99383808
0.99742465
1.0039145
1.006351
1.0017846
0.99732201
0.99570915
0.99778734
0.99648533
0.99191346
0.9934855
0.99886998
0.99858454
0.99569307
0.99104591
0.98494829
0.98473758
0.99026602
0.99455939
1.0016486
1.0068442
1.0036967
0.9943003
0.9885758
0.99242902
0.99996072
1.0049488
1.0062125
1.0062126
1.0070816
1.0079349
1.0072586
1.0056973
1.0050491
1.0059847
1.007858
1.0096587
1.010845
1.0113113
1.0111191
1.0103965
1.0013785
0.99505126
0.99418966
0.99487804
0.99359067
0.99306703
0.99309886
0.99689885
1.003149
1.0051707
1.0009046
0.99714287
0.99628997
0.99762473
0.9953379
0.99209249
0.99458034
0.99854442
0.99820809
0.99602039
0.99128162
0.98502759
0.98471944
0.99062661
0.99522701
1.0024217
1.0059168
1.0011945
0.99206351
0.98815366
0.9935121
1.0013226
1.0059266
1.0069122
1.0067026
1.0071107
1.0075085
1.0068111
1.0056939
1.005565
1.0066766
1.0083178
1.0097301
1.010645
1.0109632
1.0106507
1.0097847
1.0014152
0.99488375
0.99404265
0.99591635
0.99543339
0.99408664
0.99266822
0.99641837
1.0023726
1.0038618
0.99991441
0.99675806
0.99694723
0.99759028
0.99427515
0.9923974
0.99566807
0.99822923
0.99826175
0.99648839
0.99100116
0.98482434
0.98516094
0.99180455
0.99638657
1.0027491
1.0041338
0.9980541
0.98994107
0.98810506
0.9946046
1.0025229
1.0069227
1.0077991
1.0072204
1.0068826
1.006792
1.0062479
1.0057414
1.0061276
1.0073141
1.0086651
1.0097701
1.0104794
1.0106415
1.0101656
1.0091301
1.0015029
0.99485205
0.99382035
0.99696705
0.99748647
0.99530637
0.99253952
0.99606227
1.0016412
1.0024866
0.99885271
0.99626229
0.99765705
0.99774905
0.99339114
0.99281238
0.99651055
0.99807885
0.99876627
0.99688323
0.99008493
0.98438353
0.98626636
0.99385405
0.99791517
1.0025774
1.0017299
0.9947997
0.98817903
0.98811442
0.99540586
1.0033754
1.0077657
1.0086314
1.0075313
1.0063778
1.0059721
1.0058465
1.0060835
1.0069338
1.0080889
1.0091779
1.0100657
1.010608
1.0105804
1.0098565
1.008592
1.001598
0.99491172
0.99355869
0.99795651
0.99961355
0.99652495
0.99272585
0.99585299
1.0009464
1.0011044
0.99775893
0.99577792
0.99838324
0.99799174
0.99263148
0.99329454
0.99708664
0.99816101
0.99963162
0.99701396
0.98873088
0.983885
0.98798882
0.9964256
0.99945935
1.0019138
0.99908566
0.99194824
0.98683648
0.98805676
0.99594287
1.0038376
1.0083442
1.0092059
1.0074873
1.0056405
1.005223
1.0057469
1.0067701
1.0079913
1.0090762
1.0099673
1.0106825
1.0110382
1.0107428
1.0097057
1.0081971
1.0017846
0.99518693
0.99290964
1.0000027
1.0042411
0.99913088
0.99374079
0.99546407
0.99940257
0.99871214
0.99577397
0.99499172
0.99950155
0.99867547
0.99177563
0.9938329
0.9972449
0.99863103
1.0014958
0.99751952
0.98712971
0.98333121
0.98995252
0.99951162
1.0009108
1.0003152
0.99648322
0.99023452
0.98599895
0.98692716
0.99409547
1.0021886
1.0077948
1.0094644
1.0074502
1.0048203
1.0042978
1.0056466
1.0075337
1.0091133
1.0101274
1.0108341
1.0114497
1.0117619
1.0114339
1.0103985
1.0088649
1.0023908
0.99509302
0.99116707
1.0001607
1.0090068
1.0038192
0.99486595
0.99586332
0.99850628
0.9969828
0.99286143
0.99338541
0.99891681
0.99859928
0.99321511
0.99447324
0.9953128
0.99979252
1.0042077
0.99832811
0.9866484
0.98262123
0.99004549
1.0007614
1.0019794
0.9982769
0.99429035
0.99070181
0.98798024
0.98717706
0.99140937
0.99778123
1.0039211
1.007335
1.0066159
1.0039294
1.0028919
1.0043151
1.0070136
1.0095455
1.0111446
1.0119238
1.0122771
1.0124261
1.0122205
1.0115126
1.0103327
1.0031846
0.99770985
0.99038744
0.99843123
1.0098873
1.0078384
0.99789143
0.99612889
0.99781657
0.99431655
0.99061957
0.99178596
0.99692536
0.995925
0.99397961
0.99514226
0.99364511
1.0017558
1.0062787
0.99849773
0.98763097
0.9844596
0.99043499
0.99965989
1.0008629
0.99506682
0.99089721
0.9907828
0.99105226
0.99018919
0.99159837
0.99522953
0.99982079
1.0036579
1.0044475
1.0025375
1.0011359
1.0021255
1.0050668
1.0085463
1.0111785
1.0125045
1.0127608
1.0124977
1.0120285
1.0114143
1.0106165
1.0036564
1.0009867
0.99131589
0.99692571
1.0088595
1.0119674
1.0042187
0.99834106
0.99735281
0.99300259
0.98923449
0.9909138
0.99445626
0.99278362
0.99261718
0.99413873
0.99359625
1.004527
1.0079357
0.99792962
0.98887047
0.98840227
0.99313129
0.99890297
0.99899773
0.99169466
0.9869881
0.98932193
0.99242557
0.99332438
0.99392598
0.99528153
0.99776376
1.000663
1.0021951
1.0013554
0.99988594
0.99992881
1.002182
1.005867
1.0094467
1.0117141
1.0123785
1.0119182
1.0110405
1.010194
1.0094842
1.0032124
1.0032961
0.99312998
0.99590015
1.0073297
1.0144971
1.0104528
1.0026078
0.9975724
0.99289158
0.9887767
0.99067413
0.99228029
0.99089177
0.99016903
0.9903468
0.99354802
1.0066597
1.0098297
0.99798259
0.98997701
0.99176253
0.99672535
0.99991439
0.99905244
0.99065756
0.984678
0.98743074
0.99154896
0.9940548
0.99573229
0.99646428
0.99768029
0.99960527
1.0013419
1.0015443
1.0004015
0.99949727
1.0001476
1.0026762
1.0062121
1.0092961
1.0108497
1.0108303
1.0099088
1.0088063
1.0079254
1.000495
1.0033727
0.99653868
0.99670732
1.0056997
1.0153154
1.015912
1.007904
0.99849092
0.99236457
0.98918207
0.99129582
0.99135519
0.99038924
0.98803159
0.98630063
0.99278728
1.006132
1.0103838
0.99927383
0.99185803
0.99366168
0.99860331
1.0004264
1.0001182
0.99236913
0.98546342
0.98698994
0.98988729
0.99236934
0.9953128
0.9966256
0.99778107
0.99970091
1.0018093
1.00313
1.0029267
1.0016758
1.0006506
1.0010772
1.0031847
1.0060197
1.0082844
1.0091943
1.0088917
1.0079809
1.0070115
0.99899066
1.0033261
0.99976042
0.99739927
1.0025284
1.0126895
1.0184858
1.0136162
1.0010395
0.99164529
0.98990656
0.99250812
0.99160286
0.99000079
0.98616302
0.984836
0.99351552
1.0042537
1.0088458
1.000746
0.99421645
0.99510073
0.99879409
0.99902073
0.99985933
0.9947835
0.98806319
0.98814262
0.98909076
0.99047124
0.99372632
0.99554774
0.99684961
0.99909473
1.0018989
1.0044676
1.0057445
1.0052748
1.003536
1.0020616
1.0021053
1.0036897
1.0057691
1.0073385
1.0079318
1.007661
1.0069596
0.99797089
1.0047504
1.0045057
0.99949597
0.99820225
1.0064397
1.0163545
1.0179424
1.0061204
0.9923108
0.99007561
0.99349587
0.99268364
0.98982351
0.98440487
0.98520238
0.99548983
1.0030495
1.0066874
1.0021065
0.99620741
0.99607802
0.99906438
0.99768177
0.99763559
0.99565017
0.99075378
0.98960572
0.98887954
0.9896394
0.99298003
0.99501999
0.99596204
0.99774631
1.0006204
1.0039353
1.0065932
1.0076047
1.0066473
1.0046063
1.0031534
1.0032314
1.0045621
1.0061686
1.0072852
1.0076478
1.0073801
0.99773567
1.0065759
1.0109682
1.0039629
0.99445389
0.99757887
1.010191
1.0181264
1.0115695
0.99605541
0.99067023
0.99420415
0.99414923
0.99038066
0.98362801
0.98603195
0.99761132
1.0030152
1.0050127
1.0042326
0.99777933
0.99585795
0.99899585
0.99808034
0.99622695
0.9949182
0.99206517
0.98982292
0.98824354
0.98957306
0.99378182
0.99653834
0.99722673
0.99774424
0.99947997
1.0023227
1.0052637
1.0072848
1.0076626
1.0064585
1.0048636
1.0041669
1.0047478
1.0060501
1.0072539
1.0078941
1.0079494
0.9963499
1.0043532
1.0144202
1.0102803
0.99521849
0.99077621
1.0022546
1.0140937
1.0138242
1.0014754
0.99360987
0.99538864
0.99578821
0.99142715
0.98459056
0.98734051
0.99945184
1.0044521
1.0043033
1.0055283
0.99881205
0.99482125
0.99815144
0.99951162
0.99731941
0.99498177
0.99247318
0.98873895
0.98681626
0.98916691
0.99460275
0.9988855
1.0004652
1.0003811
1.0006275
1.0020192
1.0039601
1.0058324
1.0070244
1.0069341
1.0059954
1.0052918
1.0054803
1.0064069
1.0074339
1.0080714
1.0082055
0.99612828
1.0018997
1.01587
1.0176517
1.0017604
0.98948398
0.99534724
1.0078705
1.0123004
1.0058193
0.99864431
0.99876808
0.99840223
0.99246052
0.98594055
0.98828899
0.9997742
1.0062848
1.0059888
1.0061215
0.99960834
0.99457539
0.99729682
1.0007897
1.0001828
0.99742168
0.9933609
0.98773845
0.98537167
0.98811836
0.99397117
0.99924342
1.0023533
1.0033763
1.0036207
1.0040228
1.0045319
1.0053205
1.0064327
1.0070589
1.0067801
1.0062182
1.0061376
1.006672
1.0074185
1.0079191
1.008016
0.99916218
1.0009044
1.01266
1.0195994
1.0096756
0.99324772
0.99142454
1.0013726
1.007504
1.0064637
1.0030754
1.0033314
1.0018034
0.99343273
0.98691646
0.98882873
0.99830725
1.0065665
1.0084207
1.0064218
0.99989123
0.99543605
0.99731505
1.0009197
1.0018038
1.000595
0.99576997
0.98834439
0.98500602
0.9871296
0.99215831
0.99688239
1.0006517
1.0031569
1.0047668
1.0057541
1.0060104
1.0060667
1.0068204
1.0077056
1.0078515
1.0072693
1.006741
1.0067455
1.0071547
1.0075611
1.0076774
1.0024645
1.001623
1.0081671
1.0162916
1.0150718
1.0009936
0.9912196
0.995528
1.0007939
1.0023547
1.0044405
1.006474