/*--------------------------------*- C++ -*----------------------------------*\
| =========                 |                                                 |
| \\      /  F ield         | OpenFOAM: The Open Source CFD Toolbox           |
|  \\    /   O peration     | Version:  2406                                  |
|   \\  /    A nd           | Website:  www.openfoam.com                      |
|    \\/     M anipulation  |                                                 |
\*---------------------------------------------------------------------------*/
FoamFile
{
    version     2.0;
    format      ascii;
    arch        "LSB;label=32;scalar=64";
    class       volScalarField;
    location    "10";
    object      p_0;
}
// * * * * * * * * * * * * * * * * * * * * * * * * * * * * * * * * * * * * * //

dimensions      [1 -1 -2 0 0 0 0];

internalField   nonuniform List<scalar> 
19701
(
1.0002326
1.0001858
1.0001963
1.0001725
1.0001729
1.0001605
1.0001571
1.0001501
1.0001459
1.0001412
1.0001372
1.0001336
1.0001301
1.000127
1.0001241
1.0001213
1.0001188
1.0001165
1.0001142
1.0001122
1.0001102
1.0001085
1.0001067
1.0001052
1.0001037
1.0001023
1.000101
1.0000998
1.0000987
1.0000976
1.0000966
1.0000957
1.0000948
1.000094
1.0000932
1.0000925
1.0000918
1.0000911
1.0000904
1.0000897
1.0000893
1.0000888
1.000088
1.0000871
1.0000861
1.0000855
1.0000848
1.0000842
1.0000837
1.0000831
1.0000824
1.0000816
1.0000811
1.0000807
1.0000804
1.0000803
1.0000803
1.0000805
1.0000809
1.0000814
1.000082
1.0000827
1.0000837
1.0000846
1.0000855
1.0000861
1.0000864
1.0000863
1.0000856
1.0000843
1.0000824
1.0000806
1.0000785
1.0000763
1.0000746
1.000074
1.0000747
1.0000769
1.00008
1.0000828
1.0000845
1.0000853
1.0000853
1.0000842
1.0000822
1.0000803
1.0000785
1.0000773
1.0000763
1.0000754
1.0000747
1.0000757
1.0000776
1.0000825
1.0000821
1.0000817
1.0000698
1.0000694
1.0000483
1.000249
1.0002346
1.0002352
1.0002201
1.0002178
1.0002056
1.0002005
1.0001918
1.0001852
1.0001781
1.0001723
1.0001662
1.0001604
1.0001555
1.0001506
1.0001457
1.0001416
1.0001377
1.0001339
1.0001303
1.000127
1.0001244
1.0001209
1.0001187
1.0001159
1.0001137
1.0001114
1.0001094
1.0001073
1.0001057
1.0001038
1.0001022
1.0001008
1.0000993
1.000098
1.0000966
1.0000954
1.0000942
1.0000932
1.0000921
1.0000908
1.0000895
1.0000881
1.0000867
1.0000855
1.0000842
1.0000829
1.0000817
1.0000805
1.0000794
1.0000785
1.0000772
1.0000763
1.0000758
1.0000757
1.0000759
1.0000765
1.0000775
1.0000788
1.0000803
1.0000821
1.0000842
1.0000864
1.0000884
1.0000898
1.0000905
1.0000902
1.0000886
1.0000854
1.0000807
1.0000755
1.0000706
1.0000654
1.0000613
1.0000595
1.0000605
1.000065
1.0000721
1.0000794
1.0000857
1.0000897
1.0000905
1.0000879
1.0000834
1.0000781
1.0000728
1.0000683
1.0000659
1.0000644
1.0000645
1.0000662
1.0000714
1.0000776
1.0000883
1.0000837
1.0000739
1.0000452
1.0000362
1.0000461
1.000186
1.0001855
1.0001864
1.000183
1.0001826
1.0001772
1.0001758
1.0001714
1.0001673
1.0001638
1.0001605
1.0001553
1.0001519
1.0001492
1.0001439
1.0001411
1.0001379
1.0001338
1.0001312
1.0001277
1.000125
1.0001223
1.000119
1.0001173
1.0001145
1.0001124
1.0001103
1.0001086
1.0001065
1.0001053
1.0001035
1.0001021
1.0001008
1.0000993
1.0000983
1.000097
1.0000959
1.0000947
1.0000936
1.0000925
1.0000913
1.0000901
1.0000887
1.0000874
1.0000862
1.0000847
1.0000833
1.0000818
1.0000804
1.0000791
1.000078
1.0000774
1.000077
1.000077
1.0000774
1.0000784
1.0000799
1.0000819
1.0000842
1.0000868
1.0000898
1.000093
1.000096
1.0000983
1.0000997
1.0000997
1.0000979
1.0000941
1.0000879
1.0000801
1.0000716
1.0000634
1.0000567
1.0000524
1.0000523
1.0000571
1.0000657
1.000076
1.0000869
1.0000959
1.0001006
1.0001002
1.0000952
1.0000881
1.0000801
1.0000725
1.000066
1.0000623
1.0000616
1.0000643
1.0000696
1.0000784
1.0000859
1.0000942
1.0000845
1.0000728
1.0000582
1.0000965
1.000094
1.0001387
1.0001405
1.0001412
1.0001414
1.0001428
1.0001411
1.0001421
1.0001407
1.0001394
1.0001387
1.0001374
1.000134
1.000133
1.0001319
1.0001275
1.0001272
1.0001244
1.0001218
1.0001202
1.0001173
1.0001163
1.0001131
1.0001119
1.0001099
1.0001085
1.0001066
1.0001055
1.0001042
1.0001028
1.0001021
1.000101
1.0001002
1.0000996
1.0000986
1.0000982
1.0000974
1.0000967
1.000096
1.0000951
1.0000942
1.0000932
1.0000921
1.0000909
1.0000896
1.000088
1.0000863
1.0000846
1.0000828
1.0000812
1.0000798
1.0000788
1.0000785
1.0000785
1.000079
1.0000802
1.0000821
1.0000846
1.0000875
1.0000908
1.0000945
1.0000987
1.0001027
1.000106
1.0001084
1.0001091
1.000108
1.0001046
1.0000986
1.0000903
1.0000804
1.0000695
1.0000589
1.0000514
1.000048
1.0000495
1.0000565
1.000068
1.000081
1.0000939
1.0001043
1.0001093
1.0001081
1.0001026
1.0000944
1.0000851
1.0000761
1.0000672
1.000062
1.0000613
1.0000657
1.0000737
1.0000847
1.0000906
1.0000942
1.0000844
1.0000748
1.0000739
1.0001298
1.0001103
1.000117
1.000119
1.0001175
1.0001174
1.0001191
1.0001187
1.0001199
1.0001187
1.0001196
1.0001201
1.0001188
1.0001172
1.0001181
1.0001168
1.000114
1.0001148
1.0001124
1.0001118
1.0001101
1.0001086
1.0001083
1.0001057
1.0001058
1.0001042
1.0001037
1.0001023
1.0001023
1.0001015
1.0001009
1.0001008
1.0001003
1.0001001
1.0001001
1.0000996
1.0000997
1.0000993
1.0000991
1.0000985
1.0000978
1.0000969
1.0000959
1.0000947
1.0000933
1.0000916
1.0000896
1.0000876
1.0000855
1.0000836
1.0000818
1.0000804
1.0000795
1.0000792
1.0000795
1.0000806
1.0000825
1.0000852
1.0000886
1.0000924
1.0000967
1.0001016
1.0001065
1.0001109
1.0001142
1.0001161
1.0001161
1.0001137
1.0001085
1.0001007
1.0000908
1.0000796
1.0000675
1.0000564
1.0000484
1.0000457
1.0000486
1.0000565
1.000069
1.0000835
1.0000977
1.0001088
1.0001144
1.0001142
1.0001092
1.0001013
1.0000919
1.0000818
1.0000702
1.0000622
1.0000598
1.000065
1.0000747
1.0000875
1.0000937
1.0000971
1.0000906
1.0000812
1.0000784
1.0001014
1.000089
1.0001105
1.0001132
1.0001119
1.0001106
1.0001113
1.0001109
1.0001103
1.0001082
1.0001102
1.0001104
1.0001083
1.0001084
1.0001098
1.0001082
1.0001073
1.0001081
1.0001063
1.0001068
1.000105
1.0001049
1.0001049
1.000103
1.0001034
1.0001028
1.0001022
1.0001017
1.000102
1.0001014
1.0001014
1.0001016
1.0001014
1.0001015
1.0001017
1.0001013
1.0001017
1.0001012
1.000101
1.0001005
1.0000999
1.0000989
1.0000978
1.0000962
1.0000946
1.0000926
1.0000903
1.000088
1.0000857
1.0000835
1.0000817
1.0000802
1.0000794
1.0000793
1.00008
1.0000816
1.0000842
1.0000878
1.0000921
1.0000968
1.0001021
1.0001077
1.0001129
1.0001173
1.0001202
1.0001213
1.0001199
1.000116
1.0001094
1.0001001
1.0000891
1.0000771
1.0000653
1.0000546
1.000047
1.0000442
1.0000472
1.0000557
1.0000683
1.0000831
1.000098
1.0001103
1.0001173
1.0001188
1.0001155
1.0001085
1.0000987
1.0000871
1.0000728
1.0000615
1.0000568
1.0000629
1.0000759
1.0000922
1.000099
1.0001022
1.0000969
1.0000911
1.0000878
1.0000851
1.0000795
1.0001109
1.0001145
1.0001124
1.0001113
1.0001119
1.0001117
1.0001096
1.0001072
1.0001095
1.0001085
1.0001057
1.000107
1.0001075
1.0001056
1.0001058
1.0001058
1.0001047
1.0001058
1.0001034
1.0001044
1.0001038
1.0001028
1.0001028
1.0001028
1.0001021
1.0001019
1.0001022
1.0001017
1.0001019
1.000102
1.0001019
1.0001021
1.0001023
1.000102
1.0001024
1.0001019
1.0001018
1.0001012
1.0001006
1.0000994
1.0000981
1.0000964
1.0000946
1.0000923
1.0000899
1.0000874
1.0000849
1.0000827
1.0000808
1.0000794
1.0000788
1.000079
1.0000801
1.0000824
1.0000858
1.0000901
1.0000952
1.0001009
1.0001071
1.000113
1.0001182
1.0001222
1.0001244
1.0001245
1.0001219
1.0001165
1.0001086
1.0000985
1.0000873
1.0000754
1.0000639
1.0000538
1.0000464
1.0000431
1.0000455
1.0000538
1.0000662
1.0000808
1.0000961
1.0001099
1.0001191
1.0001229
1.0001214
1.0001151
1.0001041
1.0000899
1.0000729
1.0000601
1.0000548
1.0000632
1.0000794
1.0000988
1.000104
1.0001015
1.0000883
1.000077
1.0000677
1.0000476
1.0000464
1.0001106
1.0001149
1.0001126
1.0001115
1.0001121
1.0001132
1.0001103
1.0001081
1.0001111
1.0001091
1.0001056
1.0001073
1.0001068
1.0001044
1.0001051
1.0001039
1.0001032
1.0001041
1.0001011
1.000103
1.0001016
1.0001012
1.000101
1.0001011
1.0001004
1.0001003
1.0001007
1.0001002
1.0001007
1.0001007
1.0001008
1.0001012
1.0001014
1.0001014
1.0001018
1.0001014
1.0001015
1.0001007
1.0001003
1.0000989
1.0000976
1.0000958
1.0000938
1.0000914
1.0000888
1.0000862
1.0000837
1.0000814
1.0000795
1.0000783
1.000078
1.0000787
1.0000805
1.0000834
1.0000876
1.0000927
1.0000985
1.0001049
1.0001117
1.0001177
1.0001227
1.0001261
1.0001274
1.0001264
1.0001227
1.0001164
1.0001077
1.0000975
1.0000866
1.0000751
1.000064
1.0000542
1.000047
1.0000434
1.0000447
1.0000519
1.0000641
1.0000787
1.0000944
1.0001098
1.0001216
1.0001274
1.000127
1.0001203
1.0001073
1.0000904
1.0000714
1.000059
1.0000564
1.0000671
1.0000847
1.0001032
1.0001034
1.0000931
1.0000699
1.0000463
1.0000403
1.0000687
1.0000806
1.0001059
1.0001105
1.0001082
1.0001068
1.0001081
1.00011
1.0001069
1.0001053
1.0001092
1.0001069
1.0001031
1.0001055
1.0001049
1.0001016
1.0001029
1.0001009
1.0001006
1.0001009
1.0000979
1.0001001
1.0000981
1.0000983
1.0000976
1.0000983
1.0000974
1.0000976
1.0000981
1.0000978
1.0000986
1.0000988
1.000099
1.0000997
1.0001001
1.0001004
1.0001008
1.0001007
1.0001008
1.0001001
1.0000997
1.0000982
1.0000971
1.0000951
1.0000929
1.0000904
1.0000878
1.000085
1.0000825
1.0000803
1.0000786
1.0000776
1.0000777
1.0000789
1.0000813
1.000085
1.0000899
1.0000958
1.0001022
1.000109
1.000116
1.000122
1.0001265
1.0001291
1.0001295
1.0001274
1.0001228
1.0001159
1.0001072
1.0000975
1.0000871
1.0000762
1.0000655
1.000056
1.0000488
1.0000449
1.0000453
1.0000511
1.0000626
1.0000776
1.0000942
1.0001113
1.000125
1.0001327
1.0001323
1.0001237
1.0001082
1.0000891
1.0000687
1.0000584
1.00006
1.0000728
1.0000881
1.0001012
1.0000956
1.000081
1.000063
1.0000524
1.0000528
1.0000807
1.0000838
1.0000978
1.0001017
1.0000998
1.0000991
1.000101
1.0001027
1.0001001
1.0000994
1.0001033
1.0001017
1.0000988
1.0001013
1.0001012
1.0000982
1.0000999
1.0000972
1.0000985
1.0000975
1.0000952
1.0000977
1.0000947
1.000096
1.0000947
1.0000959
1.0000949
1.0000956
1.0000963
1.000096
1.0000971
1.0000975
1.0000979
1.0000989
1.0000994
1.0000999
1.0001005
1.0001004
1.0001007
1.0001
1.0000997
1.0000982
1.000097
1.0000948
1.0000925
1.0000899
1.0000871
1.0000844
1.0000818
1.0000798
1.0000782
1.0000776
1.0000781
1.0000798
1.0000828
1.0000873
1.0000928
1.0000993
1.000106
1.000113
1.0001199
1.0001256
1.0001295
1.0001313
1.0001308
1.0001279
1.0001226
1.0001155
1.0001073
1.0000982
1.0000885
1.0000783
1.0000682
1.000059
1.0000516
1.000047
1.0000467
1.0000516
1.0000623
1.0000777
1.0000954
1.000114
1.000129
1.0001374
1.0001361
1.000125
1.000107
1.0000859
1.0000653
1.0000578
1.0000636
1.0000771
1.0000893
1.0000978
1.0000901
1.0000777
1.0000698
1.0000756
1.0000862
1.0001188
1.0001273
1.0000912
1.0000941
1.000093
1.0000929
1.0000949
1.0000962
1.0000943
1.0000941
1.0000975
1.0000966
1.0000944
1.0000965
1.0000972
1.0000947
1.0000968
1.0000938
1.0000963
1.0000948
1.0000931
1.0000957
1.0000927
1.0000946
1.0000929
1.0000947
1.0000936
1.0000946
1.0000951
1.0000952
1.0000964
1.0000969
1.0000975
1.0000986
1.0000992
1.0000998
1.0001006
1.0001006
1.000101
1.0001003
1.0000999
1.0000985
1.000097
1.0000948
1.0000924
1.0000898
1.0000868
1.0000841
1.0000816
1.0000797
1.0000784
1.0000781
1.000079
1.0000812
1.0000848
1.0000898
1.0000958
1.0001026
1.0001095
1.0001166
1.0001233
1.0001285
1.0001318
1.0001328
1.0001314
1.0001278
1.0001222
1.0001154
1.0001078
1.0000995
1.0000906
1.0000811
1.0000716
1.0000626
1.000055
1.00005
1.000049
1.0000534
1.0000637
1.0000793
1.0000976
1.0001166
1.0001318
1.0001394
1.0001365
1.000123
1.000103
1.0000816
1.0000628
1.0000587
1.0000664
1.0000803
1.0000913
1.0000988
1.0000927
1.000084
1.0000798
1.0000934
1.0001119
1.0001772
1.0001548
1.0000881
1.0000898
1.0000891
1.0000897
1.0000918
1.0000924
1.0000909
1.0000912
1.0000939
1.0000931
1.0000914
1.000093
1.0000943
1.0000915
1.0000942
1.0000912
1.000094
1.0000923
1.0000914
1.0000938
1.000091
1.0000933
1.0000914
1.0000935
1.0000924
1.0000935
1.0000941
1.0000944
1.0000955
1.0000963
1.0000969
1.0000983
1.0000989
1.0000997
1.0001005
1.0001007
1.000101
1.0001003
1.0001
1.0000984
1.0000969
1.0000947
1.0000922
1.0000895
1.0000866
1.0000839
1.0000815
1.0000797
1.0000787
1.0000787
1.00008
1.0000826
1.0000867
1.0000921
1.0000985
1.0001054
1.0001124
1.0001196
1.000126
1.0001306
1.0001333
1.0001336
1.0001315
1.0001273
1.0001218
1.0001154
1.0001084
1.000101
1.000093
1.0000843
1.0000753
1.0000666
1.0000591
1.0000539
1.0000527
1.0000568
1.0000667
1.000082
1.0000996
1.0001176
1.0001313
1.0001372
1.000132
1.0001171
1.0000971
1.000078
1.000064
1.0000631
1.0000715
1.0000852
1.000095
1.0001028
1.0000991
1.0000929
1.000086
1.0000863
1.0000925
1.0001508
1.0001501
1.0000869
1.000088
1.0000875
1.0000881
1.0000903
1.0000905
1.0000892
1.0000897
1.0000919
1.0000914
1.0000895
1.0000907
1.0000927
1.0000891
1.0000921
1.0000891
1.000092
1.00009
1.0000896
1.0000917
1.0000891
1.0000914
1.0000897
1.0000919
1.0000909
1.0000921
1.0000926
1.0000933
1.0000944
1.0000954
1.0000961
1.0000976
1.0000982
1.0000993
1.0001
1.0001003
1.0001007
1.0001
1.0000997
1.0000981
1.0000966
1.0000943
1.0000918
1.000089
1.0000862
1.0000836
1.0000813
1.0000797
1.000079
1.0000793
1.0000809
1.000084
1.0000884
1.0000941
1.0001008
1.0001078
1.0001148
1.0001219
1.0001279
1.000132
1.000134
1.0001337
1.0001312
1.0001268
1.0001214
1.0001155
1.0001093
1.0001026
1.0000955
1.0000877
1.0000795
1.0000713
1.0000641
1.0000593
1.0000581
1.0000618
1.000071
1.0000846
1.0000999
1.0001153
1.0001262
1.0001297
1.0001233
1.0001095
1.0000918
1.0000777
1.0000707
1.0000723
1.0000801
1.000092
1.0000986
1.0001031
1.0000976
1.0000889
1.0000805
1.0000827
1.0000862
1.0001079
1.0001137
1.0000863
1.0000873
1.0000868
1.0000871
1.0000889
1.0000892
1.0000882
1.0000885
1.0000901
1.0000899
1.0000883
1.0000893
1.0000912
1.0000873
1.0000905
1.0000877
1.0000901
1.0000882
1.0000882
1.0000893
1.0000878
1.0000896
1.0000877
1.0000904
1.0000892
1.0000907
1.0000911
1.0000922
1.000093
1.0000945
1.000095
1.0000968
1.0000976
1.0000986
1.0000995
1.0000999
1.0001003
1.0000996
1.0000994
1.0000978
1.0000962
1.000094
1.0000915
1.0000887
1.000086
1.0000834
1.0000813
1.0000799
1.0000794
1.00008
1.000082
1.0000853
1.00009
1.000096
1.0001028
1.0001098
1.0001167
1.0001236
1.0001292
1.0001328
1.0001343
1.0001336
1.0001307
1.0001264
1.0001213
1.0001159
1.0001103
1.0001044
1.0000982
1.0000915
1.0000842
1.0000769
1.0000705
1.0000661
1.000065
1.0000679
1.0000753
1.0000858
1.0000974
1.0001092
1.000117
1.0001187
1.0001131
1.0001026
1.0000901
1.0000831
1.0000813
1.0000847
1.000089
1.0000955
1.0000971
1.0000981
1.0000897
1.0000766
1.0000613
1.000055
1.0000543
1.0000558
1.0000602
1.0000858
1.0000872
1.0000866
1.0000859
1.000088
1.0000886
1.000087
1.0000873
1.0000889
1.0000886
1.0000871
1.000088
1.0000897
1.000086
1.0000889
1.0000868
1.0000881
1.0000868
1.0000871
1.0000875
1.0000865
1.0000881
1.0000862
1.0000891
1.0000879
1.0000892
1.0000902
1.0000909
1.0000922
1.0000935
1.0000943
1.0000961
1.000097
1.000098
1.0000992
1.0000995
1.0001
1.0000994
1.0000992
1.0000975
1.0000961
1.0000939
1.0000914
1.0000887
1.0000861
1.0000837
1.0000817
1.0000805
1.0000802
1.000081
1.0000832
1.0000867
1.0000916
1.0000977
1.0001044
1.0001113
1.0001182
1.0001248
1.00013
1.0001332
1.0001343
1.0001333
1.0001304
1.0001263
1.0001216
1.0001167
1.0001118
1.0001067
1.0001015
1.0000958
1.0000897
1.0000835
1.0000779
1.0000739
1.0000723
1.0000738
1.0000782
1.0000848
1.0000924
1.0001003
1.0001057
1.0001071
1.0001039
1.0000985
1.000093
1.0000918
1.0000929
1.000095
1.0000939
1.0000931
1.0000898
1.0000887
1.000082
1.0000708
1.0000551
1.0000467
1.0000482
1.0000496
1.0000445
1.0000854
1.0000874
1.0000868
1.0000851
1.0000873
1.0000882
1.0000863
1.0000864
1.0000878
1.0000876
1.0000862
1.0000869
1.000088
1.0000853
1.0000875
1.0000858
1.0000864
1.0000859
1.0000856
1.0000861
1.0000855
1.0000865
1.0000853
1.0000875
1.0000871
1.0000878
1.0000894
1.0000897
1.0000914
1.0000927
1.0000935
1.0000955
1.0000966
1.0000976
1.0000988
1.0000993
1.0000999
1.0000992
1.0000992
1.0000975
1.0000962
1.000094
1.0000916
1.000089
1.0000865
1.0000842
1.0000825
1.0000814
1.0000812
1.0000822
1.0000845
1.0000881
1.000093
1.0000991
1.0001057
1.0001125
1.0001191
1.0001255
1.0001304
1.0001333
1.0001342
1.0001331
1.0001303
1.0001266
1.0001224
1.0001181
1.0001139
1.0001097
1.0001054
1.0001008
1.0000958
1.0000906
1.0000856
1.0000815
1.0000788
1.000078
1.0000791
1.000082
1.0000861
1.0000909
1.000095
1.0000972
1.0000975
1.0000975
1.0000974
1.0000995
1.0001007
1.0001008
1.0000952
1.0000894
1.0000829
1.0000798
1.000076
1.0000717
1.0000662
1.0000658
1.0000656
1.0000541
1.0000544
1.0000853
1.0000873
1.0000869
1.0000851
1.0000865
1.0000875
1.0000861
1.0000859
1.0000869
1.0000865
1.0000855
1.0000865
1.0000864
1.0000846
1.0000863
1.000085
1.0000847
1.0000851
1.0000845
1.0000846
1.0000846
1.000085
1.0000845
1.000086
1.0000861
1.0000868
1.0000883
1.0000889
1.0000903
1.0000921
1.0000927
1.0000949
1.000096
1.0000972
1.0000984
1.000099
1.0000997
1.0000992
1.0000992
1.0000977
1.0000963
1.0000942
1.000092
1.0000895
1.0000871
1.000085
1.0000833
1.0000823
1.0000823
1.0000834
1.0000857
1.0000893
1.0000942
1.0001002
1.0001066
1.0001131
1.0001195
1.0001257
1.0001303
1.0001331
1.0001339
1.0001329
1.0001305
1.0001273
1.0001238
1.0001202
1.0001167
1.0001134
1.00011
1.0001063
1.0001022
1.0000974
1.0000924
1.0000874
1.0000831
1.00008
1.0000784
1.0000785
1.0000802
1.0000832
1.0000869
1.0000909
1.0000934
1.0000962
1.000099
1.0001023
1.0001035
1.0001037
1.0000972
1.0000911
1.0000808
1.0000739
1.0000714
1.0000748
1.0000816
1.0000915
1.0000898
1.0000776
1.0000817
1.0000853
1.000087
1.0000869
1.0000853
1.0000859
1.0000868
1.0000859
1.0000856
1.0000862
1.0000855
1.0000849
1.000086
1.0000849
1.0000839
1.0000852
1.0000844
1.000083
1.0000841
1.0000837
1.0000831
1.0000835
1.0000837
1.0000836
1.0000848
1.0000849
1.0000859
1.0000871
1.0000882
1.0000892
1.0000914
1.000092
1.0000942
1.0000955
1.0000967
1.0000982
1.0000988
1.0000996
1.0000992
1.0000992
1.0000979
1.0000966
1.0000946
1.0000925
1.0000902
1.000088
1.0000859
1.0000843
1.0000834
1.0000835
1.0000846
1.0000869
1.0000904
1.0000952
1.0001009
1.0001071
1.0001133
1.0001195
1.0001254
1.0001299
1.0001326
1.0001335
1.0001328
1.000131
1.0001285
1.0001259
1.0001232
1.0001205
1.000118
1.0001152
1.000112
1.000108
1.000103
1.0000971
1.0000909
1.0000849
1.0000801
1.000077
1.0000755
1.0000762
1.000079
1.0000826
1.0000869
1.0000901
1.0000935
1.0000962
1.0000997
1.0001024
1.000106
1.0001032
1.0000989
1.000086
1.0000752
1.0000712
1.000079
1.0000946
1.0001168
1.0001171
1.0001132
1.0001003
1.0000852
1.0000866
1.0000868
1.0000856
1.0000854
1.0000859
1.0000855
1.0000854
1.0000856
1.0000847
1.0000844
1.0000852
1.0000839
1.0000833
1.0000841
1.0000836
1.0000818
1.0000828
1.0000829
1.0000819
1.0000821
1.0000826
1.0000826
1.0000835
1.0000839
1.000085
1.0000859
1.0000873
1.0000885
1.0000903
1.0000914
1.0000936
1.000095
1.0000963
1.0000979
1.0000987
1.0000996
1.0000993
1.0000994
1.0000982
1.000097
1.0000953
1.0000933
1.0000912
1.000089
1.0000871
1.0000856
1.0000848
1.0000848
1.0000858
1.0000881
1.0000915
1.000096
1.0001014
1.0001073
1.0001132
1.0001191
1.0001247
1.0001291
1.0001319
1.0001331
1.000133
1.0001319
1.0001305
1.0001288
1.0001271
1.0001253
1.0001232
1.0001207
1.0001173
1.0001127
1.0001067
1.0000994
1.0000917
1.0000846
1.0000789
1.0000754
1.0000743
1.0000753
1.000078
1.0000813
1.0000848
1.000087
1.0000889
1.0000908
1.0000953
1.0001009
1.0001089
1.0001108
1.0001092
1.0000964
1.0000849
1.0000809
1.0000897
1.0001026
1.0001192
1.0001116
1.0000964
1.0000986
1.0000851
1.0000861
1.0000865
1.0000857
1.0000851
1.0000851
1.0000851
1.0000852
1.0000848
1.000084
1.0000839
1.0000843
1.0000831
1.0000825
1.000083
1.0000826
1.0000811
1.0000816
1.0000817
1.0000809
1.000081
1.0000814
1.0000816
1.0000821
1.0000828
1.0000842
1.0000846
1.0000863
1.000088
1.0000892
1.000091
1.0000929
1.0000945
1.0000962
1.0000976
1.0000987
1.0000996
1.0000995
1.0000997
1.0000986
1.0000977
1.0000961
1.0000942
1.0000923
1.0000903
1.0000885
1.0000871
1.0000863
1.0000863
1.0000872
1.0000893
1.0000924
1.0000966
1.0001017
1.0001071
1.0001127
1.0001183
1.0001237
1.0001281
1.0001311
1.0001328
1.0001335
1.0001335
1.0001331
1.0001326
1.0001318
1.0001307
1.0001288
1.0001259
1.0001217
1.0001158
1.0001082
1.0000994
1.0000904
1.0000825
1.0000771
1.0000745
1.0000746
1.0000766
1.0000799
1.0000827
1.0000849
1.0000847
1.0000846
1.0000857
1.0000914
1.0001004
1.0001123
1.0001181
1.00012
1.0001098
1.0000988
1.000092
1.0000942
1.0000965
1.0001007
1.0000927
1.0000978
1.0000895
1.0000849
1.0000857
1.000086
1.0000853
1.0000847
1.0000847
1.0000849
1.0000848
1.000084
1.0000832
1.0000834
1.0000836
1.0000825
1.0000817
1.0000819
1.0000814
1.0000806
1.0000806
1.0000803
1.0000797
1.00008
1.0000802
1.0000806
1.0000807
1.0000817
1.0000831
1.0000836
1.0000853
1.0000872
1.0000882
1.0000905
1.0000922
1.0000941
1.0000959
1.0000975
1.0000988
1.0000997
1.0000999
1.0001002
1.0000993
1.0000985
1.000097
1.0000954
1.0000936
1.0000918
1.0000901
1.0000888
1.000088
1.0000879
1.0000887
1.0000905
1.0000933
1.0000972
1.0001018
1.0001068
1.000112
1.0001173
1.0001225
1.000127
1.0001304
1.0001328
1.0001344
1.0001355
1.0001364
1.000137
1.0001371
1.0001364
1.0001343
1.0001305
1.0001248
1.0001172
1.0001079
1.0000977
1.0000876
1.0000795
1.0000749
1.000074
1.000076
1.0000796
1.0000839
1.0000866
1.0000877
1.0000854
1.000083
1.0000828
1.0000891
1.0001003
1.0001147
1.0001239
1.0001289
1.00012
1.0001072
1.0000942
1.0000897
1.0000904
1.0000995
1.0000997
1.0000913
1.0000711
1.0000849
1.0000854
1.0000854
1.0000848
1.0000844
1.0000845
1.0000845
1.0000842
1.0000834
1.0000826
1.0000826
1.0000828
1.0000819
1.0000808
1.0000806
1.0000802
1.0000799
1.0000794
1.0000789
1.0000787
1.0000788
1.0000788
1.0000794
1.0000796
1.0000805
1.0000819
1.0000827
1.0000843
1.0000862
1.0000876
1.0000899
1.0000917
1.0000937
1.0000958
1.0000974
1.0000989
1.0001
1.0001004
1.0001008
1.0001001
1.0000994
1.0000982
1.0000967
1.0000951
1.0000935
1.0000919
1.0000906
1.0000898
1.0000897
1.0000903
1.0000918
1.0000943
1.0000977
1.0001018
1.0001064
1.0001112
1.0001162
1.0001213
1.0001259
1.0001297
1.0001329
1.0001355
1.0001379
1.0001399
1.0001415
1.0001424
1.0001418
1.0001391
1.0001342
1.0001268
1.0001172
1.0001063
1.0000949
1.0000841
1.0000762
1.0000728
1.0000739
1.0000782
1.0000839
1.0000898
1.0000933
1.0000936
1.0000898
1.0000854
1.0000834
1.0000884
1.0000991
1.0001133
1.0001237
1.0001309
1.0001231
1.0001092
1.0000926
1.0000838
1.0000824
1.0000926
1.0000977
1.000116
1.0001168
1.0000848
1.000085
1.0000848
1.0000844
1.0000842
1.0000842
1.0000838
1.0000835
1.000083
1.0000822
1.0000817
1.0000818
1.0000812
1.0000801
1.0000795
1.0000792
1.0000789
1.0000781
1.0000776
1.0000777
1.0000774
1.0000774
1.000078
1.0000786
1.0000792
1.0000805
1.0000818
1.0000833
1.0000851
1.0000869
1.0000891
1.0000913
1.0000933
1.0000956
1.0000974
1.0000991
1.0001003
1.000101
1.0001015
1.000101
1.0001005
1.0000995
1.0000983
1.0000968
1.0000953
1.0000938
1.0000926
1.0000918
1.0000915
1.000092
1.0000932
1.0000953
1.0000982
1.0001018
1.000106
1.0001104
1.0001152
1.0001202
1.000125
1.0001293
1.0001332
1.0001369
1.0001403
1.0001433
1.0001458
1.0001471
1.0001463
1.000143
1.0001369
1.0001278
1.0001164
1.000104
1.0000916
1.0000806
1.0000732
1.0000711
1.0000744
1.0000811
1.0000892
1.0000972
1.0001019
1.0001022
1.0000979
1.0000915
1.0000871
1.0000885
1.0000951
1.0001053
1.0001138
1.0001217
1.0001166
1.0001069
1.0000917
1.0000823
1.0000806
1.0000955
1.0001034
1.0001394
1.0001466
1.0000845
1.0000845
1.0000845
1.0000842
1.000084
1.0000837
1.0000832
1.0000827
1.0000826
1.0000819
1.0000811
1.0000807
1.0000802
1.0000793
1.0000786
1.000078
1.0000775
1.0000769
1.0000763
1.0000764
1.000076
1.000076
1.0000766
1.0000773
1.000078
1.0000791
1.0000807
1.0000822
1.0000841
1.0000863
1.0000883
1.0000908
1.000093
1.0000954
1.0000975
1.0000994
1.0001008
1.0001017
1.0001023
1.0001021
1.0001018
1.000101
1.0000999
1.0000986
1.0000972
1.0000959
1.0000947
1.0000939
1.0000935
1.0000937
1.0000947
1.0000965
1.0000989
1.0001021
1.0001058
1.0001099
1.0001144
1.0001192
1.0001242
1.000129
1.0001336
1.0001381
1.0001424
1.0001463
1.0001493
1.0001507
1.0001497
1.0001457
1.0001385
1.000128
1.0001152
1.0001018
1.0000887
1.0000777
1.0000711
1.0000704
1.0000757
1.0000848
1.0000952
1.0001055
1.0001115
1.0001125
1.0001079
1.0000999
1.0000911
1.000087
1.000087
1.0000914
1.0000968
1.000104
1.0001038
1.0001036
1.0000952
1.0000906
1.000088
1.0000948
1.0000957
1.0001286
1.0001325
1.0000842
1.0000842
1.0000841
1.0000839
1.0000836
1.0000832
1.0000827
1.0000822
1.0000818
1.0000812
1.0000805
1.0000797
1.000079
1.0000784
1.0000777
1.0000768
1.0000761
1.0000756
1.000075
1.0000748
1.0000746
1.0000747
1.0000751
1.0000758
1.0000766
1.0000778
1.0000795
1.0000811
1.0000831
1.0000854
1.0000876
1.0000903
1.0000928
1.0000953
1.0000976
1.0000997
1.0001014
1.0001025
1.0001033
1.0001033
1.0001031
1.0001025
1.0001016
1.0001005
1.0000992
1.000098
1.0000969
1.000096
1.0000956
1.0000957
1.0000964
1.0000978
1.0000999
1.0001026
1.0001059
1.0001097
1.0001139
1.0001186
1.0001237
1.0001288
1.0001339
1.000139
1.000144
1.0001484
1.0001516
1.0001529
1.0001516
1.0001471
1.0001391
1.0001278
1.0001143
1.0001003
1.000087
1.0000764
1.0000708
1.0000712
1.0000781
1.0000893
1.0001016
1.0001137
1.000121
1.0001226
1.0001173
1.0001071
1.0000929
1.0000823
1.0000755
1.000075
1.0000792
1.0000883
1.0000951
1.0001043
1.0001032
1.0001054
1.0001029
1.0001043
1.0001004
1.0001475
1.0001596
1.0000839
1.000084
1.0000839
1.0000836
1.0000831
1.0000827
1.0000823
1.0000818
1.0000811
1.0000804
1.0000797
1.0000789
1.000078
1.0000772
1.0000764
1.0000756
1.0000748
1.0000742
1.0000736
1.0000731
1.0000731
1.0000732
1.0000735
1.0000742
1.0000753
1.0000765
1.0000781
1.00008
1.0000821
1.0000845
1.000087
1.0000898
1.0000926
1.0000952
1.0000979
1.0001002
1.0001021
1.0001034
1.0001043
1.0001046
1.0001046
1.0001042
1.0001034
1.0001025
1.0001014
1.0001003
1.0000992
1.0000983
1.0000978
1.0000978
1.0000983
1.0000994
1.0001012
1.0001036
1.0001064
1.0001099
1.0001138
1.0001183
1.0001233
1.0001286
1.000134
1.0001394
1.0001446
1.0001491
1.0001524
1.0001536
1.0001521
1.0001473
1.000139
1.0001275
1.0001139
1.0001001
1.0000872
1.0000773
1.0000726
1.0000742
1.000082
1.000094
1.0001076
1.0001208
1.0001288
1.0001302
1.0001234
1.0001104
1.0000919
1.0000756
1.0000635
1.0000608
1.000068
1.0000826
1.0000961
1.0001108
1.0001113
1.0001159
1.0001124
1.0001115
1.0001012
1.0001104
1.0001273
1.0000837
1.0000838
1.0000836
1.0000831
1.0000827
1.0000823
1.0000819
1.0000812
1.0000804
1.0000796
1.0000789
1.000078
1.000077
1.000076
1.0000751
1.0000742
1.0000733
1.0000726
1.000072
1.0000715
1.0000714
1.0000715
1.0000719
1.0000725
1.0000737
1.0000752
1.0000767
1.0000788
1.0000811
1.0000836
1.0000864
1.0000893
1.0000924
1.0000953
1.0000982
1.0001007
1.0001028
1.0001043
1.0001054
1.0001059
1.0001061
1.0001059
1.0001054
1.0001046
1.0001036
1.0001026
1.0001016
1.0001008
1.0001002
1.0001001
1.0001005
1.0001014
1.0001029
1.0001049
1.0001074
1.0001105
1.0001142
1.0001184
1.0001232
1.0001283
1.0001336
1.0001389
1.000144
1.0001484
1.0001515
1.0001526
1.000151
1.0001464
1.0001384
1.0001274
1.0001145
1.0001016
1.0000898
1.0000809
1.0000771
1.0000791
1.000087
1.0000988
1.0001124
1.0001253
1.0001326
1.000133
1.000125
1.0001099
1.0000893
1.0000703
1.0000563
1.0000548
1.0000654
1.0000833
1.0000995
1.000116
1.0001137
1.000114
1.0001112
1.0001157
1.0001071
1.0000801
1.0000744
1.0000835
1.0000834
1.0000833
1.0000829
1.0000824
1.000082
1.0000814
1.0000807
1.0000798
1.0000789
1.000078
1.000077
1.0000759
1.0000748
1.0000737
1.0000727
1.0000718
1.000071
1.0000703
1.0000698
1.0000697
1.0000697
1.0000701
1.0000709
1.0000721
1.0000736
1.0000754
1.0000775
1.0000801
1.0000826
1.0000857
1.0000889
1.0000923
1.0000953
1.0000986
1.0001013
1.0001035
1.0001053
1.0001067
1.0001073
1.0001078
1.0001077
1.0001073
1.0001067
1.000106
1.0001051
1.0001042
1.0001034
1.0001029
1.0001027
1.000103
1.0001038
1.000105
1.0001068
1.000109
1.0001117
1.000115
1.0001187
1.000123
1.0001277
1.0001326
1.0001374
1.0001421
1.0001461
1.0001489
1.00015
1.0001487
1.0001447
1.0001376
1.0001278
1.0001164
1.0001051
1.0000951
1.0000874
1.0000842
1.0000861
1.0000928
1.000103
1.0001149
1.0001258
1.0001315
1.0001307
1.0001218
1.0001065
1.0000862
1.0000691
1.0000575
1.0000577
1.0000684
1.0000858
1.0001007
1.000116
1.000113
1.0001122
1.0001081
1.0001061
1.0000949
1.0000323
1.0000229
1.0000832
1.0000833
1.0000831
1.0000827
1.0000822
1.0000816
1.0000809
1.0000801
1.0000792
1.0000782
1.0000771
1.000076
1.0000748
1.0000736
1.0000723
1.0000711
1.0000701
1.0000693
1.0000686
1.000068
1.0000679
1.0000677
1.0000684
1.0000693
1.0000703
1.0000719
1.000074
1.0000763
1.000079
1.0000818
1.000085
1.0000886
1.000092
1.0000956
1.0000989
1.0001019
1.0001043
1.0001063
1.0001079
1.0001089
1.0001095
1.0001097
1.0001095
1.000109
1.0001084
1.0001077
1.0001069
1.0001063
1.0001059
1.0001058
1.000106
1.0001066
1.0001076
1.0001091
1.000111
1.0001133
1.0001161
1.0001193
1.0001228
1.0001267
1.0001308
1.0001349
1.0001388
1.0001422
1.0001448
1.000146
1.0001453
1.0001424
1.0001368
1.000129
1.0001198
1.0001107
1.0001027
1.0000966
1.0000935
1.0000944
1.0000989
1.0001061
1.0001146
1.0001222
1.0001257
1.0001236
1.0001151
1.0001019
1.0000849
1.0000726
1.0000655
1.0000676
1.0000764
1.0000897
1.0000996
1.0001117
1.0001134
1.0001177
1.0001154
1.0001014
1.0000844
1.0000657
1.0000645
1.0000831
1.0000831
1.0000829
1.0000824
1.0000818
1.0000812
1.0000805
1.0000796
1.0000785
1.0000774
1.0000761
1.0000749
1.0000736
1.0000722
1.0000708
1.0000695
1.0000684
1.0000674
1.0000667
1.000066
1.0000658
1.0000657
1.0000664
1.0000674
1.0000684
1.0000702
1.0000724
1.0000749
1.0000777
1.0000809
1.0000843
1.0000881
1.0000918
1.0000957
1.0000993
1.0001025
1.0001052
1.0001074
1.0001092
1.0001104
1.0001112
1.0001116
1.0001117
1.0001115
1.0001111
1.0001105
1.0001099
1.0001094
1.0001091
1.000109
1.0001093
1.0001099
1.0001108
1.0001119
1.0001134
1.0001153
1.0001174
1.0001199
1.0001225
1.0001254
1.0001283
1.0001313
1.0001343
1.0001371
1.0001394
1.000141
1.0001412
1.0001397
1.0001363
1.0001312
1.0001247