/*--------------------------------*- C++ -*----------------------------------*\
| =========                 |                                                 |
| \\      /  F ield         | OpenFOAM: The Open Source CFD Toolbox           |
|  \\    /   O peration     | Version:  2406                                  |
|   \\  /    A nd           | Website:  www.openfoam.com                      |
|    \\/     M anipulation  |                                                 |
\*---------------------------------------------------------------------------*/
FoamFile
{
    version     2.0;
    format      ascii;
    arch        "LSB;label=32;scalar=64";
    class       surfaceScalarField;
    location    "10";
    object      phi;
}
// * * * * * * * * * * * * * * * * * * * * * * * * * * * * * * * * * * * * * //

dimensions      [1 0 -1 0 0 0 0];

oriented        oriented;

internalField   nonuniform List<scalar> 
60371
(
-9.8061873e-05
0.013123572
-0.00016289582
0.012321886
-0.00020158027
0.011773292
-0.00024503477
0.011334241
-0.00028528981
0.010978616
-0.00028185691
0.010595627
-0.00027490942
0.010335363
-0.00033208917
0.010200356
-0.00045818349
0.010090899
-0.0005488193
0.0098110376
-0.00060218517
0.009331982
-0.00063863657
0.0087564483
-0.00064793809
0.0082322191
-0.00064191879
0.0078133695
-0.00064254261
0.0074425505
-0.000612088
0.0071257514
-0.00054073719
0.0068931986
-0.00053767167
0.0067392884
-0.00064568246
0.0066119957
-0.00074947175
0.006479003
-0.00082308089
0.0063102688
-0.00088523825
0.0060921739
-0.00092482939
0.0058350802
-0.00090339172
0.0055649543
-0.00085980828
0.0053029207
-0.00084550587
0.0050668401
-0.00086093118
0.0048566978
-0.00087138895
0.004663823
-0.00087843938
0.0044876382
-0.00088730381
0.0043181826
-0.00090767085
0.0041514876
-0.00093623953
0.0039822825
-0.00096010078
0.003808913
-0.00097203465
0.0036350372
-0.00097736138
0.0034655987
-0.00098566458
0.0033043997
-0.0010030362
0.0031534352
-0.0010303943
0.0030095947
-0.0010618724
0.0028694436
-0.0010885382
0.0027319075
-0.0011031113
0.0025987887
-0.0011029473
0.0024725637
-0.001090779
0.0023542752
-0.0010710563
0.0022445567
-0.0010472795
0.0021435313
-0.0010198526
0.0020520016
0.0019712193
-0.00098820505
-0.00014360714
0.013217897
-0.00012632419
0.012415303
-0.00011649827
0.011910724
-0.00014487794
0.011446039
-0.00018202005
0.011107297
-0.00011737964
0.010751122
-5.4840993e-05
0.010472645
-0.00010749198
0.010238063
-0.00031296659
0.010034549
-0.00053954083
0.0097753239
-0.00068227887
0.0093701847
-0.00073782475
0.0088324732
-0.00073256609
0.008349788
-0.00069314552
0.007952775
-0.00062874793
0.0075946293
-0.00048011654
0.0073050587
-0.0002856107
0.0070339128
-0.00024813155
0.0068201875
-0.0003553309
0.0066481405
-0.00050652574
0.0064604102
-0.0006932466
0.0062463802
-0.00086873269
0.0060273231
-0.00097111406
0.0057942478
-0.00097620419
0.0055503022
-0.00093180265
0.0052925532
-0.00090995876
0.0050523951
-0.00091840197
0.0048330644
-0.00090253418
0.0046247748
-0.00092035669
0.0044260999
-0.00097454006
0.0042374983
-0.0010696688
0.0040592152
-0.001165503
0.0038868803
-0.0012289572
0.0037139336
-0.0012597798
0.0035402247
-0.0012763509
0.0033710658
-0.0013006141
0.0032099973
-0.0013492402
0.0030591141
-0.0014235117
0.0029190716
-0.0015042759
0.0027905987
-0.0015630142
0.0026743526
-0.0015788166
0.0025693057
-0.0015527692
0.0024728705
-0.0015036805
0.0023820564
-0.0014487091
0.0022951134
-0.0013935537
0.002212307
-0.0013349099
0.0021328524
0.0020562079
-0.001269432
-0.00017579074
0.013305856
-0.0001274499
0.012533616
-9.9974067e-05
0.012101488
-0.0001178575
0.011659379
-0.00012455714
0.011339158
-2.3708036e-05
0.010962063
1.9590428e-05
0.01058881
-5.123335e-05
0.010204693
-0.00030124212
0.0098975005
-0.00063154594
0.0096439921
-0.00081371455
0.0093758113
-0.00082392649
0.00899965
-0.00077761322
0.0085536612
-0.00069950839
0.0080883846
-0.00057982873
0.0077481105
-0.00042447319
0.0075145283
-0.00020347808
0.0072465747
-0.00018365436
0.0069551801
-0.00033194378
0.0066628975
-0.00052509171
0.006382155
-0.00073331054
0.0061386935
-0.00093065041
0.0059478644
-0.0010268353
0.0057708465
-0.0010601295
0.0055777568
-0.00099676738
0.005357499
-0.00095170514
0.0051160867
-0.00094596324
0.0048533779
-0.0009255811
0.0045940415
-0.00095003926
0.0043510303
-0.0010242246
0.0041262988
-0.0011562768
0.0039208118
-0.0012901025
0.0037327016
-0.0013861777
0.0035569983
-0.0014406929
0.0033948024
-0.0014725192
0.0032497826
-0.0015037774
0.0031241318
-0.0015399662
0.003016047
-0.0015652223
0.0029188519
-0.001561721
0.0028293446
-0.0015238432
0.0027447067
-0.0014595347
0.0026619362
-0.0013859758
0.0025783284
-0.0013186249
0.0024912166
-0.0012651385
0.0024003967
-0.0012274562
0.0023087492
-0.0011980631
0.002216911
0.0021259202
-0.0011634687
-0.0001939765
0.013403749
-0.00013696895
0.012653042
-0.00010149173
0.012254262
-0.0001199859
0.011828036
-0.00012646613
0.011547327
-2.6315691e-05
0.01116949
3.3442117e-05
0.010693313
-1.5288281e-05
0.010155647
-0.00025084518
0.0097366126
-0.00061002887
0.0094697932
-0.00083017651
0.0093115871
-0.00088742818
0.0090723961
-0.00087410607
0.0086610993
-0.00069072683
0.0082630162
-0.00047751199
0.0079776516
-0.00035092592
0.0077002362
-0.00018578248
0.0073572269
-0.00023667098
0.0069878918
-0.00040247988
0.0066623776
-0.00054832229
0.0064012772
-0.00067616712
0.0061773713
-0.00084073691
0.0059616179
-0.00094799205
0.0057657569
-0.0010375282
0.005562351
-0.0010660299
0.0053208777
-0.0011366518
0.0050483172
-0.0011662329
0.0047759064
-0.0011505907
0.0045204152
-0.001174578
0.0042839733
-0.0012312317
0.0040741329
-0.0013322899
0.0038920528
-0.0014408011
0.003728109
-0.0015001428
0.0035806811
-0.0014845426
0.0034507752
-0.0014303453
0.0033342702
-0.0013848468
0.0032276344
-0.0013519044
0.0031290174
-0.0013123442
0.003032204
-0.0012592638
0.0029356455
-0.0012044198
0.0028358368
-0.0011641456
0.0027309985
-0.0011479858
0.0026222221
-0.0011539701
0.0025130429
-0.0011706231
0.0024064462
-0.001181876
0.0023051687
-0.0011747469
0.0022096448
0.0021191393
-0.0011455744
-0.00019258782
0.013505697
-0.00012782927
0.012728627
-7.1965385e-05
0.012316464
-7.3948674e-05
0.01184127
-9.1385995e-05
0.011554151
-3.5594627e-05
0.01117277
1.9476201e-06
0.010668527
-3.0296153e-05
0.010101654
-0.00020825895
0.0096269737
-0.00050470954
0.0093327542
-0.00075174295
0.0091935913
-0.00090152176
0.0089680087
-0.00084587533
0.0086481416
-0.00056950411
0.0083628024
-0.00040982524
0.0080587777
-0.00037491978
0.007730612
-0.00027605303
0.0074050282
-0.00032227568
0.0070637449
-0.0004265285
0.0067468008
-0.00053033329
0.0064717997
-0.00064871422
0.006221072
-0.00077587179
0.0059601706
-0.00089787957
0.0057254344
-0.0010574496
0.0054755303
-0.0011836746
0.0051952764
-0.0012782511
0.0049264049
-0.0012842066
0.004693884
-0.001263543
0.0044964904
-0.0012606669
0.0043102982
-0.0012837897
0.0041286472
-0.0013620859
0.0039528831
-0.0014165731
0.0037929387
-0.0013902348
0.0036574134
-0.0013008856
0.0035412678
-0.0012093971
0.0034350351
-0.0011486593
0.0033303065
-0.0011102833
0.0032240625
-0.0010851776
0.0031106468
-0.0010780448
0.0029899099
-0.0010968466
0.0028637971
-0.0011369634
0.002738038
-0.0011806546
0.0026184502
-0.0012050558
0.0025074583
-0.0011969872
0.0024046936
-0.0011560642
0.0023093019
-0.0010913182
0.0022197093
0.0021348274
-0.0010186093
-0.00017807014
0.013590794
-0.00012124965
0.012741339
-4.9844883e-05
0.012303763
-3.0287232e-05
0.01176391
-5.5075992e-05
0.011454045
-5.2065446e-05
0.011104813
-2.35292e-05
0.010634585
-5.3534044e-05
0.010055447
-0.00017887428
0.0095847424
-0.00039420909
0.0092620078
-0.00068250219
0.0090440745
-0.0008493471
0.0088494341
-0.00071980904
0.0086501214
-0.00048701729
0.0083654169
-0.00040752533
0.0080431894
-0.00038600284
0.0077455731
-0.00034705197
0.0074594088
-0.00041427062
0.0071343266
-0.00046757794
0.0068326096
-0.00054869413
0.006530311
-0.00067866296
0.0062000768
-0.00075821555
0.0058907768
-0.00094403115
0.0056072686
-0.0011771874
0.0053146286
-0.0012956617
0.0050378647
-0.0013040515
0.0048137057
-0.0012500891
0.0046398972
-0.0012489221
0.0044867056
-0.0012826098
0.0043357388
-0.001341345
0.0041930762
-0.0013782028
0.004060147
-0.0013149415
0.0039413037
-0.0011770168
0.0038328571
-0.0010375582
0.003723832
-0.0009537472
0.003601059
-0.00093791697
0.0034581331
-0.00097705753
0.0033015943
-0.0010497612
0.003142484
-0.0011275747
0.0029898876
-0.0011872652
0.0028485616
-0.0012164921
0.0027200165
-0.0012110843
0.002604901
-0.0011693498
0.0025002914
-0.0010996804
0.0024020076
-0.0010171007
0.0023071713
-0.00094264876
0.0022137383
0.0021213961
-0.0008946005
-0.00017091874
0.013617776
-0.00012830462
0.012751761
-4.0913853e-05
0.012300578
1.0835451e-07
0.011718545
-1.6591043e-05
0.011337721
-6.4691229e-05
0.011022223
-7.2645042e-05
0.010663577
-7.6466885e-05
0.010101747
-0.00016032639
0.0095735448
-0.0003533017
0.0091965895
-0.00060909656
0.0089431553
-0.00072501091
0.0088003606
-0.00061779172
0.0086383464
-0.00042856486
0.0083290382
-0.00036915768
0.0080659635
-0.00036110793
0.0078237925
-0.00039131701
0.0075440076
-0.00046864355
0.0072114444
-0.00054672229
0.0068995175
-0.0006848877
0.0065854451
-0.00077802552
0.0062165954
-0.00084645116
0.0058256848
-0.0010909053
0.0054687112
-0.0012799141
0.005162367
-0.0012733932
0.0049503018
-0.0011625726
0.0047973831
-0.0011021902
0.0046435575
-0.0011334719
0.0044894376
-0.0011718733
0.0043628153
-0.0012032161
0.0042601867
-0.0011554002
0.0041618292
-0.0010227115
0.0040538261
-0.00089562586
0.0039272632
-0.00086145394
0.0037784154
-0.0009320109
0.0036100332
-0.0010503109
0.0034355699
-0.0011620589
0.0032640388
-0.0012434076
0.0031056077
-0.0012806726
0.0029625047
-0.0012714559
0.0028347601
-0.0012211276
0.002717248
-0.0011444851
0.0026061523
-0.0010625105
0.0024983218
-0.00099644392
0.0023930556
-0.00095998803
0.0022900763
-0.0009574497
0.0021911259
0.0020978156
-0.00098147865
-0.00016627916
0.013638315
-0.00014393452
0.01279615
-4.1312953e-05
0.012336476
2.0301257e-05
0.011737661
1.5265501e-05
0.011369401
-5.4297475e-05
0.011040192
-0.00011645762
0.010742967
-0.00012569939
0.010253583
-0.00016190055
0.0096770258
-0.00031032703
0.009196865
-0.00049163129
0.0089275994
-0.00059015547
0.0088079361
-0.00054303283
0.0086362078
-0.00034507203
0.008417077
-0.00030963119
0.0081498851
-0.00035751478
0.0078788911
-0.00044646279
0.007588093
-0.00051441373
0.0072667052
-0.00063170731
0.0069315138
-0.00086791533
0.0066116762
-0.00098320748
0.0062357633
-0.001054605
0.0057960141
-0.0012431813
0.0054005333
-0.0012140807
0.0051559417
-0.0010796508
0.0049842563
-0.00098639231
0.0047899041
-0.00096559617
0.0045972562
-0.00094651836
0.0044751559
-0.00093336672
0.0044004854
-0.00093757277
0.0043280574
-0.00088274178
0.0042267225
-0.00081525241
0.004091268
-0.00083713582
0.0039274791
-0.00096713208
0.0037505683
-0.0011323029
0.0035782008
-0.0012602502
0.0034185892
-0.0013257808
0.0032696407
-0.0013346706
0.003132259
-0.0013006489
0.0030011216
-0.0012393143
0.00287754
-0.0011685344
0.0027578952
-0.0011043498
0.0026416231
-0.0010579369
0.0025298725
-0.001032787
0.0024238181
-0.0010289212
0.0023237004
-0.0010404781
0.0022298976
0.0021419252
-0.001057041
-0.00014580799
0.013618805
-0.00015149693
0.012836878
-5.0933252e-05
0.012512687
3.9668839e-05
0.011894482
5.4759864e-05
0.011435816
-3.9354584e-05
0.011090897
-0.00015240104
0.010898559
-0.00019131982
0.010513633
-0.0001988077
0.0099177723
-0.00026817221
0.0093522551
-0.00037966389
0.0090276231
-0.00049238781
0.0088364296
-0.00042895212
0.0086978716
-0.0002914318
0.0085596717
-0.00029245127
0.0082679286
-0.00038919874
0.0079533893
-0.00050838648
0.0076544279
-0.00058972402
0.0073551426
-0.00074939055
0.0070434273
-0.0010607081
0.0067012509
-0.0012451385
0.0062770973
-0.001289391
0.0058345282
-0.0012501195
0.0055135068
-0.0010722769
0.0052960235
-0.00099249685
0.0050754571
-0.00089950347
0.0048541814
-0.00073321364
0.004689601
-0.00061459677
0.0045821434
-0.00061646124
0.0044917194
-0.00068329987
0.0043898534
-0.00072241376
0.0042523528
-0.00079589645
0.0040804105
-0.00093950157
0.0038968531
-0.0011047035
0.0037239987
-0.0012429934
0.003572596
-0.0013246599
0.0034349026
-0.001345941
0.003302144
-0.0013176642
0.0031715624
-0.0012647022
0.0030409576
-0.0012087165
0.0029130259
-0.001158215
0.0027888605
-0.001113519
0.0026707978
-0.0010796001
0.0025583566
-0.0010613749
0.0024512004
-0.0010564252
0.0023509879
-0.0010569792
0.0022562398
0.002166397
-0.0010571637
-0.0001165673
0.013648807
-0.00012964879
0.012861025
-5.5617681e-05
0.012636426
3.1435274e-05
0.012119428
7.9324961e-05
0.011611305
-5.8474712e-07
0.011172544
-0.00016449339
0.010973911
-0.00027165899
0.010718197
-0.00026479282
0.010215218
-0.00025079658
0.0095855974
-0.00030980816
0.0091271824
-0.00037614007
0.0088552822
-0.00029665075
0.0087309188
-0.00026471128
0.0085483487
-0.0003034514
0.0082443391
-0.00041084527
0.0079523516
-0.00054105828
0.0076724176
-0.00064718568
0.0073749448
-0.00090258385
0.0070500173
-0.0013162471
0.0066794781
-0.0014790513
0.0062994472
-0.0013624677
0.0059949052
-0.0011860874
0.0057523429
-0.0010306562
0.0054903992
-0.00095488009
0.0052173898
-0.00072961746
0.0049991219
-0.00045798002
0.0048392342
-0.00034872588
0.0047022258
-0.00042316496
0.004565878
-0.00057811816
0.0044092993
-0.00071980998
0.0042204024
-0.00087373691
0.0040226359
-0.0010259129
0.0038521398
-0.0011456245
0.0037117662
-0.0012361737
0.0035920158
-0.0012979337
0.0034793832
-0.0013183558
0.0033614415
-0.0012983601
0.0032325807
-0.0012594411
0.0030977227
-0.0012178436
0.0029649782
-0.0011770946
0.0028393818
-0.0011402713
0.0027224575
-0.0011105212
0.0026113839
-0.0010914399
0.0025040605
-0.0010822991
0.0024000012
-0.0010783936
0.0022996418
0.0022039704
-0.0010758609
-8.7090382e-05
0.013727112
-9.2379421e-05
0.013030453
-4.341106e-05
0.012789374
2.5465827e-05
0.012289479
8.5338502e-05
0.011803842
3.9442282e-05
0.011276844
-0.00014040243
0.01093679
-0.00031896466
0.010704559
-0.00034207386
0.010351554
-0.00027301485
0.0098020264
-0.00026292996
0.0092633659
-0.00025214472
0.0088871631
-0.00020725248
0.008678462
-0.00023675131
0.0084059838
-0.00029176732
0.0081002066
-0.00042060041
0.0078371141
-0.00057036894
0.0075883787
-0.00073013821
0.007270812
-0.0010810532
0.0069212501
-0.0014898715
0.0066007858
-0.0015054458
0.0063652963
-0.0013019819
0.006146511
-0.0011685683
0.0058853087
-0.0010539735
0.0055912254
-0.00086688579
0.0053335559
-0.00052078836
0.0051475531
-0.00026696888
0.0049705977
-0.0002390538
0.0047763545
-0.00041300843
0.0045622938
-0.0006613989
0.0043473106
-0.00082302651
0.0041512068
-0.00091669275
0.0039887561
-0.00099029789
0.0038606763
-0.0010577993
0.0037545921
-0.0011339607
0.0036502711
-0.0012193897
0.0035347007
-0.0012860921
0.0034043102
-0.0013042075
0.0032643498
-0.0012763504
0.0031277977
-0.0012292311
0.0030003894
-0.0011846677
0.0028821137
-0.0011516134
0.0027692925
-0.0011340671
0.0026583783
-0.0011297651
0.0025474245
-0.0011313161
0.0024377163
-0.0011314622
0.0023306814
0.0022283833
-0.0011270555
-5.3188397e-05
0.013783203
-6.4078931e-05
0.013139113
-3.6464805e-05
0.012964833
2.0933705e-05
0.012421954
8.3586743e-05
0.011850779
5.9337168e-05
0.011287092
-0.00011028511
0.010860621
-0.00032207026
0.010624026
-0.00038718307
0.01041891
-0.00032088553
0.010024927
-0.00025058946
0.0094706243
-0.00016293024
0.0089946808
-0.00016683728
0.0086379138
-0.00020501839
0.0082743205
-0.00024908667
0.0079246383
-0.00040469743
0.0076481595
-0.00062062606
0.0073860393
-0.00083471222
0.0071039931
-0.0011927611
0.0068510537
-0.0014698102
0.0066581967
-0.0014045454
0.0064727688
-0.0012505586
0.0061906643
-0.0011809211
0.0058751477
-0.0010019994
0.0056156094
-0.00067623945
0.0054393737
-0.0003427796
0.0052673193
-0.00023302767
0.0050456785
-0.00032921519
0.004789589
-0.00055897255
0.0045372972
-0.00075359715
0.0043369212
-0.00080858396
0.0041866708
-0.00080736658
0.0040609036
-0.00083956619
0.0039436985
-0.00092359125
0.003824327
-0.0010587575
0.003694308
-0.0012082165
0.0035512289
-0.0012957993
0.00340347
-0.0012865897
0.0032573001
-0.0012210828
0.0031171371
-0.0011565996
0.0029850428
-0.0011280477
0.0028605053
-0.0011335677
0.0027406128
-0.0011576381
0.0026233356
-0.0011826905
0.0025071215
-0.0011982935
0.0023927382
-0.0012009449
0.0022815008
0.0021756005
-0.0011978953
-2.4071289e-05
0.013793753
-3.1001759e-05
0.013145753
-3.5344142e-05
0.012959269
2.0628886e-07
0.012490359
7.1368155e-05
0.011873864
6.7600376e-05
0.011242045
-7.6391486e-05
0.010799437
-0.00028511988
0.010591209
-0.00039064635
0.010493381
-0.00036973012
0.010231893
-0.00026580921
0.0097214511
-0.00015115673
0.0091778443
-0.00016520883
0.0086564464
-0.000186738
0.0081827596
-0.00022136089
0.0077907923
-0.00040610912
0.0074755255
-0.00065098949
0.0072287571
-0.0008646899
0.0070528422
-0.0011844697
0.0069080432
-0.0013826407
0.006707563
-0.0013641593
0.0064364604
-0.0012574224
0.0061349833
-0.0011141368
0.0058606037
-0.00079752007
0.0056750959
-0.00048292141
0.0055376045
-0.00030230417
0.0053496539
-0.00033478459
0.0050806792
-0.00048644963
0.0047949662
-0.00063608636
0.0045667627
-0.00069487701
0.0044077638
-0.00067391652
0.0042758993
-0.00066265501
0.0041352785
-0.0007386824
0.0039809656
-0.0009000567
0.0038214697
-0.0010955555
0.0036651894
-0.001245865
0.0035115417
-0.0012892707
0.003362739
-0.0012392796
0.0032197169
-0.0011624955
0.0030834279
-0.0011225257
0.0029532791
-0.0011350938
0.0028295638
-0.0011817592
0.0027108116
-0.0012349018
0.0025955641
-0.0012729978
0.0024818134
-0.001287639
0.0023696632
-0.001285291
0.0022610697
0.0021582809
-0.001273827
-7.32442e-06
0.013815215
-3.3375869e-06
0.013087491
-3.0043059e-05
0.012854656
-2.1510689e-05
0.012467503
4.8593626e-05
0.011883779
6.9494147e-05
0.011256132
-3.1415442e-05
0.0107971
-0.00022027659
0.010596243
-0.00035844842
0.010550219
-0.00039579994
0.0103707
-0.00029621728
0.0099386682
-0.00019128234
0.0093597682
-0.00019422386
0.0087176329
-0.000189864
0.0081616084
-0.00022565187
0.0077266262
-0.00040307333
0.0074137269
-0.00060538745
0.0072106131
-0.00081372537
0.0070968024
-0.0011678184
0.0069341096
-0.0013489726
0.0066703684
-0.0013211886
0.006373236
-0.0011824911
0.0061107361
-0.00091360354
0.005892902
-0.00053771935
0.0057236608
-0.00036495601
0.0055347707
-0.00035886204
0.0052832063
-0.00047439835
0.0049962041
-0.000557799
0.0047569841
-0.00057851733
0.0045827619
-0.00057039226
0.0044298264
-0.00056867927
0.00426747
-0.00062633554
0.0040887731
-0.00076079902
0.0039127847
-0.00095596256
0.003752701
-0.0011466812
0.0036020758
-0.0012511758
0.0034591866
-0.0012406546
0.0033219311
-0.0011672168
0.0031918957
-0.0011131411
0.0030683054
-0.0011185769
0.0029506451
-0.0011742128
0.0028366179
-0.0012521286
0.0027237315
-0.0013206061
0.0026104258
-0.0013607486
0.0024970376
-0.001368862
0.0023858662
-0.0013537042
0.0022804894
0.0021833574
-0.0013288197
-1.6685045e-06
0.013882839
1.0731172e-05
0.013075575
-2.0715831e-05
0.012785495
-3.1644133e-05
0.012424632
2.5803793e-05
0.011890419
6.4612338e-05
0.011347851
1.0694444e-05
0.010903182
-0.00014207325
0.010650157
-0.00029929126
0.010562672
-0.00039013552
0.010418815
-0.00033835489
0.010084764
-0.00027478736
0.0095330212
-0.00025753999
0.0088386254
-0.00021424218
0.0082101881
-0.00023501558
0.0077460475
-0.00037491715
0.0074576992
-0.00053082841
0.0072616326
-0.00079530414
0.0071045747
-0.0011959477
0.0068846671
-0.0013278787
0.0066637395
-0.0012306616
0.0064158523
-0.0010220211
0.0061568634
-0.00067756115
0.0059430129
-0.00038401767
0.0057234596
-0.00035907142
0.0054530188
-0.00043988546
0.00516146
-0.00049750638
0.0049055085
-0.00048310671
0.0047119831
-0.00047975374
0.0045478853
-0.00050824159
0.0043834965
-0.00056803237
0.0042083655
-0.00066492481
0.0040294113
-0.00080737893
0.0038604885
-0.00099718818
0.0037068235
-0.0011566875
0.003566879
-0.0011995183
0.0034384527
-0.0011373052
0.0033132363
-0.0010601453
0.0031853163
-0.0010410757
0.0030570845
-0.0010972651
0.0029328152
-0.0012016371
0.0028140969
-0.0013103999
0.0027012326
-0.0013854652
0.002593016
-0.001407957
0.0024897174
-0.0013848428
0.0023921288
-0.0013373007
0.002300759
0.0022161298
-0.0012875237
-2.9415138e-06
0.013901959
1.096942e-05
0.01310759
-1.5630739e-05
0.012810498
-3.5488446e-05
0.012448221
1.7753673e-05
0.01193511
6.5427036e-05
0.011422295
4.4838332e-05
0.010995551
-7.3416774e-05
0.010719075
-0.00022970202
0.010584891
-0.00035797309
0.010451237
-0.00037289391
0.010172863
-0.00037344777
0.0096583648
-0.00034484773
0.0089829187
-0.00024205895
0.0083544832
-0.00022414741
0.0078885572
-0.00033335688
0.0075627197
-0.00048715239
0.0073052133
-0.00082063452
0.0070841835
-0.0011795038
0.0069021681
-0.001261111
0.0067433627
-0.001125173
0.0065109563
-0.00083637027
0.0062449164
-0.00050000452
0.0059690545
-0.00035739871
0.0056619492
-0.00041408998
0.005361642
-0.0004680239
0.0051168197
-0.00043391776
0.0049340846
-0.00039754861
0.0047606705
-0.0004267089
0.0045731987
-0.00050207459
0.0043859767
-0.00059738506
0.0041985821
-0.00070598399
0.0040137328
-0.00084605627
0.0038409096
-0.00099986703
0.0036850379
-0.0010884563
0.003545969
-0.0010767291
0.0034119922
-0.0010159788
0.0032718777
-0.00098079664
0.0031256847
-0.0010171984
0.0029846001
-0.0011169811
0.0028604157
-0.0012408792
0.0027547457
-0.0013356896
0.0026620798
-0.0013651145
0.0025747634
-0.0013328001
0.0024871461
-0.0012682883
0.0023976915
-0.0012041169
0.0023077191
0.002216995
-0.0011607932
4.8750213e-06
0.013915805
1.3928212e-05
0.013104219
-1.7602926e-05
0.012863368
-4.2759056e-05
0.012586793
1.9626447e-05
0.012056349
7.4780742e-05
0.011500506
7.3232279e-05
0.011068138
-1.8197272e-05
0.010803823
-0.00017032963
0.010656208
-0.0003185793
0.010517316
-0.00039648625
0.010257968
-0.00045499635
0.0097540061
-0.00040717418
0.0091213471
-0.00026660711
0.0085471995
-0.00023394202
0.0080767526
-0.0003247734
0.0076790123
-0.00048339062
0.0073598355
-0.00081644244
0.0071345533
-0.0011156364
0.0070032287
-0.0011835025
0.0068373874
-0.0010191375
0.0065713881
-0.00072159914
0.0063061219
-0.00045793504
0.0059858558
-0.00038773061
0.005657685
-0.00042484036
0.0053919065
-0.00040877027
0.0052001799
-0.00037063462
0.0050381667
-0.00038324291
0.0048310207
-0.00044275013
0.0045919742
-0.00054187717
0.0043607393
-0.00064872439
0.0041472777
-0.00075483097
0.0039547087
-0.00087392099
0.0037858644
-0.00097421874
0.003639839
-0.0010131605
0.0035033516
-0.0010014088
0.0033626487
-0.00098052426
0.0032172263
-0.00098245031
0.0030772193
-0.0010234664
0.0029534844
-0.0010989237
0.0028477123
-0.0011792058
0.0027571221
-0.0012282129
0.002670604
-0.0012265771
0.0025783759
-0.0011856944
0.0024778027
-0.0011383041
0.0023689302
-0.0011167037
0.0022563122
0.0021429628
-0.0011326214
1.2072795e-05
0.013992415
2.5136887e-05
0.013162636
-1.4417391e-05
0.012936824
-5.2679135e-05
0.012734913
1.4805435e-05
0.012195991
9.0655928e-05
0.011593114
0.00010626099
0.011117379
2.7748186e-05
0.01086352
-0.00012102226
0.010719035
-0.00028555147
0.01055997
-0.0004168921
0.010273746
-0.00050763312
0.0097891535
-0.00043648958
0.0092370706
-0.00029476016
0.0087210692
-0.0002743959
0.0082416013
-0.00035040875
0.0077975161
-0.00048746189
0.0074663166
-0.00078237312
0.0072679392
-0.0010604999
0.007109349
-0.001112451
0.0068412845
-0.00089750299
0.0065479783
-0.00065962062
0.0063067111
-0.00046144995
0.0060455186
-0.00039647059
0.0057715581
-0.00037800341
0.0055415072
-0.00033561965
0.0053282314
-0.00036930517
0.0051025911
-0.0004383129
0.0048289973
-0.00050365177
0.0045457382
-0.00059542414
0.0042851558
-0.00068467595
0.0040689412
-0.00077250939
0.0038969947
-0.00086279005
0.0037580264
-0.00093417707
0.0036298622
-0.00096731855
0.0034978727
-0.00097133826
0.003361548
-0.00096547382
0.0032290974
-0.00096144547
0.0031053713
-0.0009773088
0.0029918382
-0.0010246765
0.0028856877
-0.0010902767
0.0027826649
-0.0011433513
0.0026741946
-0.001167548
0.0025557721
-0.0011711527
0.0024292371
-0.0011770103
0.002301011
-0.001206941
0.0021768428
0.0020597593
-0.0012647128
2.4900817e-05
0.014099172
4.0711195e-05
0.013271824
-5.9603747e-06
0.013042357
-5.7436264e-05
0.012823306
1.0694251e-05
0.012285975
0.00010557715
0.011650643
0.00014016046
0.011142187
7.183582e-05
0.010908715
-8.0537652e-05
0.010763317
-0.00026130868
0.010560598
-0.00043158669
0.010224468
-0.00052778554
0.0097848099
-0.00043893611
0.0093149172
-0.00032330294
0.008847862
-0.00032560789
0.0083800138
-0.00037903044
0.007948258
-0.00048421302
0.0076349132
-0.00076550549
0.0073971544
-0.0010525185
0.0071496674
-0.0010330897
0.0068312605
-0.00076153879
0.006545558
-0.00058262181
0.0063500437
-0.0004357918
0.0061611238
-0.00037531503
0.0059326347
-0.00035417819
0.0056860314
-0.00035131116
0.0054048763
-0.00045872765
0.0050993685
-0.00054405936
0.0047837933
-0.00059582007
0.0044846126
-0.00064698501
0.0042422785
-0.00068911339
0.0040759809
-0.00074695661
0.0039522376
-0.00083576641
0.0038374288
-0.0009139453
0.0037145649
-0.0009417118
0.0035800742
-0.000935868
0.0034388282
-0.00092229844
0.0032996218
-0.00091651278
0.0031627378
-0.00093726732
0.0030250458
-0.001000344
0.0028867271
-0.0010933459
0.0027496192
-0.0011815747
0.0026137517
-0.0012425206
0.0024767546
-0.0012796733
0.0023413809
-0.0013105042
0.0022137476
-0.0013419212
0.0021018838
0.0020076108
-0.0013700038
4.8982546e-05
0.014208125
6.0482946e-05
0.013315422
4.3266427e-07
0.013083517
-5.6732316e-05
0.012897531
1.1504396e-05
0.012350541
0.00012179106
0.011691968
0.00017369587
0.01116457
0.00010984879
0.010927806
-5.3950954e-05
0.010742818
-0.00025182108
0.01048081
-0.00043568811
0.010122019
-0.00051991833
0.0097401465
-0.00043130799
0.0093422933
-0.00035567395
0.0089203246
-0.00037353009
0.0085196691
-0.00040062446
0.0081552507
-0.00050217692
0.0078284871
-0.00079650362
0.0074841257
-0.0010512996
0.0071645753
-0.00092662227
0.006877772
-0.00061850251
0.0066537965
-0.00048938931
0.0064775342
-0.00039348109
0.0062795792
-0.0003709401
0.0060045464
-0.00039324269
0.0057025754
-0.00045412108
0.0053926567
-0.00059413447
0.0050816528
-0.00065932762
0.0047748891
-0.00065576674
0.0045147961
-0.0006303741
0.0043343717
-0.00063511784
0.0042120694
-0.00070804511
0.0041011081
-0.00082404707
0.0039777793
-0.00091180686
0.0038366774
-0.00093069668
0.0036749707
-0.00091691128
0.0035004421
-0.00091458414
0.0033273036
-0.00094143732
0.0031579691
-0.0010007597
0.0029920189
-0.0010913669
0.0028298879
-0.0012003954
0.002675839
-0.0013022169
0.0025314353
-0.001370582
0.0024005799
-0.0013954021
0.0022868111
-0.0013828578
0.0021898102
-0.0013468805
0.0021091192
0.0020414092
-0.0012952704
7.2219044e-05
0.014310016
8.4164673e-05
0.013315072
1.0338306e-05
0.013012949
-5.5001536e-05
0.012947937
1.2273591e-05
0.012438163
0.00013603528
0.011786858
0.00020358497
0.011212719
0.00013528218
0.010922525
-3.7018433e-05
0.010682624
-0.00024765585
0.010380025
-0.00043046902
0.010041737
-0.00049765364
0.0097142899
-0.0004158935
0.009378253
-0.00036389884
0.0090011493
-0.00039165413
0.0086799852
-0.00042148151
0.0083814293
-0.0005585711
0.0079983882
-0.0008427792
0.0075479682
-0.0010171248
0.007230483
-0.00079722544
0.0070164174
-0.00050698054
0.0068432316
-0.00043165538
0.00663706
-0.0003875311
0.0063317704
-0.00039892481
0.0059668622
-0.00044961226
0.0056513765
-0.0005533999
0.0053644809
-0.00070648497
0.0050921812
-0.00071249724
0.0048479215
-0.00062396942
0.004655444
-0.0005541441
0.0045065404
-0.00058229443
0.0043734037
-0.00069797397
0.0042345492
-0.0008440767
0.004073752
-0.00094748998
0.0038898667
-0.00097171485
0.0036878479
-0.0009629769
0.0034832186
-0.00098149326
0.0032906195
-0.0010432118
0.0031073746
-0.0011332477
0.0029310561
-0.0012374289
0.0027639215
-0.0013350901
0.0026156578
-0.0013981063
0.0024934507
-0.0014069498
0.0023957064
-0.0013646228
0.0023169736
-0.0012906558
0.0022488651
-0.001205198
0.0021862098
0.0021263929
-0.0011185122
8.4655749e-05
0.014421448
0.00010495874
0.013292884
2.5320653e-05
0.012883059
-4.7454331e-05
0.012914465
5.0948627e-06
0.012540082
0.00014386438
0.01195566
0.00022026464
0.011295221
0.00014864804
0.010915708
-2.4888603e-05
0.01063731
-0.00024016694
0.010301669
-0.00041322284
0.0099995631
-0.00046586961
0.0097188107
-0.00039407166
0.0094188716
-0.000348123
0.0090870865
-0.0003865419
0.0088279785
-0.0004612723
0.0085493127
-0.00064620389
0.008101917
-0.00087677166
0.0076456987
-0.00094764767
0.0073940928
-0.00066350319
0.0072188336
-0.00045009277
0.0070252228
-0.0004500372
0.0067220836
-0.00044175389
0.006319952
-0.00043457992
0.0059308968
-0.00049808108
0.0056421943
-0.00062733723
0.0053864835
-0.00074590214
0.0051537079
-0.00067903035
0.0049647428
-0.00055075001
0.0048012028
-0.00049826724
0.0046359565
-0.00057725103
0.0044560444
-0.00073861275
0.0042683976
-0.0009156162
0.0040677764
-0.0010272771
0.003859346
-0.0010472922
0.0036481836
-0.0010418374
0.0034448447
-0.0010867624
0.003256609
-0.0011867791
0.0030820158
-0.0012948789
0.0029215251
-0.0013697163
0.0027805334
-0.0013931058
0.0026641318
-0.0013647597
0.0025711995
-0.0012967897
0.0024968362
-0.001209655
0.0024326391
-0.0011179088
0.0023722891
-0.0010285921
0.0023105178
0.0022448544
-0.00094685676
9.5735021e-05
0.014530445
0.00012102009
0.013296797
4.334711e-05
0.012779921
-2.8473317e-05
0.01285124
2.0264915e-08
0.012618988
0.00014172328
0.012153293
0.00022222496
0.01140036
0.00015206969
0.010943797
-1.9274385e-05
0.010622175
-0.00022751859
0.010269725
-0.00038494078
0.0099918897
-0.00042950512
0.0097399096
-0.00036624905
0.0094509973
-0.00031865566
0.0091585343
-0.00038145281
0.0089143483
-0.00052531919
0.0086187716
-0.00072801441
0.0081747015
-0.00087377192
0.0078055593
-0.00085727088
0.0076123025
-0.00055354445
0.0074264145
-0.00046024532
0.0071392528
-0.00052155319
0.0067340388
-0.00050291634
0.006333117
-0.0004679715
0.0059971249
-0.00054164671
0.0057282725
-0.00066650163
0.0054737653
-0.00071015672
0.0052503406
-0.00059921924
0.0050706268
-0.00049538598
0.0048972225
-0.00050618141
0.0046908711
-0.0006409096
0.0044651859
-0.0008331665
0.004254194
-0.0010121512
0.0040503397
-0.0011110557
0.0038481368
-0.0011223782
0.0036504815