/*--------------------------------*- C++ -*----------------------------------*\
| =========                 |                                                 |
| \\      /  F ield         | OpenFOAM: The Open Source CFD Toolbox           |
|  \\    /   O peration     | Version:  2406                                  |
|   \\  /    A nd           | Website:  www.openfoam.com                      |
|    \\/     M anipulation  |                                                 |
\*---------------------------------------------------------------------------*/
FoamFile
{
    version     2.0;
    format      ascii;
    arch        "LSB;label=32;scalar=64";
    class       surfaceScalarField;
    location    "10";
    object      phi;
}
// * * * * * * * * * * * * * * * * * * * * * * * * * * * * * * * * * * * * * //

dimensions      [1 0 -1 0 0 0 0];

oriented        oriented;

internalField   nonuniform List<scalar> 
40095
(
-0.00019590077
0.016161611
-0.00044723774
0.016020436
-0.00050254422
0.01487002
-0.00041033674
0.013465349
-0.0004406154
0.012854395
-0.00059112498
0.012483747
-0.00071261829
0.011911773
-0.00080136058
0.011040864
-0.00089575885
0.0099677785
-0.00078872316
0.0087460924
-0.0004554995
0.0079532921
-0.00021827641
0.0078672092
-0.00036478811
0.0081505817
-0.00078350418
0.0083148769
-0.0011975944
0.0080274519
-0.0013460829
0.0073381083
-0.0012034642
0.0066644064
-0.00089573519
0.0062073315
-0.00058903356
0.0060017929
-0.00041949791
0.0059383443
-0.00044234316
0.0058998055
-0.00061957979
0.0058134592
-0.00087679759
0.0056593718
-0.0011548349
0.0054336161
-0.0014077612
0.0051484781
-0.0016100342
0.0048327974
-0.0017470521
0.0045065241
-0.0018314827
0.0042002646
-0.0018631821
0.0039085158
-0.0018587783
0.0036466814
-0.0018259803
0.0034066548
-0.0017749357
0.0031956375
-0.0017184595
0.0030028795
-0.001658328
0.0028330833
0.0026774916
-0.0016025825
0.00018807103
0.015849701
-0.00022712838
0.015814415
-0.00032803439
0.014909042
-0.00013770301
0.013437664
-0.00014579611
0.012689943
-0.00033390999
0.012248604
-0.00056796303
0.011823068
-0.00098085554
0.011169495
-0.0012866098
0.010190995
-0.00079955317
0.0092348021
0.00016874779
0.0085753612
0.00051773175
0.0083291793
0.00015439394
0.0082550588
-0.0007749525
0.0081214685
-0.001636649
0.0078281347
-0.001762554
0.0074335481
-0.0012314599
0.0070771225
-0.00048025409
0.0067482931
9.6568111e-05
0.0064469967
0.00029644694
0.0061312493
0.0001919641
0.0058034692
-0.00015877379
0.0054541394
-0.00066114846
0.0051144245
-0.0011734054
0.0048190158
-0.001608273
0.0045630894
-0.0019252376
0.0043341163
-0.0021069199
0.0041235183
-0.0021732476
0.0039237718
-0.002166282
0.0037405093
-0.0020892705
0.003557559
-0.0019762849
0.0033767487
-0.0018455081
0.0032014597
-0.0017136564
0.003034567
-0.0015850322
0.0028652927
0.0027091365
-0.0014773959
0.00033262299
0.015588109
-0.00034141522
0.015623308
-0.00043116931
0.014985625
-0.00012507113
0.013486764
-0.00010979812
0.012493987
-0.00037236842
0.011877514
-0.00075442951
0.011547682
-0.0013504857
0.01119292
-0.0015741062
0.010611591
-0.00079409055
0.010069508
0.00031294911
0.0095120994
0.00072861884
0.0089322387
0.00025991643
0.0083433945
-0.00076979362
0.0079206291
-0.001564702
0.0076688194
-0.001449365
0.0076163789
-0.00081984897
0.0074967534
-0.00010852679
0.0071797834
0.000254307
0.0066577363
0.00033333796
0.0060337
8.3282821e-05
0.0054302514
-0.00033598596
0.0049256278
-0.00081065544
0.0045344729
-0.0012723021
0.004258899
-0.0016051207
0.0040642735
-0.0018268574
0.0039280762
-0.0019342796
0.0038183175
-0.0019574607
0.0037012117
-0.0019308
0.0035830064
-0.0018593456
0.0034344475
-0.0017721273
0.0032803494
-0.0016829909
0.0031195911
-0.0015931615
0.0029541923
-0.0015067537
0.0027861812
0.0026305664
-0.0014271942
0.00066187585
0.015538815
-0.00032483671
0.015553037
-0.00054999077
0.015181842
-0.00017835927
0.01363909
-9.944015e-05
0.012370805
-0.00030225024
0.011500793
-0.00077789142
0.011174498
-0.001424831
0.011071496
-0.0014940013
0.011091995
-0.00062959883
0.011046718
0.00028716541
0.010539158
0.00060373165
0.0095036749
0.00011176651
0.0084702738
-0.00062647505
0.0077813
-0.0010256033
0.0077071432
-0.0008530366
0.0077895175
-0.00047774935
0.007683439
-0.00025036883
0.0072280251
-0.00021754476
0.0065378106
-0.00032625455
0.0057769354
-0.00054261847
0.005098682
-0.00077268942
0.0045889482
-0.00094783403
0.0042514205
-0.001064479
0.004048002
-0.0011526579
0.0039243291
-0.0012306077
0.0038195122
-0.0013098892
0.0037084494
-0.0013945688
0.0035874345
-0.0014661653
0.0034523914
-0.0015171155
0.0032891208
-0.0015508226
0.0031299079
-0.0015580477
0.0029663548
-0.001540407
0.0028042966
-0.0015021794
0.0026470127
0.0025093421
-0.0014504718
0.0008719522
0.015659693
-0.00028107177
0.015637182
-0.00065452095
0.015451471
-0.00026631961
0.013877524
-0.00012188247
0.012305967
-0.00021368557
0.011247815
-0.0006188861
0.010827576
-0.0011014861
0.010906642
-0.0010715982
0.011464541
-0.00043516926
0.01182605
5.9593683e-05
0.011302386
0.0001841508
0.010000645
-6.362517e-06
0.0086455386
-0.00031811034
0.007938579
-0.00037784991
0.0078010527
-0.00037350584
0.0077773308
-0.00053820284
0.0075482381
-0.00077784784
0.0070375198
-0.00098787977
0.0063373626
-0.0011066404
0.0056362712
-0.0010966407
0.0050927942
-0.00097652669
0.0047141985
-0.00081944794
0.0044617228
-0.00070147108
0.0042782192
-0.00066916424
0.0041166416
-0.00073053965
0.0039436252
-0.00086315633
0.0037664173
-0.0010318694
0.003577914
-0.0011837191
0.0033784147
-0.001307001
0.0031831982
-0.0013750831
0.0029997675
-0.0013894931
0.0028260799
-0.0013586206
0.0026644602
-0.001297008
0.0025179346
0.0023904829
-0.0012088437
0.00099453033
0.015837291
-0.00021150895
0.015696775
-0.00078479348
0.015698999
-0.00045493425
0.014171499
-0.0001774279
0.01233834
-0.00012608198
0.011156984
-0.00030187718
0.010611586
-0.00046479212
0.010797059
-0.00043677649
0.011613714
-0.00028234557
0.0122154
-0.00022348929
0.011748221
-0.00025832606
0.010400988
-0.00015927006
0.0090144124
3.3442204e-05
0.0081679835
3.2021106e-05
0.0078489966
-0.0002784417
0.0076567546
-0.00085850585
0.0072918606
-0.0014189141
0.0067931488
-0.0016944357
0.0062326402
-0.0016158405
0.0057928492
-0.0012886122
0.0054803509
-0.00089747625
0.0052170391
-0.00060329833
0.0049645886
-0.00047522191
0.0047033311
-0.00050944572
0.0044312934
-0.0006653671
0.0041486215
-0.00088052718
0.003870878
-0.0010870926
0.0036050403
-0.0012450307
0.0033578299
-0.0013285953
0.0031336907
-0.0013312853
0.002930892
-0.0012652577
0.0027461171
-0.0011498718
0.0025815464
-0.0010047105
0.0024370267
0.0023061003
-0.00084263617
0.0010948279
0.015985658
-0.00014163839
0.015675836
-0.00092870718
0.015790715
-0.00071944399
0.014454031
-0.00025290758
0.012561567
-6.2719076e-05
0.011261538
5.8764988e-05
0.010582339
0.00018627212
0.01072396
0.00010265813
0.011522247
-0.0003451477
0.012166483
-0.00079516069
0.011885907
-0.00081610531
0.010745422
-0.00028808802
0.0094408427
0.00018953647
0.0084791027
0.00015744663
0.0078810163
-0.00036747893
0.007379527
-0.0011874358
0.0069162228
-0.0017570735
0.0065624407
-0.0018092752
0.0063529507
-0.0015020844
0.0062105949
-0.0010718761
0.0060327635
-0.00072398266
0.0057780524
-0.00055842674
0.0054491419
-0.00058912412
0.0050633314
-0.00076197037
0.0046518972
-0.0010018744
0.0042557486
-0.0012292475
0.0038960713
-0.0013962558
0.003583158
-0.0014767477
0.0033137951
-0.0014618037
0.0030830845
-0.0013641674
0.0028828642
-0.0012034092
0.0027040272
-0.0010046881
0.0025455068
-0.00079170306
0.0024048748
0.0022734883
-0.00058036365
0.001191572
0.016148002
-8.9448726e-05
0.015543148
-0.0010201631
0.015643879
-0.00093863396
0.014644539
-0.00033838891
0.012950527
-4.0051282e-05
0.011541167
0.00035329579
0.010759284
0.00075507242
0.010692584
0.00056680822
0.011229406
-0.00031554605
0.011723192
-0.0011379381
0.011675301
-0.0011791699
0.010962195
-0.00044334444
0.0098745838
5.642561e-05
0.0088270017
2.2057632e-06
0.007949809
-0.0006043925
0.0071778577
-0.0012663175
0.0066948975
-0.0015348237
0.006557995
-0.0014001361
0.0066219675
-0.0011081186
0.0066304024
-0.00085864315
0.0064632133
-0.00078530207
0.0061219291
-0.00089652021
0.0056593717
-0.001124328
0.005149141
-0.0013739324
0.004651422
-0.0015842294
0.0042078963
-0.0017207516
0.0038255566
-0.0017575874
0.0035069851
-0.001692494
0.0032447417
-0.0015429141
0.0030374638
-0.0013323402
0.0028590058
-0.0010892367
0.0026987898
-0.00084045991
0.0025554915
-0.00059661252
0.0024215591
0.0022985286
-0.00037376074
0.0012267972
0.016310581
-5.6650481e-05
0.015351287
-0.0010599198
0.015344939
-0.0010817842
0.014709787
-0.00045266704
0.013396999
-3.4011739e-05
0.011967493
0.00058541336
0.011034918
0.0011418107
0.010694106
0.0008634386
0.010826846
-0.00022964459
0.011060985
-0.0012362606
0.011178024
-0.0013630441
0.010958523
-0.00063253446
0.010191497
-0.00018801964
0.0091410888
-0.00035690937
0.0080210255
-0.00074824358
0.0071217493
-0.00096802205
0.0067462599
-0.00092476233
0.0068017995
-0.00080762566
0.0069180675
-0.00076360212
0.0068726656
-0.00088910897
0.0065996762
-0.0011740918
0.0061390224
-0.0015258293
0.0055749498
-0.0018387531
0.0050057918
-0.0020548194
0.0044874372
-0.0021364681
0.004057295
-0.0020872726
0.0037212107
-0.0019334713
0.0034637225
-0.0017032034
0.0032555625
-0.0014322395
0.00308131
-0.0011507857
0.0029256891
-0.00087901502
0.0027802554
-0.00062959006
0.0026478262
-0.00040183416
0.0025174667
0.0023974602
-0.00019972761
0.0012200064
0.016432207
-3.8389551e-05
0.015247529
-0.0010455391
0.015035396
-0.0011391062
0.014700918
-0.00056322855
0.013790392
-4.836889e-05
0.012466338
0.00072312286
0.011418813
0.001331619
0.010747336
0.0010365115
0.010411246
-8.3997467e-05
0.010333631
-0.0010310595
0.010517187
-0.0013352832
0.010722405
-0.00081611595
0.010307171
-0.00057265485
0.0093284122
-0.00069202017
0.0081202173
-0.00068051787
0.0073186557
-0.00047066419
0.0070757628
-0.00030933354
0.0070943461
-0.00039165716
0.0070787241
-0.00071186454
0.0068985577
-0.0012284577
0.0065023408
-0.0017824532
0.0059388647
-0.0022176333
0.0053392493
-0.0024694677
0.0047943274
-0.0025177566
0.004353759
-0.0023808942
0.0040225934
-0.0021120861
0.003769804
-0.0017864031
0.0035708367
-0.0014470123
0.0033923424
-0.0011322016
0.0032348274
-0.00084617797
0.0030816107
-0.00059433896
0.0029335111
-0.00037249108
0.0027952407
-0.00018393101
0.0026615523
0.0025349113
-2.3408863e-05
0.0011901934
0.016568813
-2.5489159e-05
0.015232402
-0.00097947058
0.014824741
-0.0011070296
0.014656849
-0.00063366459
0.014089875
-8.3105124e-05
0.012984787
0.00075840617
0.011891732
0.0013467892
0.010942041
0.0010640309
0.01016488
6.3350479e-05
0.009760332
-0.00074905659
0.009892047
-0.0012107247
0.010286347
-0.0010014569
0.010190205
-0.0010232724
0.0093461406
-0.00092272969
0.00833311
-0.00044212441
0.0076915258
-8.9873325e-06
0.007409356
-1.3346652e-05
0.0072803671
-0.00033030127
0.0070876486
-0.0010114726
0.0067200656
-0.0018168262
0.0062183036
-0.0024522508
0.0056682935
-0.0027891105
0.0051567229
-0.0028222375
0.0047659863
-0.0026092855
0.0044741841
-0.0022659543
0.0042451027
-0.0018848168
0.0040387421
-0.001514006
0.0038388978
-0.0011738164
0.0036428965
-0.00086700291
0.0034597681
-0.00059644803
0.003283109
-0.00035749549
0.0031160932
-0.00014883194
0.0029635866
2.6131207e-05
0.0028178974
0.0026815582
0.00017065008
0.001121219
0.016716281
-2.4851489e-05
0.015309301
-0.00088797046
0.014743397
-0.0010242075
0.014601136
-0.00064113342
0.014273936
-0.0001104719
0.013450543
0.00069360758
0.01244977
0.001226818
0.011308235
0.0010127934
0.010157815
0.00023771269
0.0094363407
-0.00045419545
0.009460316
-0.0010082189
0.0097987066
-0.0011646198
0.0098555414
-0.0013401399
0.0093100547
-0.00094369333
0.0085603784
-0.00014255355
0.0080276788
0.0002031147
0.0076410159
0.00011829756
0.007298879
-0.0004934892
0.0068885872
-0.0014053019
0.0063734882
-0.00227862
0.0059000587
-0.0028294658
0.0054923166
-0.0029416747
0.0052003465
-0.0027288516
0.0050087702
-0.0023695232
0.0048306826
-0.0019883536
0.0046505166
-0.001620631
0.0044361366
-0.0012751434
0.0042025868
-0.00096262172
0.0039661774
-0.00066981655
0.003728963
-0.00040224959
0.0035118583
-0.00016240354
0.0033127439
4.8670527e-05
0.0031307422
0.00022574834
0.002960966
0.002807236
0.00036389653
0.0010163396
0.016849156
-4.5274413e-05
0.0154723
-0.00078730166
0.014767828
-0.000917169
0.01457916
-0.00059291484
0.014372272
-0.0001025869
0.013813588
0.00058588027
0.013005838
0.0010205245
0.011792414
0.00088108952
0.01038419
0.00036081236
0.0094201523
-0.00019905863
0.0092146647
-0.00074293289
0.0093860468
-0.0012479948
0.0094979974
-0.0014135856
0.0092131679
-0.00074427178
0.0087151061
7.5503644e-05
0.0082437741
0.00028895984
0.0077412963
-1.2835794e-05
0.0071317906
-0.00083140342
0.0065395228
-0.0017987713
0.0059887215
-0.0024982951
0.005622422
-0.0027517136
0.0054805631
-0.0026276111
0.0054200359
-0.0023437655
0.0053606879
-0.0020305856
0.0052549704
-0.0017278276
0.005068489
-0.0014478135
0.0048190133
-0.0011700335
0.0045398527
-0.00088520673
0.0042591521
-0.00059919768
0.0039859556
-0.00032324956
0.0037350594
-7.2866279e-05
0.0035050923
0.00014520707
0.00329127
0.00032525426
0.0030908385
0.002903416
0.00047113868
0.00092037252
0.017000048
-7.4854288e-05
0.015641411
-0.00070216711
0.014916974
-0.00078986488
0.01462239
-0.00048848906
0.014390887
-5.0273578e-05
0.014015513
0.0004582315
0.013451811
0.0007574888
0.012299386
0.00068719442
0.0107651
0.00040245183
0.0096489131
-1.644281e-05
0.0091587758
-0.00057161565
0.0091171934
-0.0011972964
0.0091899236
-0.0012230218
0.0090694185
-0.00048681044
0.0088003871
3.8919889e-05
0.0083553585
0.000133747
0.0076578382
-0.00032644091
0.0068808168
-0.0011699973
0.0061418169
-0.0019269258
0.0056428511
-0.0022420991
0.0054770632
-0.0022095099
0.005521449
-0.0020410923
0.0056078355
-0.0018474427
0.0056065019
-0.0016849161
0.005511618
-0.0015299654
0.0053163232
-0.0013577775
0.0050655671
-0.0011421505
0.004777892
-0.00088440934
0.0044798361
-0.00061081391
0.0041899369
-0.00033742162
0.0039124042
-8.6710753e-05
0.0036565149
0.00013047549
0.0034121601
0.00030536271
0.0031812631
0.0029550767
0.00045365877
0.00086056373
0.017136898
-0.00010422228
0.015811876
-0.00062985481
0.015157965
-0.00066164103
0.014728657
-0.00034145869
0.014337531
1.8150683e-05
0.014002963
0.00034620431
0.013648406
0.0004906292
0.012685132
0.00048255519
0.011244206
0.00037830336
0.010011103
0.00012040696
0.0093070094
-0.00043532701
0.0090599715
-0.0010144372
0.008999409
-0.00090158621
0.0089714116
-0.00027366988
0.0088374671
-5.9914544e-05
0.0083473326
-0.00018064468
0.0075180141
-0.00076293955
0.0065605948
-0.0014127452
0.0057957662
-0.0016952024
0.0054452588
-0.0016560492
0.0054141866
-0.0014938607
0.0055275805
-0.0013739991
0.0056190107
-0.0013544916
0.0056216107
-0.0013813891
0.0055234847
-0.0013759288
0.0053333157
-0.0012944794
0.0051029105
-0.0011280932
0.0048384937
-0.00090160094
0.0045562978
-0.0006502825
0.0042767204
-0.00040471072
0.0039965234
-0.00018423098
0.0037285988
-2.6740114e-06
0.0034703095
0.0001444511
0.0032181668
0.0029702165
0.00025539966
0.00078955643
0.017238557
-0.00012230029
0.01594293
-0.00058022728
0.015432302
-0.00055008839
0.014908496
-0.0001881429
0.014268448
0.00011381385
0.013802779
0.00030015262
0.013472851
0.00027943272
0.012792786
0.00031696896
0.011637241
0.00029671801
0.010459902
0.00012468279
0.0096261743
-0.00035061061
0.0091982779
-0.0007712653
0.0089704408
-0.00059819123
0.0089899248
-0.00021800785
0.0088548897
-0.00024409566
0.0082632102
-0.00058733024
0.0073349786
-0.0011380489
0.0063445866
-0.0013833432
0.0056823277
-0.0012620006
0.005396517
-0.00099389405
0.0053932752
-0.00083477929
0.0054531782
-0.00085294186
0.0054623278
-0.00097448981
0.0054091966
-0.0010987252
0.0052951865
-0.0011591685
0.0051252388
-0.0011208676
0.0049304634
-0.0010024895
0.004711047
-0.00083050449
0.0044641306
-0.00064051509
0.0042060129
-0.00045905212
0.0039415966
-0.00030372914
0.0036848775
-0.00017284742
0.0034269674
-7.3828398e-05
0.0031795722
0.0029365216
-6.2266818e-06
0.00072925745
0.017317869
-0.00011407359
0.016027739
-0.00054380902
0.015678497
-0.00046603441
0.015175629
-5.4865153e-05
0.01423683
0.00025395066
0.013474076
0.00031513326
0.013022826
0.00016435976
0.012594927
0.00017865853
0.011813123
0.00018450991
0.010893072
3.1792935e-05
0.010073067
-0.00030044782
0.0094319258
-0.0005335108
0.0091259012
-0.00037025132
0.0091188826
-0.00029521353
0.0088853374
-0.00054372835
0.0081907052
-0.0010495704
0.0072334662
-0.0013580548
0.0063371872
-0.0012132483
0.0057700246
-0.00079049506
0.0055154221
-0.00044537495
0.0054191851
-0.00035508626
0.005331341
-0.00045720335
0.0052306266
-0.00063671777
0.0051055022
-0.000793925
0.0049596332
-0.00086591657
0.0047964284
-0.00085095169
0.0046233501
-0.00077237558
0.0044286989
-0.00067023439
0.0042150592
-0.00056681038
0.0039858709
-0.00048109526
0.003756551
-0.00039745981
0.0035117197
-0.0003303783
0.0032790048
-0.00028261232
0.0030578301
0.0028461842
-0.00025778524
0.00068853449
0.017387993
-9.0185386e-05
0.016056461
-0.00051806221
0.015850055
-0.00041594599
0.015515633
3.2833571e-05
0.014308298
0.00037039724
0.013153292
0.00037895189
0.012410935
0.00014164916
0.012116993
9.5265984e-05
0.011758417
6.0743773e-05
0.011187406
-5.8000889e-05
0.010462981
-0.00026382902
0.0097739132
-0.00034759299
0.0094292157
-0.00025878738
0.009305829
-0.00043938486
0.0089268164
-0.00091070869
0.0081962662
-0.001419942
0.0072906972
-0.0014469682
0.0065587931
-0.00097852348
0.0060533561
-0.00042554279
0.0057679995
-0.00013118527
0.0055445114
-0.00011667573
0.0052861486
-0.00021532672
0.0050438459
-0.00037822919
0.0048202576
-0.00050790385
0.0046196614
-0.00057057379
0.0044272131
-0.00057239294
0.0042384423
-0.00053574649
0.0040373074
-0.00049009443
0.0038359458
-0.00045116938
0.0036345976
-0.00041477324
0.0034342094
-0.0003908414
0.0032371669
-0.0003814947
0.0030561363
-0.00038146941
0.0028828937
0.0027193218
-0.00039435336
0.00064797044
0.017469653
-6.1915239e-05
0.016010187
-0.00048874229
0.015887303
-0.00039827046
0.015876762
6.820411e-05
0.014525752
0.00044263553
0.012956429
0.00044480278
0.011814008
0.00018058077
0.011510187
7.6311104e-05
0.011520464
-2.6416314e-05
0.011298525
-0.00015472102
0.010732308
-0.00025056857
0.010124875
-0.00021845401
0.0097389538
-0.00027135719
0.0094611512
-0.00064729755
0.0090037777
-0.0012865814
0.0082837359
-0.0016582335
0.0075378946
-0.0014009961
0.0069184441
-0.00079044537
0.0065180146
-0.00025308822
0.0061679522
-4.7487216e-05
0.0057723526
-4.8392952e-05
0.0053801656
-0.00014157687
0.005005356
-0.00026281081
0.0046658039
-0.00033795844
0.0043763119
-0.00035289193
0.0040983641
-0.00033279505
0.003848334
-0.00030457188
0.0036258655
-0.00028351944
0.0034284555
-0.00027240232
0.003250688
-0.00026725808
0.0030876163
-0.00027215054
0.0029446093
-0.00028521155
0.0028209992
-0.00031223925
0.0027073949
0.0026008154
-0.00035289824
0.0006056926
0.01756541
-2.1196981e-05
0.01589846
-0.00044756449
0.015789223
-0.00040608158
0.016187435
4.623716e-05
0.014887164
0.00045418515
0.01293254
0.00053434042
0.011418919
0.00027977772
0.01095797
0.00010105873
0.011144857
-5.7861192e-05
0.01120196
-0.00018891471
0.010842258
-0.00020803266
0.010360335
-0.00013214754
0.0099523739
-0.00034734981
0.009571721
-0.00088116772
0.0090720205
-0.0015602338
0.0084186943
-0.0017290248
0.0078478982
-0.0012955893
0.0074193949
-0.00065710876
0.0070857719
-0.00025242905
0.0066470899
-0.00011806367
0.006131354
-0.00014969521
0.0056239297
-0.00023087798
0.005118128
-0.00029086458
0.0046534063
-0.00029098416
0.0042490429
-0.0002638008
0.0038892027
-0.0002215734
0.0035724034
-0.00017810042
0.0033119146
-0.00013499104
0.0031057341
-9.7911882e-05
0.0029467569
-7.418028e-05
0.002823585
-6.7066999e-05
0.0027265463
-8.0344038e-05
0.0026517303
-0.00011228169
0.0025862024
0.0025271269
-0.00016657686
0.00057457604
0.017669996
2.0067071e-05
0.015779339
-0.00037404537
0.015586781
-0.00042047212
0.016403424
-3.7739684e-05
0.015340312
0.00038270125
0.013163145
0.00055238649
0.011255332
0.0003898711
0.010562234
0.00016156434
0.010751352
-4.3773142e-05
0.010934967
-0.00017518887
0.010825562
-0.00014556523
0.010443762
-0.00012530698
0.010009183
-0.00044318513
0.0095717513
-0.0010838477
0.0090347623
-0.0016822974
0.0085189324
-0.0016423321
0.008162544
-0.0011287827
0.0079291396
-0.00061279971
0.0076297097
-0.0003683298
0.0071607629
-0.00033868996
0.0065957675
-0.00040697023
0.0059796014
-0.00047402357
0.0053659518
-0.00048766993
0.0047968586
-0.00044209004
0.0042827467
-0.00036064327
0.003831529
-0.00025047022
0.0034468457
-0.00012209507
0.0031548334
8.5597936e-06
0.0029482396
0.00012141366
0.0028098261
0.00019765456
0.0027199485
0.00023123273
0.0026544731
0.00022777339
0.0026065629
0.00018549667
0.0025695465
0.002525118
0.0001213049
0.00053960066
0.017809288
0.00011551509
0.015674516
-0.00027653897
0.015320806
-0.00042557049
0.016485913
-0.00015364481
0.015816723
0.00030944489
0.013572633
0.00057902445
0.011373213
0.00049264774
0.010425847
0.00027439217
0.010389981
2.3161031e-05
0.010597503
-0.00011146756
0.010650278
-6.8462558e-05
0.010388586
-0.00015265041
0.0099214889
-0.0005315869
0.0094210204
-0.0012098648
0.0088740555
-0.0016191452
0.0085182787
-0.0014296545
0.0083984792
-0.00094622421
0.0083219311
-0.00063141185
0.0080859999
-0.00057070181
0.0076664223
-0.00066071633
0.0070870849
-0.00080336049
0.006442817
-0.00088604069
0.0057570872
-0.00086209001
0.0050657876
-0.00074236604
0.0044460483
-0.00055121499
0.0039157655
-0.000317031
0.0035040181
-7.4972712e-05
0.003211393
0.00014545095
0.003012049
0.00031924633
0.0028853067
0.00043756672
0.0028013391
0.00049151064
0.0027382185
0.00049517208
0.0026819499
0.00045063068
0.0026312155
0.0025757362
0.00037592051
0.00049834701
0.017975264
0.00020543493
0.015614509
-0.00015831342
0.015026489
-0.00041061521
0.016411329
-0.00027759724
0.016262284
0.00015507563
0.014216052
0.00050496692
0.011758481
0.00056580484
0.010460642
0.00039198987
0.010162412
0.00011645236
0.010272341
-2.2041649e-05
0.010388653
-1.3756438e-05
0.010220784
-0.00016014327
0.0097321853
-0.0006116689
0.0091394393
-0.0011851705
0.0085872358
-0.0014102081
0.0083873505
-0.0011320279
0.0084718137
-0.00077351142
0.0085282141
-0.00066883833
0.0083835575
-0.00080555556
0.0080710273
-0.0010933386
0.0075640797
-0.0012874712
0.0068769951
-0.0013405522
0.006147015
-0.0012444564
0.0053903327
-0.0010418279
0.0047499261
-0.00074303793
0.0041924845
-0.00039658644
0.0037845391
-4.5451706e-05
0.0034928634
0.00025887942
0.0032885528
0.00048166575
0.0031437446
0.00062533646
0.003040434
0.0006860798
0.0029467556
0.00068091508
0.0028577345
0.00061724502
0.0027681441
0.0026746566
0.00051852033
0.00045997612
0.018161089
0.00028200328
0.015629849
-2.8612234e-05
0.014729087
-0.00036275834
0.01619112
-0.0003872731
0.016594962
4.0108123e-05
0.01497719
0.00041938604
0.012367748
0.00054076015
0.010704125
0.00043969142
0.010079392
0.00019078573
0.010038415
3.9587237e-05
0.010142722
-1.5484229e-05
0.010004965
-0.0002017787
0.0094796214
-0.0006459952
0.0087689946
-0.0010471197
0.0082406694
-0.0010695207
0.008128886
-0.0007691591
0.0083434918
-0.00057573015
0.0084896783
-0.00071038443
0.008500674
-0.0010722471
0.0082776736
-0.0014120537
0.0077950889
-0.0016614359
0.0071892488
-0.0017453571
0.0064866341
-0.0016212266
0.0057520168
-0.0013071527
0.0051208102
-0.0008994033
0.0046063185
-0.00045163924
0.0042160185
-1.9127413e-05
0.0039198946
0.00032585964
0.0036962812
0.00055934205
0.0035135871
0.00071077222
0.0033619606
0.00076331113
0.003225948
0.00074083415
0.0030885163
0.00065361464
0.0029437851
0.0028009228
0.00052743809
0.00041326972
0.018350546
0.00034174206
0.015717233
0.00010459607
0.014462149
-0.00029092854
0.015840279
-0.00046055711
0.016770632
-0.00011919936
0.015726412
0.0003203358
0.013113633
0.00051741805
0.011113241
0.00049044347
0.010170234
0.00025929645
0.0099678596
8.9672941e-05
0.010005838
-1.4750607e-05
0.0098157488
-0.0002312986
0.009213968
-0.0006377721
0.0084244127
-0.00084329783
0.0078973595
-0.00067780746
0.0078023685
-0.00040063803
0.008014755
-0.00040779319
0.008263652
-0.0007387759
0.0083528559
-0.001172165
0.0081475707
-0.0016429016
0.007818768
-0.0019931924
0.0073213674
-0.0020865288
0.0067056817
-0.0019016533
0.0060676826
-0.0014983157
0.0055157087
-0.00099069848
0.0050528506
-0.00046027205
0.0046852463
1.4950823e-05
0.0043813713
0.00036662902
0.0041345868
0.0005788372
0.0039197142
0.00069367628
0.0037168249
0.0007036584
0.003529216
0.00064091012
0.0033346844
0.0005179442
0.0031291409
0.0029227411
0.00036485221
0.00037404149
0.018517577
0.00038943729
0.015870901
0.00023851142
0.014259509
-0.00017038554
0.01539143
-0.00047182096
0.016732125
-0.00025929498
0.01636884
0.00015169822
0.013965419
0.00042972532
0.011649307
0.0004676242
0.010416126
0.00029002822
0.010047776
0.00011736718
0.0099889747
-4.261301e-05
0.009725609
-0.00027863884
0.0090044562
-0.00061334026
0.0081679553
-0.00062527748
0.0076061522
-0.00029902189
0.00745051
-0.0001286841
0.0076147557
-0.00021143626
0.0078162264
-0.0006130329
0.0079021744
-0.0012353902
0.0078397619
-0.0018169415
0.0076325524
-0.0022212068
0.00725745
-0.0022837662
0.0067696441
-0.0020326333
0.0062760816
-0.0015315295
0.0058065092
-0.00096089429
0.0054374955
-0.00040048947
0.00509489
4.3582351e-05
0.004805824
0.00034169777
0.0045371287
0.00049821592
0.0042870512
0.00056458055
0.0040287058
0.00053869847
0.0037832581
0.00043896557
0.0035370992
0.00028085404
0.0032778225
0.0030224509
9.2609817e-05
0.00034476861
0.018655163
0.00042459988
0.016081402
0.00036183619
0.014136426
-7.8932785e-05
0.014915018
-0.00047372081
0.016500413
-0.00039646157
0.016745182
4.4410914e-05
0.014758755
0.0003255561
0.012303473
0.00045850687
0.01078502
0.0003077615
0.010288158
0.0001159116
0.010112351
-8.4116954e-05
0.0097357858
-0.00035769742
0.008922372
-0.00058164159
0.0080269101
-0.00042172317
0.0074136611
2.1445892e-05
0.0071551998
0.00020659358
0.0071958209
4.7001676e-05
0.0072552958
-0.00050761834
0.0073653263
-0.0012343415
0.0073731776
-0.0018854018
0.0072681396
-0.0022897776
0.0070050287
-0.0022980677
0.0066656718
-0.0019595165
0.0063136792
-0.0014246317
0.0059722662
-0.00082992981
0.0056778754
-0.00031533744
0.005386093
5.9616394e-05
0.0051093179
0.00028690326
0.0048183689
0.00039459955
0.0045347832
0.00039598959
0.0042440042
0.0002974573
0.0039653518
0.00012331072
0.003683373
-9.107001e-05
0.003385918
0.0030849237
-0.00032161874
0.00032078397
0.018763421
0.00043821946
0.016318535
0.00046302252
0.01410846
5.4747041e-05
0.014434266
-0.00038296029
0.016038051
-0.00046104107
0.016889806
-0.00010955542
0.01544977
0.00024479832
0.012949414
0.00038834061
0.01131271
0.00029018721
0.010641777
8.3193216e-05
0.010345736
-0.00015983225
0.0098724399
-0.00045313476
0.0089970227
-0.00057378605
0.0080435842
-0.00025978845
0.0073541141
0.00020579237
0.0069840066
0.00045477012
0.0067699677
0.00021817037
0.0067619504
-0.00040486316
0.0068106344
-0.001194757
0.0068331314
-0.0018531714
0.0067634727
-0.002196797
0.0066029797
-0.0021041586
0.0064065473
-0.0017272549
0.0062114225
-0.0011807529
0.0059895999
-0.00063709585
0.0057694483
-0.0001983384
0.0055155314
9.024814e-05
0.005243699
0.00021152291
0.0049611489
0.0002348271
0.0046582998
0.00014105693
0.0043566431
-2.5872044e-05
0.0040325227
-0.00025024543
0.0037170309
-0.00050027417
0.0033958994
0.0030746592
-0.00074884112
0.00031269847
0.018846716
0.00044473065
0.016574113
0.00053997681
0.014192218
0.00017979855
0.013991388
-0.00032813722
0.015500673
-0.00051443538
0.016772735
-0.00027110783
0.015894448
0.00012738408
0.013577125
0.00033483722
0.01184129
0.00026100974
0.011095501
1.8843016e-05
0.010689703
-0.00027546825
0.010132022
-0.00057259715
0.0092395307
-0.00059256282
0.0082399355
-0.00013881594
0.0074397511
0.00039327418
0.0069087886
0.00056713174
0.0065207987
0.00028510292
0.0063717943
-0.00034619371
0.0063102321
-0.0011213608
0.0062922426
-0.0017144535
0.0062058604
-0.0019426105
0.0061560062
-0.0018054664
0.0061064279
-0.0013880948
0.0060190234
-0.00087101316
0.005880117
-0.00040162406
0.005711632
-7.026674e-05
0.0054854932
9.6910482e-05
0.0052324781
0.00014757543
0.0049577607
6.3276922e-05
0.004657986
-0.00010386881
0.0043248445
-0.00035999558
0.0039922805
-0.00063504229
0.0036550751
-0.00090933278
0.0033280657
0.0030070692
-0.0011600349
0.00030497534
0.018898219
0.00043581381
0.016822431
0.00059160588
0.014400067
0.00029673281
0.013640978
-0.00019832448
0.014889368
-0.00049702662
0.016432193
-0.00037865205
0.01609572
8.1891904e-05
0.014078044
0.00026204151
0.012374377
0.00020944176
0.011577279
-6.4861696e-05
0.011074983
-0.000408715
0.01048836
-0.00071138738
0.0096320842
-0.00062607694
0.0085827195
-6.3573239e-05
0.0076757915
0.00045317241
0.0069927021
0.00058312278
0.006473866
0.00028927722
0.0061404742
-0.0003352454
0.0059346165
-0.0010350277
0.0058181332
-0.0015413911
0.0057522086
-0.0016624664
0.0057713982
-0.0014464782
0.0057987488
-0.0010105154
0.0057730047
-0.00054632349
0.005689441
-0.00017764524
0.0055415631
3.7182666e-05
0.0053361145
0.00012065725
0.0051124943
5.7231196e-05
0.0048385002
-0.00011716556
0.0045246862
-0.00039192943
0.0042019141
-0.00069405474
0.0038586744
-0.0010085753
0.0035259173
-0.0012855711
0.0032079087
0.0029117485
-0.0015065561
0.00028429096
0.01889624
0.00041398213
0.017047489
0.00060898401
0.014729116
0.00039352484
0.013432388
-0.00012366764
0.014324799
-0.0004877686
0.015938142
-0.00044338204
0.016015606
2.510886e-05
0.014411767
0.00020903368
0.012844194
0.00015349789
0.012036155
-0.00014817144
0.011455849
-0.00054289632
0.010889734
-0.00083995423
0.010117247
-0.00066763558
0.0090557776
-4.4712397e-05
0.0080661732
0.00042827168
0.0072374257
0.00053585106
0.0066067574
0.000252214
0.0060860179
-0.00032082968
0.0057286802
-0.00097547636
0.0055296162
-0.0013551231
0.0054633879
-0.0013737762
0.0054915253
-0.0010772419
0.0055366902
-0.00064067975
0.0055354956
-0.00024257164
0.0054600831
1.6988574e-05
0.0053176455
0.00013928746
0.0051390236
0.00011743391
0.0049044432
-4.6759454e-05
0.0046332199
-0.00031734792
0.0043235256