/*--------------------------------*- C++ -*----------------------------------*\
| =========                 |                                                 |
| \\      /  F ield         | OpenFOAM: The Open Source CFD Toolbox           |
|  \\    /   O peration     | Version:  2406                                  |
|   \\  /    A nd           | Website:  www.openfoam.com                      |
|    \\/     M anipulation  |                                                 |
\*---------------------------------------------------------------------------*/
FoamFile
{
    version     2.0;
    format      ascii;
    arch        "LSB;label=32;scalar=64";
    class       surfaceScalarField;
    location    "10";
    object      phi_0;
}
// * * * * * * * * * * * * * * * * * * * * * * * * * * * * * * * * * * * * * //

dimensions      [1 0 -1 0 0 0 0];

oriented        oriented;

internalField   nonuniform List<scalar> 
60371
(
-9.8846048e-05
0.013175283
-0.00016324303
0.012379104
-0.0002022963
0.011822398
-0.0002474346
0.011383877
-0.00029541844
0.011021867
-0.0002975156
0.010607462
-0.0002799001
0.010302385
-0.00030984837
0.010143806
-0.00043418296
0.010041144
-0.00054719562
0.0098150653
-0.00061026046
0.0093887363
-0.00064518839
0.0088234745
-0.00065847648
0.0082779876
-0.00065516721
0.0078337334
-0.00065675855
0.0074458951
-0.00063962868
0.0071147717
-0.00056610907
0.0068639607
-0.00052817839
0.0066973116
-0.00060838
0.0065633159
-0.00072394526
0.0064317804
-0.00080292988
0.006276587
-0.00087013745
0.006076784
-0.00092633364
0.0058372949
-0.00091747118
0.0055730505
-0.00087213399
0.0053110705
-0.00084072378
0.0050714999
-0.00083992256
0.0048559293
-0.00085465545
0.0046592238
-0.00086416134
0.004481846
-0.00087018725
0.0043143204
-0.00088747296
0.0041517368
-0.00091566937
0.0039891045
-0.00094444117
0.0038219626
-0.00096426886
0.0036519694
-0.00097556583
0.003484027
-0.00098443689
0.0033233463
-0.00099830827
0.0031733191
-0.0010215483
0.0030310599
-0.0010511983
0.0028924165
-0.001079945
0.0027557475
-0.0011019984
0.0026223336
-0.0011139577
0.0024944211
-0.0011150142
0.0023732353
-0.0011062918
0.0022598654
-0.0010903462
0.0021549256
-0.0010690092
0.0020595333
0.0019752159
-0.0010439439
-0.00014195574
0.013246999
-0.00012609921
0.012437915
-0.00011382585
0.011912648
-0.00014887428
0.011438568
-0.00020827485
0.011111125
-0.00015682631
0.010755919
-6.4748401e-05
0.010449542
-8.448354e-05
0.010185213
-0.00025934442
0.0099661568
-0.00050193914
0.0097225834
-0.00067671557
0.0093672459
-0.00075590054
0.0088524955
-0.00076235421
0.0083635487
-0.00072034686
0.0079643199
-0.00066087635
0.0075917022
-0.00053732481
0.0072896862
-0.00032991947
0.0070077958
-0.0002479606
0.0067766434
-0.00032716745
0.006605212
-0.00046716633
0.0064327886
-0.00064241987
0.0062341866
-0.0008198772
0.0060226971
-0.00096637599
0.0057981435
-0.00099331257
0.005562846
-0.00095257584
0.0053085424
-0.00092072336
0.0050631878
-0.00091462455
0.0048387402
-0.00089350741
0.0046264666
-0.00089812711
0.0044251119
-0.00093202319
0.0042365698
-0.0010116537
0.0040584743
-0.0011109691
0.0038898176
-0.0011922053
0.0037232973
-0.0012429527
0.0035559316
-0.0012657638
0.0033904238
-0.0012801726
0.0032295039
-0.001314995
0.0030761957
-0.001382716
0.0029323152
-0.0014687129
0.0027987219
-0.0015449704
0.0026759396
-0.0015878366
0.0025640364
-0.0015916411
0.0024619502
-0.0015685327
0.0023676721
-0.0015335364
0.0022794958
-0.0014934675
0.002197244
-0.0014452646
0.002119698
0.0020456764
-0.0013847945
-0.00017878968
0.013323988
-0.00013279886
0.012535418
-9.8087648e-05
0.012074825
-0.00011644876
0.011611147
-0.00015074173
0.011286093
-6.7283841e-05
0.01092338
1.8925614e-06
0.010566988
-2.8980433e-05
0.010178089
-0.00023595814
0.0098390408
-0.00057014892
0.0095672652
-0.00080134613
0.0093130741
-0.00085137346
0.0089631525
-0.00081223269
0.0085473261
-0.00074143992
0.0080927468
-0.00062592049
0.0077251777
-0.00049367675
0.0074825773
-0.0002549967
0.0072346002
-0.00016896563
0.006951651
-0.00027709997
0.0066675944
-0.00045893817
0.0063833281
-0.00067006122
0.0061261905
-0.00087337104
0.0059230182
-0.0010123331
0.0057446432
-0.0010764658
0.0055646846
-0.0010318957
0.0053589652
-0.00097613485
0.0051344727
-0.00095926176
0.0048852553
-0.00092336725
0.0046299925
-0.00091996776
0.004384168
-0.00096431713
0.0041540166
-0.0010723885
0.0039416435
-0.0012031151
0.0037468657
-0.0013159707
0.0035660563
-0.0013987085
0.0033976064
-0.0014480095
0.0032445177
-0.0014803067
0.0031085497
-0.0015189613
0.0029901689
-0.0015653766
0.0028853942
-0.0015967783
0.0027921501
-0.0015916738
0.0027071038
-0.0015459159
0.0026264738
-0.0014757285
0.0025467214
-0.0014036376
0.0024650494
-0.0013442092
0.0023804297
-0.0013009592
0.0022950269
-0.0012693217
0.0022084262
0.0021211462
-0.0012353726
-0.00020079269
0.013411693
-0.00014937789
0.012649276
-0.00010517238
0.012240012
-0.00012152213
0.011798589
-0.0001499761
0.011509442
-6.2917112e-05
0.011144565
1.1475859e-05
0.010683918
-2.6017888e-06
0.010142042
-0.00019401606
0.0096980152
-0.00054599458
0.0093975215
-0.00080727828
0.0092286409
-0.00089329631
0.0090333947
-0.00090240942
0.0086676255
-0.00075997281
0.0082572458
-0.00053048617
0.0079531386
-0.00039880283
0.007684177
-0.00021413172
0.0073666641
-0.00020343734
0.0070034243
-0.00035543926
0.0066694591
-0.00050879607
0.0063965299
-0.00063738491
0.0061713496
-0.00079595705
0.0059581289
-0.0009137618
0.0057597592
-0.0010267027
0.0055657828
-0.0010504452
0.0053395756
-0.0011150714
0.0050799778
-0.0011640159
0.0048088448
-0.0011494878
0.0045511267
-0.0011552255
0.0043083168
-0.0011907033
0.0040864702
-0.0012762486
0.0038923468
-0.0013863852
0.0037189279
-0.0014742189
0.0035625937
-0.0015031728
0.0034237473
-0.0014778149
0.0033009715
-0.0014338459
0.0031907885
-0.0013975342
0.0030913033
-0.0013639479
0.0029960362
-0.0013214165
0.0029038229
-0.0012694584
0.0028107682
-0.0012188525
0.0027136401
-0.0011812125
0.0026119552
-0.0011654909
0.0025080512
-0.0011701135
0.0024043621
-0.001185917
0.0023040668
-0.0011963264
0.0022084826
0.0021175463
-0.0011891615
-0.00020216372
0.013514045
-0.00014294662
0.012742716
-8.0007314e-05
0.012332829
-8.0513325e-05
0.011850697
-0.00011310976
0.011557292
-6.847401e-05
0.011199589
-1.3740857e-05
0.010710017
-2.5736791e-05
0.010121541
-0.00016734719
0.009613462
-0.00044985067
0.0092798992
-0.00070747322
0.009132667
-0.00088587932
0.0089480741
-0.0008976101
0.008630397
-0.00065349402
0.0083361731
-0.00044408789
0.0080531101
-0.00039722248
0.0077445616
-0.00029425863
0.0074273424
-0.00029525869
0.0070969393
-0.00039698129
0.0067777168
-0.00049517756
0.0064910926
-0.00060720115
0.0062394383
-0.00074089966
0.0059771876
-0.00084729394
0.005736957
-0.0010179422
0.0054978821
-0.0011382201
0.0052322065
-0.0012624532
0.0049619247
-0.001290708
0.0047165256
-0.0012736866
0.0045092122
-0.0012721699
0.0043188418
-0.0012772149
0.0041339688
-0.001343265
0.0039528358
-0.0014185004
0.0037828072
-0.0014311809
0.0036344174
-0.0013703382
0.0035084253
-0.0012807112
0.0033970324
-0.001204003
0.0032914732
-0.0011502536
0.0031882381
-0.0011123056
0.0030818563
-0.0010898824
0.0029699601
-0.0010911467
0.0028517488
-0.0011161095
0.0027308303
-0.0011539041
0.0026130007
-0.0011852838
0.0025014976
-0.0011956576
0.0023970407
-0.0011787276
0.0022999901
-0.0011364603
0.0022096684
0.0021256867
-0.001078051
-0.00018568197
0.013600146
-0.00013634611
0.012763845
-5.8818889e-05
0.012340338
-3.7620407e-05
0.011800837
-6.8030149e-05
0.011479234
-8.1477887e-05
0.01113483
-5.4204618e-05
0.010690903
-6.0391866e-05
0.010109032
-0.00015642513
0.009601422
-0.00034374789
0.0092393141
-0.00061936702
0.0090029495
-0.00084787097
0.0087916854
-0.00078142672
0.0086013836
-0.00054067254
0.0083459732
-0.00042120047
0.0080384467
-0.00040214874
0.0077460612
-0.00034888205
0.0074798801
-0.00038841347
0.0071724839
-0.00045381099
0.0068739373
-0.00051530549
0.0065810602
-0.00064413315
0.0062568263
-0.00073088656
0.0059331013
-0.00086831084
0.0056497122
-0.0011129409
0.0053593731
-0.001261599
0.0050743727
-0.0013310918
0.0048309939
-0.0012812134
0.0046397197
-0.0012650316
0.0044787195
-0.0012971908
0.0043230802
-0.0013488264
0.0041754647
-0.0014111538
0.0040339939
-0.0013942653
0.0039050174
-0.0012816993
0.0037913928
-0.001139715
0.003685057
-0.0010267412
0.00357373
-0.00096846046
0.0034460507
-0.00096688074
0.0033026013
-0.0010120716
0.0031504295
-0.0010799525
0.0029994275
-0.001145237
0.0028560792
-0.0011904859
0.0027235938
-0.0012074457
0.0026041378
-0.0011899603
0.0024962705
-0.0011385194
0.0023966574
-0.0010629596
0.0023023146
-0.00098067857
0.0022110671
0.0021219307
-0.00091239122
-0.00017678479
0.013629777
-0.00014122137
0.012773086
-4.960228e-05
0.012338284
-6.9254122e-06
0.011741093
-2.7048887e-05
0.011344976
-8.6470888e-05
0.011037948
-0.0001062045
0.010715631
-9.8483081e-05
0.010178214
-0.00015232032
0.0096265827
-0.0003105675
0.0092052191
-0.00056201853
0.0089011716
-0.00072705394
0.008714432
-0.00066238812
0.0085759512
-0.00046524717
0.0082995699
-0.00037411159
0.0080383621
-0.00035428228
0.0078116968
-0.00037031916
0.0075686309
-0.00043851689
0.0072532453
-0.00051830654
0.0069403295
-0.00064348549
0.0066412613
-0.00077048507
0.0062918536
-0.00080682014
0.0059065619
-0.001010163
0.0055385102
-0.0012488801
0.0052121948
-0.0012965364
0.0049592186
-0.0012340454
0.0047849628
-0.0011413101
0.0046308598
-0.0011560201
0.0044716132
-0.001199408
0.0043323634
-0.0012490983
0.0042231318
-0.001247271
0.0041262497
-0.0011363845
0.0040254416
-0.0009851001
0.0039112032
-0.00089553965
0.0037767574
-0.00090853898
0.0036207091
-0.00099559965
0.003451482
-0.0011050029
0.0032791597
-0.0012017342
0.0031162072
-0.0012623676
0.0029669898
-0.001277963
0.0028338196
-0.0012501366
0.0027131393
-0.0011887422
0.0026014843
-0.0011086626
0.002495251
-0.0010294072
0.0023921071
-0.00096710344
0.0022905571
-0.00093415808
0.0021915303
0.0020968277
-0.00093361598
-0.00016985478
0.013657375
-0.00015286571
0.012784023
-5.2141535e-05
0.012341166
9.5525163e-06
0.011761782
9.377365e-06
0.011366888
-6.3632643e-05
0.011015251
-0.00014408569
0.010753469
-0.00015571334
0.0103253
-0.00016631323
0.0097439044
-0.00028937334
0.0091978355
-0.00047214116
0.0088582406
-0.00058285952
0.0087146017
-0.00057241377
0.0085619451
-0.00037214647
0.0083537129
-0.00029454193
0.0081133973
-0.00031333652
0.0078568124
-0.00040826544
0.007585307
-0.00048102186
0.0072883254
-0.00057720074
0.0069624619
-0.00080432589
0.0066548405
-0.00096929106
0.0063080191
-0.0010207665
0.0058920625
-0.0012063809
0.0054706996
-0.0012782729
0.0051745378
-0.0011536087
0.0049851583
-0.0010510501
0.0047959922
-0.001008736
0.0045932266
-0.0010009988
0.004441476
-0.00098130553
0.0043488567
-0.00099325171
0.0042792049
-0.00096341284
0.0041920288
-0.00087661391
0.0040726176
-0.00084099003
0.0039219207
-0.00092108316
0.003752489
-0.0010741236
0.0035811258
-0.0012167007
0.003418654
-0.0013076661
0.0032660916
-0.0013442657
0.0031268322
-0.0013325254
0.0029949063
-0.0012812291
0.002871274
-0.0012066382
0.0027521554
-0.0011312068
0.0026366438
-0.0010724436
0.0025250268
-0.0010347457
0.0024184656
-0.001017756
0.0023174285
-0.00101803
0.0022224379
0.0021333074
-0.0010294245
-0.00015270242
0.013616275
-0.00015778722
0.012816756
-5.6807429e-05
0.012477538
2.5850261e-05
0.011869205
4.6500165e-05
0.011427416
-3.7652436e-05
0.011063499
-0.00016151441
0.010865935
-0.00022210111
0.01053258
-0.00022760704
0.0099782691
-0.00027573432
0.0093748116
-0.00037177065
0.0089865015
-0.00048144591
0.0087622165
-0.00045569878
0.008598493
-0.00028975392
0.008477026
-0.00026018238
0.0082192462
-0.00032572646
0.0079194111
-0.000448821
0.00762517
-0.00054060804
0.0073376553
-0.00066979271
0.0070443678
-0.00096623076
0.0067341691
-0.0012051183
0.0063447319
-0.0012906725
0.0059011478
-0.0013072081
0.0055375566
-0.0011677542
0.0052967683
-0.0010494738
0.0050802749
-0.00098475922
0.0048458373
-0.00084081176
0.0046566626
-0.0007042649
0.0045322015
-0.00064720599
0.0044382318
-0.00070318963
0.0043432631
-0.00075164296
0.0042254888
-0.00079104409
0.004071583
-0.00089201041
0.0038937772
-0.0010476901
0.0037173286
-0.0012045008
0.0035605101
-0.0013105781
0.0034214859
-0.0013541239
0.003290899
-0.0013471337
0.0031638001
-0.0013062366
0.0030367684
-0.0012485004
0.0029117157
-0.0011878598
0.0027892953
-0.0011331939
0.0026719819
-0.0010910667
0.0025596048
-0.0010646749
0.0024521113
-0.0010524821
0.0023515385
-0.0010478619
0.0022567395
0.0021671919
-0.0010455799
-0.00012413307
0.01359838
-0.00013866543
0.012803621
-6.2314918e-05
0.012610835
2.1919044e-05
0.01210727
7.1212782e-05
0.011595207
2.5737787e-06
0.011140447
-0.00015862075
0.010924766
-0.00029278715
0.01070932
-0.00030766837
0.010273329
-0.00028393649
0.0096511334
-0.00031898267
0.0091482306
-0.00038647481
0.0088269295
-0.00031458333
0.0086631882
-0.00024303458
0.0084982036
-0.00025718269
0.0082023061
-0.00034321278
0.0079136133
-0.00047202524
0.0076465278
-0.00057362367
0.0073647474
-0.00077840432
0.0070581798
-0.0011958411
0.0067154628
-0.0014613695
0.0063355843
-0.0014284121
0.0060033936
-0.0012798651
0.005752247
-0.0011116491
0.0055042261
-0.0010397836
0.0052308737
-0.00087004268
0.004989303
-0.00058760295
0.0048073189
-0.00041846196
0.004665645
-0.00042135055
0.0045338274
-0.00054734365
0.0043887236
-0.00069344976
0.0042159172
-0.00083992527
0.0040238588
-0.00098632162
0.0038434825
-0.0011122854
0.0036905774
-0.0012137452
0.0035628832
-0.0012876325
0.003449163
-0.0013235064
0.0033365188
-0.001318608
0.0032153822
-0.0012861226
0.0030870541
-0.0012418021
0.002957771
-0.0011950992
0.002833271
-0.0011527845
0.0027166413
-0.0011173721
0.0026061987
-0.0010909302
0.0025003279
-0.0010743265
0.0023978393
-0.001065194
0.0022987613
0.0022040121
-0.0010590756
-9.4303381e-05
0.013667599
-9.5504154e-05
0.012935965
-4.8660561e-05
0.012731277
1.4075335e-05
0.012293103
7.4576555e-05
0.011819165
4.3894301e-05
0.011269577
-0.00012317215
0.010905445
-0.00032642394
0.010696163
-0.00038766975
0.010415105
-0.00032380403
0.0099104477
-0.00029567864
0.009350882
-0.00028530757
0.0089126927
-0.00021323387
0.0086697922
-0.00021394213
0.0084006611
-0.0002420403
0.0080755703
-0.00034573098
0.0077982734
-0.00049247499
0.0075643514
-0.00063536857
0.007277712
-0.00092760795
0.0069348395
-0.0013961603
0.0065984526
-0.0015403114
0.0063388405
-0.0013808938
0.0061235671
-0.0012388799
0.0058845135
-0.0011349829
0.0056048556
-0.0010070645
0.0053347642
-0.00070298247
0.0051369184
-0.00037300174
0.0049612037
-0.00026520641
0.0047724794
-0.00037027312
0.0045678388
-0.00059596472
0.0043536042
-0.00079093803
0.0041466363
-0.00091616576
0.0039695933
-0.00099688024
0.0038284429
-0.0010560573
0.0037159888
-0.0011191845
0.0036134636
-0.0011958017
0.0035074044
-0.0012680814
0.0033889791
-0.0013022328
0.0032572063
-0.0012883472
0.003122812
-0.0012447103
0.0029942311
-0.0011954091
0.0028749537
-0.001152614
0.0027635396
-0.0011234433
0.0026560466
-0.001110917
0.0025496691
-0.0011097635
0.0024438365
-0.0011104227
0.002339609
0.0022390166
-0.0011054582
-6.0287479e-05
0.013743327
-6.2033478e-05
0.013089494
-3.3282007e-05
0.012912646
1.0429355e-05
0.012417349
6.7353158e-05
0.011895434
6.0294774e-05
0.011327964
-8.5989593e-05
0.010858407
-0.00031300416
0.010596611
-0.00042281121
0.01042949
-0.00037940049
0.01010612
-0.00030906633
0.0095771049
-0.00020826934
0.0090613309
-0.00017160752
0.0086748516
-0.00019346975
0.0082946371
-0.00020542795
0.0079213274
-0.00031917428
0.0076304585
-0.00052229293
0.0073682402
-0.00072757805
0.0070877298
-0.0010552154
0.0068085904
-0.0014243798
0.0065891122
-0.0014487559
0.0064221314
-0.0012981778
0.0061818164
-0.0012324962
0.0058783941
-0.0011124079
0.0055985097
-0.00084219451
0.0053994712
-0.00049999771
0.0052414724
-0.00029081631
0.0050431393
-0.00031328685
0.0047974308
-0.00050738135
0.0045409795
-0.00073010044
0.0043190537
-0.00083150687
0.0041507791
-0.0008468815
0.0040189104
-0.00085935448
0.003903205
-0.00090725946
0.0037919844
-0.0010068936
0.0036733582
-0.0011482302
0.0035415698
-0.0012663071
0.0034017971
-0.0012976295
0.0032602879
-0.0012508592
0.0031224259
-0.0011768512
0.0029913518
-0.0011216835
0.0028682848
-0.0011014347
0.0027508186
-0.0011113927
0.0026369103
-0.0011364846
0.0025241476
-0.0011600822
0.0024126632
-0.001170498
0.0023030987
0.0021973582
-0.0011687768
-2.9428326e-05
0.013784669
-3.1392327e-05
0.013127337
-2.7709912e-05
0.012953398
-3.1614525e-06
0.012504689
5.5007519e-05
0.011916796
6.0285241e-05
0.011298205
-5.698569e-05
0.010822513
-0.0002665003
0.010557926
-0.00040631904
0.010461992
-0.00041941718
0.010272498
-0.00033788425
0.0098199653
-0.00019625081
0.0092738042
-0.00017557371
0.0087278509
-0.00018637875
0.0082238107
-0.00017765864
0.0078093812
-0.00031842849
0.00747447
-0.00055422774
0.0072046401
-0.00077161636
0.0069923728
-0.0010780078
0.0068396001
-0.0013413403
0.006660629
-0.0013778423
0.006414186
-0.0012936156
0.0061229255
-0.0012019361
0.0058328689
-0.00094380337
0.005620656
-0.00061419412
0.0054768509
-0.00038440712
0.0053168907
-0.00035216578
0.0050818115
-0.0004664598
0.0048022483
-0.00063349271
0.0045546145
-0.00072759863
0.0043788832
-0.00071911021
0.0042441723
-0.00069128091
0.0041124408
-0.00072333896
0.0039698305
-0.00083543193
0.003818067
-0.0010078597
0.0036650435
-0.00118149
0.0035135027
-0.0012742367
0.0033661068
-0.0012590966
0.0032229114
-0.0011823473
0.0030847128
-0.001113701
0.0029521976
-0.0010913399
0.0028267176
-0.0011136033
0.002707518
-0.0011605283
0.0025930885
-0.0012080501
0.0024810031
-0.00123931
0.0023703797
-0.001250739
0.0022623575
0.0021586439
-0.0012458322
-1.5456055e-05
0.013787335
-2.8033252e-06
0.013069636
-2.1437133e-05
0.012877114
-2.2476213e-05
0.012505307
3.4740297e-05
0.011912657
5.7792909e-05
0.011281251
-2.2316699e-05
0.010805636
-0.00020013582
0.010563092
-0.00035405954
0.010502222
-0.00042891935
0.01036524
-0.00036667317
0.010000952
-0.00024194814
0.0094682696
-0.00021623053
0.0088319697
-0.00019642017
0.0082395869
-0.00018511662
0.0077583227
-0.00032590838
0.0074038508
-0.00053384038
0.007155971
-0.00072572895
0.0070291103
-0.0010618547
0.006905333
-0.001310817
0.0066717412
-0.0013400361
0.0063698016
-0.0012453885
0.0060864696
-0.0010439909
0.0058469263
-0.00068059395
0.0056678045
-0.00043152931
0.0055018752
-0.00037520068
0.0052770366
-0.00047387555
0.005004162
-0.00057524684
0.0047506186
-0.00061757239
0.0045619349
-0.00061826554
0.0044127098
-0.00059395062
0.0042626608
-0.0006122979
0.0040916851
-0.00070854592
0.0039159726
-0.00087391389
0.0037509922
-0.0010655852
0.0035962105
-0.0012116078
0.0034518867
-0.0012519446
0.0033141559
-0.0011980561
0.0031827494
-0.0011224211
0.0030569437
-0.0010875625
0.0029370244
-0.0011075292
0.0028223416
-0.0011664297
0.0027111885
-0.0012366837
0.0026008484
-0.0012939948
0.0024900215
-0.0013244947
0.0023795007
-0.0013274275
0.0022725255
0.0021719815
-0.0013106772
-4.4296422e-06
0.013848479
1.7352547e-05
0.013041505
-1.0514213e-05
0.012777232
-3.5013759e-05
0.012442486
1.2377414e-05
0.011917331
5.2582738e-05
0.011363665
1.4934661e-05
0.010897487
-0.0001227717
0.010609862
-0.00028426168
0.010505002
-0.00040521305
0.010385571
-0.00039071797
0.010112988
-0.00032211234
0.0096238139
-0.00029231729
0.0089634139
-0.00023672049
0.0083097342
-0.00020770632
0.0077898993
-0.00032127663
0.007448205
-0.0004638688
0.0072217415
-0.00068029877
0.0070720082
-0.0010901558
0.006873665
-0.0013190628
0.0066515684
-0.0012830839
0.0064056483
-0.0011209144
0.0061348123
-0.00082364913
0.0059042438
-0.0004709818
0.00569903
-0.00038171395
0.0054600649
-0.00043571124
0.0051812301
-0.00052871191
0.0049117624
-0.00052786459
0.0047004187
-0.00051244362
0.004530045
-0.00052914714
0.0043715506
-0.00056574274
0.0042036776
-0.00063639796
0.0040243004
-0.00075325224
0.0038513207
-0.00092351183
0.0036939445
-0.0010987235
0.0035494023
-0.0011911048
0.0034171929
-0.0011688461
0.0032924327
-0.0010895941
0.0031689824
-0.0010334844
0.0030451781
-0.0010420537
0.0029233562
-0.0011108173
0.0028048051
-0.001210424
0.0026908947
-0.0013033684
0.0025811868
-0.0013606217
0.0024757664
-0.0013724505
0.0023756847
-0.001347535
0.0022818629
0.0021953478
-0.0013032279
3.9776432e-07
0.013886263
2.2127054e-05
0.013068691
-3.5617553e-06
0.012756094
-3.8460886e-05
0.012427533
4.3908416e-06
0.011966911
5.0593738e-05
0.01144618
4.5334811e-05
0.010994057
-5.5514423e-05
0.010679632
-0.00020855658
0.010517316
-0.00035695896
0.010386531
-0.00040310019
0.010159298
-0.00040591305
0.0097188823
-0.00038673948
0.0090842088
-0.00028092904
0.0084414142
-0.00021336124
0.0079344845
-0.00029299782
0.007576505
-0.00041146377
0.0073024088
-0.00069389893
0.0070674035
-0.0010957473
0.0068577253
-0.0012707917
0.0066921503
-0.001202131
0.006487353
-0.00096253625
0.006231253
-0.00062338385
0.0059740172
-0.00039047006
0.0056803387
-0.00041376578
0.0053723304
-0.00048748757
0.0051020472
-0.00049312508
0.0049014394
-0.00044572236
0.0047348108
-0.00044118869
0.0045556153
-0.00050286635
0.0043751406
-0.00058802302
0.0041967709
-0.00067622285
0.0040164332
-0.00079428733
0.0038421837
-0.00094860639
0.0036828769
-0.0010697653
0.0035411593
-0.0010932078
0.0034076095
-0.0010384302
0.0032711256
-0.0009780502
0.0031285948
-0.00097523624
0.0029867261
-0.0010426614
0.0028565402
-0.0011534059
0.0027417933
-0.001262394
0.0026411087
-0.0013268784
0.0025497488
-0.0013326328
0.0024624432
-0.0012945312
0.0023765217
-0.0012369359
0.0022916019
0.0022068132
-0.0011804254
1.6198402e-06
0.01389305
2.3922061e-05
0.013071046
-2.2120174e-06
0.012817181
-3.9899192e-05
0.012549897
6.3630142e-06
0.012070598
5.7013335e-05
0.011525153
6.8356155e-05
0.01106668
-5.5847446e-06
0.010766873
-0.00014873962
0.010583232
-0.00030463089
0.01043373
-0.00040296498
0.0102127
-0.00047232443
0.0097825665
-0.00045262484
0.0091911795
-0.00031493652
0.008622208
-0.00023138484
0.0081508025
-0.00029034703
0.0077394236
-0.00040806177
0.0073875997
-0.00070854374
0.0071121201
-0.0010532025
0.0069435397
-0.001192908
0.0067954562
-0.0011038958
0.0065532886
-0.00083643785
0.0063045284
-0.00055126072
0.0060140312
-0.00041675066
0.0056795237
-0.00045066199
0.0053825576
-0.00045123655
0.0051617954
-0.00041611943
0.004999577
-0.00040954578
0.0048188421
-0.0004383027
0.0045954914
-0.00052324577
0.0043676644
-0.00062843243
0.0041574933
-0.00072306648
0.0039641525
-0.00083066754
0.0037883158
-0.00094522745
0.0036344564
-0.0010149799
0.0034975656
-0.0010182304
0.0033604966
-0.00098549694
0.0032154565
-0.00096464572
0.0030698334
-0.00098626213
0.0029376106
-0.0010528293
0.0028237917
-0.0011364958
0.0027283591
-0.0011983307
0.0026425422
-0.0012151255
0.0025557991
-0.0011902391
0.0024642424
-0.0011459242
0.002365808
-0.0011102131
0.0022621735
0.0021551747
-0.0010994039
8.7732039e-06
0.013950764
3.6431662e-05
0.0130865
1.0112013e-07
0.012873643
-4.5881105e-05
0.012707255
3.2870244e-06
0.01221961
7.1139547e-05
0.011623657
9.7254128e-05
0.011112475
3.5690603e-05
0.01082145
-0.00010252278
0.010648506
-0.00026395382
0.010489414
-0.00040384722
0.010232664
-0.00051623509
0.0098074573
-0.00047915432
0.009283394
-0.00033628346
0.0087836623
-0.00027320991
0.0083292423
-0.00032712084
0.0078714676
-0.00043114308
0.0074929168
-0.00069889011
0.0072423345
-0.0010043405
0.0070805345
-0.0011303376
0.0068389056
-0.00098050406
0.0065385117
-0.00074533427
0.0062931813
-0.00054441736
0.006042987
-0.00044528996
0.0057662093
-0.00043465968
0.0055281368
-0.00037768998
0.005319695
-0.00038070154
0.0051120066
-0.00044363283
0.0048629507
-0.00049283931
0.0045877283
-0.00057293994
0.004318906
-0.00066685987
0.004088953
-0.00075149346
0.0039011334
-0.00083632071
0.0037467595
-0.00091496574
0.0036120578
-0.00096899908
0.0034814558
-0.0009866892
0.0033461137
-0.00097575387
0.0032100455
-0.00095629493
0.0030801763
-0.00095722984
0.0029630235
-0.00099406378
0.0028580875
-0.0010540235
0.0027611732
-0.0011056036
0.0026626635
-0.0011299856
0.0025547805
-0.0011322294
0.0024375658
-0.0011326543
0.0023156586
-0.0011512413
0.0021943409
0.0020758937
-0.0011958706
2.4322559e-05
0.014063859
5.5665076e-05
0.013187746
8.5840785e-06
0.012956219
-4.8517685e-05
0.012814042
1.7182701e-06
0.01234697
8.2140078e-05
0.011709226
0.00012697063
0.011147915
7.566761e-05
0.010868218
-6.3110211e-05
0.010702979
-0.00023581128
0.010512457
-0.00040722551
0.01019845
-0.00053475393
0.0097938115
-0.00047574641
0.0093450031
-0.00034697418
0.0088958733
-0.00032499977
0.0084554444
-0.00037086038
0.0080093477
-0.00044584393
0.007659366
-0.0006877149
0.0073936258
-0.0010038059
0.0071566089
-0.0010792817
0.0068455981
-0.00084697847
0.0065260544
-0.00065049043
0.006303936
-0.00050992304
0.0061226547
-0.00042435536
0.0059130404
-0.00040674016
0.0056905482
-0.00036783077
0.0054413632
-0.00044621442
0.0051534503
-0.00054669799
0.0048470952
-0.00059721481
0.0045434408
-0.0006451682
0.0042717961
-0.0006950007
0.0040731222
-0.00074763066
0.003933619
-0.00082025584
0.0038142912
-0.00089924698
0.0036924365
-0.00095148805
0.0035633984
-0.00096544731
0.0034280924
-0.0009473175
0.0032924965
-0.00091610888
0.0031588236
-0.00090889186
0.0030265438
-0.00094964522
0.0028961609
-0.0010296812
0.0027669436
-0.0011146125
0.0026374183
-0.0011767703
0.0025049764
-0.0012158228
0.0023711097
-0.0012499516
0.0022405755
-0.0012903558
0.0021206887
0.0020158838
-0.0013356058
4.4530301e-05
0.014189357
7.6399039e-05
0.01325893
1.8354553e-05
0.013010722
-4.3058039e-05
0.012867995
-2.0674744e-06
0.01241219
9.1215172e-05
0.01177737
0.00015498698
0.011197808
0.00011121607
0.010908759
-3.5305656e-05
0.010704043
-0.00022407402
0.010450208
-0.00040785676
0.01010588
-0.00052689032
0.0097352388
-0.00046150352
0.009358083
-0.00036362788
0.0089578421
-0.00037363097
0.0085635297
-0.00040227471
0.0081953822
-0.00046866894
0.0078625224
-0.00071773025
0.0075183856
-0.0010250349
0.0071834136
-0.0010085452
0.0068733921
-0.00070891291
0.0066132913
-0.00054399528
0.0064278436
-0.00044768824
0.006251927
-0.00039590327
0.006010923
-0.00041255043
0.0057336287
-0.00044606082
0.0054391995
-0.00057532577
0.0051351864
-0.00067231933
0.0048257646
-0.00069064338
0.0045417587
-0.00066634272
0.0043242826
-0.00065493975
0.0041797719
-0.00070651681
0.0040685102
-0.00080709326
0.0039541491
-0.00089916344
0.0038244541
-0.000944159
0.0036778736
-0.00094837591
0.0035180869
-0.00093138916
0.0033552118
-0.0009197645
0.0031908951
-0.00094397504
0.003027375
-0.0010166952
0.0028673554
-0.0011222736
0.0027150678
-0.0012293377
0.0025695182
-0.0013108656
0.0024318883
-0.001355503
0.0023061695
-0.0013682979
0.0021966012
-0.0013603453
0.0021047046
0.0020295759
-0.0013385559
6.4499827e-05
0.014303951
9.9521653e-05
0.01328587
2.977774e-05
0.012962267
-3.477884e-05
0.012907521
-6.1041225e-06
0.01247587
9.979744e-05
0.011884552
0.00017949674
0.011270807
0.00013404072
0.010928945
-1.7889331e-05
0.010667116
-0.00021930201
0.010361898
-0.00040477501
0.010028266
-0.00050298648
0.0096964046
-0.00043731713
0.0093770551
-0.00036464211
0.0090144333
-0.00038973689
0.008684179
-0.00042040411
0.0084000451
-0.00051914922
0.0080538826
-0.00077703591
0.0076084537
-0.001026145
0.0072384374
-0.00090718239
0.0069921085
-0.00058635437
0.0068063742
-0.00046985025
0.0066279964
-0.00041748115
0.0063649425
-0.00040299598
0.0060127149
-0.00045079286
0.0056834846
-0.00053061342
0.0053918401
-0.000693802
0.0051181097
-0.00075671868
0.0048590797
-0.00069892038
0.0046482687
-0.00060578396
0.0044862015
-0.00058757126
0.0043481133
-0.00067676762
0.0042177414
-0.00081392841
0.0040746468
-0.00092376099
0.0039100801
-0.00097109496
0.0037223729
-0.00097676856
0.0035266077
-0.00097878516
0.0033380748
-0.0010037703
0.0031549366
-0.0010616134
0.0029769912
-0.0011551496
0.0028062496
-0.0012674284
0.0026495421
-0.0013621366
0.0025139928
-0.0014057267
0.0024010569
-0.0013915502
0.0023078551
-0.0013365494
0.0022295089
-0.0012640576
0.0021616774
0.0021007628
-0.0011902167
7.5297127e-05
0.014428444
0.00012031592
0.013278366
4.7307567e-05
0.01283129
-2.3539816e-05
0.012873622
-9.2447483e-06
0.012551515
0.00010579013
0.012046677
0.0001919942
0.01136243
0.00014516576
0.010946297
-7.2631329e-06
0.010643222
-0.0002125674
0.010289683
-0.00039203887
0.0099714813
-0.00046860401
0.009680416
-0.00040894516
0.0093972546
-0.00034646257
0.0090764329
-0.00037751159
0.0088125781
-0.0004425456
0.0085686104
-0.00060283373
0.0081737903
-0.00084239082
0.0076976541
-0.00099170725
0.0073903781
-0.0007851687
0.0072008198
-0.00049758341
0.0070257084
-0.00046467616
0.0067699712
-0.00046631384
0.0063932696
-0.00044632761
0.0059872206
-0.00049358147
0.0056660474
-0.00059934889
0.0053955938
-0.00075895829
0.0051532087
-0.00075088784
0.0049524292
-0.00063641964
0.0047899152
-0.00053877807
0.0046331567
-0.00055864358
0.0044629834
-0.00069006227
0.004286439
-0.0008653011
0.0040983146
-0.00099739356
0.0038990098
-0.0010430628
0.0036915344
-0.0010436062
0.0034883984
-0.0010658423
0.0032983969
-0.001131607
0.0031190094
-0.0012219746
0.0029494223
-0.0013123596
0.0027956818
-0.001378149
0.0026660283
-0.0013977915
0.002561676
-0.0013619186
0.0024779519
-0.0012834384
0.0024072966
-0.001188299
0.002342931
-0.0010953569
0.0022808065
0.0022194563
-0.0010126768
8.5645611e-05
0.014557078
0.00013586484
0.013284653
6.9227036e-05
0.01270028
-6.2056589e-06
0.012779572
-9.1563155e-06
0.012603657
0.0001048227
0.012222171
0.00019303492
0.011469414
0.00014710425
0.010990749
-4.2920589e-06
0.010638446
-0.00020339905
0.010252332
-0.00036788688
0.0099457518
-0.0004301014
0.009690293
-0.00037721519
0.0094225051
-0.00031384809
0.0091365894
-0.00035861363
0.0089020975
-0.00048675507
0.0086423682
-0.00069240577
0.0082311502
-0.00087014907
0.0078195516
-0.00092324997
0.0076028698
-0.00066192334
0.007431005
-0.00047356266
0.0071860498
-0.00052615615
0.0068043956
-0.00054043871
0.0063923821
-0.00049197415
0.0060289337
-0.00053879071
0.0057443254
-0.00064915464
0.0054840865
-0.00075111609
0.0052493196
-0.00067667591
0.0050612554
-0.0005614228
0.0048973202
-0.00051672183
0.004712852
-0.00059764162
0.0044973078
-0.00077026436
0.0042858188
-0.00096182457
0.004083768
-0.0010889265
0.003883489
-0.0011185526
0.0036827991