/*--------------------------------*- C++ -*----------------------------------*\
| =========                 |                                                 |
| \\      /  F ield         | OpenFOAM: The Open Source CFD Toolbox           |
|  \\    /   O peration     | Version:  2406                                  |
|   \\  /    A nd           | Website:  www.openfoam.com                      |
|    \\/     M anipulation  |                                                 |
\*---------------------------------------------------------------------------*/
FoamFile
{
    version     2.0;
    format      ascii;
    arch        "LSB;label=32;scalar=64";
    class       surfaceScalarField;
    location    "10";
    object      phi_0;
}
// * * * * * * * * * * * * * * * * * * * * * * * * * * * * * * * * * * * * * //

dimensions      [1 0 -1 0 0 0 0];

oriented        oriented;

internalField   nonuniform List<scalar> 
123996
(
0.0025092996
4.5095707e-05
-3.7059214e-05
0.0024794504
8.3683491e-05
-6.5826203e-05
0.0024639898
4.9026274e-05
-2.0040699e-05
0.0024904508
5.4797139e-06
3.0770821e-05
0.0025820095
4.8631918e-05
-3.3112136e-06
0.0026367648
9.8902566e-05
-4.8922391e-05
0.0026099023
0.00017260958
-0.00017659283
0.0025432731
0.00019606328
-0.00016887284
0.0024597884
0.00022111206
-0.00018151218
0.0023516897
0.00017931599
-0.00019858191
0.0023191289
0.00013826852
-0.00010650444
0.0023656928
5.921932e-05
-6.7832884e-05
0.0024213549
0.00011422901
-0.00013654074
0.0023982831
0.00015185211
-9.8682986e-05
0.0023193563
3.9016933e-06
1.1159842e-05
0.0022080065
-9.2772986e-05
9.6983177e-05
0.0020828653
-0.00015438564
0.00019659163
0.0020979343
-0.00024551685
0.00027414516
0.0020853008
-0.00013148257
0.00012382756
0.0020823381
-0.00016087227
0.00018164892
0.0021332007
-0.00023607207
0.00019155829
0.0020987372
-0.00020382487
8.0636952e-05
0.0019208634
-9.4205905e-05
6.9019651e-05
0.0018739927
-0.00014151962
0.00026573609
0.0019384066
-5.1414075e-05
4.7548083e-05
0.0021248145
0.00015469775
-0.00016056543
0.0019514424
0.00027707342
-0.00026178524
0.0017886092
7.1978252e-05
-6.2930428e-05
0.0019100763
-4.8556959e-05
5.7920202e-05
0.0019326061
-3.4744558e-05
-5.0458599e-06
0.0018027245
-3.0728066e-05
-3.5380059e-06
0.001631414
-0.0001084415
0.00011736193
0.0016453335
-8.5349206e-05
0.00010454092
0.0014190279
-9.3680812e-05
3.7611849e-05
0.0013674959
-0.00016524972
0.0002051249
0.0019518438
1.7913114e-05
9.219586e-05
0.0020939003
0.00019832248
-0.00033008144
0.0015701648
4.1201423e-05
-0.00040047244
0.0012345644
-0.00018253177
3.1168077e-05
0.0017374071
-1.7749643e-05
0.00025174923
0.0026133085
0.00057280003
-8.9392809e-05
0.0030027465
0.00086018103
-0.00062918419
0.0029663364
0.00072745634
-0.00096367952
0.002856547
0.00064152928
-0.00098843193
0.0025475224
0.00051143033
-0.00086240186
0.0017725543
0.0003455579
-0.00072306969
0.0010890212
0.00012227215
-0.00047218419
0.0011473388
-2.7684991e-05
-0.00025773342
0.0016386835
8.6030734e-05
-0.00014642375
0.0018612811
0.00031474121
-0.00018403316
0.0018644833
0.0007058381
-0.00035895644
0.001972187
0.001001015
-0.00056789422
0.0025830212
0.0010907255
-0.00070162485
0.0031634721
0.00097667276
-0.00074630624
0.00072395587
0.0032996903
-0.00071701347
0.0023914619
4.008267e-05
0.002360349
0.00012086309
0.00234468
0.00012468065
0.0023741489
9.8966697e-05
0.0024610599
0.00011377278
0.0025169891
0.00018873983
0.0024872911
0.00017300141
0.0024271081
0.00020449127
0.0023448724
0.00027185763
0.0022452566
0.00020224265
0.0022039666
0.00010016048
0.0022529533
4.3049444e-05
0.0023035847
7.011994e-05
0.0022727069
0.00012558809
0.0022111418
3.613591e-05
0.0021244555
-7.7855849e-05
0.0019959512
-0.0001798433
0.0020309668
-0.00022000282
0.0019929449
-0.00014240413
0.0019725966
-0.00014114491
0.0020260854
-0.00018285363
0.0020309518
-0.00018485757
0.0018678474
-0.00018295914
0.001840794
-0.00010234152
0.0018882205
-4.0197909e-07
0.0020541215
0.00018672487
0.0018288941
0.0002158097
0.0016948706
6.7904352e-05
0.0017990785
-1.3906902e-05
0.0018354462
-3.097803e-05
0.0017339493
-8.0544274e-05
0.0016357929
-0.00014577757
0.0016152847
-6.3030425e-05
0.0013984085
-7.6581615e-05
0.0014609227
-0.00016082337
0.0018381876
3.5976513e-05
0.0016764091
0.00011112087
0.0012836078
-5.5441541e-05
0.001490885
-8.4370304e-05
0.0022900424
0.00016294243
0.0027215087
0.0004775545
0.0026174921
0.00068156347
0.0024468166
0.00071615226
0.0024134684
0.00049334038
0.0023064069
0.00014860337
0.0018425453
-9.6426921e-05
0.0012544832
-0.00017617424
0.0012013932
7.7575511e-05
0.0019004265
0.00050522082
0.0028235416
0.00077864703
0.0032251282
0.00084802204
0.003027924
0.00081637775
0.0025972442
0.00084228761
0.0023506791
0.00084768381
0.0007269585
0.0021592772
0.0022811742
4.3376922e-05
0.00225056
0.00014854543
0.0022349119
0.00019510823
0.0022621122
0.00021241241
0.0023468707
0.00016981154
0.0023988581
0.00027483186
0.0023756107
0.00022086602
0.0023251281
0.00019175738
0.0022395872
0.00028790592
0.0021389949
0.00022146972
0.0020956858
6.9839979e-05
0.0021448674
6.476147e-05
0.0022003993
8.5650818e-05
0.0021620232
7.209436e-05
0.0021044852
4.6296561e-05
0.0020219171
-5.5810494e-05
0.0018961726
-0.00020310064
0.001939715
-0.00016338005
0.0018947699
-0.00015499014
0.0018685293
-0.00014916095
0.0019302494
-0.00016445127
0.00194399
-0.00011306741
0.0018076256
-0.00019334213
0.0017619375
-0.00011927356
0.001819172
6.3104006e-08
0.0019645972
0.00020133129
0.0017351327
0.00017386433
0.0015987837
1.9688497e-05
0.0016892407
-4.4135048e-06
0.0017359443
-9.2909241e-06
0.0016375688
-0.00011198862
0.0016001222
-0.00015975198
0.0015555364
-5.5045149e-05
0.001302678
-7.3363005e-05
0.0013874411
-0.0001396972
0.0016749897
3.229669e-05
0.001550819
0.00010806357
0.0012910206
-1.4912615e-05
0.0014878213
6.5036554e-06
0.0020665238
0.00024669
0.0024525824
0.00044368671
0.002365048
0.0004763849
0.001984471
0.0004239796
0.0016777283
0.00029979819
0.0015500218
-6.4834342e-05
0.0014849087
-0.00034716548
0.0015805033
-0.00023283335
0.0018007766
0.00022959374
0.002151435
0.00071820359
0.0026699959
0.00091871812
0.0029699948
0.00078231986
0.0029375024
0.00056941545
0.0025409902
0.00039223108
0.0020276651
0.00025885327
0.00026033465
0.0016237993
0.0021759287
4.7312946e-05
0.0021453676
0.00015576475
0.0021298085
0.00021419683
0.0021539046
0.00025846257
0.0022410526
0.00022997213
0.0022846541
0.00030557443
0.0022638948
0.00025628084
0.0022238972
0.00025805724
0.0021355714
0.00025520512
0.0020299437
0.00024667217
0.0019953094
0.00013018163
0.0020433082
0.00010543787
0.0020950157
0.00014168136
0.0020636834
7.6729917e-05
0.0020047662
4.9561022e-05
0.0019193261
-5.1848202e-05
0.0018161844
-0.00019080228
0.0018517386
-0.00010730666
0.0018115435
-0.00013702615
0.0017735848
-0.00018040795
0.0018470776
-0.00014814903
0.0018496237
-8.7859015e-05
0.0017504421
-0.00015257611
0.0017039752
-0.00014641548
0.0017688541
-9.4519686e-06
0.0018702616
0.00022350108
0.0016473972
0.00017340644
0.0015290992
-3.8008864e-06
0.0015926739
-1.0678661e-05
0.00161963
1.2310548e-05
0.0015489345
-0.00010975184
0.0015850457
-0.00017356345
0.0015316547
-7.9007724e-05
0.0012587398
-0.00012680951
0.001388409
-0.00012816161
0.0016411315
6.1733032e-05
0.0015146513
0.00012055925
0.0013166058
1.0402523e-05
0.0014905394
8.0835561e-05
0.0019508896
0.00029976861
0.0022639329
0.00038740489
0.0022288735
0.00031243206
0.0018793757
0.00018367355
0.0012769434
2.8366813e-05
0.0010095625
-0.00016558318
0.0013300254
-0.00019861399
0.0019850553
9.1120283e-06
0.0024106513
0.00030138333
0.0023637649
0.00052133745
0.0021401811
0.00069219192
0.0021221655
0.00067909081
0.0020712677
0.0004315122
0.0018654335
0.00013031222
0.0016896017
-1.0597259e-06
4.4965702e-05
0.0015325064
0.0020756727
5.108305e-05
0.0020454509
0.0001748844
0.0020299231
0.00022695524
0.0020505828
0.00025370426
0.0021371702
0.00027469555
0.0021734414
0.00027678015
0.0021599193
0.00028692581
0.0021237366
0.00032943248
0.0020396138
0.00022643005
0.0019363287
0.00026623534
0.0019065197
0.00020804413
0.0019539486
0.00011957372
0.001998718
0.00017877773
0.0019735298
0.00013021303
0.0019135897
6.45712e-05
0.0018285368
-4.7449589e-05
0.001751833
-0.00016710069
0.001767975
-8.4704912e-05
0.0017264811
-0.0001032748
0.0016897635
-0.00019382598
0.0017625694
-0.00013000222
0.0017565011
-9.6508639e-05
0.0016811578
-0.00013281691
0.0016458221
-0.00014745913
0.0017249665
-1.4101249e-05
0.001784215
0.00022525998
0.001562257
0.00018806957
0.0014630349
-2.110062e-06
0.0015231252
-1.4444472e-05
0.0015103409
1.9858516e-05
0.001451467
-8.1807304e-05
0.0015392952
-0.00015776295
0.0014547761
-0.00011608751
0.0012025971
-0.00018691659
0.0013467602
-0.0001333429
0.0015520554
9.662063e-05
0.0014116373
0.00012478744
0.0012964554
2.7747984e-05
0.0014683722
0.00011368484
0.0017458443
0.00029598007
0.0019606437
0.00035706754
0.0019709688
0.00023974785
0.001702881
2.7486421e-05
0.0011491396
-0.00019592452
0.00089659956
-0.00024278097
0.0013397762
-3.0269085e-05
0.0020309809
0.00022868495
0.0024301189
0.00037102562
0.0023894261
0.00037360649
0.0020126795
0.00035993387
0.0015615514
0.00036807515
0.0012505847
0.00027202565
0.0011495784
0.00013884282
0.0013917267
5.7858437e-05
0.00013050894
0.0017891756
0.0019808768
5.9878208e-05
0.0019506102
0.00021565122
0.001934665
0.00025256117
0.0019546572
0.00022883648
0.0020352831
0.00029282201
0.0020709232
0.000264144
0.0020622182
0.00031275061
0.0020211293
0.00035014002
0.0019493346
0.000270076
0.0018474752
0.00026410501
0.0018134506
0.00021967929
0.0018628755
0.00012190027
0.0019013234
0.0001672818
0.0018817213
0.00015616962
0.0018213261
8.5713649e-05
0.0017384866
-4.3092102e-05
0.0016808198
-0.00014539298
0.0016834694
-9.5352185e-05
0.0016393326
-8.1306477e-05
0.0016158086
-0.00016956428
0.001674763
-0.00011544316
0.0016701908
-0.00011476384
0.0016072974
-0.00015490896
0.001589275
-0.00013617948
0.0016828941
-7.2587292e-06
0.0017073895
0.00022036875
0.0014828
0.00018395143
0.0014019049
2.0718563e-05
0.001458603
-6.0894072e-06
0.0014175818
7.4699042e-06
0.0013565774
-6.3772313e-05
0.0014787984
-0.00013248714
0.001386408
-0.00013663992
0.0011822461
-0.00023826516
0.0013560807
-0.00014363053
0.0014913329
0.00011275581
0.00135348
0.00011180025
0.0013110886
2.1336058e-05
0.0014751639
0.00010521629
0.0016408997
0.0002813327
0.0017382817
0.00035518024
0.0017168685
0.00021630335
0.0014958215
-4.2174352e-05
0.0011593094
-0.00032399183
0.001055275
-0.00027491669
0.0013803884
5.6650233e-05
0.0018576858
0.00038958987
0.0021392637
0.00042138369
0.0021740017
0.00025776933
0.0019449531
9.5352527e-05
0.001496434
8.1926705e-06
0.0010774175
1.3418065e-05
0.00099451906
0.00011832957
0.0012360724
0.00023713588
0.00035583805
0.0016516046
0.0018908123
6.7950599e-05
0.0018598304
0.0002379828
0.0018427329
0.0002818326
0.0018629865
0.00024541662
0.001936106
0.00029438565
0.0019749818
0.0002714952
0.0019674863
0.0003527143
0.0019249765
0.00033216838
0.001861807
0.00034733781
0.0017628323
0.00026219079
0.0017237732
0.00019097013
0.0017763295
0.00012818692
0.001809873
0.00014019904
0.0017914773
0.00015054226
0.0017320807
9.7086875e-05
0.0016564508
-3.148736e-05
0.0016107151
-0.00011401355
0.0016097245
-0.00010915534
0.0015604321
-7.8763532e-05
0.0015465375
-0.000110551
0.0015895693
-9.8904859e-05
0.0015858334
-0.00011090151
0.001540355
-0.00018831584
0.0015357919
-0.00013290374
0.0016404526
1.8408195e-05
0.0016354255
0.00021463036
0.0014119381
0.0001623449
0.0013410256
4.3714212e-05
0.001394504
1.3692352e-05
0.0013426444
-2.9182456e-06
0.0012663168
-7.9925721e-05
0.001397878
-0.00011032015
0.0013080237
-0.00013890173
0.0011586972
-0.00027076539
0.0013481099
-0.00012123442
0.0014021202
0.00011492099
0.0012592091
8.3684968e-05
0.0012603351
1.157854e-05
0.0014437001
0.00010068732
0.0015620622
0.00025740798
0.0015406165
0.00032913443
0.0014339748
0.00022234993
0.0012225825
-7.4538511e-05
0.0011241227
-0.0003354187
0.0013010345
-0.00026323508
0.001530322
6.5284165e-05
0.001630144
0.00034593636
0.0016669016
0.00039750345
0.0016932472
0.00019114302
0.0016393515
-1.9482692e-05
0.0014917919
-0.00019840503
0.0013412892
-0.00017961134
0.001235513
3.2363437e-05
0.0012582103
0.000242723
0.00043507201
0.0014106371
0.0018047377
7.0586153e-05
0.0017731276
0.00022836974
0.0017553499
0.00028322391
0.0017761992
0.00027479293
0.0018423401
0.00029237851
0.001884875
0.00030232823
0.0018753148
0.00036273143
0.0018374601
0.00031949343
0.001774788
0.00038839516
0.001677876
0.00028389127
0.0016368233
0.00016737278
0.0016887286
0.00015327598
0.0017220897
0.00013876946
0.0017040743
0.00014689633
0.0016453382
9.0161195e-05
0.0015782597
-6.5143285e-06
0.0015374481
-7.2934081e-05
0.001536291
-0.00010738637
0.0014862163
-8.3134335e-05
0.0014735751
-5.5350284e-05
0.0015099879
-8.0245535e-05
0.0015014329
-9.6085627e-05
0.0014741926
-0.00018986686
0.0014788836
-0.00013665104
0.0015885367
4.0208057e-05
0.0015637442
0.0002064327
0.0013504457
0.00013636012
0.001279431
5.5292462e-05
0.0013248089
4.3443045e-05
0.0012703982
-2.5350946e-06
0.001192078
-0.0001033119
0.0013172925
-9.8877434e-05
0.0012293543
-0.00013910683
0.0011572654
-0.00027798296
0.0013493329
-8.0246806e-05
0.0013376174
0.00011031033
0.001190313
5.5722791e-05
0.0012270581
-9.8345256e-06
0.0014191524
8.7509092e-05
0.0015264488
0.00023023109
0.001448175
0.00028100862
0.0012416944
0.00019317971
0.0010264958
-5.4879007e-05
0.001093363
-0.000274505
0.0014244536
-0.00022547591
0.0016508489
3.3744675e-06
0.0015771132
0.00020812154
0.0013569799
0.00029294885
0.0012315349
0.00018721593
0.0011877855
-5.0109647e-05
0.0012941386
-0.00019704166
0.0014692104
-0.0001946551
0.0015396997
-4.7034338e-05
0.0014444409
0.00012611306
0.00030016142
0.0013609012
0.0017219893
6.959247e-05
0.00169034
0.00019919992
0.001671928
0.00025968644
0.001691547
0.00029223861
0.0017537246
0.00029055197
0.0017970628
0.00032345629
0.0017853234
0.00033118264
0.0017553281
0.00031262742
0.0016908134
0.00036106715
0.0015967599
0.00030040034
0.0015583585
0.00018464475
0.0016067207
0.00017151325
0.0016421647
0.00016990723
0.0016238371
0.00017557721
0.0015671631
8.1139716e-05
0.0015060464
2.2354256e-05
0.0014663952
-4.0880707e-05
0.0014674319
-8.5652404e-05
0.0014239175
-8.4633639e-05
0.0014029804
-2.4837286e-05
0.0014382632
-5.5990698e-05
0.0014235258
-8.4278965e-05
0.0014121326
-0.00015737829
0.0014275448
-0.00012765562
0.0015310407
5.593419e-05
0.0014923681
0.00019908256
0.0012956528
0.00011540123
0.0012213832
4.7932018e-05
0.0012537224
5.9228732e-05
0.0011983762
6.3433232e-06
0.0011328601
-0.00011325814
0.0012379091
-8.1993049e-05
0.0011447166
-0.00014102391
0.0011551474
-0.00025943367
0.001333028
-4.2980303e-05
0.0012701316
0.00011454832
0.0011080612
3.9459325e-05
0.001167251
-2.6917483e-05
0.0013621597
7.0902593e-05
0.0014591953
0.00020656362
0.0013631702
0.00023624273
0.0011018344
0.00015559241
0.00086505999
-5.2898566e-05
0.0010048561
-0.00019505901
0.0013953615
-0.00015795744
0.0016334947
-1.2407401e-05
0.0015646744
9.4202476e-05
0.001263181
0.00013089231
0.00097295946
0.00010467582
0.00091759466
-1.1774585e-05
0.0011177097
-8.7844308e-05
0.0014543862
-8.3858359e-05
0.0016407347
-3.5309235e-05
0.001595613
2.5180703e-05
9.8019037e-05
0.0014287298
0.0016425825
6.3103571e-05
0.0016115669
0.00016858275
0.0015931101
0.00023112955
0.0016113005
0.00028133435
0.0016709834
0.00029390976
0.0017113943
0.00033496364
0.0017003591
0.00029526826
0.0016745262
0.00030898127
0.0016107393
0.00030760358
0.0015197446
0.00029723385
0.0014838318
0.00020670778
0.0015283694
0.00018032267
0.0015655583
0.00019788543
0.0015451991
0.00020818184
0.0014942264
8.3721457e-05
0.0014366966
4.1086774e-05
0.0013959696
-2.1945004e-05
0.0013986716
-5.4216886e-05
0.0013657636
-7.1090121e-05
0.0013359046
-3.0439908e-05
0.0013666095
-2.908688e-05
0.0013495448
-7.318255e-05
0.0013479117
-0.00012466864
0.0013766312
-0.00011285814
0.0014720649
6.0802449e-05
0.0014257634
0.00018510621
0.0012468946
0.00010141662
0.0011706718
4.0813097e-05
0.0011863341
6.1721479e-05
0.0011269162
4.4102041e-06
0.0010844087
-0.00010482103
0.0011616731
-6.7434885e-05
0.0010641369
-0.00015660048
0.001149853
-0.00024027348
0.0013159282
-2.2781675e-05
0.001216549
0.00011639909
0.0010474416
3.2704464e-05
0.0011217391
-3.3855769e-05
0.0013178663
5.3510561e-05
0.0014037619
0.00018506756
0.0013156496
0.00021517353
0.0010371948
0.00011153245
0.00078421459
-5.5983113e-05
0.00090780716
-0.00013626248
0.0012973218
-8.0748505e-05
0.0015528787
2.0079636e-05
0.0015405683
2.8305787e-05
0.0012930961
-1.4994576e-05
0.0009369102
-4.2749196e-05
0.000800423
-2.4877019e-05
0.00097651557
2.0263784e-05
0.0012822339
4.2242146e-05
0.0015261534
3.2586166e-05
0.0015718873
1.8927699e-06
-3.0640746e-05
0.0014651822
0.0015664468
5.1399909e-05
0.0015362522
0.00014796243
0.0015180126
0.00021337346
0.0015344486
0.00026143569
0.0015919834
0.00028270443
0.001628514
0.00034398622
0.0016200824
0.00028181321
0.0015959304
0.00030043812
0.0015353838
0.00027008561
0.0014470191
0.00026817289
0.0014126939
0.00021826377
0.0014550867
0.00018383623
0.0014923344
0.00020651644
0.0014682834
0.00021551999
0.0014250634
0.00010353698
0.0013699573
4.544202e-05
0.001330967
-1.9661344e-05
0.0013340084
-2.5262502e-05
0.001306638
-4.2633557e-05
0.0012729025
-5.6060895e-05
0.0012966164
-6.3936677e-06
0.0012822191
-6.2676179e-05
0.0012831924
-0.00010452248
0.0013242762
-9.7158434e-05
0.0014133631
6.3660992e-05
0.0013627365
0.00017053685
0.0012008326
9.7299398e-05
0.0011257379
4.5116019e-05
0.0011215961
6.256658e-05
0.0010602574
-4.9443934e-06
0.0010382422
-8.888073e-05
0.0010815295
-5.4796295e-05
0.0009871523
-0.00016946701
0.0011280076
-0.00022794496
0.0012826448
-2.1290686e-05
0.0011584174
0.0001052932
0.00098588844
2.0119506e-05
0.0010632343
-3.2429987e-05
0.0012632357
4.7559257e-05
0.0013430811
0.00016491628
0.0012535494
0.00020901711
0.0009931558
8.8192357e-05
0.00073719777
-7.4849254e-05
0.00082258864
-9.8810735e-05
0.0011610506
-1.0638612e-06
0.0014075725
6.1232995e-05
0.0014330012
1.8863613e-05
0.0012721286
-0.00010544567
0.0010171446
-0.00017968395
0.00083980277
-0.00010050903
0.00086732868
3.1418641e-05
0.0010432816
0.00013503882
0.0012550834
0.00012490369
0.001394329
3.4860044e-05
-5.3428665e-05
0.0013831298
0.0014936116
4.0663197e-05
0.0014643682
0.00013905653
0.0014465089
0.00020725814
0.0014614096
0.00024546124
0.0015170741
0.00026519982
0.0015496284
0.00033355719
0.0015441724
0.00028398449
0.0015204013
0.00027715387
0.0014642718
0.0002503844
0.0013789945
0.00023925692
0.0013449388
0.00022335048
0.0013854726
0.00017818925
0.0014216762
0.00019450651
0.0013960249
0.00019428718
0.0013582799
0.00012877486
0.0013045267
4.5840779e-05
0.0012689823
-2.7310197e-05
0.0012714615
-7.9776058e-06
0.0012447707
-1.2900523e-05
0.0012160496
-7.5487871e-05
0.0012320075
5.4823987e-06
0.0012201716
-5.3162772e-05
0.0012204017
-9.2199328e-05
0.0012699923
-8.7560671e-05
0.0013538497
5.9515497e-05
0.0013029513
0.0001542617
0.0011596471
9.6604329e-05
0.0010857901
5.8751485e-05
0.0010616317
7.2762907e-05
0.0010015041
-1.0969033e-05
0.00099612884
-7.5687361e-05
0.0010071597
-4.385738e-05
0.00092150578
-0.00017811312
0.0010954623
-0.0002109548
0.0012433991
-3.5528511e-05
0.0011104806
6.5387878e-05
0.00094198546
-2.9272225e-06
0.0010096881
-2.8516746e-05
0.0012114641
5.2120557e-05
0.0012996446
0.00015476665
0.0011967549
0.00020077519
0.00095345153
8.1626256e-05
0.00073270039
-0.00010102735
0.00079392605
-9.1521443e-05
0.0010583576
3.5188946e-05
0.0012637779
0.00011889545
0.0012768487
3.5382369e-05
0.0012005708
-0.00012163787
0.0010795683
-0.00022808578
0.0009723723
-0.00017031861
0.00091387078
-6.7619962e-06
0.00093749596
0.00013230372
0.0010386224
0.00017197751
0.0011348634
8.8337555e-05
-1.4777951e-05
0.0012070482
0.0014241974
3.4188447e-05
0.0013957482
0.0001334287
0.0013779345
0.00020497833
0.0013912718
0.00023260107
0.0014448747
0.00025268029
0.0014749374
0.00031046825
0.0014711105
0.00028403378
0.0014478249
0.00024958042
0.0013960364
0.00024425485
0.00131549
0.0002290195
0.0012801336
0.00022107684
0.0013182908
0.00017083342
0.0013520533
0.00017656074
0.0013275295
0.00016034458
0.001293191
0.00014580446
0.0012417618
5.4557541e-05
0.0012103139
-3.4485932e-05
0.0012124491
-3.2934492e-07
0.0011836582
6.4281047e-06
0.0011647186
-8.201869e-05
0.0011703451
7.0037289e-06
0.001160544
-3.7210622e-05
0.0011597293
-8.2376358e-05
0.0012140152
-8.1644884e-05
0.0012937636
5.1666104e-05
0.0012456704
0.0001347902
0.001118528
9.4778853e-05
0.0010474894
7.4355543e-05
0.0010042571
8.7078998e-05
0.00094720592
-6.9549168e-06
0.00095548404
-6.8051267e-05
0.000937404
-3.8062316e-05
0.00086190518
-0.00017412658
0.0010483329
-0.00018687402
0.0011908693
-3.8769005e-05
0.001062082
6.6868263e-06
0.0009018057
-4.2657688e-05
0.00095097685
-2.9711987e-05
0.0011462325
6.7444429e-05
0.0012529138
0.0001529965
0.0011387733
0.00018952165
0.00089606587
7.5462103e-05
0.00072949329
-9.8927269e-05
0.00077569141
-0.00010813342
0.00097852211
4.5589008e-05
0.0011123432
0.00015238025
0.0011007812
6.9558368e-05
0.0010738856
-9.6441644e-05
0.0010805854
-0.00022014843
0.001072322
-0.00021214278
0.0010316612
-8.2436491e-05
0.00093450728
5.4009214e-05
0.00089758883
0.00014465087
0.00091760783
0.0001196273
2.1650113e-05
0.00097241222
0.0013578487
3.1738051e-05
0.0013302856
0.0001277877
0.0013124371
0.00019758191
0.0013247475
0.00022481467
0.0013761386
0.00024148191
0.0014041544
0.00028017688
0.0014011156
0.00026855557
0.0013799893
0.00022169118
0.0013315826
0.00024186814
0.0012546489
0.00022953065
0.0012171914
0.00021028508
0.0012535028
0.00015718364
0.0012853515
0.0001550352
0.0012649848
0.00012913277
0.0012315386
0.00014800904
0.0011820677
6.6945094e-05
0.0011556529
-3.4821969e-05
0.0011572475
1.4202175e-06
0.0011240016
8.850032e-06
0.0011154094
-7.1345845e-05
0.0011123235
-1.2636067e-06
0.001103595
-1.6418663e-05
0.0011026284
-7.2400945e-05
0.0011605536
-7.8450893e-05
0.0012360508
4.1818154e-05
0.0011924842
0.00011426591
0.0010793732
9.026944e-05
0.0010122707
8.4302638e-05
0.00095414112
9.8447268e-05
0.00089858749
7.1118482e-06
0.00091847047
-5.8808855e-05
0.00088027741
-4.3237876e-05
0.00081471804
-0.0001625246
0.00099852441
-0.00014810097
0.0011309728
-2.8334166e-05
0.0010222924
-4.5885505e-05
0.00087383737
-0.00010302225
0.00090575439
-2.8632473e-05
0.0010808206
8.3444961e-05
0.0012053914
0.0001657615
0.0010890431
0.00017289522
0.00085111755
5.5213983e-05
0.00071854542
-8.9736293e-05
0.00078096102
-0.00011686821
0.00094489399
3.406773e-05
0.0010096553
0.00015503126
0.00096654143
9.7572869e-05
0.0009515492
-4.5348373e-05
0.0010209244
-0.0001695991
0.0011012664
-0.0002030349
0.0010978944
-0.00014445175
0.0010061049
-3.943197e-05
0.00086209953
4.47447e-05
0.00078797319
8.698871e-05
4.7536315e-05
0.00079821705
0.0012946061
3.2707717e-05
0.0012677752
0.00012310606
0.0012499644
0.00018212133
0.0012612403
0.0002192876
0.0013102555
0.000231485
0.0013363652
0.00024468814
0.0013334184
0.00023496039
0.0013159073
0.00020234071
0.001270192
0.00023174904
0.0011961713
0.00022697604
0.0011574543
0.0001967952
0.0011913909
0.00014122105
0.0012207314
0.00013395001
0.0012058034
0.00010576192
0.0011725603
0.00013835989
0.0011242201
7.3279309e-05
0.001102626
-2.7555443e-05
0.0011034559
5.30613e-07
0.0010672389
-2.7948819e-07
0.0010663633
-4.7490474e-05
0.0010576895
-1.2670155e-05
0.0010469957
-9.6396979e-07
0.0010471022
-6.0849735e-05
0.001108588
-7.795679e-05
0.0011794419
3.360571e-05
0.0011410844
9.7251388e-05
0.0010398774
8.622532e-05
0.00097712537
8.9290572e-05
0.00090832586
0.00010161906
0.00085261856
2.2849601e-05
0.00088024874
-3.9639551e-05
0.00082914378
-5.7308124e-05
0.00077462637
-0.00015667524
0.00094588456
-0.00010081043
0.0010618142
-5.14144e-06
0.0009767221
-7.7289017e-05
0.00085958426
-0.00014785592
0.00086612429
-3.8538468e-05
0.0010130864
0.00010127218
0.0011455383
0.00018689969
0.0010387064
0.00015362446
0.00081258463
2.4988059e-05
0.00068511947
-9.0908134e-05
0.0007717379
-0.0001167285
0.00092019842
1.4481765e-05
0.00093268563
0.00013189597
0.00086866159
0.00010759899
0.00084247441
9.6531099e-06
0.00092562131
-9.6864535e-05
0.0010460644
-0.00015607465
0.0011014696
-0.00016577212
0.0010444085
-0.00012331927
0.00090120656
-6.241935e-05
0.00074061459
-1.1116783e-05
1.3779988e-05
0.00070268787
0.0012340724
3.5998783e-05
0.0012080527
0.00011973822
0.0011906151
0.00016414405
0.0012008576
0.00020786671
0.0012473176
0.00022111258
0.0012717573
0.00020928525
0.0012692788
0.00019152348
0.001254493
0.00019166464
0.0012110577
0.00021641775
0.0011402182
0.00021534935
0.0011007545
0.00018229378
0.0011321363
0.00011988383
0.0011602401
0.00011793704
0.0011504182
9.4166605e-05
0.0011168208
0.00012170157
0.0010690781
7.3336247e-05
0.001052383
-1.4791634e-05
0.0010524052
-3.3673047e-06
0.0010155163
-1.1738463e-05
0.0010173463
-2.0706847e-05
0.0010093156
-2.3738309e-05
0.00099452657
8.0571736e-06
0.00099424632
-4.6895721e-05
0.0010578031
-7.18724e-05
0.0011241979
2.7507797e-05
0.0010919668
8.1523994e-05
0.0010006184
8.1427686e-05
0.00094194803
9.0576381e-05
0.00086824131
9.5167563e-05
0.00081266427
3.5757625e-05
0.00084112275
-1.5065195e-05
0.0007852801
-7.1720421e-05
0.00074389286
-0.00015520376
0.00089534059
-5.9974483e-05
0.00099298572
2.39759e-05
0.00093348061
-8.5520768e-05
0.00085804583
-0.00017233293
0.00084489493
-5.6807725e-05
0.00095770553
0.00011979893
0.0010773926
0.00021580014
0.00098785775
0.00014044891
0.00078649466
-6.9974443e-06
0.00065120624
-0.00011607205
0.00075198347
-0.00010859823
0.00089344146
5.6529916e-06
0.00088392831
9.8951948e-05
0.00080863356
0.0001005025
0.00076335909
4.3566908e-05
0.0008267198
-2.5482105e-05
0.00095401984
-9.561902e-05
0.0010486274
-0.00014169747
0.0010361079
-0.00015882585
0.0009274529
-0.00014660338
0.00076189176
-0.00011413691
-5.6993655e-05
0.00065123554
0.0011765332
3.9701223e-05
0.0011512506
0.00011748792
0.0011341833
0.00014709745
0.0011433052
0.00018901418
0.0011868792
0.00020679037
0.0012100352
0.00017674099
0.0012086877
0.00015237428
0.0011954502
0.00017906267
0.0011543155
0.0001968796
0.0010868203
0.00019632421
0.001046181
0.00016316365
0.0010756894
9.8562689e-05
0.0011032677
0.00010779817
0.001097383
9.3550149e-05
0.0010635428
0.00010158203
0.001016601
6.8500942e-05
0.001003649
-1.1047102e-06
0.0010034055
-8.7188151e-06
0.00096850321
-2.2283533e-05
0.0009685412
8.1559333e-07
0.00096336084
-2.7886437e-05
0.00094533512
5.0223476e-06
0.00094311737
-3.7383978e-05
0.0010075999
-6.0385164e-05
0.0010708652
2.3067083e-05
0.0010453396
6.8884123e-05
0.00096192105
7.8183806e-05
0.00090518531
8.9588217e-05
0.00083037965
8.1385027e-05
0.00077478039
4.521363e-05
0.00079771961
1.284354e-05
0.00074455612
-8.2065482e-05
0.00071611415
-0.00015746107
0.00084659709
-3.3744331e-05
0.00092173392
5.1117867e-05
0.0008843955
-7.4215765e-05
0.0008485018
-0.00017661213
0.00083928116
-7.9485219e-05
0.00091782505
0.00013502538
0.001002508
0.00024736153
0.00092626839
0.00013848178
0.00075296727
-2.3615758e-05
0.00062258737
-0.0001493469
0.0007176617
-0.00010878081
0.00085631676
4.1765193e-06
0.00084789221
7.2186924e-05
0.00076618002
7.6455137e-05
0.0007071999
5.455808e-05
0.00073617241
2.1202916e-05
0.00084297091
-3.7272375e-05
0.00095536224
-9.4428572e-05
0.00098269593
-0.0001501692
0.00091390765
-0.00018593167
0.00078344058
-0.00019057031
-0.000143076
0.00066360239
0.001121496
4.1373363e-05
0.0010970005
0.00011610802
0.0010805083
0.00013611904
0.0010887154
0.00016537735
0.0011292569
0.00018539613
0.0011510951
0.00014918924
0.0011513066
0.00012497575
0.0011393835
0.0001643998
0.0011004198
0.00017524754
0.0010354238
0.00017049106
0.00099440415
0.00013899368
0.0010230512
8.1021279e-05
0.0010498017
0.00010050336
0.0010457886
9.6839643e-05
0.0010126883
8.0605927e-05
0.00096737372
5.7275994e-05
0.00095621662
1.2838116e-05
0.00095592678
-1.4914223e-05
0.00092492002
-2.2473597e-05
0.00092083425
1.6181647e-05
0.00091921843
-2.4865853e-05
0.00089917216
-3.6285348e-06
0.00089430972
-3.6614962e-05
0.00095920599
-4.7960591e-05
0.0010193893
2.2777531e-05
0.0010002509
5.9150757e-05
0.00092365091
7.3560765e-05
0.00086806399
8.3602834e-05
0.00079577464
6.2426287e-05
0.00073985065
4.9312094e-05
0.00075051778
4.0778101e-05
0.0007049418
-8.5879712e-05
0.00069283638
-0.00015963672
0.00080266002
-2.1350394e-05
0.00085386945
6.4449355e-05
0.00083176075
-5.029906e-05
0.00082709003
-0.000165093
0.00083982795
-9.868265e-05
0.00088635071
0.00013360532
0.00093232358
0.00027613455
0.00086622117
0.00015157989
0.00071663143
-2.8516826e-05
0.00060613389
-0.00018204998
0.00068594114
-0.00012404624
0.00081341691
1.1367741e-06
0.00081368041
5.725311e-05
0.00074009294
4.8006357e-05
0.00067279864
4.6176463e-05
0.00066556031
3.9108505e-05
0.00074266495
9.6089095e-06
0.0008438319
-3.7138673e-05
0.00089808424
-0.00011158833
0.00086611565
-0.00018317664
0.00078484896
-0.00022387027
-0.00020475829
0.00069699515
0.0010692031
4.0322375e-05
0.001045382
0.00011488939
0.0010293664
0.00013089817
0.0010367192
0.00014049355
0.0010743876
0.00015962002
0.0010949693
0.00012408311
0.0010964917
0.00011227178
0.0010858633
0.00014684895
0.0010490516
0.00015196176
0.00098644399
0.00014095089
0.00094564969
0.00011249009
0.00097348516
6.8480555e-05
0.00099895291
9.4880346e-05
0.00099585921
0.00010102793
0.00096475945
6.0865231e-05
0.00092176531
4.6982418e-05
0.00091080054
2.5979978e-05
0.00091142395
-2.2546175e-05
0.00088465479
-1.3108364e-05
0.00087576773
2.4217725e-05
0.00087728498
-1.0576625e-05
0.00085634427
-1.0403517e-05
0.00084950592
-4.2983465e-05
0.00091255284
-4.116775e-05
0.00097084369
2.3145125e-05
0.00095874184
5.3356611e-05
0.00088886875
6.8701797e-05
0.0008328821
7.9804526e-05
0.00076505935
4.0824045e-05
0.00070955214
4.5070501e-05
0.00070422828
6.7335871e-05
0.00066689708
-7.9982866e-05
0.00066855895
-0.00016145078
0.0007626271
-2.1846526e-05
0.00079453068
7.0520562e-05
0.00077698784
-2.6266458e-05
0.00079279519
-0.00014425713
0.00083400074
-0.00011416403
0.00086791196
0.00011281072
0.00086931792
0.00029038112
0.00080784348
0.00018400665
0.00066824968
-2.0621268e-05
0.00058933759
-0.00019772168