/*--------------------------------*- C++ -*----------------------------------*\
| =========                 |                                                 |
| \\      /  F ield         | OpenFOAM: The Open Source CFD Toolbox           |
|  \\    /   O peration     | Version:  2406                                  |
|   \\  /    A nd           | Website:  www.openfoam.com                      |
|    \\/     M anipulation  |                                                 |
\*---------------------------------------------------------------------------*/
FoamFile
{
    version     2.0;
    format      ascii;
    arch        "LSB;label=32;scalar=64";
    class       volScalarField;
    location    "10";
    object      rho;
}
// * * * * * * * * * * * * * * * * * * * * * * * * * * * * * * * * * * * * * //

dimensions      [1 -3 0 0 0 0 0];

internalField   nonuniform List<scalar> 
30397
(
1.0022572
1.0027176
1.0028927
1.0029625
1.0027835
1.0019259
1.0003539
0.99958435
1.000999
1.0025011
1.0028171
1.0027898
1.0028506
1.0025352
1.0019993
1.0012762
0.9996366
0.99805187
0.99814095
0.99919731
0.99967352
1.0001541
1.0005853
1.0003754
0.99979666
0.99939506
0.99955115
1.0001177
1.0004713
1.0007626
1.0012141
1.0018089
1.002428
1.002927
1.0032708
1.0035204
1.0038069
1.004198
1.0046752
1.005169
1.0055989
1.0058771
1.0059409
1.0057802
1.0054408
1.004964
1.0043874
1.0052303
1.0059349
1.0059865
1.0063763
1.0060125
1.0036254
0.9999882
0.99826308
1.0001483
1.0044312
1.0072028
1.0076021
1.0064475
1.0046388
1.0030248
1.0010091
0.99777494
0.99552136
0.99546469
0.99675679
0.99848103
1.0005211
1.0022796
1.0021601
1.001433
1.0008689
1.0007067
1.0008799
1.0013327
1.0021628
1.0035997
1.0053428
1.0068504
1.0078768
1.0084595
1.0089935
1.0098313
1.0109541
1.0120359
1.0127506
1.0129269
1.012544
1.0117019
1.0105292
1.0091182
1.007533
1.0058461
1.0053197
1.0056687
1.0049956
1.0050655
1.0050122
1.0023311
0.99774592
0.99534897
0.9973113
1.0025344
1.0071816
1.0078747
1.005928
1.0039059
1.0011998
0.99809469
0.99372067
0.99088013
0.99181607
0.99481713
0.99800232
1.0006486
1.0026513
1.0028533
1.0018859
1.0007571
1.000364
1.0002484
1.0007963
1.0021972
1.0044347
1.0070294
1.0093842
1.0111156
1.0120318
1.0124792
1.0128764
1.0131267
1.0127779
1.0116338
1.0098652
1.0078714
1.0059981
1.0043794
1.002991
1.0017835
1.0006241
1.005375
1.0050752
1.0033921
1.0027154
1.0022438
0.99975174
0.99595302
0.99389721
0.99516633
0.99994841
1.0046015
1.0056179
1.0048546
1.0025444
0.99778788
0.99442904
0.99152612
0.99019509
0.99242959
0.9951354
0.99701956
0.9988005
1.0004909
1.0017312
1.0019842
1.0029027
1.0039414
1.004269
1.0048744
1.0060256
1.0077098
1.0095317
1.0108899
1.0111746
1.0102664
1.0087889
1.0073494
1.0059207
1.0043377
1.0026107
1.0010193
0.99984689
0.99921482
0.99902377
0.99901752
0.99883782
0.99832928
1.0055052
1.0047388
1.0027098
1.0017026
1.0009255
0.9987234
0.99542739
0.99335348
0.99398927
0.9976251
1.0017142
1.0045426
1.0051746
1.0009806
0.99533538
0.99306768
0.99164502
0.99100626
0.99303972
0.99497057
0.99691786
0.99910214
1.0007689
1.0032853
1.0051677
1.0073951
1.0080734
1.0078934
1.0076895
1.0074499
1.0079524
1.008487
1.007977
1.0062036
1.003792
1.0015302
0.9997932
0.99853768
0.99773399
0.99743659
0.99757837
0.99796148
0.99834664
0.9984904
0.99825103
0.99762265
0.99670734
1.0058239
1.0051856
1.0032093
1.0021777
1.0013352
0.99990744
0.99698884
0.99423957
0.99375868
0.99597632
1.0002447
1.0047912
1.0040484
0.99882631
0.99476398
0.99376364
0.99284061
0.99325332
0.99516309
0.99645434
0.99895748
1.0011388
1.0031654
1.007371
1.0103539
1.0117463
1.0104119
1.0093201
1.0088169
1.0082621
1.0077629
1.0060526
1.0028589
0.99923613
0.9961356
0.99421034
0.99361186
0.99406642
0.99505708
0.99610863
0.99690774
0.99725615
0.99705135
0.99635528
0.99539924
0.9944902
0.99395607
1.0062636
1.0058226
1.0041889
1.0033779
1.0024548
1.0012913
0.99898904
0.99600247
0.99448605
0.99565105
0.999491
1.0027134
1.0015424
0.99738744
0.99416208
0.9935282
0.99408886
0.99589342
0.99825832
1.0006008
1.0037025
1.0050677
1.008472
1.0130488
1.0142196
1.0128249
1.0098288
1.0085091
1.0074178
1.0059366
1.0035441
0.99955183
0.99539408
0.99278025
0.99224475
0.99329917
0.99498566
0.99651467
0.99747993
0.99772455
0.99733198
0.99650536
0.99548038
0.99457689
0.99408204
0.99417022
0.99481416
1.0066766
1.0063396
1.0050363
1.003814
1.0024393
1.0018502
1.0007637
0.99832662
0.99613591
0.99629467
0.99820636
0.99910673
0.99860101
0.99511262
0.99234812
0.99316139
0.99624944
0.99899513
1.0016325
1.005721
1.0099507
1.0118016
1.0151675
1.0171659
1.0139553
1.0109015
1.0084263
1.0064361
1.0036282
1.0011556
0.99831237
0.99498079
0.9930942
0.99348331
0.99525627
0.99702497
0.99807242
0.99830363
0.9977922
0.9967793
0.99565222
0.99476347
0.99425464
0.994076
0.99416469
0.99447016
0.99491653
1.0073466
1.0060343
1.0046907
1.0039896
1.0021162
1.0010457
1.00102
1.0003209
0.99782996
0.9957782
0.9950339
0.99515568
0.99482695
0.99128445
0.99029193
0.99245995
0.99685573
1.0008996
1.0043289
1.0100916
1.0162843
1.0192634
1.0197739
1.0169014
1.012753
1.010321
1.0061576
1.0012372
0.99727818
0.99570519
0.99441697
0.99323172
0.99366257
0.9954318
0.99712544
0.99787893
0.99779903
0.99715199
0.99609517
0.99493584
0.99396302
0.99331234
0.99295967
0.99285728
0.99290747
0.99305355
0.99324509
1.0073455
1.005638
1.0035185
1.0026787
1.0013002
1.0000489
1.0001779
1.0008998
0.99910669
0.99551294
0.99282968
0.99182349
0.98986366
0.98745839
0.9884351
0.99161264
0.99628858
1.0009654
1.0062544
1.0149049
1.0222703
1.0230194
1.0193973
1.0149354
1.011575
1.0072141
1.0001984
0.99438989
0.99141733
0.99150943
0.99262569
0.99362511
0.99477843
0.9957687
0.9963206
0.99641777
0.99611354
0.99547166
0.99463992
0.99385401
0.99324416
0.99283909
0.99260382
0.99252963
0.99265518
0.99293662
0.9932849
1.0061033
1.0039553
1.0026411
1.0020169
1.0002897
0.99880457
0.99912761
1.0012467
1.0009311
0.99679713
0.99271895
0.99007011
0.98675609
0.98577664
0.98741671
0.99111576
0.99654057
1.0022574
1.0095655
1.0201315
1.0250525
1.0222538
1.0180241
1.0146323
1.0104984
1.0029007
0.99415434
0.98955774
0.98889058
0.99125959
0.99378723
0.99460125
0.99412806
0.99331996
0.99282823
0.99282099
0.99310565
0.99317132
0.99280274
0.99219621
0.99165853
0.99135971
0.99139384
0.99175359
0.99227537
0.99283401
0.99333882
1.0047072
1.0016353
1.0009632
1.0019348
1.0005903
0.99851716
0.99862884
1.0017761
1.0032352
0.99972404
0.99470923
0.98987675
0.9861514
0.98600626
0.98721068
0.99096779
0.99781298
1.0052584
1.0130959
1.0216685
1.0232196
1.0199255
1.0174512
1.0142876
1.0075878
0.99856825
0.99126727
0.98910058
0.99072117
0.99323266
0.99358491
0.99192943
0.98989405
0.98877625
0.98912578
0.99070013
0.99221098
0.9925075
0.99175852
0.99083567
0.99048977
0.99095589
0.99205042
0.99338671
0.99462446
0.99564033
0.99650593
1.003886
1.0006365
1.0000074
1.0017992
1.0016475
0.99964371
0.99886007
1.0014475
1.0037367
1.001898
0.9971736
0.99094764
0.98721081
0.98711614
0.98779899
0.99193179
0.99924133
1.0064
1.0126545
1.0189236
1.0206233
1.0191828
1.0167587
1.0106435
1.0016268
0.99434661
0.99042899
0.99037425
0.99174074
0.99141381
0.98917357
0.98667549
0.98546676
0.98622725
0.98867526
0.99151581
0.99308739
0.99299646
0.99211754
0.99169208
0.99230608
0.99385805
0.99589132
0.99787061
0.99947454
1.0006275
1.0015034
1.0036851
1.0003915
1.0003251
1.0023737
1.0026195
1.0009866
0.99956374
1.0007985
1.0030157
1.0031137
0.99958449
0.99324786
0.98937012
0.98860961
0.98905119
0.99318361
0.99963097
1.0048246
1.0110887
1.0179288
1.0198397
1.0179352
1.013045
1.0039859
0.99550672
0.99178607
0.99143081
0.99158333
0.99041779
0.98814955
0.98569475
0.98473837
0.98564622
0.98797647
0.99110186
0.99359758
0.99420878
0.9932058
0.99204327
0.99190741
0.99299795
0.99495857
0.9971835
0.99911755
1.0004776
1.0012325
1.0015867
1.0029451
0.99994282
1.001172
1.0035528
1.0032192
1.0011992
0.99945593
0.99998359
1.0020344
1.0031874
1.0011344
0.99623956
0.9929421
0.99118967
0.99037207
0.99338743
0.99799671
1.0033109
1.0123423
1.019373
1.0191717
1.0149486
1.0074542
0.99787126
0.99276448
0.99205281
0.99258262
0.99075486
0.98825141
0.98656846
0.98562164
0.98591391
0.98740485
0.98985099
0.99246558
0.99375294
0.993097
0.9914913
0.99054194
0.99105122
0.99293422
0.99549999
0.99791338
0.99947711
0.99999536
0.99970042
0.9990172
1.0021904
0.99912045
1.0010716
1.0040721
1.0036202
1.0012838
0.99907816
0.99894651
1.0007595
1.0025231
1.0019683
0.99900023
0.99682551
0.99401159
0.99149576
0.9931628
0.9971569
1.0040433
1.0140895
1.0194372
1.017621
1.0112545
1.0023073
0.9949908
0.99342143
0.99367339
0.99218847
0.98859373
0.98612522
0.98555561
0.98566742
0.98623011
0.98778595
0.99006254
0.99169032
0.99163467
0.9904703
0.98966414
0.99014619
0.9918864
0.99422772
0.99639583
0.997664
0.99779022
0.99703923
0.99588234
0.99488902
1.001837
0.99837994
1.000009
1.0034545
1.0039844
1.001506
0.99883403
0.99786523
0.99907756
1.0008654
1.0016759
1.0010747
0.99983709
0.9960048
0.99237248
0.99374077
0.99792096
1.0051011
1.0135005
1.0172586
1.0152718
1.0081955
1.0003939
0.99496646
0.99355928
0.99165246
0.98853293
0.98578975
0.98458494
0.9852646
0.98648115
0.98763174
0.98927492
0.99110276
0.99190777
0.99144855
0.99064186
0.99050075
0.99125059
0.99249434
0.99367885
0.99438593
0.99449942
0.99419726
0.99377021
0.99372003
0.99430672
1.0011697
0.99762287
0.99920667
1.002619
1.0039135
1.0016055
0.99855282
0.99695256
0.99735517
0.99888169
1.0008971
1.0024217
1.0017237
0.99767017
0.99459593
0.99629884
0.99971414
1.0053358
1.0120769
1.0158588
1.0134147
1.006609
1.0002309
0.99470719
0.99148701
0.98757935
0.98520429
0.98499952
0.98527839
0.98667935
0.98836912
0.98939705
0.99031347
0.99121147
0.99160553
0.99110938
0.99014345
0.98943958
0.98940015
0.9899354
0.99075636
0.99158351
0.99244018
0.99347233
0.99481145
0.99654458
0.99870419
1.0000856
0.99597106
0.99804833
1.0022315
1.0042348
1.0018906
0.99812584
0.99583614
0.99578794
0.9976107
1.000672
1.0036151
1.0029049
0.99922197
0.99763696
0.99907205
1.0008683
1.0052595
1.0124439
1.0159945
1.0113675
1.004226
0.99830952
0.99260439
0.98917206
0.98611087
0.98621753
0.98802248
0.98889357
0.98966646
0.98994549
0.98948033
0.98921224
0.98952953
0.98963241
0.98870579
0.98715693
0.9860304
0.98619952
0.98764615
0.98987882
0.99231746
0.99467871
0.99697898
0.99930706
1.0014599
1.003146
0.99914279
0.99444905
0.99676763
1.002357
1.0054565
1.0027135
0.99783247
0.99481552
0.99481538
0.99740994
1.0011862
1.0046473
1.0037959
1.0005942
1.0001953
1.0008905
1.0017202
1.0063684
1.0142825
1.0160179
1.0079993
0.99992357
0.99475269
0.99063607
0.98927045
0.98876398
0.99062779
0.9927815
0.99254577
0.99061579
0.98846068
0.98721438
0.98704251
0.98745343
0.98764358
0.98700767
0.98601686
0.98595894
0.98769105
0.99085613
0.99457076
0.99806282
1.0009221
1.0029219
1.0040166
1.0042134
1.0035759
0.99850461
0.99349832
0.99611109
1.0022269
1.0066218
1.003801
0.9979697
0.99440146
0.99453872
0.99775624
1.0018568
1.0050973
1.0041909
1.0016451
1.0015917
1.001983
1.0033227
1.0091094
1.0158864
1.0141233
1.0032023
0.99562839
0.99256264
0.99104342
0.99153354
0.99236435
0.99486754
0.99557669
0.99241076
0.98765856
0.98468646
0.98444452
0.98565732
0.98716307
0.98835899
0.98886091
0.98922996
0.99061726
0.99355438
0.99762651
1.0016619
1.0044604
1.0054677
1.0049317
1.0034659
1.0015426
0.99937681
0.99797771
0.99298919
0.99595081
1.0022042
1.0073382
1.0048978
0.99851508
0.99447912
0.99471064
0.998351
1.0024895
1.0050152
1.0041161
1.0019254
1.0017356
1.0028646
1.0063032
1.0124058
1.015802
1.0104434
0.99890833
0.99444173
0.99418332
0.99332049
0.99347935
0.99450156
0.99668603
0.99490074
0.98956748
0.9843077
0.9825409
0.98435797
0.98760368
0.99054712
0.99235499
0.99334561
0.99458634
0.99690042
1.000196
1.0035828
1.0057561
1.0058773
1.0040188
1.0010885
0.9979856
0.9951234
0.99257287
0.99765103
0.99260602
0.99563989
1.0022694
1.0077547
1.0058816
0.99915907
0.99495889
0.99528838
0.99887849
1.0025114
1.0042926
1.0034792
1.0015031
1.0016485
1.0046311
1.0101185
1.0145588
1.0144219
1.0068671
0.99737401
0.9968393
0.99748305
0.99526467
0.99427454
0.99499015
0.99598511
0.99221801
0.98678977
0.98331189
0.98388146
0.98759484
0.99200727
0.99511732
0.99650405
0.99733881
0.99893532
1.0012801
1.0035582
1.0048427
1.0044764
1.0022233
0.99862831
0.99467341
0.99117281
0.98861695
0.98702285
0.99757015
0.99220098
0.99470652
1.001747
1.0078127
1.0067003
0.99971282
0.99564796
0.99597529
0.99907874
1.0020221
1.0034368
1.0027637
1.0009398
1.00217
1.0070427
1.0130578
1.0146529
1.0125765
1.0047282
0.99861305
0.99995542
0.99916049
0.99536533
0.9946907
0.99535935
0.99467758
0.98973553
0.98578213
0.98510899
0.98741325
0.99171905
0.99605585
0.99838825
0.99883588
0.99951395
1.0013216
1.0031346
1.0037158
1.0027675
1.0003599
0.99673558
0.99261865
0.98907225
0.9868791
0.98626873
0.98684624
0.99762855
0.99177097
0.99360938
1.0007914
1.0075497
1.0071857
1.0004072
0.99647147
0.99659008
0.99923297
1.001455
1.00274
1.0020301
1.0006212
1.003029
1.0091417
1.013967
1.013576
1.0108915
1.0045252
1.0012383
1.0016273
0.99852226
0.99549239
0.99602897
0.99621764
0.99396505
0.9886025
0.98675191
0.98777378
0.99043921
0.99443191
0.99803784
0.99969587
1.0002625
1.0016464
1.0035868
1.004194
1.0027487
0.99974117
0.99584425
0.99182952
0.98868224
0.98709879
0.98723745
0.98877134
0.99108321
0.99769186
0.99140942
0.99283852
0.99976144
1.0069394
1.0073838
1.0014219
0.99753486
0.9974593
0.99946674
1.0009361
1.0019501
1.0011251
1.0005006
1.0038972
1.0100635
1.0132381
1.0122468
1.0101163
1.0056502
1.0034743
1.0015271
0.99855778
0.99738447
0.99776356
0.99690139
0.99380347
0.98880662
0.98834834
0.98971179
0.99225507
0.99603069
0.99959203
1.0018405
1.0031659
1.0044926
1.0051064
1.0038283
1.000682
0.9965326
0.99244688
0.98942944
0.98812395
0.98852047
0.99020175
0.99276137
0.99566721
0.9978318
0.9912562
0.99218958
0.99866482
1.0058942
1.0073023
1.0026863
0.99887918
0.99871135
1.0000624
1.0005872
1.0008929
1.0001983
1.0004451
1.0046089
1.0097896
1.0119608
1.0113675
1.009923
1.0066175
1.0042207
1.001791
1.0008424
1.0002765
0.9984673
0.99660065
0.99344353
0.98927123
0.98986724
0.99159814
0.99457671
0.99882571
1.0030818
1.0055582
1.0058709
1.0051056
1.0036652
1.0012297
0.99775023
0.99400473
0.99097792
0.98945871
0.98960794
0.99109416
0.99365724
0.99667389
0.99958739
0.99804349
0.99139863
0.99151267
0.99731965
1.00444
1.0068981
1.0040235
1.0003788
1.0000548
1.0009268
1.0004027
0.9996037
0.99939732
1.0004028
1.0048204
1.008892
1.010828
1.0108552
1.0091485
1.0061399
1.0041101
1.0034665
1.0047267
1.0023739
0.99751375
0.99520638
0.99254628
0.9900007
0.99217121
0.99472183
0.99862647
1.0034801
1.0073805
1.0079679
1.0054573
1.0024431
1.0000582
0.99772884
0.99512862
0.99263653
0.99097384
0.99066897
0.99185937
0.99433873
0.9974153
1.0003513
1.0027964
0.99831779
0.99153073
0.99089542
0.99570594
1.002816
1.0063645
1.0050891
1.0016949
1.0011523
1.001965
1.0003801
0.99834664
0.99857476
1.0002143
1.0043633
1.0078987
1.0102828
1.0099976
1.0071647
1.0046616
1.0042436
1.0064842
1.0082723
1.002496
0.99542668
0.99327149
0.9920135
0.99168926
0.99530757
0.99882855
1.0035442
1.0078805
1.0094269
1.0068295
1.0020709
0.99831508
0.99634255
0.99526334
0.9942273
0.9931489
0.99262096
0.99335257
0.99542089
0.99818096
1.0009202
1.0031853
1.0048536
0.99854673
0.9915171
0.99054491
0.9941652
1.0013331
1.0058113
1.0057535
1.0028024
1.0021556
1.0030606
1.0006693
0.99730453
0.99746197
0.99975363
1.0036131
1.0074027
1.0100283
1.0084171
1.0047424
1.003373
1.0052361
1.0091039
1.0090241
1.0006303
0.99293028
0.99187463
0.99271107
0.99457151
0.99913678
1.0031558
1.0074403
1.0093583
1.007891
1.0033585
0.99813849
0.99501441
0.99473157
0.99561583
0.99606462
0.99597701
0.99617666
0.997254
0.9991091
1.0012727
1.0032555
1.0047956
1.0058283
0.99871996
0.99169915
0.99047564
0.99298462
0.99995339
1.0051333
1.0061198
1.0038397
1.0033431
1.0041144
1.0010938
0.99644617
0.99623705
0.99899946
1.0029539
1.0075048
1.0094345
1.0063289
1.0027468
1.0030519
1.0066689
1.0096693
1.0068295
0.99741226
0.99093716
0.99176161
0.99513562
0.99861988
1.0031063
1.0063039
1.0083132
1.0074686
1.0044523
0.99973926
0.99552468
0.9945321
0.99638662
0.99869233
0.99993509
1.0001341
1.0000824
1.0004621
1.0014829
1.0029009
1.0043159
1.0053059
1.0058017
0.99909346
0.99235015
0.99061109
0.99210301
0.99847575
1.0042177
1.0061152
1.0047459
1.0045509
1.0049311
1.0014813
0.99598398
0.99531697
0.99805493
1.0025479
1.0076609
1.0081109
1.0039875
1.0016682
1.0038078
1.0077794
1.0078624
1.0028676
0.99402102
0.99006013
0.99325987
0.99888606
1.0030999
1.0060667
1.0069493
1.0064304
1.004178
1.0010177
0.99749843
0.99546612
0.99667546
0.99993855
1.0027694
1.0039005
1.0034545
1.0024059
1.0018663
1.0022918
1.0033075
1.0042641
1.0046978
1.0046409
0.99952166
0.99325747
0.99089088
0.99140782
0.9969252
1.003053
1.0056957
1.0052307
1.0052275
1.0055341
1.0018082
0.9960192
0.99477946
0.99715954
1.0023987
1.0074228
1.0060411
1.0019827
1.0015022
1.0052564
1.0079511
1.0045269
0.99857435
0.99133142
0.9906329
0.99592061
1.0030801
1.0065452
1.0068732
1.0054716
1.0036485
1.0011543
0.99895078
0.99721763
0.99719367
0.99981069
1.0036335
1.0062768
1.0064732
1.0048346
1.0028764
1.0018252
1.0019678
1.0027124
1.0032765
1.0033483
1.0031624
0.99981923
0.99402
0.99134047
0.99095107
0.99559506
1.0017655
1.0049692
1.0051316
1.0053874
1.0060196
1.002055
0.99627762
0.9945466
0.99664304
1.0024285
1.0067188
1.0038079
1.0007387
1.001965
1.0066534
1.0068996
1.0008975
0.99494363
0.99012884
0.99236834
0.99913269
1.0062725
1.0076603
1.0057885
1.0033449
1.0012468
0.99961752
0.99868991
0.99819986
0.99933065
1.002849
1.0065941
1.0082197
1.0071591
1.0045083
1.0019864
1.0006867
1.0007271
1.0014011
1.0019878
1.0023728
1.0026994
1.000044
0.9944811
0.99199275
0.99089027
0.9946918
1.0005566
1.0041081
1.0046323
1.0054605
1.0064109
1.002228
0.99656094
0.99460225
0.9965518
1.0025214
1.0056819
1.0019623
1.0003031
1.0027303
1.0072492
1.0048463
0.99761461
0.99285053
0.99053489
0.99472516
1.001848
1.00745
1.0067706
1.0040899
1.0015205
1.0001107
0.99977478
0.99967174
0.9997947
1.0016169
1.0051613
1.0081874
1.0086127
1.0065018
1.0031641
1.0002616
0.99893461
0.99918661
1.0002955
1.001596
1.0027705
1.0037777
1.0002525
0.9947925
0.99279363
0.99121627
0.99411049
0.99962372
1.0032378
1.0042692
1.0056839
1.0067395
1.0023889
0.99686484
0.99493502
0.99680068
1.0025048
1.0043276
1.0007097
1.0003586
1.0035011
1.006612
1.0021947
0.99523103
0.99235293
0.99202361
0.9970232
1.0032537
1.0068923
1.0052311
1.0025621
1.0003902
1.0001689
1.0009552
1.0012481
1.0015861
1.0033857
1.0063172
1.0083249
1.0078853
1.0050423
1.0012758
0.99841494
0.99747481
0.99845107
1.0005411
1.0027123
1.0044463
1.0057201
1.0005075
0.99517972
0.99359824
0.99174545
0.99369193
0.99900545
1.0024722
1.004283
1.0060328
1.0070721
1.0025809
0.99726439
0.99544514
0.99734855
1.0023001
1.0026652
0.99986924
1.0008167
1.0039523
1.0050344
0.99959088
0.9938021
0.9929418
0.9939037
0.99852632
1.0033924
1.0057715
1.004193
1.0015413
0.9997598
1.000676
1.00216
1.0027727
1.0031648
1.0044266
1.0064144
1.0076526
1.0066354
1.0034412
0.99973039
0.99741707
0.99747145
0.9994988
1.0023736
1.0049272
1.0066559
1.0076521
1.0008392
0.99572937
0.99425024
0.99224664
0.99334252
0.99855005
1.0019408
1.0043979
1.0064388
1.0074354
1.0027126
0.9977445
0.99606013
0.99820308
1.0019373
1.0008788
0.99924901
1.0014823
1.0039931
1.0031349
0.99744252
0.99311947
0.99384189
0.99553197
0.99926635
1.0030002
1.0052701
1.0038723
1.000768
0.99916461
1.0008058
1.0028631
1.0039478
1.0043427
1.0048559
1.0060978
1.006885
1.0055964
1.0024484
0.99933437
0.99810767
0.99928922
1.0020546
1.0050826
1.0073013
1.0084778
1.0088818
1.0010334
0.99637934
0.99469466
0.99263445
0.99305247
0.99802247
1.0015796
1.0043033
1.006886
1.0076525
1.0027935
0.99821946
0.99677962
0.99922712
1.001437
0.99921714
0.99884238
1.0021828
1.0036997
1.0014093
0.99597384
0.99281625
0.99450221
0.99670817
0.99951117
1.0029645
1.0056034
1.0040479
1.0000723
0.9981535
1.0003149
1.003076
1.0047645
1.005103
1.0050815
1.005958
1.0065562
1.0052155
1.0024829
1.0002861
1.0001767
1.0021028
1.0049672
1.0075234
1.0089832
1.0094484
1.0093283
1.0010193
0.99688391
0.99499093
0.99296577
0.99288768
0.99739165
1.0011881
1.004014
1.0072752
1.0076613
1.0028839
0.99863461
0.99757083
1.000191
1.0008749
0.99786437
0.99867133
1.0027773
1.003126
1.0001631
0.9951809
0.99266066
0.99465651
0.99750825
0.99975825
1.0035365
1.0065256
1.0044102
0.99915263
0.9968206
0.99948527
1.0030607
1.0053596
1.005595
1.0053776
1.0062075
1.0067654
1.0055283
1.0033031
1.0020106
1.0026864
1.0048304
1.0073259
1.0091168
1.0098547
1.0097747
1.0093311
1.0008101
0.99704787
0.99523814
0.99334284
0.99287447
0.99673781
1.0006241
1.0037229
1.007458
1.0074857
1.0029454
0.99902205
0.99832707
1.0008341
1.0003125
0.99696868
0.99864986
1.0030667
1.0024207
0.99943927
0.99500963
0.99244369
0.99444813
0.99794779
1.0001278
1.0045192
1.0075729
1.0043835
0.99793933
0.99549796
0.99880212
1.0032024
1.0058353
1.0059745
1.0058182
1.0067515
1.007309
1.0061325
1.0043718
1.0037461
1.0048122
1.0068585
1.0088317
1.0099889
1.0102298
1.0098751
1.0092445
1.0005911
0.9968713
0.99549579
0.99381372
0.99307775
0.99623396
0.99992987
1.0034677
1.0073805
1.0071716
1.0028908
0.99940252
0.99895339
1.0010521
0.99969709
0.99657074
0.99885948
1.0028902
1.0017856
0.99920675
0.99520664
0.99221444
0.993924
0.998007
1.0005743
1.0055935
1.0080768
1.0037798
0.9966576
0.99462487
0.99873103
1.0036752
1.0062346
1.0062782
1.006295
1.0073326
1.0077563
1.0066202
1.0052411
1.0050749
1.0063175
1.0081652
1.0096816
1.0104321
1.0104369
1.0099526
1.0091759
1.0004993
0.99654416
0.99570237
0.99439758
0.99354624
0.99603043
0.99924959
1.0031337
1.0070651
1.0067253
1.0026743
0.99969726
0.99947335
1.0009519
0.99908133
0.99660713
0.99922472
1.0023809
1.0014108
0.99937963
0.99545911
0.99194552
0.99337878
0.99799206
1.0011081
1.006417
1.0077672
1.0025749
0.99552705
0.99446293
0.99937646
1.0044146
1.0066116
1.0065899
1.0066922
1.0076052
1.0078189
1.0067924
1.0058145
1.0060146
1.0072789
1.008876
1.0100893
1.0106469
1.010543
1.0099633
1.0090726
1.0005082
0.99630258
0.9958432
0.99508287
0.99430999
0.99613905
0.99866808
1.0026752
1.006563
1.0061291
1.0022611
0.99981534
0.99991463
1.0007192
0.99850136
0.99687603
0.99959009
1.0018133
1.0013071
0.9996774
0.99549916
0.99173353
0.99312975
0.99825925
1.0017417
1.0067093
1.0067011
1.0008763
0.99467961
0.99491945
1.0003368
1.0052058
1.0070735
1.0069889
1.0069494
1.0075023
1.0075132
1.0067385
1.0062025
1.0066843
1.0078923
1.0092486
1.0102623
1.010692
1.0105357
1.0098985
1.0089237
1.0005548
0.99619545
0.99590424
0.99583361
0.99531905
0.99646821
0.99822688
1.0021695
1.0059609
1.0053343
1.0016792
0.99976399
1.0003643
1.00047
0.99789667
0.99731575
0.99984877
1.0013873
1.0015078
0.99991393
0.99518857
0.99156774
0.99348275
0.99902287
1.0024579
1.0063672
1.0049632
0.99895086
0.99412834
0.99556324
1.0013323
1.005993
1.0076597
1.007429
1.0070008
1.0070698
1.0070192
1.0066349
1.0065812
1.0072479
1.0083385
1.0094714
1.010347
1.010725
1.0104983
1.0097572
1.0087531
1.0005987
0.99623825
0.99594006
0.99667907
0.99653089
0.99689224
0.99794896
1.0018013
1.0053391
1.0043694
1.0010028
0.99959792
1.0008098
1.0001993
0.99729021
0.99782821
1.0000282
1.0011862
1.0020081
0.99991342
0.99453629
0.99161911
0.9946037
1.000275
1.0031031
1.0055051
1.0028151
0.99706794
0.99370182
0.99612967
1.0021145
1.0066681
1.0082405
1.0077873
1.0068258
1.0064679
1.0065329
1.0066745
1.0070995
1.0078727
1.0088385
1.0098075
1.0105827
1.0108547
1.0104742
1.0096027
1.0085235
1.0006003
0.99624167
0.99583809
0.99748434
0.99773977
0.99721947
0.99775425
1.0014839
1.0045985
1.0033405
1.000339
0.99951908
1.0013055
0.99993566
0.99667209
0.99834307
1.000218
1.001355
1.0026715
0.99960603
0.99369269
0.99200743
0.99633023
1.0018139
1.0034565
1.0041782
1.0005992
0.9954068
0.99331524
0.99650842
1.0026938
1.0072393
1.0088464
1.0080728
1.0065015
1.0058695
1.0062829
1.0070379
1.0078577
1.0086701
1.0094681
1.0103054
1.010969
1.0110842
1.0104789
1.0094543
1.0083283
1.0006016
0.9964981
0.99559543
0.99962458
1.0010164
0.99850669
0.99775224
1.0008689
1.0030791
1.0014204
0.99888519
0.99907049
1.0020519
0.9997465
0.99584026
0.99882913
1.000365
1.0020805
1.0040796
0.99947487
0.9926298
0.99264294
0.99841143
1.0036679
1.0034509
1.0022365
0.99864391
0.99434165
0.99261757
0.99546631
1.0015181
1.0068052
1.0092609
1.0086013
1.0063758
1.0052391
1.0060085
1.007519
1.0088272
1.0096611
1.0102878
1.0109617
1.0115293
1.0116075
1.0109993
1.0099172
1.0087165
1.0013126
0.99639024
0.99488929
1.0011753
1.0055834
1.0016677
0.99828906
1.0010075
1.0024041
1.0001024
0.99681187
0.99796588
1.0017805
1.0000812
0.99686938
0.99876205
0.99953057
1.0039395
1.0058408
0.99976808
0.99214183
0.99260016
0.99940476
1.0051408
1.0039791
1.000388
0.99760563
0.99510192
0.99328381
0.99428154
0.99844951
1.0035566
1.0071906
1.0078892
1.0061431
1.0046613
1.0052059
1.0071898
1.0092468
1.0106125
1.0113126
1.011755
1.0120819
1.0121806
1.0118114
1.0110094
1.0099419
1.0024586
0.99783617
0.99396371
1.0005464
1.0076224
1.0047071
0.99942508
1.0010457
1.001872
0.99846878
0.99528867
0.99671814
1.0000989
0.99901592
0.99829556
0.99870179
0.99883323
1.0059626
1.0069317
0.99991393
0.99289085
0.99342541
0.99919942
1.004527
1.0032432
0.99807576
0.99629752
0.99639145
0.99555825
0.99501993
0.99684802
1.0004241
1.0040142
1.0059063
1.0052719
1.0039332
1.0041371
1.0061181
1.0087512
1.010893
1.0120501
1.0123996
1.0124108
1.0122588
1.0119275
1.011404
1.0106635
1.0031422
0.99971265
0.99376596
0.99946913
1.0081687
1.0086883
1.0033812
1.0015019
1.0012317
0.99707501
0.99447864
0.99595199
0.9981505
0.99715499
0.99785747
0.99812233
0.99944224
1.0079691
1.0074864
0.99953752
0.99452816
0.99565377
0.99967049
1.0028996
1.0015406
0.99541247
0.99424902
0.99663503
0.99765771
0.99729641
0.99738663
0.99910677
1.0015437
1.0035956
1.0040691
1.0032357
1.0029298
1.004363
1.0070883
1.0098638
1.0117391
1.0124288
1.0122775
1.0117906
1.0112907
1.0108417
1.0103766
1.0035924
1.0017736
0.99440828
0.99864461
1.0078643
1.0117053
1.0080354
1.0033598
1.0007056
0.99686348
0.9942912
0.99575008
0.99639173
0.99554467
0.99545241
0.99606967
1.000666
1.0097643
1.0083277
0.99935244
0.99590384
0.99835655
1.0014731
1.0025373
1.0008323
0.993863
0.99232957
0.99560985
0.99788212
0.99864322
0.9987623
0.99943593
1.0008363
1.002476
1.0035156
1.003226
1.0026465
1.0030066
1.0048473
1.0075554
1.0099768
1.011373
1.0115976
1.0110986
1.0104221
1.0098622
1.0094603
1.001979
1.0023041
0.99643927
0.99872939
1.0071362
1.0137358
1.0124911
1.0061143
1.0002952
0.99655861
0.99463276
0.99612862
0.99550356
0.99474592
0.99291074
0.99333302
1.000477
1.0097955
1.0091092
1.0004204
0.99737721
1.0000455
1.002875
1.0031746
1.0016916
0.99463889
0.99200109
0.99449567
0.99643823
0.99802495
0.9991732
0.99995836
1.0012448
1.0027839
1.0041878
1.0045782
1.0039475
1.0032988
1.0036262
1.0051397
1.0073075
1.0091848
1.0101744
1.0102569
1.0097779
1.0091892
1.0086663
1.000818
1.0025282
0.99851646
0.99872873
1.0053811
1.0135429
1.0157571
1.0096684
1.0007057
0.99579189
0.99544747
0.99711964
0.99555931
0.99419764
0.99108514
0.99213573
1.0002297
1.0081208
1.0089854
1.0022173
0.99918406
1.0008815
1.0029306
1.0028166
1.0026185
0.99687959
0.99330903
0.99428836
0.99497341
0.99659144
0.9984387
0.99963197
1.0012445
1.0031883
1.0051363
1.0063773
1.0062823
1.0052907
1.0042241
1.0040952
1.0051199
1.0067532
1.0082525
1.0091114
1.0092393
1.0089226
1.0083791
1.0000644
1.004032
1.0015621
0.99933679
1.0024121
1.0104277
1.0160919
1.0135771
1.0030482
0.99526986
0.99585676
0.99811775
0.99643186
0.99365338
0.98982333
0.99263529
1.0007726
1.0061703
1.0079956
1.0036899
1.0004907
1.0014932
1.0027893
1.0016947
1.0020409
0.99902273
0.99538856
0.99476563
0.99425644
0.99573124
0.99782497
0.99903054
1.0004845
1.0025091
1.004864
1.0069545
1.0079356
1.0075119
1.0061467
1.0048668
1.0046107
1.0054606
1.0068517
1.0081311
1.0088147
1.0088772
1.0084916
0.99960315
1.0054144
1.006269
1.001921
0.99906631
1.0046734
1.013282
1.0155208
1.0070464
0.99663055
0.99591785
0.99881847
0.99770801
0.99369474
0.9891913
0.99341206
1.0016184
1.0050081
1.0071622
1.0054272
1.0009441
1.0015361
1.002947
1.0015713
1.0007762
0.99943544
0.99644935
0.99465981
0.99394414
0.99585756
0.99842283
0.99965974
1.0005114
1.0017328
1.0036477
1.0059285
1.0076236
1.0082596
1.0076894
1.0064168
1.0055097
1.0056332
1.0066086
1.0078577
1.0087424
1.0090722
1.0088494
0.99864397
1.0047334
1.0096315
1.0056784
0.99777044
0.99865711
1.0082562
1.0142321
1.0101354
1.0000851
0.99697479
0.99933966
0.99876163
0.99422507
0.98984645
0.99436362
1.0029656
1.0052524
1.00655
1.0066555
1.0010076
1.0006148
1.0028576
1.0026425
1.0005418
0.9991476
0.99630706
0.99361342
0.99338601
0.99631172
0.99986863
1.0017905
1.0024269
1.0025467
1.0032651
1.0047014
1.0062412
1.0074776
1.0079165
1.0074396
1.0067084
1.0065141
1.0070906
1.0080903
1.0089256
1.0093177
1.0092054
0.99726795
1.0025473
1.0120212
1.0118076
1.0010479
0.99586405
1.0027459
1.0106836
1.0108458
1.0040052
0.99981658
1.0010257
1.0000381
0.99490589
0.99127832
0.99523903
1.0039207
1.0068652
1.0071638
1.0068232
1.0011301
0.99991622
1.0025079
1.004117
1.0021737
0.9998721
0.99594477
0.99252322
0.99276069
0.99629469
1.0004995
1.0033861
1.0048204
1.0048968
1.0047345
1.0049567
1.0056309
1.0066285
1.0076316
1.0079424
1.0076057
1.0073161
1.0075668
1.0082633
1.0089356
1.0093245
1.0092823
0.99868493
1.001227
1.0113127
1.015652
1.0069118
0.99668757
0.99858981
1.006242
1.0089024
1.0062487
1.0033914
1.0040291
1.0018984
0.99562231
0.99254547
0.99575421
1.0036064
1.0083575
1.0087539
1.0064948
1.0014331
1.0000238
1.0023467
1.0047518
1.0041813
1.0020322
0.99678364
0.99233605
0.99234634
0.99549505
0.99932359
1.0025366
1.0049507
1.0061221
1.0064975
1.0064992
1.006439
1.0069389
1.0079563
1.0085938
1.0084368
1.0079578
1.007814
1.0081938
1.0087491
1.0091628
1.0092007
1.0014797
1.0015105
1.0084987
1.0150561
1.0120073
1.0008519
0.99666714
1.0016316
1.0047398
1.0052861
1.0057696
1.0065246
1.0035914
0.99650744
0.99386005
0.99667116
1.0026698
1.0084382
1.0092959
1.00555
1.0010954
1.0005148
1.0027111
1.0046047
1.0046994
1.0036539
0.99881455
0.99388711
0.99289526
0.9947477
0.99749678
1.0002096
1.0026682
1.0046314
1.0061704
1.0069595
1.0071076