/*--------------------------------*- C++ -*----------------------------------*\
| =========                 |                                                 |
| \\      /  F ield         | OpenFOAM: The Open Source CFD Toolbox           |
|  \\    /   O peration     | Version:  2406                                  |
|   \\  /    A nd           | Website:  www.openfoam.com                      |
|    \\/     M anipulation  |                                                 |
\*---------------------------------------------------------------------------*/
FoamFile
{
    version     2.0;
    format      ascii;
    arch        "LSB;label=32;scalar=64";
    class       volScalarField;
    location    "10";
    object      rho;
}
// * * * * * * * * * * * * * * * * * * * * * * * * * * * * * * * * * * * * * //

dimensions      [1 -3 0 0 0 0 0];

internalField   nonuniform List<scalar> 
30397
(
1.0021828
1.0024275
1.00248
1.002706
1.0026577
1.0018824
1.0004044
0.99965089
1.0010304
1.0028483
1.0034145
1.0030498
1.0026299
1.0027764
1.0027667
1.0008666
0.99859304
0.99745747
0.99777277
0.99979573
1.0010522
1.0011902
1.0007004
0.9995327
0.99894261
0.99914933
0.99965824
1.0000381
1.0003478
1.0006862
1.0012358
1.0019065
1.002434
1.0027516
1.0029738
1.003196
1.0034963
1.003906
1.0043702
1.0048353
1.0052653
1.005594
1.0057754
1.0057478
1.0054765
1.004979
1.004314
1.0051244
1.0056123
1.0054066
1.0055592
1.0050534
1.0029202
0.99991721
0.99860619
1.000618
1.0050481
1.0079046
1.0078879
1.0064681
1.0057288
1.0041026
0.99979342
0.99734839
0.99566307
0.99515491
0.99736575
0.99950999
1.0011114
1.0022586
1.0019451
1.0018264
1.0013809
1.0002098
0.99920317
0.99957954
1.0010239
1.0031385
1.0051806
1.0064912
1.0070643
1.0074046
1.0079529
1.0088998
1.0101041
1.0113115
1.0123024
1.0128784
1.0129176
1.0123671
1.0112879
1.0098183
1.0081344
1.006407
1.0051934
1.0053262
1.0046659
1.0047617
1.0043088
1.0011808
0.99666326
0.99502061
0.99776918
1.0032949
1.0079841
1.0086983
1.0063437
1.0045387
1.0018834
0.99685215
0.99458621
0.99219119
0.99181976
0.99471042
0.9979369
1.0016647
1.0040167
1.0036034
1.0026779
1.0008931
0.99895861
0.99814055
0.99921318
1.0015856
1.0044382
1.0068304
1.0083489
1.0091628
1.0097228
1.0104509
1.011366
1.0121305
1.012408
1.0120712
1.0111934
1.0099314
1.0083908
1.0067156
1.0050415
1.003485
1.0020764
1.0052968
1.0043975
1.0026727
1.0023289
1.0021476
0.99945904
0.99529023
0.99343998
0.9951713
0.99983448
1.0048794
1.0062825
1.0047126
1.0028431
0.9984542
0.99436779
0.99328337
0.99138491
0.99200452
0.99504911
0.99815968
1.0013734
1.0015536
1.0013238
1.0025713
1.0037004
1.0039263
1.0037114
1.0042892
1.0053191
1.0067239
1.0078921
1.0083839
1.0084015
1.0080767
1.0075936
1.0069748
1.0061254
1.005039
1.0038846
1.0028664
1.0020792
1.001476
1.0009936
1.0005364
1.0000027
0.99927807
1.0059328
1.0044951
1.0019225
1.0008596
1.0005315
0.99867226
0.99547278
0.99343818
0.99396228
0.99743688
1.0020438
1.0048159
1.0042909
1.0013949
0.99636291
0.99358622
0.99236671
0.99159781
0.99368588
0.99623167
0.99834317
1.0006495
1.0008001
1.0033444
1.0070798
1.0089437
1.008051
1.0062489
1.0050839
1.0049125
1.0059958
1.0067921
1.0062347
1.004604
1.0024455
1.0004505
0.99901507
0.99822795
0.99814704
0.99863123
0.9994463
1.0002197
1.0006282
1.0005317
0.99994815
0.99899283
0.99781525
1.0065604
1.0055968
1.0032198
1.0018611
1.0009764
0.99970328
0.99705602
0.99470675
0.99409403
0.99604656
1.0004883
1.004235
1.0033093
0.99957952
0.9949061
0.99315405
0.99282505
0.99423116
0.99555805
0.99616585
0.99890166
1.002077
1.0041774
1.0092055
1.0125054
1.0124857
1.0097683
1.0070606
1.0058216
1.0058954
1.0061102
1.004677
1.0014004
0.99765573
0.99474212
0.99330009
0.99341318
0.99467596
0.99633263
0.99774388
0.99856073
0.99866219
0.99813797
0.99719862
0.99608137
0.99508006
0.99443743
1.0069896
1.0059617
1.0041827
1.0035178
1.0026062
1.0013265
0.99882782
0.99602172
0.99450256
0.9957116
0.99957053
1.0017955
1.0010723
0.99800123
0.99382805
0.99292961
0.99376594
0.99559445
0.99710037
0.99957515
1.0040258
1.0067799
1.010713
1.0157584
1.0159498
1.0130663
1.0095403
1.0071231
1.0059073
1.0052421
1.0029539
0.99869637
0.99419228
0.99121266
0.99070674
0.99228366
0.9946864
0.99670492
0.99784638
0.99812559
0.99773292
0.99692015
0.99598263
0.99518283
0.99473865
0.99472531
0.99511487
1.0074904
1.0064607
1.0046568
1.0036437
1.0027619
1.0021776
1.0007021
0.99798349
0.99578388
0.9961325
0.99819914
0.99897572
0.99882805
0.99522893
0.99174156
0.99233356
0.99574398
0.99811656
1.0003079
1.0050535
1.0105975
1.0139931
1.0174534
1.0187814
1.0148301
1.0118002
1.0095365
1.0062998
1.0029064
0.9999993
0.99639693
0.99302301
0.99168452
0.99269708
0.99508474
0.99745009
0.9987494
0.99888433
0.99824549
0.99731553
0.99644276
0.99574254
0.99526048
0.99498386
0.99496899
0.99523163
0.99572375
1.0077927
1.0060697
1.0040304
1.003064
1.0016307
1.0011757
1.0011734
1.0000086
0.99764546
0.99605635
0.99589129
0.99636246
0.99517465
0.99099965
0.98973994
0.99227874
0.99600486
0.9989347
1.0035474
1.0108756
1.0174907
1.0205464
1.0206835
1.0174927
1.0128154
1.0105218
1.0063084
1.0005112
0.99628231
0.99366492
0.99163298
0.99141426
0.99332185
0.99595415
0.99793841
0.99860047
0.99824063
0.99742011
0.99652959
0.99578017
0.99520911
0.99476636
0.99448955
0.99440631
0.99453278
0.99480808
0.99516428
1.0072572
1.0047238
1.0023182
1.0015618
1.0002075
0.99942057
1.0003714
1.0014901
1.0000038
0.99621029
0.99366936
0.99294638
0.98999726
0.98722542
0.98815125
0.99146967
0.99519594
0.9994731
1.0066692
1.0160758
1.0224135
1.0226363
1.019534
1.0156221
1.0111613
1.0064207
0.99985971
0.99356903
0.99011454
0.98951985
0.99114678
0.99381419
0.99597794
0.99681495
0.9965634
0.99582784
0.99517504
0.99476691
0.99469856
0.99476422
0.99470619
0.9944623
0.99415199
0.99399112
0.99408919
0.99440489
0.99481291
1.0061031
1.0030101
1.000819
1.0004912
0.99932276
0.998113
0.99907975
1.0020297
1.0022252
0.99766827
0.99333031
0.99059555
0.98652028
0.98564269
0.98765351
0.99145663
0.99614052
1.0021039
1.0109772
1.0209434
1.0244137
1.0221582
1.019253
1.0146544
1.0081053
1.0008154
0.99334753
0.98901713
0.98852856
0.99075531
0.99332712
0.994487
0.99413669
0.99332098
0.99298981
0.99331093
0.9940084
0.99474559
0.99510623
0.99498895
0.99452848
0.99403253
0.99379105
0.99392101
0.99432874
0.99482583
0.99529034
1.0050707
1.0019398
1.0002057
1.0003624
0.99961469
0.99848589
0.99915413
1.0027642
1.004018
0.99968167
0.9943737
0.989628
0.98589823
0.98580467
0.9876341
0.99206619
0.99863659
1.0057599
1.0144983
1.0219129
1.0229009
1.0211203
1.0189057
1.0123991
1.0036198
0.99614823
0.99064791
0.98946375
0.99142895
0.99340456
0.99322122
0.99152651
0.98987103
0.98924428
0.98998489
0.99168578
0.99316216
0.99375423
0.99362562
0.99331166
0.99314706
0.99337846
0.99400154
0.99489671
0.99583583
0.99669077
0.99748117
1.0041551
1.0007406
0.99996158
1.0012572
1.0008752
0.99943055
0.99930435
1.0020525
1.0038348
1.0013003
0.99630231
0.99016505
0.98672711
0.98664921
0.98835801
0.99325298
1.0003375
1.0068825
1.0142178
1.0192041
1.0208558
1.0207906
1.0162285
1.0069371
0.998684
0.99374683
0.99146616
0.99192853
0.9925118
0.99111575
0.98826385
0.9857903
0.98547061
0.98734677
0.99043065
0.99315278
0.99457439
0.99463585
0.99411275
0.99380453
0.9941415
0.99514331
0.99665565
0.99837846
1.0000167
1.0014112
1.0025212
1.0035121
0.99988084
1.0000523
1.0023619
1.0025946
1.0011248
0.99985375
1.0008754
1.0026316
1.00216
0.99833733
0.99241552
0.98898964
0.9881443
0.98945417
0.99404658
1.0000408
1.0053142
1.0127438
1.018006
1.0204638
1.0185913
1.0105536
1.0008441
0.99503244
0.99298391
0.99279726
0.99217302
0.99011755
0.98724402
0.98475055
0.98425232
0.98619074
0.98952998
0.99297106
0.99508326
0.99519456
0.99405882
0.99306355
0.99291394
0.9937
0.9952869
0.99736294
0.99947603
1.0012545
1.0024903
1.003147
1.0029198
1.0000397
1.0009368
1.0033771
1.0035821
1.0019299
0.99984276
0.99967383
1.001274
1.0019133
0.99969187
0.99560315
0.99285962
0.99094665
0.99078614
0.99401454
0.99816617
1.0039108
1.0131383
1.0185641
1.0193992
1.01393
1.0044728
0.99682172
0.99397043
0.99373901
0.99315864
0.99050031
0.98758431
0.9854469
0.98472587
0.98572601
0.98852615
0.99206583
0.99440781
0.99446615
0.99276279
0.99097587
0.99042135
0.99141103
0.99363656
0.99646329
0.99917971
1.0011454
1.0020321
1.001885
1.0009944
1.0025122
0.99974233
1.0012925
1.0038512
1.0035643
1.0017206
0.9993698
0.99854463
0.99987657
1.0013267
1.0009659
0.99885478
0.99687057
0.99360679
0.99149244
0.99332983
0.99683298
1.004072
1.0137177
1.0181554
1.0173447
1.0094982
1.0006435
0.99551831
0.99451028
0.99402206
0.99180829
0.98846303
0.98587524
0.98524285
0.98593798
0.98744252
0.98993642
0.99203975
0.9923613
0.99108493
0.98963429
0.98936438
0.9907485
0.99322091
0.99594903
0.9981511
0.99917911
0.99895126
0.99790858
0.9965202
0.99530503
1.0019654
0.9983868
1.0002695
1.0035005
1.0036495
1.0014945
0.99891153
0.99744431
0.99820892
0.99980741
1.0009979
1.0012479
1.0000389
0.99561001
0.99238911
0.99385204
0.9973652
1.0047778
1.0127997
1.0157118
1.0143036
1.0069941
1.0000519
0.99556703
0.99379653
0.99113314
0.98793667
0.98585971
0.98474137
0.98585135
0.98798248
0.98961364
0.99060979
0.99060081
0.98989119
0.98942391
0.98985044
0.99112257
0.99287689
0.99455929
0.99553719
0.995482
0.99468553
0.99369362
0.99304367
0.99325729
0.99438834
1.0012232
0.99711578
0.99893246
1.0025999
1.0036604
1.0014972
0.99861325
0.99670921
0.99686022
0.99823492
1.0005191
1.0027121
1.0019526
0.99741952
0.99454484
0.99582189
0.99880443
1.0053112
1.0112646
1.0138839
1.0124352
1.0064177
0.9999679
0.99451095
0.99160675
0.98760107
0.98551814
0.98590265
0.98628122
0.98831245
0.9904916
0.99057165
0.98942019
0.98854307
0.98892513
0.99001559
0.99083815
0.99110786
0.99102181
0.99073746
0.99047394
0.99048968
0.99114969
0.9925991
0.99481672
0.9975368
1.0003501
1.0002537
0.99569637
0.99746654
1.0016407
1.0037583
1.0017125
0.99825554
0.99583687
0.99570383
0.99734589
1.0006375
1.0040484
1.0031247
0.9990212
0.99725671
0.99777734
1.0000747
1.0061176
1.0114092
1.0137776
1.0110561
1.0044007
0.99738051
0.99211159
0.9897964
0.98685287
0.98726234
0.98945293
0.99043587
0.99172537
0.99142757
0.98869731
0.98640628
0.98641596
0.98788888
0.98907278
0.98884746
0.98770392
0.9868753
0.98728782
0.9889947
0.99154409
0.99452791
0.99765255
1.0007026
1.0032326
1.0048762
0.99926022
0.99430614
0.99641226
1.0015522
1.0045719
1.0023458
0.99805113
0.99505266
0.99494305
0.99730485
1.0012987
1.005081
1.0038569
1.0002296
0.99939489
0.99938631
1.0018841
1.0079518
1.0128812
1.0137286
1.0078844
1.0000852
0.99357905
0.99052916
0.99030906
0.98964223
0.99163011
0.99396129
0.99363002
0.99201741
0.98875268
0.9851133
0.98377979
0.98489169
0.98687373
0.98775338
0.98711511
0.98654755
0.98768802
0.99063124
0.99430249
0.99793711
1.0010905
1.0035666
1.0050362
1.005407
1.0047913
0.9984369
0.99316399
0.99596132
1.0017885
1.005761
1.0034095
0.99822737
0.99479784
0.99479467
0.99770664
1.0019144
1.0052584
1.0040123
1.0011049
1.0006213
1.0008098
1.004163
1.0102828
1.013966
1.012043
1.0032894
0.99575188
0.99150646
0.99140333
0.99276861
0.99337366
0.9957914
0.99632827
0.99289072
0.98841355
0.98446871
0.98246666
0.98321166
0.98565049
0.98801573
0.98905065
0.98931965
0.9905716
0.99361648
0.99771228
1.0014957
1.0039682
1.0048883
1.0046309
1.0036505
1.0021436
1.0001604
0.99785184
0.99263569
0.99566148
1.0019358
1.0067209
1.0045176
0.99860665
0.99489379
0.99510791
0.99842243
1.0024571
1.0049551
1.0038251
1.001386
1.0006897
1.0019594
1.0071508
1.0125399
1.0136316
1.0088627
0.9992282
0.99456722
0.99314575
0.99404241
0.99500015
0.99577941
0.99760002
0.99545156
0.98979905
0.98484004
0.98254183
0.98332912
0.98620083
0.98931256
0.99144303
0.99256341
0.99388233
0.996541
1.000183
1.0032709
1.0045266
1.0038436
1.0019994
0.9997308
0.99736643
0.99489664
0.99236
0.99759502
0.99228479
0.9949891
1.0017835
1.0073381
1.0054747
0.99909139
0.99518989
0.99551768
0.99882545
1.0023897
1.0041942
1.0031306
1.0009478
1.0005273
1.0037826
1.0105392
1.0139649
1.0124515
1.005697
0.99781157
0.99673718
0.99646754
0.99615772
0.99570343
0.99628218
0.99672055
0.99258799
0.98692402
0.9839891
0.98453385
0.98731514
0.990797
0.9934157
0.99469955
0.99581262
0.99788938
1.0007422
1.0028439
1.0030864
1.0015969
0.99916164
0.99627028
0.99336615
0.99064394
0.98831462
0.98656186
0.9974879
0.99174071
0.99409289
1.0011961
1.0074345
1.0062434
0.99957911
0.99572085
0.99593352
0.99884418
1.0017933
1.0032767
1.0022773
1.0003871
1.0011247
1.0062609
1.0130338
1.0138572
1.0108702
1.0037919
0.99888242
0.99949646
0.99837609
0.99651243
0.99585055
0.99638861
0.99504729
0.98984082
0.98621766
0.98631733
0.9885702
0.99156967
0.99451128
0.99621004
0.99688923
0.998127
1.0003747
1.002171
1.0019654
0.99992418
0.99698245
0.99386563
0.99103411
0.98869695
0.9870706
0.98641039
0.98676849
0.9974119
0.99140983
0.9934656
1.000538
1.0071831
1.0067618
1.0002769
0.99650189
0.99645685
0.9988786
1.0012063
1.0024459
1.0014159
1.0002898
1.0023294
1.0085918
1.013681
1.0127049
1.0095594
1.0035375
1.0011225
1.0009874
0.99841696
0.99682813
0.99691639
0.996881
0.99397209
0.98888767
0.98785975
0.98945171
0.99166912
0.99405489
0.99639136
0.9979738
0.99915703
1.0008543
1.0026046
1.0027181
1.0004763
0.9967976
0.99293329
0.98990374
0.98804176
0.98734581
0.9876825
0.98898249
0.9911318
0.99747366
0.99148921
0.99319732
0.99997878
1.0067715
1.0071111
1.0012912
0.99746483
0.99722255
0.99907904
1.000642
1.0016003
1.0004512
1.0005001
1.0037724
1.0097327
1.0126832
1.0113889
1.0091318
1.0045151
1.0029596
1.0010626
0.99902435
0.99867101
0.99842189
0.9970168
0.99360246
0.98961138
0.98994912
0.99132624
0.99323936
0.99575296
0.99856378
1.0009149
1.0025598
1.0037225
1.0038403
1.0019895
0.99820086
0.99361649
0.98990418
0.98797833
0.98789255
0.98909009
0.99102128
0.99347186
0.99632391
0.99777686
0.99168934
0.99275093
0.99915411
1.0061187
1.0073061
1.0024345
0.99855998
0.99826168
0.99952223
1.0001519
1.0004591
0.99939659
1.0006302
1.0049053
1.009436
1.0112782
1.0106956
1.009045
1.0053971
1.003687
1.0016281
1.0013321
1.0011065
0.99881359
0.9960994
0.99336691
0.99056902
0.99139117
0.99267859
0.99541846
0.99913331
1.0024603
1.0043879
1.0048148
1.0042507
1.0025791
0.99939341
0.99507678
0.99096817
0.98851027
0.98831493
0.98986587
0.99234423
0.99514274
0.99786536
1.0003386
0.99799876
0.99165281
0.99199595
0.99785185
1.0050322
1.0071559
1.0036224
0.99974607
0.99937449
1.0001576
0.99981484
0.99910028
0.99849628
1.0005714
1.005144
1.0084421
1.0101957
1.0103377
1.0082301
1.0052002
1.0037425
1.003605
1.0047746
1.0025519
0.99735508
0.99436016
0.99297332
0.99165546
0.99332498
0.99545785
0.99958683
1.0039289
1.0061391
1.0058162
1.0041894
1.0021857
0.99953635
0.99602292
0.99233401
0.98967076
0.9889503
0.99026607
0.99298157
0.99620793
0.99893096
1.0008208
1.0021283
0.99809747
0.99139364
0.99115785
0.99628718
1.0036049
1.0066599
1.0046161
1.0009018
1.0003673
1.0010844
0.99973887
0.99778198
0.99766203
1.0001839
1.0045045
1.0073331
1.0097591
1.0094747
1.0062989
1.0042293
1.0039014
1.0067168
1.0078126
1.0020722
0.99495659
0.99259056
0.99314443
0.99349182
0.99614757
0.99952897
1.0045306
1.0077727
1.0072273
1.0044861
1.001567
0.99895972
0.99621723
0.99356732
0.991571
0.9906891
0.99135079
0.9936294
0.9968246
0.99963356
1.001277
1.0020104
1.0024592
0.99813135
0.99130928
0.99067981
0.99484836
1.0021376
1.0059511
1.005249
1.002039
1.0014855
1.0022949
0.99999836
0.99668101
0.99666149
0.99950751
1.0036033
1.0067988
1.0096059
1.0077326
1.0042413
1.0033046
1.0046211
1.0093436
1.0085334
1.0000082
0.992532
0.99184475
0.99437517
0.9960942
0.9995626
1.0037817
1.0080748
1.0085465
1.0055097
1.0017607
0.99866566
0.99629404
0.99477997
0.99409143
0.99383153
0.99409446
0.99535236
0.99759707
0.99998952
1.0016437
1.0023227
1.0024934
1.0027738
0.99820471
0.99177216
0.99077092
0.99376843
1.0007018
1.0051199
1.0055852
1.003171
1.0029071
1.0035144
1.0004273
0.99584881
0.99559999
0.99865948
1.0028767
1.0069238
1.0090496
1.0055116
1.002756
1.0030475
1.0057519
1.0099049
1.0066676
0.9969516
0.99105175
0.99257658
0.99685314
0.99940005
1.0029559
1.0065861
1.0084549
1.0064004
1.0026852
0.99924917
0.99690389
0.99596954
0.99640399
0.99725027
0.99784458
0.99829498
0.99905039
1.0002983
1.0016263
1.0024871
1.0027249
1.0025926
1.0026349
0.99844457
0.9925752
0.99124652
0.99299817
0.999158
1.0041991
1.005601
1.004283
1.0043166
1.0044509
1.000802
0.99547269
0.99474642
0.99768416
1.0024457
1.006999
1.0076482
1.003196
1.0021427
1.0038142
1.0066141
1.0081389
1.0029913
0.99391692
0.99081657
0.99474585
1.0002414
1.002842
1.0052824
1.0069334
1.0063547
1.0033092
0.99995851
0.99780018
0.99715227
0.99809928
0.99986697
1.0012025
1.0015375
1.001177
1.0009108
1.0012844
1.0020405
1.0024802
1.0022155
1.0015781
1.0011787
0.99876034
0.99331104
0.99178746
0.99234321
0.99752399
1.0031701
1.0053693
1.0050765
1.0052649
1.0051247
1.0011242
0.99553815
0.99424289
0.99685871
1.0023316
1.0065303
1.0054745
1.0013162
1.0024136
1.0052352
1.0066117
1.0048371
0.9989239
0.99179417
0.99194485
0.99778961
1.0036265
1.0053498
1.0058878
1.0055387
1.003747
1.0006217
0.99832814
0.99783573
0.9989884
1.0012929
1.0034919
1.0043037
1.0034599
1.0019975
1.0011
1.0011052
1.0015532
1.0015921
1.0009513
1.0001259
0.99982031
0.99902155
0.99389072
0.99222308
0.991839
0.99610397
1.0020007
1.0050063
1.0053486
1.005759
1.0057162
1.0014095
0.99583729
0.99408609
0.99645189
1.0023687
1.005619
1.0030918
1.0002903
1.0032842
1.0065585
1.0055406
1.0012105
0.99557096
0.99116781
0.994026
1.0008295
1.0059958
1.0060894
1.0050718
1.0038893
1.0017065
0.99922278
0.9981158
0.99892581
1.0013724
1.0044611
1.0061818
1.005635
1.0035407
1.0014239
1.0002448
1.0001006
1.000362
1.0003278
0.99992708
0.99967127
1.0001206
0.99933108
0.99435662
0.99263948
0.99159287
0.9950716
1.0008437
1.0045404
1.0052812
1.0061011
1.0063041
1.0017221
0.99618516
0.99421895
0.99644076
1.0024009
1.0044782
1.0011739
1.0000935
1.0042826
1.006969
1.0035791
0.99798132
0.99385447
0.99193338
0.99628977
1.0030201
1.0066597
1.0053117
1.0038126
1.0025467
1.0008271
0.99927022
0.99891218
1.0005175
1.0037412
1.0066325
1.0072622
1.0054898
1.0026942
1.000222
0.99885304
0.99862436
0.9990933
0.99968876
1.0002146
1.0008505
1.0018607
0.99974051
0.99484263
0.9931646
0.99162678
0.99436342
0.99993193
1.0039702
1.0052634
1.006465
1.0068488
1.0020621
0.99658321
0.99460011
0.99672146
1.0022294
1.0031186
1.0000137
1.0003331
1.0050885
1.0062219
1.0010735
0.99582241
0.99370467
0.993312
0.99809941
1.0038601
1.0059756
1.0039707
1.0026132
1.0018413
1.0010212
1.0001961
1.0001644
1.002135
1.0053356
1.0074421
1.007
1.0045547
1.0014418
0.99879284
0.99742321
0.99755086
0.9988515
1.0005494
1.0019535
1.0030234
1.0039997
1.0001463
0.9954386
0.99379689
0.99186307
0.99383134
0.99938052
1.0034016
1.0054395
1.0068173
1.0073301
1.0023999
0.99713846
0.99514744
0.99730282
1.0018602
1.0015168
0.99935263
1.0008954
1.0054916
1.0047467
0.99868654
0.99474198
0.9944783
0.99473965
0.99900832
1.0038258
1.0051089
1.0029461
1.0017904
1.001599
1.001544
1.0010695
1.0013525
1.0033822
1.0060618
1.007258
1.0061883
1.0034421
1.000245
0.99777909
0.99692261
0.99799146
1.0003033
1.0026924
1.0043228
1.0051576
1.0055731
1.000561
0.99609459
0.99440012
0.99215916
0.99339465
0.99902186
1.0030254
1.005552
1.0071586
1.0077479
1.0026492
0.99777805
0.99589472
0.99819307
1.0013427
0.99981917
0.99884954
1.0016782
1.0055248
1.0030453
0.99676816
0.99439622
0.99526292
0.99577131
0.99936695
1.0037288
1.004885
1.0025398
1.0012537
1.0013006
1.0016098
1.0015165
1.0021832
1.0042419
1.0063569
1.00689
1.0054217
1.0026368
0.99972505
0.9979276
0.99804345
1.0001135
1.0029876
1.0053257
1.0064399
1.0065021
1.0061756
1.0008912
0.99666882
0.99485801
0.9924352
0.99302701
0.99861819
1.0027207
1.0053723
1.0076021
1.0080271
1.0028404
0.99834666
0.99682065
0.99928559
1.000728
0.99822329
0.99850066
1.0025047
1.0052397
1.0015678
0.99543637
0.99419678
0.99563082
0.99645921
0.99962457
1.0042163
1.0054099
1.0026105
1.0006957
1.0005009
1.0010373
1.0015008
1.0028025
1.0049673
1.0067187
1.0068322
1.0051457
1.0025156
1.0002199
0.99935833
1.0004887
1.0030778
1.0057604
1.0073795
1.0075989
1.0068824
1.0060729
1.001053
0.99703325
0.99512997
0.99268956
0.99275412
0.99804195
1.0022986
1.0049892
1.0080545
1.008075
1.002974
0.99879189
0.99781216
1.0002701
1.0000383
0.99691023
0.99833606
1.003182
1.0047237
1.0005229
0.99462768
0.99391444
0.99546734
0.99696663
1.000214
1.0052347
1.006294
1.0027337
0.99995056
0.99933829
1.0001167
1.0012888
1.0033429
1.0056941
1.0073006
1.0072234
1.0054591
1.0030456
1.0013711
1.0013597
1.0031278
1.0056828
1.0077658
1.0084598
1.0078551
1.0067251
1.005788
1.0010631
0.99710452
0.99526053
0.9929562
0.99260786
0.99734574
1.0016019
1.0046438
1.008297
1.0079109
1.0030263
0.99918176
0.99869533
1.0009018
0.99936822
0.99603733
0.99834602
1.0034854
1.0041991
0.99996336
0.99429797
0.99345179
0.99492904
0.99729651
1.0010465
1.0064821
1.006986
1.0024945
0.9989436
0.99806718
0.99927217
1.0012568
1.003918
1.0064632
1.0080971
1.0079027
1.006024
1.0037496
1.0025982
1.0032192
1.0052168
1.0074569
1.008849
1.0088643
1.0079279
1.0067201
1.0058088
1.0010127
0.99694287
0.99532015
0.99326369
0.99268372
0.99671834
1.0007083
1.0043146
1.0081611
1.0075798
1.0029666
0.99953486
0.99937426
1.0010664
0.99875852
0.99570864
0.99860707
1.0033412
1.003742
0.99987483
0.9942387
0.99285786
0.99409806
0.99749789
1.0019598
1.0075885
1.0070393
1.0018433
0.99781785
0.99713142
0.99895723
1.0015317
1.004462
1.0071095
1.0087998
1.0084545
1.0064155
1.0042935
1.0035368
1.00451
1.006556
1.0084769
1.0094204
1.0091837
1.0082115
1.0070613
1.0061048
1.0009486
0.99668232
0.99535427
0.9936807
0.99305724
0.99630369
0.99979439
1.0038151
1.0076937
1.0070961
1.0027721
0.99982982
0.99986024
1.0008986
0.99824208
0.9958908
0.99903452
1.0028502
1.0034236
1.0001576
0.99423322
0.99222644
0.99324959
0.99771285
1.0028921
1.0082155
1.0063843
1.0006122
0.9968087
0.99678279
0.99924064
1.0021053
1.0049499
1.0076146
1.0092667
1.0087038
1.0065282
1.0045722
1.0041406
1.005323
1.0072749
1.008987
1.0097538
1.0095028
1.0086051
1.0074712
1.0063924
1.0008864
0.99647668
0.99538949
0.99422999
0.9937432
0.9961508
0.99899983
1.003115
1.0069857
1.0064868
1.0024147
0.99999358
1.00021
1.0005808
0.99784626
0.99642906
0.99945928
1.0022432
1.0032954
1.0005204
0.99406194
0.9915972
0.99282178
0.9982245
1.0037772
1.008197
1.0050745
0.99902954
0.99600417
0.99693279
0.9999206
1.0028536
1.005536
1.0080786
1.0094373
1.0085741
1.0063885
1.004704
1.0045849
1.0058782
1.0077191
1.0092481
1.0099794
1.0098161
1.0089741
1.007793
1.0065449
1.0008358
0.99636429
0.99542701
0.99491931
0.99469258
0.99619501
0.99836405
1.0023039
1.0061522
1.0056698
1.0019079
1.0000269
1.0005446
1.0002256
0.9974887
0.99720963
0.99977288
1.0016965
1.0034393
1.0007248
0.99367372
0.99106081
0.99312869
0.99910252
1.0044892
1.0075683
1.0032447
0.99726923
0.99534623
0.99726877
1.0007906
1.0037468
1.0062605
1.0084637
1.0093156
1.0081509
1.0061218
1.0048499
1.0050355
1.0063395
1.008031
1.0094262
1.01017
1.0100819
1.0092257
1.0079213
1.0065762
1.0007865
0.99637897
0.99551832
0.99578309
0.99581424
0.99636351
0.9978937
1.0016375
1.0053231
1.0046796
1.0012704
0.99996847
1.0009148
0.99986135
0.99715492
0.9980974
1.0000078
1.0013622
1.0037636
1.0007165
0.99301292
0.99087166
0.9943048
1.00028
1.0049164
1.0064751
1.0011683
0.99552186
0.99468566
0.99762826
1.001686
1.0047078
1.007032
1.0086891
1.0089104
1.0075569
1.0059222
1.0051866
1.0056364
1.0068917
1.0083936
1.0097036
1.0104529
1.0103573
1.0094062
1.0079933
1.0066042
1.0007537
0.99634597
0.99550162
0.9966713
0.99688378
0.99652414
0.99748306
1.0010538
1.0044277
1.00361
1.0006049
0.99996777
1.0013824
0.99954382
0.99681646
0.99892065
1.0002536
1.0013708
1.0041851
1.0004071
0.99213155
0.9912111
0.99605137
1.0015822
1.0049708
1.0050743
0.99907892
0.99390909
0.99404568
0.99798258
1.0024857
1.0056576
1.0077767
1.008795
1.0083559
1.007009
1.0059377
1.0057442
1.0063862
1.0075469
1.0088815
1.0101184
1.0108214
1.0106361
1.0095666
1.0080849
1.0067771
1.0006769
0.99660739
0.99560214
0.99907328
0.99976886
0.99753469
0.99691719
1.0000853
1.0026932
1.0014888
0.99910962
0.99958501
1.0021519
0.9993366
0.99650632
0.99992776
1.0005076
1.0017185
1.0051006
1.0004939
0.99130044
0.99194801
0.99822289
1.0027526
1.0043752
1.0034739
0.997714
0.99245023
0.99261387
0.99703306
1.0022343
1.0060348
1.0081421
1.0086051
1.0078347
1.0069128
1.0065264
1.0066451
1.0071576
1.0080078
1.0091425
1.0103938
1.0113084
1.0113881
1.0105368
1.0091312
1.0077517
1.000963
0.99674287
0.99544989
1.0011449
1.0046076
1.0003327
0.99748576
1.0005336
1.002029
0.99973513
0.99681324
0.99838627
1.0017477
1.0000494
0.99794249
0.99998879
0.99998467
1.0032852
1.006052
1.0009396
0.99148678
0.99225891
0.99986433
1.00368
1.0036988
1.0018528
0.99788845
0.99319872
0.99194173
0.99486166
0.99960345
1.0041237
1.0069225
1.0075789
1.0068885
1.0064384
1.0067379
1.007358
1.0079515
1.0085905
1.0094104
1.010439
1.0113873
1.0118361
1.0115601
1.0107102
1.0096055
1.0025683
0.99852672
0.99520987
1.0012776
1.0072958
1.003678
0.99894986
1.0008106
1.0014623
0.99787374
0.9948161
0.99706798
1.0003738
0.99981321
0.99989993
1.0001471
0.99991676
1.0050894
1.0062066
1.0006655
0.9926782
0.99299357
1.0000148
1.0030192
1.0021155
0.99950772
0.99781961
0.99526882
0.99347107
0.9943648
0.99751914
1.0015975
1.0048823
1.0059804
1.0055243
1.0053459
1.0060771
1.0071618
1.0081398
1.0089843
1.0097953
1.0105889
1.0112827
1.0116926
1.0116922
1.0113096
1.0106571
1.0036554
0.99996783
0.99433814
1.0001144
1.0086941
1.0084111
1.0025202
1.0006782
1.0005088
0.99628117
0.99395909
0.99669939
0.99920972
0.99854516
0.99984094
1.0000085
1.00131
1.0069271
1.0057466
0.99951341
0.99456479
0.99497453
1.0001688
1.0012922
0.99968962
0.99652699
0.9964823
0.99659732
0.99584232
0.995894
0.99732191
1.0000782
1.0029621
1.0042974
1.0041322
1.0039949
1.0047181
1.0059533
1.0072502
1.0085277
1.0096469
1.0104878
1.0109806
1.0111753
1.0111311
1.0109427
1.0106082
1.0038336
1.0011665
0.99403854
0.99911482
1.0088542
1.0119927
1.0071108
1.0021702
0.99990903
0.99600289
0.99396075
0.99688071
0.99772308
0.99677924
0.99712553
0.99826672
1.003252
1.0090286
1.0061114
0.99857747
0.9959886
0.99737747
1.0016212
1.001024
0.99855841
0.99427305
0.99424569
0.99604876
0.99680486
0.99736354
0.99826248
0.99993029
1.0022698
1.0036494
1.0036434
1.0032814
1.0034532
1.0042148
1.0054165
1.006943
1.0084979
1.009681
1.0103434
1.0105259
1.0104155
1.0102334
1.0099984
1.002281
1.0018173
0.99545024
0.99841373
1.0076726
1.0141721
1.0118259
1.0049014
0.99981079
0.99625517
0.99460857
0.99747141
0.9966649
0.99539561
0.99358595
0.9954148
1.00354
1.0096485
1.0071798
0.99939739
0.99738221
0.99894043
1.0026803
1.0020453
0.99977418
0.99454949
0.9931827
0.99475949
0.99588953
0.9972601
0.99859972
1.0000503
1.0024952
1.0043594
1.0047603
1.0041722
1.0035851
1.0034148
1.0038516
1.004935
1.0064868
1.0080181
1.0090997
1.0096665
1.0097802
1.0096887
1.009476
1.0002347
1.001978
0.99772602
0.99841362
1.0057791
1.0141913
1.0154057
1.0086138
1.000394
0.99605896
0.99580335
0.99840377
0.99679224
0.99459632
0.99095195
0.99371122
1.0030795
1.0084684
1.007355
1.0011391
0.99910382
0.99964891
1.002093
1.0022102
1.0015339
0.99669254
0.99406274
0.99441432
0.99479751
0.99635942
0.99801662
0.99946839
1.0023806
1.0051844
1.0064535
1.0061151
1.005127
1.0042791
1.0038328
1.0039901
1.0048843
1.0062189
1.0075787
1.0086136
1.0091683
1.0093426
1.0092125
0.99969317
1.0037277
1.0011317
0.99886093
1.0023307
1.010955
1.0161521
1.0128895
1.0027814
0.99582607
0.99665731
0.99924499
0.99770128
0.99418907
0.98941745
0.99347379
1.002834
1.0067962
1.00631
1.0020664
1.0000729
1.00026
1.0010732
1.0013236
1.0018694
0.99871001
0.99576405
0.99485049
0.99437342
0.99600357
0.99760115
0.99856249
1.0012394
1.0047051
1.0069966
1.007431
1.0067603
1.005949
1.005194
1.0046223
1.004656
1.0053992
1.0066291
1.0078964
1.008792
1.0092385
1.0092065
0.9997275
1.0051979
1.0053644
1.0004785
0.99833739
1.0053097
1.014073
1.015301
1.0070381
0.99738556
0.99715349
1.0000891
0.99879587
0.99441388
0.98875951
0.99342995
1.0026424
1.0056288
1.005554
1.0029481
0.99969412
1.000378
1.00086
1.0010245
1.0011392
0.99909197
0.99655536
0.99496495
0.9943713
0.99659743
0.99858177
0.99900213
1.0004911
1.0033746
1.0059581
1.0070155
1.0069943
1.0068634
1.0066253
1.006044
1.0056359
1.0058716
1.0067879
1.0080104
1.0090278
1.0095741
1.0095422
0.9985416
1.0048416
1.0093831
1.0048811
0.99734479
0.99953649
1.0094123
1.0143935
1.0103953
1.0009223
0.99824289
1.0007862
0.99965046
0.99484212
0.98929939
0.99379902
1.0030883
1.0057568
1.0056894
1.0040543
0.99890682
0.99952439
1.0009419
1.0019281
1.0010505
0.99888529
0.99625756
0.99411394
0.99399137
0.99723758
1.0004096
1.0011877
1.0017054
1.0031803
1.0048389
1.0057561
1.0061289
1.0066337
1.0071038
1.0069839
1.0066049
1.0066505
1.0073756
1.008558
1.0095938
1.0101565
1.0101239
0.99731878
1.0027911
1.0118316
1.0110015
1.0002933
0.99615541
1.0036785
1.0111788
1.0114999
1.0048362
1.0007062
1.0022288
1.0004962
0.99510822
0.99072412
0.99433625
1.0034022
1.0070736
1.0069618
1.0049238
0.99854664
0.99839344
1.0007547
1.0032447
1.0025437
0.99970267
0.99596162
0.99320836
0.99322714
0.99687945
1.0010286
1.0030633
1.0039729
1.0046361
1.0052512
1.0054115
1.0055537
1.0063227
1.0072411
1.0074801
1.0071647
1.0070768
1.0076513
1.0087719
1.0098752
1.0105328
1.0105402
0.99819217
1.0004694
1.0108324
1.0149806
1.006084
0.99680074
0.9995851
1.0068758
1.0098251
1.0069983
1.0036323
1.0045889
1.0019185
0.99561123
0.9920623
0.99471412
1.002754
1.0083508
1.0085096
1.0054592
0.99902767
0.99791235
1.0005604
1.0038736
1.004576
1.0021355
0.99716411
0.99328869
0.9926515
0.99546292
0.99939674
1.0024697
1.0045838
1.0059207
1.0065244
1.006462
1.0064032
1.007078
1.0080305
1.0083112
1.0078518
1.0073538
1.0075928
1.0085299
1.0096108
1.0103928
1.0105725
1.001277
1.0007288
1.008523
1.0153411
1.0119614
1.0009879
0.99727135
1.0019239
1.0056855
1.0064325
1.0057648
1.0063884
1.0031157
0.99671143
0.99387726
0.99550181
1.001641
1.0083434
1.0086795
1.0049103
0.99939169
0.99830314
1.0008945
1.0037165
1.0053258
1.0042706
0.99947187
0.99509896
0.99330296
0.99423615
0.99695833
1.0000144
1.0027332
1.004862
1.0063795
1.0070266
1.0073476
1.0081538
1.009278
1.0097114
1.009125
1.0082523