/*--------------------------------*- C++ -*----------------------------------*\
| =========                 |                                                 |
| \\      /  F ield         | OpenFOAM: The Open Source CFD Toolbox           |
|  \\    /   O peration     | Version:  2406                                  |
|   \\  /    A nd           | Website:  www.openfoam.com                      |
|    \\/     M anipulation  |                                                 |
\*---------------------------------------------------------------------------*/
FoamFile
{
    version     2.0;
    format      ascii;
    arch        "LSB;label=32;scalar=64";
    class       volScalarField;
    location    "10";
    object      rho_0;
}
// * * * * * * * * * * * * * * * * * * * * * * * * * * * * * * * * * * * * * //

dimensions      [1 -3 0 0 0 0 0];

internalField   nonuniform List<scalar> 
62344
(
1.0005348
1.0001784
0.99871867
0.99797193
0.99494628
0.98910271
0.9857438
0.9853356
0.98575351
0.98754345
0.98904973
0.98622405
0.98304319
0.98149959
0.98475596
0.98984772
0.99701679
0.99858171
0.99734835
0.99903872
0.99589663
0.99575803
1.0017856
1.0075777
1.0066867
1.0030676
1.0003418
1.0127773
1.0126633
1.0079745
1.0131756
1.0212913
1.0259026
1.027774
1.042211
1.0288295
1.0074927
1.0209581
1.0513306
1.0509729
1.0151021
0.98254427
0.9803574
0.99365977
1.0079862
1.0393452
1.0826192
1.1008017
1.0856275
1.0665319
1.0618722
1.061906
1.0434722
1.0110321
0.98775019
1.0005909
1.0006775
0.99937699
0.99881503
0.99523339
0.98972711
0.98673128
0.98548277
0.98579438
0.98739704
0.98989242
0.9877716
0.98361723
0.98229972
0.9857752
0.98935089
0.99719193
0.99970884
0.99770113
1.000976
0.99788931
0.99458358
0.99969723
1.0075401
1.0060115
1.0015574
1.0006132
1.0154993
1.0144462
1.0082582
1.0121326
1.0195146
1.0243069
1.0282229
1.0386185
1.0249375
1.0179889
1.0351543
1.0458867
1.0214671
0.99007566
0.99054612
1.0060149
1.0135456
1.0204026
1.0419966
1.0782742
1.1039717
1.0898383
1.0448562
1.0096482
1.0116718
1.0390121
1.060968
1.0658613
1.0005562
1.0008142
0.99965972
0.99904258
0.99493863
0.99009771
0.9876383
0.98563433
0.98597975
0.98794476
0.9904542
0.98879585
0.98386946
0.98235101
0.98672596
0.98962256
0.99718804
0.99936025
0.99764809
1.0016341
0.99969354
0.99582986
0.9986981
1.0066297
1.0066246
1.0003864
1.0006273
1.0160093
1.0167371
1.0106444
1.01294
1.018758
1.0205304
1.0296889
1.0384372
1.0257945
1.0197109
1.0319672
1.0366252
1.0156201
0.9878492
0.98370106
1.0055356
1.0318987
1.0438731
1.0503599
1.0563032
1.0575702
1.0552498
1.0384941
1.0189364
1.0141182
1.031151
1.068212
1.1045647
1.0005954
1.0007049
0.99962432
0.99911944
0.9951293
0.99067464
0.98794681
0.98614181
0.98628424
0.98911683
0.99072587
0.98867331
0.98397445
0.98273395
0.98710562
0.99035468
0.99690388
0.99814224
0.99735831
1.0009836
0.99976172
0.99616752
0.99860684
1.0043209
1.0054159
1.0004802
1.0019791
1.0152133
1.0171949
1.013504
1.0155672
1.0174972
1.0168953
1.0292758
1.0382329
1.0248807
1.0204821
1.0314035
1.0333189
1.0149558
0.99169616
0.98604904
1.0004993
1.0346221
1.065546
1.0625784
1.0330176
1.0056996
1.0077015
1.0333468
1.0486558
1.049568
1.0576982
1.0710802
1.0875122
1.0007124
1.0007242
0.99960333
0.99916814
0.99602637
0.99097822
0.98765965
0.98657015
0.98625087
0.98952357
0.99108774
0.98849326
0.98398553
0.98332844
0.98666688
0.99097348
0.99668049
0.99801071
0.99802293
1.0010525
0.99942523
0.99566013
0.99920926
1.002653
1.003455
0.99912685
1.004373
1.0158162
1.0170592
1.0154413
1.0188476
1.0179307
1.0148327
1.028873
1.0365598
1.0234522
1.0210415
1.0307766
1.0290855
1.0159668
1.0013249
0.99442755
1.0014509
1.0292108
1.0630741
1.0609747
1.0257047
0.99303793
0.98530662
1.0088712
1.0479231
1.0784182
1.0916917
1.0885069
1.0699367
1.0008607
1.0010176
0.99977952
0.99950036
0.99699016
0.99131122
0.98777993
0.98692934
0.98621391
0.98920893
0.99216201
0.98871162
0.98379852
0.98347941
0.98608315
0.99117182
0.99643422
0.9980258
0.99866584
1.001608
0.99924014
0.99586734
0.99966716
1.0022049
1.001391
0.99675585
1.0058198
1.0171128
1.017278
1.0159684
1.0215071
1.0195234
1.0143064
1.0283686
1.0325457
1.020549
1.0223107
1.0299571
1.0258705
1.0159173
1.0088103
1.0047951
1.0095173
1.0279219
1.0478543
1.0467272
1.0244538
0.99948351
0.98882893
0.9967346
1.0273504
1.068534
1.0940179
1.092233
1.0710944
1.0009427
1.0013107
1.0002525
0.99996428
0.99707565
0.99149334
0.98835895
0.98681102
0.98627773
0.98863106
0.99280852
0.98883799
0.98382332
0.98308839
0.98584335
0.99095851
0.99589587
0.99758336
0.99896256
1.0018519
0.99913541
0.99675056
0.99987951
1.0018665
0.99998977
0.99458179
1.0058033
1.0180431
1.0181664
1.0163442
1.0231995
1.0212741
1.015437
1.0278683
1.0280438
1.0177382
1.0232053
1.0300233
1.02347
1.0137282
1.0124797
1.0151868
1.0214719
1.0306201
1.0290344
1.0213096
1.0187976
1.0173667
1.0132283
1.0122062
1.0220526
1.0409358
1.0610586
1.0744324
1.0726802
1.0009206
1.0014269
1.0007383
1.0005386
0.99676148
0.99156178
0.98884383
0.98652098
0.98651241
0.98845991
0.99255109
0.98885501
0.98398429
0.982638
0.98587295
0.99080429
0.99546778
0.99700842
0.99872682
1.0013958
0.99930844
0.99745745
0.99990653
1.0010082
0.99877999
0.99321344
1.0048502
1.0177402
1.0185227
1.0170839
1.0243268
1.0225759
1.0177584
1.0275525
1.0231103
1.0154026
1.0236889
1.0298561
1.0218174
1.011706
1.0118737
1.021752
1.0337889
1.0354288
1.019382
1.0027317
1.0054261
1.0239079
1.0360221
1.0376299
1.0333984
1.0247047
1.023742
1.0359231
1.0556515
1.0008326
1.0015363
1.0011458
1.0008529
0.99662742
0.99150497
0.98883269
0.98640827
0.98660108
0.98880956
0.99190666
0.98880378
0.98408164
0.98263972
0.98615331
0.99056627
0.99536008
0.99643705
0.99801145
1.0007076
0.99963868
0.99794139
0.99990124
0.99979273
0.99742496
0.99254746
1.0041055
1.0164854
1.018111
1.0178054
1.0246481
1.0229747
1.0201383
1.0274988
1.0183824
1.0140715
1.0244492
1.0303323
1.0204699
1.0102493
1.0106134
1.0239329
1.041666
1.0426973
1.0191549
0.99514954
0.99261091
1.0135099
1.0428783
1.055823
1.0477756
1.0241271
1.0047446
1.0055456
1.0253757
1.0007566
1.0017375
1.001371
1.000952
0.99696713
0.9915326
0.9884502
0.98649236
0.98636353
0.98903985
0.99146656
0.98893468
0.9841281
0.98283642
0.98641995
0.99034208
0.99554056
0.99615325
0.99724851
1.0003145
1.0001063
0.99862057
0.99984527
0.99860315
0.99597765
0.99213339
1.0035207
1.0151191
1.0176125
1.0187078
1.02476
1.0226287
1.022355
1.0268159
1.0142534
1.0126075
1.0257217
1.0311083
1.0196642
1.0094199
1.0098276
1.0233097
1.0449752
1.0484027
1.0248005
0.99658802
0.9871271
1.0002448
1.0318039
1.0581146
1.0575207
1.0359091
1.0101093
0.99691872
1.0034691
1.0007502
1.0019305
1.00145
1.0010194
0.99736304
0.99176892
0.98817834
0.98665889
0.98605515
0.98908086
0.9915091
0.98918858
0.98408941
0.98286041
0.98642924
0.99006657
0.99561087
0.99605138
0.99657061
1.0001672
1.0004743
0.99930113
0.99985591
0.99776776
0.99441465
0.99172856
1.0030633
1.0139557
1.0172934
1.0195673
1.025192
1.0220681
1.024752
1.0257691
1.0108509
1.0110316
1.0267644
1.0317806
1.0197825
1.0086464
1.0097394
1.0226908
1.0447311
1.05161
1.0319673
1.0045412
0.99090115
0.99548322
1.0173245
1.0431827
1.0552122
1.0473757
1.0271273
1.0077295
0.99971824
1.000793
1.0019555
1.0013718
1.0010753
0.99754239
0.99206721
0.98819429
0.98677282
0.98595346
0.98909741
0.99179608
0.98955531
0.98397299
0.98269506
0.98623987
0.98987718
0.99543555
0.99578144
0.99612156
0.99995655
1.000406
0.99986528
1.000047
0.99733377
0.99298915
0.99111502
1.0023811
1.0126907
1.0169961
1.0203207
1.0254569
1.0219985
1.0271476
1.0248951
1.0081742
1.0093445
1.0269936
1.0326215
1.0205053
1.0076062
1.0094226
1.0234028
1.0433867
1.0509462
1.0368308
1.0136807
1.0012533
1.0012215
1.0094856
1.0242655
1.0386956
1.0459973
1.040242
1.0266491
1.0134714
1.0008362
1.0017884
1.0011492
1.0010378
0.99731562
0.99226298
0.98856455
0.98683139
0.98595325
0.989037
0.9922313
0.99000766
0.98381531
0.98239778
0.98586004
0.98987778
0.99504924
0.99537289
0.99605078
0.99980444
0.99993227
1.0002351
1.0003496
0.99715128
0.9917641
0.99032243
1.0013691
1.0112998
1.0168351
1.0210775
1.0252033
1.0221979
1.0295766
1.025108
1.0068796
1.0075787
1.0255818
1.0330368
1.0215233
1.0066818
1.0079393
1.0245503
1.0429255
1.0481214
1.0381183
1.0212544
1.0130931
1.0116052
1.0093431
1.0111316
1.0201802
1.0335671
1.0450944
1.0437209
1.0344386
1.0008741
1.001543
1.0008271
1.000927
0.9969541
0.99229621
0.98906556
0.98688482
0.98594301
0.98895789
0.99252007
0.99039825
0.98368828
0.98217869
0.98537236
0.9899409
0.99448718
0.99488743
0.99615663
0.99961045
0.99928598
1.0002317
1.0007032
0.9972525
0.99091993
0.98960453
1.0002169
1.0097333
1.0166393
1.0217385
1.02457
1.0225842
1.0313266
1.0262047
1.0068371
1.0065921
1.0229744
1.0320836
1.0225092
1.0065031
1.0060429
1.0248177
1.0431221
1.0456959
1.0364813
1.0259438
1.0238146
1.0230874
1.0160403
1.0068305
1.0061735
1.0182074
1.0369952
1.0513245
1.0519594
1.0009063
1.001285
1.0005196
1.000704
0.99668932
0.9922084
0.9894627
0.98698062
0.98600084
0.9888601
0.99265776
0.99059109
0.98361756
0.98216663
0.98490395
0.99004181
0.99390269
0.99448296
0.99646613
0.99929489
0.99862951
1.0001247
1.0009853
0.99765646
0.99053623
0.98901378
0.99895197
1.0079746
1.0159663
1.0223885
1.0237875
1.0230118
1.0321186
1.0270687
1.008051
1.0067669
1.0199816
1.029259
1.0229153
1.007204
1.0050739
1.0234925
1.0426036
1.0449653
1.03328
1.0271765
1.0301315
1.0328575
1.0253605
1.010715
1.0007834
1.0053525
1.0223156
1.0453867
1.059333
1.0009104
1.0010796
1.00033
1.0004136
0.9966338
0.99210108
0.98965
0.98707711
0.98599152
0.98870884
0.99261676
0.99046397
0.98357065
0.98226163
0.98448743
0.99009966
0.99340438
0.99414476
0.99672262
0.99896272
0.99811674
0.9998432
1.0010572
0.99810472
0.99045323
0.9885436
0.99774745
1.0063128
1.014862
1.0229377
1.0232523
1.0231715
1.0322274
1.0271046
1.0102514
1.0080861
1.0169568
1.0250822
1.0223135
1.0086027
1.005685
1.0215105
1.0411212
1.044302
1.0305629
1.0259115
1.0322261
1.0384648
1.0336845
1.018952
1.0032335
0.99859157
1.0089294
1.0304151
1.0524793
1.0008959
1.0009782
1.0002909
1.0001541
0.99674916
0.99198098
0.98957932
0.98714545
0.98595232
0.98855382
0.99245388
0.99019915
0.98359416
0.98232361
0.98408047
0.9899667
0.9930587
0.99393905
0.99690358
0.99878207
0.99783871
0.99961215
1.0010227
0.99844462
0.9905669
0.98824825
0.99662337
1.0048886
1.0134931
1.0229987
1.0233123
1.0234301
1.0317264
1.0263534
1.0124113
1.0102801
1.0147246
1.0201861
1.0203971
1.0102224
1.007635
1.0201424
1.0389327
1.0429899
1.029268
1.023584
1.0308376
1.0394109
1.0393355
1.0280682
1.0101778
0.9987247
1.0008338
1.0157217
1.0375049
1.00087
1.0009871
1.0003749
0.99997508
0.99697847
0.99189738
0.98932942
0.98715016
0.9858871
0.98841689
0.99225529
0.98989717
0.98363052
0.98233891
0.98365448
0.98965182
0.99284253
0.99374596
0.99679193
0.99865924
0.99780225
0.99946785
1.0010637
0.99867353
0.99062181
0.98793944
0.99557165
1.0037327
1.0122109
1.0223271
1.0237347
1.0238033
1.0306905
1.0250788
1.0142887
1.0124292
1.0137495
1.0151607
1.0165973
1.0116402
1.010322
1.0204153
1.0366339
1.040336
1.0286926
1.0216847
1.0276562
1.0369129
1.0413884
1.0347381
1.0188627
1.003753
0.99879228
1.0057862
1.0204955
1.0008356
1.0010657
1.0005312
0.99992299
0.99721415
0.99189363
0.9890359
0.98711098
0.98582912
0.98831508
0.9921181
0.98968355
0.98370302
0.98230256
0.98330893
0.98926827
0.99281441
0.99360014
0.9964126
0.99864597
0.99797513
0.99956421
1.0012812
0.99876667
0.99070689
0.98759021
0.99457504
1.0027902
1.0112886
1.0211393
1.0242627
1.0248661
1.0295335
1.0236041
1.0157383
1.0146416
1.0138915
1.011283
1.0116847
1.0124935
1.0129988
1.0222167
1.0349189
1.0372299
1.0277913
1.0211481
1.0247891
1.0328429
1.0402561
1.0381259
1.0266512
1.0115684
1.0022651
1.0022302
1.0081868
1.0008054
1.0012065
1.0007221
1.0000138
0.9974045
0.9919517
0.98880291
0.98704829
0.98577041
0.98823738
0.99206806
0.98964149
0.98379048
0.98217863
0.98305154
0.98882478
0.99288804
0.99355479
0.99594491
0.99864983
0.99815166
0.99963893
1.001676
0.99885488
0.99064961
0.98722036
0.99353946
1.0018155
1.0106495
1.0195963
1.0245968
1.0262925
1.0287301
1.0222738
1.0163269
1.0164972
1.0151144
1.0090008
1.0060277
1.0114966
1.016116
1.0251106
1.0345298
1.0343149
1.025579
1.0213681
1.023568
1.0295263
1.0372632
1.0387056
1.0320456
1.0205679
1.0100792
1.0046308
1.0030444
1.000789
1.0013692
1.0008949
1.0002382
0.99753339
0.99206498
0.98871772
0.98693294
0.98569791
0.98816834
0.99208955
0.98980857
0.98391264
0.98197209
0.98289298
0.9883519
0.99300955
0.99352013
0.99544356
0.99857234
0.99832086
0.99975583
1.0021886
0.99900115
0.99071897
0.98695673
0.99263169
1.0008744
1.0100997
1.0178922
1.0247677
1.0280797
1.0284025
1.0212693
1.0165304
1.0181898
1.0169725
1.0081242
1.001007
1.008355
1.0189735
1.0287429
1.0362866
1.0321534
1.0230443
1.0214609
1.0238979
1.0284962
1.0343274
1.0373937
1.0350409
1.0284859
1.0205833
1.0121492
1.0045213
1.0007895
1.0015201
1.0010264
1.0005558
0.99758574
0.99222254
0.98877315
0.98678861
0.98559093
0.98805475
0.9921259
0.9901231
0.98404397
0.981818
0.98286057
0.98789104
0.99317791
0.99352375
0.99493532
0.99843753
0.99843913
0.99981976
1.0027207
0.99919219
0.99089593
0.98679817
0.99172949
0.99994964
1.0096394
1.0161232
1.0244271
1.0298157
1.0287021
1.0206868
1.0165507
1.019344
1.019147
1.0083958
0.99746444
1.0036306
1.0203904
1.0327779
1.0395642
1.0312474
1.0208849
1.0206147
1.0254304
1.0293891
1.0333373
1.0355952
1.0360361
1.0349314
1.0311568
1.0228356
1.0114588
1.0007964
1.0016421
1.0011098
1.0009077
0.99756027
0.99237674
0.9889427
0.98666881
0.98546502
0.98790104
0.99217162
0.99051332
0.98416994
0.98171072
0.98298913
0.98747564
0.993316
0.99356901
0.99445981
0.99820389
0.99858592
0.99977696
1.0032023
0.99952668
0.99105717
0.98672016
0.9909182
0.99903921
1.0092897
1.0145196
1.0235368
1.0314245
1.0292608
1.0206053
1.0161104
1.0199468
1.021322
1.0098664
0.99557941
0.99855714
1.0190577
1.0370906
1.043249
1.032452
1.0194094
1.0198678
1.0266672
1.0314745
1.0341687
1.0346863
1.0358214
1.0392499
1.0397179
1.0340086
1.0215476
1.0008172
1.0017374
1.0011504
1.0012582
0.99750053
0.99252549
0.98922891
0.98661182
0.98534778
0.98773839
0.99221662
0.99096032
0.98434217
0.98171839
0.98321041
0.98715495
0.9934515
0.99371821
0.99412159
0.99796011
0.9987087
0.99977754
1.003642
0.99994362
0.99151428
0.98670023
0.99015721
0.9981014
1.008837
1.0132921
1.0224466
1.0326736
1.0301481
1.0212772
1.0161172
1.0204937
1.0233614
1.0121864
0.99519234
0.99441277
1.0153251
1.0406018
1.0471263
1.03504
1.0189584
1.0189741
1.0270168
1.0341744
1.0365363
1.0347173
1.035499
1.0412014
1.0455688
1.0435563
1.0326531
1.000846
1.0018208
1.0011987
1.0016298
0.99751944
0.99274464
0.98960243
0.98671984
0.98541008
0.9877
0.9923666
0.99148641
0.98465251
0.98189318
0.9835924
0.98705262
0.99368568
0.99382056
0.99384393
0.9977734
0.99883626
0.99968046
1.0039164
1.0003066
0.99195404
0.98687633
0.98963595
0.99731433
1.0085517
1.0122112
1.0213668
1.0332845
1.0310401
1.0221285
1.0154058
1.0205915
1.0249843
1.0151087
0.99600885
0.99160631
1.0105444
1.041758
1.0521386
1.038439
1.0199146
1.0169252
1.0265749
1.0357396
1.0394772
1.0356771
1.0353239
1.0412733
1.0488225
1.0502565
1.0422766
1.0009615
1.0019672
1.0014012
1.0021155
0.99775508
0.99305523
0.99001664
0.98693657
0.98559431
0.98781381
0.99271107
0.99212182
0.98512441
0.98221247
0.98410955
0.98726085
0.99407193
0.99436104
0.99381945
0.99778882
0.99898419
0.99961617
1.004237
1.0007564
0.99217165
0.98704444
0.98920335
0.99652079
1.0087922
1.0116414
1.0203233
1.0341026
1.0320278
1.0235503
1.0150629
1.0205733
1.026314
1.017969
0.99776613
0.98787494
1.0052734
1.03939
1.0569596
1.0421156
1.0220563
1.0154026
1.0224246
1.034772
1.0401793
1.0364622
1.0339338
1.0386271
1.0474826
1.0524753
1.0475268
1.0012946
1.0022927
1.0018732
1.0027013
0.9981824
0.99342845
0.99029072
0.9870786
0.98568775
0.98776087
0.99272251
0.99252281
0.98552284
0.98243006
0.98435019
0.98723386
0.99417317
0.99463611
0.99376615
0.99758151
0.99897475
0.99929547
1.0039926
1.0010822
0.99275221
0.98715336
0.98860077
0.99521833
1.0076839
1.0107842
1.0186474
1.0328189
1.0327277
1.0254306
1.0152693
1.0200005
1.0261745
1.0205507
1.002103
0.98793451
1.000071
1.0313755
1.0547711
1.0454846
1.0255315
1.0161679
1.0189012
1.0307072
1.0371956
1.0355715
1.0320423
1.034833
1.0430922
1.0497398
1.0483937
1.0347621
1.030571
1.0226694
1.0127133
1.0037963
0.99827676
0.99783226
1.004319
1.0185735
1.0380693
1.0556126
1.0634089
1.0593396
1.0425187
1.0207154
1.0061507
1.0072962
1.0246658
1.0522411
1.0670435
1.0585443
1.039719
1.0499682
1.1022535
1.1391394
1.0772948
0.99543635
1.0033799
0.99655268
0.99214116
0.98740008
0.98528404
0.98748436
0.99508274
1.0080386
1.023572
1.0371553
1.0452866
1.0436907
1.0326385
1.0165385
1.0055055
1.0076703
1.0276404
1.0588239
1.0812518
1.0800258
1.0500213
1.0259504
1.040903
1.0873626
1.1261097
1.0863898
1.0386187
0.97728517
0.97487771
0.97675484
0.97913124
0.98425799
0.9924515
1.0017776
1.0093188
1.0146263
1.0160288
1.0124361
1.003488
0.99365395
0.98803705
0.99253631
1.0120775
1.0445212
1.0744347
1.0863174
1.0743508
1.052676
1.046047
1.0585778
1.0707444
1.0759835
1.0676244
1.0780018
0.97538472
0.98023825
0.99171364
0.99858712
1.004226
1.0067688
1.005238
1.0009054
0.99489896
0.98733157
0.97930653
0.97263047
0.97101511
0.97671797
0.99351342
1.0185359
1.0413744
1.0554637
1.0547387
1.0466856
1.0542026
1.0797855
1.0940009
1.0760675
1.0397802
1.0400287
1.0734183
1.0083791
1.0199235
1.0282037
1.0294958
1.0254255
1.0166832
1.0050989
0.99239722
0.98065815
0.97113867
0.96512628
0.96792916
0.97664095
0.99291214
1.0126046
1.0247484
1.0240161
1.0141979
1.0054065
1.0128789
1.0474861
1.094358
1.1182912
1.0932435
1.0448444
1.0382678
1.0453312
1.0555208
1.0633259
1.0613592
1.0517768
1.0384355
1.0228569
1.0069995
0.99291821
0.98147986
0.97669894
0.98138308
0.99451366
1.0139254
1.0313521
1.0356336
1.0240007
1.003044
0.98459834
0.97770151
0.99734959
1.0369817
1.0804151
1.1011995
1.090275
1.0790116
1.0649062
1.04378
1.0656633
1.0663443
1.0595676
1.0493502
1.0364544
1.0219332
1.0082801
0.99936578
0.99861853
1.0080213
1.026248
1.0498443
1.0700268
1.0720485
1.0530077
1.0233861
0.99706505
0.98205381
0.9877766
1.0142685
1.0404721
1.052936
1.0481788
1.0515162
1.0883254
1.1059019
1.0859525
1.0375578
1.0321392
1.0252081
1.0168981
1.0079783
1.0007315
0.99867194
1.0050259
1.0219789
1.0478416
1.0765558
1.0987439
1.1063071
1.0916471
1.0653353
1.0375524
1.0169212
1.0150632
1.034537
1.0568031
1.0550167
1.0279755
1.0017276
1.0041389
1.0568329
1.1227232
1.151946
0.99661743
0.98955044
0.9861651
0.98195516
0.98039003
0.9835098
0.99293443
1.0101458
1.0340639
1.0596835
1.0821217
1.0947379
1.0912896
1.0793997
1.0661918
1.0573206
1.0621227
1.0825274
1.1067861
1.1047292
1.0686568
1.0235378
0.99021186
0.98445842
1.0215255
1.1048881
1.1862215
0.9663314
0.96554708
0.97002165
0.97582662
0.98509197
0.99658265
1.0088244
1.0197748
1.0285726
1.0348877
1.0395261
1.0418729
1.0403627
1.0391764
1.0452181
1.066316
1.1041005
1.1423342
1.1613034
1.1385568
1.0920743
1.0478788
1.0161485
1.0022216
1.0133167
1.0862071
1.1542788
0.97226017
0.98142226
0.99798018
1.0103061
1.0193981
1.0226725
1.0204898
1.0147144
1.0065889
0.99993139
0.99558024
0.99501093
0.99636262
1.005165
1.0266995
1.0636019
1.1046777
1.139914
1.148118
1.1366124
1.1171761
1.0986893
1.0789339
1.0561526
1.0498387
1.0801051
1.0871912
1.039701
1.0535768
1.0641423
1.0627369
1.0530422
1.0364293
1.0170759
0.99823528
0.98402356
0.97722121
0.97707399
0.98308429
0.9967022
1.0161129
1.0391483
1.0581084
1.0711475
1.0762981
1.0791608
1.0891073
1.1114218
1.1442156
1.1590089
1.1431925
1.1135511
1.0945191
1.043277
1.1223417
1.130422
1.1225216
1.1038032
1.0788592
1.0509385
1.0239246
1.0034835
0.99176582
0.98927016
0.99670298
1.01577
1.0427566
1.0641849
1.0689021
1.053055
1.0309981
1.0148059
1.0141918
1.0325364
1.0737393
1.1381246
1.1998296
1.2227162
1.1876336
1.1315299
1.041669
1.1301179
1.1309499
1.121945
1.1085145
1.0911539
1.0712569
1.0530701
1.0405095
1.0389179
1.0496499
1.0727687
1.1014431
1.1203094
1.1132533
1.0857637
1.0479326
1.0144867
0.9964191
0.99144245
1.0083342
1.0399839
1.0983994
1.1706667
1.2302521
1.2417657
1.1809282
1.0809556
1.07664
1.0749861
1.07004
1.0635175
1.0591704
1.0573235
1.0611176
1.074836
1.101564
1.1400284
1.1798034
1.2034805
1.1946981
1.1550811
1.1040685
1.0602612
1.0324185
1.0183146
1.0160465
1.0250661
1.0387451
1.0643017
1.1167257
1.1752058
1.2161128
1.2032649
1.1452775
1.0249783
1.0198151
1.020549
1.0211174
1.0237559
1.0321116
1.0512027
1.0829995
1.1252213
1.1728061
1.2136893
1.2305859
1.2201664
1.1871576
1.1463425
1.111177
1.0867767
1.0791833
1.0775186
1.072209
1.0627365
1.0677614
1.0899756
1.1152742
1.1340952
1.1562701
1.184786
1.0008527
1.0058283
1.0161617
1.0271186
1.0404264
1.0547166
1.0721623
1.0872595
1.1033257
1.1219345
1.1413059
1.1590531
1.1694079
1.1713057
1.1738168
1.1742062
1.1735682
1.1722461
1.1607905
1.1384757
1.1102744
1.1006448
1.1025233
1.0869466
1.0582511
1.081459
1.1634752
1.0428988
1.0635373
1.0851263
1.1017089
1.1085732
1.1038263
1.0900825
1.0721246
1.0562186
1.0497336
1.0517515
1.0650768
1.0844495
1.1098069
1.1428888
1.1820565
1.2243155
1.2530748
1.2502356
1.2192976
1.1815993
1.1573822
1.1360904
1.0894409
1.0321923
1.0321157
1.1154165
1.1955869
1.2130931
1.2150519
1.1959162
1.1605445
1.117138
1.0744502
1.0379529
1.0174683
1.0119978
1.0185011
1.0305339
1.0476832
1.0686416
1.0999123
1.1414695
1.1956338
1.2492522
1.2838794
1.2854399
1.2585045
1.226511
1.1826802
1.119923
1.0469269
1.0268716
1.0918659
1.3333949
1.3384909
1.3087616
1.2556726
1.1931678
1.1321002
1.0809349
1.046917
1.0298368
1.0314998
1.0462084
1.0676456
1.0866415
1.0939421
1.0985884
1.110197
1.1351383
1.1802367
1.2327616
1.2798685
1.2980816
1.2854566
1.2418323
1.1657862
1.0856663
1.0579116
1.1130874
1.317042
1.3180027
1.3010226
1.2656576
1.220496
1.1762522
1.1389082
1.1134792
1.1114336
1.1290609
1.156352
1.1773459
1.1818124
1.1613099
1.1296391
1.1045278
1.0981675
1.1145013
1.1593433
1.2208943
1.2812012
1.3073489
1.2832001
1.2144522
1.1366349
1.1064948
1.1656475
1.2211551
1.2253741
1.2139025
1.2020853
1.1854939
1.1734429
1.1731354
1.1915534
1.2288334
1.2828708
1.3319666
1.3396094
1.3027299
1.2305421
1.1648412
1.1169165
1.0967841
1.1044695
1.1348275
1.1790028
1.2321177
1.2748493
1.2838515
1.2505096
1.191754
1.1712507
1.2368402
1.149418
1.1537573
1.1523196
1.1432743
1.1337896
1.1358317
1.1574298
1.2080014
1.2876213
1.3896315
1.4733859
1.4809629
1.4157066
1.3078488
1.2156625
1.1566039
1.1376881
1.1454942
1.1633823
1.1772529
1.1869499
1.2056341
1.2342771
1.2562891
1.2515121
1.2619445
1.3173019
1.159739
1.1726354
1.17624
1.1670194
1.1524165
1.1454629
1.1570991
1.1934056
1.2622556
1.3575891
1.4561989
1.5008682
1.4722014
1.3864476
1.3032112
1.2455635
1.2233027
1.2224977
1.2187337
1.1935469
1.1599292
1.1402104
1.1642574
1.224111
1.304515
1.3735419
1.3961101
1.2604044
1.2870432
1.2865448
1.261111
1.2229795
1.1895992
1.1704719
1.1743403
1.2027937
1.2608874
1.3385068
1.407515
1.4425335
1.4348607
1.4016684
1.3639659
1.3342033
1.3036092
1.2594143
1.2004868
1.1393467
1.1032113
1.1224837
1.1994066
1.335328
1.4668326
1.4576687
1.4090575
1.4193751
1.4028637
1.3569452
1.2935803
1.2317585
1.1858545
1.1628855
1.1634078
1.1931581
1.2474556
1.3154769
1.3816281
1.4316455
1.459939
1.4529578
1.4123799
1.346462
1.2701269
1.1937277
1.1328238
1.0999177
1.1165701
1.2013359
1.3585058
1.5094236
1.4865696
1.4701603
1.4651277
1.4381449
1.3917021
1.3340224
1.2741128
1.2223222
1.1862267
1.173211
1.1864632
1.2226045
1.2808253
1.3513072
1.4152702
1.457058
1.4624686
1.4207848
1.345937
1.2615985
1.1914222
1.1430732
1.1246743
1.1439869
1.225497
1.3636339
1.5016568
1.4830394
1.4540052
1.4447923
1.4222293
1.3856029
1.3391649
1.2912046
1.2495252
1.2189143
1.2053116
1.2122828
1.2369918
1.2767807
1.3295959
1.3809524
1.4154543
1.4227236
1.3956133
1.3399662
1.2728771
1.2134024
1.1744103
1.1659897
1.1880083
1.2519679
1.356347
1.4597759
1.4648424
1.4476772
1.4452419
1.4294994
1.3957496
1.3491122
1.3018395
1.2626365
1.2353959
1.2232547
1.2255395
1.2407245
1.2675673
1.3010765
1.3370534
1.3679759
1.3814484
1.3792185
1.3548635
1.3130527
1.2652108
1.2288855
1.2159929
1.2242829
1.2634957
1.3349793
1.4136216
1.4554297
1.4861556
1.492072
1.4788659
1.4372821
1.3773096
1.3190006
1.2732001
1.242441
1.2259298
1.2217419
1.2306451
1.2506527
1.2778498
1.3058904
1.3360043
1.3616579
1.3848492
1.3907586
1.3755934
1.3390349
1.2916059
1.2545445
1.2433912
1.2587298
1.3089663
1.3824784
1.4522942
1.5682256
1.5794387
1.5542558
1.4855501
1.4009273
1.3288662
1.2786643
1.2470469
1.2315232
1.2311883
1.2431861
1.2636319
1.2838121
1.3036772
1.3264234
1.3614803
1.4025231
1.4409308
1.45116
1.4172527
1.3453833
1.2788795
1.246782
1.2550979
1.2956935
1.3684491
1.4504369
1.6778779
1.6906928
1.6409717
1.5357065
1.4270874
1.3464115
1.2950562
1.2668398
1.2594968
1.2664458
1.2821376
1.2981218
1.3093617
1.3164531
1.3293317
1.3623969
1.424749
1.4898079
1.5259536
1.4946932
1.4001458
1.3025694
1.2522144
1.258067
1.296542
1.3669299
1.4521504
1.8468965
1.857395
1.7668724
1.6112143
1.4765594
1.386096
1.328183
1.3022533
1.30095
1.3121991
1.3267161
1.3318434
1.336913
1.3299084
1.3336758
1.3677918
1.447055
1.540688
1.6029172
1.5732581
1.458009
1.3352584
1.2699985
1.2694152
1.303473
1.3679702
1.4542247
2.1299763
2.1201039
1.9542111
1.7321063
1.55807
1.4446345
1.3758405
1.3516253
1.3528701
1.3650454
1.372911
1.3689394
1.3639643
1.348331
1.3442531
1.3815938
1.4813733
1.6066068
1.6969084
1.6663385
1.5258242
1.3773504
1.2952393
1.2849551
1.3088855
1.3666192
1.4573142
2.5993362
2.5157007
2.1990103
1.8913046
1.6753197
1.5346999
1.4519025
1.4237073
1.4217159
1.4234221
1.4146928
1.4033903
1.3840548
1.3635748
1.3581225
1.4126049
1.5442996
1.7110565
1.8294718
1.7820717
1.5975649
1.4201914
1.3215624
1.2961389
1.3061803
1.3526402
1.4519761
3.2805008
2.9811287
2.4638008
2.0751857
1.814704
1.6289254
1.5289027
1.4868459
1.472061
1.4564972
1.4421762
1.4336046
1.3991442
1.3759877
1.3823022
1.4709257
1.6655387
1.8912366
2.0307125
1.9316548
1.6815282
1.4659684
1.351341
1.3101996
1.305536
1.3410278
1.4386124
3.9677567
3.355479
2.6620768
2.1959075
1.875064
1.6603596
1.5481929
1.5004749
1.4704118
1.4546712
1.4470866
1.4440689
1.4004369
1.3850399
1.4336892
1.5850952
1.8380074
2.1382111
2.2806949
2.0986527
1.7741773
1.5365887
1.4038688
1.342395
1.3251966
1.3571736
1.4424233
4.146143
3.4414925
2.7427053
2.2718886
1.949734
1.727492
1.5908138
1.5416904
1.4970372
1.4718581
1.4542484
1.4605597
1.4145984
1.4191941
1.5052898
1.7107914
2.0087913
2.3184563
2.4185909
2.1955747
1.8708445
1.6436625
1.5025305
1.4277847
1.3985429
1.4138428
1.4928769
3.7338841
3.2418009
2.7390506
2.3867834
2.1180402
1.9015265
1.7457122
1.6575822
1.6043935
1.5684947
1.5395516
1.5298869
1.508757
1.5573083
1.6844573
1.8847859
2.1337842
2.318688
2.2964674
2.1220221
1.9171931
1.7644404
1.6515591
1.5748128
1.5423256
1.5171939
1.5924645
3.0668149
2.8535974
2.5862441
2.3892065
2.2273965
2.0828887
1.9526118
1.8709133
1.8359819
1.8152148
1.7999048
1.7714654
1.7727101
1.8391173
1.952576
2.0653474
2.1561598
2.1540102
2.0656561
1.9739213
1.9092131
1.8620142
1.8191237
1.7788469
1.7403707
1.6860312
1.7129407
2.5688296
2.4723642
2.3129869
2.2001986
2.1292416
2.0738576
2.0609777
2.0817996
2.1293319
2.1982591
2.2405495
2.2407214
2.2314011
2.2080894
2.1851298
2.1331851
2.0483063
1.9207609
1.857029
1.8396491
1.8731301
1.9283614
1.9847381
2.0182812
1.9992714
1.8758797
1.806868
2.3851598
2.2621992
2.0733222
1.9233387
1.8613882
1.862258
1.9215572
2.0656036
2.2590285
2.5461095
2.8063387
2.8955291
2.690335
2.4369394
2.1795767
1.9770734
1.8074255
1.7079484
1.694962
1.7193113
1.8073888
1.9570157
2.1488144
2.305371
2.2855411
2.043032
1.8447979
2.2908962
2.1454742
1.9291377
1.7586045
1.6597903
1.6567786
1.754044
1.9489894
2.2733001
2.7419221
3.1990821
3.2182381
2.7595382
2.2956308
1.935621
1.7057192
1.5964717
1.5664282
1.5846735
1.6188863
1.7308923
1.9628156
2.2947282
2.5852243
2.5132934
2.1391541
1.8325654
2.1882146
2.0396996
1.8247482
1.6697657
1.6014337
1.6143623
1.7128836
1.9308672
2.2884917
2.7849464
3.1666757
3.0178863
2.5103055
2.0393369
1.740495
1.5824386
1.5207632
1.4994556
1.5274903
1.569492
1.7102643
1.9810621
2.3937268
2.727896
2.5553144
2.1082326
1.7978923
2.1206309
1.9798358
1.7895539
1.660622
1.6120451
1.6299599
1.73848
1.9466883
2.2592541
2.6278378
2.8067821
2.6319786
2.2415853
1.9024156
1.6931767
1.5713264
1.5218331
1.5044782
1.5273512
1.6031728
1.7645339
2.0442646
2.4241956
2.6484902
2.4148075
2.0345156
1.7929946
2.1105814
1.9751829
1.8011943
1.6888591
1.6480856
1.6814857
1.773585
1.9220661
2.1194698
2.3110797
2.377079
2.2751488
2.0542055
1.8476131
1.7017626
1.607663
1.5666295
1.5702108
1.612
1.7129034
1.879454
2.0992821
2.3471479
2.4159647
2.249691
2.0238957
1.8575838
2.1841372
2.0370281
1.8541576
1.7398923
1.6971079
1.7138353
1.7581918
1.8281741
1.9089192
1.9786435
2.0055877
1.9849753
1.908914
1.8095986
1.7242358
1.6688984
1.6550791
1.6869101
1.7672265
1.8724376
1.9679358
2.0580574
2.1419027
2.1620621
2.1314179
2.0675025
1.9929705
2.3256584
2.1441916
1.9386679
1.8073872
1.7404673
1.7092691
1.696865
1.7006402
1.7129626
1.7296706
1.7413718
1.7542586
1.7552421
1.7464626
1.7309129
1.7384626
1.787125
1.8644634
1.9446012
1.9769454
1.951507
1.9105499
1.900567
1.9491046
2.0196438
2.0783523
2.1099438
2.4585043
2.2534692
2.0126514
1.8519576
1.752617
1.6837143
1.6374301
1.6080568
1.5939865
1.590555
1.5966174
1.6109389
1.6359717
1.6783734
1.7441366
1.8364448
1.9554587
2.0498177
2.0592134
1.9774068
1.846852
1.7445319
1.7171591
1.7687444
1.8908486
2.0288463
2.181415
2.4222008
2.243851
2.012895
1.8503085
1.7491285
1.677055
1.6234382
1.5880994
1.5685676
1.5641277
1.5708092
1.597221
1.644471
1.7235446
1.8416706
1.9748878
2.0846919
2.1181855
2.0453418
1.8934913
1.7408642
1.6399806
1.610512
1.652082
1.7649687
1.9705758
2.2583759
2.2433262
2.1254453
1.9696302
1.8592211
1.7830728
1.7251756
1.6822955
1.6551015
1.6444901
1.6570755
1.7018046
1.7627858
1.8403299
1.9220738
1.9949435
2.0465939
2.059594
2.0209916
1.9278791
1.8078492
1.6923154
1.604545
1.5669855
1.5965811
1.7084717
1.9782159
2.3888919
2.1931383
2.0982377
1.987653
1.9178119
1.880429
1.862399
1.8565631
1.8701411
1.8990065
1.9466833
2.001578