/*--------------------------------*- C++ -*----------------------------------*\
| =========                 |                                                 |
| \\      /  F ield         | OpenFOAM: The Open Source CFD Toolbox           |
|  \\    /   O peration     | Version:  2406                                  |
|   \\  /    A nd           | Website:  www.openfoam.com                      |
|    \\/     M anipulation  |                                                 |
\*---------------------------------------------------------------------------*/
FoamFile
{
    version     2.0;
    format      ascii;
    arch        "LSB;label=32;scalar=64";
    class       volScalarField;
    location    "10";
    object      T;
}
// * * * * * * * * * * * * * * * * * * * * * * * * * * * * * * * * * * * * * //

dimensions      [0 0 0 1 0 0 0];

internalField   nonuniform List<scalar> 
19701
(
1.0000999
1.0000442
1.0000438
1.0000407
1.0000396
1.0000367
1.0000349
1.0000324
1.0000303
1.0000282
1.0000262
1.0000243
1.0000226
1.0000209
1.0000194
1.000018
1.0000166
1.0000154
1.0000142
1.0000131
1.0000121
1.0000111
1.0000102
1.0000093
1.0000085
1.0000077
1.0000069
1.0000061
1.0000052
1.0000045
1.0000039
1.0000033
1.0000029
1.0000024
1.0000021
1.0000019
1.0000017
1.0000015
1.0000011
1.0000008
1.0000006
1.0000003
1
0.99999959
0.99999912
0.99999882
0.9999985
0.99999821
0.99999792
0.99999763
0.9999973
0.99999696
0.99999668
0.99999645
0.99999628
0.99999616
0.99999612
0.99999615
0.99999625
0.99999641
0.99999664
0.99999696
0.99999737
0.9999978
0.99999821
0.99999857
0.99999883
0.99999893
0.99999879
0.99999838
0.9999978
0.99999716
0.99999641
0.99999558
0.99999491
0.99999455
0.9999946
0.99999512
0.99999604
0.99999702
0.99999777
0.9999983
0.99999852
0.99999831
0.99999775
0.99999711
0.99999642
0.99999587
0.99999528
0.99999484
0.99999428
0.99999454
0.99999472
0.99999652
0.99999607
0.99999686
0.99999215
0.99999694
0.99999208
1.0001698
1.0000355
1.0000367
1.0000337
1.0000329
1.0000314
1.0000296
1.0000283
1.0000265
1.000025
1.0000236
1.000022
1.0000205
1.0000192
1.0000179
1.0000165
1.0000154
1.0000142
1.0000132
1.0000121
1.0000111
1.0000103
1.0000093
1.0000087
1.0000079
1.0000072
1.0000065
1.000006
1.0000055
1.0000052
1.0000048
1.0000045
1.0000041
1.0000037
1.0000034
1.000003
1.0000025
1.000002
1.0000015
1.0000011
1.0000006
1.0000002
0.99999982
0.9999995
0.99999933
0.999999
0.9999987
0.99999839
0.9999981
0.99999781
0.9999976
0.99999731
0.99999709
0.99999699
0.99999697
0.99999705
0.99999723
0.99999752
0.99999787
0.99999828
0.99999877
0.99999935
0.99999993
1.0000004
1.0000008
1.0000009
1.0000008
1.0000003
0.99999935
0.99999803
0.99999656
0.99999513
0.99999363
0.99999247
0.99999196
0.99999233
0.99999374
0.9999959
0.99999801
0.99999979
1.0000009
1.000001
1.0000002
0.999999
0.99999758
0.99999619
0.99999501
0.99999436
0.99999396
0.99999402
0.99999464
0.9999962
0.99999814
1.0000009
0.99999916
0.9999958
0.99998836
0.9999875
0.99998459
1.0002282
1.0000289
1.0000224
1.0000229
1.0000227
1.0000218
1.0000217
1.0000207
1.00002
1.0000192
1.0000185
1.0000172
1.0000165
1.0000159
1.0000144
1.0000138
1.0000129
1.0000118
1.0000112
1.0000102
1.0000095
1.0000088
1.0000079
1.0000075
1.0000068
1.0000062
1.0000057
1.0000054
1.0000049
1.0000046
1.0000041
1.0000038
1.0000034
1.0000031
1.0000028
1.0000024
1.0000021
1.0000018
1.0000016
1.0000012
1.0000009
1.0000006
1.0000003
0.99999999
0.99999966
0.99999924
0.99999884
0.99999843
0.99999804
0.99999768
0.99999736
0.99999719
0.9999971
0.99999711
0.99999727
0.99999758
0.99999805
0.99999863
0.99999931
1.0000001
1.0000009
1.0000019
1.0000027
1.0000033
1.0000037
1.0000036
1.000003
1.0000018
1
0.99999779
0.99999533
0.99999299
0.99999111
0.99998993
0.99998992
0.99999132
0.99999381
0.99999677
0.9999999
1.0000024
1.0000037
1.0000035
1.000002
1
0.99999778
0.99999573
0.999994
0.99999301
0.99999291
0.9999938
0.99999547
0.99999798
1.0000002
1.0000027
0.99999991
0.99999637
0.99999232
1.0000011
0.99999385
1.0003009
1.0000211
1.0000097
1.0000099
1.0000109
1.0000107
1.0000115
1.0000112
1.0000112
1.0000111
1.000011
1.0000102
1.0000101
1.0000098
1.0000087
1.0000087
1.000008
1.0000074
1.000007
1.0000063
1.0000061
1.0000053
1.000005
1.0000044
1.0000042
1.0000038
1.0000038
1.0000036
1.0000035
1.0000035
1.0000033
1.0000033
1.0000033
1.0000031
1.000003
1.0000027
1.0000025
1.0000023
1.0000021
1.0000018
1.0000017
1.0000014
1.0000011
1.0000007
1.0000003
0.99999986
0.99999936
0.99999886
0.9999984
0.99999802
0.99999774
0.99999767
0.99999769
0.99999786
0.9999982
0.99999875
0.9999995
1.0000004
1.0000013
1.0000024
1.0000036
1.0000048
1.0000057
1.0000064
1.0000066
1.0000062
1.0000052
1.0000035
1.0000011
0.9999982
0.99999505
0.99999206
0.99998998
0.9999891
0.99998961
0.99999169
0.99999497
0.99999863
1.0000022
1.0000051
1.0000064
1.000006
1.0000043
1.000002
0.99999928
0.99999669
0.99999424
0.9999929
0.99999278
0.99999404
0.99999626
0.99999953
1.0000012
1.0000024
0.99999981
0.99999718
0.99999734
1.0000113
1.0000029
1.0003787
1.0000268
1.0000061
1.0000055
1.0000057
1.0000053
1.0000059
1.0000055
1.000006
1.0000062
1.0000058
1.0000054
1.0000057
1.0000053
1.0000047
1.000005
1.0000045
1.0000045
1.0000043
1.0000041
1.0000043
1.0000038
1.0000041
1.0000039
1.000004
1.0000038
1.0000039
1.0000038
1.0000038
1.0000038
1.0000037
1.0000036
1.0000036
1.0000034
1.0000034
1.0000033
1.0000032
1.0000031
1.000003
1.0000029
1.0000026
1.0000022
1.0000018
1.0000012
1.0000007
1.0000001
0.99999948
0.99999892
0.99999843
0.99999802
0.99999777
0.9999977
0.9999978
0.99999811
0.99999867
0.99999947
1.0000005
1.0000015
1.0000028
1.0000042
1.0000056
1.0000068
1.0000078
1.0000083
1.0000082
1.0000075
1.000006
1.0000037
1.0000008
0.9999976
0.99999419
0.99999106
0.99998883
0.99998816
0.99998904
0.99999136
0.99999495
0.9999991
1.0000031
1.0000063
1.0000079
1.0000078
1.0000063
1.0000041
1.0000014
0.99999849
0.99999511
0.99999278
0.99999211
0.99999368
0.99999651
1.0000003
1.0000022
1.0000033
1.0000015
0.99999881
0.99999814
1.0000059
0.99999798
1.0004476
1.0000342
1.000007
1.0000067
1.0000063
1.0000062
1.0000055
1.0000047
1.000005
1.0000049
1.0000042
1.0000043
1.0000047
1.0000044
1.0000043
1.0000046
1.0000043
1.0000046
1.0000042
1.0000044
1.0000045
1.000004
1.0000043
1.0000042
1.0000042
1.0000041
1.0000043
1.0000042
1.0000042
1.0000042
1.0000041
1.0000041
1.0000041
1.000004
1.0000041
1.0000039
1.0000039
1.0000038
1.0000037
1.0000035
1.0000032
1.0000028
1.0000023
1.0000017
1.000001
1.0000003
0.99999964
0.999999
0.99999846
0.99999803
0.99999779
0.99999774
0.99999792
0.99999838
0.99999913
1.0000002
1.0000014
1.0000028
1.0000043
1.0000059
1.0000074
1.0000086
1.0000094
1.0000097
1.0000093
1.0000081
1.0000062
1.0000035
1.0000004
0.99999696
0.9999936
0.9999906
0.99998845
0.99998769
0.99998858
0.99999101
0.99999461
0.99999878
1.000003
1.0000064
1.0000083
1.0000088
1.0000078
1.0000059
1.0000031
0.99999979
0.99999571
0.99999249
0.99999119
0.99999303
0.9999969
1.0000017
1.0000038
1.0000047
1.0000032
1.0000013
1.0000004
0.99999759
0.99999021
1.0005081
1.0000461
1.0000075
1.0000066
1.0000061
1.0000065
1.0000054
1.0000047
1.0000053
1.0000049
1.0000041
1.0000046
1.0000048
1.0000044
1.0000046
1.0000047
1.0000045
1.0000049
1.0000043
1.0000047
1.0000045
1.0000043
1.0000044
1.0000044
1.0000042
1.0000042
1.0000043
1.0000042
1.0000042
1.0000041
1.0000041
1.0000041
1.0000041
1.000004
1.0000041
1.000004
1.000004
1.0000039
1.0000037
1.0000034
1.000003
1.0000025
1.000002
1.0000013
1.0000006
0.99999992
0.99999923
0.99999861
0.99999808
0.99999771
0.99999753
0.99999761
0.99999796
0.99999863
0.9999996
1.0000008
1.0000023
1.000004
1.0000057
1.0000074
1.0000089
1.00001
1.0000106
1.0000106
1.0000098
1.0000082
1.0000059
1.000003
0.99999983
0.99999644
0.99999317
0.99999031
0.99998824
0.99998734
0.99998806
0.99999045
0.99999401
0.99999819
1.0000025
1.0000065
1.000009
1.0000101
1.0000096
1.0000077
1.0000045
1.0000004
0.99999559
0.99999199
0.99999058
0.99999314
0.99999788
1.0000035
1.0000049
1.0000041
1.0000002
0.99999698
0.99999439
0.99998992
0.99998267
1.0005697
1.000061
1.0000079
1.0000066
1.0000062
1.0000066
1.0000055
1.0000048
1.0000057
1.000005
1.0000041
1.0000047
1.0000046
1.0000041
1.0000044
1.0000041
1.000004
1.0000043
1.0000034
1.0000041
1.0000036
1.0000036
1.0000035
1.0000035
1.0000033
1.0000033
1.0000034
1.0000031
1.0000032
1.0000032
1.0000032
1.0000033
1.0000034
1.0000034
1.0000035
1.0000035
1.0000036
1.0000034
1.0000033
1.0000029
1.0000026
1.000002
1.0000015
1.0000008
1.0000001
0.99999933
0.99999863
0.99999801
0.9999975
0.99999719
0.99999712
0.99999735
0.99999789
0.99999877
0.99999997
1.0000014
1.0000031
1.0000049
1.0000069
1.0000086
1.00001
1.000011
1.0000113
1.000011
1.0000099
1.0000081
1.0000056
1.0000027
0.99999962
0.99999635
0.99999319
0.99999044
0.9999884
0.9999874
0.99998783
0.99998993
0.99999342
0.99999759
1.0000021
1.0000065
1.0000098
1.0000115
1.0000113
1.0000093
1.0000054
1.0000005
0.99999501
0.99999154
0.99999091
0.99999408
0.99999916
1.0000044
1.0000042
1.000001
0.99999427
0.99998764
0.99998711
0.99999716
0.99998936
1.0006356
1.000079
1.0000049
1.0000029
1.0000028
1.0000031
1.0000027
1.0000023
1.0000037
1.0000032
1.0000025
1.0000033
1.0000034
1.0000025
1.0000031
1.0000025
1.0000025
1.0000026
1.0000018
1.0000026
1.0000019
1.0000021
1.0000019
1.0000021
1.0000019
1.0000019
1.0000021
1.0000019
1.0000022
1.0000023
1.0000025
1.0000028
1.0000029
1.0000031
1.0000033
1.0000033
1.0000033
1.0000032
1.0000031
1.0000026
1.0000023
1.0000018
1.0000012
1.0000005
0.9999997
0.99999893
0.9999982
0.99999759
0.99999711
0.99999686
0.99999689
0.99999727
0.999998
0.99999909
1.0000005
1.0000022
1.0000041
1.000006
1.000008
1.0000097
1.0000109
1.0000116
1.0000117
1.0000111
1.0000098
1.0000078
1.0000053
1.0000026
0.9999996
0.99999651
0.99999348
0.99999078
0.99998872
0.99998763
0.99998777
0.99998948
0.99999278
0.9999971
1.0000019
1.0000067
1.0000106
1.0000128
1.0000125
1.00001
1.0000054
0.99999987
0.999994
0.99999109
0.99999162
0.99999531
0.99999964
1.0000032
1.0000016
0.99999738
0.99999247
0.99998981
0.9999902
0.99999931
0.99998749
1.0007034
1.0000986
1.0000028
0.99999857
0.99999928
0.99999987
0.99999952
0.99999973
1.0000011
1.0000011
1.0000007
1.0000017
1.0000021
1.0000015
1.0000022
1.0000016
1.0000022
1.000002
1.0000015
1.0000023
1.0000015
1.0000019
1.0000016
1.0000019
1.0000016
1.0000018
1.000002
1.0000019
1.0000022
1.0000024
1.0000025
1.0000028
1.000003
1.0000032
1.0000033
1.0000033
1.0000034
1.0000032
1.0000031
1.0000027
1.0000023
1.0000017
1.0000011
1.0000004
0.99999958
0.99999881
0.99999809
0.99999752
0.99999711
0.99999695
0.9999971
0.99999759
0.99999847
0.99999974
1.0000013
1.0000032
1.0000051
1.0000071
1.0000091
1.0000107
1.0000117
1.0000122
1.000012
1.0000112
1.0000097
1.0000077
1.0000053
1.0000028
1
0.99999708
0.99999422
0.9999916
0.99998947
0.99998819
0.99998811
0.99998956
0.9999927
0.99999719
1.0000023
1.0000076
1.0000118
1.0000141
1.0000136
1.0000103
1.000005
0.99999888
0.99999293
0.99999089
0.99999266
0.99999641
0.99999972
1.000002
0.99999975
0.99999634
0.99999439
0.99999606
0.9999994
1.000009
0.99999094
1.0007696
1.0001181
1.0000041
0.9999996
1.0000001
1.0000006
1.0000002
1.0000005
1.0000015
1.0000016
1.0000012
1.000002
1.0000024
1.0000018
1.0000026
1.0000018
1.0000027
1.0000023
1.0000019
1.0000027
1.0000018
1.0000024
1.0000019
1.0000024
1.0000021
1.0000023
1.0000024
1.0000024
1.0000028
1.0000029
1.0000031
1.0000034
1.0000036
1.0000038
1.000004
1.000004
1.0000041
1.0000039
1.0000038
1.0000034
1.000003
1.0000023
1.0000017
1.0000009
1.0000001
0.99999933
0.99999864
0.99999809
0.99999774
0.99999768
0.99999795
0.99999859
0.99999964
1.0000011
1.0000028
1.0000047
1.0000067
1.0000087
1.0000106
1.0000121
1.000013
1.0000133
1.0000129
1.0000118
1.0000102
1.0000083
1.0000061
1.0000037
1.0000012
0.99999851
0.99999581
0.99999327
0.99999113
0.99998972
0.99998949
0.99999077
0.99999377
0.99999829
1.0000035
1.000009
1.0000133
1.0000154
1.0000144
1.0000104
1.0000046
0.99999855
0.99999326
0.9999921
0.99999427
0.99999823
1.0000013
1.0000033
1.0000016
0.99999915
0.99999819
1.0000028
1.0000082
1.0000235
0.99999901
1.0008283
1.0001367
1.0000079
1.0000027
1.0000034
1.0000036
1.0000032
1.0000036
1.0000042
1.0000042
1.0000037
1.0000042
1.0000046
1.0000038
1.0000046
1.0000038
1.0000046
1.0000041
1.0000039
1.0000046
1.0000037
1.0000044
1.0000039
1.0000045
1.0000042
1.0000045
1.0000046
1.0000047
1.0000051
1.0000053
1.0000055
1.0000059
1.0000061
1.0000063
1.0000065
1.0000066
1.0000067
1.0000065
1.0000064
1.000006
1.0000056
1.0000049
1.0000042
1.0000035
1.0000026
1.0000019
1.0000012
1.0000007
1.0000005
1.0000005
1.0000009
1.0000016
1.0000028
1.0000044
1.0000062
1.0000082
1.0000102
1.0000122
1.0000141
1.0000154
1.0000161
1.0000162
1.0000156
1.0000144
1.0000128
1.000011
1.000009
1.0000069
1.0000046
1.0000021
0.99999956
0.9999971
0.999995
0.9999936
0.9999933
0.99999451
0.99999739
1.0000018
1.0000068
1.0000119
1.0000157
1.0000173
1.0000158
1.0000115
1.0000058
1.0000004
0.99999652
0.99999634
0.99999873
1.0000026
1.0000054
1.0000075
1.0000064
1.0000045
1.0000024
1.000003
1.0000055
1.0000275
1.0000047
1.0008729
1.0001501
1.0000152
1.0000091
1.0000098
1.0000097
1.0000093
1.0000096
1.0000101
1.0000101
1.0000095
1.0000098
1.0000103
1.0000093
1.0000101
1.0000091
1.0000099
1.0000093
1.0000092
1.0000098
1.000009
1.0000097
1.0000092
1.0000098
1.0000096
1.00001
1.0000102
1.0000104
1.0000108
1.000011
1.0000113
1.0000117
1.0000119
1.0000122
1.0000124
1.0000125
1.0000127
1.0000125
1.0000124
1.000012
1.0000115
1.0000109
1.0000102
1.0000094
1.0000086
1.0000079
1.0000073
1.0000068
1.0000066
1.0000067
1.0000072
1.0000081
1.0000094
1.000011
1.0000129
1.0000149
1.0000169
1.000019
1.0000206
1.0000218
1.0000224
1.0000223
1.0000215
1.0000203
1.0000187
1.000017
1.0000152
1.0000133
1.0000113
1.0000091
1.0000067
1.0000044
1.0000023
1.000001
1.0000007
1.0000019
1.0000045
1.0000084
1.0000128
1.0000171
1.0000201
1.0000211
1.0000192
1.0000152
1.0000102
1.0000063
1.0000045
1.0000051
1.0000073
1.0000106
1.0000125
1.0000136
1.0000119
1.0000093
1.0000068
1.0000073
1.0000076
1.0000142
0.99998847
1.0009009
1.0001544
1.0000251
1.0000184
1.000019
1.0000185
1.000018
1.000018
1.0000181
1.000018
1.0000174
1.0000176
1.0000181
1.000017
1.0000178
1.0000169
1.0000176
1.0000169
1.0000169
1.0000172
1.0000167
1.0000172
1.0000167
1.0000175
1.0000171
1.0000176
1.0000178
1.0000181
1.0000184
1.0000188
1.000019
1.0000195
1.0000197
1.00002
1.0000203
1.0000204
1.0000206
1.0000204
1.0000203
1.0000199
1.0000194
1.0000188
1.0000181
1.0000173
1.0000165
1.0000158
1.0000152
1.0000148
1.0000147
1.0000149
1.0000155
1.0000164
1.0000178
1.0000195
1.0000214
1.0000234
1.0000253
1.0000273
1.0000288
1.0000299
1.0000303
1.0000301
1.0000292
1.000028
1.0000265
1.000025
1.0000233
1.0000216
1.0000199
1.000018
1.0000159
1.0000139
1.0000121
1.0000109
1.0000106
1.0000114
1.0000135
1.0000165
1.0000197
1.0000231
1.0000253
1.0000258
1.0000242
1.0000213
1.0000179
1.000016
1.0000155
1.0000164
1.0000176
1.0000193
1.0000197
1.0000199
1.0000174
1.0000135
1.0000092
1.0000072
1.0000065
1.0000053
0.99997624
1.0009157
1.0001543
1.0000308
1.0000245
1.0000252
1.0000246
1.0000241
1.0000239
1.0000241
1.0000238
1.0000232
1.0000233
1.0000237
1.0000225
1.0000233
1.0000226
1.0000231
1.0000226
1.0000227
1.0000228
1.0000224
1.0000229
1.0000224
1.0000232
1.0000228
1.0000233
1.0000235
1.0000238
1.0000241
1.0000245
1.0000247
1.0000252
1.0000255
1.0000258
1.0000261
1.0000263
1.0000264
1.0000262
1.0000262
1.0000257
1.0000253
1.0000247
1.000024
1.0000232
1.0000224
1.0000218
1.0000212
1.0000209
1.0000208
1.000021
1.0000217
1.0000227
1.0000241
1.0000258
1.0000278
1.0000298
1.0000317
1.0000336
1.0000351
1.000036
1.0000363
1.000036
1.0000351
1.000034
1.0000327
1.0000313
1.0000299
1.0000285
1.000027
1.0000254
1.0000236
1.0000218
1.0000202
1.0000191
1.0000186
1.000019
1.0000202
1.0000221
1.0000242
1.0000265
1.000028
1.0000284
1.0000275
1.0000259
1.0000242
1.0000239
1.0000242
1.0000248
1.0000244
1.0000242
1.0000233
1.0000231
1.0000211
1.0000176
1.0000132
1.0000105
1.0000108
1.0000063
0.99998139
1.0009227
1.0001529
1.0000322
1.0000263
1.0000271
1.0000267
1.0000262
1.0000259
1.0000262
1.0000259
1.0000254
1.0000254
1.0000257
1.0000247
1.0000253
1.0000247
1.0000248
1.0000246
1.0000246
1.0000247
1.0000245
1.0000248
1.0000244
1.000025
1.0000249
1.0000252
1.0000256
1.0000257
1.0000262
1.0000266
1.0000268
1.0000274
1.0000277
1.0000281
1.0000284
1.0000285
1.0000287
1.0000285
1.0000285
1.0000281
1.0000277
1.0000271
1.0000264
1.0000257
1.000025
1.0000244
1.0000239
1.0000236
1.0000236
1.0000239
1.0000245
1.0000256
1.000027
1.0000287
1.0000306
1.0000326
1.0000345
1.0000363
1.0000377
1.0000385
1.0000388
1.0000385
1.0000377
1.0000366
1.0000354
1.0000342
1.0000329
1.0000317
1.0000305
1.0000292
1.0000278
1.0000263
1.0000249
1.0000237
1.0000229
1.0000227
1.000023
1.0000238
1.000025
1.0000262
1.0000274
1.0000282
1.0000284
1.0000285
1.0000285
1.000029
1.0000292
1.0000292
1.0000276
1.000026
1.0000243
1.0000234
1.0000222
1.0000211
1.0000195
1.000019
1.0000185
1.0000138
0.99998762
1.0009257
1.0001502
1.0000321
1.0000265
1.0000271
1.0000269
1.0000266
1.0000262
1.0000265
1.0000262
1.0000258
1.0000259
1.0000258
1.0000252
1.0000256
1.0000251
1.000025
1.0000251
1.0000249
1.0000249
1.0000248
1.000025
1.0000248
1.0000252
1.0000252
1.0000254
1.0000258
1.000026
1.0000264
1.0000269
1.000027
1.0000277
1.000028
1.0000284
1.0000287
1.0000289
1.0000291
1.000029
1.000029
1.0000285
1.0000282
1.0000276
1.000027
1.0000263
1.0000256
1.000025
1.0000245
1.0000243
1.0000243
1.0000246
1.0000253
1.0000263
1.0000278
1.0000295
1.0000313
1.0000332
1.000035
1.0000367
1.000038
1.0000388
1.000039
1.0000387
1.000038
1.0000371
1.0000362
1.0000352
1.0000342
1.0000333
1.0000323
1.0000313
1.0000302
1.0000288
1.0000274
1.0000259
1.0000247
1.0000237
1.0000233
1.0000233
1.0000238
1.0000248
1.0000259
1.0000272
1.000028
1.0000287
1.0000295
1.0000303
1.0000305
1.0000304
1.0000286
1.000027
1.0000242
1.0000224
1.0000219
1.000023
1.0000248
1.0000275
1.0000268
1.0000234
0.99999525
1.000927
1.0001472
1.0000311
1.0000262
1.0000265
1.0000265
1.0000262
1.000026
1.0000261
1.0000258
1.0000256
1.0000258
1.0000255
1.0000251
1.0000254
1.0000251
1.0000247
1.0000249
1.0000248
1.0000246
1.0000246
1.0000247
1.0000246
1.000025
1.000025
1.0000252
1.0000256
1.0000258
1.0000261
1.0000267
1.0000269
1.0000275
1.0000278
1.0000282
1.0000286
1.0000288
1.000029
1.0000289
1.0000289
1.0000285
1.0000281
1.0000276
1.000027
1.0000263
1.0000257
1.0000251
1.0000247
1.0000244
1.0000244
1.0000248
1.0000254
1.0000265
1.0000279
1.0000295
1.0000312
1.000033
1.0000348
1.0000365
1.0000377
1.0000385
1.0000388
1.0000386
1.000038
1.0000374
1.0000366
1.0000359
1.0000351
1.0000344
1.0000337
1.0000328
1.0000316
1.0000302
1.0000285
1.0000267
1.0000249
1.0000235
1.0000226
1.0000222
1.0000225
1.0000233
1.0000244
1.0000257
1.0000267
1.0000276
1.0000284
1.0000294
1.0000301
1.0000311
1.0000302
1.000029
1.0000253
1.0000225
1.0000217
1.0000241
1.0000287
1.000035
1.0000344
1.0000336
1.0000034
1.0009277
1.000145
1.0000298
1.0000254
1.0000254
1.0000255
1.0000254
1.0000253
1.0000254
1.0000251
1.000025
1.0000252
1.0000248
1.0000245
1.0000248
1.0000246
1.000024
1.0000243
1.0000243
1.000024
1.000024
1.0000241
1.0000241
1.0000243
1.0000244
1.0000247
1.000025
1.0000254
1.0000257
1.0000262
1.0000265
1.0000271
1.0000275
1.0000279
1.0000283
1.0000285
1.0000287
1.0000287
1.0000287
1.0000283
1.000028
1.0000275
1.0000269
1.0000263
1.0000257
1.0000252
1.0000248
1.0000245
1.0000246
1.0000249
1.0000255
1.0000265
1.0000278
1.0000293
1.000031
1.0000327
1.0000344
1.000036
1.0000372
1.000038
1.0000384
1.0000383
1.000038
1.0000376
1.0000372
1.0000367
1.0000362
1.0000356
1.0000349
1.0000339
1.0000326
1.0000308
1.0000287
1.0000265
1.0000244
1.0000228
1.0000218
1.0000215
1.0000218
1.0000226
1.0000236
1.0000247
1.0000254
1.000026
1.0000266
1.0000279
1.0000295
1.0000317
1.0000322
1.0000317
1.0000281
1.0000248
1.0000238
1.0000265
1.0000301
1.0000344
1.0000318
1.0000235
0.99999647
1.000928
1.0001438
1.0000289
1.0000249
1.0000247
1.0000247
1.0000247
1.0000247
1.0000246
1.0000244
1.0000244
1.0000245
1.0000241
1.0000239
1.0000241
1.0000239
1.0000234
1.0000236
1.0000236
1.0000233
1.0000233
1.0000235
1.0000235
1.0000236
1.0000238
1.0000242
1.0000243
1.0000248
1.0000253
1.0000256
1.0000261
1.0000266
1.0000271
1.0000275
1.0000279
1.0000283
1.0000285
1.0000285
1.0000285
1.0000282
1.000028
1.0000275
1.000027
1.0000264
1.0000259
1.0000254
1.000025
1.0000247
1.0000247
1.000025
1.0000256
1.0000265
1.0000277
1.0000292
1.0000307
1.0000323
1.0000339
1.0000355
1.0000367
1.0000376
1.000038
1.0000382
1.0000382
1.0000381
1.000038
1.0000378
1.0000375
1.0000369
1.0000361
1.0000349
1.0000331
1.0000309
1.0000284
1.0000258
1.0000235
1.000022
1.0000212
1.0000213
1.0000219
1.0000229
1.0000237
1.0000244
1.0000244
1.0000244
1.0000248
1.0000265
1.0000291
1.0000325
1.0000341
1.0000345
1.0000316
1.0000284
1.0000265
1.0000271
1.0000276
1.0000289
1.0000268
1.0000294
1.0000005
1.0009281
1.0001433
1.0000285
1.0000245
1.0000243
1.0000243
1.0000244
1.0000244
1.0000242
1.000024
1.000024
1.0000241
1.0000237
1.0000235
1.0000236
1.0000234
1.0000232
1.0000231
1.0000231
1.0000229
1.0000229
1.000023
1.0000231
1.0000231
1.0000234
1.0000238
1.0000239
1.0000244
1.0000249
1.0000252
1.0000258
1.0000263
1.0000269
1.0000274
1.0000278
1.0000282
1.0000284
1.0000285
1.0000286
1.0000283
1.0000281
1.0000277
1.0000272
1.0000267
1.0000262
1.0000257
1.0000253
1.0000251
1.0000251
1.0000253
1.0000258
1.0000267
1.0000278
1.0000291
1.0000305
1.000032
1.0000335
1.000035
1.0000363
1.0000372
1.0000379
1.0000384
1.0000387
1.000039
1.0000391
1.0000392
1.000039
1.0000383
1.0000372
1.0000356
1.0000334
1.0000307
1.0000278
1.0000249
1.0000226
1.0000213
1.000021
1.0000216
1.0000226
1.0000239
1.0000247
1.000025
1.0000244
1.0000238
1.0000238
1.0000257
1.0000289
1.0000329
1.0000354
1.0000368
1.0000341
1.0000304
1.0000266
1.0000254
1.0000258
1.0000284
1.0000286
1.0000255
1.0000021
1.0009281
1.0001431
1.0000284
1.0000244
1.0000242
1.0000242
1.0000242
1.0000242
1.0000239
1.0000237
1.0000237
1.0000238
1.0000235
1.0000232
1.0000232
1.000023
1.0000229
1.0000228
1.0000226
1.0000226
1.0000226
1.0000226
1.0000227
1.0000228
1.000023
1.0000234
1.0000236
1.0000241
1.0000246
1.000025
1.0000257
1.0000261
1.0000267
1.0000273
1.0000278
1.0000282
1.0000285
1.0000286
1.0000287
1.0000285
1.0000283
1.000028
1.0000276
1.0000271
1.0000266
1.0000262
1.0000258
1.0000256
1.0000256
1.0000258
1.0000262
1.0000269
1.0000279
1.0000291
1.0000304
1.0000318
1.0000332
1.0000347
1.000036
1.0000371
1.000038
1.0000387
1.0000394
1.00004
1.0000404
1.0000406
1.0000405
1.0000397
1.0000382
1.0000361
1.0000333
1.0000302
1.0000269
1.0000239
1.0000216
1.0000207
1.000021
1.0000223
1.0000239
1.0000256
1.0000266
1.0000267
1.0000257
1.0000245
1.000024
1.0000256
1.0000287
1.0000327
1.0000355
1.0000373
1.0000348
1.0000308
1.0000262
1.0000239
1.0000235
1.0000266
1.0000286
1.0000368
1.0000206
1.000928
1.000143
1.0000282
1.0000243
1.0000242
1.0000242
1.0000241
1.000024
1.0000238
1.0000236
1.0000235
1.0000235
1.0000233
1.000023
1.0000228
1.0000227
1.0000227
1.0000224
1.0000223
1.0000223
1.0000222
1.0000222
1.0000224
1.0000225
1.0000227
1.0000231
1.0000234
1.0000238
1.0000243
1.0000248
1.0000254
1.0000261
1.0000266
1.0000273
1.0000278
1.0000283
1.0000286
1.0000288
1.0000289
1.0000288
1.0000287
1.0000284
1.000028
1.0000276
1.0000272
1.0000268
1.0000264
1.0000262
1.0000261
1.0000263
1.0000266
1.0000272
1.0000281
1.0000291
1.0000303
1.0000316
1.0000329
1.0000344
1.0000357
1.000037
1.0000381
1.0000391
1.0000401
1.000041
1.0000417
1.000042
1.0000418
1.0000408
1.000039
1.0000364
1.0000331
1.0000296
1.000026
1.0000229
1.0000208
1.0000203
1.0000213
1.0000232
1.0000255
1.0000278
1.0000291
1.0000292
1.000028
1.0000262
1.000025
1.0000254
1.0000273
1.0000302
1.0000326
1.0000348
1.0000332
1.0000302
1.0000259
1.0000232
1.0000228
1.0000274
1.0000296
1.0000368
1.0000173
1.0009279
1.0001428
1.0000282
1.0000242
1.0000241
1.000024
1.0000239
1.0000238
1.0000237
1.0000235
1.0000233
1.0000232
1.000023
1.0000228
1.0000226
1.0000224
1.0000223
1.0000221
1.0000219
1.0000219
1.0000218
1.0000218
1.000022
1.0000222
1.0000224
1.0000227
1.0000231
1.0000235
1.0000241
1.0000247
1.0000252
1.000026
1.0000266
1.0000272
1.0000279
1.0000284
1.0000288
1.000029
1.0000292
1.0000291
1.000029
1.0000288
1.0000285
1.0000281
1.0000277
1.0000274
1.000027
1.0000268
1.0000267
1.0000268
1.0000271
1.0000276
1.0000283
1.0000292
1.0000303
1.0000314
1.0000327
1.0000341
1.0000356
1.0000369
1.0000382
1.0000395
1.0000408
1.0000419
1.0000427
1.000043
1.0000427
1.0000416
1.0000395
1.0000364
1.0000328
1.0000289
1.0000252
1.0000221
1.0000203
1.0000201
1.0000217
1.0000243
1.0000273
1.0000302
1.0000319
1.0000322
1.0000309
1.0000285
1.000026
1.0000248
1.0000247
1.0000259
1.0000275
1.0000296
1.0000297
1.0000297
1.0000273
1.000026
1.0000253
1.0000273
1.0000278
1.0000377
1.0000235
1.0009278
1.0001427
1.0000281
1.0000242
1.000024
1.0000239
1.0000237
1.0000236
1.0000235
1.0000233
1.0000231
1.0000229
1.0000227
1.0000225
1.0000223
1.0000221
1.0000219
1.0000217
1.0000216
1.0000215
1.0000214
1.0000214
1.0000216
1.0000218
1.000022
1.0000223
1.0000228
1.0000232
1.0000238
1.0000244
1.0000251
1.0000258
1.0000265
1.0000272
1.0000279
1.0000285
1.000029
1.0000293
1.0000295
1.0000295
1.0000294
1.0000293
1.000029
1.0000287
1.0000283
1.000028
1.0000277
1.0000274
1.0000273
1.0000273
1.0000275
1.000028
1.0000286
1.0000294
1.0000303
1.0000314
1.0000326
1.000034
1.0000354
1.0000369
1.0000383
1.0000398
1.0000412
1.0000424
1.0000433
1.0000437
1.0000433
1.000042
1.0000396
1.0000364
1.0000325
1.0000286
1.0000248
1.0000218
1.0000203
1.0000205
1.0000225
1.0000257
1.0000293
1.0000327
1.0000347
1.0000351
1.0000335
1.0000305
1.0000264
1.0000233
1.0000214
1.0000213
1.0000225
1.0000252
1.0000273
1.0000301
1.0000298
1.0000303
1.0000295
1.0000297
1.0000285
1.0000442
1.000031
1.0009276
1.0001425
1.000028
1.0000241
1.0000239
1.0000237
1.0000236
1.0000235
1.0000233
1.0000231
1.0000229
1.0000227
1.0000224
1.0000222
1.000022
1.0000217
1.0000215
1.0000213
1.0000211
1.000021
1.000021
1.000021
1.0000211
1.0000213
1.0000216
1.0000219
1.0000224
1.0000229
1.0000235
1.0000242
1.0000249
1.0000257
1.0000265
1.0000272
1.000028
1.0000286
1.0000292
1.0000295
1.0000298
1.0000299
1.0000299
1.0000297
1.0000295
1.0000293
1.000029
1.0000286
1.0000283
1.0000281
1.0000279
1.0000279
1.0000281
1.0000284
1.0000289
1.0000296
1.0000305
1.0000314
1.0000326
1.0000339
1.0000353
1.0000368
1.0000384
1.0000399
1.0000414
1.0000426
1.0000435
1.0000438
1.0000433
1.0000419
1.0000395
1.0000362
1.0000324
1.0000284
1.0000248
1.0000221
1.0000208
1.0000214
1.0000236
1.0000271
1.000031
1.0000347
1.0000369
1.0000373
1.0000352
1.0000314
1.000026
1.0000213
1.000018
1.0000173
1.0000195
1.0000238
1.0000277
1.000032
1.0000321
1.0000333
1.0000322
1.0000316
1.0000284
1.0000301
1.0000162
1.0009275
1.0001424
1.0000279
1.0000239
1.0000237
1.0000236
1.0000235
1.0000233
1.0000231
1.0000229
1.0000226
1.0000224
1.0000221
1.0000218
1.0000216
1.0000213
1.0000211
1.0000209
1.0000207
1.0000205
1.0000205
1.0000205
1.0000206
1.0000208
1.0000211
1.0000215
1.000022
1.0000226
1.0000232
1.0000239
1.0000247
1.0000255
1.0000264
1.0000272
1.000028
1.0000288
1.0000294
1.0000298
1.0000301
1.0000302
1.0000303
1.0000302
1.0000301
1.0000299
1.0000296
1.0000293
1.000029
1.0000288
1.0000286
1.0000286
1.0000287
1.000029
1.0000294
1.00003
1.0000307
1.0000316
1.0000327
1.0000339
1.0000353
1.0000367
1.0000383
1.0000398
1.0000412
1.0000424
1.0000433
1.0000435
1.0000431
1.0000417
1.0000394
1.0000362
1.0000325
1.0000289
1.0000255
1.0000231
1.0000221
1.0000227
1.000025
1.0000284
1.0000323
1.0000359
1.000038
1.0000379
1.0000355
1.0000311
1.0000252
1.0000198
1.0000159
1.0000157
1.0000189
1.0000242
1.0000288
1.0000335
1.0000327
1.0000327
1.0000318
1.000033
1.0000302
1.0000223
1.0000019
1.0009274
1.0001423
1.0000278
1.0000238
1.0000236
1.0000235
1.0000234
1.0000232
1.0000229
1.0000226
1.0000224
1.0000221
1.0000218
1.0000215
1.0000212
1.0000209
1.0000206
1.0000204
1.0000202
1.00002
1.00002
1.00002
1.0000201
1.0000203
1.0000207
1.0000211
1.0000216
1.0000222
1.0000229
1.0000236
1.0000245
1.0000254
1.0000264
1.0000272
1.0000282
1.0000289
1.0000296
1.0000301
1.0000305
1.0000306
1.0000308
1.0000308
1.0000306
1.0000305
1.0000303
1.00003
1.0000298
1.0000295
1.0000294
1.0000293
1.0000294
1.0000297
1.00003
1.0000305
1.0000312
1.000032
1.0000329
1.000034
1.0000352
1.0000366
1.000038
1.0000393
1.0000406
1.0000418
1.0000425
1.0000428
1.0000424
1.0000412
1.0000392
1.0000364
1.0000331
1.0000299
1.0000271
1.000025
1.0000241
1.0000247
1.0000266
1.0000295
1.0000329
1.0000359
1.0000375
1.0000371
1.0000345
1.0000301
1.0000243
1.0000195
1.0000164
1.0000167
1.0000199
1.0000249
1.0000291
1.0000333
1.0000323
1.0000319
1.000031
1.0000304
1.0000272
1.0000086
0.99999555
1.0009273
1.0001422
1.0000277
1.0000238
1.0000236
1.0000234
1.0000232
1.000023
1.0000227
1.0000224
1.0000221
1.0000218
1.0000215
1.0000211
1.0000208
1.0000204
1.0000201
1.0000199
1.0000197
1.0000195
1.0000195
1.0000194
1.0000196
1.0000199
1.0000202
1.0000206
1.0000212
1.0000218
1.0000226
1.0000234
1.0000243
1.0000253
1.0000263
1.0000273
1.0000283
1.0000291
1.0000298
1.0000304
1.0000308
1.0000311
1.0000313
1.0000313
1.0000313
1.0000311
1.0000309
1.0000307
1.0000305
1.0000304
1.0000302
1.0000302
1.0000303
1.0000305
1.0000308
1.0000312
1.0000318
1.0000324
1.0000332
1.0000341
1.0000352
1.0000363
1.0000374
1.0000386
1.0000397
1.0000406
1.0000413
1.0000417
1.0000415
1.0000406
1.000039
1.0000368
1.0000342
1.0000316
1.0000293
1.0000276
1.0000268
1.0000271
1.0000284
1.0000304
1.0000328
1.0000349
1.0000358
1.0000352
1.0000327
1.0000289
1.000024
1.0000206
1.0000187
1.0000193
1.0000219
1.0000258
1.0000287
1.0000322
1.0000327
1.0000337
1.0000328
1.0000285
1.0000241
1.0000219
1.0000098
1.0009272
1.0001422
1.0000277
1.0000237
1.0000234
1.0000233
1.0000231
1.0000228
1.0000225
1.0000222
1.0000218
1.0000215
1.0000211
1.0000207
1.0000203
1.0000199
1.0000196
1.0000194
1.0000192
1.0000189
1.0000189
1.0000188
1.0000191
1.0000193
1.0000196
1.0000201
1.0000208
1.0000215
1.0000223
1.0000231
1.0000241
1.0000252
1.0000262