/*--------------------------------*- C++ -*----------------------------------*\
| =========                 |                                                 |
| \\      /  F ield         | OpenFOAM: The Open Source CFD Toolbox           |
|  \\    /   O peration     | Version:  2406                                  |
|   \\  /    A nd           | Website:  www.openfoam.com                      |
|    \\/     M anipulation  |                                                 |
\*---------------------------------------------------------------------------*/
FoamFile
{
    version     2.0;
    format      ascii;
    arch        "LSB;label=32;scalar=64";
    class       volScalarField;
    location    "10";
    object      T;
}
// * * * * * * * * * * * * * * * * * * * * * * * * * * * * * * * * * * * * * //

dimensions      [0 0 0 1 0 0 0];

internalField   nonuniform List<scalar> 
20580
(
0.99978866
1.0007254
0.99901813
1.0004959
0.99843501
0.9989054
0.99801038
0.99747731
0.99781967
0.99731931
0.99766969
0.99730755
0.99755926
0.99769125
0.99792398
0.99835489
0.99874096
0.99889046
0.99964092
0.99967555
0.99924913
0.99995324
1.0000968
1.000465
0.99961689
1.0004126
1.0009857
1.000821
1.0014016
0.9999322
1.0004315
0.999832
1.000665
0.99884844
1.0006115
0.99825338
0.99896971
0.99805538
0.99746146
0.99776552
0.99730788
0.997721
0.99725257
0.99746979
0.99758795
0.99781606
0.99835234
0.99860328
0.99876217
0.99977958
0.99934384
0.99935729
1.0005721
0.99992578
1.0001342
0.99989266
1.0008783
1.0015702
1.0006658
1.0009768
0.99919315
0.99980764
1.0002631
1.0004896
0.99910249
1.0001784
0.99843421
0.99886151
0.99798768
0.99765151
0.99750039
0.99738366
0.9976105
0.99728618
0.9974038
0.99752092
0.99772757
0.99831494
0.99862218
0.998779
0.99982941
0.99912261
0.99931253
1.0008656
1.0001459
1.0000252
0.99982969
1.001145
1.0017266
1.0002824
1.0004046
0.99971083
0.99932682
1.0008469
1.0003106
0.99962424
0.99939781
0.99890203
0.99862356
0.99793594
0.99793242
0.99729907
0.99752565
0.99739492
0.99738299
0.99736825
0.99743986
0.99766639
0.99817211
0.99848741
0.99880119
0.99970671
0.99917344
0.99955752
1.0010078
1.0003235
1.0001715
0.99978123
1.001172
1.0016378
1.0000909
0.99962055
1.0011082
1.0009348
1.0012897
1.000015
1.0002688
0.99860136
0.9994787
0.99835462
0.99796668
0.99802635
0.99727766
0.99764054
0.99720884
0.9974732
0.99735041
0.99731555
0.99762572
0.99797064
0.99825266
0.99878439
0.99944669
0.99923143
0.99978112
1.0009524
1.0000704
1.0004322
1.0002714
1.0009836
1.0009501
1.0001531
0.99859411
1.0011102
1.0022671
1.0014206
0.99969676
1.0006358
0.998204
0.99979673
0.99810477
0.9980937
0.99785101
0.99743631
0.9975895
0.99711221
0.99748464
0.99729359
0.99721328
0.99761629
0.99779272
0.99801006
0.99867797
0.9991242
0.99921266
0.99981597
1.0008625
0.99960822
1.0005028
1.0007985
1.0006821
0.99994922
1.0005005
0.99885361
1.0002781
1.0014775
1.0012501
0.99970795
1.0005986
0.99851318
0.99977854
0.99809927
0.9982761
0.99756249
0.99766718
0.99739666
0.99711064
0.99737852
0.997224
0.9972286
0.99762597
0.99771678
0.99799633
0.99891012
0.9988778
0.99932513
1.0000252
1.000931
0.99928594
1.000341
1.0012721
1.0006789
0.99951648
1.0004667
1.0004984
1.000554
1.0006515
1.0008592
1.0000618
1.0001396
0.99928908
0.99947459
0.99830094
0.99836527
0.99738488
0.99772397
0.99719627
0.99722354
0.99721887
0.99716084
0.99725988
0.99758833
0.99773299
0.99808752
0.99913169
0.99859969
0.99943857
1.0000178
1.0006902
0.99946285
1.0003678
1.0016809
1.0007863
0.99993705
1.0002013
1.0017029
1.0014831
1.0006956
1.0003216
1.0005641
0.99952256
1.0001195
0.99897242
0.99865307
0.99823587
0.99742382
0.99757311
0.99707473
0.99736599
0.99709583
0.99706066
0.99718157
0.99744726
0.99766457
0.99800785
0.99911321
0.9985241
0.99957582
1.0001742
1.0003218
0.99986665
1.0003449
1.0017877
1.0007468
1.0007112
1.0006485
1.0021629
1.0016247
1.0001972
0.99985112
1.0007784
0.99915761
1.0006349
0.99846462
0.99896677
0.99797454
0.99768943
0.99738317
0.99709134
0.99742112
0.99708886
0.99696177
0.99707058
0.99732264
0.99754662
0.99782013
0.99874028
0.99836464
0.99965136
1.000262
0.99995676
1.0005581
1.0004674
1.0016048
1.0007297
1.0009584
1.0011394
1.0021833
1.0015096
1.0000332
0.99974187
1.000778
0.99903255
1.0004382
0.9982724
0.99907723
0.99771818
0.99800922
0.99723117
0.99726222
0.99739025
0.99717005
0.99698033
0.9970784
0.99723719
0.9974305
0.99768724
0.99828641
0.99833657
0.99979351
1.0003038
0.99963368
1.0011293
1.0009555
1.0010465
1.0008896
1.0009875
1.0012185
1.0018296
1.0012807
1.0006271
1.000107
1.0006322
0.99922171
0.99974327
0.9985148
0.99891181
0.99767644
0.99813038
0.99722695
0.99745412
0.99735757
0.99723505
0.9970975
0.99720866
0.99714538
0.99732546
0.99772053
0.99801454
0.99851431
0.99977334
1.0001846
0.99928556
1.0012157
1.0015574
1.0005023
1.000974
1.0012615
1.0014082
1.0010824
1.0004597
1.000838
1.0007319
1.0004123
0.99971428
0.99900857
0.99909632
0.99862632
0.99785605
0.99791198
0.99736925
0.99750372
0.99728407
0.99717604
0.99717004
0.99727791
0.9969894
0.99726124
0.99795351
0.99800341
0.99859776
0.99959762
1.0000016
0.99909277
1.0010304
1.0020646
1.0002696
1.0007315
1.0014991
1.0018227
1.0005704
0.99960512
1.0002699
1.0012447
1.0000588
1.0004099
0.99866434
0.99975173
0.99831627
0.99817644
0.99755409
0.99749901
0.99736962
0.99712032
0.99701379
0.99713823
0.99715787
0.99680773
0.99720842
0.99813257
0.99794223
0.99868833
0.99942509
1.0000351
0.99918118
1.0006112
1.0022459
1.000512
1.0003325
1.0016272
1.0023375
1.0008315
0.99962436
0.99980371
1.0014966
0.99972146
1.0006686
0.99867267
1.0000704
0.99811509
0.99847392
0.99733597
0.997558
0.99719853
0.99701782
0.99695997
0.9970413
0.99695339
0.99671976
0.99713494
0.99804311
0.99759096
0.99864596
0.9990908
1.0000465
0.99967443
1.0003316
1.0017505
1.0009662
1.0002896
1.0014908
1.0023569
1.0012636
1.0004045
1.0005001
1.0013885
0.99975128
1.0005448
0.9991426
0.99988003
0.99813184
0.99848737
0.99731594
0.99751142
0.99713149
0.99699842
0.99703791
0.99695327
0.99682801
0.9968417
0.99709826
0.99772404
0.99720236
0.99856692
0.99874263
0.99980779
1.0003467
1.0004839
1.0007043
1.001285
1.0008918
1.0012488
1.0016827
1.0012902
1.0013545
1.0017171
1.0009088
1.000202
1.0002274
0.99987915
0.99934759
0.99846939
0.99823924
0.99755652
0.99735841
0.99714337
0.99709052
0.99715611
0.9969296
0.99681071
0.99703418
0.99709141
0.99740902
0.99716954
0.99880196
0.9985966
0.99917974
1.0005654
1.0008614
0.99984651
1.0011198
1.0018491
1.0015543
1.0010148
1.0009426
1.0019319
1.0021465
1.0001526
1.0006786
0.99968657
1.0004073
0.99883968
0.99895981
0.99791483
0.9978853
0.99726497
0.99722525
0.99727453
0.99721006
0.99699115
0.99684999
0.99711159
0.99707503
0.99726996
0.99745386
0.99912144
0.99861707
0.99850359
1.0005226
1.001224
0.99958347
1.0005463
1.0023808
1.0023097
1.0008173
1.0005402
1.0019209
1.0020256
0.99968901
1.0007915
0.99912858
1.0002169
0.99846588
0.99920631
0.99770182
0.99805054
0.99734206
0.99728686
0.99738591
0.99711822
0.99707527
0.99687635
0.99702489
0.99708016
0.99722945
0.99768571
0.9989855
0.99872092
0.99824145
1.0004579
1.0012696
0.99995299
1.0001654
1.0023624
1.002742
1.0008352
1.000318
1.0014539
1.0019263
0.99970595
1.0008119
0.99904242
0.9998006
0.99845933
0.99910905
0.99761089
0.99794739
0.99742174
0.99724808
0.99731879
0.99696237
0.99708144
0.9968646
0.99686292
0.9970895
0.99716118
0.99765737
0.99823174
0.99867281
0.9984266
1.000247
1.0008938
1.0005617
1.0004207
1.002065
1.0024131
1.001041
1.0006176
1.0011408
1.0014894
1.000249
1.0006271
0.99949588
0.9995752
0.99903165
0.99891096
0.99792433
0.99775136
0.99746198
0.9972436
0.99721533
0.9969315
0.99703545
0.99685064
0.99678915
0.99706145
0.99700606
0.99758088
0.99760633
0.99840485
0.99891938
0.99992229
1.0002352
1.000787
1.0010098
1.001758
1.001642
1.0014884
1.0015221
1.0013721
1.0010241
1.0010171
1.0001906
1.0001692
0.9993931
0.99975337
0.9985479
0.99832235
0.99761652
0.99743505
0.99725758
0.9970747
0.99701606
0.9968996
0.99692252
0.99678407
0.99693717
0.99684189
0.99776606
0.9974078
0.99832678
0.99956426
0.99937365
0.99970955
1.0007484
1.001464
1.0012341
1.0004924
1.001454
1.0024289
1.0021225
1.0012043
1.0015402
0.99953344
1.0008402
0.99800359
1.0002864
0.99779419
0.99718097
0.99828674
0.99798205
0.99679061
0.99669172
0.99710298
0.99677256
0.99668113
0.9968429
0.99675979
0.99662374
0.9981732
0.99742844
0.99802683
0.99991534
0.99892809
0.99923354
1.0003817
1.0019118
1.0011757
0.99959492
1.0007672
1.0024988
1.0026089
1.0016056
1.0002438
1.0006912
1.0014171
1.0014783
1.0009819
1.0009356
1.0016514
1.002047
1.0013631
1.0010247
1.0017026
1.0013844
0.99936941
0.99824521
0.99939144
1.0003815
1.0004306
1.0012935
1.0020101
1.0007099
1.0000721
1.0006964
0.99981326
1.0011627
1.0015704
1.0011456
1.000063
0.99905342
0.99912321
1.0001033
1.0007609
1.0006061
1.0010584
1.0020842
1.0015735
1.0001081
0.99994714
1.0009294
1.0012924
1.0001548
0.999058
0.99870512
0.99814425
0.99932297
1.0010351
1.0013222
1.0017753
1.001256
1.0004746
0.99994528
1.0000845
1.0005452
1.0007801
1.0001631
0.99923492
0.99900221
0.99927214
0.9994204
1.0002989
1.0016438
1.0021469
1.0011822
1.0000238
0.99978679
0.99950946
0.99851507
0.998575
0.99939236
1.0000839
0.99930741
0.99961647
1.0002737
1.0010476
1.0014451
1.0011597
1.0005612
1.0000966
0.99969335
0.99908109
0.99851214
0.99873682
0.99965347
1.0003792
1.0000009
0.9989137
0.99891074
1.0003085
1.0012582
1.0008506
1.0004564
1.0004621
0.99968058
0.99833078
0.99927099
1.0001868
1.0004524
0.99990271
0.9990171
0.99878759
0.99938221
1.0000056
1.000143
1.0002365
1.0004709
1.0003972
0.99950321
0.99799295
0.9969358
0.99757273
0.99927046
1.0001359
1.0003015
1.0010256
1.0016428
1.0009455
0.99996148
1.0001584
0.99986403
0.99894863
0.99800756
0.99765661
0.99805894
0.9988098
0.99940735
0.99974822
1.0000663
1.0003654
1.0002493
0.99942474
0.99825137
0.99784502
0.99860213
0.99930934
0.99894908
0.99836868
0.99854645
0.99918151
0.99943304
0.99959501
0.99922537
0.99873913
0.99847069
0.99866461
0.99912512
0.99943614
0.99929861
0.99876764
0.99819251
0.99792544
0.99805238
0.99832834
0.99842884
0.99879062
0.99951056
1.0001389
1.0002154
0.99943692
0.99826179
0.99732153
0.99683185
0.9966499
0.99710221
0.99732902
0.99792607
0.99880157
0.99962826
1.0001012
0.99998578
0.99931725
0.99837899
0.99751406
0.99690033
0.99673348
0.99701633
0.99770514
0.99866841
0.9993699
0.99960925
0.99957052
0.99918601
0.9985846
0.99805027
0.99757331
0.99721588
0.99702669
0.9973714
0.99796943
0.99848113
0.99871016
0.99856715
0.99819748
0.99781595
0.99759887
0.9976045
0.99769195
0.99793707
0.99829316
0.99852979
0.9984361
0.99810654
0.99782878
0.99764313
0.99751396
0.99754896
0.99787554
0.99842058
0.99894183
0.99880665
0.99866602
0.99831803
0.99774865
0.99700921
0.99628039
0.99586872
0.99596953
0.99653444
0.99738023
0.99834556
0.9991256
0.99943485
0.99916427
0.99845341
0.99760926
0.99684662
0.9961536
0.99590158
0.99623892
0.99709029
0.99803808
0.99895248
0.99902234
0.99864849
0.99803692
0.99729359
0.99645976
0.99575998
0.9954597
0.99561027
0.99615488
0.99702756
0.9979193
0.99853937
0.9986942
0.99846459
0.99789181
0.99711134
0.99643988
0.99600463
0.99610378
0.9965479
0.99706638
0.99742044
0.99788387
0.99721401
0.99701547
0.99698572
0.99700262
0.997027
0.9969884
0.99694874
0.99692131
0.99695753
0.99704663
0.99707249
0.99700128
0.99685657
0.99672514
0.99654196
0.99630093
0.99613734
0.99630507
0.99691156
0.99761345
0.99799211
0.99780795
0.99736672
0.99537621
0.99540595
0.99587714
0.99649823
0.99713132
0.99759466
0.99787614
0.99797555
0.99778509
0.99731416
0.99662926
0.99591352
0.9954606
0.99532971
0.99538104
0.99558434
0.99589405
0.99644293
0.99720657
0.99789952
0.99818834
0.99793999
0.99725909
0.9948536
0.99493168
0.99546168
0.99611328
0.99669756
0.99715102
0.99748497
0.99766759
0.99757521
0.9971152
0.99642945
0.99565022
0.99509981
0.99493153
0.99504952
0.99532013
0.9957164
0.99624389
0.99692027
0.99753554
0.99779475
0.99766232
0.9969784
0.99569751
0.99548173
0.99560985
0.99585026
0.99608335
0.99628102
0.99643406
0.99651519
0.99645477
0.99625071
0.99591513
0.9955731
0.99528917
0.9952972
0.99540878
0.9956082
0.99582571
0.99610225
0.99649916
0.99701093
0.99728919
0.99711423
0.99651747
0.9963549
0.99599448
0.99588405
0.99583515
0.99570993
0.99548739
0.99530093
0.99517072
0.99512674
0.99513359
0.99521462
0.99534233
0.99550195
0.99573842
0.99595085
0.99612166
0.99613462
0.99608748
0.99614461
0.99631879
0.99641097
0.99628327
0.99589409
0.99662796
0.99625709
0.99603184
0.99582524
0.99550152
0.99500777
0.99447999
0.99412036
0.99403053
0.99420839
0.99466675
0.99517055
0.99572929
0.99623567
0.99660917
0.99673129
0.9964787
0.9960081
0.99557087
0.99528441
0.99516964
0.99501989
0.99493045
0.99651397
0.9961724
0.99593012
0.99566384
0.99516182
0.99453634
0.99398151
0.99366848
0.99367946
0.9940091
0.9945517
0.99517297
0.99587913
0.99652168
0.99693743
0.99701049
0.99669119
0.99604032
0.99531169
0.99470951
0.99426535
0.99399608
0.99396821
0.99642881
0.99602005
0.99568153
0.99521961
0.99457639
0.99386027
0.99341191
0.9934026
0.9937127
0.99418835
0.99474854
0.99527972
0.99581979
0.9963526
0.99671381
0.99683165
0.99659288
0.995968
0.99512932
0.99433709
0.99376683
0.99359527
0.99381407
0.99666098
0.99619105
0.99568836
0.99508042
0.99422416
0.99339068
0.99289889
0.99287209
0.99330751
0.99401507
0.99476242
0.99537867
0.9958425
0.99618195
0.99638154
0.99640296
0.99613755
0.99551977
0.99466624
0.99381689
0.99335735
0.9935628
0.99429809
0.99627723
0.99591496
0.99562345
0.9952228
0.99452938
0.99372586
0.99306587
0.99276158
0.99285783
0.9932871
0.99395939
0.99472998
0.99542577
0.99592474
0.99619832
0.99629973
0.99599772
0.99525675
0.99421241
0.99329335
0.99294914
0.99346606
0.99455653
0.99523175
0.99511064
0.99519768
0.99521428
0.9948822
0.99420017
0.99340977
0.99275537
0.99244355
0.99261631
0.99322472
0.99415625
0.99526555
0.99629266
0.99691145
0.99697379
0.99627616
0.99507631
0.99381452
0.99287137
0.99260731
0.99321033
0.99436563
0.99518678
0.99504643
0.99514117
0.99512801
0.99461431
0.99364982
0.9926701
0.99208991
0.99210441
0.99267022
0.99356433
0.99477365
0.99614201
0.99721845
0.99754223
0.99696148
0.99571379
0.99418609
0.99293582
0.9924185
0.99280023
0.9937438
0.99477211
0.99563984
0.99529922
0.99512089
0.99475144
0.99397834
0.99300993
0.99224656
0.99191612
0.99209629
0.99272661
0.9937551
0.99502741
0.99627965
0.99700059
0.99685031
0.99584797
0.99446527
0.99329443
0.9928158
0.99316103
0.99381227
0.99433069
0.99482057
0.99489707
0.99474561
0.99474911
0.99466316
0.99414033
0.99342843
0.99278653
0.99234422
0.99222772
0.99245082
0.99309775
0.99419332
0.99541732
0.99622094
0.99621604
0.995328
0.99419863
0.99348887
0.9934263
0.99364147
0.99375347
0.99386119
0.99437211
0.99413696
0.99389499
0.99393175
0.99409688
0.99398883
0.99373928
0.99338742
0.99294882
0.99260576
0.99260272
0.99313069
0.99392907
0.99476977
0.99539945
0.99551032
0.99509129
0.99450655
0.99401624
0.99349152
0.99300352
0.99302562
0.99360692
0.99474412
0.99380506
0.9935436
0.99336969
0.9931371
0.99293534
0.99315165
0.99362914
0.99403961
0.99422069
0.99404756
0.99362613
0.99343208
0.99351996
0.99384552
0.99422031
0.99462144
0.99474142
0.99438167
0.99388378
0.99340352
0.99331757
0.99368918
0.99466151
0.99379669
0.99333471
0.99295791
0.99272702
0.99258268
0.99296343
0.99393325
0.99501661
0.99535143
0.99459793
0.99336683
0.99214353
0.9916253
0.99201028
0.99313332
0.99464186
0.99569542
0.99578402
0.99472321
0.99354992
0.99303492
0.99324061
0.99367661
0.99324499
0.993029
0.99286648
0.99261339
0.99261906
0.99332964
0.99440013
0.99513867
0.99500345
0.99391742
0.99251623
0.99139722
0.9909838
0.99160633
0.99299603
0.99453162
0.99538297
0.99550466
0.99508272
0.99461882
0.99376301
0.99244638
0.99121352
0.9925375
0.99258402
0.99296825
0.99334101
0.99345279
0.99354898
0.9937622
0.99399517
0.99381657
0.99341217
0.99310909
0.99247541
0.99142627
0.99097929
0.99182873
0.99347453
0.99489721
0.99563143
0.99585254
0.99499829
0.99309787
0.9912553
0.99082861
0.99402343
0.99320923
0.99307797
0.99305889
0.99296714
0.99283646
0.99274333
0.99297837
0.99361816
0.99403381
0.99374398
0.99268817
0.99155898
0.99106302
0.99165968
0.99316693
0.99457882
0.99472073
0.99374699
0.99287315
0.99282428
0.99297935
0.99306595
0.99588031
0.99440966
0.99280296
0.99159566
0.99118275
0.99165885
0.99249321
0.99282733
0.99243529
0.99254264
0.99335329
0.99342348
0.99283686
0.99267599
0.992604
0.99237351
0.99223437
0.9925333
0.9926721
0.99289768
0.99339126
0.99333081
0.99279136
0.99414851
0.99423729
0.99362861
0.99221089
0.99090712
0.9906958
0.99140555
0.99211587
0.9924379
0.99257557
0.99309555
0.99381597
0.99377045
0.99285671
0.99180248
0.99080818
0.99032691
0.9912062
0.99270229
0.99341698
0.99318556
0.99241771
0.99201872
0.9921021
0.99223933
0.99295788
0.99305779
0.99243436
0.99189105
0.99172583
0.99185794
0.99254214
0.99350256
0.99364043
0.99320702
0.99262256
0.99226377
0.99220032
0.99130358
0.99015261
0.99026724
0.99139474
0.99213382
0.9926486
0.99188844
0.99085604
0.9922991
0.99201919
0.99245777
0.99296863
0.99356561
0.9941345
0.99379619
0.99262242
0.99182328
0.99175255
0.99181654
0.99165125
0.9908728
0.99103247
0.99294453
0.99359091
0.99176919
0.9894618
0.9886542
0.98891111
0.98944051
0.98930867
0.98948492
0.9936383
0.99284146
0.99264667
0.99242702
0.99232278
0.99323006
0.99405414
0.99339643
0.9916812
0.99023315
0.99008953
0.99126076
0.99224829
0.99208467
0.99247061
0.99324686
0.99259172
0.9905669
0.98848116
0.98695674
0.98617815
0.986297
0.98836957
0.99469611
0.99362432
0.99274294
0.99209343
0.99125539
0.9910179
0.99185742
0.99305994
0.99322771
0.99188502
0.99053171
0.99052134
0.99176171
0.99290909
0.99353354
0.99357148
0.99229534
0.99024291
0.9885145
0.98773631
0.98696762
0.98641975
0.98720863
0.99388634
0.99360302
0.99240052
0.99164712
0.99143393
0.99122366
0.99092327
0.991292
0.99264292
0.9939652
0.99387306
0.99282901
0.99213875
0.9919216
0.99162721
0.99158481
0.99127142
0.99031006
0.98951649
0.98972932
0.99012611
0.98959809
0.98959677
0.99163952
0.99249531
0.9924985
0.9919783
0.99172154
0.99217351
0.9927879
0.99279393
0.99239359
0.99282434
0.99355148
0.99384195
0.99370374
0.99295644
0.99130659
0.98954959
0.98857219
0.9888794
0.99012961
0.99167089
0.99257166
0.99178522
0.99081551
0.99141905
0.99223736
0.99309007
0.99339318
0.99308218
0.99299743
0.9933768
0.99379723
0.99321408
0.99208264
0.99147133
0.99129489
0.99108026
0.9912705
0.99176933
0.99181959
0.99139753
0.99114494
0.99174495
0.99241384
0.99233229
0.9909984
0.98906802
0.99306532
0.99313751
0.99319456
0.99309514
0.992644
0.99233861
0.99228301
0.99252275
0.99227345
0.99107079
0.99004402
0.99021276
0.99073123
0.99119023
0.99226216
0.99383648
0.99468165
0.99430775
0.99346861
0.99267143
0.99175522
0.99079001
0.98861093
0.99277441
0.99297467
0.99309136
0.99261129
0.99164595
0.99060426
0.98998771
0.9902436
0.99115412
0.99182663
0.99209045
0.99262497
0.99353247
0.99390829
0.99358709
0.99336268
0.99366448
0.99334869
0.99241702
0.99198478
0.99095784
0.99050231
0.98917436
0.99156387
0.99184848
0.99181463
0.99159123
0.99126117
0.99103005
0.99098709
0.99131733
0.99254424
0.99389274
0.99442283
0.99448941
0.99437658
0.99418606
0.99336948
0.99183005
0.99109313
0.99091929
0.99038938
0.99028952
0.99006677
0.99056161
0.99076341
0.99031635
0.99118749
0.99216372
0.99305572
0.99332965
0.99335689
0.99354747
0.9932754
0.99306473
0.99325764
0.99301433
0.99225339
0.99141874
0.99091167
0.99093345
0.99056144
0.99044702
0.99111995
0.99188571
0.99246568
0.99280999
0.99353625
0.99261238
0.9931105
0.99299798
0.99303217
0.99305301
0.99271841
0.99243574
0.99227596
0.99186615
0.99150065
0.99123606
0.99102781
0.99078876
0.99043787
0.9902827
0.99090717
0.99154964
0.99208472
0.99297643
0.99398165
0.99473938
0.99445869
0.9940244
0.99287741
0.99356293
0.99359846
0.99288663
0.99194903
0.99071704
0.98974762
0.98946121
0.98974785
0.99030665
0.99092771
0.99158064
0.99268496
0.99326888
0.99337984
0.99372292
0.99372441
0.99364923
0.99354842
0.99351381
0.99356924
0.99232763
0.99131715
0.99133763
0.99026409
0.99125714
0.99198126
0.99221332
0.99201891
0.9917515
0.9916838
0.99192504
0.9925376
0.99303365
0.9930393
0.99294402
0.99285813
0.99266004
0.99260874
0.99262905
0.9931143
0.99290648
0.99224504
0.99160286
0.99065594
0.99050641
0.99083994
0.99153011
0.99204875
0.99264188
0.99296895
0.99279374
0.99254054
0.99251656
0.99274462
0.99338842
0.99366768
0.99316249
0.9921086
0.99119202
0.99064967
0.99055056
0.99042623
0.99097867
0.9913814
0.99123932
0.99112966
0.99170886
0.99258538
0.99296138
0.9931458
0.99341056
0.99345388
0.99307494
0.99233779
0.9914586
0.99079389
0.99050521
0.99073959
0.99112845
0.99128888
0.99121463
0.99133086
0.99137725
0.99193969
0.99228037
0.99226783
0.99271734
0.99286745
0.99296595
0.99336537
0.99358433
0.99402791
0.99145723
0.99181418
0.99228768
0.99254006
0.99236431
0.99191874
0.99154031
0.99120134
0.99098501
0.9911575
0.99150739
0.99189042
0.99229735
0.99269723
0.99325713
0.99394641
0.99387622
0.99390394
0.99366928
0.99354271
0.99311413
0.99293051
0.99307402
0.99256426
0.99255313
0.99239878
0.99236582
0.99237257
0.99220875
0.99226949
0.99270964
0.99306616
0.99329202
0.99353913
0.99373029
0.99356822
0.99309018
0.99274764
0.99287344
0.99245489
0.99200118
0.99172851
0.99194171
0.99183611
0.9922576
0.99208275
0.99364012
0.99390743
0.99364161
0.99301351
0.99224443
0.99186825
0.99165908
0.99176268
0.99224852
0.99258969
0.99264701
0.99267608
0.99246028
0.9919736
0.99167893
0.99166508
0.99166969
0.99148808
0.99201629
0.99276198
0.9934591
0.99403699
0.99397228
0.99201471
0.99252081
0.99293691
0.99297014
0.99255063
0.99213557
0.99218327
0.99213513
0.99216333
0.99248263
0.99234833
0.99215371
0.99232243
0.99240916
0.99272878
0.99312778
0.99365978
0.99383289
0.99420222
0.99447868
0.99462387
0.99449605
0.99439792
0.99288949
0.99286745
0.99294544
0.9930778
0.99291699
0.99260899
0.99271569
0.99312302
0.99325113
0.99339822
0.99344035
0.99313896
0.99319097
0.99330758
0.99335038
0.99348803
0.9937837
0.99408887
0.99383179
0.99365126
0.99334364
0.99306662
0.9929069
0.99415545
0.99406701
0.99379642
0.99350949
0.99314702
0.99264164
0.99225947
0.99233147
0.99253761
0.99263965
0.9930796
0.99334632
0.99347258
0.99384897
0.99381921
0.99372712
0.99358279
0.99389108
0.99380471
0.99386022
0.99409026
0.99458019
0.99451215
0.99330863
0.99353776
0.99352331
0.9934289
0.99336144
0.99327371
0.99309482
0.99305032
0.99334138
0.99345042
0.99361064
0.99389946
0.99378767
0.99393382
0.99410653
0.994131
0.99396057
0.99389067
0.99405816
0.99404679
0.99417499
0.99462395
0.99466683
0.99393657
0.99412136
0.99409583
0.99384233
0.99355907
0.99344429
0.99350348
0.99356498
0.99379196
0.99399885
0.99391636
0.99400409
0.99388367
0.99367976
0.99379103
0.9939985
0.99430901
0.99453906
0.99502943
0.99543973
0.99543719
0.99546873
0.99545366
0.99403657
0.99418974
0.99432071
0.99424994
0.99402542
0.99370238
0.99369483
0.9938894
0.99397611
0.99422749
0.99441774
0.99461204
0.99488715
0.99481174
0.99480194
0.99492558
0.99519027
0.99534184
0.99536437
0.99552264
0.99549775
0.99539682
0.99526553
0.99473354
0.99472375
0.9946441
0.99451666
0.99445067
0.9943548
0.99429555
0.99447005
0.99463027
0.99472984
0.9947473
0.99456458
0.99458804
0.99464038
0.99466682
0.99489778
0.9952538
0.99551739
0.99548825
0.99542229
0.9955311
0.9955369
0.99547305
0.99486127
0.9949749
0.99493537
0.99469302
0.9944546
0.99438541
0.99445896
0.99463087
0.99479253
0.99496702
0.9951518
0.99500638
0.9948771
0.99507391
0.99530709
0.99549973
0.99571765
0.99598549
0.99606496
0.99595378
0.99600455
0.9962007
0.99627721
0.99468649
0.99500835
0.99531355
0.99533206
0.99515439
0.99496928
0.99493051
0.99503702
0.99513457
0.99515141
0.99533125
0.99553339
0.99558794
0.99571197
0.99586266
0.99592337
0.99590341
0.99588088
0.99602398
0.99613432
0.9962367
0.99652373
0.99670715
0.99519154
0.99532734
0.99558329
0.9956306
0.99550439
0.99541529
0.9953671
0.99532286
0.99539438
0.99544693
0.99536803
0.99548162
0.99569632
0.99578183
0.99587699
0.99597911
0.99614182
0.99625788
0.99643176
0.99665249
0.99669264
0.99677455
0.99684825
0.99579134
0.99572918
0.99568047
0.99558418
0.99544885
0.99538391
0.99541084
0.99549673
0.99565155
0.99580194
0.99587665
0.99588049
0.9959151
0.99598004
0.99607378
0.99620392
0.99631766
0.99648305
0.99662461
0.99677304
0.99676744
0.99679773
0.9969345
0.99577938
0.99584748
0.99588679
0.99589264
0.99585601
0.99582996
0.99584431
0.99587194
0.99590574
0.99600405
0.99611069
0.99613688
0.99609723
0.9960892
0.99618808
0.99634838
0.9964558
0.99657126
0.99662163
0.9967635
0.99679692
0.99683161
0.99689057
0.9959485
0.99607238
0.99623188
0.99625331
0.99620718
0.99620651
0.99619775
0.99615629
0.99612561
0.9961142
0.99608712
0.99612927
0.99617665
0.99620163
0.99625505
0.99644039
0.99663725
0.9968018
0.99687558
0.99697107
0.99709909
0.9972102
0.99724739
0.99622329
0.9962485
0.99636005
0.99647434
0.99646032
0.99638718
0.99636388
0.99636763
0.99635697
0.99639301
0.99641013
0.99642897
0.99648934
0.99649151
0.99652453
0.9966701
0.99669042
0.99670317
0.99672442
0.99678754
0.9969076
0.99706103
0.99709717
0.99636971
0.99648298
0.99660391
0.99672236
0.9968062
0.99675199
0.99657834
0.99652007
0.99655137
0.99648907
0.9963877
0.99637928
0.9964724
0.99654661
0.99659551
0.99671038
0.99675392
0.99669916
0.99672046
0.99677409
0.99689377
0.99701521
0.99711772
0.99663355
0.99676764
0.9968321
0.99681946
0.99685174
0.99686555
0.99676238
0.99664829
0.99668332
0.99678422
0.99679037
0.99680394
0.99688206
0.99688746
0.99672939
0.99660803
0.99655948
0.99664637
0.99680639
0.99696759
0.99717304
0.99728012
0.99716269
0.99701382
0.99709616
0.99715223
0.99706494
0.99701071
0.99709489
0.99720917
0.99722908
0.99713223
0.9969965
0.99691326
0.99679708
0.99676712
0.99680971
0.99687369
0.99690716
0.99691995
0.99693736
0.99702101
0.99712935
0.99711186
0.99709789
0.99698001
0.99734849
0.9974071
0.99747477
0.99748409
0.99740696
0.99730132
0.99727743
0.9973487
0.99740039
0.99733189
0.99720576
0.99715479
0.99715791
0.99720088
0.9971435
0.99708423
0.99704073
0.99700911
0.99701401
0.99702133
0.99707465
0.99715631
0.99721023
0.99773917
0.99774503
0.99772742
0.99773804
0.99779723
0.99785776
0.99787779
0.99782677
0.99772772
0.99763208
0.99755032
0.99745936
0.99745717
0.9974755
0.99746049
0.997377
0.99736
0.99733362
0.9973742
0.99741608
0.99751487
0.99754431
0.99738003
0.99817373
0.99819047
0.99815224
0.99815376
0.99817052
0.99818442
0.99822468
0.99826937
0.99823785
0.99818395
0.99811896
0.99807009
0.99801126
0.997879
0.99780033
0.99778265
0.99778525
0.9978112
0.9977992
0.99782054
0.9977593
0.99767229
0.99784346
0.99854285
0.99866369
0.99874692
0.99882765
0.99887416
0.99882236
0.99864544
0.9984978
0.99846954
0.99853898
0.998623
0.99866124
0.99863092
0.99853634
0.99840524
0.99832104
0.9983754
0.9984334
0.99837298
0.99826041
0.99814681
0.99813731
0.9982427
0.99900208
0.9991051
0.99921944
0.99929964
0.99933752
0.99934762
0.99927578
0.9991438
0.99903678
0.99901918
0.99907283
0.9991405
0.99916544
0.99913011
0.99905458
0.9989277
0.99882249
0.99875376
0.99873819
0.99880067
0.99892549
0.99900116
0.99863537
0.99968814
0.99968864
0.99969467
0.99967039
0.99963109
0.99962158
0.99962778
0.99964232
0.99972212
0.99978528
0.99976058
0.99967809
0.99962647
0.99963334
0.99962102
0.99949606
0.99942199
0.99942614
0.99953774
0.9995601
0.99949397
0.99939295
0.9993248
1.0002603
1.0001862
1.0000975
1.0000646
1.0000735
1.00014
1.0002364
1.0002735
1.0002463
1.0002201
1.000128
0.99997594
0.99985705
0.99982869
0.99997321
1.0001872
1.0002415
1.0001888
1.0001095
1.0000224
0.99978592
0.99959574
0.9994663
1.0006262
1.0006545
1.0006212
1.000526
1.0004433
1.0004365
1.0004819
1.0005336
1.0005356
1.0005088
1.0005136
1.0005509
1.0005701
1.0005516
1.0005471
1.0005749
1.0005317
1.0003843
1.0001796
1.0001431
1.0001822
1.0001523
1.0002417
1.0008507
1.000884
1.0009432
1.0009857
1.0009591
1.0008923
1.0008555
1.0008818
1.0009192
1.0008941
1.0008502
1.0008271
1.0008344
1.0008484
1.0007699
1.000638
1.0006272
1.0007241
1.000742
1.0007059
1.0007557
1.0007898
1.0008234
1.0010804
1.0011607
1.0013106
1.0014535
1.0015312
1.0015182
1.0014034
1.0011855
1.0010251
1.0009896
1.0010375
1.0011283
1.0011713
1.0011448
1.0011685
1.0011517
1.0010495
1.0010046
1.0010741
1.0011421
1.001075
1.0008888
1.000685
1.0019174
1.0017795
1.0016998
1.001616
1.0015855
1.0016203
1.0016416
1.0015903
1.0014992
1.0013898
1.0013763
1.0014589
1.0015144
1.0014784
1.001397
1.0013584
1.0013451
1.0012494
1.0011693
1.0010937
1.0010679
1.0009843
1.0004548
1.0022988
1.0021796
1.0020691
1.0019075
1.0017983
1.001809
1.0018557
1.0019285
1.0020098
1.0019889
1.0018336
1.0017042
1.0015945
1.0015452
1.0015035
1.0014881
1.0015213
1.001513
1.001432
1.0012643
1.0012092
1.0012068
1.0026158
1.0024703
1.0025512
1.0025674
1.0024773
1.0023839
1.0023349
1.0022274
1.0021342
1.0021586
1.0022041
1.0021682
1.0020997
1.0019218
1.0017697
1.0017393
1.0017027
1.0016883
1.00164
1.0016425
1.001698
1.0016786
1.0016108
1.0004615
1.0027717
1.0028012
1.0028575
1.0029051
1.0028809
1.0028325
1.0027523
1.0026119
1.0024902
1.0024079
1.0023211
1.0022772
1.002261
1.0021654
1.0020771
1.0020029
1.0019654
1.0019487
1.0019491
1.0019807
1.0019327
1.0018746
1.0009256
1.0031238
1.0030884
1.0030594
1.0030524
1.003075
1.0030954
1.003101
1.0030324
1.0028889
1.0027211
1.0025785
1.0024959
1.0025165
1.0025302
1.0025303
1.0024797
1.0023757
1.00233
1.002301
1.0022048
1.0020961
1.0020746
1.0017556
1.0033855
1.0034266
1.0034878
1.0034719
1.0034139
1.0033651
1.0033257
1.0032886
1.0032315
1.0031733
1.0031111
1.0030331
1.0030226
1.0030525
1.0030206
1.0029894
1.0029393
1.0028411
1.0027294
1.0026263
1.0025344
1.0025042
1.0019183
1.0038439
1.0037794
1.0037632
1.0037336
1.0036613
1.0036054
1.0035919
1.0036009
1.0036419
1.0037196
1.0037746
1.0037325
1.0036535
1.0035799
1.0034667
1.0034462
1.0034194
1.0033717
1.0033029
1.0032778
1.0032438
1.0031563
1.0018215
1.0040451
1.0040059
1.0039309
1.0038907
1.0038734
1.0038904
1.0039462
1.0039976
1.0040388
1.0041046
1.0041653
1.0041177
1.0040584
1.0040498
1.0039986
1.0039487
1.0039069
1.0038949
1.0039419
1.0039848
1.0039669
1.0039038
1.0020846
1.0039658
1.0040272
1.0040856
1.0041603
1.0042361
1.004234
1.0042053
1.0042197
1.0042344
1.0042482
1.0042416
1.0041928
1.0041904
1.0042806