/*--------------------------------*- C++ -*----------------------------------*\
| =========                 |                                                 |
| \\      /  F ield         | OpenFOAM: The Open Source CFD Toolbox           |
|  \\    /   O peration     | Version:  2406                                  |
|   \\  /    A nd           | Website:  www.openfoam.com                      |
|    \\/     M anipulation  |                                                 |
\*---------------------------------------------------------------------------*/
FoamFile
{
    version     2.0;
    format      ascii;
    arch        "LSB;label=32;scalar=64";
    class       volScalarField;
    location    "10";
    object      T;
}
// * * * * * * * * * * * * * * * * * * * * * * * * * * * * * * * * * * * * * //

dimensions      [0 0 0 1 0 0 0];

internalField   nonuniform List<scalar> 
96472
(
1.0008148
1.0008569
1.0008361
1.0004484
0.99978721
0.99889269
0.99809323
0.99756379
0.99734848
0.99739777
0.99762757
0.99782644
0.99801343
0.99817971
0.99831656
0.99846571
0.99860495
0.99879532
0.9990778
0.999408
0.99975519
1.0001284
1.0005358
1.0009963
1.001469
1.0019409
1.002392
1.0028127
1.0032013
1.0035625
1.0038857
1.0041699
1.0044045
1.0045961
1.0047602
1.0048867
1.0049972
1.0051136
1.0051531
1.0052457
1.0052465
1.00533
1.0053637
1.0053532
1.0053344
1.0054278
1.0053886
1.0054018
1.0053606
1.0053207
1.0053252
1.0052519
1.0052564
1.0051926
1.0051314
1.0008108
1.0008854
1.0008882
1.0005293
0.99988829
0.99900967
0.99821517
0.99767212
0.9974414
0.99747232
0.99769655
0.99789785
0.99805881
0.99820663
0.99834347
0.99846488
0.99861981
0.99880211
0.99903312
0.99934616
0.99971332
1.0000998
1.0005103
1.0009523
1.0014054
1.0018646
1.0023222
1.0027546
1.0031503
1.0035108
1.0038281
1.0041107
1.0043417
1.004552
1.0046872
1.0048432
1.0049218
1.0050125
1.0050865
1.0051061
1.0051955
1.005193
1.0052071
1.0052629
1.0052788
1.0052825
1.0052625
1.0052909
1.0052431
1.0053034
1.0052501
1.0052225
1.0051492
1.0051018
1.0049792
1.0008085
1.0009083
1.0009358
1.0006081
0.99998951
0.99912489
0.99833019
0.99778429
0.99754405
0.99755384
0.99777792
0.99797619
0.99813959
0.99826654
0.99838364
0.9984794
0.99860333
0.99879548
0.99902667
0.99930517
0.99964288
1.0000219
1.0004467
1.000894
1.0013544
1.0018154
1.0022591
1.002689
1.0030908
1.0034518
1.0037714
1.0040506
1.0042824
1.0044678
1.0046433
1.0047535
1.0048707
1.0049528
1.0049655
1.0050775
1.0050164
1.0051109
1.0050798
1.0051468
1.0051061
1.0051048
1.0051637
1.0051386
1.0051973
1.0051288
1.0051021
1.005085
1.0051219
1.0050909
1.0051213
1.000803
1.0009292
1.0009813
1.0006779
1.0000842
0.99923874
0.99844967
0.9978948
0.99764945
0.99765749
0.99786916
0.99806539
0.99823163
0.99836098
0.99845616
0.99855083
0.99863731
0.99878459
0.99901474
0.99930161
0.99961271
0.99996389
1.0003641
1.0008101
1.0012776
1.0017508
1.0022031
1.0026344
1.0030329
1.0033954
1.0037073
1.0039896
1.0042056
1.0044065
1.0045305
1.0047029
1.0047637
1.0048514
1.0049338
1.0049061
1.0049955
1.0049583
1.005015
1.0049438
1.0049495
1.0050202
1.0049372
1.0049807
1.0049344
1.0049283
1.0050299
1.0050456
1.0049642
1.0049286
1.0047691
1.000799
1.0009471
1.0010222
1.0007443
1.0001722
0.99933873
0.99855693
0.99801465
0.99775613
0.99774849
0.997968
0.99816808
0.99832485
0.99844871
0.99853879
0.9986147
0.9987003
0.99881412
0.99899526
0.99926748
0.99959571
0.99995466
1.0003355
1.000768
1.0012229
1.00169
1.0021505
1.0025832
1.0029767
1.0033376
1.0036532
1.0039166
1.0041462
1.0043174
1.0044898
1.0045759
1.004695
1.0047756
1.0047762
1.0048798
1.0048399
1.004911
1.0048359
1.0048953
1.0049158
1.0047598
1.0048408
1.0048152
1.0048366
1.0048825
1.0048187
1.0047107
1.0047347
1.0048626
1.0048596
1.0007945
1.0009604
1.0010539
1.0007967
1.0002515
0.99944239
0.99867311
0.99813225
0.99787429
0.99786408
0.99808189
0.99828168
0.99843617
0.99853746
0.99861573
0.99865595
0.99872132
0.99884324
0.99901493
0.99924327
0.99955699
0.99992099
1.0003166
1.0007386
1.0011889
1.0016525
1.0021049
1.0025355
1.0029292
1.003291
1.0035951
1.0038692
1.0040749
1.0042764
1.004392
1.0045392
1.0046015
1.0046529
1.0047388
1.0047134
1.0047699
1.0047303
1.004814
1.0047721
1.0046556
1.0047435
1.004731
1.004652
1.0046754
1.0045795
1.0046007
1.0046526
1.0048176
1.0045015
1.0046205
1.000788
1.0009699
1.0010796
1.0008419
1.0003177
0.99952431
0.99877104
0.99824009
0.9979905
0.9979737
0.99819848
0.99840296
0.99855891
0.99865574
0.99871583
0.99874183
0.9987679
0.99885949
0.99903794
0.99927293
0.99954948
0.99988732
1.0002769
1.0006983
1.0011503
1.0016166
1.0020656
1.0024934
1.0028891
1.0032442
1.0035609
1.0038117
1.0040416
1.0041815
1.004346
1.0044228
1.0045127
1.004588
1.0045901
1.0046213
1.0046501
1.0046722
1.0046356
1.0045745
1.0046999
1.0046176
1.0045232
1.0045416
1.0045584
1.0045635
1.0045802
1.0044973
1.0043765
1.0044318
1.004398
1.0007856
1.0009747
1.0010991
1.0008785
1.0003804
0.99961055
0.99887049
0.99834921
0.9981095
0.99809914
0.9983276
0.99853045
0.99868535
0.99878862
0.99882868
0.99884977
0.99887086
0.99892196
0.99905513
0.99928758
0.9995724
0.99990962
1.0002729
1.000688
1.0011335
1.0015897
1.0020385
1.0024627
1.0028532
1.0032072
1.0035076
1.0037714
1.0039684
1.0041574
1.0042597
1.0043709
1.0044508
1.0044609
1.0045145
1.0045294
1.0045135
1.0044935
1.0045136
1.004561
1.0044639
1.0043746
1.0044568
1.0044728
1.004389
1.0043646
1.0042698
1.0044145
1.0042256
1.0044308
1.0044226
1.0007783
1.000975
1.0011115
1.0009031
1.0004243
0.99967927
0.99896179
0.99845777
0.99822622
0.99822065
0.99844898
0.99866198
0.99881709
0.99890602
0.9989382
0.99893255
0.99894091
0.99899371
0.99910795
0.99929769
0.99958525
0.99992902
1.0002935
1.0006941
1.0011298
1.0015786
1.0020236
1.0024417
1.0028231
1.0031695
1.0034766
1.0037179
1.0039389
1.0040766
1.0042315
1.004308
1.0043581
1.0044232
1.0044425
1.0043956
1.0044497
1.0044293
1.0044289
1.0043358
1.0043401
1.0044039
1.0043639
1.0041859
1.0042534
1.00429
1.0043279
1.0041492
1.004296
1.0041447
1.0039394
1.0007783
1.0009755
1.0011158
1.0009246
1.0004689
0.99974751
0.99904067
0.99855442
0.99833674
0.99833686
0.99858215
0.99879614
0.99895248
0.99903226
0.99905492
0.99902578
0.99900299
0.99904136
0.99916768
0.99935311
0.99961148
0.99993762
1.0003083
1.0006994
1.0011268
1.0015716
1.0020085
1.0024216
1.0028035
1.0031428
1.0034389
1.0036982
1.0038917
1.0040592
1.0041641
1.0042378
1.0043275
1.0043189
1.004315
1.0043617
1.0043141
1.0042877
1.0042671
1.0042614
1.0042819
1.0041577
1.0040553
1.0041791
1.004214
1.004027
1.0041013
1.0039734
1.004044
1.0040599
1.0040732
1.0007705
1.0009689
1.001115
1.00093
1.0004942
0.99980362
0.99912816
0.99865583
0.99844515
0.998458
0.99869833
0.99892542
0.99908444
0.99917217
0.99918283
0.99915208
0.99912126
0.9991273
0.99922278
0.99941743
0.9996689
0.99998381
1.000341
1.0007289
1.0011454
1.0015782
1.0020063
1.002413
1.0027853
1.0031218
1.00342
1.0036526
1.0038644
1.0039958
1.0041174
1.0042072
1.0042195
1.0042684
1.0043019
1.0042183
1.0042383
1.0042271
1.0041915
1.0041611
1.0040776
1.0040404
1.0041439
1.0040236
1.0038802
1.0040129
1.0038638
1.0040517
1.0039904
1.003688
1.0039131
1.0007722
1.0009608
1.0011103
1.0009353
1.0005215
0.99984671
0.99918696
0.99873239
0.99853565
0.99855856
0.9988179
0.99904895
0.99921028
0.99929872
0.99930907
0.99926426
0.99923047
0.99923824
0.99930868
0.99947626
0.99973253
1.0000509
1.0003971
1.000776
1.0011815
1.0016005
1.0020148
1.0024112
1.0027795
1.0031077
1.0033909
1.0036325
1.0038172
1.0039772
1.0040894
1.0041378
1.0042264
1.0042089
1.0041776
1.0042034
1.0041852
1.0040941
1.0040962
1.0040267
1.0040226
1.0040048
1.0038462
1.0038281
1.0038844
1.003839
1.0038709
1.0036911
1.0036052
1.0037954
1.0037585
1.0007642
1.0009498
1.0010995
1.0009287
1.0005357
0.9998922
0.99925661
0.99882025
0.99863391
0.99865957
0.99892245
0.99916149
0.99933006
0.99941875
0.99942409
0.99937022
0.99931746
0.99932427
0.9994059
0.99955765
0.99980111
1.0001103
1.0004591
1.0008245
1.0012174
1.0016262
1.0020324
1.0024206
1.002777
1.003098
1.0033841
1.0036141
1.0038134
1.0039457
1.0040464
1.0041371
1.0041362
1.0041669
1.0041786
1.0041264
1.0040587
1.0040766
1.0040167
1.0039699
1.0039047
1.0037953
1.0038071
1.0037999
1.0037623
1.0036223
1.0036035
1.0036005
1.0036103
1.0037018
1.0034441
1.0007639
1.0009387
1.0010856
1.0009202
1.0005408
0.99991645
0.99930395
0.99888375
0.99870257
0.99873798
0.99900827
0.99926082
0.99944042
0.99953467
0.99954151
0.99949207
0.99943743
0.99942415
0.99949885
0.99965652
0.99988831
1.0001836
1.000527
1.0008838
1.0012626
1.001659
1.0020534
1.00243
1.0027819
1.0030933
1.003367
1.0036025
1.0037859
1.0039226
1.0040334
1.0040696
1.0041322
1.0041264
1.0040938
1.0040581
1.0040643
1.0039625
1.0039142
1.0038534
1.0038285
1.0037452
1.0037557
1.0035846
1.0035764
1.003604
1.0035107
1.0035046
1.0035508
1.0032832
1.0032971
1.0007576
1.0009258
1.001071
1.0009059
1.0005431
0.99993816
0.99933585
0.99892693
0.99876953
0.99881325
0.99908491
0.99934491
0.99953422
0.99964301
0.99966067
0.99961241
0.99956645
0.99955202
0.99960391
0.99975576
0.9999829
1.0002752
1.0006074
1.0009551
1.0013222
1.0017025
1.0020849
1.0024492
1.0027883
1.0030974
1.003364
1.0035872
1.003769
1.0039048
1.003994
1.0040776
1.0041019
1.0040839
1.0040884
1.0040563
1.0039657
1.0039278
1.0038979
1.003832
1.0037107
1.0037099
1.0035043
1.0036324
1.0035232
1.0033854
1.0034264
1.0033773
1.003152
1.0032585
1.0035433
1.0007551
1.000911
1.0010541
1.0008892
1.0005308
0.99995129
0.9993725
0.99897406
0.99881384
0.99886009
0.99913895
0.99941167
0.99961193
0.99973342
0.99976465
0.99971923
0.99967176
0.99966913
0.99972183
0.99986183
1.0000838
1.0003718
1.0006976
1.0010342
1.0013876
1.0017527
1.0021209
1.0024741
1.0028049
1.0031015
1.0033629
1.0035878
1.0037692
1.0038966
1.0040079
1.004053
1.0040661
1.004095
1.0040475
1.0039759
1.0039537
1.0039035
1.0038093
1.0037119
1.0036926
1.0035585
1.0036237
1.0034105
1.0033484
1.0034109
1.0032562
1.0031596
1.0032922
1.0033031
1.00299
1.000749
1.0008956
1.0010352
1.0008671
1.0005201
0.99994826
0.99937755
0.99899547
0.99884608
0.9988901
0.99917424
0.99946164
0.9996738
0.99980957
0.9998562
0.99982428
0.99977807
0.99977473
0.9998371
0.99997528
1.0001903
1.0004665
1.0007848
1.0011122
1.0014543
1.0018052
1.0021608
1.002502
1.0028196
1.0031129
1.0033673
1.0035828
1.0037618
1.0038954
1.0039781
1.004039
1.0040823
1.0040444
1.004022
1.0040023
1.0039237
1.0038189
1.0037837
1.0036987
1.0036247
1.0035404
1.0034081
1.0033649
1.0034015
1.0031971
1.0031742
1.0031918
1.0031188
1.0029967
1.0029403
1.0007449
1.0008775
1.0010137
1.0008408
1.0005014
0.99994698
0.99938493
0.99900823
0.99886632
0.99891791
0.99919224
0.99948776
0.99971832
0.99987605
0.99993778
0.99992569
0.99989584
0.99988973
0.99994769
1.0000863
1.0002942
1.0005646
1.0008735
1.0011931
1.0015246
1.0018621
1.0022022
1.0025326
1.0028448
1.0031225
1.0033736
1.0035842
1.0037513
1.0038763
1.003981
1.0040348
1.0040478
1.0040606
1.0040368
1.0039523
1.0038841
1.003857
1.0037432
1.0036676
1.0035274
1.0035003
1.0034024
1.0033757
1.0032123
1.0031259
1.0031936
1.003021
1.0029874
1.0028724
1.0031493
1.0007381
1.00086
1.0009929
1.0008168
1.0004769
0.99992806
0.99938002
0.99900485
0.99885859
0.99890928
0.99918558
0.99949465
0.99974795
0.99992897
1.0000142
1.0000149
1.000001
1.0000062
1.0000605
1.0001936
1.0003972
1.000663
1.0009621
1.0012745
1.001596
1.0019195
1.0022479
1.002565
1.0028683
1.0031391
1.0033784
1.0035863
1.0037578
1.0038915
1.0039825
1.0040393
1.0040707
1.004053
1.0040014
1.0039604
1.0039105
1.0037894
1.003725
1.0035917
1.0035772
1.0034421
1.00338
1.0032117
1.0031635
1.0032119
1.0029915
1.0029255
1.0029988
1.0029433
1.0027325
1.0007328
1.0008398
1.0009695
1.0007896
1.0004504
0.99990533
0.99935345
0.99898983
0.99884877
0.99889849
0.99916794
0.9994886
0.9997619
0.99996174
1.0000726
1.0000932
1.0000896
1.0001074
1.0001647
1.0002951
1.0004954
1.0007548
1.0010456
1.0013495
1.0016593
1.0019709
1.0022898
1.0025979
1.0028886
1.0031557
1.0033889
1.0035935
1.0037629
1.0038941
1.0039847
1.0040442
1.0040533
1.0040414
1.0040256
1.0039637
1.003864
1.003804
1.0037079
1.0036263
1.0034947
1.0034112
1.003262
1.0032688
1.0031829
1.0030362
1.0029137
1.0030814
1.002748
1.0028275
1.0027338
1.0007233
1.0008222
1.000951
1.0007643
1.0004235
0.99988353
0.99933335
0.99897075
0.99882831
0.99887274
0.99913249
0.99946793
0.99975702
0.9999826
1.000117
1.0001616
1.0001693
1.0001938
1.000259
1.0003866
1.000585
1.0008389
1.0011216
1.0014197
1.0017188
1.0020196
1.0023268
1.0026249
1.0029099
1.0031685
1.003401
1.0035954
1.003758
1.0038864
1.0039767
1.0040286
1.0040609
1.0040696
1.0040195
1.0039533
1.0039019
1.0038119
1.0036981
1.0035946
1.0034915
1.0033928
1.0033595
1.0031593
1.0031332
1.0029603
1.003084
1.0027978
1.0028192
1.0027519
1.0027713
1.0007189
1.0008027
1.0009274
1.0007348
1.0003934
0.99985631
0.99930486
0.9989357
0.99879277
0.9988401
0.99909107
0.99943475
0.99974237
0.99999182
1.0001506
1.0002202
1.0002428
1.0002728
1.0003416
1.0004683
1.0006608
1.0009105
1.0011862
1.0014793
1.0017682
1.0020636
1.0023615
1.0026528
1.0029301
1.0031838
1.0034071
1.003603
1.0037634
1.0038869
1.0039829
1.0040486
1.0040732
1.0040552
1.004031
1.0039864
1.0038964
1.0037892
1.0037267
1.0035945
1.0035166
1.0034109
1.0032407
1.0031892
1.003092
1.0030436
1.0029467
1.0027462
1.0028828
1.0026986
1.0025935
1.0007044
1.0007866
1.0009154
1.0007142
1.0003682
0.99982903
0.99927445
0.998909
0.9987599
0.99880517
0.99904512
0.99939686
0.999722
0.99999283
1.0001745
1.0002649
1.0003038
1.0003418
1.000411
1.000537
1.0007267
1.0009684
1.0012371
1.0015247
1.0018075
1.0020911
1.0023809
1.0026675
1.0029407
1.0031881
1.003411
1.0035976
1.0037613
1.0038948
1.0039901
1.0040514
1.0040699
1.0040749
1.0040461
1.0039758
1.0038937
1.0038369
1.0037019
1.0036199
1.003488
1.0033869
1.0032629
1.003237
1.003034
1.0030695
1.0027917
1.002964
1.0026931
1.0026752
1.002642
1.0007036
1.0007638
1.0008905
1.0006858
1.0003375
0.99981171
0.99925358
0.99888594
0.99873149
0.99876691
0.99899379
0.99935304
0.99969502
0.99998276
1.0001876
1.0002942
1.0003436
1.0003873
1.0004598
1.0005816
1.00077
1.0010046
1.0012693
1.0015523
1.0018291
1.0021068
1.0023891
1.0026699
1.0029343
1.0031799
1.0034002
1.0035896
1.0037541
1.0038766
1.0039727
1.0040355
1.0040656
1.0040632
1.0040418
1.0040002
1.0039389
1.0038272
1.0037411
1.0036204
1.00353
1.0033935
1.0033405
1.0031266
1.0031404
1.0029516
1.0029334
1.0028885
1.0026293
1.0027796
1.0025809
1.0006615
1.0007279
1.0008736
1.0006707
1.0003223
0.99978604
0.99922503
0.99885819
0.99870377
0.9987269
0.99893258
0.99929147
0.99964551
0.99995326
1.0001783
1.0002977
1.0003565
1.0004035
1.0004736
1.0005874
1.0007702
1.0009995
1.0012524
1.0015341
1.0018127
1.0020856
1.0023617
1.0026344
1.0028968
1.0031381
1.0033562
1.0035463
1.003711
1.0038388
1.0039417
1.0040102
1.0040396
1.0040489
1.0040398
1.0039946
1.0039064
1.0038292
1.0037379
1.0036295
1.003503
1.0034143
1.0032549
1.0031835
1.0030866
1.0029416
1.0029855
1.0026825
1.0028165
1.0026462
1.0025505
1.0006178
1.0006129
1.0007483
1.0005281
1.0001929
0.99970572
0.99917843
0.99881139
0.99862303
0.99861639
0.9987749
0.99911849
0.99950503
0.999851
1.0001032
1.000238
1.0003004
1.000351
1.0004203
1.0005286
1.0006964
1.0009137
1.00116
1.0014338
1.0017105
1.0019839
1.0022532
1.0025238
1.002787
1.0030263
1.0032412
1.0034278
1.0035933
1.0037276
1.0038425
1.0039233
1.0039426
1.0039679
1.0039586
1.003911
1.0038459
1.0037724
1.0036644
1.0035574
1.0034439
1.0033306
1.0032136
1.0031403
1.0029827
1.0029379
1.0028081
1.0026812
1.0027818
1.0024488
1.0025743
1.0005724
1.0004247
1.0003865
1.0000635
0.99969593
0.99929619
0.9993237
0.99884268
0.99838319
0.99844052
0.99854964
0.99864258
0.99944635
0.99983535
0.99996683
0.99997258
1.0000751
1.0002894
1.0004074
1.0004753
1.0005779
1.0007645
1.0009862
1.0013059
1.001596
1.0018391
1.0020761
1.0023541
1.0026273
1.0028758
1.0031017
1.0032987
1.0034798
1.0036098
1.0037228
1.0037829
1.0038325
1.0038429
1.0038108
1.0037809
1.0037296
1.0036562
1.0035792
1.0034876
1.0033817
1.0032644
1.0031509
1.0030107
1.0029185
1.0028167
1.002667
1.0026921
1.0024428
1.0025015
1.0024236
1.0023052
1.0024503
1.0025496
1.002528
1.002584
1.002623
1.0025991
1.0027431
1.0028073
1.002794
1.0030587
1.0031126
1.003123
1.0034652
1.0034844
1.0036404
1.0037832
1.0039154
1.0041845
1.0041115
1.0044347
1.0044859
1.0046549
1.0048893
1.0048436
1.0050284
1.0050118
1.0022137
1.0023116
1.0024379
1.0024978
1.0024726
1.0025424
1.0026174
1.0026316
1.0027263
1.0028492
1.0028826
1.0030532
1.0031933
1.0032312
1.0034829
1.0035532
1.0037493
1.003878
1.0039611
1.0042101
1.0042174
1.0044852
1.0045557
1.0047184
1.0048429
1.0048709
1.004925
1.0020751
1.0022722
1.0023425
1.0024073
1.0024576
1.0024767
1.0025256
1.0026199
1.002667
1.0027438
1.0028868
1.0029421
1.0030863
1.0032392
1.0033146
1.0035367
1.0036216
1.003785
1.0039332
1.0040065
1.0042276
1.0042756
1.0045003
1.0045647
1.0047243
1.0047737
1.0048444
1.0020928
1.0022288
1.0023115
1.0023464
1.0023943
1.0024439
1.0025084
1.0025305
1.0026597
1.0027105
1.002783
1.0029483
1.0029795
1.0031598
1.0032892
1.0033827
1.0035983
1.0036535
1.0038314
1.0039372
1.0040649
1.0042061
1.0043232
1.0044624
1.0045466
1.0046519
1.0047397
1.0020232
1.002143
1.002278
1.0023183
1.0023376
1.0024104
1.0024608
1.0025542
1.0025707
1.0027162
1.0027715
1.002828
1.0030389
1.003021
1.0032624
1.0033512
1.0034241
1.0036788
1.0036462
1.0039054
1.003909
1.0041207
1.0041681
1.0043316
1.0044009
1.0045062
1.0045762
1.0019428
1.0021395
1.0022555
1.0023013
1.0023587
1.0023873
1.0024325
1.0025616
1.0025592
1.0026622
1.0027966
1.0028042
1.002968
1.0030916
1.0031153
1.0033693
1.0033921
1.0035243
1.0036976
1.0037055
1.0039444
1.0039269
1.0041539
1.0041451
1.0043393
1.0043366
1.0044567
1.002027
1.0021658
1.0022822
1.0023016
1.0023609
1.0024326
1.0024209
1.0025373
1.0026305
1.0026167
1.002791
1.0028617
1.0028857
1.0031155
1.0031323
1.0032534
1.0034393
1.0034442
1.0036393
1.0036892
1.0038148
1.0039371
1.0040071
1.0041401
1.0041754
1.0042577
1.0043345
1.0019902
1.0021341
1.0022984
1.002314
1.0023371
1.0024866
1.0024499
1.002499
1.0026962
1.0026225
1.0027538
1.0029264
1.0028569
1.0030895
1.0031535
1.0032038
1.0033886
1.0034367
1.0035486
1.0036576
1.0037262
1.0038618
1.0039333
1.0040393
1.0040962
1.004145
1.0042081
1.0020865
1.0021057
1.0022872
1.0023762
1.0023321
1.0024911
1.0025357
1.0024902
1.0026759
1.002726
1.0027038
1.0029155
1.0029609
1.0029539
1.0032198
1.0031771
1.0033085
1.0034767
1.0034091
1.0036758
1.003608
1.0038172
1.003825
1.0039561
1.0039943
1.0040382
1.0040719
1.0020125
1.0022267
1.002326
1.0024559
1.0024176
1.0024811
1.0026391
1.0025612
1.0026526
1.0028464
1.0027114
1.0029138
1.0030418
1.0029299
1.0032682
1.0031493
1.0033332
1.0034209
1.0034257
1.0036162
1.0035549
1.0037848
1.0037269
1.0039179
1.0038493
1.0039874
1.003963
1.0021424
1.0023363
1.0023802
1.0025496
1.002509
1.0025052
1.0027322
1.002632
1.0026906
1.0028962
1.0027611
1.0029664
1.0030018
1.0030234
1.003195
1.0031941
1.0033408
1.0033418
1.0034883
1.0034717
1.0036267
1.0036413
1.0037406
1.0038009
1.003838
1.0038538
1.0039246
1.0023576
1.00234
1.0024719
1.0026228
1.0025478
1.0026131
1.0027505
1.002704
1.0027811
1.0028799
1.0028978
1.0029287
1.0030869
1.0030711
1.0031629
1.0033065
1.0032272
1.0034783
1.0033738
1.0035659
1.0035204
1.0036548
1.0036904
1.0037405
1.003804
1.003779
1.0038451
1.0023364
1.0023668
1.0025217
1.0026219
1.0026836
1.0027107
1.0027786
1.0028474
1.0028249
1.0029586
1.0029636
1.0030057
1.0031296
1.0031032
1.0032446
1.0032692
1.0033397
1.0034267
1.0034236
1.0035584
1.0035211
1.0036453
1.0036737
1.0037202
1.0037786
1.0037543
1.0037732
1.0023568
1.0024988
1.0026624
1.0027319
1.0027824
1.0028442
1.0028597
1.0029522
1.0029811
1.0029533
1.0031187
1.0030616
1.0031501
1.0032514
1.003205
1.0033832
1.0033492
1.0034581
1.00345
1.0035712
1.0035492
1.0036261
1.0037023
1.0036664
1.0038022
1.0036981
1.0037837
1.0026243
1.0026911
1.0027912
1.0028916
1.0028861
1.002934
1.0030346
1.0029795
1.003055
1.0031459
1.0030766
1.0032056
1.0032024
1.003275
1.0033238
1.0033474
1.0034704
1.0034165
1.0035785
1.0035194
1.0035954
1.0036644
1.0036601
1.0037075
1.0037745
1.003695
1.003775
1.002696
1.0028379
1.0029442
1.0029538
1.0030314
1.0030532
1.0030498
1.0031393
1.0031311
1.0031822
1.0031958
1.0032371
1.0032977
1.0032855
1.0033862
1.0034159
1.0034454
1.00351
1.0035525
1.0035605
1.0036094
1.0036657
1.003647
1.0037284
1.0037542
1.0036871
1.0037446
1.0027647
1.0029209
1.0030066
1.0030983
1.0030998
1.00313
1.0031726
1.0031859
1.0032732
1.0032113
1.0032794
1.0033483
1.0033074
1.0034032
1.0034232
1.0034646
1.0034751
1.0035495
1.0036002
1.0035633
1.0036559
1.0036657
1.0036848
1.0037107
1.0037534
1.0037024
1.0037357
1.0029786
1.0030136
1.003144
1.0032284
1.0031714
1.0032606
1.0032976
1.0032621
1.0033716
1.0033008
1.0034177
1.0034233
1.0033622
1.0035407
1.0034495
1.0035618
1.0035397
1.0035912
1.0036558
1.0035833
1.0037495
1.0036298
1.0037481
1.0036953
1.0037862
1.0037016
1.0037305
1.0031788
1.0031506
1.0032984
1.0033008
1.0033249
1.0033964
1.0033638
1.0034322
1.0034341
1.0034446
1.0035215
1.0034532
1.0035586
1.0035639
1.0035477
1.0036441
1.0036119
1.0036878
1.0036512
1.0036865
1.0037579
1.003683
1.0037546
1.0037416
1.0037713
1.0037297
1.0037282
1.0033116
1.003306
1.0033983
1.0034081
1.0034852
1.0034901
1.0034663
1.003543
1.0035469
1.0035349
1.0035775
1.0035866
1.0036074
1.0036611
1.0036064
1.003737
1.0036808
1.0037267
1.0037331
1.0037285
1.0038098
1.0037006
1.0038076
1.0037681
1.0038019
1.0037572
1.0037527
1.003485
1.0034218
1.0035216
1.0035576
1.0035815
1.0036177
1.0035841
1.0036225
1.0036717
1.003613
1.003657
1.0037027
1.0036895
1.0037221
1.0037069
1.0037896
1.003763
1.0037768
1.0038004
1.0037902
1.0038199
1.0037795
1.0038251
1.0038118
1.0038038
1.0038197
1.0037824
1.0036151
1.0035903
1.0036137
1.0037151
1.0037017
1.0036867
1.0037833
1.0036775
1.0037718
1.0037692
1.0036693
1.0038843
1.0037122
1.0038366
1.0038426
1.0037683
1.0039713
1.0037197
1.0039942
1.0037784
1.0039201
1.0038442
1.003857
1.0038997
1.0037914
1.003902
1.0038101
1.0037974
1.0037242
1.0037414
1.0038384
1.0038032
1.0038314
1.0038759
1.0037754
1.0039026
1.0038254
1.0038161
1.0039266
1.0037827
1.0039596
1.003861
1.0039063
1.0039591
1.0038231
1.0040439
1.0038329
1.0039812
1.0038534
1.003935
1.0039294
1.0038517
1.0039095
1.0038547
1.0039624
1.0038396
1.0038839
1.0039278
1.0039225
1.0039577
1.003941
1.0039489
1.0039371
1.0039567
1.0039473
1.0039485
1.0039584
1.0039333
1.0040157
1.0039734
1.0039701
1.0039725
1.0039971
1.0039916
1.003958
1.0039651
1.0039415
1.0039939
1.0039067
1.0039715
1.0039111
1.0040905
1.0039859
1.003948
1.0040445
1.0040336
1.0040249
1.0040981
1.0039964
1.0040757
1.0040496
1.0040023
1.0041162
1.0039687
1.0040974
1.0040477
1.0040455
1.0041061
1.0039905
1.0041276
1.0039938
1.0040913
1.0039981
1.0040357
1.0040128
1.0039799
1.0040092
1.0039664
1.0042567
1.0040701
1.0040879
1.0040811
1.0041318
1.0041339
1.0041133
1.0041753
1.0040907
1.0041298
1.0041285
1.0041004
1.0041625
1.0040624
1.0041733
1.0040805
1.004136
1.0041353
1.0040626
1.0041795
1.004018
1.0041495
1.0040158
1.0041257
1.0040046
1.0040564
1.0040055
1.0043853
1.0041901
1.0041794
1.0041668
1.0042219
1.0041836
1.0042034
1.0042637
1.0041553
1.0042354
1.0041651
1.004187
1.0042515
1.0041205
1.0042762
1.0041061
1.0042322
1.0041793
1.0041332
1.0042426
1.00405
1.0042301
1.0040405
1.0041813
1.0040346
1.0041029
1.0040474
1.0044775
1.0042979
1.0042534
1.0042655
1.004298
1.0042403
1.0043284
1.0042919
1.0042729
1.004302
1.0042058
1.0043412
1.004237
1.0042741
1.0042794
1.0041818
1.0043537
1.0041704
1.0042954
1.0041852
1.0042058
1.0042524
1.0041483
1.0042134
1.0040922
1.0041694
1.0041173
1.0046087
1.0043807
1.0043257
1.004348
1.0043209
1.0043706
1.0043697
1.0043647
1.0043695
1.0042912
1.0043652
1.0043464
1.0043215
1.0043534
1.0042558
1.004347
1.0043086
1.0043076
1.0042842
1.0042381
1.004284
1.0042502
1.0042488
1.004182
1.0041875
1.0041797
1.0041776
1.0047296
1.0044456
1.0044076
1.0043949
1.0043908
1.0044458
1.0044001
1.0044556
1.0044024
1.0043817
1.0044422
1.0043568
1.0044425
1.0043371
1.0043877
1.004381
1.0043564
1.0044169
1.0042771
1.0043962
1.0042594
1.0043684
1.0042505
1.0042806
1.0042365
1.0042341
1.0042153
1.0048323
1.004528
1.0044659
1.0044412
1.0044789
1.0044682
1.0044722
1.0045121
1.0044429
1.0044953
1.0044383
1.0044538
1.0044748
1.0043941
1.0044891
1.004371
1.0044658
1.0044062
1.0043873
1.0044343
1.0043257
1.004418
1.0042914
1.0043625
1.0042769
1.0042978
1.0042492
1.0049271
1.0046184
1.0044973
1.0045077
1.0045238
1.004518
1.0045504
1.0045103
1.0045284
1.0045139
1.0044938
1.0045383
1.0044807
1.0045024
1.004476
1.0044715
1.0044934
1.0044721
1.0044652
1.0044219
1.0044322
1.0043917
1.0044131
1.0043612
1.0043544
1.0043101
1.004302
1.0050347
1.0046859
1.0045297
1.0045504
1.0045541
1.004591
1.0045877
1.0045489
1.0045592
1.0045196
1.0045713
1.004549
1.0045642
1.004521
1.0045032
1.004541
1.0044823
1.0045701
1.0044589
1.0045023
1.0044654
1.0044463
1.0044818
1.0044002
1.0044293
1.0043531
1.0043668
1.0051536
1.004742
1.0045812
1.0045704
1.0045868
1.0046329
1.0046149
1.0046057
1.0045769
1.0045692
1.0046022
1.0045796
1.0046191
1.0045461
1.0045672
1.0045577
1.0045356
1.0045962
1.0044961
1.0045593
1.00448
1.0045132
1.0044859
1.0044569
1.0044458
1.004402
1.0043964
1.0052403
1.0048122
1.004637
1.0046075
1.0046218
1.0046351
1.0046338
1.004634
1.0046122
1.0046239
1.0046208
1.0046197
1.0046316
1.0045846
1.0046129
1.0045826
1.0045907
1.0045998
1.0045429
1.0045751
1.0045157
1.0045464
1.0045076
1.0045061
1.004468
1.0044594
1.0044348
1.0053188
1.004877
1.0046825
1.0046474
1.0046433
1.0046429
1.0046434
1.0046486
1.0046485
1.0046514
1.0046449
1.0046368
1.0046364
1.004626
1.0046403
1.0046213
1.0046209
1.0046044
1.0045772
1.0045842
1.004558
1.0045681
1.004539
1.0045244
1.0044907
1.0044771
1.0044589
1.0054194
1.0049263
1.0047086
1.0046606
1.0046521
1.0046456
1.0046555
1.0046464
1.0046629
1.0046569
1.0046486
1.0046582
1.0046371
1.0046566
1.00464
1.0046559
1.0046236
1.0046389
1.0046014
1.0046135
1.0045867
1.004582
1.0045558
1.0045388
1.0045187
1.0045075
1.0044907
1.0054924
1.0049795
1.004719
1.004662
1.004653
1.004642
1.004665
1.0046355
1.0046649
1.0046425
1.004661
1.0046438
1.0046646
1.0046482
1.004664
1.0046544
1.0046438
1.0046539
1.0046199
1.0046429
1.0045952
1.0046088
1.0045611
1.004566
1.0045319
1.0045315
1.0045101
1.005578
1.0050334
1.0047262
1.0046588
1.00464
1.0046486
1.00465
1.0046386
1.0046548
1.0046177
1.0046709
1.004611
1.0046878
1.0046254
1.0046804
1.0046383
1.0046587
1.004648
1.0046396
1.0046501
1.00461
1.0046294
1.0045691
1.004596
1.0045343
1.004555
1.0045103
1.0056249
1.0050744
1.0047309
1.0046625
1.0046129
1.0046546
1.0046207
1.0046415
1.0046358
1.0046134
1.0046663
1.0045966
1.0046976
1.0045974
1.0047024
1.0046094
1.0046835
1.0046398
1.0046505
1.004671
1.0045986
1.0046716
1.0045493
1.0046412
1.0045244
1.0045831
1.0045111
1.0056709
1.0051032
1.004726
1.0046539
1.0045827
1.0046456
1.0045846
1.0046348
1.0046105
1.0046031
1.0046572
1.0045702
1.0047049
1.0045614
1.0047199
1.0045874
1.0046876
1.004654
1.0046262
1.0047155
1.0045615
1.0047172
1.0045291
1.0046687
1.0045296
1.0045942
1.0045168
1.0055916
1.0051109
1.0047051
1.0046307
1.0045427
1.0046257
1.0045508
1.0046007
1.0045983
1.0045515
1.0046678
1.004516
1.0047143
1.0045322
1.004703
1.0046148
1.0046292
1.0047139
1.0045528
1.0047636
1.0045317
1.0047296
1.0045427
1.0046482
1.0045505
1.0045723
1.004523
1.00574
1.0051302
1.0046602
1.0045995
1.0045004
1.0045687
1.0045513
1.004514
1.0046219
1.0044595
1.0046757
1.0044755
1.0046682
1.0045754
1.0045879
1.0047054
1.004504
1.0047801
1.0044861
1.0047639
1.0045392
1.0046811
1.004593
1.004593
1.0045904
1.0045368
1.0045327
1.0056206
1.0051163
1.0046314
1.0045112
1.0045125
1.0044203
1.0045753
1.0043963
1.0046023
1.0044503
1.0045466
1.0045707
1.0044569
1.0046904
1.0044174
1.0047432
1.0044617
1.0047181
1.0045575
1.00462
1.0046607
1.0045387
1.0046864
1.0045038
1.0046269
1.0045016
1.0045382
1.0056633
1.0050096
1.0046338
1.0043587
1.004458
1.0043676
1.0043974
1.0044698
1.0043135
1.004586
1.0042781
1.004642
1.004351
1.0045892
1.0044988
1.0044698
1.004683
1.0043781
1.0047939
1.0043557
1.0047771
1.0044224
1.0046834
1.0045008
1.0045653
1.004508
1.0044979
1.0055561
1.0049596
1.0044875
1.0043371
1.0042583
1.004346
1.0043018
1.0042844
1.0043828
1.0042237
1.0044908
1.0042491
1.0045234
1.0043293
1.0044625
1.0044775
1.0043972
1.0046337
1.0043496
1.0046952
1.0043498
1.0046768
1.004413
1.004598
1.0044481
1.0045031
1.004454
1.0055337
1.0048388
1.0044465
1.0041811
1.0041805
1.0042535
1.00413
1.0042965
1.004177
1.004269
1.0043057
1.0042651
1.0043703
1.0043169
1.004366
1.0044243
1.0043616
1.0044978
1.0043755
1.0044913
1.0044523
1.0044518
1.0045099
1.0044038
1.0044892
1.0043929
1.0044405
1.0053615
1.0047305
1.0042644
1.0041424
1.0039417
1.0042033
1.0039621
1.0041611
1.0041511
1.0040294
1.004345
1.0039791
1.0044134
1.0041064
1.0043344
1.0043217
1.0042037
1.0044909
1.0041719
1.0045578
1.0042352
1.0045122
1.0042921
1.004429
1.0043436
1.004401
1.0043819
1.0052427
1.0046185
1.004048
1.0039891
1.0037739
1.0040124
1.0038517
1.0039461
1.0040589
1.0038593
1.0042082
1.0038642
1.0042366
1.0040259
1.0041657
1.0042351
1.0040509
1.0043746
1.0040755
1.0044211
1.0041897
1.0043456
1.0042387
1.0043036
1.004292
1.0043235
1.0043155
1.0050845
1.0045076
1.0038583
1.0036509
1.0038184
1.0035655
1.0038864
1.0036252
1.0037934
1.0038645
1.0037182
1.0041033
1.0036793
1.0041594
1.0037817
1.0041461
1.0040117
1.0040651
1.0041952
1.003971
1.004299
1.0040054
1.0043264
1.0040682
1.0042568
1.0041411
1.0042312
1.0049387
1.0042835
1.0036587
1.0035702
1.0034585
1.003539
1.0035838
1.0035526
1.0036454
1.0036144
1.003687
1.0037479
1.0037601
1.0037883
1.0038515
1.0038294
1.0039776
1.0038939
1.0040331
1.003936
1.0040264
1.0040279
1.0040604
1.004087
1.0040486
1.0040926
1.0041227
1.0048157
1.0041006
1.0035584
1.0032399
1.0034507
1.0031917
1.0034118
1.0034971
1.0033295
1.0036947
1.003338
1.0036705
1.0035936
1.0036052
1.0038578
1.0035544
1.0038961
1.0036559
1.0039477
1.0038191
1.0038969
1.0039047
1.0038405
1.0039748
1.003927
1.0040161
1.0040271
1.0046699
1.0037415
1.0033638
1.0030307
1.0030224
1.0033165
1.0029101
1.0034243
1.0030909
1.0032938
1.003498
1.0031255
1.0037109
1.0031837
1.0037395
1.0034289