/*--------------------------------*- C++ -*----------------------------------*\
| =========                 |                                                 |
| \\      /  F ield         | OpenFOAM: The Open Source CFD Toolbox           |
|  \\    /   O peration     | Version:  2406                                  |
|   \\  /    A nd           | Website:  www.openfoam.com                      |
|    \\/     M anipulation  |                                                 |
\*---------------------------------------------------------------------------*/
FoamFile
{
    version     2.0;
    format      ascii;
    arch        "LSB;label=32;scalar=64";
    class       volScalarField;
    location    "10";
    object      T;
}
// * * * * * * * * * * * * * * * * * * * * * * * * * * * * * * * * * * * * * //

dimensions      [0 0 0 1 0 0 0];

internalField   nonuniform List<scalar> 
158064
(
1.0010322
1.0010104
1.0009274
1.0007122
1.000596
1.0007404
1.0011162
1.0015084
1.0017415
1.0018838
1.0020054
1.0021346
1.0022605
1.0023428
1.0023612
1.0022873
1.0020833
1.0017391
1.0012719
1.0007288
1.0001769
0.99966013
0.99919301
0.99878731
0.99845655
0.99821627
0.99807511
0.99803712
0.99814023
0.99839431
0.99882179
0.99947735
1.0004439
1.0018306
1.0037284
1.0060603
1.0084722
1.0104064
1.0116526
1.0123847
1.0129704
1.013276
1.0132676
1.0129971
1.0126235
1.0122471
1.0120068
1.0118823
1.0118591
1.0119632
1.0122447
1.0125326
1.0129249
1.0133315
1.0138611
1.0144279
1.0150444
1.0155582
1.0159667
1.016256
1.0165262
1.0166513
1.0168111
1.0168446
1.016971
1.0171231
1.0172055
1.0172367
1.0173475
1.0174002
1.0173481
1.0173839
1.0173476
1.017344
1.0175899
1.0173954
1.0174468
1.0173333
1.0175646
1.0175453
1.0175091
1.0173202
1.0173265
1.0174121
1.0171936
1.0170369
1.0172789
1.0169637
1.0169785
1.0010459
1.0010878
1.0010423
1.0008453
1.0007218
1.0008392
1.0011777
1.0015223
1.0017137
1.0018146
1.0019023
1.0020058
1.002118
1.002208
1.0022413
1.002184
1.0020139
1.0017026
1.0012573
1.000731
1.0001907
0.99967413
0.99919926
0.99878053
0.99843015
0.99817112
0.99802055
0.99797907
0.99806508
0.99829196
0.99869559
0.99930307
1.0002005
1.0014941
1.0032855
1.0055483
1.0080014
1.0101028
1.0115255
1.0125285
1.0131487
1.0134542
1.013407
1.0130945
1.0126788
1.0122806
1.0120014
1.0118384
1.0118233
1.0119273
1.0121348
1.0124024
1.0127776
1.013201
1.0137078
1.0142546
1.0148533
1.0153825
1.0158996
1.0162526
1.0165392
1.0167155
1.0168913
1.0170336
1.0171664
1.0172803
1.0173671
1.0173817
1.0174375
1.0174612
1.0175533
1.0174787
1.0175188
1.0175219
1.017459
1.0175077
1.0175221
1.0174954
1.01745
1.0174002
1.0173726
1.0174627
1.017315
1.0172058
1.017341
1.0171236
1.0171716
1.0168888
1.0169766
1.0010606
1.001155
1.001151
1.0009766
1.0008489
1.000933
1.001235
1.0015457
1.0016918
1.001748
1.0018071
1.0018916
1.0019934
1.0020828
1.002128
1.0020884
1.0019376
1.0016395
1.0012113
1.0006993
1.0001691
0.99965911
0.99918868
0.99877298
0.99842586
0.99816338
0.9980011
0.99794189
0.99802009
0.99823766
0.99862124
0.99921381
1.0000835
1.0013369
1.0030823
1.0053243
1.0078327
1.0101001
1.011752
1.0127912
1.0134036
1.0136584
1.013552
1.0131865
1.0127249
1.0122897
1.0119739
1.0117842
1.0117549
1.0118415
1.0120389
1.0122995
1.0126659
1.0130873
1.0136024
1.0141698
1.0147916
1.0153535
1.0159167
1.0163245
1.0166337
1.0168503
1.0170379
1.0171809
1.017366
1.0174712
1.0175874
1.017627
1.0177053
1.0176693
1.0176466
1.0176364
1.017585
1.0175867
1.0174951
1.0176105
1.0174242
1.0174605
1.0174788
1.0173622
1.0173995
1.0172098
1.017319
1.0172598
1.0170139
1.0172182
1.0170408
1.0169446
1.0169555
1.0010708
1.0012162
1.0012526
1.0011009
1.0009679
1.0010326
1.0012993
1.0015651
1.0016673
1.0016927
1.0017191
1.0017802
1.0018706
1.001962
1.0020167
1.0019923
1.0018565
1.0015862
1.0011757
1.0006798
1.0001593
0.99965519
0.99918657
0.99876973
0.99841902
0.99815064
0.99798186
0.9979117
0.99797058
0.99817082
0.998537
0.99910212
0.99992791
1.0011156
1.0027806
1.0049572
1.0074669
1.0098362
1.0116073
1.0127419
1.0135468
1.0138208
1.0136802
1.0132692
1.0127686
1.0123031
1.0119546
1.0117455
1.011692
1.0117675
1.0119428
1.0121922
1.0125438
1.0129643
1.0134613
1.0140167
1.01463
1.015211
1.0158105
1.0162779
1.0166336
1.0169069
1.0171362
1.017313
1.0175242
1.0176286
1.0176951
1.0177267
1.0177593
1.017778
1.0177819
1.0177385
1.017723
1.0176111
1.017679
1.0175276
1.0175777
1.0174511
1.0174229
1.0174332
1.0172973
1.0175143
1.0172434
1.0171901
1.0172571
1.0170032
1.0169175
1.017104
1.016797
1.0010798
1.0012711
1.0013489
1.0012196
1.0010832
1.0011249
1.00136
1.0015902
1.0016446
1.0016364
1.0016337
1.0016787
1.0017587
1.0018499
1.0019131
1.0019021
1.0017875
1.0015305
1.0011366
1.0006527
1.0001366
0.99963491
0.99916874
0.99875165
0.99839747
0.99812525
0.99795373
0.9978802
0.99793209
0.99811867
0.99846735
0.9990118
0.99980402
1.0009441
1.0025491
1.004675
1.0071947
1.0096849
1.0116789
1.0130754
1.0137536
1.0140056
1.0138177
1.0133615
1.0128232
1.0123288
1.0119533
1.0117134
1.0116433
1.0116981
1.0118589
1.0120999
1.0124459
1.0128573
1.0133608
1.0138983
1.0145162
1.0151281
1.0157607
1.0162782
1.0166782
1.0169883
1.0172352
1.0174612
1.0176499
1.0178023
1.0179026
1.0179596
1.0180086
1.0179466
1.0179617
1.017834
1.0178222
1.0177424
1.017663
1.0176737
1.0174951
1.017513
1.0175572
1.0173231
1.0174632
1.017234
1.0172513
1.0171974
1.0170458
1.0170896
1.0171675
1.016715
1.0170121
1.0010869
1.0013183
1.0014379
1.0013274
1.0011955
1.0012184
1.0014194
1.00161
1.0016327
1.0015898
1.0015573
1.0015809
1.0016511
1.0017433
1.0018113
1.0018163
1.0017142
1.0014837
1.001105
1.0006334
1.0001272
0.99963294
0.9991699
0.99875285
0.99839573
0.99811743
0.997939
0.99785687
0.99789737
0.99807356
0.99840726
0.99892861
0.99968806
1.0007795
1.0023191
1.0043829
1.0068863
1.0094527
1.0115699
1.0129654
1.0138959
1.0141624
1.0139556
1.0134624
1.0128858
1.012364
1.0119626
1.011702
1.011602
1.0116433
1.0117843
1.0120116
1.0123482
1.0127506
1.0132393
1.01378
1.0143906
1.0150099
1.0156529
1.0162046
1.0166659
1.0170202
1.0173133
1.0175737
1.0177998
1.0179235
1.0180182
1.0180798
1.0180842
1.0180768
1.0180484
1.0180188
1.0178867
1.0178709
1.01779
1.0176376
1.017648
1.0175044
1.01735
1.0173891
1.0174758
1.0172137
1.017301
1.0172492
1.0172382
1.0169466
1.016953
1.0170995
1.0166875
1.0010926
1.0013601
1.0015176
1.001432
1.0013036
1.0013072
1.0014809
1.0016294
1.0016169
1.0015432
1.0014821
1.0014873
1.001554
1.0016404
1.0017182
1.0017354
1.0016502
1.0014314
1.0010733
1.0006137
1.0001158
0.99962571
0.99916642
0.99875012
0.99839078
0.99810698
0.9979224
0.99783245
0.99786186
0.99802793
0.99834913
0.99885147
0.99957863
1.0006288
1.0021092
1.004112
1.0065939
1.0092265
1.0115099
1.013151
1.0140355
1.0143308
1.0140848
1.0135549
1.012949
1.0123953
1.0119719
1.0116801
1.0115691
1.0115777
1.0117058
1.0119278
1.01226
1.0126501
1.0131183
1.0136653
1.0142799
1.0149027
1.0155634
1.0161507
1.0166503
1.0170422
1.0173811
1.0176706
1.0179191
1.0180844
1.0182001
1.0182557
1.0182928
1.0182614
1.0182204
1.0180711
1.0180926
1.0178851
1.0179052
1.0176688
1.0176265
1.0175711
1.0174478
1.0173971
1.0172463
1.017358
1.0171408
1.0172639
1.0168894
1.0173194
1.0168445
1.0168751
1.0170788
1.0010969
1.0013969
1.0015895
1.0015304
1.0014039
1.001396
1.0015379
1.0016516
1.0016047
1.001497
1.0014182
1.0014025
1.0014586
1.0015496
1.0016295
1.0016566
1.001586
1.001387
1.0010395
1.0005925
1.0001057
0.99962075
0.99916504
0.99874969
0.99838982
0.99810447
0.99791601
0.99782051
0.99783845
0.99799259
0.99829746
0.99877982
0.99947946
1.0004892
1.0019134
1.0038537
1.0063074
1.0089872
1.0113936
1.0131282
1.014173
1.0144714
1.0142155
1.0136547
1.013013
1.0124387
1.012
1.0116881
1.0115394
1.0115305
1.0116422
1.0118489
1.0121818
1.0125583
1.0130288
1.0135583
1.0141486
1.0147807
1.0154539
1.0160659
1.0166121
1.0170416
1.0174246
1.017757
1.0180332
1.0182009
1.0183398
1.0183966
1.0184527
1.0183509
1.0183589
1.0182329
1.0181354
1.0180964
1.017794
1.0178512
1.0177274
1.0175219
1.0174134
1.017466
1.0174741
1.0170206
1.017403
1.0170716
1.0172205
1.0168189
1.0173039
1.0169195
1.0166444
1.0011
1.0014301
1.0016541
1.0016236
1.0014991
1.0014756
1.0015933
1.0016705
1.0015977
1.0014574
1.0013489
1.0013262
1.0013739
1.0014632
1.0015482
1.0015862
1.0015249
1.0013392
1.0010118
1.0005711
1.0000888
0.99961121
0.99915914
0.9987479
0.99838738
0.99809916
0.99790529
0.99780444
0.99781333
0.9979586
0.99824986
0.99871262
0.9993863
1.000359
1.0017274
1.0036129
1.0060299
1.0087401
1.0112634
1.0131652
1.0142688
1.0146214
1.0143395
1.0137526
1.013091
1.0124854
1.0120209
1.0116855
1.0115261
1.0114952
1.011579
1.0117775
1.0120922
1.0124637
1.0129275
1.0134411
1.01403
1.0146586
1.0153519
1.0159834
1.0165703
1.0170274
1.0174431
1.0178207
1.0181284
1.0183077
1.0184654
1.0185453
1.018573
1.0184969
1.018454
1.0183899
1.0182562
1.0181234
1.0181146
1.0178755
1.0177193
1.017663
1.0176445
1.0173774
1.0172803
1.0173801
1.0172235
1.0170762
1.0171701
1.0173033
1.0167375
1.0168607
1.0168758
1.0011023
1.0014595
1.001711
1.0017076
1.0015879
1.0015567
1.0016477
1.0016883
1.0015907
1.0014258
1.001295
1.0012514
1.0012965
1.0013864
1.0014749
1.0015182
1.0014708
1.0012998
1.0009777
1.0005497
1.0000799
0.99960665
0.99915713
0.99874715
0.99838719
0.99809592
0.9978981
0.99779401
0.99779346
0.99792982
0.9982093
0.99865484
0.99930666
1.0002431
1.0015561
1.003381
1.0057528
1.0084866
1.0111218
1.0131531
1.0143677
1.0147504
1.01446
1.0138513
1.0131593
1.0125363
1.0120543
1.0116972
1.0115007
1.0114485
1.0115278
1.0117077
1.0120224
1.0123667
1.0128334
1.0133569
1.0139093
1.0145491
1.0152196
1.015887
1.0165082
1.0170054
1.017464
1.0178728
1.018211
1.0184151
1.0185839
1.0186771
1.0186913
1.0186365
1.0185968
1.0184583
1.0184768
1.0182553
1.0181053
1.0179771
1.0178741
1.0176024
1.0175627
1.0175078
1.017282
1.0173035
1.0170646
1.017255
1.016874
1.0169036
1.0171572
1.016622
1.0169644
1.0011038
1.0014855
1.0017636
1.0017866
1.0016738
1.0016371
1.0016986
1.0017072
1.0015786
1.0013871
1.0012399
1.0011869
1.0012215
1.0013028
1.0014013
1.0014592
1.0014186
1.0012555
1.0009533
1.000534
1.0000658
0.99960001
0.99915448
0.99874457
0.99838512
0.99809398
0.99789397
0.9977845
0.9977742
0.99790193
0.9981709
0.99859867
0.99922986
1.0001305
1.0013974
1.0031613
1.005494
1.0082335
1.0109511
1.0131138
1.0144417
1.0148741
1.014577
1.0139502
1.0132386
1.0125922
1.0120904
1.0117174
1.0115164
1.0114352
1.0114939
1.0116517
1.0119407
1.0122955
1.0127436
1.0132572
1.0138135
1.0144232
1.0151
1.0157812
1.0164273
1.0169692
1.0174582
1.0179095
1.0182584
1.0184897
1.0187074
1.0187905
1.0187871
1.0187654
1.0187266
1.0186321
1.0184781
1.0184124
1.0181775
1.018055
1.0177944
1.0178553
1.0176055
1.0174329
1.0175354
1.0173599
1.0169869
1.017219
1.0171866
1.0169879
1.0168693
1.0172147
1.0168681
1.0011048
1.0015082
1.0018103
1.0018588
1.0017537
1.0017069
1.0017442
1.0017247
1.0015785
1.0013603
1.0011912
1.0011258
1.0011582
1.0012483
1.0013472
1.0014022
1.0013709
1.0012237
1.0009264
1.000515
1.0000551
0.99959443
0.99915338
0.99874815
0.99838984
0.99809695
0.99789051
0.99777699
0.99775951
0.99787931
0.99813861
0.99855382
0.99916745
1.0000385
1.0012559
1.0029576
1.0052324
1.0079723
1.0107759
1.0130753
1.0145059
1.0149842
1.0146941
1.0140503
1.0133149
1.0126546
1.0121179
1.011717
1.0114863
1.0114002
1.011437
1.0115852
1.0118643
1.0122126
1.0126694
1.013144
1.0136968
1.0143268
1.0149978
1.0156728
1.0163349
1.0169209
1.0174448
1.0179316
1.0183005
1.0185721
1.0188151
1.0188963
1.0188963
1.0189167
1.0188202
1.0187539
1.0185709
1.0184943
1.0183117
1.0181458
1.01798
1.0178176
1.0177512
1.0176291
1.0173359
1.017081
1.0175113
1.0169253
1.0170902
1.0171771
1.0168234
1.016732
1.016792
1.0011052
1.0015288
1.0018509
1.0019233
1.0018304
1.0017746
1.0017855
1.0017409
1.0015672
1.0013324
1.0011453
1.0010709
1.0010891
1.0011747
1.0012708
1.0013484
1.0013311
1.0011891
1.0009032
1.0004985
1.0000452
0.99958976
0.99915748
0.99875061
0.99838767
0.99809325
0.99788621
0.9977698
0.9977466
0.99785731
0.99810271
0.99850702
0.99910429
0.99994443
1.0011216
1.0027657
1.0049946
1.0077325
1.0105921
1.0129955
1.0145429
1.0150885
1.0148003
1.0141491
1.0133876
1.0126998
1.0121634
1.0117636
1.0115047
1.0113981
1.0114238
1.0115573
1.0118048
1.0121486
1.0125764
1.0130497
1.0136094
1.0142235
1.0148753
1.0155717
1.0162402
1.0168535
1.0174155
1.0179367
1.0183205
1.0186602
1.0188861
1.0189823
1.0190094
1.0190225
1.0189364
1.0187848
1.0187565
1.0185498
1.0184497
1.0181632
1.0181487
1.0178303
1.0176421
1.0176693
1.0174495
1.0173052
1.0172113
1.0173405
1.0170006
1.0167751
1.0169004
1.0169268
1.0167439
1.0011053
1.0015471
1.0018871
1.001984
1.0019043
1.0018366
1.0018259
1.0017643
1.0015657
1.0013063
1.0010971
1.0010083
1.0010399
1.0011255
1.0012365
1.0013073
1.0012853
1.0011544
1.0008768
1.0004832
1.0000362
0.9995844
0.99915133
0.99875158
0.99839195
0.99809922
0.99788814
0.99776653
0.9977354
0.99784019
0.99807891
0.99846758
0.99904415
0.99986311
1.0010105
1.0026076
1.0047635
1.0074628
1.0103815
1.0129172
1.0145722
1.015181
1.0149076
1.0142455
1.0134689
1.0127683
1.0122045
1.0117579
1.0115108
1.0113855
1.011387
1.0114965
1.0117337
1.0120759
1.0124915
1.0129811
1.0135236
1.0141061
1.0147595
1.015448
1.0161416
1.0167722
1.0173873
1.0179184
1.0183407
1.0187165
1.0189639
1.019052
1.0191289
1.0190885
1.0190514
1.0189071
1.0188394
1.0186779
1.0184962
1.0183589
1.0180471
1.0179935
1.0178669
1.0175237
1.0174904
1.0175243
1.0171149
1.0173345
1.0169406
1.0171126
1.0170486
1.016999
1.0169182
1.0011052
1.0015629
1.0019192
1.0020402
1.0019695
1.0018872
1.001857
1.0017737
1.0015594
1.0012974
1.0010867
1.0009881
1.000988
1.0010636
1.0011816
1.0012549
1.0012475
1.0011257
1.0008587
1.0004718
1.00003
0.99958325
0.99915601
0.99875421
0.99839875
0.99810043
0.99788507
0.99776017
0.99772257
0.99781964
0.99804969
0.9984264
0.99898775
0.99977934
1.0008907
1.0024383
1.0045513
1.0072288
1.0101835
1.0128159
1.0145791
1.0152546
1.0150059
1.0143379
1.0135442
1.0128354
1.0122436
1.0118166
1.0115021
1.0113612
1.0113529
1.011461
1.0116796
1.0119884
1.0124136
1.0128921
1.0134054
1.0139848
1.0146532
1.0153379
1.0160456
1.0166886
1.0173438
1.0178871
1.0183534
1.0187441
1.0190107
1.0191292
1.0192206
1.0191895
1.0191338
1.0190254
1.0189073
1.0187392
1.0185182
1.0185121
1.0181832
1.0179491
1.0179862
1.0176247
1.0176231
1.0173504
1.0174623
1.0171585
1.0169905
1.0171391
1.0167903
1.0167089
1.0167808
1.0011048
1.0015767
1.0019443
1.0020876
1.0020311
1.0019442
1.0018923
1.0017901
1.0015478
1.0012542
1.0010214
1.0009188
1.0009366
1.00104
1.00114
1.0012224
1.0012185
1.0011012
1.000839
1.0004604
1.0000208
0.99957841
0.99915595
0.99875692
0.99839838
0.9981007
0.99788665
0.99776345
0.9977227
0.99781206
0.99802907
0.9983987
0.99894621
0.9997118
1.0007848
1.0022904
1.0043427
1.0069868
1.0099698
1.0126965
1.014578
1.0153298
1.0150974
1.0144272
1.0136251
1.0128711
1.0122941
1.0118238
1.0115415
1.0113732
1.0113434
1.0114324
1.0116265
1.0119325
1.0123349
1.0128065
1.0133117
1.0138984
1.0145468
1.0152388
1.0159485
1.0165995
1.017287
1.0178511
1.0183651
1.018769
1.0190386
1.0191983
1.019302
1.0192967
1.0192258
1.019104
1.0189956
1.0188201
1.0187106
1.0184407
1.0183719
1.0181771
1.0178065
1.0178576
1.0176244
1.0173965
1.0173742
1.0171374
1.0173116
1.0168792
1.0169186
1.0171079
1.0165161
1.0011043
1.0015883
1.001969
1.002133
1.0020864
1.0019771
1.0019227
1.0018144
1.0015581
1.0012525
1.0010084
1.0008948
1.0009107
1.000977
1.001097
1.0011869
1.0011861
1.0010768
1.000825
1.0004497
1.0000172
0.999578
0.99915614
0.99876139
0.9984016
0.99810649
0.99788549
0.9977545
0.99771007
0.99779173
0.99800349
0.99836101
0.99889439
0.9996492
1.0006944
1.002161
1.004163
1.0067579
1.0097593
1.0125782
1.0145616
1.015388
1.0151918
1.0145222
1.0136988
1.0129608
1.012326
1.0118699
1.0115353
1.0113702
1.0113233
1.0114048
1.011598
1.0118746
1.012259
1.0127392
1.0132458
1.013833
1.0144417
1.0151219
1.0158354
1.01651
1.017212
1.0178013
1.0183451
1.0187887
1.0190715
1.0192517
1.0193702
1.0193711
1.0193163
1.0192062
1.0190638
1.0189102
1.0188651
1.0185309
1.018368
1.0182598
1.0179234
1.0177955
1.0176611
1.0175324
1.0174467
1.0172514
1.0171039
1.0169788
1.0170967
1.01699
1.0167314
1.0011037
1.0015984
1.0019924
1.002173
1.0021406
1.0020194
1.0019546
1.0018246
1.0015497
1.0012323
1.0009778
1.0008591
1.0008651
1.0009491
1.0010578
1.0011522
1.0011593
1.0010554
1.000809
1.0004423
1.000016
0.99957926
0.99915967
0.9987645
0.99840882
0.99810854
0.99788703
0.99775099
0.99769908
0.99777637
0.99797931
0.99832914
0.99884526
0.99957501
1.0005957
1.0020183
1.003983
1.0065346
1.0095403
1.0124338
1.014527
1.0154317
1.0152716
1.0146096
1.0137803
1.0130142
1.0123804
1.0118899
1.0115707
1.0113531
1.011287
1.0113648
1.0115396
1.0118005
1.0121772
1.0126379
1.0131689
1.0137281
1.01433
1.0149978
1.0157195
1.0164196
1.0171341
1.0177525
1.0183099
1.0187819
1.0191049
1.019304
1.0194151
1.0194487
1.0193864
1.0193176
1.0191544
1.0190138
1.018856
1.0187
1.0184231
1.0181914
1.0181187
1.0178963
1.0176117
1.0175551
1.0174733
1.0175122
1.0169716
1.0172255
1.0170788
1.0164629
1.017036
1.001103
1.0016072
1.00201
1.0022066
1.002183
1.0020556
1.001979
1.001841
1.0015441
1.0012214
1.0009544
1.0008202
1.0008088
1.0009055
1.0010344
1.001125
1.0011366
1.0010349
1.0007962
1.0004368
1.0000105
0.99958008
0.99916425
0.99877127
0.99841653
0.99811248
0.99788992
0.99776013
0.99770445
0.99777345
0.99796724
0.99830826
0.99881359
0.99952711
1.0005165
1.0019012
1.0038147
1.0063308
1.0093333
1.012294
1.014491
1.0154737
1.0153468
1.0146827
1.0138525
1.013073
1.0124363
1.0119306
1.0115842
1.0113908
1.0112926
1.0113367
1.0114953
1.0117697
1.0121216
1.012553
1.01307
1.0136162
1.0142318
1.0148985
1.0156133
1.0163313
1.0170421
1.0176925
1.0182856
1.018758
1.019108
1.0193509
1.0194668
1.0195215
1.019455
1.0194025
1.0192227
1.0191394
1.0188727
1.0187681
1.018529
1.0182714
1.0181859
1.0179537
1.0177384
1.0176657
1.0174564
1.0173689
1.0172002
1.0171281
1.0171652
1.0167021
1.0172099
1.0011023
1.0016149
1.0020279
1.0022362
1.00222
1.0020832
1.0020133
1.0018616
1.0015543
1.0011982
1.0009374
1.0008072
1.000806
1.0008859
1.001002
1.0010921
1.0011135
1.0010164
1.0007815
1.0004296
1.0000064
0.99957968
0.9991641
0.9987743
0.9984185
0.99812144
0.99789684
0.99775854
0.99770125
0.99776145
0.99794882
0.99827889
0.99877632
0.999476
1.000439
1.001793
1.0036559
1.0061284
1.009118
1.0121338
1.0144203
1.0154931
1.0154159
1.0147731
1.013932
1.013136
1.0124663
1.0119709
1.0115936
1.0113805
1.0112929
1.0113221
1.0114755
1.0117355
1.0120754
1.0124956
1.0129846
1.0135282
1.0141556
1.0148117
1.0155121
1.0162304
1.0169483
1.0176245
1.0182403
1.0187348
1.0190987
1.0193718
1.0195213
1.0195695
1.0195516
1.0194499
1.0192715
1.0192288
1.0190071
1.0187443
1.0186415
1.0184178
1.0182585
1.0179561
1.0177621
1.017788
1.0175794
1.0171149
1.0175361
1.0171024
1.0169178
1.0171228
1.0169054
1.0011015
1.001621
1.0020473
1.0022659
1.0022563
1.0021152
1.002035
1.001872
1.0015492
1.0011952
1.0009096
1.0007654
1.0007809
1.0008561
1.0009706
1.001077
1.0010931
1.0010016
1.0007715
1.0004204
1.0000069
0.99957589
0.99916669
0.99877637
0.99842124
0.99812611
0.99789668
0.99775236
0.99769068
0.99774624
0.99792812
0.99825178
0.99873659
0.9994196
1.000363
1.0016849
1.0035123
1.0059437
1.0089135
1.0119809
1.01437
1.0155128
1.0154792
1.0148549
1.0140002
1.0131925
1.0125153
1.0119963
1.0116349
1.011389
1.0112706
1.0112936
1.0114358
1.0116725
1.012025
1.0124352
1.0129146
1.0134674
1.0140801
1.0147142
1.0153981
1.0161226
1.0168491
1.0175403
1.0181661
1.0187061
1.0190901
1.0193728
1.0195523
1.0195994
1.0196318
1.0194969
1.0193625
1.0192494
1.0191283
1.0187976
1.0186717
1.0185401
1.0182214
1.0180455
1.017936
1.017716
1.0177241
1.0172077
1.0174454
1.0173091
1.0167828
1.0173026
1.0167804
1.0011007
1.0016263
1.0020606
1.0022917
1.0022884
1.0021439
1.0020583
1.0018783
1.0015432
1.0011822
1.0009021
1.0007672
1.0007522
1.0008321
1.0009513
1.0010591
1.0010817
1.0009912
1.0007651
1.0004166
1.0000056
0.99958139
0.99917047
0.99878032
0.99842957
0.99812724
0.99789546
0.99775104
0.99768708
0.99773824
0.99791422
0.99823051
0.99870433
0.99937068
1.0002956
1.0015843
1.0033732
1.0057647
1.0087153
1.0118137
1.0142849
1.0155191
1.0155408
1.0149197
1.0140712
1.0132528
1.0125742
1.0120351
1.0116499
1.0114201
1.0112782
1.0112786
1.011395
1.0116334
1.0119688
1.0123605
1.0128516
1.0133933
1.0139864
1.0146039
1.0152847
1.0160226
1.0167551
1.0174681
1.0181107
1.018664
1.0191053
1.0193702
1.0195712
1.019648
1.0196726
1.0195429
1.0195069
1.0193093
1.0191611
1.0189347
1.0186787
1.0186191
1.0182375
1.0180542
1.0181366
1.0176659
1.0175803
1.0176267
1.0171853
1.0172803
1.0171163
1.0170625
1.0169481
1.0011
1.001631
1.002072
1.0023114
1.00231
1.0021714
1.0020814
1.0019001
1.0015472
1.0011674
1.000884
1.0007335
1.0007115
1.000803
1.00094
1.0010403
1.0010714
1.0009824
1.0007599
1.0004168
1.0000056
0.99958692
0.99917652
0.99878867
0.99843636
0.99813361
0.99790018
0.99775675
0.99768796
0.99773346
0.99790331
0.99821037
0.99867574
0.99932924
1.0002361
1.0014898
1.0032412
1.0055957
1.0085239
1.0116538
1.014199
1.0155156
1.0155947
1.0149878
1.0141457
1.0133142
1.0126145
1.0120868
1.0116713
1.0114092
1.0112849
1.0112686
1.0113731
1.011609
1.0119179
1.0123035
1.0127842
1.0132979
1.0138837
1.0144988
1.0151826
1.0159291
1.0166465
1.0173763
1.0180522
1.0185996
1.0190712
1.0193715
1.0195672
1.0196872
1.019688
1.0195992
1.0195719
1.0193781
1.0191499
1.0190215
1.0187708
1.0185999
1.0183753
1.0181153
1.0180856
1.0177999
1.017471
1.0178484
1.0171941
1.0170749
1.0174555
1.0168457
1.0169649
1.0010992
1.001635
1.0020847
1.0023303
1.0023313
1.0021894
1.0020974
1.0019055
1.0015481
1.0011689
1.0008618
1.0007135
1.0007141
1.0008026
1.0009206
1.0010214
1.0010549
1.00097
1.0007557
1.0004157
1.0000078
0.99958851
0.99918091
0.99879663
0.99844409
0.99813991
0.99790873
0.99776413
0.99768996
0.99772793
0.99789105
0.99819072
0.99864727
0.99928899
1.000178
1.0014038
1.0031156
1.0054354
1.0083398
1.0114887
1.0141115
1.015513
1.0156379
1.0150578
1.0142165
1.0133735
1.0126576
1.0121173
1.0117122
1.0114306
1.011275
1.0112468
1.011346
1.0115628
1.011875
1.0122636
1.012715
1.0132182
1.013807
1.0144353
1.0151014
1.0158297
1.0165457
1.0172895
1.0179918
1.0185708
1.0190234
1.0193608
1.0196011
1.0197178
1.0197235
1.0196893
1.0195885
1.0194771
1.0192347
1.0190441
1.0189294
1.0185563
1.0184815
1.0183374
1.0179716
1.017929
1.0176214
1.0177006
1.0174667
1.017052
1.0174023
1.0170478
1.0168238
1.0010985
1.0016382
1.0020948
1.002348
1.0023523
1.0022128
1.0021092
1.0019129
1.0015519
1.0011576
1.0008658
1.0006987
1.0006946
1.0007858
1.0009002
1.001004
1.00104
1.0009619
1.0007479
1.0004139
1.0000102
0.99958855
0.99918585
0.99880179
0.99845089
0.99814703
0.9979148
0.99776678
0.99769
0.99772115
0.99787803
0.99817137
0.99861984
0.99924765
1.0001213
1.0013234
1.002996
1.0052814
1.008158
1.0113183
1.0140037
1.0154951
1.0156693
1.0151146
1.0142805
1.013426
1.0127048
1.0121378
1.0117262
1.0114633
1.0112782
1.011233
1.0113132
1.0115165
1.0118268
1.0122073
1.0126495
1.0131563
1.0137368
1.0143648
1.0149981
1.0157174
1.0164362
1.017191
1.0179069
1.0185102
1.0189499
1.0193317
1.0195816
1.0197414
1.0197178
1.0197564
1.0195633
1.0194671
1.0192864
1.0190438
1.0190064
1.0186064
1.0185032
1.0184557
1.0179869
1.017946
1.0179352
1.0173989
1.0175732
1.0174432
1.0170848
1.0172314
1.0169384
1.0010978
1.0016408
1.0021023
1.0023618
1.002368
1.002235
1.0021259
1.0019148
1.0015512
1.0011539
1.0008625
1.0006959
1.000672
1.0007479
1.000876
1.0009938
1.0010301
1.0009539
1.0007417
1.000414
1.0000087
0.99959221
0.99919105
0.99880558
0.99845563
0.99815397
0.99791774
0.99776477
0.9976874
0.99771477
0.99786696
0.99815308
0.99859531
0.9992106
1.0000681
1.0012483
1.0028839
1.0051358
1.007984
1.0111535
1.0139006
1.0154847
1.0157155
1.0151781
1.0143508
1.01349
1.0127642
1.0121876
1.0117523
1.0114748
1.0112946
1.0112431
1.0113042
1.0115048
1.0117915
1.0121542
1.0125969
1.0131159
1.0136809
1.014294
1.0149191
1.0156159
1.0163459
1.0170977
1.0178233
1.0184505
1.0189224
1.0193286
1.0195898
1.0197766
1.0197479
1.019815
1.0196613
1.019559
1.0193861
1.0191554
1.0190073
1.0187899
1.0185383
1.0184072
1.0181591
1.017955
1.0180928
1.0173646
1.0174204
1.0177697
1.0170234
1.0171523
1.0170761
1.0010973
1.001643
1.002106
1.0023722
1.0023803
1.0022533
1.0021372
1.0019198
1.0015496
1.0011494
1.0008386
1.000686
1.0006659
1.0007399
1.0008678
1.0009857
1.0010229
1.0009488
1.0007396
1.0004096
1.0000109
0.99959653
0.99919629
0.99881059
0.99846038
0.99815835
0.9979204
0.99776376
0.99768389
0.99770776
0.99785557
0.9981342
0.99857033
0.99917486
1.0000166
1.0011736
1.0027759
1.0049933
1.0078165
1.0109882
1.013795
1.0154061
1.0157308
1.0152173
1.0143994
1.0135348
1.0128033
1.0122216
1.0117802
1.011471
1.0112879
1.0112289
1.0112886
1.0114792
1.0117494
1.0120984
1.012528
1.0130507
1.0135991
1.0141943
1.0148029
1.0155163
1.0162515
1.0170009
1.0177328
1.0183543
1.0188855
1.0192752
1.0195181
1.019724
1.0197398
1.0197535
1.0196818
1.0195723
1.0193528
1.0192687
1.0188807
1.0188817
1.0186276
1.0182795
1.0182852
1.0179963
1.0179618
1.0176395
1.0173389
1.0176881
1.0172572
1.0171223
1.0170394
1.0010967
1.0016447
1.0021108
1.0023832
1.0023865
1.0022645
1.002139
1.0019273
1.0015562
1.0011495
1.0008313
1.0006693
1.0006494
1.0007413
1.0008634
1.0009705
1.0010141
1.0009412
1.0007379
1.0004069
1.0000131
0.99960176
0.99919884
0.99881494
0.998464
0.99815954
0.99792072
0.99776348
0.99768031
0.9976987
0.99784206
0.99811575
0.9985444
0.99913948
0.99996754
1.0011025
1.0026752
1.0048553
1.0076567
1.0108293
1.0136845
1.0154368
1.015767
1.0152739
1.0144591
1.0135847
1.0128454
1.0122505
1.0118075
1.0114889
1.0112859
1.0112032
1.0112662
1.0114359
1.0117071
1.0120501
1.0124583
1.0129733
1.0135173
1.0141142
1.0147328
1.0154316
1.0161587
1.0169083
1.0176484
1.0182785
1.0188535
1.0192732
1.0195664
1.0197112
1.0198695
1.0197651
1.0198117
1.0196319
1.0194524
1.019349
1.0189618
1.0188938
1.0187433
1.0182924
1.0183394
1.0181462
1.0177167
1.0179016
1.0176076
1.0173807
1.0173684
1.0172638
1.016927
1.0010962
1.0016457
1.0021172
1.0023941
1.0023943
1.0022725
1.0021368
1.0019214
1.0015485
1.0011452
1.0008311
1.0006615
1.0006339
1.0007251
1.0008457
1.0009497
1.0009993
1.0009301
1.0007308
1.0004043
1.0000112
0.99960071
0.9991962
0.99881401
0.99846168
0.99815529
0.99791518
0.99775763
0.99767137
0.9976832
0.99782125
0.9980892
0.99851004
0.99909463
0.99991156
1.0010262
1.0025695
1.0047111
1.0074883
1.0106525
1.0135321
1.01529
1.0157392
1.0152916
1.0144962
1.0136131
1.0128705
1.0122621
1.0118095
1.0114954
1.0112797
1.0111753
1.011229
1.0113789
1.0116522
1.0119885
1.0123851
1.0128798
1.0134268
1.0140165
1.0146223
1.0153122
1.0160337
1.016794
1.0175337
1.0181745
1.0187472
1.0191707
1.0194418
1.0196351
1.0197755
1.0197295
1.0197493
1.0195935
1.0194379
1.0192751
1.0190443
1.0188602
1.0187226
1.018385
1.018308
1.0182187
1.0176089
1.0178758
1.0178739
1.0172154
1.0173227
1.0173158
1.0169339
1.0010957
1.0016464
1.0021213
1.0024039
1.0024019
1.002281
1.0021336
1.0019066
1.0015306
1.0011285
1.0008156
1.0006326
1.0006097
1.0006934
1.0008178
1.0009276
1.0009741
1.0009068
1.0007093
1.0003882
0.99999369
0.99958292
0.99918037
0.99879853
0.99844644
0.99813858
0.99789642
0.99773779
0.99764998
0.99765666
0.99779057
0.99805233
0.99846567
0.99904045
0.99984626
1.0009436
1.0024591
1.0045663
1.0073231
1.0104844
1.0134186
1.0153122
1.0157509
1.0153112
1.0145259
1.0136321
1.0128838
1.0122649
1.0117944
1.011477
1.011256
1.0111446
1.0111767
1.0113189
1.011578
1.0119042
1.0123044
1.0127897
1.0133383
1.0139264
1.014532
1.015182
1.0159032
1.0166753
1.0174173
1.0180943
1.0186928
1.0191102
1.0194833
1.0196602
1.0198002
1.0198159
1.0197362
1.019624
1.0194876
1.0192163
1.0191763
1.0188342
1.0186719
1.018542
1.0182667
1.0181623
1.017808
1.0176762
1.0178801
1.017369
1.0172862
1.0171685
1.0170661
1.0010957
1.0016465
1.0021213
1.0024082
1.0024078
1.0022851
1.0021243
1.001886
1.0015117
1.0010973
1.0007744
1.0005875
1.0005584
1.0006395
1.0007652
1.0008839
1.0009287
1.000863
1.000665
1.0003491
0.99995484
0.99954349
0.99914402
0.99876106
0.99841056
0.99810066
0.99785542
0.99769385
0.9976041
0.9976062
0.99773577
0.99799
0.99839625
0.99896176
0.99975256
1.0008312
1.0023174
1.0043879
1.0071137
1.0102475
1.0131992
1.0151119
1.015677
1.0152873
1.0145293
1.0136312
1.0128793
1.0122543
1.0117719
1.0114394
1.011215
1.0111057
1.0111161
1.0112643
1.0114946
1.0118082
1.012209
1.0126749
1.0132169
1.0137823
1.0143955
1.0150258
1.015728
1.0165022
1.0172287
1.0179355
1.0184718
1.0189324
1.0192795
1.0195355
1.019622
1.0196976
1.01963
1.0195332
1.0194062
1.0191184
1.0191883
1.0188528
1.0185218
1.0186027
1.0182565
1.0179591
1.0180586
1.017591
1.0176422
1.0175153
1.0173322
1.0169072
1.017141
1.0010965
1.0016438
1.002116
1.0024084
1.00241
1.0022822
1.0021088
1.0018712
1.0015018
1.0010766
1.0007459
1.0005596
1.0005156
1.0005838
1.0007013
1.0008243
1.0008722
1.0008085
1.0006111
1.000296
0.99990401
0.99949298
0.99909396
0.99870984
0.99836007
0.99804784
0.99779888
0.99763397
0.99754166
0.99753947
0.99766439
0.99791188
0.99831103
0.99886846
0.99964703
1.0007119
1.0021777
1.0042213
1.0069269
1.010064
1.0130558
1.0150653
1.0156154
1.0152219
1.0144719
1.013569
1.0128083
1.0121707
1.0116826
1.011333
1.011102
1.0109877
1.0109861
1.011141
1.0113498
1.0116613
1.012066
1.0125283
1.0130543
1.0136042
1.0142385
1.0148531
1.0155388
1.0163144
1.0170435
1.0177798
1.0183251
1.018857
1.0191354
1.0195099
1.01952
1.0196656
1.0195757
1.0194349
1.0193313
1.019076
1.0190292
1.0188257
1.0184238
1.0184631
1.0182068
1.0177337
1.0180358
1.0175783
1.0172981
1.0174682
1.0173126
1.0167387
1.0170363
1.0010984
1.0016296
1.0020937
1.0023924
1.0023984
1.0022759
1.0021009
1.0018987
1.0015555
1.0011396
1.000805
1.0006037
1.0005454
1.0005927
1.0006938
1.0008052
1.0008545
1.0007913
1.0005945
1.0002798
0.99988951
0.99947779
0.99907536
0.99868888
0.99833514
0.99801917
0.99776476
0.99759308
0.99749458
0.99748493
0.99760176
0.99784093
0.99823003
0.9987745
0.99953561
1.0005774
1.0020123
1.0040161
1.0066822
1.0097882
1.012792
1.0148302
1.0154887
1.0151695
1.0144415
1.0135435
1.0127747
1.0121256
1.0116269
1.0112607
1.0110192
1.0108834
1.0108717
1.01101
1.0112054
1.011502
1.0118837
1.0123343