/*--------------------------------*- C++ -*----------------------------------*\
| =========                 |                                                 |
| \\      /  F ield         | OpenFOAM: The Open Source CFD Toolbox           |
|  \\    /   O peration     | Version:  2406                                  |
|   \\  /    A nd           | Website:  www.openfoam.com                      |
|    \\/     M anipulation  |                                                 |
\*---------------------------------------------------------------------------*/
FoamFile
{
    version     2.0;
    format      ascii;
    arch        "LSB;label=32;scalar=64";
    class       volVectorField;
    location    "10";
    object      U;
}
// * * * * * * * * * * * * * * * * * * * * * * * * * * * * * * * * * * * * * //

dimensions      [0 1 -1 0 0 0 0];

internalField   nonuniform List<vector> 
20580
(
(0.1340627 -2.2145032e-05 -1.1161772e-22)
(0.12701817 0.00029773192 -8.0021385e-20)
(0.12692616 0.00046695452 1.0910423e-21)
(0.12285639 0.0015669443 2.9510683e-20)
(0.11742306 0.0017352852 9.896906e-23)
(0.11618401 0.0033031055 1.4631695e-20)
(0.11720144 0.0027978211 -3.9162655e-20)
(0.11765843 0.0048723027 9.7300297e-21)
(0.11944068 0.0057378683 6.4965418e-23)
(0.12046768 0.0072677413 0)
(0.12097713 0.008530515 5.0557089e-21)
(0.12096007 0.0083449514 -2.9037258e-20)
(0.12026728 0.0085566806 -5.5691624e-21)
(0.11946292 0.0075561833 5.7442342e-21)
(0.11845 0.0057645956 8.4036216e-21)
(0.11738203 0.0039947258 -2.3156793e-21)
(0.11652695 0.0025512795 1.7236113e-20)
(0.11615979 -0.0005232324 1.5369218e-21)
(0.11526095 -0.0010488895 -1.6937748e-20)
(0.11558168 -0.0033846514 -7.6866869e-21)
(0.11682958 -0.0075650513 -5.7681316e-23)
(0.11635938 -0.0082347294 5.5813524e-21)
(0.11645622 -0.010457384 -3.068816e-21)
(0.11743983 -0.014676137 4.4257226e-21)
(0.11893077 -0.01869848 2.694703e-20)
(0.11860867 -0.021228268 2.7478672e-20)
(0.11906364 -0.022873485 -8.224553e-21)
(0.11933256 -0.026440726 -2.5894602e-21)
(0.1215814 -0.03253046 -1.3458034e-20)
(0.12477409 -0.03867596 2.7595407e-20)
(0.12872887 -0.046564506 -4.2077359e-21)
(0.13323022 0.0015108805 0)
(0.12692321 0.00054178727 5.4897422e-20)
(0.12700377 0.00041036929 5.0244994e-20)
(0.12258177 0.0022685471 -5.9939215e-20)
(0.11804398 0.0011374788 -2.545059e-20)
(0.11644044 0.00250352 -1.6229143e-22)
(0.11672922 0.003535281 5.4549617e-20)
(0.11797865 0.0041939567 1.6091862e-20)
(0.11957229 0.0054202597 -2.2705347e-20)
(0.12053006 0.0071371739 4.3107458e-21)
(0.12114692 0.0084573308 7.9712341e-21)
(0.12114373 0.0086578864 -5.7512177e-22)
(0.12069293 0.0084189786 -8.1096035e-21)
(0.12009764 0.0074126772 -3.4940672e-22)
(0.11909833 0.0058545544 -1.1203638e-20)
(0.11795169 0.0041526827 -6.4043215e-22)
(0.1172188 0.0027430507 -2.8128276e-21)
(0.11660842 0.00022966376 -8.9330087e-22)
(0.11572421 -0.00050141742 0)
(0.11658351 -0.0033352291 -2.4998795e-20)
(0.1170041 -0.0058978599 0)
(0.11625476 -0.0062518485 3.2992173e-20)
(0.11707068 -0.0082051995 5.3500605e-21)
(0.11847105 -0.012274664 3.2112061e-25)
(0.11959063 -0.016127647 1.2456558e-20)
(0.11896893 -0.0182463 -1.4848475e-20)
(0.11995401 -0.020450414 9.0882824e-21)
(0.12167069 -0.024375565 -2.7593834e-21)
(0.1238747 -0.031023869 3.0983495e-20)
(0.12708228 -0.034585478 -5.4807338e-21)
(0.12955676 -0.041270588 1.5815187e-20)
(0.13211015 0.0033028538 0)
(0.12683925 0.00085904935 0)
(0.1269617 0.00056756192 -3.5477353e-19)
(0.12261948 0.0024876791 6.2253184e-19)
(0.11832428 0.0011653339 -1.0293027e-19)
(0.11658939 0.0016761145 1.4606408e-22)
(0.11674212 0.0042187015 -8.5242607e-20)
(0.1180805 0.0038217465 4.0452444e-20)
(0.11950882 0.0053049539 0)
(0.12054123 0.0069469906 4.0474771e-20)
(0.12132456 0.0079898067 -2.0219661e-20)
(0.12139505 0.0086401844 -7.1333375e-21)
(0.12109764 0.0079812165 0)
(0.120614 0.0070181922 6.818996e-22)
(0.11967231 0.0058737 -7.042578e-21)
(0.11850723 0.004251236 -2.8317e-21)
(0.11787164 0.0025070277 1.0083524e-21)
(0.11717145 0.00064736966 2.0325515e-21)
(0.11644007 -0.00050107396 4.5467106e-21)
(0.11744205 -0.0037615868 0)
(0.11746504 -0.0049637348 0)
(0.11666981 -0.0055720719 -1.7095094e-20)
(0.11794194 -0.0076817118 1.3934332e-20)
(0.11982689 -0.011152116 -1.8453005e-21)
(0.12054992 -0.013908306 5.2908446e-21)
(0.11965766 -0.015853367 -4.0270167e-21)
(0.12089139 -0.018640382 3.368008e-21)
(0.12406548 -0.022713633 3.2991078e-21)
(0.12581866 -0.029695265 -1.4016119e-20)
(0.12808977 -0.031889638 2.1907162e-20)
(0.13043428 -0.035084427 -8.0694556e-22)
(0.13089624 0.0039886391 0)
(0.126754 0.0011841232 5.2995157e-22)
(0.12703689 0.00088277264 -7.7933523e-21)
(0.12291158 0.0020668111 6.5404902e-21)
(0.11862068 0.0015995792 -2.734991e-19)
(0.11664051 0.0012748542 -4.3791576e-20)
(0.11674163 0.0042553344 -5.92594e-20)
(0.1181613 0.0034945507 0)
(0.11945189 0.005322776 -2.9754828e-22)
(0.12058521 0.0065345395 -1.5139811e-20)
(0.12142882 0.0073841289 -7.3225186e-20)
(0.12164336 0.0084608049 -3.9372904e-21)
(0.12149756 0.0076999577 -1.0117894e-22)
(0.12100997 0.0067467011 9.6634734e-21)
(0.12015479 0.0058967733 1.2901862e-20)
(0.11908903 0.0045453628 -1.5262801e-21)
(0.11847201 0.0023450732 -2.3393826e-20)
(0.11767061 0.00076492437 -2.2267158e-22)
(0.11719413 -0.0006652577 -1.8848691e-22)
(0.11811101 -0.0039925763 -6.1804708e-23)
(0.11784769 -0.0044311748 -5.3253925e-21)
(0.11734118 -0.0054881696 -2.9047867e-21)
(0.11882294 -0.0081811646 -2.3198713e-21)
(0.12068133 -0.011162802 1.7761694e-20)
(0.12122458 -0.011950077 0)
(0.120646 -0.013810478 -3.8268253e-21)
(0.12193996 -0.017797031 -1.0945827e-20)
(0.12620273 -0.021701296 -6.9267187e-21)
(0.12786995 -0.027344887 -4.3658353e-20)
(0.12837388 -0.030211865 2.0511265e-20)
(0.12973733 -0.031697843 5.4838346e-20)
(0.13053304 0.0032597324 0)
(0.12674184 0.0012748875 1.2395959e-19)
(0.12704623 0.0012101501 5.1570156e-19)
(0.12318198 0.0011806053 -3.6905491e-19)
(0.11881938 0.0020772694 -1.2761903e-21)
(0.11658367 0.0014537402 -9.844397e-20)
(0.11673351 0.0036521994 0)
(0.11806689 0.003297779 2.465703e-21)
(0.11935074 0.0053489578 -6.4687302e-21)
(0.12067374 0.0060151411 -1.0330681e-20)
(0.12152468 0.0068886519 -3.1447083e-20)
(0.12192747 0.007897187 2.4317666e-23)
(0.12192008 0.0074492366 5.7422596e-21)
(0.12138957 0.0066418213 -1.1387516e-20)
(0.12056554 0.0058166712 4.7141018e-21)
(0.11967087 0.0046804968 1.6920776e-20)
(0.11913713 0.0022794756 -3.0589019e-20)
(0.11818835 0.0009462083 6.2754539e-21)
(0.11792402 -0.00078973086 -3.3463957e-20)
(0.11868392 -0.0037327543 0)
(0.11818048 -0.0037804129 -4.9528269e-21)
(0.11810355 -0.0050529115 -3.255811e-22)
(0.11969855 -0.008181559 2.2189807e-20)
(0.12107659 -0.011214186 8.5086682e-22)
(0.12159864 -0.01062497 0)
(0.12205841 -0.012224648 1.8570836e-20)
(0.12330674 -0.017143212 -2.2523317e-20)
(0.12740879 -0.021423025 -1.5273904e-20)
(0.12956097 -0.023602803 -1.9030562e-20)
(0.12936243 -0.026716754 6.6333085e-21)
(0.12940492 -0.029965657 -7.6103819e-21)
(0.13075303 0.0012389358 -3.713962e-20)
(0.12662584 0.001385663 6.0150687e-22)
(0.12701733 0.0014949581 4.4137711e-23)
(0.12335992 0.00040392667 -7.5932694e-21)
(0.11897944 0.0021172243 6.7201516e-20)
(0.11658514 0.0022032608 -3.0992386e-22)
(0.11680065 0.0027759907 -3.1677229e-20)
(0.11794116 0.0033914593 1.079197e-22)
(0.11921353 0.0051808849 -2.4997748e-20)
(0.12069456 0.0055798407 -3.449468e-20)
(0.12161096 0.0064924375 -2.5093833e-21)
(0.12214125 0.007148113 -2.1556127e-21)
(0.12226513 0.0072046886 6.3626356e-21)
(0.12178417 0.0065695543 -6.2536465e-21)
(0.12093465 0.0056966671 9.9631908e-22)
(0.12018251 0.0045981083 2.620785e-22)
(0.11964353 0.0023124339 -2.0951972e-20)
(0.11863643 0.0014256212 -2.0831132e-21)
(0.11865492 -0.00084957853 1.0552682e-21)
(0.11913857 -0.0031019087 0)
(0.11844725 -0.0028412208 -4.4632094e-21)
(0.11895091 -0.0044163689 -1.5723068e-20)
(0.12080723 -0.007521804 -3.2477915e-20)
(0.12145855 -0.010518808 0)
(0.12168341 -0.0097496311 -3.2503764e-20)
(0.12342554 -0.011250488 -1.4503055e-20)
(0.12510876 -0.015703483 2.0813354e-20)
(0.12774333 -0.020701554 -4.5088765e-20)
(0.13000194 -0.020062039 -2.4514638e-20)
(0.13072303 -0.021399798 -1.7330286e-20)
(0.13069737 -0.026120274 2.3028532e-20)
(0.1316428 -0.0011686562 -4.0249204e-21)
(0.12678663 0.0013869743 7.3889208e-20)
(0.12697159 0.0015613517 2.9666954e-22)
(0.12324195 0.00011287791 5.6130193e-19)
(0.11893455 0.0017553753 -4.8158758e-20)
(0.11654123 0.0030774084 -1.9291431e-20)
(0.11686754 0.0020044593 6.6342416e-20)
(0.11784552 0.003645076 4.1726897e-23)
(0.11921468 0.004664081 -1.8308021e-22)
(0.12074276 0.0053748419 2.0887569e-20)
(0.1216993 0.0062244438 1.2823169e-22)
(0.12227086 0.0065256962 -4.3980042e-23)
(0.1224603 0.0068657742 -6.8526766e-21)
(0.12210752 0.006313916 -3.5374819e-23)
(0.12128549 0.0054918964 -2.0227116e-21)
(0.12065314 0.0043181851 1.2315701e-21)
(0.12001424 0.0022767781 -2.9353317e-22)
(0.11909112 0.0016491811 3.9344755e-20)
(0.11932002 -0.00085313982 0)
(0.1193984 -0.0025786539 9.9285139e-21)
(0.1187066 -0.0023836203 4.164731e-21)
(0.11968053 -0.0044015982 -9.5944806e-21)
(0.12176186 -0.0068540555 5.8996148e-22)
(0.12188768 -0.0090335609 -7.8083677e-21)
(0.12184673 -0.0092083551 -1.3308811e-20)
(0.1245102 -0.011355869 -2.6264144e-21)
(0.12705963 -0.014365986 -3.4381211e-21)
(0.12814588 -0.018525196 8.2495063e-22)
(0.12938624 -0.017628236 -1.1322989e-19)
(0.13147844 -0.017525947 2.3872697e-20)
(0.13282576 -0.021994122 -1.6059055e-21)
(0.13256371 -0.0027110101 6.5545602e-19)
(0.12707907 0.0011431794 0)
(0.12712747 0.0012190073 5.6534619e-19)
(0.12311809 0.00021072664 -4.9799803e-19)
(0.11867145 0.0012075251 2.0894198e-19)
(0.11655216 0.0033249868 -3.5532298e-22)
(0.11684558 0.0015207329 9.3986731e-21)
(0.11769956 0.0038711966 3.8447254e-22)
(0.11926103 0.0039415354 -3.57616e-21)
(0.12081721 0.0053033458 6.160048e-20)
(0.12186638 0.0060462679 -2.9536029e-20)
(0.12243997 0.0062483959 1.4343004e-22)
(0.12269161 0.0064361228 -8.7758835e-21)
(0.12243229 0.0059555237 -1.9178885e-21)
(0.12164709 0.0052338894 1.3335262e-20)
(0.12111033 0.003859745 2.5983796e-21)
(0.12032426 0.0021038017 2.302398e-21)
(0.11945669 0.0014152442 9.3398626e-21)
(0.1198162 -0.00080136946 9.9825596e-23)
(0.11957428 -0.0022164467 -5.4107178e-22)
(0.11899633 -0.0020992218 -2.9068483e-21)
(0.12014646 -0.0047931784 -3.2458403e-22)
(0.12222299 -0.0065617904 0)
(0.12224876 -0.0074038547 -4.4364225e-21)
(0.12228748 -0.0087780391 8.1789304e-21)
(0.12506839 -0.011448064 -1.4846564e-20)
(0.1281272 -0.013413168 1.8466887e-20)
(0.12867394 -0.014960537 3.1351282e-21)
(0.12898059 -0.01535675 2.8856204e-20)
(0.13203412 -0.01577013 -3.7127608e-20)
(0.13498217 -0.019733528 1.4310727e-20)
(0.133348 -0.0026253004 -2.366279e-19)
(0.12721231 0.00095353598 6.4367968e-23)
(0.12728468 0.00066877568 1.7845933e-19)
(0.12312018 0.00058121917 -4.0468171e-19)
(0.11853564 0.00079291179 1.2786424e-21)
(0.11661834 0.0027816638 -2.2047403e-22)
(0.11679631 0.0015624172 4.9506088e-20)
(0.11757723 0.0038321078 1.6413949e-23)
(0.11928728 0.0033641081 -1.7455078e-20)
(0.1207743 0.0051961391 -1.0096659e-20)
(0.1220119 0.0058420805 -3.3282021e-20)
(0.12267401 0.0062350717 0)
(0.12301649 0.0060480755 1.5459425e-22)
(0.12276564 0.005785714 -9.9272909e-22)
(0.12204241 0.0050669769 2.066611e-20)
(0.12159791 0.0035017404 -8.6938405e-21)
(0.12064735 0.0022520418 5.3636003e-21)
(0.11982352 0.0011283265 2.2114146e-20)
(0.12022902 -0.00095109644 1.1597494e-20)
(0.11963629 -0.0017197519 -1.1651521e-20)
(0.11929752 -0.0016499147 -4.2497384e-21)
(0.12061873 -0.0049995323 4.7851793e-22)
(0.12230252 -0.0061689252 -9.6501085e-22)
(0.1224854 -0.0056008177 -3.8752195e-21)
(0.12287006 -0.007911232 -5.0537538e-22)
(0.12523788 -0.010211987 -1.4278817e-21)
(0.12805126 -0.012292782 -3.6237957e-20)
(0.12869592 -0.011927839 2.2963476e-20)
(0.12890901 -0.013203963 -2.1293154e-21)
(0.13232359 -0.014728277 1.7778664e-20)
(0.13682331 -0.018328269 -3.6125566e-20)
(0.1339742 -0.0011076195 -2.8180424e-19)
(0.12711901 0.00093495936 5.9373841e-22)
(0.12725222 0.00024829128 -2.1738355e-19)
(0.12313031 0.0010364967 1.3087252e-19)
(0.11848044 0.00083747229 -1.3612994e-21)
(0.11675971 0.001696768 0)
(0.11673134 0.0021145692 4.8104401e-20)
(0.11756629 0.003508734 8.6044814e-20)
(0.1191847 0.0031898487 1.9385993e-20)
(0.12066987 0.0048316847 9.7833975e-21)
(0.12209424 0.0054899209 3.4470392e-24)
(0.12289963 0.0062048116 -2.4104649e-22)
(0.12329014 0.0057324571 0)
(0.12304847 0.0057435619 1.1053426e-20)
(0.12250023 0.0048638621 -9.1222745e-21)
(0.122052 0.0033006794 1.1423051e-21)
(0.12103687 0.0027017517 2.0583132e-20)
(0.12029632 0.0011311272 4.8261903e-20)
(0.12059693 -0.0009234505 9.5821692e-21)
(0.11967266 -0.00099875169 -9.0341608e-21)
(0.11977375 -0.0013961155 -1.8015967e-21)
(0.12112152 -0.0048119206 2.8828755e-20)
(0.12203048 -0.0056218236 -5.4427673e-20)
(0.12263362 -0.0037063228 -1.9601939e-20)
(0.12351924 -0.0065068089 -3.7916007e-20)
(0.12553822 -0.0084641965 1.2322491e-21)
(0.12780068 -0.010489829 4.1232383e-22)
(0.12845791 -0.0096350489 1.2490179e-20)
(0.1291649 -0.011698706 -1.2338713e-20)
(0.13217584 -0.014473528 -8.7563096e-21)
(0.1369297 -0.01746967 2.8542922e-20)
(0.13468853 0.0014796683 -1.0997221e-19)
(0.12716003 0.0011502389 8.2269527e-22)
(0.12709594 0.00018261789 4.0468578e-20)
(0.12311475 0.0013918704 5.372113e-22)
(0.11854178 0.0012210283 -2.36196e-22)
(0.11663371 0.00063151244 -5.7791638e-20)
(0.1166384 0.0027776283 3.8281743e-20)
(0.11766797 0.0027892899 1.1166815e-22)
(0.11918358 0.0033983643 1.1839933e-20)
(0.12076323 0.0041711202 -2.4583799e-20)
(0.12219542 0.0050313149 -3.5094605e-21)
(0.1230532 0.0058484393 -5.935765e-21)
(0.12348133 0.0053876941 0)
(0.12332981 0.0055098245 -4.6921083e-22)
(0.12297823 0.0044989214 -1.5581033e-20)
(0.12239855 0.0031419493 -1.3338959e-22)
(0.12138821 0.0031536489 1.6243022e-21)
(0.12083291 0.0013736728 -1.1682834e-22)
(0.12089594 -0.00068072952 -3.3161249e-21)
(0.11982682 -0.00048281111 8.7849403e-23)
(0.12034838 -0.0014288413 -6.1716326e-21)
(0.1217302 -0.0042554052 2.4850655e-20)
(0.12165152 -0.0050726471 -3.4736499e-21)
(0.12259927 -0.0028024792 4.5329465e-22)
(0.1241964 -0.0050589725 -2.0816631e-20)
(0.12592534 -0.0073890243 -1.3991857e-22)
(0.12765081 -0.0085865366 7.3266768e-21)
(0.1286843 -0.0076491542 3.1505607e-21)
(0.1302633 -0.01047834 1.1859431e-21)
(0.13251982 -0.014391203 3.0633659e-20)
(0.1357509 -0.017259335 -1.3568088e-20)
(0.13499011 0.0040041109 -5.1325174e-19)
(0.12742466 0.0015281354 0)
(0.12706995 0.00060052707 -1.3677198e-19)
(0.12299809 0.0014676883 6.4778559e-19)
(0.11855518 0.0016177973 2.5663686e-19)
(0.11655116 0.00015595644 2.890675e-20)
(0.11649707 0.0030833473 -4.3445187e-22)
(0.11770421 0.0019754717 -3.2082967e-23)
(0.11923971 0.003679859 5.4003166e-21)
(0.1208689 0.0034139477 -2.0242553e-20)
(0.1222102 0.0045687488 6.9355549e-21)
(0.12322213 0.005279842 -3.1011071e-23)
(0.12371616 0.0050085914 1.8698126e-20)
(0.12364184 0.0049745872 0)
(0.12340408 0.0041073464 -1.8569076e-20)
(0.12264208 0.0030083888 -1.4443049e-20)
(0.12166931 0.0032640973 9.4844058e-21)
(0.12147108 0.0012902483 1.9039196e-20)
(0.12129242 -0.00061779849 4.1364632e-22)
(0.12004555 -0.00026637102 -5.3803034e-21)
(0.12080827 -0.0016118552 -1.4507471e-20)
(0.122168 -0.0032708589 1.4437962e-22)
(0.12131793 -0.0042676254 3.7272916e-21)
(0.12236575 -0.0030368661 3.9411288e-20)
(0.12488575 -0.0043147304 3.191008e-20)
(0.12651221 -0.0072607065 -9.4336351e-22)
(0.12728617 -0.0075728751 -1.8148623e-20)
(0.12884332 -0.0066510728 7.3867875e-23)
(0.13182289 -0.0090916686 7.2816034e-20)
(0.13394328 -0.012987814 -1.9756714e-20)
(0.13571341 -0.016566323 -5.506438e-22)
(0.13473103 0.0051312313 2.1990429e-19)
(0.12779197 0.0018964117 1.4692428e-19)
(0.12723076 0.0013323032 -1.5026084e-21)
(0.12297688 0.0010384389 4.7947308e-21)
(0.11863643 0.0015309951 1.6682658e-23)
(0.11648001 0.00052048235 -2.3292361e-19)
(0.11644919 0.0026716967 1.108092e-19)
(0.11766852 0.0014906316 -1.058426e-22)
(0.11919377 0.0036280613 3.7765899e-22)
(0.12082829 0.0029420266 1.2293488e-21)
(0.12215698 0.0040812229 -2.9771725e-22)
(0.12336119 0.0046453158 -1.0991353e-20)
(0.12395962 0.0046183485 -6.6492566e-23)
(0.12393451 0.0043263823 1.114515e-22)
(0.12374506 0.0038009179 0)
(0.12284239 0.0028518391 0)
(0.12198837 0.0027926926 -2.4828529e-20)
(0.12203242 0.00074802337 -1.5557399e-21)
(0.12154127 -0.00045215219 1.9338026e-20)
(0.12020447 -3.4564622e-05 2.8193395e-21)
(0.12107808 -0.0018245609 -8.5939935e-21)
(0.12245091 -0.0022113621 -7.9200294e-21)
(0.12131455 -0.0033092221 0)
(0.12207043 -0.0037769904 0)
(0.12527441 -0.0043832855 0)
(0.12705135 -0.0069257213 1.37616e-21)
(0.12690603 -0.006754869 6.6649661e-22)
(0.12853517 -0.006652161 1.3740168e-20)
(0.13254204 -0.0081529359 4.8856476e-21)
(0.13537088 -0.010457448 2.3181225e-22)
(0.13683784 -0.013580218 -6.9674646e-21)
(0.13461927 0.0039779926 9.1580744e-20)
(0.12795714 0.0021902928 2.2154472e-21)
(0.12730947 0.0018877799 1.324312e-21)
(0.12306757 0.00044123953 -1.4633748e-19)
(0.1186807 0.00091080578 0)
(0.116502 0.0013302561 -8.858173e-22)
(0.11649091 0.0017061037 5.5904801e-20)
(0.11752493 0.0015133023 9.0790355e-20)
(0.11906256 0.0030681229 -6.0910633e-23)
(0.12080913 0.0029456375 3.1999201e-20)
(0.12212216 0.0037943817 -1.3354589e-20)
(0.1234282 0.0040725052 0)
(0.12408164 0.0043221918 2.5143176e-20)
(0.12411303 0.0038914874 2.5794897e-20)
(0.12401038 0.0035868358 2.3151452e-20)
(0.12310675 0.0026367322 -2.3039805e-21)
(0.12241761 0.0019431239 -1.0939099e-20)
(0.12245503 0.00012342779 1.6480587e-21)
(0.12163755 -0.00015304217 7.5400731e-21)
(0.12048272 0.0001422273 2.9631497e-21)
(0.12121829 -0.0022827589 2.0020787e-23)
(0.12261896 -0.0016502783 -2.4808551e-20)
(0.12175551 -0.0019876558 1.5179494e-20)
(0.12200257 -0.004192316 0)
(0.1253099 -0.0048736921 3.3354414e-21)
(0.12719875 -0.0059160274 6.8507303e-21)
(0.12679512 -0.0056486787 2.9349753e-21)
(0.12815015 -0.0071092703 -1.1172793e-20)
(0.13209858 -0.0085388968 1.5394902e-20)
(0.13555091 -0.0086766322 1.0086729e-20)
(0.13715418 -0.0095803706 1.5207571e-21)
(0.13501923 0.001201289 -6.2646705e-20)
(0.12797142 0.0018897724 -3.6957551e-20)
(0.12730778 0.0016854768 -2.03067e-22)
(0.12321421 -8.0631418e-05 -2.6717294e-19)
(0.1187136 4.6017319e-05 -1.0740294e-19)
(0.11630637 0.002001053 7.0764365e-23)
(0.1165559 0.00064072369 -8.1808018e-20)
(0.11740697 0.0017552334 -2.2008764e-20)
(0.11907714 0.002211071 1.4721796e-22)
(0.12090189 0.003123892 -2.5341266e-22)
(0.12217762 0.0036328669 8.5784874e-21)
(0.12348428 0.0034172287 9.3900707e-23)
(0.12416708 0.0039794183 -1.5510504e-22)
(0.12429241 0.0035983067 -2.426861e-22)
(0.12431189 0.0033095524 3.2649644e-21)
(0.12348414 0.0025854721 -2.4192433e-22)
(0.12284599 0.00146441 -2.0875533e-20)
(0.12276591 0.00024806391 1.3405688e-21)
(0.12170086 0.00055350766 3.0388787e-21)
(0.12094719 0.00054172633 0)
(0.12136022 -0.0025698777 4.1010918e-21)
(0.12232804 -0.0017652909 3.4517646e-23)
(0.12237186 -0.00039193975 1.9385946e-20)
(0.1225392 -0.0037018684 6.8684272e-22)
(0.12503186 -0.0054353927 -1.3743371e-20)
(0.12689055 -0.0046449717 2.9120243e-20)
(0.12722236 -0.0037796825 6.3457381e-21)
(0.12851668 -0.006651571 -1.2303357e-22)
(0.13133258 -0.0088765366 -5.5943078e-21)
(0.13437046 -0.0078789669 -2.4684235e-20)
(0.1361898 -0.0070903776 -3.2426367e-21)
(0.13574825 -0.0017468667 2.0828562e-19)
(0.12799898 0.0015254411 -8.843482e-23)
(0.12733575 0.0010226898 1.4457436e-19)
(0.12329181 -0.00028978608 -5.5215587e-21)
(0.11847949 -0.00015681625 7.241985e-22)
(0.11628644 0.0020688201 2.2251254e-20)
(0.11652944 0.00019526724 0)
(0.11734401 0.0021421134 2.8202577e-22)
(0.11906072 0.0014897778 -2.175149e-23)
(0.12077589 0.0031970778 -2.2500299e-20)
(0.12220292 0.0034537008 -8.3790529e-24)
(0.1235601 0.002984209 -7.464228e-23)
(0.12430758 0.003605847 -1.0109725e-20)
(0.12450659 0.0033136996 -1.714589e-20)
(0.1245576 0.0026742928 2.3629669e-20)
(0.12384895 0.002493155 1.694502e-21)
(0.1231677 0.0014863337 4.0108761e-22)
(0.12286602 0.00072043881 2.8447801e-22)
(0.12176028 0.0012167387 0)
(0.12163634 0.00075590922 3.2730842e-20)
(0.12184402 -0.0025614693 3.8176516e-20)
(0.121761 -0.0022881346 2.2124235e-20)
(0.1225979 0.00039578115 -7.9427235e-21)
(0.1235313 -0.0024171512 1.3438698e-21)
(0.12481188 -0.0055145691 -5.5917906e-21)
(0.12603113 -0.00359317 -2.9816976e-20)
(0.12738118 -0.0017936163 -5.8840165e-21)
(0.12968002 -0.0048005035 -2.118118e-20)
(0.13109238 -0.0076180868 8.6661353e-22)
(0.13310637 -0.0071509705 -2.1857854e-20)
(0.13514796 -0.0062162083 -7.6512344e-22)
(0.13582038 -0.0035343193 2.7813951e-19)
(0.12805105 0.0010318784 4.2320831e-23)
(0.1276979 0.00018958376 5.1946479e-21)
(0.1232713 -0.0003458419 4.7940513e-19)
(0.11831195 0.00015444819 -2.9460634e-21)
(0.11640771 0.0012632138 1.4012782e-19)
(0.11645583 0.00030693392 0)
(0.11725786 0.0020791877 0)
(0.11891064 0.0010024183 -9.5643595e-21)
(0.12054882 0.0028564003 0)
(0.12227819 0.0028757847 4.3930451e-20)
(0.12360014 0.0025611424 -2.3931782e-20)
(0.12436123 0.0031647489 0)
(0.12475621 0.002797986 2.701494e-21)
(0.12477129 0.0021195815 2.7439039e-20)
(0.12405176 0.0024965476 -3.7682809e-21)
(0.12343762 0.0017250514 -6.0586814e-22)
(0.12297733 0.0012582429 3.173613e-21)
(0.12185174 0.0013287734 -2.4806229e-20)
(0.12224193 0.00062138221 1.0438447e-20)
(0.12239253 -0.0019576661 -6.1420506e-20)
(0.12117449 -0.0021879641 -9.7754016e-23)
(0.12223119 2.1751732e-05 1.3431556e-20)
(0.12448402 -0.0013314698 2.6863865e-20)
(0.1250483 -0.0047655205 -8.6657552e-21)
(0.12487747 -0.0028642761 -8.2765731e-20)
(0.12695384 -0.00097369285 9.382407e-21)
(0.13065933 -0.0030409862 8.5441523e-22)
(0.13154365 -0.0052747631 -2.4326008e-20)
(0.1324712 -0.0059980648 3.2694453e-20)
(0.13436655 -0.0053457879 8.2434966e-21)
(0.13622083 -0.0034682956 -2.2373665e-19)
(0.12795411 0.00093524913 -4.402522e-22)
(0.12788473 -0.00059505049 -4.1158191e-19)
(0.12336057 -9.7133978e-05 -1.1918399e-19)
(0.11831578 0.00078725319 3.505159e-19)
(0.11647841 0.00041515613 5.4418111e-22)
(0.1163193 0.0010889345 3.872788e-22)
(0.11716689 0.0015911061 6.7430368e-20)
(0.11878841 0.0010969811 -5.2006613e-21)
(0.12044058 0.0023242971 -6.7842455e-21)
(0.12239068 0.0021800582 -1.7096936e-20)
(0.12359375 0.0025069598 2.7935581e-22)
(0.12434412 0.0027185035 -1.4839813e-20)
(0.12488137 0.0022599931 7.8239026e-21)
(0.12483033 0.001519513 3.9816534e-21)
(0.1241847 0.0021672523 -3.969294e-21)
(0.1236963 0.0014998411 -1.9603916e-20)
(0.1231198 0.00083768514 3.0265454e-20)
(0.12205637 0.00018732192 -1.8891877e-21)
(0.1226547 -0.0001673453 3.643851e-21)
(0.12284483 -0.0010026788 -4.2452612e-20)
(0.12095786 -0.0012791528 -8.794158e-21)
(0.12177652 -0.00088791215 2.1287918e-20)
(0.12494832 -0.0009584927 6.6914193e-24)
(0.12527222 -0.0028516359 -1.5827258e-20)
(0.12392336 -0.0017118655 2.1298213e-20)
(0.1263043 -0.0017582363 4.2344535e-22)
(0.13069529 -0.0025403443 -3.4053424e-21)
(0.13218032 -0.0028745222 1.2775956e-20)
(0.13226283 -0.004213351 -4.7990542e-21)
(0.13357003 -0.0041744598 1.4672586e-22)
(0.13724817 -0.0010127564 -1.81195e-19)
(0.12787042 0.00071513134 -1.9327875e-22)
(0.12774344 -0.00046574019 5.0750566e-22)
(0.123289 -0.00010496089 2.4703124e-21)
(0.11835769 0.00069414163 -7.941776e-20)
(0.11624631 -0.000445225 -1.3395002e-19)
(0.11620488 0.0012687797 3.3530189e-20)
(0.11720877 0.00080563417 -8.8519699e-21)
(0.11878102 0.0012961024 -9.733426e-21)
(0.12046744 0.0015464881 -8.6523799e-23)
(0.12239214 0.0013697373 -1.6947772e-20)
(0.12360913 0.0021894083 -5.2019455e-20)
(0.12452626 0.0022335206 -3.6178799e-22)
(0.12514642 0.0017789406 -3.2898428e-21)
(0.1249623 0.0018688247 1.4728327e-22)
(0.12424232 0.0019252966 3.3831746e-21)
(0.12402293 0.00080452031 5.4174032e-21)
(0.12356637 0.00087344361 0)
(0.12224983 -0.00016478827 4.5778734e-22)
(0.12265946 -0.0011281249 -6.3916265e-23)
(0.12292315 -0.00021762171 1.7112667e-21)
(0.12116943 -0.00017304269 8.2415424e-21)
(0.12150638 -0.0019968397 -8.3543677e-21)
(0.12472475 -0.0020487387 2.1546818e-20)
(0.12525209 -0.00074853632 -3.6025254e-21)
(0.12386027 -0.00037108457 8.3854964e-21)
(0.12580067 -0.0026698044 4.5478029e-21)
(0.12960819 -0.0030457225 9.2219139e-21)
(0.1320402 -0.0015954607 9.2817563e-21)
(0.13246534 -0.0024009448 1.5086649e-20)
(0.13311081 -0.0033185302 2.0830568e-20)
(0.13769917 0.001767085 4.6929402e-20)
(0.12798785 0.0011122791 4.5856446e-20)
(0.12768442 0.00020655907 1.0736257e-19)
(0.1233054 0.00011710522 -4.618882e-19)
(0.11835827 0.00070772987 1.0202466e-21)
(0.11611175 -0.0001791387 8.549013e-23)
(0.11608643 0.0012486473 -8.423525e-23)
(0.11716941 0.00052588617 3.4491011e-20)
(0.11870722 0.0015128617 1.6739532e-20)
(0.12043531 0.00092004245 7.9617633e-22)
(0.12224839 0.0010935581 4.4954058e-21)
(0.12357857 0.002217579 1.4910072e-22)
(0.12463126 0.0016248145 1.6703375e-21)
(0.12515172 0.0014986302 1.2305894e-23)
(0.12498731 0.001433524 4.7626361e-20)
(0.12465246 0.0012982675 -3.8108971e-21)
(0.12408781 0.00026164583 9.2666977e-23)
(0.12370378 0.00038211468 -2.4827113e-22)
(0.12282547 6.0953791e-05 8.0573081e-20)
(0.12262124 -0.0016363961 1.0802178e-20)
(0.12279653 0.00054395535 3.0455831e-21)
(0.12187453 0.00088985972 -2.3324541e-20)
(0.1217993 -0.0019340481 2.9118257e-22)
(0.12374716 -0.0025412303 4.6271077e-20)
(0.12455602 0.00071912604 -7.2593296e-21)
(0.12452124 0.00026653379 1.5869815e-20)
(0.12612857 -0.0030485895 6.928869e-20)
(0.12850075 -0.0036853363 1.6449471e-20)
(0.13103324 -0.0012595034 1.8380271e-20)
(0.13267074 -0.00071201055 -8.6429522e-21)
(0.13330528 -0.001939973 -3.0342324e-21)
(0.13751094 0.0045973732 -5.950568e-19)
(0.1284287 0.0011414508 2.0354161e-21)
(0.1280111 0.0016345811 3.0291381e-21)
(0.1231977 -0.00034415824 -9.4583978e-22)
(0.11831661 -0.00011004484 -2.1404878e-21)
(0.11616106 -6.9992041e-05 -1.07402e-21)
(0.11603232 0.00035149508 2.636405e-22)
(0.11703653 5.3321156e-05 4.5346817e-23)
(0.11858162 0.001393872 -1.9881712e-23)
(0.12036293 0.0002416404 1.4769535e-22)
(0.1220456 0.000768953 -1.5964645e-22)
(0.12353742 0.0016802888 -8.7955247e-21)
(0.12471066 0.0011929349 -1.3541372e-20)
(0.12531595 0.0011553543 -5.7701226e-23)
(0.12516069 0.0019459127 5.3825616e-22)
(0.12478313 -3.7454776e-05 6.2903746e-22)
(0.12436863 -0.00027825059 -2.4424938e-21)
(0.123979 0.0019260485 -1.3172225e-21)
(0.12320128 0.00023429095 -6.3815943e-20)
(0.12245795 -0.0018891857 -1.1505915e-20)
(0.12232106 0.00099151384 6.3112227e-20)
(0.12239562 0.0017088702 2.9606453e-22)
(0.12235101 -0.002206554 3.6044506e-21)
(0.12308986 -0.0029613057 -5.2011467e-22)
(0.12419015 0.0015396356 -2.5307271e-20)
(0.12542541 0.00077121578 -2.2313911e-20)
(0.12652935 -0.0031827776 -2.5316683e-21)
(0.12738638 -0.0045450752 -1.3420397e-21)
(0.12943589 -0.0023712796 2.9318109e-20)
(0.13216523 -0.00040506138 -2.9946468e-20)
(0.13394718 -7.0357827e-05 -7.3099503e-21)
(0.1370339 0.0040846202 -8.0410842e-21)
(0.12882768 0.0014751582 -1.4549499e-19)
(0.12756272 0.0012679417 -3.1176169e-19)
(0.12276357 -0.0004898469 1.1617186e-19)
(0.11795803 -0.00038256667 3.9278216e-19)
(0.11618753 0.00066747396 8.2075579e-20)
(0.11631042 -3.7247974e-06 1.3517876e-19)
(0.11747161 -8.7011184e-05 -5.1784068e-24)
(0.11931407 0.0013003687 -1.3338441e-20)
(0.12121438 -4.103212e-06 8.1217301e-21)
(0.12271739 0.00086277063 -3.0884606e-20)
(0.12428542 0.0016216152 -2.6702796e-22)
(0.12544693 0.00044151175 -2.6050307e-20)
(0.12578322 0.00096048918 -1.692722e-20)
(0.12646025 0.00039079686 -2.4547251e-22)
(0.12618984 0.00048127715 2.2698495e-20)
(0.124667 0.00010905172 4.8699978e-23)
(0.12488372 -9.35387e-05 -2.9789073e-20)
(0.1250795 0.0007524474 8.93124e-23)
(0.1233901 -0.0011663603 -8.4975725e-21)
(0.12269936 0.00083084776 -6.6397536e-20)
(0.12405338 0.0018464641 -2.8175937e-22)
(0.12419918 -0.00064548219 2.5450984e-21)
(0.12272113 -0.0014281801 1.7252901e-20)
(0.12373983 0.0010538312 -3.2529518e-22)
(0.12685693 5.389541e-05 8.1332783e-21)
(0.12862912 -0.0020099468 -1.3055718e-19)
(0.12794891 -0.0032784277 0)
(0.12836106 -0.0026000862 -2.2831636e-20)
(0.13092463 -0.00057906254 -6.6558879e-20)
(0.13418964 0.0012087968 -7.2634588e-21)
(0.13297471 0.0012703061 1.2955868e-19)
(0.13322666 0.00051864512 0)
(0.11508981 0.00066448326 7.853097e-22)
(0.12860507 -0.00099845787 6.1595647e-21)
(0.1239301 -0.00050720922 4.2026182e-20)
(0.1254138 -9.5275629e-05 6.6590484e-22)
(0.12553966 -0.000314557 6.8147732e-20)
(0.12716712 5.7241671e-05 2.5843321e-21)
(0.1282129 0.00038580805 -5.1051181e-21)
(0.12919756 0.00017178206 3.5833573e-21)
(0.12869842 0.00018053332 -1.8884665e-22)
(0.13149437 0.0006604192 1.2173631e-20)
(0.12358899 0.00064742908 5.8570193e-21)
(0.13149512 6.9305061e-06 -5.9954852e-21)
(0.1245461 0.0020807175 -2.9930697e-21)
(0.12846869 -0.0026519566 9.5345446e-23)
(0.13297546 0.00039146589 -1.9474891e-20)
(0.12209936 0.0026130619 -6.3617718e-21)
(0.12924227 -0.0027281471 -6.6303418e-21)
(0.13089533 -0.00033607339 -6.1042504e-22)
(0.12801904 0.0006028696 -2.0205492e-20)
(0.12750877 0.00069300432 -6.0448601e-21)
(0.13062301 -0.0019481656 -3.6727821e-21)
(0.13056379 6.222104e-05 1.1788964e-20)
(0.1250139 0.0018639704 4.0480456e-21)
(0.12964726 -0.00015138928 -5.1165818e-21)
(0.13420383 -0.001518312 4.3760825e-21)
(0.13277165 -0.0010841317 -9.1761339e-21)
(0.13394764 -0.00096608386 -3.1951581e-21)
(0.13373706 -0.00015683844 -1.7553284e-20)
(0.13889052 -0.0001525563 -2.257033e-21)
(0.14333314 0.00041763492 -2.1431878e-22)
(0.13750516 -0.00080376393 -2.5196422e-20)
(0.1363756 -0.0034736541 8.5260656e-21)
(0.13624488 -0.0046935041 -2.7039948e-20)
(0.13704678 -0.0044324748 3.1365332e-20)
(0.13787419 -0.0042788887 -6.7384201e-21)
(0.13789121 -0.0052157114 5.7701949e-21)
(0.13747801 -0.0057981009 -4.8679938e-21)
(0.13747397 -0.0058624454 -1.1376343e-20)
(0.13754729 -0.0081394811 -1.4062325e-20)
(0.13724527 -0.012670817 -6.8502503e-21)
(0.13780323 -0.015702676 -8.1986857e-20)
(0.13999309 -0.016309099 0)
(0.14126393 -0.018235866 -8.1744539e-23)
(0.14004741 -0.021869916 -1.2456822e-20)
(0.13823634 -0.02384421 1.161449e-21)