/*--------------------------------*- C++ -*----------------------------------*\
| =========                 |                                                 |
| \\      /  F ield         | OpenFOAM: The Open Source CFD Toolbox           |
|  \\    /   O peration     | Version:  2406                                  |
|   \\  /    A nd           | Website:  www.openfoam.com                      |
|    \\/     M anipulation  |                                                 |
\*---------------------------------------------------------------------------*/
FoamFile
{
    version     2.0;
    format      ascii;
    arch        "LSB;label=32;scalar=64";
    class       volVectorField;
    location    "10";
    object      U;
}
// * * * * * * * * * * * * * * * * * * * * * * * * * * * * * * * * * * * * * //

dimensions      [0 1 -1 0 0 0 0];

internalField   nonuniform List<vector> 
30397
(
(0.13079938 0.00040626533 1.2569822e-19)
(0.12774216 0.0011143791 -5.9010176e-20)
(0.12715868 0.00084977407 1.8806367e-22)
(0.12755691 0.00040958992 -1.1099116e-19)
(0.12825529 0.00045689257 2.6249195e-21)
(0.1284089 -0.00043290993 -3.2629285e-21)
(0.13006968 -0.0011504961 -9.9214325e-21)
(0.13440809 -0.0018636815 -4.2571946e-21)
(0.13868545 -0.0011157337 -1.2125639e-20)
(0.13987053 -0.0001653697 -8.5755409e-21)
(0.13838083 0.00046767539 3.2032773e-20)
(0.13575643 0.00076191692 5.6881553e-22)
(0.13260395 0.0005444675 -8.3447401e-20)
(0.12973576 9.1817032e-05 -3.8983468e-22)
(0.12775363 -0.00025970779 -3.1508555e-20)
(0.12688524 -0.00094269933 -2.9323452e-21)
(0.12767285 -0.0023121612 3.0775538e-20)
(0.13080252 -0.0034394491 -2.5879065e-20)
(0.13461899 -0.0033922371 -6.1932897e-22)
(0.13726893 -0.0023712425 -2.5249204e-20)
(0.13875099 -0.0016217268 -5.7143457e-21)
(0.13923828 -0.0010741041 1.2245044e-20)
(0.13871154 -0.0006731026 -2.4460332e-22)
(0.13767281 -0.00081924744 6.6447155e-22)
(0.13683838 -0.0015715435 -2.1792052e-21)
(0.13666098 -0.0022518114 1.0174947e-21)
(0.13678997 -0.0025758523 -1.7816824e-20)
(0.13683182 -0.0026810145 -6.7456508e-22)
(0.13683455 -0.0028771657 5.9633166e-21)
(0.13677278 -0.003006186 0)
(0.1366895 -0.0030441741 0)
(0.13638815 -0.0029169625 -4.6096949e-20)
(0.13577428 -0.0027111832 1.3514994e-20)
(0.13488201 -0.0025889168 3.7918886e-20)
(0.13384163 -0.0025660855 2.9599097e-20)
(0.13282825 -0.0025543722 -2.1899076e-20)
(0.13194191 -0.002439241 -4.9853602e-20)
(0.13103517 -0.0022185121 2.8662813e-21)
(0.12993591 -0.0018609673 4.2575993e-20)
(0.12857245 -0.0014787499 0)
(0.12702742 -0.0011863551 0)
(0.1254272 -0.0010505915 0)
(0.12382843 -0.0010950863 0)
(0.12230531 -0.0012500549 -2.0479141e-20)
(0.12088005 -0.0015018456 -8.9948784e-21)
(0.11966659 -0.0018118428 7.8244698e-20)
(0.11878731 -0.0021884837 2.4288934e-20)
(0.12558621 0.0016803436 3.168828e-20)
(0.12227601 0.001168543 2.3602299e-21)
(0.12181515 -0.00016986153 -2.6163616e-20)
(0.12172309 -0.0010060053 -2.9214529e-20)
(0.1229193 -0.001152151 -2.802458e-22)
(0.12385127 -0.0019873022 8.8164222e-21)
(0.12615788 -0.0042379839 1.0352241e-20)
(0.1292317 -0.005595592 1.4766579e-21)
(0.13241552 -0.0045038818 2.9024196e-20)
(0.13382522 -0.0012146765 0)
(0.13245732 0.0016881672 -7.3363079e-22)
(0.12952075 0.0029955281 -1.2670227e-20)
(0.12704996 0.0030828078 -1.4661344e-20)
(0.12556507 0.002177209 -1.0894089e-20)
(0.1247891 0.00082253654 2.6166061e-20)
(0.1247607 -0.0013333463 4.5996111e-20)
(0.12562032 -0.0045904838 -4.0452648e-20)
(0.12765583 -0.0072108473 -4.7053553e-20)
(0.13002614 -0.007388143 -2.6109434e-20)
(0.13191471 -0.005847492 -1.6416207e-20)
(0.13296605 -0.0035697997 -6.7332644e-21)
(0.13328239 -0.0010791412 -4.1260381e-20)
(0.13282128 0.00071331312 2.2630594e-20)
(0.13195597 0.0012995841 -9.5963409e-21)
(0.13082275 0.00076225752 1.326083e-20)
(0.12994197 2.9732818e-05 -1.207558e-20)
(0.12933626 -0.00032007095 2.2712211e-21)
(0.12882395 -0.00061101462 8.1574475e-22)
(0.12845684 -0.00081344741 2.1352442e-20)
(0.12808487 -0.00052692935 -1.1492564e-21)
(0.12760554 0.00035611354 -8.5565287e-21)
(0.12690013 0.0015438488 -4.6779233e-21)
(0.12589687 0.0025244165 -2.4553846e-20)
(0.12468132 0.0030876976 8.9245794e-21)
(0.1233901 0.003344147 9.6051313e-21)
(0.12213723 0.0035728823 -2.7216648e-20)
(0.12095001 0.0040147393 -8.4928359e-20)
(0.1198258 0.0048056591 6.8339793e-21)
(0.11878846 0.0058189046 7.4465473e-20)
(0.11787466 0.0067076219 0)
(0.11710347 0.0071389508 0)
(0.11648477 0.0069808923 0)
(0.11599487 0.0063726898 1.1689595e-19)
(0.11563346 0.0055817923 7.2098489e-20)
(0.1154534 0.0047535948 -2.0577466e-19)
(0.1154449 0.0038834309 -1.1665842e-19)
(0.11548645 0.0030537269 2.6246987e-22)
(0.12973098 0.0024434945 -2.245473e-21)
(0.12711865 0.0016456969 -4.0334193e-21)
(0.12721238 -0.00036075814 2.8126697e-20)
(0.12735885 -0.001635967 1.7273421e-20)
(0.12867047 -0.0021214123 -2.1490296e-20)
(0.12973577 -0.0034541939 3.4049974e-20)
(0.13132647 -0.006212463 -6.7175554e-20)
(0.13284378 -0.007268041 -2.0724419e-21)
(0.13457109 -0.0052366646 2.9833301e-20)
(0.13580272 -0.00043920036 -8.9301777e-22)
(0.1356169 0.0037526832 -2.858734e-20)
(0.13414222 0.0051418221 3.7486212e-21)
(0.13242408 0.004313785 -3.5147596e-21)
(0.13085606 0.0026990966 8.8432762e-21)
(0.13069457 0.00036018018 -8.9758927e-21)
(0.13168858 -0.0024035965 -3.5684879e-20)
(0.13238392 -0.0060528258 -7.138656e-20)
(0.13305383 -0.0089442129 -1.6494619e-20)
(0.13347725 -0.0085699537 -1.6172829e-21)
(0.13357423 -0.0060170941 -3.7003419e-20)
(0.13366978 -0.0029362366 0)
(0.13419266 -2.4858942e-05 -5.5670875e-21)
(0.13459874 0.0018643782 3.387275e-22)
(0.13467677 0.0025690789 4.7395356e-21)
(0.13413628 0.0020268527 2.466332e-20)
(0.13324158 0.00094868325 -3.4457556e-20)
(0.13201852 0.00035396035 -8.5509e-21)
(0.1307418 -3.7037069e-05 1.0897282e-21)
(0.1294753 -0.00013961824 -4.6496311e-21)
(0.12825378 0.00043578848 -6.9268898e-20)
(0.12708905 0.0018359285 4.0857145e-21)
(0.12595013 0.0036718392 1.1096425e-19)
(0.1247813 0.0052043376 5.0833204e-20)
(0.12367191 0.0061442022 2.4780211e-22)
(0.12279629 0.0066305318 -4.5264186e-20)
(0.12224183 0.0069294503 -1.407764e-20)
(0.12197789 0.0072284552 -2.0878669e-22)
(0.12193498 0.0074961891 4.0075837e-23)
(0.12212456 0.007441149 -5.2343824e-20)
(0.12255043 0.0069161487 0)
(0.1231469 0.0059760915 0)
(0.12378046 0.0047818998 0)
(0.12428884 0.0035904578 1.0282165e-19)
(0.12462041 0.0025652198 -1.3753972e-20)
(0.12486561 0.0017736643 -7.8774908e-20)
(0.12504361 0.0011776754 1.8464365e-19)
(0.12512978 0.00068848185 1.0209529e-19)
(0.13250552 0.002726604 5.6133965e-21)
(0.13002208 0.0022363599 -1.4360294e-21)
(0.13099443 -0.00024949653 -1.1150825e-20)
(0.13154264 -0.0016275016 -3.8123618e-20)
(0.13339664 -0.002182547 -1.7487247e-20)
(0.13467032 -0.00355661 -1.7336998e-20)
(0.13536954 -0.0064590238 -2.1361159e-20)
(0.13497428 -0.0078920998 4.8026416e-21)
(0.13503413 -0.0060580126 2.825239e-20)
(0.13575519 -0.00086100857 6.4807824e-20)
(0.13712624 0.0040456401 -1.8821064e-20)
(0.13756535 0.0061400139 -1.2960608e-20)
(0.13641362 0.0059085325 6.8715418e-21)
(0.1352169 0.0035529155 -4.5509944e-20)
(0.13597586 -0.00051792011 -2.6698521e-21)
(0.13737905 -0.0040790053 9.0739526e-21)
(0.13772313 -0.0071643155 1.0496228e-20)
(0.13715756 -0.0089875655 -9.9296892e-22)
(0.13614804 -0.0077651191 -8.0240187e-20)
(0.13544775 -0.0052474625 8.3730125e-21)
(0.13530215 -0.0030382785 9.3283391e-20)
(0.1356102 -0.00097243654 -3.6895425e-20)
(0.1362589 0.0007936154 -4.1283242e-20)
(0.13662946 0.0020536101 8.7650473e-21)
(0.13614765 0.0027119267 2.9952083e-21)
(0.13468528 0.0032826343 3.7392295e-20)
(0.13262686 0.0038894357 -4.1668839e-20)
(0.13056548 0.0038857207 9.3230441e-21)
(0.12862312 0.0038404701 1.0446219e-20)
(0.1269629 0.0043255175 4.4059766e-21)
(0.12560721 0.005372951 1.6101378e-20)
(0.12450243 0.0068008093 -9.7683487e-22)
(0.12369175 0.0078811475 7.9918836e-22)
(0.1233162 0.0080102135 4.6551264e-22)
(0.12341153 0.0072625822 1.2108553e-20)
(0.12392948 0.00627382 -4.2269617e-20)
(0.12472934 0.0053869753 7.9080066e-20)
(0.12565312 0.0045651579 -8.7393294e-21)
(0.12663377 0.0036014753 -1.232989e-19)
(0.1275583 0.0025449927 0)
(0.12829704 0.0016124471 0)
(0.12877565 0.00099384313 0)
(0.12901392 0.00074087578 3.0092985e-20)
(0.12904532 0.00075734671 1.1176625e-20)
(0.12897829 0.00083153606 -7.5481528e-22)
(0.12888231 0.0007396213 -2.0375705e-20)
(0.12879092 0.00041549176 -1.7190933e-21)
(0.13243787 0.0028934495 3.7940656e-21)
(0.13039726 0.0024472232 3.9202318e-21)
(0.13172133 -0.00069704105 0)
(0.13202718 -0.0023475188 -3.0407781e-21)
(0.13396689 -0.0030205825 8.4259071e-21)
(0.1350539 -0.0038619331 -1.8296379e-21)
(0.13494735 -0.0059899651 -1.5619851e-20)
(0.1335852 -0.0070431666 3.7800639e-21)
(0.13271518 -0.0059079983 4.535023e-22)
(0.13331627 -0.0018551809 3.5265282e-20)
(0.13551943 0.0027849164 4.272377e-20)
(0.13666644 0.0059561122 -3.3687234e-21)
(0.13624943 0.0062629263 5.504192e-21)
(0.13691831 0.0027590795 2.3513152e-20)
(0.13825365 -0.0019951939 1.3070896e-20)
(0.13878687 -0.0045301256 5.6809954e-21)
(0.13846547 -0.0061439534 1.9157197e-20)
(0.13716832 -0.0071706579 -6.6557891e-21)
(0.13574596 -0.0063661497 5.4382093e-20)
(0.13512399 -0.0047929163 1.0782772e-20)
(0.13494714 -0.0030762426 -3.2719427e-20)
(0.13451431 -0.0012879968 -3.308528e-20)
(0.13444827 0.00046537943 1.4208339e-21)
(0.13384096 0.0025199938 -2.7128525e-20)
(0.13232914 0.0046566866 7.0017804e-20)
(0.13039212 0.0062279942 -2.2207799e-20)
(0.12883921 0.0068283336 1.8300293e-21)
(0.1277259 0.0065189265 -1.7622985e-20)
(0.12666583 0.0061295001 5.0313865e-21)
(0.12569983 0.0060962492 -2.9422124e-21)
(0.12487363 0.006678122 2.25572e-22)
(0.12441749 0.0075047448 0)
(0.12461935 0.007453251 5.2290767e-22)
(0.1254079 0.0062633899 1.5688163e-19)
(0.12649831 0.0045629222 9.9691459e-20)
(0.12764295 0.0030759102 -1.8269851e-19)
(0.12864087 0.0020225616 3.3659547e-20)
(0.12937452 0.0012656664 -2.7386491e-20)
(0.12977888 0.0007954491 -4.2903165e-20)
(0.12982032 0.00070555183 0)
(0.12956415 0.0010097591 0)
(0.12914103 0.0015317546 -1.8793812e-20)
(0.12869627 0.0019295774 4.2116696e-21)
(0.12831454 0.0019365966 2.1061209e-21)
(0.12804972 0.0014581656 -1.890015e-21)
(0.12793412 0.0005534912 4.8456303e-20)
(0.12786032 -0.00046827262 3.3994081e-20)
(0.13211324 0.0024449988 -1.6489579e-20)
(0.12932791 0.0025735619 -8.4665894e-21)
(0.13050438 -0.00099618427 0)
(0.13034101 -0.0029275743 -9.8475726e-21)
(0.13228562 -0.0038845548 9.2658959e-21)
(0.13345534 -0.0040813286 1.4019029e-21)
(0.13322708 -0.0052985997 -1.7284961e-20)
(0.1315189 -0.0061119442 1.4002031e-20)
(0.13034501 -0.0054160686 -3.805207e-22)
(0.1306719 -0.0026565098 2.6122522e-20)
(0.13248461 0.001609791 1.3894306e-20)
(0.1339602 0.0055193234 -1.4911448e-20)
(0.13536275 0.0053707363 -3.5816283e-21)
(0.13680403 0.0014106159 -1.2245877e-20)
(0.13764199 -0.0025136043 1.7296635e-20)
(0.13788931 -0.0043433709 -1.3639429e-20)
(0.13785877 -0.0054497632 1.2179575e-20)
(0.13683718 -0.0055844803 -1.2756828e-20)
(0.13574473 -0.0048344083 2.0802697e-20)
(0.13484743 -0.0038440735 -5.3780255e-20)
(0.13352452 -0.0021919225 -3.4926034e-20)
(0.13216048 -0.00059038431 -4.8084772e-20)
(0.13099886 0.0014669303 -1.1987759e-20)
(0.12904163 0.0047720985 3.8737832e-20)
(0.12692579 0.0075461825 1.2239747e-20)
(0.12556867 0.0083830119 -2.6784256e-20)
(0.12533867 0.007750172 2.266917e-20)
(0.12556873 0.0069632091 -1.9361979e-21)
(0.12574594 0.0068900526 -7.8816831e-21)
(0.12594763 0.0073304089 1.6328066e-21)
(0.12624288 0.0077842609 -1.803185e-20)
(0.12699506 0.0072428504 6.0013901e-20)
(0.12828102 0.0052889074 -3.6879887e-20)
(0.12973932 0.0027286947 -7.8462728e-20)
(0.1309099 0.00062995351 -3.6926615e-20)
(0.13143167 -0.00042291336 8.3302157e-20)
(0.13138698 -0.00043724418 -1.4654924e-21)
(0.13089223 0.00032653612 3.9699825e-20)
(0.13010701 0.0014126005 0)
(0.12920674 0.0024139847 0)
(0.12838417 0.0030148557 -2.9344114e-20)
(0.12780975 0.0030829239 -1.2466905e-20)
(0.12750097 0.0025945193 5.5126906e-22)
(0.12737175 0.0015988213 -3.6597023e-20)
(0.12732552 0.00029424505 -5.2536578e-20)
(0.12726692 -0.0010413412 -4.7042521e-20)
(0.12704789 -0.0019978046 2.5749095e-20)
(0.13152266 0.0018145724 4.3697666e-22)
(0.12822222 0.0030157336 -8.3197605e-22)
(0.12941745 -0.0010324964 1.7137347e-22)
(0.12875401 -0.0032685481 5.9728406e-22)
(0.13023668 -0.0047722093 -2.9656777e-22)
(0.13162003 -0.0043647825 4.3958315e-20)
(0.13207006 -0.004605548 5.8072279e-20)
(0.13029279 -0.0051426858 3.8328221e-20)
(0.12897462 -0.0051243036 1.6020691e-20)
(0.1289372 -0.0029055404 2.406461e-20)
(0.12998681 0.00089302129 3.2064783e-20)
(0.13209743 0.0040558609 0)
(0.13463513 0.0037442652 -2.1428441e-20)
(0.13604551 0.00017847459 -4.3639601e-21)
(0.13730676 -0.0032252887 1.4767971e-21)
(0.13815945 -0.0047623195 -5.2405169e-21)
(0.13829432 -0.0052284548 -1.8814247e-20)
(0.13727815 -0.0046642908 3.4209818e-20)
(0.13625665 -0.0034372475 -2.6025941e-21)
(0.13485933 -0.0015975398 -1.4246e-20)
(0.13219102 0.0003705087 1.784437e-20)
(0.12937542 0.0017016126 4.0124916e-21)
(0.12663297 0.0042826967 1.659412e-20)
(0.12399906 0.0078292233 5.1895733e-20)
(0.12286895 0.0092057616 1.1243195e-21)
(0.12313041 0.0079088338 -2.8417089e-20)
(0.1240016 0.0060812776 -2.7637778e-20)
(0.12491102 0.0054225097 -4.6504522e-21)
(0.12612545 0.0055692794 2.850408e-20)
(0.12770838 0.0057141661 -1.3367322e-20)
(0.12944726 0.0051598348 4.542768e-21)
(0.13132611 0.0032660479 -1.709813e-19)
(0.1329794 0.00075906254 -6.97907e-20)
(0.13397955 -0.00090422333 7.9249412e-20)
(0.13401874 -0.00086773088 -5.1988507e-21)
(0.13319924 0.00056790901 1.1293755e-20)
(0.13183595 0.0023949194 1.0168946e-19)
(0.13040621 0.0039207827 0)
(0.12916024 0.0048069514 0)
(0.12825208 0.0049366809 3.1849557e-21)
(0.12765941 0.0043672536 4.9458053e-20)
(0.12731345 0.0032301217 1.5444011e-19)
(0.12709712 0.0018377911 -5.3291688e-20)
(0.12690677 0.00052998094 -3.671023e-20)
(0.12662173 -0.00038930254 -1.1994376e-20)
(0.12621771 -0.00079317594 -1.4320002e-21)
(0.12576814 -0.00070304167 -4.5308813e-20)
(0.13143777 0.0015602638 -6.0960028e-22)
(0.12827496 0.0034051895 -2.3847471e-21)
(0.12915191 -0.00090211118 0)
(0.12814575 -0.0033624552 1.8656016e-20)
(0.12937127 -0.0055447382 -2.7709688e-22)
(0.13075934 -0.0050286176 -7.2378404e-21)
(0.13210636 -0.0042631298 2.2498796e-20)
(0.13088977 -0.0040741114 5.964317e-20)
(0.12899529 -0.0044265253 1.5086091e-20)
(0.12812556 -0.003100974 1.8556508e-21)
(0.12899638 -0.00030529145 6.2297931e-20)
(0.13182516 0.0019621096 0)
(0.13463327 0.0018929513 5.7233542e-20)
(0.13660461 -0.0012456747 -4.6124756e-20)
(0.13817249 -0.0045545056 0)
(0.1390369 -0.0053083128 -9.1723944e-21)
(0.13888976 -0.0045831492 1.5268348e-20)
(0.13768024 -0.0034186138 2.6943448e-20)
(0.13626827 -0.0018312649 -6.6288508e-20)
(0.13441461 0.0012370649 2.1262549e-20)
(0.1310718 0.0043608205 2.9057174e-20)
(0.12684525 0.0059995978 9.8965068e-20)
(0.12298365 0.0082120518 2.2799709e-20)
(0.12117201 0.0095041753 7.6990736e-21)
(0.12166681 0.0078495685 3.409292e-21)
(0.1225458 0.0054117549 3.2323893e-22)
(0.12343602 0.0039488393 1.578812e-20)
(0.12506958 0.0030811179 4.415428e-21)
(0.12756698 0.0022958781 -4.1187506e-20)
(0.13020733 0.0017487902 -5.6414706e-20)
(0.13249378 0.00085846314 1.4660782e-20)
(0.13420001 -0.00058775015 1.0862661e-20)
(0.13489952 -0.0012978912 6.8171332e-21)
(0.13447821 -0.00019619201 0)
(0.13333552 0.0022245067 8.8913637e-20)
(0.1320017 0.0045762985 -7.6201599e-21)
(0.130705 0.0061531699 -4.21218e-20)
(0.12968202 0.0066620963 -1.0041842e-21)
(0.12897433 0.0063784654 0)
(0.12859333 0.0054561714 2.97336e-21)
(0.12835906 0.0042236684 8.8308838e-20)
(0.12809052 0.0029726577 -1.1273714e-20)
(0.12777008 0.0019407904 -2.0360577e-20)
(0.12739109 0.0012400735 1.9476463e-20)
(0.12695837 0.00092103421 1.0511615e-20)
(0.12651304 0.00088133675 7.8408581e-20)
(0.1261632 0.0010052649 9.0725431e-23)
(0.13113264 0.0012658911 -1.6764353e-20)
(0.12852843 0.0034712953 -3.320561e-21)
(0.13003487 -0.00079889647 -6.4024196e-21)
(0.12891395 -0.0034448499 1.4820234e-21)
(0.12980282 -0.0062091453 -2.0201248e-20)
(0.13108342 -0.0058301383 -2.2269525e-21)
(0.13330086 -0.0042297663 9.0576305e-21)
(0.13304696 -0.0029817411 1.2988568e-20)
(0.1308183 -0.0032024706 1.2241888e-20)
(0.12900514 -0.0028880021 1.4499716e-20)
(0.12982088 -0.0015959844 -5.0390333e-21)
(0.13252801 0.00011625682 -3.1048937e-22)
(0.13558397 -5.6536564e-05 -5.8077849e-21)
(0.1386522 -0.0028517891 -8.2074e-20)
(0.13977829 -0.0053096629 0)
(0.13996958 -0.0052067534 3.2365684e-20)
(0.13941236 -0.0035952471 -3.5903261e-21)
(0.13842896 -0.0018191791 -1.3758251e-19)
(0.1369265 0.00031510165 -4.1410317e-20)
(0.1344881 0.0045433438 1.2929069e-19)
(0.13031257 0.0090593898 1.6572737e-19)
(0.1256108 0.011081611 -2.0869646e-20)
(0.12256086 0.010976067 4.9325876e-20)
(0.12238769 0.0088842573 3.3729933e-20)
(0.12307549 0.0062565747 1.3960912e-20)
(0.12336635 0.0042554915 -1.4862972e-19)
(0.12440843 0.0014532673 -1.5491747e-19)
(0.12692546 -0.0016405875 1.2828241e-19)
(0.13002078 -0.003240341 5.845994e-20)
(0.1326167 -0.0031134135 2.4364747e-20)
(0.13416795 -0.0025288034 7.3487412e-20)
(0.13458152 -0.001806361 -9.4743471e-21)
(0.13394811 -4.941371e-05 4.2555573e-20)
(0.13284808 0.0025069353 0)
(0.13187795 0.0050220651 -6.6503898e-20)
(0.13117008 0.0068292309 3.752152e-21)
(0.13071683 0.0075669845 -4.0386199e-21)
(0.13043102 0.0073402961 -4.1271068e-21)
(0.1301852 0.0064902289 -3.0491106e-20)
(0.12993333 0.0053997259 -3.2153956e-21)
(0.12963825 0.0043463431 -2.7339032e-20)
(0.12929226 0.0034043239 -4.0682078e-21)
(0.12890507 0.00261945 1.6491317e-20)
(0.12849846 0.0020759288 4.3251598e-21)
(0.12815108 0.0017684048 9.4064548e-22)
(0.12785716 0.0016261043 3.9036553e-21)
(0.12763736 0.0015367999 -9.7652956e-21)
(0.1307671 0.0010544193 -1.8822694e-20)
(0.12850789 0.0029279181 -6.8964464e-20)
(0.1313335 -0.0010013578 0)
(0.1306928 -0.0032357428 -5.6214405e-21)
(0.13099493 -0.006372663 1.7126365e-20)
(0.1317799 -0.0066848063 2.2003605e-21)
(0.13447307 -0.0048906434 2.7798707e-20)
(0.13539274 -0.0019634607 -1.4224362e-20)
(0.13370749 -0.0015003848 5.4255454e-20)
(0.13127265 -0.0022035818 -1.4891226e-20)
(0.13117411 -0.0023670313 -4.8675358e-20)
(0.1330516 -0.0016663675 0)
(0.13666112 -0.0024179474 -8.6837218e-20)
(0.14002152 -0.0044238094 5.4515464e-20)
(0.14057085 -0.0055877271 -1.653534e-20)
(0.1403082 -0.0047925514 -1.2389202e-20)
(0.13980558 -0.0027434062 -4.777719e-20)
(0.1388614 -0.00052602219 -5.3273718e-20)
(0.13703678 0.0027860483 8.4826709e-20)
(0.13363709 0.0089387658 2.3557354e-19)
(0.12942187 0.014330914 -4.3775708e-21)
(0.12652765 0.01468607 -5.8463561e-22)
(0.12578921 0.011746452 -8.3435768e-21)
(0.12585257 0.0083086879 1.8200776e-19)
(0.12564281 0.005758928 -2.0816664e-20)
(0.12605425 0.0025439012 -1.7015149e-19)
(0.12804991 -0.002472434 1.2500115e-19)
(0.1306849 -0.0066197435 -9.1633744e-21)
(0.13291946 -0.0075667537 -2.1937015e-20)
(0.13406489 -0.0058313797 -2.2993383e-20)
(0.13392235 -0.0032286024 5.654366e-21)
(0.1330179 -0.00057910853 9.744919e-20)
(0.1321431 0.0020651008 -2.5345873e-21)
(0.13162311 0.0043780954 -6.5950469e-20)
(0.13164256 0.0060556793 7.9385321e-22)
(0.13196394 0.0071888484 -1.2351556e-20)
(0.1321812 0.0076922792 2.2648039e-21)
(0.13212835 0.0074956716 2.6293501e-20)
(0.13187152 0.0067709635 4.1567476e-21)
(0.13151867 0.0059116146 2.2164092e-20)
(0.13116334 0.0050231549 -1.7580397e-21)
(0.13085587 0.0042118732 1.815517e-20)
(0.13053735 0.0035000348 8.9358844e-21)
(0.13017623 0.0029657837 2.2087554e-21)
(0.12978995 0.0026065382 -1.3723005e-20)
(0.12939854 0.0023882579 4.7454667e-20)
(0.12903601 0.0022378485 5.8239185e-20)
(0.13097612 0.00084609896 -8.9200057e-20)
(0.12922893 0.0020554105 0)
(0.13252083 -0.0016008874 -2.4477557e-21)
(0.13249773 -0.0031695545 1.1565301e-20)
(0.13273529 -0.0062624616 3.1652979e-20)
(0.13262574 -0.0073016025 2.3660134e-20)
(0.13443977 -0.005792459 -4.6500891e-21)
(0.13608628 -0.0017858551 8.6423071e-22)
(0.13573809 0.00011510164 8.9112112e-22)
(0.13364296 -0.00082968186 2.2699108e-20)
(0.13249645 -0.0024798229 5.6837289e-21)
(0.13344107 -0.0033409084 -1.7981829e-20)
(0.13668705 -0.004614589 1.5242599e-20)
(0.13862569 -0.0056329082 1.2357197e-20)
(0.13882789 -0.0056849594 4.2240928e-20)
(0.13896027 -0.0044413237 3.8230434e-20)
(0.13858929 -0.0019297414 -9.080125e-20)
(0.13708074 0.0010882873 -3.7665483e-20)
(0.13460359 0.0059368864 4.9712955e-20)
(0.13119412 0.013132503 1.593661e-20)
(0.12911928 0.017194078 1.1770152e-20)
(0.12911005 0.0152941 -7.0147763e-20)
(0.12937524 0.011666138 1.1664094e-19)
(0.12886529 0.0087414968 6.0053426e-20)
(0.12858696 0.0054287446 -2.2474895e-20)
(0.13004278 -8.1400868e-05 -8.1034348e-21)
(0.13226374 -0.006422901 -2.3355031e-19)
(0.13366621 -0.0098876273 -3.9856996e-21)
(0.13388472 -0.0089095151 -1.5183224e-20)
(0.13308559 -0.0049058999 -7.1071231e-20)
(0.13196546 -0.0010104132 6.1242736e-21)
(0.13122693 0.0013544699 1.8169659e-20)
(0.13130614 0.0027474964 3.997161e-20)
(0.13208296 0.0037849122 4.2504872e-20)
(0.13299727 0.0048587648 -3.0316937e-20)
(0.13365493 0.0060914898 0)
(0.13387192 0.007224671 1.093795e-20)
(0.13366677 0.0077989881 -6.8302398e-21)
(0.13336881 0.0075182367 2.6173667e-21)
(0.13312326 0.006660808 -9.9040217e-21)
(0.13299925 0.0056589734 1.6586493e-20)
(0.13286988 0.0047998731 1.4737621e-21)
(0.13260349 0.0041993317 -8.663592e-21)
(0.13214603 0.00389841 -3.7114101e-20)
(0.13153442 0.003781926 6.1050551e-20)
(0.13085553 0.0037135552 5.6434733e-20)
(0.13018332 0.0035878555 -1.5984386e-20)
(0.1315746 0.00060645125 -5.7723641e-20)
(0.13040871 0.0010576684 -8.1257147e-20)
(0.13399428 -0.0021126619 -2.9660456e-22)
(0.13369069 -0.0031076012 1.4654746e-20)
(0.133622 -0.0061340973 -1.9763837e-20)
(0.13297498 -0.0074623151 -2.7268474e-21)
(0.13348063 -0.0064546655 5.5342879e-21)
(0.13506424 -0.0020486454 1.8732813e-21)
(0.13633753 0.00083892015 4.3903235e-21)
(0.13584253 0.00045996359 4.1231729e-20)
(0.13423971 -0.0019966703 1.8825523e-21)
(0.13410735 -0.0043609373 3.9276154e-20)
(0.13571424 -0.0060627081 1.2137893e-20)
(0.13605717 -0.006314027 -8.7756795e-22)
(0.13582858 -0.0060204276 -3.9662681e-21)
(0.13582645 -0.0045588716 -5.0567764e-20)
(0.13531077 -0.001169913 4.6068921e-20)
(0.13371237 0.003180174 -1.5350798e-20)
(0.13176424 0.008896944 -6.6382057e-20)
(0.1300916 0.015122883 3.1013636e-20)
(0.13037491 0.017068208 1.4822209e-20)
(0.13081674 0.014565947 2.1312593e-20)
(0.13039455 0.011865836 1.9905848e-20)
(0.130175 0.0088371356 -1.5147783e-20)
(0.13158959 0.0033469113 -4.6845086e-20)
(0.13396055 -0.0036418676 1.3548102e-21)
(0.13534261 -0.0088032363 0)
(0.13488112 -0.0095445668 1.4563816e-21)
(0.13314785 -0.0063788414 -1.0937755e-20)
(0.13165841 -0.0021524257 -4.419384e-20)
(0.1311837 0.00031831493 -1.8896611e-20)
(0.13176311 0.00065514642 -5.6851312e-20)
(0.13288425 0.00068104091 5.7487325e-20)
(0.13404529 0.0015074006 -2.6370113e-20)
(0.13470652 0.0033215594 3.7357005e-20)
(0.13471154 0.0058061578 0)
(0.13426547 0.007873438 5.3821877e-20)
(0.133749 0.0084363026 2.0270618e-21)
(0.13338999 0.0075694984 8.7286319e-20)
(0.13319237 0.0061737718 -9.9102377e-22)
(0.1330248 0.0051315731 -3.8662145e-21)
(0.13271288 0.0047587227 2.2539443e-20)
(0.13213632 0.0049266768 -8.6396456e-20)
(0.13133541 0.0052907642 1.1447611e-20)
(0.13038373 0.0056096643 -3.706395e-20)
(0.12935997 0.0057333679 4.415969e-21)
(0.12836318 0.0056563401 5.3826308e-20)
(0.13163603 -7.9522565e-05 1.6563559e-20)
(0.13090599 -0.00010379742 2.3555693e-20)
(0.13467525 -0.0025539775 -2.2833925e-20)
(0.1343401 -0.0027083775 -6.5192495e-21)
(0.13350577 -0.0057001511 3.6703509e-20)
(0.13231982 -0.007368123 -9.2143053e-21)
(0.13238139 -0.0068897203 -1.7721582e-20)
(0.13408849 -0.0028726654 0)
(0.13679684 0.00056323337 0)
(0.13798225 0.0011813944 6.7765139e-20)
(0.13680844 -0.0011651692 -2.6909798e-20)
(0.13581084 -0.0043487021 -1.2247612e-20)
(0.1350615 -0.0061401353 2.423836e-20)
(0.13375919 -0.006267207 -2.8603539e-20)
(0.13269412 -0.0061002309 9.6490806e-21)
(0.13208789 -0.0044034329 4.559364e-22)
(0.13144605 -0.00031264303 -3.0686598e-20)
(0.1310815 0.0043842008 4.1843053e-20)
(0.13088551 0.0099410463 -1.9681856e-20)
(0.13064721 0.015132986 -4.6980684e-20)
(0.13081798 0.016645355 -1.1578363e-20)
(0.13043061 0.014938544 1.4953222e-20)
(0.13000697 0.011883021 7.1161274e-20)
(0.13144707 0.0066534536 -3.1216897e-19)
(0.13463453 -0.00027888736 -1.1486699e-19)
(0.13688785 -0.0060895512 1.2175997e-19)
(0.13661382 -0.0082568949 -1.174766e-19)
(0.13451016 -0.0066112732 -1.4531609e-20)
(0.13259001 -0.0035922505 -3.5975092e-20)
(0.13220553 -0.0014662255 -5.5592458e-20)
(0.13308549 -0.0012255712 -9.3681312e-20)
(0.13419762 -0.0018013658 -3.2293633e-20)
(0.13496912 -0.0014546361 2.0430708e-21)
(0.13509613 0.00068432068 -5.3849545e-20)
(0.13463866 0.0040309377 5.7848671e-21)
(0.13376656 0.0072823685 0)
(0.13297067 0.0090168971 0)
(0.13246304 0.0088168515 6.9624678e-21)
(0.13213858 0.0074218719 1.7052451e-20)
(0.1318021 0.0061317104 3.4457508e-22)
(0.13133155 0.0057198368 3.3399369e-20)
(0.13065778 0.0061500505 -1.2846174e-20)
(0.12978162 0.0069934385 -5.654425e-21)
(0.12873431 0.007789603 0)
(0.12761857 0.0082377907 -6.0945761e-21)
(0.12651359 0.0083156389 -3.3912615e-22)
(0.12541863 0.0081085573 1.9956006e-20)
(0.13148432 -4.0919513e-05 5.1872059e-20)
(0.13055712 -0.001203526 -2.620331e-20)
(0.13382279 -0.0031061094 -3.2028936e-21)
(0.13414188 -0.0022597954 3.4926477e-20)
(0.13318436 -0.0051163917 7.8373773e-20)
(0.13167617 -0.007056074 6.4558408e-21)
(0.13169019 -0.0073728483 3.0211283e-22)
(0.13377938 -0.0041367908 3.0421498e-20)
(0.13744512 -0.00062557134 4.8320331e-21)
(0.13972517 0.0011783178 5.8740515e-21)
(0.13932081 -0.00027701708 -2.5672079e-20)
(0.13771825 -0.0033077066 -3.5699943e-20)
(0.13494602 -0.0051523471 1.4527673e-20)
(0.13219372 -0.0055060562 2.4523594e-20)
(0.13058097 -0.0057163756 2.5984218e-20)
(0.12963178 -0.004119255 -4.8729939e-21)
(0.12950667 -0.00034696165 3.116473e-20)
(0.13059929 0.0040496657 6.6690021e-20)
(0.1312006 0.0099733442 3.0643281e-20)
(0.13026378 0.015477011 1.1274394e-21)
(0.12948122 0.016783765 -4.9162889e-21)
(0.1293975 0.014541695 4.4854015e-20)
(0.13040118 0.0096631562 -8.5034019e-20)
(0.13341057 0.0023788868 -1.1521953e-19)
(0.13644531 -0.0041811178 1.1046315e-19)
(0.13707414 -0.006864351 1.1135353e-20)
(0.13531607 -0.0060542882 7.1533107e-21)
(0.13340877 -0.0040001399 -7.0786273e-21)
(0.13288273 -0.0029168509 -5.6911312e-20)
(0.13353095 -0.002963423 7.668012e-21)
(0.1344455 -0.0032328656 8.0261152e-20)
(0.13464663 -0.0029065556 -5.2274021e-22)
(0.13412972 -0.0010942281 -1.0503278e-20)
(0.13328986 0.0021212237 1.0996889e-19)
(0.1322375 0.0059409624 9.1338537e-20)
(0.13135343 0.0087572235 -7.0772963e-20)
(0.13087809 0.0095731714 -6.2097622e-23)
(0.13081392 0.0085444049 0)
(0.13082895 0.007094251 3.652016e-20)
(0.13067433 0.0064282224 1.7091701e-21)
(0.13022408 0.0068792559 4.017022e-20)
(0.12949606 0.0080576364 -6.8956813e-20)
(0.12857429 0.0093971641 7.6325703e-20)
(0.12755425 0.010352865 -5.6673372e-21)
(0.12657459 0.010759092 -4.7183469e-20)
(0.12570713 0.010624335 1.5602582e-19)
(0.12493342 0.010161402 8.1445805e-21)
(0.13162843 2.919316e-05 -3.0369392e-20)
(0.13002523 -0.0017936888 2.1053789e-20)
(0.13263239 -0.0035411732 -4.6659202e-20)
(0.13333606 -0.0021155454 3.9427605e-20)
(0.13280521 -0.0045836154 -1.0514454e-21)
(0.13187933 -0.0065922757 4.9593323e-21)
(0.13212408 -0.0078544973 -6.7121102e-21)
(0.13412045 -0.0056677636 3.2981963e-20)
(0.13789204 -0.0023444617 1.2089279e-20)
(0.14065779 0.00051285032 1.7287869e-22)
(0.14117363 0.00036555802 -1.255335e-20)
(0.13937376 -0.001529796 0)
(0.13535197 -0.0031292665 7.5648659e-21)
(0.13168629 -0.0042918377 3.0517134e-20)
(0.12970561 -0.0051416903 2.2408322e-20)
(0.12915371 -0.0040262441 -3.1938287e-20)
(0.1296947 -0.0011067405 -8.6084323e-20)
(0.13094592 0.0035104373 6.3607313e-20)
(0.13040458 0.010635903 7.3082404e-20)
(0.12935574 0.016368904 -3.7608232e-20)
(0.12902027 0.016527063 3.4348875e-20)
(0.12974807 0.01267215 -4.6952681e-20)
(0.13191366 0.0060876753 -5.3460987e-20)
(0.13467065 -0.0016073622 0)
(0.13563942 -0.0059803577 0)
(0.13441544 -0.0058294763 1.5253078e-21)
(0.13256604 -0.004388026 -2.1952171e-21)
(0.13197364 -0.0039157424 2.6877317e-20)
(0.13257685 -0.0042851892 4.9723241e-20)
(0.1332395 -0.0042062504 -2.5535405e-20)
(0.13325701 -0.0034615166 -7.6252245e-21)
(0.13256305 -0.0019523299 -1.8822878e-20)
(0.13159869 0.00045970125 0)
(0.13062072 0.0038370556 -4.6321093e-20)
(0.12983009 0.0073479976 -2.1728366e-22)
(0.12948932 0.0092877988 -1.2312206e-20)
(0.12960129 0.0088931557 2.2783228e-21)
(0.12983468 0.0072463912 -5.8937234e-20)
(0.12989591 0.0060603463 8.8849501e-21)
(0.12961543 0.0062665158 -6.1225567e-20)
(0.12904556 0.0077576801 7.4879264e-20)
(0.12831953 0.0097963689 -9.9372958e-20)
(0.12758306 0.011516148 1.9798392e-20)
(0.12698096 0.01237347 2.3759036e-19)
(0.12656617 0.012231342 -1.1440373e-20)
(0.12635286 0.011393519 2.9901903e-20)
(0.12614183 0.010384947 1.5568562e-20)
(0.13167703 0.00015233761 -3.0173005e-20)
(0.12985585 -0.0017794252 1.3363797e-19)
(0.132091 -0.0037550217 3.7159315e-21)
(0.13281104 -0.0020300657 2.7791714e-21)
(0.13269549 -0.0043813467 -1.3192825e-20)
(0.13246049 -0.0064472307 -4.4018402e-21)
(0.1330968 -0.0082973436 3.5180931e-22)
(0.13494364 -0.0070217216 -4.3094891e-20)
(0.13817591 -0.0041479462 1.3096161e-20)
(0.14111629 -0.00062758707 8.4268746e-20)
(0.14235584 0.00056977644 7.7232728e-21)
(0.14063123 0.00030472748 0)
(0.13619556 -0.00069880246 -3.8393434e-20)
(0.1324046 -0.0027505065 2.9702688e-20)
(0.13057389 -0.0048293983 -2.9769041e-20)
(0.13005295 -0.0044362999 -1.4072597e-20)
(0.13018067 -0.0017028906 -6.0667505e-20)
(0.13029619 0.0036623015 3.6285225e-20)
(0.12947172 0.011293729 -8.219217e-20)
(0.12959954 0.016295902 1.0614852e-20)
(0.13026673 0.015480698 -7.5616443e-20)
(0.13138345 0.010160325 6.6825829e-20)
(0.1332212 0.0025847941 8.5006643e-21)
(0.13428826 -0.003785151 -9.9179667e-20)
(0.13333043 -0.0055932166 0)