/*--------------------------------*- C++ -*----------------------------------*\
| =========                 |                                                 |
| \\      /  F ield         | OpenFOAM: The Open Source CFD Toolbox           |
|  \\    /   O peration     | Version:  2406                                  |
|   \\  /    A nd           | Website:  www.openfoam.com                      |
|    \\/     M anipulation  |                                                 |
\*---------------------------------------------------------------------------*/
FoamFile
{
    version     2.0;
    format      ascii;
    arch        "LSB;label=32;scalar=64";
    class       volVectorField;
    location    "10";
    object      U;
}
// * * * * * * * * * * * * * * * * * * * * * * * * * * * * * * * * * * * * * //

dimensions      [0 1 -1 0 0 0 0];

internalField   nonuniform List<vector> 
30397
(
(0.13002154 0.00022222888 1.1165905e-19)
(0.12690615 0.0011032059 -5.5926229e-20)
(0.12662367 0.00083449126 3.3300282e-22)
(0.12710228 0.00018220601 -1.0248074e-19)
(0.12781092 0.00035899572 2.3564588e-21)
(0.12811327 -0.00063360106 -3.1500584e-21)
(0.12985057 -0.0011795645 -1.0604048e-20)
(0.13410437 -0.0018159109 -2.7634359e-21)
(0.1383056 -0.0011224414 -1.4659041e-20)
(0.13951933 -8.9034907e-05 -1.1708945e-20)
(0.13783062 0.0002313896 3.7395252e-20)
(0.13558166 0.00022806149 -5.8942592e-21)
(0.13369896 8.9627265e-05 -7.9103225e-20)
(0.13170925 0.00014548028 7.250467e-23)
(0.12873317 0.00017847134 -4.0881635e-20)
(0.12689123 -0.00080545269 1.4431647e-20)
(0.12804601 -0.002520151 4.1522816e-20)
(0.13089509 -0.0037552199 -2.919768e-20)
(0.13494269 -0.0036633625 -1.4416127e-21)
(0.13808573 -0.0021982864 -3.4699912e-20)
(0.1391657 -0.0010573056 5.6330427e-21)
(0.13902691 -0.00063732232 6.4188999e-21)
(0.13814937 -0.00078073018 -4.5632256e-20)
(0.13734343 -0.0014257734 1.7831585e-21)
(0.13687379 -0.001989018 4.026154e-22)
(0.13643506 -0.00213911 5.5486734e-23)
(0.13607862 -0.0021590045 -2.2606484e-20)
(0.13599178 -0.0024417017 5.6185444e-22)
(0.13609334 -0.0028176293 5.4740721e-21)
(0.13617805 -0.0030054063 0)
(0.13604503 -0.0029553559 0)
(0.13554873 -0.0027761427 -4.5926096e-20)
(0.13477225 -0.0026188673 1.5846526e-20)
(0.13391736 -0.0025852126 2.4521761e-20)
(0.13303864 -0.0026687692 2.1346052e-20)
(0.13231286 -0.0026958198 -1.9801384e-20)
(0.13166662 -0.0026230784 -5.2535542e-20)
(0.13091828 -0.0023625737 2.9323963e-21)
(0.12997184 -0.002027752 4.1371221e-20)
(0.12880113 -0.0016681397 0)
(0.1274181 -0.0013538417 0)
(0.12586427 -0.0011020843 0)
(0.12418945 -0.00097969577 0)
(0.12246203 -0.0010039812 -2.104095e-20)
(0.12081195 -0.001189928 -9.3184849e-21)
(0.1194138 -0.0015281937 8.4876533e-20)
(0.11840231 -0.0019852584 2.6480166e-20)
(0.12499413 0.001443273 3.1519742e-20)
(0.12165513 0.0010718419 1.4389051e-21)
(0.1215401 -0.00036311999 -2.7399126e-20)
(0.12176763 -0.0010423663 -2.6806054e-20)
(0.12321393 -0.0011345499 -2.6136382e-22)
(0.1240821 -0.0019909662 1.2718247e-20)
(0.12629368 -0.0042444931 1.4909277e-20)
(0.12906948 -0.0056159284 2.9423566e-21)
(0.13216293 -0.004483053 2.5885932e-20)
(0.13368045 -0.0012177111 0)
(0.13259117 0.0015961983 -7.6994947e-22)
(0.12952741 0.00244367 -1.2740853e-20)
(0.12669549 0.0022332205 -1.8211281e-20)
(0.12503164 0.0025381707 -9.5825605e-21)
(0.12431119 0.0017015989 3.8921901e-20)
(0.1250572 -0.001534049 5.8645414e-20)
(0.12647573 -0.0044474495 -3.042493e-20)
(0.12794484 -0.0066188734 -3.834957e-20)
(0.12997235 -0.0074620842 -2.4281651e-20)
(0.13196302 -0.0057457623 -1.8729593e-20)
(0.13334028 -0.0031918234 -1.1644521e-20)
(0.13385398 -0.00090208378 -3.0465419e-20)
(0.13313483 0.00062123536 1.2364318e-20)
(0.13197884 0.0012355351 -1.2677895e-20)
(0.13062929 0.001495566 1.8120588e-21)
(0.12947172 0.0013148343 -1.9225652e-20)
(0.12878541 0.00031860608 3.3932412e-20)
(0.12849883 -0.00080182083 -1.2359375e-21)
(0.12831132 -0.0011223766 3.0464929e-20)
(0.12797157 -0.00036688731 -5.448041e-22)
(0.12729644 0.00096186006 -8.5827395e-21)
(0.12628974 0.0021141974 -4.4610677e-21)
(0.12510734 0.0026371142 -1.8088213e-20)
(0.1238982 0.0026223125 6.6268075e-21)
(0.12276655 0.0024628886 7.4600866e-21)
(0.12172779 0.0025212746 -2.1954919e-20)
(0.12075543 0.0030552129 -8.9443321e-20)
(0.1197835 0.0040236355 7.535308e-21)
(0.11885254 0.0051884846 9.0656752e-20)
(0.11798894 0.0062894159 0)
(0.11721715 0.0070979263 0)
(0.11655503 0.0074307899 0)
(0.11598565 0.0072243959 8.7508527e-20)
(0.11552571 0.0065493227 6.7099206e-20)
(0.11523719 0.005568024 -2.1266612e-19)
(0.1151432 0.0044231999 -1.2233901e-19)
(0.11515106 0.003405735 1.7104775e-22)
(0.12924782 0.0021105169 -2.6487232e-21)
(0.12672794 0.0014032306 -6.0045876e-21)
(0.12687286 -0.00077798986 2.9473481e-20)
(0.12721451 -0.0019429024 1.5076304e-20)
(0.12892938 -0.0022687797 -1.7963555e-20)
(0.13031368 -0.003336671 3.0573189e-20)
(0.1321748 -0.0058180763 -7.8248837e-20)
(0.13356343 -0.0069335575 6.2124285e-23)
(0.135035 -0.0050518294 3.3330927e-20)
(0.13616209 -0.00052385576 1.2550866e-21)
(0.13592108 0.0035553954 -3.2187443e-20)
(0.13390292 0.0049106806 1.8500082e-21)
(0.1315599 0.003905952 -3.6830431e-21)
(0.1300309 0.0028733172 1.2803096e-20)
(0.13017912 0.00047035173 -5.0210394e-21)
(0.13156679 -0.0033276462 -3.0491045e-20)
(0.13236317 -0.0059484112 -4.6251397e-20)
(0.13315043 -0.0080085148 -2.1270261e-20)
(0.13378136 -0.00858876 -6.6893679e-22)
(0.13418658 -0.0063811526 -3.0610286e-20)
(0.13456534 -0.0030643495 0)
(0.13453923 0.0004983708 1.5381703e-21)
(0.1342246 0.0027444918 9.2713096e-23)
(0.13418817 0.0030766096 9.1153104e-21)
(0.13371438 0.0027320761 3.2455218e-20)
(0.1327732 0.0016133696 -8.0779945e-20)
(0.13148688 4.2685709e-05 -2.1525822e-20)
(0.13012826 -0.00081418779 1.116517e-20)
(0.12890143 -0.00038236242 -5.9871466e-21)
(0.1278305 0.0011667388 -1.0272662e-19)
(0.12690238 0.0031100772 5.4517771e-21)
(0.12600165 0.0045905044 9.038134e-20)
(0.12506087 0.0051742066 3.0351446e-20)
(0.12411992 0.0051358684 -6.6283579e-23)
(0.1233061 0.0050365391 -4.0249163e-20)
(0.12267662 0.0052488915 -2.5193967e-20)
(0.1222687 0.0058449619 -1.5248873e-22)
(0.12211573 0.0064744812 4.3493078e-20)
(0.12221714 0.0068686631 2.049127e-21)
(0.12253895 0.0068735308 0)
(0.12300133 0.0065126661 0)
(0.12351733 0.005841628 0)
(0.12397402 0.00493229 9.2768505e-20)
(0.12432039 0.0038832748 -1.382675e-20)
(0.12455912 0.0028356409 -9.8306324e-20)
(0.12471362 0.0018983624 2.2916219e-19)
(0.12475562 0.0011744316 1.2007859e-19)
(0.13231366 0.0022700878 1.3447616e-20)
(0.13016206 0.0020266628 -1.8997026e-21)
(0.13123988 -0.00068954774 -1.4418413e-20)
(0.13167697 -0.0020130069 -4.4328763e-20)
(0.13363113 -0.0026661968 -1.6195606e-20)
(0.13499776 -0.0037829316 -1.8626939e-20)
(0.13615142 -0.0064148066 -1.7473527e-20)
(0.13613481 -0.0075785053 1.849961e-21)
(0.13613859 -0.0057167031 3.4768271e-20)
(0.13661299 -0.00077229583 7.0959722e-20)
(0.13751889 0.0043611048 -2.0674212e-20)
(0.13731956 0.0065249149 -1.3439867e-20)
(0.13592299 0.0056862512 8.0907501e-21)
(0.13468331 0.0034133761 -4.2134149e-20)
(0.13537099 -0.00080069399 -7.0066498e-21)
(0.13660816 -0.0049638916 1.2706634e-20)
(0.13687477 -0.0072198256 1.0454502e-20)
(0.13720294 -0.0088921595 2.7547178e-21)
(0.13672411 -0.0085859339 -6.128396e-20)
(0.13587749 -0.0058234282 1.6668555e-20)
(0.13547355 -0.0022357225 1.641541e-19)
(0.13524776 0.00094961882 -3.8199546e-20)
(0.13566971 0.0020539034 2.8673726e-21)
(0.13602646 0.0022964679 5.2443865e-21)
(0.13532385 0.0034794623 8.7270141e-21)
(0.13359555 0.0043866373 4.6393049e-20)
(0.13130496 0.0041416714 -5.0359658e-20)
(0.1291174 0.0034314493 1.0502435e-20)
(0.12747735 0.0033822374 9.0783264e-21)
(0.12636313 0.0041697041 2.3795765e-21)
(0.12555402 0.0053804091 8.5925092e-21)
(0.12490306 0.0063870727 -1.2799238e-21)
(0.12435284 0.0066680307 -1.1359227e-21)
(0.12401119 0.006316029 2.7422088e-22)
(0.12406577 0.0057387694 1.2141221e-20)
(0.12450787 0.0051964666 -1.5586697e-20)
(0.1252047 0.0047286963 3.1532973e-20)
(0.12603621 0.0042204524 -5.5620322e-21)
(0.12691244 0.0036349387 -8.3139209e-20)
(0.12769569 0.0030636956 0)
(0.12829272 0.0026092732 0)
(0.1286625 0.0022917925 0)
(0.12881008 0.0020713392 3.6009447e-20)
(0.12879105 0.0018745568 5.1002871e-20)
(0.12868898 0.0016241777 -2.848984e-21)
(0.12856153 0.0012412965 -4.1411622e-20)
(0.12841259 0.00072197048 -1.9311921e-21)
(0.13204032 0.0023325743 9.5315013e-21)
(0.13046318 0.0019102505 5.6373135e-21)
(0.13205189 -0.001208225 0)
(0.13253199 -0.0026676918 -2.8644622e-21)
(0.13442951 -0.0034068071 9.3635932e-21)
(0.13521369 -0.0042386634 -2.5590597e-21)
(0.13508256 -0.0063062021 -2.6688492e-20)
(0.13405776 -0.0070302174 -2.9692145e-23)
(0.13347252 -0.0055663631 5.5385592e-22)
(0.13393576 -0.0014949638 3.7185938e-20)
(0.13565286 0.0034625703 4.3995628e-20)
(0.13667206 0.0064588285 -7.3392571e-21)
(0.13657677 0.0061489418 9.850421e-21)
(0.13683376 0.0030464081 1.7725665e-20)
(0.13787986 -0.0016865097 1.5645567e-20)
(0.13828092 -0.0052786042 8.6132501e-21)
(0.1381114 -0.0072044889 9.8781114e-21)
(0.13721094 -0.0080685397 -6.1448201e-21)
(0.13542616 -0.0070140634 6.3005494e-20)
(0.13448937 -0.0047831534 8.6495228e-21)
(0.13448562 -0.0021308607 -3.6150525e-20)
(0.1344014 0.00019474047 -1.7644587e-20)
(0.13449601 0.0013636887 8.1869207e-22)
(0.1333798 0.0034520271 -3.8180447e-20)
(0.13130581 0.0065608899 9.353857e-20)
(0.12932097 0.0079242259 -1.8681651e-20)
(0.12780785 0.0069823588 3.9460978e-20)
(0.12677885 0.0051866845 -5.3066506e-20)
(0.12614744 0.0041491774 2.0724208e-21)
(0.12576242 0.004435689 -7.8880108e-22)
(0.12539102 0.0058075319 -6.114554e-22)
(0.12520699 0.0069444197 0)
(0.12544492 0.0068127094 4.5841946e-22)
(0.12615099 0.0055120065 1.4300404e-19)
(0.12720149 0.0037418801 8.8826163e-20)
(0.12836514 0.0022258664 -1.5941176e-19)
(0.12938773 0.0012894004 3.1444091e-20)
(0.13008063 0.00091036152 -2.3413593e-20)
(0.13032841 0.0010158281 1.0880475e-20)
(0.13017313 0.0015941233 0)
(0.12972899 0.0024372049 0)
(0.12917591 0.0032028658 -3.0153455e-20)
(0.12863997 0.0035403224 5.4088241e-21)
(0.1281935 0.0033155135 -1.3062973e-20)
(0.12785055 0.0025631344 -2.3919327e-21)
(0.12763719 0.0014158761 6.7774615e-20)
(0.12743378 0.00021261638 4.2248936e-20)
(0.13158365 0.0018400395 -2.3786081e-20)
(0.12901116 0.0018296938 -1.1540073e-20)
(0.1303454 -0.001678637 0)
(0.13042591 -0.0033593523 -1.6019431e-20)
(0.13258203 -0.004141042 8.9093815e-21)
(0.1335609 -0.0041509924 1.5644361e-21)
(0.13303161 -0.0055984715 -1.5305706e-20)
(0.13119145 -0.006246104 1.4018951e-20)
(0.13023965 -0.005360432 -4.1409767e-22)
(0.13075839 -0.0022344356 2.4101415e-20)
(0.13245834 0.0024338473 1.3120428e-20)
(0.13424279 0.0058948433 -1.1457881e-20)
(0.13597356 0.0053760974 -2.9936448e-21)
(0.1371892 0.0017638471 -1.0254348e-20)
(0.13847836 -0.0026299244 1.5470025e-20)
(0.13858326 -0.005257229 -8.8330183e-21)
(0.13817768 -0.0060044476 5.4211256e-21)
(0.13661573 -0.0057342253 -1.4831578e-20)
(0.13490279 -0.0051264387 1.2545472e-20)
(0.13410986 -0.0042526563 -3.3056184e-20)
(0.13306183 -0.0019125845 -3.7903512e-20)
(0.13177874 0.00058781795 -5.8281016e-20)
(0.13054363 0.0029420762 -1.5305533e-20)
(0.12812856 0.006666179 4.1785155e-20)
(0.12592695 0.0095049457 1.2629733e-20)
(0.12512491 0.0093186344 -2.1796845e-20)
(0.12524446 0.007107341 4.4657196e-20)
(0.12560532 0.0049203043 -4.8940125e-21)
(0.12599008 0.0043406436 -9.739309e-21)
(0.12629601 0.0053322404 9.4905959e-23)
(0.12669296 0.0065528366 -8.6057264e-21)
(0.12762148 0.0062974385 5.6171302e-20)
(0.12911614 0.0042850099 -3.6079801e-20)
(0.13075048 0.0016581961 -7.8077099e-20)
(0.13204774 -0.00032266508 -3.7778576e-20)
(0.13265041 -0.00102161 4.9608875e-20)
(0.13253113 -0.00036734941 2.2647878e-21)
(0.13182051 0.0012545762 8.7754793e-20)
(0.13078967 0.0030948541 0)
(0.12973987 0.0044923697 0)
(0.12885214 0.0051821429 -2.9028364e-20)
(0.1282282 0.0050725678 1.2919471e-20)
(0.12785463 0.0042794328 6.3605204e-22)
(0.12764911 0.0029952279 -4.7288694e-20)
(0.12750359 0.0014747218 -6.0708883e-20)
(0.12731884 1.1842781e-06 -5.2840979e-20)
(0.12697414 -0.0010665741 3.0700669e-20)
(0.1310311 0.0013777586 4.6534912e-22)
(0.12801776 0.0021939647 -1.4815139e-21)
(0.12911291 -0.0017480246 1.7168398e-22)
(0.12836596 -0.0038285618 6.8873515e-22)
(0.12992804 -0.0050111562 -5.5614583e-22)
(0.13141812 -0.0043598264 5.623982e-20)
(0.13176135 -0.0046411645 5.6244543e-20)
(0.12995575 -0.0052211891 3.3839924e-20)
(0.12860942 -0.0051343756 1.2367874e-20)
(0.12862882 -0.0027242436 2.3377203e-20)
(0.13020453 0.0014463521 2.7919994e-20)
(0.13292785 0.0039833641 0)
(0.13561037 0.0035946724 -2.0577554e-20)
(0.13717879 0.00037777992 -4.6311826e-21)
(0.13886027 -0.0034008067 1.9694604e-21)
(0.13926371 -0.0051307327 -7.1925892e-21)
(0.13866063 -0.0049898163 -1.6433422e-20)
(0.13726 -0.0042332581 2.3751983e-20)
(0.13607826 -0.0036831622 -2.1579104e-21)
(0.13444608 -0.0020158773 -1.8457699e-20)
(0.13150714 0.00081958975 2.7863099e-20)
(0.12845422 0.00304712 -1.7678165e-21)
(0.12545106 0.0060256849 1.7215481e-20)
(0.12280566 0.0096981434 4.9589976e-20)
(0.12216157 0.010342288 -1.1385053e-20)
(0.12297262 0.007852429 -4.1216795e-20)
(0.12393168 0.005087867 -3.8160447e-20)
(0.12469929 0.0034004959 -1.5927485e-21)
(0.12581835 0.0032448292 2.0444779e-20)
(0.12740004 0.0038453139 -1.0914094e-20)
(0.12957667 0.0034839339 4.6203788e-21)
(0.13210637 0.0015479584 -1.8467094e-19)
(0.13421348 -0.00093307459 -7.6382869e-20)
(0.13531147 -0.0023713814 8.7106978e-20)
(0.13517521 -0.001806519 -1.8653378e-20)
(0.13406453 0.00047116098 1.7082844e-20)
(0.13252211 0.0032888176 1.3940467e-19)
(0.13102435 0.0055639017 0)
(0.12982246 0.0067801349 0)
(0.12898626 0.0069805954 5.0666912e-21)
(0.12848671 0.0063263841 4.7363685e-20)
(0.12819653 0.0051026921 1.437238e-19)
(0.12796276 0.0036553548 -4.7858203e-20)
(0.12768552 0.0022909569 -3.2232843e-20)
(0.1273323 0.0012425606 -1.3143947e-20)
(0.12688492 0.00058402463 -6.2106389e-22)
(0.1263335 0.0003260058 -2.830193e-20)
(0.13098053 0.0011752782 -4.5679549e-22)
(0.12796189 0.0026144769 -1.3863973e-21)
(0.12903056 -0.0015223927 0)
(0.12790238 -0.0038080163 -6.4757663e-21)
(0.12882699 -0.0057358332 -5.1177953e-22)
(0.13028131 -0.00511696 -7.5506182e-21)
(0.1317004 -0.0043927432 2.5795347e-20)
(0.13056586 -0.0041645023 5.6763373e-20)
(0.1285122 -0.0044199351 1.4388784e-20)
(0.12777097 -0.0030414005 6.2897623e-21)
(0.12949748 -0.00035802137 5.2092114e-20)
(0.13269753 0.0017164052 0)
(0.13535381 0.0017059467 5.0606154e-20)
(0.13781801 -0.0012157007 -5.3084328e-20)
(0.13954079 -0.0046521459 0)
(0.13993833 -0.0051954489 -6.448194e-21)
(0.13913904 -0.003875612 1.2621297e-20)
(0.13809409 -0.0027031491 1.7367584e-20)
(0.13693351 -0.0015346639 -6.8937907e-20)
(0.13419095 0.0015459255 2.5739319e-20)
(0.13008247 0.0053208315 3.1520112e-20)
(0.12560097 0.0077868682 9.6412157e-20)
(0.12169804 0.0099304727 2.0476105e-20)
(0.12006817 0.01042315 3.9960813e-21)
(0.12107737 0.0079432012 7.0600344e-21)
(0.122314 0.005237929 3.461343e-22)
(0.12326125 0.0034038878 2.3366531e-20)
(0.12478727 0.0013821068 1.9047048e-20)
(0.12706949 -0.00023519783 -4.9642439e-20)
(0.12979214 -0.001186569 -6.7596831e-20)
(0.13270531 -0.0023832368 1.7980875e-20)
(0.13493908 -0.0035934903 1.2603103e-20)
(0.13575624 -0.0034101461 4.9329186e-21)
(0.13509424 -0.0012067033 0)
(0.13361491 0.0021264193 1.2123885e-19)
(0.13203449 0.0052671539 -1.0135355e-20)
(0.1307562 0.0073250326 -4.9006213e-20)
(0.1299632 0.008045879 -1.1655498e-21)
(0.12955486 0.0078205598 0)
(0.12936918 0.0070135694 2.6100365e-21)
(0.12921142 0.0059656126 6.8174459e-20)
(0.1289613 0.0049035126 -8.7517866e-21)
(0.12859706 0.0039203616 -1.9483154e-20)
(0.12813062 0.0031212675 3.5304292e-20)
(0.1275744 0.0025939717 5.9460694e-21)
(0.1269688 0.0023494354 7.5606114e-20)
(0.12641584 0.0023463308 2.6902847e-23)
(0.13107414 0.0012314479 9.3496364e-21)
(0.12838946 0.0028620525 -5.8552663e-21)
(0.12998876 -0.0014172969 -9.7995551e-21)
(0.12897711 -0.0037677905 2.3805386e-21)
(0.12974728 -0.006264082 -5.2830452e-20)
(0.13062089 -0.0058983921 -1.1469833e-21)
(0.13257613 -0.0043892354 5.1027577e-21)
(0.13231077 -0.0030368515 1.3426365e-20)
(0.1302033 -0.0032112429 1.1839043e-20)
(0.12877156 -0.0030617928 -1.308376e-21)
(0.13018501 -0.0019974072 -4.0468721e-21)
(0.13292263 -0.00026656923 -9.9082392e-22)
(0.13583458 -0.00043642638 -6.3295013e-21)
(0.13945459 -0.0030623501 -8.9063761e-20)
(0.14056693 -0.0051768556 0)
(0.14045899 -0.0046070635 3.1053441e-20)
(0.13985259 -0.0030517561 -2.6387083e-21)
(0.13925848 -0.0017248902 -1.3367172e-19)
(0.13766727 0.0010358963 -5.5867502e-20)
(0.13411619 0.0060360918 1.5065778e-19)
(0.12943174 0.010806126 1.6951728e-19)
(0.12511802 0.012956778 -1.9112343e-20)
(0.12247454 0.012530632 4.5580592e-20)
(0.12201538 0.0096014323 3.7776676e-20)
(0.12262344 0.0060117713 2.0918978e-20)
(0.12329903 0.0035875048 -1.4762496e-19)
(0.12465236 0.00038101575 -1.6912996e-19)
(0.12714689 -0.0034997457 1.4420423e-19)
(0.13005871 -0.0057566974 7.6087573e-20)
(0.13264129 -0.0063469516 3.951767e-20)
(0.13422671 -0.0061730584 7.2315587e-20)
(0.13430748 -0.0045432993 1.4582904e-20)
(0.13327749 -0.0012520461 9.6046555e-20)
(0.13201492 0.0024639798 0)
(0.13105673 0.0054697518 -7.5955447e-20)
(0.13062954 0.0073012933 5.0413817e-21)
(0.13073065 0.0078600437 -6.8972423e-21)
(0.13091173 0.0077233994 -4.4308845e-21)
(0.13103962 0.0072170274 -2.2212157e-20)
(0.13095336 0.0066782282 -2.0163202e-21)
(0.13067874 0.0060540999 -1.6051333e-20)
(0.13027507 0.0054077268 -3.0447697e-21)
(0.12980923 0.0047986694 1.2451454e-20)
(0.12932133 0.004331655 8.6458383e-22)
(0.12884686 0.0040375928 8.0145176e-21)
(0.12839537 0.0038892675 1.7710661e-21)
(0.12799997 0.0038414687 -1.9225932e-20)
(0.13123483 0.0012055965 -2.5004788e-20)
(0.12919364 0.0027256852 -9.8761546e-20)
(0.13180284 -0.0015361355 0)
(0.13096466 -0.0036412399 -6.2241199e-21)
(0.13127208 -0.0063867006 2.1656969e-20)
(0.13170858 -0.0064821155 -4.5203427e-23)
(0.133805 -0.004864509 2.9947418e-20)
(0.13457007 -0.0021504103 -4.3241792e-20)
(0.13304848 -0.0017524156 7.1546037e-20)
(0.13112113 -0.0026528196 -2.106692e-20)
(0.13144785 -0.0028506831 -5.0603418e-20)
(0.13319016 -0.0019807983 0)
(0.13668004 -0.0029695351 -9.7381807e-20)
(0.14008419 -0.0048056132 5.3472026e-20)
(0.14078926 -0.0052901938 -1.7318213e-20)
(0.14074278 -0.0041785467 -8.0949135e-21)
(0.14053993 -0.0024935715 -4.0549919e-20)
(0.13948777 -0.00018031464 -6.5975164e-20)
(0.13716872 0.0044086417 1.1395271e-19)
(0.13319303 0.011053459 2.3452529e-19)
(0.12921913 0.015731277 -3.0422199e-21)
(0.12694672 0.01590016 -1.1387291e-21)
(0.12608152 0.013306147 -7.166074e-21)
(0.12557898 0.0094454492 1.9220906e-19)
(0.12551402 0.0053225825 -3.3951278e-20)
(0.1265395 0.0013153538 -1.7079291e-19)
(0.12866952 -0.0036960449 1.2946178e-19)
(0.1310432 -0.0082403509 -9.641377e-21)
(0.13281435 -0.0099091066 -3.0134396e-20)
(0.133419 -0.0088328033 -1.5746922e-20)
(0.13270055 -0.0059022727 6.1067089e-21)
(0.13150018 -0.0020014028 2.2259959e-19)
(0.13071036 0.0016481273 -2.7571771e-21)
(0.13063848 0.0041262072 -2.7749875e-20)
(0.13123561 0.00543429 -2.304936e-21)
(0.13207236 0.0060841963 -7.5237163e-20)
(0.1326204 0.00654757 2.7890334e-21)
(0.13281639 0.00686298 5.3517944e-21)
(0.13269698 0.0071289013 2.056364e-21)
(0.13242586 0.0072346631 -2.1575889e-21)
(0.13203234 0.0071129606 -3.9321477e-22)
(0.13164288 0.0066689831 1.2276849e-20)
(0.13127242 0.0060833465 1.0160097e-20)
(0.13087942 0.0055725504 4.5905018e-21)
(0.13049031 0.0052530102 -1.3936812e-20)
(0.13011514 0.0051048326 5.4664281e-20)
(0.12975868 0.0050410776 6.6799489e-20)
(0.13147128 0.0009746123 -7.3612521e-20)
(0.12999358 0.0020677199 0)
(0.13358113 -0.0019094027 -3.2129843e-21)
(0.13291345 -0.0033477841 1.5876362e-20)
(0.13281326 -0.0062049571 2.5739716e-20)
(0.1326044 -0.0069611815 1.4448258e-20)
(0.13426994 -0.0055314918 -7.7957883e-21)
(0.13577494 -0.0017866595 1.4124381e-21)
(0.13544738 -0.00022808946 8.9026136e-22)
(0.13360011 -0.0016330718 1.8172282e-20)
(0.13255133 -0.0031608935 -8.7125252e-21)
(0.13340818 -0.0035819048 -3.2793307e-20)
(0.13648969 -0.0050539651 1.7453897e-20)
(0.1382598 -0.0061557708 1.1660117e-20)
(0.1388323 -0.0057491949 4.6216905e-20)
(0.13923988 -0.0041062658 3.5090638e-20)
(0.1388199 -0.001587821 -1.0282577e-19)
(0.13719103 0.0017485801 -2.207603e-20)
(0.13451869 0.0079119827 5.2947236e-20)
(0.13142082 0.01501239 1.3520772e-20)
(0.12992799 0.018125248 9.4326901e-21)
(0.12974482 0.016790422 -5.191433e-20)
(0.12922246 0.013987268 1.0003405e-19)
(0.12864628 0.0098246714 8.6963337e-20)
(0.12922729 0.0041220576 -4.6534193e-20)
(0.13105914 -0.0017463856 -7.7925484e-21)
(0.13295337 -0.0073445142 -2.0759962e-19)
(0.13378161 -0.010780057 -2.5217336e-21)
(0.13314027 -0.010115648 -1.7223033e-20)
(0.13162831 -0.0066119391 -7.1416779e-20)
(0.13005026 -0.0030516455 8.919138e-21)
(0.12946275 -0.00056905039 3.018172e-20)
(0.13016872 0.00086656715 4.3374948e-20)
(0.13156293 0.0019727393 4.2042355e-20)
(0.13285642 0.0031927077 -1.9210252e-20)
(0.13364482 0.0047164635 0)
(0.13389683 0.0062952155 6.0743845e-21)
(0.13377274 0.0076258549 -2.072033e-20)
(0.13353749 0.0083347673 1.9874112e-21)
(0.13332685 0.0083805687 -2.9072454e-21)
(0.13319087 0.0079083141 1.5862519e-20)
(0.13306892 0.0072117538 1.0122408e-20)
(0.1328676 0.0066072837 2.82489e-21)
(0.13253069 0.0062693681 -1.9376988e-20)
(0.13209836 0.0061924494 4.8582931e-20)
(0.1315873 0.0062361866 5.0299179e-20)
(0.13106501 0.0062292601 -1.3607075e-20)
(0.13170582 0.00066453239 -5.0437383e-20)
(0.13058224 0.00096860652 -5.6732922e-20)
(0.13438719 -0.0024394045 9.60503e-22)
(0.13388296 -0.003056865 -2.3775263e-20)
(0.13368351 -0.0059093915 -2.4634847e-20)
(0.1329276 -0.0072083016 2.6725805e-22)
(0.13362776 -0.0063668105 7.3047128e-21)
(0.1353656 -0.0020770412 -1.8414633e-21)
(0.13667573 0.00056595598 6.7839797e-21)
(0.13594909 -0.00022851056 1.8587923e-20)
(0.13409321 -0.0025312032 -1.5689229e-20)
(0.13410123 -0.0045790812 2.5370901e-20)
(0.13564863 -0.0063761335 1.2047034e-20)
(0.13579777 -0.0068398624 -7.0596801e-22)
(0.13576279 -0.0062730606 -7.3282392e-21)
(0.13571528 -0.004195278 -6.0557295e-20)
(0.13504017 -0.00071780966 2.5613878e-20)
(0.13360261 0.0038017782 -1.6286281e-20)
(0.13177481 0.010457219 -6.4615745e-20)
(0.13072269 0.016432253 2.8939374e-20)
(0.13116063 0.018158771 1.2801045e-20)
(0.13099603 0.016976123 1.1269636e-20)
(0.13037049 0.014344099 4.1266891e-20)
(0.13128304 0.008732717 -1.474097e-20)
(0.13318893 0.0013722509 -5.140936e-20)
(0.13492643 -0.0047546859 1.1482053e-21)
(0.13547154 -0.0087109331 0)
(0.13414079 -0.0092517393 1.2002198e-20)
(0.13185522 -0.0067361146 -1.6788221e-20)
(0.1302198 -0.0035604681 -3.1423411e-20)
(0.12998332 -0.0020554318 -2.1356779e-20)
(0.13102576 -0.0021043568 -5.2744431e-20)
(0.1325831 -0.0019400821 4.3681441e-20)
(0.13389368 -0.00058650965 -2.1833742e-20)
(0.13443058 0.0018236172 4.8061918e-20)
(0.13421129 0.0046092329 0)
(0.13363202 0.0068340345 5.7961803e-20)
(0.13320429 0.007898519 -1.0237421e-20)
(0.13304152 0.0080569745 2.0519157e-20)
(0.13306074 0.0077261966 7.951313e-22)
(0.13312013 0.0072716313 1.8161979e-21)
(0.13298711 0.0069970807 1.2294599e-20)
(0.1326192 0.0069565934 -5.3037434e-20)
(0.13202668 0.0071218872 8.062467e-21)
(0.13125542 0.0073941033 -2.863621e-20)
(0.13034428 0.0076471371 3.7880662e-21)
(0.12940546 0.0077603094 4.8652547e-20)
(0.13206719 0.00029314958 2.4796086e-20)
(0.13101658 -5.8624941e-05 3.5556222e-20)
(0.13442986 -0.0029312544 -8.2242255e-21)
(0.13396232 -0.0028489176 -2.0884961e-20)
(0.13356622 -0.0055415179 5.5414891e-20)
(0.13261447 -0.0069803782 -6.4786472e-21)
(0.13280048 -0.0067857878 -1.3809067e-20)
(0.13444219 -0.0029273524 0)
(0.13709259 0.00032282583 0)
(0.13786983 0.00067948536 4.0660017e-20)
(0.13651884 -0.001680953 -2.7380782e-20)
(0.1359039 -0.0046636928 -6.4701994e-21)
(0.13518292 -0.0064540459 2.2471196e-20)
(0.13386576 -0.0067515277 -2.9548412e-20)
(0.13281661 -0.0063108669 1.6683055e-20)
(0.13207599 -0.0039669845 3.6020442e-21)
(0.13145847 1.2591558e-05 -2.8675615e-20)
(0.13117465 0.0049123906 4.412541e-20)
(0.13091607 0.011203994 -1.840496e-20)
(0.13088726 0.016205895 -3.957384e-20)
(0.1309419 0.018126387 -3.8887258e-21)
(0.13022333 0.017456499 1.7037571e-20)
(0.13072399 0.013043575 1.1148545e-19)
(0.13338799 0.0053205785 -3.7178244e-19)
(0.13601801 -0.0018306783 -9.6190762e-20)
(0.1369092 -0.0058298444 7.7456748e-20)
(0.13583188 -0.0068532809 -5.904142e-20)
(0.13354219 -0.0056628432 -1.5311741e-20)
(0.13180667 -0.0040425157 2.4469691e-20)
(0.13187401 -0.0036421302 -8.516869e-20)
(0.1330285 -0.0043250276 -1.0698636e-19)
(0.13427845 -0.0050663766 -2.0137691e-20)
(0.1350024 -0.004157803 -6.4113855e-22)
(0.13501829 -0.0010563653 -8.4611107e-20)
(0.1342811 0.003161003 9.0611787e-21)
(0.13319941 0.0065938664 0)
(0.13229338 0.0082686044 0)
(0.13185691 0.0083793146 2.6926942e-21)
(0.13183557 0.0077180884 9.8853198e-21)
(0.13191647 0.007146303 -6.6728274e-22)
(0.13185928 0.007051367 1.982214e-20)
(0.13153094 0.007453718 -5.3577259e-21)
(0.13087671 0.0081954094 -3.4715705e-21)
(0.12994113 0.0090708547 0)
(0.12882047 0.009876753 -5.5053793e-21)
(0.12758647 0.01049177 -3.4518418e-22)
(0.12637758 0.010799919 2.2262936e-20)
(0.13225529 0.00034146142 7.3844785e-20)
(0.1310378 -0.00090608721 -2.8887251e-20)
(0.13392741 -0.003238503 -3.2868827e-21)
(0.13360093 -0.0025293329 4.3607799e-20)
(0.13297427 -0.0052143516 1.3492884e-19)
(0.13206619 -0.0068077707 6.9221224e-21)
(0.13219169 -0.0072139205 8.1564515e-23)
(0.13387095 -0.0041287601 4.448912e-20)
(0.13736388 -0.00082214949 2.646324e-21)
(0.13938409 0.00075121256 -4.9006534e-21)
(0.13906236 -0.00092736359 -1.8549139e-20)
(0.13781098 -0.0037387248 -4.0069867e-20)
(0.13512848 -0.0055275609 1.3450811e-20)
(0.13265789 -0.0060014789 2.4505725e-20)
(0.13110366 -0.0057719593 2.3648286e-20)
(0.13000905 -0.003623166 -1.2422128e-20)
(0.12980876 2.4543472e-05 3.449025e-20)
(0.13066093 0.0047689283 7.1933845e-20)
(0.13086232 0.011220296 3.0330912e-20)
(0.13023761 0.016488122 -2.9609508e-21)
(0.12942027 0.018441437 -4.8975762e-21)
(0.12936501 0.016311693 6.931746e-20)
(0.13180105 0.0095136848 -1.1005366e-19)
(0.1349164 0.0012242951 -9.4948744e-20)
(0.13655467 -0.0040895538 6.8105863e-20)
(0.13618632 -0.0053607891 9.2762018e-21)
(0.13461344 -0.0046998678 3.7674491e-21)
(0.13338957 -0.0038526506 1.2513786e-21)
(0.13345514 -0.004311902 -8.158803e-20)
(0.13426742 -0.005483407 8.9871435e-21)
(0.13507022 -0.0062922906 7.4370855e-20)
(0.13502343 -0.005689728 1.3227938e-21)
(0.13407141 -0.00305026 -1.7063569e-20)
(0.13273002 0.0010485681 1.3656825e-19)
(0.13151157 0.0053358054 9.1020957e-20)
(0.13064846 0.0081841728 -5.3851984e-20)
(0.13040132 0.0087276553 5.5849015e-21)
(0.13065169 0.0077521376 0)
(0.13106771 0.0068024901 3.0012713e-20)
(0.13130768 0.0066824226 8.7571161e-22)
(0.13112389 0.0074852302 3.4695336e-20)
(0.13049801 0.0088848794 -6.0243882e-20)
(0.12947655 0.010484312 7.4238505e-20)
(0.12823521 0.011909326 -6.5393285e-21)
(0.12697222 0.012928806 -6.2031181e-20)
(0.1258953 0.013411079 2.5400545e-19)
(0.12503057 0.013387982 3.2841629e-20)
(0.1320764 0.00022379273 -2.0887124e-21)
(0.13027121 -0.0016508966 1.144956e-21)
(0.13286131 -0.0034915791 -6.8059006e-20)
(0.13331961 -0.0021917367 3.589316e-20)
(0.13270215 -0.00480734 -1.1194014e-21)
(0.1319559 -0.0065592503 4.7274898e-21)
(0.13198593 -0.0075827609 -5.7182561e-21)
(0.13365234 -0.0055321437 3.9789178e-20)
(0.13736003 -0.0024963832 8.2953087e-21)
(0.14034422 -4.7222835e-05 2.982988e-22)
(0.14111959 -0.00038189665 -1.7468309e-20)
(0.13949629 -0.0020433004 0)
(0.13560855 -0.0035976268 7.0774726e-21)
(0.13216489 -0.0048831937 3.0727968e-20)
(0.13039007 -0.0051370559 2.4314252e-20)
(0.12964528 -0.0034260337 -4.6187081e-20)
(0.13011172 -0.00041487338 -8.9342565e-20)
(0.13086487 0.0046149296 6.5558254e-20)
(0.12999895 0.011901911 6.7118536e-20)
(0.12910854 0.017209338 -1.9295966e-20)
(0.12865159 0.017922395 3.4662196e-20)
(0.12996263 0.013396544 -6.0471961e-20)
(0.13300471 0.0053983638 -6.2786033e-20)
(0.13496325 -0.0017165808 0)
(0.13507968 -0.0047422163 0)
(0.1340675 -0.0044590902 -4.3219975e-21)
(0.13319227 -0.0040226366 5.3836282e-21)
(0.13340198 -0.0046812779 3.4001381e-20)
(0.13421067 -0.0058174393 6.0097205e-20)
(0.13474363 -0.0064976934 -3.207185e-20)
(0.13432512 -0.0059478945 5.7571389e-22)
(0.13307834 -0.0038937975 -3.8339339e-20)
(0.13146618 -0.00046705213 0)
(0.13003003 0.0036223256 -5.5022143e-20)
(0.12930306 0.0069464063 4.559463e-21)
(0.12941436 0.0080682697 1.3816703e-20)
(0.12995715 0.0071626759 2.7486219e-21)
(0.13043055 0.0057001868 -5.7289688e-20)
(0.13048031 0.0052103489 -1.0383735e-21)
(0.13003714 0.0062599865 -8.1951095e-20)
(0.12924991 0.0085218361 8.459946e-20)
(0.12825674 0.011200672 -1.0855912e-19)
(0.12729543 0.013575239 2.8960507e-20)
(0.12652227 0.01500258 3.131633e-19)
(0.126063 0.015308355 -2.5284988e-20)
(0.12597512 0.014693741 2.7807378e-20)
(0.12597143 0.013617888 1.9317312e-20)
(0.13213597 0.00010578373 -3.3846041e-20)
(0.1298072 -0.0020706165 1.3883873e-19)
(0.13216156 -0.0037919386 3.6048498e-21)
(0.13320907 -0.0020393346 2.5065192e-21)
(0.13286299 -0.0044880093 2.2023513e-21)
(0.13230301 -0.0062679424 1.0099346e-20)
(0.13244256 -0.0079222203 4.5315845e-22)
(0.13401545 -0.0068715241 -4.3852629e-20)
(0.13757675 -0.0043656028 1.0000627e-20)
(0.14092077 -0.0013817792 7.6182895e-20)
(0.14243459 -0.0002957046 5.4917043e-21)
(0.14067849 -0.00017571456 0)
(0.13636776 -0.0012576059 -3.9941615e-20)
(0.1326556 -0.003473229 2.8917725e-20)
(0.13106257 -0.0048350896 -2.1966625e-20)
(0.13049391 -0.0037180467 -7.3945592e-21)
(0.13058189 -0.00077376915 -6.7946805e-20)
(0.13018296 0.005083659 3.6308018e-20)
(0.12900544 0.012618803 -7.0301241e-20)
(0.12906416 0.01719212 1.3153265e-20)
(0.12981057 0.016501495 -8.2390564e-20)
(0.13153838 0.010301546 7.7678218e-20)
(0.13317847 0.0021081718 2.2255128e-21)
(0.13355065 -0.0031951808 -6.9241383e-20)
(0.13286025 -0.0045719186 0)
(0.13245245 -0.0042483457 2.2523808e-20)