/*--------------------------------*- C++ -*----------------------------------*\
| =========                 |                                                 |
| \\      /  F ield         | OpenFOAM: The Open Source CFD Toolbox           |
|  \\    /   O peration     | Version:  2406                                  |
|   \\  /    A nd           | Website:  www.openfoam.com                      |
|    \\/     M anipulation  |                                                 |
\*---------------------------------------------------------------------------*/
FoamFile
{
    version     2.0;
    format      ascii;
    arch        "LSB;label=32;scalar=64";
    class       volVectorField;
    location    "10";
    object      U_0;
}
// * * * * * * * * * * * * * * * * * * * * * * * * * * * * * * * * * * * * * //

dimensions      [0 1 -1 0 0 0 0];

internalField   nonuniform List<vector> 
62344
(
(0.1384874 -0.00074375592 -1.0854924e-21)
(0.13292957 -0.0012746794 -5.6472319e-22)
(0.13691135 -0.00086088357 -1.1746956e-21)
(0.13756354 -0.00023424773 6.1330361e-22)
(0.13975977 -0.0010712537 0)
(0.14437383 -0.0019810942 2.6352148e-21)
(0.1459833 -0.0037170641 -2.7451128e-21)
(0.14338896 -0.0037196179 1.4230275e-21)
(0.13911679 -0.0038994382 0)
(0.13374343 -0.0033122014 0)
(0.12982116 -0.0021383258 6.4064538e-21)
(0.1305414 -0.0013934272 -1.3738596e-20)
(0.13343404 -0.0028181833 4.5469591e-22)
(0.13490298 -0.0030434684 1.4890835e-20)
(0.13245579 2.4529875e-05 -7.4945267e-21)
(0.1273566 0.0023985262 7.4015566e-21)
(0.12083066 0.0042770612 -8.1486887e-21)
(0.11746434 0.0064389744 0)
(0.11715218 0.0035125722 0)
(0.11691792 0.0042896436 -5.7322939e-22)
(0.11857808 0.0052982619 -2.9788315e-22)
(0.11885103 0.003921235 3.1009838e-22)
(0.11322722 0.0027025652 6.4611827e-22)
(0.1070224 0.0065384727 -2.1612999e-20)
(0.10577307 0.0025782552 2.2512141e-20)
(0.10984208 -0.0048706798 0)
(0.10986272 -0.0086430816 0)
(0.10270964 -0.0013258029 -1.9821068e-22)
(0.10166397 0.0027849461 -2.6250064e-20)
(0.10515528 0.00038705406 2.7545815e-20)
(0.10280653 0.0004439328 2.8795527e-20)
(0.095957316 0.0052916847 -2.9608187e-20)
(0.09116489 0.0049278672 -2.4296002e-22)
(0.085826462 0.0045969905 3.2686994e-20)
(0.078305558 0.011333551 -3.3102966e-20)
(0.085715533 0.0018402317 -2.7150996e-22)
(0.10056826 -0.017878346 -3.6603792e-20)
(0.095548366 -0.012062194 7.5401981e-20)
(0.079747298 0.010630983 -7.78635e-20)
(0.080710798 0.014558494 9.6933461e-22)
(0.10388947 -0.016983831 1.896234e-21)
(0.12626042 -0.051721081 8.6559341e-20)
(0.13189984 -0.062312711 -4.4088136e-20)
(0.12815776 -0.055880439 0)
(0.11974867 -0.044776537 -4.955751e-20)
(0.09796773 -0.0279557 1.0218193e-19)
(0.068313386 -0.0079224829 2.1225834e-21)
(0.056212656 0.0049754921 -1.1047771e-19)
(0.068794631 0.0061417343 5.8238636e-20)
(0.084724654 -0.002617316 0)
(0.084901812 -0.020152983 0)
(0.076932577 -0.042691067 6.3539531e-20)
(0.080081725 -0.06664647 -6.73317e-20)
(0.10070648 -0.084687611 -1.3737434e-22)
(0.12031263 -0.086653269 -6.9312883e-20)
(0.13875828 -0.00074665314 -5.7306993e-22)
(0.13287367 -0.0013528533 5.9581717e-22)
(0.13670065 -0.0011017255 1.8611886e-21)
(0.13740459 -0.00056697577 -1.9408283e-21)
(0.13980305 -0.00088182596 0)
(0.14462626 -0.0017379563 2.7830143e-21)
(0.14627289 -0.0023296421 -3.6217935e-21)
(0.14366389 -0.0026785069 -3.7570585e-21)
(0.13941387 -0.0036085163 3.916699e-21)
(0.13400044 -0.0029597741 0)
(0.12977245 -0.0022284335 0)
(0.13028678 -0.0011530116 4.3935276e-22)
(0.13343499 -0.0017001804 -4.5808463e-22)
(0.13444845 -0.0025689893 6.6813008e-21)
(0.13208915 -0.00051113793 -7.9133658e-21)
(0.12776967 0.0015906069 0)
(0.12127831 0.0028332354 0)
(0.11802584 0.0042041589 0)
(0.11763466 0.002187891 9.3409661e-21)
(0.11631654 0.0025459991 3.0175676e-22)
(0.11778274 0.0042702674 -4.6521808e-23)
(0.11975588 0.0045554052 -3.185333e-20)
(0.11513652 0.0034105415 2.1426994e-20)
(0.10862589 0.0019979759 0)
(0.10764479 -0.00062666768 2.3675928e-20)
(0.11177704 -0.0056252242 -9.9590868e-23)
(0.1099499 -0.0078334904 -5.1437563e-20)
(0.1010026 -0.0026148515 2.6695023e-20)
(0.099800756 0.00025394668 -2.1777915e-22)
(0.10426033 0.0010522902 -2.9171302e-20)
(0.10351505 0.0022764813 3.0026029e-20)
(0.098305097 0.0042003516 2.4500114e-22)
(0.09392628 0.0015828742 -3.2625246e-20)
(0.087397997 0.0022580433 6.8510213e-20)
(0.081653784 0.0052916687 -3.5263832e-20)
(0.089234622 -0.0037198536 2.8780469e-22)
(0.096319842 -0.0079260205 0)
(0.086697558 0.0041487353 0)
(0.080292653 0.010202965 1.6123188e-22)
(0.097018633 -0.0078094229 4.172621e-20)
(0.12234121 -0.035541709 -8.8958781e-20)
(0.12970124 -0.048754731 4.5603509e-20)
(0.12333633 -0.045688814 4.6802209e-20)
(0.12086096 -0.035028382 -9.80948e-20)
(0.12064756 -0.021681273 5.1299521e-20)
(0.10949934 -0.0072987322 0)
(0.083759255 0.0016810123 0)
(0.061462825 -0.0026911067 0)
(0.066085218 -0.019943097 1.1593555e-22)
(0.096402189 -0.041534801 -1.2023957e-22)
(0.12543498 -0.065561826 0)
(0.12764423 -0.082103729 5.3700119e-24)
(0.10716777 -0.08743659 -1.3368231e-22)
(0.0893409 -0.081527763 2.0929608e-22)
(0.083950021 -0.069877429 -7.5372884e-23)
(0.13905608 -0.00069709648 6.0485391e-22)
(0.13301118 -0.0018068919 -6.2906329e-22)
(0.13671786 -0.0022511752 -6.5479791e-22)
(0.13736783 -0.0023259079 6.8264693e-22)
(0.13970428 -0.0022469289 -7.0926906e-22)
(0.14450758 -0.0036161445 7.3664199e-22)
(0.14620621 -0.0032948198 1.5264629e-21)
(0.14409212 -0.0033547124 0)
(0.13975385 -0.0047796244 2.4849711e-21)
(0.13404925 -0.0039092087 -3.870047e-21)
(0.12957215 -0.0016490554 0)
(0.1300689 -0.0012336935 -4.6515867e-22)
(0.13348841 -0.0016973522 -1.2311202e-25)
(0.13445275 -0.002250147 -1.2371984e-25)
(0.13173045 -0.001243343 8.3918735e-21)
(0.1275452 0.0008939277 -8.1831844e-21)
(0.12117697 0.003808784 0)
(0.11824938 0.004238374 0)
(0.11810935 0.0035223459 0)
(0.11620305 0.0035698912 0)
(0.11734023 0.0042908116 0)
(0.11985975 0.0035840822 1.1431929e-20)
(0.11652679 0.0048888006 -1.1500584e-20)
(0.11032556 0.003022544 -3.7636199e-22)
(0.108877 -7.5672145e-05 3.9178043e-22)
(0.11297426 -0.0059172443 0)
(0.1105324 -0.0061900488 0)
(0.10075262 -0.0011716373 2.2073277e-22)
(0.098540026 -4.6998118e-05 2.2936921e-22)
(0.10297323 0.00036818549 0)
(0.103098 0.0033671625 0)
(0.09976767 0.005898708 -3.3484695e-20)
(0.096322169 0.0026186214 6.902e-20)
(0.087678325 0.0030612449 -3.5880549e-20)
(0.081455782 0.0062856591 -1.4644828e-22)
(0.088890805 -0.00027617531 3.8621458e-20)
(0.094411617 -0.0030531279 -4.0411102e-20)
(0.086362242 0.0021904839 0)
(0.081978695 0.00093109113 -1.2467121e-24)
(0.096718346 -0.01205241 0)
(0.1199747 -0.025771371 4.6182292e-20)
(0.12938027 -0.031936327 -4.8125703e-20)
(0.11698721 -0.030160093 -5.0826235e-20)
(0.10060904 -0.020554541 5.1736325e-20)
(0.094426617 -0.0013090344 -3.9039702e-24)
(0.095708626 0.01829685 0)
(0.09597457 0.020309675 0)
(0.093313639 -0.0047751316 -1.1578679e-22)
(0.092519357 -0.040728757 -6.2935342e-20)
(0.10250959 -0.066788116 6.6444518e-20)
(0.12044939 -0.072829882 0)
(0.13056688 -0.066599137 7.0309047e-20)
(0.12308919 -0.05662547 -7.1952673e-20)
(0.1003258 -0.043975981 7.8451205e-20)
(0.079322115 -0.038039817 -7.8963651e-20)
(0.13936244 -0.00076549817 -3.1921811e-22)
(0.1331736 -0.0019515994 -9.9561072e-22)
(0.13677231 -0.0026241083 2.073289e-21)
(0.13730767 -0.0031030195 -1.4412858e-21)
(0.13979652 -0.0028180403 -2.2357837e-21)
(0.14455856 -0.0042072463 2.3422122e-21)
(0.14616044 -0.0036005442 -4.0238245e-21)
(0.14433181 -0.00356564 6.7030949e-21)
(0.14012301 -0.0043198015 -3.9277373e-21)
(0.13385167 -0.0038301634 9.086136e-22)
(0.12921185 -0.0014436165 4.7223652e-22)
(0.12994575 -0.0012769343 7.8210389e-21)
(0.13342318 -0.0020330147 -7.1740419e-21)
(0.13469602 -0.0013442792 9.0366864e-21)
(0.13195998 -0.0008862217 4.7125873e-23)
(0.12738612 0.00092093181 -1.9064067e-20)
(0.12135022 0.0043031057 9.2833385e-21)
(0.11871526 0.002959509 -3.130878e-22)
(0.1184205 0.0031716287 1.0428164e-20)
(0.11623595 0.0037928234 -1.0441603e-20)
(0.1171777 0.0037595605 0)
(0.11979468 0.0024697885 0)
(0.11728085 0.0044476679 -1.1825583e-20)
(0.1123594 0.0036486178 1.3069344e-20)
(0.11090118 -9.5250127e-05 1.2774172e-20)
(0.11406556 -0.0069530907 -1.3732581e-20)
(0.11047814 -0.0057039787 -1.4380785e-20)
(0.10100806 -0.00019755666 1.4591453e-20)
(0.098374643 0.00013216216 0)
(0.1012974 -0.00030955406 0)
(0.10172663 0.0038608347 0)
(0.10115668 0.0061778794 0)
(0.099793096 0.0023297854 0)
(0.090099402 0.0033342331 0)
(0.083433917 0.0047444718 1.5458495e-22)
(0.091092459 -0.0028364566 -4.078249e-20)
(0.09547053 -0.0062304203 4.2588256e-20)
(0.08816358 -0.0011505103 1.7304354e-22)
(0.085141117 -0.0032391931 -3.6012902e-22)
(0.098281151 -0.015374206 4.6780223e-20)
(0.11881133 -0.024699858 -4.9983676e-20)
(0.12928821 -0.024462216 5.0809607e-20)
(0.12019961 -0.018869497 -5.2461319e-20)
(0.095180448 -0.0093162708 5.7254274e-20)
(0.073060814 0.0064123989 -1.1625487e-19)
(0.075744949 0.016908322 1.2947814e-21)
(0.10015556 0.0064573883 2.71766e-21)
(0.12274921 -0.020350624 1.6875999e-21)
(0.12442015 -0.046439652 -8.4648649e-22)
(0.10882733 -0.059611864 -1.4728097e-21)
(0.098773571 -0.057356059 7.0758308e-20)
(0.10125692 -0.044839926 0)
(0.10303798 -0.024739249 7.8743864e-20)
(0.09847868 -0.0059990475 1.3728451e-21)
(0.089499793 -0.0017404077 -8.3229668e-20)
(0.13965239 -0.00079182226 6.7329112e-22)
(0.13334301 -0.002173515 7.003653e-22)
(0.13686204 -0.0029194778 7.2913751e-22)
(0.13725187 -0.0035315832 0)
(0.13974612 -0.0037105418 0)
(0.14444104 -0.0043079573 0)
(0.14609469 -0.0041615504 -4.2506966e-22)
(0.14449948 -0.0046902596 3.5326568e-21)
(0.14044338 -0.0040343368 -3.2255761e-21)
(0.13385818 -0.0044517474 -4.7933581e-22)
(0.12914068 -0.0032917331 -3.9767537e-21)
(0.13001516 -0.0023883288 4.1442082e-21)
(0.13348322 -0.0033076505 -9.1491949e-21)
(0.13476401 -0.0024344966 8.9501526e-21)
(0.13210099 -0.0015123811 0)
(0.1273965 0.00059384465 0)
(0.12181935 0.0033974219 6.3495566e-22)
(0.11932181 0.0016023842 3.3037738e-22)
(0.11836595 0.0022763052 -1.1017874e-20)
(0.11611467 0.0040712196 1.1036073e-20)
(0.11727678 0.0031197187 0)
(0.11955309 0.0020694711 0)
(0.11737944 0.0034906673 -4.0070918e-22)
(0.11358635 0.0037268666 0)
(0.11308564 0.00011639706 -1.3689597e-20)
(0.11565488 -0.0069610795 1.4476072e-20)
(0.11039018 -0.0058560976 0)
(0.100924 -8.6731452e-05 0)
(0.098680896 0.00040640576 0)
(0.10014222 -0.00074436589 0)
(0.099452852 0.0030878658 0)
(0.10111829 0.005728025 0)
(0.10142403 0.0035877155 -1.4865293e-22)
(0.091635917 0.0063954374 -1.5615469e-22)
(0.085341025 0.0059749858 0)
(0.092161089 -0.0030148751 -1.6824817e-22)
(0.094817071 -0.0051762735 2.2537229e-20)
(0.088463836 -0.00036852758 -2.3405363e-20)
(0.088190363 -0.0043135091 1.9028517e-22)
(0.097922853 -0.015132102 1.9623025e-22)
(0.11220659 -0.020391674 0)
(0.12183241 -0.015775267 2.0972891e-22)
(0.1186568 -0.0053480073 -8.8410496e-25)
(0.097738437 0.007550858 6.068131e-20)
(0.072533716 0.015282532 1.2993855e-21)
(0.071205631 0.0078912878 -6.4052616e-20)
(0.096985822 -0.0099798415 -1.2861278e-22)
(0.12787144 -0.027011804 0)
(0.1395535 -0.034919853 -1.3500475e-22)
(0.12408397 -0.037847974 -1.4019357e-22)
(0.097431 -0.034845085 7.8312346e-20)
(0.076005245 -0.023034217 -7.9043654e-20)
(0.069261023 -0.0094513364 7.9917258e-23)
(0.077026172 0.002435255 1.7292485e-24)
(0.093034043 -0.0046975761 -8.7335904e-23)
(0.13995996 -0.00085122237 0)
(0.13353967 -0.002509816 0)
(0.13693848 -0.0031530136 -7.6892317e-22)
(0.13729402 -0.0033007384 0)
(0.13970945 -0.0040196915 1.6590893e-21)
(0.14440017 -0.0039640566 -1.3042721e-21)
(0.14622457 -0.004529976 4.4829517e-22)
(0.14452826 -0.0053272838 0)
(0.14057598 -0.0040460027 4.8564748e-22)
(0.13419441 -0.0044157699 0)
(0.12906747 -0.0037582611 -5.2517887e-22)
(0.12994696 -0.0021550538 -3.7985904e-21)
(0.1334219 -0.0031411164 9.0878879e-21)
(0.13474068 -0.002683576 -4.7201276e-21)
(0.1322397 -0.0014102219 0)
(0.12735294 0.0010644777 0)
(0.12227596 0.0033698853 -1.6587731e-25)
(0.11973386 0.0020450517 -3.4835177e-22)
(0.11825526 0.0021681673 0)
(0.11618835 0.0043752698 0)
(0.11749059 0.0031011314 3.9091543e-22)
(0.11944765 0.0027030345 1.2620655e-20)
(0.11760886 0.0038475322 -2.7272998e-20)
(0.11455268 0.0039316172 1.4288655e-20)
(0.11536373 0.00037517271 1.4372759e-20)
(0.11762386 -0.006483802 -1.5257712e-20)
(0.11080312 -0.0057981062 -1.6001965e-20)
(0.10091588 -0.00039715386 1.6529199e-20)
(0.098947541 0.00038361538 -1.7245199e-20)
(0.099601017 -0.00040648013 3.5843118e-20)
(0.097602382 0.0023490381 -1.8924418e-20)
(0.10029907 0.0049855901 1.5255232e-22)
(0.10224562 0.0045911401 3.1519351e-22)
(0.093656358 0.0084414497 3.2943045e-22)
(0.089282026 0.0056337768 0)
(0.095138083 -0.0051635271 -2.2571142e-20)
(0.095196585 -0.0059597276 4.7358148e-20)
(0.090317739 -0.0018219416 -2.4401802e-20)
(0.092263124 -0.0064825106 -1.9959312e-22)
(0.099671271 -0.015872619 -2.0817979e-22)
(0.1073107 -0.02041597 0)
(0.11295248 -0.014529445 -2.8695293e-20)
(0.11114765 -0.00034976854 -3.3118839e-22)
(0.098699871 0.016312533 3.0724568e-20)
(0.083413378 0.018126857 0)
(0.080871464 -0.0013850931 0)
(0.095983862 -0.02441912 -3.414613e-20)
(0.11749137 -0.033348848 3.6631174e-20)
(0.13193188 -0.028717092 -3.2600648e-24)
(0.1299143 -0.019305715 7.7936718e-20)
(0.1099819 -0.01250025 -1.6079089e-19)
(0.080607639 -0.0083509531 1.697235e-19)
(0.061756471 -0.0091842552 -8.7606665e-20)
(0.061029156 -0.01454387 -8.881338e-23)
(0.078782327 -0.024228184 9.1928751e-23)
(0.14027358 -0.00092915694 3.7451473e-22)
(0.13374173 -0.0028703029 -3.8958835e-22)
(0.13693765 -0.0034951667 -1.6224274e-21)
(0.13728049 -0.0032815973 1.6899755e-21)
(0.13959668 -0.004150885 2.187567e-21)
(0.14435824 -0.0039737923 -4.5637049e-21)
(0.14634658 -0.0051115091 1.4229842e-21)
(0.14455277 -0.0053848892 -4.9100286e-22)
(0.14065157 -0.0051253974 -5.120873e-22)
(0.13450415 -0.004528587 -4.2800441e-21)
(0.12900153 -0.0037857779 4.4223911e-21)
(0.12979492 -0.0025551184 0)
(0.13337495 -0.003208537 0)
(0.13451689 -0.003294035 -3.1095215e-22)
(0.13189037 -0.0022172849 -3.2398583e-22)
(0.12712577 0.000473296 5.4395986e-21)
(0.12249906 0.0023859749 -1.7293574e-20)
(0.12020489 0.001909588 1.2478776e-20)
(0.11828096 0.001492175 -1.2259712e-20)
(0.11610284 0.0029505499 2.5355769e-20)
(0.1171815 0.0022988813 -4.6341314e-22)
(0.11890732 0.0026020516 -2.7256599e-20)
(0.11772297 0.0043924771 1.4686612e-20)
(0.11557838 0.0035334642 1.483865e-20)
(0.11731922 -0.00045429273 -1.5458814e-20)
(0.11932319 -0.0068910815 0)
(0.11124131 -0.0056852582 -1.6894568e-20)
(0.10071207 -0.0013422233 1.7422548e-20)
(0.098919168 -0.00039027531 2.8458238e-22)
(0.099343958 -0.00022843358 2.9475143e-22)
(0.09636148 0.0023503915 4.6229398e-22)
(0.098683348 0.0044066893 -1.6059915e-22)
(0.10149042 0.0052141009 -3.326263e-22)
(0.094821093 0.010261442 -1.7371263e-22)
(0.092907174 0.0056061744 0)
(0.097624395 -0.0047765459 0)
(0.094688573 -0.0041705941 -2.5058425e-20)
(0.090408057 -0.00051161128 5.1716034e-20)
(0.094616389 -0.0048403073 -2.6648631e-20)
(0.10193378 -0.013604041 -1.0951297e-22)
(0.10437814 -0.017873309 0)
(0.10309425 -0.011715212 0)
(0.098936879 0.0043631062 -3.193394e-20)
(0.094276129 0.021033572 3.2749484e-20)
(0.095109665 0.018463965 -3.377756e-20)
(0.099504008 -0.0042201065 3.5398814e-20)
(0.10177742 -0.026055175 1.4204047e-22)
(0.10415533 -0.030502547 -3.7727069e-20)
(0.11123083 -0.01925267 3.9337892e-20)
(0.11824375 -0.0025588915 0)
(0.11584596 0.010175043 6.3007861e-25)
(0.10470196 0.0095580638 -4.4963396e-20)
(0.086938423 -0.0040349462 9.2798671e-20)
(0.074281551 -0.020693675 -9.6291329e-20)
(0.074686237 -0.037874129 5.0099305e-20)
(0.14060943 -0.00098915996 0)
(0.13395257 -0.0029344428 8.2153893e-22)
(0.13693858 -0.0036678413 -3.3540852e-25)
(0.13729116 -0.0035407022 -8.9087814e-22)
(0.13957749 -0.0041370569 -1.2757105e-25)
(0.14441463 -0.0042130526 4.808795e-22)
(0.1464704 -0.0054177978 -9.9314727e-22)
(0.14476836 -0.0051337832 2.5937687e-21)
(0.14077288 -0.0060000705 0)
(0.1345259 -0.0046380668 0)
(0.12886393 -0.0031440626 -4.0803089e-21)
(0.12952773 -0.0025917636 4.8646855e-21)
(0.13325003 -0.0026450287 0)
(0.13447567 -0.0029044807 3.2793068e-22)
(0.13174541 -0.0018701822 3.415924e-22)
(0.1269647 0.00038961777 0)
(0.12268621 0.0019851914 -5.9616475e-21)
(0.12066242 0.0024326373 -3.9945187e-22)
(0.1184908 0.0019050426 6.8474154e-21)
(0.11607194 0.0020291354 0)
(0.11693885 0.002176119 1.3893427e-20)
(0.1185014 0.0026929977 -2.8960104e-20)
(0.11777739 0.0051048944 1.4736392e-20)
(0.11652121 0.0037851471 -1.5838424e-20)
(0.11894328 -0.00098764887 1.6562606e-20)
(0.12088508 -0.006586917 0)
(0.11210618 -0.0046987361 0)
(0.10099143 -0.0016059844 0)
(0.098779896 -0.0010085991 -2.9995314e-22)
(0.098990395 8.5965511e-05 -3.1055969e-22)
(0.095572963 0.0033586463 -2.0935231e-20)
(0.097502727 0.0039622384 2.1713981e-20)
(0.10020901 0.0053486313 1.7517759e-22)
(0.095993901 0.011037348 0)
(0.097259279 0.0041165378 0)
(0.10060809 -0.0053419271 1.9688122e-22)
(0.095165304 -0.0036112223 0)
(0.091211732 -0.00043828491 -2.1407666e-22)
(0.097073367 -0.0052500113 -2.8420208e-20)
(0.10512993 -0.013382468 2.9907636e-20)
(0.1053159 -0.017098721 3.057453e-20)
(0.097332219 -0.012084954 -3.1669315e-20)
(0.088178538 0.0029819385 3.3685697e-20)
(0.087766784 0.016895173 -3.459847e-20)
(0.10087979 0.013826834 -3.531658e-20)
(0.11481942 -0.0031742244 3.4544583e-22)
(0.11438245 -0.019336843 7.7475161e-20)
(0.10122754 -0.023888863 -3.9602113e-20)
(0.091560981 -0.014643552 0)
(0.093064913 0.0031732416 -4.3489906e-20)
(0.10178392 0.017654535 9.0095792e-20)
(0.11236463 0.01747506 -4.6611857e-20)
(0.11446886 0.0033478672 0)
(0.10448265 -0.01421154 -9.6841551e-23)
(0.092633551 -0.031059798 5.2719115e-20)
(0.14092057 -0.00097225497 0)
(0.13414963 -0.0027076332 0)
(0.13695809 -0.0035351392 0)
(0.13725107 -0.0038528498 1.4031449e-21)
(0.1395121 -0.00412326 -2.4447945e-21)
(0.14443703 -0.0045919856 2.0240329e-21)
(0.14652344 -0.0052604107 -2.6316672e-21)
(0.14496035 -0.0049906465 -5.4620392e-22)
(0.14100308 -0.0061462471 -5.6909265e-22)
(0.13442322 -0.0050068019 -5.347317e-21)
(0.12878014 -0.0031673824 4.3018314e-21)
(0.12931922 -0.003110754 0)
(0.13307542 -0.0031540367 5.3191286e-21)
(0.1344767 -0.0033988774 9.2708418e-24)
(0.13164951 -0.0019633985 -1.1887842e-20)
(0.12683168 -0.0004140116 6.0056736e-21)
(0.12262115 0.00099642538 -3.9248715e-22)
(0.12082706 0.001927755 -4.0827565e-22)
(0.11886563 0.0017647606 -3.8787484e-25)
(0.11610968 0.00071820408 2.2049131e-22)
(0.11666101 0.0014693475 2.2930444e-22)
(0.11805162 0.0021507909 2.3889644e-22)
(0.11765413 0.0045579866 0)
(0.11752177 0.0036011353 0)
(0.12040329 -0.0017153448 -1.736561e-20)
(0.12187871 -0.0065467764 1.8134952e-20)
(0.1128232 -0.0040851906 0)
(0.10156079 -0.0017191372 0)
(0.098471306 -0.0018186632 0)
(0.098123733 -0.00020406058 1.6508421e-22)
(0.094902873 0.0038862408 0)
(0.09657511 0.0033661093 2.2755232e-20)
(0.098503849 0.0054593481 -2.3748563e-20)
(0.096556416 0.010917361 1.9197961e-22)
(0.10085739 0.0027413248 -2.5720274e-20)
(0.10294511 -0.0052465678 2.6461157e-20)
(0.095037286 -0.0024027572 0)
(0.090910717 0.0011457672 2.8595191e-20)
(0.098177508 -0.0037335395 -3.0130627e-20)
(0.10693165 -0.011344697 1.2167917e-22)
(0.10654178 -0.013687384 3.2732911e-20)
(0.094996298 -0.0090508357 -3.3359897e-20)
(0.080537977 0.0034353261 0)
(0.079459414 0.013481949 3.6092293e-20)
(0.098087046 0.010909477 -3.836514e-20)
(0.1202131 0.00020249106 3.0618925e-22)
(0.12513738 -0.0089369833 0)
(0.10877458 -0.012152081 4.278761e-20)
(0.086301936 -0.0087103688 -4.363133e-20)
(0.075533669 0.0016529432 4.6103971e-20)
(0.083972327 0.0099908289 -4.8198595e-20)
(0.1050267 0.010035962 -4.8581255e-20)
(0.12443252 0.0033104912 1.0226762e-19)
(0.12683701 -0.0052804172 6.587984e-22)
(0.11401069 -0.016017925 1.4349832e-21)
(0.14119825 -0.00093233549 -4.3864471e-22)
(0.13433718 -0.0023521085 -4.5655416e-22)
(0.13704671 -0.0031912905 -9.5064518e-22)
(0.13725071 -0.0038820631 2.8837217e-24)
(0.13955607 -0.0041424583 1.0311291e-21)
(0.14442387 -0.0048589023 2.1327911e-21)
(0.14658874 -0.0047705979 -2.2213274e-21)
(0.14515654 -0.0049378069 5.7563144e-22)
(0.14120563 -0.0054796095 3.0040506e-21)
(0.13442687 -0.0050785602 -6.8769628e-21)
(0.12871135 -0.00350436 3.2570727e-22)
(0.12914255 -0.0033122804 5.39793e-21)
(0.13289163 -0.0035513452 3.5059022e-22)
(0.13436768 -0.0038527536 0)
(0.13160883 -0.0017885473 3.794759e-22)
(0.12690693 -0.00074905077 -3.9667199e-22)
(0.12250612 0.00049117053 6.669179e-27)
(0.12074789 0.0014793708 8.6071919e-22)
(0.11929844 0.0017677446 -4.4804738e-22)
(0.11648454 0.00048496897 7.2250768e-21)
(0.11644889 0.00092393499 -1.5698172e-20)
(0.11747839 0.0019730534 8.0456767e-21)
(0.11731394 0.0037354493 0)
(0.11840148 0.0032671263 -8.6619497e-21)
(0.12182466 -0.0018507111 8.7821801e-21)
(0.12297965 -0.0060648991 -2.9311506e-22)
(0.11386831 -0.0034945955 -3.0619829e-22)
(0.10255123 -0.00154849 0)
(0.098611975 -0.0021527149 0)
(0.097140679 -0.0003242419 -1.7393377e-22)
(0.09426988 0.003876459 0)
(0.09596487 0.0026320155 0)
(0.096693197 0.0057230085 -2.5139022e-20)
(0.096897604 0.010113997 -6.2316369e-23)
(0.1042139 0.0012823621 5.4282175e-20)
(0.10536942 -0.0057223171 -2.8259698e-20)
(0.095363565 -0.0021403597 0)
(0.090984451 0.0011893885 1.1894365e-22)
(0.099156263 -0.0034338023 -1.232611e-22)
(0.10860889 -0.010656494 -1.2836045e-22)
(0.10832864 -0.012759893 -3.4219894e-20)
(0.095573962 -0.0075854435 3.5154296e-20)
(0.077448216 0.0025264505 0)
(0.072838164 0.0089547928 0)
(0.09138694 0.0060028031 -1.5671992e-22)
(0.11724707 -0.00071707583 -1.6088331e-22)
(0.12956229 -0.003855895 -4.2607839e-20)
(0.11939907 -0.0029239648 4.3907371e-20)
(0.094682067 -0.00091792359 4.7634578e-20)
(0.0724895 0.00057820284 -4.8228629e-20)
(0.071388217 -0.00021364627 -9.847777e-23)
(0.089701426 -0.0013499445 5.1067525e-20)
(0.11365738 -0.0014635291 -5.4821347e-20)
(0.12982578 0.00013363918 0)
(0.12714753 -0.00063459362 -5.8036804e-20)
(0.14144711 -0.00081446918 6.9350871e-22)
(0.1344946 -0.0020287262 -2.4038582e-22)
(0.13714269 -0.0029065421 5.0086045e-22)
(0.13727334 -0.0036888444 5.2177192e-22)
(0.13953488 -0.0040953174 2.158816e-21)
(0.14438569 -0.0049699265 -3.9457673e-21)
(0.14656675 -0.0044238747 2.3405305e-21)
(0.14530547 -0.0048394562 0)
(0.14144032 -0.0047696518 2.851329e-21)
(0.13451962 -0.0047995475 -2.2992411e-21)
(0.12865905 -0.0037957192 -6.8441338e-22)
(0.12901808 -0.0034340727 0)
(0.13281469 -0.0039569233 -7.3822493e-22)
(0.13414034 -0.0042691646 3.8375457e-22)
(0.13145206 -0.0020112709 -3.9995252e-22)
(0.12697894 -0.0010347505 1.627165e-25)
(0.12253985 0.00030214405 -6.5391756e-21)
(0.12083698 0.00079921739 1.4055579e-20)
(0.11956627 0.0012476521 -7.5459356e-21)
(0.11675953 0.00090910789 0)
(0.11610851 0.00028687349 -2.5464852e-22)
(0.11691136 0.0016454535 0)
(0.11700771 0.0030270366 -2.7627568e-22)
(0.11888399 0.0028789165 0)
(0.12307202 -0.0019894732 6.3898673e-25)
(0.12396592 -0.0056395117 3.0863741e-22)
(0.11485184 -0.0031892795 3.2279809e-22)
(0.10377266 -0.0014677284 1.0858131e-20)
(0.098989605 -0.0021759234 4.1371492e-23)
(0.096372233 -4.1885978e-05 -1.1728479e-20)
(0.093649975 0.0034868367 2.4325887e-20)
(0.095035277 0.0022473612 -5.0550132e-20)
(0.094627328 0.0064741838 2.6532581e-20)
(0.096856107 0.0095890809 -2.1407822e-22)
(0.10670285 0.00082104874 -2.2109031e-22)
(0.10731325 -0.0050627627 2.3061787e-22)
(0.095592066 -0.0011810261 0)
(0.090590601 0.0016583046 1.2552215e-22)
(0.09952175 -0.0024154121 1.2985086e-22)
(0.10976546 -0.009071528 0)
(0.10963307 -0.011311602 -2.7901919e-22)
(0.096874913 -0.0052188518 0)
(0.077753061 0.0041187514 1.5383135e-22)
(0.069854302 0.0073618917 -4.0350603e-20)
(0.084736294 0.0022818287 4.2888405e-20)
(0.10915218 -0.0028462977 0)
(0.12534885 -0.0017550751 -8.8664648e-23)
(0.12359991 0.0054188734 0)
(0.10697914 0.0096838089 4.9503359e-20)
(0.084956736 0.0056065341 -5.0577779e-20)
(0.072778006 -0.0034180132 1.049215e-22)
(0.077321847 -0.0089749516 0)
(0.093704185 -0.0080730791 -5.6019964e-23)
(0.11363839 -0.0021983126 0)
(0.12285187 0.0056015065 5.9785745e-23)
(0.14166494 -0.00068144214 -2.4366546e-22)
(0.13464009 -0.0018470965 7.6007331e-22)
(0.13724829 -0.0027511943 -5.2762041e-22)
(0.1373318 -0.0034491988 1.0963428e-21)
(0.13955668 -0.0038983265 -1.7156289e-21)
(0.14436869 -0.0049775738 1.9665601e-25)
(0.14654552 -0.0043356414 -2.4561883e-21)
(0.14542122 -0.0046047687 2.5603765e-21)
(0.14165073 -0.0043176239 2.3379596e-21)
(0.13472555 -0.0043658919 -5.8994898e-21)
(0.1286395 -0.0039899316 3.6072961e-22)
(0.12895026 -0.0034263553 3.0021659e-21)
(0.13283168 -0.003922393 -5.8267392e-21)
(0.134048 -0.0041544516 6.0704259e-21)
(0.13132377 -0.0025055576 4.2155557e-22)
(0.12696094 -0.0011234698 -6.6342579e-21)
(0.12261452 0.00037413144 7.3188172e-21)
(0.12082493 0.00020126427 0)
(0.11957262 0.00049257472 8.2192222e-21)
(0.11685818 0.0014736935 -1.6541829e-20)
(0.11609847 -0.00018430148 2.7598768e-24)
(0.11665165 0.001362379 8.6532002e-21)
(0.11676598 0.0025757596 9.8635504e-21)
(0.11907393 0.0025230307 -1.9011108e-20)
(0.1240945 -0.0019835083 1.0394745e-20)
(0.12474011 -0.0052104461 -1.6286811e-22)
(0.11597242 -0.0032012355 1.6982565e-22)
(0.10520325 -0.0018205142 1.1264881e-20)
(0.099438548 -0.0025034442 -1.203731e-20)
(0.095849987 0.00018194277 1.9352523e-22)
(0.093387035 0.0029072023 0)
(0.094138728 0.0018031131 1.333953e-20)
(0.09263331 0.006669407 2.8819217e-23)
(0.096462823 0.0087013922 -1.4343594e-20)
(0.10849796 0.00088522092 3.4995341e-22)
(0.10931251 -0.004006262 -1.5707845e-20)
(0.096695371 -0.00063295109 1.6051826e-20)
(0.090491823 0.0010138185 -1.3217063e-22)
(0.099531485 -0.0027232228 1.3696012e-22)
(0.11095098 -0.0086961218 0)
(0.11078226 -0.011437631 -3.7969401e-20)
(0.09786495 -0.0049502581 3.8975164e-20)
(0.079607811 0.0050752014 -8.1283873e-23)
(0.071514561 0.0059658599 -4.2586408e-20)
(0.081852785 -0.0018286586 4.4830563e-20)
(0.10167203 -0.0073481756 9.0465284e-23)
(0.11615473 -0.0031269755 9.2458929e-23)
(0.1198014 0.0083468569 4.9788482e-20)
(0.11393195 0.01594632 -5.1316952e-20)
(0.10104395 0.012264265 -2.1077989e-22)
(0.087058685 -0.00026364653 0)
(0.079149615 -0.01171279 0)
(0.082548582 -0.014539222 -5.9847394e-25)
(0.094569736 -0.0081516811 0)
(0.10676984 0.0026804065 -6.4269635e-23)
(0.14186197 -0.00056089457 -5.1308608e-22)
(0.13480896 -0.0017379632 -5.3404588e-22)
(0.13734014 -0.0026816385 2.223647e-21)
(0.13735857 -0.0032461396 -1.1569817e-21)
(0.13956575 -0.0036680875 1.1979572e-21)
(0.14431918 -0.0047146551 -1.8798132e-21)
(0.14654854 -0.0043423234 -2.5871475e-21)
(0.1454464 -0.0041908428 2.6979075e-21)
(0.14175058 -0.0040917664 2.8137622e-21)
(0.13498236 -0.0039789326 -5.4844981e-21)
(0.12872503 -0.003958872 2.6578509e-21)
(0.12883736 -0.0032942992 0)
(0.13278794 -0.0036377385 4.0966444e-22)
(0.13394238 -0.0035645829 0)
(0.13118564 -0.0028462757 0)
(0.12694378 -0.0011284273 7.2186669e-21)
(0.12273788 0.00061462047 -7.7108224e-21)
(0.1208907 2.3806485e-05 -2.5144331e-22)
(0.11951739 -2.1467846e-05 -8.3948989e-27)
(0.11709089 0.0018658895 0)
(0.11628759 -0.0002628332 9.298429e-21)
(0.11639492 0.0011377405 -8.8178374e-21)
(0.11653415 0.002364731 1.7175677e-25)
(0.11909941 0.0023759545 9.6524128e-21)
(0.12470481 -0.0017651901 -2.1193806e-20)
(0.12552406 -0.0045910413 1.0629581e-20)
(0.11706112 -0.0030841356 -1.1714064e-20)
(0.10659547 -0.0022028572 5.9722782e-23)
(0.099944798 -0.0027682997 1.2669781e-20)
(0.095396361 0.00037840214 1.2674192e-20)
(0.093423063 0.0026872257 -1.3282369e-20)
(0.093422598 0.0016161728 0)
(0.090763212 0.0069286784 -2.2875832e-22)
(0.095549154 0.0081236378 -1.1630516e-25)
(0.10922069 0.0014809818 -1.2311017e-22)
(0.11091942 -0.0014103112 1.6666677e-20)
(0.098237934 0.0010600259 2.9527149e-22)
(0.090772807 0.0011878831 -1.7739973e-20)
(0.098768651 -0.0029477425 1.797355e-20)
(0.11137537 -0.0081997441 -3.8687205e-20)
(0.1121403 -0.010560626 -5.8678726e-23)
(0.098141215 -0.0041289746 4.1477192e-20)
(0.081403242 0.00593377 -2.1659263e-20)
(0.074407622 0.0062094003 -8.8675096e-23)
(0.081727694 -0.0027653768 -2.3072946e-20)
(0.095592813 -0.0095255618 2.4539919e-20)
(0.1054761 -0.0041912395 0)
(0.11039215 0.0083879613 -2.6209534e-20)
(0.11384693 0.017307141 2.7210194e-20)
(0.11264289 0.015345904 2.186325e-22)
(0.10490792 0.0045234048 0)
(0.091699769 -0.007657111 -6.1844173e-20)
(0.08148188 -0.013733344 -2.8059536e-22)
(0.082184246 -0.010211755 6.5901102e-20)
(0.089284609 -0.0012574187 6.5761149e-23)
(0.14202844 -0.00050823397 -2.2308542e-26)
(0.13497126 -0.0016817975 -1.1246293e-21)
(0.13743188 -0.0026492351 0)
(0.13737405 -0.0031380017 6.0926614e-22)
(0.13961331 -0.0035362404 9.4959952e-22)
(0.1443152 -0.0043768691 9.8490033e-22)
(0.14651474 -0.0042741554 -4.0928591e-21)
(0.14553535 -0.0037900862 -3.4713329e-22)
(0.14194809 -0.0040385419 -3.7350101e-22)
(0.13520269 -0.003959009 5.7776264e-21)
(0.12869805 -0.0038874039 -2.8004599e-21)
(0.12861569 -0.0031503708 -3.3108868e-21)
(0.13268759 -0.0033004089 2.6049488e-21)
(0.13396911 -0.0029856706 0)
(0.13117036 -0.0031486018 0)
(0.12687804 -0.0014420833 -7.844722e-21)
(0.12287408 0.00062992484 -2.6728092e-23)
(0.12109721 -0.00016945936 8.7404515e-21)
(0.11938901 -0.00039742872 -2.7566357e-22)
(0.11718619 0.0017278622 9.1556607e-21)
(0.1164386 -0.00018860627 -9.4969906e-21)
(0.11605235 0.00058433076 -3.0963614e-22)
(0.1162021 0.001993299 -1.6100292e-22)
(0.11909059 0.0021480355 -1.0660071e-20)
(0.12522757 -0.0015581355 1.1193684e-20)
(0.12635196 -0.0040029461 1.8041772e-22)
(0.11821587 -0.0030903927 0)
(0.10802553 -0.002717279 0)
(0.10053017 -0.0033277488 0)
(0.095076201 -0.00012539697 4.29426e-22)
(0.093522318 0.0022503698 -2.2277039e-22)
(0.093085749 0.0014299455 0)
(0.08949865 0.0065650542 1.2036098e-22)
(0.094535401 0.0067845652 2.5038411e-22)
(0.1089252 0.0012072265 0)
(0.11204643 0.00092198089 1.7255914e-20)
(0.10049944 0.0035256767 -1.7655618e-20)
(0.092089935 0.0012768396 0)
(0.098348261 -0.0041689642 1.5190757e-22)
(0.11119013 -0.0090471581 1.5772849e-22)
(0.11283294 -0.010418572 0)