/*--------------------------------*- C++ -*----------------------------------*\
| =========                 |                                                 |
| \\      /  F ield         | OpenFOAM: The Open Source CFD Toolbox           |
|  \\    /   O peration     | Version:  2406                                  |
|   \\  /    A nd           | Website:  www.openfoam.com                      |
|    \\/     M anipulation  |                                                 |
\*---------------------------------------------------------------------------*/
FoamFile
{
    version     2.0;
    format      ascii;
    arch        "LSB;label=32;scalar=64";
    class       surfaceScalarField;
    location    "110";
    object      phi_0;
}
// * * * * * * * * * * * * * * * * * * * * * * * * * * * * * * * * * * * * * //

dimensions      [1 0 -1 0 0 0 0];

oriented        oriented;

internalField   nonuniform List<scalar> 
40800
(
0.00080944453
0.00097155572
-0.0011532531
0.00091283881
0.0010080894
-0.0008636545
0.00098944532
0.0011025229
-0.001055897
0.0010382931
0.0010384475
-0.0012722069
0.0011049822
0.00084368167
-0.00072773762
0.0011542866
0.00086839658
-0.00089977895
0.0012048643
0.00083249148
-0.00085247891
0.0012540435
0.00081761618
-0.00084159397
0.001291183
0.00074367829
-0.00084196972
0.0013354744
0.00070202035
-0.00072025323
0.0013831541
0.00072550669
-0.00074100077
0.0014139403
0.00073764449
-0.00081121476
0.0014428696
0.00066984017
-0.00070360708
0.0014922227
0.0007074807
-0.00071034326
0.001517054
0.00077825968
-0.00083532813
0.001531684
0.00069411864
-0.00072787157
0.001612896
0.00076317532
-0.00076744955
0.001644318
0.0010020421
-0.0010601729
0.0016116912
0.00075956867
-0.00083349749
0.0017474611
0.00085913795
-0.00084801931
0.0018106826
0.001153505
-0.0011993586
0.0017915119
0.0010416228
-0.0011329527
0.0018596743
0.0010059519
-0.0010681564
0.0021003964
0.0012933323
-0.0013830613
0.0021490999
0.00148428
-0.0016557025
0.0020547139
0.0014048655
-0.0015793117
0.0022252576
0.0012394712
-0.00134604
0.0023404074
0.0012799361
-0.0013795014
0.0023474314
0.0016550055
-0.0017042278
0.0026941055
0.0018725307
-0.0019177189
0.0017112201
0.0031358274
-0.0019916171
0.00080665426
0.00078732393
0.00090771537
0.0011479119
0.00098036728
0.0011346234
0.001030935
0.00079858178
0.00110179
0.00097620174
0.0011484346
0.00084741616
0.0011989107
0.00079961434
0.0012443547
0.00076628384
0.0012821718
0.0006653637
0.0013290186
0.00068502156
0.0013745281
0.00070070847
0.0014024308
0.00066960584
0.0014381134
0.00064291318
0.0014890742
0.00070988871
0.0015046636
0.00071151523
0.0015296326
0.00068474669
0.0016248255
0.00076034058
0.0016075391
0.00088129176
0.0016145157
0.00070870684
0.0017706125
0.000885266
0.0017727314
0.0010724165
0.001763402
0.00091087276
0.0018667631
0.00096145417
0.0020721432
0.0011766085
0.0020780396
0.0012138167
0.0019639414
0.0011853068
0.0021957076
0.0011989929
0.002462385
0.0012694982
0.0024142851
0.0015722387
0.0024745963
0.0018350631
0.0016096117
0.002875737
0.00080943484
0.00063602414
0.00090363987
0.0011839396
0.00096669358
0.0010703769
0.0010226532
0.00062333683
0.0010926239
0.0010337933
0.0011381785
0.00079674522
0.001187615
0.0007438496
0.0012299956
0.00069269901
0.0012713008
0.00061672228
0.0013184283
0.00065922697
0.0013607038
0.00066098734
0.0013895608
0.00061058835
0.0014323214
0.000619156
0.0014799459
0.00069284413
0.0014955518
0.0006537253
0.0015278514
0.00067566694
0.0016239525
0.00077410447
0.0015781322
0.00075023181
0.0016251352
0.0006739562
0.0017806295
0.00091514048
0.0017295666
0.00095502428
0.0017489872
0.0008029373
0.0018657205
0.00093850931
0.0020077395
0.0010893436
0.0020140373
0.00096092481
0.0019069978
0.00096201511
0.0021379823
0.0011917636
0.0025242667
0.0013149781
0.0025256474
0.0014173777
0.0023535227
0.0016531081
0.0016545264
0.0025244989
0.00081305568
0.00054802108
0.00089748226
0.0010568738
0.00095162007
0.00089284149
0.0010141337
0.00055603797
0.0010765515
0.00096297624
0.0011228899
0.00071010724
0.0011711508
0.00067534947
0.0012129763
0.00061425634
0.0012581444
0.00059612153
0.001303286
0.00061334655
0.0013430714
0.00059920686
0.0013755846
0.0005594821
0.0014230194
0.00059041888
0.0014643112
0.00064760679
0.0014864551
0.00059839519
0.0015270702
0.00064663536
0.0016110267
0.00077347213
0.0015603601
0.00063194651
0.0016426375
0.00065572739
0.0017739238
0.00092715939
0.0016913765
0.00081922704
0.0017536565
0.00071374396
0.0018701743
0.00093199129
0.0019307002
0.0010622532
0.0019672037
0.00082087415
0.0019189143
0.00080891775
0.0020866545
0.0011840446
0.0024776156
0.0013772346
0.0025665994
0.0012600423
0.0023605515
0.001307078
0.0015295209
0.0022920851
0.00081949651
0.00053909305
0.0008922836
0.00078627151
0.00094180787
0.00068074214
0.0010082381
0.00060593981
0.0010565244
0.00077332568
0.0011048411
0.0006238861
0.0011511184
0.00061930795
0.0011942026
0.00055064796
0.001240609
0.00057605398
0.0012838337
0.00055192555
0.0013235195
0.00054819081
0.0013600032
0.00051411238
0.0014095115
0.00057369049
0.0014450062
0.00059865717
0.0014747702
0.0005388184
0.0015240477
0.00060500679
0.0015853565
0.00074560748
0.0015522997
0.00052980854
0.0016615431
0.00064768006
0.0017502974
0.00089983509
0.0016627019
0.00071264696
0.0017739614
0.00065001867
0.0018888713
0.00091799218
0.0018660629
0.0010617817
0.0019356421
0.00080762683
0.0019966811
0.0007543185
0.002072073
0.0011546876
0.0023338934
0.0014033447
0.0025084289
0.0011330545
0.0024014136
0.00093858962
0.0012135915
0.0022412104
0.00082678438
0.00058844289
0.00088980449
0.00046550722
0.00093982169
0.00053671169
0.0010046029
0.00072514943
0.0010405004
0.00055006487
0.0010899191
0.00055917973
0.0011323012
0.0005904583
0.0011755151
0.0005168893
0.0012188888
0.0005308291
0.0012622082
0.00050088785
0.0013018684
0.00051496828
0.0013429031
0.00047162243
0.0013923162
0.00054662475
0.00142266
0.00054910209
0.00146032
0.00047801769
0.0015185813
0.00055681851
0.0015514324
0.0006820531
0.0015516026
0.00046943083
0.0016758597
0.0006527125
0.0017165387
0.00082752104
0.001644629
0.00061442267
0.0018055939
0.00064619401
0.0019175632
0.00088714532
0.0018251498
0.0010068264
0.0019203632
0.00086290735
0.0020918432
0.00079435623
0.0021221132
0.001086544
0.0021716153
0.0013461245
0.0023361339
0.001091643
0.0023994565
0.00069154392
0.00084317082
0.0023367467
0.00084121021
0.00063641283
0.00089174511
0.00022773526
0.00094238323
0.00052461217
0.00099849604
0.00081896894
0.0010297867
0.00038827064
0.0010783848
0.0005195771
0.0011163304
0.00056582235
0.001158232
0.00050342904
0.001197444
0.00046994405
0.0012408757
0.00046750573
0.0012777482
0.00046327798
0.0013234715
0.0004342421
0.0013696623
0.00049713517
0.0013963902
0.00047598038
0.0014435416
0.00044756928
0.0015080643
0.00050719953
0.0015146565
0.00058687453
0.0015547617
0.00045300645
0.0016772558
0.0006592038
0.0016769431
0.00072369831
0.0016377963
0.00052123068
0.0018249949
0.00067603149
0.0019322907
0.00082916036
0.0018024313
0.00085605235
0.0019072322
0.00088405681
0.0021708688
0.00086840905
0.0022064743
0.00097930658
0.00208796
0.0011542176
0.0021487733
0.0010823647
0.0023363036
0.00069495489
0.00064878653
0.0024780971
0.00087967703
0.00064136181
0.00090320081
0.00015911031
0.00095335632
0.00063129145
0.00099503581
0.00082014611
0.0010280743
0.00033291533
0.0010713409
0.00051497122
0.0011045141
0.00050825104
0.0011436679
0.00048501438
0.0011802798
0.00040912054
0.0012213843
0.00043822309
0.0012545859
0.00040601069
0.0013020611
0.00041397164
0.0013417039
0.00042944514
0.0013684412
0.00040188681
0.001419958
0.00043054354
0.0014866263
0.00046235284
0.0014790715
0.00047122499
0.0015559923
0.00044604522
0.001660766
0.00065001614
0.0016316521
0.00059563775
0.0016414783
0.00046373271
0.00181676
0.00071749318
0.001914783
0.00076535156
0.0017987135
0.00065245042
0.0018790237
0.00081107768
0.0021713318
0.00092654842
0.0022373773
0.00086120856
0.0020740188
0.00086059917
0.0020335479
0.00097043491
0.0022704667
0.00087827437
0.00071515297
0.0025689997
0.00094673437
0.00059412384
0.00093467137
0.00027869282
0.00097371982
0.00077585608
0.00099960067
0.00072296734
0.0010364517
0.00039122271
0.0010718324
0.00052114948
0.0011004853
0.00042057798
0.0011330401
0.00045169819
0.0011671899
0.00037109759
0.0012026326
0.00039774423
0.0012342853
0.00036031566
0.0012787951
0.000412873
0.0013117632
0.00037273921
0.0013412356
0.00033551452
0.0013916441
0.00041444186
0.0014523853
0.00042305155
0.0014423274
0.00035901703
0.0015457691
0.00043285125
0.001623492
0.00062132292
0.0015875034
0.00046428896
0.0016545994
0.00041227954
0.0017887213
0.000746499
0.0018614806
0.0007196745
0.0018044833
0.00045507274
0.001857627
0.00066297418
0.0021008
0.00093576605
0.0022024358
0.00075779908
0.0020864665
0.00057500335
0.0019932964
0.00073624688
0.002197712
0.0010180215
0.00098183472
0.0025428099
0.0010134644
0.00048602635
0.00099392196
0.00049930475
0.0010143891
0.00084564322
0.0010257405
0.00055921848
0.0010582957
0.00051297471
0.0010792542
0.00050233456
0.0011041324
0.00034202372
0.001131523
0.00040104297
0.0011639688
0.00036997354
0.0011906213
0.0003460383
0.0012204026
0.0003298429
0.0012556701
0.00039669125
0.0012832497
0.00033437009
0.0013170919
0.00029369146
0.0013605382
0.00039652017
0.0014099941
0.00039585656
0.0014086236
0.00027932123
0.0015237668
0.0004272754
0.0015663867
0.00056440741
0.0015401912
0.0003677058
0.0016666397
0.00036385218
0.0017528971
0.00071708358
0.0017738628
0.000674337
0.0018021631
0.00031614363
0.0018678623
0.00050607064
0.001997296
0.00088098148
0.0020996493
0.00071948258
0.0020907256
0.0003820155
0.0020663104
0.00047640261
0.0021638267
0.00095690659
0.0011932934
0.0024242244
0.0010353865
0.00032373702
0.001046371
0.00071247876
0.0010604583
0.00076059046
0.001073625
0.00037051881
0.001099785
0.000587676
0.0011032859
0.00045571306
0.0011218851
0.00031796504
0.0011422754
0.0003456875
0.0011690581
0.00038335632
0.0011896318
0.00030295479
0.0012188575
0.00031123439
0.0012445519
0.00034619916
0.0012674208
0.00031691285
0.0013034127
0.00027151412
0.0013357481
0.00037073538
0.001370015
0.00038072046
0.0013832998
0.00024804717
0.0014911923
0.00041895333
0.0014981696
0.0004659901
0.0014902542
0.00029313705
0.001669391
0.00035238773
0.0017064383
0.00062352404
0.0016686027
0.00060447831
0.0017865874
0.0002977441
0.0019036502
0.00040064329
0.0019174924
0.00075107566
0.0019539908
0.00072856012
0.0020442376
0.00035944954
0.0021653492
0.00034336981
0.0022228798
0.00071414733
0.0011392176
0.0023078049
0.0010293664
0.00017481802
0.0010749717
0.00080879905
0.0010950262
0.00055560087
0.0011247094
0.00023211825
0.0011528645
0.00056311418
0.0011549752
0.00038519192
0.0011696487
0.00035934209
0.0011792605
0.0003128375
0.0011928628
0.00037228808
0.0012059607
0.00028927346
0.0012278018
0.00029947661
0.0012462741
0.00028891751
0.0012650236
0.00030881261
0.0013049741
0.00026643833
0.0013292013
0.00032492008
0.0013480808
0.00035305306
0.0013767414
0.000244576
0.0014607742
0.00039931133
0.0014389424
0.00035673567
0.0014447418
0.00024338591
0.0016474069
0.00037195544
0.0016463672
0.00048780924
0.0015659871
0.00047479076
0.0017520089
0.00036561885
0.0019244864
0.00038544681
0.0018752572
0.00058233111
0.0018299611
0.00067282712
0.0019846663
0.00049140149
0.0022121302
0.00037820122
0.0023201744
0.00050879796
0.00081447552
0.0022745219
0.00098487725
9.2364961e-05
0.0010640651
0.000701555
0.0010942431
0.0003486614
0.0011424448
0.00020446739
0.0011784522
0.00046372544
0.0012027621
0.00029985816
0.0012295478
0.00041660404
0.001242586
0.00030671911
0.0012493481
0.00032166858
0.0012581126
0.0003002506
0.0012688906
0.00029305561
0.0012799627
0.00026240708
0.001287389
0.00027240527
0.0013234451
0.00028651578
0.0013386923
0.00027482782
0.0013425171
0.00030045866
0.0013868393
0.00024981859
0.0014427232
0.00037680699
0.0014107986
0.00025623088
0.0014310124
0.00023250096
0.0016157073
0.00041668597
0.0015926335
0.00035823832
0.0014886031
0.00029838153
0.0016881182
0.00042749945
0.0018971635
0.00045554372
0.001838067
0.00043686591
0.0017370265
0.00049836652
0.0018992656
0.00060779889
0.0021699649
0.00053947156
0.0023232831
0.00045401361
0.00046663363
0.0022427747
0.00094013317
9.9607638e-05
0.0010208849
0.00045405852
0.0010715833
0.00023634283
0.0011346867
0.00027632985
0.0011695205
0.00032179788
0.0012072253
0.00025026669
0.0012405135
0.00043118268
0.0012701106
0.00030740464
0.001292353
0.00024266252
0.0013163759
0.00029703623
0.0013341536
0.00027629245
0.0013475919
0.00026372374
0.0013522275
0.00022997491
0.0013787103
0.00031228504
0.0013864037
0.00023560199
0.0013751098
0.00024159416
0.0014244953
0.00026858908
0.0014454076
0.00035292049
0.0014186734
0.00016508712
0.0014525711
0.00023668349
0.0015877664
0.00046854249
0.0015636531
0.00026436276
0.0014806953
0.00013286134
0.0016425171
0.00043752148
0.0018410016
0.00056738855
0.0017970867
0.00033779054
0.001713868
0.000266236
0.0018176501
0.00056696338
0.0020642095
0.00071321617
0.0022182586
0.00051752817
0.00027662486
0.0021860356
0.00093500081
0.00017044259
0.00099051921
0.00019323495
0.0010384945
0.00027418986
0.00110286
0.00038912794
0.0011398238
0.00019248225
0.0011903525
0.00025657849
0.0012242855
0.00036149739
0.0012586909
0.00029948708
0.0012891762
0.00018535745
0.0013208313
0.00026458224
0.0013516644
0.00025164365
0.0013759504
0.00025139658
0.0013991134
0.00019048728
0.0014263511
0.00029903221
0.0014444984
0.00020484607
0.0014379779
0.00018854579
0.0014923701
0.00027777148
0.0014788106
0.00031603326
0.0014708024
0.00011708609
0.001521301
0.00022413055
0.0015814361
0.0004878751
0.0015605623
0.00021628476
0.0015387818
3.1766987e-05
0.0016535313
0.000388525
0.0017755859
0.00062812219
0.0017525795
0.00028191013
0.0017509434
9.4841015e-05
0.0018171318
0.00036321363
0.0019563973
0.00072724613
0.002055148
0.00062508327
0.00025042345
0.0020805506
0.00099608222
0.00026712909
0.0010077561
1.2920456e-05
0.0010448823
0.00042382498
0.0010918846
0.00047522483
0.0011217292
0.0001493148
0.0011658176
0.00029849975
0.0011943941
0.00023173808
0.0012294439
0.00026325887
0.0012686225
0.00016285775
0.0013022198
0.00020571117
0.0013377976
0.00023605343
0.0013610214
0.00020781706
0.0013960287
0.00016268778
0.0014180702
0.00026351499
0.0014470462
0.00018209405
0.0014563258
0.00013778109
0.0015195648
0.00025553096
0.0014937624
0.00025356207
0.0015225182
0.00011313848
0.001600329
0.00021088448
0.0015961833
0.00044032861
0.0015717267
0.00021379132
0.0016304082
1.7825251e-05
0.0017301528
0.00029900444
0.0017305753
0.0005680161
0.0017069582
0.00028571841
0.0017852661
3.1380495e-05
0.0018958385
0.00015764443
0.0019192017
0.00052716259
0.0019190535
0.0006049431
0.0003416945
0.0019630704
0.00096410246
0.00024327083
0.0010170065
-8.433322e-05
0.0010547052
0.00054560726
0.0010942463
0.00045889869
0.0011277628
0.00015753191
0.0011623855
0.00030869149
0.001187004
9.9759182e-05
0.0012161097
0.00020081497
0.001253539
0.00016466006
0.0012831221
0.00014317945
0.0013159373
0.00022707181
0.0013377357
0.00014500168
0.0013821757
0.00015363279
0.0013962523
0.00021434179
0.0014277931
0.00016840901
0.0014485637
0.00011389531
0.0015065014
0.00021811175
0.0014742059
0.00017948134
0.0015311041
0.00012794284
0.0016313749
0.00020600055
0.0015840156
0.00031521004
0.0015642784
0.00020869253
0.0016975789
6.7498701e-05
0.0018035057
0.00023592704
0.0017142609
0.00038829982
0.0016818833
0.00027296502
0.0018201112
5.1010614e-05
0.001990266
0.00010331519
0.0019564022
0.00025171647
0.0018676086
0.00041671475
0.00036016158
0.0018958255
0.00095242817
0.00011330563
0.0010176203
-4.9085699e-05
0.0010515373
0.00053422228
0.0010862792
0.00031520577
0.0011264787
0.00016111829
0.0011535339
0.00026110865
0.0011832642
4.1165604e-05
0.0012085706
0.0001340997
0.0012454897
0.00015758932
0.0012759644
9.7960379e-05
0.0013000062
0.00019927363
0.0013228267
0.00010551428
0.0013682421
0.0001600798
0.0013758239
0.0001392181
0.0014080581
0.00015655279
0.0014393528
0.00012564812
0.0014849589
0.00018085593
0.0014547314
0.00011058651
0.0015212767
0.00015389777
0.0016221504
0.00020575474
0.0015559309
0.0001491127
0.0015362513
0.0001616618
0.0017121725
0.00017722578
0.0018129639
0.00021464866
0.001689754
0.00017162159
0.0016399451
0.00018129472
0.0018217985
0.00015827383
0.0020153457
0.00017026062
0.0019973781
0.00011872906
0.0018609097
0.0001399996
0.00025598904
0.0018683288
0.00099465759
-6.6061973e-05
0.0010387236
0.00011540783
0.0010564593
0.00039471266
0.0010862639
9.8430574e-05
0.0011273363
0.00015924582
0.0011468538
0.0001634781
0.0011797006
6.6599603e-05
0.0012015766
9.8231074e-05
0.0012335758
0.00012281427
0.0012665576
8.8513631e-05
0.0012834081
0.00013323011
0.001313946
0.00010071922
0.0013528999
0.00016453084
0.0013611872
5.468712e-05
0.0013926101
0.00013878353
0.0014282217
0.00013938815
0.001461491
0.00015034286
0.001446544
4.0597847e-05
0.0015104798
0.00017676545
0.0015934276
0.00021314005
0.0015410169
1.1733471e-05
0.0015249915
6.3121446e-05
0.001698828
0.0002824798
0.001780982
0.00022362404
0.0016758436
1.4547908e-05
0.001620783
4.7305957e-06
0.001804211
0.00026806241
0.0019741118
0.00030290117
0.0019800434
0.00011695121
0.0018800254
-2.748316e-05
6.9416564e-05
0.0018643298
0.001022712
-0.00026669263
0.0010763657
0.00025516389
0.0010788916
0.00021370368
0.0011075576
-8.3443773e-05
0.001141702
0.00014002503
0.0011568312
4.658025e-05
0.0011900188
0.00012738204
0.0012054986
9.6345777e-05
0.0012342805
6.2315996e-05
0.0012662137
0.00010784893
0.0012768627
5.2492616e-05
0.0013100063
0.00010846642
0.0013343299
0.00014176955
0.0013529352
5.7739345e-06
0.001379784
0.00011358424
0.0014162556
0.00013091349
0.0014352623
0.00012773715
0.0014444451
-1.4503187e-05
0.0014967009
0.0001667518
0.0015460135
0.00022163274
0.0015284027
-6.3990289e-05
0.0015375449
-3.137406e-05
0.0016651589
0.00031105432
0.001720444
0.00025175279
0.0016519326
-5.7181382e-05
0.0016594933
-0.00012727721
0.001791718
0.00024774379
0.0019083521
0.00043754581
0.0019111785
0.00017617918
0.0018908097
-6.1158878e-05
-5.5816415e-05
0.0018988296
0.0010851435
-0.00036164345
0.0010962908
0.00033068359
0.0010980556
9.5820607e-05
0.0011343007
-0.0001870715
0.0011613403
8.605024e-05
0.0011797914
-1.2022041e-05
0.0012096171
0.00016303687
0.0012226238
9.8160553e-05
0.0012518442
2.8011662e-06
0.0012763096
0.00011860256
0.0012895094
9.0141689e-06
0.0013235658
9.9203132e-05
0.0013372377
9.4637344e-05
0.0013664915
9.6022127e-07
0.0013850747
8.1139085e-05
0.0014198202
0.0001059687
0.001422553
0.00011079738
0.0014604546
-3.206695e-05
0.001503601
0.00011789959
0.001506109
0.00020269246
0.0015222549
-8.1566066e-05
0.0015777056
-8.6868235e-05
0.0016454237
0.00023232629
0.0016547162
0.00025852166
0.0016220965
-7.1050145e-05
0.0017161363
-0.00016468573
0.0018268984
0.00013158567
0.0018419963
0.00041189629
0.0018250001
0.00025365271
0.0018715667
-2.5901727e-05
-9.2971751e-05
0.0019698547
0.0011088253
-0.00028802974
0.0010842077
0.00027670243
0.0010938533
0.00013531704
0.0011448957
-0.00016426582
0.0011700706
4.2034183e-05
0.0011992253
-1.5776182e-05
0.0012296122
9.8511473e-05
0.0012459036
8.2852823e-05
0.0012845559
-4.5415486e-05
0.0013033799
8.4495618e-05
0.0013268833
1.0140672e-05
0.0013560145
6.316496e-05
0.0013682986
4.9709818e-05
0.0014100058
2.3604367e-06
0.0014252678
4.043961e-05
0.0014637082
6.0749427e-05
0.0014534944
7.8218561e-05
0.0015147148
-2.0720784e-05
0.0015535921
5.6179737e-05
0.0015153282
0.00012461928
0.0015625187
-4.9891707e-05
0.0016564787
-7.536841e-05
0.0016864409
0.00010549046
0.0016372862
0.00016847467
0.0016376711
-3.6089583e-05
0.0017945078
-0.00010907454
0.0019101122
2.9085568e-05
0.0018423376
0.00021845841
0.0017839256
0.00019885103
0.0018744927
1.9281195e-05
-4.9413838e-05
0.0020443579
0.00088688924
0.00094702514
0.0012295671
0.0012420312
0.0012650116
0.001324151
0.0013414363
0.001407474
0.0013842355
0.001405757
0.001477723
0.0015150175
0.0015372877
0.0015763927
0.0016128746
0.0016522473
0.0016490962
0.001726114
0.0017674759
0.0017011389
0.001759533
0.001874247
0.0018888088
0.0018009057
0.0018057737
0.0019817804
0.0021148201
0.0020112744
0.0018997856
0.0019962508
0.002211721
9.9475659e-05
0.0021724005
7.3257305e-05
0.0020016277
1.9173268e-06
0.0019544751
1.9583564e-05
0.001954045
0.00013282152
0.0020021808
0.00040242353
0.0020431317
0.00076952606
0.0020409541
0.00097977915
0.0019610007
0.00089171749
0.001878046
0.00057629318
0.0018240577
0.00030466369
0.0018694575
0.00028864429
0.002011595
0.00058267001
0.0022429024
0.0010180889
0.0024925932
0.0012522073
0.0025957286
0.0011334987
0.0025438244
0.00080926425
0.0024005415
0.00066662754
0.0022983779
0.00087994488
0.0023510103
0.001419656
0.0024891954
0.0018897056
0.0025997418
0.0019069584
0.0026527824
0.0026199758
0.0016238693
-0.00010168782
0.0018082394
-0.00019084631
0.0017374961
-0.00018384918
0.0017951644
-6.6435372e-05
0.0019341124
0.00016647491
0.002090946
0.00038632977
0.0021536856
0.00047049095
0.0021255384
0.00045604689
0.0020258752
0.00040495462
0.0019095456
0.00042305303
0.0018863266
0.00058546031
0.0019445154
0.00089705318
0.0020447939
0.0011956198
0.0021495716
0.0012391337
0.0022264067
0.00098634943
0.002202323
0.00058258801
0.0021299141
0.00035795795
0.0021289761
0.00052301921
0.0023051042
0.0010520654
0.0026119003
0.0016008092
0.0028393318
0.0018501419
0.0028435805
0.0017015247
0.0026584693
0.0024020077
0.0012757577
0.00013920658
0.0017915764
0.00036156254
0.0016869555
0.0005410535
0.0016929882
0.00054677353
0.0017627553
0.00035735166
0.0018114311
8.4061824e-05
0.0018274803
-0.00015224431
0.0018410432
-0.0002170612
0.0018658904
-3.098996e-05
0.0019426381
0.00036280496
0.0020988553
0.00084180587
0.0022413206
0.0011539253
0.002291358
0.0011763335
0.0022315068
0.00095770108
0.0021057001
0.00063667207
0.0019802967
0.00053668522
0.0018909231
0.00074900877
0.0019200012
0.0011525371
0.0021359519
0.001466839
0.0024473334
0.0014677277
0.0026559292
0.0012121261
0.0026745956
0.00084770888
0.0025784329
0.0024848491
0.00065749459
0.00045501098
0.0020840728
0.00079750114
0.0018984155
0.00088813079
0.001774218
0.00068418849
0.0016790138
0.00034285923
0.001611217
6.1966144e-05
0.0015591662
-5.9813672e-05
0.0015751287
0.00011426793
0.0016402735
0.00043121254
0.0017878403
0.00075198715
0.0019817901
0.00080018574
0.0021005692
0.00059360076
0.0021471587
0.00023564678
0.0021459282
6.6932898e-05
0.0021341613
0.00024796264
0.0021607335
0.00077892404
0.0021902536
0.0014705603
0.0022037774
0.0019351871
0.0022002954
0.0018850206
0.0022071331
0.0013649476
0.0022156402
0.00070112743
0.0021515303
0.00032907168
0.0021371591
0.0023071377
0.00049384822
9.3565916e-05
0.0020359064
-9.2902982e-06
0.0018734141
-0.00018541707
0.001800035
-0.00021760288
0.0017570784
-0.00011989768
0.0017691907
0.00016175895
0.0017663854
0.00064461002
0.0017717516
0.001118044
0.0017452867
0.0013756507
0.0017252092
0.0012079844
0.0017297467
0.00072668691
0.001716987
0.0001268
0.0017097321
-0.00025005374
0.0017721128
-0.00025181186
0.0019466512
0.00021519696
0.0022116219
0.00093750516
0.0024534599
0.001478952
0.0025119004
0.0016364598
0.0024385362
0.0014406982
0.002274219
0.0009998881
0.0021275979
0.00063778353
0.00198199
0.00073707652
0.0018984843
0.0020305687
0.0012580734
-0.00044882031
0.0016823824
-0.00078391624
0.0015924883
-0.00086695026
0.0016293988
-0.00069765171
0.0017409992
-0.00029567621
0.0018943325
0.00022337702
0.0019730979
0.00072760729
0.0020008902
0.00098798582
0.0019503195
0.00093942338
0.0018389145
0.00071139916
0.0017219055
0.00042984471
0.0016438376
0.00029611159
0.0015648175
0.00041442259
0.0015844524
0.00077472252
0.0017116759
0.0011401275
0.0019535223
0.0012482133
0.0021924886
0.0010239365
0.0022739916
0.00059108549
0.0022640342
0.00011600798
0.0022317248
4.9603151e-05
0.0022443953
0.00045919953
0.0022944859
0.0013150776
0.0022875338
0.0022655673
0.0022174989
-2.2184391e-06
0.0015614639
9.9269984e-05
0.0014645673
0.00027181555
0.0014668261
0.00038311612
0.0015654572
0.0004564208
0.0017041615
0.00040159639
0.0017585527
0.0001260544
0.0017845523
-0.00026970936
0.0017966538
-0.00056261047
0.0018099726
-0.00054468376
0.001825868
-0.00017413346
0.0018899825
0.00050849988
0.0018959051
0.0013175034
0.0018686317
0.0019547332
0.0018320607
0.0021534233
0.0018186797
0.0017526474
0.0018553144
0.00095702584
0.0018421209
6.734081e-05
0.0017887157
-0.00044632401
0.0018455632
-0.00032999926
0.0020513568
0.00040921055
0.0023849244
0.0013606584
0.002629759
0.0026473588
0.0020558417
0.00068305766
0.0018217199
0.0012556844
0.001661178
0.0015928911
0.0015356935
0.0016128074
0.0014776041
0.0012157944
0.0014647374
0.0004874069
0.0014225665
-0.00027039728
0.0014047322
-0.00084560499
0.0014504069
-0.0010618744
0.0015685898
-0.00085026904
0.0017446122
-0.00029701859
0.0019572642
0.00040714332
0.0020839322
0.0010831096
0.0021114562
0.0014767447
0.0020790256
0.0015215841
0.0019679973
0.0012958836
0.0018664949
0.0008274819
0.0017596445
0.00045216618
0.0015940801
0.00040869749
0.0015509586
0.00074855656
0.00171588
0.0012291983
0.0020798177
0.0014611377
0.0024098352
0.0025451443
0.0014319718
0.000400889
0.0019574146
0.0006867799
0.0018350387
0.0007737887
0.0017000351
0.00069048258
0.0015821838
0.00047604564
0.0014882329
0.00025152186
0.0013781684
0.00013366872
0.00128365
0.00022505143
0.0012844667
0.00044825695
0.0013761381
0.00064728909
0.0015297722
0.0007271733
0.0017427328
0.00069580924
0.0018865877
0.00040432108
0.001926034
-3.038834e-05
0.0019610436
-0.00037799072
0.0019865524
-0.00040484225
0.0019945722
-3.749037e-05
0.0020030557
0.00067391588
0.0019083955
0.0016206086
0.001770667
0.0023678476
0.0017150689
0.0026589011
0.001799865
0.0022807652
0.0020077769
0.0021610638
0.0014415051
-0.00030675614
0.0018209763
-0.000848043
0.0017510567
-0.0013461986
0.001655119
-0.0015492932
0.0016117308
-0.0012645175
0.0016228376
-0.00045076965
0.0016232379
0.00064296817
0.0015604905
0.0016100041
0.0014873704
0.0021957452
0.0014390271
0.002371751
0.0014310619
0.0020411137
0.0014987063
0.0012633015
0.0015907896
0.00022185195
0.0016006121
-0.0008404431
0.001629434
-0.001527381
0.0017257403
-0.0015924175
0.001877008
-0.00094152148
0.0020780482
0.00023457311
0.0022023538
0.0014662745
0.0021369448
0.0024880668
0.0020186237
0.0029744143
0.0019098622
0.0028052648
0.0018832891
0.0018838451
0.001885021
-0.0011717189
0.0015258479
-0.0019942367
0.0015387147
-0.0022682151
0.0015095238
-0.0020013486
0.001565241
-0.0013536986
0.0016644302
-0.00057440441
0.0017233262
0.00027664276
0.0017065123
0.0011526862
0.0016883504
0.0018986625
0.0016559025
0.0023038778
0.0015838592
0.0021718028
0.0015049781
0.0014209011
0.0014490144
0.00037385069
0.0013574978
-0.00046818721
0.0013233771
-0.00078658426
0.0014428735
-0.00060662103
0.0016604828
-0.0001771921
0.0019051745
0.0002456254
0.0021223875
0.00070752372
0.0021640449
0.0011106733
0.0021281932
0.0013245942
0.002081955
0.001412995
0.0020258857
0.0019633484
0.00128049
-0.00048499023
0.0013582468
-0.00067591992
0.0013658226
-0.00056657424
0.0013491466
-0.00032340884
0.0014356878
-9.8717688e-05
0.001561797
7.2033565e-05
0.0016446063
0.00017863529
0.0016530406
0.00018284356
0.0016596879
0.00010503072
0.0016780414
-7.4552782e-05
0.001673902
-0.00017581987
0.0016300702
-7.0025831e-06
0.0015785183
0.00038324433
0.0014521257
0.00088108689
0.0013172749
0.0012236092
0.0013145605
0.0013615679
0.0014663457
0.0013211175
0.0016830629
0.0011611056
0.0019158563
0.00074090382
0.0020173748
0.00014033688
0.0019918994
-0.00048800893
0.0019839185
-0.00079109331
0.0020258769
0.0020641639
-0.00061599063
0.0010613184
0.0014823115
0.0018806539
0.0014058078
0.0021766723
0.0013010121
0.001978312
0.0013104858
0.0015049639
0.0013969901
0.00090837362
0.0014808832
0.00017406695
0.0015034129
-0.00063217345
0.001525162
-0.0014987131
0.0015665405
-0.002198849
0.0016021576
-0.0023702263
0.0016262305
-0.0017776981
0.0016763846
-0.00040136172
0.0016634047
0.0012530534
0.0015451851
0.0026426032
0.0014653488
0.0032751889
0.0014686881
0.0031593618
0.0015446777
0.0024654828
0.0016960488
0.0012271213
0.0018096682
-0.00019420488
0.0017949397
-0.0014466266
0.0017882406
-0.0021615207
0.0018820019
0.0020020163
-0.0020952685
0.0015526606
0.0016280161
0.0027101046
0.0015495342
0.0033786011
0.0013872953
0.0034968258
0.0013068271
0.0029496549
0.001308323
0.0017970754
0.0013437528
0.00025577076
0.0013433652
-0.0012989877
0.0013648457
-0.0024922187
0.0014340375
-0.00307054
0.0015088019
-0.0029281439
0.0015725452
-0.0021897316
0.0016689853
-0.00097931982
0.0017063237
0.00055522571
0.0016556498
0.0020689395
0.0015936589
0.0032141838
0.0015813579
0.0036747696
0.001583962
0.0032654512
0.0016136069
0.0019375242
0.0016797422
9.7795775e-05
0.001636603
-0.0014592526
0.0016065128
-0.0022290844
0.0017270321
0.0018967827
-0.002261869
0.00091479648
0.0016504198
0.0017167629
0.0016235547
0.0023976203
0.0014827163
0.002859177
0.0013793646
0.0027983546
0.0013301392
0.0019645757
0.001307573
0.00045317804
0.001251159
-0.0011299371
0.0012351219
-0.0021633253
0.0013118347
-0.002374396
0.0014185573
-0.0019711508
0.0015158798
-0.0013669248
0.0016259657
-0.00071553884
0.0016876963
4.6021544e-05
0.0016551951
0.00091515212
0.0016202477
0.0016809743
0.0016312164
0.0023306728
0.001665483
0.0025306095
0.0016586129
0.0019109131
0.0016816319
0.00064935292
0.0016049536
-0.00059591684
0.0015056593
-0.0013156088
0.0016111987
0.0018115241
-0.0014011986
0.00021080511
0.001616254
0.00042762332
0.0016232094
0.00063380714
0.0015093334
0.00085623152
0.0014208383
0.00094211033
0.0013714928
0.00077156342
0.0013424724
0.00033913041
0.0012615954
-0.00019166209
0.0012131169
-0.00052701683
0.0012787164
-0.0005690855
0.0013781432
-0.00045075547
0.0014658221
-0.00029376494
0.001571154
-0.0001581796
0.0016342066
-8.9766657e-05
0.0015942974
1.0621201e-05
0.0015702886
0.00019379259
0.0016114322
0.00038412172
0.0016728276
0.00064497403
0.0016884055
0.00081634302
0.0017211014
0.00077639151
0.0016605131
0.00047863467
0.0015142919
0.00011255793
0.0015911403
0.0017805191
-2.5113144e-05
-0.00030844663
0.0015446051
-0.00071540468
0.0015786294
-0.0010088349
0.0014879938
-0.0012314695
0.0014189113
-0.0011861372
0.0013877681