/*--------------------------------*- C++ -*----------------------------------*\
| =========                 |                                                 |
| \\      /  F ield         | OpenFOAM: The Open Source CFD Toolbox           |
|  \\    /   O peration     | Version:  2406                                  |
|   \\  /    A nd           | Website:  www.openfoam.com                      |
|    \\/     M anipulation  |                                                 |
\*---------------------------------------------------------------------------*/
FoamFile
{
    version     2.0;
    format      ascii;
    arch        "LSB;label=32;scalar=64";
    class       volScalarField;
    location    "110";
    object      rho_0;
}
// * * * * * * * * * * * * * * * * * * * * * * * * * * * * * * * * * * * * * //

dimensions      [1 -3 0 0 0 0 0];

internalField   nonuniform List<scalar> 
20580
(
1.0003907
1.0015263
1.0023994
1.0015183
1.0036861
1.0022811
1.0019568
1.0023999
1.0028373
1.0028143
1.0030609
1.0029962
1.0031277
1.0035369
1.002401
1.0037227
1.0036948
1.0006631
1.0051329
1.0042676
1.000006
1.0031197
1.0053084
1.0015812
0.99766673
1.0058814
1.0076049
1.0021832
1.0068968
1.0050709
0.98889651
1.0004655
1.0009373
1.002544
1.0016849
1.0033139
1.0022399
1.0020253
1.0028125
1.0029115
1.0031424
1.0027875
1.0031682
1.0035535
1.0029577
1.0027579
1.0043505
1.002509
1.0011304
1.0067285
1.0023891
0.99945954
1.0047379
1.004526
1.0000553
0.99843151
1.0096665
1.0123134
0.99992885
1.0000752
1.0078823
0.99937961
1.0009199
1.0013412
1.002509
1.001719
1.0024722
1.0023631
1.0025349
1.0031987
1.0030277
1.0035009
1.0026073
1.0030494
1.0040054
1.0023363
1.0029666
1.0046759
1.0016116
1.0018311
1.0074495
1.0010992
1.0000944
1.0067881
1.0040069
1.0000821
0.9994788
1.0100498
1.0143073
0.99905081
0.99333303
1.0077601
1.0140454
1.0015802
1.0025223
1.0022895
1.0017148
1.0015077
1.0024158
1.0030174
1.0031014
1.0031651
1.0035947
1.002625
1.002805
1.0039633
1.0020345
1.0030498
1.0045181
1.0012778
1.0028029
1.0070782
1.0004798
1.001455
1.0080956
1.0035609
1.001843
1.0012789
1.0073228
1.0121664
1.0001116
0.98945808
1.0027819
1.0216638
1.0022741
1.0038568
1.0019085
1.0020407
1.0010112
1.0023986
1.0030949
1.0025712
1.0032187
1.0032442
1.002829
1.0028921
1.0032781
1.0023451
1.0032345
1.0039611
1.0015794
1.0040199
1.0056933
1.0002878
1.0034757
1.008195
1.0022496
1.0039671
1.0042854
1.0032006
1.0063974
1.0024502
0.99146026
0.99709292
1.0171183
1.002752
1.0048725
1.0014359
1.0026004
1.0012731
1.0025067
1.0029427
1.0021396
1.0031521
1.0026847
1.0029882
1.0033049
1.0025094
1.0029087
1.0033714
1.0030311
1.0021936
1.0050583
1.0035405
1.0004694
1.0054069
1.0075296
0.99995388
1.0050316
1.0081078
1.0001684
0.99959911
1.0044706
0.99947335
0.9956233
1.0052817
1.0027583
1.0050297
1.0010998
1.0029393
1.0020554
1.0026381
1.0027362
1.0023457
1.0030628
1.0024456
1.0030484
1.0036961
1.0020365
1.0033775
1.0034934
1.0021967
1.0028043
1.0058667
1.0014806
1.0010648
1.0066083
1.0061873
0.99758468
1.0045243
1.0111599
0.9998726
0.99428685
1.0044546
1.0102377
1.0010056
0.99499788
1.0022982
1.0041865
1.0011439
1.0029734
1.0030023
1.0027311
1.0025493
1.0031239
1.0029761
1.0026482
1.0031646
1.003646
1.0022032
1.0035317
1.0038045
1.0018257
1.003314
1.0061949
1.0002531
1.0021089
1.0070638
1.0044855
0.99658301
1.0029809
1.0118795
1.0018672
0.99230686
1.0026954
1.0173505
1.0111557
0.99402342
1.001641
1.0028018
1.0016662
1.0026885
1.0035895
1.0028381
1.0024255
1.0038292
1.002851
1.0029447
1.0034446
1.0032051
1.0026303
1.0035533
1.0038893
1.0019173
1.0035633
1.0056311
0.99978333
1.0033675
1.0066958
1.0031597
0.99796376
1.0017827
1.0097889
1.0043718
0.99433384
1.0004648
1.0166205
1.0189607
1.0011073
1.0011211
1.0015259
1.0024692
1.0019542
1.0033453
1.0027774
1.0024913
1.0038393
1.002764
1.0031011
1.0036295
1.0028614
1.0030497
1.0035436
1.0036026
1.0022435
1.0036461
1.0044533
1.0002017
1.0050295
1.0052688
1.0016463
1.0014744
1.0022046
1.0055486
1.0055052
0.99977455
0.99984935
1.008676
1.017146
1.0095373
1.0008793
1.0011179
1.0031015
1.0011994
1.0025968
1.0025306
1.0028504
1.0032001
1.0028555
1.0031748
1.0034523
1.0026845
1.0033062
1.0034954
1.0030087
1.002929
1.0038723
1.0031618
1.0011869
1.006694
1.0038375
0.99982372
1.005691
1.0047977
1.0006647
1.0040304
1.006508
1.0022844
1.0000579
1.0048613
1.0104723
1.0009752
1.0016111
1.0031783
1.0009857
1.0018342
1.0023102
1.003315
1.0024915
1.0031322
1.00342
1.0030682
1.0026915
1.0036785
1.0032657
1.0024902
1.003737
1.0042473
1.0017713
1.0022088
1.0074702
1.002757
0.99827573
1.0087613
1.0087557
0.99750824
1.0004283
1.0109343
1.0079971
0.99666018
0.99182838
1.0025617
1.0013921
1.0028178
1.0025841
1.0014067
1.0014479
1.0022103
1.0035735
1.0022076
1.0033784
1.0037484
1.0028272
1.0027866
1.0041191
1.0030134
1.0022374
1.004122
1.0043919
1.0008066
1.0033188
1.0073225
1.0020687
0.99750692
1.0093677
1.0114054
0.99723163
0.99690047
1.0107625
1.0139985
0.99918167
0.98754071
0.9929754
1.0020801
1.0042991
1.0016279
1.0021783
1.0016456
1.0023715
1.0033943
1.0024618
1.0034852
1.0038364
1.0028655
1.0029732
1.0041519
1.0030338
1.0023163
1.0039798
1.0044031
1.0009173
1.004299
1.0063686
1.002239
0.99817431
1.0077066
1.0111705
0.99920037
0.9956916
1.0070506
1.0150336
1.0052576
0.99179171
0.99056619
1.0027091
1.0052808
1.0009841
1.003124
1.0024883
1.0028471
1.0027301
1.0030262
1.0034339
1.0036116
1.003132
1.0033686
1.0037361
1.0031
1.0026636
1.0037136
1.0041928
1.0016153
1.0051382
1.0042498
1.0026535
1.0006842
1.0053547
1.0076287
1.0016658
0.99813761
1.0033446
1.0092848
1.0091086
1.001251
0.99628992
1.0027948
1.0050752
1.0010004
1.0036927
1.0033032
1.0033643
1.0020608
1.0035354
1.0033405
1.003239
1.0034187
1.003767
1.0030916
1.0031352
1.0032711
1.0034152
1.0034636
1.0024124
1.0059895
1.0018104
1.0027072
1.0045734
1.0038009
1.0018706
1.0028345
1.0036984
1.0024985
1.000689
1.0058091
1.0092665
1.0067256
1.0021115
1.0038603
1.001574
1.0032507
1.0034117
1.0034566
1.001918
1.0036291
1.0032664
1.0028862
1.003499
1.0039218
1.0026294
1.003256
1.0039925
1.0031614
1.0026807
1.0032292
1.0066342
1.0001725
1.0023765
1.008302
1.004004
0.99698561
1.0023694
1.0099627
1.0050579
0.99599356
0.99784402
1.0106773
1.015105
1.001299
1.002128
1.0022237
1.0021315
1.0029012
1.0028336
1.002438
1.0033592
1.0032024
1.0026761
1.0034481
1.0037731
1.0026148
1.0033381
1.0044433
1.0032046
1.0022256
1.0039238
1.0067175
0.99959043
1.001874
1.0103498
1.0053645
0.99517763
1.000995
1.0135804
1.0097135
0.99643782
0.99275431
1.0058523
1.0169059
1.0008456
1.0009288
1.0027055
1.0012452
1.0021379
1.0019516
1.0033477
1.0031326
1.003165
1.0028157
1.0033714
1.003617
1.0029623
1.0031477
1.0044903
1.0034582
1.0021531
1.0042444
1.0061629
1.0001129
1.0016017
1.0100038
1.006638
0.99639687
1.0001854
1.0129326
1.0125462
0.9994739
0.9938103
1.0003868
1.0122763
1.0007404
1.0008739
1.0026555
1.0010316
1.0015919
1.0016109
1.0041378
1.0030901
1.0033093
1.0032934
1.0033472
1.0036233
1.0033567
1.00304
1.0042533
1.0036067
1.0025093
1.0041357
1.0047707
1.0018812
1.002288
1.0071192
1.0066224
0.99941618
1.0015483
1.0087607
1.0103594
1.0033437
0.99848997
0.99982991
1.0047767
1.001177
1.0020651
1.0022625
1.0015662
1.0016682
1.0017895
1.0038602
1.0030513
1.0032864
1.0036473
1.0032985
1.0034848
1.0034594
1.0033632
1.0036339
1.0035181
1.0031172
1.0043219
1.0027222
1.0041001
1.0041104
1.0036235
1.0041267
1.0035341
1.004439
1.0048017
1.0030479
1.004811
1.0051724
1.003495
0.99998965
1.0020428
1.0040935
1.0013858
1.0026492
1.0024934
1.0028187
1.0028799
1.0030267
1.0034004
1.0038439
1.0034544
1.0032274
1.0036375
1.0039098
1.0028604
1.0035152
1.0039918
1.0047198
1.0008288
1.0057266
1.006642
1.0011318
1.000772
1.0063921
1.0086563
1.0033245
0.99633881
1.0019675
1.0111241
1.0098813
1.00086
1.0028999
1.0059883
1.0018085
1.004418
1.0038035
1.0044591
1.0021169
1.003365
1.0038483
1.0039194
1.0039851
1.0033239
1.0042579
1.0046201
1.0025486
1.0036097
1.0049025
1.0056762
0.9999964
1.0061019
1.0093154
1.0008036
0.99861184
1.0064091
1.0125824
1.0047303
0.99390547
0.99744194
1.0119852
1.0155059
1.0050664
0.9934211
0.99549144
1.0015244
1.0084866
1.0128806
1.0126684
1.0072383
1.0014105
1.0006585
1.0060144
1.0124817
1.0133489
1.0062559
0.9931155
0.9839344
0.9864799
1.0008316
1.0180371
1.0250399
1.0171344
1.0002081
0.98918074
0.99095068
1.0065252
1.0069655
1.0045813
0.9998919
0.99320051
0.98847497
0.98937601
0.99693182
1.0096157
1.0206166
1.0231399
1.0153801
1.0023405
0.9933459
0.9936937
1.0019791
1.0109984
1.0114541
1.0027622
0.99001791
0.98488296
0.99280047
1.0106747
1.0229774
1.0164055
1.0068571
0.9968686
0.99150785
0.99235822
0.99747903
1.0033472
1.0067311
1.0054133
0.99877093
0.99265282
0.99362923
1.004275
1.0200272
1.0294737
1.0245558
1.0071772
0.98681658
0.97676186
0.98053187
0.9960825
1.016863
1.0034198
0.99893349
0.99899042
1.005628
1.0159862
1.0235271
1.0251814
1.017142
1.002653
0.98662393
0.97773964
0.97928361
0.99061808
1.0071545
1.0214027
1.0248213
1.0152646
1.001143
0.99385651
0.99814561
1.0088155
1.0175972
1.0162208
0.980154
0.98453206
0.99561059
1.0093284
1.0213162
1.0271075
1.0218022
1.0103258
0.99915644
0.99550754
1.0004841
1.0084205
1.012766
1.0115687
1.0022371
0.98931168
0.97867411
0.97964302
0.9955001
1.0218665
1.0439421
1.0444775
1.0234974
1.0035727
1.007244
1.0070884
1.0028983
0.99674979
0.98923041
0.98343245
0.98291857
0.99215487
1.0112599
1.0327879
1.045129
1.0412173
1.0217649
0.99527677
0.97478847
0.96798536
0.97496693
0.9933325
1.0161638
1.034308
1.0332028
1.0166489
1.0410265
1.0309228
1.0147611
0.99780882
0.98421741
0.97490881
0.9739949
0.98014706
0.99324077
1.0090593
1.0238857
1.0306832
1.0235474
1.0103397
1.0001916
0.99997417
1.0073397
1.0143965
1.0160027
1.0109519
0.9998609
0.98595128
0.97640435
1.0192792
1.0123283
1.0074351
1.0037861
1.0044627
1.0105209
1.0179799
1.0209828
1.0153034
1.0026211
0.98963358
0.97929682
0.97372892
0.9760115
0.99055699
1.0172101
1.0482842
1.0651082
1.0565267
1.0262912
0.99090524
0.96338269
0.95394177
0.97518221
0.97504967
0.98333291
1.0032084
1.0307299
1.0557519
1.0664603
1.0560998
1.0310654
1.0032435
0.98145528
0.96672287
0.9615553
0.96508489
0.98142584
1.0083351
1.0392642
1.0590581
1.0528207
1.0319506
1.0069334
0.99012727
0.98525954
0.96853198
0.9767595
0.99044382
1.0070079
1.0230507
1.0380607
1.0441851
1.0377868
1.0255456
1.0104295
1.0007532
0.9995049
1.0059272
1.0105638
1.0101545
1.0056519
1.0018607
1.00043
0.99757134
0.99647974
1.0008828
1.0170784
1.0390285
1.0231623
1.0239234
1.0189437
1.0089541
0.99765721
0.98875641
0.98318356
0.98070111
0.98441261
0.99635528
1.0198499
1.0507856
1.0756169
1.0762712
1.0542123
1.0195014
0.98628758
0.96624717
0.95356924
0.95328447
0.96854147
1.0022132
1.0522822
1.0926898
1.0702458
1.0346879
1.000176
0.97694802
0.96523814
0.95979483
0.95682224
0.96139226
0.97876605
1.0132199
1.0610314
1.1033498
1.1114205
1.0837622
1.0377036
0.9973749
0.97141875
0.95938029
0.95623989
0.96491122
0.98755286
1.0240239
1.089283
1.0672655
1.0384599
1.0113255
0.99145603
0.98130237
0.97790777
0.97951307
0.98539229
0.99496084
1.0118641
1.0367487
1.0620432
1.0746176
1.0658996
1.0449302
1.0214468
1.0061102
1.0024626
1.0027187
1.0035394
1.0023323
1.0076711
1.0316435
1.0257863
1.0210606
1.0203567
1.0239946
1.0314807
1.0386232
1.0418858
1.0387589
1.0273635
1.0146248
1.0085677
1.0100549
1.0135727
1.0150593
1.0157163
1.0230179
1.0398099
1.0617818
1.0752813
1.0671178
1.0407199
1.0131463
0.98409497
0.98590446
0.99303731
1.0112882
1.0420429
1.0805819
1.1116981
1.1170372
1.0923809
1.0521967
1.0136619
0.98877944
0.98018247
0.97902888
0.97882685
0.98365755
1.0022762
1.0427823
1.0978465
1.1396065
1.1328866
1.084471
1.0294053
0.96642598
0.96909809
0.97847346
1.0012397
1.0457596
1.105106
1.1576162
1.1703158
1.1311215
1.0684143
1.0145211
0.98471667
0.97319229
0.97117667
0.96871493
0.97099492
0.98766944
1.0311462
1.099764
1.162406
1.173141
1.1219111
1.0492851
0.97177514
0.974563
0.98154937
1.0044586
1.0502687
1.1133673
1.1703208
1.1871066
1.1477472
1.0814201
1.0238451
0.99206779
0.98273797
0.98113328
0.9782493
0.97754934
0.98881167
1.0253534
1.0935069
1.1599165
1.184306
1.139933
1.0691899
0.98937559
0.99047597
0.9941607
1.0127319
1.0547277
1.1141238
1.1694356
1.1884485
1.1530887
1.0897536
1.0353318
1.0054562
0.99924796
0.99907297
0.99841916
0.99654317
1.0013909
1.0287304
1.0883068
1.151951
1.1817062
1.1452731
1.0798699
1.0080175
1.0075561
1.0097912
1.0239301
1.0609468
1.1157538
1.1696165
1.1888061
1.1545201
1.0964117
1.046899
1.0195239
1.0139558
1.0165009
1.0181848
1.0124253
1.0120633
1.0370663
1.0876962
1.1497545
1.1827023
1.1427654
1.0806271
1.0185155
1.0177898
1.0185294
1.0314067
1.0683609
1.1260608
1.1840681
1.2043818
1.1657429
1.1039259
1.0526395
1.0271613
1.0243318
1.0282695
1.0301516
1.025348
1.0227919
1.0492077
1.1006733
1.1625345
1.1892377
1.1416361
1.0795356
1.0250032
1.022168
1.0216621
1.0368682
1.0789963
1.1460632
1.2157232
1.2347141
1.1858449
1.1122248
1.0532737
1.0248783
1.0249113
1.0324734
1.033067
1.0299724
1.0345662
1.0661357
1.1262311
1.1918584
1.2058576
1.1419993
1.0733346
1.0251986
1.0229969
1.0231581
1.0414588
1.0915588
1.1733055
1.2589989
1.279043
1.2126061
1.1198473
1.0493986
1.0197311
1.0202712
1.0302556
1.0314482
1.0313478
1.0427437
1.0887439
1.16909
1.237353
1.2200169
1.1320564
1.058533
1.0416419
1.0368074
1.0349815
1.0523728
1.1063287
1.1992052
1.3000698
1.3223813
1.2367452
1.1249029
1.0452571
1.0136565
1.0154521
1.0278699
1.0267209
1.0319947
1.0598886
1.1322513
1.231535
1.2832801
1.215779
1.1104002
1.0384484
1.097129
1.0896617
1.0807814
1.0871537
1.1258421
1.1980104
1.2925648
1.3201256
1.240566
1.1320727
1.0496979
1.0141184
1.0164729
1.0309698
1.0318809
1.0469472
1.0945013
1.1892182
1.2908137
1.2978874
1.18738
1.0810461
1.0251432
1.3489904
1.2999535
1.2255198
1.1553511
1.1233069
1.1349886
1.1930494
1.2459844
1.2234904
1.1489472
1.0735179
1.0344855
1.0387318
1.0610257
1.0716302
1.0915878
1.1409342
1.2273717
1.2971652
1.2579604
1.142228
1.0560401
1.0237897
1.6856447
1.5781592
1.4056599
1.2189747
1.0974497
1.043268
1.0618183
1.1226368
1.1636625
1.1644073
1.1361484
1.1176268
1.1338216
1.1489805
1.1434514
1.1314851
1.1475082
1.2050711
1.2352755
1.179088
1.0996383
1.0559076
1.0494082
1.5122288
1.4726092
1.4096289
1.3297367
1.2167648
1.1086039
1.0498252
1.072407
1.1310293
1.1904108
1.2297373
1.251415
1.2513849
1.2134736
1.1503028
1.1023827
1.0979101
1.1260383
1.1396572
1.1146722
1.0982431
1.112303
1.1299831
1.294242
1.3329285
1.3600864
1.366717
1.3496873
1.3010395
1.2215527
1.1648598
1.1691165
1.2090839
1.254981
1.2798218
1.259671
1.1853953
1.1048295
1.0553101
1.0525382
1.0741231
1.0856306
1.1077128
1.1722756
1.2326974
1.2248527
1.2196342
1.2635375
1.3557554
1.4287221
1.4672181
1.4434873
1.3531255
1.2353983
1.1626096
1.1505555
1.1664287
1.1923268
1.1976434
1.1600026
1.1004998
1.0676559
1.076134
1.091564
1.1097822
1.1630336
1.2438975
1.27671
1.2076401
1.2649779
1.3029841
1.3678982
1.4382282
1.4718479
1.4491465
1.3658276
1.2399424
1.1257407
1.0857265
1.0969392
1.1228904
1.1572025
1.1787961
1.1752863
1.1640338
1.1582165
1.1369902
1.1334611
1.1644751
1.1967801
1.1830494
1.1491741
1.3384658
1.3437451
1.3430386
1.3506341
1.3666695
1.373052
1.3503941
1.2668155
1.1695263
1.1208858
1.1145851
1.1284848
1.1609983
1.2056464
1.2374283
1.2315337
1.1848649
1.1260853
1.0998966
1.1005584
1.1080918
1.1089591
1.1313043
1.3403607
1.3403269
1.3205506
1.3010488
1.2965381
1.3118183
1.3353811
1.3095114
1.2426147
1.1877345
1.153456
1.1367101
1.1405662
1.164587
1.1978362
1.2044129
1.1665796
1.1184394
1.0879345
1.0746202
1.0774008
1.1078022
1.1560231
1.2702202
1.3065662
1.3220192
1.3111318
1.3004657
1.285127
1.2786246
1.2626054
1.2350318
1.2005325
1.1568122
1.1197717
1.1054327
1.1145351
1.1407671
1.1629107
1.1673806
1.1589984
1.1434234
1.1261679
1.1131205
1.1246208
1.1372191
1.2277602
1.2653909
1.3247802
1.3411452
1.3052244
1.2518844
1.2075586
1.1787953
1.1728397
1.1752406
1.1694504
1.14954
1.1281412
1.120918
1.1274538
1.1434818
1.166897
1.1887219
1.1894524
1.1724805
1.1536067
1.1300641
1.1019716
1.2454378
1.2483604
1.2896906
1.3153852
1.2882985
1.2285767
1.1693524
1.1376625
1.136594
1.1594505
1.1895249
1.2021815
1.1880483
1.1583161
1.1319367
1.1228632
1.1300149
1.1467556
1.1619026
1.1668033
1.1613833
1.1497735
1.134582
1.2784274
1.25274
1.2508857
1.2557834
1.2487465
1.2244024
1.1896756
1.1586041
1.1439739
1.1464011
1.1681231
1.1909148
1.2017165
1.1917711
1.1631601
1.1327274
1.1122302
1.1062606
1.1101064
1.1217455
1.1345829
1.1428128
1.1517645
1.2984898
1.2596053
1.2328816
1.2159985
1.2020688
1.1984919
1.2004637
1.1979712
1.1890231
1.1773295
1.1642177
1.1565323
1.1546154
1.1563053
1.1566414
1.1546831
1.15026
1.1410364
1.1318251
1.1253167
1.1231358
1.1238624
1.1243349
1.2880775
1.2626025
1.2396904
1.2161577
1.1963237
1.1849665
1.1865665
1.1982251
1.2069862
1.2023474
1.184276
1.1585222
1.1369199
1.1271678
1.132051
1.1462151
1.1627409
1.1732404
1.1691257
1.1572943
1.1474951
1.138066
1.1282859
1.2823068
1.2547446
1.2485029
1.2418224
1.2268349
1.2068221
1.1900539
1.1810591
1.1799563
1.1820872
1.1801314
1.1716273
1.1611366
1.1526029
1.1481422
1.1516811
1.1598553
1.1630051
1.156885
1.1456224
1.1375399
1.1358187
1.1348709
1.3163469
1.267765
1.2482179
1.2416527
1.2373145
1.22498
1.2058616
1.1852376
1.167923
1.1585161
1.1586655
1.1655853
1.1752075
1.1819986
1.1832156
1.1771215
1.1668074
1.1533888
1.1382044
1.1227183
1.114271
1.1172166
1.1253139
1.3734685
1.3084343
1.2618601
1.2333565
1.2179983
1.2107985
1.204089
1.1948432
1.1850898
1.175785
1.1701129
1.170193
1.1759993
1.1823691
1.1823291
1.1739936
1.1619234
1.149935
1.1396692
1.1318935
1.128636
1.1322652
1.1380704
1.3866672
1.3443649
1.2932806
1.2520812
1.2231368
1.2060533
1.1977705
1.1964175
1.198122
1.1984827
1.1959276
1.1908557
1.1852613
1.1788513
1.1691445
1.156516
1.1450098
1.1401665
1.1426474
1.1502129
1.1570591
1.1602217
1.1560721
1.3807841
1.3639652
1.3303892
1.2920223
1.2600723
1.2349449
1.2160215
1.2043913
1.1993846
1.1977875
1.1953258
1.190446
1.1846339
1.1782283
1.1714378
1.1630554
1.1547012
1.151182
1.1550125
1.162442
1.1677735
1.1647663
1.1500743
1.3953028
1.3812424
1.3567915
1.3223698
1.2876919
1.2590937
1.2360636
1.2183192
1.2059663
1.1977087
1.1911833
1.1842828
1.1784029
1.1755486
1.1764033
1.1782368
1.1785272
1.1764342
1.1730134
1.1696301
1.1635884
1.1546195
1.1371436
1.3953516
1.3890204
1.3703848
1.3411944
1.3065975
1.2744569
1.2489903
1.2305772
1.2186514
1.2118279
1.2075578
1.2024854
1.1955858
1.1890254
1.1852889
1.1849378
1.1853228
1.1818165
1.1738655
1.1630161
1.1530383
1.1459652
1.1387772
1.3719664
1.378388
1.3744396
1.3632794
1.3409069
1.3118847
1.2821362
1.255752
1.2359206
1.2240168
1.2182358
1.2153479
1.2110276
1.2035073
1.1947982
1.187738
1.1830498
1.1788008
1.1719689
1.1630931
1.155154
1.1527506
1.1529585
1.3444636
1.3610562
1.3683371
1.3673763
1.3603031
1.3422634
1.3166685
1.2875059
1.2599221
1.2378878
1.2239955
1.2170891
1.2137419
1.2096671
1.2027683
1.1949148
1.1889831
1.1859538
1.1837962
1.1804982
1.175768
1.1723117
1.1695863
1.3007856
1.3234214
1.3472966
1.3593335
1.3580138
1.3500344
1.3335328
1.3115649
1.2878137
1.2656091
1.2477492
1.2360324
1.2296167
1.2255768
1.2203668
1.2124923
1.2041578
1.1977864
1.1941232
1.1910951
1.1865804
1.1806647
1.1720212
1.2429154
1.2546576
1.2945063
1.3324512
1.3528772
1.3553927
1.349345
1.3355652
1.3166
1.2963672
1.2767179
1.259727
1.2469916
1.2384405
1.2319064
1.2250898
1.2168663
1.2087584
1.2022357
1.1974687
1.1927776
1.1874319
1.1778595
1.2121364
1.2087999
1.2386676
1.2813074
1.3187668
1.342353
1.3499929
1.3485723
1.3401592
1.3248825
1.3063932
1.286895
1.2688758
1.2546114
1.2447217
1.2379174
1.2321433
1.2259238
1.2192287
1.212902
1.2071184
1.2019365
1.1931867
1.1951628
1.1922694
1.2111577
1.2392371
1.2734721
1.3076637
1.3337866
1.3473358
1.3507801
1.3466399
1.3348649
1.3180925
1.2997278
1.2825611
1.2688488
1.2589093
1.2517411
1.2451766
1.2377518
1.2292591
1.2207129
1.2134623
1.2038936
1.1769332
1.185675
1.204844
1.2247779
1.2480772
1.2769616
1.3077074
1.3327359
1.3471762
1.3516063
1.3498376
1.341962
1.3295997
1.3151355
1.3004243
1.2869721
1.2753352
1.2652898
1.256009
1.246894
1.2381252
1.2305575
1.2205984
1.1670538
1.186212
1.2057707
1.2230735
1.2404484
1.2603428
1.2832643
1.3073478
1.328426
1.3428982
1.3501266
1.3536319
1.3522146
1.3458825
1.3348675
1.3208208
1.305921
1.2919459
1.2797836
1.2693993
1.2603435
1.2523804
1.2415047
1.1671892
1.1858973
1.2022914
1.2171214
1.2322012
1.2482672
1.2662205
1.28627
1.3075909
1.3277542
1.3439787
1.3542873
1.359583
1.3608741
1.3568593
1.3480872
1.3362308
1.3236108
1.3117785
1.3011261
1.2910623
1.2808657
1.266327
1.1695295
1.18129
1.1922209
1.2039013
1.2171809
1.2321414
1.2489955
1.2675576
1.2873414
1.3074472
1.3261867
1.3415508
1.3521265
1.3579803
1.3610241
1.361907
1.3600183
1.3548166
1.3468734
1.3368056
1.3252855
1.3126714
1.2952363
1.1660776
1.1717469
1.1770717
1.1844033
1.1940139
1.2061624
1.2206795
1.2374047
1.2558075
1.2751075
1.2944379
1.313005
1.3295209
1.3429197
1.3528294
1.3597346
1.363968
1.3660857
1.3649277
1.3608341
1.3535863
1.3442599
1.3305502
1.1593216
1.160518
1.1606667
1.1629314
1.16731
1.1738074
1.1825436
1.1938903
1.2079587
1.2244923
1.2429783
1.2629004
1.2835507
1.3035873
1.3214821
1.3362661
1.3476812
1.3556113
1.3601565
1.3618327
1.3623308
1.3615886
1.3587346
1.152572
1.1511129
1.14706
1.1444929
1.1432922
1.1433425
1.1449515
1.1487692
1.1552812
1.1649971
1.1779117
1.1938544
1.2125561
1.2333831
1.2550574
1.2762089
1.295861
1.3134456
1.3286095
1.340909
1.3499165
1.3561322
1.3606706
1.1474862
1.1435822
1.1368039
1.1311324
1.1261621
1.1218962
1.1185532
1.1163167
1.1154992
1.1167138
1.1203986
1.1268192
1.1366414
1.1498996
1.1663911
1.1856387
1.2068912
1.2293542
1.2521529
1.2741965
1.2944231
1.3127725
1.3325698
1.1441742
1.1371628
1.1278294
1.1200235
1.1131781
1.1073204
1.1021872
1.0969753
1.0919697
1.0878407
1.0846729
1.0832365
1.0838722
1.0863
1.0914374
1.0998629
1.1117178
1.1271111
1.1455678
1.1665001
1.1895489
1.2144708
1.2452337
1.140781
1.1301079
1.1186056
1.1093004
1.1015721
1.0952606
1.0891519
1.0828342
1.0767374
1.0707515
1.0653383
1.0609884
1.0567386
1.0528142
1.0505009
1.0497564
1.0509369
1.054244
1.0596207
1.0680885
1.0799431
1.0960375
1.1224186
1.1368133
1.1239222
1.1113683
1.1004111
1.0913058
1.0837451
1.076984
1.0706685
1.0642157
1.0575003
1.0515752
1.0462096
1.040302
1.0347889
1.0302569
1.0263085
1.0232536
1.0200509
1.0175493
1.0172177
1.0186557
1.0220055
1.0330302
1.1330829
1.1204026
1.1060753
1.09305
1.08232
1.0735453
1.0661577
1.0595772
1.0526871
1.0452731
1.0389405
1.0333044
1.0272217
1.0214063
1.0157771
1.0111281
1.007765
1.0042348
1.0020713
1.0010794
1.0008871
1.001021
1.0030094
1.1275618
1.1146714
1.098579
1.0846381
1.073202
1.0636124
1.0560482
1.0495563
1.0421254
1.034151
1.0272212
1.0211005
1.0153918
1.0096291
1.0040666
1.001022
1.0000294
0.99912808
0.99868679
0.99838879
0.99868795
0.99873593
0.99849317
1.1197459
1.1035364
1.0868016
1.0739186
1.0636407
1.0543051
1.0461498
1.0394224
1.0322148
1.0240518
1.0166701
1.0102863
1.0050709
1.0015012
0.99894017
0.99818231
0.998159
0.998407
0.99866873
0.99812428
0.99821076
0.99822248
0.99823713
1.1103318
1.0912503
1.0750278
1.0634364
1.0542439
1.0455739
1.0372968
1.0297508
1.0223707
1.0149119
1.0079725
1.0021715
0.99928198
0.99884818
0.99815124
0.99796536
0.99809173
0.99808196
0.99852208
0.99779902
0.99792302
0.9981174
0.99809231
1.1010688
1.0808974
1.0652662
1.0541417
1.0453194
1.0370265
1.0290581
1.0217396
1.0145084
1.0069784
1.0008081
0.99833383
0.99830068
0.99848897
0.99797542
0.99778689
0.9979413
0.99777361
0.99796519
0.99754146
0.99762235
0.99783983
0.99805933
1.0930421
1.0719327
1.0567238
1.0461332
1.0379053
1.030232
1.0221844
1.0144415
1.0074027
1.0013691
0.99837227
0.99755087
0.99753119
0.99793561
0.99779229
0.99763449
0.99780388
0.99769056
0.99768844
0.99725591
0.99718828
0.99724882
0.99751823
1.0853589
1.0642654
1.0501721
1.0400467
1.0316505
1.0240621
1.0165104
1.0088085
1.0019999
0.9984099
0.99766473
0.99732441
0.99709203
0.99742737
0.99782624
0.99775087
0.99758525
0.99726971
0.99706319
0.99687082
0.99700191
0.99706444
0.99704547
1.0790777
1.0581791
1.0445
1.0345852
1.0262258
1.0186457
1.011483
1.0045565
0.99925772
0.99739364
0.99698323
0.99695077
0.99719043
0.99751266
0.99770211
0.99755411
0.99706036
0.99659551
0.99667084
0.99688691
0.99694658
0.99692141
0.9967554
1.0734509
1.0525794
1.0394305
1.0301148
1.0221129
1.0147061
1.0076068
1.0012678
0.99811699
0.9971732
0.99664962
0.99678022
0.99704205
0.99720655
0.99745363
0.99724314
0.99688321
0.9965819
0.99643935
0.99674198
0.99692463
0.99677628
0.99636572
1.06781
1.0479564
1.0359943
1.0268757
1.0186998
1.011204
1.0042463
0.99915149
0.99765326
0.99692825
0.99653936
0.99688741
0.99690198
0.99703226
0.99746738
0.99704613
0.9971017
0.99684455
0.99633267
0.99623253
0.99611516
0.99649736
0.99673946
1.0632503
1.0442417
1.0326569
1.0236403
1.0159248
1.0086648
1.0017608
0.99794548
0.99746193
0.99709909
0.9968363
0.99697959
0.99659288
0.99704073
0.99752676
0.99687716
0.99690152
0.99665068
0.99643158
0.99649001
0.99599321
0.99629405
0.99654365
1.0592728
1.0404786
1.0296832
1.021626
1.0142143
1.0064981
1.000027
0.99745218
0.99703239
0.99689319
0.99727471
0.99739282
0.99698073
0.9973097
0.9971231
0.99681544
0.99715553
0.99667342
0.99663392
0.99674444
0.99645494
0.99633098
0.99629294
1.0554542
1.0378948
1.0277226
1.0194674
1.0117747
1.004404
0.9990506
0.99779339
0.99771932
0.99719917
0.99694971
0.99706027
0.99745915
0.99805215
0.99762257
0.99658572
0.99665646
0.99701001
0.99719402
0.99672667
0.99604848
0.99644222
0.99682737
1.0534292
1.0351522
1.0240919
1.0165987
1.0106022
1.0042579
0.99932979
0.99736773
0.99673822
0.99720067
0.99837886
0.99831426
0.99784222
0.99729643
0.99692494
0.99719266
0.99712039
0.99702795
0.99731578
0.99771324
0.99737513
0.99666139
0.99622824
1.0489966
1.0329439
1.0233281
1.0156407
1.0087318
1.0024733
0.99898736
0.99847796
0.99810498
0.99736739
0.99728351
0.9978952
0.99806094
0.99829034
0.99762859
0.99723223
0.99780431
0.99767452
0.99811262
0.99744527
0.99650157
0.99650944
0.99693889
1.0470649
1.0303852
1.02082
1.0135719
1.0074644
1.0021388
0.9990219
0.99821347
0.99782907
0.99745854
0.99852137
0.99894616
0.99860889
0.99808221
0.99752061
0.99773116
0.99778188
0.99762975
0.99801855
0.998066
0.99786662
0.99721843
0.99684416
1.0431444
1.0283319
1.0201622
1.013195
1.0061545
1.0003765
0.99872954
0.99921022
0.99926676
0.99819665
0.99706564
0.99766267
0.99903431
0.99962979
0.99869213
0.99762844
0.99762216
0.99848502
0.99880484
0.99765133
0.99715391
0.99688554
0.99771092
1.0430625
1.0259982
1.016606
1.0104149
1.0053015
1.0012179
0.99906772
0.99853741
0.99879698
0.99897939
0.99906009
0.99921075
0.9986626
0.99803735
0.99802688
0.99876768
0.9987139
0.9979703
0.9978745
0.99832156
0.99911914
0.99845364
0.99718106
1.0391018
1.0250802
1.0158285
1.0089968
1.0042945
1.0010434
0.99977039
1.0000371
0.99997241
0.99897592
0.99795047
0.99763785
0.99903048
0.99982773
0.99907067
0.99810574
0.99838517
0.9994123
0.99916293
0.99743942
0.99695931
0.99844841
0.99967917
1.0372877
1.0235958
1.0152015
1.0079488
1.002754
1.0008256
1.0003085
0.99948534
0.99960546
1.0004256
1.0003947
0.99887991
0.99710586
0.9977308
0.9996811
1.0004229
0.9991537
0.99782341
0.99788186
0.99857131
0.99903585
0.99894876
0.99867259
1.0344544
1.0213396
1.0142522
1.0078699
1.0026931
1.0006772
1.0013202
1.0018474
1.0003689
0.99837576
0.99845284
0.99955513
0.99938728
0.99823087
0.99836758
1.0002515
1.0011192
0.99908708
0.99679638
0.99715108
0.99927437
0.9995492
0.99892331
1.0336189
1.0193114
1.0116969
1.0076105
1.0048052
1.0017473
0.99954228
0.99973077
1.0013387
1.0016662
0.99970982
0.9980008
0.99842702
0.99985733
1.0002301
0.99923363
0.99875523
0.9992821
0.99880753
0.99764144
0.9974425
0.99956349
1.0010881
1.0297565
1.0192936
1.0126453
1.0066651
1.0031894
1.0023941
1.0019635
1.0008111
1.0001785
1.000834
1.0013829
1.0000003
0.99812586
0.99858671
1.0004223
1.0006693
0.99887016
0.99803497
0.9989887
0.99944401
0.99858287
0.99810031
0.99932756
1.0277544
1.0172
1.0129484
1.0080606
1.0032431
1.0011474
1.0021578
1.0034551
1.0022005
0.99976715
0.9992903
1.0010787
1.0018791
1.000125
0.99842634
0.9992261
1.0008688
1.0004087
0.99871176
0.9985427
0.99934303
0.99872734
0.99775588
1.0280492
1.0149444
1.0095875
1.0078287
1.0067945
1.0044368
1.0018185
1.0011533
1.0021238
1.0026036
1.0017763
1.0012114
1.0019996
1.0023256
1.0010081
0.99983307
1.0003549
1.0012948
1.0011519
1.0003245
1.0003631
1.0006338
1.0000005
1.0259624
1.0159849
1.0100713
1.0067944
1.0062847
1.0063265
1.004538
1.0021093
1.0020326
1.0039769
1.004776
1.0038067
1.0030588
1.0042995
1.0054837
1.00456
1.00263
1.0031518
1.0056558
1.0067239
1.0056743
1.0054235
1.0063394
1.0250206
1.0169556
1.0127422
1.0075723
1.0040377
1.0043348
1.0067566
1.0075994
1.0061191
1.0049817
1.0061567
1.0085474
1.0093821
1.0091416
1.0095595
1.0108831
1.0121558
1.013379
1.0149629
1.0162212
1.0167617
1.017358
1.0172141
1.0246338
1.0148808
1.0110972
1.0091105
1.007383
1.0061337
1.0069434
1.0092772
1.0109329
1.010886
1.0111242
1.0135177
1.0166295
1.0182475
1.0190992
1.0213952
1.0247728
1.0266766
1.0271565
1.0287248
1.0310427
1.031713
1.0309399
1.0215025
1.0144446
1.0099524
1.0086677
1.0095432
1.010276
1.0103213
1.01124
1.0142429
1.0178744
1.0201365
1.0213838
1.0238244
1.0281054
1.0316252
1.0330031
1.0339489
1.0360085
1.0380144
1.0389166
1.0393576
1.0404529
1.041739
1.0222829
1.0141812
1.0119451
1.0104094
1.0099018
1.0110533
1.0138586
1.0174078
1.0207542
1.0236893
1.0267966
1.0302048
1.033247
1.0357298
1.0378386
1.0395651
1.0407463
1.0414801
1.0419018
1.0425329
1.0431305
1.0432226
1.043053
1.0229463
1.0133504
1.0104374
1.0104664
1.0119914
1.0144742
1.0178365
1.0220507
1.0263033
1.0299129
1.0331191
1.0363166
1.0386561
1.0399713
1.0409566
1.042243
1.0432082
1.0431119
1.0423579
1.0422604
1.0426135
1.0417314
1.040467
1.0176036
1.0124668
1.0103242
1.0104615
1.0135226
1.0179906
1.0225034
1.0265604
1.0303837
1.0341357
1.0373904
1.0397319
1.0410342
1.0415721
1.0417909
1.0421377
1.0426422
1.0425227
1.0413519
1.0398701
1.0391354
1.0386814
1.0380245
1.0159481
1.0126232
1.0118715
1.0127697
1.0158327
1.0205916
1.025705
1.0300823
1.0334967
1.0364166
1.0391303
1.0413007
1.0423443