/*--------------------------------*- C++ -*----------------------------------*\
| =========                 |                                                 |
| \\      /  F ield         | OpenFOAM: The Open Source CFD Toolbox           |
|  \\    /   O peration     | Version:  2406                                  |
|   \\  /    A nd           | Website:  www.openfoam.com                      |
|    \\/     M anipulation  |                                                 |
\*---------------------------------------------------------------------------*/
FoamFile
{
    version     2.0;
    format      ascii;
    arch        "LSB;label=32;scalar=64";
    class       volVectorField;
    location    "110";
    object      U;
}
// * * * * * * * * * * * * * * * * * * * * * * * * * * * * * * * * * * * * * //

dimensions      [0 1 -1 0 0 0 0];

internalField   nonuniform List<vector> 
20580
(
(0.094003545 0.00046603626 2.74532e-22)
(0.094059553 0.00024100916 1.9286475e-19)
(0.1015998 -0.00021799536 -1.2735592e-22)
(0.10169874 -0.00085658822 6.9119849e-21)
(0.099692137 0.001532592 -4.5226153e-23)
(0.10086649 0.00044953319 -5.9455565e-21)
(0.10051451 0.00042060912 3.3335594e-20)
(0.10031389 0.00031637061 -2.7724692e-21)
(0.10012781 0.00030118168 1.5908017e-21)
(0.099332304 0.00076228364 0)
(0.099123271 -0.00010408892 -4.0018163e-21)
(0.099013519 -0.00088771024 4.5022124e-20)
(0.09800779 -0.00023615655 5.3238706e-21)
(0.097446124 -0.0013513291 8.110497e-21)
(0.097423203 -0.0031812631 -8.4719783e-21)
(0.095930284 -0.002187297 -1.2752117e-20)
(0.095938566 -0.0043518065 8.1570363e-20)
(0.096589015 -0.0091681077 6.0199539e-22)
(0.094244696 -0.0052534535 -5.1321326e-20)
(0.094657321 -0.008333359 -7.2916767e-21)
(0.097110852 -0.015176062 1.526497e-22)
(0.095683448 -0.013614376 -1.221659e-21)
(0.095025859 -0.014665333 -1.925743e-20)
(0.09974696 -0.022760724 8.3541276e-20)
(0.10296757 -0.028808978 3.9752987e-20)
(0.099709008 -0.02768264 7.3601831e-20)
(0.10091197 -0.02429725 6.7463538e-20)
(0.10461112 -0.027991403 -8.2129031e-21)
(0.10324851 -0.040083545 -4.1262996e-20)
(0.10860775 -0.048009578 5.5157653e-20)
(0.12529015 -0.049526064 2.1338069e-20)
(0.09303383 0.0012779303 0)
(0.093513488 -0.00099595445 -4.4837368e-20)
(0.1006476 -0.001048026 3.5411407e-20)
(0.099978984 0.00035220775 -3.2949202e-21)
(0.099971593 -0.0004114801 5.2460021e-20)
(0.10033198 0.00015329812 1.6813075e-22)
(0.10002041 0.00033848349 -1.222256e-19)
(0.099816371 0.00026405888 3.0372253e-20)
(0.099346734 0.0007337121 5.8181027e-22)
(0.099071834 0.00056269958 1.6742219e-20)
(0.099053897 -0.0003802374 1.5054825e-20)
(0.098537817 -0.00055197784 7.5769706e-22)
(0.097860227 -0.00022741617 1.3632727e-20)
(0.097915423 -0.0019619389 -4.3455114e-23)
(0.0972135 -0.002595393 1.7799797e-20)
(0.096133485 -0.0022898216 4.2357861e-22)
(0.097069453 -0.0047873503 -2.8054701e-20)
(0.096358573 -0.007642759 4.4766097e-20)
(0.094199937 -0.004617968 0)
(0.096556445 -0.0093006289 -6.2225402e-20)
(0.097369765 -0.01386092 0)
(0.095108003 -0.011379457 5.4220972e-20)
(0.096130015 -0.013913777 3.4461506e-20)
(0.10064869 -0.020455552 -5.6271765e-22)
(0.10163675 -0.023068995 4.9122145e-20)
(0.097125508 -0.022768257 -3.3037408e-20)
(0.10035914 -0.022991291 3.0857762e-20)
(0.10919367 -0.02761774 -2.6678853e-21)
(0.10911017 -0.039476131 1.0090508e-19)
(0.10668112 -0.04604319 2.4532409e-20)
(0.11812539 -0.042358558 -1.5457278e-19)
(0.092361021 0.0024302381 0)
(0.092802298 -0.001602422 0)
(0.0991735 -0.0015826459 -7.3331126e-20)
(0.098604827 0.0016454315 1.0299197e-19)
(0.099026886 -0.0019892396 4.981037e-20)
(0.099274199 -1.422129e-05 -1.4168375e-22)
(0.099136266 0.00038121612 1.2118598e-19)
(0.098981967 0.00026838364 1.2682561e-20)
(0.098595751 0.00089055748 0)
(0.098543464 0.00019586571 4.1772994e-20)
(0.09856856 -0.00047032576 3.1480194e-22)
(0.098016148 -0.00037902757 1.6757498e-20)
(0.097698627 -0.00054052374 0)
(0.097930172 -0.0023234125 -2.0124193e-22)
(0.097144925 -0.0022294419 3.2671334e-21)
(0.096429801 -0.0028559469 2.7631823e-21)
(0.097641524 -0.0051950372 -1.2465993e-21)
(0.096316704 -0.0058485757 3.5393119e-21)
(0.094713568 -0.0047887684 6.888506e-21)
(0.097837636 -0.0099732427 0)
(0.09744497 -0.011910478 0)
(0.095092308 -0.0094629643 -4.5207555e-20)
(0.097187409 -0.013553594 -9.9817638e-21)
(0.1008494 -0.018122913 2.567639e-20)
(0.10108044 -0.017347226 1.8869742e-20)
(0.09654665 -0.018657079 -9.9970615e-21)
(0.099281172 -0.023755774 1.3137331e-20)
(0.11109806 -0.028426004 1.960783e-20)
(0.11460235 -0.036363524 -5.4898637e-20)
(0.1066645 -0.043578203 -8.1836716e-21)
(0.1073546 -0.040536798 3.2355351e-20)
(0.091673445 0.0029592966 0)
(0.092111633 -0.0013389197 -1.0872682e-22)
(0.097672156 -0.0013173017 1.9688566e-22)
(0.097186938 0.0022653556 5.4797221e-22)
(0.097731351 -0.0024973817 4.3790449e-20)
(0.097763826 -7.609634e-06 7.5939278e-21)
(0.097893375 0.00026967584 6.5236041e-20)
(0.097815407 0.00022699958 0)
(0.097639787 0.00066305046 1.1024789e-22)
(0.097759907 -0.00015713666 2.5675596e-21)
(0.097771741 -0.00033860992 1.9586124e-20)
(0.097363518 -0.0001770458 4.2476778e-21)
(0.09739473 -0.0010184745 2.2007264e-22)
(0.09761551 -0.0022203995 -3.5373012e-21)
(0.096935232 -0.001918207 -6.3599224e-21)
(0.096694368 -0.0032840593 1.447997e-21)
(0.097897483 -0.0055312867 8.0556839e-21)
(0.096342963 -0.0040658143 7.3551142e-23)
(0.095646281 -0.0052775381 -9.3008009e-22)
(0.098850662 -0.010621407 -3.2125377e-21)
(0.097347622 -0.0095965969 -9.2388958e-21)
(0.095649518 -0.0083361523 -9.9736874e-21)
(0.09832888 -0.013864253 -6.1162686e-21)
(0.10052714 -0.01686148 6.1268735e-20)
(0.10095941 -0.012999548 0)
(0.098163488 -0.015681586 -8.0060769e-21)
(0.099312059 -0.025468544 -3.7359791e-20)
(0.11039478 -0.030146509 8.3988727e-22)
(0.11716658 -0.031420779 -4.7895577e-20)
(0.10919533 -0.036892114 -4.2177207e-20)
(0.10071506 -0.040335235 3.9925354e-20)
(0.091393496 0.0027689035 0)
(0.091666845 -0.00027864822 -2.519314e-19)
(0.096548022 -0.00031022349 -1.9438331e-19)
(0.096165099 0.0019392321 1.9909228e-20)
(0.096369085 -0.0014910838 -1.843466e-22)
(0.096154767 0.00029270777 2.8539734e-22)
(0.096422794 0.00014926874 0)
(0.096405811 0.00034622923 3.4698145e-20)
(0.096444894 0.00026764418 -2.0829522e-21)
(0.096666759 -0.00025499842 4.2474142e-20)
(0.096733018 -0.00016099165 1.2350834e-20)
(0.096590725 5.2905348e-05 5.9530274e-23)
(0.096868213 -0.0014085002 2.5933662e-20)
(0.09703148 -0.0018825741 1.5669719e-20)
(0.096648395 -0.0015718819 -3.4040848e-21)
(0.096849945 -0.0034033776 2.0137078e-20)
(0.09772592 -0.0055768286 3.6930517e-20)
(0.096373037 -0.0026676656 -4.0162676e-20)
(0.096867753 -0.0058987252 -7.5668078e-20)
(0.099484068 -0.01070375 0)
(0.097238636 -0.0075050386 -8.42972e-21)
(0.096870766 -0.0076811304 3.6499381e-21)
(0.10005592 -0.014298877 4.7024904e-20)
(0.10013725 -0.016948299 2.7286166e-21)
(0.10066403 -0.011622474 0)
(0.10183655 -0.013840457 1.1817084e-19)
(0.10182963 -0.02575488 -6.16427e-20)
(0.10785866 -0.031363176 -8.0524667e-20)
(0.11608727 -0.026747373 8.5263e-20)
(0.11292184 -0.026897305 4.7836015e-20)
(0.10299729 -0.035508509 6.881769e-20)
(0.091492608 0.0019180058 3.4803207e-20)
(0.09137909 0.0013031539 -1.3888132e-21)
(0.09593889 0.00081173797 2.535786e-23)
(0.095695138 0.00058104664 -4.2605799e-20)
(0.09525348 0.00031550459 9.679147e-20)
(0.094850693 0.00050419588 4.2618975e-23)
(0.095081667 -9.1789075e-05 1.5934077e-20)
(0.094965131 0.00048589869 -4.4633159e-23)
(0.095067541 1.8405981e-05 -1.453785e-22)
(0.095295201 -0.00012029868 -6.6537784e-20)
(0.095457811 -0.00020803443 1.1202281e-20)
(0.09561686 0.00012460389 1.4165316e-20)
(0.096097323 -0.0016206469 1.9682188e-20)
(0.0962128 -0.0016435752 1.9071185e-20)
(0.096224533 -0.0012098089 -8.1612249e-22)
(0.096877879 -0.0032205514 -8.6417742e-22)
(0.097247367 -0.0051707362 4.5506671e-20)
(0.096387282 -0.0018623106 -2.4286749e-20)
(0.098117845 -0.0064819375 -3.7832258e-21)
(0.099708363 -0.009934329 0)
(0.09711512 -0.0060839511 -6.0822872e-21)
(0.098594663 -0.0078571925 -9.8877991e-20)
(0.1024383 -0.014347195 -6.6918813e-20)
(0.10023077 -0.01694659 0)
(0.10045791 -0.012778059 -7.0655741e-20)
(0.1055778 -0.01425676 -7.0859414e-20)
(0.10622913 -0.025001957 6.4509494e-20)
(0.10563122 -0.030699092 -1.3712203e-19)
(0.11145995 -0.02280028 -9.3851873e-20)
(0.1152078 -0.017110365 -3.2951807e-20)
(0.11152357 -0.026540012 1.4346495e-19)
(0.093375383 0.00082415089 -1.9866436e-21)
(0.091444035 0.0027616794 -1.2231783e-19)
(0.095697984 0.0012525442 1.5845504e-22)
(0.095190841 -0.0010580641 1.4897198e-19)
(0.094242195 0.0019405403 5.3296128e-20)
(0.093929099 0.00056294561 -3.5495876e-21)
(0.093891463 -0.00032868558 -1.8620194e-20)
(0.093660086 0.00051556706 -2.3399522e-23)
(0.093735691 6.8916156e-05 2.010675e-23)
(0.093919639 2.9633045e-05 3.467909e-21)
(0.094067948 -0.00020567356 -4.2977484e-22)
(0.094468299 -3.9264952e-06 6.5021013e-22)
(0.095060194 -0.0014066048 -2.3617484e-21)
(0.095097087 -0.0013480765 -3.3281847e-23)
(0.095522495 -0.001045039 2.6266538e-21)
(0.096660771 -0.0028589309 2.7938342e-22)
(0.096492731 -0.0043651817 -6.8828412e-22)
(0.096298728 -0.0019201427 2.1966696e-20)
(0.09890351 -0.006915314 0)
(0.099475212 -0.008475931 4.5208148e-20)
(0.097085575 -0.0049906657 3.0077108e-21)
(0.10012114 -0.0088673944 -5.3756331e-20)
(0.10445871 -0.01365423 -2.6031969e-21)
(0.10084409 -0.015420793 -1.8764447e-20)
(0.10017792 -0.014780689 -4.5824286e-20)
(0.10824559 -0.01566711 -8.7923738e-21)
(0.11140584 -0.022693724 -5.615806e-20)
(0.10598485 -0.028006292 4.5637379e-21)
(0.1060662 -0.022269678 -3.2098213e-19)
(0.1143049 -0.013172447 1.0714572e-19)
(0.12076504 -0.018022496 7.579707e-22)
(0.10032963 0.00051060758 2.8450346e-19)
(0.092224481 0.0034376886 0)
(0.09627263 0.00061881154 1.0762041e-20)
(0.095145828 -0.0022232531 -5.4039869e-20)
(0.093750128 0.0024506069 -6.1508999e-20)
(0.093488007 0.00023577177 -7.0982879e-23)
(0.09299109 -0.00036572826 -2.2810241e-21)
(0.092640697 0.00029996658 -1.1525394e-22)
(0.092677204 0.00024356846 -8.4362909e-21)
(0.092766781 2.72099e-05 -3.926257e-20)
(0.092812762 4.5897353e-06 -1.7181316e-20)
(0.093277342 -0.00035644051 3.7783501e-22)
(0.093797667 -0.00089587077 1.1813371e-20)
(0.093748445 -0.00086632762 4.3307621e-21)
(0.094398499 -0.0011636832 -7.1706275e-21)
(0.095872268 -0.0023642082 9.5004904e-21)
(0.095514529 -0.0031631951 -1.7236875e-20)
(0.096055509 -0.0025564238 -1.443009e-20)
(0.099074918 -0.0070616439 -2.1092861e-22)
(0.098746027 -0.0065317738 -1.3876205e-21)
(0.097155851 -0.004316686 2.0320676e-22)
(0.10095672 -0.010175417 -6.2636472e-22)
(0.1051572 -0.01220668 0)
(0.10178759 -0.011903085 -1.1204807e-20)
(0.10029605 -0.015251886 8.9415375e-21)
(0.10871689 -0.017281761 -1.0968284e-19)
(0.11433212 -0.018991922 -5.3163587e-21)
(0.1078712 -0.021877344 -8.0090695e-20)
(0.1028708 -0.022387115 4.6544647e-20)
(0.11096558 -0.016819169 -2.3572606e-19)
(0.12473821 -0.016840676 1.0906211e-20)
(0.11130302 0.00064686537 -1.3954806e-19)
(0.095328303 0.0029482527 2.1201634e-23)
(0.098133719 -0.00060770595 -9.1378158e-20)
(0.095898196 -0.0023801957 4.8605977e-20)
(0.094080119 0.0016992314 2.5569677e-22)
(0.093767436 -0.00025654192 -1.2870987e-22)
(0.092866961 5.7803727e-05 -6.2484013e-22)
(0.09219011 -6.5256428e-05 -1.4423582e-24)
(0.091879833 0.0003473026 -1.2133889e-20)
(0.091790931 -5.1974094e-06 1.4648135e-20)
(0.091695168 0.00018501248 -2.2477687e-20)
(0.092075585 -0.00078349761 0)
(0.092414344 -0.00045669594 3.4413338e-22)
(0.092364892 -0.00040714798 -7.5253297e-22)
(0.093073728 -0.0016387145 7.6779456e-21)
(0.094449852 -0.0020522828 1.2207554e-20)
(0.094095347 -0.0017931713 4.3932951e-21)
(0.095364975 -0.0032017317 4.6243863e-20)
(0.098331912 -0.0068324539 -1.1458895e-20)
(0.097584301 -0.0043946424 -5.4252307e-20)
(0.097409812 -0.0041393164 4.489059e-20)
(0.10122328 -0.011349139 1.482018e-21)
(0.10455328 -0.010585789 -1.7801142e-21)
(0.10278565 -0.007515725 -9.1815209e-21)
(0.10128657 -0.013850422 1.1663226e-21)
(0.10768143 -0.018627483 5.4281431e-20)
(0.11438564 -0.015543957 -7.9104458e-20)
(0.1106272 -0.014207662 -5.151435e-20)
(0.10337413 -0.01952819 -8.4080363e-20)
(0.10701662 -0.023314645 1.6643043e-19)
(0.12150487 -0.022744184 -1.0524585e-19)
(0.11900128 0.0013082222 -3.8572315e-19)
(0.1013264 0.0010963522 -1.0816635e-22)
(0.1024284 -0.0018904839 4.0730992e-19)
(0.098900593 -0.0017073625 -2.0521782e-19)
(0.095966773 5.9006594e-05 -1.1020678e-21)
(0.09487157 -0.00067312864 0)
(0.093333463 0.00066717326 -4.8008203e-21)
(0.092431339 -0.00036862687 -3.4425947e-20)
(0.091922069 0.00019886168 5.4866575e-21)
(0.091452042 6.2256758e-05 6.9834462e-21)
(0.091036097 0.00010310425 -2.6528043e-23)
(0.091012029 -0.0010693953 -8.2129505e-23)
(0.091022259 -0.00028224605 0)
(0.091090942 -9.6035071e-05 9.9646431e-21)
(0.091719616 -0.0019788594 -1.1335826e-20)
(0.092713625 -0.001886092 1.5912981e-22)
(0.092500302 -0.00068868559 4.287869e-21)
(0.094241161 -0.0036888818 6.2604144e-20)
(0.096535846 -0.0061622048 -4.6436175e-20)
(0.095772865 -0.0026318601 -5.8170565e-20)
(0.09754137 -0.0039147106 6.8104709e-20)
(0.10092113 -0.011720731 3.1788715e-20)
(0.10243672 -0.0093419613 -1.381481e-19)
(0.10301581 -0.0034907963 -1.6431388e-20)
(0.1033809 -0.010861516 -1.9912827e-19)
(0.10641668 -0.018592487 6.9233239e-21)
(0.11180504 -0.013088706 1.4006448e-21)
(0.11293274 -0.0076496368 1.4982465e-20)
(0.10873342 -0.014098056 -1.5801208e-19)
(0.10736314 -0.026571878 -9.1798382e-20)
(0.11514806 -0.03033976 2.6221753e-19)
(0.11796624 0.0019109102 3.1372681e-20)
(0.10569127 -0.00044188113 -4.2674661e-22)
(0.10695132 -0.0022461739 9.6456641e-20)
(0.1033492 -3.4087017e-05 2.1135047e-22)
(0.10011727 -0.0012702768 1.1478904e-21)
(0.097611263 -0.00066789624 5.7220042e-20)
(0.095110269 0.0010236784 -8.6662379e-21)
(0.093761466 -0.00028632232 -2.2691454e-23)
(0.092696901 -0.00015662761 -1.021494e-20)
(0.091822892 0.00025961532 -3.5570112e-21)
(0.091278784 -0.00014483542 -1.5454942e-20)
(0.090893476 -0.00097119586 8.2137497e-23)
(0.090502224 -0.0003445586 0)
(0.090576343 -0.00013317271 1.6419647e-22)
(0.090805761 -0.0021332084 -2.7595828e-20)
(0.091100051 -0.0018891727 4.3841133e-22)
(0.091080702 -0.00020654124 -2.515189e-22)
(0.092963337 -0.004046182 1.8301761e-22)
(0.094088254 -0.0049512465 -3.8538257e-21)
(0.093321131 -0.0016870165 4.7992452e-22)
(0.097081578 -0.0038877439 -7.1132744e-20)
(0.099977793 -0.010773476 3.8691475e-20)
(0.099047748 -0.0085032473 -2.4095065e-21)
(0.10186624 -0.0018966136 -1.6616199e-20)
(0.10587286 -0.0080503422 -6.412986e-20)
(0.10582463 -0.016989835 -8.5310993e-21)
(0.10723838 -0.01295292 1.4668383e-19)
(0.11190835 -0.004715342 -7.2189974e-20)
(0.11523423 -0.0085363689 -1.0044217e-20)
(0.1138794 -0.023351527 2.0923678e-19)
(0.11266466 -0.032772933 -4.3249954e-21)
(0.11311073 0.003186127 -1.1086141e-19)
(0.10717543 -0.0019066355 0)
(0.10983626 -0.0018137072 7.9568769e-21)
(0.10726324 0.0015894433 9.0430984e-20)
(0.10488117 -0.0017818135 -8.5504676e-20)
(0.10221974 -0.00031492234 1.5110919e-20)
(0.099549178 0.00058126474 9.0937316e-24)
(0.097377655 3.5585506e-05 5.7571574e-23)
(0.095209331 -0.00039894813 1.9232849e-20)
(0.093605885 0.00034537675 -6.1966247e-21)
(0.092556871 -0.00030599507 1.7056289e-20)
(0.091593642 -0.00051121473 1.5609222e-23)
(0.090866695 -0.00051170309 3.1054404e-20)
(0.091023241 -0.00041661813 0)
(0.091055702 -0.0018779398 -2.1501601e-20)
(0.090669923 -0.0020134232 4.0578566e-20)
(0.090812146 -0.00042670567 2.2065949e-21)
(0.092389891 -0.0042149276 4.9874219e-20)
(0.092115893 -0.0033520826 5.5206892e-22)
(0.091128002 -0.0013547699 8.5617075e-22)
(0.095822152 -0.0042941327 -3.1414067e-20)
(0.09829155 -0.0084080583 7.0615003e-22)
(0.095037348 -0.007230316 8.3031714e-20)
(0.098998819 -0.0032598918 8.1273975e-20)
(0.10678726 -0.0067553866 7.5918701e-20)
(0.10600822 -0.013920166 -4.385636e-20)
(0.1027518 -0.013592447 -8.463313e-20)
(0.10806871 -0.006866899 -1.813879e-21)
(0.11803422 -0.0074295711 6.3500858e-20)
(0.12146217 -0.016931342 -9.7949407e-20)
(0.11669043 -0.027783601 6.5748919e-20)
(0.10348046 0.0030991183 1.1212113e-19)
(0.10501057 -0.0016307763 -2.7840845e-19)
(0.10911848 -0.00053354519 1.6936182e-21)
(0.10755963 0.0023898927 -8.0416806e-22)
(0.10666495 -0.0012308423 1.6295468e-22)
(0.10539439 0.00034589459 -2.468908e-20)
(0.10435088 -0.00041444212 6.972413e-21)
(0.1026277 0.00017839774 8.4540687e-24)
(0.10022155 -0.00035844482 -6.0956683e-22)
(0.098120402 2.835987e-05 5.0537446e-21)
(0.096424598 -0.00037162829 -1.6363968e-22)
(0.094729925 -0.00017009836 -4.3158854e-22)
(0.093294358 -0.00057481362 -1.0343538e-22)
(0.092934913 -0.00080558432 8.0727356e-22)
(0.092527237 -0.0013424873 0)
(0.091375511 -0.0019022336 0)
(0.091603482 -0.00094436735 8.5996761e-21)
(0.092811534 -0.0039139756 -3.3595591e-22)
(0.091655029 -0.0018042783 4.9049231e-20)
(0.090732117 -0.0016420324 -3.4412349e-21)
(0.095197883 -0.0052962433 -6.8214878e-21)
(0.096957256 -0.0056150856 -5.5241663e-21)
(0.092194043 -0.0049690607 0)
(0.095419131 -0.0059702732 0)
(0.10502747 -0.0074040694 0)
(0.10557148 -0.010037418 4.9068904e-21)
(0.099578183 -0.011974202 1.8699524e-21)
(0.10255879 -0.011581241 5.0044643e-20)
(0.11492464 -0.010620326 2.6497803e-20)
(0.12357584 -0.012106159 1.3284692e-21)
(0.12094332 -0.017215977 -3.2472264e-20)
(0.09723659 0.0033109722 6.4066589e-20)
(0.099026349 -0.001115399 -3.617542e-21)
(0.10571496 0.00026573735 -1.9655912e-21)
(0.10573343 0.0017345424 1.9882127e-19)
(0.10574251 -0.0001128407 0)
(0.10516181 0.00082178636 2.6639698e-22)
(0.10472678 -0.0013879578 -1.1074488e-20)
(0.10415313 0.00012669229 -4.8919955e-20)
(0.10327237 4.2179067e-05 2.0697383e-22)
(0.1024014 -0.00047223212 3.4481683e-21)
(0.10150755 -0.00041070826 5.6165586e-21)
(0.10017723 -0.00018971289 0)
(0.098616509 -0.00044930387 4.032534e-20)
(0.0977268 -0.0013305068 -6.0134381e-21)
(0.096793758 -0.00071700863 -6.6275068e-21)
(0.094893936 -0.0013678017 -9.8351039e-22)
(0.094503885 -0.0014861676 1.1371717e-20)
(0.094858986 -0.0033737616 6.2534745e-22)
(0.093102688 -0.00029395531 2.8489858e-20)
(0.092388157 -0.00220736 -4.089119e-21)
(0.095786952 -0.0063824225 4.8042018e-22)
(0.096999206 -0.0029627225 -5.7267634e-20)
(0.092676674 -0.0020598259 4.1816458e-20)
(0.094307237 -0.0082787013 0)
(0.1027521 -0.0097795623 1.0770942e-20)
(0.10483169 -0.0066732175 -4.5186189e-22)
(0.099347027 -0.0075198169 -1.0550133e-19)
(0.099180315 -0.014283315 1.0901721e-20)
(0.10894754 -0.015661767 1.0227192e-19)
(0.11932803 -0.011375485 6.7026262e-20)
(0.12169648 -0.0075044833 8.0062292e-23)
(0.096369403 0.0017689221 -8.6052211e-20)
(0.096486326 0.00042854684 5.0310019e-20)
(0.10165717 0.00058481958 1.1300037e-21)
(0.10196754 0.00023323435 -2.2940867e-19)
(0.10249376 0.00086564544 -1.7564245e-19)
(0.10305281 0.00059005267 -1.293334e-22)
(0.10327905 -0.001703084 4.957748e-20)
(0.10303291 -0.00023663854 3.8423968e-20)
(0.10284536 0.00041585074 -2.8212012e-22)
(0.10265526 -0.00066547136 -1.1132694e-22)
(0.10255047 -0.00037205352 -1.133332e-20)
(0.10225622 -0.00041899181 -3.0373984e-22)
(0.10181211 -0.00040442682 -1.5784713e-22)
(0.10161073 -0.0017984559 8.2034061e-23)
(0.10117157 -0.00041680994 -2.2886986e-20)
(0.099863132 -0.00081109036 -6.7648162e-23)
(0.099508637 -0.002234178 -2.2604842e-20)
(0.098935302 -0.0029965195 2.0348529e-21)
(0.097105557 0.00056925493 1.5329683e-21)
(0.096930341 -0.0027492114 0)
(0.098337569 -0.0072465629 -3.2476297e-20)
(0.098524935 -0.0011352842 -6.8709849e-22)
(0.096369813 0.00087085079 1.0420787e-19)
(0.097158936 -0.0085886313 -4.2076356e-21)
(0.10206094 -0.011880142 -3.9443291e-20)
(0.1042657 -0.0040105704 1.5411379e-19)
(0.10244171 -0.0022062763 4.2763525e-20)
(0.10143539 -0.012086427 2.7520477e-22)
(0.10520395 -0.019001239 -1.2270966e-20)
(0.11237976 -0.01326352 -1.050059e-19)
(0.11721482 -0.0035187613 -4.2866593e-21)
(0.10562538 0.0012655151 3.5008396e-20)
(0.098502559 0.0011567342 -1.4374642e-22)
(0.10197605 -0.00059828285 -3.0214646e-20)
(0.10103979 -0.0015473169 -1.5260348e-21)
(0.10076335 0.0011596329 -5.2908316e-22)
(0.10095478 -0.0001803311 2.4629088e-20)
(0.10084111 -0.00089461297 0)
(0.10062187 -0.00051325679 -9.3962461e-23)
(0.10098894 0.00040584726 -1.3043338e-23)
(0.10134973 -0.00062772326 -4.6475472e-20)
(0.1015634 -0.00058951309 4.1639291e-23)
(0.10161633 -0.00043582312 -6.3718158e-23)
(0.10166166 -0.00015987196 -5.1074601e-20)
(0.10162881 -0.00161537 1.3767594e-20)
(0.10165245 -0.00014716438 3.729301e-20)
(0.10129011 -0.00024855032 -1.9631772e-23)
(0.10173131 -0.0024879172 3.4915516e-22)
(0.10114424 -0.0022546782 -5.31878e-22)
(0.10045804 0.00063484702 0)
(0.10190534 -0.0027736746 9.6756564e-20)
(0.10176664 -0.0071516425 -2.4150007e-20)
(0.10083567 -0.00064847661 6.571919e-20)
(0.10176516 0.002173708 2.8325999e-20)
(0.10337022 -0.0073043199 -1.2479079e-22)
(0.10351185 -0.012046165 -2.5201508e-20)
(0.10375486 -0.0028420346 -8.594588e-20)
(0.10631943 0.0015604519 6.7971595e-21)
(0.10833057 -0.0063071112 -8.540159e-20)
(0.1072771 -0.017036395 4.1086593e-20)
(0.10752018 -0.014719281 -7.2198841e-20)
(0.11117612 -0.0046289509 -6.097889e-21)
(0.098508719 -0.0008998068 8.6100109e-20)
(0.098387983 0.0022306405 3.2619941e-23)
(0.10231683 -0.001973743 -4.3796137e-21)
(0.10107455 -0.002814078 -8.211654e-20)
(0.10078199 0.00052169219 -5.4513565e-22)
(0.10091472 -0.0012342272 -3.6973003e-21)
(0.10042227 0.00043121091 0)
(0.099880778 -0.00054862614 0)
(0.10002656 0.00021730479 -4.3356792e-21)
(0.10022791 -8.2377287e-05 0)
(0.10024736 -0.00088996679 1.2897848e-20)
(0.1002611 -0.0003542145 -9.8574229e-22)
(0.10065338 -0.00033783758 0)
(0.10066831 -0.0015083706 3.1904068e-20)
(0.1007398 -0.00042066223 3.5564026e-20)
(0.10102496 9.1767566e-06 -1.7998281e-20)
(0.10166595 -0.0022979812 -7.7046326e-22)
(0.10074649 -0.0013898273 3.433928e-21)
(0.10089758 -0.000127934 -6.7183483e-21)
(0.10383638 -0.0027036168 5.6638752e-20)
(0.10286269 -0.0057588752 8.4077766e-21)
(0.10102362 -0.0013601529 7.5839694e-22)
(0.10487914 0.0011623056 -1.0283971e-20)
(0.10878806 -0.0055165342 6.1432613e-20)
(0.10593249 -0.009569761 -2.1040442e-20)
(0.10349667 -0.0033086063 -2.1761047e-19)
(0.10874852 0.0018334166 5.0810873e-21)
(0.11547386 -0.0019954543 3.8805797e-21)
(0.11384087 -0.010349512 -1.7751422e-19)
(0.10784575 -0.01305765 9.0905088e-21)
(0.10758272 -0.0078253932 1.2128099e-19)
(0.097203235 0.00041992542 -1.0701831e-19)
(0.097098726 0.0015965253 6.1099622e-23)
(0.10170592 -0.0028849795 3.6245012e-19)
(0.10020212 -0.002362589 1.8012118e-19)
(0.10017737 2.1970172e-05 1.6570841e-19)
(0.10037846 -0.0015006995 -4.5574263e-22)
(0.099964987 0.0014634998 -1.4675182e-22)
(0.09955733 -0.00023238551 -2.964151e-20)
(0.09953514 -0.0001995173 -1.1626815e-20)
(0.099822305 0.00023502284 6.0332207e-21)
(0.099700631 -0.0010148881 -6.5600961e-21)
(0.099529004 9.1289788e-05 2.8753327e-22)
(0.10004351 -0.00029062834 -1.2990303e-20)
(0.099900858 -0.00079732593 3.7741727e-21)
(0.099834125 -0.00063200364 1.9639263e-20)
(0.10057563 -0.00017716924 1.8883964e-21)
(0.10127608 -0.0018220017 -1.1957337e-20)
(0.10013671 -0.00046555251 1.9884869e-20)
(0.10064847 -0.0011232643 4.7069587e-21)
(0.10408725 -0.0025165738 -5.7805008e-21)
(0.10272675 -0.0028232514 -4.0830206e-21)
(0.09997502 -0.0017430552 -1.9273158e-20)
(0.10493117 -0.0012132137 4.3124569e-20)
(0.11066461 -0.0040445574 -1.359244e-22)
(0.10694345 -0.0048213962 -1.8671638e-20)
(0.1022695 -0.0031916095 5.7319528e-20)
(0.10799088 -0.00086210444 1.887895e-21)
(0.11801564 -0.0021256952 -4.0162667e-20)
(0.11945241 -0.0034479781 5.3876688e-20)
(0.11185873 -0.0064338617 -5.6552534e-20)
(0.10785677 -0.0081167045 -2.0941344e-20)
(0.10301726 0.00062163544 -1.6899739e-19)
(0.098835305 0.0013160281 1.1014067e-22)
(0.10225767 -0.0028872023 -3.5165208e-22)
(0.10012003 -0.0010114284 1.9262245e-21)
(0.10010766 -0.00050802064 -1.1464924e-19)
(0.099950466 -0.001139596 1.1784112e-19)
(0.099451141 0.0013163419 -3.7472704e-20)
(0.099165982 -8.0960432e-06 1.7508628e-20)
(0.098888662 -0.00022756048 -7.3509417e-21)
(0.099216916 0.00043254666 1.6650865e-22)
(0.098966586 -0.00085369178 -6.1576348e-21)
(0.098756839 -0.00021196164 -3.5661813e-20)
(0.099434052 -0.00097564781 2.3435155e-22)
(0.099337584 -0.00014159645 1.8401883e-20)
(0.099205617 -0.0010252519 2.922101e-23)
(0.1000347 -0.00078103287 -1.2136918e-20)
(0.10069765 -0.0015187879 -1.1411662e-20)
(0.099784103 0.00015494614 0)
(0.10046113 -0.0024900331 4.8349867e-22)
(0.10366636 -0.0027513404 -6.3900535e-22)
(0.1027194 0.00010781052 3.037587e-21)
(0.099880563 -0.0016281223 2.8694117e-20)
(0.10416698 -0.0046014003 -6.644146e-22)
(0.11021308 -0.0038603904 3.5173719e-20)
(0.10763494 -6.5677742e-05 -6.0445034e-21)
(0.1024255 -0.0012155462 3.639432e-20)
(0.1063937 -0.0055891539 1.8021167e-20)
(0.11603129 -0.0058652229 6.196683e-20)
(0.12014631 -0.0011515 -6.1403987e-20)
(0.11566065 0.00063027616 7.6996246e-20)
(0.11111013 -0.004683565 2.003016e-19)
(0.10398644 0.0035699917 3.6056588e-21)
(0.10209289 -0.00089499247 -9.2771722e-20)
(0.10463287 -0.0017311418 -5.7510712e-20)
(0.10194211 0.0014352977 -4.8536308e-20)
(0.10150403 -0.000460076 -2.4876786e-22)
(0.10079329 1.8915587e-05 1.1243643e-22)
(0.10020381 0.00010698874 -3.2931577e-23)
(0.099685167 -7.3585186e-05 1.86995e-20)
(0.099093377 3.17943e-06 6.9681374e-21)
(0.099423065 -1.5119613e-05 1.7426e-20)
(0.099125711 -6.399035e-05 5.8126218e-21)
(0.098710099 -0.00022613859 6.7438014e-23)
(0.099075864 -0.00090773732 -1.5159001e-20)
(0.099024488 0.00085872566 -5.2289233e-23)
(0.098999136 -0.0010690679 5.3720078e-20)
(0.099568505 -0.0012521534 7.1797565e-21)
(0.10014919 -0.0011294835 3.6178422e-22)
(0.099817164 0.0012649921 -1.459659e-22)
(0.10048876 -0.0029199954 7.3648419e-20)
(0.10256362 -0.0025852883 -1.0297626e-19)
(0.10270837 0.0028633928 3.8295597e-21)
(0.10125809 4.3992909e-05 -1.3243763e-19)
(0.10395316 -0.0066046871 -5.6146375e-21)
(0.10852612 -0.0036769325 1.345155e-19)
(0.10786811 0.0034910654 -1.7781866e-20)
(0.10528314 0.0023285754 7.1251983e-20)
(0.10744337 -0.0078503863 1.7565923e-19)
(0.11346087 -0.0096256093 6.5587622e-20)
(0.11754407 -0.001740434 6.8468434e-20)
(0.11775226 0.0048181217 3.2315281e-21)
(0.11612517 0.00031679729 -2.8416973e-20)
(0.11193958 0.0036726285 -1.7697137e-19)
(0.1038137 -0.00019033114 -4.1284292e-21)
(0.10592633 -0.0015564877 -2.909987e-21)
(0.10359692 0.0027626648 1.1442403e-21)
(0.10335258 -0.00019031182 -7.1501533e-22)
(0.10255456 0.0010019649 6.6383406e-22)
(0.10182809 -0.0011374893 -1.2320841e-22)
(0.10114341 -0.00051854953 1.329401e-23)
(0.10059263 0.00036792089 6.9781791e-24)
(0.10072264 -0.00051801715 -6.4596994e-24)
(0.10021218 0.00031125705 -6.7777659e-23)
(0.099858842 -0.0010999032 3.0477524e-20)
(0.09996072 -0.001176568 1.2140859e-20)
(0.10013737 0.0009166658 2.068153e-23)
(0.10021361 -0.0011389508 -2.3305688e-22)
(0.10035494 -0.0013418139 -1.5086369e-22)
(0.10042279 -0.00115512 -1.4677338e-21)
(0.10078801 0.0013421265 4.9382817e-22)
(0.10168012 -0.0030281897 -9.2176198e-20)
(0.10198996 -0.002942865 1.0806881e-19)
(0.10283117 0.0035708844 6.2509127e-20)
(0.10386563 0.0012019604 9.0741294e-22)
(0.10499672 -0.006831052 -4.0594774e-22)
(0.10641556 -0.0043799341 -2.0282067e-21)
(0.10696072 0.0043114832 -4.81982e-20)
(0.1088168 0.0041974069 -5.2244216e-20)
(0.11118554 -0.0069695388 -4.729402e-21)
(0.11186177 -0.01218685 6.0363256e-21)
(0.11302877 -0.0043527692 8.0769858e-20)
(0.1166575 0.0038969205 -1.1330832e-19)
(0.12023955 0.0026179214 -2.7728128e-20)
(0.11566321 0.0047448932 -2.1354029e-21)
(0.10162727 -0.0028662346 2.5683763e-19)
(0.10479111 1.5564767e-05 1.9654604e-19)
(0.10342236 0.0031553246 -1.5118283e-19)
(0.10373828 8.588104e-06 1.9272684e-19)
(0.10372816 0.0013379561 -5.5398962e-20)
(0.10344939 -0.0017326603 -1.149218e-19)
(0.10291893 -0.00053972309 1.7490942e-23)
(0.10305514 0.00092063904 -5.3119432e-21)
(0.10327429 -0.0010278348 9.2416579e-21)
(0.10314832 0.00067363867 -1.1357361e-20)
(0.10299387 -0.0005061199 1.2439083e-22)
(0.10286028 -0.00042216745 1.1285821e-20)
(0.10342837 0.00056646278 -3.4958499e-20)
(0.10388645 -0.000715406 4.4841513e-22)
(0.10397411 -0.001051392 1.5597892e-20)
(0.10371497 -0.00094988198 4.5248941e-22)
(0.10472747 0.0013109137 -8.4046515e-21)
(0.10605792 -0.001758602 8.2456621e-22)
(0.10465648 -0.0024562136 5.6669197e-20)
(0.10565005 0.0029573798 -7.8371788e-20)
(0.10929921 0.0019045761 -8.6056589e-22)
(0.10996565 -0.0041941121 4.3556828e-21)
(0.10788475 -0.0040084884 -1.0945498e-19)
(0.10821199 0.0032209481 5.3190456e-21)
(0.11391147 0.0039896536 9.1090469e-21)
(0.11849387 -0.0029622688 -3.0355027e-19)
(0.1155577 -0.0090490424 0)
(0.11203296 -0.0051851344 -5.3802888e-20)
(0.11617342 0.0016079291 -1.9112387e-19)
(0.12402386 0.002884254 -8.7456762e-21)
(0.10585955 0.0011973922 6.4924246e-20)
(0.064441272 1.6922382e-05 0)
(0.11480849 -0.0032655974 -3.2812875e-23)
(0.11889324 0.0010506341 -1.8741693e-20)
(0.10500455 7.057601e-05 2.5310588e-20)
(0.11920964 0.00016205421 -1.4925487e-21)
(0.10805123 -0.00020861707 -7.6279738e-20)
(0.11623829 -0.00078321712 -4.3836211e-21)
(0.11723144 0.00077235176 -1.9694038e-21)
(0.10459261 -0.00010404918 -4.2663835e-21)
(0.11882989 -0.00035076141 1.8221742e-22)
(0.11079125 -0.00060389356 -1.2034509e-20)
(0.11929925 -0.00034470124 -2.3679739e-21)
(0.11281068 0.00022157153 -1.8226858e-20)
(0.12008674 -0.00034455103 2.1835436e-20)
(0.11645525 -0.00015619373 1.7093491e-21)
(0.11901574 -0.00055824071 1.2768853e-20)
(0.12003774 0.00011849973 -1.2411359e-20)
(0.12195121 -0.00038745956 3.5569526e-20)
(0.11844053 -0.00059361131 -5.7303368e-22)
(0.12012615 0.00036075196 -5.124074e-20)
(0.12480451 0.0004916709 -8.3652686e-21)
(0.12487005 -0.00086257493 -8.2055775e-21)
(0.1203709 -0.0010706677 1.0448861e-20)
(0.12032102 0.00032500411 3.5849387e-20)
(0.12705602 0.00070815347 -2.3850151e-20)
(0.1328883 -0.00059911615 4.4674437e-21)
(0.12852985 -0.0022010347 -2.576434e-20)
(0.12170089 -0.0019057532 -5.8398849e-21)
(0.12486384 -0.00033676291 -5.6480917e-20)
(0.13477921 0.00018300857 -7.7009163e-21)
(0.14107825 -0.00077568366 -2.2266071e-21)