/*--------------------------------*- C++ -*----------------------------------*\
| =========                 |                                                 |
| \\      /  F ield         | OpenFOAM: The Open Source CFD Toolbox           |
|  \\    /   O peration     | Version:  2406                                  |
|   \\  /    A nd           | Website:  www.openfoam.com                      |
|    \\/     M anipulation  |                                                 |
\*---------------------------------------------------------------------------*/
FoamFile
{
    version     2.0;
    format      ascii;
    arch        "LSB;label=32;scalar=64";
    class       volScalarField;
    location    "175";
    object      p;
}
// * * * * * * * * * * * * * * * * * * * * * * * * * * * * * * * * * * * * * //

dimensions      [1 -1 -2 0 0 0 0];

internalField   nonuniform List<scalar> 
20580
(
1.0079115
1.0065805
1.0030341
1.0033166
1.0049615
1.0024071
1.0031219
1.0048183
1.0029462
1.0035585
1.0035171
1.0035111
1.0023427
1.0031425
1.0033555
1.0014564
1.0021206
1.0066418
0.99999174
1.0006482
1.0076089
1.0036483
0.99908176
1.003088
1.0114676
1.0014349
0.99360694
1.0009224
0.99617509
0.98898593
1.0123083
1.0081502
1.0064584
1.0027487
1.0029621
1.005464
1.0021675
1.003092
1.004723
1.0027936
1.0036612
1.0038887
1.002938
1.0023479
1.0040018
1.0030977
1.000919
1.0045141
1.0059748
0.997337
1.0027917
1.0086406
1.0010102
0.99977197
1.0060018
1.0114972
0.99655564
0.98498425
0.99939921
1.0072106
0.99397028
0.99551756
1.0066721
1.0058233
1.0029917
1.0030085
1.0051478
1.0029797
1.003624
1.0040664
1.0028291
1.003494
1.0040923
1.0023668
1.0024558
1.0045275
1.0030237
1.0005603
1.0059032
1.0049022
0.99614966
1.0047809
1.0083319
0.99792272
0.99979643
1.0059888
1.0097745
0.99529116
0.98186501
0.99797515
1.0165898
1.002314
0.98166203
1.0041323
1.0048533
1.0036733
1.0034943
1.0042369
1.0042553
1.0044407
1.0032044
1.0031495
1.0032445
1.0039842
1.0022174
1.0027492
1.0044578
1.0029305
1.0006312
1.0062013
1.0033527
0.99677553
1.0061442
1.0063739
0.99565221
1.0007006
1.0039735
1.0053961
0.99806414
0.9857119
0.99755846
1.0205853
1.0135663
0.98006435
1.0015812
1.0038885
1.0043827
1.0042664
1.0033078
1.0050747
1.0048778
1.0025919
1.0036774
1.0032299
1.0035375
1.0025571
1.0032428
1.0038286
1.002676
1.001302
1.0055452
1.0015923
0.99907887
1.0068768
1.0032763
0.99479644
1.0031494
1.0018151
0.99892551
1.0015177
0.99539396
0.9983165
1.015564
1.0206016
0.99228963
1.0000075
1.0033332
1.0047271
1.0049418
1.002646
1.0051313
1.004512
1.0024652
1.0039182
1.0035212
1.0028923
1.0030673
1.0038155
1.003067
1.0023163
1.0025077
1.004184
0.99971067
1.0021515
1.0072684
1.0004798
0.99519125
1.0066477
1.0014616
0.99248819
1.0024923
1.0074434
1.0004015
1.0033795
1.0143588
1.0086959
1.0000566
1.0034548
1.0045884
1.005173
1.0025284
1.0045143
1.0036095
1.0029528
1.0036788
1.0036648
1.0023781
1.0034618
1.0041797
1.0022262
1.0020696
1.0037723
1.0027816
0.99837703
1.0048914
1.0067898
0.99822433
0.9965042
1.0101209
1.0035628
0.98843944
1.0003333
1.0165141
1.0049946
0.99064357
0.9961761
1.0125433
1.001819
1.004285
1.0040388
1.0047836
1.0032132
1.0034376
1.0025452
1.003902
1.0034127
1.0034321
1.0022664
1.0035446
1.0043
1.0015587
1.0018777
1.0047249
1.0020209
0.99816288
1.0068851
1.005321
0.99681895
0.9984119
1.0114037
1.0060735
0.98849281
0.99692339
1.0180256
1.0108816
0.98501736
0.97789691
1.0004289
1.0044826
1.0055524
1.0033232
1.0039136
1.0042965
1.0025224
1.0020507
1.0047522
1.0033477
1.0030683
1.0026042
1.0034494
1.0040214
1.0014128
1.0018803
1.0051597
1.0018199
0.9989748
1.0076338
1.0032232
0.99720964
1.0011493
1.0092647
1.0064301
0.99318063
0.99501891
1.0119782
1.0138905
0.98912038
0.97261721
0.98439565
1.0069471
1.0065379
1.0028547
1.0029683
1.0051555
1.0024251
1.0027164
1.0048415
1.0035672
1.0029257
1.0030531
1.0034553
1.0032555
1.0019557
1.0023769
1.0046709
1.0017327
1.0007759
1.0070555
1.0004258
0.99863191
1.0042256
1.0045691
1.0035183
1.0000751
0.99677871
1.0028951
1.009247
0.99935249
0.98254753
0.98071575
1.007993
1.0068128
1.0029848
1.0024969
1.0054764
1.0030597
1.0038998
1.0040627
1.0038146
1.0032065
1.0032669
1.0034695
1.0023498
1.0029675
1.0029065
1.0034214
1.0015915
1.0032358
1.0058339
0.99778502
1.0001249
1.0074194
0.99951242
0.99748603
1.0053006
1.0026232
0.99580091
0.99789086
1.0064729
1.0023636
0.99238756
1.0069613
1.0064773
1.0035464
1.0027377
1.0050029
1.0039689
1.0050223
1.0030116
1.0035736
1.0034283
1.0035137
1.0034656
1.0015618
1.0037538
1.0034106
1.0021358
1.0014338
1.0053099
1.0044145
0.9962448
1.0016168
1.0107314
0.99640883
0.99096627
1.0069914
1.0104975
0.99364908
0.9868374
1.003624
1.0184967
1.0125639
1.0045384
1.005326
1.004126
1.0035883
1.0038357
1.0047204
1.0055036
1.0024576
1.0030365
1.0032646
1.0039193
1.0035537
1.0014108
1.0040163
1.0039008
1.0014245
1.0012522
1.0062122
1.0028464
0.99612132
1.0025548
1.0124549
0.99622989
0.98727054
1.0058012
1.0158796
0.99670147
0.98273416
0.99382064
1.0206422
1.0260466
1.001863
1.00389
1.0044606
1.0047027
1.0026946
1.004897
1.0047885
1.0028262
1.0028009
1.002919
1.0042336
1.0034052
1.0018693
1.0036806
1.0041548
1.0012811
1.0011161
1.0060779
1.0013655
0.99771518
1.0028847
1.0108607
0.99826005
0.9884086
1.003397
1.0153903
1.0026886
0.98616489
0.98838009
1.0086172
1.0236941
0.99998025
1.0030803
1.0044513
1.0055406
1.0022611
1.0044282
1.0035139
1.0038056
1.0030346
1.0029991
1.004181
1.0031376
1.0026167
1.0031539
1.0037856
1.0015436
1.0014987
1.0051197
0.99996227
1.000981
1.0033138
1.0064941
1.000526
0.99457701
1.0020914
1.0089102
1.0064022
0.99493264
0.99204454
0.9960608
1.0072753
0.9999102
1.0032617
1.0040165
1.0053601
1.0025572
1.0036104
1.0023992
1.0046342
1.0036044
1.0033837
1.0035723
1.0028351
1.0034882
1.0027503
1.0029356
1.0022502
1.0026264
1.003755
0.99855652
1.00438
1.0040587
1.0005476
1.0007294
1.0036025
1.0034473
1.0001589
1.0025679
1.0054199
1.0016693
0.99345556
0.98895787
1.0020899
1.0041874
1.0034424
1.0043609
1.0035077
1.0029873
1.0020273
1.0048
1.0039287
1.0036361
1.002816
1.0027393
1.0042648
1.002487
1.0021107
1.0030398
1.0039038
1.0025812
0.99756851
1.0068313
1.005294
0.99531538
0.99847451
1.0108483
1.0071432
0.99354053
0.99270831
1.0098159
1.0134281
0.99893612
0.98201396
1.0051661
1.0057201
1.0031493
1.0031346
1.0047896
1.0028939
1.0029265
1.0040455
1.0036851
1.0035989
1.0023947
1.0028068
1.0047404
1.0023394
1.0015003
1.0033281
1.0047125
1.0019665
0.99755565
1.0077142
1.0066218
0.99281032
0.99545424
1.0134196
1.0111537
0.9909721
0.98526792
1.0054409
1.0196428
1.0080637
0.98571994
1.007398
1.0070185
1.0032553
1.0022611
1.0055983
1.0033092
1.0043966
1.0027653
1.0032493
1.0035452
1.0026027
1.0028811
1.0045688
1.0025382
1.0013154
1.0031002
1.0049311
1.0019399
0.99875014
1.0067476
1.0066784
0.9937128
0.99441844
1.0107989
1.0124378
0.99237173
0.98554059
0.99792462
1.0159816
1.0131956
0.99563603
1.0076107
1.007178
1.0035705
1.002022
1.0053216
1.0038524
1.0052882
1.002221
1.0032621
1.00368
1.0029831
1.0029504
1.003835
1.0029016
1.0016526
1.0027965
1.0045637
1.001948
1.0009703
1.0044202
1.0048384
0.99720993
0.99655122
1.0060021
1.0084376
0.99702021
0.99198678
0.99665902
1.0050447
1.0092883
1.0029192
1.0055273
1.0060399
1.0039081
1.0030168
1.0044373
1.0041504
1.0050911
1.0025539
1.0033747
1.0036501
1.0033761
1.0033178
1.0030684
1.0030643
1.0025956
1.0027074
1.00321
1.0016918
1.0037403
1.0020291
1.0008214
1.0020728
1.0011197
1.0025857
1.0004051
1.000805
1.0011537
1.0017921
0.99674654
0.99754093
1.0030109
1.002237
1.0042784
1.0041008
1.0046794
1.0031447
1.0040176
1.0037103
1.0037779
1.0035698
1.0030646
1.0034888
1.0038946
1.0022937
1.0029899
1.0036879
1.0027552
1.0017886
1.0010967
1.0065894
1.0005748
0.99677944
1.0050679
1.0071556
1.0011808
0.99330204
0.99936145
1.0109378
1.0099003
0.99467497
0.98645941
0.99704882
0.99987832
1.0027546
1.0040132
1.0057107
1.0021565
1.0035953
1.0022845
1.0052135
1.0033736
1.002015
1.0036292
1.0044983
1.0017196
1.0027814
1.004489
1.0030057
1.0010259
1.0002275
1.0086369
1.0004774
0.99412786
1.0046245
1.0120021
1.0025381
0.99022262
0.99454089
1.0143287
1.0176377
0.99863097
0.98247213
0.99027027
1.0114023
1.0112131
1.0052878
0.99396872
0.98189778
0.97699927
0.98297646
0.99567681
1.007811
1.011704
1.0046689
0.99342641
0.99047568
1.0010659
1.0169867
1.0236588
1.0116903
0.98466081
0.9642146
0.9665262
0.98928006
1.0180689
1.0362788
1.0092038
1.0037014
1.0001554
1.0008443
1.0055586
1.0103947
1.0111215
1.0063496
0.9924168
0.97662091
0.96820156
0.97357789
0.99209771
1.0157383
1.0286961
1.0227891
1.0028419
0.98443741
0.98015314
0.99179686
1.0093434
1.0154269
1.0041778
0.9721392
0.97768967
0.99219468
1.0103343
1.0250893
1.0310267
1.0230117
1.0066623
0.98864609
0.97938918
0.98305152
0.99504141
1.0048007
1.0052598
0.99337209
0.97772934
0.97228229
0.98471322
1.0110071
1.0361115
1.0400195
1.0166352
0.98015967
0.97687023
0.98801952
0.99732986
1.0018897
1.0002164
0.99228469
0.98360168
0.98173887
0.99295814
1.0128419
1.0308058
1.0372427
1.0270638
0.99819113
0.96592382
0.94979045
0.95710584
0.98207234
1.013362
1.0334185
1.0277407
1.004057
0.98142946
1.0282876
1.024149
1.0100302
0.98916589
0.96906281
0.95436891
0.95459882
0.97014373
0.99466674
1.0184728
1.0330982
1.0301161
1.0112051
0.99173406
0.98149521
0.98554462
0.99883704
1.0095894
1.0096296
0.99280391
0.96688727
0.95393866
0.96514433
1.0289179
1.0183254
1.0050311
0.99209017
0.98362029
0.98605483
0.99541858
1.0049996
1.0057292
0.99561188
0.9781656
0.96083056
0.95685501
0.96898587
0.99836319
1.0336928
1.0577741
1.056272
1.025256
0.97670756
0.93776056
0.92767409
0.94558287
0.96634092
0.96697868
0.97783306
0.99929482
1.0262716
1.0476382
1.0552352
1.0437476
1.0167807
0.98369213
0.95122227
0.9330678
0.93559163
0.95890017
0.99320295
1.0278374
1.0476191
1.0409859
1.0156476
0.9892008
0.97310423
0.97078655
0.98223704
0.94012613
0.95342698
0.97727273
1.0018021
1.0218889
1.0349781
1.0342515
1.0229357
1.0068239
0.9908105
0.9818723
0.98366409
0.99268106
1.0025855
1.0025065
0.99087496
0.97225869
0.95623933
0.95462779
0.9703886
1.0019842
1.0361589
1.0622134
1.000406
1.0083459
1.0082164
0.99755743
0.97817889
0.95770482
0.94631797
0.94735009
0.96216221
0.98994968
1.0257624
1.057358
1.0727593
1.0655049
1.0304131
0.98321243
0.93661035
0.90607159
0.90465977
0.93121243
0.98060497
1.0407605
1.0880153
1.0844855
1.0607804
1.022453
0.9831771
0.95083169
0.92795926
0.91382659
0.91631897
0.93733501
0.97461001
1.021076
1.0618859
1.0824848
1.0702556
1.038964
1.0002775
0.96141416
0.93818573
0.93364888
0.94722782
0.97331488
1.0006514
1.020763
1.048546
1.035559
1.0210796
1.0007203
0.9764537
0.9583209
0.95507697
0.96521546
0.98243184
0.99518584
0.99824808
0.99053974
0.98492054
0.98592079
0.99196984
1.0000498
1.0080615
1.0141642
1.0201147
1.0254319
1.0172592
0.99207289
0.95743817
0.94949204
0.95775573
0.97510842
0.99794103
1.0212261
1.0423901
1.0567779
1.0619663
1.0480247
1.017758
0.97701434
0.93709867
0.9092295
0.89870391
0.91144826
0.94618613
1.0031858
1.066105
1.1133928
1.1179134
1.0792206
1.0152326
0.94722073
0.89495214
0.90558844
0.93134017
0.97422346
1.031892
1.0924339
1.1339301
1.1340889
1.0922072
1.0300743
0.97013709
0.92250615
0.89100647
0.87761272
0.88358245
0.91493277
0.97022493
1.043263
1.1119746
1.1430248
1.1188195
1.0530189
0.97603505
0.8944668
0.91044339
0.93996881
0.98175628
1.0276565
1.0705272
1.1007226
1.1045303
1.0822324
1.0395889
0.99170792
0.94665516
0.91725486
0.90509841
0.91030069
0.93256044
0.9686629
1.0118792
1.0480973
1.0736259
1.0742191
1.0546243
1.0172548
0.94305835
0.96110494
0.98443774
1.0039535
1.0129471
1.0129776
1.0118364
1.0134878
1.016276
1.0190409
1.012234
0.99663003
0.97816132
0.96747953
0.96962111
0.98149213
0.99112108
0.99217224
0.98426999
0.98324081
0.98899793
1.0025186
1.0153411
1.0241926
1.0279518
1.0250281
1.010078
0.98451686
0.95594851
0.93545164
0.93206416
0.94811572
0.97742215
1.0089947
1.0314516
1.0417039
1.0440051
1.0433346
1.0334414
1.0102749
0.97678651
0.94272867
0.91856302
0.91878938
0.94011235
0.97975056
1.0981559
1.0819484
1.0473399
1.0059458
0.95923367
0.9197665
0.89297751
0.88493207
0.90090378
0.93724435
0.98901918
1.0426187
1.0856805
1.1092444
1.1067086
1.075351
1.0268343
0.96897131
0.91749571
0.88458406
0.87597308
0.89732273
0.94652156
1.149928
1.1161662
1.0590579
0.99724455
0.94090803
0.89803366
0.87089364
0.86337968
0.87907089
0.91585768
0.97349689
1.0438919
1.1094966
1.1505013
1.1467952
1.098784
1.0302432
0.96069257
0.90660173
0.86884806
0.85587575
0.87482014
0.92615071
1.1759466
1.1317212
1.0625547
0.99110035
0.93079902
0.88758687
0.8619487
0.85538687
0.87049582
0.90727884
0.96731554
1.0460437
1.1236448
1.1734985
1.1658795
1.1050346
1.0275551
0.95345556
0.89455351
0.85788917
0.84762189
0.86772991
0.92294116
1.180099
1.1356194
1.0650628
0.99047412
0.92601237
0.88054234
0.85516451
0.85012196
0.86802731
0.90866014
0.97284902
1.0564576
1.1376322
1.1857842
1.1685471
1.0986665
1.0173831
0.94296344
0.88525444
0.84994579
0.84255103
0.86973102
0.93138415
1.1600216
1.1234062
1.0609577
0.99354597
0.9313875
0.88513722
0.8575616
0.853338
0.8740062
0.92056383
0.99089715
1.0718986
1.1429376
1.1753855
1.149378
1.08117
1.0036261
0.93156044
0.8778447
0.84689077
0.84602369
0.88349913
0.95510233
1.0989559
1.0876651
1.0538766
1.0060213
0.95005819
0.90256278
0.87334932
0.87094864
0.89719984
0.94818511
1.015035
1.0776003
1.1231063
1.1391448
1.1149786
1.0562312
0.98782795
0.92145223
0.87505015
0.85295918
0.86530613
0.91549763
0.99368101
1.0051468
1.0179559
1.0244406
1.0106652
0.98290005
0.94623394
0.91924124
0.92258037
0.95257066
0.99577108
1.0338202
1.0556116
1.0637075
1.0665485
1.0598145
1.0305452
0.98218833
0.92758349
0.88790054
0.87865311
0.90936362
0.96790358
1.0333497
0.90452911
0.93074231
0.96659274
1.0023028
1.0212544
1.0230877
1.0227547
1.0271222
1.0336752
1.0305493
1.0118199
0.98791252
0.97369842
0.97816641
0.99220772
0.99906173
0.98432248
0.95619556
0.94335942
0.95365787
0.98395304
1.0149528
1.0339123
0.84522823
0.87083627
0.91703738
0.98325075
1.0591432
1.1273223
1.1616716
1.1415598
1.0802436
1.0089875
0.94715667
0.90456692
0.88731999
0.89642434
0.92815788
0.97090881
1.0150274
1.0480189
1.0647751
1.0544666
1.0320592
0.99675501
0.96219671
0.86635221
0.88583319
0.93046025
0.99835541
1.0799735
1.1580975
1.1928096
1.1500991
1.0598435
0.96705773
0.89375025
0.8490652
0.83289518
0.85081567
0.90763054
1.0010615
1.1069923
1.1760308
1.1619721
1.0822799
0.99071562
0.91410977
0.86685587
0.98471608
0.98103418
0.99535159
1.010475
1.0227066
1.0363528
1.0500136
1.0486547
1.0182892
0.96305182
0.90172893
0.86457697
0.86559728
0.90641318
0.97741878
1.0653432
1.1486637
1.1766226
1.1182796
1.0161574
0.9180397
0.85443192
0.83003117
1.1200808
1.0713679
1.0116154
0.9630136
0.92632777
0.9073635
0.91183824
0.93637156
0.96966194
0.99484414
1.0061773
1.0042052
1.0013057
1.0099797
1.0142558
1.0173318
1.0240069
1.0303321
1.0199214
0.9776414
0.9212151
0.88692538
0.89144465
1.0735787
1.0555644
1.0086026
0.95506774
0.90706479
0.87661056
0.87638856
0.90689722
0.97050761
1.0536814
1.1226238
1.1316746
1.0806229
1.0081408
0.94365302
0.90086129
0.8937756
0.9236335
0.97733275
1.0244099
1.038586
1.0217846
1.0020471
0.94450198
0.97054274
0.99267756
0.99574985
0.98635485
0.97159312
0.9642794
0.97708576
0.99895566
1.0328259
1.0652744
1.0730911
1.0401076
0.97434416
0.90911497
0.87661055
0.8772228
0.92464441
1.0069291
1.0998939
1.1408111
1.0923254
1.0029772
0.92266684
0.93642783
0.96955769
1.0182921
1.0597596
1.0780472
1.0570557
1.0164188
0.97527882
0.94568192
0.9365774
0.95650614
0.98426029
0.9977734
0.98694767
0.97185102
0.96318622
0.97567309
1.0016939
1.0387069
1.0682331
1.0523705
0.99260064
0.99743332
0.98645374
0.98647041
0.99501384
1.0120201
1.0305332
1.0333983
1.0078827
0.96208623
0.92315379
0.90836634
0.92452583
0.97385756
1.0430238
1.0873367
1.0703743
1.0153974
0.96136406
0.92758709
0.92748197
0.96391079
1.010783
1.0407507
1.040459
1.0233353
0.99469142
0.96812122
0.95044945
0.9488678
0.96554798
0.98918246
1.003143
0.99644275
0.98420671
0.97486832
0.98459619
1.0105146
1.0406832
1.0474908
1.0131019
0.95232652
0.91157868
0.90728335
0.93774045
1.0038339
1.0729678
0.98730376
0.99790593
0.99711712
0.98238292
0.96363291
0.95477889
0.96035784
0.98554816
1.0225346
1.0502353
1.0423836
1.006826
0.967901
0.94420077
0.9478059
0.98039104
1.0139131
1.0211622
0.99330197
0.96416048
0.95375126
0.96629896
0.99919909
0.96316485
0.97055106
0.98782447
1.0078138
1.0184056
1.0114966
0.99599708
0.9849718
0.98506393
0.99752516
1.0129723
1.0074802
0.97648152
0.94726013
0.93902653
0.96021088
1.0110498
1.0600306
1.0625701
1.0081791
0.94648701
0.91747726
0.92732643
0.99335339
0.98561327
0.9855526
0.99654403
1.0117845
1.0198352
1.0141627
0.99090377
0.96494052
0.9547013
0.96572227
0.99236988
1.014586
1.0147386
0.99309763
0.96864433
0.96338537
0.98252345
1.014813
1.0322274
1.0163828
0.97978234
0.95432304
1.0169871
1.0081293
0.99386066
0.98068035
0.97727004
0.98371101
0.99381606
0.99822496
0.9902026
0.97407497
0.96478535
0.97249843
0.99642052
1.0228131
1.031665
1.0150207
0.98320805
0.95951864
0.95799806
0.97354343
0.9934263
1.0034506
1.0047564
0.99431307
0.99944084
0.99642917
0.98559985
0.97297476
0.96798151
0.97486712
0.99161908
1.0076819
1.0128193
1.0045397
0.9898546
0.98184732
0.98632789
0.99855693
1.0073991
1.0026722
0.98632907
0.97037773
0.9662224
0.9734571
0.98601587
0.99775384
0.97314074
0.980656
0.99172051
1.0000432
1.0018006
0.99551553
0.98812644
0.98771495
0.99636925
1.008052
1.0132132
1.006321
0.9900473
0.97458838
0.96941859
0.97486821
0.98652136
0.99597983
0.99995566
1.0001326
0.99846714
0.99479117
0.9902833
0.98965469
0.98659437
0.99054614
1.0011263
1.0095203
1.0116913
1.0048835
0.99220789
0.98229543
0.98027949
0.98535915
0.99262746
0.99495467
0.99118668
0.9852595
0.98239636
0.98452742
0.99082297
0.99787903
1.0029399
1.0044052
1.0012271
0.99315348
1.0085108
1.002583
0.99450732
0.9880954
0.98822724
0.99157348
0.99481671
0.99369655
0.98769601
0.98163787
0.97982394
0.98346681
0.99121839
0.99880773
1.0031514
1.0039254
1.0015423
0.99696379
0.99164158
0.98723001
0.98506873
0.98494945
0.98525513
0.99681492
0.99790089
0.99387135
0.98662709
0.98055263
0.98005077
0.98483775
0.99263399
0.99918899
1.0017252
1.0005464
0.99762662
0.9949732
0.99394209
0.99432301
0.9952039
0.99581013
0.99473475
0.99128148
0.9865727
0.98318192
0.98322945
0.98632284
0.98354925
0.98772684
0.99316387
0.99676906
0.99755454
0.99650173
0.99521324
0.99585847
0.99798258
0.99997715
1.0005771
0.99904159
0.99562704
0.99109999
0.986878
0.98433993
0.98431212
0.98670327
0.99003956
0.99272985
0.99412976
0.99507098
0.99649559
0.99322296
0.99236908
0.99481437
0.99899446
1.0021473
1.0024586
1.0003376
0.99601989
0.99120884
0.98740305
0.9856554
0.98629142
0.98875221
0.99173871
0.99391707
0.99471499
0.9944803
0.99431109
0.99505367
0.99631113
0.99696183
0.99634792
0.99480005
1.0013954
0.99915412
0.99581549
0.99268015
0.9906882
0.98988332
0.99016154
0.99087443
0.99161178
0.99205825
0.99224372
0.99268831
0.99390252
0.99610935
0.99847928
0.99961274
0.99888804
0.99673575
0.99422104
0.99223246
0.99084933
0.98968796
0.98859889
0.99352769
0.99427974
0.9942481
0.99337158
0.99208224
0.99118221
0.99125032
0.99283654
0.99570618
0.99870527
1.000584
1.0004165
0.99838097
0.99552952
0.9928851
0.99104928
0.98988319
0.98917527
0.98908288
0.98978229
0.99107158
0.99237216
0.9932431
0.99192223
0.99205572
0.99365817
0.99596395
0.99810317
0.99934597
0.99902937
0.99769258
0.99587389
0.99440258
0.99336957
0.99249523
0.99161627
0.99068388
0.99033541
0.990937
0.99233767
0.99394893
0.99532645
0.9963845
0.99714161
0.99736129
0.99684579
0.99886116
0.99751
0.99581683
0.99451575
0.99413844
0.99430394
0.9944936
0.99423173
0.99344585
0.99267695
0.99236508
0.99280344
0.99371104
0.99493601
0.99615016
0.99725219
0.99797247
0.9979666
0.99693852
0.99507717
0.99305475
0.99153584
0.99075798
0.99477048
0.99539873
0.99512825
0.99449474
0.99395377
0.99375054
0.99427251
0.99493547
0.99568089
0.99630722
0.99678147
0.99709263
0.99705418
0.99661437
0.99571555
0.99457157
0.99344363
0.99259882
0.99207605
0.99181912
0.99185553
0.99234089
0.99325808
0.99449426
0.99481985
0.99567053
0.996513
0.99691807
0.99710772
0.99694563
0.99648569
0.99579509
0.99493591
0.99437983
0.99411006
0.99415785
0.99423413
0.99425179
0.99419422
0.99418352
0.9943359
0.99481011
0.99555231
0.99626709
0.99665832
0.99658415
0.99707614
0.99666292
0.99632947
0.99589424
0.99545541
0.99504942
0.99473852
0.99475315
0.99496103
0.99529665
0.99558688
0.9957703
0.99590064
0.99593761
0.9959616
0.99594565
0.995933
0.99583444
0.99559617
0.99532154
0.99496106
0.99445493
0.99381109
0.99585612
0.99598337
0.99598676
0.99612659
0.9962439
0.99629117
0.99615424
0.99602407
0.99602772
0.99625693
0.99640665
0.99633147
0.99598551
0.99557322
0.99523363
0.9950801
0.99514147
0.99532058
0.9954555
0.99543014
0.99524515
0.9949712
0.99470299
0.99672918
0.99676719
0.99656944
0.996457
0.99643952
0.99649875
0.99656878
0.99643129
0.99623111
0.99602697
0.99589866
0.99580994
0.99583714
0.99593195
0.99611657
0.99625856
0.99633638
0.99630505
0.9960808
0.99570575
0.99543132
0.99540516
0.99550118
0.99736737
0.99719352
0.99709905
0.99686686
0.99673112
0.99669101
0.99666291
0.99661793
0.99658574
0.99662202
0.99667288
0.99667138
0.9965598
0.99643269
0.99636304
0.99631332
0.9962465
0.99618921
0.99605822
0.99577884
0.99551655
0.99552822
0.99576994
0.9972184
0.99720268
0.99713483
0.9971569
0.99728197
0.99743753
0.99742022
0.99708398
0.99668456
0.99647234
0.99657393
0.99676276
0.99687244
0.99681046
0.99666316
0.99648206
0.99626139
0.99609431
0.99605898
0.99611102
0.99608732
0.99597116
0.99590068
0.99805035
0.99773412
0.99741351
0.99719436
0.9971066
0.99725214
0.99745917
0.99749263
0.99729759
0.99705443
0.99700289
0.9971029
0.99714559
0.99697446
0.99668706
0.99650343
0.99653655
0.99665343
0.99668128
0.99656791
0.99630719
0.99597089
0.99576262
0.99808157
0.99764441
0.99747955
0.99768163
0.99801378
0.99809049
0.99786737
0.99760826
0.99741468
0.99728663
0.99721754
0.99726229
0.99736138
0.99736198
0.99718048
0.99698748
0.99695766
0.99697556
0.99684923
0.99658941
0.99638737
0.99630795
0.99626668
0.99861355
0.99799233
0.99774842
0.99789864
0.99819711
0.99824894
0.99792582
0.99754801
0.99747574
0.99761054
0.99770532
0.99761964
0.99751205
0.99748693
0.99749695
0.99744864
0.99729577
0.99705721
0.99683764
0.99671471
0.99668078
0.9966547
0.99660025
0.99843637
0.99819536
0.99831854
0.99840734
0.99835328
0.99815595
0.99791868
0.99784812
0.99790747
0.99799023
0.99794173
0.99777504
0.99766542
0.99765348
0.99765836
0.99757414
0.99740301
0.99723172
0.99716221
0.99717394
0.99713237
0.99686381
0.99657659
0.99866884
0.99854774
0.99877558
0.99888823
0.99875772
0.99845448
0.99821147
0.99817679
0.99822371
0.99825773
0.99815845
0.99796264
0.99788537
0.99793192
0.9979794
0.99788176
0.99765278
0.99743678
0.99742773
0.9975155
0.99761354
0.99738062
0.99694442
0.99930716
0.99896008
0.99912517
0.99926377
0.99917191
0.99885579
0.99856334
0.9984673
0.99854755
0.99864221
0.99860835
0.99843224
0.99826662
0.99816195
0.99819201
0.99822142
0.99811268
0.99795674
0.99781035
0.99769369
0.99762219
0.99739922
0.99730249
0.9992475
0.99935257
0.99988545
0.99987681
0.99942059
0.9988792
0.99874328
0.99898032
0.99921612
0.9992104
0.99903096
0.99883238
0.99858378
0.99827872
0.99817526
0.99839003
0.99872232
0.99863479
0.99809247
0.99761771
0.99765737
0.99795691
0.99816027
0.99936311
0.99972105
1.0001613
1.000099
0.99969812
0.99932474
0.99925625
0.99937328
0.99944167
0.99928428
0.99897336
0.99882691
0.9989418
0.99903937
0.99894844
0.99878623
0.99875049
0.99878527
0.99853012
0.99812676
0.99782013
0.99782775
0.99782712
0.99944747
0.99996247
1.0006163
1.0004025
0.99975644
0.9993413
0.99939361
0.99962014
0.99966827
0.99947778
0.99934456
0.99946179
0.99962494
0.99956306
0.99917164
0.99862207
0.99836409
0.9985869
0.99892043
0.99885518
0.99841294
0.9981141
0.99815907
0.99926904
1.0002128
1.0011831
1.0008915
0.9997573
0.99898895
0.99933387
1.0002152
1.0004721
0.99992988
0.99926077
0.99914832
0.99956252
0.99984308
0.99962674
0.99925556
0.99901474
0.99887996
0.99880629
0.99883987
0.99876062
0.9986406
0.99841516
0.99955181
1.0001574
1.0011083
1.0011527
1.0002957
0.9992698
0.99904758
0.99985274
1.000767
1.0008307
1.000053
0.99931465
0.99919173
0.99953543
0.99966975
0.99946105
0.999413
0.99955498
0.99951947
0.99891446
0.99822515
0.99809066
0.99857081
0.99910487
0.99995117
1.001508
1.0020095
1.0012164
0.99980145
0.99889558
0.99904572
0.99989113
1.0006563
1.0007403
1.0003527
0.9999067
0.99960777
0.99949133
0.99933768
0.99927866
0.99938049
0.99957802
0.99952887
0.99902704
0.9985297
0.99830975
1.0000526
1.0000685
1.0008923
1.0013379
1.0010959
1.0002656
0.99944776
0.99923922
0.99964311
1.0002394
1.000587
1.0006051
1.0004319
1.0000169
0.99950778
0.99916373
0.99926985
0.99973719
0.99991706
0.99953501
0.99882846
0.99839218
0.99840863
1.0005659
1.0002955
1.0003521
1.0004551
1.0003778
0.99995619
0.99951638
0.99956824
1.0001417
1.0007253
1.000793
1.0003676
0.99986227
0.99961594
0.99954935
0.99942084
0.99932883
0.99951122
0.99970995
0.99963531
0.9992188
0.99870774
0.99845743
1.0004872
1.0000008
0.99975278
0.99982193
1.0001111
1.0002403
1.0000762
0.99984951
0.9998813
1.00015
1.0002272
0.99998515
0.99965105
0.99946939
0.99934494
0.99929447
0.99951746
0.99991748
1.0000549
0.99950007
0.99859051
0.9981109
0.99822537
1.0006612
0.99979397
0.99913636
0.99904958
0.99957563
1.0001778
1.0002378
0.99977266
0.99932838
0.99934922
0.99968301
0.99984927
0.99967932
0.99947189
0.99931489
0.99915323
0.99906881
0.99923724
0.99959381
0.99944618
0.99871665
0.99817042
0.99826613
1.0005959
0.9994932
0.99835256
0.9980015
0.99869962
0.99981693
1.0004746
1.0001502
0.99917015
0.99833877
0.99829813
0.99896655
0.99959602
0.99971857
0.99939418
0.99901151
0.99869256
0.99858941
0.99883243
0.99901995
0.99880312
0.99838129
0.99833102
0.99940926
0.99898868
0.99834462
0.9979226
0.99806
0.99867538
0.99929014
0.99950479
0.99921292
0.99859041
0.99806989
0.99801814
0.9984795
0.99907389
0.99933211
0.99907286
0.99845004
0.99793923
0.99792195
0.9984056
0.99892079
0.9988688
0.99836903
0.99818785
0.99845021
0.9985174
0.9982132
0.99784727
0.99784444
0.99828823
0.99877388
0.99883444
0.99843147
0.99785697
0.99753077
0.99769457
0.99817614
0.99863286
0.99875397
0.99845863
0.99790724
0.99741494
0.99735895
0.99785766
0.99854665
0.99883782
0.9977376
0.99795638
0.99818935
0.9983108
0.99820237
0.99791699
0.99776986
0.99791041
0.99809481
0.99806392
0.99778217
0.99750203
0.99748466
0.9977341
0.99796577
0.99793651
0.99770083
0.99743291
0.9972767
0.997301
0.99748754
0.9977761
0.99798682
0.99803696
0.99798813
0.99793916
0.99801534
0.99811997
0.99813333
0.99801106
0.99781047
0.99766204
0.99757836
0.99755576
0.99748842
0.99746247
0.99753115
0.99764021
0.99755612
0.99724822
0.99691588
0.99682576
0.99705694
0.99742543
0.99759117
0.99741629
0.99818333
0.99843506
0.99864464
0.99875272
0.99863551
0.99833655
0.99795433
0.99764289
0.99757507
0.99775862
0.99803812
0.99810357
0.99781782
0.99734036
0.99696058
0.99686465
0.99701907
0.99723822
0.99727304
0.9971755
0.99705642
0.99691756
0.99668114
0.999508
0.99934837
0.9992131
0.9990974
0.99898569
0.99888915
0.99880072
0.99866488
0.9985264
0.99843465
0.99841406
0.99837872
0.9981681
0.99779939
0.9974472
0.99727435
0.99731254
0.99744882
0.99748973
0.99734491
0.99708236
0.99687345
0.99646043
0.99996328
0.99991311
0.99961409
0.9994401
0.99942121
0.99948443
0.99963605
0.9996946
0.99956157
0.99920056
0.99883131
0.99863113
0.99855053
0.99848873
0.99849125
0.9983968
0.99818711
0.99795494
0.99775458
0.99762237
0.99750267
0.99734624
0.99711014
0.9997363
1.0000375
1.0000711
1.0000248
1.0000268
0.99991766
0.9997772
0.99969795
0.9996941
0.99965174
0.99946133
0.99933227
0.99928172
0.99912733
0.99904244
0.99896936
0.99877307
0.99852048
0.99827713
0.99811147
0.99810724
0.99805864
0.99802969
0.99992618
1.0003963
1.0003904
1.0000276
1.000098
1.000318
1.0002318
1.00002
0.99997874
1.0001066
0.99996805
0.99987051
0.99988427
0.99971986
0.99951107
0.99943261
0.99916598
0.99907774
0.99902563
0.99899096
0.99883366
0.99864681
0.99866701
0.99982984
1.0004722
1.0004813
0.99980785
0.99967709
1.0002197
1.0004367
1.0000527
0.99975786
1.0000553
1.0001056
0.99988716
0.99992713
0.99977628
0.99971286
0.99972229
0.99963357
0.99957214
0.99944329
0.9993003
0.99918253
0.99913439
0.99903975
0.99991722
1.0003173
1.0004783
1.0000781
0.99980512
1.000091
1.0003672
1.0001691
0.99991025
1.0000801
1.0001996
0.99999241
0.99993647
0.99992348
1.0000189
0.99990961
0.99978734
0.99980001
0.9997545
0.99963727
0.99945905
0.99952905
0.99953342
0.99999627
0.99993163
0.99987782
0.9998632
0.99991936
1.0000525
1.000107
0.999981
0.99981345
0.99984785
1.0000413
1.0000787
0.99993592
0.99985141
0.99988052
0.9998956
0.99985458
0.99978176
0.99973738
0.99972893
0.99966512
0.99977029
0.99966847
0.99966564
0.99976775
0.99982243
0.9998727
0.99982312
0.99976187
0.9997761
0.9998134
0.99983231
0.9998275
0.999827
0.99982498
0.9998168
0.99984404
0.99981148
0.99971738
0.99964179
0.99966775
0.99976841
0.9997873
0.99961876
0.99952837
0.99952404
0.99960444
0.99963144
0.99966252
0.99971804
0.99969932
0.99966556
0.99964939
0.99963378
0.99971463
0.99976123
0.99974539
0.99973281
0.99961467
0.99959786
0.99968545
0.99967877
0.99968568
0.99955316
0.99952634
0.99951409
0.99956716
0.99954337
0.99946793
0.99960393
0.99951495
0.9995251
0.99954799
0.99960396
0.99962678
0.99959648
0.99964698
0.99965787
0.99965691
0.99962576
0.99956033
0.99958564
0.99959412
0.99965143
0.99967717
0.9995951
0.99952509
0.99941815
0.99943461
0.99957435
0.999638
0.99950317
0.99944445
0.99943338
0.99946869
0.9995462
0.99945757
0.99944109
0.99938109
0.99953871
0.99967452
0.99959252
0.99938741
0.99926688
0.99943348
0.99962612
0.99969648
0.99943557
0.99918298
0.99922837
0.99944367
0.99967479
0.99939978
0.99911181
0.99897625
0.99960306
0.99931522
0.99908959
0.99919029
0.99956836
0.99969261
0.99956038
0.99944011
0.99915091
0.99923392
0.9996862
0.99976539
0.99968732
0.99933791
0.99903923
0.9994042
0.9996806
0.99971427
0.99936958
0.99895032
0.99921365
0.99950706
0.99959086
0.99886617
0.99924463
0.99944266
0.9993557
0.99898314
0.99893339
0.99922578
0.99944528
0.99931132
0.99958177