/*--------------------------------*- C++ -*----------------------------------*\
| =========                 |                                                 |
| \\      /  F ield         | OpenFOAM: The Open Source CFD Toolbox           |
|  \\    /   O peration     | Version:  2406                                  |
|   \\  /    A nd           | Website:  www.openfoam.com                      |
|    \\/     M anipulation  |                                                 |
\*---------------------------------------------------------------------------*/
FoamFile
{
    version     2.0;
    format      ascii;
    arch        "LSB;label=32;scalar=64";
    class       volScalarField;
    location    "105";
    object      k;
}
// * * * * * * * * * * * * * * * * * * * * * * * * * * * * * * * * * * * * * //

dimensions      [0 2 -2 0 0 0 0];

internalField   nonuniform List<scalar> 
20580
(
3.1420278e-06
2.3930893e-06
1.9169005e-06
1.5859551e-06
1.3555116e-06
1.1918537e-06
1.0673579e-06
9.6596822e-07
8.8325822e-07
8.1450548e-07
7.6223708e-07
7.1667762e-07
6.840036e-07
6.5445623e-07
6.3138914e-07
6.0900073e-07
5.9371595e-07
5.7951013e-07
5.6756319e-07
5.6024015e-07
5.4432739e-07
5.3300304e-07
5.1416685e-07
5.1567859e-07
5.2033356e-07
5.2923754e-07
5.3787315e-07
5.4385204e-07
5.6188849e-07
5.9953164e-07
6.6500772e-07
3.1458247e-06
2.4016149e-06
1.9334372e-06
1.6135988e-06
1.3846667e-06
1.2086811e-06
1.0793258e-06
9.7666419e-07
8.9230508e-07
8.2312644e-07
7.6853016e-07
7.2223489e-07
6.8789206e-07
6.5871056e-07
6.3529747e-07
6.1440227e-07
6.0014296e-07
5.8856805e-07
5.8316457e-07
5.7996915e-07
5.7276061e-07
5.6593256e-07
5.4840747e-07
5.349443e-07
5.3666141e-07
5.45503e-07
5.6706852e-07
5.8628983e-07
5.9165257e-07
6.1386598e-07
6.6039939e-07
3.1445032e-06
2.3960775e-06
1.9302311e-06
1.6157218e-06
1.397214e-06
1.2319479e-06
1.0999092e-06
9.9286586e-07
9.0345497e-07
8.3120191e-07
7.7377622e-07
7.2596417e-07
6.8965324e-07
6.5878137e-07
6.3493815e-07
6.1425417e-07
6.0032222e-07
5.8879481e-07
5.8595723e-07
5.851759e-07
5.8348298e-07
5.828514e-07
5.7842255e-07
5.6513081e-07
5.6312334e-07
5.6741434e-07
5.8173374e-07
5.9863748e-07
6.101928e-07
6.4152863e-07
6.7949732e-07
3.1456983e-06
2.382685e-06
1.9124511e-06
1.6073017e-06
1.3938309e-06
1.2401105e-06
1.1216435e-06
1.0147203e-06
9.1916094e-07
8.4184216e-07
7.8084419e-07
7.3047705e-07
6.9222861e-07
6.5854183e-07
6.3309473e-07
6.1043429e-07
5.9576321e-07
5.8466035e-07
5.8315597e-07
5.8335218e-07
5.8326455e-07
5.8665817e-07
5.8762662e-07
5.8658593e-07
5.8825006e-07
5.9393429e-07
6.1081915e-07
6.2164836e-07
6.252748e-07
6.4091133e-07
6.7668353e-07
3.1482874e-06
2.3835035e-06
1.9138755e-06
1.5933526e-06
1.3854338e-06
1.2375136e-06
1.1299034e-06
1.0309198e-06
9.4347935e-07
8.6111859e-07
7.9481044e-07
7.3968752e-07
6.9815621e-07
6.6075921e-07
6.332976e-07
6.0946976e-07
5.8958878e-07
5.7534693e-07
5.7012714e-07
5.7103766e-07
5.7391599e-07
5.8266195e-07
5.871694e-07
5.9098564e-07
5.9930554e-07
6.128293e-07
6.3380787e-07
6.7057002e-07
6.8053136e-07
6.7627172e-07
6.8591616e-07
3.156639e-06
2.3966719e-06
1.9191356e-06
1.5946587e-06
1.3830962e-06
1.235199e-06
1.1267583e-06
1.0363259e-06
9.5720064e-07
8.8585671e-07
8.2543011e-07
7.6253419e-07
7.1491227e-07
6.7252426e-07
6.3951011e-07
6.1239462e-07
5.8985113e-07
5.7350012e-07
5.6392418e-07
5.5537907e-07
5.552288e-07
5.6362289e-07
5.7370357e-07
5.8158244e-07
5.9544353e-07
6.1314509e-07
6.3164494e-07
6.8152155e-07
7.1376503e-07
7.6520863e-07
7.5997773e-07
3.1930134e-06
2.4422479e-06
1.9294321e-06
1.5996913e-06
1.3832991e-06
1.2338401e-06
1.1239835e-06
1.0342913e-06
9.6281961e-07
9.011039e-07
8.5414245e-07
8.0887589e-07
7.6277341e-07
7.165927e-07
6.7059186e-07
6.3259329e-07
6.0126502e-07
5.7998241e-07
5.6565238e-07
5.5429233e-07
5.4793252e-07
5.5044536e-07
5.5130224e-07
5.5411797e-07
5.6770326e-07
5.902181e-07
6.1098351e-07
6.6247952e-07
7.0549651e-07
7.6651658e-07
8.105797e-07
3.3098509e-06
2.6390828e-06
1.9868313e-06
1.6160716e-06
1.3873098e-06
1.2311185e-06
1.1178064e-06
1.0292654e-06
9.5933938e-07
9.0523839e-07
8.6715234e-07
8.4138078e-07
8.1247437e-07
7.8538578e-07
7.5053e-07
7.0736037e-07
6.6033831e-07
6.1772709e-07
5.8712028e-07
5.654097e-07
5.5318603e-07
5.5016635e-07
5.4676745e-07
5.4359544e-07
5.4856687e-07
5.5770107e-07
5.6608111e-07
5.9067249e-07
6.470269e-07
7.1101522e-07
8.0168417e-07
3.408414e-06
3.0136289e-06
2.1806787e-06
1.6984371e-06
1.4236748e-06
1.2446287e-06
1.1203099e-06
1.0217063e-06
9.4397349e-07
8.9663691e-07
8.6323309e-07
8.4430713e-07
8.2321945e-07
8.0830227e-07
7.8933936e-07
7.6804554e-07
7.4094933e-07
7.1205594e-07
6.7104703e-07
6.3014898e-07
5.9369753e-07
5.7148459e-07
5.5947333e-07
5.5239098e-07
5.5197065e-07
5.5754816e-07
5.6353873e-07
5.728546e-07
6.0492178e-07
6.4358059e-07
7.2110363e-07
3.1712259e-06
2.9171523e-06
2.4610263e-06
1.9942731e-06
1.6019715e-06
1.3442346e-06
1.1697935e-06
1.0438109e-06
9.5143257e-07
8.9045581e-07
8.4288541e-07
8.1636869e-07
7.9585687e-07
7.8721826e-07
7.7650743e-07
7.6547737e-07
7.5026343e-07
7.4118895e-07
7.2407263e-07
7.0430549e-07
6.8898531e-07
6.5716601e-07
6.2816062e-07
6.0568813e-07
5.8746905e-07
5.8016677e-07
5.8391908e-07
5.9073667e-07
6.1989481e-07
6.4928852e-07
7.1722221e-07
2.9434397e-06
2.6264143e-06
2.419259e-06
2.1931943e-06
2.022026e-06
1.7857544e-06
1.4576049e-06
1.2173643e-06
1.0517383e-06
9.4467486e-07
8.6558109e-07
8.182674e-07
7.769897e-07
7.4569583e-07
7.2288579e-07
7.1128983e-07
7.051985e-07
7.071811e-07
7.0642585e-07
7.0428362e-07
7.0448094e-07
6.9556418e-07
6.8815497e-07
6.8372586e-07
6.757399e-07
6.5821051e-07
6.5625104e-07
6.6070612e-07
6.7814212e-07
7.1146173e-07
7.3326755e-07
3.2642612e-06
2.618069e-06
2.2365413e-06
2.0782596e-06
2.0045428e-06
1.966987e-06
1.9177833e-06
1.7807078e-06
1.5530729e-06
1.3164979e-06
1.0973986e-06
9.5849875e-07
8.642087e-07
7.9920663e-07
7.5042651e-07
7.1754089e-07
6.9426731e-07
6.8063742e-07
6.6817366e-07
6.7136563e-07
6.7771851e-07
6.767519e-07
6.7987398e-07
6.9079709e-07
6.9508654e-07
6.8992252e-07
6.9377084e-07
7.0749214e-07
7.25848e-07
7.6262508e-07
7.8792372e-07
3.4080144e-06
2.9182756e-06
2.3106463e-06
1.931771e-06
1.7686318e-06
1.7279914e-06
1.7460685e-06
1.7405768e-06
1.7066073e-06
1.6710192e-06
1.6110755e-06
1.5064031e-06
1.3727285e-06
1.22908e-06
1.0938099e-06
9.5164819e-07
8.5289e-07
7.8689039e-07
7.3910322e-07
7.1244055e-07
6.9861149e-07
6.8391298e-07
6.8020957e-07
6.9177961e-07
6.9719749e-07
6.9208508e-07
6.9279163e-07
7.0763596e-07
7.2602039e-07
7.5289995e-07
7.7425923e-07
3.214303e-06
2.7699726e-06
2.3178404e-06
1.9831417e-06
1.7342279e-06
1.6062371e-06
1.4665042e-06
1.430749e-06
1.4347086e-06
1.4567273e-06
1.5092134e-06
1.5136408e-06
1.5126437e-06
1.5022026e-06
1.460538e-06
1.4279724e-06
1.3624053e-06
1.2878519e-06
1.2039823e-06
1.1177413e-06
1.0399009e-06
9.5557534e-07
8.7154851e-07
8.2857898e-07
7.9675175e-07
7.6600437e-07
7.4099346e-07
7.4288318e-07
7.5677494e-07
7.7681778e-07
7.8546407e-07
3.2074797e-06
2.5996883e-06
2.2099196e-06
1.9438998e-06
1.7259047e-06
1.5971756e-06
1.4734995e-06
1.3657309e-06
1.303775e-06
1.2271925e-06
1.2006869e-06
1.2087382e-06
1.2337857e-06
1.2625699e-06
1.2993257e-06
1.3328359e-06
1.3456067e-06
1.3534028e-06
1.3685016e-06
1.3844588e-06
1.4019086e-06
1.4041942e-06
1.3885498e-06
1.3699415e-06
1.3333033e-06
1.2763965e-06
1.1792995e-06
1.1199882e-06
1.0484348e-06
1.0268624e-06
9.5890711e-07
3.1013957e-06
2.4864805e-06
2.0492751e-06
1.7679595e-06
1.5928969e-06
1.4921362e-06
1.4149334e-06
1.3114499e-06
1.2228301e-06
1.1399255e-06
1.0700766e-06
1.0267078e-06
9.9152221e-07
9.6530444e-07
9.6413284e-07
9.7533918e-07
1.0069486e-06
1.0562099e-06
1.1218574e-06
1.1877297e-06
1.2553835e-06
1.3169306e-06
1.3686412e-06
1.4101418e-06
1.459662e-06
1.5120622e-06
1.5314044e-06
1.5469109e-06
1.5567408e-06
1.5846084e-06
1.5543808e-06
3.2201679e-06
2.5840316e-06
2.0821813e-06
1.7490018e-06
1.5294033e-06
1.396948e-06
1.2953989e-06
1.2053732e-06
1.125958e-06
1.0589468e-06
1.0021294e-06
9.585543e-07
9.1645401e-07
8.7926597e-07
8.5606251e-07
8.3293791e-07
8.2673467e-07
8.2800981e-07
8.4123123e-07
8.6516393e-07
8.929374e-07
9.4641432e-07
1.0153156e-06
1.089786e-06
1.1713298e-06
1.2682897e-06
1.3647494e-06
1.424657e-06
1.4705823e-06
1.5218209e-06
1.5799809e-06
3.1530441e-06
2.464134e-06
2.0357085e-06
1.7332231e-06
1.5166108e-06
1.3726208e-06
1.259814e-06
1.1680341e-06
1.0882056e-06
1.0233265e-06
9.7161346e-07
9.3055593e-07
8.9127401e-07
8.554156e-07
8.2834103e-07
8.0317526e-07
7.8391772e-07
7.7288774e-07
7.7575849e-07
7.7986614e-07
7.8504416e-07
8.0305613e-07
8.2951674e-07
8.5084398e-07
8.7949666e-07
9.1754232e-07
9.7621332e-07
1.0169073e-06
1.078828e-06
1.1172454e-06
1.2394682e-06
3.1850028e-06
2.5407182e-06
2.0406346e-06
1.7179303e-06
1.4958768e-06
1.344269e-06
1.2332765e-06
1.1423641e-06
1.0681968e-06
1.0063169e-06
9.545134e-07
9.094603e-07
8.6879148e-07
8.2987663e-07
7.9803172e-07
7.6869834e-07
7.4590983e-07
7.3103223e-07
7.3099984e-07
7.3358129e-07
7.3635365e-07
7.4957033e-07
7.7329897e-07
7.9079464e-07
8.0858805e-07
8.3021395e-07
8.7143126e-07
9.0064841e-07
9.3563718e-07
9.5152316e-07
9.9928909e-07
3.1118429e-06
2.5173598e-06
2.0650099e-06
1.761092e-06
1.5558254e-06
1.404764e-06
1.2865252e-06
1.1898665e-06
1.1149123e-06
1.0487194e-06
9.9718811e-07
9.4719512e-07
9.0466496e-07
8.6642181e-07
8.3080335e-07
7.9762334e-07
7.7352728e-07
7.5593257e-07
7.5270435e-07
7.5500092e-07
7.6010046e-07
7.7608043e-07
8.0158151e-07
8.2791278e-07
8.4570286e-07
8.7470459e-07
9.1071655e-07
9.4923525e-07
9.7807727e-07
9.9983475e-07
1.0215093e-06
3.1882189e-06
2.8665398e-06
2.4565771e-06
2.32524e-06
2.1556678e-06
1.9973775e-06
1.8508157e-06
1.7375322e-06
1.6535842e-06
1.5822979e-06
1.5368522e-06
1.4795647e-06
1.4497235e-06
1.4181805e-06
1.3796945e-06
1.3452439e-06
1.3250227e-06
1.3112518e-06
1.3110146e-06
1.3291804e-06
1.3314428e-06
1.3503662e-06
1.3873633e-06
1.4104071e-06
1.4131086e-06
1.4305109e-06
1.4629267e-06
1.4995699e-06
1.5113807e-06
1.4992327e-06
1.4338659e-06
4.4157144e-06
1.059005e-05
7.8516758e-06
8.448092e-06
7.7138553e-06
7.2981281e-06
6.4791285e-06
6.3500213e-06
5.8745245e-06
5.927262e-06
5.7964724e-06
5.512983e-06
5.9399698e-06
5.7539257e-06
5.7144195e-06
5.6070056e-06
5.6836143e-06
5.7231031e-06
5.8081246e-06
5.8275342e-06
5.7626076e-06
5.707822e-06
5.7027049e-06
5.6390907e-06
5.5101859e-06
5.3839537e-06
5.2796096e-06
5.2205935e-06
5.0779463e-06
4.9354674e-06
4.6202256e-06
1.910964e-05
8.1978961e-05
4.9197924e-05
3.8637445e-05
4.7607587e-05
3.6009276e-05
4.0525902e-05
3.1646829e-05
3.394447e-05
2.803965e-05
2.862372e-05
2.6956789e-05
2.3960993e-05
2.4983352e-05
2.2973205e-05
2.2803807e-05
2.1282313e-05
2.0885931e-05
1.9835684e-05
1.9551495e-05
1.8862822e-05
1.8608025e-05
1.7797993e-05
1.7249645e-05
1.6585572e-05
1.6143864e-05
1.537052e-05
1.4598293e-05
1.3713375e-05
1.3153966e-05
1.2342174e-05
1.1531237e-05
4.786401e-06
1.5579959e-06
1.0652755e-06
1.0403349e-06
1.2231476e-06
1.6146432e-06
1.6159858e-06
1.0871563e-06
8.5112916e-07
8.2302404e-07
8.5096827e-07
8.1157597e-07
7.6835905e-07
7.6335677e-07
8.3790893e-07
8.7258338e-07
8.4742044e-07
7.7411177e-07
7.5949543e-07
7.5393472e-07
7.3023998e-07
7.0575496e-07
1.0299287e-05
5.1209232e-06
1.7846824e-06
1.1678778e-06
1.0862462e-06
1.2021121e-06
1.6100403e-06
1.7915509e-06
1.3564439e-06
9.7140837e-07
8.9574864e-07
9.4652721e-07
9.3287513e-07
8.7184166e-07
8.1865517e-07
8.618912e-07
9.5731178e-07
9.6500506e-07
9.2160995e-07
8.379212e-07
8.2553238e-07
7.9562773e-07
7.5996124e-07
9.4598567e-06
5.3789459e-06
1.9605122e-06
1.246786e-06
1.1470709e-06
1.2115367e-06
1.5821733e-06
1.9034587e-06
1.6933271e-06
1.1839283e-06
9.9527471e-07
1.0434199e-06
1.0380544e-06
9.9200853e-07
9.2808229e-07
9.341982e-07
1.0531307e-06
1.07735e-06
1.051745e-06
9.5401031e-07
9.4237815e-07
9.2099515e-07
8.7580407e-07
8.8166522e-06
5.5892858e-06
2.2391066e-06
1.4203417e-06
1.2929673e-06
1.2865578e-06
1.6281269e-06
2.0524487e-06
1.9324469e-06
1.4034488e-06
1.1010338e-06
1.1242181e-06
1.1710235e-06
1.1487201e-06
1.0869627e-06
1.0669682e-06
1.1564923e-06
1.2318042e-06
1.2111233e-06
1.1166147e-06
1.0418863e-06
1.0363244e-06
9.9859745e-07
8.2157489e-06
5.752043e-06
2.497383e-06
1.5905902e-06
1.4590169e-06
1.4459269e-06
1.7451569e-06
2.360898e-06
2.2883091e-06
1.8127995e-06
1.2882439e-06
1.2288035e-06
1.2877202e-06
1.2820759e-06
1.2379021e-06
1.2090201e-06
1.2414793e-06
1.3586514e-06
1.3545909e-06
1.3169572e-06
1.2185637e-06
1.2159651e-06
1.1817537e-06
8.2852614e-06
5.9153028e-06
2.8680366e-06
1.8709621e-06
1.6789744e-06
1.614837e-06
1.8463826e-06
2.6065606e-06
2.5564994e-06
2.1723218e-06
1.5888933e-06
1.4048954e-06
1.5176477e-06
1.5130819e-06
1.4458988e-06
1.3496417e-06
1.3230847e-06
1.4576756e-06
1.4821418e-06
1.4920171e-06
1.4256445e-06
1.3803064e-06
1.3421681e-06
9.1153663e-06
6.1076562e-06
3.1512651e-06
2.1918822e-06
2.0087212e-06
1.8974231e-06
2.0130046e-06
2.9524131e-06
3.0025749e-06
2.7921343e-06
2.1676795e-06
1.7392101e-06
1.8317137e-06
1.8618988e-06
1.7411655e-06
1.6595174e-06
1.5248132e-06
1.5925502e-06
1.7000273e-06
1.7049879e-06
1.6862291e-06
1.5729294e-06
1.547445e-06
1.0347e-05
6.2927364e-06
3.3744985e-06
2.4552472e-06
2.2483268e-06
2.1295575e-06
2.1807457e-06
3.2478238e-06
3.513557e-06
3.3784558e-06
2.8065579e-06
2.1889529e-06
2.1392963e-06
2.2315817e-06
2.1047594e-06
2.0232252e-06
1.9003301e-06
1.8547997e-06
2.0053373e-06
2.0064846e-06
1.9815697e-06
1.8428549e-06
1.7020621e-06
1.1739475e-05
6.5840393e-06
3.9147663e-06
3.1003832e-06
2.8678452e-06
2.6804196e-06
2.6494044e-06
3.9027443e-06
4.2518501e-06
3.957656e-06
3.2270997e-06
2.5279724e-06
2.3338164e-06
2.4746193e-06
2.442412e-06
2.3056034e-06
2.3020288e-06
2.2706708e-06
2.4235411e-06
2.4831231e-06
2.3303066e-06
2.2302146e-06
2.0212678e-06
1.3503243e-05
7.1442184e-06
4.3829344e-06
3.669485e-06
3.5715889e-06
3.3455877e-06
3.1965118e-06
4.6033748e-06
5.0089806e-06
4.5970256e-06
3.7869072e-06
2.9359564e-06
2.590001e-06
2.7179223e-06
2.736304e-06
2.5990176e-06
2.6147789e-06
2.6422653e-06
2.712328e-06
2.9252627e-06
2.8427058e-06
2.6801356e-06
2.4788733e-06
1.6305335e-05
8.047951e-06
5.2426079e-06
4.8801295e-06
4.9219743e-06
4.5917269e-06
4.1017737e-06
5.6404019e-06
6.3607354e-06
5.925482e-06
5.066823e-06
3.845985e-06
3.185874e-06
3.2879715e-06
3.3247631e-06
3.1471914e-06
2.962316e-06
2.9116548e-06
2.9602072e-06
3.1965017e-06
3.2071936e-06
3.0538565e-06
2.9149869e-06
2.0103948e-05
9.1718407e-06
6.249611e-06
6.0332851e-06
6.0369504e-06
5.6491509e-06
4.9036669e-06
6.9248527e-06
8.7104369e-06
8.5840433e-06
7.60757e-06
5.9103188e-06
4.641053e-06
4.5271454e-06
4.6104793e-06
4.3743999e-06
3.6913811e-06
3.3761419e-06
3.2534413e-06
3.3990711e-06
3.518022e-06
3.492614e-06
3.3637987e-06
2.44703e-05
1.1099135e-05
8.3912336e-06
8.3516992e-06
8.4066799e-06
7.9885915e-06
6.6554869e-06
8.7409537e-06
1.0911982e-05
1.0961287e-05
9.856845e-06
8.2375381e-06
6.6898774e-06
6.2000729e-06
6.3965411e-06
6.0952285e-06
5.1329317e-06
4.3494182e-06
3.9679411e-06
3.988733e-06
4.1333796e-06
4.1374857e-06
3.8767896e-06
2.8600215e-05
1.2853218e-05
1.0204273e-05
1.0229019e-05
1.0606344e-05
1.041635e-05
8.9212176e-06
1.0593766e-05
1.3006977e-05
1.3211114e-05
1.1782069e-05
1.0030331e-05
8.3577736e-06
7.6153551e-06
7.9755216e-06
7.8135056e-06
6.9781165e-06
6.0141843e-06
5.4522436e-06
5.2623344e-06
5.4885598e-06
5.4820815e-06
4.9748537e-06
3.2587523e-05
1.6488979e-05
1.3901007e-05
1.4176984e-05
1.5825623e-05
1.6199952e-05
1.440261e-05
1.4744578e-05
1.7174932e-05
1.727793e-05
1.4834701e-05
1.1993326e-05
9.7380631e-06
8.7515642e-06
9.0861952e-06
9.0251374e-06
8.4406045e-06
7.6060585e-06
7.2320434e-06
6.969816e-06
7.4557298e-06
7.5022926e-06
7.0997618e-06
3.528032e-05
2.0620015e-05
1.7042622e-05
1.7070734e-05
1.9428851e-05
2.2654322e-05
2.2584409e-05
2.4280194e-05
2.8062601e-05
2.6869912e-05
2.0751885e-05
1.5418191e-05
1.1953405e-05
1.0531502e-05
1.0552326e-05
1.0480155e-05
9.8331734e-06
9.0172837e-06
8.9814756e-06
8.74493e-06
9.4166556e-06
9.7838073e-06
9.4134002e-06
3.8613487e-05
2.5139925e-05
2.1244434e-05
2.1269408e-05
2.4777847e-05
3.6456592e-05
4.2253832e-05
4.7622017e-05
5.5131392e-05
4.932755e-05
3.4008609e-05
2.3990242e-05
1.7253522e-05
1.4664966e-05
1.4183515e-05
1.373633e-05
1.2251797e-05
1.0664401e-05
1.0642149e-05
1.0383846e-05
1.1117858e-05
1.1713846e-05
1.1330069e-05
4.0773622e-05
3.0377424e-05
2.489034e-05
2.3773525e-05
2.745788e-05
4.4694407e-05
7.149662e-05
8.591773e-05
8.7893331e-05
7.2517902e-05
4.6591e-05
3.8681719e-05
3.2565827e-05
2.7465502e-05
2.6071949e-05
2.4048777e-05
1.8862784e-05
1.4033059e-05
1.2902057e-05
1.2379692e-05
1.3006942e-05
1.3418906e-05
1.2744639e-05
4.0038906e-05
3.3558151e-05
2.856922e-05
2.809972e-05
3.4072758e-05
6.4817097e-05
0.00012282956
0.00014503409
0.0001295791
8.3775983e-05
5.3036683e-05
4.9983539e-05
5.0555325e-05
4.7546653e-05
4.4644419e-05
4.2349163e-05
3.4560347e-05
2.1052139e-05
1.7239667e-05
1.6092526e-05
1.6348722e-05
1.604151e-05
1.4028936e-05
3.7425545e-05
3.7225759e-05
3.2589938e-05
3.190583e-05
3.9086266e-05
7.7881658e-05
0.00019072334
0.000258134
0.00020932219
0.0001019143
6.2688211e-05
5.9751359e-05
6.365416e-05
6.3177094e-05
6.0389028e-05
5.6475526e-05
4.0694957e-05
2.8847056e-05
2.6277503e-05
2.427484e-05
2.386829e-05
2.1490669e-05
1.5976785e-05
3.3809764e-05
3.815318e-05
3.685455e-05
3.715217e-05
4.8830898e-05
0.00010873064
0.00029277025
0.00040188172
0.00032505293
0.00014214431
8.2077541e-05
7.7959792e-05
8.6055299e-05
8.9507918e-05
8.4919848e-05
7.1668945e-05
4.4538602e-05
3.6758266e-05
4.0900696e-05
4.6783819e-05
4.7016097e-05
3.5608682e-05
1.9749766e-05
3.4515263e-05
4.128169e-05
4.1519974e-05
4.3145923e-05
6.1233679e-05
0.00014152434
0.00037439939
0.00054839817
0.00046447534
0.0002182017
0.00012218762
0.00011551181
0.00013771549
0.00015452665
0.00014226108
9.7803751e-05
5.3776781e-05
4.9121886e-05
6.1889792e-05
8.3273006e-05
8.2765501e-05
5.5894139e-05
2.6173218e-05
4.1484396e-05
4.874355e-05
5.0302412e-05
5.2985143e-05
7.7326641e-05
0.00018029354
0.00046856302
0.00066538781
0.00059438809
0.00032726677
0.00022424867
0.00023414454
0.00035247064
0.00045934919
0.00037929839
0.00016647503
7.9490759e-05
7.4256065e-05
8.5198242e-05
0.00010731691
0.00010172521
6.4608086e-05
3.5877533e-05
6.927676e-05
7.108611e-05
7.2761031e-05
7.2771723e-05
9.0608811e-05
0.00018070124
0.00044636346
0.00074909656
0.00073374339
0.00050118415
0.00035943378
0.00038399008
0.00058684241
0.00074270266
0.00058917602
0.0002467
0.00012800755
0.00011388207
0.00011595667
0.00013058151
0.00012138084
7.0650003e-05
5.6315047e-05
0.00021266342
0.00016722339
0.00015141341
0.00011660663
0.00011250186
0.00015902718
0.00036482576
0.00072572449
0.00077854484
0.00069010086
0.00055438057
0.0005854406
0.00081338276
0.00092741708
0.00068010897
0.00031009006
0.00020357295
0.0001871928
0.00018030648
0.00017418331
0.00012767803
9.1696222e-05
9.1429947e-05
0.00044195485
0.00038171436
0.00035754757
0.00030702519
0.00019746189
0.00017853418
0.00026405947
0.00062110589
0.00080870737
0.00083459031
0.00082419271
0.00092806309
0.0012389523
0.0012040248
0.00080140116
0.0004492243
0.00038499797
0.00039521033
0.00039874958
0.00028710869
0.00015837237
0.00013117312
0.00013416453
0.00064480713
0.00059674235
0.00057397727
0.00055422382
0.00047156398
0.00028295859
0.00029661586
0.00049583577
0.00081321322
0.00096954191
0.0010524371
0.0011887195
0.001466926
0.0013710894
0.00099626729
0.00071697568
0.00066533891
0.00070198372
0.00062360304
0.00035957613
0.00022075431
0.00020416021
0.00023362355
0.0010341545
0.00093469207
0.00093863349
0.00093011566
0.00088357514
0.00063678791
0.00039762567
0.00049065886
0.00078135354
0.0010064081
0.001101483
0.0012771706
0.0014821221
0.0014354784
0.0011537092
0.0008863112
0.00082395912
0.00082084818
0.00068388085
0.000415692
0.00030872656
0.0002984776
0.00027063966
0.0011470244
0.0010939962
0.0011312633
0.0011445069
0.0011533065
0.00094972334
0.00057116892
0.00052785058
0.00077017997
0.0010464261
0.0011589471
0.0013312871
0.0014905733
0.0015355138
0.0013649291
0.0010290388
0.0009119476
0.00086278323
0.00070976487
0.00046209983
0.00035407925
0.00031939882
0.00023604507
0.00096515115
0.0011542526
0.0012551743
0.0012451856
0.0010910647
0.00078198507
0.00058988078
0.00059683631
0.00085160923
0.0011530275
0.0012934868
0.0014890572
0.0016332086
0.0016585184
0.001417951
0.0010767772
0.00093164075
0.00084591207
0.00066955973
0.00044566085
0.00035784497
0.00029938322
0.00024663548
0.00093712161
0.0012254236
0.0012488891
0.0011046054
0.0008383695
0.00066268085
0.00062188618
0.00076524911
0.001108651
0.0013229239
0.0015222863
0.0017112679
0.0017528448
0.0016095909
0.0012978462
0.0010578441
0.00093709492
0.00081863768
0.00061487096
0.0004383221
0.00037050768
0.00030911108
0.00027956038
0.00067484076
0.001014646
0.0010410737
0.00088681503
0.00074435066
0.00069566641
0.00077720025
0.0010617922
0.0012874039
0.0014521297
0.0016669995
0.0017561837
0.0017120507
0.0014788751
0.0012119574
0.0010581446
0.00098944239
0.00081782692
0.00057361246
0.00045333945
0.00039740754
0.00033463237
0.00028927964
0.00051745285
0.00083598824
0.00091586638
0.00084012307
0.00079627709
0.00086815516
0.0010745688
0.001250701
0.0013595778
0.0015473011
0.001787332
0.0018391391
0.0016957173
0.0014172875
0.0012255922
0.001143376
0.0010123305
0.00074513615
0.00054968196
0.00047068645
0.00041580873
0.00033201184
0.00029518874
0.00044173629
0.00072428584
0.00081698349
0.00081985022
0.00085700416
0.0010360188
0.0012138419
0.0013342066
0.0014404563
0.0016378809
0.0018090462
0.0018624956
0.0017108901
0.0014498883
0.0012886951
0.0011653926
0.00096245467
0.00065952369
0.00053256688
0.00047826444
0.00041630612
0.00034296819
0.00032464031
0.00035979879
0.00063955179
0.00076544246
0.00078725733
0.00084694469
0.0010604806
0.001283601
0.0014350406
0.0015479662
0.0017149802
0.0018204237
0.0018123577
0.0016059108
0.0013958531
0.0012630798
0.0011002034
0.00081966349
0.00055582186
0.00047937483
0.00045912459
0.00041441355
0.0003839848
0.00040193042
0.00030475453
0.00049191364
0.00071008964
0.00076689966
0.0008125887
0.000995154
0.0012298166
0.0014139027
0.0015491682
0.001708205
0.0018056608
0.0017668397
0.0015968966
0.0014184309
0.0013325832
0.0012045264
0.0009273375
0.00062637664
0.00049896968
0.00045522001
0.00040784583
0.0003805436
0.0003933827
0.00027704426
0.00035946286
0.00061958635
0.00074087417
0.00078455413
0.0009183795
0.0011236721
0.0013053375
0.001453078
0.0016149355
0.0017545682
0.0017513209
0.0016326849
0.0014621209
0.0013716368
0.0012891055
0.0010830519
0.00077253388
0.00057256291
0.00048640825
0.00041674295
0.00037149189
0.00036960919
0.00027837958
0.00028065817
0.00047653952
0.00067450581
0.0007383545
0.00084408775
0.0010203777
0.0011868048
0.0013212081
0.0014649365
0.0016255361
0.0017129842
0.0016609338
0.0015318331
0.0014274146
0.0013465728
0.00119219
0.00091950693
0.00067255365
0.00054148536
0.0004542411
0.00038454464
0.00036239285
0.00029304413
0.00024543849
0.00036803324
0.000574624
0.00066442208
0.00075545783
0.0009047206
0.0010658654
0.0012020648
0.0013310227
0.0014757492
0.0015997299
0.0016296554
0.001571872
0.0014822407
0.0014029152
0.0012722138
0.0010450537
0.00078872898
0.00060899379
0.00050258938
0.00041701106
0.00037563062
0.00030497757
0.00024647305
0.00033312781
0.00049727623
0.0005896987
0.00066920923
0.00079211056
0.00094177569
0.0010856392
0.0012196703
0.00135311
0.001471094
0.0015350434
0.0015327447
0.001487738
0.0014256983
0.001331849
0.0011637555
0.00093477602
0.00072130544
0.00056763399
0.00045821257
0.00039179551
0.00030080342
0.00025221585
0.00033413192
0.00046114537
0.00054321366
0.00060705543
0.00069955215
0.00082133485
0.00095650101
0.0010947713
0.0012302299
0.0013497899
0.0014299847
0.0014588137
0.0014464716
0.0014140248
0.0013583973
0.0012523308
0.0010824965
0.00087839765
0.0006880365
0.00053463279
0.00041774241
0.00029632533
0.00025186299
0.00033677617
0.00044686555
0.00052239852
0.00057206986
0.0006353489
0.00072365302
0.00083278952
0.00095827312
0.001091996
0.0012184342
0.0013185832
0.0013819745
0.0014049327
0.0013942202
0.0013614639
0.0012997924
0.0011871387
0.0010260988
0.00084037221
0.0006640279
0.00048817803
0.00028513305
0.00023661175
0.00032787452
0.00043080755
0.00050725778
0.00055779999
0.00060216376
0.00065994743
0.00074061605
0.00084372609
0.00096211868
0.001083017
0.0011921065
0.0012781603
0.0013369044
0.0013623134
0.0013533955
0.0013178763
0.0012483085
0.0011339208
0.00098162654
0.00081975808
0.00060910192
0.00027893957
0.00018989019
0.00028534191
0.00039945951
0.00048507697
0.0005440224
0.00058914874
0.00062831774
0.00068160058
0.00075792163
0.00085410756
0.0009598431
0.0010634742
0.0011554896
0.0012299179
0.0012824709
0.0013093808
0.0013037237
0.0012707946
0.0012036683
0.0010963926
0.00097250657
0.00076343003
0.00027488193
0.00014206934
0.00020967873
0.00032778287
0.00043580239
0.00051652863
0.00057110927
0.00061125559
0.00064964884
0.00070021958
0.00076918257
0.0008541296
0.00094687651
0.0010377234
0.0011193086
0.0011863405
0.0012352353
0.0012625907
0.0012587886
0.0012305755
0.0011704977
0.0010877828
0.00091775861
0.00027243941
9.8537926e-05
0.00014266247
0.00024024739
0.00034627552
0.00044499756
0.00052488516
0.00058092511
0.00062478897
0.00066707053
0.00071648767
0.00077872853
0.00085280903
0.00093315459
0.0010133019
0.0010868924
0.0011483835
0.0011937286
0.0012201017
0.0012169793
0.0011928492
0.0011444841
0.0010355893
0.0002716732
6.9555415e-05
9.6862495e-05
0.00017062017
0.00025879427
0.00034867332
0.00043370572
0.00050850729
0.00057090802
0.00062377487
0.00067333661
0.00072517471
0.00078283467
0.00084669399
0.00091516899
0.00098461726
0.0010498472
0.0011059236
0.001149409
0.0011773479
0.001178771
0.0011603616
0.0011083388
0.00027843245
6.99362e-05
7.9512564e-05
0.0001299982
0.00019868649
0.00027050668
0.00034408838
0.000416343
0.0004846619
0.00054785364
0.00060621209
0.00066146101
0.00071596311
0.00077194319
0.00083116349
0.00089354844
0.00095656536
0.0010163032
0.001068949
0.0011115746
0.0011418794
0.0011478464
0.0011345115
0.00029119529
7.8310179e-05
8.0528584e-05
0.00011852727
0.00016800122
0.00022041676
0.00027652363
0.00033605693
0.00039764746
0.00045960039
0.00052051081
0.00057977827
0.0006374743
0.00069402708
0.00075056348
0.00080822546
0.00086688449
0.00092500164
0.00098012337
0.0010294924
0.0010712797
0.0011043515
0.0011224559
0.00030004203
7.5386876e-05
8.6849652e-05
0.00012094531
0.00015680639
0.00019472739
0.00023574332
0.00028078503
0.00033015465
0.00038313143
0.00043854478
0.00049526686
0.00055224737
0.00060877299
0.00066464503
0.00072009807
0.00077532644
0.00083054003
0.00088520217
0.00093771281
0.00098615501
0.0010293747
0.0010735627
0.00029506492
7.5642827e-05
9.3001091e-05
0.00012274195
0.00015183851
0.00018174203
0.00021365506
0.00024840747
0.00028694968
0.00032944174
0.00037556125
0.00042464656
0.00047584646
0.00052820147
0.00058097776
0.00063376218
0.00068652768
0.00073937366
0.00079223153
0.00084426083
0.00089426335
0.000941301
0.00099877713
0.00028092159
7.9033756e-05
9.5654541e-05
0.00012153094
0.00014624998
0.00017164317
0.00019866009
0.00022802629
0.00026010633
0.00029513512
0.0003333392
0.00037451318
0.00041822934
0.0004639259
0.00051103913
0.00055906248
0.00060757683
0.00065636123
0.00070534082
0.00075429306
0.00080265458
0.00085031102
0.00091252768
0.00026510128
7.8589629e-05
9.3553518e-05
0.00011614337
0.00013754296
0.00015986494
0.00018410099
0.00021059143
0.00023937123
0.00027059871
0.00030402692
0.00033947681
0.00037693238
0.00041616447
0.00045698361
0.00049913131
0.00054234919
0.00058632721
0.00063067585
0.00067507172
0.00071955926
0.00076513564
0.00082653611
0.0002514566
7.4471117e-05
8.6647435e-05
0.00010633294
0.00012520889
0.00014496346
0.00016665978
0.00019092592
0.00021767961
0.00024660314
0.00027750936
0.00031015531
0.0003439478
0.00037875292
0.00041468779
0.00045167947
0.00048968055
0.00052859438
0.00056819081
0.00060814337
0.00064854619
0.00069090875
0.0007470869
0.00024230781
6.8920105e-05
7.8952258e-05
9.6029985e-05
0.00011264122
0.00012993402
0.00014872284
0.00016969224
0.00019325263
0.00021932292
0.00024761038
0.00027779536
0.00030940666
0.00034190111
0.00037508215
0.00040897301
0.00044354169
0.00047881684
0.00051480832
0.00055141676
0.00058874957
0.00062854929
0.00067948391
0.00023547311
6.5410566e-05
7.421868e-05
8.9193314e-05
0.00010407591
0.00011927255
0.00013524998
0.00015236774
0.000171021
0.00019149719
0.00021403375
0.00023866141
0.00026514889
0.00029318187
0.00032260155
0.00035318994
0.00038492541
0.00041783985
0.0004519764
0.00048731103
0.00052376355
0.00056254516
0.00061157886
0.00023143596
6.4129964e-05
7.3374047e-05
8.7498042e-05
0.00010165931
0.00011569037
0.00012954667
0.00014313543
0.00015663023
0.00017027821
0.00018435602
0.00019924461
0.00021538149
0.0002330341
0.00025241344
0.00027358255
0.00029687453
0.00032254919
0.0003507456
0.00038161798
0.00041538725
0.00045284255
0.00049970984
0.0002296334
6.463485e-05
7.4948364e-05
8.9480324e-05
0.00010384848
0.00011757004
0.00013030908
0.00014153297
0.00015090424
0.00015860856
0.00016477504
0.00016974201
0.00017408704
0.00017850397
0.00018359852
0.00018979063
0.00019753333
0.00020746558
0.00022019601
0.0002363194
0.00025654647
0.00028144623
0.00032860955
0.00022929728
6.7437037e-05
8.1074263e-05
9.7330213e-05
0.0001122621
0.000125269
0.00013607862
0.00014430176
0.00014971254
0.00015206775
0.00015157494
0.00014858541
0.00014319433
0.00013641504
0.00012887581
0.00012115075
0.00011363798
0.0001063321
9.9924621e-05
9.5106404e-05
9.5701515e-05
0.00010056656
0.00013017954
0.0002284863
7.6140002e-05
9.2347487e-05
0.000109037
0.00012301585
0.00013415635
0.00014222342
0.00014678978
0.00014752923
0.00014468796
0.0001377172
0.00012715874
0.00011381905
9.8424362e-05
8.1493878e-05
6.3070321e-05
4.4995448e-05
3.1201189e-05
2.3829375e-05
2.0372252e-05
2.0191757e-05
2.050453e-05
2.5678376e-05
0.00023411783
9.3054751e-05
0.00010736016
0.00012186916
0.00013325923
0.00014134826
0.00014567629
0.00014573409
0.00014161722
0.00013248161
0.0001187529
0.00010121928
8.0879172e-05
5.8037512e-05
3.470753e-05
1.8555079e-05
1.1652094e-05
9.5773228e-06