/*--------------------------------*- C++ -*----------------------------------*\
| =========                 |                                                 |
| \\      /  F ield         | OpenFOAM: The Open Source CFD Toolbox           |
|  \\    /   O peration     | Version:  2406                                  |
|   \\  /    A nd           | Website:  www.openfoam.com                      |
|    \\/     M anipulation  |                                                 |
\*---------------------------------------------------------------------------*/
FoamFile
{
    version     2.0;
    format      ascii;
    arch        "LSB;label=32;scalar=64";
    class       volScalarField;
    location    "105";
    object      TMean;
}
// * * * * * * * * * * * * * * * * * * * * * * * * * * * * * * * * * * * * * //

dimensions      [0 0 0 1 0 0 0];

internalField   nonuniform List<scalar> 
20580
(
1.0021525
1.0018795
1.0018737
1.001891
1.0019003
1.0018836
1.0018798
1.001882
1.0018809
1.0018876
1.0018926
1.0019025
1.0019067
1.0019139
1.0019099
1.0019189
1.0019133
1.0018811
1.0018428
1.001789
1.0017355
1.0016805
1.0016391
1.0015584
1.0013887
1.0012496
1.0012063
1.0011526
1.0009098
1.0005267
0.99959905
1.0020873
1.0018446
1.0018477
1.0018689
1.0018733
1.0018673
1.0018638
1.0018725
1.0018741
1.001879
1.0018822
1.0018879
1.0018878
1.0018872
1.0018917
1.0018924
1.001879
1.0018554
1.0018068
1.001758
1.001699
1.001653
1.0016028
1.001536
1.0013896
1.0011732
1.0009917
1.0009275
1.0008442
1.0007376
0.99998781
1.0021099
1.0018288
1.0018414
1.0018729
1.0018736
1.0018655
1.001861
1.0018667
1.0018688
1.0018718
1.0018753
1.0018758
1.0018706
1.001866
1.0018651
1.0018592
1.0018366
1.0018119
1.0017519
1.0017031
1.0016371
1.0015705
1.0015408
1.0014765
1.0013573
1.0011385
1.0008778
1.0006983
1.0005699
1.000565
1.0002337
1.0022016
1.0018361
1.0018376
1.0018796
1.0018779
1.0018703
1.0018634
1.0018643
1.0018644
1.0018646
1.0018666
1.0018673
1.0018617
1.0018565
1.0018526
1.0018391
1.0018086
1.001778
1.0017199
1.001664
1.0016019
1.0015246
1.0014662
1.0014186
1.0013154
1.0011217
1.0008717
1.0006302
1.0003884
1.0001992
1.0001294
1.0022208
1.0018927
1.0018459
1.0018822
1.0018715
1.0018665
1.001859
1.0018594
1.0018567
1.0018557
1.0018587
1.0018592
1.0018561
1.001851
1.0018403
1.0018242
1.0017977
1.0017593
1.0017025
1.0016415
1.001561
1.0014677
1.0014016
1.0013475
1.0012591
1.0011025
1.0008983
1.0006449
1.0003544
1.0000134
0.99980253
1.0021149
1.0018839
1.001855
1.0018704
1.0018553
1.0018531
1.0018483
1.0018527
1.0018533
1.0018544
1.0018572
1.0018546
1.0018551
1.0018487
1.0018421
1.0018234
1.001796
1.0017536
1.0016975
1.0016305
1.0015525
1.0014397
1.0013526
1.0012894
1.0011857
1.0010534
1.0009083
1.0006806
1.0003892
1.0000512
0.99961845
1.002065
1.0018405
1.0018643
1.0018789
1.0018614
1.0018572
1.0018505
1.001853
1.0018559
1.0018587
1.0018597
1.0018597
1.0018564
1.0018458
1.0018348
1.0018242
1.0018043
1.0017573
1.0016977
1.0016422
1.001559
1.0014363
1.0013275
1.0012358
1.0011142
1.0009635
1.0008108
1.0006655
1.0004527
1.0002239
0.99978211
1.0020896
1.0017995
1.001844
1.001894
1.0018854
1.0018742
1.0018645
1.001869
1.0018648
1.0018676
1.0018667
1.0018674
1.0018664
1.0018556
1.0018378
1.0018255
1.0017942
1.0017443
1.0016917
1.0016307
1.0015553
1.0014518
1.0013402
1.0011976
1.001032
1.0008819
1.0007231
1.00055
1.0003313
1.0000953
0.99990429
1.0020715
1.0017777
1.0017939
1.0018797
1.0018901
1.0018831
1.0018775
1.0018811
1.0018781
1.0018809
1.0018786
1.001878
1.0018736
1.0018646
1.0018513
1.0018327
1.0018031
1.0017442
1.0016919
1.0016375
1.0015659
1.0014611
1.0013355
1.0011817
1.0010006
1.0008319
1.0006576
1.0004473
1.0001909
0.9998625
0.99966531
1.0018417
1.0016646
1.0017208
1.0018109
1.0018503
1.0018634
1.0018766
1.0018888
1.001893
1.0018993
1.0018949
1.0018938
1.0018865
1.0018716
1.0018635
1.0018395
1.0018082
1.0017588
1.0017078
1.0016347
1.0015581
1.001475
1.0013788
1.0012302
1.0010566
1.0008797
1.0006841
1.0004247
1.0001253
0.99979066
0.99944869
1.0017074
1.0014822
1.0015959
1.0016738
1.0017352
1.0017905
1.001833
1.0018562
1.0018798
1.0018949
1.001904
1.00191
1.0019058
1.001889
1.0018776
1.0018503
1.0018198
1.0017771
1.0017263
1.0016496
1.001563
1.0014721
1.0013815
1.001266
1.0011424
1.0010041
1.0008397
1.0006335
1.0003613
1.0000866
0.99962974
1.0017634
1.0014665
1.0014969
1.0015842
1.0016303
1.0016699
1.0017227
1.0017638
1.0018057
1.0018338
1.0018576
1.001876
1.0018836
1.0018803
1.0018737
1.001859
1.0018374
1.0017974
1.0017443
1.0016584
1.0015465
1.0014564
1.0013456
1.0012107
1.0010748
1.0009805
1.0008765
1.000726
1.0005074
1.0002538
0.99996561
1.0019642
1.001578
1.0015136
1.0015586
1.0015805
1.0015921
1.001627
1.0016608
1.001699
1.0017296
1.0017596
1.0017822
1.0017982
1.0018015
1.0018025
1.0017928
1.0017753
1.0017454
1.0017052
1.0016358
1.0015325
1.0014226
1.0012826
1.0010937
1.0008948
1.000772
1.0006767
1.0005447
1.0003417
1.0000381
0.99982298
1.0020552
1.0017
1.0016597
1.0016423
1.0016254
1.0016238
1.00163
1.0016352
1.0016511
1.0016709
1.0016921
1.0017072
1.001724
1.0017304
1.0017294
1.0017155
1.0016865
1.0016611
1.0016297
1.0015794
1.0014813
1.0013761
1.001223
1.0010338
1.0008399
1.0006468
1.0004896
1.0003151
1.0001023
0.99983486
0.99958481
1.0019417
1.0016749
1.0017167
1.0016989
1.0016715
1.001675
1.0016763
1.0016754
1.0016758
1.0016792
1.0016843
1.0016897
1.0016923
1.0016899
1.0016865
1.0016757
1.001654
1.0016236
1.0015748
1.0015436
1.0014543
1.0013578
1.0012189
1.0010496
1.0008723
1.0006654
1.0004454
1.0002442
1.0000645
0.99986066
0.99960068
1.0018329
1.0015833
1.001628
1.0016514
1.0016438
1.0016455
1.0016502
1.0016624
1.0016669
1.001675
1.00168
1.0016841
1.0016805
1.0016758
1.0016701
1.0016535
1.001636
1.0016097
1.0015609
1.0015105
1.0014584
1.0013829
1.0012922
1.0011759
1.0010442
1.0008844
1.0007249
1.0005524
1.0003322
1.0001127
0.99986176
1.0019833
1.0016367
1.001624
1.0016462
1.0016426
1.0016329
1.0016353
1.0016322
1.0016319
1.00164
1.0016449
1.0016459
1.0016469
1.0016449
1.0016304
1.0016225
1.0016067
1.0015833
1.001534
1.0014722
1.0014184
1.0013529
1.0012743
1.0011751
1.0010619
1.0009443
1.0008383
1.0007066
1.0005218
1.0002728
1.0000559
1.0020676
1.0016983
1.0017257
1.0017244
1.0017164
1.0017059
1.0016963
1.0016791
1.0016712
1.0016689
1.0016621
1.0016567
1.0016529
1.0016453
1.0016252
1.0016123
1.0015917
1.0015605
1.0015083
1.0014396
1.001365
1.0012593
1.0011355
1.0010006
1.000855
1.0006879
1.0005279
1.0003662
1.0001961
0.99997216
0.99983681
1.0019016
1.0016386
1.0017278
1.0017117
1.0017006
1.0017004
1.0017014
1.0016977
1.0016943
1.001693
1.0016896
1.0016832
1.0016729
1.0016599
1.0016426
1.0016297
1.0016011
1.0015657
1.0015081
1.001444
1.0013577
1.0012418
1.0010953
1.0009281
1.000758
1.0005682
1.0003707
1.00016
0.99993672
0.99971436
0.99957913
1.001849
1.0015504
1.0016231
1.0016074
1.0016146
1.0016053
1.0016104
1.001612
1.0016153
1.0016221
1.0016247
1.0016277
1.0016229
1.0016179
1.0016089
1.0016024
1.0015765
1.0015503
1.0015024
1.0014458
1.0013769
1.0012751
1.0011365
1.0009966
1.0008435
1.0006582
1.0004517
1.0002532
1.0000631
0.99986674
0.99972479
1.0019408
1.0016109
1.0016659
1.0016552
1.0016507
1.0016405
1.0016308
1.0016182
1.0016085
1.0016052
1.0015981
1.0015975
1.0015863
1.0015785
1.0015676
1.0015532
1.0015253
1.0014991
1.0014629
1.0014278
1.0013747
1.0013091
1.0012302
1.0011677
1.0010652
1.0009365
1.0008032
1.0006719
1.0005621
1.0004199
1.0002507
1.0019049
1.0015076
1.001661
1.0015709
1.0015614
1.0015435
1.0015283
1.0015122
1.0014977
1.0014864
1.0014672
1.0014638
1.0014362
1.0014192
1.0014011
1.0013888
1.0013515
1.0013129
1.001274
1.0012274
1.0011668
1.0011023
1.001037
1.0009469
1.0008488
1.0007193
1.0005916
1.0004518
1.0003128
1.0001521
1.00003
1.0018705
1.0006437
1.0012842
1.0008441
1.0009986
1.0009515
1.0010279
1.0010345
1.0010225
1.0010661
1.0010755
1.0010434
1.00101
1.000967
1.0010549
1.0010508
1.0008599
1.0009126
1.0009376
1.0008372
1.0007535
1.0006592
1.0005465
1.0004364
1.0003036
1.0001666
0.9999856
0.99977073
0.9995166
0.9992946
0.99914691
0.99881527
0.99973365
1.0000575
0.99957503
0.99924297
0.99930848
0.99954197
0.99966351
0.99943432
0.99906104
0.99903457
0.99946046
0.99953018
0.99905198
0.99885585
0.99918841
0.99947479
0.99926356
0.99905664
0.999301
0.99974875
0.99970029
0.99913639
0.99858678
0.99948119
0.99988307
0.99949168
0.99900107
0.99881193
0.99901235
0.99938717
0.99937834
0.99873956
0.99836358
0.99884147
0.99931525
0.99892317
0.99829533
0.99839475
0.99889326
0.99904621
0.99853583
0.99828696
0.99869826
0.99918014
0.99891284
0.99809355
0.99912732
0.99965726
0.99921348
0.99848417
0.99815901
0.99853267
0.99910787
0.99915292
0.99827924
0.99766991
0.99813752
0.99891708
0.99877562
0.99781152
0.99749784
0.99806276
0.99862776
0.99826307
0.997452
0.9976289
0.99836293
0.99861621
0.99721549
0.99851077
0.99929831
0.99889522
0.9978334
0.99709476
0.99765768
0.99860612
0.99894469
0.99791725
0.99675501
0.99698044
0.99807522
0.99860467
0.99754705
0.99647224
0.99675707
0.99773822
0.9979544
0.99673327
0.99622815
0.9969895
0.99778177
0.99630593
0.99780125
0.9988494
0.99860331
0.9972425
0.99604349
0.99651552
0.99785205
0.99861079
0.9976633
0.99576983
0.99547767
0.99681684
0.99812333
0.99738672
0.99534071
0.99492566
0.99616115
0.99735472
0.99644574
0.99478536
0.99508761
0.99629485
0.99539029
0.99702064
0.99830282
0.99820144
0.99662879
0.994931
0.99499685
0.99666034
0.99803012
0.99741254
0.99500315
0.99361916
0.99488117
0.99699914
0.99728754
0.99482526
0.99308411
0.99406013
0.99607264
0.99630044
0.99397323
0.99304098
0.99418628
0.99404589
0.99597417
0.99755778
0.99771093
0.99589511
0.99364297
0.9931188
0.99503508
0.99711467
0.99719925
0.99441312
0.99165829
0.99248535
0.99519865
0.99677658
0.99479905
0.99125036
0.99129236
0.99368615
0.99547058
0.99389893
0.99098248
0.99129492
0.99230519
0.99463453
0.99662445
0.99703703
0.99502064
0.99211296
0.99082434
0.99286125
0.99571237
0.99669557
0.99391393
0.98961965
0.98930183
0.9923668
0.99554937
0.99495854
0.99024453
0.98809021
0.99022312
0.99355477
0.99400436
0.99018109
0.98821883
0.98992029
0.99281444
0.99538345
0.99616046
0.99385902
0.99010403
0.98777142
0.98988026
0.99347968
0.99573081
0.99346208
0.98784562
0.98546823
0.98841226
0.99309271
0.99462492
0.99020557
0.9850028
0.9859393
0.98991609
0.99289023
0.99063388
0.98574885
0.98669679
0.99036182
0.99378096
0.99494692
0.99248143
0.98769826
0.98419558
0.98620563
0.99050136
0.99428036
0.99294372
0.98646987
0.98140912
0.98358175
0.98917171
0.99329188
0.99057685
0.98281747
0.98093439
0.98460678
0.99002589
0.99078596
0.98517065
0.98283255
0.98738567
0.99185171
0.99352806
0.990817
0.98466182
0.97977434
0.98155052
0.98659287
0.99199358
0.99214799
0.98503943
0.9772148
0.97775733
0.98351057
0.99028091
0.99045615
0.98223116
0.97568957
0.97787716
0.98459861
0.98923415
0.98590287
0.97797208
0.98338934
0.9892446
0.99158283
0.98852867
0.98068359
0.97409707
0.97539461
0.98135553
0.98859603
0.99057269
0.98323574
0.97307013
0.97074853
0.97639981
0.98546034
0.98913661
0.98194836
0.97134559
0.97050667
0.97699514
0.98514332
0.98598931
0.97203197
0.97829828
0.98599816
0.98930631
0.98565983
0.97580906
0.96739805
0.96771904
0.97470848
0.98419259
0.98803776
0.98126164
0.96904487
0.96259997
0.96782365
0.9788799
0.98625446
0.98135741
0.96872721
0.96234805
0.96771226
0.97846445
0.98421657
0.96507203
0.97241254
0.98205418
0.98635264
0.98210558
0.97017273
0.95970782
0.95860455
0.96676112
0.97875771
0.98477616
0.97872151
0.96463504
0.95389945
0.9581125
0.97072741
0.98171177
0.98013056
0.96665181
0.9547289
0.95759536
0.96974167
0.98037161
0.95745257
0.96565407
0.9773288
0.98303021
0.97782513
0.96386384
0.95099085
0.94797474
0.95748976
0.97220465
0.98075785
0.9755337
0.95964236
0.94523791
0.94769739
0.96140403
0.97600525
0.97768013
0.96391615
0.94824866
0.94760899
0.95973398
0.97462544
0.94864287
0.95796341
0.97170188
0.97880737
0.97282634
0.95669194
0.94114884
0.93610216
0.94724942
0.96483373
0.97589953
0.97122922
0.95341588
0.93636036
0.93666472
0.95113527
0.96910497
0.97390404
0.96022091
0.94208486
0.93677951
0.94912268
0.96738839
0.93915526
0.94962561
0.96538827
0.97372396
0.96682286
0.94827772
0.92966064
0.92259215
0.93572388
0.9564463
0.97000286
0.96556985
0.94592711
0.92669588
0.92462388
0.94006431
0.96123783
0.96901204
0.95556776
0.93509187
0.92507246
0.93833583
0.95959927
0.92734817
0.93978096
0.95784283
0.96758035
0.9598371
0.93850938
0.91648808
0.90764521
0.92279313
0.94679714
0.96277393
0.95888492
0.93750048
0.91575298
0.91151709
0.92870231
0.95295297
0.96319135
0.94975594
0.92665703
0.91275768
0.92787904
0.95210951
0.91452678
0.92871935
0.94897257
0.96010339
0.95189228
0.9278065
0.90223465
0.89184885
0.90904602
0.93622123
0.95425619
0.95057477
0.92761537
0.90356091
0.89818519
0.91790564
0.94486828
0.95615256
0.94193434
0.91607133
0.90017936
0.91884905
0.94569557
0.89968505
0.91596476
0.93859655
0.95145537
0.94301383
0.91618124
0.88694664
0.87517897
0.89391611
0.92392911
0.94418417
0.94065486
0.91580442
0.88985667
0.8849891
0.90712641
0.93653816
0.94804495
0.93184564
0.90339134
0.88765047
0.91121039
0.94032174
0.88170302
0.90044911
0.92618501
0.94119767
0.93284255
0.90325545
0.8707569
0.8582177
0.8779777
0.91007649
0.93211687
0.9280726
0.90123691
0.87493126
0.8729537
0.89726072
0.92804557
0.937773
0.91787265
0.88774387
0.87661291
0.90581969
0.93564391
0.86057459
0.88126014
0.91054182
0.9289714
0.9221497
0.89075881
0.85464838
0.84103884
0.86116213
0.89450937
0.91758157
0.91261261
0.88439199
0.85900552
0.86260185
0.88909971
0.91913573
0.92410147
0.89921006
0.87082701
0.87020943
0.90268108
0.92983533
0.83087505
0.85421103
0.88891425
0.91325793
0.91131802
0.88026638
0.84011616
0.82434884
0.84364002
0.87694777
0.90027827
0.89451802
0.86656165
0.84390663
0.85351956
0.88187644
0.90882372
0.90670972
0.8774712
0.85337742
0.86786895
0.90211292
0.92095653
0.79106876
0.81686153
0.85922127
0.89277928
0.89939961
0.87218546
0.82856425
0.80942351
0.82705972
0.85849671
0.88059758
0.87381627
0.84785883
0.83081039
0.8459035
0.87503618
0.89577099
0.88447657
0.85444289
0.8418126
0.86940569
0.9015722
0.90483647
0.70501353
0.73811644
0.80159198
0.85820896
0.88146155
0.86407849
0.82062269
0.79815822
0.81280757
0.84003357
0.85826744
0.85025805
0.82832935
0.82100024
0.84003892
0.86698931
0.87693957
0.8580421
0.8341633
0.83975349
0.87270802
0.89474041
0.88019719
0.6269631
0.65256918
0.71449959
0.79407934
0.848735
0.85177415
0.81779687
0.79553668
0.80486171
0.82424507
0.83554288
0.82692455
0.81193021
0.81600459
0.83605927
0.8554779
0.8531091
0.83233104
0.82239958
0.84530612
0.87413229
0.87525525
0.8505091
0.66187875
0.6702367
0.69074091
0.73293064
0.78953845
0.82142948
0.80960428
0.79726444
0.80093772
0.81121417
0.81535809
0.80798304
0.80348437
0.81441163
0.83131565
0.83956737
0.82967367
0.81604098
0.82434134
0.85106911
0.86385648
0.84770393
0.83013712
0.69770499
0.70586327
0.71390216
0.72892636
0.75617979
0.78440797
0.79339194
0.79397769
0.79640586
0.79976313
0.7992157
0.79610464
0.80079865
0.81278943
0.82322761
0.82304406
0.81338146
0.81267619
0.83138625
0.84895757
0.84344258
0.82659006
0.82824781
0.71401638
0.72611342
0.73162292
0.73494775
0.74659234
0.76855102
0.78285089
0.78910915
0.79029455
0.78897537
0.78749434
0.79072945
0.7995516
0.80902222
0.81306018
0.80970612
0.80684242
0.81722565
0.83356231
0.83685305
0.82475247
0.82048675
0.84193589
0.72299525
0.73957054
0.74432691
0.74450858
0.75193317
0.76831693
0.7796687
0.78413594
0.78275859
0.78009074
0.78134307
0.78900633
0.79766867
0.80305052
0.80322764
0.8021442
0.80762766
0.82025052
0.82755164
0.82224544
0.81614351
0.82863496
0.84870352
0.72351614
0.74528433
0.75380861
0.75493091
0.76114188
0.77081616
0.77687981
0.77790327
0.77516763
0.77412778
0.77877292
0.78756454
0.79402492
0.79638433
0.79664137
0.80052126
0.81000403
0.81806338
0.81849299
0.81386195
0.81959245
0.83664559
0.84001648
0.72255749
0.7467903
0.75837442
0.76098504
0.76500133
0.76938894
0.77174405
0.77052435
0.76868521
0.77034031
0.77731681
0.78519988
0.78938592
0.79038216
0.79298899
0.80062033
0.80899003
0.81225172
0.81046582
0.81270079
0.82514531
0.83349646
0.82603321
0.71764548
0.74243962
0.75702198
0.76146715
0.76333261
0.76486467
0.76555666
0.76446579
0.76460674
0.76833685
0.77565679
0.78186656
0.78518587
0.78738889
0.79281769
0.8011168
0.80610148
0.80651445
0.80721607
0.8153072
0.82620507
0.82529739
0.81746974
0.71328275
0.73553293
0.75159221
0.75766489
0.7587297
0.75916698
0.75952745
0.75928961
0.76095963
0.76576383
0.7727132
0.77826052
0.78124393
0.78493502
0.79190653
0.79887667
0.80145927
0.80178447
0.80696853
0.81807978
0.82201006
0.81687488
0.81692346
0.71251395
0.72983186
0.74530562
0.75235977
0.75340826
0.75357413
0.75418161
0.75541076
0.7586556
0.76437204
0.77082735
0.77545086
0.77935033
0.78487855
0.79193531
0.79647472
0.79810744
0.80165893
0.80967973
0.81613474
0.81552109
0.81545406
0.82300287
0.71245399
0.72393839
0.73776294
0.74603447
0.7480502
0.74842948
0.74920736
0.75085466
0.75393153
0.75903336
0.76512479
0.77055665
0.77482319
0.77992954
0.78639383
0.79188246
0.79458798
0.79763868
0.80441323
0.81130951
0.8129821
0.81294971
0.81930115
0.71442918
0.72019767
0.73043442
0.7390592
0.74239228
0.74347576
0.74449482
0.74603973
0.74874133
0.75315061
0.75885633
0.76460707
0.76941836
0.77426577
0.78009551
0.78595826
0.79001471
0.7930883
0.79835126
0.80516848
0.80958019
0.81042454
0.81437308
0.71655222
0.71859466
0.72460147
0.73205904
0.73638826
0.73836271
0.73972246
0.74126762
0.74366348
0.74746293
0.75265536
0.75842428
0.76363031
0.768559
0.77398928
0.77985791
0.7847408
0.78837344
0.79273084
0.79882855
0.80462918
0.80736778
0.81067843
0.71795814
0.71791477
0.72066871
0.7258472
0.7303212
0.73306883
0.73481764
0.73645038
0.73863942
0.74196245
0.74660877
0.75205025
0.75738328
0.76247465
0.76777841
0.77358316
0.77891836
0.78319581
0.78733114
0.79265186
0.79892304
0.80315962
0.80722372
0.7193539
0.7176297
0.71828659
0.72111031
0.72474306
0.7277363
0.72981958
0.73156129
0.73364266
0.73660616
0.74072375
0.74566268
0.75091627
0.75608973
0.76138226
0.7670474
0.77268689
0.77753676
0.78190052
0.78672647
0.79247638
0.79778193
0.80327953
0.72207553
0.71822591
0.7170563
0.71787454
0.72011711
0.72271401
0.72489333
0.72671593
0.72871515
0.73137562
0.73498357
0.73939904
0.74437403
0.7495497
0.75483443
0.76030252
0.76591398
0.77128282
0.77610709
0.78082616
0.78593746
0.79130838
0.79792564
0.73013925
0.72189572
0.71776887
0.71638677
0.71689667
0.71850521
0.72037408
0.72214032
0.72403633
0.72640063
0.72949919
0.73336212
0.73789614
0.74287575
0.74807098
0.75338099
0.75883355
0.76434185
0.7696006
0.7745418
0.77942615
0.7845105
0.79139058
0.74970897
0.73292306
0.72288495
0.71782999
0.71588098
0.71583973
0.71680691
0.71818428
0.71984591
0.72189037
0.72448408
0.72775563
0.73172137
0.73625997
0.74116669
0.74628328
0.75156786
0.75700115
0.76242553
0.7676531
0.77267425
0.7776563
0.7843622
0.78109044
0.75544482
0.73625742
0.72471358
0.71868103
0.71592434
0.71513486
0.71548359
0.71653095
0.71809768
0.72015833
0.72282612
0.7261554
0.73009502
0.73450902
0.73926262
0.7442803
0.74951359
0.75487147
0.76021641
0.76543765
0.77053433
0.77710834
0.81044035
0.78441914
0.75900613
0.73933732
0.72718633
0.72033401
0.71672035
0.71515101
0.71491291
0.71557528
0.71691929
0.71889112
0.72151492
0.72475716
0.72853548
0.7327511
0.73731824
0.74217669
0.74726144
0.75248274
0.75773488
0.76295365
0.76951761
0.83337213
0.81457379
0.78841743
0.76249981
0.74311337
0.73050621
0.7228924
0.7184913
0.71616954
0.71529726
0.71548401
0.71650732
0.71825207
0.72064869
0.7236435
0.72715443
0.7310961
0.73539985
0.74001154
0.74487504
0.74991361
0.75508208
0.76156629
0.84871544
0.83673921
0.81492683
0.78899709
0.76534404
0.74710389
0.73447952
0.72632785
0.72125779
0.71825698
0.7167582
0.7164122
0.7169903
0.71834351
0.72036224
0.7229827
0.72612164
0.72970246
0.73366595
0.73795619
0.74252263
0.74736691
0.75352134
0.85691099
0.84654201
0.82954773
0.80906892
0.78724945
0.76714653
0.75087989
0.73887814
0.73052483
0.72496736
0.72143139
0.71938404
0.71848229
0.71852212
0.71935724
0.72087898
0.72299705
0.72565067
0.72877217
0.73229818
0.73617524
0.7404195
0.74589083
0.86140801
0.84925026
0.83457762
0.81914516
0.8021623
0.7845481
0.76816871
0.75435117
0.74349633
0.73540741
0.72964569
0.72572862
0.72321598
0.72179917
0.72126954
0.72150317
0.72241516
0.72392527
0.72597691
0.728519
0.73149972
0.73491887
0.73940065
0.86395176
0.85053207
0.83749576
0.82482072
0.81134072
0.7970682
0.78284989
0.76966106
0.75818693
0.74871229
0.74121672
0.73550204
0.73131077
0.72838525
0.72648299
0.72540909
0.72502906
0.72527307
0.72609429
0.72744432
0.72928437
0.73160629
0.73475477
0.86546364
0.85257909
0.84135391
0.83056278
0.81929422
0.80749416
0.79555087
0.78398092
0.77325895
0.76371582
0.75551436
0.74867364
0.74312538
0.73875304
0.73542407
0.73300244
0.73135908
0.73036293
0.72992818
0.73000114
0.73054509
0.73151768
0.73293617
0.86491214
0.85537804
0.8463807
0.83760287
0.82837827
0.81870709
0.80883217
0.79903294
0.78959327
0.7807598
0.77270365
0.76552062
0.7592455
0.75386769
0.74934735
0.74562827
0.74264639
0.74033308
0.73862104
0.73743034
0.73666504
0.73617455
0.73551042
0.86805996
0.8593267
0.85247932
0.84597807
0.8391866
0.83204029
0.82463501
0.8170633
0.80945795
0.80198562
0.79479166
0.78799579
0.78168067
0.77589965
0.77067821
0.76602199
0.76192298
0.75836427
0.75531886
0.75274156
0.75053526
0.74843268
0.74529065
0.87060779
0.86356435
0.85886615
0.8548501
0.85094999
0.8470199
0.84297384
0.83869434
0.83409055
0.82918518
0.82404777
0.81877321
0.8134646
0.80821689
0.80311068
0.79820795
0.79355536
0.78918389
0.78511774
0.78134608
0.77775787
0.77393489
0.76785956
0.87413305
0.86764043
0.86493391
0.86334444
0.86236094
0.86187435
0.86168784
0.86151876
0.86106145
0.86012527
0.85860914
0.85649027
0.85381015
0.85064741
0.84709837
0.84325634
0.8392097
0.83506092
0.8309084
0.82678364
0.82256481
0.81762794
0.80901453
0.8744659
0.87115084
0.87051328
0.87112075
0.87273879
0.87529215
0.87853453
0.88211422
0.88566713
0.88889508
0.89157282
0.89355007
0.89474969
0.89515716
0.89479807
0.89372481
0.89202819
0.88983749
0.88726555
0.88436528
0.8810702
0.87676921
0.8672378
0.87614691
0.87449628
0.87584136
0.87852322
0.88234605
0.88723717
0.8929202
0.89906284
0.90535493
0.91153187
0.91737881
0.92272794
0.92745603
0.9314821
0.93476116
0.93728451
0.93908408
0.94019855
0.94067823
0.94055287
0.93966663
0.93790582
0.930106
0.87819762
0.87796825
0.88141682
0.88606802
0.89167416
0.89818659
0.90538689
0.91301309
0.92081788
0.92859123
0.93615865
0.94338479
0.95017234
0.95644763
0.96214854
0.96722587
0.97165662
0.97533908
0.97800471
0.97964723
0.98024032
0.9801685
0.97588788
0.88071015
0.88194396
0.88752864
0.89385327
0.90079582
0.90842267
0.91658982
0.92509064
0.93372172
0.94229408
0.95065522
0.95869748
0.96633096
0.97345949
0.97996957
0.9856975
0.99016581
0.99313973
0.99491384
0.99595992
0.99641659
0.99672873
0.99552195
0.88287994
0.88657145
0.893993
0.90161296
0.90957375
0.91803449
0.92690244
0.93600032
0.9451306
0.95411855
0.96283283
0.97115684
0.97895035
0.98600554
0.99189894
0.99583853
0.99782132
0.9986556
0.99895502
0.99906902
0.99910115
0.99914483
0.99903263
0.88533631
0.89177116
0.90053803
0.90912221
0.91787894
0.92699891
0.9364146
0.94594901
0.95539837
0.96459638
0.97339855
0.98162506
0.98897079
0.99477452
0.99799099
0.99904308
0.99923354
0.99925327
0.99924691
0.99924911
0.99925235
0.99926047
0.99923101
0.88831848
0.89737492
0.90707749
0.91634725
0.92569581
0.93531923
0.94514063
0.95495726
0.9645641
0.97377717
0.98238191
0.99001033
0.99587743
0.99874886
0.99935484
0.99935257
0.9993261
0.99930735
0.99930216
0.99930794
0.99930708
0.99929698
0.99925821
0.89176603
0.9030985
0.91350389
0.92325676
0.9330147
0.94297503
0.95303537
0.96298343
0.97258591
0.98158379
0.98958815
0.99582344
0.99891605
0.99949904
0.99945596
0.99940818
0.9993837
0.99937119
0.99936675
0.99936177
0.99934946
0.99932745
0.99929084
0.89559036
0.90876921
0.91969343
0.92976506
0.9397766
0.94992343
0.9600797
0.97000976
0.97942377
0.98793104
0.99480219
0.99866377
0.99958329
0.99957834
0.9995121
0.99947514
0.99945343
0.99943988
0.99943054
0.99941363
0.99939376
0.99936965
0.99933953
0.89970547
0.91430459
0.92556477
0.93582607
0.94596159
0.95615777
0.96628026
0.97605136
0.98508409
0.99274964
0.99781911
0.99954432
0.9997128
0.99962935
0.99958653
0.99955286
0.99952979
0.99951216
0.99949432
0.99947271
0.99945055
0.99942749
0.99940139
0.90402389
0.91963641
0.93107568
0.94141538
0.95156812
0.96171377
0.97169903
0.98118057
0.98961976
0.99604871
0.99916593
0.99978608
0.99976312
0.99970817
0.9996695
0.99963551
0.99960662
0.99958183
0.99955765
0.99953352
0.99950871
0.99948827
0.99946521
0.90847987
0.92476856
0.93625568
0.94658022
0.95666366
0.96667517
0.97642872
0.98549866
0.99313166
0.99802083
0.99966579
0.9998689
0.99982937
0.99979234
0.99975571
0.99972014
0.99968396
0.99965784
0.99962402
0.99959726
0.99957076
0.99954984
0.99952904
0.91297667
0.92967549
0.94112565
0.95136332
0.96131061
0.97112122
0.9805581
0.98907981
0.99566953
0.99902751
0.99983363
0.99991398
0.99989538
0.99987576
0.99984209
0.99980846
0.99976938
0.99973447
0.99969839
0.99966975
0.9996402
0.99961709
0.99959295
0.91747808
0.93439498
0.94573416
0.95582756
0.96558981
0.97514591
0.98418301
0.99200435
0.99734643
0.99944585
0.99986883
0.99993838
0.99994865
0.99994389
0.99992073
0.99988952
0.99985165
0.99981506
0.99977817
0.99973963
0.99970495
0.99967469
0.99964778
0.92193731
0.93895077
0.95011894
0.96002678
0.96956032
0.97880781
0.98735695
0.99429591
0.99829408
0.99955376
0.99983712
0.99993246
0.99997001
0.99998687
0.99997871
0.99996221
0.99992702
0.99989507
0.99985747
0.99981786
0.99977901
0.99974479
0.99970994
0.92629115
0.94331144
0.95428416
0.96397858
0.97325638
0.98214571
0.99006279
0.99589239
0.99867179
0.99947639
0.99972414
0.99985887
0.99993617
0.9999845
1.0000014
1.0000026
0.99998479
0.99995679
0.9999245
0.9998888
0.99985171
0.9998099
0.99976829
0.93052623
0.94749094
0.9582304
0.9676915
0.97669994
0.98514
0.99220931
0.99677746
0.99863557
0.9992148
0.99947676
0.99966103
0.99978842
0.99988565
0.99994213
0.99997413
0.99997857
0.99997412
0.99995911
0.99993373
0.99990379
0.99987036
0.99983489
0.93458926
0.95149137
0.96197065
0.97118097
0.97986425
0.98766553
0.99363236
0.99699831
0.99824079
0.99871983
0.99901892
0.99925255
0.99944494
0.99959539
0.99970912
0.99979043
0.99984158
0.99987917
0.99989368
0.99990416
0.99989662
0.99988654
0.9998605
0.93837899
0.95525526
0.96546093
0.97437949
0.98259589
0.98950622
0.9942665
0.99659236
0.99745851
0.99788938
0.99821834
0.99849966
0.99874754
0.99896585
0.99914189
0.99929451
0.99941589
0.99952688
0.99960835
0.99967808
0.99972686
0.99977505
0.99978647
0.94171131
0.95851946
0.96846921
0.97705213
0.98465446
0.99053594
0.99406911
0.9955827
0.99619349
0.99656063
0.99688715
0.99716981
0.99744934
0.99769987
0.99794709
0.99817746
0.99839702
0.99860488
0.99880062
0.9989859
0.99914665
0.99929423
0.99941111
0.94445848
0.96110353
0.97081096
0.97903733
0.98592169
0.99064643
0.99303117
0.99392002
0.99428442
0.99452077
0.99474693
0.99495752
0.9951942
0.99542848
0.99568918
0.99596818
0.99626887
0.99659389
0.99691132
0.99725258
0.99756741
0.99789398
0.99819978
0.94683952
0.96304531
0.97248316
0.98027543
0.98628821
0.98980098
0.99118621
0.99151452
0.99155251
0.99153943
0.99154376
0.99156699
0.99164179
0.99177472
0.99195622
0.99221104
0.99250903
0.9928784
0.99326827
0.99374257
0.99419977
0.99473683
0.99527629
0.94938197
0.9645821
0.97360046
0.98077259
0.98569743
0.98804432
0.98850461
0.98825348
0.98785648
0.98744823
0.9871085
0.98682128
0.98664523
0.9865525
0.98656894
0.98668906
0.98688765
0.98720211
0.98757518
0.98805326
0.98856809
0.98920462
0.98990381
0.9510339
0.96556265
0.97408865
0.98048056
0.98426043
0.98547462
0.98503824
0.98414415
0.9831991
0.98230289
0.98151616
0.98085527
0.98035433
0.98000515
0.97980295
0.97973865
0.97979482
0.97998257
0.98026115
0.98065712
0.98112535
0.98171859
0.98242337
0.95158296
0.96580779
0.97386099
0.97939789
0.98212001
0.9822679
0.98095404
0.97934419
0.97775884
0.97630827
0.97506388
0.97404106
0.97325029
0.97267151
0.97227409
0.97205972
0.97196799
0.97203944
0.97220064
0.97249814
0.97287086
0.97337376
0.97399596
0.95185135
0.96561554
0.97305608
0.97766935
0.9794157
0.97853669
0.97635322
0.97398551
0.97175455
0.96980017
0.96817539
0.96687827
0.96587871
0.96513112
0.96459203
0.96424578
0.96404152
0.96399763
0.96403964
0.96422777
0.96448446
0.96487747
0.96538245
0.95224346
0.96519899
0.971858
0.97547901
0.97628192
0.97442776
0.97142327
0.96837294
0.96561822
0.96328946
0.96139177
0.95989376
0.95873212
0.95784014
0.95718076
0.95670616
0.95638336
0.95621599
0.95615305
0.95623037
0.95638818
0.95667238
0.95708909
0.95280239
0.96461966
0.97036176
0.97302522
0.97295135
0.97027021
0.96661789
0.96303695
0.95987487
0.95725202
0.9551494
0.95350035
0.9522139
0.95122295
0.95046748
0.94991338
0.94952993
0.94930277
0.94918955
0.94921649
0.94933247
0.94957074
0.94991218
0.95256
0.96376635
0.96861813
0.97045139
0.96963497
0.966362
0.96229027
0.95832874
0.95488559
0.95207658
0.94985977
0.94814377
0.94683005
0.94583573
0.9450995
0.94458072
0.94424888
0.94408985
0.94406937
0.94418202
0.94439381
0.94471538
0.94511591
0.9514971
0.96244728
0.96666453
0.96791538
0.96657297
0.96303338
0.95875863
0.95461296
0.95102647
0.94813939
0.94591456
0.94424381
0.94301545
0.94214709
0.94156479
0.94123628
0.94112382
0.94121206
0.94146468
0.94185948
0.94236617
0.94297223
0.94363691
0.95035861
0.96080436
0.96456991
0.96552858
0.96397046
0.96047522
0.95629161
0.95220122
0.94865517
0.94581491
0.94366151
0.94209887
0.94102169
0.94033423
0.93997193
0.93988722
0.94004651
0.94042092
0.9409953
0.94173237
0.94259815
0.94357155
0.94458763
0.94990577
0.95887242
0.96234275
0.96323092
0.96177133
0.95861465
0.9547812
0.95103395
0.94779187
0.94519881
0.94323315
0.9418192
0.9408676
0.94030678
0.94007116
0.9401151
0.94042722
0.94097776
0.94175241
0.94271547
0.9438206
0.94504375
0.94633107
0.94765392
0.95588915
0.9594162
0.96049908
0.95947302
0.95698603
0.95382922
0.95068185
0.94793791
0.94573796
0.94406438
0.94285686
0.94204184
0.9415547
0.94135883
0.94142067
0.94174476