/*--------------------------------*- C++ -*----------------------------------*\
| =========                 |                                                 |
| \\      /  F ield         | OpenFOAM: The Open Source CFD Toolbox           |
|  \\    /   O peration     | Version:  2406                                  |
|   \\  /    A nd           | Website:  www.openfoam.com                      |
|    \\/     M anipulation  |                                                 |
\*---------------------------------------------------------------------------*/
FoamFile
{
    version     2.0;
    format      ascii;
    arch        "LSB;label=32;scalar=64";
    class       surfaceScalarField;
    location    "85";
    object      phi_0;
}
// * * * * * * * * * * * * * * * * * * * * * * * * * * * * * * * * * * * * * //

dimensions      [1 0 -1 0 0 0 0];

oriented        oriented;

internalField   nonuniform List<scalar> 
40800
(
0.00072807327
0.00089267403
-0.0011468567
0.00082525009
0.00087015044
-0.00088332181
0.00088042266
0.00096191495
-0.0011380798
0.000944203
0.00085601814
-0.00075195603
0.00099624878
0.00072013088
-0.00078987112
0.0010361362
0.00072914338
-0.00088565334
0.0010820567
0.00066681624
-0.00070060642
0.0011173671
0.00063346686
-0.00068781909
0.001147985
0.00051465038
-0.00059903399
0.0011796757
0.00048839088
-0.00052109855
0.0012128496
0.00050553866
-0.00050743663
0.0012258288
0.00040971055
-0.00046818445
0.0012568501
0.00034978342
-0.00035109326
0.0012881952
0.00041093377
-0.00041066632
0.0012915743
0.00034382244
-0.0003722207
0.0013259972
0.00029689302
-0.00029482877
0.0013747302
0.00048749458
-0.00050329562
0.0013162549
0.00038692355
-0.00044794732
0.0013894069
0.00029761417
-0.00027937298
0.0014530911
0.00061577098
-0.00062849725
0.0013958651
0.00052678864
-0.0006051686
0.001456428
0.00045521278
-0.000495696
0.0015897076
0.00075270581
-0.00080350305
0.0015926308
0.00082589881
-0.00096913386
0.0014700718
0.00066641679
-0.00075898515
0.0016388214
0.00062801406
-0.00062099461
0.001791942
0.00083121515
-0.00082149987
0.0017474239
0.0011738565
-0.0012113384
0.001921947
0.0012882369
-0.0013657144
0.0021806152
0.001033022
-0.0012423284
0.00093019854
0.0018704022
-0.0012182945
0.00072112692
0.00062037127
0.00081620501
0.00088210159
0.0008727051
0.00075899231
0.0009403664
0.0009485567
0.00099284816
0.00068656445
0.0010331337
0.00057282991
0.0010813407
0.00062730885
0.0011142656
0.00057202658
0.0011477991
0.00046340782
0.0011819734
0.00045081021
0.0012101877
0.00047944376
0.0012251525
0.00037018052
0.0012622593
0.00036533857
0.0012858498
0.00039861155
0.0012903704
0.00032720274
0.0013415327
0.00031960066
0.0013639916
0.00043810761
0.001309775
0.0003217662
0.001428916
0.0003488854
0.0014380313
0.00056760976
0.0013812213
0.00044020425
0.0014914052
0.00044978199
0.001571859
0.00067614521
0.0015372079
0.00064078413
0.0014376947
0.00058840105
0.0016622972
0.00071122967
0.0019100916
0.00087459427
0.0017989679
0.0010763265
0.0017464728
0.0011806177
0.0020100514
0.00091765957
0.00070461954
0.0020951253
0.00072028059
0.0004097444
0.00080786373
0.00087413256
0.00086499818
0.00061830999
0.00093092886
0.00095754374
0.00098385342
0.00066742079
0.0010282304
0.00048178393
0.0010767121
0.00059602191
0.0011095388
0.00051273683
0.0011463421
0.00045401714
0.0011823784
0.00042417926
0.0012068463
0.00042363254
0.0012280034
0.00035440555
0.0012668063
0.00037867971
0.0012838176
0.00037347631
0.0012927696
0.00031574548
0.0013504054
0.0003578898
0.0013507621
0.00037383522
0.0013130865
0.00025766557
0.001452016
0.00041625808
0.0014168893
0.00049784544
0.0013785038
0.0003519737
0.0015179084
0.00047492941
0.0015419985
0.0006191953
0.0015137487
0.00047763807
0.0014559862
0.0005081291
0.001664727
0.00081220345
0.0019497082
0.00093933454
0.0018437912
0.00092244073
0.0016277438
0.00099236689
0.0018151747
0.00093766403
0.00068405833
0.0022010438
0.00072131129
0.00032437843
0.00079915946
0.00080549384
0.00085879407
0.00059958857
0.00091690455
0.00085255998
0.00097134002
0.00064322695
0.0010223522
0.00047328951
0.001068754
0.0005679414
0.0011039775
0.0004569423
0.0011426936
0.00046592011
0.0011782588
0.00040918063
0.0012011749
0.00036151286
0.0012287339
0.00035127236
0.0012662691
0.00037515582
0.0012802717
0.00033621984
0.001297425
0.00030140291
0.0013515105
0.00038656807
0.0013381231
0.00031144308
0.0013276404
0.00021266963
0.0014558223
0.0004681671
0.0013936868
0.0004247094
0.0013899732
0.0002982597
0.0015342735
0.00052098914
0.001499766
0.00061620328
0.0015035991
0.00038712174
0.0015183938
0.00044753797
0.0016452181
0.00086710926
0.0018982489
0.00097174464
0.0018563456
0.00074646512
0.0015967101
0.00072816238
0.0016529864
0.00094536036
0.00090651838
0.002132273
0.00072574713
0.00036892467
0.00079449838
0.00067906749
0.00085573683
0.00066826602
0.00090445574
0.00066431371
0.00095893991
0.00060815852
0.0010153685
0.00052107239
0.0010576539
0.00052679994
0.0010970592
0.00040688488
0.0011358872
0.00046028729
0.0011708695
0.00040555287
0.0011950521
0.00032452124
0.0012257523
0.00032972902
0.001260096
0.0003695317
0.0012741959
0.00028567659
0.0013015444
0.00027392302
0.0013436633
0.00038598604
0.0013278643
0.00026308121
0.0013507575
0.00019637591
0.0014457036
0.00049143334
0.0013758036
0.0003588141
0.0014155354
0.00028047928
0.0015500354
0.00055672016
0.0014566982
0.00062157582
0.001502269
0.00039867125
0.001615453
0.00042982065
0.0016433392
0.00083640492
0.0017666609
0.00095934971
0.001822307
0.0005879626
0.0016758152
0.00045318953
0.0016057751
0.00082074083
0.0011456081
0.0019578804
0.00073150443
0.00049086536
0.00079327106
0.00051866926
0.00085268198
0.0007398091
0.00089564443
0.00046277782
0.00094948905
0.00054890301
0.0010064378
0.00057536318
0.0010438471
0.00047302723
0.0010872001
0.00038166051
0.0011244035
0.00040719815
0.0011595457
0.00039719391
0.0011866484
0.00030446088
0.0012198389
0.00029112319
0.0012485075
0.00034850081
0.0012655831
0.00024556032
0.0013026686
0.00024501228
0.001329518
0.00035313903
0.0013187361
0.00023206315
0.001376213
0.00020917398
0.0014262475
0.00047523871
0.0013649747
0.00030079122
0.0014470179
0.00029291773
0.0015625014
0.00056007666
0.0014245456
0.00056670827
0.0015077887
0.00046046645
0.0017070493
0.00046880684
0.0016750781
0.00072813712
0.0016250046
0.00087043756
0.0017193436
0.00053777971
0.0017724842
0.00028450017
0.0017282546
0.00058585002
0.0011538175
0.0018141365
0.00073713834
0.0006189693
0.00079448626
0.00035153754
0.0008467059
0.00075844005
0.00088927313
0.00032867408
0.00094216185
0.00046239975
0.00099454719
0.00057502912
0.0010290313
0.00041289928
0.0010734584
0.00039060154
0.0011089265
0.00032959421
0.0011430526
0.00036494935
0.0011728666
0.00028792972
0.0012097937
0.00025854332
0.0012316648
0.00029884576
0.0012547892
0.00021843068
0.0012991606
0.00022871429
0.0013117436
0.00028894783
0.001309779
0.00021321053
0.0013964392
0.00024601633
0.0013999135
0.00041436659
0.001360428
0.00024078657
0.0014732287
0.00033722121
0.0015591113
0.00052843314
0.0014110297
0.00044939457
0.001497477
0.00048746813
0.0017534594
0.00055476409
0.0017073749
0.00059580263
0.0015320857
0.00066685514
0.0016107081
0.00056714423
0.0018328436
0.00032392963
0.0019361395
0.00043024785
0.00090707295
0.0018479667
0.00074534112
0.00067137396
0.00080216832
0.0002271751
0.00084350586
0.00068801517
0.00088656072
0.00029952374
0.00093652578
0.00037328994
0.00098052397
0.00049985372
0.0010154235
0.00034731567
0.0010562255
0.00039994381
0.0010915086
0.00027482312
0.0011226241
0.00030582839
0.0011543181
0.00027403397
0.0011934915
0.00025585298
0.001210061
0.00022778399
0.0012398052
0.00020427757
0.0012865419
0.00022059828
0.0012909507
0.00020985206
0.0013018089
0.00019402151
0.0014009657
0.00029362217
0.0013669033
0.00032621401
0.001363745
0.00018662934
0.0014819475
0.00039013287
0.0015306438
0.0004706946
0.0014148446
0.00028038098
0.0014848831
0.00044543198
0.0017336985
0.0006397514
0.0017080735
0.00048554777
0.001493385
0.00041571646
0.0015239143
0.00056362421
0.0018266826
0.00054801235
0.0020767605
0.00047810384
0.0006020895
0.0020053837
0.0007669525
0.00058600652
0.00081639758
0.00019866386
0.00084643322
0.00053271966
0.00089064877
0.00035908184
0.00093379943
0.00031490067
0.00096787222
0.00037321199
0.0010035641
0.00029397305
0.0010366226
0.00037437436
0.0010719481
0.0002596387
0.0010997457
0.00023807661
0.0011325123
0.00025073241
0.001169522
0.00026305122
0.0011858542
0.00017220692
0.0012195272
0.00020170547
0.0012630027
0.00022711563
0.0012686416
0.00014225464
0.0012930132
0.00017500378
0.001385614
0.00032633941
0.0013326366
0.00023377537
0.0013733564
0.00015643056
0.0014720138
0.00041797749
0.0014764784
0.00041485086
0.0014262507
0.00011977894
0.0014871196
0.00035695549
0.0016564512
0.00067041953
0.00167469
0.00042668177
0.0015307432
0.0002114066
0.0015005965
0.000466907
0.0017683921
0.0007820898
0.0020572189
0.00068348671
0.00049066346
0.0021043144
0.00083583898
0.00039176281
0.00084228218
0.00028797641
0.00086066715
0.00037008932
0.00090186023
0.0004532707
0.00093579361
0.00030112379
0.00096144027
0.00024233029
0.00099731106
0.00026504252
0.0010221799
0.00030963033
0.0010546664
0.00027231114
0.0010782651
0.00018286266
0.0011095343
0.00022063458
0.001139429
0.0002530688
0.0011598145
0.00013979181
0.0011941552
0.00019962199
0.0012284012
0.00023272028
0.0012425896
0.00010584708
0.0012787135
0.00015709494
0.0013489737
0.00032186709
0.0012975494
0.00015855588
0.0013814063
0.0001445552
0.0014510843
0.00040398784
0.0014023321
0.00037213095
0.0014348864
4.9135623e-05
0.0015185517
0.00026094662
0.0015665887
0.00062841628
0.0015910584
0.00042855001
0.0015834706
0.00010664
0.0015915812
0.00030842216
0.0017155881
0.00083625793
0.0019272345
0.00092128437
0.00051682955
0.0020466169
0.00093185701
0.00017573872
0.00089864112
0.00043803468
0.00090310632
0.00029712468
0.00093258807
0.00053082506
0.00095143434
0.00032937493
0.0009689028
0.00017301993
0.0010011525
0.00026517717
0.0010220349
0.00023328962
0.0010508347
0.00028848946
0.0010739031
0.00015899435
0.001101806
0.00019600575
0.0011205313
0.00022633937
0.0011442884
0.00013039214
0.0011742126
0.00018538172
0.0011933215
0.00022165305
0.0012165575
0.00010233756
0.0012596057
0.00014070152
0.0012994917
0.00028252401
0.0012620673
0.00010223255
0.0013799788
0.0001510462
0.0014179336
0.00035067485
0.0013235858
0.00030879024
0.0014382721
8.21338e-05
0.0015641146
0.00021735181
0.0015073997
0.00052014592
0.0014837526
0.00044649798
0.0015894656
0.0001309685
0.0017222835
0.00021394397
0.001737327
0.00064951046
0.0017600112
0.0009366534
0.0006554397
0.0018432542
0.00095490519
-1.1384145e-06
0.00095079982
0.00052489372
0.00095951223
0.00032421648
0.00098010584
0.00053256292
0.00098948142
0.00036278889
0.0010015669
0.00019114524
0.0010224114
0.00029037605
0.0010397695
0.00019524285
0.0010605147
0.00028147506
0.0010842329
0.00018604981
0.0011075811
0.00017394257
0.0011177034
0.00018380634
0.0011456275
0.00014241057
0.0011712046
0.00016778953
0.0011774727
0.00018513219
0.0012051188
0.0001212089
0.0012502471
0.00013487757
0.0012557767
0.00021884209
0.0012369148
6.9404838e-05
0.0013668064
0.00019101692
0.0013760007
0.00027484292
0.0012584144
0.00020999787
0.0014268582
0.00017371267
0.0015881169
0.0002617184
0.0014711777
0.0003821528
0.0013969058
0.00039633276
0.0015750932
0.00026316145
0.0018040427
0.00025299034
0.0018082578
0.00039489059
0.0016706501
0.00065155396
0.00063692467
0.0016456133
0.00091298897
-0.0001104341
0.00096098905
0.0004823832
0.00099103541
0.00040972679
0.0010181645
0.00043777443
0.0010394695
0.00035725872
0.0010607525
0.00026106942
0.0010737739
0.00030806741
0.0010906583
0.00020081386
0.0011033234
0.00023224748
0.0011242149
0.00021720455
0.0011413176
0.00016376951
0.0011444873
0.00013990504
0.0011692195
0.00017053203
0.0011862613
0.0001530272
0.0011820636
0.00013589481
0.0012088962
0.00014746726
0.0012522263
0.0001455728
0.001232577
0.00013972992
0.0012389064
6.0813952e-05
0.0013514405
0.00025586846
0.0013403766
0.00019794016
0.0012233401
9.7618134e-05
0.0013979937
0.00026625034
0.0015697114
0.00037358738
0.0014430691
0.00025573116
0.0013300073
0.0002572077
0.0015195875
0.00039253633
0.0017748821
0.0003681046
0.0018158417
0.00027760837
0.0016252079
0.00024682653
0.00041001561
0.0015110621
0.00085426447
-7.6494548e-05
0.00092765179
0.00032683559
0.00098079824
0.00048180149
0.0010150813
0.00030049891
0.001049004
0.00030822018
0.001087926
0.00032771928
0.001111175
0.00028160615
0.0011396057
0.00021128861
0.0011557183
0.00016106002
0.0011791565
0.00020079155
0.0011974751
0.00016646633
0.0012027956
0.00010856586
0.0012219601
0.00018397262
0.001231329
0.00013796285
0.0012246019
8.7357756e-05
0.0012427463
0.00016198933
0.0012727692
0.00016654328
0.0012370013
7.2039261e-05
0.0012684533
6.4632349e-05
0.001338627
0.00030515296
0.0013225587
0.00014398387
0.0012424056
-9.3507866e-06
0.0013888884
0.00031817014
0.0015227515
0.00047608575
0.0014200229
0.0001642433
0.0013356219
6.9416966e-05
0.0014681302
0.00040514473
0.0016844966
0.00053338512
0.0017317554
0.00026913191
0.0016147152
2.8798334e-05
9.203429e-05
0.0014563185
0.00082147055
7.3316307e-05
0.00088431397
0.00013423109
0.00094050934
0.00047853318
0.00098520817
0.0001831561
0.0010315338
0.000220634
0.0010773749
0.00033481711
0.001104412
0.00022492949
0.0011368261
0.00020799021
0.0011586512
0.00010448545
0.0011867553
0.00016448932
0.0012099157
0.00016667195
0.0012266845
9.2632876e-05
0.0012466244
0.00015819506
0.0012601615
0.00012038813
0.0012690784
4.1659564e-05
0.0012889405
0.00014529349
0.0013101476
0.0001728332
0.001276138
3.7143191e-05
0.0013333553
7.635512e-05
0.001349316
0.00031909155
0.0013229556
0.00012512357
0.0013116378
-6.7264085e-05
0.0014163127
0.00028609097
0.0014669439
0.00050835912
0.0013932762
0.00011282621
0.0013958096
-6.1739268e-05
0.0014786167
0.00026734288
0.0015757162
0.00060954505
0.0016003071
0.0003561981
0.0015818819
1.3541637e-06
-0.00010088674
0.0015281802
0.00083956675
0.00022332995
0.00088015142
-2.1671974e-05
0.0009131632
0.00039264129
0.00095194377
9.2903906e-05
0.0009980902
0.00012849865
0.0010408843
0.00026565841
0.0010722824
0.00015030876
0.0011055759
0.00016977267
0.0011350071
7.1128305e-05
0.0011657041
0.0001342088
0.0011885356
0.00014441022
0.0012130776
8.0027543e-05
0.0012321908
0.00012576143
0.0012453707
0.00010669317
0.0012694746
2.3309856e-05
0.0012919916
0.00011065717
0.0013101283
0.00015150357
0.0012982269
2.3386397e-05
0.0013890062
8.6868863e-05
0.0013633197
0.00027134028
0.0013296647
0.00012164651
0.0013969982
-4.9632408e-05
0.0014877877
0.00021485759
0.0014309146
0.00043081078
0.0013706732
0.00011786859
0.0014688839
-9.0070065e-05
0.0015783254
0.00011122927
0.0015292535
0.00047335091
0.0014912569
0.0004381681
0.0015212766
8.2360219e-05
-6.2807494e-05
0.0016376882
0.00092670984
0.00031344335
0.00090805017
-4.317098e-05
0.00091963568
0.00027340791
0.00095040803
7.4711321e-05
0.00098349653
8.4140131e-05
0.0010110748
0.00016870938
0.0010372472
9.4252874e-05
0.0010621534
0.00011314837
0.001094884
7.337452e-05
0.001124105
0.00011020347
0.0011454291
0.00010158997
0.0011778837
5.818666e-05
0.0011986718
9.6455317e-05
0.001212831
8.3382097e-05
0.0012511408
3.3989445e-05
0.0012736348
7.3965596e-05
0.0012844338
0.00010701255
0.0012929416
2.642346e-05
0.0014012561
0.00010906804
0.0013488506
0.00016721459
0.0013159616
0.00010676994
0.0014462531
2.3009153e-05
0.0015332102
0.0001562154
0.00140221
0.00025421975
0.0013555468
0.00011792518
0.0015244569
-2.1720241e-05
0.0016694861
6.9469826e-05
0.0015598125
0.00022893223
0.001438234
0.00033523662
0.0015057017
0.00020836776
8.7990308e-05
0.0017260578
0.0009954646
0.00023314432
0.00096494937
5.0782233e-05
0.00095674268
0.00018830088
0.00097902951
0.00013292176
0.00099814075
0.00010215525
0.001012714
7.6972183e-05
0.0010351537
7.9958408e-05
0.0010527088
7.7031789e-05
0.001080898
0.00011381276
0.0011010687
9.5001805e-05
0.0011155078
6.7285399e-05
0.0011478368
5.3779405e-05
0.0011638542
6.4519783e-05
0.0011762199
5.5472657e-05
0.0012191668
6.8418269e-05
0.0012411391
4.5393414e-05
0.0012472392
4.7542336e-05
0.0012724072
3.6621784e-05
0.001377574
0.00013958924
0.0013199621
4.7740547e-05
0.0012869132
5.1649987e-05
0.0014440733
0.00012475107
0.0015255124
0.00014924461
0.0013713456
5.8289963e-05
0.0013217364
4.6008191e-05
0.0015313807
0.00010224558
0.0017038966
0.00015783027
0.0016044915
6.722517e-05
0.0014280435
9.0074622e-05
0.001489181
0.00020582741
0.00025767632
0.0017286049
0.0009807152
-1.8969827e-05
0.00099824331
0.00017020651
0.00099908459
0.00017746886
0.0010272656
0.00019985043
0.0010372293
0.00015557121
0.0010431281
5.1969537e-05
0.0010570168
9.9676939e-05
0.0010707348
7.2247907e-05
0.001093339
0.00013826651
0.0011076326
7.2860869e-05
0.0011190209
3.7905953e-05
0.0011486225
7.6048369e-05
0.0011586767
3.5308679e-05
0.0011697374
3.3822618e-05
0.0012055433
0.00010605917
0.0012231627
3.6350161e-05
0.0012254611
-6.8733744e-07
0.0012588551
4.2729694e-05
0.001337076
0.00016740528
0.0012938791
-4.0900764e-05
0.0012713125
-2.6916676e-05
0.001415439
0.00022640077
0.0014779182
0.00016512747
0.0013507171
-7.0312946e-05
0.0013075424
-6.1033225e-05
0.0015101705
0.00024535001
0.0016452211
0.00027398646
0.0015846093
3.9296534e-05
0.0014541146
-0.00012355748
0.0014748237
5.6174906e-05
0.00031913633
0.0016798826
0.00089500995
-0.00031137337
0.00096839174
0.0002231369
0.00099333236
0.00022275294
0.0010339249
0.00021455929
0.0010605691
0.00017726563
0.0010821658
5.2919488e-05
0.0010986467
0.0001110522
0.0011145645
7.5729228e-05
0.0011292786
0.00011945347
0.0011386405
3.9288776e-05
0.0011499815
2.0867379e-05
0.0011696328
0.00010798265
0.0011740609
1.2105196e-05
0.0011860782
1.5727738e-05
0.0012098226
0.00012197225
0.0012230419
4.0247247e-05
0.0012277564
-2.8970321e-05
0.001265693
3.7231578e-05
0.0013011291
0.00018092043
0.0012806229
-8.7747981e-05
0.0012903056
-9.4666394e-05
0.0013804597
0.00024501233
0.0014130437
0.00020792399
0.0013301053
-0.00012595026
0.0013447734
-0.00016009195
0.0014820366
0.00025768768
0.0015608608
0.00040813815
0.0015102512
5.9549221e-05
0.0014765974
-0.00019395068
0.001505967
-7.6619e-05
0.00024694056
0.0016105697
0.00094231976
-0.0004818889
0.00098673844
0.0002049423
0.0010018521
0.00028398444
0.0010406732
0.00017428182
0.0010689329
0.00016521786
0.0011006085
6.5853515e-05
0.0011231774
0.00011079156
0.0011484481
6.1783741e-05
0.0011642203
7.011467e-05
0.0011799887
4.420738e-06
0.0011996935
1.4503854e-05
0.0012119162
0.00011017442
0.0012182035
3.2770319e-06
0.0012351273
5.066352e-06
0.0012455255
0.00010702331
0.0012527416
4.2688263e-05
0.0012622659
-2.88237e-05
0.0013055192
2.6068128e-05
0.0012904359
0.00016104558
0.0012918987
-8.6138096e-05
0.0013453342
-0.00011155775
0.0013842384
0.00017925311
0.0013651087
0.00022339027
0.0013237425
-0.00011238536
0.0014176079
-0.00017506985
0.0015103968
0.00016302114
0.0014780756
0.0004059386
0.0014215269
0.00013655139
0.0014772976
-0.00015695725
0.0015776096
-0.00014955947
0.00012804177
0.0016111805
0.0010147397
-0.00037816353
0.00097935052
0.00018383326
0.00099954347
0.00027355328
0.0010364099
0.00011690836
0.0010670192
0.00011527973
0.0011046282
5.5850688e-05
0.0011286685
7.5310335e-05
0.0011592365
3.565594e-05
0.0011792132
1.8655956e-05
0.0012048152
-1.1170656e-05
0.0012347839
1.0677191e-05
0.0012454687
6.8032307e-05
0.0012625724
1.2598626e-06
0.0012904234
-1.6340632e-06
0.0012960963
6.1113039e-05
0.0013060217
3.180409e-05
0.0013261116
-1.4660704e-05
0.0013788873
1.4541697e-05
0.0013279055
9.3788035e-05
0.0013519446
-4.4377529e-05
0.0014393695
-7.6316089e-05
0.0014468581
8.3522512e-05
0.0013726276
0.0001466849
0.0013695201
-4.9377504e-05
0.0015218138
-0.00011207274
0.0016020467
5.4642871e-05
0.001476819
0.00022765178
0.0014022369
0.00014290396
0.001515611
-7.044101e-05
0.0016837892
-9.9327106e-05
3.4470205e-05
0.001687715
0.00079674573
0.00086330684
0.0010800841
0.0011264094
0.0011970669
0.0012371244
0.001283738
0.0013127577
0.0013444856
0.001372106
0.0014047088
0.001415409
0.0014395829
0.0014776664
0.0014805724
0.0014928011
0.0015197391
0.0015822143
0.0015163948
0.0015462258
0.0016578863
0.0016574468
0.0015551326
0.0015600231
0.0017393322
0.001830827
0.0016720218
0.0015473794
0.0016898323
0.0019178262
0.0019480726
-0.00012975746
0.0015912683
-0.00023146677
0.0014410854
-0.0002134282
0.0014977415
-4.2573184e-05
0.001649362
0.00025574537
0.0018181981
0.00051820795
0.0018621015
0.00057404346
0.0017978858
0.00045558028
0.0016543509
0.00034359593
0.0015251286
0.00039289715
0.0015092136
0.00063653352
0.0015769588
0.0010356856
0.0016727952
0.0012377994
0.0017410141
0.0010740589
0.0017415732
0.00065394861
0.001657179
0.00033205602
0.0016179704
0.00038558536
0.001721373
0.00084669649
0.0019933371
0.0013914895
0.0022856665
0.0015878751
0.0023653754
0.0013996017
0.0021918196
0.0010490754
0.0018874731
0.0016640572
0.00071429346
0.00010160796
0.0015011105
0.00026193598
0.0013794505
0.0004443053
0.0013913907
0.00051571359
0.0014685663
0.00039149074
0.0015048026
0.00014477174
0.0015085486
-6.8248838e-05
0.0014975063
-0.00016383678
0.0015178735
1.6579207e-05
0.0016085594
0.00043049023
0.0017878606
0.00092420398
0.0019102955
0.0011619013
0.0019076988
0.0010717289
0.0017707334
0.00073677734
0.0015962351
0.00045836327
0.0014810915
0.00053549199
0.0014730741
0.00096235043
0.0016050592
0.0014100852
0.0018592784
0.0014826997
0.0020575362
0.0011514872
0.0020537557
0.00061647389
0.0019071809
0.00035030786
0.0018089243
0.0018707808
0.0006253669
0.00042077808
0.0017876157
0.00071689711
0.0015871695
0.00078548767
0.0014580873
0.00061774689
0.0013593105
0.00034203677
0.0012771843
7.6949879e-05
0.001232872
1.2060153e-05
0.0012514939
0.00018433421
0.001329612
0.00050299697
0.001510946
0.00073144723
0.0016824332
0.00070732155
0.0017460812
0.00044060052
0.0017403361
0.00011904832
0.00169943
0.00012189112
0.0016817734
0.00044357227
0.0017597269
0.001054817
0.0018416639
0.0016114016
0.0018680703
0.0017736928
0.0018057593
0.001386485
0.0017163399
0.00069169534
0.0015711283
0.00025798459
0.0014607841
0.00037699609
0.0015853146
0.0019653497
0.00099453767
7.7360186e-05
0.0017442051
-3.5894022e-05
0.0015616303
-0.00017428622
0.0014882176
-0.00018827825
0.001453231
-5.7516642e-05
0.0014686046
0.00027334167
0.0014801516
0.00078172448
0.0014875049
0.0012018685
0.0014453667
0.0012982363
0.001402669
0.00095900422
0.0013647089
0.00040915907
0.0012992673
-4.280897e-05
0.0012763241
-0.00022388502
0.0013497308
6.7534548e-05
0.0015787707
0.000694879
0.0018928341
0.0012322088
0.0020910216
0.0013562101
0.0020775447
0.0011234092
0.0019312759
0.00073398392
0.0017241863
0.00048633288
0.0015908555
0.00065218465
0.0014816054
0.0012498929
0.0015331179
0.0017976898
0.0018837926
-0.00043556366
0.0013332445
-0.000763978
0.0012526234
-0.00082609499
0.0013154973
-0.00061691815
0.0014507672
-0.00013308797
0.0016252004
0.00041019484
0.0016966196
0.0008295753
0.001697478
0.000921571
0.0016219042
0.00073932009
0.0014769091
0.00043520841
0.001352527
0.00021722792
0.001261686
0.00024954724
0.0011969047
0.00068008277
0.001244217
0.0011639709
0.0013779661
0.0013997417
0.0016172186
0.0011416353
0.0017639928
0.00057622611
0.0017561306
-2.6331521e-05
0.001721175
-0.00016209986
0.0017257039
0.00021230844
0.0018805324
0.0011031827
0.0020126897
0.0020701592
0.0020012648
0.0019079679
0.0025063587
-3.85116e-05
0.0012499391
8.958835e-05
0.0011425728
0.00028472978
0.0011567077
0.00046006222
0.0012596585
0.00053911103
0.0013914646
0.00039650861
0.001416971
3.3633418e-05
0.0014257023
-0.00042170486
0.0014345911
-0.00067846707
0.0014569114
-0.00058391442
0.0015247647
-3.6674182e-05
0.0016275456
0.00081282811
0.001632087
0.0015901486
0.0015762182
0.0020641641
0.0014806504
0.0019379261
0.0014251641
0.0012387567
0.0013804599
0.00029681569
0.0012689253
-0.00033001961
0.0012258483
-0.00028678097
0.0014042463
0.00036291272
0.0017939061
0.0012418764
0.0021799813
0.0017904015
0.0022791065
0.0021732854
0.0019127686
0.00063711754
0.0015925199
0.0011797624
0.0013844027
0.0014913915
0.0012545384
0.0015060123
0.0011775692
0.0010449827
0.001122424
0.0003399134
0.0010372314
-0.00036274617
0.0010014944
-0.00078107839
0.0010623551
-0.00079618945
0.0012187914
-0.00046286377
0.0014488289
6.7854444e-05
0.0016874706
0.00067510575
0.0017769924
0.0010936981
0.001774748
0.00113171
0.0016938823
0.00093618179
0.0015430224
0.00066360201
0.0014417043
0.00046702887
0.0013064897
0.00062470637
0.0011648628
0.0011007147
0.0011927998
0.0015761648
0.0014300598
0.001724388
0.0018033259
0.001367168
0.0020020869
0.0019680087
0.0007919019
0.00027235197
0.0017441862
0.00043507814
0.0015361747
0.0004268225
0.0014143468
0.00027885421
0.0012889005
0.00015021073
0.0011956507
0.0001072375
0.0010796581
0.000275498
0.00098065249
0.00062178313
0.00097197747
0.00090223293
0.0010430328
0.001091822
0.0011922074
0.0010133587
0.0013893103
0.00060620072
0.0014769152
-8.0842667e-06
0.0014839978
-0.00060680679
0.0015114333
-0.00084885118
0.0015554169
-0.00058138715
0.0016527561
0.00021118639
0.0017381695
0.0013621565
0.0016385651
0.0023410076
0.0014878534
0.002844947
0.0013966527
0.0025963149
0.0014533255
0.0016635435
0.0015455233
0.0014969299
0.00034287367
-0.00052251314
0.0015460282
-0.0011880553
0.0013761329
-0.0016941316
0.00131165
-0.0017805922
0.0013115545
-0.0013562073
0.0013836498
-0.00036167166
0.001411861
0.00082417752
0.0013485627
0.0017946179
0.0012628423
0.0023711135
0.0011709283
0.0024401413
0.0011132587
0.0019013089
0.0011197316
0.00084694445
0.0011186075
-0.00029758502
0.0010625794
-0.0011322862
0.0010902696
-0.0013912906
0.0012677526
-0.00094559078
0.0015411157
-5.703385e-05
0.0018332355
0.00094392389
0.001940148
0.001789638
0.0018486893
0.0022498639
0.001686937
0.0022737685
0.0015458632
0.0017947707
0.0014685072
0.0013068074
0.00074875737
-0.0011590834
0.0011971085
-0.0018363408
0.0011059558
-0.001895145
0.0011220922
-0.0015042041
0.0012380598
-0.00091930134
0.0013914248
-0.00029474483
0.0014582392
0.00029400046
0.0014397444
0.00089100621
0.0014344014
0.0013554246
0.0014104782
0.0015043345
0.0013080363
0.0012634105
0.0011893533
0.00072133119
0.001071046
0.00021488605
0.00090303063
0.00011029035
0.00084944116
0.00027961685
0.00098882352
0.00050765963
0.0012575679
0.00073681275
0.0015701481
0.00071259239
0.0017792673
0.00058322599
0.0017792184
0.00035930056
0.0017279343
0.00011097407
0.0016820232
0.00010479062
0.0016529438
0.0015810071
0.00044534499
0.00012725234
0.0011653706
0.00031421578
0.0010079439
0.0004527987
0.00095379291
0.00047285046
0.001050429
0.00042595972
0.0012058676
0.00035582692
0.0012971521
0.00012113051
0.0013023625
-0.00032380784
0.0013147046
-0.00085391407
0.0013465063
-0.0012751137
0.0013524858
-0.0012133695
0.0013401098
-0.00046702746
0.0013258742
0.00058740529
0.0011977522
0.0017525586
0.0010244424
0.0024258408
0.00096780821
0.0025118409
0.0010670434
0.0022296087
0.0012709247
0.0014287232
0.0014812144
0.00030965074
0.0015280736
-0.00086599972
0.0014736746
-0.0016900321
0.0015004549
-0.001720297
0.0016308153
0.0017842343
-0.00082956996
0.001410227
0.0014200795
0.0024214807
0.0011876918
0.0028413229
0.00098971364
0.00270886
0.00094388916
0.0020704045
0.00099489694
0.0011278799
0.0010557196
-4.4758913e-05
0.0010656696
-0.0012777762
0.0010915114
-0.0023104607
0.0011607153
-0.0028000733
0.0012430864
-0.0025625827
0.0013297639
-0.0016264581
0.0014425096
-7.6975406e-05
0.0014489375
0.001571996
0.0013250529
0.0029175964
0.0012184479
0.0035852313
0.0011679396
0.0033858039
0.0011641636
0.0023422029
0.0012469155
0.00065053065
0.0012633798
-0.0010005326
0.0011876312
-0.0020202072
0.0012386507
-0.0022029409
0.0014541917
0.0016893393
-0.001465629
0.0011498911
0.001565307
0.0020653138
0.0013858183
0.0027687983
0.0011542484
0.0030473102
0.0010228901
0.0027213785
0.00096332187
0.0016366258
0.00092397927
3.9019897e-05
0.00086015969
-0.001440262
0.00086464447
-0.0022101249
0.00097156597
-0.0022617158
0.001115878
-0.0018138923
0.0012533371
-0.0011178567
0.0014020564
-0.00031938036
0.0014570904
0.00056962631
0.0013952395
0.0014777135
0.0013468908
0.0022141713
0.0013203527
0.0025592953
0.0012768316
0.0022218684
0.001247715
0.0011801672
0.001198671
-0.00013904621
0.0010289122
-0.00098973764
0.0010178846
-0.001174299
0.0012576696
0.0015162471
-0.00076097375
0.00034446863
0.0015669931
0.0006280587
0.0014519424
0.00085424673
0.0012457345
0.0010085047
0.0011150062
0.00098619171
0.0010330575
0.0007180995
0.00096042997
0.00022849477
0.00084055836
-0.00022400759
0.00078810382
-0.00040361144
0.00087154727
-0.00032585236
0.0010128734
-0.00017172619
0.0011587231
-4.0964754e-05
0.0013136369
4.702498e-05
0.0013819776
7.1750291e-05
0.0013483207
6.3094947e-05
0.001319247
0.00010428703
0.0013398084
0.00017736285
0.001355758
0.00033869124
0.0013352193
0.00052275239
0.0012995859
0.00066706111
0.0011088715
0.00070214079
0.00098912544
0.00064383592
0.0011414804
0.0013799771
0.00062575876
-0.0003857761
0.0015049388
-0.00085798945
0.0014365393
-0.0012612248
0.0012551455
-0.0015721451
0.0011405193
-0.0015343774
0.0010827905
-0.00097921512
0.0010383153
1.4466292e-05
0.00093278542
0.0011138997
0.00085817276
0.0018132778
0.00089598978
0.0019419296
0.00098580055
0.001589572
0.0010878121
0.0011137741
0.0012166388
0.00053132806
0.001294219
-0.0001328401
0.0012692896
-0.00085687177
0.0012475454
-0.0014715865
0.0012931409
-0.001859075
0.0013469372
-0.0017542415
0.0013645341
-0.00082920733
0.0013849861
0.0005631636
0.0012512327
0.0018005163
0.001088986
0.002359546
0.0011667621
0.0013494002
0.0021560648
-0.0010561181
0.0014348747
-0.0020738565
0.0013897718
-0.002926236
0.0012226706
-0.0033776768
0.0011239289
-0.0031877093
0.0010897987
-0.0021372086
0.0010726435
-0.00025649367
0.0010057878
0.0016905279
0.00094616632
0.0030499958
0.00096983344
0.0034912734
0.0010215436
0.0030863646
0.0010872709
0.0021920702
0.0011720066
0.0010510922
0.001235429
-0.00019259532
0.0012047276
-0.0014448544
0.0011853718
-0.002558583
0.0012440757
-0.0032143552
0.0013162503
-0.0031212434
0.0013395835
-0.0020095162
0.0013881805
4.5936178e-06
0.001313279
0.0020091467
0.0011728917
0.0031818892
0.0012266634