/*--------------------------------*- C++ -*----------------------------------*\
| =========                 |                                                 |
| \\      /  F ield         | OpenFOAM: The Open Source CFD Toolbox           |
|  \\    /   O peration     | Version:  2406                                  |
|   \\  /    A nd           | Website:  www.openfoam.com                      |
|    \\/     M anipulation  |                                                 |
\*---------------------------------------------------------------------------*/
FoamFile
{
    version     2.0;
    format      ascii;
    arch        "LSB;label=32;scalar=64";
    class       volScalarField;
    location    "85";
    object      rho_0;
}
// * * * * * * * * * * * * * * * * * * * * * * * * * * * * * * * * * * * * * //

dimensions      [1 -3 0 0 0 0 0];

internalField   nonuniform List<scalar> 
20580
(
1.0029476
1.0064602
1.0032811
1.0043191
1.0070294
1.0057728
1.0048101
1.0062422
1.0061679
1.0073905
1.0068973
1.0083481
1.0083268
1.0079199
1.0083709
1.0083369
1.0063651
1.0078968
1.0096492
1.0043431
1.0069355
1.0088643
1.0053168
1.0036222
1.0112659
1.0123416
1.0036637
1.005794
1.0081541
0.9987451
1.0035078
1.0031511
1.0066221
1.0035765
1.0037605
1.0072704
1.0059112
1.0047308
1.0061753
1.0063138
1.0074465
1.0064907
1.0087188
1.0083039
1.0075818
1.0088777
1.0079967
1.0057394
1.0096529
1.0084228
1.0037331
1.0089112
1.0079989
1.0041343
1.0053535
1.0138008
1.0134023
1.0001334
1.0005423
1.0118369
1.0077468
0.99994361
1.0031267
1.0063759
1.0046735
1.0041313
1.0067016
1.0055515
1.0050098
1.005813
1.0066449
1.0072889
1.0065951
1.0086498
1.008404
1.0074413
1.0091901
1.0078294
1.0056316
1.0108094
1.0076537
1.0037715
1.0105007
1.007533
1.0037282
1.0063542
1.0132469
1.0132026
0.99916476
0.99701332
1.0134361
1.0177447
1.001466
1.002776
1.0057971
1.0060332
1.0052754
1.0055847
1.0049025
1.0054952
1.0053929
1.0068382
1.0068827
1.0071409
1.0083461
1.0083963
1.0076761
1.0091892
1.0078783
1.006072
1.0109729
1.0069359
1.004698
1.0113484
1.0066893
1.004424
1.0072469
1.0097957
1.0107207
1.0011552
0.9965736
1.011659
1.0252712
1.0105489
1.0023819
1.0049721
1.0069184
1.0065605
1.0044007
1.0045361
1.005917
1.0053458
1.0067042
1.0064034
1.0077871
1.0080124
1.0082038
1.0081868
1.0086865
1.0079738
1.0070417
1.0103312
1.0059626
1.0063075
1.0113219
1.0052006
1.0060569
1.009105
1.0052131
1.0062819
1.0050412
0.99992646
1.0078525
1.023793
1.021315
1.0021463
1.0043293
1.0069704
1.0075465
1.0037448
1.0047851
1.0059663
1.005752
1.006393
1.0061553
1.0081968
1.007824
1.0079312
1.0088586
1.0081146
1.0080515
1.0083935
1.0091713
1.0052877
1.0080265
1.0102669
1.0034834
1.0072706
1.0117947
1.002399
1.0011856
1.0089524
1.0072174
1.0045878
1.0125456
1.022471
1.0021542
1.0041056
1.0061877
1.0077687
1.0039844
1.0054519
1.0056457
1.006265
1.0061017
1.0063227
1.008055
1.0077837
1.0077704
1.0093692
1.007958
1.0080394
1.0096189
1.007869
1.0051406
1.0094572
1.0088629
1.0020812
1.0076144
1.0140621
1.0025395
0.99752727
1.0108879
1.0163093
1.0054101
0.99918556
1.0102918
1.002286
1.0044766
1.0050037
1.006856
1.0049681
1.0061629
1.0052067
1.0065509
1.0059625
1.0068082
1.0076905
1.0077569
1.0078372
1.0095164
1.0079992
1.0079743
1.0103239
1.0069072
1.0054538
1.0102007
1.0075958
1.0017615
1.00744
1.0145008
1.0046461
0.99713245
1.0098414
1.0220713
1.0105424
0.99366859
0.99344256
1.002504
1.0053444
1.0041365
1.0053096
1.0061627
1.0064441
1.0050652
1.006473
1.0059344
1.0072598
1.0074896
1.0077534
1.0082011
1.0093326
1.0081857
1.0079733
1.0103929
1.0064353
1.0063941
1.0102005
1.0062161
1.0032502
1.0073569
1.0119959
1.0070063
1.0001499
1.0074802
1.0204586
1.016249
0.99686278
0.9867167
1.0031205
1.0064166
1.0041112
1.0040564
1.0070805
1.0060019
1.005277
1.0059604
1.005947
1.0073902
1.0073786
1.0077242
1.0086526
1.0089627
1.0086588
1.0081146
1.0098819
1.0062546
1.0079423
1.0097519
1.0048177
1.0064007
1.0080159
1.0072912
1.0077343
1.0053916
1.0060574
1.0119938
1.0162315
1.005395
0.99303709
1.0035976
1.0073545
1.0048625
1.0037553
1.0073856
1.0051902
1.0056563
1.0053557
1.0061013
1.00719
1.007334
1.0077593
1.0089335
1.0083547
1.0091346
1.0084851
1.0090122
1.0063687
1.0094805
1.00874
1.0036817
1.00965
1.0098968
1.002724
1.0057835
1.0110354
1.0071037
1.0024972
1.0070663
1.0121297
1.0070311
1.0033925
1.0074455
1.0059527
1.0043487
1.0069055
1.0045463
1.0060173
1.0051288
1.0065342
1.0068704
1.0072798
1.0080222
1.009055
1.0078842
1.0093483
1.0090089
1.0081503
1.0068957
1.010597
1.0077481
1.002857
1.0116912
1.0121691
1.0001388
1.0023905
1.0146638
1.0107513
0.99831169
0.99558416
1.010871
1.0196138
1.0028691
1.0066521
1.0067587
1.005814
1.0059504
1.0045333
1.0060674
1.005327
1.0069756
1.0068009
1.0069822
1.0083084
1.0090424
1.0078488
1.0094896
1.0095529
1.0076258
1.0075492
1.0109166
1.0072917
1.0026692
1.0119492
1.0136705
0.99955076
1.0003079
1.0146922
1.0151782
0.99965316
0.9912634
1.0037792
1.022914
1.0023978
1.0051743
1.0067703
1.0075178
1.0049035
1.0051609
1.0055914
1.0057407
1.0070669
1.006813
1.0066984
1.0084198
1.0089273
1.0080583
1.0095466
1.0098767
1.0075644
1.0082304
1.0102831
1.0069696
1.0036881
1.0107044
1.0125875
1.0012514
1.0008289
1.0117427
1.0165016
1.0045311
0.99534977
0.99905273
1.016292
1.0022431
1.0040456
1.0061869
1.0084104
1.00429
1.0060872
1.0050188
1.0061569
1.0067124
1.0066639
1.0068679
1.008343
1.008571
1.0084957
1.0092961
1.0098078
1.0078189
1.0091284
1.0089598
1.006633
1.0060721
1.0090606
1.0085966
1.0040517
1.0040032
1.0085844
1.0118501
1.009833
1.0035572
1.0018555
1.0070512
1.0022426
1.0038566
1.0053397
1.0080844
1.0044874
1.0067338
1.0048777
1.0063925
1.0060872
1.0066311
1.0074673
1.0080557
1.0080944
1.0092117
1.0089615
1.0094469
1.0082305
1.0100815
1.007325
1.0062065
1.0092122
1.0080699
1.0036469
1.0059225
1.0093763
1.0076258
1.0036677
1.0090329
1.01282
1.0094861
1.0033151
1.0025899
1.0047169
1.0047562
1.0068715
1.0053587
1.006575
1.0051791
1.006285
1.0056084
1.0066946
1.00805
1.007708
1.0078009
1.0098809
1.0088367
1.0089691
1.0086958
1.0107405
1.006207
1.0056903
1.01193
1.0082601
1.0001323
1.0058325
1.0149834
1.0093359
0.9982519
1.002537
1.0168398
1.0182156
1.0068888
1.0030796
1.0061697
1.0047113
1.0050663
1.0064854
1.0056754
1.0057496
1.0059885
1.0055435
1.006584
1.0081017
1.0075191
1.0076884
1.0101581
1.0088468
1.0084603
1.0090611
1.0109988
1.0057355
1.0054168
1.013097
1.0092908
0.99901755
1.0049419
1.0177415
1.0125107
0.99768853
0.99705954
1.0135791
1.0225788
1.0125224
1.0033097
1.0074947
1.005239
1.0038977
1.0074547
1.0049171
1.0063058
1.0058654
1.0061462
1.006564
1.0077765
1.0076676
1.0078412
1.0101031
1.0090225
1.0082573
1.0092506
1.0108007
1.006072
1.0057459
1.0123896
1.0100452
1.0004571
1.0044382
1.0163644
1.0139145
1.0002623
0.99746671
1.0073421
1.0189214
1.0151876
1.003175
1.0078255
1.0058509
1.0038976
1.0076397
1.0046037
1.0065203
1.0059142
1.0068446
1.0066716
1.0073413
1.0080314
1.0081955
1.0097152
1.0092982
1.0085461
1.0093724
1.0098206
1.0072682
1.0069699
1.0100786
1.0093992
1.0035291
1.0058645
1.0118451
1.0111697
1.0041521
1.0017763
1.0047313
1.0100499
1.0118503
1.0028173
1.006762
1.0060589
1.0050792
1.0067099
1.0049224
1.0061756
1.0058671
1.0068388
1.0067253
1.0069759
1.0081043
1.0086119
1.0089412
1.0094234
1.0092079
1.0096577
1.0084145
1.0085259
1.0087928
1.0075148
1.0069686
1.0073749
1.0085575
1.007594
1.0048596
1.0073681
1.0085242
1.0069335
1.0028972
1.0048234
1.002387
1.0052194
1.0059016
1.0072061
1.0054421
1.0060225
1.0055969
1.0059177
1.0064003
1.0069006
1.007047
1.0080161
1.0092316
1.0083139
1.0096098
1.0100849
1.0102392
1.0072032
1.0093135
1.0111287
1.0059864
1.0040697
1.0097573
1.0124849
1.0058816
0.99913563
1.006607
1.0161802
1.0128803
1.0018069
0.99892778
1.0023298
1.0046833
1.0057755
1.0097365
1.0047738
1.0075314
1.0054156
1.0064504
1.006352
1.0075909
1.0076168
1.0081409
1.0100645
1.0083473
1.0098025
1.0108852
1.0111647
1.0068372
1.0094317
1.0134275
1.006109
1.0025183
1.0097305
1.0159804
1.0072002
0.99667537
1.0031491
1.0191319
1.0194563
1.0054129
0.99710633
1.006377
1.0087148
1.008624
1.0062943
1.0011144
0.99480693
0.99431516
1.0025803
1.016793
1.0269769
1.0271638
1.0156765
1.0009127
0.99516627
1.0016123
1.0129459
1.0179076
1.0106862
0.99559215
0.98729445
0.99514542
1.0157721
1.0344532
1.0242154
1.0196544
1.0115621
1.0025971
0.99740802
0.99768066
1.001898
1.0066961
1.0095439
1.0080331
1.0015105
0.99724731
1.001877
1.0159699
1.0306996
1.0341863
1.0222972
1.000912
0.98448181
0.9840794
0.99765062
1.0154056
1.0264579
1.0078124
1.0034349
1.0042682
1.0115473
1.0215405
1.027507
1.0268507
1.0164575
1.0009423
0.98759991
0.98440114
0.99123003
1.0053493
1.019927
1.0272068
1.0217857
1.0089239
1.0008754
1.0045935
1.0174919
1.0262457
1.0214874
1.005074
0.98435589
0.98964027
1.0019162
1.0162535
1.0278297
1.0319228
1.0232029
1.0103708
1.0013157
1.0021813
1.0111878
1.0196204
1.0218228
1.0128506
0.99704665
0.9828558
0.97998825
0.99327774
1.0201468
1.0469644
1.0538508
1.0355682
1.0025435
1.007637
1.0119307
1.0118493
1.0078191
1.0007101
0.99307255
0.98779377
0.98936094
1.0020555
1.0237759
1.0439916
1.0510062
1.0391354
1.0128881
0.98775716
0.97749492
0.98242201
0.99853227
1.0159473
1.0305137
1.0306634
1.0151353
1.0008278
1.0447248
1.0344531
1.0184841
1.0013796
0.98858672
0.98141733
0.98295881
0.9920438
1.0053781
1.0185512
1.0289988
1.0289483
1.0172366
1.0060747
1.0052554
1.0171952
1.0318591
1.0357729
1.0254283
1.0038851
0.98179482
0.97131667
0.97639064
1.0229439
1.0153912
1.0103532
1.007554
1.0124263
1.0227788
1.0314735
1.0311765
1.0201659
1.0027842
0.9872412
0.97757203
0.97583829
0.98535312
1.009085
1.0425197
1.0720793
1.0743502
1.0470779
1.0067103
0.97578799
0.96645919
0.97166299
0.97942988
0.9797727
0.9896124
1.0104496
1.0397709
1.06309
1.0708479
1.0565133
1.0308005
1.0032825
0.98427026
0.97652915
0.9779737
0.98789643
1.0031526
1.0241377
1.0444815
1.0475976
1.0341936
1.01719
1.0081739
1.0119153
1.0209906
0.9822111
0.99043087
1.0026268
1.014174
1.0244315
1.0327039
1.0365945
1.0306403
1.0214398
1.0134738
1.0160802
1.0282959
1.0391442
1.0378791
1.0230456
1.0027465
0.9886673
0.98418339
0.98417219
0.99275023
1.0154684
1.0515994
1.0877402
1.0473101
1.0424199
1.0286621
1.0101098
0.99450715
0.98435778
0.97913797
0.97779317
0.98568015
1.0050956
1.0402854
1.0797743
1.1037695
1.0931857
1.0542183
1.009821
0.977181
0.9626127
0.95988815
0.96908284
0.99450469
1.0369364
1.087292
1.1018895
1.0760452
1.0392625
1.00617
0.98521536
0.9760347
0.9734099
0.97296376
0.98026327
0.99869786
1.0286589
1.0687418
1.1011275
1.0969963
1.0687082
1.0308852
1.0025915
0.99244912
0.99533172
0.99731513
1.0013212
1.014496
1.0370741
1.0692859
1.0535664
1.0374725
1.0228966
1.0131522
1.0121256
1.0172154
1.0217889
1.024742
1.0218811
1.019547
1.024026
1.0340395
1.0403832
1.0376978
1.0326511
1.0320894
1.0428187
1.062105
1.0669119
1.0524637
1.0263984
1.0061629
1.0090256
1.0067532
1.0097494
1.0220481
1.0451192
1.0745988
1.0965776
1.0986083
1.0771454
1.0429223
1.0120411
0.99475699
0.99013306
0.99006908
0.99177953
1.0006618
1.0248567
1.0712109
1.1213536
1.1432658
1.1132513
1.0584156
1.0078574
0.97871004
0.98000625
0.98809748
1.0114967
1.0541639
1.1096662
1.1541176
1.1575888
1.1168961
1.0586359
1.0120944
0.98827339
0.98089331
0.9824901
0.9797622
0.98588618
1.0091852
1.061292
1.1293511
1.1755479
1.1565771
1.0918016
1.0260484
0.98340387
0.98660684
0.99445503
1.0157223
1.05602
1.1089109
1.1533164
1.1615007
1.1260041
1.0713298
1.0260871
1.0018978
0.99677223
1.0012912
0.99930863
0.99893628
1.0115662
1.0493743
1.1064403
1.1576988
1.1575659
1.1081808
1.0491125
1.0124589
1.0145634
1.0163679
1.0281928
1.0554635
1.0937114
1.126776
1.1350369
1.1111503
1.0733224
1.0417143
1.0270833
1.0296007
1.0354318
1.0321097
1.025324
1.024981
1.0448387
1.0846168
1.1270372
1.1350546
1.1048605
1.0640934
1.0492238
1.0469874
1.041043
1.0421633
1.0559996
1.0801531
1.1024565
1.1093845
1.09355
1.0703365
1.0534561
1.0510294
1.0612196
1.069869
1.0662629
1.0520047
1.039648
1.0471129
1.0728824
1.1014406
1.1132932
1.0935953
1.0691536
1.0801458
1.0727508
1.0588973
1.0510364
1.0563573
1.0736533
1.0913001
1.0987926
1.0859123
1.0690338
1.0617683
1.0696746
1.0875192
1.100037
1.0933253
1.0693819
1.049415
1.050667
1.0678469
1.0885695
1.0998549
1.0831911
1.0697748
1.0973059
1.0879065
1.0699594
1.0584422
1.0611334
1.0764821
1.0923894
1.0987353
1.0874451
1.0734764
1.0728044
1.0868293
1.1088357
1.1202532
1.1092055
1.0796878
1.0547922
1.0538888
1.0712337
1.0892868
1.0970646
1.0798192
1.0734528
1.1087466
1.0979126
1.0780801
1.0657542
1.0701062
1.0887445
1.105116
1.1100024
1.0971763
1.0832863
1.0830227
1.0993415
1.1197061
1.1278162
1.1121881
1.0825148
1.0616581
1.0650743
1.0839937
1.1009724
1.1005024
1.0847217
1.0831557
1.1089444
1.0980669
1.0812881
1.0732336
1.0837844
1.108025
1.1289937
1.1319397
1.1144604
1.0964688
1.0927192
1.1068828
1.1222156
1.1254493
1.1030787
1.0773834
1.0692404
1.0840075
1.1079811
1.1250347
1.113161
1.0956356
1.0945239
1.0995227
1.0893782
1.0745478
1.075426
1.0990946
1.1390131
1.1678082
1.1663161
1.1371541
1.1114656
1.1033259
1.1111599
1.1127733
1.1069946
1.0835247
1.0683487
1.0821908
1.1121577
1.1437444
1.1577581
1.1326373
1.111848
1.1064559
1.0840979
1.0740487
1.0611158
1.0729032
1.1165807
1.1802247
1.2237866
1.2136297
1.1645097
1.1229309
1.1047945
1.1022259
1.0930847
1.0794349
1.0581357
1.0586204
1.0971588
1.1518461
1.1930724
1.1953654
1.153217
1.1239553
1.1025215
1.0714074
1.0625424
1.0559428
1.0764173
1.1362983
1.217559
1.269395
1.2442548
1.1784999
1.1246743
1.0963741
1.082734
1.0689294
1.0500827
1.0368228
1.0595139
1.1278486
1.202645
1.2457133
1.2180448
1.160263
1.1202752
1.0816356
1.0855703
1.0718726
1.0648755
1.091132
1.1554919
1.2339569
1.2691017
1.2287553
1.1667352
1.1200624
1.0951515
1.073995
1.0553897
1.0353631
1.0383957
1.0919819
1.1758582
1.2455776
1.2552763
1.2047799
1.1473927
1.0996118
1.0559437
1.1419681
1.1146837
1.0977803
1.1106361
1.1514989
1.1881827
1.1974289
1.1677474
1.1402696
1.122088
1.1052091
1.0868598
1.0737891
1.0679487
1.0943082
1.1435113
1.1920162
1.2174148
1.2038158
1.1645902
1.1234977
1.0801116
1.0476664
1.2163297
1.1641161
1.1200027
1.1077854
1.1184616
1.1217564
1.1149739
1.0972384
1.1019939
1.1227099
1.1422065
1.1477937
1.1448919
1.1416175
1.146446
1.1537146
1.1481014
1.1347128
1.1197581
1.1139209
1.1163078
1.1059678
1.0961377
1.2220968
1.1723285
1.1236403
1.1020355
1.0966502
1.086493
1.0709493
1.0638105
1.0875096
1.1379339
1.1921933
1.2222184
1.2139576
1.1799278
1.1435449
1.1079927
1.0792248
1.0626314
1.0606234
1.0894195
1.1388751
1.1871566
1.2021999
1.1502987
1.1300803
1.114036
1.1162898
1.1173625
1.1087845
1.0960028
1.09534
1.1195685
1.1556681
1.1921818
1.2119383
1.2006834
1.1659366
1.1218374
1.077179
1.0474602
1.0434651
1.0635876
1.1158877
1.177093
1.2251364
1.2364682
1.0965723
1.0840793
1.0902716
1.1279768
1.171177
1.1860351
1.1703912
1.1477202
1.1399677
1.1369395
1.1319234
1.1311731
1.1298074
1.1300579
1.1276495
1.1178516
1.1049208
1.0965747
1.1055997
1.1310034
1.1494264
1.1507468
1.1498683
1.109478
1.0900799
1.0944759
1.1332315
1.1787331
1.2046521
1.1943851
1.1665999
1.136025
1.1051529
1.0804381
1.0700403
1.0790395
1.1125011
1.158328
1.1893313
1.1939317
1.1696353
1.1338426
1.0984315
1.074345
1.0693703
1.0852816
1.1712841
1.132386
1.1121872
1.1226352
1.1342814
1.138063
1.1403895
1.1422626
1.1373218
1.1209503
1.1010559
1.0905613
1.0947546
1.120102
1.1536668
1.180172
1.1868942
1.1708083
1.145627
1.1133895
1.0868349
1.0839226
1.1138285
1.1705762
1.1435498
1.1221644
1.1148204
1.104411
1.0932913
1.0912887
1.1098123
1.138885
1.1638016
1.1709205
1.1581883
1.1369901
1.1211844
1.1078959
1.100002
1.1038149
1.1216492
1.1507795
1.1806851
1.1996517
1.1939987
1.1804907
1.1153771
1.1088686
1.1176302
1.132941
1.1317612
1.1183231
1.1078436
1.1132832
1.1314778
1.1533507
1.1700886
1.1732091
1.1596957
1.1312666
1.096443
1.0717188
1.0671398
1.0903853
1.1399026
1.1998788
1.2450096
1.2523953
1.2137779
1.1026864
1.0927775
1.1108088
1.1432271
1.1614836
1.1617698
1.1496152
1.1330792
1.1185892
1.1106007
1.1106389
1.1196624
1.1349838
1.1462508
1.1449583
1.1320335
1.1166444
1.1140582
1.127723
1.1492376
1.1722539
1.1987774
1.1996655
1.1341628
1.1123603
1.1141117
1.1291126
1.1389242
1.1455556
1.1498157
1.1481342
1.1332908
1.1107493
1.092719
1.0857353
1.094511
1.1190056
1.1476145
1.1698397
1.1801126
1.1777883
1.160628
1.1442428
1.1328276
1.1251621
1.1313278
1.1473332
1.1299238
1.1237926
1.1212996
1.1137347
1.1077019
1.1096962
1.1209351
1.1314136
1.13522
1.1298517
1.1196277
1.1118454
1.1122141
1.1213282
1.1336887
1.1453282
1.1551544
1.1582593
1.1546338
1.1471109
1.1315673
1.1160536
1.1171136
1.1136891
1.1225559
1.1278226
1.1193831
1.1061473
1.0994624
1.102442
1.1143877
1.1303223
1.1452129
1.1505277
1.147197
1.1369627
1.1248668
1.1169952
1.1138632
1.1164541
1.125148
1.1379208
1.1501066
1.1469541
1.1224331
1.0964088
1.0924334
1.108464
1.1282625
1.1381819
1.1367333
1.1303678
1.1241676
1.119806
1.1203242
1.1252617
1.1288196
1.129137
1.1275726
1.1257697
1.1247078
1.1247698
1.1246983
1.1238907
1.1245609
1.1330451
1.1356671
1.1122557
1.1168745
1.1037247
1.1102964
1.1226505
1.1324035
1.1377512
1.1397866
1.1370667
1.1304638
1.1224437
1.1146882
1.1070561
1.100764
1.0993017
1.1060501
1.1203365
1.1390526
1.1502497
1.1447452
1.1277748
1.1121493
1.1065347
1.0872623
1.1339692
1.1200296
1.1181783
1.1186609
1.1157951
1.1135373
1.1137315
1.1141614
1.1149637
1.1165396
1.1167877
1.1153372
1.1113103
1.1070443
1.1103036
1.1211444
1.1363959
1.1466179
1.1383144
1.1129907
1.0845369
1.0658152
1.056548
1.1146868
1.1081882
1.1120778
1.1141836
1.1118376
1.1085656
1.1054866
1.1025496
1.1017492
1.1054514
1.1132247
1.1228438
1.1303797
1.1318959
1.1304999
1.1292671
1.1274551
1.1230816
1.1105947
1.0870015
1.0603712
1.0422784
1.042141
1.0991292
1.0933414
1.0997967
1.1079227
1.114383
1.1214175
1.1257228
1.1232656
1.1161197
1.1102483
1.1102853
1.1158077
1.1234601
1.1283483
1.1260491
1.1172835
1.1063865
1.0947607
1.0838146
1.0704656
1.0552435
1.0452828
1.0470989
1.1115203
1.1013805
1.1022361
1.1051825
1.1098314
1.1182435
1.1268649
1.1296353
1.1244094
1.1148382
1.1072439
1.1060666
1.1093925
1.1127856
1.111101
1.1013937
1.0881214
1.0774203
1.0702936
1.0657887
1.0607259
1.0540609
1.0506558
1.1155219
1.1091443
1.1088521
1.1057845
1.1026703
1.1034977
1.1078506
1.110394
1.1079167
1.1032647
1.0996205
1.0996695
1.1050214
1.1105466
1.1098139
1.1003806
1.0853413
1.0715739
1.0636786
1.0602887
1.0572198
1.0515819
1.0437274
1.0931584
1.0940715
1.1016353
1.1044409
1.1031038
1.1019346
1.1023293
1.102842
1.1014568
1.0997305
1.0994808
1.1024424
1.1075816
1.1109214
1.1071991
1.0946386
1.0773008
1.0614174
1.0508579
1.0467869
1.045217
1.042478
1.0391384
1.0836439
1.0847062
1.0961078
1.1042466
1.1073484
1.1085056
1.1091017
1.1083671
1.1065747
1.1058239
1.1059094
1.1062313
1.1062331
1.1011379
1.0901459
1.0747695
1.0585993
1.0462194
1.0400099
1.0388275
1.0407839
1.0428011
1.0436012
1.0923924
1.0914757
1.0999161
1.1051989
1.1061941
1.1049777
1.1021677
1.0993011
1.0973625
1.0973103
1.0988917
1.0997618
1.0967864
1.087605
1.0739926
1.0593569
1.0484633
1.0427425
1.0422104
1.0445752
1.0463398
1.0467881
1.0455765
1.0909194
1.0893184
1.0966178
1.1000822
1.0990122
1.0962264
1.0925749
1.0889496
1.0877767
1.0899216
1.0937166
1.0965687
1.0935657
1.0833599
1.0695528
1.0564232
1.0478161
1.0447356
1.0452615
1.0459185
1.0449823
1.0414082
1.0373591
1.0841892
1.0829929
1.0899107
1.0938389
1.0945693
1.093722
1.0927942
1.0920635
1.0923023
1.0950017
1.0984197
1.0984962
1.0915387
1.0786796
1.0632369
1.0501497
1.042163
1.0384334
1.0374925
1.0366735
1.0350674
1.0331597
1.032497
1.0866865
1.0840661
1.0895221
1.0919914
1.0919046
1.0914542
1.0913002
1.0914938
1.0923071
1.0938178
1.0944856
1.0907782
1.0805261
1.0659428
1.0515786
1.0413478
1.036187
1.034477
1.034076
1.033457
1.0323601
1.0330235
1.0352448
1.0828664
1.080709
1.0863232
1.0893153
1.0890149
1.0881096
1.087821
1.0875215
1.0880568
1.0893863
1.0893922
1.0852194
1.0752135
1.0615913
1.0496559
1.0421237
1.0389203
1.0383578
1.0369979
1.0345163
1.0316236
1.0306002
1.0322496
1.0801662
1.0777915
1.0835494
1.0877389
1.0885256
1.0880297
1.0873752
1.0864652
1.0861605
1.086879
1.0873588
1.084522
1.076463
1.0643487
1.052445
1.043919
1.0388211
1.0359079
1.0322374
1.0277545
1.0240381
1.022727
1.0243761
1.0804847
1.0769762
1.0816631
1.0858767
1.0871282
1.087182
1.0863723
1.084852
1.0834793
1.0828569
1.0831957
1.0820026
1.0759294
1.0655389
1.0534048
1.0428412
1.0352625
1.0297942
1.025528
1.0221584
1.0204562
1.0211682
1.0244589
1.0794683
1.0761912
1.078803
1.0821973
1.0840439
1.0843068
1.084233
1.0835524
1.0820214
1.0810004
1.0810474
1.0810035
1.0769062
1.0683627
1.0565425
1.0445804
1.0349759
1.0281717
1.0239195
1.0215923
1.0211237
1.0223825
1.023899
1.0780523
1.0755627
1.0763376
1.0792745
1.0818974
1.0816354
1.0821203
1.082861
1.0815688
1.0809039
1.0806597
1.0807653
1.0785247
1.0712322
1.0605188
1.0479669
1.036919
1.0290146
1.0241369
1.0220283
1.0209565
1.0205593
1.0194879
1.076109
1.0739294
1.0743192
1.07778
1.0808591
1.0804238
1.0811212
1.0821496
1.0808268
1.0801106
1.0794643
1.0790585
1.0784324
1.0740475
1.0654874
1.0537147
1.0419146
1.0329744
1.0262168
1.0226878
1.0206594
1.018463
1.0157411
1.074505
1.0720134
1.0730488
1.0769759
1.0794407
1.0799968
1.0807912
1.0808964
1.0798957
1.0792377
1.0778884
1.0769407
1.0777533
1.0758844
1.0717124
1.0627378
1.0511021
1.0401681
1.0316165
1.0250876
1.0212683
1.0179791
1.0144772
1.0733929
1.0706311
1.0721326
1.0752754
1.0772841
1.0791324
1.0798656
1.0793107
1.0791318
1.0786204
1.07707
1.076374
1.0763777
1.0762188
1.0753376
1.0710493
1.0624017
1.0502503
1.03985
1.0302962
1.0237133
1.0193756
1.0153989
1.0710001
1.0693469
1.0710492
1.072868
1.0753215
1.0780615
1.0784732
1.0776029
1.0781945
1.0782016
1.0773308
1.0771249
1.0762934
1.0760214
1.0758807
1.0741242
1.0705715
1.0621623
1.0521519
1.0411417
1.0317908
1.0247658
1.0190235
1.0692026
1.068363
1.0689156
1.0704629
1.0736349
1.0767925
1.0776578
1.0773474
1.0774799
1.0770861
1.0769241
1.0773995
1.0762011
1.075672
1.0755991
1.075046
1.0731151
1.0698568
1.0642635
1.0570293
1.0473938
1.0370715
1.0274614
1.0669759
1.0656233
1.0659466
1.0671558
1.0702817
1.0736298
1.0757837
1.0765345
1.0764879
1.0758815
1.0766211
1.0766923
1.0758734
1.0757074
1.0746178
1.0749463
1.0740847
1.0723682
1.069446
1.0675216
1.062476
1.0533703
1.0417181
1.0636874
1.0617158
1.0620778
1.0632874
1.0662164
1.0693134
1.0718219
1.0739409
1.0756411
1.0750252
1.0757516
1.0756272
1.0749936
1.0753369
1.0733659
1.0740567
1.073797
1.0732339
1.0720414
1.0703505
1.069175
1.065407
1.0576645
1.0604023
1.059207
1.0587996
1.0594813
1.0617784
1.0645212
1.0670879
1.0698555
1.0733608
1.0734532
1.0738679
1.0738819
1.0730255
1.0740295
1.0725256
1.0732536
1.0730582
1.0733052
1.0738459
1.0716084
1.0712396
1.069753
1.0663287
1.0582269
1.0581493
1.057439
1.0571347
1.0582491
1.0588912
1.0605783
1.0638324
1.068155
1.0697814
1.0708067
1.0712494
1.0709495
1.0729041
1.0718416
1.071746
1.0712832
1.0722293
1.0726045
1.0713999
1.0714632
1.0702355
1.0687602
1.0558045
1.0569725
1.0564409
1.0550084
1.0555386
1.0549614
1.0553814
1.0584087
1.0612163
1.0637101
1.0659896
1.0675556
1.0687539
1.0705643
1.0696019
1.0693327
1.0685284
1.0701805
1.0693902
1.069303
1.0697551
1.0698638
1.0703218
1.0486946
1.0502719
1.0506207
1.050129
1.0519766
1.052312
1.0523258
1.0550525
1.0556894
1.0568883
1.0598822
1.0618444
1.0642931
1.065783
1.0654262
1.0666465
1.0659586
1.0678283
1.0668234
1.0671953
1.0676303
1.067933
1.0689065
1.038113
1.0388144
1.0397121
1.0404233
1.0444412
1.0467644
1.0476043
1.0513766
1.0516594
1.0512789
1.0542403
1.0554276
1.0581795
1.0606245
1.0602752
1.0625434
1.0626533
1.0645807
1.0644069
1.0641819
1.0644491
1.0647237
1.0654736
1.0329557
1.03387
1.0348972
1.0355719
1.0391257
1.041717
1.0427219
1.0461013
1.0466684
1.0463005
1.0496447
1.0504527
1.051974
1.0548087
1.0548916
1.0579206
1.059188
1.0601741
1.0607644
1.0605386
1.0604933
1.0607595
1.061408
1.0320067
1.0337831
1.0355165
1.0364404
1.0384308
1.0395544
1.0395452
1.0416088
1.042596
1.0423287
1.0448767
1.0455938
1.0465966
1.049379
1.0496771
1.0526792
1.0549311
1.0558467
1.0572262
1.0565887
1.0578643
1.0580756
1.0591479
1.0323479
1.034281
1.0368579
1.0384677
1.0394714
1.0397717
1.0396726
1.0398182
1.0406958
1.0405964
1.0420323
1.0424673
1.0425537
1.0451252
1.0462296
1.0483753
1.0505941
1.0516969
1.0541146
1.0536798
1.0548431
1.0546743
1.0563218
1.0327964
1.0352277
1.0384048
1.0400165
1.0405524
1.0408355
1.040733
1.0411482
1.0417409
1.0421431
1.0424636
1.0426703
1.0427685
1.0440342
1.0452401
1.0467009
1.0482234
1.0485297
1.0508421
1.0514665
1.0529586
1.052059
1.0534487
1.0335858
1.0352153
1.0387644
1.0406402
1.0412869
1.0414384
1.0420488
1.0427202
1.0434393
1.0439964
1.0439123
1.0444688
1.0451171
1.0460661
1.0467143
1.0473716
1.049046
1.0483973
1.0491912
1.0506338
1.0516366
1.0509492
1.0506306
1.033301
1.0344491
1.037621
1.0395387
1.0399574
1.0403303
1.0414564
1.0427237
1.0435364
1.0443995
1.0443399
1.0450642
1.0466034
1.0476022
1.0478134
1.0480355
1.0493794
1.0502404
1.0498609
1.0501816
1.0512385
1.0516819
1.0509483
1.0303354
1.0312464
1.032802
1.034457
1.0351794
1.0349546
1.0348506
1.0356342
1.0368026
1.0381165
1.0382339
1.0385042
1.0407838
1.0433543
1.0445088
1.0447343
1.0460202
1.0480706
1.0487341
1.0482602
1.0491441
1.0502549
1.0512703
1.0260302
1.0256971
1.0251331
1.0251836
1.0249985
1.0242582
1.0229629
1.0220528
1.021881
1.0221969
1.0220568
1.0220384
1.0234107
1.0256846
1.0273621
1.0285814
1.0304203
1.0330636
1.0358748
1.0367487
1.0381065
1.0396366
1.0430501
1.0238307
1.0218135
1.020112
1.0183458
1.0165965
1.0153387
1.0143703
1.0130918
1.0116797
1.0102203
1.0098309
1.0095931
1.0093984
1.0096757
1.0098825
1.010526
1.011808
1.0129963
1.0145515
1.0156919
1.0176628
1.0199449
1.022849
1.0225421
1.0200662
1.0170632
1.0147032
1.0134796
1.0124147
1.0108336
1.0091939
1.0077116
1.0070199
1.0068799
1.006005
1.0049506
1.0044854
1.0045577
1.0051282
1.0049927
1.0042874
1.0043633
1.0052702
1.0055529
1.0059867
1.0075568
1.0194581
1.0179804
1.0151212
1.0125135
1.0111199
1.0097388
1.0077424
1.0064196
1.0058766
1.0055529
1.0052288
1.004326
1.0036813
1.0033868
1.0029195
1.0031205
1.0032706
1.0033102
1.0026724
1.0025125
1.0031554
1.0031678
1.0024718
1.0166694
1.0131285
1.0095249
1.0082754
1.0082811
1.0073445
1.0049503
1.0032398
1.0032571
1.0035558
1.0034511
1.0027767
1.0024628
1.0029801
1.0028174
1.0024627
1.0021851
1.0021961
1.0021598
1.0018832
1.0017977
1.0019156
1.0019652
1.0116981
1.0087839
1.0043974
1.0026217
1.003547
1.0046303
1.0033136
1.0012621
1.0013999
1.0028324
1.003372
1.0024598
1.0014811
1.0016933
1.0016845
1.0009816
1.0014951
1.0027195
1.0018224
1.0001849
1.0003896
1.0020459
1.0028592
1.006114
1.0040725
1.0024108
1.0013542
1.0016278
1.0027227
1.0027029
1.001253
1.0005722
1.0016579
1.0024391
1.0016426
1.0005334
1.000552
1.0011771
1.0012467
1.0013175
1.0014965
1.0005341
0.99970032
1.0003953
1.0015515
1.001112
1.0030919
1.0020595
1.0009708
1.0007927
1.0014997
1.0018107
1.0010501
1.0002098
1.0004865
1.0013608
1.0011686
0.99999008
0.99989966
1.0013156
1.0018851
1.0003158
0.99891188
0.99993619
1.001347
1.0003873
0.99897426
0.99998956
1.001524
1.0006879
1.0016526
1.0014339
0.99999921
0.99933099
1.00016
1.0009806
1.0006923
1.0001653
1.0001963
1.0002516
0.99974265
0.99945257
1.0001655
1.0006876
0.99970635
0.99849285
0.99931544
1.0009905
1.0002116
0.99828746
0.99898555
1.0013512
1.0000939
1.0006221
1.0009303
1.0001151
0.99925142
0.99964594
1.0005076
1.0002665
0.99913695
0.99892628
0.99984223
1.0000566
0.99902117
0.99835664
0.99916981
1.000171
0.99971375
0.99855827
0.9987826
0.99978036
0.99951002
0.99845002
0.99850952
1.0000163
1.0003164
1.0008465
1.0006443
0.99978175
0.99917496
0.99945411
0.99993031
0.99966976
0.99902438
0.99891957
0.99933438
0.99929998
0.9988149
0.99888122
0.99941721
0.99936999
0.99867614
0.99846482
0.99917008
0.99956684
0.99880416
0.99807466
1.0010679
1.0006835
1.0006559
1.0004969
1.0000455
0.99957641
0.99960692
1.0000194
1.0000666
0.99945844
0.99887157
0.99908633
0.99970422
0.999671
0.9990015
0.99864541
0.99906024
0.9994633
0.9992788
0.99892072
0.99899115
0.99948237
0.99968249
1.0011498
1.0012097
1.0010994
1.0008633
1.0006067
1.0004745
1.0001995
0.99988221
0.99979184
0.99989226
0.99998494
0.99982177
0.99953839
0.99938061
0.99942572
0.99958388
0.99959755
0.99957147
0.99961165
0.99964569
0.9997196
0.99987064
1.0000792
1.001787
1.0014946
1.0012768
1.0011641
1.0009525
1.0008951
1.0008327
1.0003404
0.99980259
0.99986672
1.000296
1.0005165
1.0003321
0.99991784
0.99965485
0.99992335
1.0000386
0.99999439
1.0001066
1.0001942
1.0002651
1.0002789
1.0005245
1.001779
1.0015376
1.0017903
1.0016418
1.0011478
1.0010657
1.0009463
1.0004072
1.0002103
1.0004228
1.0006085
1.000659
1.0003393
1.0002202
1.0001201
1.0003172
1.0003307
1.0002435
1.0003176
1.0001645
1.0007642
1.0011286
1.0015111
1.0019494
1.0017404
1.0017827
1.0015879
1.0015642
1.0015873
1.0008683
1.0002824
1.0003701
1.00055
1.0008613
1.0008983
1.0005295
1.0004621
1.0003677
1.0004026
1.0003419
1.0001652
1.0005033
1.000803
1.0012594
1.001209
1.0012464
1.0022871
1.0018549
1.0018509
1.0016798
1.0015657
1.0016551
1.0010651
1.0003962
1.0005227
1.0008076
1.0010186
1.0009724
1.0005449
1.0004626
1.0004873
1.0008257
1.0006154
1.0003158
1.0004499
1.000629
1.0012141
1.0013996
1.0014611
1.0028262
1.0023536
1.0016937
1.0013921
1.0012377
1.0015637
1.0017689
1.0010883
1.0005497
1.0006026
1.0009311
1.0012661
1.0008832
1.0005852
1.0004624
1.0007421
1.0007049
1.0004234
1.0006867
1.0009358
1.0013729
1.001174
1.0007856
1.0017
1.002479
1.0027744
1.0024476
1.0015768
1.0010606
1.0013547
1.0015479
1.0009568
1.0005003
1.0008537
1.0013784
1.0014001
1.0006742
1.0000644
1.0003478
1.0012589
1.0013092
1.0006668
1.0002113
1.0006961
1.0014317
1.0015916
1.0016725
1.0026153
1.0033568
1.0030376
1.0017867
1.0004171
1.0004452
1.001758
1.002458
1.0014716
1.000077
1.0001054
1.0013682
1.0020501
1.0011581
0.99991498
0.99979504
1.0009261
1.0016758
1.0012559
1.0006079
1.0006628
1.0009418
1.0027728
1.0019847
1.0021755
1.0029891
1.0034439
1.002577
1.0010746
1.0001739
1.0004818
1.0013209
1.001896
1.0018098
1.0013187
1.0007897
1.0004198
1.0006027
1.0010506
1.0011608
1.0008303
1.0003269
1.0004562
1.0015889