/*--------------------------------*- C++ -*----------------------------------*\
| =========                 |                                                 |
| \\      /  F ield         | OpenFOAM: The Open Source CFD Toolbox           |
|  \\    /   O peration     | Version:  2406                                  |
|   \\  /    A nd           | Website:  www.openfoam.com                      |
|    \\/     M anipulation  |                                                 |
\*---------------------------------------------------------------------------*/
FoamFile
{
    version     2.0;
    format      ascii;
    arch        "LSB;label=32;scalar=64";
    class       surfaceScalarField;
    location    "140";
    object      phi;
}
// * * * * * * * * * * * * * * * * * * * * * * * * * * * * * * * * * * * * * //

dimensions      [1 0 -1 0 0 0 0];

oriented        oriented;

internalField   nonuniform List<scalar> 
40800
(
0.00081752544
0.00100636
-0.0012781311
0.00092213378
0.00092235068
-0.00086200298
0.00098437129
0.0010403247
-0.0011443462
0.0010508642
0.00089207113
-0.00089657124
0.0010991076
0.00094681711
-0.0011951559
0.0011559513
0.00087983207
-0.0010225384
0.0012043517
0.00084948686
-0.00094147737
0.0012568076
0.00079447758
-0.00080800994
0.0013000679
0.00083207382
-0.00087901229
0.0013512809
0.00083385252
-0.00081571036
0.0013884673
0.00080550763
-0.00083556808
0.0014334341
0.0007487982
-0.00078948473
0.0014876086
0.00085646129
-0.00088046507
0.0015201552
0.0008560573
-0.00093887679
0.0015630587
0.00083101949
-0.0008772234
0.0016357039
0.00093362821
-0.00098841548
0.0016519513
0.0010201542
-0.0010930926
0.0016809678
0.00082762248
-0.00086273119
0.0018286545
0.0011035825
-0.0010988589
0.0018299693
0.0012303759
-0.0013355599
0.0018428168
0.0010355272
-0.0011482099
0.0019760601
0.0011926689
-0.0012193493
0.0021023147
0.0014120367
-0.0014877496
0.0020666508
0.0013428749
-0.0014805941
0.002113024
0.0012720446
-0.0013254763
0.0023966446
0.0014332805
-0.0014397677
0.0024845502
0.0017460425
-0.0017943004
0.002535897
0.0019809978
-0.0020753402
0.0028257464
0.0018591226
-0.0020318567
0.0029230745
0.0016593041
-0.0019882924
0.0019080321
0.0027023349
-0.0021076833
0.00081213771
0.00073079696
0.00091360996
0.0010322294
0.00097631103
0.00095255666
0.0010455075
0.00092366749
0.0010912395
0.00068985277
0.0011503956
0.00074118963
0.0012007807
0.00076178547
0.0012562118
0.00079160275
0.0012997804
0.00075605505
0.0013508557
0.00081655547
0.001387132
0.00073321655
0.0014405324
0.00072483038
0.0014892049
0.00080372728
0.0015215299
0.00077736116
0.0015719608
0.00078474575
0.0016438316
0.00087972674
0.0016356811
0.00090418199
0.0017113886
0.00081706077
0.001838644
0.0011015916
0.0017957228
0.0010976111
0.0018559329
0.00096664665
0.0019990645
0.0011805751
0.0020700994
0.0013373754
0.0020348952
0.001253699
0.0021117854
0.001303105
0.0024452678
0.0014895135
0.0025536346
0.0016592476
0.002445561
0.0017949551
0.0026188176
0.0017336638
0.0029013133
0.0014748526
0.0016287546
0.0028884057
0.00081491796
0.00053327129
0.00090811883
0.0011013962
0.00096650616
0.0008859929
0.0010332853
0.00096814967
0.0010811353
0.00053292044
0.0011421591
0.00066097551
0.0011953009
0.00068204937
0.0012505185
0.00077667488
0.0012965203
0.00067297308
0.001343493
0.00074186731
0.0013839522
0.00066216744
0.0014429012
0.00070976873
0.0014867927
0.00072244344
0.0015226532
0.00070475672
0.0015784286
0.00072512873
0.0016461391
0.00081274692
0.001632043
0.00078787736
0.0017470802
0.00083819645
0.0018398483
0.0010723219
0.0017781649
0.00095099672
0.0018867687
0.00092700716
0.0020197975
0.0011903121
0.0020492117
0.001263103
0.0020481372
0.0011614586
0.0021327249
0.0013418998
0.0024439338
0.0015567247
0.0025655654
0.0015389541
0.0024034737
0.0015258504
0.0024622293
0.0015845768
0.0028372768
0.0014644547
0.0014553835
0.0030603402
0.00081981732
0.00046112585
0.00090187516
0.001050819
0.00095897271
0.00083009186
0.0010175958
0.0009759115
0.0010722854
0.00052053626
0.001132224
0.00066131689
0.0011878897
0.00063649614
0.0012401772
0.00073200921
0.001290156
0.00061975563
0.0013322312
0.00064096873
0.0013792872
0.00060938338
0.0014367731
0.0006952303
0.0014776591
0.00063980941
0.0015176053
0.00062257273
0.0015785977
0.00068237399
0.0016392387
0.0007436407
0.0016362558
0.00068320708
0.0017728868
0.00086746021
0.001827182
0.0010122182
0.0017758585
0.00081495588
0.0019286029
0.00090819988
0.002034246
0.0011835002
0.0020262003
0.0011669207
0.0020883455
0.0010457118
0.0021689156
0.001310774
0.0023835118
0.0015599205
0.0025237532
0.0014050159
0.0023996134
0.0012428249
0.0023658821
0.001390412
0.0027315947
0.0015408079
0.0014493613
0.0031294824
0.00082746282
0.00051075294
0.00089900364
0.00087817237
0.00095770635
0.00077586639
0.001007017
0.00091003808
0.0010669143
0.00061934138
0.0011219961
0.00071202436
0.0011773557
0.00063826368
0.0012253344
0.00064445753
0.0012790625
0.00059509347
0.0013203655
0.00055103269
0.0013740645
0.00057740583
0.0014250943
0.00065509393
0.0014646798
0.00059268535
0.0015093797
0.00055748808
0.0015714759
0.00066881065
0.0016218009
0.00068969902
0.0016421226
0.00060130962
0.0017764443
0.00086064795
0.0017978949
0.00092361932
0.0017810076
0.0007121123
0.0019630393
0.00090707587
0.0020288152
0.0011332326
0.0019965192
0.0010572443
0.0021328085
0.00094080042
0.0022195343
0.0011853702
0.0023044308
0.001459609
0.0024307542
0.0012762866
0.0024179167
0.0010099998
0.0023776034
0.0011901855
0.0026104664
0.0015703254
0.0015867143
0.0030394848
0.00083559069
0.00062939904
0.0008982379
0.00063680724
0.00095816174
0.00074219198
0.0010007178
0.00076651464
0.0010631712
0.00074681534
0.0011116211
0.00073401839
0.0011642378
0.00064819495
0.0012089778
0.0005455968
0.0012624236
0.00058258858
0.0013055225
0.0004876979
0.0013620407
0.00055163521
0.0014079585
0.00057950229
0.0014488664
0.00055522758
0.0015029516
0.0005308416
0.001560216
0.00064963097
0.0016003517
0.00065927149
0.0016490106
0.00056087015
0.0017645666
0.00081779454
0.0017607304
0.00081126755
0.0017897294
0.00064246669
0.0019793412
0.00089611328
0.0020089419
0.0010414178
0.0019610368
0.00094245433
0.0021661172
0.00087854995
0.0022727862
0.0010323799
0.0022388489
0.0012710412
0.0023116484
0.0011595542
0.0024408229
0.00089319008
0.0024938262
0.0010371405
0.0025627973
0.0014922728
0.001710596
0.0028251117
0.00084794085
0.00074483698
0.00090029484
0.00038768483
0.00095695554
0.00073521063
0.0009966858
0.0005712953
0.0010573861
0.00080074893
0.0010999274
0.00067232732
0.0011478507
0.00062147593
0.0011927918
0.00047911093
0.0012405717
0.00057300545
0.0012862691
0.00046406418
0.0013393277
0.0005099502
0.0013834178
0.00050416176
0.0014264687
0.00051397643
0.0014901593
0.00051894973
0.0015428121
0.000605864
0.001575062
0.00061313969
0.0016517589
0.00055682676
0.0017388724
0.00076472289
0.0017195285
0.00067807318
0.0017971351
0.0006142079
0.0019697472
0.00087957861
0.0019752503
0.00090257666
0.001925314
0.0008161342
0.0021609787
0.00087013726
0.0023016054
0.0009209223
0.0022029119
0.001036651
0.0022282093
0.0010493519
0.0024619307
0.00091594728
0.0026410862
0.00095071799
0.0026544079
0.0012850547
0.0016352224
0.0026695319
0.00087514887
0.0007947282
0.00090655838
0.00022256581
0.0009543826
0.00074217855
0.00099236434
0.00039788523
0.0010457528
0.00072446594
0.0010848721
0.00053506395
0.001127934
0.00054501048
0.0011754862
0.00044495928
0.0012151749
0.00052881242
0.0012617352
0.00046724826
0.0013087307
0.0004652879
0.001351452
0.00045804773
0.0013947947
0.0004544404
0.0014629431
0.00051361891
0.001511341
0.00052412899
0.0015420438
0.0005499434
0.0016428905
0.00056536285
0.0016981177
0.00068622064
0.0016827314
0.00054555098
0.0017999173
0.00060377318
0.0019332556
0.00087035246
0.0019303717
0.00075233352
0.0019015761
0.00068023141
0.002121662
0.00090919983
0.0022880729
0.00090353165
0.0021777765
0.00082635622
0.0021605157
0.00093794358
0.002434173
0.0010337931
0.0027193254
0.00097679185
0.0027737137
0.001043542
0.0012831278
0.0026503931
0.00093028437
0.00074674772
0.00092594575
0.000239706
0.00095939847
0.00073619321
0.00099646679
0.00033069394
0.0010332675
0.00055774389
0.0010685067
0.00038065233
0.0011053703
0.00044127036
0.0011523966
0.00044021404
0.0011851042
0.00043230664
0.0012306554
0.00046376854
0.001272863
0.00042568078
0.0013120587
0.00040979195
0.0013571187
0.0004003248
0.0014197557
0.00049781614
0.0014665827
0.00044594942
0.0014968805
0.00047367252
0.0016089012
0.00056313085
0.0016403
0.00058897053
0.0016483669
0.00043240078
0.00179616
0.00059441069
0.0018737541
0.00082798234
0.0018803626
0.00061347117
0.0019035064
0.00056108259
0.0020699889
0.00093380112
0.0022326262
0.00094524134
0.0021812394
0.00068266226
0.0021571835
0.00081088619
0.0023728306
0.0011261643
0.0026750455
0.001121638
0.0027796187
0.00090154163
0.00085549786
0.0026687479
0.00099998836
0.00059127718
0.00097201087
0.00042730463
0.00098306743
0.00069727018
0.0010154889
0.00039825222
0.0010338191
0.0003842996
0.0010656977
0.00029022008
0.0010963734
0.00035921534
0.0011363109
0.00044994831
0.0011637812
0.00033187199
0.0012025861
0.00042943379
0.0012388936
0.00039909922
0.0012718714
0.0003562869
0.0013174542
0.00035093456
0.0013662727
0.00044962174
0.0014123648
0.00037305622
0.0014446809
0.00037275112
0.0015502516
0.00052768328
0.001564542
0.00049235204
0.0016077903
0.000362884
0.0017717289
0.00058092374
0.0017902191
0.00073884805
0.0018157873
0.00051201646
0.0019207697
0.00046739209
0.002021045
0.0008773234
0.0021235885
0.00096817211
0.0021730479
0.00062213751
0.0022090479
0.0006674079
0.0023275568
0.0010775327
0.0025415219
0.0012444194
0.0026652154
0.00090094121
0.00059086316
0.0026572985
0.0010318756
0.00036950999
0.0010243467
0.00064376267
0.0010264411
0.00060635383
0.0010560074
0.00054990758
0.0010590729
0.00028359139
0.0010825139
0.00031617162
0.0011065086
0.00033277509
0.0011358722
0.00044012508
0.0011650813
0.00027481015
0.0011982024
0.00037206789
0.001229786
0.00037074969
0.0012574577
0.00031434831
0.0013020094
0.00031754988
0.0013323931
0.00039043637
0.0013725582
0.00032185773
0.0014071339
0.00028786854
0.0014893516
0.00045824161
0.0014903303
0.00040444601
0.0015631111
0.00033566399
0.001723962
0.00055082212
0.0016936651
0.00062068923
0.0017405861
0.00045074325
0.0019277977
0.00042198714
0.0019865514
0.00074925371
0.0019946575
0.00090484018
0.00211438
0.00063017304
0.0022500514
0.00054473619
0.0023291972
0.00087530548
0.0023844366
0.0011722214
0.0024680296
0.00096522396
0.00055566202
0.0025624583
0.0010360794
0.00016839532
0.0010668216
0.00077531398
0.0010789086
0.00049148776
0.0011128961
0.00068597641
0.001119928
0.00029243632
0.0011370906
0.0004279009
0.001152007
0.00036839784
0.0011649334
0.00040369037
0.0011923783
0.00029162207
0.0012154117
0.00032670282
0.0012394674
0.0003343324
0.00126449
0.0002798769
0.0013076421
0.00031214985
0.001325548
0.00031919972
0.0013618031
0.00029910082
0.0014047672
0.00025275856
0.0014616717
0.00039120823
0.0014549558
0.00031945133
0.0015428126
0.00034075463
0.0016768502
0.00051435614
0.0016088346
0.00046803177
0.0016669347
0.00039674123
0.0019110511
0.00044295433
0.0019481494
0.00059944349
0.0018766714
0.00070992509
0.0020206404
0.00062399724
0.0022488019
0.00050816919
0.0023386937
0.00063836036
0.0022773381
0.00086222929
0.0022926364
0.00090412499
0.00067530577
0.0024343868
0.00099446674
5.1449835e-05
0.0010669026
0.00076214305
0.0011008944
0.00040273497
0.0011451391
0.00071331252
0.0011806902
0.00036719578
0.0012124673
0.00052335754
0.0012345804
0.00041922832
0.0012444319
0.0003380748
0.0012708365
0.00035447839
0.00128498
0.0002906932
0.0012978658
0.00030162344
0.0013163869
0.00026936639
0.0013471657
0.00032082861
0.0013545863
0.00026858093
0.0013805024
0.00029013711
0.0014263594
0.00026155596
0.0014572944
0.0003367454
0.001456164
0.00024856802
0.0015492075
0.00036793292
0.0016471961
0.00048004897
0.0015721432
0.00030749858
0.0016297001
0.00035594758
0.0018761843
0.00051633576
0.0019001768
0.00047579757
0.0017871529
0.00043983719
0.0019119142
0.00055149969
0.0021842564
0.00055986749
0.002291952
0.00048828173
0.0022028436
0.00049773884
0.0021500734
0.00065283356
0.00073353934
0.0023020779
0.00095186716
6.8151643e-05
0.0010320608
0.00059532346
0.0010925738
0.00038628078
0.0011379939
0.00059479889
0.0011903404
0.00043145854
0.0012317392
0.00052251143
0.0012698291
0.00040864422
0.0012985521
0.00024570165
0.0013366871
0.0003726948
0.0013624954
0.00024823005
0.0013820483
0.00025970862
0.0014079012
0.0002757009
0.0014298746
0.00031132333
0.0014351535
0.0002244961
0.0014498745
0.00027869396
0.0014926876
0.00028536591
0.0014966241
0.00029268732
0.001507447
0.00020402704
0.0015883472
0.00037763782
0.0016386918
0.00044711314
0.0015881013
0.00018195722
0.0016446758
0.00032800004
0.0018427459
0.00058891504
0.0018623524
0.00041155761
0.0017671753
0.00021141214
0.0018523183
0.00042855564
0.0020872037
0.00063466777
0.0022001746
0.00046273978
0.002156463
0.00027459485
0.0020901294
0.00033258696
0.00064584302
0.0022074311
0.00094892015
0.00020308556
0.0010060871
0.00032865145
0.00106543
0.00045217744
0.0011079092
0.0003609123
0.0011700824
0.00043536265
0.0012129524
0.00040586745
0.0012544368
0.00033320398
0.0012952921
0.00018419153
0.0013317847
0.00032155553
0.0013666718
0.00023546519
0.0013960332
0.00021053568
0.0014352955
0.00027557261
0.0014618819
0.00027415827
0.0014872921
0.00017503401
0.0015102094
0.00025726098
0.0015618618
0.00030729115
0.0015591445
0.00026183442
0.0015935555
0.00017890874
0.0016612066
0.0003639366
0.0016641862
0.00039362516
0.001662262
0.00010623177
0.0017239656
0.00028718356
0.0018353362
0.00061652896
0.0018412342
0.00039722477
0.0018126759
8.9240867e-05
0.0018822237
0.00029855912
0.0020206024
0.00065624317
0.0021073701
0.00054972226
0.0021152028
0.00021701825
0.0021249676
0.00015170856
0.00045150843
0.0021932229
0.0010038919
0.00037850426
0.0010211202
0.00010141463
0.001066075
0.00054098203
0.0010993457
0.00012469636
0.0011525088
0.00036400389
0.0011870191
0.00022438805
0.0012250889
0.00023171134
0.0012728759
0.00019236889
0.0013056774
0.0002354874
0.0013441287
0.00024062861
0.0013782379
0.0001685938
0.0014174566
0.00025539926
0.0014408351
0.0002350309
0.0014802423
0.00015755781
0.0015090044
0.00022693812
0.0015607893
0.00031077477
0.0015600062
0.00023492609
0.0016252763
0.00017150083
0.0016877307
0.00032093697
0.001659667
0.00032375404
0.0017173918
9.6728228e-05
0.0018153169
0.00022975326
0.0018476593
0.00055139196
0.0018229536
0.00039207064
0.0018779521
7.4515023e-05
0.0019878767
0.00020913437
0.0020275485
0.0005779089
0.0020388627
0.00062716832
0.0020824633
0.00030855517
0.0021952411
0.0001437282
0.00028519713
0.0022890984
0.00098598529
0.00041717156
0.0010402313
-2.7173365e-05
0.0010767756
0.00056538965
0.0011156734
6.76383e-07
0.0011588729
0.00023436324
0.0011914772
6.1639555e-05
0.0012272626
0.00013052563
0.0012730371
0.00024880735
0.0013004642
0.00015885682
0.0013326736
0.00022253388
0.0013677919
0.00013989521
0.0014002902
0.00020118547
0.0014192041
0.00018313807
0.0014649848
0.00014847844
0.0014955939
0.0001894052
0.0015383253
0.00026560985
0.0015377681
0.00019557726
0.0016207835
0.00018218412
0.0016709461
0.00025950122
0.0016220884
0.00023481895
0.0017239854
0.00013931017
0.0018565333
0.00020537814
0.0018308017
0.00039346758
0.0017837832
0.00033529816
0.00191486
0.00014169268
0.0020853796
0.00020240053
0.0020815602
0.00042085224
0.0020083369
0.00055014259
0.002071747
0.00041804762
0.0022488587
0.00025890481
0.00025265158
0.0023932824
0.00097064206
0.00026522597
0.0010398012
-4.2526715e-05
0.0010690042
0.00047871045
0.001119198
5.0935678e-06
0.0011550381
0.00012360725
0.0011930814
1.2389565e-05
0.0012333337
8.5744268e-05
0.0012730701
0.00027987533
0.0013022177
0.000118827
0.0013287263
0.00016857314
0.0013668914
0.00014054902
0.0013928576
0.00014565455
0.0014100055
0.00012038594
0.0014580251
0.00014843672
0.0014867736
0.00015109607
0.0015184635
0.00018977019
0.0015204428
0.00013773805
0.0016049949
0.0002020355
0.0016436154
0.00019933649
0.0015861897
0.00011811715
0.0017002322
0.00019022708
0.0018453585
0.00022325915
0.0017897538
0.00020384391
0.0017273406
0.00021016261
0.0018969962
0.00022895858
0.0020985449
0.00026465219
0.0020917003
0.0002696889
0.0019785709
0.00030253913
0.002030296
0.00039140304
0.0022360399
0.00038843875
0.00031909097
0.0024150472
0.00099833321
1.5637461e-06
0.0010518394
8.3130057e-05
0.0010639879
0.00032941336
0.001117552
0.00013271167
0.0011452643
7.9149205e-05
0.0011860945
7.0966654e-05
0.0012268391
0.00010701844
0.0012568384
0.00021769961
0.0012889075
0.00011347041
0.0013136625
0.00010487351
0.0013525959
0.0001428204
0.0013762684
0.00010873211
0.001398476
6.9671984e-05
0.0014438265
0.00016045172
0.0014710763
0.00011773928
0.001494695
0.0001207673
0.0015088926
7.9623693e-05
0.0015838944
0.00020973202
0.0016125311
0.00013892757
0.0015737486
3.8622037e-06
0.0016777633
0.00022828573
0.0018061971
0.00026652409
0.0017540955
5.8720784e-05
0.0016978452
3.1373619e-05
0.0018651905
0.00027586301
0.0020523302
0.00034910568
0.0020458713
0.00017516131
0.00195848
3.9625378e-05
0.0019851628
0.00019567271
0.0021687706
0.00040418121
0.00039916309
0.0023413558
0.0010320058
-0.00027489512
0.0010883359
0.00026419358
0.0010869308
0.00018896101
0.0011368248
0.00031268953
0.0011579939
8.0907873e-05
0.001196006
0.00019776987
0.0012314364
0.000149591
0.0012513091
9.5710638e-05
0.0012822927
0.00010359921
0.001305295
6.6941293e-05
0.0013426939
0.00011827051
0.0013596625
9.0623085e-05
0.0013876423
4.5298514e-05
0.0014263736
0.00014580911
0.0014534203
8.8218586e-05
0.0014713725
5.803515e-05
0.0015001839
3.0278218e-05
0.0015552892
0.00018596085
0.0015741348
8.212303e-05
0.0015818496
-7.4061982e-05
0.001659781
0.00021610356
0.0017475476
0.00030123076
0.0017217434
-1.4346861e-05
0.001712391
-0.0001081418
0.0018410785
0.00022556406
0.0019737131
0.00040959539
0.0019597422
0.00012473487
0.0019375773
-0.00010998629
0.0019805767
-3.6939477e-05
0.0021034851
0.00028341422
0.00038853249
0.0022159358
0.0010383334
-0.00044203796
0.00109773
0.00031288117
0.001112789
0.00011999809
0.001164104
0.000376875
0.0011926297
9.5730795e-05
0.0012284332
0.00027935635
0.001258545
0.00017415849
0.0012759805
-1.1928751e-05
0.0013054166
6.4235333e-05
0.00132968
5.7263377e-05
0.0013574314
8.2286225e-05
0.0013767231
8.0472109e-05
0.0014103411
1.8298069e-05
0.0014342248
0.000107739
0.0014582296
5.9866061e-05
0.0014731314
1.0125343e-05
0.0015168834
-1.0813759e-05
0.0015496209
0.00013298466
0.0015550406
4.9776677e-05
0.0016154237
-9.8377502e-05
0.0016723906
0.00014681204
0.0016960773
0.00028384898
0.0016954968
-2.9757195e-05
0.0017531431
-0.00015629952
0.0018628228
0.00011516202
0.0019029383
0.00035911482
0.0018728817
0.00013395268
0.0019112586
-0.00013645048
0.0020244687
-0.00015701265
0.0020919643
0.00010626285
0.00028113851
0.002121656
0.0010861851
-0.00035778156
0.0010735858
0.00025030546
0.0011059351
0.000140575
0.0011573637
0.00024026351
0.001200518
7.3730916e-05
0.001240715
0.00019826769
0.0012765234
0.00011637671
0.0013062116
-5.1585169e-05
0.0013412928
1.2611343e-05
0.0013687979
5.2933397e-05
0.0014088652
2.1785971e-05
0.0014143062
7.8053429e-05
0.0014604784
-8.2733724e-06
0.0014835362
4.6096579e-05
0.0015075637
3.7629312e-05
0.001522032
-2.6422624e-06
0.0015798092
-1.9620885e-05
0.0015945676
6.6330974e-05
0.0015915506
3.2408988e-05
0.0016924533
-7.2584566e-05
0.0017401991
5.9318358e-05
0.0017054368
0.00017109054
0.0017232975
-3.5011671e-06
0.001833138
-0.00011041463
0.0019410184
2.6608986e-05
0.0019010449
0.00019349773
0.0018475623
0.00012058561
0.0019344
-8.2516551e-05
0.0021091799
-0.00011895357
0.0021608688
5.1994408e-06
0.00012901514
0.0021168433
0.00090261917
0.0009258812
0.00121197
0.001241142
0.0012944716
0.0013456043
0.0013788082
0.0014336976
0.0014686812
0.0015279387
0.0015306124
0.00160058
0.0016339726
0.0016411674
0.0016920721
0.0017157618
0.001789884
0.0017997161
0.0017797756
0.001897244
0.0019423563
0.0018709289
0.0018871259
0.0020244744
0.002138789
0.0020659267
0.0019729895
0.0020823193
0.0023040709
0.0023912676
0.0023196921
-1.2798114e-05
0.0021188056
2.386684e-05
0.0019728878
0.00014546002
0.0020058569
0.00031434419
0.0021092658
0.00041637979
0.0021883909
0.00036259592
0.002219813
0.00018440907
0.0022297406
6.408947e-05
0.0022385241
0.00015325103
0.0022884652
0.00048392366
0.0024223774
0.00094921602
0.0025333252
0.0012614089
0.0025403051
0.0012336692
0.0024625604
0.00092820764
0.0023727129
0.00064514213
0.0023257832
0.0006816304
0.0023944487
0.001036174
0.0025720372
0.0014170155
0.0028136569
0.001544113
0.0029806029
0.0013963002
0.0029959639
0.0011108498
0.0029164054
0.00096611574
0.0028480396
0.0029105499
0.0012107492
0.00022921071
0.0022696512
0.0004357832
0.0021072259
0.0005655817
0.0020238878
0.00055443971
0.0019640536
0.00043942758
0.0019224926
0.00027482632
0.0019122273
0.00015586329
0.0019532448
0.00018289611
0.0020469403
0.00036358366
0.0022163575
0.00059613233
0.0023830602
0.00072843732
0.0024735825
0.00071244624
0.0024786661
0.0005879204
0.0024397807
0.00053551859
0.0024201353
0.00071970715
0.0024831111
0.0011296083
0.0025828457
0.0015524372
0.0026390061
0.0016886656
0.0026586107
0.0014652975
0.0026243587
0.0010680269
0.0025348141
0.00075078993
0.0025121309
0.00082376289
0.0026848549
0.0030109168
0.0013550505
0.00010164759
0.0023195401
5.4357469e-05
0.0021517915
-3.6209989e-06
0.0020549361
5.1107386e-05
0.0019923326
0.0001949856
0.0019807634
0.00043161654
0.0019858914
0.00069963137
0.0020131434
0.00089964885
0.0020292674
0.0008973503
0.0020604682
0.00069598926
0.0020844817
0.00040500268
0.0020946001
0.00017472618
0.0021397287
0.00018069148
0.0022544051
0.00044979801
0.0024434703
0.00090426479
0.0026743616
0.0013009505
0.00281112
0.0014318776
0.0027980128
0.0013023623
0.0026705489
0.0010671551
0.0025055493
0.00091187377
0.0023823465
0.001031409
0.0023684107
0.0013943443
0.0025258281
0.0028023575
0.0017922527
-0.00031412675
0.0020132007
-0.00055656362
0.0019280939
-0.0005860428
0.0019359923
-0.00037222306
0.0020186737
4.0095163e-05
0.0021442202
0.0005322432
0.0022242615
0.00086109511
0.0022388882
0.00090913398
0.0021714327
0.00073690407
0.0020651022
0.00047480198
0.0019829595
0.00034215489
0.0019386248
0.00041317434
0.0019546808
0.00072410956
0.0020556339
0.0010837702
0.0022533176
0.001243092
0.0024720582
0.0011095461
0.0025801129
0.00075111013
0.0025865372
0.00040460971
0.0025565362
0.00040892339
0.002571197
0.00085029434
0.002645757
0.0015107008
0.0027156861
0.0020228865
0.0027375785
0.0027363182
0.0021964298
-0.0001337972
0.0018078203
-0.00012692928
0.0017591712
1.7508554e-05
0.0017750532
0.00022228334
0.0018784087
0.00041757079
0.0020033419
0.00040778315
0.0020543658
0.00022661036
0.0020878143
-4.2439414e-05
0.0020878558
-0.00016321411
0.0020802875
-7.8884082e-05
0.0021033816
0.00028004986
0.0021602412
0.00088842151
0.0021973952
0.0014426704
0.0022056403
0.001697167
0.0022022401
0.0015002998
0.0022099565
0.00095074345
0.0021908439
0.00038055036
0.002155258
0.00017606907
0.0022032042
0.00040030879
0.0024064749
0.0010198275
0.0026945018
0.001589843
0.0029171372
0.001861824
0.002979758
0.0028851474
0.001811351
0.00040053408
0.002005732
0.00077127507
0.0018987021
0.0010150695
0.0018043538
0.0010258972
0.0017642964
0.00074614339
0.0017492512
0.00030502255
0.0017205706
-0.00014429599
0.0017369687
-0.0004322917
0.0017891881
-0.00042591593
0.0019092154
-0.00010583981
0.0020880847
0.00039963739
0.0022742386
0.00087194898
0.0023633732
0.0011155743
0.0023730254
0.0010774762
0.0023156247
0.0008852071
0.0022264107
0.0006510241
0.0021615786
0.00062641256
0.0020792493
0.00085456546
0.0020553399
0.0013193092
0.002175321
0.0016916587
0.0024232928
0.0017077231
0.0026599582
0.0013918483
0.00274285
0.002699464
0.00089725181
0.0003057682
0.0021392971
0.00045970728
0.0020308308
0.00044214927
0.0019109749
0.00032800924
0.0018059616
0.00021467121
0.0017520148
0.00017088335
0.0016930359
0.00026011191
0.0016760249
0.00048651623
0.0016930442
0.00075356993
0.0017627968
0.00093773384
0.0018952861
0.00091053364
0.0020357878
0.00061651149
0.0021022648
0.000187391
0.002147242
-0.00015996773
0.0021935276
-0.00023203887
0.002246414
4.7511279e-05
0.0023421585
0.0006855933
0.0023849637
0.001519097
0.002359628
0.0021695501
0.002311071
0.0023781268
0.0022908461
0.0020265888
0.0023273867
0.0012476371
0.0023302052
0.0022700901
0.00044830711
-0.00033940142
0.0019407017
-0.00075207863
0.00189025
-0.00099388683
0.0018428394
-0.0010014817
0.0018402967
-0.0006975693
0.0019008401
-4.5697443e-05
0.0019458929
0.0007034526
0.0019408395
0.0013446223
0.0019019697
0.0017482496
0.001846071
0.0017290829
0.0018047791
0.0013220598
0.0017985273
0.00061653283
0.0017726349
-6.5617357e-05
0.0017688831
-0.00051513415
0.0018435518
-0.00047776318
0.0020267627
-3.2093416e-05
0.0022793249
0.00067187619
0.0025017428
0.0013145171
0.0025707856
0.001683319
0.0025335285
0.0017592683
0.0024290806
0.0015996013
0.0023351258
0.0011610934
0.0022437869
0.0020964093
0.00080599114
-0.00065853793
0.0016219848
-0.0010297068
0.0016399456
-0.0010524733
0.0016679738
-0.00076842629
0.0017646083
-0.00038477143
0.0018963737
9.5533595e-06
0.0019826
0.00042430396
0.0020218348
0.00073510165
0.0020332514
0.00085215366
0.0020027549
0.00078791712
0.0019122897
0.00060385306
0.0018293176
0.00042642792
0.0017429034
0.00037769541
0.0016544956
0.00059188354
0.0016687131
0.00086238878
0.0017975293
0.0011297776
0.0020193352
0.0012043868
0.0022562178
0.0009611903
0.002375098
0.00063266626
0.0024050551
0.00025422732
0.0024037562
5.4165105e-05
0.0023956139
0.00024748468
0.0024119691
0.0023590924
0.0008592126
0.00029078624
0.0016177626
0.00061579446
0.0015714631
0.00076067581
0.0015312696
0.00073268037
0.0015889826
0.00064656136
0.0017080938
0.00051656381
0.0018071881
0.00015399809
0.0018504615
-0.00036680706
0.0018838632
-0.00088838937
0.0019168137
-0.0011378694
0.0019253152
-0.00092465677
0.001953009
-0.00020227222
0.0019750844
0.00076891652
0.0019166726
0.0016860141
0.0018448108
0.0022939545
0.0018202692
0.0024415034
0.001860741
0.0020560564
0.0019833952
0.0012430423
0.0020788471
0.00020179193
0.0020841432
-0.00061849529
0.0021130663
-0.0009240128
0.0022173311
-0.00054910689
0.0023941363
0.0025709846
0.00043202407
0.00092998824
0.0018288802
0.0016618954
0.0017355226
0.0021248902
0.0016155912
0.0022336301
0.00155529
0.0018574066
0.0015567198
0.00097812842
0.0015661841
-6.9218153e-05
0.0015752444
-0.0010466402
0.0016168867
-0.0016129992
0.0017049107
-0.0016577627
0.0018030402
-0.0012446031
0.0019262988
-0.00052062401
0.0020469651
0.00036661698
0.0020764538
0.0013030478
0.0020573017
0.0020457875
0.0020168586
0.0024099389
0.0019634142
0.0022097719
0.0019326325
0.0014797317
0.0019158944
0.00047623133
0.0018378466
-0.00023455393
0.001816148
-0.00040377504
0.0019404525
-0.00010195711
0.0021798433
0.0024537182
0.00047735735
0.00051355352
0.001920478
0.00093568549
0.0018643588
0.0012162895
0.0017489061
0.0013330915
0.0016537798
0.0011908198
0.001586059
0.00075490293
0.0015136693
0.00012786156
0.001433579
-0.00029615138
0.0014308835
-0.00044390171
0.0015183815
-0.00031933728
0.0016533445
-6.1730044e-05
0.0018047578
0.00018346144
0.0019535264
0.00037809163
0.0020167269
0.00047520772
0.0020247616
0.00051175396
0.0020358074
0.00045745509
0.0020419836
0.00045364029
0.0020215752
0.00053801475
0.0020054578
0.00071593138
0.0018953445
0.00092261004
0.0017596624
0.00114006
0.0017658868
0.0012935184
0.0019624582
0.0022108383
0.0014042757
-0.00018150432
0.0018803469
-0.00050146252
0.0018607802
-0.00084961468
0.001762894
-0.0011475973
0.0016896942
-0.0011333991
0.0016527879
-0.00062084791
0.0016151681
0.00025113538
0.0015304329
0.0011546156
0.0014761543
0.0017051305
0.001485467
0.0018186927
0.001549936
0.0016221733
0.001656965
0.0012457593
0.0018033073
0.00071346005
0.0018772052
1.3857595e-05
0.0018946522
-0.0007747298
0.0019209783
-0.0013554383
0.0019786471
-0.0014909403
0.0020232205
-0.0010117069
0.0020674918
3.0802165e-07
0.0020682554
0.0013372311
0.001938864
0.00246724
0.0018530645
0.0029662574
0.0018973054
0.0020231487
0.0027707126
-0.0010371475
0.0017750908
-0.0019959823
0.0017782411
-0.0027018171
0.0016953306
-0.002905897
0.0016619427
-0.0025037561
0.0016743534
-0.0015016427
0.0016909703
-8.8790297e-06
0.0016531477
0.0014875894
0.0016092662
0.0026533971
0.0015889568
0.0032291072
0.0015909989
0.00312129
0.0016096317
0.002363522
0.0016749108
0.0011715042
0.0017349036
-0.00018007086
0.0017436765
-0.0014040539
0.0017713646
-0.0022347107
0.0018481838
-0.0024504709
0.001942499
-0.001866474
0.0020443796
-0.00075010621
0.0021184656
0.00079481539
0.0020683081
0.0022214918
0.0019779434
0.0032194976
0.0019647403
0.0020049716
0.0034983
-0.0015131765
0.0016706469
-0.0026063938
0.0016932739
-0.0030119351
0.0016245079
-0.0028001926
0.0016141724
-0.0021442046
0.0016540499
-0.0012324561
0.0016899152
-0.00016775466
0.0016709465
0.00095974956
0.0016526613
0.0019674088
0.0016538616
0.0027416508
0.0016580115
0.0030599272
0.0016494947
0.002679128
0.0016645713
0.0015289077
0.0016814195
-6.4881536e-07
0.0016489907
-0.0013209652
0.001654048
-0.0020016166
0.001747745
-0.002062054
0.0018753923
-0.0015405044
0.0019822484
-0.00077576997
0.0020947483
0.00020185214
0.0020774146
0.0012446361
0.0020008685
0.0021472274
0.0019941897
0.0020448662
0.0027059305
-0.001024684
0.0016180559
-0.0016231622
0.0016372619
-0.0017319764
0.0015752623
-0.001428608
0.0015733855
-0.00099495623
0.0016123167
-0.00052430371
0.0016482892
-6.9008215e-05
0.0016351149
0.00036281091
0.001619228
0.00082889801
0.0016429901
0.0012433696
0.0016702242
0.0015646616
0.0016805362
0.0015881428
0.0016951934
0.0011323259
0.0017064639
0.00028673626
0.0016458127
-0.00048451557
0.0016202374
-0.00093062048
0.0017113178
-0.00091715826
0.0018402667
-0.00066263876
0.0019285604
-0.00034453157
0.0020362889
4.2496072e-06
0.0020313391
0.00041531675
0.0019637104
0.00084099716
0.0019768446
0.0020567688
0.0011234894
6.0962017e-05
0.0016416321
0.00015560396
0.0016662003
0.00021413248
0.0015856894
0.00023139024
0.0015637471
0.00020912983
0.0015814162
0.00013683265
0.0016029311
1.8687464e-05