/*--------------------------------*- C++ -*----------------------------------*\
| =========                 |                                                 |
| \\      /  F ield         | OpenFOAM: The Open Source CFD Toolbox           |
|  \\    /   O peration     | Version:  2406                                  |
|   \\  /    A nd           | Website:  www.openfoam.com                      |
|    \\/     M anipulation  |                                                 |
\*---------------------------------------------------------------------------*/
FoamFile
{
    version     2.0;
    format      ascii;
    arch        "LSB;label=32;scalar=64";
    class       surfaceScalarField;
    location    "140";
    object      phi_0;
}
// * * * * * * * * * * * * * * * * * * * * * * * * * * * * * * * * * * * * * //

dimensions      [1 0 -1 0 0 0 0];

oriented        oriented;

internalField   nonuniform List<scalar> 
40800
(
0.00081824146
0.0010266673
-0.0013141423
0.00092256947
0.00092013037
-0.00093459244
0.00098358667
0.0010319003
-0.0012332537
0.0010502038
0.00091226835
-0.00091077308
0.0010978123
0.00097024311
-0.0011941108
0.0011574267
0.00087897435
-0.00096780115
0.0012049447
0.00085960279
-0.00097158715
0.001256099
0.00080221347
-0.00083300085
0.0012998223
0.00083246945
-0.00086408626
0.0013524606
0.0008286311
-0.00079975217
0.0013886177
0.00081332696
-0.00085105506
0.0014323499
0.00074952402
-0.00078136712
0.0014867489
0.00083998477
-0.00086661387
0.0015228927
0.00087060547
-0.00094183986
0.0015609889
0.00083602371
-0.00088638593
0.0016341517
0.0009160529
-0.00096394507
0.0016634329
0.0010519266
-0.0011170945
0.0016710619
0.00083811896
-0.00088558416
0.0018218567
0.0010490683
-0.0010411203
0.001847682
0.0012569892
-0.0013521643
0.0018424971
0.0010726451
-0.0011991253
0.0019637796
0.0011576251
-0.0012052459
0.0021090393
0.0014145132
-0.0014864758
0.0021005611
0.0013909524
-0.0015382958
0.0020949217
0.0012819885
-0.0013694906
0.0023629201
0.0013843793
-0.0013979831
0.0024928414
0.0016749115
-0.0017154252
0.002528688
0.0019668092
-0.0020513766
0.002813635
0.001928556
-0.0020753247
0.002986282
0.0016908773
-0.0020109024
0.0018455413
0.0027491379
-0.0021170562
0.00081237996
0.00073536579
0.00091305657
0.00095368132
0.00097500569
0.00085092585
0.0010451191
0.00092530404
0.0010907196
0.00072245514
0.0011525507
0.00079119655
0.0012006132
0.00075109331
0.001255095
0.00077541101
0.0012996224
0.00076139357
0.0013521315
0.00082201015
0.0013869826
0.00072995603
0.0014389288
0.00073034946
0.0014904794
0.0007978887
0.0015238738
0.00079635566
0.001568444
0.00078299078
0.0016461673
0.00086930713
0.0016447261
0.00092942412
0.0016950365
0.00081066118
0.0018417314
0.0010681043
0.0018140202
0.0011278265
0.0018439737
0.00097807983
0.0019917824
0.0011429574
0.0020804976
0.001337826
0.0020580678
0.0012740862
0.0020828411
0.0012841479
0.0024012396
0.0014512509
0.0025782728
0.0016294902
0.0024777287
0.0017973254
0.0025953364
0.0017986854
0.0029040371
0.0015228106
0.0015577053
0.0029379548
0.00081435958
0.00051468535
0.0009063278
0.00098540867
0.00096524722
0.00075380127
0.0010331161
0.00094361191
0.0010818396
0.00054985439
0.0011439752
0.00073253692
0.0011943691
0.00066553066
0.0012494759
0.00075051773
0.0012964114
0.00067840159
0.0013443678
0.00075396061
0.0013839468
0.0006564114
0.0014410907
0.00070596354
0.0014896876
0.00073159389
0.001523546
0.0007146993
0.0015743907
0.00071912656
0.0016510025
0.00081819486
0.0016375865
0.00080263698
0.0017284412
0.00081227203
0.0018505058
0.0010696132
0.0017932903
0.00098555267
0.0018661582
0.00090693056
0.0020177485
0.0011504501
0.0020583809
0.0012719259
0.0020603262
0.0011598593
0.0021048083
0.0012967375
0.002403036
0.001539626
0.0025997103
0.0015655146
0.0024647702
0.0015507623
0.0024400047
0.0016151133
0.0027828667
0.0015149277
0.0014232158
0.0030679764
0.00081869359
0.00042266275
0.00089971973
0.00095752196
0.0009586003
0.00075177131
0.0010176404
0.00094018285
0.0010739369
0.00051948952
0.0011328313
0.00070733473
0.0011867974
0.00062554987
0.0012398021
0.00071406451
0.0012902336
0.00061963883
0.0013326553
0.00065375735
0.0013791827
0.00060712867
0.0014357283
0.0006848313
0.0014805493
0.00065961919
0.0015172087
0.0006203641
0.0015758519
0.00067733727
0.001644654
0.0007568378
0.0016373507
0.00068872188
0.0017570418
0.00082510212
0.0018423141
0.0010344143
0.0017844187
0.00085342278
0.0019032713
0.00087217242
0.0020397654
0.001146858
0.002032482
0.001194743
0.0020885729
0.0010422006
0.0021523671
0.0012455635
0.0023568443
0.0015558594
0.0025536559
0.0014756137
0.0024639361
0.0012844182
0.0023605085
0.0013709621
0.0026537648
0.0015491723
0.0014725524
0.0030945346
0.00082640604
0.00047617614
0.0008976495
0.00084237684
0.00095841578
0.00080115814
0.0010071909
0.00087205705
0.0010685542
0.00060497077
0.0011211733
0.00070427095
0.0011766155
0.00063273941
0.0012256509
0.00064830567
0.0012794838
0.00059335839
0.0013205308
0.00055982173
0.001373634
0.00057930171
0.001425402
0.00064508414
0.0014663225
0.00060819182
0.0015086603
0.00055210873
0.0015701561
0.00065814754
0.0016265211
0.00070675046
0.0016384023
0.00060227007
0.0017671009
0.00081174551
0.0018144773
0.00096201498
0.0017812135
0.00073821975
0.001937091
0.00086116068
0.0020460648
0.0011261588
0.0020000842
0.0010995027
0.0021188631
0.00094636439
0.0022189965
0.0011272475
0.0023001291
0.0014573586
0.0024453595
0.0013634027
0.0024582619
0.001053178
0.0023916771
0.0011340811
0.0025482593
0.0015144866
0.0016369614
0.0029768676
0.00083515054
0.00062348158
0.00089844883
0.00066248071
0.00095918002
0.00084931131
0.0010009166
0.00073883244
0.0010637927
0.0007244687
0.0011098566
0.00068127597
0.0011641985
0.00064736754
0.0012097184
0.00056484838
0.0012631917
0.00058799682
0.0013055363
0.00048973178
0.0013611704
0.00055609809
0.0014091253
0.0005718985
0.00144937
0.00056550996
0.0015017044
0.00052490168
0.0015605022
0.0006360588
0.0016040152
0.00067411995
0.0016409844
0.00055544415
0.0017643573
0.00078281084
0.0017753251
0.00085601157
0.0017817968
0.00065306434
0.0019595869
0.00085173122
0.0020353582
0.0010546415
0.0019621783
0.00098585854
0.0021403045
0.000892675
0.0022851278
0.0010002563
0.0022587962
0.0012653016
0.0023114187
0.0012300835
0.0024415135
0.00092687368
0.00250286
0.0009608934
0.0025476049
0.0013896068
0.0017273208
0.0027787966
0.00084804752
0.00076327286
0.00090197531
0.00046674586
0.00095737326
0.00085484141
0.00099701638
0.00058199422
0.0010566689
0.00079047952
0.0010981209
0.0006049088
0.0011482629
0.00061804426
0.0011934216
0.00049154079
0.0012412904
0.00057832499
0.0012861015
0.00046032279
0.0013379742
0.00050511649
0.0013853883
0.00050702896
0.0014259905
0.00051725084
0.0014882305
0.00051214088
0.0015444839
0.00059584144
0.0015773881
0.00062183989
0.0016418674
0.0005513922
0.001747114
0.00075183473
0.0017296375
0.00071697405
0.0017833149
0.00059946756
0.0019584625
0.00085201173
0.0020057153
0.00093388525
0.0019258148
0.00084332851
0.0021274963
0.00088071622
0.0023196029
0.00091911105
0.0022424493
0.0010340178
0.0022185691
0.001077564
0.0024229889
0.0009398538
0.0026296732
0.00089279179
0.002675983
0.0011784891
0.0015947604
0.0026739329
0.00087575055
0.00082145488
0.0009088451
0.0003241124
0.00095394976
0.00080293799
0.0009929217
0.00045108722
0.0010440912
0.00073178177
0.0010839072
0.00049497695
0.0011282573
0.00053842607
0.0011754645
0.00044221821
0.0012153876
0.0005266136
0.0012612036
0.00046387966
0.0013077861
0.00045390559
0.001353692
0.00047139
0.0013936394
0.0004553549
0.0014608349
0.00050536517
0.0015141327
0.00052610321
0.0015435897
0.00055665103
0.0016330122
0.00055632072
0.0017116235
0.00069682987
0.0016854805
0.00057155648
0.0017847915
0.00056704264
0.0019302605
0.00085415456
0.0019581916
0.00080344427
0.0019022559
0.00067763705
0.0020876426
0.00089335273
0.0023032009
0.00093530555
0.0022228773
0.00083424019
0.0021520956
0.00091732542
0.0023754325
0.0010323533
0.0026883811
0.00097178111
0.0028053805
0.0010021039
0.0012218527
0.0027019342
0.00093110827
0.000769203
0.0009275499
0.00030714774
0.00095847233
0.00070237036
0.00099688436
0.00038876552
0.0010315354
0.00056856365
0.0010688642
0.00039448358
0.0011055877
0.00044491264
0.0011518851
0.00043028701
0.0011850289
0.00042888435
0.0012297991
0.00046251173
0.0012729341
0.00041869941
0.0013136433
0.0004222374
0.0013552429
0.0003908436
0.0014185536
0.00049079143
0.0014697465
0.00045673263
0.0014969886
0.0004700872
0.0016008223
0.00054809417
0.0016550804
0.00061381719
0.0016434772
0.00044690542
0.0017830039
0.00055094498
0.0018795877
0.00081868881
0.001897138
0.0006698174
0.0019022339
0.00053079294
0.0020454805
0.00087975715
0.0022374378
0.00099052415
0.0022165391
0.0007123272
0.0021590016
0.0007579797
0.0023196045
0.0010777668
0.0026376305
0.0011607706
0.0028032381
0.00095190859
0.00085550054
0.0027368119
0.0010005626
0.00060310402
0.00097204108
0.00043168148
0.00098227886
0.00059452055
0.0010154211
0.00043108241
0.0010330994
0.00039362134
0.0010672126
0.00034804716
0.0010966058
0.00037444308
0.0011359746
0.0004423871
0.0011637002
0.000332397
0.0012016877
0.00042711976
0.0012398167
0.00040031152
0.0012719029
0.00036441727
0.0013153192
0.00032951367
0.0013663998
0.00045100384
0.0014143358
0.0003867902
0.0014432474
0.00036529923
0.0015453701
0.00050622843
0.0015784244
0.00052914477
0.0015969219
0.00036304158
0.0017628853
0.00054088504
0.0018055017
0.00074873217
0.0018178841
0.00056579659
0.0019115983
0.00042635302
0.0020146051
0.00080136835
0.0021216898
0.00100319
0.0021862046
0.00067849147
0.0022115188
0.00061138369
0.0023048513
0.00099154519
0.0025166544
0.0012783518
0.0026787172
0.0010214849
0.00065781395
0.0027054118
0.0010319981
0.00035699419
0.0010228856
0.00060109279
0.0010264778
0.00050187393
0.00105556
0.0005509136
0.001059825
0.00028746102
0.0010842928
0.00038055838
0.0011067905
0.00035543232
0.001136196
0.00044917155
0.0011649975
0.00027997874
0.0011974505
0.00036384887
0.0012310176
0.0003774307
0.0012559435
0.00031461516
0.0013011507
0.00030313816
0.001333647
0.0003939163
0.0013734293
0.0003406702
0.0014044596
0.00028084749
0.0014893757
0.00044069442
0.0015007144
0.00044265936
0.0015481643
0.00031913548
0.0017216536
0.00051882042
0.0017161637
0.00063975557
0.001728649
0.00049122329
0.001909736
0.00038812937
0.0019991059
0.00068256144
0.0019982399
0.00091517143
0.0021018061
0.00069545943
0.0022397921
0.00051575583
0.0023396899
0.00079394846
0.002390844
0.0011580117
0.0024756957
0.0010749473
0.00066857957
0.0025724667
0.0010359085
0.0001389855
0.0010646424
0.00070515268
0.0010800245
0.00044968887
0.0011122207
0.00064545505
0.0011216705
0.00028407978
0.0011382232
0.00045822623
0.0011524002
0.00038454722
0.0011657584
0.00042556092
0.0011919634
0.00029734218
0.0012151232
0.00031156212
0.0012404803
0.00034701453
0.0012627683
0.00027720699
0.0013082352
0.00031577571
0.0013278945
0.00032211764
0.0013616274
0.00031626694
0.0014017061
0.00024875976
0.0014664294
0.00038343986
0.001459655
0.00034569133
0.0015269615
0.00031679378
0.0016801225
0.00050619267
0.0016342
0.00048630187
0.001645486
0.00041280525
0.0018874269
0.00042363175
0.0019731814
0.00056745291
0.001892473
0.00070489957
0.001990659
0.00066393405
0.0022254659
0.00051740262
0.0023607207
0.0006027452
0.0023167959
0.0008170171
0.0023042387
0.00094213812
0.00075121661
0.0024121788
0.00099416806
2.6586635e-05
0.0010651752
0.0006862165
0.0011023067
0.0004472718
0.0011444264
0.00064354019
0.0011825072
0.0003574683
0.0012124088
0.00050363798
0.0012347164
0.00041214509
0.0012448808
0.00034752354
0.0012698421
0.00035467453
0.0012856752
0.00027909046
0.0012984757
0.00031320956
0.0013155763
0.00026943857
0.0013482107
0.00033164559
0.0013575923
0.00027579226
0.0013789563
0.0002904911
0.0014232589
0.0002577894
0.0014645885
0.00033672478
0.0014554256
0.00025980155
0.0015364672
0.00033261192
0.001653099
0.00049824857
0.0015972009
0.00033888299
0.0016053457
0.00033898011
0.0018513719
0.00050861533
0.0019304299
0.00049470334
0.0018151497
0.00044520363
0.0018785472
0.00054248613
0.0021518323
0.00058414748
0.0023094435
0.00050228108
0.0022577491
0.00048621705
0.0021671337
0.00061098394
0.00072784229
0.0022648483
0.0009513136
5.3181125e-05
0.0010318209
0.00055515277
0.0010931787
0.00048484517
0.0011377207
0.00054195387
0.0011910731
0.00042943354
0.0012303917
0.00046639558
0.0012693382
0.00038482498
0.001297971
0.00023236297
0.0013354193
0.00036352307
0.0013641218
0.0002589241
0.0013821502
0.00025926607
0.0014076953
0.00027676703
0.0014305741
0.00031641804
0.0014371072
0.00022984786
0.0014477718
0.00026673878
0.0014899401
0.00028582853
0.0015046232
0.00030126638
0.0015015241
0.00020418142
0.0015820736
0.0003375346
0.0016450006
0.00047551773
0.0016061224
0.00021826209
0.0016242182
0.00027747452
0.0018232469
0.00058076729
0.0018912928
0.00047866711
0.0017947303
0.00023395022
0.0018292441
0.00037524106
0.0020546209
0.00063771006
0.0022110278
0.00052053341
0.0021977627
0.00030635537
0.0021122431
0.0002803251
0.00056363212
0.0021721009
0.00094853626
0.00020371898
0.0010075131
0.0003501358
0.0010647056
0.00053816675
0.0011083844
0.00036170355
0.001169234
0.00043550075
0.0012112438
0.00034982164
0.0012535837
0.00030438402
0.001294166
0.00016058908
0.0013314475
0.00030923371
0.0013682351
0.00026651064
0.0013957775
0.0001980913
0.0014349142
0.00027187807
0.0014623218
0.00027763353
0.0014878558
0.00018108865
0.0015089767
0.00023965766
0.0015600312
0.00031226789
0.0015668421
0.00027943727
0.0015835024
0.00017045213
0.0016625042
0.00033104299
0.0016709025
0.00042926122
0.0016670186
0.00013698726
0.0017108307
0.00021878375
0.0018286286
0.00059626049
0.001862067
0.00048661956
0.0018250302
0.00011762227
0.0018731883
0.00023020624
0.0020026494
0.00061461714
0.0021140178
0.00062318264
0.0021307593
0.00028225717
0.0021335245
0.00013003345
0.00034940506
0.0021757936
0.0010038952
0.00039406342
0.0010232139
0.00015565944
0.0010644573
0.00055951348
0.0011001402
0.00016255742
0.0011507835
0.00036929127
0.00118604
0.00020842153
0.0012246791
0.00021458996
0.0012720872
0.00017846582
0.0013067664
0.00022747964
0.0013442365
0.00026426225
0.001377805
0.00015586375
0.0014169301
0.00024080982
0.0014414632
0.0002377691
0.0014792299
0.00015950151
0.0015090612
0.00020746459
0.0015599362
0.00030922933
0.0015661991
0.00025899382
0.0016128344
0.00015788774
0.0016967446
0.00029993718
0.0016670404
0.0003600797
0.0017079347
0.00012210628
0.0018073108
0.00017020887
0.0018581072
0.00052038201
0.0018345071
0.00046709495
0.0018694714
0.00010939307
0.0019799779
0.00015042439
0.0020353117
0.00050408148
0.0020480143
0.00066964789
0.0020780809
0.00039025042
0.0021787026
0.00015294878
0.00023007321
0.0022846733
0.00098621193
0.00043479841
0.001041875
1.0388903e-05
0.0010752231
0.00050878876
0.0011165432
4.4858365e-05
0.0011575048
0.00024629252
0.0011917027
8.7143385e-05
0.0012278135
0.00014547195
0.0012729942
0.00025037159
0.0013021664
0.00016362685
0.0013312786
0.0002194407
0.0013671522
0.00014219141
0.0014000768
0.00018523484
0.0014196062
0.0001830393
0.00146252
0.00014647197
0.0014962303
0.00017509647
0.0015387104
0.00025659164
0.001541191
0.00021495001
0.0016079805
0.00016936686
0.0016858817
0.00025986893
0.0016281949
0.00025172697
0.001703897
0.00014832401
0.001851914
0.00016886316
0.0018557045
0.00036887669
0.0017884366
0.00037161645
0.0018884963
0.00017100352
0.0020702878
0.00016042536
0.0021099258
0.00036609867
0.00202647
0.00054210828
0.0020551878
0.00046553814
0.0022167288
0.00029845995
0.00024484774
0.0023869496
0.00097095612
0.00027177787
0.0010399399
-1.0754703e-05
0.0010686437
0.00038874249
0.0011197506
5.0813224e-05
0.0011549438
0.00012835734
0.0011944821
5.6204433e-05
0.0012344003
0.00011977344
0.0012737044
0.00029423208
0.00130333
0.00013656192
0.0013272789
0.00014394269
0.0013660895
0.000152082
0.0013934921
0.00014085415
0.0014104683
0.00012233274
0.0014552514
0.00015138714
0.0014877592
0.00015024227
0.0015202798
0.00018507314
0.0015212757
0.00014577033
0.0015942743
0.00019090957
0.0016588581
0.00022201267
0.0015909073
0.00011025365
0.0016753218
0.00017353135
0.0018428121
0.00021890392
0.0018212989
0.00020786313
0.0017298333
0.00020419786
0.0018583782
0.00022471216
0.0020806762
0.00024842353
0.0021247338
0.00027166413
0.0020080852
0.0002725393
0.0020127016
0.00038207465
0.0021958267
0.00040369426
0.00035044524
0.0024025536
0.00099877601
-1.221384e-06
0.0010504949
8.3518552e-05
0.0010653516
0.0002779363
0.0011174244
0.00014830821
0.001146446
7.8422724e-05
0.0011877038
0.00011276489
0.0012273599
0.00013474224
0.0012577127
0.00023319755
0.0012886727
0.00012934639
0.0013133671
8.2307201e-05
0.0013516367
0.00015058828
0.0013778805
0.00011807053
0.0013994065
7.6338701e-05
0.0014415117
0.00015971174
0.0014725094
0.00013211012
0.0014973522
0.00012301498
0.0015078633
7.7222918e-05
0.001576715
0.00019141568
0.0016232075
0.0001742782
0.0015774023
-6.0829343e-06
0.0016560559
0.00018838437
0.0018055062
0.00029399846
0.0017827262
9.3019345e-05
0.0017014331
1.2242427e-05
0.0018250004
0.00022584295
0.0020399975
0.0003623264
0.0020712573
0.00022135304
0.0019901489
4.6910035e-05
0.0019749609
0.00014196465
0.002132219
0.00036946643
0.00042459693
0.0023255642
0.0010325723
-0.00028402757
0.001086522
0.00021920809
0.0010892391
0.00020483583
0.0011361296
0.00027445637
0.001159649
8.0133811e-05
0.0011967567
0.00019670763
0.0012309761
0.00015061001
0.0012516955
9.5998137e-05
0.0012810123
0.00010281791
0.0013061225
6.4721296e-05
0.001341875
0.00011510137
0.001361654
0.00010937512
0.0013879117
4.827801e-05
0.0014250074
0.00013347655
0.0014544644
0.0001074767
0.0014736778
6.1691652e-05
0.0014970622
2.1719849e-05
0.0015531694
0.00016124751
0.0015797261
0.00012705723
0.001581982
-8.2781706e-05
0.001648228
0.00015693628
0.0017487476
0.00034124224
0.0017410528
3.6307332e-05
0.0017121936
-0.00012679085
0.0018140604
0.00013976869
0.001969061
0.00042524002
0.0019800068
0.00020220016
0.0019533955
-5.9780993e-05
0.001976084
-8.8329534e-05
0.0020822836
0.00020945658
0.00038829694
0.0022070074
0.0010384481
-0.00045762807
0.001096584
0.00023787683
0.0011144038
0.00019696622
0.0011632688
0.00030245552
0.0011934556
8.553651e-05
0.0012278337
0.00023582724
0.0012573065
0.00014455547
0.0012757358
-1.4094575e-05
0.0013042788
4.7916958e-05
0.0013306457
7.4773086e-05
0.0013573339
6.9696796e-05
0.0013776911
9.7634889e-05
0.0014089247
6.7550802e-06
0.0014343259
8.9642297e-05
0.0014582602
7.4847462e-05
0.0014746285
1.3907176e-05
0.0015117708
-2.1784015e-05
0.0015543237
0.00010863338
0.0015557605
9.3387613e-05
0.0016085302
-0.0001032149
0.0016736071
9.170084e-05
0.0017017136
0.00030833956
0.0017031585
3.1982791e-05
0.0017411444
-0.00016632488
0.001854634
4.2844732e-05
0.0019124098
0.00034844559
0.0018921952
0.00022501717
0.0019056371
-7.7050254e-05
0.0020115977
-0.00017968284
0.0020914093
3.5508957e-05
0.00025967945
0.0021275593
0.0010859753
-0.00036625239
0.0010738667
0.00018213495
0.0011053559
0.00020538635
0.0011567742
0.0001786765
0.0011996284
6.1650216e-05
0.0012390955
0.00015538915
0.0012756696
8.2812728e-05
0.0013058487
-5.3389613e-05
0.0013414724
3.7522698e-06
0.0013687181
7.0281259e-05
0.001409666
1.0019482e-05
0.0014134376
8.4847581e-05
0.0014584554
-2.0089282e-05
0.0014853906
3.458791e-05
0.0015072245
4.5041585e-05
0.0015232735
3.4614527e-06
0.0015736322
-2.2511863e-05
0.0016057753
5.2596889e-05
0.0015877628
6.0384216e-05
0.0016798005
-7.5362464e-05
0.0017503418
2.9704684e-05
0.0017176682
0.00017280182
0.0017193756
4.8916083e-05
0.00181243
-0.00011272265
0.0019429852
-1.3438397e-05
0.0019289406
0.00017005811
0.0018624677
0.0001709636
0.0019126668
-4.1820806e-05
0.0020852587
-0.00012023801
0.0021740097
-3.1850062e-05
0.00010268166
0.0021407425
0.00090226509
0.00092813693
0.0012095981
0.0012414819
0.0012930356
0.0013446485
0.0013798572
0.0014336837
0.0014696245
0.0015266013
0.0015324174
0.001599077
0.0016324401
0.0016443725
0.0016918976
0.0017168477
0.001782487
0.0018145027
0.001773881
0.0018815651
0.0019551603
0.0018895546
0.0018758828
0.0019995838
0.0021400191
0.0021038957
0.0019889622
0.0020507041
0.002269856
0.0024027022
0.0023588784
-4.3441773e-05
0.0021112975
-4.1740722e-05
0.0019654266
5.0956651e-05
0.0020075292
0.00021888862
0.0021321233
0.00037871204
0.0022393894
0.00040356148
0.0022810738
0.0002784886
0.0022753332
0.00013002007
0.0022508825
0.00018179539
0.0022575927
0.00045711336
0.0023595711
0.00089684766
0.0024683539
0.0012560594
0.002503728
0.0012933409
0.0024633947
0.0010160798
0.0023967511
0.00066896866
0.0023408073
0.00059924984
0.0023889114
0.00088529742
0.0025591405
0.0013160608
0.0028191588
0.0015570647
0.0030244747
0.0015121661
0.0030612354
0.0012758623
0.0029689829
0.001064052
0.0028485624
0.0028367246
0.0011499497
0.00021275702
0.0022155621
0.00042536462
0.0020615483
0.00057869101
0.0020015378
0.00057606073
0.0019681907
0.00044368979
0.0019431432
0.00024024967
0.0019395264
9.0988778e-05
0.0019764062
7.8472203e-05
0.0020610681
0.00026384083
0.0022232791
0.00055805565
0.0024019607
0.0007845132
0.0025078339
0.00084122612
0.0025171912
0.00073638166
0.0024578857
0.00061300956
0.0023975641
0.00067831018
0.0024166467
0.0010099786
0.0024992853
0.0014537143
0.0025836525
0.0016789221
0.0026632893
0.0015309644
0.002687206
0.0011651268
0.0026235997
0.00079417644
0.0025740194
0.00074208956
0.0026824597
0.0029532666
0.0011947676
0.00019269052
0.0023336787
0.00022095074
0.0021569382
0.00016516965
0.0020456472
0.00017324635
0.0019665911
0.00023690945
0.0019373317
0.0003664718
0.0019303138
0.00057114877
0.0019612366
0.00077441328
0.0019977872
0.00083476695
0.0020685188
0.00071749587
0.0021324189
0.0004752978
0.0021645404
0.00021683522
0.0022038186
0.00015498166
0.0022927625
0.00036681683
0.0024414654
0.00081282838
0.0026447933
0.0012874927
0.0027790973
0.0015352382
0.0027760126
0.0014760534
0.0026622111
0.001210414
0.0025077459
0.00092508094
0.0023702174
0.00089648784
0.0023313249
0.0011846415
0.0024896884
0.0027994744
0.0016155334
-0.00025587625
0.0020719199
-0.00049252344
0.0019725417
-0.00055021842
0.0019600039
-0.00037352553
0.0020177162
7.5853944e-06
0.0021231096
0.00050932494
0.0021948045
0.00089819083
0.0022103645
0.0010396236
0.0021487618
0.00090991721
0.002050417
0.0006035204
0.0019696507
0.00035138298
0.0019197755
0.00030387182
0.0019333098
0.0005121847
0.0020397825
0.00087834341
0.0022595707
0.0011506918
0.0025064787
0.0011690374
0.0026406623
0.00092623377
0.0026559886
0.00059639268
0.0026036749
0.00048650783
0.0025638738
0.00078617166
0.0025774802
0.0013701193
0.0026116856
0.00191362
0.0026496284
0.0027072362
0.0021696201
-0.00023500396
0.0017963538
-0.0003045202
0.0017559439
-0.00020020754
0.001785557
5.0752594e-05
0.0019007524
0.00029136009
0.0020440575
0.00042722929
0.0021089612
0.00037941163
0.0021411936
0.0001646943
0.0021251332
-3.1940948e-05
0.0020859788
-1.4561715e-06
0.0020692271
0.00025353659
0.0020894927
0.00077142538
0.0021109739
0.0013373753
0.002133866
0.0016536781
0.0021688367
0.0015348483
0.0022265427
0.0010410663
0.002249051
0.00044289727
0.0022303896
0.00012546089
0.0022640225
0.00024572413
0.0024303838
0.00083438736
0.0026838618
0.0015279957
0.0028944518
0.0019680434
0.002958362
0.0028672794
0.0020473742
0.00034344926
0.0019431985
0.00067903295
0.0018442138
0.00091321868
0.0017695246
0.00097393769
0.0017622582
0.00075121029
0.0017792003
0.00033979534
0.0017701589
-0.00012343385
0.001791793
-0.00048184881
0.0018366797
-0.00055269958
0.0019398682
-0.00026486042
0.0020991017
0.00028905377
0.0022732203
0.00088539643
0.0023596134
0.0012807002
0.0023620168
0.0013608049
0.0022981042
0.0011734468
0.0022064614
0.00081120378
0.0021350072
0.00057456831
0.0020430611
0.00061210081
0.0020192136
0.00098850826
0.0021620118
0.0014540271
0.0024489702
0.0016595597
0.0027145011
0.001532453
0.0028158581
0.0027746668
0.0011664621
0.00039433947
0.0021307508
0.00065918882
0.0020193952
0.00074559448
0.0018963412
0.00064505569
0.001784117
0.00042733157
0.0017180039
0.00020808372
0.0016514689
0.00012583288
0.0016366737
0.00021066936
0.0016668224
0.00042756106
0.0017614504
0.00063743903
0.0019186233
0.00077247578
0.0020888478
0.00064771142
0.0021707645
0.00039537521
0.0022191472
6.6943002e-05
0.0022452818
-6.9779872e-05
0.0022551749
0.00010494609
0.0022976892
0.00062271899
0.0022962251
0.0013679709
0.002256293
0.0020366669
0.002230333
0.0023129523
0.0022588464
0.0020523501
0.0023564129
0.0013550216
0.0024110449
0.0023738349
0.0005615795
-0.0001812247
0.0020029532
-0.00050514664
0.001935743
-0.00077035139
0.0018666913
-0.00082552136
0.0018366513
-0.00058179114
0.0018645546
-2.1935664e-05
0.0018830204
0.00066398064
0.0018642239
0.0012774371
0.0018275987
0.0016729121
0.0017932183
0.00172409
0.0017900688
0.0013552546
0.0018230727
0.00067126076
0.0018283662
-5.3291131e-05
0.0018381215
-0.00060325022
0.0019070424
-0.00066539155
0.0020657994
-0.00026215419
0.0022905185
0.00054026455
0.0024944925
0.0013481937
0.0025444209
0.0018953503
0.0024926728
0.0021029817
0.0023865702
0.0019432797
0.0023081624
0.0013713022
0.0022347606
0.0020969125
0.00074813749
-0.00074510697
0.001677256
-0.0012034065
0.0016888747
-0.0013119664
0.0017049607
-0.0010598839
0.0017872571
-0.00062050666
0.0019093507
-9.0164855e-05
0.001989247
0.00049469701
0.0020211344
0.00098822347
0.0020210322
0.0012666279
0.0019777787
0.0012601638
0.0018800999
0.00097280163
0.0017936131
0.00055747351
0.0017083185
0.00023572276
0.0016271807
0.00021558621
0.0016561857
0.00039320635
0.0018100156
0.00070087488
0.0020518692
0.00095451624
0.0023029771
0.00096569856
0.0024305684
0.0008995152
0.0024613017
0.00067838478
0.0024405034
0.00049628956
0.0023940753
0.00050251728
0.0023644108
0.002277362
0.00085349788
2.9147475e-05
0.0015681915
0.00013808825
0.0015508568
0.00026174313
0.0015394889
0.00029585245
0.0016200604
0.00032536585
0.0017527408
0.00036689876
0.0018579333
0.00022637565
0.0019012166
-9.2087035e-05
0.0019316484
-0.00049601627
0.0019532292
-0.00074750347
0.0019362916
-0.00062199407
0.0019265285
-6.4510257e-05
0.0019085985
0.00069579838
0.0018235358
0.0014872845
0.0017589258
0.002015228
0.0017635411
0.0021790707
0.0018503067
0.0019089777
0.0020201788
0.0012363233
0.00214943
0.00030828363
0.0021682782
-0.00046839407
0.0021934292
-0.00083473665
0.0022688113
-0.00054571222
0.0023973152
0.0025237341
0.00034860885
0.00094226784
0.0017688566
0.001661017
0.0016749953
0.0020319504
0.00156459
0.0020490205
0.0015325421
0.0017055501
0.001572386
0.0009366334
0.0016151231
-2.3573229e-05
0.001643842
-0.00097660935
0.0016863475
-0.0016607949
0.0017569682
-0.0018404309
0.0018301323
-0.0014816405
0.0019303403
-0.00069045333
0.0020338075
0.00040027918
0.0020476227
0.0014813445
0.0020038392
0.0023471979
0.0019511768
0.0027621863
0.0019062887
0.0024883185
0.0019044952
0.001616238
0.0019300037
0.00045084515
0.001891204
-0.00044180157
0.001884996
-0.0008231752
0.0019941392
-0.00057647122
0.0022125699
0.002463895
0.00014290365
0.00069126652
0.0018959603
0.0012900556
0.0018332333
0.001762939
0.001713542
0.0019758361
0.0016186952
0.0017668917
0.0015593161
0.0010502728
0.0015031536
6.6738451e-05
0.0014438537
-0.00073123131
0.0014597993
-0.0010668675
0.0015580226
-0.00095411808
0.0016912107
-0.0006016579
0.0018338292
-0.00016560316
0.0019747142
0.00023632603
0.0020279833
0.00065203043
0.0020292288
0.0010012379
0.0020289654
0.0011877744
0.0020206305
0.0012456695
0.0019858674
0.0010858443
0.0019604001
0.00077163464
0.0018568571
0.00051449185
0.001739803
0.00047720496
0.0017773158
0.00060888255
0.0019972853
0.0022522931
0.00086690948
6.5775057e-05
0.001889252
-3.3564456e-07
0.00186387
-0.00016007204
0.0017602584
-0.00034494705
0.0016784993
-0.00039779825
0.0016276968
-0.00019048844
0.0015743639
0.00025547361
0.0014801686
0.00072744726
0.0014329716
0.000996374
0.0014677495
0.0010698632
0.0015643114
0.00099571094
0.0016910114
0.0008056347
0.0018443644
0.00056549513
0.0019164136
0.00015853664
0.0019289704
-0.00037270341
0.0019480988
-0.00079227334
0.0019938828
-0.00090896305
0.0020194586
-0.0005302712
0.0020360522
0.00017330789
0.002005145
0.0012431838
0.0018674389
0.0020801059
0.00179294
0.002387854
0.0018773489
0.0020481805
0.0022549786
-0.00074874974
0.0018087301
-0.0015340307
0.0018054196
-0.0022085294
0.0017140055
-0.0025307748
0.0016638831
-0.0022973414
0.0016566544
-0.0014112351
0.0016565002
2.4449069e-05
0.0016072454
0.0015074644
0.0015571885
0.0025644744
0.0015412216
0.0029502906
0.0015628381
0.00271732
0.0016119921
0.0020011351
0.0017057667
0.0010396643
0.0017830329
-8.9178852e-05
0.0017956229
-0.0011913045
0.0018190722
-0.0020465192
0.001879781
-0.002379263
0.0019546801
-0.0018578946
0.0020390733
-0.00069725005
0.002086608
0.00088807212
0.0020164243
0.0023679538
0.0019167983
0.00329984
0.0019132113
0.001979854
0.0033986084
-0.0014747728
0.0017079435
-0.0026286745
0.0017279
-0.0032093907
0.0016491708
-0.0031708033
0.0016240112
-0.0025478682
0.0016490054
-0.0014969787
0.0016763509
-0.00018850079
0.001648811
0.0012005816
0.0016222528
0.0024128556
0.0016203751
0.0032308847
0.0016247831
0.003386595
0.0016278273
0.0028078098
0.0016662126
0.0015361435
0.0017072548
-5.4817699e-05
0.0016947125
-0.001500379
0.0017019533
-0.0023211555
0.0017814659
-0.0025162381
0.0018913405
-0.0020330809
0.0019825332
-0.0010565841
0.0020853254
0.00026249652
0.0020566595
0.0015696682
0.0019643853
0.0026682536
0.0019548253
0.0020123562
0.0033031363
-0.0014276014
0.0016437448
-0.0023542776
0.0016637623
-0.0025950617
0.0015957673
-0.0022696749
0.0015844889
-0.0016404438
0.0016149899
-0.00091802293
0.0016447057
-0.00016017919
0.0016261783
0.00063105583
0.0016058527
0.0014127763
0.0016250341
0.0020742306
0.0016491059
0.002493616
0.0016607884
0.0023811092
0.0016858603
0.0015414041
0.0017108276
0.00016712274
0.0016665147
-0.0010503607
0.0016487847
-0.001712753
0.00173295
-0.0017527214
0.0018525585
-0.0013576919
0.0019333219
-0.00080027049
0.0020353491
-0.00010615641
0.0020261547
0.00073141594
0.0019523876
0.001497729
0.0019597671
0.0020394666
0.0020456068
-0.00065337551
0.0016578954
-0.00097678736
0.0016832426
-0.0010089171
0.0015959649
-0.00079733042
0.0015673913
-0.00053539308
0.0015806077
-0.00027874479
0.0015982517