/*--------------------------------*- C++ -*----------------------------------*\
| =========                 |                                                 |
| \\      /  F ield         | OpenFOAM: The Open Source CFD Toolbox           |
|  \\    /   O peration     | Version:  2406                                  |
|   \\  /    A nd           | Website:  www.openfoam.com                      |
|    \\/     M anipulation  |                                                 |
\*---------------------------------------------------------------------------*/
FoamFile
{
    version     2.0;
    format      ascii;
    arch        "LSB;label=32;scalar=64";
    class       volScalarField;
    location    "140";
    object      pMean;
}
// * * * * * * * * * * * * * * * * * * * * * * * * * * * * * * * * * * * * * //

dimensions      [1 -1 -2 0 0 0 0];

internalField   nonuniform List<scalar> 
20580
(
1.0039143
1.0049642
1.00396
1.0040944
1.0041991
1.0042153
1.0042285
1.0042561
1.0042872
1.0043209
1.0043507
1.0043798
1.0044048
1.0044267
1.0044447
1.004456
1.0044552
1.0044551
1.004445
1.0044137
1.0043737
1.004322
1.0042376
1.0041097
1.0039634
1.0038
1.0035842
1.0033078
1.0029959
1.0026448
1.0022945
1.0038998
1.0049604
1.0039644
1.0040962
1.0042003
1.0042158
1.0042288
1.0042563
1.0042862
1.004318
1.0043466
1.0043743
1.0043971
1.0044161
1.0044313
1.0044406
1.0044389
1.0044369
1.0044197
1.0043819
1.0043437
1.0042801
1.0041912
1.0040829
1.0039553
1.0038108
1.003604
1.0033279
1.0030322
1.0026528
1.002245
1.0038905
1.0049582
1.0039642
1.0040977
1.0042013
1.0042156
1.0042284
1.0042552
1.0042847
1.0043142
1.004342
1.0043676
1.0043872
1.0044037
1.0044159
1.0044213
1.0044159
1.004411
1.0043868
1.0043434
1.0043028
1.0042315
1.0041364
1.0040286
1.0038945
1.0037453
1.0035447
1.0032893
1.0030306
1.0026869
1.0022873
1.0038799
1.0049535
1.0039625
1.0040985
1.0042017
1.0042155
1.0042281
1.0042537
1.0042834
1.0043108
1.0043376
1.0043609
1.0043784
1.0043926
1.0044014
1.0044023
1.0043943
1.0043852
1.0043537
1.0043053
1.0042612
1.0041872
1.0040859
1.0039674
1.0038171
1.0036443
1.0034483
1.0032205
1.002989
1.0027185
1.0023624
1.0038751
1.0049524
1.0039623
1.0041018
1.0042037
1.0042159
1.0042285
1.0042528
1.0042823
1.0043084
1.0043337
1.0043547
1.004371
1.0043835
1.0043883
1.0043848
1.0043738
1.0043597
1.0043219
1.0042706
1.0042215
1.004143
1.0040389
1.003923
1.0037676
1.0035762
1.0033701
1.0031407
1.0029068
1.0026728
1.0023999
1.0038698
1.0049533
1.0039592
1.0041043
1.0042055
1.0042155
1.004228
1.004252
1.0042807
1.0043062
1.00433
1.0043488
1.0043644
1.0043752
1.0043764
1.0043696
1.0043577
1.0043363
1.0042948
1.0042429
1.0041875
1.0041019
1.0039918
1.0038819
1.0037455
1.0035666
1.0033491
1.0030919
1.0028173
1.0025341
1.0022872
1.0038639
1.0049521
1.0039513
1.0041046
1.0042059
1.0042143
1.0042268
1.0042515
1.0042789
1.0043044
1.0043265
1.004344
1.0043585
1.0043679
1.0043658
1.0043571
1.0043461
1.0043186
1.0042744
1.0042218
1.004159
1.0040667
1.0039581
1.0038541
1.0037171
1.0035457
1.0033576
1.0031256
1.0028409
1.0025035
1.0021659
1.0038531
1.0049517
1.0039433
1.0041039
1.0042065
1.0042137
1.0042258
1.0042515
1.0042773
1.0043027
1.0043233
1.0043396
1.0043529
1.0043603
1.0043563
1.004347
1.0043357
1.0043043
1.0042577
1.0042043
1.0041352
1.0040414
1.0039355
1.0038285
1.0036786
1.003495
1.0033162
1.0031396
1.0029208
1.0026403
1.0022851
1.0038502
1.0049489
1.0039318
1.0041054
1.0042076
1.0042135
1.0042252
1.0042512
1.0042761
1.0043007
1.0043205
1.0043359
1.0043479
1.0043534
1.004348
1.0043368
1.0043239
1.0042908
1.0042435
1.0041883
1.0041113
1.0040183
1.0039106
1.0037948
1.0036444
1.0034536
1.0032559
1.0030817
1.0028986
1.0026641
1.0023941
1.0038469
1.004953
1.0039217
1.0041095
1.0042101
1.0042127
1.0042248
1.0042503
1.0042751
1.0042985
1.0043176
1.0043328
1.0043436
1.0043476
1.0043416
1.0043271
1.0043119
1.0042772
1.0042315
1.0041739
1.0040928
1.0039978
1.0038826
1.0037501
1.0036074
1.0034407
1.0032341
1.003008
1.0027899
1.0025439
1.0023143
1.0038409
1.0049427
1.0039153
1.0041139
1.0042119
1.0042119
1.0042245
1.0042492
1.0042748
1.0042966
1.0043155
1.0043303
1.0043402
1.0043427
1.0043369
1.0043212
1.0043031
1.004268
1.0042226
1.004163
1.0040794
1.0039898
1.0038808
1.003736
1.0035839
1.0034319
1.0032477
1.0030143
1.0027554
1.0024738
1.0021976
1.003827
1.0049394
1.0039157
1.0041174
1.0042126
1.0042129
1.0042259
1.0042486
1.0042736
1.0042941
1.004313
1.0043279
1.0043369
1.0043378
1.0043321
1.0043164
1.0042959
1.0042623
1.0042175
1.0041555
1.0040706
1.003988
1.0038919
1.003752
1.0035888
1.0034312
1.0032664
1.0030659
1.0028354
1.0025846
1.0023174
1.0038076
1.0049332
1.0039143
1.0041238
1.0042117
1.0042116
1.0042264
1.0042488
1.0042737
1.0042934
1.004312
1.0043266
1.0043348
1.0043351
1.0043305
1.0043153
1.0042905
1.004257
1.0042136
1.0041496
1.0040642
1.0039836
1.0038939
1.0037625
1.0036004
1.0034325
1.0032616
1.0030731
1.0028757
1.0026595
1.0024718
1.0038185
1.0049173
1.0039082
1.0041319
1.0042111
1.0042095
1.0042255
1.0042476
1.004271
1.0042905
1.0043087
1.0043232
1.0043311
1.0043315
1.0043272
1.0043148
1.0042857
1.0042534
1.0042077
1.0041415
1.004059
1.0039763
1.0038812
1.0037487
1.0035931
1.0034389
1.0032714
1.003063
1.0028406
1.0025924
1.0024062
1.0038098
1.0049051
1.0039065
1.0041403
1.0042121
1.0042083
1.0042251
1.0042485
1.0042711
1.0042906
1.0043076
1.0043208
1.0043279
1.0043291
1.004323
1.0043101
1.004283
1.0042515
1.0042027
1.0041333
1.0040502
1.0039616
1.0038598
1.0037306
1.0035803
1.0034228
1.0032554
1.0030556
1.0028249
1.0025729
1.0023342
1.003806
1.0049099
1.0038958
1.0041434
1.0042116
1.0042071
1.0042241
1.0042462
1.0042682
1.0042876
1.0043046
1.0043175
1.0043245
1.0043266
1.0043187
1.0043036
1.0042789
1.0042502
1.0042007
1.0041322
1.0040535
1.0039623
1.0038535
1.0037299
1.003587
1.0034244
1.0032475
1.0030588
1.002852
1.0026166
1.0023503
1.0037888
1.0048959
1.003885
1.0041575
1.0042118
1.0042059
1.0042255
1.0042477
1.0042694
1.004288
1.0043051
1.0043164
1.0043232
1.0043268
1.0043173
1.004301
1.004278
1.0042504
1.0041997
1.0041332
1.0040642
1.0039746
1.0038638
1.0037526
1.0036268
1.0034611
1.00327
1.003096
1.002931
1.0027502
1.002489
1.0037826
1.0049008
1.00387
1.0041642
1.0042074
1.0042018
1.0042243
1.0042433
1.0042674
1.0042847
1.004303
1.0043131
1.0043199
1.0043238
1.0043156
1.0042992
1.0042758
1.0042487
1.0042006
1.0041372
1.0040766
1.0039966
1.0038846
1.0037683
1.0036561
1.0035154
1.0033259
1.003118
1.0029245
1.0027413
1.0025399
1.0037987
1.0048596
1.0038646
1.0041903
1.0042109
1.0042038
1.0042277
1.0042447
1.0042687
1.0042853
1.0043041
1.0043131
1.0043201
1.0043228
1.0043149
1.0043018
1.004279
1.0042503
1.0042014
1.0041366
1.0040745
1.0039962
1.0038884
1.0037695
1.0036519
1.0035191
1.0033591
1.0031777
1.0029772
1.0027601
1.0025416
1.003769
1.0049039
1.0038372
1.0041924
1.0042074
1.0041994
1.0042276
1.004239
1.0042672
1.0042798
1.0043007
1.0043092
1.0043172
1.00432
1.0043122
1.0042986
1.0042759
1.0042456
1.0042003
1.0041378
1.0040709
1.0039908
1.0038839
1.0037642
1.0036406
1.0035002
1.0033318
1.0031454
1.0029485
1.0027478
1.0025339
1.0037694
1.0048446
1.003842
1.0042271
1.0042051
1.004202
1.0042301
1.0042435
1.0042693
1.0042831
1.0043024
1.004311
1.0043192
1.0043183
1.004314
1.0043049
1.0042826
1.0042521
1.0042062
1.0041467
1.0040737
1.0039908
1.0038936
1.0037843
1.0036609
1.0035183
1.0033557
1.0031843
1.0030018
1.0028066
1.002591
1.0037567
1.0049022
1.0037659
1.004236
1.0041961
1.0041919
1.0042286
1.0042322
1.0042709
1.0042725
1.0043011
1.0043048
1.0043177
1.0043175
1.0043096
1.0043022
1.0042792
1.0042512
1.0042127
1.0041583
1.0040837
1.0040009
1.0039086
1.0038103
1.0036878
1.0035439
1.0033801
1.0032154
1.0030356
1.0028527
1.0026304
1.0037466
1.0048115
1.0038304
1.0042622
1.0041813
1.0041942
1.0042203
1.0042341
1.0042619
1.0042736
1.004293
1.0043026
1.0043138
1.004309
1.0043096
1.0043106
1.0042857
1.0042568
1.0042171
1.0041721
1.0041029
1.0040251
1.003944
1.0038559
1.0037389
1.0036014
1.0034636
1.0033317
1.0031675
1.0029665
1.0027327
1.002514
1.0024492
1.0023579
1.0023199
1.0023082
1.0022814
1.0022294
1.002124
1.0021126
1.0021558
1.0021613
1.0020135
1.0018994
1.0020012
1.0020102
1.0019488
1.0018418
1.001927
1.0019637
1.0019284
1.0017927
1.0018058
1.0019367
1.0022033
1.0021175
1.0020584
1.0019463
1.0019762
1.0020124
1.0019496
1.0018365
1.0017209
1.0018174
1.001876
1.0017458
1.0015469
1.0015345
1.0016587
1.0016527
1.0014853
1.0013077
1.0014044
1.00152
1.0013759
1.0010869
1.0011582
1.0019897
1.0017821
1.0016667
1.0015595
1.0017001
1.0017104
1.0016454
1.0014003
1.0013099
1.0014214
1.0014975
1.0013455
1.0011444
1.0010779
1.0012171
1.0012781
1.0010892
1.0007845
1.0007912
1.0010182
1.0009156
1.0005414
1.0004751
1.001666
1.0013549
1.0012103
1.0011204
1.0013494
1.0014764
1.0013807
1.0010438
1.0008457
1.0009173
1.0011768
1.0010987
1.0008426
1.0004965
1.0006322
1.0009563
1.0008021
1.0003669
1.0001273
1.00052
1.0006601
1.0002735
0.99981962
1.0013446
1.0010198
1.0008253
1.0007042
1.0008796
1.0011099
1.0010667
1.0007133
1.0003902
1.0004053
1.0007821
1.0009274
1.0006006
1.0000186
0.99998827
1.0004963
1.0006142
1.0001292
0.99946934
0.99970125
1.0003413
1.0001595
0.99939955
1.0011018
1.0007001
1.0004361
1.0002299
1.0004176
1.0007958
1.000843
1.0004478
0.99996882
0.9998502
1.0003143
1.0007695
1.0005197
0.99973604
0.99931455
0.99974137
1.0003928
1.0001015
0.99918913
0.99879375
0.99945208
0.99996168
0.99930904
1.0008834
1.0003674
0.99998719
0.99975187
0.99998887
1.0005292
1.0006896
1.0002752
0.99961008
0.99932701
0.99973435
1.0005052
1.000432
0.99959146
0.99879015
0.99904964
1.0000802
1.0002642
0.99929719
0.9981128
0.99833346
0.99961071
0.99954783
1.0008147
1.0001344
0.99963117
0.99936042
0.99965393
1.0003955
1.0007683
1.0003264
0.99937424
0.99887988
0.99922204
1.0002984
1.000569
0.99973172
0.99848079
0.99832634
0.9993382
1.0004396
0.99976782
0.99809425
0.99738982
0.9984304
0.99969291
1.000867
0.99998003
0.99925847
0.99896478
0.99931686
1.0003635
1.000999
1.0005979
0.999284
0.9985275
0.99873877
1.0000073
1.0008444
1.0002317
0.99847344
0.9977115
0.99849272
1.0003192
1.0003101
0.99856881
0.9968676
0.99732757
0.9993593
1.0012768
1.0000994
0.99907998
0.99869379
0.99904638
1.00035
1.0012846
1.0009832
0.99936816
0.99834274
0.99837553
0.99971737
1.0012379
1.0009431
0.99883129
0.9974619
0.99779329
0.99974504
1.0009173
0.99956233
0.99700212
0.99636568
0.99809805
1.0018648
1.0003877
0.99902227
0.99851361
0.99887589
1.0004436
1.0018056
1.0016135
0.99970271
0.99826406
0.99802444
0.99950098
1.0017289
1.0018831
0.99970533
0.99748426
0.99707806
0.99896295
1.00151
1.0009338
0.99782248
0.99582357
0.99676399
1.0029119
1.000949
0.99908023
0.99836551
0.99880471
1.0007624
1.0027389
1.0026976
1.0004408
0.99835707
0.99773443
0.99922041
1.0020891
1.003099
1.001011
0.99787008
0.99664517
0.99827197
1.0016074
1.0024132
0.99943832
0.99604424
0.99550722
1.0042014
1.0017396
0.99928162
0.99834822
0.99890027
1.0012373
1.0038894
1.0039944
1.0014692
0.99864261
0.99763429
0.99903691
1.0022737
1.0042962
1.0025016
0.99861896
0.99659548
0.99767533
1.00124
1.003774
1.0015732
0.99702561
0.99494481
1.0055378
1.0026268
0.99967101
0.9985343
0.99915428
1.0017845
1.0049586
1.0054023
1.0026019
0.99917127
0.99777362
0.99898558
1.0024157
1.005268
1.0039373
0.99963781
0.99690663
0.99737831
1.0007619
1.0044737
1.0034089
0.99834937
0.99514971
1.0068759
1.003647
1.0002006
0.99884131
0.99950348
1.0024167
1.0060192
1.0067901
1.0037433
0.99980727
0.99803032
0.99909111
1.0026951
1.0061402
1.0052543
1.000706
0.99735558
0.99721473
1.0004637
1.0049288
1.0048451
0.9997973
0.99562621
1.0082442
1.0045855
1.0007683
0.99918143
0.99984979
1.0029725
1.006992
1.0080036
1.0046954
1.0003695
0.99831373
0.99928874
1.00308
1.0070395
1.0064558
1.0016482
0.99775963
0.99719493
1.0003584
1.0053473
1.0061295
1.001144
0.99624261
1.0094019
1.0054752
1.0012715
0.99948767
1.0001817
1.0035395
1.0079701
1.0091491
1.0055588
1.0008216
0.99849458
0.99947188
1.0035429
1.0079323
1.0074897
1.0024079
0.99806174
0.99722558
1.0004454
1.0057941
1.0071192
1.0020925
0.99671664
1.0108071
1.0062846
1.0018659
0.9997829
1.0004578
1.0040186
1.0088285
1.0101537
1.0062635
1.0011526
0.99862731
0.99968008
1.0040645
1.008739
1.0082599
1.0028284
0.99821715
0.99733891
1.0007654
1.0063598
1.0077769
1.0024638
0.99686592
1.0116791
1.0068549
1.0023232
1.0000357
1.000733
1.0044795
1.0095683
1.0109106
1.0066567
1.0012834
0.99871545
0.99995563
1.0047066
1.0094752
1.0086278
1.0027827
0.99816486
0.99753328
1.0013764
1.0071255
1.008075
1.0021779
0.99670681
1.0122022
1.007182
1.0025159
1.0001949
1.0009577
1.0048773
1.0101184
1.011256
1.0065981
1.0010787
0.99866108
1.0002865
1.0054721
1.0100547
1.0084135
1.0021512
0.99781611
0.99783902
1.0023312
1.0079566
1.0077141
1.0011142
0.99619728
1.0125066
1.0073858
1.0025709
1.0003279
1.001133
1.0051238
1.0103569
1.0111099
1.0060633
1.0005737
0.99849676
1.0006565
1.0062194
1.0102308
1.0074226
1.000925
0.99725698
0.99832142
1.003613
1.0085852
1.0064203
0.99940209
0.99548881
1.0123443
1.0073369
1.0023401
1.0002644
1.0011232
1.0051967
1.0103226
1.0105122
1.0050623
0.99977001
0.99820288
1.0010262
1.0068964
1.0098896
1.0056658
0.99926582
0.99664192
0.99908584
1.0051166
1.0085895
1.0040395
0.99735236
0.99501736
1.0114183
1.006634
1.0015976
0.99985381
1.0008701
1.0049987
1.0097974
1.0092387
1.0035078
0.99865889
0.99780633
1.0013409
1.0072048
1.0086104
1.0031406
0.9974766
0.99628611
1.0001823
1.0063752
1.0071952
1.0007015
0.99547377
0.99560832
1.0093955
1.004628
1.0000505
0.99904873
1.000516
1.004564
1.0084062
1.0068299
1.0010986
0.99725691
0.99753545
1.0017944
1.0069279
1.0060095
0.99998783
0.99581541
0.99657466
1.0017375
1.0065952
1.0039292
0.99720667
0.99445825
0.9975489
1.0060472
1.0012805
0.99742273
0.99725499
0.99947713
1.0033336
1.0058776
1.0033913
0.99822292
0.99575322
0.99738337
1.002158
1.0055216
1.0023784
0.99681182
0.99471707
0.99752728
1.0029932
1.0047581
0.99945197
0.99464533
0.99502027
1.0001092
1.000573
0.9962558
0.99332873
0.99415273
0.99704273
1.0001991
1.0013804
0.9985871
0.99507847
0.99442529
0.99717868
1.0016298
1.0023904
0.99810575
0.99433354
0.99457894
0.99869332
1.0027551
1.0008254
0.99549585
0.99376988
0.99684607
1.0016577
0.99696144
0.99372098
0.99183112
0.99258151
0.99536084
0.99744273
0.99724231
0.99470321
0.99291639
0.99365669
0.99684309
0.9997576
0.99818279
0.99461317
0.9931562
0.99518794
0.99916651
1.0003825
0.99630536
0.99346471
0.99439628
0.99852018
1.0007296
0.9940914
0.99131224
0.98943939
0.99055705
0.99310961
0.99468648
0.99400786
0.99226578
0.99170635
0.99324159
0.99621236
0.9972259
0.99474609
0.99269863
0.99307547
0.99585667
0.99828908
0.99674465
0.99358268
0.99317722
0.99577012
0.99865935
0.99786021
0.98950747
0.9865265
0.9854022
0.9863546
0.9885108
0.98984487
0.98958724
0.98919494
0.98990623
0.99203895
0.99452192
0.99430196
0.99237954
0.99177844
0.99330917
0.99596148
0.99627867
0.99365972
0.99263384
0.99382542
0.9965443
0.99699148
0.99442835
0.98906672
0.98692105
0.98601939
0.98688723
0.9881698
0.98850055
0.9880807
0.98846848
0.98966747
0.99158103
0.99294312
0.99221473
0.99140465
0.99186454
0.99380633
0.99514347
0.99400164
0.99259907
0.99288716
0.99476658
0.99604881
0.99468677
0.99310944
0.9912179
0.98936852
0.98849548
0.9889915
0.98965412
0.98926443
0.98892375
0.98935787
0.9903929
0.99156701
0.99210629
0.99158686
0.99150392
0.99235392
0.99369984
0.99384355
0.99278032
0.99255438
0.9934265
0.99469671
0.99440866
0.9933169
0.99308522
0.99285256
0.99140878
0.99089804
0.9910147
0.99126855
0.99062412
0.99030728
0.99075108
0.99147758
0.9921739
0.99211618
0.99193892
0.99220536
0.99306974
0.99375165
0.99327593
0.99278455
0.99302709
0.9940336
0.9943464
0.99359212
0.99318272
0.99339121
0.99473076
0.99363652
0.99326366
0.99315815
0.99311862
0.99253721
0.99215572
0.9922991
0.99259893
0.99285022
0.99257088
0.99258366
0.99290232
0.99327279
0.99327476
0.99293767
0.992924
0.99323808
0.99360091
0.99334316
0.99301431
0.99303946
0.99357323
0.99575665
0.99484507
0.99458045
0.99445279
0.99422671
0.99377581
0.99356104
0.99362647
0.99373543
0.99376925
0.99342435
0.99343161
0.99369611
0.99387835
0.993688
0.99343389
0.99346447
0.99370647
0.99378356
0.99349544
0.99324005
0.99325129
0.99350168
0.99693435
0.9963891
0.99609703
0.99594851
0.99566522
0.99521547
0.99489182
0.99477854
0.99466869
0.99449117
0.99415805
0.99413934
0.99415968
0.99406325
0.99372526
0.9936131
0.99365089
0.99359147
0.99321836
0.99296508
0.99294819
0.9930884
0.99309618
0.99730204
0.99691324
0.99668772
0.99654539
0.99631187
0.99597007
0.99564879
0.99546392
0.99535593
0.99514796
0.9949191
0.99475309
0.99468504
0.99460811
0.99448308
0.99439059
0.99432493
0.99432805
0.99428073
0.99413833
0.99394973
0.99368108
0.99359005
0.99790443
0.99759261
0.99740779
0.99729538
0.99710367
0.99682502
0.99649312
0.99623318
0.99608565
0.99590213
0.99559969
0.99535403
0.995275
0.99513491
0.99487543
0.9945847
0.99445635
0.99435577
0.99416099
0.99392901
0.99373787
0.9935956
0.9934434
0.99817771
0.99792749
0.99778102
0.9976937
0.99755699
0.9973558
0.9971098
0.99686697
0.99667607
0.99650479
0.9962577
0.99598279
0.9958262
0.99568626
0.99547719
0.99520006
0.99498092
0.99483183
0.99464981
0.99442632
0.99418881
0.99394844
0.99372263
0.9985264
0.99832859
0.99819648
0.99811136
0.99797764
0.99780036
0.99759843
0.99739762
0.99720623
0.99702638
0.99681314
0.99655049
0.9963268
0.9961653
0.99596785
0.99572182
0.99545864
0.99525124
0.99503799
0.99479999
0.99455064
0.99425771
0.99397538
0.99870913
0.99855607
0.99846839
0.99841937
0.99832274
0.99817442
0.9979996
0.99783007
0.99765245
0.99747352
0.99728312
0.99706468
0.99682491
0.99662297
0.99642745
0.99620702
0.99595875
0.99571511
0.99547205
0.99522144
0.99496085
0.99464639
0.99429543
0.99893988
0.99880629
0.99872201
0.99867919
0.99860008
0.99848422
0.99833567
0.99818943
0.99802694
0.99786508
0.99769045
0.99750865
0.99730677
0.9970933
0.99688788
0.99668088
0.99645907
0.99619988
0.99592514
0.99565491
0.9953904
0.99506915
0.99468959
0.99911786
0.99901549
0.99893604
0.99889669
0.99882681
0.99873994
0.99862232
0.99850169
0.99836343
0.99821723
0.99806236
0.99789974
0.99772681
0.9975358
0.99733337
0.99713512
0.99693069
0.99668528
0.9963946
0.99610022
0.99582193
0.99550986
0.99512307
0.99927766
0.99919611
0.99912749
0.99909601
0.99902954
0.99896121
0.99886951
0.99877011
0.99865854
0.99853106
0.99839703
0.99825231
0.99809502
0.99792323
0.9977406
0.99755237
0.99736162
0.99713984
0.99686945
0.9965727
0.99627842
0.99597514
0.99559524
0.99941622
0.99935122
0.99929524
0.99927687
0.99921844
0.99916096
0.99908757
0.99899996
0.99890336
0.99879421
0.99868242
0.99856131
0.99842522
0.99827161
0.99810658
0.99793334
0.99775258
0.99754799
0.99730712
0.99703449
0.99674018
0.99644001
0.99608608
0.99955373
0.9994899
0.9994409
0.99942114
0.99937479
0.99932849
0.99927154
0.9991993
0.99911368
0.99902308
0.99892994
0.99882896
0.99871101
0.99857794
0.99843451
0.99828041
0.99810639
0.99791258
0.99769229
0.99744818
0.99717043
0.99688105
0.99655545
0.9996711
0.99961996
0.99957161
0.99955084
0.99950972
0.99947332
0.99942547
0.99936696
0.99929547
0.99922483
0.99914892
0.99906036
0.99895673
0.99884106
0.99871641
0.99857701
0.99841547
0.99823461
0.99803245
0.99781221
0.99755765
0.99729103
0.9970021
0.9997741
0.99972533
0.99968396
0.99966794
0.99963266
0.9996018
0.99955812
0.99950791
0.99944986
0.99939049
0.99932584
0.9992496
0.99916479
0.99906884
0.99895992
0.99883351
0.99868914
0.99852682
0.99834293
0.99813973
0.99790576
0.99765967
0.99741013
0.999871
0.99982225
0.9997824
0.99976943
0.99973759
0.99971034
0.99967231
0.99963171
0.99958548
0.9995337
0.99947562
0.99941223
0.99934354
0.99926495
0.99916937
0.99905669
0.99892838
0.99878377
0.99861564
0.99842594
0.99821059
0.99798272
0.99776776
0.99996528
0.99991118
0.99987863
0.99986139
0.9998329
0.99980593
0.9997743
0.99974071
0.99970145
0.99965786
0.99961064
0.99955852
0.99949882
0.99942865
0.9993434
0.99924228
0.99912603
0.99899506
0.99884263
0.99866985
0.99847507
0.99826795
0.99808309
1.0000466
1.0000011
0.9999669
0.99995014
0.99992283
0.99989721
0.99986825
0.99983626
0.99979953
0.99976018
0.99971938
0.99967456
0.99962204
0.99955977
0.99948539
0.9993967
0.99929167
0.99917185
0.9990344
0.99887858
0.99870178
0.99851292
0.99835192
1.0001414
1.0000876
1.0000548
1.000034
1.0000064
0.99998122
0.99995259
0.99992173
0.99988768
0.99985146
0.99981314
0.99977032
0.99972166
0.99966531
0.99959864
0.99951932
0.99942513
0.99931565
0.99919105
0.99904923
0.99888677
0.99871245
0.99856986
1.0001973
1.0001568
1.0001249
1.0001078
1.0000811
1.000058
1.0000304
1.0000004
0.99996742
0.99993264
0.99989487
0.99985213
0.99980407
0.99974965
0.9996862
0.99961172
0.99952535
0.99942481
0.99931069
0.99918156
0.9990331
0.99887349
0.99874759
1.000248
1.0002024
1.0001752
1.0001606
1.0001375
1.0001166
1.0000923
1.0000651
1.0000338
0.99999983
0.99996212
0.99991936
0.99987091
0.99981654
0.999754
0.99968206
0.99959995
0.99950768
0.99939996
0.99928162
0.99914593
0.99899934
0.99888553
1.0002708
1.0002361
1.000209
1.000196
1.000175
1.0001554
1.0001328
1.0001076
1.0000785
1.000046
1.0000085
0.99996625
0.99991786
0.99986367
0.99980181
0.99973183
0.99965293
0.99956479
0.99946506
0.99935318
0.99922774
0.99909071
0.99898373
1.0002763
1.000242
1.0002199
1.0002103
1.0001929
1.0001759
1.0001553
1.0001316
1.0001038
1.000072
1.000035
0.99999248
0.99994419
0.99989015
0.99982913
0.99976077
0.99968443
0.99959942
0.99950406
0.99939859
0.99928055
0.99915141
0.99904664
1.000269
1.0002407
1.00022
1.0002115
1.0001957
1.0001803
1.000161
1.0001383
1.0001111
1.0000794
1.0000421
1.0000003
0.99995171
0.99989794
0.99983758
0.99977076
0.99969646
0.99961419
0.9995228
0.99942265
0.99931151
0.99918927
0.99908382
1.0002501
1.0002211
1.0002041
1.0001984
1.0001847
1.0001714
1.0001533
1.0001316
1.0001046
1.0000728
1.0000354
0.9999931
0.99994505
0.99989132
0.99983131
0.99976517
0.99969212
0.99961216
0.99952413
0.9994284
0.99932229
0.99920487
0.99909803
1.0002235
1.0001992
1.0001832
1.0001785
1.0001648
1.0001522
1.0001346
1.000113
1.0000862
1.0000544
1.0000171
0.99997453
0.99992673
0.99987313
0.99981364
0.99974819
0.99967626
0.99959805
0.9995128
0.99942021
0.999318
0.99920393
0.9990948
1.0001935
1.0001669
1.0001532
1.00015
1.000138
1.0001265
1.0001094
1.0000878
1.0000609
1.0000288
0.99999135
0.99994869
0.9999008
0.99984726
0.99978828
0.99972315
0.99965244
0.99957538
0.99949211
0.9994013
0.99930172
0.99918858
0.99907571
1.0001585
1.0001366
1.0001228
1.0001195
1.0001077
1.0000958
1.0000786
1.000057
1.0000303
0.99999854
0.99996107
0.99991843
0.99987081
0.99981733
0.99975882
0.99969411
0.99962393
0.99954748
0.99946521
0.99937451
0.99927684
0.99916159
0.99904517
1.0001256
1.0000991
1.0000883
1.0000849
1.0000741
1.0000626
1.0000456
1.0000241
0.99999766
0.99996589
0.9999286
0.99988603
0.99983896
0.99978566
0.9997274
0.99966302
0.99959336
0.99951754
0.99943594
0.99934413
0.99924589
0.99912614
0.99900713
1.0000894
1.0000687
1.0000558
1.0000521
1.0000407
1.0000286
1.0000113
0.99998988
0.99996373
0.99993233
0.99989565
0.99985378
0.99980715
0.99975438
0.99969632
0.99963222
0.99956328
0.99948754
0.99940589
0.99931163
0.99921035
0.9990874
0.99896576
1.0000562
1.0000313
1.0000208
1.000016
1.0000053
0.99999326
0.99997631
0.9999556
0.9999299
0.99989889
0.99986285
0.99982157
0.99977515
0.99972304
0.99966569
0.9996026
0.99953463
0.99945899
0.99937562
0.99927807
0.9991736
0.9990493
0.99892528
1.0000287
1.0000017
0.99999083
0.99998441
0.99997279
0.99995964
0.99994242
0.99992201
0.99989654
0.99986627
0.99983122
0.99979031
0.99974438
0.99969312
0.99963667
0.99957456
0.99950699
0.99943083
0.99934467
0.99924473
0.99913789
0.9990142
0.99888736
0.9999903
0.99996668
0.99995531
0.99994905
0.99993776
0.99992497
0.99990846
0.99988855
0.99986356
0.99983439
0.9998001
0.99975962
0.9997147
0.99966437
0.99960893
0.9995478
0.99948017
0.999402
0.99931334
0.99921245
0.99910534
0.99898267
0.99885411
0.9999649
0.99993454
0.99992418
0.99991588
0.99990453
0.9998913
0.99987494
0.99985536
0.99983149
0.99980307
0.99976872
0.99972874
0.99968494
0.99963595
0.99958164
0.99952097
0.99945173
0.99937207
0.99928263
0.99918169
0.99907452
0.99895286
0.99882357
0.99992381
0.99989969
0.99988841
0.99988131
0.99986936
0.99985673
0.99984106
0.99982236
0.99979944
0.99977171
0.99973785
0.99969905
0.99965653
0.9996083
0.99955466
0.99949281
0.99942246
0.99934215
0.99925244
0.99915221
0.99904569
0.99892554
0.99879549
0.99989686
0.9998658
0.99985581
0.99984693
0.99983531
0.99982254
0.99980731
0.99978922
0.99976718
0.99974002
0.99970712
0.99966952
0.99962752
0.99958013
0.99952619
0.99946337
0.99939232
0.99931175
0.99922294
0.99912382
0.99901852
0.99890015
0.99876955
0.99985963
0.99983283
0.99982114
0.99981306
0.99980083
0.99978843
0.99977336
0.99975597
0.99973403
0.99970676
0.99967453
0.9996382
0.9995971
0.99955007
0.9994952
0.99943145
0.99936031
0.99928031
0.99919209
0.99909399
0.99899024
0.99887393
0.99874375
0.99982373
0.99979687
0.99978613
0.99977778
0.99976584
0.99975428
0.9997399
0.99972337
0.99970216
0.99967574
0.99964441
0.99960861
0.99956759
0.9995199
0.99946445
0.99940016
0.99932829
0.99924858
0.99916142
0.99906487
0.99896259
0.99884831
0.998719
0.99978819
0.99975935
0.99974843
0.99973947
0.99972781
0.99971668
0.9997032
0.99968722
0.99966561
0.99963925
0.99960844
0.9995732
0.99953249
0.99948419
0.99942765
0.99936373
0.99929338
0.9992144
0.99912763
0.99903236
0.99893214
0.99881982
0.99869139
0.99975769
0.99972839
0.99971618
0.99970676
0.99969423
0.99968346
0.99967048
0.99965437
0.99963261
0.99960609
0.99957542
0.99953999
0.99949815
0.9994492
0.99939295
0.99932883
0.99925795
0.99917954
0.99909394
0.99899946
0.99889988
0.99878986
0.9986635
0.99970678
0.99968163
0.99967033
0.99966249
0.99965147
0.99964135
0.99962892
0.99961285
0.99959134
0.99956491
0.99953446
0.99949908
0.99945692
0.99940692
0.99935012
0.99928682
0.9992172
0.99913936
0.99905487
0.99896222
0.99886426
0.99875583
0.99863092
0.9996791
0.9996451
0.99963522
0.99962469
0.99961398
0.99960347
0.99959068
0.99957365
0.99955122
0.99952463
0.99949379
0.99945737
0.99941397
0.99936388
0.999307
0.99924336
0.99917376
0.99909648
0.99901246
0.99892081
0.99882452
0.99871846
0.99859555
0.99961048
0.99958662
0.99957658
0.99957018
0.99956081
0.99955137
0.99953825
0.99952148
0.99949978
0.9994739
0.99944311
0.99940605
0.99936187
0.99931153
0.99925555
0.99919277
0.9991231
0.9990464
0.99896404
0.99887421
0.99877902
0.99867471
0.99855452
0.99956468
0.99952962
0.99952316
0.99951459
0.99950679
0.99949624
0.99948252
0.99946542
0.9994441
0.99941791
0.99938591
0.99934779
0.99930386
0.9992529
0.99919584
0.99913356
0.99906515
0.99898921
0.99890731
0.99881866
0.99872521
0.99862253
0.99850462
0.99946916
0.99944685
0.99944177
0.9994379
0.99943249
0.99942439
0.999411
0.99939394
0.99937277
0.9993473
0.99931578
0.99927725
0.99923301
0.9991829
0.99912638
0.99906402
0.99899601
0.99892129
0.99884096
0.99875308
0.99866042
0.99856011
0.9984453
0.99939334
0.99935871
0.99935872
0.9993517
0.99934766
0.99933877
0.99932509
0.9993075
0.99928619
0.99926048
0.99922846
0.99918997
0.99914588
0.99909623
0.9990401
0.99897798
0.99891059
0.99883688
0.99875782
0.99867169
0.99858067
0.9984827
0.99837065
0.99926404
0.99924407
0.99924313
0.99924139
0.99923764
0.99923076
0.99921729
0.99920022
0.99917839
0.99915214
0.99911982
0.99908143
0.9990378
0.99898866
0.9989331
0.99887128
0.99880449
0.99873163
0.99865291
0.9985673
0.99847821
0.99838349
0.99827433
0.99913047
0.99910728
0.99911079
0.9991088
0.99910587
0.99910003
0.99908805
0.99907164
0.99904922
0.9990222
0.99898997
0.9989518
0.99890732
0.99885746
0.99880205
0.99874065
0.99867376
0.99860095
0.99852301
0.99843784
0.99834917
0.99825654
0.99815057
0.99896997
0.99895137
0.99895672
0.99895734
0.99895548
0.99895003
0.99893781
0.99892124
0.998898
0.99886958
0.99883661
0.99879859
0.99875415
0.99870321
0.99864666
0.99858496
0.99851803
0.99844445
0.99836611
0.9982816
0.9981931
0.99810044
0.99799567
0.99879952
0.99878018
0.99878659
0.99878712
0.99878517
0.99877898
0.99876513
0.99874732
0.99872311
0.99869328
0.99865837
0.9986184
0.99857257
0.9985201
0.9984618
0.99839832
0.99832991
0.9982551
0.99817542
0.99809042
0.99800156
0.99790829
0.99780342
0.99862274
0.99860448
0.99861018
0.99861017
0.99860729
0.9985997
0.99858383
0.99856433
0.99853818
0.99850666
0.99846913
0.99842574
0.99837654
0.99832116
0.99826041
0.99819367
0.9981219
0.99804407
0.99796151
0.99787354
0.9977819
0.99768637
0.99758021
0.99845421
0.99843303
0.99843847
0.99843466
0.99842926
0.99841849
0.99839939
0.99837598
0.99834565
0.99830997
0.99826821
0.99822036
0.99816664
0.99810698
0.9980423
0.99797154
0.99789536
0.99781334
0.99772643
0.99763424
0.99753842
0.99743887
0.99732889
0.99830865
0.998282
0.9982846
0.99827616
0.99826688
0.99825183
0.99822888
0.99820146
0.99816662
0.99812581
0.99807847
0.99802468
0.99796502
0.99789884
0.99782764
0.99775023
0.99766757
0.99757929
0.99748599
0.99738779
0.99728626
0.99718199
0.99706428
0.99815419
0.9981291
0.99813278
0.99812337
0.99811205
0.99809468
0.99806857
0.99803785
0.99799938
0.99795494
0.99790335
0.99784487
0.99778005
0.9977078
0.99763017
0.99754557
0.99745541
0.99735955
0.99725833
0.99715215
0.99704264
0.99693107
0.9968056
0.99805053
0.99801685
0.9980196
0.99800482
0.99799047
0.99796866
0.99793821
0.99790249
0.99785904
0.99780971
0.99775309
0.99768915
0.99761852
0.99753982
0.99745546
0.99736372
0.99726583
0.99716216
0.99705255
0.99693806
0.99681949
0.99670021
0.99656675
0.99795499
0.9979304
0.99792906
0.99791548
0.99789824
0.99787515
0.99784197
0.99780365
0.99775685
0.99770387
0.99764305
0.99757474
0.99749928
0.99741529
0.99732518
0.99722728
0.99712277
0.997012
0.9968948
0.99677206
0.99664446
0.9965166
0.99637565
0.9978977
0.99786849
0.99786674
0.99784924
0.99782969
0.99780329
0.99776736
0.99772616
0.99767605
0.99761961
0.99755503
0.99748271
0.99740334
0.99731474
0.99721993
0.9971169
0.99700693
0.99689053
0.99676735
0.99663872
0.99650461
0.99637094
0.99622612
0.99785847
0.99782861
0.99782603
0.99780803
0.9977873
0.99776056
0.99772401
0.99768225
0.99763097
0.99757294
0.99750642
0.99743175
0.99734965
0.99725786
0.99715934
0.99705243
0.99693814
0.99681695
0.99668872
0.99655477
0.99641504
0.99627547
0.99612709
0.99779184
0.99776714