/*--------------------------------*- C++ -*----------------------------------*\
| =========                 |                                                 |
| \\      /  F ield         | OpenFOAM: The Open Source CFD Toolbox           |
|  \\    /   O peration     | Version:  2406                                  |
|   \\  /    A nd           | Website:  www.openfoam.com                      |
|    \\/     M anipulation  |                                                 |
\*---------------------------------------------------------------------------*/
FoamFile
{
    version     2.0;
    format      ascii;
    arch        "LSB;label=32;scalar=64";
    class       volScalarField;
    location    "26";
    object      k;
}
// * * * * * * * * * * * * * * * * * * * * * * * * * * * * * * * * * * * * * //

dimensions      [0 2 -2 0 0 0 0];

internalField   nonuniform List<scalar> 
62344
(
4.5605243e-06
3.6440892e-06
2.9828655e-06
2.485894e-06
2.081608e-06
1.7781567e-06
1.5723138e-06
1.4299539e-06
1.3432072e-06
1.2461376e-06
1.146936e-06
1.0796978e-06
1.0331403e-06
9.8030694e-07
9.539968e-07
9.413697e-07
9.3674239e-07
9.3483704e-07
9.1978903e-07
8.891483e-07
8.7701579e-07
8.6769355e-07
8.6539285e-07
8.6753232e-07
8.8478915e-07
8.9791736e-07
9.3900155e-07
9.7183705e-07
1.0336342e-06
1.1052296e-06
1.1742751e-06
1.2458325e-06
1.4219623e-06
1.7666557e-06
2.1342088e-06
2.5359831e-06
3.4775644e-06
4.554726e-06
5.6462969e-06
7.8731365e-06
1.0072988e-05
1.4353543e-05
1.9595394e-05
2.5538504e-05
3.3807496e-05
5.0818732e-05
6.9435227e-05
8.654828e-05
0.0001037819
0.00011443702
0.00012576463
0.00013423438
0.00013939997
0.00014311712
0.00015124804
4.5637294e-06
3.6473899e-06
2.9904461e-06
2.5054929e-06
2.0888053e-06
1.775612e-06
1.5730506e-06
1.4405665e-06
1.3449349e-06
1.2501284e-06
1.1593019e-06
1.0870354e-06
1.0223412e-06
9.7661547e-07
9.5135283e-07
9.3767502e-07
9.3688901e-07
9.3860911e-07
9.2575052e-07
8.9650891e-07
8.745061e-07
8.5819935e-07
8.5599745e-07
8.5644224e-07
8.618556e-07
8.6967017e-07
8.96487e-07
9.2845032e-07
9.7432477e-07
1.0386421e-06
1.1000893e-06
1.1428607e-06
1.2339326e-06
1.402956e-06
1.6355079e-06
1.9615257e-06
2.7725943e-06
3.513694e-06
4.5285257e-06
6.0323285e-06
7.6928762e-06
1.1287536e-05
1.6316115e-05
2.1199122e-05
2.7894634e-05
4.3820574e-05
6.3576573e-05
8.7975382e-05
0.00010792579
0.00013172682
0.00014957677
0.00017462072
0.00018876256
0.00021018847
0.00020476339
4.5655673e-06
3.6532851e-06
2.9980802e-06
2.5063144e-06
2.1035793e-06
1.7856419e-06
1.5793274e-06
1.4413962e-06
1.3479902e-06
1.2621456e-06
1.1701588e-06
1.0798829e-06
1.0301407e-06
9.839995e-07
9.5057956e-07
9.4462468e-07
9.4153414e-07
9.4813718e-07
9.3684441e-07
8.9001319e-07
8.5898228e-07
8.5208865e-07
8.506641e-07
8.5155545e-07
8.5784701e-07
8.6575352e-07
8.8917331e-07
9.2198885e-07
9.6364276e-07
1.0285066e-06
1.1025896e-06
1.1612819e-06
1.2518389e-06
1.3652921e-06
1.5034083e-06
1.728337e-06
2.3382776e-06
2.883456e-06
3.7327881e-06
4.5526642e-06
6.323309e-06
8.2194072e-06
1.2226984e-05
1.5701579e-05
2.2628592e-05
3.1304198e-05
4.6468071e-05
7.4820105e-05
9.7259338e-05
0.00012694748
0.00014683393
0.00017595989
0.00019322951
0.00022530585
0.00023776829
4.5692974e-06
3.6659328e-06
3.0066885e-06
2.5209396e-06
2.1259492e-06
1.8066475e-06
1.5935743e-06
1.4511374e-06
1.3569306e-06
1.2716819e-06
1.1746677e-06
1.0943537e-06
1.034328e-06
9.9142198e-07
9.5536169e-07
9.4527711e-07
9.4474817e-07
9.4623323e-07
9.3519747e-07
9.0252123e-07
8.8840983e-07
8.6384653e-07
8.5506431e-07
8.5470449e-07
8.5719425e-07
8.6139762e-07
8.8298801e-07
9.2022423e-07
9.5285065e-07
1.0111184e-06
1.0825853e-06
1.1610925e-06
1.2502794e-06
1.3588186e-06
1.4676497e-06
1.6535215e-06
2.1136989e-06
2.5875529e-06
3.2183032e-06
3.9147962e-06
5.5239084e-06
7.0453846e-06
1.0005871e-05
1.3747905e-05
1.7070602e-05
2.4548296e-05
3.278683e-05
5.1747735e-05
6.674532e-05
9.5668013e-05
0.00011413922
0.00014545894
0.00017134836
0.00020998414
0.00023601674
4.5742783e-06
3.6856762e-06
3.0211547e-06
2.5421555e-06
2.131829e-06
1.8062369e-06
1.5975639e-06
1.4709244e-06
1.3756564e-06
1.2790081e-06
1.1920916e-06
1.1060612e-06
1.0341021e-06
9.9510615e-07
9.5762759e-07
9.462403e-07
9.4877314e-07
9.5230667e-07
9.4724268e-07
9.2624148e-07
9.0194383e-07
8.7566679e-07
8.6344434e-07
8.6407355e-07
8.6240497e-07
8.6327154e-07
8.782906e-07
9.1380935e-07
9.5249794e-07
1.0006028e-06
1.0468675e-06
1.1292899e-06
1.2178593e-06
1.3266687e-06
1.4248514e-06
1.6504309e-06
1.916929e-06
2.410694e-06
2.7854935e-06
3.6178476e-06
4.4497399e-06
6.1628426e-06
7.8854629e-06
1.174331e-05
1.5091755e-05
2.2878758e-05
2.9696621e-05
4.2827263e-05
6.1622557e-05
7.4721593e-05
9.347446e-05
0.00010738702
0.0001327418
0.00015320249
0.00019215747
4.5772828e-06
3.6990897e-06
3.0340577e-06
2.5427717e-06
2.1361373e-06
1.8100363e-06
1.604521e-06
1.4667307e-06
1.379327e-06
1.283421e-06
1.1943033e-06
1.1051947e-06
1.0434039e-06
1.0005687e-06
9.6549503e-07
9.5478873e-07
9.5594145e-07
9.6307413e-07
9.5935126e-07
9.3366057e-07
8.9917463e-07
8.7843188e-07
8.624928e-07
8.5823833e-07
8.5604787e-07
8.6281065e-07
8.8174232e-07
9.1261426e-07
9.5625555e-07
1.0004752e-06
1.0395302e-06
1.1204116e-06
1.2116685e-06
1.3154856e-06
1.4079083e-06
1.6371741e-06
1.8876108e-06
2.297525e-06
2.6133386e-06
3.3549306e-06
4.0453863e-06
5.4589237e-06
6.7813017e-06
9.8123207e-06
1.2730485e-05
1.9098676e-05
2.6127024e-05
3.7089796e-05
5.6330378e-05
6.8495655e-05
9.091591e-05
0.00010598601
0.0001297637
0.00014626543
0.00017604213
4.5814365e-06
3.7095394e-06
3.0507296e-06
2.5516634e-06
2.1435957e-06
1.8227682e-06
1.6159007e-06
1.4648422e-06
1.3688493e-06
1.2909685e-06
1.195517e-06
1.1129528e-06
1.0452077e-06
1.0057001e-06
9.7257729e-07
9.5714882e-07
9.612368e-07
9.6310009e-07
9.5822969e-07
9.4342813e-07
9.2392036e-07
8.9727327e-07
8.7506157e-07
8.6837334e-07
8.6379898e-07
8.7106638e-07
8.8725739e-07
9.1232271e-07
9.4756622e-07
9.8913811e-07
1.0353495e-06
1.1160116e-06
1.2135114e-06
1.3187821e-06
1.4109075e-06
1.6360588e-06
1.8575587e-06
2.1546177e-06
2.46469e-06
3.2024333e-06
3.8273575e-06
5.0693687e-06
6.1847604e-06
8.5487267e-06
1.1568281e-05
1.539394e-05
2.2796389e-05
3.4357215e-05
4.6428627e-05
6.0451738e-05
8.4860291e-05
0.00011137356
0.00013405178
0.00015890671
0.00018480691
4.5837085e-06
3.7146196e-06
3.0666382e-06
2.5721638e-06
2.1538705e-06
1.8297651e-06
1.6160884e-06
1.4806523e-06
1.380326e-06
1.2972679e-06
1.207742e-06
1.124548e-06
1.0525821e-06
1.0102652e-06
9.7605256e-07
9.5631654e-07
9.6043847e-07
9.5984044e-07
9.5227521e-07
9.5222714e-07
9.3364323e-07
8.9605897e-07
8.7095463e-07
8.7019804e-07
8.7019363e-07
8.7457404e-07
8.807728e-07
8.9622327e-07
9.3507928e-07
9.6912059e-07
1.0250996e-06
1.1094194e-06
1.2103199e-06
1.3168215e-06
1.4246941e-06
1.6161319e-06
1.8166908e-06
2.0184176e-06
2.397899e-06
3.113715e-06
3.6121578e-06
4.6494322e-06
5.73323e-06
7.8951812e-06
1.0522747e-05
1.3277374e-05
1.8158918e-05
2.8741228e-05
3.6582762e-05
4.9145662e-05
6.8392621e-05
0.00010032162
0.00012431549
0.0001545599
0.0001848537
4.5853837e-06
3.718743e-06
3.0721818e-06
2.5776565e-06
2.1627739e-06
1.8285098e-06
1.6177094e-06
1.4868568e-06
1.394465e-06
1.2994528e-06
1.2151388e-06
1.1283697e-06
1.0569455e-06
1.0085734e-06
9.7463526e-07
9.57272e-07
9.5573023e-07
9.6032416e-07
9.5680462e-07
9.5740471e-07
9.3651118e-07
8.9775173e-07
8.6652954e-07
8.6180472e-07
8.6318059e-07
8.7040392e-07
8.7792714e-07
8.9345396e-07
9.3527585e-07
9.7212594e-07
1.0250093e-06
1.1064679e-06
1.2024554e-06
1.3118738e-06
1.4084458e-06
1.5739815e-06
1.7535719e-06
1.9412672e-06
2.2863239e-06
2.9126202e-06
3.3786552e-06
4.1530603e-06
5.6188787e-06
7.6318063e-06
9.4456234e-06
1.184941e-05
1.6040397e-05
2.6005454e-05
3.3730638e-05
4.2617384e-05
5.8423926e-05
7.6600375e-05
9.8792458e-05
0.00012474385
0.00016162048
4.5870953e-06
3.7220729e-06
3.0704205e-06
2.5737636e-06
2.1674418e-06
1.8320976e-06
1.6273737e-06
1.4805795e-06
1.3901386e-06
1.2978209e-06
1.2137767e-06
1.1308781e-06
1.0549167e-06
1.0066651e-06
9.750565e-07
9.6172966e-07
9.5674191e-07
9.6232596e-07
9.6347429e-07
9.6079673e-07
9.4756542e-07
9.2794918e-07
8.969401e-07
8.7890821e-07
8.7143523e-07
8.7463358e-07
8.8229977e-07
8.9462387e-07
9.2951614e-07
9.7153658e-07
1.024897e-06
1.0956862e-06
1.1798699e-06
1.2757366e-06
1.3615224e-06
1.5283837e-06
1.7280801e-06
1.9088765e-06
2.1769286e-06
2.7478742e-06
3.1896169e-06
3.7986497e-06
5.1281829e-06
6.9919157e-06
8.5972964e-06
1.0866752e-05
1.4670593e-05
2.383679e-05
3.1926952e-05
3.8878397e-05
5.3295768e-05
6.5530439e-05
8.5866323e-05
0.00010747681
0.0001348291
4.5895123e-06
3.7283782e-06
3.0727174e-06
2.5840816e-06
2.1796478e-06
1.8454481e-06
1.6315167e-06
1.4827218e-06
1.3853619e-06
1.2998091e-06
1.2129812e-06
1.137597e-06
1.0542266e-06
1.0158207e-06
9.8707398e-07
9.7330803e-07
9.6325768e-07
9.6326911e-07
9.6312417e-07
9.5993383e-07
9.5268277e-07
9.3748856e-07
9.0753031e-07
8.9645629e-07
8.8924005e-07
8.8588048e-07
8.8602532e-07
8.902415e-07
9.1042032e-07
9.5389332e-07
1.0078217e-06
1.0773512e-06
1.1592732e-06
1.2349317e-06
1.3226076e-06
1.4831255e-06
1.7004838e-06
1.8819329e-06
2.1477872e-06
2.6076758e-06
2.9570882e-06
3.4727853e-06
4.5244677e-06
6.3468038e-06
7.8036379e-06
1.0320025e-05
1.3487329e-05
2.1038723e-05
2.804367e-05
3.629187e-05
4.9449773e-05
6.1106937e-05
7.9717245e-05
9.9239733e-05
0.00012351225
4.5924674e-06
3.7352386e-06
3.0801178e-06
2.6046015e-06
2.2022483e-06
1.8630707e-06
1.6322725e-06
1.5016719e-06
1.398023e-06
1.3146306e-06
1.2268246e-06
1.1495067e-06
1.0672244e-06
1.022834e-06
9.9467309e-07
9.7882411e-07
9.6452996e-07
9.6100471e-07
9.6000523e-07
9.5904552e-07
9.549018e-07
9.3128195e-07
8.9534583e-07
8.8117984e-07
8.8122408e-07
8.8005442e-07
8.7721246e-07
8.8127337e-07
9.0401969e-07
9.4830451e-07
1.0013392e-06
1.0653289e-06
1.1424121e-06
1.198219e-06
1.3102654e-06
1.419217e-06
1.6378973e-06
1.8302905e-06
2.1244749e-06
2.5043588e-06
2.7874029e-06
3.4472044e-06
4.0786167e-06
5.5359087e-06
6.9273496e-06
9.7189902e-06
1.2299577e-05
1.7731414e-05
2.2505703e-05
3.0653236e-05
4.1922058e-05
5.2979702e-05
6.9482341e-05
8.59392e-05
0.00011208047
4.5946294e-06
3.7399045e-06
3.086261e-06
2.6154124e-06
2.2163197e-06
1.868246e-06
1.6394975e-06
1.5155396e-06
1.4174711e-06
1.3237949e-06
1.2373868e-06
1.1582921e-06
1.0753317e-06
1.0242507e-06
9.9221702e-07
9.7110346e-07
9.5885566e-07
9.5741956e-07
9.6089931e-07
9.6181771e-07
9.5913336e-07
9.3561577e-07
9.0350528e-07
8.7349407e-07
8.6604452e-07
8.6625853e-07
8.6701861e-07
8.7589983e-07
9.0820146e-07
9.5225261e-07
1.0062935e-06
1.0615052e-06
1.122898e-06
1.17748e-06
1.2815396e-06
1.3874349e-06
1.5827448e-06
1.7442158e-06
2.0566118e-06
2.3798213e-06
2.6563149e-06
3.2800318e-06
4.0789516e-06
4.842515e-06
6.2714665e-06
9.2995728e-06
1.1331935e-05
1.4475067e-05
1.9062129e-05
2.3907088e-05
3.4261939e-05
4.1456999e-05
5.6142809e-05
6.8355131e-05
9.2127331e-05
4.5957068e-06
3.741536e-06
3.0887197e-06
2.6145168e-06
2.214064e-06
1.8650726e-06
1.6463986e-06
1.5115481e-06
1.4226009e-06
1.3218532e-06
1.2351101e-06
1.1597842e-06
1.0757864e-06
1.0217897e-06
9.8655341e-07
9.6400648e-07
9.5299057e-07
9.5083494e-07
9.5812849e-07
9.6082938e-07
9.5912685e-07
9.4678173e-07
9.2745423e-07
8.9988863e-07
8.6946171e-07
8.6379332e-07
8.6488765e-07
8.7438448e-07
9.0426402e-07
9.4546601e-07
1.0086131e-06
1.0600592e-06
1.1112474e-06
1.164305e-06
1.2581138e-06
1.3571874e-06
1.540207e-06
1.6811974e-06
1.9446762e-06
2.2759642e-06
2.5341711e-06
3.0146069e-06
3.9161233e-06
4.6093677e-06
5.711863e-06
8.1923593e-06
1.0176542e-05
1.2101912e-05
1.5843137e-05
1.9046026e-05
2.636182e-05
3.1855961e-05
4.3289432e-05
5.2190982e-05
6.9899117e-05
4.5956527e-06
3.7428499e-06
3.0917923e-06
2.611459e-06
2.2044698e-06
1.8627205e-06
1.6449137e-06
1.497708e-06
1.4107825e-06
1.3135911e-06
1.2262624e-06
1.1536107e-06
1.0708391e-06
1.0223088e-06
9.8458271e-07
9.6140131e-07
9.512555e-07
9.4689063e-07
9.4994884e-07
9.5275407e-07
9.5215579e-07
9.4529973e-07
9.2783811e-07
9.1214706e-07
8.8201038e-07
8.7054566e-07
8.6902495e-07
8.7449043e-07
8.9479813e-07
9.3096786e-07
1.0000036e-06
1.0506061e-06
1.1065432e-06
1.162661e-06
1.2476479e-06
1.336658e-06
1.5020115e-06
1.6527514e-06
1.8392285e-06
2.1751023e-06
2.4366805e-06
2.7559503e-06
3.5843921e-06
4.3440086e-06
5.2906365e-06
7.0347096e-06
8.9215912e-06
1.0639384e-05
1.364078e-05
1.5955653e-05
2.1345878e-05
2.5467562e-05
3.4095677e-05
4.1064268e-05
5.32896e-05
4.5961718e-06
3.7478938e-06
3.0992906e-06
2.6169444e-06
2.2033611e-06
1.8677741e-06
1.6412081e-06
1.491517e-06
1.4009314e-06
1.3099683e-06
1.2259235e-06
1.1504542e-06
1.0701346e-06
1.0252955e-06
9.8655837e-07
9.6413363e-07
9.53568e-07
9.483324e-07
9.4729812e-07
9.4870025e-07
9.4756841e-07
9.3440499e-07
9.0513197e-07
8.8860224e-07
8.7562672e-07
8.6884305e-07
8.6642953e-07
8.7027897e-07
8.8985265e-07
9.2055663e-07
9.815468e-07
1.0272165e-06
1.0969459e-06
1.1606559e-06
1.2398743e-06
1.3280254e-06
1.4608638e-06
1.6327558e-06
1.7698819e-06
2.0421633e-06
2.3685834e-06
2.6215577e-06
3.2002541e-06
4.0664606e-06
4.9957833e-06
6.0215962e-06
7.7940422e-06
9.6184483e-06
1.2570586e-05
1.4355184e-05
1.8101664e-05
2.1254704e-05
2.8073061e-05
3.5071173e-05
4.3507419e-05
4.5966394e-06
3.7568009e-06
3.1105825e-06
2.6322907e-06
2.2181398e-06
1.8813926e-06
1.6436219e-06
1.5013419e-06
1.4054471e-06
1.3188215e-06
1.2409817e-06
1.1578848e-06
1.0808256e-06
1.0325406e-06
9.9352362e-07
9.6875479e-07
9.5920331e-07
9.5539972e-07
9.541342e-07
9.5489498e-07
9.5372921e-07
9.343301e-07
8.9805697e-07
8.7206689e-07
8.6112012e-07
8.5779584e-07
8.5810374e-07
8.6479135e-07
8.8589335e-07
9.1824017e-07
9.7042666e-07
1.0077852e-06
1.0757496e-06
1.1432633e-06
1.2178423e-06
1.3288506e-06
1.4212418e-06
1.5759263e-06
1.7478802e-06
1.9028577e-06
2.2484145e-06
2.5172688e-06
2.9163679e-06
3.6240908e-06
4.6834567e-06
5.4425961e-06
6.7182301e-06
8.3067423e-06
1.1512397e-05
1.3588706e-05
1.6424627e-05
1.8953914e-05
2.4323136e-05
3.1352099e-05
3.8557547e-05
4.5963935e-06
3.7630535e-06
3.1207117e-06
2.6463917e-06
2.2377701e-06
1.895818e-06
1.6566792e-06
1.5191464e-06
1.4239454e-06
1.3387183e-06
1.2637058e-06
1.1793286e-06
1.1009659e-06
1.043956e-06
1.0060764e-06
9.7766185e-07
9.6764179e-07
9.6416129e-07
9.6480876e-07
9.7058514e-07
9.7282618e-07
9.5604929e-07
9.2338513e-07
8.8866864e-07
8.6286038e-07
8.5568705e-07
8.5731564e-07
8.6653493e-07
8.8597645e-07
9.1983813e-07
9.6989365e-07
1.003594e-06
1.0596548e-06
1.1202828e-06
1.1926935e-06
1.312299e-06
1.4008667e-06
1.5059523e-06
1.6999069e-06
1.8439798e-06
2.1554503e-06
2.4060752e-06
2.8842067e-06
3.3205007e-06
4.2970054e-06
5.0388664e-06
6.4289395e-06
7.6346232e-06
1.0150954e-05
1.2299574e-05
1.5516496e-05
1.7843911e-05
2.1985436e-05
2.7547346e-05
3.4652613e-05
4.5959965e-06
3.765339e-06
3.1256692e-06
2.6536377e-06
2.2476464e-06
1.9010687e-06
1.6679582e-06
1.529186e-06
1.4383178e-06
1.34911e-06
1.271753e-06
1.1912214e-06
1.1089321e-06
1.0484662e-06
1.0124977e-06
9.8104907e-07
9.6973416e-07
9.6543042e-07
9.6583787e-07
9.7651872e-07
9.8293254e-07
9.749879e-07
9.576976e-07
9.3186352e-07
8.9231892e-07
8.767926e-07
8.7766796e-07
8.8543138e-07
9.0333392e-07
9.4052933e-07
9.897279e-07
1.0250911e-06
1.0744204e-06
1.1252843e-06
1.1896645e-06
1.3069378e-06
1.3933194e-06
1.4876625e-06
1.6907766e-06
1.8345428e-06
2.1452142e-06
2.3944922e-06
2.8970516e-06
3.3167363e-06
4.2204238e-06
4.9245799e-06
6.339658e-06
7.4322806e-06
9.6932213e-06
1.1316421e-05
1.4438291e-05
1.6876818e-05
2.042966e-05
2.3976227e-05
3.0420784e-05
4.5945418e-06
3.7606011e-06
3.1234549e-06
2.6505585e-06
2.2446524e-06
1.8985683e-06
1.6699805e-06
1.5236686e-06
1.4349889e-06
1.3445602e-06
1.2635244e-06
1.1885639e-06
1.1059948e-06
1.0459098e-06
1.0117429e-06
9.8065158e-07
9.7039644e-07
9.6700109e-07
9.6734823e-07
9.8264315e-07
9.9946985e-07
9.9869961e-07
9.9712687e-07
9.9252602e-07
9.6769197e-07
9.542078e-07
9.5574701e-07
9.6767438e-07
9.9699833e-07
1.0491928e-06
1.1136984e-06
1.1582885e-06
1.2193902e-06
1.2872842e-06
1.355953e-06
1.4756573e-06
1.5800698e-06
1.6913307e-06
1.9456439e-06
2.120648e-06
2.4930387e-06
2.7550195e-06
3.2756235e-06
3.6918911e-06
4.5968297e-06
5.2903942e-06
6.6562633e-06
7.6700438e-06
9.7294525e-06
1.1170011e-05
1.3860549e-05
1.6152395e-05
1.915428e-05
2.2228113e-05
2.6725369e-05
4.5938767e-06
3.7554083e-06
3.1154652e-06
2.6399271e-06
2.2314509e-06
1.8894026e-06
1.6598624e-06
1.506111e-06
1.4167089e-06
1.3295308e-06
1.2522139e-06
1.1839456e-06
1.1099983e-06
1.0604552e-06
1.0327674e-06
1.0133913e-06
1.0122836e-06
1.0151424e-06
1.0230312e-06
1.0623548e-06
1.1162839e-06
1.1370267e-06
1.1666016e-06
1.2018514e-06
1.2186263e-06
1.2301801e-06
1.2520504e-06
1.3049895e-06
1.3873957e-06
1.4716595e-06
1.6042713e-06
1.6897634e-06
1.7938744e-06
1.9314438e-06
2.0943906e-06
2.2465953e-06
2.4575905e-06
2.6350735e-06
3.0175274e-06
3.3230094e-06
3.9635557e-06
4.3687404e-06
5.0103129e-06
5.4146135e-06
6.3543812e-06
7.0391109e-06
8.3255772e-06
9.2773927e-06
1.1006602e-05
1.2189462e-05
1.4296028e-05
1.6394767e-05
1.8829431e-05
2.1723604e-05
2.4967396e-05
4.5891597e-06
3.7411085e-06
3.0920768e-06
2.6206969e-06
2.2192861e-06
1.8886623e-06
1.659918e-06
1.5169525e-06
1.4349966e-06
1.3616863e-06
1.3127453e-06
1.2676476e-06
1.2313428e-06
1.225552e-06
1.2361526e-06
1.24766e-06
1.2815133e-06
1.3209123e-06
1.3643484e-06
1.4803634e-06
1.627984e-06
1.7091172e-06
1.8293772e-06
1.9562396e-06
2.0889961e-06
2.2227622e-06
2.3304875e-06
2.4700809e-06
2.7010682e-06
2.8624167e-06
3.2159658e-06
3.4428065e-06
3.7040428e-06
3.9654561e-06
4.4184252e-06
4.7222974e-06
5.229871e-06
5.5998757e-06
6.2094205e-06
6.8004343e-06
8.0229547e-06
8.8737946e-06
9.8618099e-06
1.0457959e-05
1.1418828e-05
1.206897e-05
1.3296296e-05
1.4384553e-05
1.5782214e-05
1.6799851e-05
1.8018398e-05
1.9498982e-05
2.1084937e-05
2.3515547e-05
2.5983415e-05
4.5833876e-06
3.717292e-06
3.0613661e-06
2.64121e-06
2.2971464e-06
2.0230138e-06
1.8357787e-06
1.7604958e-06
1.7303152e-06
1.7348293e-06
1.7898711e-06
1.8423984e-06
1.9392684e-06
2.0574934e-06
2.1977479e-06
2.3491082e-06
2.4954646e-06
2.67844e-06
2.7948907e-06
3.0433168e-06
3.4011336e-06
3.6217489e-06
4.0053127e-06
4.3865215e-06
4.755182e-06
5.2456551e-06
5.6691716e-06
5.9770249e-06
6.559635e-06
6.9329115e-06
7.8107954e-06
8.4623361e-06
9.1980798e-06
9.6924979e-06
1.0648488e-05
1.1424253e-05
1.2564387e-05
1.3326539e-05
1.4253319e-05
1.5157331e-05
1.6953783e-05
1.8363147e-05
1.9879372e-05
2.1161725e-05
2.2316007e-05
2.3205093e-05
2.4204074e-05
2.5629565e-05
2.7037414e-05
2.8280145e-05
2.9261515e-05
3.0108278e-05
3.0593149e-05
3.2153335e-05
3.2719317e-05
4.5665662e-06
3.7150953e-06
3.1977443e-06
3.0761601e-06
3.0304183e-06
3.0473285e-06
3.100364e-06
3.231461e-06
3.4498943e-06
3.7190637e-06
4.1455997e-06
4.4970317e-06
4.9121679e-06
5.3551387e-06
5.8091875e-06
6.2708401e-06
6.6938047e-06
7.2324838e-06
7.510135e-06
7.8874973e-06
8.5629258e-06
9.0018733e-06
9.948912e-06
1.0934226e-05
1.1736932e-05
1.2876119e-05
1.4117946e-05
1.4853479e-05
1.6017695e-05
1.6674012e-05
1.8261805e-05
1.9809841e-05
2.1222978e-05
2.2281754e-05
2.3851284e-05
2.5442362e-05
2.7423818e-05
2.890385e-05
3.0268114e-05
3.1011647e-05
3.2402028e-05
3.3920278e-05
3.5879217e-05
3.76529e-05
3.9391724e-05
4.0796469e-05
4.1942021e-05
4.3108528e-05
4.4564845e-05
4.5894723e-05
4.7431717e-05
4.8769533e-05
4.9642564e-05
5.0761822e-05
5.0434507e-05
4.6184515e-06
4.6176341e-06
5.0132765e-06
5.9719423e-06
7.0947935e-06
8.1654347e-06
8.925671e-06
9.4832218e-06
1.0261617e-05
1.120591e-05
1.2188915e-05
1.2959412e-05
1.3743046e-05
1.4619827e-05
1.5332456e-05
1.6096328e-05
1.6691435e-05
1.7532285e-05
1.8102699e-05
1.8501269e-05
1.9352019e-05
1.9826601e-05
2.0862218e-05
2.1916505e-05
2.2835743e-05
2.4111524e-05
2.603884e-05
2.7134545e-05
2.8223239e-05
2.9506202e-05
3.092034e-05
3.2486656e-05
3.3692835e-05
3.4506972e-05
3.5714812e-05
3.7440856e-05
3.9369917e-05
4.1010262e-05
4.1632851e-05
4.2663608e-05
4.3364314e-05
4.4626244e-05
4.6569815e-05
4.8343246e-05
4.989361e-05
5.0707238e-05
5.091972e-05
5.0979165e-05
5.1383517e-05
5.2217893e-05
5.3440269e-05
5.4790936e-05
5.6099798e-05
5.7028209e-05
5.7866173e-05
6.7401568e-06
1.257043e-05
1.5994638e-05
1.8290665e-05
2.1108221e-05
2.3197214e-05
2.4347472e-05
2.4186776e-05
2.4137703e-05
2.4413843e-05
2.4316781e-05
2.438321e-05
2.4219974e-05
2.3581615e-05
2.3323435e-05
2.3480714e-05
2.3488023e-05
2.390561e-05
2.4241979e-05
2.421126e-05
2.3992516e-05
2.3554899e-05
2.3456328e-05
2.3312613e-05
2.3463924e-05
2.3950915e-05
2.5624653e-05
2.6737217e-05
2.7336007e-05
2.8509032e-05
2.9448338e-05
2.9895222e-05
3.0149786e-05
3.0546282e-05
3.1198579e-05
3.2083156e-05
3.2924101e-05
3.3501103e-05
3.3579441e-05
3.4130932e-05
3.4774789e-05
3.5566926e-05
3.643883e-05
3.7714906e-05
3.8920604e-05
3.9517345e-05
3.9488405e-05
3.9157029e-05
3.9170035e-05
3.9574349e-05
4.0328606e-05
4.1444584e-05
4.2643745e-05
4.369553e-05
4.4719274e-05
5.5939575e-05
7.5007626e-05
5.7789002e-05
4.3735135e-05
3.643108e-05
3.1108909e-05
2.7539617e-05
2.5742548e-05
2.4855509e-05
2.4406707e-05
2.42165e-05
2.3922475e-05
2.3947697e-05
2.4067062e-05
2.395347e-05
2.3960376e-05
2.3579125e-05
2.2863621e-05
2.2227737e-05
2.1226679e-05
2.0100956e-05
1.9455443e-05
1.9028212e-05
1.8494931e-05
1.8234748e-05
1.7833981e-05
1.7803239e-05
1.7858257e-05
1.7311938e-05
1.641714e-05
1.5837028e-05
1.568601e-05
1.5160247e-05
1.4154432e-05
1.2986799e-05
1.2167827e-05
1.2127707e-05
1.2562016e-05
1.2960775e-05
1.3021589e-05
1.2740429e-05
1.3087755e-05
1.3686197e-05
1.4069273e-05
1.4963277e-05
1.6375622e-05
1.7794124e-05
1.8150519e-05
1.7864507e-05
1.8221556e-05
1.8895348e-05
1.973884e-05
2.0157233e-05
2.0310754e-05
2.0716435e-05
2.1122169e-05
4.4223144e-05
5.8687845e-05
5.2360617e-05
3.5904551e-05
2.9450998e-05
2.8843763e-05
3.0998578e-05
3.5872745e-05
4.2309349e-05
4.7002819e-05
5.1681116e-05
6.2031198e-05
8.2670552e-05
0.00011263754
0.00014175238
0.00015982879
0.00017457182
0.00020144738
0.00022153986
0.0002132646
0.00020254589
0.00022776486
0.00027121017
0.00026673204
0.00023567056
0.00018126179
2.1598024e-05
4.3492153e-05
5.9196388e-05
5.4432172e-05
4.0085843e-05
3.4564362e-05
3.4326987e-05
3.6600082e-05
4.3416995e-05
5.3270287e-05
5.911024e-05
6.3922497e-05
7.4430538e-05
0.00010002642
0.00014150687
0.00017893057
0.00019998168
0.0002193588
0.00025370965
0.00027934606
0.00026546023
0.00024094728
0.00026225756
0.00030959539
0.00030352767
0.00027114383
0.00022109683
2.2292302e-05
4.3404389e-05
5.9887789e-05
5.5885906e-05
4.3809865e-05
3.922198e-05
3.9705448e-05
4.3857228e-05
5.5200306e-05
6.6331523e-05
7.2398951e-05
7.7143733e-05
8.8695364e-05
0.00011838274
0.00016717892
0.00020866522
0.00023032729
0.0002566216
0.00030628418
0.00035245815
0.00034105072
0.00029321071
0.00030457185
0.00035301703
0.00034053601
0.00030928087
0.00024772
2.206878e-05
4.2188508e-05
5.9776406e-05
5.7393051e-05
4.7772681e-05
4.4086633e-05
4.5902438e-05
5.298111e-05
6.6975562e-05
7.871317e-05
8.5711378e-05
9.1207439e-05
0.0001034466
0.00013363713
0.00018638367
0.00023093609
0.00025365195
0.00028154166
0.00034485813
0.00041432628
0.00041898552
0.00036376944
0.00035782367
0.00040360518
0.00038430528
0.00034797475
0.0002742769
2.110623e-05
3.9349422e-05
5.8753112e-05
5.8247057e-05
5.2490944e-05
5.0686463e-05
5.3524283e-05
6.151919e-05
7.7171317e-05
9.3060997e-05
0.00010241022
0.00010860764
0.00012091313
0.00015123324
0.00020834087
0.00025720761
0.0002820508
0.00031045104
0.0003742534
0.00046294009
0.00048728631
0.00043391671
0.00042536626
0.00047641621
0.00045453656
0.0003993083
0.0003175127
2.0060813e-05
3.5015029e-05
5.7359965e-05
5.9332997e-05
5.7089772e-05
5.6855052e-05
5.9869989e-05
6.9989677e-05
9.4294895e-05
0.00011551436
0.00012684198
0.00013351639
0.00014712249
0.00018057118
0.00024355569
0.00029405246
0.00031768863
0.0003446423
0.000407871
0.00051327507
0.00055262923
0.00049976955
0.00048831735
0.00056195743
0.00054816594
0.00047124077
0.00038471062
1.9494535e-05
3.1704015e-05
5.5996071e-05
6.1113976e-05
6.1409836e-05
6.2459206e-05
6.8439773e-05
8.7925777e-05
0.00012439268
0.00014741273
0.00015931752
0.00016801115
0.00018605385
0.00022795196
0.0002974543
0.00034684071
0.00036580526
0.00038991414
0.00045274515
0.00056958521
0.00062029641
0.00056961284
0.00055004328
0.00062552951
0.00063116628
0.00055650825
0.00047639297
1.8656885e-05
2.9515598e-05
5.57025e-05
6.3785398e-05
6.6089585e-05
7.0453426e-05
8.4479493e-05
0.00011809948
0.00015689082
0.00018100354
0.00019456556
0.00020747183
0.00023392271
0.0002893954
0.00036623812
0.00041688826
0.00043530449
0.00045645296
0.00051703953
0.00063631311
0.00069298996
0.00065458374
0.00062617645
0.00068098757
0.00068878794
0.00062882312
0.00057370001
1.7045995e-05
2.7779658e-05
5.5505287e-05
6.6861726e-05
7.1325914e-05
8.0814138e-05
0.00010438793
0.00014615293
0.00018741751
0.00021562909
0.0002339574
0.0002532471
0.00029008303
0.00035568138
0.00043974077
0.00049935776
0.00052420306
0.00054842758
0.00061024089
0.00073470996
0.00079353015
0.0007535569
0.0007027624
0.00074173931
0.00074101768
0.000696239
0.0006706852
1.7380113e-05
2.6436627e-05
5.5335627e-05
7.0318596e-05
7.7702857e-05
9.2980198e-05
0.00012528207
0.00017420702
0.00021986919
0.00025228788
0.00027612641
0.00030311382
0.00035088167
0.00042971537
0.00052424458
0.0005951855
0.00062744284
0.00065584977
0.00072559813
0.00086590204
0.00093179495
0.00087914332
0.00079997466
0.00081475935
0.00081353468
0.00078066656
0.00076405586
1.9694864e-05
2.553147e-05
5.4788534e-05
7.2456421e-05
8.1922236e-05
0.00010143823
0.00014235944
0.00019777304
0.00024663989
0.00028362032
0.00031495659
0.00035432847
0.00041787177
0.0005108587
0.00062018777
0.00070142487
0.00074027606
0.00077394372
0.00085252339
0.0010103822
0.0010863529
0.0010402493
0.00093316965
0.00091092891
0.00089941587
0.00086919922
0.00083513935
2.1429469e-05
2.3746448e-05
5.1702415e-05
7.1594886e-05
8.4393383e-05
0.00010956753
0.00015819907
0.00021821238
0.00027125413
0.00031562094
0.0003576748
0.00041053916
0.00048913109
0.00059735524
0.00071878086
0.0008098773
0.00085518314
0.00089079337
0.00097129125
0.0011332265
0.0012218169
0.0011946232
0.00109787
0.0010510855
0.001013869
0.00095008595
0.00089932117
1.9839666e-05
2.0540544e-05
4.5052315e-05
6.8971852e-05
8.6318733e-05
0.00011917932
0.00017498307
0.00024060955
0.00030120627
0.00035625446
0.00041079816
0.00047703773
0.00056839631
0.0006866871
0.00081388619
0.00090997135
0.00096077263
0.0010004327
0.0010816656
0.0012344816
0.0013328947
0.0013391519
0.0012712405
0.0012355214
0.0011646671
0.0010715722
0.00098748385
1.7855633e-05
1.7886483e-05
3.9276115e-05
6.6639398e-05
8.9366856e-05
0.00012778149
0.0001876271
0.00025877096
0.00033220557
0.0004007788
0.00046751541
0.00054555175
0.00064884261
0.00077671411
0.00090777779
0.0010088708
0.001067656
0.0011100594
0.0011873475
0.001326451
0.0014342773
0.0014707022
0.0014443444
0.0014138674
0.0013424194
0.001240629
0.0011295678
1.7951482e-05
1.6727204e-05
3.6604802e-05
6.6139315e-05
9.2945707e-05
0.00013523808
0.00020021683
0.00028343681
0.00036812099
0.0004457292
0.00052108469
0.00060834524
0.00072186338
0.00085850715
0.00099651134
0.0011067852
0.0011769814
0.0012285577
0.00130433
0.0014320549
0.001534403
0.001589514
0.0016066172
0.0015884881
0.0015137451
0.0014279093
0.0012985128
1.8891876e-05
1.6111221e-05
3.5415483e-05
6.7416436e-05
9.7209732e-05
0.00014496461
0.00022429468
0.00031954408
0.00041024238
0.00049167532
0.00056950099
0.00065851158
0.0007742936
0.00091482175
0.0010577507
0.0011795918
0.0012695469
0.0013421514
0.0014252733
0.0015440402
0.0016509653
0.001720475
0.0017508262
0.0017354189
0.0016620421
0.0015776577
0.001451461
1.8401752e-05
1.5504733e-05
3.4937161e-05
6.8954755e-05
0.00010315255
0.00016360928
0.00025718807
0.00035990557
0.00045300397
0.00053327558
0.00060849232
0.00069462142
0.00080742472
0.00094654461
0.0010940005
0.0012273356
0.0013359722
0.0014323694
0.0015362719
0.0016679022
0.0017933769
0.0018762416
0.0019042703
0.0018689659
0.0017845305
0.0016760804
0.0015615083
1.5799366e-05
1.443837e-05
3.3554048e-05
7.056089e-05
0.00011283647
0.00018498512
0.00028722232
0.00039201813
0.00048440275
0.00056232818
0.00063523968
0.00072093798
0.00083215513
0.00097085691
0.001120555
0.0012624344
0.0013902869
0.001511962
0.0016470803
0.001805888
0.0019552918
0.0020449326
0.0020749824
0.0020294713
0.001915975
0.0017669968
0.0016444117
1.3183804e-05
1.3482906e-05
3.1777633e-05
7.1391571e-05
0.00012123668
0.0002007439
0.00030338134
0.00040706644
0.00049839137
0.00057820241
0.00065639038
0.00075184668
0.00087639351
0.0010227981
0.0011748706
0.0013201941
0.0014611653
0.001610663
0.0017886115
0.0019762021
0.0021267356
0.0022051951
0.002238279
0.002208869
0.0020827057
0.0018862537
0.0017390402
1.1875913e-05
1.2766492e-05
3.0053262e-05
7.0966487e-05
0.00012494416
0.00020746859
0.00030974331
0.00041171591
0.0005052969
0.00059226216
0.00068757909
0.00081201697
0.00096117195
0.0011194898
0.0012756835
0.0014274422
0.0015873639
0.0017684267
0.0019745417
0.0021652457
0.0022861967
0.002337616
0.0023652144
0.0023495902
0.0022367939
0.0020388537
0.0018684717
1.1470514e-05
1.217322e-05
2.7641601e-05
6.81518e-05
0.00012653226
0.00020895068
0.0003103691
0.0004143403
0.00051383113
0.00061955206
0.00074404732
0.00088497449
0.0010400968
0.0012053774
0.0013769975
0.001561779
0.0017633184
0.0019817803
0.0021976449
0.0023588865
0.0024338762
0.0024590351
0.0024670204
0.0024566882
0.0023801761
0.0022092168
0.0020178518
1.0428843e-05
1.1270051e-05
2.6311775e-05
6.5741519e-05
0.00012604275
0.00020911017
0.00031156456
0.00042334853
0.00054354202
0.00066935246
0.0007959401
0.00093312625
0.0010877149
0.0012644893
0.0014696223
0.0017026763
0.0019564412
0.0022093986
0.0024170991
0.0025521875
0.0026036156
0.0025955323
0.0025821823
0.0025776936
0.0025395055
0.0023949277
0.0021863577
1.0101007e-05
1.0560606e-05
2.4740793e-05
6.2823511e-05
0.00012265922
0.00020475979
0.0003098487
0.00043170442
0.00055755585
0.0006825196
0.00080804255
0.00094469889
0.0011116283
0.0013161641
0.0015492887
0.0018097616
0.0020845557
0.0023401744
0.002554644
0.0027142613
0.0027710769
0.0027515669
0.0027204305
0.0027220021
0.0027153637
0.0025934688
0.0023698566