/*--------------------------------*- C++ -*----------------------------------*\
| =========                 |                                                 |
| \\      /  F ield         | OpenFOAM: The Open Source CFD Toolbox           |
|  \\    /   O peration     | Version:  2406                                  |
|   \\  /    A nd           | Website:  www.openfoam.com                      |
|    \\/     M anipulation  |                                                 |
\*---------------------------------------------------------------------------*/
FoamFile
{
    version     2.0;
    format      ascii;
    arch        "LSB;label=32;scalar=64";
    class       volScalarField;
    location    "26";
    object      T;
}
// * * * * * * * * * * * * * * * * * * * * * * * * * * * * * * * * * * * * * //

dimensions      [0 0 0 1 0 0 0];

internalField   nonuniform List<scalar> 
62344
(
1.001974
0.99996964
1.0006841
1.001687
1.0011558
1.0000667
1.000682
0.99970495
1.0009632
1.0003593
1.000567
1.0025316
1.0012835
1.000031
1.0022334
1.0002317
0.99897751
0.99713492
0.99813094
0.99935939
0.99706738
0.99944772
1.0001237
0.99799396
1.0011694
0.99993451
1.002804
1.0000676
0.99598839
1.0002768
0.9983292
0.99294316
1.0000174
1.0055487
0.99544335
0.98260292
0.98265056
0.9928531
1.0011172
1.0003655
0.99048714
0.97762699
0.96773182
0.96522919
0.96852431
0.97116496
0.96765557
0.95819394
0.95021195
0.94896012
0.95599844
0.96453457
0.97136599
0.97241836
0.97065563
1.0023006
0.99868159
1.0008998
1.0027247
1.002821
1.0014365
1.0006863
0.99953677
0.99978777
1.0002591
1.0002008
1.0019576
1.0005604
0.99933021
1.0013825
1.0010317
0.99868548
0.9977613
0.99911984
1.0005682
0.99719135
0.99815393
0.99959352
0.99845611
0.99958814
0.99837439
1.0032114
1.0007
0.99592956
0.99938936
0.99891724
0.99538201
1.0016762
1.0055798
0.99748098
0.99041711
0.99249733
0.99901852
1.0032546
0.99936104
0.98976908
0.98239393
0.97725558
0.96997209
0.96425032
0.96270013
0.96214141
0.95728888
0.94965665
0.94457876
0.94724956
0.95416239
0.96294382
0.96787082
0.96849604
1.0022857
0.99885063
1.0005864
1.0027329
1.0042789
1.0025499
1.0004551
1.0003693
1.0001903
1.0008802
1.001258
1.0003684
0.99901395
1.0001495
0.99920561
1.0001086
0.99739022
0.99758718
0.99849625
0.9980515
0.99675352
0.99899079
0.99890602
0.99846247
0.99867307
0.99651712
1.001244
0.9997146
0.99671877
0.99918157
0.99861813
0.99740111
1.003181
1.0037451
0.99758948
0.9952569
0.99819233
1.0018236
1.0027444
0.99968798
0.99371423
0.98854774
0.98355244
0.97460177
0.96273682
0.95645494
0.95800888
0.96115119
0.95996154
0.95518823
0.95192522
0.95314766
0.95787421
0.96246305
0.9630106
1.0020295
0.99991431
1.0001424
1.001946
1.0042656
1.0028054
1.0005021
1.0014938
1.0014402
1.0019452
1.0019987
0.99989701
0.99821763
1.0012946
0.99812319
0.99831073
0.99606439
0.99639706
0.9974416
0.99509624
0.99553233
1.0000592
0.99922909
0.99887726
0.99877457
0.99661415
1.000015
0.9984801
0.99761027
0.9991018
0.99709738
0.99850807
1.0033503
1.0003627
0.99550815
0.99713731
1.0014495
1.0030765
1.0013942
0.99876978
0.99583515
0.99174794
0.98677931
0.97828263
0.96605439
0.95758532
0.95817432
0.96469348
0.97158828
0.97276978
0.96860807
0.96287805
0.95738624
0.95419915
0.95223754
1.0018625
1.0009765
1.0001324
1.0017973
1.0037129
1.0025023
1.0010307
1.002087
1.0025052
1.0025515
1.0018652
1.0004017
0.99944812
1.0014956
0.99858081
0.99770993
0.99620009
0.99595544
0.99692805
0.994946
0.99572693
1.0001582
0.99955618
0.99944967
0.99908608
0.99770372
1.0007735
0.99865784
0.99872492
0.99942647
0.99588831
0.99933112
1.0029406
0.99703693
0.99243225
0.99628308
1.0030065
1.0043431
1.0006786
0.99825482
0.99737578
0.99417111
0.98730014
0.97950837
0.97198444
0.96605418
0.96493905
0.96958958
0.9776533
0.98383116
0.98292587
0.97405059
0.96079035
0.94621251
0.93515546
1.0019118
1.0012028
1.0007802
1.0025186
1.0033327
1.0025397
1.0015694
1.001727
1.0024243
1.002506
1.0014306
1.0007492
1.0009333
1.0009252
0.9992266
0.99809759
0.99760697
0.99691159
0.99662625
0.99670052
0.99783879
0.99951547
0.9988343
0.99966384
0.99879237
0.99821552
1.0017675
0.9993371
0.99947579
0.99942225
0.99592951
1.0009125
1.0034125
0.99530678
0.98949794
0.99405435
1.0028192
1.0053687
1.0003679
0.9968681
0.9968002
0.99450899
0.98679939
0.97906283
0.97644651
0.97619197
0.97675886
0.97892301
0.98310679
0.98740735
0.98752866
0.97967303
0.96444224
0.94508338
0.92713529
1.0020622
1.0006782
1.0018402
1.0032835
1.0031037
1.0022158
1.0014946
1.0004865
1.0014293
1.0018995
1.0012025
1.0001806
1.0014806
1.0002854
0.99935709
0.99813038
0.99879985
0.99835035
0.99632747
0.99780014
0.99970336
0.99859542
0.99741635
0.99940039
0.99801541
0.99802166
1.0019139
0.99947805
0.99936141
0.99825195
0.99592458
1.0029099
1.0051878
0.9956324
0.9879784
0.99222429
1.0018556
1.0058568
1.0008402
0.99539001
0.99398369
0.99235565
0.98632053
0.97895249
0.97789659
0.98239347
0.98665147
0.98881437
0.98804753
0.98555033
0.98116933
0.97517636
0.96549717
0.95202152
0.93601411
1.0021274
0.99999306
1.0025578
1.0035709
1.002969
1.0019075
1.0011739
0.9994041
1.000283
1.0013937
1.0013331
0.99917679
1.0011416
0.99954141
0.99949097
0.99789966
0.99878484
0.9989601
0.99617545
0.99751992
1.0001992
0.99804969
0.99631891
0.99908798
0.99759299
0.99796496
1.0013889
0.99889262
0.99842829
0.9960422
0.99509321
1.0041043
1.0071686
0.99721021
0.98818673
0.99107615
1.0006398
1.0059942
1.0022601
0.99500421
0.99082473
0.98840068
0.98550901
0.98080112
0.97941771
0.98505679
0.99220606
0.99515419
0.99031631
0.98029928
0.9693396
0.96222578
0.95871886
0.95500564
0.94813723
1.0020509
0.99981746
1.0025544
1.0035378
1.0032229
1.0019175
1.0010878
0.99928096
0.99990016
1.0008507
1.0014172
0.99861842
0.99984965
0.99852874
0.9994506
0.99810141
0.99761933
0.99805046
0.99605619
0.99606781
0.99910837
0.99753558
0.99612718
0.99915593
0.99808624
0.99855616
1.0009268
0.99828195
0.99750665
0.99364313
0.9937257
1.0040228
1.0082824
0.99899447
0.98925688
0.99090526
0.99924976
1.0056411
1.004574
0.99686797
0.98917442
0.98456661
0.98303443
0.98284907
0.98300555
0.98735562
0.99477287
0.99801718
0.99183694
0.97772029
0.96157196
0.95049864
0.94693175
0.94916406
0.95198815
1.001985
1.0000249
1.0018638
1.0030082
1.0036097
1.0023313
1.0011363
1.0000535
1.0002785
1.0006746
1.0010535
0.99903514
0.99868268
0.99761199
0.99894517
0.99875146
0.99628496
0.99608349
0.99587518
0.9946335
0.99702575
0.99711458
0.99646909
0.9992239
0.99879461
0.99966343
1.0009387
0.99830401
0.99743745
0.99224212
0.99246656
1.0032683
1.0081285
0.99999455
0.9905037
0.99106862
0.99780271
1.0050076
1.0066022
1.0005163
0.98996517
0.98174694
0.98010069
0.98339633
0.98728549
0.9913676
0.9966735
0.99893908
0.99298625
0.9791669
0.96207178
0.94769632
0.94102329
0.94296064
0.94998162
1.0019805
1.0003021
1.0008819
1.0024457
1.0039641
1.0027459
1.0013891
1.0011164
1.0010845
1.0007715
1.0003127
0.99981726
0.99832261
0.99727297
0.99805871
0.99924651
0.99564059
0.9943364
0.99567052
0.99406053
0.99527873
0.99682842
0.99721807
0.99935809
0.99938565
1.000767
1.0011881
0.99897681
0.99833156
0.99243397
0.99219647
1.002382
1.0070719
1.0001968
0.99171974
0.99154505
0.9967083
1.0031513
1.0073737
1.0041871
0.99296928
0.98108498
0.9771471
0.98232694
0.99035517
0.99611292
0.99907799
0.99830333
0.9921302
0.98033968
0.9658203
0.95239697
0.94428918
0.94409061
0.94991457
1.0020076
1.000432
1.0000401
1.0019408
1.0041787
1.0030399
1.0015238
1.00193
1.0019443
1.0009952
0.99959773
1.0004319
0.99859852
0.99781072
0.99716079
0.99909355
0.99578271
0.99352701
0.99557406
0.99444101
0.99451824
0.99668694
0.99801629
0.99978863
0.99962528
1.0011933
1.001177
0.99973134
0.99965901
0.99368555
0.99305879
1.0018693
1.0058082
0.99978713
0.99273508
0.99209647
0.99568443
1.0008093
1.006192
1.0061406
0.99644231
0.98232782
0.97545382
0.98047935
0.99081495
0.99988053
1.0019843
0.99746306
0.98920165
0.97924178
0.96883417
0.95925225
0.9519355
0.94968229
0.95300187
1.0020477
1.0004198
0.99967723
1.0017228
1.0042016
1.0030221
1.0013823
1.0020633
1.002456
1.0011405
0.9994235
1.0006289
0.99915147
0.99891497
0.99684583
0.99843279
0.99631613
0.99367864
0.9955693
0.99537449
0.99472484
0.99656181
0.99839029
0.99996173
0.99948617
1.0008534
1.0005972
1.0000936
1.0007141
0.99515171
0.99446971
1.0019295
1.0048064
0.99937519
0.99372179
0.99310065
0.99533184
0.99857927
1.003747
1.0060814
0.99880513
0.98499479
0.97560763
0.97865753
0.9896424
1.0009303
1.00432
0.99767815
0.98635464
0.97596709
0.96853912
0.96297797
0.95876191
0.95712324
0.95866436
1.0020681
1.0002875
0.99979456
1.0017625
1.003881
1.0026534
1.0011103
1.0016981
1.002415
1.0010949
0.99982998
1.000419
0.99956719
0.99990316
0.99718986
0.99753134
0.99680761
0.99441491
0.9956286
0.99631355
0.99559247
0.99648922
0.99834077
1.0000128
0.99905046
0.99984946
0.9994013
0.9997953
1.0010235
0.99615778
0.99578112
1.0021738
1.0039975
0.9991232
0.99490219
0.99463143
0.99575062
0.9971446
1.0007107
1.0043327
1.0000009
0.98800647
0.97756941
0.97763705
0.98795743
0.99978253
1.0053381
0.99874295
0.98575018
0.9736013
0.96627469
0.96334848
0.96337596
0.96372977
0.96457985
1.0020337
1.0001046
1.0002673
1.0019431
1.0033541
1.0020948
1.000814
1.0009796
1.0019132
1.0009985
1.0005521
1.0000891
0.99975489
1.0002465
0.99792073
0.99673619
0.99712749
0.99534593
0.99564761
0.99681486
0.99648619
0.99651042
0.99809798
1
0.99868663
0.99877605
0.99821619
0.99911911
1.0005043
0.99654995
0.99656246
1.0022077
1.0031148
0.99884514
0.99614888
0.99648337
0.99701496
0.99672996
0.99833632
1.0016122
0.99966785
0.99074434
0.98061735
0.97865652
0.98653677
0.99763987
1.004333
1.0000216
0.9874287
0.97390215
0.96569683
0.96420751
0.96683522
0.96943659
0.97103252
1.001989
0.99990986
1.0007376
1.0022169
1.0027091
1.0014908
1.0005617
1.000034
1.0010839
1.0008086
1.0013247
0.99989358
0.99948062
0.99987754
0.99868128
0.99630316
0.99729774
0.99624267
0.99563389
0.99662317
0.99692822
0.99635434
0.99769708
1.0000709
0.99874325
0.9982228
0.99747415
0.99843289
0.99967877
0.99646309
0.99693397
1.0018239
1.0020328
0.99841961
0.99722377
0.99835311
0.9987428
0.99749339
0.99698977
0.9985637
0.99828139
0.99247984
0.98444346
0.98128042
0.98668477
0.99633932
1.0030105
1.0007147
0.98993263
0.97679037
0.96816426
0.9666985
0.97024416
0.97479422
0.97746672
1.0019165
0.99975148
1.0011607
1.0024515
1.0020635
1.00093
1.0003216
0.99919818
1.0001547
1.000534
1.001804
0.99984027
0.99896201
0.99886483
0.99916572
0.99619616
0.99731787
0.99684841
0.9955485
0.99582244
0.99666804
0.99596781
0.99716098
1.0000149
0.9991383
0.99832333
0.99752253
0.99806724
0.99890696
0.99627301
0.99708133
1.0012295
1.0007218
0.99769009
0.99793855
1.0000006
1.0005411
0.99905263
0.99676469
0.99608995
0.99614557
0.99330654
0.98798464
0.98499495
0.98851301
0.9957397
1.0015704
1.0006973
0.99231832
0.98147083
0.97354415
0.97178897
0.97517801
0.98003154
0.9838808
1.0018537
0.9996525
1.0013751
1.0025344
1.001648
1.0005376
1.0001516
0.99869275
0.99942261
1.0003276
1.0018742
0.99988119
0.99844465
0.99757135
0.99921769
0.99629487
0.99721252
0.99719085
0.99554178
0.99479297
0.99593282
0.99543839
0.99664518
0.99983591
0.9996498
0.99877777
0.99815078
0.99816696
0.99840655
0.99621703
0.99721295
1.0005946
0.99950733
0.99675298
0.99810181
1.0011907
1.0022772
1.0008473
0.99743172
0.99449017
0.99356758
0.99305676
0.99095542
0.98941776
0.99144291
0.9964256
1.0003452
0.99958974
0.99360644
0.98574183
0.97964861
0.97808266
0.98091003
0.98548586
0.98977337
1.0018141
0.99961294
1.001392
1.002496
1.0014513
1.0004029
1.0001034
0.99856371
0.99899944
1.0002423
1.0016222
0.99995018
0.99812671
0.99648792
0.99892208
0.99647691
0.99704007
0.99737101
0.99564495
0.99397482
0.99510076
0.99501978
0.99628227
0.99951475
1.0000808
0.99924435
0.99905253
0.99871361
0.9982225
0.99648132
0.99757365
1.0002981
0.99848352
0.99573752
0.99777284
1.0018212
1.0037427
1.0025616
0.99857421
0.9938164
0.99141746
0.99185693
0.99265005
0.99333435
0.99502475
0.99796481
0.99965894
0.99760922
0.9930289
0.98789363
0.98457825
0.98395667
0.9861506
0.9902083
0.99442272
1.0017912
0.99963432
1.0012553
1.0023433
1.0015132
1.0005011
1.0001373
0.99875236
0.99891537
1.0002668
1.0012586
0.99998202
0.9980737
0.99598129
0.99848063
0.99681917
0.99680789
0.99730033
0.99576224
0.99356187
0.99454513
0.99485684
0.99620945
0.99913141
1.000346
0.99947654
0.999937
0.99944813
0.99823147
0.99688356
0.99822577
1.0003571
0.99793577
0.994923
0.99712067
1.0018573
1.0046875
1.0040103
0.99991826
0.9937093
0.98969581
0.99008647
0.99305332
0.99631329
0.99872991
1.0000689
0.99920963
0.99541964
0.99076219
0.98781281
0.98691173
0.98781824
0.99015739
0.99355399
0.99726996
1.0017858
0.99968694
1.0010013
1.0020513
1.0017451
1.0007617
1.0002319
0.9991653
0.99914626
1.0003728
1.0009168
0.99990646
0.99828857
0.99613675
0.99800969
0.9972266
0.99658603
0.99704659
0.99583172
0.99352575
0.99438308
0.995033
0.99643951
0.99873814
1.0003714
0.99945799
1.0006562
1.0001305
0.99824791
0.99720678
0.99899243
1.0007119
0.99780832
0.9943838
0.99629754
1.0014319
1.0050426
1.0050876
1.0010083
0.99401251
0.98836476
0.98783047
0.99229327
0.99788036
1.0019379
1.0027804
0.99962688
0.99337782
0.98765268
0.98537639
0.98629038
0.98864027
0.99190554
0.995257
0.99848038
1.0017927
0.99976678
1.0006639
1.0016739
1.0020481
1.0010833
1.0003429
0.999687
0.99954768
1.0004623
1.0006387
0.99968278
0.99860878
0.99683176
0.99755301
0.99765322
0.99629254
0.9965114
0.99571356
0.99368097
0.99455444
0.99539036
0.99691402
0.99833063
1.0001419
0.99910344
1.0010312
1.000653
0.99815155
0.99733196
0.99965181
1.0012335
0.99794851
0.99405866
0.99534922
1.0006847
1.0049103
1.0056386
1.0018002
0.99450651
0.98748001
0.9856434
0.99036039
0.99776277
1.0039798
1.0055556
1.0009369
0.99258611
0.98512556
0.98221512
0.98358707
0.98704894
0.99119996
0.99502823
0.99835572
1.0018018
0.99985651
1.0002605
1.0012811
1.0023128
1.0013932
1.0004147
1.0001696
0.99998274
1.0005059
1.0003969
0.99927001
0.99891154
0.99777321
0.99709859
0.99793803
0.99590787
0.99575649
0.99532188
0.99379885
0.99478856
0.99570766
0.99733642
0.99783576
0.99963745
0.99842283
1.0009613
1.0008398
0.99788058
0.99725436
1.0000789
1.00169
0.99808461
0.99381336
0.99436646
0.99959114
1.0044539
1.0057264
1.0023432
0.99516239
0.98707227
0.98387055
0.98776522
0.99612151
1.0044925
1.0077717
1.0031368
0.99318912
0.98447228
0.98000455
0.98043999
0.98428969
0.98885901
0.99292701
0.99679156
1.0018051
0.99991667
0.99982992
1.0009041
1.0024631
1.0015747
1.0003705
1.0004928
1.0002794
1.0004046
1.0000851
0.99869249
0.99902448
0.99863072
0.99662358
0.99802406
0.99547262
0.99493307
0.99467358
0.99372896
0.99495363
0.99585851
0.99755845
0.99720764
0.99891078
0.99748772
1.0005548
1.000719
0.99745705
0.99700294
1.0004191
1.0021748
0.99839706
0.99367145
0.99342553
0.99833552
1.0038307
1.005648
1.0026494
0.99582254
0.98709461
0.98257728
0.98573039
0.99391381
1.0035526
1.0086414
1.0048109
0.99482406
0.985105
0.9795639
0.97931251
0.98214548
0.98642941
0.99049762
0.99435944
1.0017641
0.99990589
0.999344
1.0005055
1.0024271
1.0015407
1.0001174
1.0005424
1.0003407
1.0001034
0.99963522
0.9979785
0.99888694
0.99924272
0.99614279
0.99795934
0.99505287
0.99416889
0.99390541
0.99343715
0.99495105
0.99592106
0.99761746
0.99653563
0.99808457
0.99641268
0.99978621
1.000254
0.99690091
0.99643304
1.0005246
1.0026866
0.99881875
0.99367215
0.99272408
0.99723703
1.003131
1.0056342
1.0028875
0.99633539
0.98760579
0.98224749
0.98429486
0.99202314
1.0024333
1.0088316
1.0061674
0.9960453
0.98590776
0.9798811
0.97920371
0.98276708
0.98642258
0.98995791
0.99313524
1.0015882
0.99970027
0.99874386
1.0000049
1.0021904
1.0012558
0.99966743
1.000357
1.000219
0.99971784
0.99916805
0.99729275
0.99862329
0.99954683
0.9957638
0.99785446
0.99475601
0.99368564
0.99331183
0.99308723
0.99484233
0.99598595
0.99778961
0.9961471
0.99752728
0.99562127
0.99909279
0.99974846
0.99611085
0.99563074
1.0002003
1.0031804
0.99951707
0.99406331
0.9921761
0.99659624
1.002711
1.0062064
1.0038228
0.99726178
0.98854964
0.982356
0.98300882
0.99140074
1.0021149
1.0095508
1.0085314
0.99890129
0.98730599
0.98041122
0.97908155
0.98327152
0.98847173
0.99352056
0.99675851
1.0010644
0.99918924
0.99805796
0.99948421
1.0018801
1.0009517
0.99928765
1.0002275
1.0001727
0.9995289
0.99890413
0.99690992
0.99845031
0.99969235
0.99563604
0.99781743
0.99468866
0.99355828
0.99313164
0.99282131
0.99475774
0.99597156
0.99791876
0.99614407
0.99741677
0.99540367
0.99874891
0.99965306
0.99580295
0.99490162
0.99930301
1.0029403
0.99994519
0.99479013
0.99240387
0.99611709
1.0021894
1.0061088
1.0046619
0.99892147
0.99072649
0.98393185
0.98352312
0.99072439
1.0010117
1.0103259
1.0110471
1.0028296
0.99092363
0.98246955
0.98040954
0.98333344
0.98940875
0.99550873
1.0009021
1.0033578
0.99770748
0.99548482
0.99733453
0.99928765
1.00016
1.0004103
0.99975118
0.99712683
0.99166026
0.98407885
0.97617309
0.96985357
0.96557179
0.96314479
0.96151517
0.9603708
0.95929229
0.95499688
0.94192299
0.92316315
0.91173358
0.92426555
0.94396156
0.95410652
0.95908284
0.96878541
0.99991512
0.99531381
0.99491289
0.99697951
0.99793267
0.99785424
0.99781978
0.99686821
0.9930387
0.98535927
0.97612614
0.9682238
0.96442734
0.96556984
0.96932214
0.97233184
0.97276735
0.96930396
0.95947539
0.94313821
0.92375809
0.91136615
0.91614969
0.92776331
0.93266804
0.94214383
0.96437861
0.99607753
0.99366148
0.99364842
0.99354489
0.99205819
0.99089567
0.99038139
0.98822351
0.98217188
0.97269925
0.96300947
0.95679203
0.95727362
0.96325137
0.97143207
0.97684007
0.97575008
0.97021328
0.96113312
0.94982
0.93442913
0.92141842
0.91815113
0.91586347
0.91338839
0.92535385
0.95249372
0.9936854
0.99314589
0.99146546
0.98769752
0.98401999
0.98220133
0.98085994
0.9776111
0.97055102
0.96140672
0.95304446
0.94875076
0.9514183
0.95864337
0.96611749
0.96862428
0.96393345
0.95783181
0.95610397
0.95536584
0.94872209
0.93619803
0.92657783
0.91677856
0.90941564
0.91489267
0.9330015
0.99191245
0.99051726
0.98561239
0.97956485
0.97595997
0.97500786
0.97426406
0.97118965
0.96515188
0.95749407
0.950414
0.9467299
0.94757713
0.9510595
0.95283309
0.94931005
0.94150958
0.93725673
0.94280188
0.95221245
0.95541098
0.94802588
0.93893473
0.9299881
0.9198943
0.91488953
0.9137932
0.98861134
0.98498755
0.97717956
0.97123185
0.97000604
0.97120847
0.97235389
0.97134378
0.96715701
0.96081617
0.95360876
0.94776155
0.94444111
0.9417422
0.93667918
0.92802735
0.91915484
0.91728751
0.92605562
0.93917626
0.94810403
0.94928449
0.94952786
0.94673667
0.93705987
0.92168755
0.90456558
0.98478425
0.97859551
0.97004644
0.96678879
0.9684888
0.97204886
0.97517786
0.97560917
0.9723237
0.96522893
0.95574865
0.94636002
0.93885609
0.93159215
0.92321242
0.91303124
0.90483308
0.90357508
0.91034133
0.92150871
0.93081872
0.9383584
0.94949583
0.9594433
0.95125876
0.929512
0.91020308
0.98197563
0.97448561
0.96782798
0.96793967
0.97146378
0.97618687
0.97943297
0.97935022
0.97358726
0.96287596
0.94971335
0.93736935
0.92784754
0.92013201
0.91253221
0.9045523
0.89879759
0.89654533
0.90018882
0.90746117
0.91398835
0.92100747
0.93625316
0.95156942
0.94884803
0.93494297
0.9247174
0.98159909
0.97526305
0.97143295
0.9732949
0.97705764
0.98038854
0.98126124
0.97667815
0.96546393
0.9495083
0.93224631
0.91798226
0.9085919
0.90333775
0.8994998
0.89653146
0.89457956
0.89464769
0.8982135
0.90383346
0.9073823
0.90881777
0.91409405
0.92273278
0.92616219
0.92936928
0.93724529
0.98537554
0.98120009
0.97878796
0.979718
0.98082172
0.98042253
0.97626472
0.96586455
0.94854902
0.92725561
0.90658228
0.89085278
0.88224702
0.87942247
0.88021963
0.88273751
0.8866632
0.89306599
0.90192078
0.90942755
0.9098443
0.90336634
0.8935748
0.89092651
0.89502783
0.91254775
0.93809174
0.99046479
0.98729203
0.98409449
0.98161247
0.97888942
0.97487428
0.96671835
0.95165734
0.93029453
0.90553124
0.88232329
0.864672
0.85500012
0.85257322
0.85501217
0.86130782
0.87162773
0.88590275
0.90287875
0.9142732
0.91365476
0.90117553
0.88361246
0.87222326
0.87606465
0.89385267
0.92234674
0.99064347
0.98737981
0.9815212
0.97608315
0.97104271
0.96585328
0.95647482
0.93986869
0.91704342
0.89109036
0.8659694
0.8455463
0.83295037
0.82825685
0.82958472
0.83634501
0.8491051
0.868601
0.89195261
0.90897476
0.91130859
0.89930686
0.88276252
0.87178191
0.87439313
0.88379187
0.90174214
0.98397876
0.97944841
0.97124527
0.96437714
0.95980406
0.9556908
0.94759912
0.93199455
0.9093868
0.88265676
0.85598254
0.83300708
0.81723716
0.80936909
0.80791727
0.81209794
0.82297652
0.84181864
0.86635545
0.88780707
0.89755702
0.89458748
0.88551531
0.88037071
0.88281931
0.88572384
0.89251313
0.97219879
0.96599885
0.95681931
0.95094701
0.94874541
0.94689281
0.94067063
0.92630279
0.90420201
0.87726723
0.84912123
0.8239114
0.80557762
0.79515583
0.79122613
0.7924751
0.79877223
0.81195885
0.83238512
0.85428118
0.87168906
0.88132243
0.88526314
0.88919157
0.8932394
0.89569156
0.8961148
0.96062839
0.95396075
0.94504179
0.94102717
0.94111005
0.94082788
0.93498222
0.92020904
0.89749471
0.86996897
0.84086436
0.81459853
0.79509099
0.78346461
0.77830065
0.77735441
0.7796695
0.78676824
0.80036837
0.81939153
0.84042394
0.86049693
0.87710219
0.89047284
0.90045178
0.90537796
0.90551135
0.95615338
0.94904832
0.94085215
0.93811215
0.93879286
0.93750691
0.92920482
0.91181265
0.88721332
0.85856051
0.82910434
0.80289929
0.78334556
0.77148473
0.76570914
0.76339111
0.76330853
0.76668697
0.77589427
0.79214878
0.814658
0.84037434
0.86527621
0.88409671
0.89865463
0.90761937
0.91066537
0.9563193
0.94885423
0.94226284
0.94023136
0.93962099
0.93522754
0.9228816
0.90243275
0.87641317
0.8472921
0.81774308
0.79115003
0.77075146
0.75775271
0.75061068
0.74663218
0.7446258
0.74656799
0.75569082
0.77404959
0.79985957
0.82962347
0.85750301
0.87704763
0.89023606
0.89936084
0.90459892
0.95586025
0.95013827
0.94394878
0.94101449
0.93808703
0.93061892
0.91603047
0.89507034
0.86945824
0.84060203
0.81045407
0.78221908
0.75916716
0.74276652
0.73212111
0.72510258
0.72141024
0.72474517
0.73827731
0.76219607
0.79340401
0.82733576
0.8556725
0.87271142
0.88003889
0.88423829
0.89001306
0.95190857
0.94687532
0.94087492
0.93678204
0.932188
0.9236684
0.91011295
0.89152776
0.86801032
0.83953109
0.80778279
0.77600156
0.74853722
0.72741234
0.71216326
0.70191375
0.69856628
0.70587626
0.72479167
0.75448631
0.79103715
0.82724469
0.85420973
0.86763872
0.86925058
0.86952568
0.87397128
0.94562365
0.94063484
0.93410124
0.92907573
0.9240019
0.91689233
0.90623109
0.89050264
0.86765509
0.83754716
0.80220373
0.76692076
0.73606586
0.71140556
0.69384262
0.68377628
0.68384778
0.69495179
0.7176326
0.75091305
0.78829753
0.82173106
0.84539107
0.85707385
0.86001964
0.86076065
0.86446711
0.94219427
0.93716638
0.92970867
0.92346709
0.91831656
0.91271864
0.90362874
0.88710674
0.86107026
0.82614984
0.78696686
0.74919049
0.71759032
0.69431299
0.68011863
0.67484476
0.67978643
0.6937326
0.71850134
0.75022095
0.78149458
0.80777086
0.82792313
0.84301105
0.85130073
0.85659245
0.86064888
0.94576621
0.94040368
0.93132527
0.92415558
0.91906286
0.91271761
0.90034477
0.87833486
0.84534024
0.8046991
0.7622323
0.72466368
0.69665868
0.67982064
0.67278298
0.67361647
0.68253817
0.6988861
0.72294074
0.74798748
0.76937574
0.78756785
0.8069233
0.82682165
0.84271539
0.85317563
0.85866577
0.94970535
0.94347676
0.93300437
0.92547461
0.91940457
0.91034699
0.89385872
0.86602149
0.82796366
0.78488072
0.74353457
0.70959857
0.6865635
0.67500959
0.67240055
0.67633092
0.68657942
0.70291759
0.72192376
0.73882666
0.75261475
0.76726623
0.78771933
0.8112341
0.83263175
0.84600305
0.85209948
0.9436925
0.93633924
0.92579258
0.91817506
0.91187076
0.90247558
0.88457279
0.85613333
0.81941262
0.78078715
0.74409979
0.71511418
0.69442588
0.68261147
0.67873966
0.68089538
0.687671
0.6977981
0.70979229
0.72183471
0.73387776
0.74981346
0.77179965
0.79731815
0.81921173
0.83252871
0.83886875
0.92321565
0.91585405
0.90654842
0.90114499
0.89712869
0.89039151
0.87656794
0.85438055
0.82657712
0.7952719
0.76467588
0.73643792
0.71400839
0.69878007
0.68948838
0.6844725
0.6820265
0.68369239
0.69031004
0.70143514
0.71575039
0.73392612
0.75708842
0.78203307
0.80147861
0.81269463
0.82020817
0.89762834
0.89100919
0.88502598
0.8823073
0.88149901
0.87923747
0.87184074
0.85778292
0.83791154
0.81400652
0.78721332
0.76022794
0.73555875
0.71482086
0.69829176
0.68490291
0.67464331
0.66916521
0.67274803
0.68375783
0.70007076
0.71906755
0.74100638
0.76294585
0.77955762
0.7892066
0.79899484
0.87784094
0.87252432
0.86938645
0.8683974
0.86953867
0.8696503
0.86617768
0.85741876
0.84289127
0.82316066
0.79897385
0.7721449
0.74571555
0.72221107
0.7017177
0.6836469
0.66930291
0.66215188
0.66419725
0.67405275
0.68868997
0.70522559
0.72309569
0.74161374
0.75655531
0.76623351
0.77814695
0.86843651
0.86370229
0.8614616
0.86018071
0.86025838
0.8597102
0.85638888
0.84806113
0.83301577
0.81235107
0.78817203
0.76269515
0.7386612
0.71749803
0.69884206
0.68242218
0.66931608
0.66295224
0.66388944
0.67085236
0.68132173
0.69358046
0.70745175
0.7226972
0.7360254
0.74634433
0.76067067
0.86562313
0.86068742
0.85732751
0.85394366
0.85138688
0.84776537
0.8399078
0.82569563
0.8058897
0.78323404
0.76020407
0.7386974
0.72018212
0.7046862
0.69109732
0.67934087
0.67059999
0.66603315
0.66625441
0.67015189
0.67649359
0.68502066
0.69646195
0.70981303
0.72223498
0.73328126
0.75036057
0.86500824
0.8592729
0.85363599
0.84793
0.84157096
0.83059109
0.81289219
0.79040485
0.76671644
0.74472822
0.72547132
0.70914242
0.69591551
0.68578387
0.67740453
0.67092899
0.66673605
0.66514179
0.66650221
0.66980417
0.67508873
0.68263761
0.69317177
0.70533501
0.7171609
0.72957714
0.74815434
0.86538574
0.85916455
0.85231647
0.84262875
0.82684393
0.80417214
0.77806772
0.75267518
0.7303168
0.71128277
0.69482265
0.68084528
0.66982044
0.66209692
0.65741328
0.65508379
0.65598573
0.65971166
0.66482403
0.67130422
0.67842238
0.68695012
0.69845606
0.71025981
0.72176957
0.73436123
0.75186656
0.86714138
0.86107059
0.84966694
0.82860705
0.80029313
0.77065198
0.74393222
0.72167271
0.70263959
0.68532699
0.66883528
0.65357868
0.64126913
0.63371761
0.63100974
0.63442621
0.64211348
0.65273327
0.66443417
0.67565983
0.68623816
0.69677764
0.70862853
0.71989784
0.72935385
0.73938383
0.7542566
0.86934669
0.85949523
0.83590919
0.80177579
0.76772958
0.7391952
0.71702118
0.69884581
0.68152794
0.66325632
0.64468295
0.62813484
0.61525693
0.60828544
0.60896207
0.61741095
0.63297004
0.64962367
0.66651003
0.68264239
0.69665347
0.70923594
0.72015556
0.72798446
0.73282823
0.73857962
0.75054951
0.86934077
0.84972752
0.80981813
0.76800308
0.73534062
0.71201556
0.69428858
0.67799676
0.66086887
0.64260682
0.62466482
0.6103008
0.6005283
0.59741442
0.60245415
0.6141874
0.63218933
0.65226662
0.67198798
0.69165879
0.70754296
0.71871322
0.72567099
0.72721486
0.72669484
0.73012075
0.74072082
0.8610383
0.82636627
0.77261414
0.73071432
0.70398424
0.68616988
0.67177561
0.65786672
0.64337424
0.62886742
0.61579545
0.60615439
0.60183066
0.60323043
0.61106483
0.62409204
0.64084709
0.66085396
0.68168209
0.7003119
0.71336131
0.7201066
0.71987507
0.71485629
0.71227862
0.71591141
0.72934947
0.83452275
0.78281973
0.72340235
0.68930468
0.67131784
0.65967405
0.64999085
0.64139052
0.63282098
0.62444164
0.61785116
0.6134068
0.61258243
0.61686744
0.62589363
0.63901244
0.65482046
0.6730515
0.69094296
0.70456594
0.71178708
0.71113448
0.70457712
0.69740766
0.6948278
0.70564272
0.72192361
0.78517622
0.72193662
0.67101523
0.6499436
0.64185157
0.63776407
0.63534089
0.63327903
0.6303348
0.62748071
0.62541032
0.62526638
0.62772683
0.63332264
0.64248301
0.65445674
0.66863668
0.68309688
0.69555882
0.70293065
0.70364914
0.69842486
0.68953102
0.68447441
0.68965561
0.70321077
0.72339495
0.71477139
0.65953249
0.62822825
0.6199022
0.62019161
0.62343441
0.62720619
0.62992673
0.63185029
0.63331138
0.63486318
0.63733826
0.64152232
0.6480894
0.65678652
0.66704472
0.67829976
0.68808175
0.69462666
0.69701119
0.69468065
0.68917226
0.68451383
0.68699032
0.69676279
0.71097192
0.73066233
0.63075226
0.60798724
0.60053665
0.60359319
0.60975318
0.61674947
0.62345799
0.62991549
0.63396773
0.63791948
0.64186451
0.64621811
0.65161202
0.65851691
0.66661837
0.67504889
0.6829179
0.68867172
0.69155398
0.69139959
0.68943841
0.68870025
0.69133123
0.69819747
0.70941712
0.72389586
0.74149391
0.58308005
0.58361846
0.58945563
0.59698848
0.60529594
0.61357704
0.6208778
0.62742246
0.63335185
0.63900812
0.64438464
0.64986927
0.65618598
0.66351634
0.67111017
0.67829771
0.68422962
0.68821633
0.69004092
0.69070901
0.69198182
0.69537589
0.70243204
0.71223472
0.72400658
0.73746292
0.75215386
0.56630269
0.57373728
0.58287164
0.59109574
0.59931053
0.60743182
0.61503435
0.62213584
0.62869223
0.63486992
0.64109051
0.64750053
0.6544513
0.66227523
0.67030878
0.67780455
0.68404204
0.6886263
0.69184668
0.69459548
0.69824883
0.70435108
0.71318732
0.72386871
0.73553026
0.74704583
0.75581318
0.55020714
0.56028646
0.57043389
0.57924851
0.58792787
0.59637111
0.60437305
0.61210889
0.61945501
0.62655278
0.63375643
0.64130797
0.64930482
0.65788844
0.66684377
0.67525341
0.68261262
0.68876989
0.69420655
0.69950133
0.70590969
0.71392816
0.72341932
0.73362912
0.74298139
0.74979495
0.75116581
0.52970975
0.54308386
0.55498063
0.56496247
0.5744654
0.58340317
0.59195791
0.60036394
0.60842838
0.61614826
0.62386466
0.63205762
0.64082183
0.64996595
0.65940289
0.66841337
0.67680529
0.68493746
0.69317642
0.70217042
0.71242879
0.72298137
0.73349982
0.74287411
0.74901243
0.74957955
0.74339872
0.51519703
0.53257577
0.54582047
0.55633141
0.56577649
0.57447031
0.58273279
0.5907669
0.59857273
0.60606128
0.61353324
0.6214797
0.6299678
0.63877956
0.64795495
0.65718107
0.66646874
0.67656939
0.68795495
0.70080715
0.71463675
0.7288616
0.74171778
0.75144656
0.75539268
0.75125163
0.73840305
0.50863497
0.52887949
0.54242679
0.55274523
0.56168253
0.56977777
0.57723977
0.58428477
0.59108128
0.59772755
0.60433675
0.61101506
0.61799845
0.62556662
0.63382996
0.64306149
0.65382731
0.66662003
0.68074981
0.69572395
0.71141898
0.72705466
0.74164173
0.75367707
0.7583385
0.7529233
0.73558492
0.50122924
0.52285318
0.53661948
0.54741129
0.55678521
0.56519986
0.57284405
0.57985728
0.58626979
0.59213466
0.59758373
0.60286535
0.60837512
0.61457808
0.62230679