/*--------------------------------*- C++ -*----------------------------------*\
| =========                 |                                                 |
| \\      /  F ield         | OpenFOAM: The Open Source CFD Toolbox           |
|  \\    /   O peration     | Version:  2406                                  |
|   \\  /    A nd           | Website:  www.openfoam.com                      |
|    \\/     M anipulation  |                                                 |
\*---------------------------------------------------------------------------*/
FoamFile
{
    version     2.0;
    format      ascii;
    arch        "LSB;label=32;scalar=64";
    class       volScalarField;
    location    "1600";
    object      k;
}
// * * * * * * * * * * * * * * * * * * * * * * * * * * * * * * * * * * * * * //

dimensions      [0 2 -2 0 0 0 0];

internalField   nonuniform List<scalar> 
132739
(
3.409958e-06
2.7354536e-06
2.2699545e-06
1.9401398e-06
1.6969514e-06
1.5108017e-06
1.3638189e-06
1.2448254e-06
1.1465271e-06
1.0639692e-06
9.9366618e-07
9.3309291e-07
8.8037449e-07
8.3408851e-07
7.9313667e-07
7.5665696e-07
7.239635e-07
6.9450364e-07
6.6782726e-07
6.4356402e-07
6.214066e-07
6.0109781e-07
5.8242088e-07
5.6519181e-07
5.4925347e-07
5.3447083e-07
5.2072733e-07
5.0792179e-07
4.95966e-07
4.8478275e-07
4.7430417e-07
4.6447039e-07
4.5522842e-07
4.4653118e-07
4.3833673e-07
4.3060755e-07
4.2331001e-07
4.1641385e-07
4.0989178e-07
4.0371908e-07
3.9787333e-07
3.9233407e-07
3.8708263e-07
3.8210185e-07
3.7737601e-07
3.7289021e-07
3.6863202e-07
3.6458723e-07
3.607367e-07
3.5706111e-07
3.5355471e-07
3.5013146e-07
3.4681015e-07
3.4378509e-07
3.404955e-07
3.3716162e-07
3.3425477e-07
3.3137148e-07
3.285154e-07
3.258127e-07
3.2333121e-07
3.2109586e-07
3.1915476e-07
3.1739012e-07
3.1576184e-07
3.142413e-07
3.1280935e-07
3.1145678e-07
3.1018676e-07
3.0900275e-07
3.0792856e-07
3.0695972e-07
3.0617252e-07
3.0523e-07
3.0501844e-07
3.042894e-07
3.0441168e-07
3.0495212e-07
3.0588693e-07
3.0747155e-07
3.0985827e-07
3.131703e-07
3.1752121e-07
3.2300765e-07
3.2970228e-07
3.3766002e-07
3.4694346e-07
3.576593e-07
3.6999012e-07
3.8421317e-07
4.0067197e-07
4.1987259e-07
4.4177192e-07
4.6613402e-07
4.9304149e-07
5.2262169e-07
5.5506141e-07
5.9063362e-07
6.2972254e-07
6.7283501e-07
7.2060251e-07
7.7375882e-07
8.3340268e-07
8.9986737e-07
3.4100698e-06
2.7359023e-06
2.2705565e-06
1.9408028e-06
1.697631e-06
1.5114775e-06
1.3644816e-06
1.2454714e-06
1.1471556e-06
1.0645809e-06
9.9426256e-07
9.3367598e-07
8.8094629e-07
8.3465127e-07
7.936925e-07
7.5720792e-07
7.2451154e-07
6.9505061e-07
6.6837487e-07
6.4411386e-07
6.219601e-07
6.0165625e-07
5.8298536e-07
5.6576326e-07
5.4983259e-07
5.3505818e-07
5.2132324e-07
5.085264e-07
4.9657925e-07
4.8540438e-07
4.7493373e-07
4.6510728e-07
4.5587184e-07
4.4718019e-07
4.3899026e-07
4.3126444e-07
4.2396899e-07
4.1707362e-07
4.1055099e-07
4.043764e-07
3.9852743e-07
3.9298369e-07
3.877266e-07
3.8273908e-07
3.780056e-07
3.7351113e-07
3.6924504e-07
3.6518139e-07
3.6128355e-07
3.5753147e-07
3.5393342e-07
3.5039109e-07
3.4702794e-07
3.4380727e-07
3.4059489e-07
3.3749862e-07
3.3462133e-07
3.3186507e-07
3.2921218e-07
3.2670728e-07
3.2442719e-07
3.2240127e-07
3.2065944e-07
3.1911116e-07
3.1765074e-07
3.1625014e-07
3.1490048e-07
3.1360368e-07
3.1237176e-07
3.1122432e-07
3.1018398e-07
3.0927514e-07
3.0852482e-07
3.0795755e-07
3.0761941e-07
3.0750801e-07
3.0763881e-07
3.0799089e-07
3.0860025e-07
3.0953246e-07
3.1088661e-07
3.1279767e-07
3.154393e-07
3.1902068e-07
3.2377326e-07
3.299285e-07
3.3769511e-07
3.4724577e-07
3.5871852e-07
3.7224078e-07
3.8795172e-07
4.0605603e-07
4.2694683e-07
4.4960547e-07
4.7372525e-07
4.995682e-07
5.2751644e-07
5.5795122e-07
5.9123732e-07
6.2776602e-07
6.6789774e-07
7.1249641e-07
7.6014855e-07
8.2245123e-07
3.410197e-06
2.7363495e-06
2.2711413e-06
1.9414354e-06
1.6982698e-06
1.512104e-06
1.3650875e-06
1.2460534e-06
1.1477128e-06
1.065113e-06
9.9476991e-07
9.3415895e-07
8.8140523e-07
8.3508643e-07
7.94104e-07
7.5759574e-07
7.248755e-07
6.9539043e-07
6.6869014e-07
6.4440411e-07
6.2222478e-07
6.0189475e-07
5.8319702e-07
5.6594738e-07
5.499885e-07
5.3518517e-07
5.2142062e-07
5.0859351e-07
4.9661548e-07
4.8540916e-07
4.7490658e-07
4.6504774e-07
4.5577957e-07
4.4705492e-07
4.388318e-07
4.3107269e-07
4.2374395e-07
4.1681535e-07
4.1025964e-07
4.0405216e-07
3.9817056e-07
3.9259448e-07
3.8730536e-07
3.8228613e-07
3.7752112e-07
3.7299589e-07
3.686964e-07
3.6461088e-07
3.6072915e-07
3.5703722e-07
3.5356266e-07
3.5008869e-07
3.4684146e-07
3.4392731e-07
3.4080542e-07
3.3787784e-07
3.3518429e-07
3.3259843e-07
3.3012267e-07
3.2776755e-07
3.2551217e-07
3.2345132e-07
3.2157119e-07
3.1976512e-07
3.1802068e-07
3.163363e-07
3.1471185e-07
3.1315134e-07
3.1166465e-07
3.1026667e-07
3.0897576e-07
3.0781082e-07
3.0679852e-07
3.0594202e-07
3.0536367e-07
3.0507814e-07
3.0510225e-07
3.0539074e-07
3.0604288e-07
3.0725455e-07
3.0903626e-07
3.1135131e-07
3.1420962e-07
3.1765769e-07
3.2179165e-07
3.2676977e-07
3.3281465e-07
3.402008e-07
3.4922814e-07
3.6018909e-07
3.7335122e-07
3.8891624e-07
4.0720725e-07
4.2823349e-07
4.5166445e-07
4.7640529e-07
5.0234848e-07
5.2971776e-07
5.5885725e-07
5.9020382e-07
6.2402311e-07
6.6149785e-07
6.9985188e-07
7.5309814e-07
3.4103416e-06
2.7367971e-06
2.2717194e-06
1.9420577e-06
1.6988971e-06
1.512719e-06
1.3656835e-06
1.2466282e-06
1.1482663e-06
1.0656464e-06
9.9528488e-07
9.3465728e-07
8.8188883e-07
8.3555718e-07
7.9456373e-07
7.5804623e-07
7.2531845e-07
6.9582747e-07
6.6912283e-07
6.4483395e-07
6.2265318e-07
6.0232307e-07
5.8362657e-07
5.663794e-07
5.5042417e-07
5.356256e-07
5.2186687e-07
5.0904658e-07
4.9707629e-07
4.8587859e-07
4.7538543e-07
4.6553676e-07
4.5627942e-07
4.4756622e-07
4.3935507e-07
4.3160838e-07
4.2429245e-07
4.1737696e-07
4.1083459e-07
4.046406e-07
3.9877256e-07
3.9321004e-07
3.8793438e-07
3.8292846e-07
3.7817653e-07
3.7366397e-07
3.6937717e-07
3.6530321e-07
3.6142965e-07
3.5774366e-07
3.5423022e-07
3.5092269e-07
3.4772288e-07
3.4466117e-07
3.418555e-07
3.3913336e-07
3.3646986e-07
3.3395443e-07
3.3159087e-07
3.2932735e-07
3.271449e-07
3.2503637e-07
3.229925e-07
3.2102874e-07
3.1914841e-07
3.1734954e-07
3.1562911e-07
3.1398733e-07
3.1242976e-07
3.1096708e-07
3.0961364e-07
3.0838645e-07
3.073056e-07
3.0639275e-07
3.0568487e-07
3.0517591e-07
3.0503343e-07
3.0514853e-07
3.0534418e-07
3.0604171e-07
3.0726066e-07
3.0907241e-07
3.1155474e-07
3.1477157e-07
3.187705e-07
3.2359327e-07
3.292973e-07
3.3598257e-07
3.4381387e-07
3.530252e-07
3.6391049e-07
3.7678052e-07
3.9196446e-07
4.0981953e-07
4.3064912e-07
4.5335317e-07
4.7754579e-07
5.0306958e-07
5.2989741e-07
5.5818923e-07
5.8797596e-07
6.203533e-07
6.5270021e-07
6.9657561e-07
3.410502e-06
2.7372464e-06
2.2722909e-06
1.9426695e-06
1.699512e-06
1.5133207e-06
1.366265e-06
1.2471872e-06
1.1488025e-06
1.0661605e-06
9.9577758e-07
9.351297e-07
8.8234196e-07
8.3599194e-07
7.9498093e-07
7.5844654e-07
7.2570244e-07
6.9619558e-07
6.6947542e-07
6.4517126e-07
6.2297541e-07
6.0263035e-07
5.8391896e-07
5.6665693e-07
5.506868e-07
5.358733e-07
5.2209956e-07
5.0926415e-07
4.9727865e-07
4.8606561e-07
4.7555699e-07
4.6569274e-07
4.564197e-07
4.4769068e-07
4.3946361e-07
4.317009e-07
4.2436885e-07
4.1743715e-07
4.1087847e-07
4.0466809e-07
3.9878358e-07
3.9320449e-07
3.8791215e-07
3.8288944e-07
3.7812055e-07
3.7359091e-07
3.6928673e-07
3.6519547e-07
3.6130572e-07
3.5760547e-07
3.5408711e-07
3.5073184e-07
3.4753994e-07
3.4449342e-07
3.4158978e-07
3.3882062e-07
3.3616263e-07
3.3362021e-07
3.3119729e-07
3.2887924e-07
3.2664842e-07
3.2449615e-07
3.224214e-07
3.204224e-07
3.1850012e-07
3.1665345e-07
3.1487977e-07
3.1317877e-07
3.1155451e-07
3.1001541e-07
3.0857319e-07
3.0724256e-07
3.0603971e-07
3.0498918e-07
3.0409745e-07
3.0347271e-07
3.0310155e-07
3.029943e-07
3.0323159e-07
3.0388776e-07
3.0499405e-07
3.0660487e-07
3.0879154e-07
3.1163901e-07
3.1523878e-07
3.1967891e-07
3.2503582e-07
3.3137474e-07
3.387629e-07
3.4729199e-07
3.5710207e-07
3.6839402e-07
3.8142766e-07
3.9649056e-07
4.1416561e-07
4.3395377e-07
4.5541134e-07
4.7843223e-07
5.0292856e-07
5.2887351e-07
5.560651e-07
5.8517731e-07
6.1402096e-07
6.5136335e-07
3.4106771e-06
2.7376947e-06
2.2728548e-06
1.9432706e-06
1.7001148e-06
1.5139098e-06
1.3668345e-06
1.247735e-06
1.1493287e-06
1.066666e-06
9.9626392e-07
9.3559834e-07
8.8279446e-07
8.3642981e-07
7.954056e-07
7.5885939e-07
7.2610473e-07
6.965885e-07
6.6986009e-07
6.4554873e-07
6.2334666e-07
6.0299629e-07
5.8428044e-07
5.6701476e-07
5.5104172e-07
5.3622599e-07
5.2245067e-07
5.0961428e-07
4.9762832e-07
4.8641533e-07
4.7590719e-07
4.6604384e-07
4.5677207e-07
4.4804462e-07
4.3981941e-07
4.3205878e-07
4.24729e-07
4.1779972e-07
4.1124356e-07
4.0503576e-07
3.9915384e-07
3.9357731e-07
3.8828747e-07
3.8326713e-07
3.7850046e-07
3.7397282e-07
3.6967047e-07
3.6558069e-07
3.6169169e-07
3.5799076e-07
3.5446794e-07
3.5112069e-07
3.4791572e-07
3.4486458e-07
3.4197897e-07
3.3921232e-07
3.3654392e-07
3.3399691e-07
3.3157367e-07
3.2925134e-07
3.2701204e-07
3.2484951e-07
3.227589e-07
3.207417e-07
3.1879961e-07
3.1693079e-07
3.1513216e-07
3.1340292e-07
3.117463e-07
3.1016969e-07
3.0868392e-07
3.0730278e-07
3.0604289e-07
3.0492426e-07
3.0397164e-07
3.0320888e-07
3.0265991e-07
3.0235405e-07
3.0233652e-07
3.026657e-07
3.0340524e-07
3.0462291e-07
3.0639012e-07
3.0878316e-07
3.1188534e-07
3.1578749e-07
3.205848e-07
3.2636997e-07
3.3322646e-07
3.4122763e-07
3.5044516e-07
3.6096422e-07
3.7291099e-07
3.8642302e-07
4.0183188e-07
4.1930765e-07
4.3813279e-07
4.5828779e-07
4.7985783e-07
5.0293707e-07
5.2739163e-07
5.5366944e-07
5.7989434e-07
6.1306689e-07
3.4108655e-06
2.7381435e-06
2.2734116e-06
1.9438613e-06
1.7007058e-06
1.5144866e-06
1.3673912e-06
1.2482699e-06
1.1498419e-06
1.0671583e-06
9.9673646e-07
9.3605239e-07
8.8323122e-07
8.3685043e-07
7.9581113e-07
7.5925073e-07
7.264827e-07
6.9695381e-07
6.7021335e-07
6.4589047e-07
6.2367734e-07
6.0331631e-07
5.8459016e-07
5.6731445e-07
5.5133165e-07
5.3650637e-07
5.2272167e-07
5.0987605e-07
4.9788101e-07
4.8665903e-07
4.7614201e-07
4.6626985e-07
4.5698933e-07
4.482532e-07
4.4001935e-07
4.3225013e-07
4.2491178e-07
4.1797394e-07
4.1140922e-07
4.0519285e-07
3.9930233e-07
3.9371715e-07
3.8841859e-07
3.8338944e-07
3.7861385e-07
3.7407715e-07
3.6976556e-07
3.6566633e-07
3.6176762e-07
3.5805768e-07
3.5452569e-07
3.511654e-07
3.4795673e-07
3.448948e-07
3.4198315e-07
3.3919887e-07
3.365236e-07
3.33962e-07
3.3151395e-07
3.2916629e-07
3.2690511e-07
3.2472152e-07
3.2260998e-07
3.2056908e-07
3.1859792e-07
3.1669429e-07
3.1485569e-07
3.1308146e-07
3.1137417e-07
3.0973999e-07
3.0818823e-07
3.0673102e-07
3.0538323e-07
3.0416308e-07
3.0309148e-07
3.0219856e-07
3.0152312e-07
3.0110328e-07
3.0097844e-07
3.0118981e-07
3.0178266e-07
3.0280793e-07
3.0432368e-07
3.0639575e-07
3.0909831e-07
3.1251463e-07
3.1673758e-07
3.2186847e-07
3.2801306e-07
3.3527505e-07
3.4375015e-07
3.5352221e-07
3.6467154e-07
3.772784e-07
3.914175e-07
4.0744128e-07
4.2465755e-07
4.4276766e-07
4.6184382e-07
4.8207972e-07
5.0352186e-07
5.2666789e-07
5.4999856e-07
5.7951914e-07
3.4110656e-06
2.7385897e-06
2.2739602e-06
1.9444409e-06
1.7012844e-06
1.5150505e-06
1.3679352e-06
1.2487925e-06
1.1503433e-06
1.0676395e-06
9.9719871e-07
9.364971e-07
8.836598e-07
8.3726421e-07
7.9621136e-07
7.5963858e-07
7.2685924e-07
6.9732002e-07
6.7057013e-07
6.4623867e-07
6.2401772e-07
6.0364959e-07
5.8491698e-07
5.6763543e-07
5.5164733e-07
5.3681725e-07
5.2302821e-07
5.1017867e-07
4.9818008e-07
4.869549e-07
4.7643498e-07
4.665602e-07
4.572773e-07
4.48539e-07
4.4030314e-07
4.3253206e-07
4.2519196e-07
4.1825246e-07
4.1168612e-07
4.0546815e-07
3.9957602e-07
3.9398919e-07
3.8868892e-07
3.8365795e-07
3.7888042e-07
3.743416e-07
3.7002774e-07
3.6592602e-07
3.6202453e-07
3.5831132e-07
3.5477578e-07
3.5141041e-07
3.4819644e-07
3.4513088e-07
3.4221454e-07
3.3942454e-07
3.3674386e-07
3.3417614e-07
3.3172065e-07
3.2936388e-07
3.2709149e-07
3.2489503e-07
3.2276923e-07
3.2071181e-07
3.187214e-07
3.1679583e-07
3.1493261e-07
3.131308e-07
3.1139239e-07
3.0972275e-07
3.0813032e-07
3.0662641e-07
3.0522516e-07
3.0394384e-07
3.0280382e-07
3.0182734e-07
3.0103865e-07
3.0046986e-07
3.0016026e-07
3.0015534e-07
3.0050583e-07
3.0126653e-07
3.024956e-07
3.0425442e-07
3.0660797e-07
3.0962576e-07
3.1338338e-07
3.1796442e-07
3.2346198e-07
3.2997829e-07
3.3762171e-07
3.4650133e-07
3.5671812e-07
3.6837404e-07
3.8150944e-07
3.9633244e-07
4.126354e-07
4.2966871e-07
4.4730375e-07
4.6563555e-07
4.8472384e-07
5.0507569e-07
5.2553369e-07
5.5123291e-07
3.4112735e-06
2.7390332e-06
2.2744996e-06
1.9450086e-06
1.7018501e-06
1.5156014e-06
1.3684662e-06
1.2493023e-06
1.1508321e-06
1.0681083e-06
9.9764875e-07
9.369297e-07
8.8407623e-07
8.3766568e-07
7.9659897e-07
7.6001331e-07
7.2722199e-07
6.9767157e-07
6.7091119e-07
6.4656984e-07
6.2433958e-07
6.0396262e-07
5.8522163e-07
5.6793208e-07
5.5193632e-07
5.3709889e-07
5.2330277e-07
5.1044638e-07
4.9844115e-07
4.8720951e-07
4.766833e-07
4.6680237e-07
4.5751345e-07
4.4876923e-07
4.4052756e-07
4.3275073e-07
4.2540495e-07
4.184598e-07
4.1188786e-07
4.0566429e-07
3.9976655e-07
3.9417409e-07
3.8886814e-07
3.8383144e-07
3.7904807e-07
3.7450331e-07
3.7018338e-07
3.660754e-07
3.6216744e-07
3.5844768e-07
3.5490525e-07
3.515323e-07
3.4831237e-07
3.4523914e-07
3.4231094e-07
3.3951032e-07
3.3682155e-07
3.3424315e-07
3.3177276e-07
3.2939961e-07
3.2711132e-07
3.24899e-07
3.2275644e-07
3.2068011e-07
3.1866775e-07
3.1671677e-07
3.1482458e-07
3.1299004e-07
3.1121462e-07
3.095028e-07
3.07862e-07
3.0630243e-07
3.0483702e-07
3.0348186e-07
3.0225598e-07
3.0118456e-07
3.0029799e-07
2.9962863e-07
2.9921172e-07
2.9908569e-07
2.9929277e-07
2.9987959e-07
3.0089767e-07
3.0240363e-07
3.0445897e-07
3.0712967e-07
3.1048579e-07
3.1460166e-07
3.195568e-07
3.2543757e-07
3.3233849e-07
3.4036311e-07
3.4961936e-07
3.6022199e-07
3.7226961e-07
3.858422e-07
4.0119618e-07
4.1743858e-07
4.3422714e-07
4.515041e-07
4.6922041e-07
4.8773747e-07
5.0612671e-07
5.285342e-07
3.4114881e-06
2.7394709e-06
2.2750285e-06
1.9455636e-06
1.7024022e-06
1.5161384e-06
1.3689835e-06
1.2497987e-06
1.151308e-06
1.0685648e-06
9.9808704e-07
9.3735113e-07
8.8448213e-07
8.3805728e-07
7.9697743e-07
7.6037969e-07
7.2757723e-07
6.9801655e-07
6.7124671e-07
6.4689664e-07
6.246583e-07
6.0427388e-07
5.8552598e-07
5.6823003e-07
5.5222832e-07
5.3738535e-07
5.2358407e-07
5.1072285e-07
4.9871309e-07
4.874772e-07
4.7694698e-07
4.6706226e-07
4.5776974e-07
4.4902209e-07
4.4077712e-07
4.3299711e-07
4.2564823e-07
4.1870006e-07
4.1212513e-07
4.058986e-07
3.9999789e-07
3.9440243e-07
3.8909343e-07
3.8405361e-07
3.7926702e-07
3.7471892e-07
3.7039551e-07
3.662839e-07
3.6237207e-07
3.5864827e-07
3.5510154e-07
3.517233e-07
3.4849859e-07
3.4542044e-07
3.4248534e-07
3.3967769e-07
3.3698293e-07
3.3439777e-07
3.3191878e-07
3.2953573e-07
3.2723667e-07
3.2501269e-07
3.2285744e-07
3.2076683e-07
3.1873796e-07
3.1676793e-07
3.148541e-07
3.1299514e-07
3.1119215e-07
3.09449e-07
3.077724e-07
3.0617178e-07
3.0465932e-07
3.0325018e-07
3.0196307e-07
3.0081896e-07
2.9984218e-07
2.9906223e-07
2.9851329e-07
2.982343e-07
2.9826834e-07
2.9866216e-07
2.994658e-07
3.0073253e-07
3.0251886e-07
3.0488477e-07
3.0789373e-07
3.1161277e-07
3.1611248e-07
3.2146745e-07
3.2775719e-07
3.3506773e-07
3.4349294e-07
3.5313303e-07
3.6410605e-07
3.7647464e-07
3.9050821e-07
4.0581568e-07
4.2178786e-07
4.3826467e-07
4.5512305e-07
4.7256588e-07
4.8977284e-07
5.1002818e-07
3.4117099e-06
2.7399057e-06
2.275548e-06
1.9461064e-06
1.7029411e-06
1.516662e-06
1.3694875e-06
1.2502822e-06
1.1517714e-06
1.0690091e-06
9.9851357e-07
9.3776117e-07
8.8487694e-07
8.3843806e-07
7.9734527e-07
7.6073557e-07
7.2792204e-07
6.9835108e-07
6.7157165e-07
6.4721263e-07
6.2496593e-07
6.0457365e-07
5.8581835e-07
5.685154e-07
5.5250706e-07
5.3765779e-07
5.2385049e-07
5.1098351e-07
4.9896822e-07
4.8772701e-07
4.7719165e-07
4.6730194e-07
4.5800458e-07
4.4925221e-07
4.4100263e-07
4.332181e-07
4.2586477e-07
4.189122e-07
4.1233291e-07
4.0610203e-07
4.0019697e-07
3.9459716e-07
3.8928376e-07
3.8423948e-07
3.7944838e-07
3.7489566e-07
3.7056752e-07
3.6645104e-07
3.6253417e-07
3.5880516e-07
3.5525302e-07
3.5186876e-07
3.4863854e-07
3.4555437e-07
3.4261134e-07
3.3979572e-07
3.3709383e-07
3.3450044e-07
3.3201106e-07
3.2961632e-07
3.2730514e-07
3.2506854e-07
3.2289979e-07
3.2079415e-07
3.1874813e-07
3.1675855e-07
3.1482259e-07
3.1293868e-07
3.1110746e-07
3.0933218e-07
3.0761878e-07
3.0597589e-07
3.0441483e-07
3.0294986e-07
3.015983e-07
3.0038185e-07
2.9932623e-07
2.9846012e-07
2.978154e-07
2.9742729e-07
2.9733451e-07
2.9757939e-07
2.9820801e-07
2.9927017e-07
3.0081922e-07
3.0291191e-07
3.0560806e-07
3.0897044e-07
3.1306456e-07
3.1795858e-07
3.2372339e-07
3.304329e-07
3.3816588e-07
3.4700397e-07
3.5704522e-07
3.6836784e-07
3.8111097e-07
3.9538369e-07
4.1038725e-07
4.2593544e-07
4.4191215e-07
4.5845686e-07
4.7482377e-07
4.9377712e-07
3.4119327e-06
2.7403314e-06
2.2760553e-06
1.9466356e-06
1.7034659e-06
1.5171717e-06
1.3699782e-06
1.2507528e-06
1.1522224e-06
1.0694416e-06
9.9892875e-07
9.3816037e-07
8.8526143e-07
8.38809e-07
7.9770373e-07
7.6108254e-07
7.282584e-07
6.9867764e-07
6.7188914e-07
6.4752171e-07
6.2526719e-07
6.0486764e-07
5.8610557e-07
5.6879629e-07
5.5278203e-07
5.3792719e-07
5.2411464e-07
5.1124271e-07
4.9922273e-07
4.8797707e-07
4.7743747e-07
4.675437e-07
4.5824245e-07
4.4948634e-07
4.4123313e-07
4.3344507e-07
4.260883e-07
4.1913234e-07
4.125497e-07
4.0631549e-07
4.004071e-07
3.9480394e-07
3.8948716e-07
3.8443944e-07
3.7964482e-07
3.7508849e-07
3.7075663e-07
3.666363e-07
3.6271541e-07
3.5898223e-07
3.5542571e-07
3.520365e-07
3.4880159e-07
3.4571241e-07
3.4276301e-07
3.3994078e-07
3.3723283e-07
3.3463282e-07
3.3213545e-07
3.2973163e-07
3.2741076e-07
3.2516388e-07
3.2298405e-07
3.2086612e-07
3.188061e-07
3.168005e-07
3.148463e-07
3.1294179e-07
3.1108726e-07
3.0928552e-07
3.075419e-07
3.0586439e-07
3.0426361e-07
3.0275304e-07
3.0134936e-07
3.0007213e-07
2.9894427e-07
2.9799268e-07
2.9724805e-07
2.9674489e-07
2.965212e-07
2.9661824e-07
2.970803e-07
2.9795449e-07
2.992907e-07
3.0114152e-07
3.0356221e-07
3.0661063e-07
3.1034714e-07
3.1483454e-07
3.2013791e-07
3.2632433e-07
3.3346336e-07
3.4162613e-07
3.5088841e-07
3.613339e-07
3.7301501e-07
3.8619201e-07
4.0026582e-07
4.1487711e-07
4.2990325e-07
4.4548268e-07
4.609575e-07
4.7882675e-07
3.4121581e-06
2.7407517e-06
2.2765521e-06
1.9471526e-06
1.7039781e-06
1.5176688e-06
1.3704564e-06
1.2512114e-06
1.1526619e-06
1.069863e-06
9.9933332e-07
9.3854937e-07
8.8563606e-07
8.3917043e-07
7.98053e-07
7.614206e-07
7.285861e-07
6.9899573e-07
6.7219831e-07
6.4782257e-07
6.2556031e-07
6.0515351e-07
5.8638464e-07
5.6906896e-07
5.5304866e-07
5.381881e-07
5.2437013e-07
5.1149302e-07
4.9946809e-07
4.8821767e-07
4.7767351e-07
4.6777533e-07
4.5846982e-07
4.4970956e-07
4.4145232e-07
4.336603e-07
4.2629964e-07
4.1933985e-07
4.1275341e-07
4.0651542e-07
4.0060325e-07
3.949963e-07
3.8967569e-07
3.846241e-07
3.7982555e-07
3.752652e-07
3.7092924e-07
3.6680469e-07
3.6287943e-07
3.5914173e-07
3.5558054e-07
3.521862e-07
3.4894632e-07
3.4585189e-07
3.4289615e-07
3.400673e-07
3.3735305e-07
3.3474617e-07
3.3224062e-07
3.2982763e-07
3.2749702e-07
3.2523988e-07
3.2304905e-07
3.2091897e-07
3.1884527e-07
3.1682417e-07
3.148525e-07
3.129283e-07
3.1105154e-07
3.0922452e-07
3.0745204e-07
3.0574144e-07
3.0410267e-07
3.0254852e-07
3.010947e-07
2.9976057e-07
2.9856893e-07
2.9754565e-07
2.9671986e-07
2.9612385e-07
2.9579307e-07
2.9576615e-07
2.9608475e-07
2.9679347e-07
2.9793963e-07
2.995731e-07
3.01746e-07
3.0451261e-07
3.0792916e-07
3.1205374e-07
3.1694631e-07
3.2266849e-07
3.2928349e-07
3.3685622e-07
3.4545071e-07
3.5514307e-07
3.6597152e-07
3.7811402e-07
3.9136086e-07
4.0513913e-07
4.1928324e-07
4.3391721e-07
4.4846268e-07
4.6519476e-07
3.4123864e-06
2.7411648e-06
2.2770385e-06
1.9476577e-06
1.7044779e-06
1.5181535e-06
1.3709227e-06
1.2516585e-06
1.1530904e-06
1.0702738e-06
9.9972777e-07
9.3892867e-07
8.8600143e-07
8.3952297e-07
7.9839374e-07
7.6175046e-07
7.2890591e-07
6.9930624e-07
6.725002e-07
6.4811646e-07
6.2584675e-07
6.0543301e-07
5.8665765e-07
5.693359e-07
5.5330988e-07
5.3844393e-07
5.2462086e-07
5.1173892e-07
4.9970939e-07
4.8845459e-07
4.7790623e-07
4.6800403e-07
4.5869463e-07
4.4993062e-07
4.4166973e-07
4.3387416e-07
4.2651002e-07
4.1954679e-07
4.1295695e-07
4.0671557e-07
4.0080003e-07
3.9518968e-07
3.8986564e-07
3.8481058e-07
3.8000849e-07
3.7544453e-07
3.7110486e-07
3.669765e-07
3.6304729e-07
3.5930551e-07
3.5574007e-07
3.523411e-07
3.4909666e-07
3.4599742e-07
3.4303599e-07
3.4020115e-07
3.3748111e-07
3.3486805e-07
3.3235537e-07
3.299344e-07
3.2759529e-07
3.2532917e-07
3.2312871e-07
3.2098807e-07
3.189025e-07
3.1686797e-07
3.1488112e-07
3.129398e-07
3.1104371e-07
3.0919476e-07
3.0739727e-07
3.0565805e-07
3.0398646e-07
3.0239465e-07
3.0089761e-07
2.995135e-07
2.9826373e-07
2.9717284e-07
2.9626882e-07
2.9558292e-07
2.9514953e-07
2.9500592e-07
2.9519209e-07
2.9575052e-07
2.9672603e-07
2.9816557e-07
3.0011809e-07
3.0263436e-07
3.057668e-07
3.0956937e-07
3.1409743e-07
3.1940773e-07
3.2555813e-07
3.3260796e-07
3.4061586e-07
3.4964571e-07
3.5975117e-07
3.7099615e-07
3.8353619e-07
3.9660484e-07
4.0999062e-07
4.2378838e-07
4.3748767e-07
4.5309595e-07
3.4126182e-06
2.7415736e-06
2.2775159e-06
1.9481519e-06
1.7049665e-06
1.5186271e-06
1.371378e-06
1.2520949e-06
1.1535085e-06
1.0706747e-06
1.0001126e-06
9.3929872e-07
8.8635786e-07
8.3986688e-07
7.9872615e-07
7.6207226e-07
7.2921792e-07
6.9960919e-07
6.7279474e-07
6.4840318e-07
6.2612618e-07
6.0570564e-07
5.869239e-07
5.6959615e-07
5.5356449e-07
5.3869319e-07
5.2486504e-07
5.1197827e-07
4.9994413e-07
4.8868491e-07
4.781323e-07
4.68226e-07
4.5891265e-07
4.5014479e-07
4.4188015e-07
4.3408091e-07
4.2671316e-07
4.1974637e-07
4.13153e-07
4.069081e-07
4.0098904e-07
3.9537515e-07
3.9004755e-07
3.8498888e-07
3.8018312e-07
3.7561542e-07
3.7127193e-07
3.6713964e-07
3.6320638e-07
3.5946043e-07
3.5589066e-07
3.5248704e-07
3.4923796e-07
3.4613386e-07
3.4316687e-07
3.4032617e-07
3.3760035e-07
3.3498115e-07
3.324615e-07
3.300328e-07
3.2768547e-07
3.2541066e-07
3.2320091e-07
3.2105013e-07
3.1895328e-07
3.1690607e-07
3.1490499e-07
3.129477e-07
3.1103362e-07
3.0916429e-07
3.0734361e-07
3.0557788e-07
3.0387593e-07
3.0224932e-07
3.0071235e-07
2.9928264e-07
2.9798102e-07
2.9683118e-07
2.9585987e-07
2.9509685e-07
2.945748e-07
2.9432923e-07
2.9439826e-07
2.9482244e-07
2.9564455e-07
2.9690933e-07
2.9866326e-07
3.0095435e-07
3.038319e-07
3.0734636e-07
3.1154923e-07
3.164929e-07
3.2223059e-07
3.2881621e-07
3.3630433e-07
3.4474852e-07
3.5421126e-07
3.6470933e-07
3.7645772e-07
3.8892669e-07
4.01712e-07
4.1484037e-07
4.278545e-07
4.4249028e-07
3.4128511e-06
2.7419746e-06
2.2779825e-06
1.9486343e-06
1.7054428e-06
1.5190886e-06
1.3718216e-06
1.2525202e-06
1.1539159e-06
1.0710654e-06
1.0004877e-06
9.3965947e-07
8.8670541e-07
8.402023e-07
7.990504e-07
7.6238622e-07
7.2952237e-07
6.9990483e-07
6.7308222e-07
6.4868308e-07
6.2639902e-07
6.0597189e-07
5.8718398e-07
5.6985044e-07
5.5381332e-07
5.3893687e-07
5.2510383e-07
5.122124e-07
5.0017382e-07
4.8891036e-07
4.7835367e-07
4.6844345e-07
4.591263e-07
4.5035476e-07
4.4208654e-07
4.3428379e-07
4.2691259e-07
4.1994239e-07
4.1334563e-07
4.0709736e-07
4.0117492e-07
3.9555763e-07
3.902266e-07
3.8516446e-07
3.8035516e-07
3.7578386e-07
3.7143667e-07
3.6730059e-07
3.6336341e-07
3.5961341e-07
3.5603945e-07
3.5263136e-07
3.4937776e-07
3.4626895e-07
3.4329666e-07
3.4045034e-07
3.3771894e-07
3.3509386e-07
3.3256765e-07
3.3013176e-07
3.2777677e-07
3.254939e-07
3.2327558e-07
3.2111549e-07
3.1900834e-07
3.1694964e-07
3.1493568e-07
3.1296397e-07
3.110337e-07
3.091461e-07
3.0730468e-07
3.0551531e-07
3.0378634e-07
3.0212876e-07
3.0055633e-07
2.9908582e-07
2.9773706e-07
2.9653286e-07
2.95499e-07
2.9466418e-07
2.9406e-07
2.9372069e-07
2.9368295e-07
2.9398565e-07
2.9466965e-07
2.9577758e-07
2.9735355e-07
2.9944301e-07
3.0209248e-07
3.0534936e-07
3.0926183e-07
3.1387862e-07
3.1924898e-07
3.2542224e-07
3.3244874e-07
3.4037572e-07
3.492617e-07
3.5912558e-07
3.7010864e-07
3.8200811e-07
3.9425651e-07
4.0681759e-07
4.1927165e-07
4.3311817e-07
3.4130813e-06
2.7423677e-06
2.2784381e-06
1.9491046e-06
1.7059072e-06
1.5195384e-06
1.3722539e-06
1.2529346e-06
1.1543131e-06
1.0714462e-06
1.0008534e-06
9.400112e-07
8.8704429e-07
8.4052938e-07
7.9936663e-07
7.6269246e-07
7.2981938e-07
7.0019329e-07
6.7336274e-07
6.4895622e-07
6.2666529e-07
6.0623173e-07
5.8743781e-07
5.7009861e-07
5.5405614e-07
5.3917462e-07
5.2533677e-07
5.1244075e-07
5.0039779e-07
4.8913011e-07
4.7856937e-07
4.6865524e-07
4.5933429e-07
4.5055906e-07
4.4228723e-07
4.3448093e-07
4.2710624e-07
4.2013258e-07
4.1353238e-07
4.0728067e-07
4.0135477e-07
3.95734e-07
3.9039945e-07
3.8533374e-07
3.8052081e-07
3.7594579e-07
3.7159481e-07
3.6745482e-07
3.6351362e-07
3.5975946e-07
3.5618119e-07
3.5276853e-07
3.4951029e-07
3.4639664e-07
3.4341899e-07
3.4056704e-07
3.3782994e-07
3.351989e-07
3.3266615e-07
3.3022314e-07
3.278606e-07
3.2556979e-07
3.2334305e-07
3.2117387e-07
3.1905677e-07
3.1698704e-07
3.1496085e-07
3.1297552e-07
3.1103005e-07
3.091254e-07
3.0726474e-07
3.0545355e-07
3.0369973e-07
3.020138e-07
3.0040896e-07
2.989014e-07
2.9751036e-07
2.9625784e-07
2.9516868e-07
2.9427046e-07
2.935935e-07
2.9317072e-07
2.930374e-07
2.9323087e-07
2.9379037e-07
2.9475674e-07
2.9617214e-07
2.9807986e-07
3.0052405e-07
3.0354951e-07
3.0720154e-07
3.1152574e-07
3.1656795e-07
3.2237372e-07
3.2898927e-07
3.3645813e-07
3.4482975e-07
3.5413805e-07
3.6443867e-07
3.7582364e-07
3.8757919e-07
3.9962377e-07
4.1157617e-07
4.2475024e-07
3.413313e-06
2.7427533e-06
2.2788834e-06
1.9495636e-06
1.7063597e-06
1.5199767e-06
1.3726752e-06
1.2533384e-06
1.1547e-06
1.0718173e-06
1.0012099e-06
9.4035411e-07
8.8737476e-07
8.4084841e-07
7.9967514e-07
7.6299126e-07
7.301092e-07
7.004748e-07
6.7363654e-07
6.4922285e-07
6.2692522e-07
6.0648542e-07
5.8768563e-07
5.7034091e-07
5.5429323e-07
5.3940677e-07
5.2556421e-07
5.126637e-07
5.0061644e-07
4.8934462e-07
4.787799e-07
4.6886192e-07
4.5953723e-07
4.5075835e-07
4.4248295e-07
4.3467314e-07
4.2729496e-07
4.2031784e-07
4.1371419e-07
4.0745903e-07
4.0152965e-07
3.9590537e-07
3.9056726e-07
3.8549792e-07
3.8068129e-07
3.7610248e-07
3.717476e-07
3.6760361e-07
3.6365826e-07
3.5989981e-07
3.5631709e-07
3.5289971e-07
3.4963664e-07
3.4651795e-07
3.4353481e-07
3.4067705e-07
3.3793406e-07
3.3529685e-07
3.3275743e-07
3.3030722e-07
3.2793708e-07
3.2563829e-07
3.2340313e-07
3.2122496e-07
3.1909807e-07
3.1701764e-07
3.1497966e-07
3.1298136e-07
3.1102154e-07
3.0910093e-07
3.0722241e-07
3.0539112e-07
3.0361458e-07
3.0190286e-07
3.0026866e-07
2.9872757e-07
2.9729809e-07
2.9600151e-07
2.9486182e-07
2.9390566e-07
2.9316238e-07
2.9266381e-07
2.9244398e-07
2.9253889e-07
2.9298625e-07
2.9382526e-07
2.9509627e-07
2.9684062e-07
2.9910034e-07
3.0191793e-07
3.0533623e-07
3.0939812e-07
3.1414652e-07
3.1962386e-07
3.2587265e-07
3.3293373e-07
3.408486e-07
3.4965994e-07
3.5938006e-07
3.7018787e-07
3.8151263e-07
3.9312338e-07
4.0464688e-07
4.1724179e-07
3.4135427e-06
2.743132e-06
2.2793185e-06
1.9500113e-06
1.7068011e-06
1.520404e-06
1.3730858e-06
1.2537321e-06
1.1550773e-06
1.0721792e-06
1.0015575e-06
9.4068855e-07
8.8769708e-07
8.4115961e-07
7.9997611e-07
7.6328279e-07
7.3039201e-07
7.0074953e-07
6.7390375e-07
6.4948306e-07
6.2717892e-07
6.0673301e-07
5.8792748e-07
5.7057734e-07
5.5452453e-07
5.396332e-07
5.2578599e-07
5.1288103e-07
5.0082949e-07
4.8955355e-07
4.7898485e-07
4.6906299e-07
4.5973453e-07
4.5095195e-07
4.426729e-07
4.3485949e-07
4.2747774e-07
4.2049705e-07
4.1388982e-07
4.0763105e-07
4.0169803e-07
3.9607005e-07
3.9072817e-07
3.8565497e-07
3.808344e-07
3.7625153e-07
3.7189247e-07
3.6774416e-07
3.6379431e-07
3.600312e-07
3.5644362e-07
3.530211e-07
3.4975273e-07
3.4662849e-07
3.4363935e-07
3.4077526e-07
3.3802578e-07
3.3538179e-07
3.328351e-07
3.3037711e-07
3.2799877e-07
3.2569141e-07
3.2344725e-07
3.2125951e-07
3.1912236e-07
3.1703083e-07
3.1498083e-07
3.1296947e-07
3.109954e-07
3.0905919e-07
3.0716346e-07
3.0531305e-07
3.0351518e-07
3.0177948e-07
3.0011824e-07
2.9854654e-07
2.9708232e-07
2.957462e-07
2.9456138e-07
2.9355358e-07
2.9275111e-07
2.9218476e-07
2.9188743e-07
2.9189384e-07
2.9224039e-07
2.929648e-07
2.9410586e-07
2.9570318e-07
2.9779694e-07
3.0042762e-07
3.0363586e-07
3.0746224e-07
3.1194709e-07
3.1713022e-07
3.2305098e-07
3.2974759e-07
3.3725681e-07
3.4561984e-07
3.5484736e-07
3.6506917e-07
3.7598104e-07
3.8720173e-07
3.9835251e-07
4.1045284e-07
3.4137704e-06
2.7435017e-06
2.2797428e-06
1.9504477e-06
1.707231e-06
1.5208202e-06
1.3734859e-06
1.2541157e-06
1.155445e-06
1.072532e-06
1.0018964e-06
9.4101466e-07
8.8801146e-07
8.4146321e-07
8.0026976e-07
7.6356727e-07
7.3066799e-07
7.0101762e-07
6.7416451e-07
6.49737e-07
6.2742646e-07
6.0697456e-07
5.8816339e-07
5.7080793e-07
5.5475005e-07
5.3985389e-07
5.2600206e-07
5.1309266e-07
5.0103683e-07
4.8975676e-07
4.7918402e-07
4.6925824e-07
4.5992592e-07
4.5113955e-07
4.4285675e-07
4.3503961e-07
4.2765412e-07
4.2066968e-07
4.1405866e-07
4.0779605e-07
4.0185912e-07
3.9622715e-07
3.9088118e-07
3.8580378e-07
3.8097887e-07
3.7639152e-07
3.720278e-07
3.6787464e-07
3.6391973e-07
3.6015133e-07
3.5655819e-07
3.531298e-07
3.4985529e-07
3.4672461e-07
3.4372856e-07
3.4085715e-07
3.3810008e-07
3.3544816e-07
3.3289303e-07
3.3042607e-07
3.280383e-07
3.257211e-07
3.2346665e-07
3.2126809e-07
3.1911949e-07
3.1701578e-07
3.149528e-07
3.129276e-07
3.1093875e-07
3.0898666e-07
3.0707377e-07
3.052047e-07
3.0338637e-07
3.0162808e-07
2.999417e-07
2.9834187e-07
2.9684594e-07
2.9547395e-07
2.9424836e-07
2.9319405e-07
2.9233845e-07
2.9171138e-07
2.9134471e-07
2.9127203e-07
2.9152847e-07
2.9215043e-07
2.9317522e-07
2.9464089e-07
2.9658594e-07
2.9904907e-07
3.0206896e-07
3.0568412e-07
3.099327e-07
3.1485214e-07
3.2047927e-07
3.2684956e-07
3.3399733e-07
3.4195759e-07
3.5075298e-07
3.6044522e-07
3.7097427e-07
3.8182929e-07
3.9263296e-07
4.0428729e-07
3.4139965e-06
2.7438647e-06
2.2801572e-06
1.9508731e-06
1.7076501e-06
1.5212259e-06
1.3738758e-06
1.2544895e-06
1.1558034e-06
1.0728759e-06
1.0022269e-06
9.4133274e-07
8.8831812e-07
8.4175936e-07
8.0055624e-07
7.638448e-07