/*--------------------------------*- C++ -*----------------------------------*\
| =========                 |                                                 |
| \\      /  F ield         | OpenFOAM: The Open Source CFD Toolbox           |
|  \\    /   O peration     | Version:  2406                                  |
|   \\  /    A nd           | Website:  www.openfoam.com                      |
|    \\/     M anipulation  |                                                 |
\*---------------------------------------------------------------------------*/
FoamFile
{
    version     2.0;
    format      ascii;
    arch        "LSB;label=32;scalar=64";
    class       volScalarField;
    location    "1600";
    object      omega;
}
// * * * * * * * * * * * * * * * * * * * * * * * * * * * * * * * * * * * * * //

dimensions      [0 0 -1 0 0 0 0];

internalField   nonuniform List<scalar> 
132739
(
3.8873366
3.1728678
2.672874
2.3137988
2.045805
1.8384878
1.6732785
1.5384434
1.4262545
1.3314178
1.2501814
1.1798089
1.1182557
1.0639618
1.0157162
0.97256365
0.9337408
0.89862975
0.86672515
0.83760958
0.81093525
0.78641004
0.76378682
0.74285508
0.72343446
0.70536945
0.68852538
0.67278493
0.65804553
0.64421708
0.63122013
0.61898436
0.60744729
0.59655326
0.58625253
0.57650045
0.56725689
0.55848567
0.55015404
0.54223231
0.53469349
0.52751296
0.52066822
0.51413863
0.50790527
0.50195047
0.49625872
0.49081408
0.48559835
0.48059373
0.47579089
0.47113403
0.46662896
0.46238506
0.45806856
0.4538064
0.44987121
0.44602081
0.44225536
0.43864682
0.43523175
0.43202142
0.42904104
0.42621823
0.42352706
0.42094878
0.41847044
0.41608544
0.4137931
0.4115971
0.40950328
0.40751855
0.40565079
0.40391064
0.4023091
0.40086716
0.39961265
0.39868145
0.3977964
0.39779924
0.39801857
0.39868513
0.39993524
0.40186903
0.40445305
0.40767215
0.4115191
0.41600798
0.42118682
0.42714115
0.43397388
0.44184223
0.45063036
0.46014398
0.4703407
0.48119615
0.49270449
0.50488401
0.51778033
0.53146427
0.54602907
0.56155828
0.57831883
0.59567524
3.8875402
3.1734178
2.6735838
2.3145739
2.0465991
1.839279
1.6740565
1.5392038
1.4269958
1.3321403
1.2508863
1.1804977
1.1189301
1.0646237
1.0163673
0.97320598
0.93437596
0.89925935
0.86735069
0.83823247
0.81155677
0.78703137
0.76440899
0.743479
0.72406089
0.70599903
0.68915858
0.6734221
0.65868688
0.64486266
0.63186986
0.61963803
0.60810459
0.59721376
0.58691567
0.57716564
0.56792344
0.55915284
0.55082107
0.54289842
0.53535792
0.52817497
0.52132711
0.51479376
0.50855611
0.50259641
0.49690023
0.49144474
0.4862014
0.48115205
0.47629566
0.47156916
0.46704008
0.4626818
0.45841172
0.4542893
0.45037102
0.44659561
0.44294944
0.43945579
0.43615705
0.43306765
0.4302023
0.42750481
0.4249107
0.42240163
0.41997089
0.41761819
0.41534919
0.41317368
0.41110341
0.40915086
0.4073293
0.40565376
0.40414174
0.40281444
0.40164421
0.40063834
0.39978325
0.39916545
0.39882685
0.39880699
0.39917755
0.40006972
0.40160578
0.40389186
0.40700685
0.41099695
0.41587995
0.42166032
0.42834075
0.43594526
0.44456349
0.45365184
0.46301832
0.47272807
0.48288943
0.49359718
0.50492457
0.5169353
0.52967719
0.54329014
0.55740551
0.57473919
3.8877471
3.1739543
2.6742653
2.3153078
2.0473418
1.8400106
1.6747679
1.5398914
1.4276584
1.3327778
1.2514992
1.1810867
1.119496
1.0651671
1.0168889
0.97370623
0.93485524
0.89971794
0.86778876
0.83865009
0.81195396
0.78740806
0.76476507
0.74381432
0.72437525
0.70629222
0.68943037
0.67367226
0.65891519
0.64506891
0.63205389
0.61979968
0.60824375
0.59733037
0.58700972
0.57723715
0.5679725
0.55917958
0.55082567
0.54288112
0.53531896
0.52811464
0.52124572
0.51469164
0.5084335
0.50245393
0.4967365
0.49126675
0.48603176
0.48101689
0.47623234
0.47154486
0.46708312
0.46290454
0.45868599
0.45466125
0.45084965
0.44717309
0.44362957
0.44022227
0.43693627
0.433825
0.4308777
0.42802918
0.42527
0.42259738
0.42000959
0.41750747
0.41509529
0.4127802
0.41057116
0.40847823
0.4065124
0.40468649
0.4030146
0.40151715
0.40025151
0.39925308
0.39854883
0.39814639
0.39805407
0.39827478
0.39881004
0.39967535
0.40091419
0.40260279
0.40484617
0.40776576
0.41148209
0.41609801
0.42169094
0.42829594
0.43598525
0.44467419
0.45412342
0.4637872
0.47357899
0.48355638
0.49382107
0.50449245
0.51563678
0.52753325
0.53942027
0.5550318
3.887959
3.1744805
2.6749302
2.3160223
2.0480642
1.8407221
1.6754604
1.5405619
1.4283064
1.333404
1.2521048
1.1816733
1.1200651
1.0657205
1.0174281
0.97423272
0.93537051
0.90022337
0.86828566
0.83913971
0.81243748
0.78788659
0.76523968
0.74428602
0.72484499
0.70676091
0.68989886
0.67414136
0.65938564
0.64554144
0.63252915
0.6202783
0.60872628
0.59781734
0.58750159
0.57773435
0.56847539
0.55968849
0.55134086
0.5434028
0.5358473
0.52864976
0.52178768
0.51524046
0.50898916
0.50301628
0.49730567
0.49184217
0.4866115
0.48159972
0.47679207
0.47220267
0.46776854
0.46350339
0.45947182
0.45556763
0.45177337
0.44813853
0.44466142
0.44130827
0.43806544
0.43492655
0.43188391
0.42894434
0.42610759
0.42337049
0.42072951
0.41818317
0.41573315
0.4133841
0.41114282
0.40901766
0.40701854
0.40515744
0.40344976
0.40190899
0.40053571
0.39934874
0.398381
0.39767457
0.39727645
0.39723316
0.39758413
0.39835586
0.39956265
0.40121389
0.40332588
0.40593428
0.40910208
0.4129188
0.41749354
0.42293347
0.42934073
0.43681232
0.44539478
0.45451552
0.46395457
0.4736051
0.48342379
0.49343532
0.5036419
0.51433399
0.52476817
0.53822903
3.8881751
3.1749982
2.6755795
2.316718
2.0487665
1.841413
1.6761319
1.5412111
1.4289325
1.3340074
1.2526863
1.182234
1.1206061
1.0662428
1.0179327
0.9747205
0.93584226
0.90067977
0.86872732
0.83956714
0.81285112
0.78828683
0.76562684
0.74466037
0.72520677
0.70711031
0.69023604
0.67446647
0.65969879
0.64584273
0.63281865
0.62055609
0.60899244
0.59807191
0.58774465
0.57796593
0.56869557
0.55989731
0.55153838
0.54358907
0.53602238
0.5288137
0.52194052
0.51538223
0.50911988
0.503136
0.49741431
0.49193991
0.48669913
0.48167851
0.47686763
0.47224993
0.4678205
0.46356418
0.45947504
0.45554391
0.45175364
0.44810357
0.44459253
0.44120879
0.43793934
0.43477674
0.43171811
0.42876023
0.42590153
0.42313938
0.42047051
0.41789311
0.41540803
0.41301865
0.41073035
0.40855011
0.4064864
0.40454984
0.40275227
0.40111335
0.39966506
0.3984322
0.39743666
0.39669974
0.39624483
0.39610026
0.39630104
0.39688747
0.39790072
0.39937691
0.40134285
0.40381634
0.40681245
0.41035376
0.41448111
0.41925896
0.42477277
0.43111222
0.43847942
0.44657134
0.45513263
0.46407343
0.47332174
0.48282761
0.49250039
0.50250712
0.51218442
0.52415589
3.888395
3.1755052
2.6762124
2.3173949
2.0494491
1.8420841
1.6767844
1.5418421
1.4295416
1.334595
1.2532537
1.1827824
1.121137
1.0667575
1.0184326
0.97520674
0.93631606
0.90114224
0.86917947
0.84000995
0.81328547
0.78871356
0.76604673
0.74507415
0.72561511
0.70751383
0.69063533
0.67486207
0.6600912
0.64623242
0.63320605
0.62094158
0.60937638
0.59845464
0.58812645
0.57834707
0.56907628
0.56027778
0.5519188
0.54396957
0.53640308
0.52919468
0.52232185
0.51576394
0.50950198
0.50351847
0.49779714
0.49232299
0.48708214
0.4820607
0.4772469
0.47263373
0.46819653
0.46393758
0.45985926
0.45592993
0.452134
0.44848184
0.4449714
0.44158609
0.43831278
0.43514545
0.43207901
0.42911214
0.42624374
0.42347079
0.42078972
0.41819848
0.41569741
0.41328935
0.41097917
0.40877347
0.40668053
0.40471058
0.40287668
0.40119094
0.39966367
0.39831335
0.39716479
0.3962477
0.39559497
0.39524107
0.39522132
0.39557222
0.39633204
0.39754055
0.39923664
0.40145443
0.40421939
0.40754746
0.41144866
0.41593473
0.42103223
0.42676988
0.43325704
0.44051176
0.4481535
0.45613537
0.46446271
0.47313959
0.48209704
0.49143846
0.50055222
0.51163086
3.888618
3.1760039
2.6768302
2.3180537
2.0501127
1.8427363
1.6774179
1.5424544
1.4301322
1.3351645
1.2538029
1.1833126
1.1216492
1.067253
1.0189124
0.97567183
0.93676735
0.90158052
0.86960547
0.84042431
0.81368877
0.78910633
0.76642942
0.74544719
0.72597887
0.70786865
0.69098151
0.67519987
0.66042089
0.6465542
0.63352015
0.62124818
0.60967565
0.59874673
0.58841152
0.57862525
0.5693477
0.56054256
0.55217704
0.54422137
0.53664852
0.52943383
0.52255478
0.5159907
0.50972259
0.50373295
0.4980055
0.49252521
0.48727817
0.48225107
0.47743162
0.47281065
0.46837128
0.46410606
0.46001264
0.45607339
0.45227399
0.44861387
0.44508966
0.44169054
0.43840565
0.43522738
0.43215023
0.42917121
0.42628774
0.4234966
0.42079457
0.41817967
0.4156519
0.4132134
0.41086818
0.40862196
0.40648204
0.40445772
0.40255978
0.40080457
0.39921364
0.39780733
0.39660622
0.39563171
0.39490689
0.39445725
0.39431127
0.39450049
0.39505945
0.39602557
0.39743882
0.3993405
0.40177058
0.40476378
0.40834586
0.41253141
0.41732789
0.4227384
0.42876114
0.43551164
0.44262243
0.44992654
0.45743293
0.46519818
0.47322947
0.48166932
0.49000379
0.50019219
3.8888434
3.1764917
2.6774321
2.3186946
2.0507575
1.8433694
1.6780328
1.5430487
1.4307054
1.3357173
1.2543364
1.1838278
1.1221476
1.0677356
1.0193805
0.97612653
0.93720966
0.90201139
0.87002579
0.84083488
0.81409035
0.78949959
0.76681502
0.74582571
0.72635086
0.70823462
0.69134192
0.67555514
0.66077142
0.64690035
0.63386223
0.62158651
0.61001051
0.59907837
0.58874016
0.5789511
0.56967092
0.56086332
0.55249547
0.54453758
0.53696261
0.52974588
0.52286484
0.51629881
0.51002877
0.50403719
0.49830781
0.49282555
0.48757647
0.48254714
0.47772538
0.47310133
0.46865884
0.46439158
0.46029564
0.45635341
0.45255131
0.4488882
0.44536036
0.44195681
0.43866642
0.43548182
0.43239769
0.42941052
0.42651748
0.4237154
0.42100108
0.41837236
0.41582892
0.41337245
0.41100648
0.40873628
0.40656877
0.40451276
0.40257933
0.40078033
0.3991289
0.39764227
0.39634142
0.39525055
0.3943963
0.39380696
0.39351174
0.39354051
0.39392359
0.39469198
0.39587777
0.39751472
0.39963847
0.40228584
0.40549263
0.40929012
0.41370033
0.41873979
0.42439287
0.43071607
0.43756608
0.44456568
0.45164089
0.45881675
0.46611328
0.47369545
0.48116904
0.49026751
3.8890692
3.17697
2.6780186
2.3193174
2.0513836
1.8439838
1.6786292
1.5436249
1.4312611
1.336253
1.2548531
1.1843268
1.1226298
1.0682023
1.0198328
0.97656538
0.93763596
0.90242599
0.87042941
0.84122821
0.814474
0.78987413
0.76718095
0.74618347
0.72670088
0.70857727
0.69167755
0.67588407
0.66109392
0.64721668
0.63417265
0.62189123
0.61030973
0.59937227
0.58902892
0.57923487
0.56994985
0.56113753
0.55276508
0.54480271
0.53722334
0.53000229
0.52311699
0.51654676
0.51027257
0.50427686
0.49854336
0.49305697
0.48780373
0.48277029
0.47794433
0.47331576
0.46886982
0.46459821
0.46049555
0.45654749
0.45274117
0.4490724
0.44553657
0.44212432
0.43882569
0.43563303
0.43254042
0.42954368
0.42663945
0.42382433
0.42109507
0.41844939
0.41588668
0.41340812
0.41101668
0.408717
0.40651535
0.40441989
0.40244039
0.40059054
0.3988871
0.39734753
0.39599067
0.39483685
0.39390814
0.39322856
0.39282416
0.39272286
0.39295404
0.39354797
0.3945352
0.39594625
0.39781163
0.4001623
0.40302986
0.40644638
0.41044155
0.41504294
0.42026542
0.42611123
0.43265606
0.43944548
0.44630647
0.45320217
0.46011139
0.46715497
0.47401382
0.48212678
3.8892949
3.1774363
2.6785886
2.3199219
2.0519905
1.844579
1.6792069
1.5441829
1.4317992
1.3367718
1.2553536
1.1848101
1.1230971
1.0686548
1.0202715
0.97699136
0.93805015
0.90282922
0.8708225
0.84161187
0.81484891
0.79024089
0.76754012
0.74653559
0.72704641
0.70891665
0.69201118
0.67621231
0.66141711
0.64753514
0.63448666
0.62220105
0.61061559
0.5996744
0.58932751
0.5795301
0.57024187
0.56142649
0.55305109
0.54508589
0.53750377
0.53028006
0.52339216
0.51681937
0.51054264
0.50454442
0.49880842
0.49331953
0.48806374
0.48302772
0.47819914
0.47356745
0.46911881
0.46484449
0.46073807
0.45678632
0.45297702
0.44930493
0.44576481
0.44234765
0.43904375
0.43584542
0.43274668
0.42974301
0.42683067
0.42400611
0.42126604
0.41860811
0.41603144
0.41353691
0.41112707
0.40880613
0.40657995
0.40445617
0.40244444
0.40055604
0.39880428
0.39720506
0.39577679
0.3945403
0.39351848
0.39273577
0.39221786
0.39199134
0.39208353
0.39252227
0.39333564
0.39455163
0.39619773
0.3983008
0.40088711
0.40398279
0.40761399
0.41180571
0.41658628
0.42195432
0.42799831
0.43449215
0.44112869
0.44782334
0.45452263
0.46129123
0.46783909
0.4753346
3.8895209
3.1778935
2.6791435
2.3205088
2.0525792
1.845156
1.6797666
1.5447234
1.4323203
1.3372742
1.2558382
1.185278
1.1235496
1.0690929
1.0206962
0.97740364
0.93845089
0.90321924
0.87120251
0.84198253
0.81521083
0.79059461
0.76788615
0.74687438
0.72737837
0.70924216
0.69233059
0.67652594
0.66172524
0.64783804
0.63478456
0.62249417
0.61090415
0.59995858
0.58960749
0.57980602
0.57051389
0.56169474
0.55331568
0.54534692
0.53776135
0.53053425
0.52364303
0.51706698
0.51078705
0.50478565
0.49904648
0.49355444
0.48829548
0.48325629
0.4784245
0.47378935
0.46933765
0.46506006
0.46094936
0.45699342
0.45318054
0.44950432
0.44595892
0.44253586
0.43922593
0.43602141
0.43291607
0.42990502
0.42698419
0.42414987
0.42139867
0.41872808
0.41613697
0.41362585
0.41119684
0.40885371
0.40660181
0.40444831
0.40240207
0.40047486
0.39868086
0.3970356
0.39555625
0.39426165
0.39317237
0.39231062
0.39170017
0.39136614
0.39133469
0.39163265
0.39228707
0.39332484
0.39477218
0.39665431
0.3989951
0.4018169
0.40514111
0.40898704
0.41337759
0.41832244
0.42385569
0.4299889
0.43631434
0.44273141
0.44918653
0.45572196
0.46206516
0.46922254
3.8897438
3.1783375
2.6796819
2.3210778
2.0531496
1.8457149
1.6803087
1.5452469
1.4328251
1.3377609
1.2563077
1.1857315
1.1239882
1.0695176
1.021108
0.97780358
0.93883979
0.9035979
0.87157165
0.84234283
0.81556288
0.79093899
0.76822336
0.74720489
0.72770262
0.70956054
0.69264346
0.67683363
0.66202806
0.64813626
0.63507843
0.62278394
0.61119003
0.60024077
0.58988616
0.58008135
0.57078602
0.56196379
0.55358179
0.54561018
0.53802185
0.53079207
0.52389825
0.51731965
0.5110372
0.50503332
0.4992917
0.4937972
0.48853579
0.48349414
0.47865987
0.474022
0.46956782
0.46528765
0.46117369
0.45721446
0.45339873
0.44971943
0.44617025
0.44274291
0.43942845
0.43621917
0.43310871
0.43009193
0.4271645
0.42432248
0.42156241
0.41888167
0.41627894
0.41375445
0.41130999
0.40894895
0.40667631
0.40449879
0.40242489
0.40046519
0.39863228
0.39694071
0.39540708
0.39404999
0.39288978
0.39194831
0.39124865
0.3908148
0.39067147
0.39084379
0.39135704
0.39223637
0.3935064
0.39519092
0.39731245
0.39989185
0.40294823
0.40649835
0.41055778
0.41514206
0.42024916
0.42596859
0.43198141
0.43809993
0.44426396
0.4505173
0.45661438
0.46348356
3.8899648
3.1787716
2.6802055
2.3216303
2.0537031
1.8462571
1.6808344
1.5457546
1.4333146
1.3382328
1.2567631
1.1861713
1.1244135
1.0699295
1.0215075
0.97819155
0.93921708
0.90396526
0.87192978
0.84269236
0.81590439
0.791273
0.76855036
0.74752531
0.72801686
0.70986896
0.6929464
0.67713139
0.66232093
0.64842449
0.63536226
0.62306358
0.61146567
0.6005126
0.59015436
0.58034606
0.57104739
0.56222195
0.55383685
0.54586225
0.53827102
0.53103842
0.52414186
0.51756057
0.5112755
0.50526903
0.49952486
0.49402784
0.4887639
0.48371974
0.47888295
0.47424239
0.46978573
0.46550302
0.46138597
0.45742362
0.45360507
0.4499227
0.44636981
0.44293829
0.43961944
0.43640557
0.43329018
0.43026788
0.42733413
0.42448483
0.42171641
0.4190261
0.41641238
0.4138752
0.41141602
0.40903786
0.40674531
0.40454471
0.40244403
0.40045374
0.39858639
0.39685604
0.39527843
0.393871
0.39265278
0.39164431
0.39086742
0.39034503
0.3901009
0.39015915
0.39054401
0.39127949
0.39238894
0.39389482
0.39581835
0.39817922
0.40099524
0.4042822
0.40805261
0.4123213
0.41708254
0.42239294
0.42811882
0.43396517
0.43984953
0.44581084
0.45162982
0.45816576
3.8901839
3.179194
2.6807144
2.3221667
2.0542401
1.846783
1.6813444
1.5462471
1.4337895
1.3386907
1.2572049
1.1865981
1.1248263
1.0703294
1.0218954
0.97856833
0.93958357
0.9043222
0.87227785
0.84303218
0.81623654
0.791598
0.76886867
0.74783739
0.7283231
0.71016973
0.69324203
0.6774222
0.66260718
0.64870646
0.63564018
0.62333767
0.61173613
0.60077962
0.5904181
0.5806067
0.57130505
0.56247678
0.55408896
0.54611175
0.53851801
0.53128299
0.52438408
0.51780052
0.51151322
0.50550458
0.49975827
0.49425915
0.48899313
0.48394692
0.47910808
0.47446536
0.47000668
0.46572192
0.46160241
0.45763755
0.45381673
0.45013197
0.44657625
0.4431415
0.43981925
0.43660179
0.43348253
0.4304559
0.4275171
0.42466193
0.42188667
0.41918844
0.41656555
0.4140177
0.41154608
0.4091534
0.40684389
0.40462353
0.40249988
0.40048274
0.39858386
0.39681657
0.39519604
0.39373923
0.39246469
0.39139236
0.39054337
0.38993973
0.3896041
0.38955954
0.38982905
0.3904354
0.3914007
0.3927462
0.39449187
0.39665624
0.39925597
0.40230593
0.40581797
0.40980359
0.41426668
0.41921358
0.42468925
0.43029941
0.43593833
0.44163439
0.4471914
0.45337877
3.8904018
3.1796078
2.68121
2.3226882
2.0547619
1.8472938
1.6818396
1.5467251
1.4342504
1.3391352
1.2576338
1.1870125
1.1252271
1.0707176
1.0222721
0.97893429
0.9399396
0.90466901
0.87261611
0.84336249
0.81655945
0.791914
0.76917825
0.74814094
0.72862101
0.71046236
0.69352969
0.67770519
0.66288578
0.6489809
0.63591071
0.62360449
0.61199944
0.60103957
0.59067489
0.58086047
0.57155596
0.56272495
0.55433452
0.54635481
0.53875867
0.53152135
0.52462021
0.51803451
0.51174514
0.5057345
0.49998625
0.49448523
0.48921735
0.48416931
0.47932868
0.4746841
0.47022369
0.4659372
0.46181568
0.45784876
0.45402606
0.45033933
0.44678127
0.44334388
0.4400188
0.43679834
0.43367581
0.43064549
0.4277024
0.42484214
0.4220609
0.41935571
0.41672469
0.4141673
0.41168446
0.40927856
0.40695355
0.40471502
0.40257016
0.40052845
0.39860134
0.39680171
0.39514406
0.39364458
0.39232097
0.3911923
0.39027885
0.3896018
0.38918296
0.38904454
0.38920868
0.38969736
0.39053167
0.39173182
0.39331672
0.3953038
0.3977087
0.4005451
0.40382455
0.40755561
0.41174843
0.41638934
0.42155604
0.42696498
0.43241356
0.43790004
0.44324612
0.44912687
3.8906171
3.1800099
2.6816913
2.3231943
2.055268
1.8477891
1.6823199
1.5471889
1.4346976
1.3395664
1.25805
1.1874146
1.1256162
1.0710947
1.022638
0.97928987
0.94028562
0.90500619
0.87294508
0.84368384
0.81687372
0.7922217
0.76947981
0.74843678
0.72891153
0.71074789
0.69381055
0.67798167
0.66315815
0.64924942
0.6361756
0.62386597
0.6122577
0.60129481
0.59092723
0.58111009
0.57180302
0.5629696
0.55457688
0.546595
0.53899681
0.53175755
0.52485457
0.51826711
0.51197607
0.50596383
0.50021407
0.49471161
0.48944234
0.48439299
0.47955109
0.47490522
0.47044365
0.46615602
0.46203317
0.4580649
0.45424102
0.45055309
0.44699356
0.44355446
0.44022753
0.43700509
0.43388037
0.43084749
0.4279013
0.42503727
0.42225145
0.4195407
0.41690306
0.41433776
0.41184544
0.40942826
0.40708982
0.40483541
0.40267187
0.4006082
0.39865527
0.39682548
0.39513285
0.39359302
0.39222318
0.39104186
0.39006867
0.3893241
0.3888292
0.3886053
0.3886737
0.38905536
0.38977076
0.39083909
0.3922784
0.39410517
0.39633417
0.39897807
0.4020478
0.4055505
0.40949633
0.41387433
0.41873041
0.42393867
0.42921193
0.43451935
0.43969394
0.44532566
3.890828
3.1804019
2.6821586
2.3236852
2.0557589
1.8482696
1.6827856
1.5476386
1.4351314
1.3399848
1.2584539
1.187805
1.1259941
1.0714609
1.0229935
0.97963547
0.94062206
0.90533416
0.8732652
0.84399669
0.81717983
0.79252154
0.76977382
0.74872538
0.72919507
0.71102671
0.69408498
0.67825198
0.66342462
0.64951229
0.6364351
0.62412231
0.61251108
0.60154541
0.59117524
0.58135562
0.57204625
0.56321068
0.55481596
0.54683222
0.5392323
0.53199142
0.52508695
0.51849811
0.5122058
0.5061924
0.50044157
0.49493815
0.48966802
0.48461789
0.4797753
0.47512877
0.47066669
0.46637863
0.46225523
0.45828644
0.45446219
0.45077392
0.44721388
0.44377409
0.44044637
0.43722302
0.43409721
0.43106291
0.42811482
0.42524826
0.42245916
0.41974424
0.41710133
0.41452945
0.41202913
0.40960219
0.40725195
0.40498338
0.40280298
0.40071939
0.39874316
0.39688623
0.39516215
0.39358598
0.3921743
0.39094502
0.38991715
0.38911051
0.38854552
0.38824286
0.38822315
0.38850663
0.38911291
0.39006051
0.39136702
0.39304799
0.39511738
0.39758707
0.40046717
0.40376441
0.40748626
0.41163044
0.41620403
0.42122655
0.42633332
0.43147187
0.43648824
0.44190352
3.8910367
3.1807831
2.6826125
2.3241617
2.056235
1.8487356
1.6832375
1.5480751
1.4355524
1.3403909
1.2588461
1.1881841
1.1263612
1.0718169
1.0233392
0.9799717
0.94094955
0.90565356
0.87357715
0.84430174
0.81747848
0.79281429
0.7700611
0.74900759
0.72947257
0.71129986
0.69435407
0.67851731
0.66368645
0.64977088
0.63669068
0.6243751
0.61276129
0.60179323
0.59142084
0.58159921
0.57228792
0.56345062
0.55505434
0.54706921
0.53946804
0.53222608
0.52532067
0.51873104
0.51243808
0.50642417
0.50067299
0.49516934
0.48989912
0.48484904
0.48000665
0.47536041
0.47089879
0.46661132
0.46248851
0.45852037
0.45469698
0.45100964
0.44745047
0.44401145
0.44068444
0.43746175
0.43433643
0.43130235
0.42835405
0.42548669
0.42269606
0.41997875
0.4173324
0.41475585
0.41224928
0.40981442
0.40745424
0.4051734
0.40297809
0.40087658
0.39887895
0.39699677
0.39524316
0.39363272
0.3921816
0.39090723
0.38982812
0.38896356
0.38833339
0.3879577
0.38785649
0.38804939
0.38855531
0.38939216
0.39057666
0.39212383
0.39404755
0.39635875
0.39906672
0.40217802
0.40569765
0.40962896
0.4139597
0.41875458
0.4237148
0.4287131
0.43359482
0.43882086
3.8912416
3.181155
2.6830536
2.3246241
2.0566972
1.8491878
1.6836759
1.5484986
1.435961
1.3407854
1.2592271
1.1885527
1.1267181
1.0721632
1.0236757
0.98029918
0.94126873
0.9059651
0.87388164
0.84459975
0.81777053
0.79310083
0.77034258
0.74928439
0.72974507
0.7115684
0.69461896
0.67877885
0.66394492
0.65002653
0.63694375
0.62462583
0.6130099
0.60203992
0.59166583
0.58184267
0.57253006
0.56369152
0.55529425
0.54730832
0.53970655
0.53246418
0.52555855
0.5189689
0.51267613
0.50666259
0.50091198
0.49540911
0.49013988
0.485091
0.48025001
0.47560535
0.47114557
0.46686014
0.46273948
0.45877365
0.45495282
0.45126822
0.44771181
0.44427555
0.44095131
0.43773136
0.43460869
0.431577
0.42863068
0.42576473
0.42297479
0.42025727
0.41760962
0.41503049
0.41251979
0.41007888
0.40771049
0.40541916
0.40321069
0.40109298
0.39907577
0.39717026
0.39538917
0.39374668
0.39225847
0.39094157
0.38981403
0.38889472
0.38820301
0.38775853
0.38758078
0.38768888
0.38810125
0.38883527
0.38990705
0.39133112
0.39312029
0.39528606
0.39783677
0.40077856
0.40411524
0.40785072
0.41197309
0.4165258
0.421339
0.42620844
0.43097292
0.43603592
3.8914425
3.1815156
2.6834815
2.3250728
2.0571453
1.8496264
1.6841014
1.5489097
1.4363579
1.3411685
1.2595974
1.1889111
1.1270656
1.0725005
1.0240037
0.98061872
0.94158046
0.90626969
0.87417968
0.84489179
0.81805708
0.79338238
0.77061955
0.7495572
0.7300141
0.71183398
0.69488143
0.67903852
0.66420207
0.65028144
0.63719669
0.62487704
0.61325963
0.60228842
0.59191331
0.58208937
0.57277619
0.56393734
0.55553983
0.54755395
0.53995251
0.53271073
0.52580595
0.51921742
0.51292603
0.50691416
0.50116552
0.49566492
0.49039826
0.48535228
0.48051452
0.47587338
0.47141748
0.46713628
0.46302008
0.45905902
0.45524331
0.45156411
0.44801328
0.4445827
0.44126423
0.4380501
0.43493319
0.43190703
0.42896584
0.42610443
0.42331825
0.42060353
0.41795748
0.4153785
0.41286626
0.41042178
0.40804757
0.40574759
0.4035277
0.40139534
0.39935987
0.39743218
0.39562463
0.39395104
0.39242676
0.39106848
0.38989395
0.38892161
0.38817074
0.38765973
0.3874102
0.38743763
0.38776122
0.3883982
0.38936424
0.39067346
0.39233815
0.39436883
0.39677367
0.39955964
0.40272962
0.40628543
0.41022183
0.41455086
0.4192233
0.42396676
0.42861775
0.43352805
3.89164
3.1818675
2.6838972
2.3255081
2.0575803
1.8500522
1.6845144
1.549309
1.4367436
1.3415412
1.2599578
1.1892602
1.1274043
1.0728297
1.0243242
0.9809313
0.94188584
0.90656851
0.87447255
0.84517926
0.81833969
0.7936606
0.77089384
0.74982797
0.73028174
0.71209886
0.69514391
0.67929892
0.66446072
0.65053864
0.63745275
0.62513224
0.61351426
0.60254275
0.59216763
0.58234395
0.57303132
0.56419329
0.55579692
0.54781229
0.54021251
0.53297271
0.52607028
0.5194845
0.51319628
0.50718801
0.50144339
0.49594728
0.49068558
0.48564504
0.48081322
0.47617851
0.47172957
0.46745584
0.46334757
0.4593949
0.45558812
0.45191829
0.44837716
0.44495653
0.44164822
0.43844436
0.43533767
0.43232152
0.4293899
0.42653738
0.42375919
0.4210513
0.41841067
0.41583539
0.41332482
0.41087968
0.40850214
0.40619586
0.40396615
0.40182018
0.39976744
0.39781832
0.39598486
0.39428053
0.39272037
0.39132091
0.39009939
0.38907524
0.38826172
0.3877043
0.38729481
0.38733428
0.387565
0.38810619
0.38896992
0.39016917
0.39171574
0.39361956
0.39588849
0.39852823
0.40154222
0.40493209
0.40869836
0.41282337
0.41736909
0.42200215
0.42654932
0.43131263
3.8918327
3.1822084
2.6843005
2.3259305
2.0580023
1.8504654
1.6849156
1.5496972
1.4371187
1.341904
1.2603091
1.1896009
1.1277353
1.0731519
1.0246385
0.98123835
0.94218639
0.90686323
0.87476207
0.84546418
0.81862052
0.79393787
0.77116802
0.75009952
0.73055108
0.71236641
0.69541004
0.67956402
0.66472514
0.65080275
0.6377169
0.62539679
0.61377955
0.60280914
0.59243547
0.58261361
0.57330317
0.56446771
0.5560743
0.54809309
0.54049695
0.53326104
0.5263633
0.51978281
0.51350049
0.50749875
0.50176131
0.49627306
0.49101991
0.48598867
0.48116689
0.47654298
0.47210563
0.46784428
0.4637491
0.45981026
0.45601805
0.45236347
0.4488381
0.44543365
0.44214181
0.43895457
0.43586445
0.43286458
0.42994867
0.42711099
0.42434646
0.42165076
0.4190205
0.41645343
0.41394857
0.41150624
0.40912827
0.406818
0.40458036
0.40242231
0.4003525
0.39838187
0.39652197
0.39478599
0.39318879
0.39174673
0.39047698
0.38939845
0.38852695
0.38789152
0.38748054
0.38735319
0.38751763
0.38797393
0.3887424
0.38983801
0.39127298
0.39305722
0.39519851
0.39770192
0.40057112
0.40380464
0.40740978
0.41136006
0.41572043
0.42025367
0.42472401
0.42936973
3.8920223
3.1825412
2.6846924
2.3263407
2.0584122
1.850867
1.6853057
1.5500749
1.4374843
1.342258
1.2606525
1.1899344
1.12806
1.0734687
1.0249482
0.98154172
0.94248422
0.90715622
0.87505087
0.8457494
0.81890276
0.79421768
0.77144594
0.75037604
0.73082669
0.71264157
0.69568522
0.67983965
0.66500169
0.65108066
0.6379966
0.62567874
0.61406421
0.60309698
0.59272698
0.58290927
0.57360351
0.56477327
0.55638565
0.54841082
0.54082168
0.53359355
0.52670371
0.52013222
0.51385984
0.507869
0.50214345
0.49666812
0.49142897
0.4864128
0.48160722
0.47700063
0.47258176
0.46834002
0.46426553
0.46034843
0.45657897
0.45294801
0.44944697
0.44606735
0.44280066
0.43963867
0.43657362
0.43359828
0.43070603
0.42789077
0.42514702
0.42247008
0.41985617
0.41730264
0.41480807
0.41237243
0.40999715
0.40768519
0.40544121
0.4032718
0.40118546
0.39919245
0.39730419
0.39553467
0.39389818
0.3924109
0.39109012
0.38995413
0.38902132
0.3883109
0.38784375
0.38762464
0.38769098
0.38805342
0.38872499
0.38971841
0.39104506
0.39271444
0.39473411
0.39710882
0.39984206
0.40293167
0.40638243
0.41017324
0.41434685
0.41877377
0.42316391
0.42770982
3.892207
3.1828637
2.6850729
2.3267392
2.0588106
1.8512577
1.6856857
1.5504434
1.4378415
1.3426046
1.2609893
1.1902625
1.1283803
1.0737822
1.0252557
0.98184422
0.94278243
0.9074509
0.87534276
0.84603919
0.81919112
0.79450524
0.77173331
0.75066382
0.73111546
0.71293191
0.69597769
0.68013483
0.66530015
0.65138297
0.63830337
0.62599058
0.61438175
0.60342087
0.5930579
0.58324795
0.57395069
0.56512975
0.55675227
0.54878848
0.54121131
0.53399613
0.52712044
0.52056344
0.51430716
0.50833386
0.50262734
0.49717253
0.4919554
0.48696284
0.48218246
0.47760266
0.47321218
0.46900037
0.46495722
0.46107277
0.45733717
0.45374107
0.45027561
0.44693202
0.44370151
0.44057551
0.43754588
0.43460498
0.43174573
0.42896159
0.42624663
0.42359568
0.42100453
0.41847007
0.41599048
0.4135653
0.41119559
0.40888396
0.40663476
0.40445432
0.40235093
0.40033466
0.39841693
0.39661075
0.39493054
0.39339422
0.39201842
0.39082119
0.38982147
0.38903778
0.38849072
0.38819604
0.38817215
0.38843666
0.38900512
0.389891
0.39110574
0.39265873
0.39455724
0.39680568
0.39940709
0.40235932
0.40566437
0.40930782
0.41330207
0.41762429
0.42194278
0.42630263
3.8923896
3.1831792
2.6854433
2.3271268
2.0591985
1.8516385
1.6860567
1.5508038
1.4381918
1.3429455
1.2613217
1.1905876
1.128699
1.0740955
1.0255647
0.98214983
0.94308556
0.90775243
0.87564351
0.84633998
0.81949275
0.79480847
0.7720389
0.75097251
0.731428
0.71324904
0.69630017
0.68046343
0.66563564
0.65172617
0.63865512
0.62635173
0.61475322
0.60380361
0.59345291
0.58365628
0.57437346
0.56556814
0.55720754
0.54926194
0.54170437
0.53451026
0.52765716
0.52112456
0.51489334
0.50894741
0.50327009
0.49784657
0.49266289
0.48770594
0.48296331
0.47842327
0.47407447
0.46990612
0.465908
0.46206996
0.45838191
0.4548342
0.45141757
0.44812286
0.44494087
0.44186258
0.43887938
0.43598313
0.43316625
0.43042168
0.42774302
0.42512463
0.42256184
0.42005112
0.41759024
0.41517836
0.41281619
0.41050606
0.40825205
0.40606029
0.40393891
0.4018979
0.39994863
0.39810385
0.39637833
0.39478816
0.39335305
0.39209044
0.39101921
0.39015856
0.3895278
0.38914589
0.38903038
0.38919791
0.38966389
0.39044214
0.3915444
0.39298025
0.39475702
0.39687922
0.39934971
0.40216659
0.40533038
0.40883055
0.41266722
0.41683751
0.42126859
0.42594793
3.8925669
3.183485
2.6858034
2.3275042
2.0595766
1.8520105
1.68642
1.5511581
1.4385372
1.3432831
1.2616526
1.1909129
1.12902
1.0744134
1.0258805
0.98246469
0.94340056
0.90806862
0.87596193
0.84666166
0.81981867
0.79513963
0.7723763
0.75131715
0.73178089
0.71361119
0.69667264
0.68084729
0.66603202
0.65213623
0.63908007
0.62679286
0.61521184
0.60428114
0.59395082
0.58417613
0.57491689
0.56613688
0.5578034
0.54988683
0.54236027
0.53519923
0.52838135
0.52188614
0.51569472
0.50978982
0.50415483
0.4987773
0.49364238
0.48873666
0.48404748
0.47956295
0.47527154
0.47116224
0.46722453
0.46344791
0.45982191
0.45633642
0.45298171
0.44974809
0.44662586
0.44360552
0.4406779
0.43783437
0.43506683
0.43236777
0.42973031
0.42714842
0.42461703
0.42213226
0.41969156
0.41729381
0.41493948
0.41263069
0.41037132
0.40816739
0.40602692
0.40395993
0.40197771
0.40009292
0.39832038
0.3966765
0.3951793
0.39384673
0.39270176
0.39176223
0.39104719
0.39057573
0.39036611
0.39043534
0.39079892
0.39147056
0.39246183
0.39378222
0.3954393
0.39743781
0.39978063
0.40246601
0.40549384
0.4088541
0.41254649
0.41655887
0.42086371
0.4255717
3.8927425
3.1837847
2.6861549
2.3278726