/*--------------------------------*- C++ -*----------------------------------*\
| =========                 |                                                 |
| \\      /  F ield         | OpenFOAM: The Open Source CFD Toolbox           |
|  \\    /   O peration     | Version:  2406                                  |
|   \\  /    A nd           | Website:  www.openfoam.com                      |
|    \\/     M anipulation  |                                                 |
\*---------------------------------------------------------------------------*/
FoamFile
{
    version     2.0;
    format      ascii;
    arch        "LSB;label=32;scalar=64";
    class       surfaceScalarField;
    location    "1600";
    object      phi;
}
// * * * * * * * * * * * * * * * * * * * * * * * * * * * * * * * * * * * * * //

dimensions      [1 0 -1 0 0 0 0];

oriented        oriented;

internalField   nonuniform List<scalar> 
264541
(
1.8309025e-05
-1.928486e-07
2.0340622e-07
1.8294495e-05
-2.5373648e-07
2.6826873e-07
1.8276764e-05
-3.3311404e-07
3.5084254e-07
1.8255712e-05
-4.0824853e-07
4.2930144e-07
1.8231657e-05
-4.8015439e-07
5.0420882e-07
1.8204732e-05
-5.5039868e-07
5.7732399e-07
1.8174979e-05
-6.1820804e-07
6.4796054e-07
1.8142469e-05
-6.837009e-07
7.1621179e-07
1.8107262e-05
-7.4731989e-07
7.8252697e-07
1.8069403e-05
-8.0933613e-07
8.4719522e-07
1.8028927e-05
-8.6999637e-07
9.1047159e-07
1.7985867e-05
-9.2954503e-07
9.7260644e-07
1.7940242e-05
-9.8819134e-07
1.0338153e-06
1.7892071e-05
-1.0461102e-06
1.0942815e-06
1.7841366e-05
-1.1034501e-06
1.1541551e-06
1.7788134e-05
-1.1603365e-06
1.2135684e-06
1.773238e-05
-1.2168699e-06
1.272624e-06
1.7674105e-05
-1.2731336e-06
1.3314091e-06
1.7613306e-05
-1.3291922e-06
1.3899905e-06
1.7549981e-05
-1.3850914e-06
1.4484167e-06
1.7484125e-05
-1.4408621e-06
1.5067182e-06
1.7415732e-05
-1.4965182e-06
1.5649107e-06
1.7344799e-05
-1.5520595e-06
1.6229932e-06
1.7271321e-05
-1.6074715e-06
1.6809493e-06
1.7195296e-05
-1.6627254e-06
1.7387507e-06
1.7116722e-05
-1.7177798e-06
1.796353e-06
1.7035603e-05
-1.7725794e-06
1.8536989e-06
1.6951942e-05
-1.8270561e-06
1.9107175e-06
1.6865747e-05
-1.8811287e-06
1.9673239e-06
1.6777029e-05
-1.9347019e-06
2.0234193e-06
1.6685806e-05
-1.9876677e-06
2.0788908e-06
1.6592098e-05
-2.0399042e-06
2.1336119e-06
1.6495933e-05
-2.0912757e-06
2.1874412e-06
1.6397343e-05
-2.1416319e-06
2.240222e-06
1.6296368e-05
-2.1908088e-06
2.2917836e-06
1.6193056e-05
-2.238629e-06
2.3419412e-06
1.6087461e-05
-2.2849002e-06
2.3904954e-06
1.5979646e-05
-2.3294168e-06
2.4372316e-06
1.5869684e-05
-2.3719586e-06
2.4819203e-06
1.5757657e-05
-2.4122918e-06
2.5243193e-06
1.5643656e-05
-2.4501692e-06
2.5641702e-06
1.5527783e-05
-2.4853298e-06
2.6012029e-06
1.5410151e-05
-2.5175003e-06
2.6351316e-06
1.5290885e-05
-2.5463924e-06
2.6656583e-06
1.5170123e-05
-2.5717072e-06
2.6924699e-06
1.5048007e-05
-2.5931281e-06
2.7152432e-06
1.4924663e-05
-2.6102656e-06
2.7336103e-06
1.4800283e-05
-2.6229686e-06
2.7473488e-06
1.4675092e-05
-2.6309678e-06
2.7561584e-06
1.4549237e-05
-2.6336904e-06
2.7595454e-06
1.4422777e-05
-2.6306326e-06
2.7570926e-06
1.4296751e-05
-2.6241468e-06
2.7501725e-06
1.4170637e-05
-2.6070167e-06
2.7331309e-06
1.4043625e-05
-2.5823077e-06
2.7093195e-06
1.3918055e-05
-2.5647617e-06
2.6903319e-06
1.3794687e-05
-2.5273203e-06
2.6506884e-06
1.3671378e-05
-2.475841e-06
2.59915e-06
1.354972e-05
-2.4310347e-06
2.5526924e-06
1.3430864e-05
-2.3736008e-06
2.4924565e-06
1.3314554e-05
-2.3056656e-06
2.421976e-06
1.3199116e-05
-2.2298392e-06
2.3452774e-06
1.3087003e-05
-2.1428636e-06
2.2549765e-06
1.2977734e-05
-2.0463118e-06
2.155581e-06
1.2872263e-05
-1.9429893e-06
2.0484598e-06
1.277105e-05
-1.8310076e-06
1.9322212e-06
1.2674361e-05
-1.7097421e-06
1.8064303e-06
1.2582799e-05
-1.5786724e-06
1.6702347e-06
1.2496769e-05
-1.43784e-06
1.5238706e-06
1.2416704e-05
-1.2873997e-06
1.3674647e-06
1.2343032e-05
-1.1275328e-06
1.2012049e-06
1.2276191e-05
-9.5842646e-07
1.0252672e-06
1.2216647e-05
-7.8026663e-07
8.3981042e-07
1.2164887e-05
-5.9326223e-07
6.4502248e-07
1.2121433e-05
-3.9769822e-07
4.411522e-07
1.2086779e-05
-1.9386598e-07
2.2852026e-07
1.2061847e-05
1.7451267e-08
7.479946e-09
1.2047611e-05
2.3562649e-07
-2.2138999e-07
1.204465e-05
4.6046561e-07
-4.5750443e-07
1.2053326e-05
6.9166345e-07
-7.0033934e-07
1.2073843e-05
9.2881246e-07
-9.4933021e-07
1.210631e-05
1.1714016e-06
-1.2038685e-06
1.215079e-05
1.4188136e-06
-1.4632931e-06
1.2207356e-05
1.6703341e-06
-1.7269002e-06
1.2276148e-05
1.9251649e-06
-1.9939575e-06
1.2357405e-05
2.1824498e-06
-2.2637065e-06
1.245146e-05
2.4413066e-06
-2.5353612e-06
1.2558715e-05
2.7008504e-06
-2.808106e-06
1.26796e-05
2.960208e-06
-3.0810932e-06
1.2814529e-05
3.2185184e-06
-3.3534465e-06
1.2963867e-05
3.4749331e-06
-3.6242717e-06
1.3127924e-05
3.7286141e-06
-3.8926707e-06
1.3306944e-05
3.9787354e-06
-4.1577555e-06
1.3501109e-05
4.2244887e-06
-4.4186537e-06
1.3710548e-05
4.4650835e-06
-4.6745222e-06
1.3935305e-05
4.6997643e-06
-4.9245217e-06
1.41754e-05
4.9277895e-06
-5.1678849e-06
1.4430656e-05
5.1484842e-06
-5.4037401e-06
1.4701046e-05
5.3611756e-06
-5.6315649e-06
1.4985816e-05
5.5652597e-06
-5.8500301e-06
1.5285244e-05
5.7604877e-06
-6.0599157e-06
1.5596639e-05
5.9450048e-06
-6.2564002e-06
1.592019e-05
6.1262718e-06
-6.4498228e-06
1.6253298e-05
6.2691732e-06
-6.6022805e-06
6.5388015e-06
1.6560158e-05
-6.8456614e-06
1.7638411e-05
-1.8261376e-07
1.7624428e-05
-2.3975041e-07
1.7607366e-05
-3.1605339e-07
1.7587113e-05
-3.8799459e-07
1.7563991e-05
-4.5703336e-07
1.7538124e-05
-5.2453025e-07
1.7509547e-05
-5.8963189e-07
1.7478333e-05
-6.5248624e-07
1.7444539e-05
-7.1352651e-07
1.740821e-05
-7.7300675e-07
1.7369381e-05
-8.3116707e-07
1.7328082e-05
-8.882458e-07
1.7284334e-05
-9.4444439e-07
1.7238157e-05
-9.9993253e-07
1.718956e-05
-1.0548536e-06
1.7138553e-05
-1.1093288e-06
1.7085138e-05
-1.1634553e-06
1.7029317e-05
-1.2173127e-06
1.6971089e-05
-1.270964e-06
1.691045e-05
-1.3244528e-06
1.6847397e-05
-1.3778087e-06
1.6781925e-05
-1.4310459e-06
1.6714029e-05
-1.484164e-06
1.6643707e-05
-1.5371491e-06
1.6570955e-05
-1.5899738e-06
1.6495774e-05
-1.6425984e-06
1.6418165e-05
-1.6949703e-06
1.6338132e-05
-1.7470237e-06
1.6255684e-05
-1.7986807e-06
1.6170833e-05
-1.8498503e-06
1.6083594e-05
-1.9004286e-06
1.5993988e-05
-1.9502985e-06
1.5902042e-05
-1.99933e-06
1.5807789e-05
-2.0473789e-06
1.5711268e-05
-2.0942873e-06
1.5612524e-05
-2.1398854e-06
1.5511612e-05
-2.1839885e-06
1.5408595e-05
-2.226399e-06
1.5303542e-05
-2.2669057e-06
1.5196534e-05
-2.305284e-06
1.5087662e-05
-2.3412967e-06
1.4977025e-05
-2.3746928e-06
1.4864734e-05
-2.4052099e-06
1.4750913e-05
-2.4325709e-06
1.4635694e-05
-2.4564887e-06
1.451923e-05
-2.4766636e-06
1.4401664e-05
-2.4926998e-06
1.4283143e-05
-2.5044478e-06
1.4163859e-05
-2.5116839e-06
1.4043968e-05
-2.5137992e-06
1.3923579e-05
-2.5102436e-06
1.3803982e-05
-2.5045497e-06
1.3683593e-05
-2.4866284e-06
1.3564188e-05
-2.4629021e-06
1.3445401e-05
-2.4459752e-06
1.3326684e-05
-2.4086028e-06
1.3211179e-05
-2.360336e-06
1.309559e-05
-2.315446e-06
1.2982195e-05
-2.2602054e-06
1.2870985e-05
-2.1944556e-06
1.2761991e-05
-2.1208457e-06
1.265674e-05
-2.0376126e-06
1.2554912e-05
-1.9444836e-06
1.2456728e-05
-1.8448055e-06
1.2362524e-05
-1.736803e-06
1.2272733e-05
-1.6199517e-06
1.2187902e-05
-1.4938414e-06
1.2108498e-05
-1.3584363e-06
1.2034974e-05
-1.2138753e-06
1.1967764e-05
-1.0603231e-06
1.1907299e-05
-8.9796129e-07
1.1854023e-05
-7.2699045e-07
1.1808397e-05
-5.4763687e-07
1.177089e-05
-3.6019107e-07
1.1742003e-05
-1.6497834e-07
1.1721772e-05
3.7682444e-08
1.1710164e-05
2.4723442e-07
1.1707618e-05
4.6301156e-07
1.1714803e-05
6.8447839e-07
1.1732518e-05
9.1109731e-07
1.1761599e-05
1.1423205e-06
1.1802828e-05
1.3775846e-06
1.1856851e-05
1.6163109e-06
1.1924133e-05
1.8578826e-06
1.2004952e-05
2.1016308e-06
1.209943e-05
2.3468285e-06
1.2207588e-05
2.5926925e-06
1.2329403e-05
2.8383936e-06
1.246485e-05
3.0830707e-06
1.2613934e-05
3.3258492e-06
1.2776691e-05
3.5658571e-06
1.2953185e-05
3.8022414e-06
1.3143493e-05
4.0341813e-06
1.3347687e-05
4.2608891e-06
1.3565816e-05
4.4816352e-06
1.3797899e-05
4.6957065e-06
1.4043879e-05
4.9025041e-06
1.4303699e-05
5.1013563e-06
1.4577126e-05
5.2918319e-06
1.4864174e-05
5.4734405e-06
1.5164553e-05
5.6446257e-06
1.5479132e-05
5.8116929e-06
1.5805273e-05
5.9430316e-06
6.1619642e-06
1.6182111e-05
1.6992411e-05
-1.7265053e-07
1.6978951e-05
-2.2629181e-07
1.6962517e-05
-2.9961959e-07
1.6943002e-05
-3.6847976e-07
1.6920737e-05
-4.3476799e-07
1.6895826e-05
-4.9961991e-07
1.6868305e-05
-5.6210996e-07
1.683824e-05
-6.2242159e-07
1.6805688e-05
-6.8097466e-07
1.677069e-05
-7.3800844e-07
1.6733279e-05
-7.9375677e-07
1.6693486e-05
-8.4845218e-07
1.6651331e-05
-9.0228913e-07
1.660683e-05
-9.5543157e-07
1.6559996e-05
-1.0080194e-06
1.6510835e-05
-1.0601684e-06
1.6459353e-05
-1.1119734e-06
1.6405551e-05
-1.1635108e-06
1.6349428e-05
-1.2148407e-06
1.6290982e-05
-1.2660065e-06
1.6230209e-05
-1.3170357e-06
1.6167106e-05
-1.3679429e-06
1.610167e-05
-1.4187275e-06
1.6033897e-05
-1.4693763e-06
1.5963787e-05
-1.5198638e-06
1.589134e-05
-1.5701514e-06
1.5816559e-05
-1.6201891e-06
1.5739449e-05
-1.6699138e-06
1.5660019e-05
-1.7192508e-06
1.5578281e-05
-1.7681127e-06
1.5494253e-05
-1.8164004e-06
1.5407956e-05
-1.8640009e-06
1.5319416e-05
-1.9107901e-06
1.5228667e-05
-1.9566296e-06
1.5135747e-05
-2.0013676e-06
1.5040703e-05
-2.0448418e-06
1.4943589e-05
-2.0868744e-06
1.4844467e-05
-2.1272764e-06
1.4743406e-05
-2.1658451e-06
1.4640487e-05
-2.2023647e-06
1.4535798e-05
-2.2366077e-06
1.4429438e-05
-2.2683336e-06
1.4321519e-05
-2.2972903e-06
1.4212161e-05
-2.3232132e-06
1.4101497e-05
-2.3458249e-06
1.3989676e-05
-2.3648419e-06
1.3876897e-05
-2.3799207e-06
1.3763328e-05
-2.3908789e-06
1.3649099e-05
-2.3974553e-06
1.3534502e-05
-2.3992021e-06
1.341929e-05
-2.3950315e-06
1.3304139e-05
-2.3893992e-06
1.3189937e-05
-2.3724263e-06
1.3075718e-05
-2.3486827e-06
1.2960688e-05
-2.3309452e-06
1.284784e-05
-2.2957548e-06
1.2737684e-05
-2.2501805e-06
1.2627475e-05
-2.2052362e-06
1.2519263e-05
-2.1519939e-06
1.2413445e-05
-2.088638e-06
1.2310179e-05
-2.0175794e-06
1.2210444e-05
-1.9378779e-06
1.2114491e-05
-1.8485301e-06
1.2022127e-05
-1.7524418e-06
1.1933747e-05
-1.6484229e-06
1.1849752e-05
-1.5359571e-06
1.1770635e-05
-1.4147238e-06
1.1696873e-05
-1.2846746e-06
1.1628909e-05
-1.1459113e-06
1.1567166e-05
-9.9857976e-07
1.1512061e-05
-8.4285654e-07
1.1464016e-05
-6.7894519e-07
1.1423457e-05
-5.0707835e-07
1.1390813e-05
-3.2754664e-07
1.1366519e-05
-1.4068484e-07
1.1351248e-05
5.2953678e-08
1.1345586e-05
2.5289656e-07
1.1349858e-05
4.5873998e-07
1.1364277e-05
6.7005879e-07
1.1389015e-05
8.8635984e-07
1.1424266e-05
1.107069e-06
1.14703e-05
1.3315506e-06
1.1527487e-05
1.5591241e-06
1.1596287e-05
1.7890822e-06
1.1677208e-05
2.0207104e-06
1.1770738e-05
2.2532982e-06
1.1877291e-05
2.4861394e-06
1.199716e-05
2.7185247e-06
1.2130501e-05
2.9497297e-06
1.2277345e-05
3.1790057e-06
1.2437622e-05
3.4055798e-06
1.2611204e-05
3.6286592e-06
1.2797936e-05
3.8474493e-06
1.2997661e-05
4.0611638e-06
1.3210238e-05
4.2690585e-06
1.3435533e-05
4.4704114e-06
1.367343e-05
4.664607e-06
1.3923766e-05
4.8510206e-06
1.4186439e-05
5.0291585e-06
1.4461053e-05
5.1988271e-06
1.4747573e-05
5.3581052e-06
1.5045964e-05
5.5133021e-06
1.5349273e-05
5.6397222e-06
5.8188513e-06
1.5692386e-05
1.6370126e-05
-1.6294697e-07
1.635718e-05
-2.133422e-07
1.6341355e-05
-2.8379583e-07
1.6322565e-05
-3.4968959e-07
1.6301143e-05
-4.1334647e-07
1.6277182e-05
-4.7565875e-07
1.6250715e-05
-5.3564252e-07
1.6221806e-05
-5.9351341e-07
1.6190511e-05
-6.4967934e-07
1.6156868e-05
-7.0436531e-07
1.6120911e-05
-7.5780009e-07
1.6082669e-05
-8.1020908e-07
1.6042161e-05
-8.6178138e-07
1.5999404e-05
-9.1267517e-07
1.595441e-05
-9.6302559e-07
1.5907187e-05
-1.0129449e-06
1.5857738e-05
-1.0625246e-06
1.5806065e-05
-1.111838e-06
1.5752168e-05
-1.1609439e-06
1.5696045e-05
-1.209883e-06
1.5637692e-05
-1.2586829e-06
1.5577106e-05
-1.3073571e-06
1.5514285e-05
-1.355906e-06
1.5449225e-05
-1.4043169e-06
1.5381926e-05
-1.4525648e-06
1.5312389e-05
-1.500614e-06
1.5240615e-05
-1.5484158e-06
1.5166612e-05
-1.5959101e-06
1.5090386e-05
-1.6430254e-06
1.5011952e-05
-1.6896782e-06
1.4931324e-05
-1.7357729e-06
1.4848525e-05
-1.7812022e-06
1.4763581e-05
-1.8258462e-06
1.4676525e-05
-1.8695728e-06
1.4587394e-05
-1.9122369e-06
1.4496234e-05
-1.9536822e-06
1.4403099e-05
-1.9937387e-06
1.4308048e-05
-2.0322254e-06
1.421115e-05
-2.0689477e-06
1.4112485e-05
-2.1036993e-06
1.4012139e-05
-2.1362616e-06
1.391021e-05
-2.1664046e-06
1.3806806e-05
-2.1938865e-06
1.3702047e-05
-2.2184541e-06
1.3596064e-05
-2.2398415e-06
1.3489001e-05
-2.2577797e-06
1.3381029e-05
-2.2719479e-06
1.3272288e-05
-2.2821379e-06
1.3162926e-05
-2.2880936e-06
1.3053251e-05
-2.2895268e-06
1.2943683e-05
-2.2854638e-06
1.2833164e-05
-2.2788803e-06
1.2723776e-05
-2.2630379e-06
1.2616294e-05
-2.2412015e-06
1.250633e-05
-2.2209812e-06
1.2398384e-05
-2.1878079e-06
1.2293545e-05
-2.145342e-06
1.2189222e-05
-2.100913e-06
1.2086404e-05
-2.0491757e-06
1.1986132e-05
-1.9883658e-06
1.1888497e-05
-1.9199445e-06
1.1793989e-05
-1.8433698e-06
1.1703446e-05
-1.7579877e-06
1.161656e-05
-1.6655559e-06
1.1533659e-05
-1.5655216e-06
1.1455129e-05
-1.4574271e-06
1.1381436e-05
-1.3410305e-06
1.1313039e-05
-1.2162776e-06
1.125037e-05
-1.0832425e-06
1.119385e-05
-9.4206026e-07
1.1143896e-05
-7.9290171e-07
1.1100922e-05
-6.3597157e-07
1.1065349e-05
-4.7150537e-07
1.1037598e-05
-2.9979529e-07
1.101807e-05
-1.211572e-07
1.100698e-05
6.404408e-08
1.1004533e-05
2.5534297e-07
1.1011092e-05
4.5218151e-07
1.1027098e-05
6.5405263e-07
1.1053018e-05
8.6043917e-07
1.1089293e-05
1.0707947e-06
1.1136298e-05
1.2845451e-06
1.1194347e-05
1.501075e-06
1.1263705e-05
1.7197244e-06
1.1344619e-05
1.9397971e-06
1.1437343e-05
2.1605739e-06
1.1542153e-05
2.3813297e-06
1.1659331e-05
2.6013462e-06
1.1789139e-05
2.8199217e-06
1.1931776e-05
3.0363691e-06
1.2087345e-05
3.2500109e-06
1.2255836e-05
3.4601676e-06
1.2437129e-05
3.6661563e-06
1.263101e-05
3.8672833e-06
1.2837205e-05
4.0628636e-06
1.3055402e-05
4.2522139e-06
1.3285308e-05
4.4347008e-06
1.3526589e-05
4.6097402e-06
1.3779036e-05
4.776711e-06
1.4042246e-05
4.9356177e-06
1.4315922e-05
5.0844293e-06
1.4600664e-05
5.2285595e-06
1.4891099e-05
5.3492874e-06
5.5092363e-06
1.5200714e-05
1.5770682e-05
-1.5348979e-07
1.5758233e-05
-2.0089438e-07
1.574299e-05
-2.6855335e-07
1.5724894e-05
-3.3159362e-07
1.5704278e-05
-3.9273003e-07
1.5681219e-05
-4.5260009e-07
1.5655748e-05
-5.101712e-07
1.5627928e-05
-5.6569387e-07
1.5597811e-05
-6.1956235e-07
1.5565434e-05
-6.7198831e-07
1.5530829e-05
-7.231953e-07
1.5494024e-05
-7.7340372e-07
1.5455038e-05
-8.227957e-07
1.5413888e-05
-8.715247e-07
1.5370584e-05
-9.1972195e-07
1.5325135e-05
-9.6749559e-07
1.5277544e-05
-1.0149337e-06
1.5227814e-05
-1.0621078e-06
1.5175944e-05
-1.1090736e-06
1.5121932e-05
-1.1558717e-06
1.5065778e-05
-1.202528e-06
1.5007477e-05
-1.2490561e-06
1.4947027e-05
-1.2954562e-06
1.4884427e-05
-1.3417167e-06
1.4819676e-05
-1.3878139e-06
1.4752775e-05
-1.4337135e-06
1.4683729e-05
-1.4793691e-06
1.4612542e-05
-1.5247234e-06
1.4539224e-05
-1.5697077e-06
1.4463788e-05
-1.6142421e-06
1.4386251e-05
-1.6582355e-06
1.4306633e-05
-1.7015844e-06
1.4224962e-05
-1.7441749e-06
1.4141269e-05
-1.7858797e-06
1.4055592e-05
-1.8265604e-06
1.3967977e-05
-1.8660669e-06
1.3878475e-05
-1.9042369e-06
1.3787147e-05
-1.9408968e-06
1.3694059e-05
-1.9758601e-06
1.3599289e-05
-2.0089296e-06
1.3502923e-05
-2.0398956e-06
1.3405057e-05
-2.0685382e-06
1.3305796e-05
-2.0946257e-06
1.3205258e-05
-2.1179162e-06
1.3103572e-05
-2.1381549e-06
1.3000877e-05
-2.1550853e-06
1.2897341e-05
-2.168412e-06
1.2793124e-05
-2.1779205e-06
1.2688383e-05
-2.1833532e-06
1.258336e-05
-2.1845032e-06
1.2478251e-05
-2.180355e-06
1.2372808e-05
-2.1734369e-06
1.2268127e-05
-2.1583575e-06
1.2164513e-05
-2.1375868e-06
1.2060062e-05
-2.1165305e-06
1.195737e-05
-2.0851161e-06
1.1856932e-05
-2.0449044e-06
1.175746e-05
-2.0014411e-06
1.1659743e-05
-1.951458e-06
1.1564496e-05
-1.893119e-06
1.1471862e-05
-1.8273103e-06
1.1382349e-05
-1.7538574e-06
1.1296525e-05
-1.6721632e-06
1.1214327e-05
-1.583358e-06
1.113609e-05
-1.4872844e-06
1.1062203e-05
-1.3835407e-06
1.0993089e-05
-1.2719165e-06
1.0929172e-05
-1.15236e-06
1.087086e-05
-1.0249307e-06
1.0818551e-05
-8.8975132e-07
1.0772636e-05
-7.4698677e-07
1.0733503e-05
-5.9683832e-07
1.0701538e-05
-4.3954038e-07
1.0677119e-05
-2.7537651e-07
1.0660643e-05
-1.0468157e-07
1.0652594e-05
7.2094032e-08
1.0653415e-05
2.5452191e-07
1.0663433e-05
4.4216324e-07
1.0682917e-05
6.3456829e-07
1.0712106e-05
8.3125024e-07
1.0751226e-05
1.0316748e-06
1.0800508e-05
1.2352629e-06
1.0860187e-05
1.4413961e-06
1.0930488e-05
1.649423e-06
1.1011622e-05
1.858664e-06
1.1103776e-05
2.0684197e-06
1.1207127e-05
2.2779782e-06
1.1321849e-05
2.4866243e-06
1.144812e-05
2.6936507e-06
1.1586121e-05
2.8983687e-06
1.1736015e-05
3.1001165e-06
1.1897923e-05
3.2982599e-06
1.2071888e-05
3.4921907e-06
1.2257856e-05
3.6813161e-06
1.2455663e-05
3.8650565e-06
1.266504e-05
4.0428361e-06
1.2885658e-05
4.2140837e-06
1.3117107e-05
4.3782907e-06
1.3359006e-05
4.5348122e-06
1.3610999e-05
4.6836241e-06
1.3872458e-05
4.8229712e-06
1.4144172e-05
4.9568451e-06
1.4422977e-05
5.0704819e-06
5.2173056e-06
1.4714908e-05
1.5193229e-05
-1.4426309e-07
1.5181261e-05
-1.8892284e-07
1.5166577e-05
-2.5387105e-07
1.5149153e-05
-3.1416929e-07
1.5129316e-05
-3.7289294e-07
1.5107131e-05
-4.30415e-07
1.5082627e-05
-4.8566784e-07
1.5055868e-05
-5.3893394e-07
1.50269e-05
-5.9059437e-07
1.499576e-05
-6.4084866e-07
1.496248e-05
-6.8991554e-07
1.4927087e-05
-7.3801034e-07
1.48896e-05
-7.8530837e-07
1.4850034e-05
-8.3195901e-07
1.4808401e-05
-8.7808874e-07
1.4764707e-05
-9.2380211e-07
1.4718958e-05
-9.691848e-07
1.4671156e-05
-1.0143052e-06
1.46213e-05
-1.0592178e-06
1.4569389e-05
-1.1039609e-06
1.4515421e-05
-1.1485604e-06
1.4459395e-05
-1.1930295e-06
1.4401307e-05
-1.2373682e-06
1.4341157e-05
-1.2815664e-06
1.4278944e-05
-1.3256009e-06
1.4214669e-05
-1.3694392e-06
1.4148337e-05
-1.4130371e-06
1.4079953e-05
-1.4563397e-06
1.4009527e-05
-1.4992816e-06
1.3937071e-05
-1.5417863e-06
1.3862602e-05
-1.5837661e-06
1.378614e-05
-1.6251229e-06
1.3707713e-05
-1.6657471e-06
1.362735e-05
-1.7055174e-06
1.3545091e-05
-1.7443007e-06
1.3460978e-05
-1.7819539e-06
1.3375062e-05
-1.8183217e-06
1.3287403e-05
-1.8532376e-06
1.3198067e-05
-1.8865238e-06
1.3107128e-05
-1.917991e-06
1.3014672e-05
-1.9474391e-06
1.2920791e-05
-1.9746573e-06
1.2825589e-05
-1.9994243e-06
1.2729182e-05
-2.0215086e-06
1.2631695e-05
-2.0406678e-06
1.2533265e-05
-2.0566556e-06
1.2434051e-05
-2.0691984e-06
1.2334206e-05
-2.0780754e-06
1.223389e-05
-2.0830369e-06
1.2133301e-05
-2.0839147e-06
1.2032732e-05
-2.0797857e-06
1.1931904e-05
-2.0726086e-06
1.1831828e-05
-2.0582824e-06
1.1732774e-05
-2.0385321e-06
1.1633329e-05
-2.0170856e-06
1.1535273e-05
-1.9870601e-06
1.143935e-05
-1.9489816e-06
1.1344714e-05
-1.9068048e-06
1.1251772e-05
-1.8585158e-06
1.1161193e-05
-1.8025405e-06
1.1073256e-05
-1.7393738e-06
1.0988354e-05
-1.6689551e-06
1.0907005e-05
-1.590814e-06
1.0829328e-05
-1.5056806e-06
1.0755598e-05
-1.4135549e-06
1.0686175e-05
-1.3141177e-06
1.0621451e-05
-1.2071923e-06
1.0561829e-05
-1.0927383e-06
1.0507707e-05
-9.7080819e-07
1.0459472e-05
-8.4151622e-07
1.0417507e-05
-7.0502174e-07
1.0382191e-05
-5.6152251e-07
1.0353901e-05
-4.1125112e-07
1.0333013e-05
-2.5448788e-07
1.0319875e-05
-9.1543585e-08
1.0314752e-05
7.7216849e-08
1.0317904e-05
2.5137015e-07
1.0329634e-05
4.3043337e-07
1.0350275e-05
6.139272e-07
1.038017e-05
8.0135462e-07
1.0419647e-05
9.9219852e-07
1.0469e-05
1.1859093e-06
1.0528487e-05
1.3819092e-06
1.059832e-05
1.5795897e-06
1.0678669e-05
1.7783157e-06
1.0769658e-05
1.9774299e-06
1.0871377e-05
2.176259e-06
1.0983884e-05
2.3741182e-06
1.1107215e-05
2.5703194e-06
1.1241405e-05
2.7641789e-06
1.1386491e-05
2.9550302e-06
1.1542519e-05
3.1422322e-06
1.1709529e-05
3.3251801e-06
1.1887538e-05
3.5033078e-06
1.2076508e-05
3.6760862e-06
1.2276324e-05
3.8430203e-06
1.2486781e-05
4.0036261e-06
1.2707584e-05
4.1574876e-06
1.2938337e-05
4.3040594e-06
1.3178704e-05
4.4432571e-06
1.3427971e-05
4.5737046e-06
1.368638e-05
4.6984358e-06
1.3952143e-05
4.8047194e-06
4.941065e-06
1.4228383e-05
1.4636959e-05
-1.3525361e-07
1.4625456e-05
-1.7742175e-07
1.4611309e-05
-2.3972385e-07
1.4594532e-05
-2.9739249e-07
1.4575445e-05
-3.5380539e-07
1.4554099e-05
-4.0906976e-07
1.4530524e-05
-4.6209217e-07
1.4504778e-05
-5.1318889e-07
1.447691e-05
-5.6272567e-07
1.4446952e-05
-6.1089065e-07
1.4414935e-05
-6.5789933e-07
1.4380886e-05
-7.0396073e-07
1.4344822e-05
-7.4924505e-07
1.430676e-05
-7.9389644e-07
1.4266709e-05
-8.3803805e-07
1.4224678e-05
-8.8177088e-07
1.418067e-05
-9.2517706e-07
1.4134689e-05
-9.6832358e-07
1.4086733e-05
-1.0112623e-06
1.4036803e-05
-1.0540311e-06
1.3984897e-05
-1.0966542e-06
1.3931013e-05
-1.1391454e-06
1.387515e-05
-1.1815047e-06
1.3817305e-05
-1.223722e-06
1.3757481e-05
-1.2657763e-06
1.3695677e-05
-1.307636e-06
1.36319e-05
-1.3492594e-06
1.3566154e-05
-1.390594e-06
1.3498449e-05
-1.4315769e-06
1.3428799e-05
-1.4721355e-06
1.3357219e-05
-1.5121859e-06
1.328373e-05
-1.5516341e-06
1.3208358e-05
-1.5903752e-06
1.3131134e-05
-1.6282934e-06
1.3052095e-05
-1.6652619e-06
1.2971285e-05
-1.7011433e-06
1.2888752e-05
-1.7357892e-06
1.2804555e-05
-1.7690404e-06
1.2718758e-05
-1.800727e-06
1.2631435e-05
-1.8306681e-06
1.2542668e-05
-1.8586721e-06
1.2452549e-05
-1.8845377e-06
1.2361178e-05
-1.9080537e-06
1.2268668e-05
-1.9289984e-06
1.2175141e-05
-1.9471411e-06
1.2080732e-05
-1.9622461e-06
1.1985592e-05
-1.9740586e-06
1.1889873e-05
-1.9823569e-06
1.1793741e-05
-1.986904e-06
1.169737e-05
-1.9875439e-06
1.1601044e-05
-1.9834598e-06
1.1504592e-05
-1.9761565e-06
1.1408768e-05
-1.9624589e-06
1.131383e-05
-1.9435939e-06
1.1218952e-05
-1.9222071e-06
1.1125328e-05
-1.8934368e-06
1.1033594e-05
-1.8572468e-06
1.0943286e-05
-1.8164973e-06
1.0854736e-05
-1.7699658e-06
1.0768511e-05
-1.7163158e-06
1.0684896e-05
-1.6557582e-06
1.060424e-05
-1.5882996e-06
1.0527009e-05
-1.5135826e-06
1.0453391e-05
-1.4320631e-06
1.0383648e-05
-1.3438117e-06
1.0318127e-05
-1.2485961e-06
1.0257201e-05
-1.1462665e-06
1.0201252e-05
-1.0367894e-06
1.0150656e-05
-9.2021198e-07
1.010578e-05
-7.9664103e-07
1.0066988e-05
-6.6622973e-07
1.0034635e-05
-5.291695e-07
1.0009073e-05
-3.856888e-07
9.9906421e-06
-2.3605688e-07
9.9796911e-06
-8.0592665e-08
9.9765943e-06
8.0313707e-08
9.9816979e-06
2.4626652e-07
9.9952966e-06
4.1683467e-07
1.0017649e-05
5.915748e-07
1.0048983e-05
7.7002043e-07
1.0089513e-05
9.5166869e-07
1.0139442e-05
1.1359802e-06
1.0198968e-05
1.3223839e-06
1.0268273e-05
1.510284e-06
1.0347525e-05
1.6990642e-06
1.0436862e-05
1.888093e-06
1.0536389e-05
2.0767313e-06
1.0646173e-05
2.2643343e-06
1.0766237e-05
2.4502562e-06
1.0896563e-05
2.6338528e-06
1.1037105e-05
2.8144876e-06
1.11878e-05
2.9915371e-06
1.1348579e-05
3.1644015e-06
1.1519373e-05
3.3325132e-06
1.1700115e-05
3.4953444e-06
1.1890719e-05
3.6524164e-06
1.2091064e-05
3.803281e-06
1.2300982e-05
3.94757e-06
1.2520201e-05
4.0848399e-06
1.2748466e-05
4.2149927e-06
1.2985247e-05
4.3369234e-06
1.32304e-05
4.4532826e-06
1.3482783e-05
4.5523364e-06
4.6795682e-06
1.374428e-05
1.410109e-05
-1.2645118e-07
1.4090038e-05
-1.6636729e-07
1.4076406e-05
-2.2609301e-07
1.4060254e-05
-2.8123985e-07
1.4041888e-05
-3.354393e-07
1.4021351e-05
-3.8853239e-07
1.3998669e-05
-4.3941089e-07
1.3973903e-05
-4.8842235e-07
1.3947094e-05
-5.3591689e-07
1.3918277e-05
-5.8207368e-07
1.3887481e-05
-6.2710339e-07
1.3854732e-05
-6.7121078e-07
1.3820046e-05
-7.1455982e-07
1.378344e-05
-7.572906e-07
1.3744924e-05
-7.9952199e-07
1.3704505e-05
-8.4135186e-07
1.3662188e-05
-8.8285998e-07
1.3617975e-05
-9.2411039e-07
1.3571866e-05
-9.6515398e-07
1.3523862e-05
-1.0060267e-06
1.3473961e-05
-1.046753e-06
1.342216e-05
-1.0873452e-06
1.336846e-05
-1.1278043e-06
1.3312859e-05
-1.1681213e-06
1.3255358e-05
-1.2082755e-06
1.319596e-05
-1.2482372e-06
1.3134667e-05
-1.2879665e-06
1.3071486e-05
-1.3274136e-06
1.3006428e-05
-1.3665184e-06
1.2939504e-05
-1.4052115e-06
1.2870731e-05
-1.4434129e-06
1.2800129e-05
-1.4810322e-06
1.2727724e-05
-1.5179702e-06
1.2653546e-05
-1.5541156e-06
1.2577631e-05
-1.5893472e-06
1.2500022e-05
-1.623534e-06
1.2420767e-05
-1.656534e-06
1.2339922e-05
-1.6881952e-06
1.225755e-05
-1.7183552e-06
1.2173723e-05
-1.7468413e-06
1.2088521e-05
-1.7734704e-06
1.2002034e-05
-1.7980504e-06
1.191436e-05
-1.8203792e-06
1.1825607e-05
-1.8402458e-06
1.1735896e-05
-1.8574298e-06
1.1645356e-05
-1.8717066e-06
1.1554135e-05
-1.8828375e-06
1.1462381e-05
-1.8906026e-06
1.1370254e-05
-1.894777e-06
1.1277919e-05
-1.8952091e-06
1.1185644e-05
-1.8911852e-06
1.1093338e-05
-1.8838504e-06
1.1001624e-05
-1.8707446e-06
1.0910735e-05
-1.8527048e-06
1.0820147e-05
-1.831619e-06
1.0730721e-05
-1.8040109e-06
1.0643046e-05
-1.769572e-06
1.0556892e-05
-1.7303429e-06
1.0472502e-05
-1.6855756e-06
1.0390362e-05
-1.6341763e-06
1.0310789e-05
-1.5761849e-06
1.0234113e-05
-1.5116237e-06
1.0160748e-05
-1.4402177e-06
1.0090933e-05
-1.362248e-06
1.0024931e-05
-1.2778097e-06
9.9630714e-06
-1.1867367e-06
9.9057087e-06
-1.0889038e-06
9.8532043e-06
-9.8428499e-07
9.8059183e-06
-8.7292602e-07
9.7642059e-06
-7.5492865e-07
9.7284166e-06
-6.3044037e-07
9.6988946e-06
-4.9964752e-07
9.6759791e-06
-3.6277334e-07
9.6600029e-06
-2.2008063e-07
9.6512794e-06
-7.1869184e-08
9.6500813e-06
8.1511786e-08
9.6566696e-06
2.3967825e-07
9.6713109e-06
4.0219337e-07
9.6942748e-06
5.6861093e-07
9.7258221e-06
7.3847309e-07
9.7661981e-06
9.1129268e-07
9.8156237e-06
1.0865546e-06
9.8742902e-06
1.2637174e-06
9.9423582e-06
1.442216e-06
1.0019957e-05
1.621465e-06
1.0107188e-05
1.8008629e-06
1.020412e-05
1.9797985e-06
1.0310798e-05
2.1576565e-06
1.0427231e-05
2.3338227e-06
1.0553396e-05
2.5076886e-06
1.0689228e-05
2.678655e-06
1.083463e-05
2.846135e-06
1.0989473e-05
3.0095585e-06
1.1153609e-05
3.1683779e-06
1.1326879e-05
3.3220743e-06
1.1509126e-05
3.4701695e-06
1.1700188e-05
3.612219e-06
1.1899903e-05
3.7478547e-06
1.2108068e-05
3.8766746e-06
1.2324484e-05
3.9985775e-06
1.2548819e-05
4.1125883e-06
1.2780861e-05
4.2212401e-06
1.3019757e-05
4.3134403e-06
4.4321787e-06
1.3267147e-05
1.3584872e-05
-1.1785446e-07
1.357425e-05
-1.5574615e-07
1.3561112e-05
-2.1295557e-07
1.354556e-05
-2.656878e-07
1.3527889e-05
-3.1776825e-07
1.3508128e-05
-3.6877234e-07
1.3486307e-05
-4.1758914e-07
1.346248e-05
-4.6459585e-07
1.343669e-05
-5.1012696e-07
1.3408969e-05
-5.5435203e-07
1.3379344e-05
-5.974789e-07
1.3347841e-05
-6.3970715e-07
1.3314476e-05
-6.8119537e-07
1.3279265e-05
-7.2207946e-07
1.3242218e-05
-7.6247483e-07
1.3203342e-05
-8.0247566e-07
1.3162641e-05
-8.4215936e-07
1.3120119e-05
-8.8158823e-07
1.3075775e-05
-9.2081045e-07
1.3029611e-05
-9.5986204e-07
1.2981623e-05
-9.9876575e-07
1.2931813e-05
-1.0375347e-06
1.2880178e-05
-1.0761694e-06
1.2826718e-05
-1.1146615e-06
1.2771435e-05
-1.1529918e-06
1.2714329e-05
-1.191132e-06
1.2655407e-05
-1.2290441e-06
1.2594674e-05
-1.2666806e-06
1.253214e-05
-1.3039842e-06
1.2467817e-05
-1.3408887e-06
1.2401722e-05
-1.3773175e-06
1.2333875e-05
-1.4131851e-06
1.22643e-05
-1.4483954e-06
1.2193028e-05
-1.4828433e-06
1.2120093e-05
-1.5164127e-06
1.2045537e-05
-1.5489782e-06
1.1969408e-05
-1.5804048e-06
1.189176e-05
-1.6105469e-06
1.1812655e-05
-1.6392498e-06
1.1732161e-05
-1.6663482e-06
1.1650359e-05
-1.6916676e-06
1.1567333e-05
-1.7150248e-06
1.1483181e-05
-1.7362268e-06
1.1398007e-05
-1.755072e-06
1.1311928e-05
-1.7713512e-06
1.1225071e-05
-1.7848493e-06
1.1137576e-05
-1.7953428e-06
1.1049589e-05
-1.8026153e-06
1.0961267e-05
-1.8064556e-06
1.0872768e-05
-1.80671e-06
1.0784345e-05
-1.8027615e-06
1.0695962e-05
-1.7954682e-06
1.0608126e-05
-1.7829077e-06
1.0521061e-05
-1.7656398e-06
1.0434468e-05
-1.7450266e-06
1.0348986e-05
-1.718529e-06
1.0265128e-05
-1.6857136e-06
1.0182822e-05
-1.6480374e-06
1.010229e-05
-1.6050437e-06
1.0023957e-05
-1.555843e-06
9.9481379e-06
-1.5003658e-06
9.8751428e-06
-1.4386286e-06
9.8053477e-06
-1.3704226e-06
9.7390167e-06
-1.295917e-06
9.6764111e-06
-1.2152041e-06
9.6178444e-06
-1.12817e-06
9.5636534e-06
-1.0347128e-06
9.5141811e-06
-9.3481265e-07
9.4697704e-06
-8.2851538e-07
9.4307595e-06
-7.1591767e-07
9.3974805e-06
-5.9716141e-07
9.370259e-06
-4.7242606e-07
9.3494142e-06
-3.4192849e-07
9.335254e-06
-2.0592042e-07
9.3280852e-06
-6.4700368e-08
9.3282142e-06
8.1382714e-08
9.3359272e-06
2.3196534e-07
9.3514796e-06
3.8664096e-07
9.3751034e-06
5.4498713e-07
9.4070074e-06
7.0656906e-07
9.4473828e-06
8.7091722e-07
9.4964043e-06
1.0375331e-06
9.5542272e-06
1.2058945e-06
9.6209871e-06
1.3754561e-06
9.6967973e-06
1.5456548e-06
9.7817449e-06
1.7159153e-06
9.8758894e-06
1.885654e-06
9.9792615e-06
2.0542844e-06
1.0091862e-05
2.2212219e-06
1.0213662e-05
2.3858892e-06
1.0344597e-05
2.5477194e-06
1.0484571e-05
2.706161e-06
1.063345e-05
2.8606796e-06
1.0791066e-05
3.010762e-06
1.0957222e-05
3.1559181e-06
1.1131703e-05
3.2956892e-06
1.1314278e-05
3.4296432e-06
1.1504723e-05
3.5574099e-06
1.1702804e-05
3.6785942e-06
1.1908295e-05
3.7930867e-06
1.2120933e-05
3.8999499e-06
1.2340534e-05
4.0016385e-06
1.2566354e-05
4.0876208e-06
4.1984293e-06
1.2800103e-05
1.308758e-05
-1.0945957e-07
1.3077354e-05
-1.4551692e-07
1.3064691e-05
-2.0029386e-07
1.3049718e-05
-2.5071428e-07
1.3032715e-05
-3.0076548e-07
1.3013703e-05
-3.4976068e-07
1.299271e-05
-3.9659576e-07
1.2969789e-05
-4.4167506e-07
1.294498e-05
-4.8531736e-07
1.2918313e-05
-5.2768531e-07
1.2889817e-05
-5.6898288e-07
1.2859515e-05
-6.0940435e-07
1.2827423e-05
-6.4910414e-07
1.2793557e-05
-6.8821349e-07
1.2757926e-05
-7.2684407e-07
1.2720538e-05
-7.650877e-07
1.2681397e-05
-8.0301857e-07
1.2640506e-05
-8.4069699e-07
1.2597866e-05
-8.7817047e-07
1.2553477e-05
-9.1547256e-07
1.2507338e-05
-9.5262665e-07
1.2459447e-05
-9.8964458e-07
1.2409806e-05
-1.026528e-06
1.2358413e-05
-1.0632687e-06
1.230527e-05
-1.0998486e-06
1.2250379e-05
-1.1362411e-06
1.2193745e-05
-1.1724098e-06
1.2135373e-05
-1.2083094e-06
1.2075275e-05
-1.2438857e-06
1.2013461e-05
-1.2790753e-06
1.1949949e-05
-1.313805e-06
1.1884757e-05