/*--------------------------------*- C++ -*----------------------------------*\
| =========                 |                                                 |
| \\      /  F ield         | OpenFOAM: The Open Source CFD Toolbox           |
|  \\    /   O peration     | Version:  2406                                  |
|   \\  /    A nd           | Website:  www.openfoam.com                      |
|    \\/     M anipulation  |                                                 |
\*---------------------------------------------------------------------------*/
FoamFile
{
    version     2.0;
    format      ascii;
    arch        "LSB;label=32;scalar=64";
    class       volScalarField;
    location    "1600";
    object      pMean;
}
// * * * * * * * * * * * * * * * * * * * * * * * * * * * * * * * * * * * * * //

dimensions      [1 -1 -2 0 0 0 0];

internalField   nonuniform List<scalar> 
132739
(
1.0030397
1.0030372
1.0030497
1.0030681
1.0030896
1.003115
1.0031447
1.0031786
1.0032162
1.0032578
1.003303
1.003352
1.0034046
1.0034607
1.0035204
1.0035835
1.0036501
1.00372
1.0037933
1.00387
1.00395
1.0040332
1.0041196
1.0042092
1.004302
1.0043979
1.0044968
1.0045988
1.0047038
1.0048116
1.0049223
1.0050357
1.0051519
1.0052706
1.0053919
1.0055156
1.0056415
1.0057697
1.0059
1.0060322
1.0061662
1.0063019
1.0064391
1.0065777
1.0067175
1.0068584
1.0070002
1.0071427
1.0072857
1.0074292
1.0075728
1.0077164
1.0078598
1.0080028
1.0081452
1.0082868
1.0084271
1.0085663
1.0087041
1.0088402
1.0089742
1.0091068
1.0092371
1.0093648
1.00949
1.0096124
1.0097317
1.0098474
1.0099596
1.0100683
1.0101728
1.0102728
1.0103682
1.0104583
1.010543
1.0106217
1.0106938
1.010759
1.0108165
1.010866
1.0109066
1.0109378
1.0109588
1.0109689
1.0109672
1.0109529
1.010925
1.0108828
1.0108252
1.0107516
1.0106608
1.010552
1.0104244
1.010277
1.0101091
1.0099199
1.0097086
1.0094747
1.0092179
1.0089372
1.008634
1.0083067
1.0079642
1.0075992
1.0030404
1.0030383
1.003051
1.0030693
1.0030908
1.0031162
1.0031459
1.0031796
1.0032173
1.0032588
1.003304
1.0033529
1.0034054
1.0034615
1.003521
1.0035841
1.0036506
1.0037205
1.0037937
1.0038703
1.0039501
1.0040332
1.0041195
1.0042091
1.0043017
1.0043975
1.0044963
1.0045981
1.0047029
1.0048106
1.0049211
1.0050344
1.0051504
1.005269
1.00539
1.0055135
1.0056393
1.0057672
1.0058972
1.0060292
1.0061629
1.0062983
1.0064352
1.0065735
1.0067129
1.0068533
1.0069946
1.0071366
1.007279
1.0074217
1.0075646
1.0077073
1.0078498
1.0079917
1.008133
1.0082732
1.0084123
1.00855
1.0086864
1.008821
1.0089534
1.009084
1.009212
1.0093373
1.0094599
1.0095797
1.0096963
1.0098092
1.0099183
1.0100234
1.0101242
1.0102202
1.0103113
1.0103971
1.0104772
1.0105513
1.010619
1.0106797
1.0107331
1.0107787
1.0108158
1.0108439
1.0108623
1.0108704
1.0108675
1.010853
1.010826
1.0107859
1.0107317
1.0106628
1.0105784
1.0104776
1.0103597
1.0102239
1.0100695
1.009896
1.0097026
1.0094888
1.0092541
1.0089977
1.0087195
1.0084173
1.0080899
1.0077348
1.0030411
1.0030393
1.0030521
1.0030704
1.0030919
1.0031173
1.0031471
1.0031809
1.0032186
1.0032601
1.0033053
1.0033543
1.0034069
1.003463
1.0035227
1.0035858
1.0036524
1.0037223
1.0037957
1.0038723
1.0039523
1.0040355
1.0041219
1.0042116
1.0043043
1.0044002
1.0044992
1.0046012
1.0047062
1.004814
1.0049247
1.0050381
1.0051543
1.005273
1.0053943
1.0055179
1.0056438
1.005772
1.0059021
1.0060342
1.0061681
1.0063036
1.0064406
1.006579
1.0067184
1.0068589
1.0070001
1.007142
1.0072842
1.0074267
1.0075692
1.0077115
1.0078535
1.0079948
1.0081353
1.0082748
1.0084133
1.0085503
1.0086856
1.0088191
1.0089503
1.0090793
1.0092057
1.0093291
1.0094495
1.0095668
1.0096806
1.0097905
1.0098964
1.0099981
1.0100953
1.0101875
1.0102745
1.010356
1.0104315
1.0105008
1.0105632
1.0106184
1.010666
1.0107053
1.010736
1.0107575
1.0107692
1.0107705
1.0107608
1.0107394
1.0107057
1.0106589
1.0105985
1.0105236
1.0104337
1.010328
1.0102058
1.0100665
1.0099094
1.0097339
1.0095395
1.0093256
1.0090919
1.0088379
1.0085631
1.0082689
1.0079502
1.0076247
1.0030416
1.0030402
1.0030532
1.0030714
1.003093
1.0031184
1.0031481
1.0031819
1.0032196
1.0032611
1.0033063
1.0033553
1.0034078
1.0034639
1.0035236
1.0035867
1.0036532
1.0037232
1.0037965
1.0038731
1.003953
1.0040362
1.0041226
1.0042122
1.004305
1.0044008
1.0044998
1.0046017
1.0047066
1.0048145
1.0049251
1.0050385
1.0051546
1.0052733
1.0053945
1.005518
1.0056439
1.005772
1.005902
1.006034
1.0061678
1.0063032
1.00644
1.0065782
1.0067175
1.0068577
1.0069987
1.0071402
1.0072821
1.0074242
1.0075663
1.007708
1.0078494
1.00799
1.0081297
1.0082685
1.0084059
1.0085417
1.0086758
1.0088079
1.0089376
1.009065
1.0091895
1.009311
1.0094292
1.0095442
1.0096554
1.0097627
1.0098657
1.0099643
1.0100581
1.0101467
1.01023
1.0103075
1.010379
1.010444
1.0105021
1.010553
1.0105963
1.0106313
1.0106577
1.0106749
1.0106824
1.0106795
1.0106656
1.0106403
1.0106027
1.0105523
1.0104885
1.0104105
1.0103178
1.0102096
1.0100854
1.0099447
1.0097868
1.0096112
1.0094174
1.0092051
1.0089738
1.0087233
1.0084529
1.0081638
1.0078524
1.0075255
1.003042
1.0030411
1.0030542
1.0030723
1.0030939
1.0031194
1.0031491
1.0031829
1.0032206
1.0032621
1.0033074
1.0033563
1.0034089
1.003465
1.0035247
1.0035878
1.0036544
1.0037244
1.0037977
1.0038744
1.0039543
1.0040375
1.004124
1.0042136
1.0043064
1.0044023
1.0045013
1.0046033
1.0047083
1.0048162
1.0049269
1.0050403
1.0051565
1.0052752
1.0053964
1.0055201
1.005646
1.005774
1.0059041
1.0060362
1.0061699
1.0063053
1.0064421
1.0065802
1.0067194
1.0068595
1.0070004
1.0071417
1.0072834
1.0074252
1.007567
1.0077084
1.0078493
1.0079894
1.0081285
1.0082666
1.0084032
1.0085381
1.0086712
1.0088021
1.0089307
1.0090565
1.0091795
1.0092993
1.0094157
1.0095286
1.0096376
1.0097424
1.0098429
1.0099386
1.0100295
1.010115
1.010195
1.010269
1.0103368
1.010398
1.0104522
1.0104989
1.0105377
1.0105682
1.01059
1.0106026
1.0106055
1.0105981
1.0105799
1.0105504
1.0105089
1.0104549
1.0103878
1.0103071
1.0102121
1.0101023
1.0099771
1.0098361
1.0096787
1.0095044
1.0093128
1.0091036
1.0088764
1.008631
1.0083667
1.0080841
1.0077816
1.0074598
1.0030423
1.0030419
1.0030551
1.0030732
1.0030948
1.0031203
1.00315
1.0031838
1.0032215
1.003263
1.0033082
1.0033572
1.0034097
1.0034659
1.0035255
1.0035886
1.0036552
1.0037252
1.0037985
1.0038751
1.0039551
1.0040383
1.0041247
1.0042144
1.0043071
1.004403
1.004502
1.004604
1.0047089
1.0048168
1.0049275
1.0050409
1.005157
1.0052757
1.0053969
1.0055205
1.0056464
1.0057744
1.0059045
1.0060364
1.0061701
1.0063054
1.0064421
1.0065801
1.0067191
1.006859
1.0069997
1.0071408
1.0072822
1.0074237
1.007565
1.007706
1.0078464
1.007986
1.0081245
1.0082618
1.0083976
1.0085317
1.0086637
1.0087935
1.0089208
1.0090453
1.0091667
1.0092849
1.0093995
1.0095104
1.0096173
1.0097199
1.0098179
1.009911
1.009999
1.0100816
1.0101585
1.0102292
1.0102936
1.0103513
1.0104018
1.0104448
1.0104799
1.0105067
1.0105247
1.0105336
1.0105327
1.0105216
1.0104998
1.0104668
1.0104221
1.010365
1.0102952
1.0102119
1.0101148
1.0100034
1.009877
1.0097353
1.0095778
1.0094042
1.009214
1.0090069
1.0087826
1.008541
1.0082817
1.008005
1.0077099
1.0073975
1.0030426
1.0030427
1.0030559
1.003074
1.0030956
1.0031211
1.0031508
1.0031846
1.0032223
1.0032638
1.0033091
1.003358
1.0034106
1.0034667
1.0035263
1.0035895
1.003656
1.003726
1.0037993
1.003876
1.0039559
1.0040391
1.0041256
1.0042152
1.004308
1.0044039
1.0045029
1.0046049
1.0047098
1.0048177
1.0049284
1.0050418
1.0051579
1.0052767
1.0053978
1.0055214
1.0056473
1.0057753
1.0059053
1.0060372
1.0061708
1.0063061
1.0064427
1.0065806
1.0067195
1.0068593
1.0069997
1.0071406
1.0072818
1.007423
1.0075641
1.0077047
1.0078447
1.0079837
1.0081217
1.0082584
1.0083935
1.0085267
1.0086579
1.0087866
1.0089128
1.0090361
1.0091562
1.0092729
1.0093859
1.0094951
1.0096001
1.0097007
1.0097965
1.0098873
1.0099729
1.0100529
1.010127
1.0101949
1.0102563
1.0103108
1.0103581
1.0103977
1.0104294
1.0104526
1.0104671
1.0104723
1.0104679
1.0104533
1.0104282
1.010392
1.0103442
1.0102843
1.0102119
1.0101265
1.0100275
1.0099147
1.0097874
1.0096453
1.0094881
1.0093153
1.0091266
1.0089218
1.0087005
1.0084627
1.0082081
1.0079369
1.0076481
1.0073441
1.0030428
1.0030434
1.0030567
1.0030747
1.0030964
1.0031219
1.0031516
1.0031854
1.003223
1.0032645
1.0033098
1.0033587
1.0034113
1.0034674
1.003527
1.0035901
1.0036567
1.0037266
1.0037999
1.0038766
1.0039565
1.0040397
1.0041262
1.0042158
1.0043086
1.0044045
1.0045034
1.0046054
1.0047103
1.0048182
1.0049288
1.0050422
1.0051583
1.005277
1.0053981
1.0055217
1.0056475
1.0057754
1.0059054
1.0060372
1.0061708
1.0063059
1.0064424
1.0065802
1.006719
1.0068586
1.0069989
1.0071396
1.0072805
1.0074214
1.0075621
1.0077024
1.0078419
1.0079805
1.008118
1.008254
1.0083884
1.0085209
1.0086512
1.008779
1.0089041
1.0090262
1.0091451
1.0092604
1.009372
1.0094795
1.0095828
1.0096814
1.0097753
1.0098639
1.0099472
1.0100248
1.0100963
1.0101616
1.0102202
1.0102718
1.010316
1.0103527
1.0103812
1.0104014
1.0104128
1.0104149
1.0104075
1.0103899
1.0103619
1.0103229
1.0102726
1.0102103
1.0101358
1.0100486
1.0099482
1.0098342
1.0097063
1.0095641
1.0094071
1.0092352
1.0090481
1.0088454
1.008627
1.0083929
1.0081426
1.0078768
1.0075938
1.0072975
1.0030429
1.0030441
1.0030575
1.0030754
1.0030971
1.0031226
1.0031523
1.0031861
1.0032237
1.0032652
1.0033104
1.0033594
1.0034119
1.003468
1.0035276
1.0035908
1.0036573
1.0037272
1.0038005
1.0038772
1.0039571
1.0040403
1.0041267
1.0042163
1.0043091
1.004405
1.0045039
1.0046059
1.0047108
1.0048186
1.0049292
1.0050426
1.0051587
1.0052773
1.0053984
1.0055219
1.0056477
1.0057756
1.0059055
1.0060373
1.0061708
1.0063058
1.0064422
1.0065799
1.0067185
1.006858
1.0069981
1.0071386
1.0072793
1.0074199
1.0075603
1.0077002
1.0078394
1.0079776
1.0081145
1.00825
1.0083838
1.0085155
1.0086451
1.008772
1.0088962
1.0090173
1.009135
1.0092491
1.0093593
1.0094654
1.0095671
1.0096641
1.0097561
1.0098428
1.0099241
1.0099995
1.0100688
1.0101317
1.0101878
1.0102369
1.0102785
1.0103124
1.0103382
1.0103555
1.0103641
1.0103634
1.0103531
1.0103329
1.0103022
1.0102608
1.010208
1.0101437
1.0100673
1.0099784
1.0098767
1.0097618
1.0096333
1.0094909
1.0093344
1.0091634
1.0089777
1.0087771
1.0085615
1.0083307
1.0080845
1.0078236
1.0075459
1.0072567
1.003043
1.0030447
1.0030582
1.003076
1.0030977
1.0031232
1.0031529
1.0031867
1.0032243
1.0032658
1.003311
1.0033599
1.0034125
1.0034686
1.0035282
1.0035913
1.0036578
1.0037277
1.003801
1.0038776
1.0039575
1.0040407
1.0041271
1.0042167
1.0043094
1.0044053
1.0045042
1.0046061
1.004711
1.0048188
1.0049294
1.0050428
1.0051588
1.0052774
1.0053984
1.0055219
1.0056476
1.0057754
1.0059053
1.006037
1.0061704
1.0063053
1.0064416
1.0065791
1.0067176
1.0068569
1.0069969
1.0071371
1.0072776
1.007418
1.0075581
1.0076977
1.0078365
1.0079742
1.0081107
1.0082457
1.0083789
1.00851
1.0086388
1.0087649
1.0088882
1.0090083
1.009125
1.009238
1.009347
1.0094517
1.0095519
1.0096474
1.0097377
1.0098227
1.0099021
1.0099755
1.0100427
1.0101034
1.0101573
1.010204
1.0102433
1.0102747
1.010298
1.0103129
1.0103189
1.0103158
1.0103031
1.0102804
1.0102475
1.0102039
1.0101492
1.010083
1.010005
1.0099148
1.009812
1.0096964
1.0095676
1.0094252
1.0092692
1.0090991
1.0089149
1.0087163
1.0085032
1.0082756
1.0080332
1.0077769
1.0075043
1.0072215
1.003043
1.0030453
1.0030588
1.0030766
1.0030983
1.0031238
1.0031535
1.0031873
1.0032249
1.0032664
1.0033116
1.0033605
1.003413
1.0034691
1.0035287
1.0035917
1.0036583
1.0037282
1.0038014
1.003878
1.0039579
1.0040411
1.0041274
1.004217
1.0043097
1.0044055
1.0045044
1.0046063
1.0047112
1.0048189
1.0049295
1.0050428
1.0051588
1.0052773
1.0053983
1.0055217
1.0056474
1.0057752
1.0059049
1.0060365
1.0061698
1.0063047
1.0064409
1.0065783
1.0067166
1.0068558
1.0069955
1.0071356
1.0072759
1.007416
1.0075558
1.0076951
1.0078336
1.0079709
1.008107
1.0082415
1.0083741
1.0085046
1.0086327
1.0087581
1.0088806
1.0089999
1.0091156
1.0092275
1.0093354
1.0094389
1.0095379
1.0096319
1.0097208
1.0098042
1.0098819
1.0099536
1.0100189
1.0100777
1.0101295
1.0101742
1.0102113
1.0102406
1.0102617
1.0102743
1.010278
1.0102727
1.0102578
1.010233
1.0101981
1.0101525
1.010096
1.0100282
1.0099488
1.0098575
1.0097538
1.0096376
1.0095085
1.0093663
1.0092108
1.0090417
1.0088589
1.0086622
1.0084516
1.008227
1.0079882
1.0077361
1.0074682
1.0071912
1.003043
1.0030458
1.0030594
1.0030771
1.0030988
1.0031243
1.003154
1.0031878
1.0032254
1.0032669
1.0033121
1.0033609
1.0034134
1.0034695
1.0035291
1.0035921
1.0036586
1.0037285
1.0038017
1.0038783
1.0039582
1.0040413
1.0041277
1.0042172
1.0043099
1.0044057
1.0045045
1.0046064
1.0047112
1.0048189
1.0049294
1.0050427
1.0051586
1.0052771
1.0053981
1.0055214
1.005647
1.0057747
1.0059044
1.0060359
1.0061691
1.0063038
1.0064399
1.0065772
1.0067154
1.0068544
1.006994
1.0071339
1.0072739
1.0074138
1.0075534
1.0076923
1.0078305
1.0079674
1.0081031
1.0082371
1.0083692
1.0084992
1.0086267
1.0087514
1.0088732
1.0089916
1.0091065
1.0092175
1.0093243
1.0094267
1.0095245
1.0096173
1.0097048
1.0097867
1.0098629
1.009933
1.0099967
1.0100537
1.0101037
1.0101465
1.0101817
1.010209
1.0102281
1.0102387
1.0102405
1.0102332
1.0102164
1.0101897
1.010153
1.0101058
1.0100478
1.0099786
1.009898
1.0098057
1.0097014
1.0095847
1.0094555
1.0093136
1.0091586
1.0089905
1.0088091
1.0086143
1.0084059
1.0081842
1.0079487
1.0077006
1.0074371
1.0071654
1.003043
1.0030463
1.0030599
1.0030776
1.0030993
1.0031248
1.0031545
1.0031882
1.0032259
1.0032673
1.0033125
1.0033614
1.0034138
1.0034699
1.0035294
1.0035925
1.0036589
1.0037288
1.003802
1.0038786
1.0039584
1.0040415
1.0041278
1.0042173
1.00431
1.0044057
1.0045045
1.0046063
1.0047111
1.0048188
1.0049292
1.0050425
1.0051583
1.0052768
1.0053977
1.0055209
1.0056465
1.0057741
1.0059037
1.0060351
1.0061682
1.0063029
1.0064388
1.006576
1.006714
1.0068529
1.0069923
1.007132
1.0072718
1.0074115
1.0075508
1.0076895
1.0078273
1.0079639
1.0080992
1.0082328
1.0083645
1.0084939
1.0086208
1.008745
1.0088661
1.0089838
1.0090978
1.009208
1.0093139
1.0094153
1.009512
1.0096036
1.0096899
1.0097706
1.0098454
1.009914
1.0099762
1.0100316
1.0100801
1.0101212
1.0101546
1.0101802
1.0101975
1.0102064
1.0102064
1.0101973
1.0101788
1.0101505
1.0101122
1.0100636
1.0100042
1.0099339
1.0098523
1.0097592
1.0096543
1.0095373
1.0094081
1.0092664
1.0091121
1.0089449
1.0087649
1.0085719
1.0083658
1.0081467
1.0079144
1.0076699
1.0074105
1.0071437
1.0030429
1.0030468
1.0030604
1.003078
1.0030998
1.0031253
1.0031549
1.0031887
1.0032263
1.0032677
1.0033129
1.0033617
1.0034142
1.0034702
1.0035297
1.0035928
1.0036592
1.003729
1.0038022
1.0038787
1.0039585
1.0040416
1.0041279
1.0042173
1.00431
1.0044057
1.0045044
1.0046062
1.0047109
1.0048185
1.004929
1.0050421
1.0051579
1.0052763
1.0053972
1.0055204
1.0056458
1.0057733
1.0059029
1.0060342
1.0061672
1.0063017
1.0064376
1.0065746
1.0067125
1.0068512
1.0069904
1.00713
1.0072696
1.0074091
1.0075481
1.0076866
1.0078241
1.0079604
1.0080953
1.0082285
1.0083597
1.0084887
1.0086151
1.0087387
1.0088591
1.0089762
1.0090895
1.0091988
1.0093039
1.0094044
1.0095001
1.0095907
1.0096759
1.0097554
1.009829
1.0098963
1.0099572
1.0100112
1.0100582
1.0100978
1.0101297
1.0101537
1.0101695
1.0101767
1.0101752
1.0101646
1.0101446
1.0101149
1.0100752
1.0100253
1.0099649
1.0098935
1.0098111
1.0097173
1.009612
1.0094948
1.0093657
1.0092244
1.0090707
1.0089045
1.0087259
1.0085346
1.0083305
1.0081141
1.0078846
1.0076436
1.0073881
1.0071255
1.0030428
1.0030472
1.0030609
1.0030785
1.0031002
1.0031257
1.0031553
1.0031891
1.0032267
1.0032681
1.0033132
1.003362
1.0034145
1.0034705
1.00353
1.003593
1.0036594
1.0037292
1.0038024
1.0038789
1.0039586
1.0040417
1.0041279
1.0042173
1.0043099
1.0044056
1.0045043
1.004606
1.0047107
1.0048182
1.0049286
1.0050417
1.0051575
1.0052758
1.0053965
1.0055197
1.005645
1.0057725
1.0059019
1.0060332
1.0061661
1.0063005
1.0064362
1.0065731
1.0067109
1.0068494
1.0069885
1.0071279
1.0072673
1.0074065
1.0075454
1.0076835
1.0078208
1.0079568
1.0080914
1.0082242
1.008355
1.0084835
1.0086095
1.0087325
1.0088524
1.0089688
1.0090815
1.0091902
1.0092945
1.0093942
1.009489
1.0095786
1.0096628
1.0097413
1.0098138
1.0098799
1.0099396
1.0099924
1.010038
1.0100763
1.0101069
1.0101295
1.0101439
1.0101498
1.0101469
1.0101349
1.0101136
1.0100827
1.0100418
1.0099908
1.0099294
1.0098572
1.0097741
1.0096798
1.0095741
1.0094569
1.0093279
1.0091869
1.009034
1.0088688
1.0086914
1.0085018
1.0082998
1.0080857
1.0078591
1.0076212
1.0073693
1.0071107
1.0030427
1.0030476
1.0030613
1.0030788
1.0031006
1.0031261
1.0031557
1.0031894
1.003227
1.0032684
1.0033135
1.0033623
1.0034147
1.0034707
1.0035302
1.0035932
1.0036596
1.0037293
1.0038025
1.0038789
1.0039587
1.0040417
1.0041279
1.0042172
1.0043098
1.0044054
1.0045041
1.0046057
1.0047104
1.0048179
1.0049282
1.0050412
1.0051569
1.0052751
1.0053958
1.0055189
1.0056442
1.0057715
1.0059009
1.006032
1.0061648
1.0062991
1.0064347
1.0065715
1.0067092
1.0068476
1.0069865
1.0071256
1.0072649
1.0074039
1.0075425
1.0076805
1.0078174
1.0079532
1.0080874
1.0082199
1.0083504
1.0084785
1.008604
1.0087266
1.0088459
1.0089618
1.0090739
1.0091819
1.0092855
1.0093844
1.0094785
1.0095673
1.0096506
1.0097281
1.0097996
1.0098647
1.0099233
1.009975
1.0100195
1.0100566
1.0100859
1.0101073
1.0101205
1.0101251
1.010121
1.0101079
1.0100854
1.0100534
1.0100116
1.0099596
1.0098974
1.0098245
1.0097408
1.0096462
1.0095403
1.009423
1.0092942
1.0091537
1.0090014
1.0088373
1.0086612
1.0084732
1.0082731
1.0080613
1.0078373
1.0076024
1.0073539
1.0070989
1.0030426
1.003048
1.0030617
1.0030792
1.003101
1.0031264
1.0031561
1.0031897
1.0032273
1.0032687
1.0033138
1.0033626
1.003415
1.0034709
1.0035304
1.0035933
1.0036597
1.0037294
1.0038025
1.003879
1.0039587
1.0040416
1.0041278
1.0042171
1.0043096
1.0044052
1.0045038
1.0046054
1.00471
1.0048174
1.0049277
1.0050406
1.0051563
1.0052744
1.0053951
1.005518
1.0056432
1.0057705
1.0058997
1.0060308
1.0061635
1.0062977
1.0064332
1.0065698
1.0067074
1.0068456
1.0069844
1.0071234
1.0072624
1.0074013
1.0075397
1.0076774
1.0078141
1.0079496
1.0080835
1.0082157
1.0083458
1.0084736
1.0085986
1.0087208
1.0088397
1.008955
1.0090665
1.009174
1.0092769
1.0093752
1.0094685
1.0095566
1.0096391
1.0097158
1.0097864
1.0098506
1.0099082
1.0099589
1.0100024
1.0100384
1.0100667
1.0100871
1.0100991
1.0101027
1.0100976
1.0100834
1.0100599
1.010027
1.0099843
1.0099316
1.0098686
1.0097952
1.0097111
1.0096161
1.0095101
1.0093929
1.0092644
1.0091244
1.0089728
1.0088096
1.0086348
1.0084483
1.0082501
1.0080404
1.0078189
1.0075868
1.0073416
1.0070898
1.0030424
1.0030484
1.0030621
1.0030795
1.0031013
1.0031268
1.0031564
1.00319
1.0032276
1.0032689
1.003314
1.0033628
1.0034152
1.0034711
1.0035305
1.0035934
1.0036598
1.0037295
1.0038026
1.0038789
1.0039586
1.0040415
1.0041276
1.0042169
1.0043094
1.0044049
1.0045035
1.004605
1.0047095
1.0048169
1.0049271
1.00504
1.0051556
1.0052737
1.0053942
1.0055171
1.0056422
1.0057694
1.0058985
1.0060295
1.0061621
1.0062962
1.0064316
1.0065681
1.0067055
1.0068436
1.0069822
1.007121
1.0072599
1.0073986
1.0075368
1.0076743
1.0078107
1.007946
1.0080797
1.0082115
1.0083413
1.0084687
1.0085934
1.0087151
1.0088336
1.0089485
1.0090595
1.0091664
1.0092688
1.0093665
1.0094592
1.0095466
1.0096284
1.0097043
1.0097741
1.0098375
1.0098942
1.009944
1.0099866
1.0100218
1.0100491
1.0100685
1.0100796
1.0100823
1.0100762
1.0100611
1.0100369
1.0100031
1.0099597
1.0099063
1.0098428
1.0097689
1.0096845
1.0095893
1.0094833
1.0093662
1.009238
1.0090985
1.0089476
1.0087854
1.0086118
1.0084268
1.0082303
1.0080227
1.0078035
1.0075741
1.0073319
1.0070834
1.0030422
1.0030487
1.0030624
1.0030798
1.0031016
1.0031271
1.0031566
1.0031903
1.0032278
1.0032692
1.0033142
1.003363
1.0034153
1.0034712
1.0035306
1.0035935
1.0036598
1.0037295
1.0038025
1.0038789
1.0039585
1.0040414
1.0041275
1.0042167
1.0043091
1.0044046
1.0045031
1.0046046
1.0047091
1.0048164
1.0049265
1.0050393
1.0051548
1.0052728
1.0053933
1.0055161
1.0056411
1.0057682
1.0058973
1.0060281
1.0061606
1.0062946
1.0064299
1.0065662
1.0067035
1.0068415
1.0069799
1.0071186
1.0072574
1.0073958
1.0075338
1.0076711
1.0078074
1.0079424
1.0080758
1.0082074
1.0083369
1.008464
1.0085883
1.0087097
1.0088278
1.0089422
1.0090528
1.0091592
1.0092611
1.0093583
1.0094504
1.0095371
1.0096183
1.0096936
1.0097627
1.0098253
1.0098813
1.0099303
1.0099721
1.0100064
1.010033
1.0100516
1.0100619
1.0100637
1.0100568
1.010041
1.010016
1.0099816
1.0099375
1.0098836
1.0098196
1.0097454
1.0096607
1.0095654
1.0094594
1.0093426
1.0092147
1.0090758
1.0089257
1.0087644
1.008592
1.0084084
1.0082136
1.0080079
1.007791
1.007564
1.0073246
1.0070791
1.0030419
1.003049
1.0030628
1.0030801
1.0031019
1.0031273
1.0031569
1.0031905
1.003228
1.0032694
1.0033144
1.0033631
1.0034155
1.0034713
1.0035307
1.0035936
1.0036598
1.0037295
1.0038025
1.0038788
1.0039584
1.0040412
1.0041273
1.0042165
1.0043088
1.0044042
1.0045027
1.0046041
1.0047085
1.0048158
1.0049258
1.0050386
1.005154
1.005272
1.0053923
1.0055151
1.00564
1.005767
1.005896
1.0060267
1.0061591
1.006293
1.0064281
1.0065644
1.0067015
1.0068394
1.0069777
1.0071162
1.0072548
1.0073931
1.0075309
1.007668
1.007804
1.0079388
1.008072
1.0082033
1.0083325
1.0084593
1.0085834
1.0087044
1.0088221
1.0089362
1.0090464
1.0091523
1.0092538
1.0093504
1.009442
1.0095283
1.0096088
1.0096835
1.009752
1.009814
1.0098693
1.0099177
1.0099588
1.0099924
1.0100182
1.0100361
1.0100457
1.0100468
1.0100392
1.0100228
1.0099971
1.0099622
1.0099176
1.0098632
1.0097989
1.0097244
1.0096396
1.0095443
1.0094384
1.0093217
1.0091943
1.0090559
1.0089066
1.0087463
1.008575
1.0083928
1.0081996
1.0079958
1.0077809
1.0075563
1.0073195
1.0070769
1.0030417
1.0030493
1.0030631
1.0030803
1.0031021
1.0031276
1.0031571
1.0031907
1.0032282
1.0032695
1.0033146
1.0033633
1.0034156
1.0034714
1.0035308
1.0035936
1.0036598
1.0037295
1.0038024
1.0038787
1.0039582
1.004041
1.004127
1.0042162
1.0043085
1.0044038
1.0045022
1.0046036
1.004708
1.0048152
1.0049251
1.0050378
1.0051532
1.005271
1.0053914
1.005514
1.0056388
1.0057658
1.0058946
1.0060253
1.0061576
1.0062913
1.0064263
1.0065625
1.0066995
1.0068372
1.0069754
1.0071138
1.0072522
1.0073903
1.007528
1.0076649
1.0078007
1.0079353
1.0080682
1.0081993
1.0083283
1.0084548
1.0085786
1.0086993
1.0088167
1.0089304
1.0090402
1.0091458
1.0092468
1.009343
1.0094342
1.0095199
1.0096
1.0096741
1.0097421
1.0098035
1.0098583
1.009906
1.0099465
1.0099795
1.0100047
1.0100219
1.0100309
1.0100314
1.0100233
1.0100063
1.0099801
1.0099447
1.0098997
1.009845
1.0097804
1.0097058
1.0096209
1.0095256
1.0094198
1.0093034
1.0091764
1.0090386
1.0088901
1.0087307
1.0085606
1.0083797
1.008188
1.007986
1.0077731
1.0075507
1.0073164
1.0070765
1.0030415
1.0030496
1.0030633
1.0030805
1.0031024
1.0031278
1.0031573
1.0031909
1.0032284
1.0032697
1.0033147
1.0033634
1.0034157
1.0034715
1.0035308
1.0035936
1.0036598
1.0037294
1.0038023
1.0038786
1.0039581
1.0040408
1.0041267
1.0042159
1.0043081
1.0044034
1.0045018
1.0046031
1.0047074
1.0048145
1.0049244
1.005037
1.0051523
1.0052701
1.0053903
1.0055129
1.0056376
1.0057645
1.0058932
1.0060238
1.006156
1.0062896
1.0064245
1.0065605
1.0066974
1.006835
1.006973
1.0071113
1.0072496
1.0073875
1.007525
1.0076617
1.0077974
1.0079318
1.0080645
1.0081954
1.0083241
1.0084504
1.0085739
1.0086943
1.0088114
1.0089248
1.0090343
1.0091395
1.0092402
1.009336
1.0094267
1.009512
1.0095917
1.0096653
1.0097328
1.0097938
1.009848
1.0098952
1.0099351
1.0099676
1.0099923
1.010009
1.0100174
1.0100175
1.0100089
1.0099914
1.0099648
1.009929
1.0098837
1.0098287
1.009764
1.0096892
1.0096043
1.0095091
1.0094035
1.0092875
1.0091609
1.0090237
1.0088759
1.0087175
1.0085484
1.0083688
1.0081787
1.0079783
1.0077673
1.007547
1.0073151
1.0070776
1.0030412
1.0030498
1.0030636
1.0030808
1.0031026
1.003128
1.0031575
1.0031911
1.0032286
1.0032698
1.0033148
1.0033635
1.0034157
1.0034715
1.0035308
1.0035936
1.0036598
1.0037293
1.0038022
1.0038784
1.0039579
1.0040406
1.0041265
1.0042155
1.0043077
1.004403
1.0045013
1.0046025
1.0047068
1.0048138
1.0049237
1.0050362
1.0051514
1.0052691
1.0053893
1.0055117
1.0056364
1.0057632
1.0058918
1.0060223
1.0061544
1.0062879
1.0064227
1.0065586
1.0066954
1.0068328
1.0069707
1.0071088
1.0072469
1.0073848
1.0075221
1.0076586
1.0077941
1.0079283
1.0080609
1.0081915
1.00832
1.0084461
1.0085693
1.0086895
1.0088063
1.0089194
1.0090286
1.0091335
1.0092338
1.0093293
1.0094197
1.0095046
1.0095838
1.0096571
1.0097241
1.0097847
1.0098384
1.0098852
1.0099247
1.0099567
1.0099809
1.0099972
1.0100052
1.0100048
1.0099958
1.0099779
1.009951
1.0099149
1.0098694
1.0098142
1.0097493
1.0096745
1.0095897
1.0094946
1.0093893
1.0092736
1.0091475
1.009011
1.0088639
1.0087064
1.0085384
1.00836
1.0081713
1.0079725
1.0077633
1.007545
1.0073153
1.0070801
1.003041
1.0030501
1.0030638
1.0030809
1.0031028
1.0031282
1.0031577
1.0031913
1.0032287
1.0032699
1.0033149
1.0033635
1.0034158
1.0034715
1.0035308
1.0035936
1.0036597
1.0037292
1.0038021
1.0038782
1.0039576
1.0040403
1.0041262
1.0042152
1.0043073
1.0044025
1.0045008
1.004602
1.0047061
1.0048131
1.0049229
1.0050354
1.0051505
1.0052681
1.0053882
1.0055106
1.0056352
1.0057618
1.0058904
1.0060208
1.0061527
1.0062862
1.0064209
1.0065566
1.0066933
1.0068306
1.0069684
1.0071064
1.0072443
1.007382
1.0075192
1.0076556
1.0077909
1.0079249
1.0080573
1.0081878
1.008316
1.0084419
1.0085649
1.0086848
1.0088014
1.0089143
1.0090232
1.0091278
1.0092278
1.009323
1.009413
1.0094976
1.0095765
1.0096494
1.0097161
1.0097762
1.0098296
1.009876
1.0099151
1.0099467
1.0099705
1.0099864
1.009994
1.0099933
1.009984
1.0099658
1.0099387
1.0099023
1.0098566
1.0098013
1.0097364
1.0096616
1.0095768
1.009482
1.0093769
1.0092616
1.0091361
1.0090001
1.0088538
1.0086972
1.0085302
1.0083531
1.0081657
1.0079684
1.007761
1.0075445
1.0073169
1.0070839
1.0030407
1.0030503
1.003064
1.0030811
1.0031029
1.0031283
1.0031578
1.0031914
1.0032288
1.00327
1.003315
1.0033636
1.0034158
1.0034716
1.0035308
1.0035935
1.0036596
1.0037291
1.0038019
1.003878
1.0039574
1.00404
1.0041258
1.0042148
1.0043069
1.004402
1.0045002
1.0046014
1.0047055
1.0048124
1.0049221
1.0050345
1.0051496
1.0052671
1.0053871
1.0055094
1.0056339
1.0057605
1.0058889
1.0060192
1.0061511
1.0062844
1.006419
1.0065547
1.0066912
1.0068284
1.006966
1.0071039
1.0072417
1.0073793
1.0075163
1.0076525
1.0077877
1.0079215
1.0080537
1.008184
1.0083121
1.0084378
1.0085606
1.0086803
1.0087966
1.0089093
1.0090179
1.0091223
1.0092221
1.009317
1.0094067
1.009491
1.0095696
1.0096422
1.0097085
1.0097684
1.0098214
1.0098675
1.0099062
1.0099375
1.009961
1.0099766
1.0099839
1.0099829
1.0099733
1.0099549
1.0099276
1.0098911
1.0098452
1.0097899
1.009725
1.0096502
1.0095656
1.009471
1.0093663
1.0092514
1.0091263
1.008991
1.0088455
1.0086897
1.0085238
1.0083478
1.0081617
1.0079659
1.0077601
1.0075454
1.0073198
1.0070888
1.0030404
1.0030505
1.0030642
1.0030813
1.0031031
1.0031285
1.003158
1.0031915
1.0032289
1.0032701
1.0033151
1.0033636
1.0034158
1.0034715
1.0035308
1.0035934
1.0036595
1.003729
1.0038017
1.0038778
1.0039572
1.0040397
1.0041255
1.0042144
1.0043064
1.0044015
1.0044997
1.0046008
1.0047048
1.0048117
1.0049213
1.0050336
1.0051486
1.0052661
1.005386
1.0055082
1.0056326
1.0057591
1.0058875
1.0060177
1.0061494
1.0062827
1.0064171
1.0065527
1.0066891
1.0068262
1.0069637
1.0071015
1.0072392
1.0073766
1.0075135
1.0076495
1.0077846
1.0079182
1.0080503
1.0081804
1.0083083
1.0084338
1.0085564
1.0086759
1.0087921
1.0089045
1.0090129
1.009117
1.0092166
1.0093112
1.0094007
1.0094848
1.0095631
1.0096354
1.0097015
1.009761
1.0098138
1.0098596
1.0098981
1.009929
1.0099523
1.0099676
1.0099747
1.0099735
1.0099637
1.0099451
1.0099176
1.009881
1.0098351
1.0097798
1.0097149
1.0096403
1.0095559
1.0094615
1.0093571
1.0092427
1.0091182
1.0089835
1.0088387
1.0086838
1.0085189
1.008344
1.0081592
1.0079648
1.0077606
1.0075475
1.0073239
1.0070947
1.0030402
1.0030507
1.0030644
1.0030814
1.0031032
1.0031286
1.0031581
1.0031916
1.003229
1.0032702
1.0033151
1.0033637
1.0034158
1.0034715
1.0035307
1.0035934
1.0036594
1.0037288
1.0038016
1.0038776
1.0039569
1.0040394
1.0041251
1.004214
1.004306
1.004401
1.0044991
1.0046002
1.0047041
1.0048109
1.0049205
1.0050328
1.0051476
1.0052651
1.0053849
1.005507
1.0056314
1.0057577
1.005886
1.0060161
1.0061478
1.0062809
1.0064153
1.0065507
1.0066871
1.006824
1.0069614
1.007099
1.0072366
1.0073739
1.0075106
1.0076466
1.0077815
1.007915
1.0080469
1.0081769
1.0083046
1.0084299
1.0085523
1.0086717
1.0087876
1.0088999
1.0090081
1.009112
1.0092113
1.0093058
1.0093951
1.0094789
1.009557
1.0096291
1.0096949
1.0097542
1.0098067
1.0098523
1.0098905
1.0099213
1.0099443
1.0099594
1.0099664
1.009965
1.009955
1.0099364
1.0099088
1.0098721
1.0098262
1.0097709
1.0097061
1.0096317
1.0095474
1.0094534
1.0093494
1.0092354
1.0091114
1.0089774
1.0088333
1.0086793
1.0085153
1.0083415
1.008158
1.0079649
1.0077621
1.0075507
1.0073289
1.0071014
1.0030399
1.0030508
1.0030645
1.0030816
1.0031034
1.0031288
1.0031582
1.0031917
1.0032291
1.0032703
1.0033151
1.0033637
1.0034158
1.0034715
1.0035307
1.0035933
1.0036593
1.0037287
1.0038014
1.0038774
1.0039566
1.0040391
1.0041248
1.0042136
1.0043055
1.0044005
1.0044985
1.0045995
1.0047034
1.0048102
1.0049197
1.0050319
1.0051467
1.005264
1.0053838
1.0055058
1.0056301
1.0057564
1.0058846
1.0060146
1.0061461
1.0062792
1.0064134
1.0065488
1.006685
1.0068219
1.0069591
1.0070966
1.0072341
1.0073712
1.0075079
1.0076437
1.0077784
1.0079118
1.0080436
1.0081734
1.008301
1.0084261
1.0085484
1.0086676
1.0087834
1.0088954
1.0090035
1.0091072
1.0092063
1.0093006
1.0093897
1.0094733
1.0095512
1.0096231
1.0096887
1.0097478
1.0098002
1.0098455
1.0098836
1.0099142
1.0099371
1.009952
1.0099588
1.0099573
1.0099472
1.0099285
1.0099009
1.0098642
1.0098183
1.0097631
1.0096985
1.0096242
1.0095402
1.0094465
1.0093429
1.0092294
1.0091059
1.0089726
1.0088293
1.0086761
1.008513
1.0083403
1.0081579
1.0079661
1.0077647
1.0075548
1.0073348
1.0071089
1.0030396
1.003051
1.0030647
1.0030817
1.0031035
1.0031289
1.0031583
1.0031918
1.0032292
1.0032703
1.0033152
1.0033637
1.0034158
1.0034714
1.0035306
1.0035932
1.0036591
1.0037285
1.0038012
1.0038771
1.0039564
1.0040388
1.0041244
1.0042132
1.0043051
1.0044
1.004498
1.0045989
1.0047027
1.0048094
1.0049188