/*--------------------------------*- C++ -*----------------------------------*\
| =========                 |                                                 |
| \\      /  F ield         | OpenFOAM: The Open Source CFD Toolbox           |
|  \\    /   O peration     | Version:  2406                                  |
|   \\  /    A nd           | Website:  www.openfoam.com                      |
|    \\/     M anipulation  |                                                 |
\*---------------------------------------------------------------------------*/
FoamFile
{
    version     2.0;
    format      ascii;
    arch        "LSB;label=32;scalar=64";
    class       volScalarField;
    location    "1600";
    object      rho;
}
// * * * * * * * * * * * * * * * * * * * * * * * * * * * * * * * * * * * * * //

dimensions      [1 -3 0 0 0 0 0];

internalField   nonuniform List<scalar> 
132739
(
1.0020508
1.0020613
1.0020753
1.0020888
1.002106
1.0021269
1.0021504
1.0021767
1.0022059
1.0022377
1.0022722
1.0023092
1.0023489
1.002391
1.0024356
1.0024826
1.0025321
1.0025839
1.0026381
1.0026946
1.0027534
1.0028145
1.0028779
1.0029434
1.0030112
1.0030812
1.0031532
1.0032274
1.0033036
1.0033818
1.0034619
1.003544
1.0036278
1.0037135
1.0038009
1.0038899
1.0039805
1.0040725
1.004166
1.0042607
1.0043566
1.0044537
1.0045517
1.0046507
1.0047504
1.0048507
1.0049516
1.0050529
1.0051545
1.0052563
1.0053581
1.00546
1.0055614
1.0056625
1.0057627
1.0058631
1.0059614
1.006059
1.0061557
1.0062504
1.0063424
1.0064352
1.0065255
1.0066142
1.0067004
1.0067844
1.0068657
1.0069444
1.0070201
1.0070926
1.0071617
1.0072271
1.0072885
1.0073455
1.0073977
1.0074449
1.0074865
1.0075222
1.0075515
1.0075741
1.0075887
1.0075954
1.0075934
1.0075818
1.0075596
1.0075263
1.007481
1.007423
1.0073515
1.0072658
1.007165
1.0070484
1.0069152
1.0067646
1.0065959
1.0064083
1.0062012
1.0059737
1.0057259
1.0054562
1.0051674
1.0048542
1.0045317
1.0041856
1.0020512
1.0020622
1.0020763
1.0020897
1.0021069
1.0021278
1.0021513
1.0021776
1.0022067
1.0022385
1.0022729
1.0023099
1.0023495
1.0023915
1.002436
1.002483
1.0025324
1.0025841
1.0026382
1.0026946
1.0027533
1.0028143
1.0028775
1.002943
1.0030106
1.0030804
1.0031523
1.0032263
1.0033024
1.0033804
1.0034604
1.0035422
1.0036259
1.0037113
1.0037985
1.0038872
1.0039775
1.0040693
1.0041625
1.0042569
1.0043525
1.0044492
1.0045468
1.0046453
1.0047445
1.0048443
1.0049446
1.0050453
1.0051463
1.0052475
1.0053486
1.0054497
1.0055504
1.00565
1.0057498
1.0058484
1.005946
1.0060419
1.0061377
1.0062314
1.006323
1.0064139
1.0065021
1.0065882
1.0066721
1.0067538
1.0068328
1.0069089
1.0069819
1.0070515
1.0071176
1.0071797
1.0072377
1.0072912
1.0073398
1.0073833
1.0074213
1.0074538
1.0074802
1.0075002
1.0075131
1.0075187
1.0075164
1.0075053
1.0074849
1.0074545
1.0074133
1.0073608
1.0072961
1.0072186
1.0071274
1.007022
1.0069017
1.0067657
1.0066136
1.0064447
1.0062585
1.0060544
1.0058322
1.0055908
1.0053304
1.0050483
1.0047425
1.0044162
1.0020516
1.002063
1.0020772
1.0020906
1.0021078
1.0021287
1.0021523
1.0021786
1.0022077
1.0022395
1.002274
1.0023111
1.0023507
1.0023928
1.0024374
1.0024844
1.0025339
1.0025857
1.0026399
1.0026964
1.0027552
1.0028163
1.0028796
1.0029452
1.0030129
1.0030828
1.0031548
1.0032289
1.0033051
1.0033832
1.0034633
1.0035453
1.0036291
1.0037147
1.0038019
1.0038908
1.0039812
1.0040731
1.0041664
1.0042609
1.0043566
1.0044533
1.0045511
1.0046496
1.0047489
1.0048488
1.0049491
1.0050497
1.0051505
1.0052513
1.005352
1.0054525
1.0055526
1.0056519
1.005751
1.0058488
1.0059459
1.0060412
1.006136
1.006229
1.0063197
1.0064091
1.0064961
1.0065803
1.0066623
1.0067418
1.0068186
1.0068922
1.0069626
1.0070293
1.0070923
1.0071512
1.0072058
1.0072557
1.0073005
1.00734
1.0073737
1.0074013
1.0074227
1.0074367
1.0074438
1.0074434
1.0074345
1.0074168
1.0073897
1.0073528
1.0073054
1.007247
1.007177
1.0070947
1.0069995
1.0068906
1.0067674
1.0066293
1.0064757
1.0063059
1.0061195
1.0059161
1.0056952
1.0054567
1.0051996
1.0049272
1.0046292
1.004337
1.0020519
1.0020637
1.0020781
1.0020914
1.0021087
1.0021296
1.0021531
1.0021794
1.0022085
1.0022404
1.0022748
1.0023119
1.0023515
1.0023936
1.0024381
1.0024851
1.0025346
1.0025864
1.0026405
1.002697
1.0027557
1.0028168
1.0028801
1.0029456
1.0030133
1.0030832
1.0031551
1.0032292
1.0033053
1.0033834
1.0034634
1.0035453
1.003629
1.0037145
1.0038016
1.0038904
1.0039807
1.0040725
1.0041656
1.00426
1.0043556
1.0044522
1.0045497
1.004648
1.0047471
1.0048467
1.0049467
1.005047
1.0051474
1.0052478
1.0053481
1.0054478
1.0055473
1.005646
1.0057441
1.0058411
1.0059373
1.0060316
1.0061252
1.0062171
1.0063064
1.0063944
1.00648
1.0065624
1.0066425
1.00672
1.0067946
1.0068659
1.0069337
1.0069978
1.007058
1.007114
1.0071654
1.007212
1.0072535
1.0072895
1.0073199
1.0073443
1.0073625
1.0073737
1.007378
1.0073746
1.0073629
1.0073421
1.0073119
1.0072717
1.007221
1.0071593
1.0070861
1.0070008
1.006903
1.006792
1.0066673
1.0065283
1.0063745
1.0062053
1.0060203
1.0058191
1.0056011
1.0053665
1.0051138
1.0048461
1.0045564
1.004255
1.0020521
1.0020645
1.0020789
1.0020922
1.0021095
1.0021304
1.0021539
1.0021803
1.0022094
1.0022412
1.0022757
1.0023128
1.0023524
1.0023945
1.0024391
1.0024861
1.0025356
1.0025874
1.0026416
1.0026981
1.0027569
1.0028179
1.0028813
1.0029468
1.0030145
1.0030844
1.0031564
1.0032305
1.0033066
1.0033847
1.0034647
1.0035467
1.0036304
1.0037159
1.0038031
1.0038919
1.0039823
1.004074
1.0041672
1.0042615
1.0043571
1.0044536
1.0045511
1.0046494
1.0047484
1.0048478
1.0049477
1.0050478
1.005148
1.0052481
1.0053481
1.0054475
1.0055466
1.0056449
1.0057425
1.0058389
1.0059343
1.006028
1.0061206
1.0062113
1.0062997
1.0063863
1.0064704
1.0065516
1.0066301
1.0067058
1.0067785
1.0068478
1.0069134
1.0069753
1.007033
1.0070863
1.0071351
1.0071788
1.0072173
1.0072503
1.0072774
1.0072984
1.0073125
1.0073201
1.0073206
1.0073132
1.0072976
1.0072732
1.0072396
1.0071963
1.0071427
1.0070785
1.007003
1.0069158
1.0068164
1.0067044
1.0065792
1.0064405
1.0062877
1.0061205
1.0059384
1.0057409
1.0055277
1.0052988
1.005053
1.0047915
1.0045124
1.0042144
1.0020523
1.0020652
1.0020797
1.0020929
1.0021102
1.0021311
1.0021547
1.002181
1.0022101
1.002242
1.0022765
1.0023135
1.0023531
1.0023953
1.0024398
1.0024869
1.0025363
1.0025881
1.0026423
1.0026987
1.0027575
1.0028186
1.0028819
1.0029474
1.0030151
1.003085
1.0031569
1.003231
1.0033071
1.0033851
1.0034651
1.003547
1.0036307
1.0037162
1.0038033
1.0038921
1.0039823
1.004074
1.0041671
1.0042614
1.0043568
1.0044532
1.0045506
1.0046487
1.0047475
1.0048468
1.0049464
1.0050462
1.0051461
1.005246
1.0053455
1.0054446
1.0055432
1.0056409
1.0057378
1.0058336
1.0059282
1.0060211
1.0061127
1.0062024
1.0062898
1.006375
1.0064578
1.0065377
1.0066147
1.0066887
1.0067595
1.0068268
1.0068904
1.00695
1.0070054
1.0070563
1.0071024
1.0071434
1.0071791
1.0072091
1.0072333
1.0072514
1.0072627
1.0072675
1.007265
1.0072548
1.0072362
1.0072091
1.0071728
1.0071269
1.0070709
1.0070043
1.0069267
1.0068377
1.0067367
1.0066233
1.0064972
1.006358
1.0062053
1.0060388
1.0058581
1.0056629
1.0054529
1.005228
1.0049875
1.004732
1.0044604
1.004173
1.0020524
1.0020659
1.0020805
1.0020936
1.0021109
1.0021319
1.0021554
1.0021817
1.0022109
1.0022427
1.0022772
1.0023143
1.0023539
1.002396
1.0024406
1.0024876
1.0025371
1.0025889
1.002643
1.0026995
1.0027583
1.0028194
1.0028827
1.0029482
1.0030159
1.0030858
1.0031577
1.0032318
1.0033079
1.0033859
1.0034659
1.0035478
1.0036315
1.0037169
1.003804
1.0038927
1.003983
1.0040746
1.0041676
1.0042619
1.0043572
1.0044536
1.0045508
1.0046488
1.0047475
1.0048466
1.0049461
1.0050457
1.0051454
1.0052449
1.0053442
1.0054429
1.0055411
1.0056384
1.0057348
1.00583
1.005924
1.0060162
1.0061069
1.0061957
1.0062822
1.0063663
1.0064479
1.0065266
1.0066022
1.0066748
1.006744
1.0068096
1.0068714
1.0069291
1.0069824
1.0070311
1.007075
1.0071137
1.0071469
1.0071744
1.0071962
1.0072109
1.0072199
1.007222
1.0072168
1.0072037
1.0071822
1.0071522
1.0071131
1.0070646
1.0070063
1.0069376
1.0068582
1.0067677
1.0066655
1.0065514
1.0064249
1.0062856
1.0061333
1.0059677
1.0057884
1.0055954
1.0053882
1.005167
1.0049311
1.0046812
1.0044156
1.0041372
1.0020525
1.0020665
1.0020812
1.0020943
1.0021116
1.0021325
1.0021561
1.0021824
1.0022115
1.0022434
1.0022779
1.0023149
1.0023545
1.0023967
1.0024412
1.0024883
1.0025377
1.0025895
1.0026437
1.0027001
1.0027589
1.0028199
1.0028832
1.0029487
1.0030164
1.0030863
1.0031582
1.0032322
1.0033083
1.0033863
1.0034662
1.0035481
1.0036317
1.0037171
1.0038041
1.0038928
1.003983
1.0040746
1.0041675
1.0042617
1.0043569
1.0044532
1.0045503
1.0046482
1.0047467
1.0048457
1.0049449
1.0050444
1.0051438
1.005243
1.005342
1.0054404
1.0055381
1.005635
1.0057309
1.0058255
1.0059188
1.0060104
1.0061003
1.0061882
1.0062737
1.0063569
1.0064374
1.0065149
1.0065892
1.0066604
1.0067281
1.0067921
1.0068522
1.006908
1.0069594
1.0070061
1.0070478
1.0070843
1.0071152
1.0071403
1.0071596
1.0071722
1.0071786
1.0071782
1.0071705
1.0071551
1.0071315
1.0070993
1.0070582
1.0070077
1.0069474
1.0068771
1.0067961
1.0067043
1.0066012
1.0064864
1.0063597
1.0062206
1.0060688
1.0059042
1.0057265
1.0055355
1.005331
1.0051131
1.0048813
1.0046363
1.0043761
1.0041056
1.0020525
1.0020671
1.0020819
1.0020948
1.0021122
1.0021332
1.0021567
1.002183
1.0022122
1.002244
1.0022785
1.0023155
1.0023551
1.0023972
1.0024418
1.0024888
1.0025382
1.00259
1.0026441
1.0027006
1.0027594
1.0028204
1.0028837
1.0029491
1.0030168
1.0030866
1.0031585
1.0032325
1.0033086
1.0033866
1.0034665
1.0035483
1.0036319
1.0037173
1.0038044
1.003893
1.0039831
1.0040747
1.0041675
1.0042616
1.0043568
1.004453
1.00455
1.0046478
1.0047461
1.0048449
1.004944
1.0050433
1.0051425
1.0052415
1.0053401
1.0054382
1.0055356
1.005632
1.0057275
1.0058216
1.0059143
1.0060053
1.0060945
1.0061816
1.0062663
1.0063486
1.0064281
1.0065045
1.0065778
1.0066477
1.0067141
1.0067766
1.0068352
1.0068894
1.0069391
1.006984
1.0070238
1.0070584
1.0070873
1.0071104
1.0071275
1.0071381
1.0071423
1.0071396
1.0071293
1.0071114
1.0070855
1.0070511
1.007008
1.0069557
1.0068938
1.006822
1.0067398
1.006647
1.0065431
1.0064279
1.006301
1.0061622
1.0060112
1.0058476
1.0056715
1.0054825
1.0052805
1.0050657
1.0048374
1.004597
1.0043414
1.0040779
1.0020525
1.0020677
1.0020825
1.0020954
1.0021128
1.0021337
1.0021573
1.0021836
1.0022127
1.0022446
1.002279
1.0023161
1.0023557
1.0023978
1.0024423
1.0024893
1.0025387
1.0025905
1.0026446
1.002701
1.0027598
1.0028208
1.002884
1.0029495
1.0030171
1.0030869
1.0031588
1.0032328
1.0033088
1.0033868
1.0034667
1.0035485
1.003632
1.0037174
1.0038044
1.0038929
1.003983
1.0040745
1.0041673
1.0042613
1.0043564
1.0044525
1.0045494
1.0046471
1.0047453
1.0048439
1.0049428
1.0050419
1.0051408
1.0052396
1.0053379
1.0054357
1.0055327
1.0056288
1.0057238
1.0058175
1.0059096
1.006
1.0060885
1.0061749
1.0062589
1.0063402
1.0064188
1.0064943
1.0065665
1.0066353
1.0067004
1.0067616
1.0068187
1.0068715
1.0069196
1.0069628
1.0070009
1.0070337
1.0070607
1.007082
1.0070965
1.0071057
1.0071081
1.0071034
1.0070913
1.0070715
1.0070436
1.0070075
1.0069625
1.0069085
1.0068451
1.0067719
1.0066887
1.006595
1.0064906
1.0063751
1.0062483
1.0061098
1.0059595
1.0057972
1.0056226
1.0054357
1.0052362
1.0050244
1.0047996
1.0045633
1.0043121
1.0040544
1.0020525
1.0020682
1.002083
1.0020959
1.0021133
1.0021343
1.0021578
1.0021841
1.0022133
1.0022451
1.0022795
1.0023166
1.0023562
1.0023983
1.0024428
1.0024898
1.0025392
1.002591
1.0026451
1.0027015
1.0027602
1.0028212
1.0028845
1.0029499
1.0030175
1.0030873
1.0031592
1.0032331
1.0033091
1.003387
1.0034669
1.0035486
1.0036322
1.0037174
1.0038044
1.0038929
1.0039829
1.0040743
1.0041671
1.004261
1.004356
1.004452
1.0045488
1.0046463
1.0047444
1.0048429
1.0049416
1.0050405
1.0051392
1.0052377
1.0053358
1.0054333
1.00553
1.0056257
1.0057203
1.0058135
1.0059052
1.0059951
1.006083
1.0061687
1.006252
1.0063326
1.0064103
1.0064849
1.0065561
1.0066239
1.0066879
1.0067479
1.0068038
1.0068552
1.0069019
1.0069436
1.0069802
1.0070114
1.0070367
1.0070563
1.0070694
1.0070765
1.0070771
1.0070705
1.0070566
1.0070351
1.0070055
1.0069677
1.0069212
1.0068658
1.0068011
1.0067268
1.0066426
1.0065482
1.0064432
1.0063275
1.0062008
1.0060628
1.0059133
1.0057521
1.0055791
1.0053942
1.0051972
1.0049883
1.0047668
1.0045345
1.0042874
1.004035
1.0020525
1.0020687
1.0020836
1.0020964
1.0021138
1.0021348
1.0021583
1.0021846
1.0022138
1.0022456
1.00228
1.0023171
1.0023567
1.0023987
1.0024433
1.0024903
1.0025396
1.0025914
1.0026455
1.0027019
1.0027606
1.0028216
1.0028848
1.0029502
1.0030178
1.0030876
1.0031594
1.0032333
1.0033093
1.0033872
1.003467
1.0035487
1.0036322
1.0037174
1.0038043
1.0038927
1.0039827
1.0040741
1.0041667
1.0042605
1.0043555
1.0044513
1.004548
1.0046454
1.0047434
1.0048417
1.0049403
1.0050389
1.0051375
1.0052358
1.0053336
1.0054308
1.0055272
1.0056226
1.0057168
1.0058096
1.0059008
1.0059902
1.0060775
1.0061626
1.0062452
1.0063251
1.0064021
1.0064758
1.0065462
1.006613
1.006676
1.0067349
1.0067896
1.0068398
1.0068852
1.0069256
1.0069608
1.0069905
1.0070143
1.0070324
1.0070439
1.0070495
1.0070484
1.0070402
1.0070246
1.0070015
1.0069704
1.0069311
1.0068832
1.0068266
1.0067608
1.0066856
1.0066006
1.0065057
1.0064004
1.0062847
1.0061581
1.0060206
1.0058719
1.0057119
1.0055404
1.0053575
1.0051628
1.0049567
1.0047384
1.0045099
1.0042667
1.0040193
1.0020524
1.0020692
1.0020841
1.0020968
1.0021143
1.0021353
1.0021588
1.0021851
1.0022142
1.0022461
1.0022805
1.0023175
1.0023571
1.0023992
1.0024437
1.0024907
1.0025401
1.0025918
1.0026459
1.0027023
1.002761
1.0028219
1.0028851
1.0029505
1.0030181
1.0030878
1.0031596
1.0032335
1.0033094
1.0033873
1.0034671
1.0035487
1.0036322
1.0037173
1.0038042
1.0038926
1.0039824
1.0040737
1.0041663
1.0042601
1.0043549
1.0044507
1.0045472
1.0046445
1.0047423
1.0048405
1.0049389
1.0050374
1.0051358
1.0052338
1.0053314
1.0054284
1.0055245
1.0056196
1.0057134
1.0058058
1.0058966
1.0059855
1.0060723
1.0061569
1.0062389
1.0063181
1.0063944
1.0064674
1.0065369
1.0066028
1.0066649
1.0067229
1.0067765
1.0068256
1.0068699
1.0069091
1.006943
1.0069713
1.0069939
1.0070105
1.0070208
1.0070249
1.0070223
1.0070127
1.0069958
1.0069712
1.0069387
1.0068981
1.0068491
1.0067913
1.0067245
1.0066484
1.0065627
1.0064673
1.0063618
1.006246
1.0061197
1.0059827
1.0058349
1.005676
1.005506
1.0053249
1.0051325
1.004929
1.0047138
1.0044888
1.0042494
1.0040067
1.0020524
1.0020696
1.0020845
1.0020973
1.0021147
1.0021357
1.0021593
1.0021856
1.0022147
1.0022465
1.002281
1.002318
1.0023575
1.0023996
1.0024441
1.0024911
1.0025405
1.0025922
1.0026462
1.0027026
1.0027613
1.0028222
1.0028854
1.0029508
1.0030183
1.003088
1.0031598
1.0032336
1.0033095
1.0033873
1.0034671
1.0035487
1.0036321
1.0037172
1.003804
1.0038923
1.0039821
1.0040733
1.0041658
1.0042595
1.0043542
1.0044499
1.0045464
1.0046435
1.0047412
1.0048393
1.0049375
1.0050358
1.005134
1.0052319
1.0053292
1.0054259
1.0055218
1.0056165
1.0057101
1.0058021
1.0058925
1.005981
1.0060673
1.0061514
1.0062328
1.0063114
1.006387
1.0064593
1.0065281
1.0065933
1.0066545
1.0067115
1.0067642
1.0068123
1.0068555
1.0068936
1.0069264
1.0069535
1.0069751
1.0069897
1.0069993
1.0070024
1.0069986
1.0069877
1.0069694
1.0069437
1.00691
1.0068683
1.0068181
1.0067594
1.0066917
1.0066149
1.0065287
1.0064328
1.006327
1.0062112
1.0060852
1.0059487
1.0058017
1.005644
1.0054754
1.0052961
1.0051058
1.0049048
1.0046924
1.0044707
1.0042349
1.0039966
1.0020523
1.0020701
1.002085
1.0020977
1.0021151
1.0021362
1.0021597
1.002186
1.0022151
1.0022469
1.0022814
1.0023184
1.002358
1.0024
1.0024445
1.0024915
1.0025408
1.0025925
1.0026466
1.0027029
1.0027616
1.0028225
1.0028856
1.002951
1.0030185
1.0030882
1.0031599
1.0032337
1.0033096
1.0033873
1.003467
1.0035486
1.003632
1.003717
1.0038037
1.003892
1.0039818
1.0040729
1.0041653
1.0042589
1.0043536
1.0044491
1.0045455
1.0046425
1.0047401
1.004838
1.0049361
1.0050342
1.0051322
1.0052299
1.005327
1.0054235
1.0055191
1.0056136
1.0057068
1.0057985
1.0058885
1.0059766
1.0060625
1.006146
1.0062269
1.006305
1.00638
1.0064517
1.0065198
1.0065842
1.0066446
1.0067009
1.0067527
1.0067999
1.0068421
1.0068793
1.006911
1.0069371
1.0069575
1.0069713
1.0069796
1.0069816
1.0069766
1.0069646
1.0069453
1.0069184
1.0068837
1.006841
1.00679
1.0067305
1.0066621
1.0065847
1.006498
1.0064019
1.006296
1.0061803
1.0060545
1.0059185
1.0057722
1.0056155
1.0054483
1.0052706
1.0050823
1.0048837
1.0046739
1.0044554
1.0042228
1.0039887
1.0020522
1.0020705
1.0020854
1.002098
1.0021156
1.0021366
1.0021601
1.0021864
1.0022155
1.0022474
1.0022818
1.0023188
1.0023584
1.0024004
1.0024449
1.0024918
1.0025412
1.0025929
1.0026469
1.0027032
1.0027619
1.0028228
1.0028859
1.0029512
1.0030187
1.0030883
1.00316
1.0032338
1.0033096
1.0033873
1.003467
1.0035485
1.0036318
1.0037168
1.0038035
1.0038917
1.0039814
1.0040724
1.0041648
1.0042583
1.0043528
1.0044483
1.0045446
1.0046415
1.0047389
1.0048367
1.0049346
1.0050326
1.0051304
1.0052279
1.0053248
1.0054211
1.0055164
1.0056106
1.0057035
1.0057949
1.0058846
1.0059723
1.0060578
1.0061409
1.0062213
1.0062989
1.0063733
1.0064444
1.0065119
1.0065757
1.0066354
1.0066909
1.006742
1.0067883
1.0068297
1.0068659
1.0068968
1.0069219
1.0069413
1.0069542
1.0069615
1.0069623
1.0069564
1.0069434
1.0069232
1.0068954
1.0068598
1.0068163
1.0067645
1.0067043
1.0066354
1.0065575
1.0064705
1.0063742
1.0062683
1.0061527
1.0060272
1.0058918
1.0057463
1.0055906
1.0054246
1.0052485
1.0050619
1.0048655
1.0046582
1.0044425
1.004213
1.0039826
1.002052
1.0020709
1.0020858
1.0020984
1.002116
1.002137
1.0021605
1.0021868
1.0022159
1.0022477
1.0022822
1.0023192
1.0023587
1.0024008
1.0024453
1.0024922
1.0025415
1.0025932
1.0026472
1.0027035
1.0027621
1.002823
1.0028861
1.0029514
1.0030188
1.0030884
1.0031601
1.0032338
1.0033096
1.0033873
1.0034669
1.0035484
1.0036316
1.0037166
1.0038032
1.0038913
1.0039809
1.0040719
1.0041642
1.0042576
1.0043521
1.0044475
1.0045436
1.0046404
1.0047377
1.0048354
1.0049332
1.005031
1.0051286
1.0052259
1.0053227
1.0054187
1.0055138
1.0056077
1.0057004
1.0057915
1.0058808
1.0059681
1.0060532
1.0061359
1.0062159
1.006293
1.0063669
1.0064375
1.0065044
1.0065676
1.0066267
1.0066815
1.0067318
1.0067774
1.006818
1.0068535
1.0068835
1.0069077
1.0069263
1.0069384
1.0069447
1.0069446
1.0069377
1.0069238
1.0069026
1.006874
1.0068377
1.0067934
1.006741
1.0066802
1.0066109
1.0065327
1.0064455
1.0063491
1.0062433
1.006128
1.006003
1.0058681
1.0057234
1.0055687
1.005404
1.0052293
1.0050445
1.0048501
1.0046451
1.004432
1.0042055
1.0039784
1.0020519
1.0020713
1.0020862
1.0020988
1.0021163
1.0021374
1.0021609
1.0021872
1.0022163
1.0022481
1.0022825
1.0023196
1.0023591
1.0024011
1.0024456
1.0024925
1.0025418
1.0025935
1.0026475
1.0027038
1.0027624
1.0028232
1.0028863
1.0029515
1.003019
1.0030885
1.0031602
1.0032339
1.0033096
1.0033872
1.0034668
1.0035482
1.0036314
1.0037163
1.0038028
1.0038909
1.0039805
1.0040714
1.0041636
1.0042569
1.0043513
1.0044466
1.0045426
1.0046393
1.0047365
1.004834
1.0049317
1.0050294
1.0051268
1.0052239
1.0053205
1.0054163
1.0055112
1.0056049
1.0056973
1.0057881
1.0058771
1.0059641
1.0060488
1.0061311
1.0062107
1.0062873
1.0063608
1.0064309
1.0064973
1.0065599
1.0066184
1.0066726
1.0067223
1.0067672
1.0068071
1.0068418
1.006871
1.0068946
1.0069123
1.0069236
1.0069292
1.0069282
1.0069204
1.0069057
1.0068838
1.0068546
1.0068176
1.0067728
1.0067198
1.0066586
1.0065888
1.0065103
1.0064229
1.0063265
1.0062208
1.0061057
1.0059812
1.005847
1.0057031
1.0055495
1.005386
1.0052129
1.0050298
1.0048372
1.0046344
1.0044239
1.0042
1.0039758
1.0020517
1.0020717
1.0020865
1.0020991
1.0021167
1.0021377
1.0021613
1.0021876
1.0022167
1.0022485
1.0022829
1.0023199
1.0023594
1.0024015
1.0024459
1.0024928
1.0025421
1.0025938
1.0026478
1.002704
1.0027626
1.0028234
1.0028864
1.0029517
1.0030191
1.0030886
1.0031602
1.0032339
1.0033095
1.0033871
1.0034667
1.003548
1.0036312
1.003716
1.0038025
1.0038905
1.00398
1.0040709
1.004163
1.0042562
1.0043505
1.0044457
1.0045417
1.0046382
1.0047353
1.0048327
1.0049302
1.0050277
1.005125
1.005222
1.0053184
1.005414
1.0055086
1.0056021
1.0056942
1.0057847
1.0058734
1.0059601
1.0060445
1.0061265
1.0062057
1.0062819
1.0063549
1.0064245
1.0064905
1.0065526
1.0066105
1.0066642
1.0067133
1.0067576
1.0067968
1.0068309
1.0068594
1.0068823
1.0068992
1.00691
1.0069148
1.0069131
1.0069046
1.0068891
1.0068665
1.0068365
1.0067988
1.0067534
1.0066999
1.0066383
1.0065682
1.0064895
1.006402
1.0063056
1.0062001
1.0060854
1.0059613
1.0058278
1.0056848
1.0055322
1.0053701
1.0051984
1.0050171
1.0048265
1.0046259
1.0044176
1.0041963
1.0039749
1.0020516
1.0020721
1.0020869
1.0020994
1.0021171
1.0021381
1.0021616
1.0021879
1.0022171
1.0022489
1.0022833
1.0023203
1.0023598
1.0024018
1.0024463
1.0024932
1.0025424
1.0025941
1.002648
1.0027043
1.0027628
1.0028236
1.0028866
1.0029518
1.0030192
1.0030887
1.0031602
1.0032339
1.0033095
1.003387
1.0034665
1.0035478
1.0036309
1.0037157
1.0038021
1.0038901
1.0039795
1.0040703
1.0041623
1.0042555
1.0043497
1.0044448
1.0045406
1.0046371
1.0047341
1.0048313
1.0049287
1.0050261
1.0051232
1.00522
1.0053162
1.0054116
1.0055061
1.0055993
1.0056912
1.0057815
1.0058699
1.0059563
1.0060404
1.0061219
1.0062008
1.0062766
1.0063493
1.0064184
1.0064839
1.0065455
1.006603
1.0066562
1.0067047
1.0067485
1.0067871
1.0068206
1.0068485
1.0068708
1.006887
1.0068973
1.0069015
1.0068992
1.0068901
1.0068741
1.0068509
1.0068203
1.0067821
1.0067362
1.0066822
1.0066201
1.0065498
1.0064709
1.0063833
1.0062869
1.0061816
1.0060671
1.0059435
1.0058106
1.0056684
1.0055168
1.0053558
1.0051855
1.0050057
1.004817
1.0046184
1.0044125
1.0041938
1.0039752
1.0020514
1.0020724
1.0020872
1.0020997
1.0021174
1.0021384
1.002162
1.0021883
1.0022174
1.0022492
1.0022836
1.0023206
1.0023601
1.0024021
1.0024466
1.0024935
1.0025427
1.0025943
1.0026483
1.0027045
1.002763
1.0028238
1.0028868
1.002952
1.0030193
1.0030887
1.0031603
1.0032338
1.0033094
1.0033869
1.0034664
1.0035476
1.0036307
1.0037154
1.0038018
1.0038897
1.003979
1.0040697
1.0041617
1.0042548
1.0043489
1.0044439
1.0045396
1.004636
1.0047328
1.0048299
1.0049272
1.0050244
1.0051214
1.005218
1.0053141
1.0054093
1.0055035
1.0055966
1.0056882
1.0057782
1.0058663
1.0059524
1.0060362
1.0061175
1.006196
1.0062715
1.0063437
1.0064125
1.0064776
1.0065388
1.0065958
1.0066484
1.0066965
1.0067397
1.0067779
1.0068108
1.0068382
1.00686
1.0068756
1.0068853
1.006889
1.0068862
1.0068766
1.0068601
1.0068364
1.0068053
1.0067667
1.0067204
1.0066662
1.0066039
1.0065333
1.0064542
1.0063666
1.0062703
1.0061651
1.0060509
1.0059277
1.0057954
1.0056539
1.0055032
1.0053433
1.0051743
1.0049961
1.004809
1.0046124
1.0044085
1.0041921
1.003976
1.0020512
1.0020727
1.0020875
1.0021
1.0021177
1.0021388
1.0021623
1.0021886
1.0022177
1.0022495
1.002284
1.002321
1.0023605
1.0024025
1.0024469
1.0024938
1.002543
1.0025946
1.0026485
1.0027048
1.0027633
1.002824
1.002887
1.0029521
1.0030194
1.0030888
1.0031603
1.0032338
1.0033094
1.0033869
1.0034662
1.0035474
1.0036304
1.0037151
1.0038014
1.0038892
1.0039785
1.0040691
1.004161
1.004254
1.004348
1.0044429
1.0045386
1.0046348
1.0047316
1.0048286
1.0049257
1.0050228
1.0051196
1.005216
1.0053119
1.0054069
1.0055009
1.0055938
1.0056852
1.0057749
1.0058628
1.0059486
1.0060321
1.0061131
1.0061912
1.0062664
1.0063383
1.0064067
1.0064714
1.0065321
1.0065888
1.006641
1.0066886
1.0067313
1.006769
1.0068015
1.0068283
1.0068496
1.0068647
1.0068741
1.0068773
1.0068739
1.0068638
1.0068469
1.0068228
1.0067915
1.0067527
1.0067063
1.0066519
1.0065894
1.0065187
1.0064395
1.0063519
1.0062556
1.0061505
1.0060367
1.0059139
1.0057821
1.0056413
1.0054915
1.0053326
1.0051648
1.0049878
1.0048023
1.0046074
1.0044055
1.0041914
1.0039778
1.0020511
1.0020731
1.0020878
1.0021003
1.002118
1.0021391
1.0021626
1.002189
1.0022181
1.0022499
1.0022843
1.0023213
1.0023608
1.0024028
1.0024472
1.0024941
1.0025433
1.0025949
1.0026488
1.002705
1.0027635
1.0028242
1.0028871
1.0029522
1.0030195
1.0030889
1.0031603
1.0032338
1.0033093
1.0033868
1.0034661
1.0035472
1.0036302
1.0037148
1.003801
1.0038888
1.003978
1.0040686
1.0041603
1.0042533
1.0043472
1.004442
1.0045375
1.0046337
1.0047303
1.0048271
1.0049241
1.0050211
1.0051178
1.005214
1.0053097
1.0054045
1.0054983
1.0055909
1.0056821
1.0057716
1.0058593
1.0059448
1.006028
1.0061087
1.0061865
1.0062613
1.0063329
1.006401
1.0064653
1.0065257
1.0065819
1.0066337
1.0066809
1.0067233
1.0067605
1.0067925
1.0068189
1.0068398
1.0068544
1.0068634
1.0068662
1.0068624
1.0068519
1.0068345
1.00681
1.0067783
1.0067392
1.0066924
1.0066378
1.0065752
1.0065044
1.0064254
1.006338
1.0062419
1.0061373
1.0060238
1.0059016
1.0057704
1.0056304
1.0054814
1.0053235
1.0051567
1.0049811
1.0047971
1.0046038
1.0044036
1.0041915
1.0039799
1.0020509
1.0020734
1.002088
1.0021006
1.0021184
1.0021394
1.002163
1.0021893
1.0022184
1.0022502
1.0022846
1.0023216
1.0023611
1.0024031
1.0024476
1.0024944
1.0025436
1.0025952
1.0026491
1.0027053
1.0027637
1.0028244
1.0028873
1.0029524
1.0030196
1.003089
1.0031604
1.0032338
1.0033093
1.0033867
1.0034659
1.0035471
1.0036299
1.0037145
1.0038006
1.0038883
1.0039775
1.004068
1.0041597
1.0042525
1.0043463
1.0044411
1.0045365
1.0046325
1.004729
1.0048257
1.0049226
1.0050193
1.0051159
1.005212
1.0053074
1.0054021
1.0054957
1.0055881
1.005679
1.0057683
1.0058557
1.005941
1.0060239
1.0061043
1.0061818
1.0062563
1.0063276
1.0063953
1.0064593
1.0065193
1.0065752
1.0066267
1.0066735
1.0067154
1.0067523
1.0067839
1.0068099
1.0068304
1.0068446
1.0068533
1.0068557
1.0068516
1.0068407
1.0068229
1.0067981
1.006766
1.0067265
1.0066795
1.0066246
1.0065619
1.0064912
1.0064122
1.0063249
1.0062291
1.0061248
1.0060118
1.0058901
1.0057597
1.0056204
1.0054723
1.0053154
1.0051498
1.0049754
1.0047928
1.0046011
1.0044026
1.0041924
1.0039827
1.0020507
1.0020737
1.0020883
1.0021009
1.0021187
1.0021397
1.0021633
1.0021896
1.0022188
1.0022506
1.002285
1.002322
1.0023615
1.0024035
1.0024479
1.0024947
1.0025439
1.0025955
1.0026494
1.0027055
1.002764
1.0028246
1.0028875
1.0029525
1.0030197
1.0030891
1.0031604
1.0032338
1.0033093
1.0033866
1.0034658
1.0035469
1.0036297
1.0037142
1.0038003
1.0038879
1.003977
1.0040674
1.004159
1.0042518
1.0043455
1.0044401
1.0045354
1.0046313
1.0047276
1.0048242
1.0049209
1.0050175
1.0051139
1.0052098
1.0053051
1.0053996
1.005493
1.0055852
1.0056759
1.0057649
1.005852
1.0059371
1.0060197
1.0060998
1.0061771
1.0062513
1.0063223
1.0063897
1.0064534
1.0065131
1.0065686
1.0066197
1.0066662
1.0067078
1.0067443
1.0067756
1.0068012
1.0068213
1.0068352
1.0068436
1.0068457
1.0068412
1.00683
1.006812
1.0067869
1.0067546
1.006715
1.0066678
1.0066129
1.0065501
1.0064793
1.0064003
1.0063131
1.0062176
1.0061135
1.0060009
1.0058798
1.0057499
1.0056113
1.0054641
1.0053083
1.0051439
1.0049708
1.0047896
1.0045994
1.0044026
1.0041943
1.0039864
1.0020505
1.002074
1.0020886
1.0021011
1.002119
1.00214
1.0021636
1.00219
1.0022191
1.0022509
1.0022853
1.0023223
1.0023618
1.0024038
1.0024482
1.0024951
1.0025443
1.0025958
1.0026497
1.0027058
1.0027642
1.0028249
1.0028877
1.0029527
1.0030199
1.0030892
1.0031605
1.0032339
1.0033092
1.0033865
1.0034657
1.0035467
1.0036295
1.0037139
1.0037999
1.0038875
1.0039765
1.0040668
1.0041583
1.004251
1.0043446
1.0044391
1.0045343
1.0046301
1.0047262
1.0048227
1.0049192
1.0050157
1.0051119
1.0052076
1.0053027
1.005397
1.0054902
1.0055821
1.0056726
1.0057614
1.0058483
1.0059331
1.0060155
1.0060953
1.0061723
1.0062463
1.0063169
1.0063841
1.0064475
1.0065069
1.0065621
1.0066129
1.006659
1.0067003
1.0067365
1.0067674
1.0067927
1.0068125
1.0068261
1.0068342
1.0068361
1.0068313
1.0068198
1.0068015
1.0067762
1.0067437
1.0067038
1.0066564
1.0066014
1.0065386
1.0064679
1.006389
1.006302
1.0062067
1.006103
1.0059909
1.0058702
1.005741
1.0056031
1.0054568
1.0053019
1.0051386
1.0049667
1.0047869
1.0045983
1.0044031
1.0041966
1.0039904
1.0020504
1.0020742
1.0020888
1.0021014
1.0021193
1.0021403
1.0021639
1.0021903
1.0022194
1.0022513
1.0022857
1.0023227
1.0023622
1.0024042
1.0024486
1.0024954
1.0025446
1.0025961
1.00265
1.0027061
1.0027645
1.0028251
1.0028879
1.0029529
1.00302
1.0030893
1.0031606
1.0032339
1.0033092
1.0033865
1.0034656
1.0035465
1.0036292
1.0037136
1.0037996
1.0038871
1.003976
1.0040662
1.0041576
1.0042502
1.0043437
1.004438
1.0045331
1.0046288
1.0047248
1.0048211
1.0049175
1.0050138
1.0051098
1.0052053
1.0053002
1.0053943
1.0054873
1.005579
1.0056693
1.0057579
1.0058445
1.0059291
1.0060112
1.0060908
1.0061676
1.0062412
1.0063116
1.0063785
1.0064416
1.0065007
1.0065557
1.0066062
1.006652
1.006693
1.0067289
1.0067596
1.0067845
1.0068041
1.0068173
1.0068252
1.006827
1.006822
1.0068103
1.0067917
1.0067662
1.0067335
1.0066935
1.006646
1.0065909
1.0065281
1.0064574
1.0063786
1.0062918
1.0061967
1.0060933
1.0059816
1.0058614
1.0057328
1.0055957
1.0054501
1.0052961
1.0051337
1.004963
1.0047844
1.0045972
1.0044035
1.0041987
1.0039944
1.0020502
1.0020745
1.0020891
1.0021017
1.0021196
1.0021407
1.0021642
1.0021906
1.0022198
1.0022516
1.0022861
1.002323
1.0023626
1.0024045
1.0024489
1.0024958
1.0025449
1.0025965
1.0026503
1.0027064
1.0027648
1.0028253
1.0028881
1.0029531
1.0030202
1.0030894
1.0031607
1.003234
1.0033092
1.0033864
1.0034655
1.0035464
1.003629
1.0037133
1.0037992
1.0038866
1.0039754
1.0040656
1.0041569
1.0042493
1.0043427
1.004437
1.0045319
1.0046274
1.0047233
1.0048194
1.0049156
1.0050118
1.0051076
1.005203
1.0052977
1.0053915
1.0054843
1.0055758
1.0056659
1.0057542
1.0058407
1.005925
1.0060069
1.0060863
1.0061628
1.0062362
1.0063063
1.006373
1.0064358
1.0064947
1.0065494
1.0065996
1.0066452
1.006686
1.0067216
1.006752
1.0067767
1.006796
1.0068089
1.0068167
1.0068182
1.006813
1.0068011
1.0067825
1.0067568
1.0067239
1.0066838
1.0066363
1.0065811
1.0065183
1.0064476
1.006369
1.0062823
1.0061875
1.0060844
1.0059731
1.0058534
1.0057253
1.0055888
1.005444
1.0052908
1.0051294
1.0049597
1.0047823
1.0045964
1.0044041
1.0042009
1.0039981
1.00205
1.0020748
1.0020893
1.0021019
1.0021199
1.002141
1.0021646
1.002191
1.0022201
1.002252
1.0022864
1.0023234
1.0023629
1.0024049
1.0024493
1.0024961
1.0025453
1.0025968
1.0026506
1.0027067
1.0027651
1.0028256
1.0028884
1.0029533
1.0030204
1.0030895
1.0031608
1.003234
1.0033092