/*--------------------------------*- C++ -*----------------------------------*\
| =========                 |                                                 |
| \\      /  F ield         | OpenFOAM: The Open Source CFD Toolbox           |
|  \\    /   O peration     | Version:  2406                                  |
|   \\  /    A nd           | Website:  www.openfoam.com                      |
|    \\/     M anipulation  |                                                 |
\*---------------------------------------------------------------------------*/
FoamFile
{
    version     2.0;
    format      ascii;
    arch        "LSB;label=32;scalar=64";
    class       volScalarField;
    location    "16";
    object      nut;
}
// * * * * * * * * * * * * * * * * * * * * * * * * * * * * * * * * * * * * * //

dimensions      [0 2 -1 0 0 0 0];

internalField   nonuniform List<scalar> 
62344
(
1.0191294e-06
1.0115991e-06
1.027756e-06
1.0435723e-06
1.0282839e-06
9.8878562e-07
9.5042719e-07
9.2846305e-07
9.2367538e-07
9.3688029e-07
9.507476e-07
9.6159211e-07
9.6920676e-07
9.5820534e-07
9.4588324e-07
9.4272097e-07
9.2736407e-07
9.0656854e-07
9.0602076e-07
9.1579545e-07
9.3991583e-07
9.6872319e-07
9.8950966e-07
1.0075945e-06
1.0241745e-06
1.0560864e-06
1.0933099e-06
1.1306228e-06
1.1623845e-06
1.2159217e-06
1.3057425e-06
1.4122715e-06
1.5566282e-06
1.66635e-06
1.7986277e-06
1.9529395e-06
2.2154407e-06
2.5020406e-06
2.9530778e-06
3.2792976e-06
3.8585188e-06
4.5141859e-06
4.9577142e-06
5.9135972e-06
6.7669399e-06
8.555176e-06
1.0008118e-05
1.2716011e-05
1.5324806e-05
2.1828214e-05
2.7044161e-05
3.4964068e-05
4.1657471e-05
4.9501616e-05
6.3491094e-05
1.0187959e-06
1.0112002e-06
1.0271037e-06
1.0441487e-06
1.0302629e-06
9.9108562e-07
9.5052671e-07
9.2779788e-07
9.2170548e-07
9.3250211e-07
9.466108e-07
9.5815373e-07
9.6302977e-07
9.5643255e-07
9.4751056e-07
9.3640872e-07
9.2120882e-07
9.032607e-07
9.026322e-07
9.0961499e-07
9.2193981e-07
9.4840991e-07
9.7704827e-07
9.967186e-07
1.008893e-06
1.0379341e-06
1.0737364e-06
1.1048589e-06
1.1362787e-06
1.1909962e-06
1.2519722e-06
1.3345581e-06
1.4366625e-06
1.5183959e-06
1.6653055e-06
1.8106415e-06
2.0275535e-06
2.2535998e-06
2.626197e-06
3.0285333e-06
3.74524e-06
4.2324459e-06
5.0262662e-06
5.592851e-06
6.6794711e-06
7.3955997e-06
8.9479886e-06
9.9862659e-06
1.1581255e-05
1.3878322e-05
1.819148e-05
2.3508025e-05
3.1593043e-05
3.7966484e-05
5.2507922e-05
1.0186262e-06
1.0112893e-06
1.0274912e-06
1.0452681e-06
1.0340498e-06
9.9322139e-07
9.5265434e-07
9.2945722e-07
9.2283739e-07
9.3263049e-07
9.459381e-07
9.5941222e-07
9.6371564e-07
9.5637897e-07
9.4736803e-07
9.3831211e-07
9.2203754e-07
9.0324909e-07
8.999088e-07
9.0687448e-07
9.1679731e-07
9.3784403e-07
9.6628021e-07
9.8687071e-07
1.0021001e-06
1.0278729e-06
1.0642502e-06
1.0981474e-06
1.1356003e-06
1.1920365e-06
1.24806e-06
1.3319462e-06
1.4219972e-06
1.5022136e-06
1.6714155e-06
1.7981082e-06
1.9694502e-06
2.1461194e-06
2.481992e-06
2.8874313e-06
3.5266328e-06
4.1116411e-06
5.0385643e-06
5.7594904e-06
7.119263e-06
7.9453642e-06
9.5695695e-06
1.0637824e-05
1.2680417e-05
1.4234275e-05
1.7072944e-05
1.8995379e-05
2.3612449e-05
2.7465093e-05
3.6733538e-05
1.0184502e-06
1.0117672e-06
1.0276798e-06
1.0461071e-06
1.0360887e-06
9.9700473e-07
9.547305e-07
9.292972e-07
9.2328652e-07
9.3255932e-07
9.4568828e-07
9.5816093e-07
9.6537935e-07
9.5768097e-07
9.5275937e-07
9.4555385e-07
9.3295676e-07
9.094521e-07
9.0192086e-07
9.0925258e-07
9.2001032e-07
9.3773027e-07
9.6392801e-07
9.8860779e-07
1.0080616e-06
1.0316151e-06
1.0659099e-06
1.1020089e-06
1.1458344e-06
1.1985447e-06
1.2567475e-06
1.3369165e-06
1.4128032e-06
1.4916538e-06
1.6630454e-06
1.7898812e-06
1.9464533e-06
2.0765376e-06
2.3753823e-06
2.7294296e-06
3.3192641e-06
3.7878693e-06
4.6620833e-06
5.4208821e-06
6.8286808e-06
8.0024741e-06
1.0087688e-05
1.1365573e-05
1.3610689e-05
1.4969329e-05
1.7594008e-05
1.9164779e-05
2.2839946e-05
2.5474237e-05
3.0887237e-05
1.0182892e-06
1.0125595e-06
1.0282617e-06
1.0481023e-06
1.037795e-06
9.9900508e-07
9.5672502e-07
9.2940161e-07
9.2344232e-07
9.326987e-07
9.4494901e-07
9.5870278e-07
9.6541441e-07
9.5970504e-07
9.5045323e-07
9.4234391e-07
9.3342698e-07
9.0946031e-07
9.0074314e-07
9.0670165e-07
9.1845279e-07
9.3450798e-07
9.5724788e-07
9.7969076e-07
9.9899462e-07
1.0256476e-06
1.0604285e-06
1.0960936e-06
1.1383267e-06
1.1821633e-06
1.2395262e-06
1.312204e-06
1.3850142e-06
1.458607e-06
1.594048e-06
1.7034615e-06
1.8733537e-06
2.0295454e-06
2.3321485e-06
2.6912625e-06
3.2516403e-06
3.6776809e-06
4.5283096e-06
5.2287897e-06
6.4038626e-06
7.5463588e-06
9.6026569e-06
1.11394e-05
1.3797962e-05
1.5327357e-05
1.8560061e-05
2.0153224e-05
2.3559781e-05
2.566699e-05
2.9363985e-05
1.018336e-06
1.0124101e-06
1.0289104e-06
1.0488047e-06
1.040609e-06
1.0018486e-06
9.5869767e-07
9.3141703e-07
9.2496492e-07
9.3257456e-07
9.4488325e-07
9.612257e-07
9.6678056e-07
9.6365383e-07
9.5176559e-07
9.4571803e-07
9.3864804e-07
9.1671663e-07
9.0319834e-07
9.1219713e-07
9.2704282e-07
9.3694634e-07
9.5772031e-07
9.8017986e-07
1.004694e-06
1.0369448e-06
1.0670572e-06
1.0973641e-06
1.1343291e-06
1.1721758e-06
1.2267538e-06
1.2785946e-06
1.3471875e-06
1.4366879e-06
1.5581156e-06
1.6621716e-06
1.8601666e-06
2.0275357e-06
2.2992204e-06
2.6494235e-06
3.1181938e-06
3.469452e-06
4.2469562e-06
4.9241522e-06
5.8281634e-06
6.8928359e-06
9.0533202e-06
1.0444654e-05
1.2551697e-05
1.4738815e-05
1.8125229e-05
1.9825966e-05
2.3908211e-05
2.6472459e-05
3.0927501e-05
1.0183002e-06
1.0121546e-06
1.0294697e-06
1.05051e-06
1.0425567e-06
1.0060379e-06
9.6005902e-07
9.3189514e-07
9.2512115e-07
9.317035e-07
9.4498241e-07
9.6252921e-07
9.6641668e-07
9.63857e-07
9.5899891e-07
9.5185566e-07
9.4528825e-07
9.2382671e-07
9.0705154e-07
9.1275497e-07
9.2649967e-07
9.3425651e-07
9.5244531e-07
9.7604612e-07
1.0057291e-06
1.040337e-06
1.0677355e-06
1.0934336e-06
1.1231101e-06
1.1588909e-06
1.2066038e-06
1.2516939e-06
1.3199264e-06
1.4235617e-06
1.5385498e-06
1.6436868e-06
1.8599879e-06
2.0299251e-06
2.2366946e-06
2.6371734e-06
3.0076173e-06
3.3374865e-06
4.12394e-06
4.8292857e-06
5.5213054e-06
6.5289657e-06
8.6841894e-06
1.0179029e-05
1.1171921e-05
1.3894108e-05
1.5577228e-05
1.8202344e-05
2.2514256e-05
2.5343445e-05
3.066312e-05
1.0179581e-06
1.0123376e-06
1.0290282e-06
1.0514579e-06
1.0445509e-06
1.0070253e-06
9.6144454e-07
9.3302717e-07
9.2474417e-07
9.315744e-07
9.4516543e-07
9.6144858e-07
9.6805499e-07
9.6344347e-07
9.5824121e-07
9.4793988e-07
9.4327667e-07
9.2614605e-07
9.1313598e-07
9.1422031e-07
9.2200839e-07
9.3268023e-07
9.493657e-07
9.6905641e-07
9.9839858e-07
1.0357509e-06
1.0628288e-06
1.0888165e-06
1.1145332e-06
1.1500021e-06
1.1999341e-06
1.2408915e-06
1.3109409e-06
1.4199544e-06
1.5202975e-06
1.6247453e-06
1.8418935e-06
1.997442e-06
2.1641409e-06
2.5735708e-06
2.9137023e-06
3.2589465e-06
4.0300059e-06
4.7496483e-06
5.3130051e-06
6.2335297e-06
8.087809e-06
9.3084652e-06
1.0275639e-05
1.2246732e-05
1.3671931e-05
1.6875425e-05
1.9785628e-05
2.2026613e-05
2.7085955e-05
1.0176445e-06
1.0123292e-06
1.0292916e-06
1.0514033e-06
1.0477369e-06
1.0081052e-06
9.6337617e-07
9.3508986e-07
9.2549741e-07
9.3150344e-07
9.451363e-07
9.6093002e-07
9.7026088e-07
9.6826377e-07
9.5928547e-07
9.4833233e-07
9.42713e-07
9.3237193e-07
9.2045252e-07
9.1954114e-07
9.2343104e-07
9.3376895e-07
9.4712311e-07
9.6388174e-07
9.9780877e-07
1.0390271e-06
1.0628941e-06
1.0869025e-06
1.11385e-06
1.1503137e-06
1.1924089e-06
1.2306302e-06
1.2966236e-06
1.4091969e-06
1.5111725e-06
1.6128611e-06
1.8008828e-06
1.9179781e-06
2.1365154e-06
2.4368579e-06
2.8004265e-06
3.162411e-06
3.8723121e-06
4.5428511e-06
5.2280063e-06
6.1144922e-06
7.5374119e-06
8.7156305e-06
1.0035326e-05
1.1442424e-05
1.2979981e-05
1.5909715e-05
1.8492189e-05
2.0665075e-05
2.3603829e-05
1.0174671e-06
1.0123002e-06
1.0294804e-06
1.0520114e-06
1.0497062e-06
1.0116421e-06
9.654337e-07
9.3566342e-07
9.2603384e-07
9.3314965e-07
9.4443226e-07
9.6130317e-07
9.702145e-07
9.6896818e-07
9.638362e-07
9.5719752e-07
9.4465758e-07
9.3546865e-07
9.2130205e-07
9.1828834e-07
9.2489887e-07
9.3315286e-07
9.4251516e-07
9.6020852e-07
9.9724492e-07
1.0336651e-06
1.0591396e-06
1.0833034e-06
1.11537e-06
1.1536318e-06
1.1874431e-06
1.2291637e-06
1.2863673e-06
1.3878909e-06
1.4904302e-06
1.5970256e-06
1.7388369e-06
1.8310665e-06
2.0824955e-06
2.3293757e-06
2.6981348e-06
3.0633073e-06
3.7193039e-06
4.2618175e-06
5.0203204e-06
5.8777236e-06
6.9891113e-06
8.1139875e-06
9.8603728e-06
1.1141369e-05
1.2820937e-05
1.5428441e-05
1.8135191e-05
2.0339654e-05
2.2136579e-05
1.0172358e-06
1.0127169e-06
1.0290194e-06
1.0529767e-06
1.0501932e-06
1.0140733e-06
9.6717354e-07
9.3544155e-07
9.261491e-07
9.3413879e-07
9.4290402e-07
9.6141374e-07
9.7229165e-07
9.6822459e-07
9.6472342e-07
9.610595e-07
9.4552937e-07
9.3867985e-07
9.2336567e-07
9.1800285e-07
9.2475385e-07
9.3274625e-07
9.4487475e-07
9.6430403e-07
9.93481e-07
1.0255552e-06
1.0558702e-06
1.08483e-06
1.1180609e-06
1.1583267e-06
1.1896666e-06
1.2329033e-06
1.2860148e-06
1.3635348e-06
1.4557967e-06
1.5563656e-06
1.6851886e-06
1.7902494e-06
2.0260653e-06
2.2532497e-06
2.5595949e-06
2.9642968e-06
3.5331073e-06
3.9510858e-06
4.7432973e-06
5.6134143e-06
6.4093948e-06
7.4996725e-06
9.2579548e-06
1.0745865e-05
1.2223025e-05
1.4307167e-05
1.7164047e-05
1.9692208e-05
2.1388454e-05
1.0170727e-06
1.0130303e-06
1.0287829e-06
1.0531203e-06
1.0502659e-06
1.014802e-06
9.6869192e-07
9.3520351e-07
9.2609359e-07
9.3242647e-07
9.4210186e-07
9.6041163e-07
9.7187757e-07
9.693805e-07
9.6585564e-07
9.5720746e-07
9.5065507e-07
9.445006e-07
9.3093888e-07
9.2265864e-07
9.2376831e-07
9.3133951e-07
9.4737107e-07
9.6871349e-07
9.9227814e-07
1.0228825e-06
1.062375e-06
1.0946595e-06
1.1291987e-06
1.1705858e-06
1.1988706e-06
1.2409452e-06
1.2913437e-06
1.3445652e-06
1.4181438e-06
1.519942e-06
1.6640955e-06
1.7816893e-06
1.9897971e-06
2.2559011e-06
2.4563696e-06
2.8447941e-06
3.2680398e-06
3.6889545e-06
4.2656721e-06
5.0952718e-06
5.5783417e-06
6.4970177e-06
7.8575682e-06
9.4698115e-06
1.0543123e-05
1.1985463e-05
1.4425871e-05
1.692465e-05
1.9138668e-05
1.0169741e-06
1.0128011e-06
1.0291382e-06
1.0530856e-06
1.0516545e-06
1.0167378e-06
9.7035191e-07
9.3603878e-07
9.2642057e-07
9.307579e-07
9.4308806e-07
9.5951319e-07
9.6965509e-07
9.7381361e-07
9.6556699e-07
9.5486826e-07
9.5199739e-07
9.4546209e-07
9.3674951e-07
9.2694358e-07
9.2417853e-07
9.2964577e-07
9.438376e-07
9.6126772e-07
9.8775919e-07
1.0249438e-06
1.0675382e-06
1.1017978e-06
1.1406133e-06
1.1782315e-06
1.1999771e-06
1.2369051e-06
1.2821865e-06
1.3285683e-06
1.4000498e-06
1.5059226e-06
1.6538447e-06
1.7846077e-06
1.9885564e-06
2.2716874e-06
2.4341296e-06
2.7568209e-06
3.0706743e-06
3.5467228e-06
3.9818109e-06
4.6413031e-06
5.1827645e-06
6.0249625e-06
6.980452e-06
8.3250242e-06
9.4260786e-06
1.0916558e-05
1.2592354e-05
1.4458305e-05
1.6212099e-05
1.0168821e-06
1.0125333e-06
1.0293877e-06
1.0534978e-06
1.053719e-06
1.0201376e-06
9.7177606e-07
9.3769752e-07
9.2777925e-07
9.3301095e-07
9.4383924e-07
9.5846483e-07
9.7151052e-07
9.7633963e-07
9.6374821e-07
9.5556068e-07
9.5168924e-07
9.4444295e-07
9.3649007e-07
9.2737615e-07
9.2622543e-07
9.2830183e-07
9.3869259e-07
9.522766e-07
9.7717231e-07
1.0203255e-06
1.0647604e-06
1.1005798e-06
1.1411288e-06
1.1762205e-06
1.1907856e-06
1.2130011e-06
1.2634322e-06
1.3109188e-06
1.3887686e-06
1.5128699e-06
1.6524419e-06
1.7777059e-06
1.984942e-06
2.2652996e-06
2.4166577e-06
2.7065221e-06
2.969723e-06
3.4113757e-06
3.8156616e-06
4.433759e-06
4.9707892e-06
5.7842393e-06
6.6498143e-06
7.8783033e-06
9.0641439e-06
1.0675138e-05
1.2305934e-05
1.3996461e-05
1.5710414e-05
1.0166666e-06
1.0123462e-06
1.0289381e-06
1.054191e-06
1.0546344e-06
1.0226485e-06
9.7301257e-07
9.3876707e-07
9.275743e-07
9.3462471e-07
9.430045e-07
9.5853065e-07
9.7515734e-07
9.7648078e-07
9.6517929e-07
9.6124151e-07
9.5101594e-07
9.4764954e-07
9.36691e-07
9.2735852e-07
9.2588118e-07
9.264588e-07
9.3732126e-07
9.5094112e-07
9.7353195e-07
1.0127417e-06
1.0556682e-06
1.092195e-06
1.1340389e-06
1.1666334e-06
1.1785166e-06
1.193912e-06
1.2364196e-06
1.2956765e-06
1.3749665e-06
1.4971158e-06
1.6376218e-06
1.7609565e-06
1.9558271e-06
2.22514e-06
2.3730968e-06
2.6369592e-06
2.8847938e-06
3.2786809e-06
3.7005267e-06
4.2995442e-06
4.8056085e-06
5.5739674e-06
6.3866454e-06
7.4755206e-06
8.6183691e-06
1.0264426e-05
1.2058381e-05
1.3807573e-05
1.5653644e-05
1.0164048e-06
1.0122092e-06
1.0281825e-06
1.0544803e-06
1.0545424e-06
1.0227228e-06
9.7428417e-07
9.3857743e-07
9.2523785e-07
9.314641e-07
9.4097876e-07
9.5826628e-07
9.7500714e-07
9.7355482e-07
9.6828518e-07
9.6335268e-07
9.5340851e-07
9.4997093e-07
9.3411985e-07
9.2390402e-07
9.2037613e-07
9.2207452e-07
9.3601841e-07
9.5128908e-07
9.7177099e-07
1.0037104e-06
1.0423082e-06
1.0773091e-06
1.1157808e-06
1.1464638e-06
1.162541e-06
1.1801114e-06
1.2143814e-06
1.2707081e-06
1.349593e-06
1.4563692e-06
1.6035442e-06
1.7160028e-06
1.8857249e-06
2.1301723e-06
2.2534304e-06
2.4897654e-06
2.7213384e-06
3.0614918e-06
3.4890869e-06
4.0290889e-06
4.4977838e-06
5.1311862e-06
5.7949865e-06
6.5729604e-06
7.7542627e-06
9.4457608e-06
1.1413569e-05
1.3037867e-05
1.5239074e-05
1.016155e-06
1.0120416e-06
1.0277454e-06
1.0543629e-06
1.0551398e-06
1.0223051e-06
9.7527534e-07
9.3818383e-07
9.2313415e-07
9.2675834e-07
9.3906055e-07
9.5647371e-07
9.6868355e-07
9.724504e-07
9.6871013e-07
9.5869693e-07
9.5523376e-07
9.4597695e-07
9.3174136e-07
9.1968975e-07
9.1325165e-07
9.1600206e-07
9.3017799e-07
9.4385291e-07
9.6295698e-07
9.8974725e-07
1.024422e-06
1.0563181e-06
1.0884181e-06
1.1120112e-06
1.1341409e-06
1.1592197e-06
1.186434e-06
1.2305752e-06
1.2982989e-06
1.3780577e-06
1.5122067e-06
1.6092747e-06
1.7406471e-06
1.9288612e-06
2.0264883e-06
2.2352242e-06
2.4501742e-06
2.6727518e-06
3.1326538e-06
3.5097664e-06
3.9686823e-06
4.4009535e-06
4.8355688e-06
5.1616458e-06
6.0991515e-06
7.262838e-06
8.8626342e-06
1.0101592e-05
1.2031405e-05
1.0159382e-06
1.0117846e-06
1.0276574e-06
1.054146e-06
1.0568785e-06
1.0232354e-06
9.7641361e-07
9.3855449e-07
9.2349439e-07
9.2520953e-07
9.3883415e-07
9.5323342e-07
9.6365252e-07
9.7541814e-07
9.6552534e-07
9.5215044e-07
9.5357676e-07
9.3974169e-07
9.2999603e-07
9.1497854e-07
9.0699209e-07
9.0962102e-07
9.2043448e-07
9.3000821e-07
9.4483642e-07
9.6565875e-07
9.9616374e-07
1.0257511e-06
1.0521634e-06
1.0663415e-06
9.6743538e-07
1.1016132e-06
1.1268921e-06
1.1520389e-06
1.1867333e-06
1.2191845e-06
1.319178e-06
1.3951559e-06
1.4812436e-06
1.5855854e-06
1.6772865e-06
1.8091325e-06
2.0206357e-06
2.1265921e-06
2.5361421e-06
2.7835861e-06
3.2510054e-06
3.5229462e-06
3.9165678e-06
4.0096015e-06
4.5492542e-06
5.0941307e-06
5.9471649e-06
6.6060451e-06
7.5990468e-06
1.0157424e-06
1.0115722e-06
1.0275306e-06
1.054203e-06
1.0586752e-06
1.0255726e-06
9.7738559e-07
9.392497e-07
9.2491073e-07
9.2659858e-07
9.3880391e-07
9.4932802e-07
9.6134966e-07
9.741945e-07
9.5998756e-07
9.4409304e-07
9.4406105e-07
9.340104e-07
9.250489e-07
9.0667404e-07
8.9804885e-07
8.974426e-07
9.007673e-07
8.7776289e-07
6.6881546e-07
8.1280398e-07
9.536423e-07
9.7612621e-07
9.4861776e-07
8.9158525e-07
6.6928761e-07
1.0030276e-06
1.0139749e-06
1.0219333e-06
1.024211e-06
1.022638e-06
1.0649788e-06
1.0974683e-06
1.1590094e-06
1.1963527e-06
1.2959505e-06
1.3509678e-06
1.522326e-06
1.6041897e-06
1.8457811e-06
2.0301463e-06
2.4474052e-06
2.6968473e-06
3.1973828e-06
3.4481391e-06
3.8587488e-06
4.1913721e-06
4.7243844e-06
5.1685201e-06
5.7345272e-06
1.0154766e-06
1.0111937e-06
1.0266893e-06
1.053432e-06
1.0577577e-06
1.025049e-06
9.7536563e-07
9.3578362e-07
9.2045597e-07
9.2145043e-07
9.3050455e-07
9.3818673e-07
9.5068498e-07
9.5725074e-07
9.4210459e-07
9.2802809e-07
9.1989395e-07
9.1304596e-07
9.0253225e-07
8.7977984e-07
8.6913797e-07
8.6563878e-07
8.6515994e-07
5.1285066e-07
5.0541531e-07
5.396227e-07
7.9783214e-07
8.6720205e-07
7.0029847e-07
6.2891962e-07
5.4001754e-07
9.2390193e-07
7.3514113e-07
9.1498285e-07
9.1928253e-07
9.0983006e-07
9.3830861e-07
8.2027741e-07
8.9258552e-07
1.0217074e-06
1.1017691e-06
1.140696e-06
1.2744362e-06
1.3470658e-06
1.5229614e-06
1.6309524e-06
1.9428567e-06
2.146697e-06
2.5862381e-06
2.8767022e-06
3.2659306e-06
3.5812509e-06
3.9868847e-06
4.3840159e-06
4.8041266e-06
1.015036e-06
1.0105683e-06
1.0243109e-06
1.0492532e-06
1.050213e-06
1.0152426e-06
9.6362472e-07
9.2081883e-07
9.0122363e-07
8.9802275e-07
9.04567e-07
9.0813894e-07
9.1981099e-07
9.2038444e-07
9.0918853e-07
8.9857361e-07
8.8572179e-07
8.784676e-07
8.6825982e-07
8.4491724e-07
7.8491005e-07
8.2605462e-07
7.0354437e-07
4.1598455e-07
5.0643028e-07
5.291503e-07
6.0733462e-07
7.1501894e-07
5.7694058e-07
5.361396e-07
4.9562048e-07
8.9686127e-07
6.5280288e-07
8.6908806e-07
9.0789744e-07
8.9152224e-07
9.0691394e-07
6.7315897e-07
6.0596125e-07
7.3763067e-07
9.9399989e-07
1.0378172e-06
1.152789e-06
1.2210619e-06
1.3696062e-06
1.449418e-06
1.6921432e-06
1.8587606e-06
2.207271e-06
2.4966038e-06
2.7985069e-06
3.0901624e-06
3.3972484e-06
3.7954045e-06
4.1964838e-06
1.013591e-06
1.0065701e-06
1.0145061e-06
1.0319912e-06
1.0260441e-06
9.8805884e-07
9.3619352e-07
8.9292838e-07
8.7002719e-07
8.6397345e-07
8.6900672e-07
8.7232456e-07
8.8288556e-07
8.8422553e-07
8.7873414e-07
8.7332912e-07
8.658024e-07
8.6420336e-07
8.592411e-07
8.4818976e-07
8.3852416e-07
8.3948121e-07
6.3234701e-07
4.7284467e-07
7.9438872e-07
8.7646699e-07
8.8877744e-07
9.1431558e-07
6.8776733e-07
6.4530088e-07
5.8516876e-07
9.9567618e-07
8.1809332e-07
1.0619826e-06
1.0772148e-06
1.0673614e-06
1.0769656e-06
8.1293503e-07
6.7598633e-07
6.893655e-07
1.1268131e-06
1.1631324e-06
1.1543837e-06
9.9472804e-07
1.210935e-06
1.4576742e-06
1.5543352e-06
1.7657571e-06
2.0046331e-06
2.272791e-06
2.5341934e-06
2.8000695e-06
3.0396286e-06
3.3408262e-06
3.7032426e-06
1.0067083e-06
9.8964072e-07
9.8435555e-07
9.9302298e-07
9.9059817e-07
9.620049e-07
9.1930884e-07
8.8250583e-07
8.6219529e-07
8.5601873e-07
8.6075567e-07
8.683399e-07
8.807438e-07
8.958045e-07
9.0473929e-07
9.1091378e-07
9.2925865e-07
9.4890058e-07
9.6067683e-07
9.6360739e-07
9.7523523e-07
9.8892531e-07
7.2889715e-07
6.4076619e-07
1.0437298e-06
1.0692241e-06
1.08376e-06
1.1214928e-06
9.7956579e-07
8.8983627e-07
8.3860016e-07
1.2159302e-06
1.3410051e-06
1.3987159e-06
1.4446727e-06
1.3630272e-06
1.4861856e-06
1.2270592e-06
1.0827705e-06
1.0524869e-06
1.3152138e-06
1.6582314e-06
1.6596561e-06
1.1762125e-06
1.2115683e-06
1.5124071e-06
1.5383125e-06
1.47587e-06
1.8482434e-06
2.3534919e-06
2.5351528e-06
2.7753314e-06
2.9577162e-06
3.205e-06
3.52773e-06
9.8920526e-07
9.5938131e-07
9.4873269e-07
9.5496389e-07
9.7870211e-07
9.938908e-07
9.8685098e-07
9.7326434e-07
9.681772e-07
9.7133827e-07
9.7911255e-07
9.9404872e-07
1.0212044e-06
1.0599599e-06
1.0848788e-06
1.1138713e-06
1.0781651e-06
1.1200958e-06
1.2141827e-06
1.2361606e-06
1.2038873e-06
1.1941416e-06
1.0266435e-06
9.614367e-07
1.1827312e-06
1.4705217e-06
1.4980187e-06
1.5447979e-06
1.5068474e-06
1.3953906e-06
1.3442561e-06
1.5598535e-06
1.8409738e-06
1.9237323e-06
2.0114934e-06
2.0888207e-06
2.1340558e-06
2.1642123e-06
2.042672e-06
1.9747765e-06
2.1430564e-06
2.4355363e-06
2.5208444e-06
2.0238969e-06
1.8923696e-06
2.1417664e-06
2.2085923e-06
1.9822221e-06
1.9891126e-06
2.7789378e-06
2.9832333e-06
3.0942575e-06
3.2070113e-06
3.3396229e-06
3.595406e-06
9.5024759e-07
9.1178306e-07
9.1653169e-07
9.3808224e-07
1.013395e-06
1.1070465e-06
1.1550912e-06
1.1803852e-06
1.1932393e-06
1.2075656e-06
1.2229249e-06
1.2466841e-06
1.2857482e-06
1.2084868e-06
1.2601098e-06
1.3748602e-06
1.2434804e-06
1.2703174e-06
1.3956192e-06
1.3672692e-06
1.3173467e-06
1.3558624e-06
1.3086303e-06
1.3186002e-06
1.4431522e-06
1.7043015e-06
1.8430991e-06
1.815409e-06
1.8330554e-06
1.828172e-06
1.8480272e-06
1.993171e-06
2.2740857e-06
2.3876513e-06
2.4803373e-06
2.58739e-06
2.674504e-06
2.7667237e-06
2.8447772e-06
2.9280201e-06
3.0631122e-06
3.125381e-06
3.2174889e-06
3.2702641e-06
2.9657003e-06
2.9899585e-06
2.9586169e-06
2.6963908e-06
2.5382805e-06
2.8289715e-06
3.3941819e-06
3.384097e-06
3.3738734e-06
3.3570898e-06
3.2352153e-06
6.7309697e-07
7.4253002e-07
8.4765769e-07
8.8311003e-07
9.516376e-07
1.0001816e-06
1.0035983e-06
9.9238527e-07
9.7370063e-07
9.5409514e-07
9.3874652e-07
9.4369792e-07
9.3363737e-07
9.2999305e-07
9.4977538e-07
9.7149449e-07
9.4606342e-07
9.3483456e-07
9.315196e-07
9.3707627e-07
9.5709928e-07
9.9279279e-07
1.0537573e-06
1.1074151e-06
1.1845816e-06
1.2739551e-06
1.3508126e-06
1.367246e-06
1.3807526e-06
1.4068514e-06
1.4819354e-06
1.5964655e-06
1.6810659e-06
1.7343816e-06
1.7626568e-06
1.8390831e-06
1.9155438e-06
1.9580042e-06
1.9785435e-06
1.9995383e-06
2.0375857e-06
2.1408173e-06
2.2940989e-06
2.3036823e-06
2.2830832e-06
2.3135888e-06
2.316133e-06
2.3269348e-06
2.236127e-06
2.2308289e-06
2.4183836e-06
2.5967415e-06
2.6717342e-06
2.6993917e-06
2.7200411e-06
4.9543801e-07
7.7948857e-07
6.3770921e-07
4.5009132e-07
3.5940776e-07
3.0272592e-07
2.7349905e-07
2.7238574e-07
2.7551789e-07
2.7887247e-07
2.9508749e-07
3.2588965e-07
3.6240807e-07
3.8997004e-07
4.1820267e-07
4.4576199e-07
4.5677712e-07
4.6885915e-07
4.8652183e-07
5.0523229e-07
5.3463037e-07
5.8378853e-07
6.3943594e-07
6.8179771e-07
7.2623601e-07
7.9292571e-07
8.5418439e-07
8.9895442e-07
9.479756e-07
1.0163879e-06
1.083314e-06
1.1335528e-06
1.1914091e-06
1.2718011e-06
1.3393618e-06
1.3816826e-06
1.4106094e-06
1.4241074e-06
1.4470902e-06
1.4885454e-06
1.5658324e-06
1.4767171e-06
1.4678077e-06
1.6127621e-06
1.6704591e-06
1.6079478e-06
1.5446761e-06
1.4934758e-06
1.4784394e-06
1.5116879e-06
1.4997603e-06
1.2945276e-06
1.2696363e-06
1.3942239e-06
1.6286432e-06
1.63968e-06
2.6802651e-06
3.5183489e-06
3.8132886e-06
3.7451209e-06
3.9438086e-06
4.4876109e-06
5.1907463e-06
6.3219907e-06
8.6489641e-06
1.3950098e-05
1.7823997e-05
1.8166808e-05
1.8158179e-05
1.8582724e-05
2.1288544e-05
2.4138747e-05
2.5163062e-05
2.5930726e-05
2.9236092e-05
3.4452662e-05
3.6147722e-05
3.3749152e-05
3.3971695e-05
3.8665469e-05
5.5231444e-05
8.2751329e-05
1.5089598e-06
2.6514973e-06
3.6506371e-06
4.0186016e-06
4.0476686e-06
4.3676379e-06
4.9827085e-06
5.7827025e-06
7.2074611e-06
1.0014514e-05
1.5933548e-05
2.0629626e-05
2.1188653e-05
2.1286067e-05
2.1587106e-05
2.3171934e-05
2.6711119e-05
2.9595464e-05
3.1275844e-05
3.4337186e-05
3.9562891e-05
4.1860891e-05
3.9888575e-05
3.8769084e-05
4.1274671e-05
5.7207987e-05
8.8364709e-05
1.4027039e-06
2.5701688e-06
3.7183619e-06
4.3704031e-06
4.4878104e-06
4.9351551e-06
5.6229809e-06
6.6724024e-06
8.6588981e-06
1.2222486e-05
1.8635156e-05
2.3515033e-05
2.4456632e-05
2.4560084e-05
2.5137411e-05
2.6475442e-05
2.957433e-05
3.3071564e-05
3.6473917e-05
4.2866778e-05
4.9764572e-05
4.9666506e-05
4.663407e-05
4.5648523e-05
4.6801781e-05
6.268436e-05
8.2038824e-05
1.3270569e-06
2.4471534e-06
3.6979967e-06
4.5496452e-06
5.0076868e-06
5.7132913e-06
6.5731258e-06
8.025342e-06
1.0758233e-05
1.540845e-05
2.2356413e-05
2.7372457e-05
2.8421105e-05
2.8263621e-05
2.8641206e-05
2.9756346e-05
3.2386651e-05
3.7040662e-05
4.2252101e-05
5.0596058e-05
5.996868e-05
5.9929535e-05
5.5584394e-05
5.4012462e-05
5.4618138e-05
7.1503889e-05
0.00011220649
1.2891135e-06
2.3301966e-06
3.7789765e-06
4.7744434e-06
5.551715e-06
6.4634332e-06
7.4891224e-06
9.3776224e-06
1.293323e-05
1.8712396e-05
2.4064948e-05
2.8231295e-05
3.3948484e-05
3.3899485e-05
3.4159441e-05
3.5171667e-05
3.7813493e-05
4.1563997e-05
4.788234e-05
5.8113107e-05
6.8689899e-05
6.925436e-05
6.4590103e-05
6.2596008e-05
6.3332795e-05
8.0056164e-05
0.00012633039
1.2693733e-06
2.2628706e-06
3.8125477e-06
5.0373867e-06
5.9822865e-06
6.9333078e-06
8.0604571e-06
1.0367214e-05
1.4815357e-05
2.1702682e-05
2.6215083e-05
2.7305378e-05
2.9809974e-05
3.3799847e-05
4.0689851e-05
4.2015631e-05
4.5156449e-05
4.8566323e-05
5.5689273e-05
6.7738601e-05
7.7788875e-05
7.7948224e-05
7.324853e-05
7.187498e-05
7.3788756e-05
9.0021176e-05
0.00013282949
1.2248025e-06
2.2438017e-06
3.7184561e-06
5.0761116e-06
6.1193096e-06
7.0686281e-06
8.449721e-06
1.1538043e-05
1.7415497e-05
2.5779762e-05
3.3542992e-05
3.9993113e-05
3.8964109e-05
3.8746898e-05
4.1161705e-05
4.7414079e-05
5.4683637e-05
5.8944657e-05
6.717528e-05
7.9970181e-05
8.8642722e-05
8.7694401e-05
8.1564098e-05
8.2406157e-05
8.7419617e-05
0.00010302852
0.00010360402
1.1218553e-06
2.0618521e-06
3.3924769e-06
4.8578872e-06
5.4626051e-06
6.6606615e-06
9.0205576e-06
1.3504593e-05
2.1991437e-05
3.2028721e-05
3.9804883e-05
4.5237966e-05
4.9043493e-05
5.1835496e-05
5.58477e-05
5.9530904e-05
5.5812003e-05
5.989793e-05
7.4862451e-05
9.5227727e-05
0.00010281212
0.00010120293
9.3495838e-05
9.4909842e-05
0.00010034059
0.0001153503
9.9756677e-05
1.0250835e-06
1.8645587e-06
3.0882432e-06
4.644982e-06
5.0418317e-06
6.0723825e-06
8.0670893e-06
1.2225088e-05
2.048764e-05
3.4247579e-05
4.5464123e-05
5.0222745e-05
5.4186741e-05
5.8397693e-05
6.5097165e-05
7.4755664e-05
8.4283859e-05
7.1787438e-05
6.9491388e-05
8.7433072e-05
0.00012236028
0.0001201734
0.00011269478
0.0001119017
0.00011594791
0.00012810727
0.00011749748
9.6436543e-07
1.8278199e-06
3.0312063e-06
4.6699765e-06
5.5025252e-06
7.0548223e-06
1.0069175e-05
1.6213834e-05
2.5320392e-05
3.4061183e-05
4.1063817e-05
4.5997626e-05
5.2071896e-05
5.9151704e-05
7.4003683e-05
8.9632286e-05
0.00010256521
0.00011344055
0.00010692605
0.00010356043
0.0001129584
0.00012650579
0.0001382582
0.00013771876
0.00013938812
0.00010940773
0.00013894231
9.3336227e-07
1.8709675e-06
3.0394897e-06
4.7607584e-06
6.5605472e-06
9.6344332e-06
1.6163158e-05
2.8284059e-05
4.0619069e-05
4.9573122e-05
5.328871e-05
4.9153325e-05
4.8381135e-05
5.13371e-05
5.5392229e-05
6.298619e-05
7.6777857e-05
0.00011893019
0.00014769578
0.00016481688
0.00013711827
0.00011286274
0.00015974057
0.00016565458
0.00016503717
0.00012150005
0.00015746189
9.6768119e-07
1.9005099e-06
3.0718506e-06
4.9502254e-06
7.3040613e-06
1.2057214e-05
2.1831805e-05
3.4972178e-05
4.6724585e-05
5.4747209e-05
6.014095e-05
6.5446445e-05
7.3881063e-05
6.3519254e-05
5.978738e-05
5.8975066e-05
6.6028173e-05
8.4418799e-05
0.00014182149
0.00018875238
0.000192021
0.00015145227
0.00019249787
0.00019064156
0.00017136114
0.00016324879
0.0001839923
9.7877448e-07
1.9485767e-06
3.2251353e-06
5.4775082e-06
9.1293144e-06
1.6667535e-05
2.87345e-05
4.1754752e-05
5.2346388e-05
5.9291918e-05
6.4894397e-05
7.2111944e-05
8.2001038e-05
9.0618091e-05
8.1486882e-05
7.9015007e-05
8.1666694e-05
8.750205e-05
9.9820369e-05
0.00012689034
0.00017555511
0.00022577045
0.00021613001
0.00021159929
0.0001680768
0.00019353609
0.00019179644
1.0122802e-06
1.9825131e-06
3.5930103e-06
6.5701843e-06
1.1882622e-05
2.1491955e-05
3.4106571e-05
4.6857452e-05
5.3090447e-05
5.3057312e-05
5.2567407e-05
5.5046877e-05
6.3044017e-05
7.6802806e-05
0.00010255636
0.00013978836
0.00015623021
0.00013652097
0.00010322927
0.00011061185
0.00015257324
0.00025106301
0.00023973814
0.00021196302
0.00020212263
0.00020995976
0.00020252396
1.0413746e-06
2.0122496e-06
3.9078589e-06
7.3560395e-06
1.3607902e-05
2.417667e-05
3.6951781e-05
4.9558963e-05
5.6242466e-05
4.9870376e-05
4.501087e-05
4.446525e-05
4.8412201e-05
5.8152106e-05
8.2178452e-05
0.00014982394
0.00016778365
0.00016311748
0.00012972854
0.00014677891
0.00017937731
0.00019186467
0.00017344166
0.00020184716
0.00024933434
0.00023259815
0.00021408497
1.0455205e-06
2.0068917e-06
4.1073175e-06
7.5676846e-06
1.3750732e-05
2.4182357e-05
3.623811e-05
4.7992795e-05
5.7905972e-05
5.7863998e-05
4.7083373e-05
4.4700147e-05
4.6560791e-05
5.2152698e-05
6.1712663e-05
7.6689943e-05
9.1381731e-05
0.00010195638
0.00014500556
0.00025401592
0.00027415361
0.00016795285
0.00014173285
0.00019663809
0.00026983153
0.00025674828
0.00017472428
1.0214721e-06
1.9234314e-06
4.000859e-06
7.4129577e-06
1.3244382e-05
2.2498739e-05
3.2821099e-05
4.2724762e-05
5.1751542e-05
6.0291405e-05
5.9121793e-05
5.4840432e-05
5.6279724e-05
5.8725693e-05
5.91028e-05
5.7670004e-05
6.0478789e-05
7.5840199e-05
0.00013016245
0.00025834511
0.00027725629
0.00016720689
0.0001568802
0.00024724828
0.0002878493
0.00025123387
0.00016948755
9.8654889e-07
1.7649158e-06
3.6926149e-06
6.8033795e-06
1.170262e-05
1.8495018e-05
2.5483601e-05
3.0709991e-05
3.4243922e-05
4.0948754e-05
5.3553023e-05
6.8405041e-05
8.250706e-05
8.8894447e-05
7.2251405e-05
5.9904296e-05
5.8174891e-05
7.0002595e-05
0.00010185266
0.00014577313
0.00015573562
0.00015882764
0.00020925635
0.00029631425
0.00030252003
0.00021255026
0.00019681078
9.921025e-07
1.5507467e-06
3.2270339e-06
5.9021425e-06
9.630846e-06
1.3479419e-05
1.6757379e-05
1.7442362e-05
1.9485677e-05
2.3917782e-05
3.2695597e-05
5.0791735e-05
6.6087185e-05
8.1578317e-05
0.00010188113
8.4789458e-05
8.0474862e-05
8.6003125e-05
9.2228592e-05
9.6645733e-05
0.0001051015
0.00013714915
0.00025792891
0.00030252611
0.00031226761
0.00021420695
0.00027355148
1.002659e-06
1.390089e-06
2.9154628e-06
5.1874654e-06
8.327092e-06
1.1157735e-05
1.3807306e-05
1.5298244e-05
1.5950821e-05
1.9154897e-05
2.4961598e-05
3.4449275e-05
4.9990082e-05
7.3293635e-05
9.0459486e-05
0.00011105134
0.00013555818
0.00016065447
0.00010994696
9.4217345e-05
9.6549842e-05
0.0001189803
0.00018171694
0.00023525895
0.00023280996
0.00024385164
0.00032401363
8.8038275e-07
1.3575705e-06
2.9087513e-06
4.9594763e-06
7.8783794e-06
1.04198e-05
1.2940308e-05
1.6633268e-05
2.0527742e-05
2.3806914e-05
2.9882378e-05
3.8159011e-05
4.8631945e-05
6.2493183e-05
8.507762e-05
0.00011214602
0.00013164698
0.00014196879
0.00013273274
0.00013540595
0.00013099246
0.00012962695
0.00013509067
0.00014394223
0.00017316611
0.00026819387
0.00034155702
6.764148e-07
1.3086885e-06
2.9101473e-06
4.9757563e-06
8.0367024e-06
1.095504e-05
1.5052591e-05
2.2039324e-05
3.27191e-05
4.6358812e-05
6.218283e-05
7.960347e-05
9.1871038e-05
9.9432275e-05
0.0001014273
9.0376236e-05
7.8329057e-05
7.5415618e-05
8.668235e-05
0.00013478391
0.00023559498
0.00022758713
0.00014287079
0.00012147184
0.00013851083
0.000251108
0.00035559137
4.3876738e-07
1.151583e-06
2.7438695e-06
5.5746608e-06
9.7999206e-06
1.4766314e-05
2.279885e-05
3.5639558e-05
5.2471318e-05
7.1362839e-05
9.1976648e-05
0.00011152092
0.00012993103
0.00014628274
0.0001597512
0.00012159219