/*--------------------------------*- C++ -*----------------------------------*\
| =========                 |                                                 |
| \\      /  F ield         | OpenFOAM: The Open Source CFD Toolbox           |
|  \\    /   O peration     | Version:  2406                                  |
|   \\  /    A nd           | Website:  www.openfoam.com                      |
|    \\/     M anipulation  |                                                 |
\*---------------------------------------------------------------------------*/
FoamFile
{
    version     2.0;
    format      ascii;
    arch        "LSB;label=32;scalar=64";
    class       volScalarField;
    location    "16";
    object      omega_0;
}
// * * * * * * * * * * * * * * * * * * * * * * * * * * * * * * * * * * * * * //

dimensions      [0 0 -1 0 0 0 0];

internalField   nonuniform List<scalar> 
62344
(
4.3367881
3.4633904
2.856404
2.411133
2.0833485
1.8489772
1.6848379
1.5623864
1.4611829
1.3800091
1.3042116
1.2344461
1.1776963
1.1192281
1.0762876
1.0483236
1.0204167
0.99052014
0.96103329
0.94797873
0.94869551
0.94226968
0.91727431
0.89863454
0.88820912
0.879339
0.87436402
0.87479796
0.87869343
0.89411067
0.92793462
0.97287876
1.027856
1.0739614
1.1248887
1.1857492
1.2967549
1.4046588
1.5784154
1.6896991
1.8872775
2.0763882
2.2842182
2.4842021
2.7535896
3.1658595
3.5736715
4.0529594
4.6237257
5.204287
5.8298952
6.5332773
6.8857584
7.2766734
7.9010939
4.340567
3.4696798
2.8640043
2.4195422
2.0904563
1.8553283
1.6881064
1.5660242
1.4658152
1.3830078
1.3084783
1.2392505
1.1781384
1.1224807
1.081007
1.0468603
1.0165025
0.98943414
0.96464776
0.95026942
0.94429375
0.9328752
0.91607236
0.90107785
0.88969647
0.88026525
0.87543856
0.8667399
0.86927163
0.8868275
0.90987893
0.93894078
0.97580151
1.0094051
1.0649461
1.1278205
1.2163795
1.3059174
1.4591288
1.5953186
1.8466393
1.9940208
2.2564098
2.3970975
2.6901603
2.9198086
3.1752133
3.5193317
3.8477868
4.3101647
4.8926823
5.615806
6.322853
6.701511
7.5438844
4.34455
3.4760413
2.8705239
2.4245789
2.0973528
1.85898
1.6924012
1.5709748
1.4708511
1.387861
1.3116253
1.2446723
1.1816981
1.1247978
1.0806785
1.0499394
1.0189918
0.98854522
0.9646507
0.9513533
0.9433425
0.926874
0.91324764
0.90046742
0.88928412
0.88105413
0.87278046
0.86502842
0.87134749
0.89076855
0.91105186
0.93897741
0.97167547
1.0035895
1.0690735
1.1242999
1.1921813
1.2593322
1.3897129
1.5367717
1.7504927
1.9376287
2.2486081
2.4209279
2.7842244
2.9564265
3.2958517
3.5529275
3.9604632
4.2307386
4.6833205
5.072619
5.6187235
5.9315625
6.6748242
4.3486194
3.4837307
2.8787444
2.4322885
2.1042106
1.8662416
1.6970066
1.5741457
1.4756145
1.3928485
1.3162665
1.2471609
1.1869014
1.1292368
1.0868057
1.0576477
1.0276591
0.99639782
0.96852035
0.95430237
0.94753768
0.93336483
0.92103485
0.90808296
0.89496741
0.88592304
0.87749365
0.87620968
0.88172359
0.89808142
0.91811031
0.94223879
0.97024921
0.99948987
1.0664654
1.1209825
1.1845043
1.2303484
1.3442518
1.4766085
1.6659358
1.8545911
2.0981117
2.2923777
2.6817243
2.9188649
3.379913
3.6204305
4.0356994
4.2530029
4.6513506
4.9158593
5.3331827
5.60237
6.1732038
4.3523577
3.4910514
2.8851857
2.4398651
2.1088932
1.8696999
1.701175
1.5769638
1.4790695
1.3970345
1.3201107
1.2515581
1.189753
1.1329265
1.087449
1.0535996
1.029625
0.99766786
0.96801061
0.9557122
0.94819155
0.93524532
0.91946819
0.9043816
0.89047517
0.8851189
0.87786469
0.87603501
0.87967448
0.89113459
0.90892618
0.93263911
0.95754932
0.98689077
1.0387955
1.0873084
1.1566219
1.2148127
1.3285448
1.4634
1.6367091
1.8291206
2.0342902
2.2254627
2.5497999
2.8287381
3.2280145
3.5159056
3.9873982
4.2609128
4.6497504
4.8724332
5.2431798
5.4291249
5.822355
4.3563933
3.4960047
2.8923868
2.4461526
2.1160906
1.8749059
1.7056222
1.5823613
1.4850845
1.4016431
1.3244079
1.2581174
1.1948387
1.1388422
1.0891453
1.0580767
1.0353318
1.0017074
0.9743241
0.96415577
0.95585912
0.94116478
0.92082918
0.90875913
0.90025894
0.89659793
0.88894245
0.88118362
0.88148389
0.88804533
0.90063728
0.91735217
0.93936323
0.97732903
1.0230723
1.0747097
1.1486076
1.2155092
1.3215548
1.4458433
1.5899316
1.7771568
1.9395797
2.1281433
2.3940498
2.7362079
3.0793855
3.3628037
3.7257439
4.0878024
4.4234417
4.7453653
5.1226789
5.3457826
5.8238496
4.3601823
3.5002166
2.8987593
2.4531247
2.1209526
1.882393
1.7089917
1.5849691
1.4889702
1.4043999
1.3284363
1.2638655
1.1970548
1.1421621
1.0962019
1.0661015
1.0401612
1.0076643
0.98032106
0.96559445
0.95624726
0.94180379
0.9243716
0.91098731
0.90352379
0.90063277
0.89252556
0.88250569
0.87823619
0.88197992
0.89115158
0.90522639
0.92915085
0.97244063
1.0173336
1.0711394
1.1450653
1.2160077
1.3125022
1.4325607
1.5608384
1.7311637
1.9073522
2.096883
2.3067122
2.6313568
2.9281128
3.1947476
3.5108534
3.8636094
4.125852
4.4567977
4.7944993
5.0840729
5.6467039
4.363061
3.505733
2.904144
2.4598727
2.1269401
1.8859371
1.7124361
1.5889248
1.4922447
1.4080889
1.3330011
1.2668362
1.2015399
1.1440093
1.0984212
1.0607118
1.0416281
1.0135139
0.98420746
0.96790421
0.95613366
0.94246034
0.92761113
0.91216772
0.90084321
0.90070238
0.89434804
0.88249486
0.87516678
0.87855224
0.88874151
0.90310725
0.92864313
0.97183584
1.0136851
1.0661413
1.1339905
1.2024384
1.2903297
1.4131373
1.5272453
1.6982581
1.8817301
2.0767071
2.2561448
2.5088749
2.7609084
3.0297305
3.3154302
3.5935263
3.8262829
4.0899414
4.3593036
4.6474957
5.10607
4.3658099
3.5105548
2.9106569
2.4642677
2.1347457
1.8888525
1.7163457
1.5938923
1.4959652
1.4112854
1.3371995
1.2693649
1.2073123
1.1498599
1.101171
1.0617429
1.0423138
1.0168615
0.99199291
0.97660409
0.95861267
0.94407687
0.92826418
0.91466423
0.90587639
0.90544397
0.89889026
0.88820708
0.87711371
0.88026745
0.88884346
0.89988506
0.92434772
0.96786564
1.0112871
1.0586944
1.1213242
1.1801358
1.2582403
1.3825726
1.4873176
1.6501818
1.8410648
2.0335654
2.2334579
2.4490661
2.6710535
2.9536583
3.2270715
3.4525558
3.6735165
3.9074859
4.1510779
4.3776207
4.7019875
4.3688249
3.515507
2.9169575
2.4701011
2.1409275
1.895419
1.7206726
1.5969366
1.4992961
1.4168306
1.3407554
1.273844
1.2097629
1.1539138
1.1045596
1.0735867
1.0424687
1.0177264
0.99687942
0.98050007
0.96093879
0.94314688
0.93093755
0.91693267
0.91053576
0.90612905
0.89630523
0.89025872
0.88209404
0.88511865
0.89017621
0.89830374
0.9189466
0.95918188
1.002639
1.051097
1.095717
1.1492594
1.2314246
1.3459915
1.4539844
1.6048787
1.7846822
1.9646363
2.1814008
2.3752468
2.6071916
2.8814654
3.1578723
3.3848456
3.6193255
3.8793645
4.1309955
4.36929
4.6313856
4.3714549
3.5216056
2.9216126
2.4763669
2.1444782
1.9002308
1.7242879
1.5989845
1.502514
1.4223003
1.34274
1.2780099
1.214521
1.1553998
1.1078874
1.0766399
1.0457665
1.0205032
0.99841923
0.97992227
0.96364253
0.94567023
0.93715507
0.92123599
0.91180821
0.90369889
0.89554109
0.89171785
0.88850125
0.89247655
0.89552687
0.90064134
0.91823906
0.94855628
0.98713329
1.0330518
1.0763821
1.1242167
1.2083002
1.3120345
1.4161692
1.5487197
1.7134395
1.8863761
2.0910082
2.2857049
2.4970743
2.7530502
2.9976104
3.2566433
3.5127329
3.8095269
4.0878174
4.3701649
4.5727676
4.3740747
3.5270931
2.9265074
2.4813587
2.1474899
1.9025982
1.7278448
1.600786
1.5054511
1.4238749
1.3462363
1.2804925
1.2174959
1.158408
1.1129653
1.0718027
1.051227
1.0291282
1.0026231
0.98337045
0.96558471
0.94900998
0.94123053
0.92572824
0.91635051
0.90781512
0.90391288
0.89997467
0.89687511
0.9023542
0.90471299
0.90741018
0.92225842
0.94069231
0.96966454
1.0167208
1.068108
1.1195055
1.2042215
1.3087376
1.3973313
1.5072913
1.6301266
1.808197
1.9782222
2.1494269
2.3304626
2.5659153
2.7749234
3.0121958
3.2343048
3.531368
3.8246434
4.1279793
4.3056115
4.3767027
3.5310289
2.9323339
2.4858352
2.1523238
1.906736
1.7313054
1.6035132
1.508945
1.4255218
1.3510663
1.2824951
1.2197038
1.1635295
1.1152397
1.071068
1.0507082
1.0329067
1.0078266
0.98861589
0.96676046
0.94940173
0.9395841
0.92653905
0.91845602
0.91058121
0.91015294
0.90911818
0.9084417
0.91152957
0.90872365
0.90770566
0.91987496
0.93616819
0.9625681
1.0122136
1.0663419
1.1247225
1.2096737
1.3187962
1.3980425
1.4991025
1.5977683
1.769623
1.9298908
2.0926668
2.2648128
2.504221
2.7070953
2.9320104
3.1408783
3.4171462
3.6769423
3.9119543
4.045088
4.3793437
3.5343755
2.9377075
2.4910292
2.1582395
1.9133229
1.7344445
1.6075214
1.51356
1.4315184
1.3554168
1.2846748
1.2255866
1.1674346
1.1148685
1.0751858
1.0487557
1.0317782
1.0113618
0.99267661
0.97026857
0.94873867
0.93782985
0.92583198
0.91707818
0.91146839
0.91103389
0.91035361
0.91362541
0.91669022
0.90889453
0.90343936
0.91289633
0.93300101
0.96259413
1.0208389
1.0721552
1.1329878
1.2186037
1.3291101
1.4041655
1.5000776
1.5898657
1.7517847
1.9120612
2.0768443
2.2494422
2.4940459
2.7049792
2.9358108
3.1578391
3.4445693
3.6959254
3.9113118
4.0384165
4.3815314
3.5381892
2.9422792
2.4971762
2.1626889
1.9187506
1.7376856
1.6107201
1.5158622
1.4368601
1.3576567
1.288239
1.2330263
1.1694968
1.1169314
1.0811963
1.0503118
1.0325989
1.0134696
0.99452831
0.9734185
0.95003115
0.93861312
0.92838081
0.91943094
0.91442497
0.91088286
0.90910064
0.91336595
0.9165052
0.90916369
0.90316879
0.91006645
0.93340731
0.96738672
1.0292083
1.0811744
1.1462073
1.2336747
1.3446545
1.416028
1.5133727
1.6041185
1.7535965
1.9146133
2.1001819
2.291236
2.5291028
2.7569484
3.0210758
3.2733571
3.6000373
3.8705063
4.0825734
4.25609
4.3832883
3.5419628
2.9461998
2.502645
2.16586
1.9208326
1.7408693
1.6124447
1.5162654
1.4366014
1.3592329
1.2924399
1.2344654
1.1712283
1.1221098
1.0827329
1.0565421
1.034733
1.0138468
0.99424549
0.97468312
0.95312634
0.94130391
0.932896
0.92539579
0.91914889
0.91165082
0.90847875
0.91158373
0.91414243
0.91052896
0.9089748
0.9159969
0.93944951
0.97370164
1.0369341
1.0930904
1.1649155
1.2492699
1.3604363
1.432574
1.5355651
1.6377531
1.7924285
1.9568942
2.1704477
2.3826677
2.6104731
2.8346974
3.1083613
3.3814768
3.6938709
3.9492756
4.1760229
4.3604224
4.3852462
3.5458926
2.9509777
2.5075359
2.170257
1.9220839
1.74366
1.6142318
1.5165116
1.4352013
1.3609629
1.294936
1.2321976
1.1743869
1.1264763
1.0816831
1.0615674
1.0373981
1.0146725
0.99334477
0.97589116
0.95720217
0.94532459
0.93546737
0.92964105
0.92401993
0.91594438
0.91272934
0.91239408
0.91468183
0.91647028
0.9229719
0.93456856
0.95763058
0.98976118
1.0556191
1.1174808
1.1975832
1.2831886
1.3916547
1.4691708
1.578039
1.6904935
1.8434589
2.0158727
2.2354177
2.466806
2.6981399
2.8960184
3.1408548
3.4127748
3.6975433
3.9231977
4.1586809
4.3404055
4.3869732
3.5491194
2.9559722
2.5119392
2.1764755
1.9256659
1.7470087
1.6176292
1.5201022
1.4379191
1.3657538
1.2974396
1.2334325
1.1812606
1.1306012
1.0834608
1.0637715
1.0440346
1.0221099
0.99948487
0.9834404
0.96735951
0.95621405
0.94504947
0.93780661
0.93161074
0.92583
0.92561639
0.92570753
0.9297018
0.9363962
0.95105471
0.96904377
0.99440679
1.024844
1.0826405
1.1469514
1.2287534
1.3281218
1.4453
1.5411416
1.6566553
1.7860226
1.9298608
2.08812
2.2980771
2.5350513
2.7803089
2.967189
3.1873849
3.4246534
3.6849117
3.8816414
4.1044275
4.2614758
4.3891836
3.5530845
2.96153
2.5172179
2.1835348
1.9322517
1.751927
1.6232937
1.5280407
1.4465455
1.3756401
1.3034934
1.2437944
1.1946326
1.1386192
1.093813
1.0719334
1.0585224
1.043744
1.0212425
1.0041883
0.98967643
0.97927964
0.97150629
0.96262315
0.95494436
0.949985
0.95262987
0.95934403
0.96788066
0.97916509
0.99822588
1.0219674
1.055648
1.0886142
1.1315315
1.1849381
1.2630995
1.3789115
1.5076484
1.6343977
1.7810487
1.9382023
2.0869707
2.2257614
2.4093156
2.619843
2.8821832
3.0810933
3.3037759
3.5010432
3.736814
3.897343
4.118088
4.2445631
4.3906515
3.5567175
2.9665256
2.523225
2.1903032
1.9410141
1.7603599
1.6325689
1.5397232
1.4614249
1.3915213
1.3196464
1.2654059
1.2168966
1.1584706
1.1167969
1.0961337
1.0869977
1.0780336
1.0617236
1.0421591
1.0278474
1.01964
1.0186564
1.0117658
1.0022597
0.99669391
0.99988097
1.0111114
1.025449
1.042894
1.065501
1.0941135
1.1379977
1.1770982
1.2158568
1.2502525
1.3270716
1.4462554
1.57179
1.702936
1.8857396
2.0705402
2.241668
2.3925821
2.5860721
2.768839
3.0219341
3.2271008
3.4717554
3.6620505
3.8819834
4.0234558
4.2233105
4.3185972
4.3936081
3.5630631
2.9746048
2.5342546
2.2031942
1.9579884
1.7803451
1.6542854
1.5632279
1.488359
1.4209945
1.3525325
1.3014066
1.2507847
1.1956019
1.1574493
1.1383617
1.1330723
1.1268021
1.1168414
1.1010303
1.0904141
1.0885544
1.0933981
1.0931453
1.0868547
1.0817413
1.0856622
1.0994192
1.1208415
1.143632
1.1690658
1.2074798
1.2633812
1.3086093
1.3514394
1.3805832
1.451276
1.5885844
1.7202444
1.8440746
2.0195327
2.2293146
2.4300725
2.600419
2.7962386
2.9878651
3.232903
3.4382619
3.6967648
3.9384816
4.1674453
4.3098682
4.5047526
4.5538848
4.3988505
3.5762246
2.9957732
2.5648803
2.2407933
2.0014701
1.8271352
1.702161
1.6107111
1.5373262
1.4726264
1.4101106
1.3605407
1.3151292
1.2703237
1.2400155
1.2349444
1.2388198
1.2417957
1.2433405
1.2430354
1.2440077
1.2550716
1.2710907
1.2819265
1.283444
1.2817999
1.2941344
1.3212458
1.355069
1.381166
1.4115012
1.4634004
1.5330428
1.5852715
1.6283507
1.6582838
1.7342694
1.8656807
1.9900135
2.1187468
2.295672
2.5031037
2.7233634
2.9264114
3.1164053
3.3084657
3.5233698
3.7297814
3.9922538
4.2214401
4.4864066
4.6379788
4.9281307
4.9991929
4.4279223
3.6282562
3.065099
2.642743
2.3253104
2.0999255
1.9372317
1.826916
1.7514125
1.6918916
1.6446439
1.6018018
1.570913
1.551931
1.5417872
1.5366192
1.5655056
1.6039385
1.6387985
1.6741176
1.7188874
1.7580634
1.8119152
1.8677274
1.9053739
1.9276572
1.9335822
1.9707306
2.0364508
2.1043211
2.1418738
2.1737039
2.2427669
2.3323196
2.4231325
2.4698039
2.5048395
2.6007698
2.7619621
2.8715292
2.9806821
3.1257322
3.2996003
3.5145182
3.7158686
3.900534
4.1111454
4.2969543
4.4873096
4.7663763
4.9426557
5.2053467
5.3385917
5.646122
5.8238804
4.4890323
3.7125342
3.2022465
2.855567
2.6260509
2.5099012
2.441726
2.4135935
2.4053347
2.4124758
2.4299989
2.4517513
2.4875025
2.5537712
2.6067487
2.6400965
2.7598526
2.8550382
2.9338592
3.0351305
3.1566144
3.2669066
3.3965946
3.5109529
3.5909544
3.653499
3.6719426
3.7422085
3.8720223
3.9932532
4.0470778
4.07194
4.1628652
4.2651417
4.4084384
4.4964875
4.5372356
4.6278837
4.8221001
4.9378946
5.0212094
5.1001288
5.2486031
5.4397293
5.5946426
5.775422
5.9926697
6.1600337
6.2833834
6.5138748
6.6364675
6.8577677
6.9604947
7.2018058
7.3852025
4.5843622
4.2081935
4.18392
4.2016254
4.3135827
4.5558377
4.7716911
4.9027943
5.0239426
5.1291517
5.2489185
5.3463374
5.4700497
5.6414128
5.7594833
5.80903
6.0219644
6.1684601
6.2964498
6.4486196
6.6446776
6.8447598
7.0581491
7.2246568
7.3300014
7.4214888
7.4503987
7.5481389
7.7790972
7.9897594
8.0778129
8.1084174
8.2169905
8.346796
8.5183211
8.6231864
8.6574238
8.7336221
8.882872
9.0231141
9.0969991
9.145033
9.2149519
9.3465531
9.4793179
9.7147025
9.9145945
10.093308
10.297024
10.459346
10.54601
10.605894
10.596473
10.709484
10.635373
7.5693009
10.210785
11.280563
11.553934
11.957744
12.51677
13.127986
13.462459
13.611333
13.858242
14.108375
14.121183
14.371822
14.668707
14.778209
14.664984
15.074921
15.33611
15.506154
15.583784
15.749083
16.067564
16.482471
16.768513
16.823879
16.771563
16.659329
16.690351
17.129752
17.646794
17.894505
17.938143
18.127808
18.294468
18.468829
18.607191
18.571946
18.686466
18.940965
19.188221
19.264841
19.250857
19.170932
19.287433
19.548532
19.588375
19.558875
19.704501
20.043406
20.386234
20.608236
20.576289
20.529489
20.383059
19.992688
54.698802
54.962806
54.887954
54.76492
54.692964
54.562265
54.557057
54.55107
54.557138
54.618076
54.531818
54.446284
54.426445
54.754441
54.842726
54.721874
55.042361
55.25601
54.88147
55.010028
54.905496
54.864564
55.086717
55.633236
55.545686
54.986744
55.065605
55.482798
55.510224
55.537244
55.946977
56.217041
55.939417
55.469807
55.401954
55.880385
56.448015
56.780765
56.877641
56.777227
56.509194
56.174539
56.026592
56.363878
57.088901
57.808458
58.177619
58.05719
57.384569
56.288311
55.112259
54.370723
54.209969
54.581217
55.241494
57.84292
20.841832
10.867322
7.7425155
6.1740244
5.2540409
4.8161436
4.6124269
4.5686921
4.5966941
4.6819944
4.7062814
4.5852617
4.3169499
4.2888099
4.4938896
4.7853564
4.8555392
4.9186183
5.2842669
5.8537001
6.121015
6.0629741
6.2896278
6.7764892
7.6586999
8.7177697
62.256919
21.829613
11.400858
8.2316039
6.7015941
5.7132563
5.2358184
5.0621513
5.0094972
5.0025467
5.0645442
5.124141
5.0218077
4.707066
4.602298
4.7119623
4.989981
5.1155725
5.2113416
5.5777364
6.152562
6.4655496
6.4130211
6.5267674
6.7890039
7.5266511
8.881055
66.0762
22.791141
12.193181
9.0081305
7.1787101
6.1174643
5.7026744
5.5656412
5.4995067
5.4373469
5.4302147
5.4554932
5.3680531
5.1033874
4.9590393
5.0361705
5.1943522
5.278373
5.4337393
5.9265798
6.5654673
6.8296022
6.8081177
6.9063333
6.9678481
7.5709835
9.1829399
68.94663
24.206982
13.09882
9.5709562
7.6185826
6.5887579
6.1982915
6.0494173
5.9329468
5.8031333
5.754375
5.7699162
5.6748221
5.4033861
5.2911029
5.3575405
5.4394029
5.4652431
5.6305265
6.2100325
6.8787036
7.1275434
7.140085
7.300766
7.3391606
7.8233694
9.4989572
71.137175
25.808206
13.772106
9.9146955
8.0215286
7.0129076
6.6345182
6.5234571
6.355601
6.1997759
6.1491575
6.1623629
6.063287
5.7926726
5.6520373
5.6992137
5.7441711
5.7306169
5.8840892
6.4748187
7.1430498
7.3563504
7.358391
7.5824077
7.7098345
8.1628415
9.6722472
74.152714
27.145532
14.406713
10.318735
8.2773156
7.302631
7.0328173
6.9816492
6.8493778
6.6638642
6.5945107
6.5844395
6.4881751
6.2147322
6.0444574
6.0476039
6.0511209
6.020049
6.1768867
6.7690133
7.3666088
7.5191955
7.4959918
7.7608011
8.0885824
8.5143607
9.7639199
78.884718
28.218992
15.009654
10.5872
8.5061234
7.6991562
7.5543151
7.5513742
7.4280911
7.144549
7.0224861
6.9575738
6.837644
6.604771
6.4712248
6.4480564
6.3820919
6.3007504
6.4552424
7.0487195
7.579916
7.6866126
7.5961535
7.9098301
8.492379
8.8783575
10.007684
85.102678
30.805788
16.065454
11.074645
9.0098253
8.294259
8.1537353
8.0755792
7.7911115
7.4596382
7.2937829
7.1812151
7.0475961
6.9312494
6.9022799
6.9158883
6.8287909
6.6959666
6.788652
7.3006015
7.7770727
7.8964896
7.7913442
8.1495141
8.793779
9.151343
10.394951
92.049624
34.10856
17.227709
11.666167
9.5551436
8.817825
8.6459065
8.3996022
7.9628101
7.6396867
7.4501099
7.295753
7.1877631
7.1690232
7.2516814
7.382334
7.3979454
7.2936671
7.3091583
7.6583827
8.0474517
8.1578113
8.1648014
8.5678028
9.0724822
9.3289243
10.637738
98.546721
36.025751
17.89305
12.049155
9.9240667
9.2030459
8.9839982
8.6479764
8.2222184
7.8973155
7.6485418
7.4276958
7.3295741
7.3679566
7.557192
7.8200975
7.9472464
7.9631003
8.0010089
8.2630762
8.504538
8.5217723
8.6517345
9.1024093
9.4426663
9.4876604
10.655726
104.16758
37.657886
18.549029
12.432426
10.276918
9.5943284
9.3691817
9.045629
8.615427
8.2244537
7.8988473
7.6547692
7.5759402
7.6889474
7.9545392
8.1846868
8.30433
8.4046495
8.5926632
8.9297388
9.0967426
9.0178328
9.1297943
9.5391937
9.7791381
9.7086076
10.595049
108.71831
38.347252
18.943963
12.526055
10.497092
9.9601814
9.7637284
9.4187386
8.9177713
8.473247
8.1760852
8.0209502
7.9970241
8.1523279
8.3556232
8.4353
8.4478002
8.5496953
8.8511508
9.3589989
9.621427
9.560386
9.504722
9.7080233
9.9755798
9.9467004
10.583581
112.56456
39.505209
18.987967
12.490164
10.724158
10.28381
10.042398
9.5678998
8.9704446
8.6234264
8.4982698
8.4713474
8.5581703
8.6794311
8.7123568
8.6279396
8.5449308
8.6087011
8.9102833
9.528175
9.9572671
9.9707141
9.7368603
9.7601361
10.086269
10.142119
10.591175
116.8521
40.367957
18.668111
12.448232
10.962323
10.505829
10.120289
9.5207163
9.0145944
8.8316318
8.7884067
8.9100646
9.0924604
9.1301453
9.0584458
8.8545424
8.7163282
8.7730294
9.0760851
9.7371205
10.222702
10.192485
9.8162927
9.7968588
10.16729
10.278833
10.589978
121.60776
40.025553
18.299727
12.563899
11.128741
10.610258
10.190195
9.6044658
9.2491294
9.1476014
9.1465277
9.3453122
9.4890189
9.4790211
9.3588445
9.1442228
9.0201321
9.1019494
9.4717142
10.126401
10.515895
10.300404
9.8286322
9.8070304
10.206446
10.375822
10.625217
125.9508
40.490501
18.21018
12.515842
11.185175
10.789285
10.475232
10.038606
9.8324247
9.7531555
9.7547018
9.8302817
9.8647414
9.7885319
9.6069649
9.4241203
9.3643566
9.5251242
9.9736428
10.539448
10.703847
10.320839
9.8787323
9.8661687
10.186498
10.388143
10.699183
129.93681
41.326854
18.531445
12.596948
11.194673
10.931259
10.875056
10.821084
10.738015
10.672947
10.596352
10.542888
10.412374
10.211282
9.9788061
9.7908467
9.7601918
9.987848
10.397307
10.676971
10.599113
10.248637
9.9998257
10.01157
10.177684
10.376136
10.761603
135.05594
42.556553
19.021047
12.678497
11.227459
11.081761
11.277764
11.435955
11.512139
11.479916
11.365105
11.222935
11.045897
10.794045
10.540955
10.376473
10.428018
10.571212
10.684882
10.593646
10.368276
10.165669
10.1289
10.173907
10.242211
10.387229
10.835659
143.51365
44.739844
20.144988
13.17587
11.473375
11.276688
11.421102
11.622065
11.721635
11.720628
11.63476
11.501687
11.388831
11.315132
11.212221
11.183948
11.30962
11.317183
10.989905
10.467485
10.178184
10.097511
10.20943
10.292659
10.284875
10.407091
10.918679
154.25134
47.880601
21.721502
14.176045
12.136283
11.680098
11.59665
11.61026
11.599153
11.514746
11.432698
11.373637
11.368381
11.419035
11.553202
11.800087
12.039385
11.936971
11.328265
10.627664
10.330451
10.263304
10.350015
10.375304
10.313145
10.43218
10.99281
163.45065
48.825292
22.509861
15.247417
13.11475
12.438343
12.111427
11.812782
11.518554
11.347271
11.272495
11.286589
11.408112
11.569184
11.76453
12.016908
12.114383
11.904373
11.408794
10.947959
10.743135
10.701674
10.640426
10.532452
10.386284
10.526831
11.094726
167.33095
50.806409
24.327709
17.224981
15.075829
14.309693
13.198025
12.145716
11.562092
11.33472
11.357057
11.509187
11.87086
12.178683
12.295843
12.167808
11.814297
11.403099
11.159936
11.132731
11.297436
11.435575
11.280595
10.928074
10.59551
10.7273
11.347766
167.13577
57.245766
28.439651
20.612908
18.182062
16.154681
13.884659
12.549005
12.058519
12.05963
12.209818
12.57905
12.895281
12.953904
12.720887
12.185911
11.545192
11.081211
10.986168
11.202893
11.644645
11.86919
11.833242
11.466914
11.053172
11.156777
11.696029
171.37276
64.019045
32.880821
23.986519
20.374825
16.781448
14.446541
13.397725
13.1262
13.219845
13.458557
13.631872
13.573277
13.21597
12.609524
11.960639
11.43354
11.204298
11.220064
11.425641
11.663057
11.81101
11.882044
11.823059
11.727462
11.83744
12.099994
178.06828
64.856203
34.552299
26.704103
21.746509
17.381958
14.866802
13.859711
13.650179
13.764707
13.951064
13.973007
13.639068
13.016415
12.284973
11.752683
11.561096
11.578541
11.747567
11.781211
11.665471
11.4766
11.486242
11.780644
12.343123
12.627261
12.527509
184.89705
62.056984
36.952347
29.783573
22.238377
17.046858
14.408069
13.305312
13.016407
13.130753
13.374556
13.490218
13.289028
12.692284
12.065766
11.768792
11.708512
11.938428
12.147143
12.080932
11.80266
11.242817
11.053124
11.494106
12.701468
13.402015
12.96101
185.32556
65.203452
43.745011
32.269236
22.04345
16.286409
13.485263
12.312479
12.007961
12.148162
12.555163
12.901195
12.852575
12.392216
11.9196
11.759924
11.775434
12.090583
12.35888
12.242958
11.950471
11.19952
10.902499
11.330554
12.870929
13.906172
13.274802
182.62753
77.26403
50.704284
32.632158
21.232652
15.477149
12.799469
11.737833
11.529666
11.767606
12.287593
12.630846
12.54664
12.115878
11.659684
11.507901
11.567196
11.914855
12.240212
12.220453
11.981546
11.275695
10.974477
11.396261
12.973697
14.017273
13.355877
184.49629
85.478191
51.595354
30.585209
19.770076
14.687335
12.412812
11.54325
11.457724
11.749827
12.241254
12.431841
12.231113
11.766267
11.268757
11.079287
11.13125
11.456871
11.885485
12.082206
11.941322
11.355894
11.084818
11.476822
12.839464
13.708596
13.177037
190.64809
87.25011
46.795496
26.663514
17.705266
13.650936
11.82821
11.178123
11.143042
11.470151
11.888126
12.027185
11.83937
11.361648
10.818187
10.580531
10.615342
10.971848
11.524822
11.844569
11.756318
11.291209
11.028979
11.346762
12.408587
13.140956
12.809748
197.13776
86.755769
41.459178
23.464962
15.939959
12.520068
10.975752
10.456639
10.435186
10.784122
11.298502
11.5757
11.519073
11.115292
10.529061
10.204025
10.2038
10.540576
11.155807
11.526564
11.418724
10.977323
10.702316
10.929616
11.754354
12.501606
12.432955
199.24177
86.361632
38.770258
21.755671
14.777794
11.604014
10.20918
9.7840556
9.8126364
10.249927
10.920586
11.352058
11.392499
11.025676
10.436826
10.048712
9.9977437
10.283571
10.833222
11.139071
11.010389
10.591092
10.343683
10.548638
11.277422
12.041563
12.1969
197.86881
83.292323
36.314775
20.345923
13.884163
11.026332
9.833072
9.4988584
9.5959295
10.101002
10.854118
11.356787
11.441702
11.101996
10.527415
10.10492
10.017598
10.221812
10.613922
10.795945
10.672969
10.339883
10.190953
10.41778
11.071347
11.809448
12.071674
191.97805
74.892413
32.198451
18.602683
13.249837
10.917172
9.9857186
9.7468517
9.913478
10.444433
11.145239
11.559967
11.614155
11.293442
10.764017
10.356903
10.236583
10.335798
10.555238
10.647997
10.57883
10.363478
10.281479
10.493874
11.088809
11.786499
12.120456
185.82886
65.541648
28.359555
17.33144
13.119538
11.334049
10.689305
10.569126
10.821085
11.318353
11.827355
12.040487
11.995164
11.654322
11.19411
10.86085
10.739962
10.740916
10.821497
10.85105
10.810225
10.660619
10.602505
10.771379
11.30604
12.009948
12.415338
180.17275
55.824283
25.574146
16.954886
13.679488
12.385544
12.00258
11.960292
12.197902
12.557719
12.812478
12.873632
12.74317
12.440482
12.124447
11.936551
11.853427
11.811897
11.777486
11.727986
11.6156
11.405945
11.290463
11.404515
11.872948
12.646841
13.247722
171.575
50.658661
25.148048
17.80432
15.11906
14.105732
13.757539
13.669976
13.751698
13.940887
14.076574
14.099205
14.021847
13.896538
13.837998
13.811541
13.783024
13.715431
13.635943
13.517103
13.295174
12.956405
12.778151
12.825718
13.223666
14.211966
15.270626
157.87207
49.884068
26.624663
19.935577
17.270727
16.124665
15.655353
15.407567
15.264975
15.225751
15.325212
15.502893
15.648387
15.800466
15.969027
16.026082
15.972969
15.872574
15.664982
15.381457
15.00381
14.840918
14.925479
15.272145
16.192692
17.751697
19.842944
143.4955
51.907203
29.933082
23.057374
20.125172
18.565925
17.473961
16.820015
16.556898
16.503077
16.69897
17.248142
17.683524
18.031753
18.190189
18.148463
18.026994
17.937768
17.684068
17.218529
16.899002
16.819649
16.890129
17.198748
18.056635
19.648851
21.757334
130.11696
55.113828
34.342362
27.190434
23.699803
21.671377
20.231765
18.670755
17.90926
17.719683
17.82507
18.471641
19.360701
19.861375
20.121227
20.106705
20.010276
19.856257
19.405731
18.89367
18.501982
18.391918
18.504654
19.047332
19.589681
20.24624
21.198231
118.85935
57.852997
38.08555
30.977114
27.515577
25.568745
24.002258
22.207821
20.930599
20.478041
20.324604
20.379511
20.869464
21.192273
21.31201
21.286095
21.305651
21.307753
21.052128
20.586747
20.045521
19.599646
19.509225
19.702398
20.294198
20.905135
21.373991
115.39211
61.746338
42.508735
35.388566
32.859944
31.955374
31.555012
31.214999
30.714089
29.626812
28.333221
27.237918
26.011191
24.838192
23.834392
23.415461
23.29933
23.292288
23.071257
22.705044
22.062456
21.622515
21.414615
21.366656
21.495117
21.658662
21.824368
117.78605
57.201422
40.020158
33.715683
31.376762
30.819277
31.19411
32.498733
34.428926
36.631088
38.785195
39.876955
39.683956
37.976235
35.590918
32.977631
30.478228
28.425076
27.321343
27.010627
26.959459
26.882869
26.507589
25.574855
24.069248
22.657198
21.719557
153.84093
57.356155
40.283725
34.967673
33.288659
32.975542
33.228462
33.917523
34.503054
34.891228
34.950905
34.634391
34.320027
34.027806
33.885824
33.529959
32.857192
32.022564
31.310095
30.621094
30.671508
30.908568
30.760352
29.48919
27.040061
24.191674
21.824968
159.98222
72.000698
53.822808
46.7872
42.457584
38.470073
35.708633
34.024417
32.677444
32.109977
31.832091
31.023936
29.413437
27.472702
26.411339
26.371869
26.905254
27.868947
28.951174
29.564179
29.645203
29.55147
29.083055
28.053983
26.381233
24.072241
21.868406
120.23604
67.167514
50.177269
41.63052
31.674742
27.137441
26.660455
26.858183
28.771296
30.251343
30.461462
30.469956
29.122562
26.571764
24.436869
23.37053
23.283693
23.704561
24.389357
24.995278
25.485315
25.750267
25.869754
25.60211
24.679316
23.238479
21.859452
81.054989
54.590281
41.129828
32.319018
26.615719
24.170599
23.265215
22.998943
23.018483
23.798662
24.534244
24.737206
24.546786
23.727607
22.485516
21.813397
21.783433
22.058269
22.516575
22.939931
23.19383
23.342828
23.231859
22.896457
22.441935
22.025005
21.783417
86.084752
48.160632
32.811065
25.871322
22.539147
20.694848
19.527317
18.786984
18.292322
17.984942
17.864919
17.895911
18.128992
18.435921
18.817531
19.383926
20.089876
20.744258
21.235292
21.438797
21.37592
21.036137
20.607917
20.420779
20.570654
20.846257
21.172353
111.10578
45.108198
28.252037
21.971546
19.011212
17.406276
16.449858
15.813807
15.317891
14.878175
14.554523
14.429371
14.559556
15.011184
15.774327
16.777194
17.873491
18.820147
19.352381
19.395384
19.047475
18.498842
18.192561
18.257805
18.721216
19.374602
20.043654
127.76413
46.637321
27.193152
20.571376
17.468493
15.794892
14.825725
14.232156
13.845207
13.560719
13.336228
13.208259
13.222804
13.465494
13.961548
14.668311
15.483012
16.204206
16.627888
16.680374
16.471342
16.249511
16.200779
16.464973
17.016659
17.753892
18.410215
132.57354
47.428624
27.084187
20.278468
17.081026
15.310214
14.246405
13.585741
13.177688
12.934758
12.805865
12.764431
12.801887
12.922156
13.135215
13.439381
13.803206
14.164607
14.433831
14.532399
14.520192
14.543124
14.726588
15.134749
15.755277
16.439531
16.922133
133.41992
45.937902
26.39979
19.889536
16.818572
15.103443
14.056029
13.384523
12.945598
12.660627
12.486793
12.399101
12.383242
12.431888
12.544782
12.717005
12.928797
13.140025
13.295084
13.373929
13.420868
13.511871
13.726694
14.114219
14.668164
15.288545
15.798919
132.89397
43.127892
25.319383
19.341553
16.511892
14.941435
13.97357
13.33076
12.879479
12.547129
12.29149
12.092146
11.944064
11.858084
11.856574
11.95744
12.165217
12.438274
12.689172
12.847855
12.940445
13.04972
13.239792