/*--------------------------------*- C++ -*----------------------------------*\
| =========                 |                                                 |
| \\      /  F ield         | OpenFOAM: The Open Source CFD Toolbox           |
|  \\    /   O peration     | Version:  2406                                  |
|   \\  /    A nd           | Website:  www.openfoam.com                      |
|    \\/     M anipulation  |                                                 |
\*---------------------------------------------------------------------------*/
FoamFile
{
    version     2.0;
    format      ascii;
    arch        "LSB;label=32;scalar=64";
    class       surfaceScalarField;
    location    "16";
    object      phi_0;
}
// * * * * * * * * * * * * * * * * * * * * * * * * * * * * * * * * * * * * * //

dimensions      [1 0 -1 0 0 0 0];

oriented        oriented;

internalField   nonuniform List<scalar> 
123996
(
0.0022201939
-9.9428258e-05
0.00011477804
0.0022545974
-0.00013828835
7.1814953e-05
0.0022950236
-0.00012267682
8.672395e-05
0.0022928355
-2.2402267e-05
1.7474452e-05
0.0022606072
-3.637048e-05
0.00014187852
0.0021760491
-0.00029168622
0.00014072234
0.0020767905
-0.00020894454
8.4365494e-05
0.0020342864
-0.00015685102
0.00020652579
0.001962616
-0.00035459561
0.00027200198
0.0018039581
-0.00030243732
0.00033836068
0.0017025162
-0.00047760714
0.00070303236
0.0016205752
-0.00063464137
0.00058700204
0.0015575113
-0.00068827659
0.00058020528
0.001551447
-0.00050027729
0.00075977665
0.0014615411
-0.00062429903
0.00083597652
0.0014279082
-0.0010153117
0.00068310972
0.0013835972
-0.00061259558
0.00044923462
0.0012533167
-0.00038570373
0.00066458386
0.0012509469
-0.00054226592
0.00087705091
0.0011395655
-0.00088325181
0.00075739101
0.00096929269
-0.00094572997
0.00059478416
0.001002132
-0.00049670411
0.00051057835
0.0010017982
-0.00043751767
0.00065468912
0.00096908489
-0.00075970912
0.00095620606
0.00094008221
-0.00076027672
0.00094753908
0.00072717529
-0.000602674
0.00086629959
0.00073131129
-0.00055548248
0.00082048436
0.00096450751
-0.00050567146
0.00062296062
0.00095442359
-0.0005335533
0.00043122988
0.00053393068
-0.00078531253
0.00053779266
0.00011088832
-0.0010921179
0.0009301305
8.8503641e-05
-0.0011381788
0.0012430266
0.00051725236
-0.00084957341
0.0011827257
0.00085281969
-0.00056049492
0.00079421126
0.0005974643
-0.00059048728
0.00062437303
9.9394734e-05
-0.00091189208
0.00091731574
3.1760575e-05
-0.000958709
0.0011995728
0.0005789501
-0.00067226651
0.0010046377
0.0012613157
-0.00031381157
0.00038196546
0.0015480211
-0.0002575053
2.2866994e-05
0.0012546389
-0.00056526642
-0.00012196542
0.00083693095
-0.0009392438
9.4749956e-06
0.00055434864
-0.00099255231
0.00024490219
0.00049771017
-0.00064714252
0.000403491
0.00061239887
-0.00013054938
0.00041614888
0.0011447985
0.00015735214
0.00028076035
0.0020147473
0.0005395677
3.2543733e-05
0.0027089325
0.00077464905
-0.00023620979
0.0028699537
0.00082873253
-0.00056669563
0.0024787154
0.00078050903
-0.00076295418
0.0019024453
0.00068676938
-0.00081285726
0.0016684251
0.00055843713
-0.00072252327
0.0019415902
0.00036589672
-0.00057278065
0.002261011
0.00023730466
-0.00039871951
0.00012743829
0.002209988
-0.00025476362
0.0021119021
-0.00010472428
0.0021424524
-0.00019055682
0.0021878803
-0.00024915828
0.0021862128
-0.00014829746
0.0021388468
-0.00012371665
0.0020754531
-0.00027038922
0.0019868142
-0.00022122717
0.0019281465
-0.00024683334
0.0018818058
-0.00025481991
0.0017291425
-0.00037185488
0.0016310887
-0.00038754294
0.0015478013
-0.0004437349
0.0015152931
-0.00064581039
0.0015041962
-0.00055106143
0.0013652008
-0.00046817273
0.0013977405
-0.00072966254
0.001365737
-0.00076538695
0.0012317243
-0.00059047247
0.0011771567
-0.00042071979
0.0010956667
-0.00064608976
0.0010212367
-0.00097249727
0.00099942736
-0.00082156164
0.00089853881
-0.00058146986
0.00096679153
-0.00063377626
0.0010130988
-0.00049752912
0.00081390999
-0.00035955605
0.00076353177
-0.00038344746
0.00087957106
-0.00040540329
0.0008096553
-0.00056002406
0.00045643178
-0.00089442139
0.0001576833
-0.001114391
0.00022925989
-0.00097540873
0.00059928614
-0.00051465721
0.00074477294
-0.00024864781
0.00040368908
-0.00047629299
0.00013310962
-0.00086078711
0.00017767626
-0.00092252082
0.00054968464
-0.00057834174
0.00066235304
-0.00031378129
0.0003407867
-0.00055316787
1.5091257e-05
-0.00097361314
-4.7763151e-05
-0.0011575061
0.00030198779
-0.00087035344
0.00087098776
-0.00039831724
0.0013497877
-3.5717032e-05
0.0017500042
0.00026528427
0.002187017
0.00045423615
0.0026432475
0.00047106888
0.0027935945
0.0003778149
0.0025955076
0.00028894786
0.0021262553
0.00024597505
0.0016250128
0.0002761982
0.0014763215
0.00030664885
0.0016650188
0.00031407923
0.00022707705
0.0021007232
0.0020071491
-7.5707264e-05
0.0020360374
-0.00016816251
0.0020837275
-0.00021931397
0.0020815272
-0.00023799272
0.0020312545
-0.0002789454
0.0019838892
-0.00013539974
0.0018911102
-0.0001629573
0.0018392478
-0.0003535498
0.0017922542
-0.00014479411
0.0016487792
-0.00038458947
0.0015564308
-0.000436056
0.0014634584
-0.00037323993
0.0014477219
-0.00046403675
0.0014355459
-0.00056810193
0.0012824374
-0.00060449423
0.0013297752
-0.00033580658
0.0013093857
-0.00056767931
0.0011852224
-0.00084031637
0.0011002231
-0.00054513359
0.0010052267
-0.00034441077
0.00098280528
-0.00060791493
0.00095266731
-0.00085229947
0.00080597384
-0.00078592426
0.00094169583
-0.00062569698
0.0010206556
-0.0003845869
0.00080682954
-0.00035910213
0.00070947381
-0.0004514253
0.00074168761
-0.00044123153
0.00066223351
-0.00053822058
0.0004159337
-0.00081849501
0.00024712412
-0.00096970428
0.00040129495
-0.00076500053
0.00068052909
-0.00031711866
0.00068211442
-0.00011107739
0.00033923582
-0.00040568998
0.00020673258
-0.00079895476
0.00037790143
-0.00089722211
0.00060347898
-0.00061349411
0.00034631838
-0.00042469042
-0.00010253509
-0.00066920645
-0.00038099098
-0.0010583509
-0.00020973226
-0.0011284681
0.00027817556
-0.00083310515
0.00076129434
-0.0004382211
0.0010539617
-0.00024290859
0.0011653038
-0.00016233206
0.0012344558
-0.00012109056
0.001405841
-0.00010820847
0.0016582644
-9.6315264e-05
0.0018283205
-5.1463842e-05
0.001834813
2.0397342e-06
0.0016546084
0.00012349384
0.0014812624
0.00029840327
0.001539426
0.00050470419
0.00061312167
0.0018203926
0.0019111933
-3.0043273e-05
0.001937855
-0.00013286015
0.0019842228
-7.4701827e-05
0.0019801529
-0.00021433612
0.0019413444
-0.00026288533
0.0018940628
-6.2248008e-05
0.0017941715
-0.00018091723
0.001766753
-0.00028515038
0.0017003892
-0.00019865477
0.001572797
-0.0003751864
0.0014900846
-0.00035990386
0.0013923502
-0.0004411677
0.0013779622
-0.00044749622
0.0013683089
-0.00044313022
0.001269699
-0.00079629387
0.0012755912
-0.00022458175
0.0012276692
-0.00034899761
0.0011670566
-0.00074353463
0.0011031454
-0.00058188908
0.0009692085
-0.00023845692
0.00094135954
-0.0003316046
0.00094232309
-0.00065795953
0.00080151795
-0.00076426106
0.00094941079
-0.00054127424
0.0010047331
-0.00031857105
0.00077184255
-0.00046037502
0.00067305172
-0.00063985702
0.00067335627
-0.00058234578
0.00058534185
-0.00053071273
0.0004297349
-0.00064627236
0.00035860958
-0.00075880083
0.00053490989
-0.00059153227
0.00070334303
-0.00026594881
0.00052975098
-0.0001490174
0.00017063798
-0.00042973968
0.00010076951
-0.00077698755
0.00038125305
-0.00085328732
0.00054990985
-0.00061580624
0.00017686657
-0.00053992864
-0.00026643921
-0.00078872606
-0.00045517662
-0.0010656385
-0.00012415557
-0.0010632539
0.0002431462
-0.00079206051
0.00054147668
-0.00052995204
0.0005168241
-0.00045713551
0.00040663265
-0.0005485105
0.00036191469
-0.0006348738
0.00043655661
-0.00058773372
0.00072837092
-0.00040889641
0.0010889033
-0.00018039257
0.001410386
-1.3540441e-05
0.0016233303
0.00018037648
0.0017202391
0.00037483242
0.0017769525
0.00054327898
0.00072462786
0.0018034928
0.0018176829
-1.895566e-05
0.0018477023
-9.4548328e-05
0.0018867901
-7.5280179e-06
0.0018831986
-0.00013734924
0.0018597435
-0.00012262926
0.0018009176
-8.8211957e-05
0.0017042879
-0.00025710598
0.0016892293
-0.00015960102
0.0016135657
-0.00034154814
0.0015082489
-0.00030456869
0.0014202085
-0.00018715786
0.0013252102
-0.000502121
0.0013185064
-0.00056923733
0.0012721184
-0.00035144751
0.0012557153
-0.00073968261
0.0012083611
-0.00038609027
0.001137646
-0.00024423891
0.001136423
-0.00043597002
0.0011073398
-0.00044146299
0.00094055402
-0.00035085047
0.00086375692
-0.00034463609
0.00089576202
-0.0005287568
0.00081215593
-0.00061093693
0.00094411716
-0.00034703995
0.00094003672
-0.00018538404
0.00069783269
-0.00045489846
0.00062530808
-0.00072425963
0.00063674323
-0.00066179281
0.00055137736
-0.00049177735
0.00042084414
-0.0004630692
0.00042068705
-0.00054390044
0.00060646892
-0.00047272532
0.00069375714
-0.00031443179
0.00043065183
-0.0003187087
9.9940804e-05
-0.00055706647
6.8033899e-05
-0.00079362073
0.00041435181
-0.00077580432
0.00055050724
-0.00057100521
0.00012078353
-0.00057852299
-0.00036705041
-0.00080061545
-0.00051463367
-0.00096267796
-0.00013757058
-0.00088551023
0.00014243993
-0.00069824874
0.00027964828
-0.00056971967
0.00011306146
-0.00057363681
-3.1750814e-05
-0.00061673949
-7.1081647e-05
-0.00062538857
0.0001038621
-0.00048869508
0.00044842687
-0.00023697081
0.00083691086
2.9272844e-05
0.0011988161
0.0001879557
0.0015243697
0.00036312613
0.0017249073
0.00047378705
0.0017735371
0.0004765958
0.00054132248
0.0017188337
0.0017283901
-5.5336214e-05
0.0017621105
-6.5229026e-05
0.0017920104
-4.8512097e-05
0.0017947549
-8.9407824e-05
0.0017749817
-5.0008066e-05
0.0017080546
-0.00020584435
0.0016289402
-0.00026895741
0.0016023693
-0.00013727302
0.0015429504
-0.00038403833
0.0014541327
-0.00021162675
0.0013450356
-0.00011890888
0.0012561739
-0.00047986478
0.0012700554
-0.00058642273
0.0011818287
-0.00036747731
0.0012275649
-0.00048234532
0.0011608745
-0.00054209778
0.0010827982
-0.00035213112
0.0011083446
-0.00021136503
0.0010771291
-0.00031000532
0.00089775901
-0.00054519671
0.00079230155
-0.00057428406
0.0008516449
-0.00052151032
0.00084153632
-0.0004785935
0.00094822366
-0.00019950626
0.00088065126
-9.4562062e-05
0.00063342272
-0.00040630681
0.00061219147
-0.00065452495
0.00066186297
-0.0005549574
0.00058378141
-0.00033441901
0.00043453649
-0.00026489748
0.00044253969
-0.00035624816
0.00060439282
-0.00037747633
0.00062267342
-0.00036213289
0.00031674426
-0.00048555562
2.1905821e-05
-0.00071976248
-7.1883731e-08
-0.0008241098
0.00036295118
-0.00069087607
0.00052436814
-0.00052023844
0.00015803415
-0.00057170614
-0.00027591674
-0.00074712335
-0.00043875351
-0.00080519511
-0.00012093795
-0.00069653019
8.5234456e-05
-0.00057241059
0.00018521216
-0.00057101171
4.4354481e-05
-0.00061158233
-4.2797627e-05
-0.00057171101
-1.236578e-05
-0.00044614736
0.00020743157
-0.00025200337
0.00054838799
-3.6799009e-05
0.00089750733
0.00016957543
0.0011804642
0.00031681966
0.0013653733
0.00041445688
0.0014484902
0.00045395697
0.0014146555
0.00040873543
0.00037738027
0.0012924907
0.0016450397
-0.00010451975
0.0016771319
-7.8229313e-05
0.0017049852
-0.00016195297
0.0017119023
-8.708061e-05
0.001687217
-5.4264874e-05
0.0016258096
-0.00027861601
0.0015589787
-0.00020155362
0.001516526
-0.00020008066
0.001480983
-0.00028113717
0.0013983082
-0.00012820476
0.0012695911
-0.00018331564
0.0011955808
-0.00040038003
0.0012247375
-0.00042198615
0.0011270523
-0.00043509439
0.0011685213
-0.00022790302
0.0011156924
-0.0005724628
0.0010439734
-0.00050789495
0.0010555394
-0.00016070523
0.0010048481
-0.00027594749
0.00084565961
-0.00064747228
0.00074492006
-0.0007355483
0.00080871366
-0.00048490899
0.000844869
-0.00037715687
0.00092202706
-0.00017167541
0.00080269893
-0.00012254884
0.00058309882
-0.00040549799
0.00062032826
-0.00052932091
0.00071084989
-0.00035626697
0.00062862489
-0.00015600776
0.0004451485
-0.0001374608
0.00043058928
-0.00024175627
0.00056467978
-0.00031027809
0.00055556619
-0.00037477214
0.00026437532
-0.00059116021
1.4014805e-05
-0.00082110363
5.5490772e-06
-0.00082978338
0.00033228842
-0.00060084677
0.00049035098
-0.0004367118
0.00020856917
-0.00051714923
-0.00015886926
-0.00066940647
-0.00036101381
-0.00066338162
-0.00015984957
-0.00052746481
-2.9148182e-05
-0.00046079158
6.1408807e-05
-0.0005098935
2.941136e-05
-0.0005997909
3.7095473e-05
-0.00052776416
0.00012078525
-0.00030729132
0.00032054307
-5.924464e-05
0.00063112308
0.00012456716
0.00094349434
0.00027218282
0.0011363738
0.00035849229
0.001205967
0.00038931769
0.0011792693
0.00038420949
0.0010802194
0.00030815782
0.00022030167
0.00090063111
0.0015668122
-0.00011970371
0.0015930754
-0.00011825187
0.0016250775
-0.00025354618
0.0016334001
-0.00010553838
0.0015990374
-0.00014385258
0.001551749
-0.00024371434
0.0014865777
-0.00013611626
0.0014418594
-0.00027939149
0.0014222072
-0.00013163426
0.0013335803
-9.5912397e-05
0.0012019418
-0.00029970389
0.00114485
-0.00031405963
0.0011681629
-0.0002171095
0.0010956048
-0.00045110839
0.0010928144
-0.00014546933
0.0010684469
-0.00053275803
0.0010245727
-0.00056583742
0.00100226
-0.00015832384
0.00092998876
-0.00028376324
0.00080432049
-0.00062850681
0.00073548644
-0.00068866959
0.00078258444
-0.00035482731
0.00083213851
-0.00028762749
0.00088354297
-0.00022921047
0.00073546129
-0.00024783488
0.00055933015
-0.00046306978
0.00064008459
-0.00043809273
0.00074695089
-0.00020741275
0.00065147151
-7.2544036e-05
0.00043678316
-0.00013334217
0.00038912448
-0.00025357379
0.00049437474
-0.0002989431
0.00046892892
-0.00035771268
0.00021435968
-0.00060111692
2.8590708e-05
-0.00081226567
4.4885956e-05
-0.00075534455
0.00030108806
-0.00049940398
0.0004407096
-0.0003630176
0.00025853427
-0.00048064785
-8.7706911e-06
-0.00063277042
-0.00020904728
-0.00057820194
-0.00015751278
-0.0004010468
-9.119374e-05
-0.0003572107
-3.0498844e-05
-0.00044857067
6.9665323e-05
-0.00052714626
0.00016911842
-0.00046507325
0.00028484953
-0.0002318089
0.00043411878
2.8192509e-05
0.00063495417
0.00022044365
0.00084971955
0.00032250901
0.0010070107
0.00032711961
0.0010311622
0.0002672189
0.00093609068
0.00019048974
0.00075985638
9.9344866e-05
3.3187608e-05
0.00053727788
0.0014920445
-9.0824296e-05
0.0015129357
-0.00014340219
0.0015503624
-0.00023503683
0.0015558914
-0.00011818821
0.0015202827
-0.00021255075
0.0014835513
-0.00014674435
0.00141341
-0.00012210539
0.0013801366
-0.00028577149
0.001360643
-5.2115655e-05
0.0012655709
-0.00010402036
0.0011476423
-0.00036514573
0.0011026138
-0.00025462745
0.0011054722
-0.00014489685
0.0010687149
-0.00039156026
0.0010185897
-0.00018520173
0.0010175461
-0.0004669201
0.0010114163
-0.00050331765
0.00095156335
-0.00015142261
0.00086611617
-0.00027301142
0.00077810045
-0.00049597887
0.00074763607
-0.00053151343
0.00076167804
-0.0002337143
0.00079598358
-0.0002050984
0.00083163171
-0.00028252646
0.00067964889
-0.00035664883
0.0005480876
-0.00049573176
0.00064996075
-0.00034334702
0.00074954718
-0.00011154974
0.00063660435
-7.371186e-05
0.00040598499
-0.0002355818
0.0003428125
-0.00037637384
0.0004337163
-0.00034299158
0.00040506285
-0.00033760397
0.00020157896
-0.00053560234
8.0608222e-05
-0.00069505474
0.00011224734
-0.00060566998
0.00029283488
-0.0003773266
0.00037782532
-0.00029653247
0.00025987221
-0.00045659514
7.887079e-05
-0.00061337863
-5.269917e-05
-0.00056326687
-0.0001315379
-0.00034786754
-0.0001742005
-0.00027821338
-0.0001332218
-0.0003914307
5.2484349e-05
-0.00047735746
0.00028875988
-0.00040160075
0.00045855833
-0.00022329069
0.0005399776
3.0251021e-05
0.00058231603
0.00020725963
0.00064576641
0.00025039163
0.0006924285
0.00022373297
0.00068610748
0.00010139448
0.00059684495
-2.9449349e-05
0.00043457346
-0.00013270679
-0.00020391218
0.0002675563
0.0014204752
-4.0291808e-05
0.0014384952
-0.00014317271
0.0014787124
-0.00013791834
0.0014801499
-0.00011635462
0.0014506709
-0.00019622736
0.001415911
-7.0058005e-05
0.0013423553
-0.00015355816
0.0013233136
-0.00020798411
0.0012980733
-4.5694635e-05
0.0011977244
-0.00017148892
0.0011013588
-0.00034564977
0.0010578359
-0.00020915601
0.0010422104
-0.0001993108
0.0010328122
-0.00030489602
0.00095591577
-0.00025078861
0.00097171588
-0.00036019281
0.0009909973
-0.00038065303
0.00090329832
-0.0001775754
0.00082190492
-0.00024911943
0.00075810757
-0.000337013
0.00075553779
-0.00038881836
0.00074089405
-0.00018417219
0.0007471574
-0.00015457781
0.00078094465
-0.00029396741
0.00064088538
-0.00039252488
0.00055500958
-0.00044087498
0.00065658187
-0.00020150301
0.0007284175
6.7430175e-07
0.00059378524
-8.3037968e-05
0.00036001999
-0.00037682306
0.00030500496
-0.00053059301
0.00038666066
-0.00041011366
0.00035231166
-0.0003212001
0.000196845
-0.00043424401
0.00013441779
-0.00051970823
0.00017947663
-0.00041750548
0.00027607488
-0.00022546518
0.00029916255
-0.00022262067
0.00022663991
-0.00042807072
0.00015139794
-0.00060291781
8.6396002e-05
-0.00057032498
-5.0351025e-05
-0.00039928331
-0.00020969818
-0.00026765085
-0.00021169121
-0.00032869777
5.3233708e-06
-0.00041436561
0.0003104879
-0.00037515496
0.00056134671
-0.00022108583
0.00064291453
-4.4816006e-05
0.00056903827
0.00012262735
0.00046041417
0.00015102649
0.00037071016
7.9642032e-05
0.00029198177
-6.2070464e-05
0.00021300404
-0.00023420426
9.729604e-05
-0.00036553372
-0.00042325142
1.7580666e-05
0.001351925
-1.9309145e-06
0.001370514
-0.00011879376
0.0014093113
-4.1059283e-05
0.0014074426
-0.00010450363
0.0013847427
-0.00013677349
0.0013479515
-4.3244236e-05
0.0012780668
-0.00019891036
0.0012676323
-0.00011902552
0.0012335023
-7.9005062e-05
0.001138318
-0.0002381343
0.0010605981
-0.00027644303
0.001008265
-0.00015954917
0.00098804869
-0.00029634801
0.00099076524
-0.00023854405
0.00090863361
-0.00029747957
0.00093159811
-0.0002099985
0.00096040182
-0.00024213264
0.0008578553
-0.00025787068
0.00078888591
-0.0002509284
0.00073162246
-0.00021521941
0.00074887127
-0.00029866136
0.00071281589
-0.00018700224
0.00069430494
-0.00013921533
0.00073246325
-0.00027605715
0.00062248678
-0.00036564408
0.00057733727
-0.00032024102
0.00066084165
-3.532411e-05
0.00069122211
0.00011268819
0.00053847729
-7.1799636e-05
0.00032049476
-0.00046715939
0.00029119356
-0.00062443722
0.00036912282
-0.00045265611
0.00033053873
-0.00030546736
0.00021674216
-0.00033162759
0.00019834882
-0.00034901459
0.00023904489
-0.00023317977
0.00026630029
-9.4206285e-05
0.00022287702
-0.00013851224
0.00015912501
-0.00036831736
0.00016597999
-0.00056768622
0.00017612356
-0.00059760271
3.5216528e-05
-0.00045344396
-0.00019276455
-0.00031898663
-0.00027764174
-0.00029874273
-8.2998531e-05
-0.00035055295
0.00024928537
-0.00033738298
0.00055971317
-0.00024188344
0.00067355096
-0.00011008799
0.00056516135
-2.037626e-05
0.00033835024
3.7756866e-06
0.00014494465
-7.8330073e-05
-1.7903785e-05
-0.00020590233
-0.00012627803
-0.00036010659
-0.00016336513
-0.00049508898
-0.00053591644
-0.00015451379
0.0012863328
1.5573978e-05
0.0013070981
-7.7427107e-05
0.0013412506
8.8711282e-06
0.0013389431
-9.5570765e-05
0.0013214161
-7.9193468e-05
0.0012803032
-6.7195258e-05
0.0012201936
-0.00023085546
0.0012092479
-7.4017797e-05
0.0011712395
-0.00013584475
0.0010857836
-0.0002495577
0.0010203627
-0.00020536785
0.00095657817
-0.00011717301
0.00094248756
-0.00034806259
0.00094295969
-0.0001950904
0.00087472568
-0.00033286123
0.00089113514
-6.2629166e-05
0.0009180227
-0.00011184927
0.0008203404
-0.0003617394
0.00076451189
-0.00027964242
0.00069982355
-0.00014037443
0.0007277617
-0.00021652842
0.00068637529
-0.00019714469
0.00064850999
-0.0001513366
0.00069191472
-0.00023682563
0.00061531482
-0.00030248129
0.00060170857
-0.00020566763
0.0006639348
7.4144596e-05
0.00064946876
0.00019939236
0.00047938417
-6.0526051e-05
0.00029261031
-0.00046910611
0.00029117787
-0.00062265605
0.00036729599
-0.00044697222
0.0003236101
-0.00028260146
0.00023421227
-0.00025514008
0.00024656402
-0.00022643221
0.00029153226
-0.00010369503
0.00026148583
-5.3501424e-07
0.00015612861
-5.3620236e-05
8.737445e-05
-0.00028831818
0.00013152841
-0.000515637
0.00021254049
-0.00058736412
0.00011646482
-0.0004924932
-0.00011630656
-0.00038617188
-0.00029009978
-0.00032276801
-0.00016372727
-0.00029438808
0.00013745281
-0.00027423519
0.00047467431
-0.00022299606
0.00063493954
-0.00017212217
0.00054972009
-0.00015095369
0.00028585586
-0.00016331382
1.4270825e-05
-0.00021754403
-0.0002023915
-0.00032023579
-0.00032849886
-0.00045795115
-0.00032205059
-0.00053828973
-0.00055520857
-0.00023672179
0.001224012
6.1438939e-06
0.0012465172
-3.0941044e-05
0.001275602
1.9767059e-05
0.0012755255
-9.3247717e-05
0.0012596892
-6.7878152e-05
0.0012161476
-0.00013204205
0.0011660055
-0.00021742281
0.0011507341
-8.0739534e-05
0.0011135833
-0.00018157538
0.00103927
-0.00020619326
0.00097972506
-0.00014914632
0.00090574641
-0.00010492446
0.0009040705
-0.00032713079
0.00089188519
-0.00016038203
0.00084961683
-0.00035782528
0.00085385653
2.5921383e-05
0.00086614267
-1.6742348e-05
0.00079002887
-0.00042830913
0.00074635955
-0.00030565889
0.0006705163
-8.495726e-05
0.00069988313
-0.00011372825
0.00066076989
-0.00017082945
0.00061053819
-0.0001662753
0.00065700281
-0.0001914442
0.00061116954
-0.00025274484
0.00061862395
-0.00014343723
0.00065600372
0.00012245701
0.00060294865
0.00021805377
0.00042434077
-4.3774762e-05
0.00027293468
-0.0004204054
0.00030438219
-0.00054428295
0.00037843584
-0.00038277812
0.00033137337
-0.00024054001
0.00025542611
-0.00021194908
0.00028475467
-0.00016453999
0.00033241265
-3.6703106e-05
0.00027239373
4.9852129e-05
0.00011242138
-5.6316114e-06
2.9645817e-05
-0.00022223894
8.3097104e-05
-0.00044214191
0.00020282735
-0.00053414395
0.00016548458
-0.00049781394
-4.8963838e-05
-0.00043303103
-0.00025623323
-0.00036245245
-0.00021846276
-0.00026696695
6.3109559e-05
-0.00019810716
0.00035174357
-0.00017344153
0.00053170646
-0.00017458786
0.00048186874
-0.00022853771
0.00024911665
-0.00030326589
-4.6172145e-05
-0.00036281277
-0.00030440814
-0.0004339455
-0.00047304961
-0.00049204526
-0.00047373175
-0.000532858
-0.00052574965
-0.00033357727
0.0011653957
-1.6957886e-05
0.0011876972
8.1715693e-06
0.0012130644
-7.114979e-06
0.0012155408
-9.4933713e-05
0.001199342
-9.229106e-05
0.0011570456
-0.0001934084
0.0011142351
-0.00017404972
0.0010943714
-0.00012357082
0.0010621627
-0.00019573327
0.00099404734
-0.00014457215
0.00093731289
-0.00011309436
0.00085894479
-0.00012188093
0.00086924926
-0.00024424452
0.00084097912
-0.000118739
0.00082651219
-0.00036189193
0.00081594877
3.6341482e-05
0.00080660389
2.6710445e-05
0.00076185265
-0.00042579567
0.00073028184
-0.00029251781
0.00064819215
-3.6592574e-05
0.00067087567
-4.3995942e-06
0.00063643509
-0.00011153698
0.0005803391
-0.0001771043
0.0006212138
-0.00016539425
0.00059782595
-0.0002289702
0.0006219849
-0.00015207858
0.00063803813
8.2038131e-05
0.00055815541
0.00017331151
0.0003816224
-5.3413507e-05
0.00026403262
-0.00034998354
0.00031883023
-0.00042119977
0.00039042342
-0.00027239273
0.00033694132
-0.00017976241
0.00026513092
-0.000188282
0.00030177175
-0.00015124883
0.00034993965
-2.6793917e-05
0.00027232983
5.3086915e-05
8.284039e-05
-6.7573615e-07
-1.2831173e-05
-0.00017947717
2.5677373e-05
-0.00035530789
0.00016507718
-0.00044398575
0.00018821865
-0.00047370872
2.13215e-05
-0.00046983433
-0.0001717719
-0.00040176547
-0.00021209001
-0.00025054544
-1.8952389e-05
-0.0001234678
0.00021432403
-8.2276043e-05
0.00039368799
-0.00012468672
0.00038076181
-0.00023231452
0.00019760562
-0.00035921138
-8.6599301e-05
-0.00044607305
-0.00036329964
-0.000491332
-0.00054128382
-0.0005014628
-0.00056207818
-0.0004883228
-0.00044015478
-0.00042243937
0.0011106236
-4.1372228e-05
0.0011308822
2.6392575e-05
0.0011545177
-5.3046438e-05
0.001158362
-9.9342825e-05
0.0011404814
-0.00013231937
0.0011034552
-0.00022441237
0.0010627851
-0.00012235052
0.0010403313
-0.00017862714
0.0010148644
-0.00018640622
0.00095010778
-8.4036712e-05
0.00089464656
-9.6153745e-05
0.00081830734
-0.00015011463
0.00083599122
-0.00015024833
0.00079220111
-6.8807067e-05
0.00080239001
-0.00033674818
0.00077845472
-1.9141875e-05
0.000751506
2.3144106e-05
0.0007361341
-0.00035500926
0.00071255644
-0.00023286798
0.00062646644
-2.3391789e-06
0.00063791944
7.9135323e-05
0.00060674469
-5.5348731e-05
0.00055255591
-0.00019474039
0.00058640216
-0.00016561279
0.00057736135
-0.00021683732
0.00060816278
-0.0001944379
0.00061296119
-2.5902408e-05
0.00051661718
7.2263305e-05
0.00034875861
-9.5178687e-05
0.00026130111
-0.00029776302
0.00033468606
-0.00029181031
0.00039915573
-0.00014348094
0.00033960802
-9.8839652e-05
0.00026733348
-0.00016479499
0.00030588218
-0.00016147626
0.00035197635
-5.5789555e-05
0.00026844091
1.6154209e-05
7.2798942e-05
-2.8825065e-05
-3.9579743e-05
-0.00015480897
-2.3721304e-05
-0.00026806987
0.00010590942
-0.00034318639
0.00017969957
-0.0004215576
8.6745369e-05
-0.00046548832
-6.9309596e-05
-0.00042720498
-0.00016081114
-0.00025621649
-6.1152626e-05
-6.2259373e-05
0.00010677527
1.2139866e-05
0.00024767066
-1.9163346e-05
0.00025581787
-0.00016993406
0.00013293924
-0.00033819592
-9.3544353e-05
-0.00045993529
-0.00034626593
-0.0005204409
-0.00053968769
-0.00050030623
-0.0006009403
-0.00044561674
-0.00036262474
-0.00050019659
0.001058775
-5.6558574e-05
0.0010758208
2.2953323e-05
0.0010993667
-9.5645692e-05
0.0011038978
-0.00010010437
0.0010850883
-0.00016803033
0.0010531773
-0.00022541149
0.0010115835
-8.3079362e-05
0.00098996689
-0.00022313551
0.00097022817
-0.00016195331
0.00090749517
-4.0837121e-05
0.00085298723
-8.7837902e-05
0.00078279856
-0.00017634164
0.0008033248
-8.0056585e-05
0.00074801958
-4.3971898e-05
0.00077597946
-0.00027005102
0.00074181675
-0.00010623503
0.00070382547
-1.8364072e-05
0.00071129015
-0.00024219297
0.00069601173
-0.00014197279
0.00060874647
1.4659582e-05
0.00060495586
0.00012171896
0.00057281259
-2.9997776e-05
0.00052659433
-0.00022837565
0.00055446545
-0.00017157428
0.00054812041
-0.00018922532
0.00058281416
-0.00021367568
0.00058286417
-0.0001456648
0.0004789796
-6.1647752e-05
0.00032351358
-0.0001569561
0.00026431257
-0.00026607455
0.00034924029
-0.00017903437
0.00040241975
-2.4797877e-05
0.00033286713
-1.4093198e-05
0.00025962031
-0.00013574424
0.00029682796
-0.00017437766
0.00034254245
-0.00010014035
0.00026466007
-4.1039625e-05
7.4878819e-05
-7.6232747e-05
-4.277167e-05
-0.00015667742
-5.0004272e-05
-0.00020549198
5.8313255e-05
-0.00024540401
0.00015645103
-0.00033395746
0.00012793816
-0.00042643679
1.6771526e-05
-0.00041748231
-6.1280872e-05
-0.00027878613
-4.0921739e-05
-2.8121293e-05
5.1755541e-05
9.6731255e-05
0.00013624255
8.6304342e-05
0.00015095078
-3.8780344e-05
6.3769885e-05
-0.00023711929
-0.00010489745
-0.00039683269
-0.00030930326
-0.00048253301
-0.00049209858
-0.00048623386
-0.00057516965
-0.00041818836
-0.00030825492
-0.00052719896
0.0010096402
-5.7247493e-05
0.001023237
5.9662147e-06
0.0010475601
-0.00011954148
0.0010516502
-9.8130114e-05
0.0010328133
-0.00017954333
0.0010058094
-0.00020276073
0.0009618021
-6.2458222e-05
0.00094388442
-0.00023135811
0.00092780145
-0.0001360237
0.00086683549
-2.5845428e-05
0.00081256644
-8.244645e-05
0.00074843791
-0.00019314126
0.00076835542
-3.9461413e-05
0.0007098667
-4.9302045e-05
0.0007458466
-0.00017571296
0.00070712062
-0.00018303758
0.00066346687
-8.1287759e-05
0.0006882483
-0.00011585306
0.00067689719
-4.6957463e-05
0.00059001092
6.8447212e-06
0.00057007819
0.00011643918
0.00053595691
-4.0841784e-05
0.0005033844
-0.00027580175
0.0005265362
-0.00017497389
0.00051986417
-0.00013339006
0.00055050752
-0.00018994337
0.00055286303
-0.00021890485
0.00044805074
-0.00018263466
0.00030553514
-0.00023094088
0.00026879422
-0.00025532164
0.00035823941
-9.4570993e-05
0.00039984096
7.4778458e-05
0.00032115545
5.9918907e-05
0.00024892921
-0.00010209345
0.00028417316
-0.00017789822
0.00032831919
-0.00013749712
0.0002575494
-0.00010102382
8.1459923e-05
-0.00013227029
-3.3486648e-05
-0.00017060234
-6.391552e-05
-0.0001602266
2.3575037e-05
-0.00016111012
0.00012229991
-0.00023619126
0.00014635091
-0.00035152614
9.2219004e-05
-0.0003863175
4.0624948e-05
-0.00027042357
3.2465856e-05
-4.2122987e-05
5.9902558e-05
0.00015621508
8.2107541e-05
0.00019629736
6.876225e-05
9.5390549e-05
9.6736548e-06
-8.9183846e-05
-0.00010915879
-0.00027216686
-0.00025331947
-0.00040909415
-0.00040278426
-0.00044451467
-0.00049209735
-0.00038986187
-0.00026716094
-0.00047910614
0.00096233
-4.1784087e-05
0.00097310734
-1.8682437e-05
0.00099835249
-0.00011813409
0.0010019014
-9.1999619e-05
0.00098440205
-0.00016329967
0.00096050895
-0.0001623119
0.00091412606
-6.4022386e-05
0.00090123922
-0.00020703682
0.00088685117
-0.0001169854
0.00082734102
-3.9338322e-05
0.00077331311
-8.4132851e-05
0.00071655313
-0.0001945652
0.00073327332
-2.1325589e-05
0.00067594104
-7.9585919e-05
0.00071098858
-7.1345446e-05
0.00067493886
-0.00022865722
0.00063268931
-0.00014929492
0.00066398008
-1.3079057e-06
0.00065223868
3.3072756e-05
0.00057010624
-3.0248149e-05
0.00053525238
6.3311197e-05
0.00049804408
-7.9581387e-05
0.00048216348
-0.00031482477
0.00050612274
-0.00016129448
0.00049461333
-3.5757618e-05
0.0005197073
-0.00011133462
0.00052704523
-0.0002257376
0.00042606438
-0.00025453335
0.00029661077
-0.0002793066
0.00027559485
-0.00025095125
0.00036370229
-4.0386233e-05
0.0003953522
0.00014543197
0.00030777457
0.00011587499
0.0002355063
-6.1544558e-05
0.00026777751
-0.00016996765
0.00031151954
-0.00016320366
0.00024994142
-0.00015297069
9.6784593e-05
-0.00018005932
-9.8383524e-06
-0.00018786386
-5.6068234e-05
-0.0001263834
1.4511432e-05
-9.4243039e-05
9.3752171e-05
-0.0001496455
0.00015485677
-0.00027074707
0.00016285322
-0.00033546243
0.0001430465
-0.00024556305
0.00011017385
-4.0578077e-05
9.1076145e-05
0.00017464351
7.3355227e-05
0.00026909456
3.8463902e-05
0.00021267447
-2.4272611e-05
4.6478236e-05
-9.2310993e-05
-0.00014061896
-0.00019355349
-0.00030111621
-0.00029234645
-0.00037171109
-0.00036130189
-0.00035273772
-0.00024602353
-0.00035928331
0.00091734978
-1.5485198e-05
0.00092625582
-4.3333871e-05
0.00095166823
-9.9942671e-05
0.00095434907
-8.2250936e-05
0.00093887668
-0.00012628917