/*--------------------------------*- C++ -*----------------------------------*\
| =========                 |                                                 |
| \\      /  F ield         | OpenFOAM: The Open Source CFD Toolbox           |
|  \\    /   O peration     | Version:  2406                                  |
|   \\  /    A nd           | Website:  www.openfoam.com                      |
|    \\/     M anipulation  |                                                 |
\*---------------------------------------------------------------------------*/
FoamFile
{
    version     2.0;
    format      ascii;
    arch        "LSB;label=32;scalar=64";
    class       volScalarField;
    location    "16";
    object      rho;
}
// * * * * * * * * * * * * * * * * * * * * * * * * * * * * * * * * * * * * * //

dimensions      [1 -3 0 0 0 0 0];

internalField   nonuniform List<scalar> 
96472
(
1.0026956
1.0051005
1.0054134
1.0067035
1.0075523
1.008087
1.0089254
1.0099397
1.0110888
1.0121034
1.0129894
1.0136216
1.0141073
1.0144422
1.0148132
1.0150384
1.0152553
1.0153032
1.0153719
1.0153811
1.0153133
1.0152371
1.0149078
1.0146504
1.014458
1.014108
1.0138367
1.0136914
1.0135503
1.0133455
1.01309
1.0128283
1.0125901
1.0123462
1.0121336
1.0119394
1.0118076
1.0117042
1.0115688
1.0114364
1.0113389
1.0112464
1.011006
1.0108962
1.0109134
1.0105594
1.0103843
1.0102795
1.0103102
1.0099606
1.0097805
1.0096542
1.0093402
1.0092195
1.0088419
1.0026951
1.0051167
1.0054204
1.0067014
1.0075576
1.0081036
1.0089016
1.0099236
1.0110571
1.0121207
1.0129498
1.0136061
1.0140857
1.0144295
1.0147285
1.0149762
1.0152005
1.0153751
1.01542
1.0154244
1.0153801
1.0152846
1.0151079
1.0147766
1.0145041
1.0143071
1.0140018
1.0137275
1.0135265
1.01332
1.0131072
1.0128996
1.0127154
1.0125183
1.0123233
1.012113
1.0119119
1.011728
1.0115635
1.0114181
1.0113005
1.0111038
1.0110431
1.0108478
1.0106286
1.010586
1.0104882
1.010246
1.0100158
1.0099518
1.0097262
1.0094932
1.0094126
1.0090576
1.0090181
1.0026955
1.0051302
1.005441
1.0067144
1.0075859
1.0081231
1.0088831
1.00994
1.0110323
1.0121296
1.0129663
1.013591
1.0140391
1.01446
1.0146582
1.0149066
1.0150912
1.0153326
1.0154749
1.0155336
1.0155271
1.0153416
1.015175
1.0149917
1.0147249
1.0144098
1.0142259
1.0139942
1.0136783
1.01338
1.0131437
1.0129115
1.0126684
1.0124409
1.0122461
1.012069
1.011902
1.011709
1.0115742
1.0114202
1.0112458
1.011128
1.0109112
1.010778
1.0106669
1.0104559
1.0102702
1.0101762
1.010078
1.0097729
1.0096495
1.009587
1.0091838
1.0091398
1.0088696
1.0026952
1.0051434
1.0054647
1.00675
1.0076127
1.0081274
1.0088975
1.0099217
1.0110415
1.0120953
1.013001
1.0136229
1.014045
1.0143959
1.0146477
1.0148627
1.0150703
1.0152064
1.0153936
1.0155084
1.0155017
1.0154971
1.0152742
1.015067
1.0147938
1.0144955
1.014209
1.0139642
1.0137683
1.0135607
1.0133226
1.0130667
1.0128084
1.0125517
1.0123189
1.0120968
1.0119125
1.0117574
1.0115741
1.0114218
1.0112706
1.0110403
1.0109119
1.0107529
1.010548
1.0104354
1.0102762
1.010109
1.0098216
1.0097924
1.0096884
1.0092179
1.0092955
1.0089844
1.0088226
1.0026984
1.005165
1.0055002
1.006776
1.0076358
1.0081515
1.0089308
1.009905
1.0110504
1.0120975
1.0129833
1.0136217
1.0140579
1.0143087
1.0145877
1.0147746
1.0150226
1.0151711
1.0152941
1.0153932
1.0154424
1.0154698
1.0153552
1.0150559
1.0148071
1.0146132
1.0142862
1.013998
1.0137839
1.0135842
1.0133719
1.0131431
1.0129317
1.0127155
1.0124903
1.0122446
1.0119917
1.0117916
1.011604
1.0114277
1.0112228
1.0110865
1.010883
1.0106953
1.0105658
1.0103982
1.0101788
1.0100061
1.0099286
1.0096725
1.0093991
1.0094683
1.0091331
1.0088461
1.0088149
1.0027028
1.0051974
1.0055309
1.0068117
1.0076831
1.0082184
1.0089562
1.009942
1.011042
1.0121388
1.0129749
1.0136025
1.0139993
1.0143004
1.0144637
1.0146537
1.0148365
1.0151011
1.0152485
1.0153826
1.015459
1.0153982
1.0153199
1.0151307
1.0149521
1.0146155
1.0144203
1.014213
1.0139316
1.0136189
1.0133523
1.0131236
1.0128931
1.0126582
1.0124374
1.0122346
1.0120352
1.0118247
1.0116262
1.0114612
1.0112799
1.0110448
1.0108889
1.0107333
1.010556
1.0102941
1.01019
1.0100172
1.0097414
1.0096436
1.0096287
1.0091034
1.0090811
1.0089895
1.0085799
1.0027089
1.005229
1.0055725
1.0068596
1.0077532
1.0082699
1.0089817
1.0099899
1.0110561
1.012139
1.0130143
1.0136195
1.0139599
1.01429
1.0143884
1.0145485
1.0146969
1.0148937
1.0151273
1.0153075
1.0153856
1.0154233
1.0152989
1.0151963
1.0149158
1.0146538
1.0143787
1.0141258
1.0138947
1.0136848
1.0134757
1.0132408
1.0129775
1.0127268
1.0124873
1.0122505
1.0120467
1.0118561
1.0116674
1.011463
1.0112569
1.0111076
1.0108727
1.0107231
1.0104647
1.0103995
1.0101146
1.0099096
1.0098026
1.0097367
1.0091106
1.0095403
1.0089841
1.0087144
1.0088107
1.002717
1.0052624
1.0056185
1.0069117
1.0077983
1.0082975
1.0090409
1.0099968
1.0111008
1.0121257
1.0130283
1.01363
1.0139839
1.0141727
1.0143386
1.0144367
1.0146409
1.0147509
1.0149369
1.0150776
1.01521
1.0153283
1.015274
1.0150659
1.0148766
1.0146699
1.0143607
1.0140729
1.0138491
1.0136723
1.013456
1.0132439
1.0130594
1.0128564
1.0126349
1.0123849
1.0121279
1.0119107
1.0116966
1.0115151
1.0113045
1.0110762
1.0109081
1.0106923
1.0105504
1.0103081
1.0100718
1.0100178
1.0097782
1.0093919
1.0097171
1.0089605
1.0089777
1.0090381
1.0083904
1.002734
1.0053106
1.0056699
1.006964
1.0078502
1.0083642
1.009103
1.0100232
1.0111255
1.0121621
1.0130049
1.0136086
1.0139585
1.0141017
1.0142316
1.0143098
1.0144689
1.0146643
1.0147945
1.0149595
1.0150825
1.0151309
1.0151724
1.0150108
1.014849
1.0145969
1.0144068
1.0142028
1.0139481
1.0136503
1.0134124
1.0132138
1.0129803
1.0127547
1.0125414
1.0123307
1.0121252
1.0119153
1.01171
1.0115031
1.0113117
1.0111278
1.0109118
1.0107123
1.0105253
1.0102656
1.0102193
1.0098994
1.009684
1.0097223
1.0091956
1.0092101
1.0092145
1.0084062
1.0087695
1.0027389
1.0053628
1.0057216
1.0070208
1.00792
1.0084503
1.0091414
1.0100958
1.0111313
1.0121994
1.0130239
1.0135955
1.0138768
1.0141048
1.0140951
1.0141737
1.0142417
1.0144373
1.0146407
1.014849
1.0149965
1.0150419
1.015022
1.0150033
1.0147878
1.0145379
1.0142966
1.0140671
1.013861
1.0136518
1.0134441
1.0132049
1.0129774
1.0127714
1.0125609
1.0123378
1.0121197
1.0119266
1.0117238
1.0115426
1.0113228
1.0111142
1.0109131
1.0107489
1.0104856
1.0103956
1.0100931
1.0098813
1.009824
1.0094474
1.009333
1.0093655
1.0085693
1.009081
1.0084882
1.0027576
1.0054057
1.0057782
1.0070874
1.0079878
1.0084975
1.0091826
1.0101357
1.0111674
1.0121841
1.0130591
1.0136259
1.013877
1.0140346
1.0140334
1.0140413
1.0141387
1.0142261
1.0144175
1.0145795
1.0147642
1.0149304
1.0149268
1.0148001
1.0146931
1.0145216
1.014224
1.0139396
1.0136966
1.013514
1.0133329
1.0131784
1.013028
1.0128465
1.0126413
1.0124179
1.0121817
1.011952
1.0117362
1.0115293
1.0113435
1.011149
1.0109241
1.0107041
1.0105632
1.0102981
1.0101102
1.0100278
1.0096547
1.009565
1.0094385
1.0089582
1.0091104
1.0087956
1.0084015
1.0027755
1.0054554
1.0058428
1.0071578
1.0080553
1.0085382
1.0092488
1.0101393
1.0112026
1.0121819
1.0130372
1.0135962
1.0138916
1.013914
1.0139757
1.0139239
1.0140264
1.0141269
1.0142403
1.0143873
1.0145263
1.0146622
1.0147814
1.0146773
1.0145208
1.0143462
1.0141873
1.0139912
1.0137608
1.0135014
1.0132814
1.0130832
1.0128788
1.0126874
1.0125026
1.0123104
1.0121247
1.0119277
1.0117182
1.0115259
1.0113456
1.011121
1.0109358
1.0107502
1.0105195
1.010343
1.0101856
1.0098843
1.0097678
1.0096565
1.0091352
1.00928
1.0090438
1.0084137
1.0088768
1.0027923
1.0055135
1.0058974
1.007212
1.0081085
1.0086127
1.0092968
1.0101772
1.0111937
1.0122171
1.0130093
1.0135542
1.0138095
1.0138718
1.0138394
1.0137961
1.013806
1.0139272
1.0140814
1.0142588
1.014432
1.0144825
1.0145376
1.0145859
1.0144504
1.0142276
1.0140067
1.0138061
1.0136243
1.0134275
1.0132248
1.0130126
1.0128259
1.0126568
1.0124736
1.0122686
1.0120675
1.0118911
1.0116989
1.0115217
1.0113229
1.0111426
1.0109074
1.0107555
1.0105257
1.0103997
1.0100821
1.0100225
1.0097721
1.0093974
1.0094915
1.0092489
1.0085204
1.0092897
1.0082463
1.0028007
1.0055713
1.0059633
1.0072695
1.0081743
1.0086848
1.0093188
1.0102331
1.011194
1.0122032
1.0130186
1.0135595
1.013744
1.0138605
1.013732
1.0136734
1.0136395
1.0136985
1.0138501
1.0140137
1.0142246
1.0143751
1.0144058
1.0143664
1.0143152
1.0141787
1.013951
1.0136816
1.0134366
1.0132212
1.0130499
1.0129291
1.0127966
1.0126468
1.0124849
1.0123031
1.0121014
1.011898
1.0116958
1.0115003
1.0113256
1.0110963
1.0109541
1.0106967
1.0106234
1.0102765
1.0102492
1.0099223
1.0096891
1.0096864
1.0093843
1.0088052
1.0094762
1.0085034
1.0085901
1.0028133
1.0056136
1.0060244
1.0073453
1.0082494
1.0087229
1.0093514
1.0102326
1.0112168
1.0121506
1.0130037
1.0135372
1.0137567
1.0137515
1.0136874
1.0135605
1.0135605
1.0135975
1.0136615
1.0138137
1.0139303
1.0141114
1.0142676
1.014235
1.0140852
1.0139615
1.0138309
1.0136487
1.013435
1.0132185
1.0130054
1.0127965
1.0126142
1.0124627
1.0123277
1.012171
1.0119963
1.0118121
1.0116283
1.0114559
1.0112665
1.0111213
1.0108703
1.0107844
1.0104895
1.0104196
1.0101615
1.0099059
1.0099057
1.0095207
1.0092469
1.0093992
1.0091091
1.0083245
1.0090601
1.0028257
1.0056667
1.0060762
1.0074115
1.0083046
1.0087593
1.009398
1.0102131
1.011196
1.0121394
1.0129382
1.0134568
1.0137061
1.0136352
1.0135959
1.0134342
1.0134098
1.0134537
1.0135517
1.0136763
1.0138202
1.0139037
1.0140151
1.0140585
1.0139958
1.0138389
1.0136255
1.0134347
1.0132701
1.0130832
1.0128819
1.0127131
1.0125669
1.0124127
1.0122371
1.0120675
1.0118982
1.0117292
1.0115686
1.0114109
1.011257
1.0110543
1.0109157
1.0106805
1.01057
1.0103597
1.0101299
1.0100726
1.0097791
1.0094944
1.0095261
1.0094152
1.0084243
1.0094974
1.0083214
1.0028418
1.0057116
1.0061354
1.0074695
1.0083589
1.0088265
1.0094235
1.0102417
1.0111441
1.0121216
1.0128862
1.0134062
1.0135817
1.0136096
1.0134592
1.0133287
1.0132256
1.0132356
1.0133603
1.0134807
1.0136877
1.0138242
1.0138518
1.0138685
1.0138715
1.0137526
1.0135719
1.0133574
1.0131191
1.0128885
1.0127164
1.0125837
1.0124567
1.0123256
1.0121961
1.0120677
1.0119101
1.011736
1.0115581
1.0113821
1.0112164
1.011051
1.0108455
1.010709
1.0105412
1.0103351
1.0102497
1.0099768
1.0097448
1.0097372
1.0094872
1.0089126
1.0094007
1.0088293
1.0085531
1.0028483
1.0057642
1.0061921
1.0075379
1.0084297
1.0088884
1.0094338
1.0102646
1.0111268
1.0120434
1.0128463
1.0133816
1.013533
1.0135529
1.0133844
1.0132245
1.0131183
1.0131292
1.0131672
1.0132892
1.0134191
1.0136057
1.0137364
1.0137716
1.0136492
1.0135277
1.0134327
1.0132732
1.0130646
1.0128645
1.0126606
1.0124466
1.0122764
1.0121595
1.0120664
1.011936
1.0117839
1.0116338
1.0114668
1.0113157
1.0111575
1.0109927
1.0108378
1.0106769
1.0105053
1.0104009
1.0101429
1.0100148
1.0098953
1.009624
1.0092945
1.0094324
1.0092837
1.0084721
1.0090166
1.0028637
1.005799
1.0062342
1.0076057
1.0085002
1.0089216
1.0094645
1.0102351
1.0111139
1.0119724
1.0127706
1.0132841
1.0135086
1.0134058
1.0133344
1.0131158
1.0130403
1.0130609
1.013083
1.0131928
1.0132931
1.01339
1.0135352
1.0135973
1.013547
1.0134404
1.0132471
1.0130539
1.0128945
1.0127378
1.0125404
1.0123764
1.0122425
1.0121083
1.0119625
1.0118073
1.011669
1.0115351
1.0113881
1.0112492
1.011117
1.0109664
1.0108082
1.0106572
1.010532
1.0103109
1.0101993
1.0100695
1.0097832
1.0096232
1.0095819
1.0095123
1.0086566
1.0093975
1.0086895
1.0028682
1.0058495
1.0062799
1.0076668
1.0085613
1.0089782
1.0094988
1.0102171
1.0110549
1.0119392
1.0126795
1.0131781
1.013389
1.0133166
1.013217
1.0130159
1.0129121
1.0128888
1.0129813
1.0130668
1.0132265
1.0133432
1.0133915
1.0134145
1.0134443
1.0133454
1.013181
1.0130081
1.0127969
1.0125749
1.0123726
1.0122399
1.0121277
1.0120079
1.0118983
1.0117913
1.0116703
1.0115324
1.0113814
1.0112295
1.0110818
1.0109444
1.0107814
1.0106516
1.0104727
1.0103463
1.0102275
1.0099787
1.0098542
1.0097678
1.009632
1.0090338
1.0094733
1.0090239
1.0086385
1.0028888
1.0058845
1.0063215
1.0077293
1.008619
1.0090469
1.0095182
1.010241
1.011
1.0118754
1.0126083
1.0131241
1.013265
1.0132897
1.0131101
1.0129366
1.0127863
1.0127764
1.0128203
1.0129021
1.0130359
1.0132186
1.01331
1.0133545
1.0132761
1.0131693
1.0130793
1.0129423
1.0127435
1.0125481
1.0123476
1.012146
1.0119743
1.0118477
1.0117732
1.01169
1.0115714
1.0114407
1.0113035
1.0111615
1.0110364
1.0109006
1.0107638
1.0106029
1.010481
1.0103668
1.0101628
1.0100447
1.0099267
1.009777
1.0093786
1.0095104
1.0094681
1.0087275
1.0089919
1.0028906
1.0059321
1.0063686
1.0077886
1.0086898
1.0091012
1.0095408
1.0102426
1.0109853
1.0117833
1.0125415
1.0130607
1.0132358
1.0131974
1.0130565
1.012852
1.0127227
1.0127386
1.0127358
1.0128207
1.0129184
1.0130315
1.0131613
1.0132336
1.0132007
1.0131092
1.0129339
1.0127543
1.0125828
1.0124448
1.0122682
1.0120936
1.0119471
1.011829
1.0117248
1.0116061
1.0114801
1.0113573
1.0112332
1.0111107
1.0109953
1.0108767
1.0107334
1.0106067
1.0104895
1.010314
1.0102076
1.0100811
1.009897
1.0097155
1.0095274
1.009822
1.0088361
1.0092453
1.0090712
1.0029119
1.0059582
1.0063906
1.0078498
1.0087479
1.0091434
1.0095736
1.0102226
1.0109643
1.0117384
1.0124584
1.0129508
1.0131773
1.0130777
1.013
1.0127795
1.0126765
1.0126535
1.0126904
1.0127741
1.0128991
1.0129927
1.0130634
1.0131091
1.0131392
1.0130489
1.0128905
1.0127254
1.0125474
1.0123448
1.0121377
1.011983
1.0118731
1.0117722
1.011667
1.0115753
1.0114789
1.011381
1.011256
1.0111319
1.011004
1.0108746
1.010738
1.0106241
1.0104639
1.0103629
1.0102284
1.0100546
1.0099758
1.0097161
1.0098357
1.0093504
1.0092702
1.009334
1.0090409
1.0029076
1.0060082
1.0064333
1.0079089
1.0088114
1.00919
1.009597
1.0102315
1.0109217
1.0117186
1.0124096
1.0129001
1.0130845
1.0130583
1.0129258
1.0127267
1.0125843
1.0125632
1.012614
1.0126781
1.0127984
1.0129513
1.0130519
1.0130967
1.0130608
1.0129673
1.0128764
1.0127363
1.0125638
1.0123656
1.0121671
1.0119774
1.0118075
1.0116811
1.0115793
1.0115197
1.0114466
1.0113617
1.0112435
1.0111203
1.0109995
1.0108939
1.0107706
1.0106386
1.0105126
1.0104095
1.0102256
1.0101911
1.0099491
1.0099153
1.0097276
1.0094306
1.0095629
1.0093629
1.0089646
1.0029575
1.0060749
1.0064807
1.0080172
1.0088989
1.0092598
1.0096162
1.0102595
1.0109236
1.0116995
1.012434
1.0129782
1.0131468
1.0131348
1.0129655
1.0127501
1.0125749
1.0125463
1.0125719
1.012646
1.0127572
1.0129001
1.013052
1.0131354
1.0131296
1.0130524
1.0129113
1.0127446
1.0125639
1.0124001
1.0122298
1.0120396
1.0118665
1.0117382
1.0116391
1.0115548
1.0114536
1.0113612
1.0112646
1.0111581
1.0110634
1.0109784
1.0108636
1.0107415
1.0106376
1.0104924
1.0103903
1.0102768
1.0101012
1.0100617
1.0097152
1.0098767
1.009449
1.0095029
1.0091353
1.0030106
1.0062379
1.0066819
1.0082509
1.0091494
1.0094635
1.0097401
1.0103333
1.0110105
1.0117867
1.0126147
1.0132235
1.0134776
1.0134167
1.013173
1.0128595
1.0126287
1.0125674
1.0125985
1.0126973
1.0128474
1.0130074
1.0131788
1.0132709
1.0133265
1.0132772
1.0131307
1.0129608
1.0127846
1.0126055
1.0124052
1.012194
1.0120112
1.0118564
1.0117275
1.0116095
1.011507
1.0114298
1.0113569
1.0112716
1.0111957
1.0111175
1.0110178
1.0109177
1.0108137
1.0106887
1.010608
1.0104242
1.0103842
1.0101478
1.0101374
1.0099626
1.009739
1.0096892
1.0095596
1.0030492
1.0064187
1.006895
1.0085941
1.0095032
1.0098932
1.010161
1.0106008
1.0111528
1.0119405
1.0131543
1.01336
1.0138448
1.0143894
1.0133975
1.0125076
1.0123428
1.0125078
1.0126527
1.012746
1.0129314
1.0130993
1.0133496
1.0135437
1.0134271
1.0134335
1.0134148
1.0131592
1.0130103
1.012961
1.0128333
1.0126193
1.0123515
1.0120626
1.0118331
1.0116716
1.0115427
1.0114432
1.0113737
1.0113105
1.0112537
1.0112055
1.0111336
1.0110736
1.0109914
1.010896
1.0108271
1.0107026
1.0105912
1.0104809
1.0103827
1.0101657
1.0101548
1.0099604
1.0098265
1.0097154
1.0093298
1.0091967
1.0089341
1.0087923
1.0087024
1.0086989
1.0086881
1.0085169
1.008479
1.0085283
1.0084359
1.0083269
1.0083843
1.0084169
1.0082532
1.0083803
1.0083217
1.0083316
1.0084097
1.0083585
1.0084734
1.0084897
1.0085609
1.0086513
1.0086828
1.0087162
1.0094201
1.0091524
1.0087989
1.008732
1.0085898
1.0084635
1.0084193
1.0082973
1.0083411
1.008222
1.0081773
1.0081988
1.008054
1.0081347
1.0080234
1.0080631
1.0080215
1.0080486
1.0080314
1.0080468
1.0081212
1.0081051
1.0081778
1.0082017
1.0083043
1.0083192
1.0084617
1.0092935
1.0089144
1.008621
1.008359
1.008269
1.0082784
1.0081137
1.0080998
1.0079899
1.0079778
1.0079118
1.0078478
1.0078923
1.0077446
1.0078078
1.0077584
1.007712
1.0077538
1.0077609
1.0077827
1.0077483
1.0078424
1.0078209
1.0079042
1.007876
1.0080271
1.0079889
1.0088665
1.0085341
1.0082721
1.0081175
1.0080496
1.0078749
1.0079166
1.0078228
1.0077105
1.0077113
1.007613
1.0075879
1.0075318
1.0075325
1.0074516
1.0074577
1.0074576
1.0074406
1.0074157
1.0074483
1.0074716
1.0074868
1.0074929
1.0075444
1.007601
1.0076303
1.0075567
1.0085696
1.0081107
1.0080432
1.0078064
1.0077919
1.0076655
1.007553
1.007542
1.0074337
1.0073615
1.0073341
1.0072478
1.0072681
1.0071164
1.0072509
1.0070888
1.0071625
1.0070737
1.0071237
1.0071772
1.0070609
1.0072056
1.0071408
1.0071857
1.0071734
1.0072368
1.0074719
1.0082743
1.008098
1.007819
1.007597
1.007438
1.0074636
1.00725
1.0071696
1.0072499
1.0069532
1.0070061
1.0069665
1.0068207
1.0069334
1.0067271
1.0068845
1.006712
1.0068358
1.0067612
1.0067359
1.006886
1.0066917
1.0068892
1.0067761
1.0069077
1.006783
1.00684
1.0080446
1.0077983
1.0075484
1.0073947
1.0070529
1.0070408
1.00706
1.0067532
1.0068079
1.0068069
1.0065592
1.0066323
1.0065027
1.0065312
1.0064682
1.0063916
1.0065187
1.006317
1.0064841
1.0063546
1.0065042
1.0063894
1.006504
1.0064183
1.0064626
1.0065258
1.0064424
1.0078196
1.0076517
1.0070779
1.0069709
1.006867
1.0065723
1.0065848
1.0066169
1.0062754
1.0064161
1.0063406
1.0061146
1.0063252
1.0059768
1.0062187
1.0060903
1.0059243
1.0061908
1.0058983
1.0062103
1.0059004
1.0061871
1.0059736
1.0062029
1.006015
1.006153
1.0060389
1.007424
1.0068951
1.0067542
1.0065068
1.0064912
1.0062366
1.0062224
1.0061849
1.0060187
1.0060156
1.0058331
1.0059716
1.0057589
1.0057745
1.0057616
1.005623
1.0058158
1.005596
1.0056866
1.0056166
1.0056691
1.0056996
1.0056093
1.0057651
1.005597
1.0057382
1.0056719
1.0069357
1.0064724
1.0063822
1.0060844
1.0061247
1.0059012
1.0057815
1.0058314
1.0056783
1.0055808
1.0055533
1.0054908
1.005382
1.0054779
1.0052716
1.0053132
1.0053574
1.005279
1.0052736
1.0052877
1.0052432
1.0052769
1.0052411
1.0052574
1.0053337
1.0051681
1.0053095
1.0064637
1.0063742
1.0061216
1.0057296
1.0055979
1.0056775
1.0052941
1.0053401
1.005398
1.0050449
1.0052788
1.0049778
1.0049941
1.0050915
1.0048009
1.0050386
1.0046994
1.0051105
1.004708
1.0049907
1.0048191
1.0048071
1.0049608
1.0046906
1.0050248
1.004695
1.0049028
1.0061042
1.0061215
1.0057395
1.0053129
1.0051847
1.0052297
1.0048613
1.0049521
1.0048641
1.0046508
1.0048536
1.0046004
1.0045665
1.004493
1.0046367
1.0044701
1.0043448
1.0046419
1.0042742
1.0046548
1.004265
1.0044992
1.0044554
1.0043885
1.004352
1.0044495
1.0043791
1.005596
1.0055475
1.0050752
1.0049899
1.004817
1.0045803
1.0046162
1.0045688
1.0043545
1.0043921
1.0042453
1.0043123
1.004248
1.0039982
1.004213
1.0040847
1.0040268
1.0040687
1.0040219
1.0040506
1.0040283
1.0040016
1.003996
1.0040123
1.003872
1.0040891
1.0039131
1.0055021
1.0046486
1.0046662
1.0044677
1.0043294
1.0041596
1.0042767
1.0040793
1.003978
1.0040738
1.0037325
1.0039226
1.0039485
1.0035393
1.0038291
1.0037316
1.0035555
1.0036936
1.0036401
1.003515
1.0037161
1.0035477
1.0035175
1.0036314
1.0034313
1.003631
1.0033798
1.0049544
1.0045453
1.0043481
1.0040048
1.0039331
1.003839
1.0037933
1.0035717
1.0036637
1.0035849
1.0033165
1.0035569
1.0033826
1.0032404
1.003434
1.0031906
1.0033295
1.0031376
1.0033005
1.0030883
1.0032729
1.0030883
1.0031483
1.0031871
1.0029948
1.0031765
1.0029099
1.0043914
1.0043769
1.0038446
1.0037085
1.0035679
1.0033127
1.0033033
1.003138
1.0032627
1.0031368
1.0028852
1.0030767
1.0029697
1.00291
1.0027907
1.0029625
1.0027796
1.0027528
1.002823
1.00264
1.0028859
1.0025852
1.0027745
1.0025788
1.0026793
1.0027084
1.0024454
1.003477
1.004231
1.0033167
1.0031369
1.0030527
1.0029842
1.002713
1.0028234
1.0026081
1.0027133
1.0026718
1.0022909
1.0027542
1.0024034
1.002347
1.002608
1.0021604
1.002559
1.002217
1.0023839
1.002183
1.0022488
1.0023791
1.0020269
1.002233
1.0021746
1.002128
1.0038577
1.0026056
1.0029009
1.002569
1.0025469
1.0025462
1.0022932
1.0022727
1.0022881
1.0022698
1.0021306
1.002002
1.0021973
1.0019483
1.0019481
1.0020478
1.0018583
1.0019667
1.0018029
1.0020668
1.0016107
1.0018351
1.00187
1.0016253
1.0017922
1.0016575
1.0016932
1.0029504
1.0025133
1.0025339
1.0021129
1.0021799
1.0021405
1.0018346
1.0019662
1.0019349
1.0017055
1.0018555
1.0015844
1.0017282
1.0015865
1.0014468
1.0017085
1.0014139
1.0014363
1.0014266
1.0015298
1.0012788
1.0013542
1.0014601
1.0011022
1.0013575
1.0011769
1.0012204
1.003515
1.0027405
1.0022828
1.0018834
1.0017682
1.0017063
1.0015893
1.0013892
1.0015674
1.0013376
1.0013017
1.0014331
1.0010305
1.001304
1.00098
1.0011711
1.0011764
1.0008407
1.0011862
1.0008669
1.0010708
1.0007415
1.0010735
1.0007255
1.0008218
1.0008151
1.000687
1.0004828
1.0009383
1.0012899
1.0011182
1.0012321
1.0011766
1.0010294
1.0011767
1.0008487
1.0009732
1.0009957
1.0007322
1.0009436
1.0006078
1.0007232
1.000611
1.0005393
1.0008227
1.0003355
1.0007738
1.0003357
1.0005986
1.0004253
1.0003714
1.000344
1.0003766
1.0002615
1.0042479
1.0023781
1.0023156
1.0014193
1.0012588
1.0008273
1.0007799
1.0006401
1.0004413
1.0006353
1.0004664
1.0003191
1.000396
1.0003236
1.0003053
1.0000621
1.0001874
1.0002691
1.0000638
1.0001036
1.0000517
1.000114
1.0000101
0.9998728
0.99997425
0.99990841
0.9998663
1.0017335
1.0037425
1.0013713
1.0011974
1.000492
1.0003508
1.0000782
1.0000801
0.99998532
1.0000344
1.000168
0.99971006
0.99997456
0.99996548
0.99973152
0.99986388
0.99952671
0.9999987
0.99959996
0.99968816
0.99964787
0.99958216
0.99974057
0.99935557
0.99958754
0.99941091
0.9995287
0.99632204
0.99593559
0.99773353
0.99817551
0.99865318
0.99901835
0.99920258
0.99938218
0.99940319
0.9995938
0.99954954
0.99934957
0.99959738
0.99941994
0.99942931
0.9994065
0.99921607
0.99951762
0.99919952
0.9992928
0.9991934
0.99919859
0.99930684
0.99899564
0.99917225
0.9989734
0.99911357
1.0015905
0.99739378
1.0000746
0.99883567
0.99943272
0.99905238
0.9992998
0.99920232
0.99923595
0.99907462
0.99928591
0.99894023
0.99925774
0.99904136
0.99894838
0.99914286
0.99874685
0.99922566
0.99874437
0.99895777
0.99883983
0.99874024
0.99895718
0.99857661
0.99883884
0.99855344
0.99869051
1.0023278
1.0023875
1.0012461
1.0003836
0.99996904
0.99945256
0.99947232
0.9991741
0.99903012
0.99901167
0.99866844
0.99895459
0.9987049
0.99868485
0.99871279
0.99845263
0.99876981
0.99843047
0.99859964
0.99842935
0.99850605
0.99850949
0.9983396
0.99840438
0.9982579
0.99832903
0.9982287
1.0004384
0.99987484
0.99936462
0.9990557
0.99881133
0.99861663
0.99879356
0.99846551
0.99852841
0.99842856
0.99822506
0.99856089
0.99817136
0.99830024
0.99820043
0.99802747
0.99841842
0.99797908
0.99829376
0.99789965
0.99817076
0.99812244
0.99794114
0.99804228
0.99787422
0.99797184
0.99784568
0.99841798
0.99814776
0.9983983
0.99813783
0.99809369
0.99797491
0.9980517
0.9978617
0.99802578
0.99782132
0.99786227
0.99799087
0.99773306
0.99801134
0.9976099
0.99785902
0.99784048
0.99772034
0.99793657
0.99745373
0.99791259
0.99763598
0.99776812
0.99755557
0.99760328
0.99753801
0.99754436
0.99826972
0.99809169
0.99802982
0.99783305
0.99775193
0.99767557
0.99765906
0.99769935
0.9975457
0.99760585
0.9975887
0.99749683
0.9976615
0.99742818
0.99751164
0.9974911
0.99745668
0.99756835
0.99735042
0.99747676
0.99724286
0.99753169
0.99727444
0.99737503
0.99722963
0.99723887
0.99720575
0.99816739
0.99782679
0.99772572
0.99751692
0.9974834
0.99736842
0.99737532
0.99740425
0.99719803
0.99740028
0.99721611
0.99727316
0.9973092
0.99708052
0.99733266
0.99701159
0.99730467
0.99709217
0.99714916
0.99713861
0.99691453
0.99722362
0.99691136
0.99715139
0.99684881
0.99694129
0.99685114
0.99763594
0.99742077
0.99730938
0.99712115
0.99706465
0.99701257
0.99704238
0.99694088
0.99693515
0.99694535
0.99691836
0.99699489
0.9968637
0.99688596
0.99682005
0.99681884
0.9969227
0.9968123
0.99682615
0.99676326
0.9967024
0.99682987
0.99673344
0.99675975
0.99663733
0.99657956
0.99657301
0.99704097
0.99703934
0.99693791
0.99673309
0.99672678
0.99669773
0.99669076
0.99660528
0.9965726
0.99658405
0.99656317
0.99668223
0.99657033
0.99653387
0.99660088
0.99641642
0.99668351
0.99640797
0.99662675
0.99641876
0.99649802
0.99646084
0.9964512
0.99650096
0.99637928
0.99638123
0.99630377
0.99663907
0.99677636
0.99669569
0.9965004
0.99644479
0.99641858
0.99644559
0.99634149
0.9963789
0.99633197
0.99625714
0.99641711
0.99623938
0.99639064
0.99630561
0.99622742
0.99639153
0.99613924
0.9964282
0.99615441
0.99633115
0.99619781
0.99620074
0.99626769
0.99612666
0.99623232
0.99610035
0.99643579
0.9965999
0.99649963
0.99634926
0.99620364
0.99613973
0.99617791
0.99611285
0.99622818
0.99610998
0.9960635
0.99613
0.99601127
0.99621163
0.99604655
0.99609925
0.99608249
0.99597244
0.99617881
0.99595062
0.99618147
0.99597997
0.99603376
0.99600238
0.9959556
0.99602344
0.99595028
0.99622889
0.99636866
0.99633067
0.99617847
0.99599541
0.99593628
0.99592007
0.99594452
0.99600509
0.99587714
0.9958989
0.99586806
0.99588387
0.99596597
0.99584118
0.99594222
0.99582876
0.9958601
0.99590792
0.99583345
0.99592481
0.99583548
0.99585458
0.99583246
0.99582437
0.99581739
0.99578978
0.99599425
0.99612812
0.99612677
0.99595993
0.99582532
0.99580379
0.99577026
0.9957929
0.99576036
0.99568787
0.9957426
0.99571717
0.99575913
0.99576628
0.99567824
0.99575015
0.99568792
0.99569856
0.99577981
0.99569691
0.99575332
0.99566727
0.99571957
0.99569483
0.9957099
0.99567647
0.99565911
0.99578317
0.99594793
0.99596063
0.99579693
0.995689
0.99566325
0.99565115
0.99566598
0.99562113
0.99557261
0.99559836
0.9956189
0.99561937
0.9956333
0.99558514
0.99558662
0.99560491
0.99557945
0.99565839
0.99559144
0.99562764
0.99557623
0.99561345
0.99560723
0.99561162
0.99559232
0.99557996
0.99559548
0.99582395
0.99582521
0.99572115
0.99562687
0.99556083
0.99553759
0.99554706
0.99554498
0.99552877
0.99553846
0.99551933
0.99553839
0.99550126
0.99552939
0.99550448
0.99554771
0.99552274
0.99552994
0.99551783
0.99550525
0.99553935
0.99553211
0.99555372
0.99552922
0.9955089
0.99550067
0.99549521
0.99573525
0.9957549
0.99567539
0.9955705
0.99550643
0.99545177
0.99549614
0.99547943
0.99551431
0.99549828
0.99546396
0.99549172
0.99541778
0.99551906
0.99544447
0.9955419
0.99545239
0.99549944
0.99544886
0.995491
0.99549306
0.99551996
0.99549449
0.99550701
0.99545618
0.99547171
0.99548334
0.99569412
0.99570759
0.99563152
0.99550762
0.99550924
0.99542913
0.99550066
0.9954416
0.99547324
0.99545447
0.99542733
0.99547663
0.99540283
0.99551285
0.99540727
0.99553802
0.99539228
0.99552852
0.99540257
0.99554421
0.9954532
0.99553283
0.99546851
0.99548706
0.99545809
0.9954637
0.99548156
0.99571002
0.99570569
0.99564024
0.99550058
0.99554407
0.99544652
0.99554017
0.99543949
0.99548375
0.99544358
0.99545598
0.99550779
0.99542441
0.9955514
0.99536869
0.99558345
0.99537587
0.9955817
0.99542079
0.99554388
0.99548332
0.99549392
0.99551702
0.99547096
0.99552008
0.99549882
0.99554984
0.99576172
0.99575499
0.9957075
0.99555584
0.99561761
0.99549158
0.99560535
0.99546882
0.99555168
0.99551181
0.99549423
0.99562689
0.99540542
0.99568188
0.99534584
0.99567086
0.99543414
0.99560377
0.99556395
0.99548204
0.99564681
0.99542285
0.99567496
0.99546047
0.99562729
0.99552903
0.99560485
0.99584683
0.99579049
0.99578457
0.99560633
0.99571332
0.99558635
0.99565268
0.9956008
0.99551841
0.99569239
0.99547363
0.99579872
0.99543558
0.99572748
0.99546403
0.9956375
0.99564596
0.99556833
0.99575552
0.99545677
0.99576918
0.99547131
0.99577799
0.99555406
0.99569706
0.99558182
0.99570913
0.9959461
0.99581143
0.99583282
0.99572935
0.99572942
0.99581215
0.99554448
0.9958227
0.99541269
0.99587485
0.99553795
0.99582278
0.99568717
0.99553961
0.99584837
0.99537228
0.99604968
0.99539122
0.9960196
0.99547103
0.99579532
0.99565153
0.99567218
0.99580273
0.99563953
0.99572471
0.99583183
0.99595715
0.9960054
0.99588192
0.99581847
0.99592994
0.99572778
0.99588146
0.99561923
0.99581079
0.99570739
0.99584639
0.99579805
0.9957324
0.99581817
0.99562195
0.99595352
0.99561085
0.99603384
0.99557106
0.99594826
0.99560885
0.99585586
0.99575363
0.99581344
0.99580473
0.99575943
0.99588953
0.99606816
0.99617523
0.99604472
0.99591806
0.99604815
0.99580643
0.99596567
0.99591576
0.99575341
0.99606508
0.99571178
0.99607732
0.99582247
0.99586126
0.99598143
0.99570907
0.99613401
0.99570924
0.99607767
0.99574094
0.99593829
0.99585645
0.99589652
0.99592641
0.99585599
0.99586375
0.9960704
0.99626834
0.99616498
0.9963089
0.99600621
0.9961995
0.99603587
0.99592347
0.99621656
0.99580196
0.99627109
0.99588526
0.99604889
0.99611215
0.99583648
0.99627623
0.99575421
0.99624534
0.99588584
0.99609475
0.99602848
0.99591769
0.99610583
0.99589058
0.99611755
0.99592007
0.99600228
0.99613996
0.99647792
0.99623143
0.99636159
0.99630963
0.99614448
0.99646893
0.99588467
0.9963422
0.99600816
0.99623412
0.99635456
0.99595179
0.99640728
0.99579571
0.99645513
0.99601303
0.99632443
0.99612838
0.99600556
0.99627744
0.9959521
0.9964254
0.99594218
0.99628425
0.99593826
0.99614276
0.99636664
0.99637857
0.99661607
0.99628998
0.99644384
0.99649988
0.99618533
0.99654485
0.99595498
0.99651767
0.99619448
0.9964352
0.99642378
0.99600658
0.99655719
0.99586004
0.99678955
0.99597146
0.99656332
0.99602833
0.996239
0.99638616
0.99616773
0.99654193
0.99599228
0.99632983
0.99611011
0.99645406
0.99664031
0.99651176
0.99647821
0.99661933
0.99642478
0.99671565
0.99627241
0.99644489
0.99638582
0.99635914
0.99670495
0.99622272
0.99663973
0.99612888
0.9965745
0.99637511
0.9964539
0.99648456
0.99618199
0.99656731
0.99620495
0.99664543
0.99625549
0.9964364
0.99626918
0.99635578
0.99654771
0.9967842
0.99651946
0.99670417
0.99665016
0.99662898
0.99684325
0.99628191
0.9965973
0.99638425
0.99661017
0.99682691
0.99636627
0.99669603
0.99615444
0.9967478
0.99649711
0.99668582
0.99651516
0.99630575
0.9966232
0.99634487
0.99684287
0.99629856
0.99661508
0.99627034
0.99651149
0.99660375
0.99667207
0.99703412
0.99674051
0.99660538