/*--------------------------------*- C++ -*----------------------------------*\
| =========                 |                                                 |
| \\      /  F ield         | OpenFOAM: The Open Source CFD Toolbox           |
|  \\    /   O peration     | Version:  2406                                  |
|   \\  /    A nd           | Website:  www.openfoam.com                      |
|    \\/     M anipulation  |                                                 |
\*---------------------------------------------------------------------------*/
FoamFile
{
    version     2.0;
    format      ascii;
    arch        "LSB;label=32;scalar=64";
    class       volScalarField;
    location    "16";
    object      rho_0;
}
// * * * * * * * * * * * * * * * * * * * * * * * * * * * * * * * * * * * * * //

dimensions      [1 -3 0 0 0 0 0];

internalField   nonuniform List<scalar> 
96472
(
1.0026895
1.0050816
1.0053879
1.0066799
1.00754
1.0080871
1.0089292
1.0099404
1.0110875
1.0120961
1.0129713
1.013602
1.0140845
1.0144075
1.0147807
1.0150055
1.0152253
1.0152753
1.015333
1.01534
1.0152724
1.0152126
1.0148898
1.0146142
1.0144287
1.0140973
1.0138142
1.0136686
1.0135488
1.0133565
1.0131018
1.0128448
1.0126194
1.0123836
1.012171
1.0119716
1.0118309
1.011724
1.0115863
1.011453
1.0113465
1.0112695
1.011034
1.0108817
1.0109331
1.0105986
1.0103925
1.0102715
1.0102924
1.0099959
1.0097827
1.009664
1.0093232
1.0092534
1.0088076
1.0026891
1.0050971
1.0053952
1.0066777
1.0075477
1.0081053
1.0089035
1.0099298
1.0110539
1.0121171
1.012935
1.0135843
1.0140578
1.0144077
1.0146919
1.0149397
1.0151582
1.0153457
1.0153935
1.0153967
1.0153567
1.0152455
1.0150836
1.0147641
1.0144878
1.0142961
1.0140057
1.0137312
1.0135174
1.0133068
1.0131023
1.0129032
1.0127194
1.0125268
1.0123378
1.012133
1.0119344
1.0117458
1.0115839
1.0114345
1.0113225
1.0111231
1.0110475
1.0108871
1.0106318
1.010594
1.0105005
1.0102642
1.0100423
1.0099497
1.0097122
1.0095316
1.0094078
1.0090471
1.009051
1.0026891
1.0051102
1.0054157
1.0066923
1.0075748
1.0081217
1.0088867
1.0099445
1.0110324
1.0121214
1.0129584
1.0135752
1.0140166
1.0144355
1.014631
1.0148757
1.0150566
1.0152898
1.0154401
1.0155041
1.0154963
1.0153186
1.0151448
1.0149725
1.014712
1.0143873
1.0142097
1.0139884
1.0136811
1.0133872
1.0131506
1.0129164
1.0126711
1.0124417
1.0122467
1.0120717
1.0119119
1.0117251
1.0115903
1.0114416
1.011259
1.0111448
1.0109398
1.0107755
1.010699
1.0104644
1.01028
1.010195
1.0100734
1.0097759
1.0097049
1.0095492
1.0091938
1.0091778
1.0088292
1.0026887
1.005124
1.0054391
1.0067269
1.0076016
1.0081251
1.008903
1.0099224
1.0110438
1.0120867
1.0129894
1.0136086
1.0140292
1.0143646
1.0146252
1.0148344
1.0150454
1.0151698
1.0153508
1.0154637
1.0154567
1.0154685
1.0152509
1.0150322
1.0147581
1.0144805
1.0141814
1.0139326
1.0137509
1.0135592
1.0133308
1.013081
1.012829
1.0125772
1.0123451
1.012119
1.0119297
1.0117752
1.01159
1.0114326
1.0112934
1.0110617
1.0109169
1.0107889
1.010544
1.0104639
1.0102928
1.0101146
1.009836
1.0098256
1.0096461
1.0092599
1.0093188
1.0089371
1.0088831
1.0026919
1.0051461
1.0054745
1.0067514
1.0076227
1.0081524
1.0089353
1.0099088
1.0110495
1.0120953
1.0129685
1.0136032
1.0140374
1.0142848
1.0145568
1.0147424
1.0149854
1.0151441
1.0152603
1.0153555
1.015409
1.0154246
1.0153211
1.0150244
1.0147891
1.0145893
1.0142778
1.0139995
1.0137797
1.0135713
1.0133577
1.0131343
1.0129297
1.0127189
1.012499
1.0122596
1.0120093
1.0118052
1.0116187
1.011451
1.0112373
1.0110976
1.0109204
1.0106905
1.0106058
1.0103944
1.0101944
1.0100262
1.0099441
1.0096533
1.0094585
1.0094426
1.0091269
1.0089095
1.0087585
1.0026961
1.005177
1.0055047
1.0067882
1.0076721
1.0082195
1.008958
1.0099489
1.0110399
1.0121347
1.0129658
1.0135879
1.0139761
1.0142855
1.0144351
1.0146238
1.0147966
1.0150623
1.0152159
1.015354
1.0154262
1.0153656
1.0152832
1.015112
1.0149286
1.014589
1.0144
1.0141991
1.0139211
1.013613
1.013352
1.0131263
1.0128917
1.0126537
1.0124336
1.0122346
1.012043
1.0118363
1.0116409
1.0114706
1.0113005
1.0110726
1.0108858
1.0107701
1.0105499
1.0103212
1.0102134
1.0100175
1.0097419
1.009701
1.0095796
1.0091578
1.0090942
1.0089496
1.0086407
1.0027022
1.0052079
1.0055469
1.0068368
1.0077411
1.0082658
1.0089848
1.0099922
1.0110569
1.0121292
1.0130066
1.0136075
1.013946
1.0142668
1.0143697
1.0145233
1.0146729
1.0148525
1.015086
1.0152624
1.0153415
1.015392
1.0152682
1.0151611
1.0148792
1.0146335
1.0143483
1.0140895
1.0138685
1.0136765
1.0134747
1.0132426
1.0129881
1.0127443
1.0125073
1.0122682
1.012059
1.0118696
1.0116806
1.0114826
1.0112692
1.0111148
1.0109048
1.0107215
1.0104923
1.0104173
1.0101143
1.0099283
1.0098426
1.0097017
1.0091608
1.0095393
1.0089685
1.0087781
1.0087809
1.0027105
1.0052423
1.005592
1.0068879
1.0077846
1.0082944
1.0090451
1.0099957
1.0111006
1.0121188
1.0130144
1.0136148
1.0139713
1.014146
1.0143183
1.0144106
1.0146151
1.0147252
1.0148993
1.0150346
1.0151667
1.0152813
1.0152399
1.0150242
1.014851
1.014642
1.0143445
1.0140655
1.0138414
1.0136571
1.0134393
1.013235
1.0130554
1.0128553
1.0126374
1.0123931
1.0121385
1.0119209
1.0117078
1.0115243
1.011321
1.0110988
1.0109109
1.0107175
1.0105609
1.0103159
1.0100969
1.0100422
1.0097618
1.0094279
1.009743
1.0089265
1.0090483
1.0089947
1.0084128
1.0027274
1.0052908
1.0056452
1.0069388
1.0078374
1.0083653
1.0091048
1.010027
1.0111213
1.0121592
1.0129918
1.0135918
1.013937
1.0140885
1.0142049
1.0142841
1.0144307
1.0146329
1.0147636
1.0149321
1.0150508
1.0150906
1.0151319
1.0149892
1.0148194
1.0145663
1.0143848
1.0141887
1.0139395
1.0136418
1.0134082
1.0132082
1.0129702
1.0127449
1.0125334
1.0123266
1.0121266
1.0119215
1.0117179
1.0115166
1.0113211
1.0111338
1.0109372
1.0107209
1.0105393
1.0102878
1.0102302
1.0098965
1.0097133
1.0097471
1.0091383
1.0093106
1.0091627
1.0084244
1.0088069
1.0027319
1.0053431
1.0056971
1.0069988
1.0079086
1.008449
1.009142
1.0101004
1.0111289
1.0121916
1.0130165
1.0135843
1.0138596
1.0140916
1.014075
1.0141515
1.0142146
1.014397
1.0146036
1.0148085
1.0149592
1.0150134
1.0149864
1.0149687
1.0147605
1.0145184
1.0142657
1.0140301
1.0138285
1.0136354
1.0134345
1.0132011
1.012985
1.0127847
1.0125757
1.0123519
1.0121299
1.0119352
1.0117339
1.0115511
1.0113325
1.0111352
1.0109148
1.0107662
1.0104963
1.0104068
1.0100966
1.0099151
1.0098278
1.0094203
1.0094285
1.0093076
1.008574
1.0091579
1.0084276
1.0027516
1.0053871
1.0057543
1.0070676
1.0079776
1.0084937
1.0091861
1.0101352
1.0111686
1.0121732
1.013048
1.0136144
1.0138696
1.014012
1.0140211
1.0140198
1.0141215
1.0142016
1.0143821
1.0145364
1.0147161
1.0148883
1.0148971
1.0147587
1.0146589
1.014495
1.0142091
1.0139309
1.0136866
1.0134978
1.0133178
1.0131713
1.0130219
1.0128411
1.0126387
1.0124198
1.0121881
1.0119587
1.0117424
1.0115355
1.0113562
1.0111519
1.0109465
1.0107058
1.0105816
1.0102956
1.0101465
1.0100158
1.00967
1.0096168
1.0093976
1.0089564
1.009224
1.0086607
1.0085065
1.0027696
1.005438
1.0058212
1.007137
1.0080443
1.0085382
1.0092534
1.0101399
1.0112008
1.0121773
1.0130234
1.0135793
1.0138776
1.0138961
1.0139578
1.0139039
1.0139991
1.0141038
1.0142142
1.0143612
1.0144955
1.0146178
1.0147401
1.0146552
1.0144926
1.0143124
1.014162
1.0139762
1.0137557
1.0135002
1.0132801
1.0130731
1.012865
1.0126755
1.0124935
1.0123032
1.0121198
1.0119292
1.0117221
1.0115336
1.0113495
1.0111371
1.0109334
1.0107729
1.0105117
1.0103798
1.0101756
1.0098979
1.0098032
1.0096143
1.0091704
1.0093476
1.0089136
1.0085496
1.0088293
1.0027861
1.0054972
1.0058773
1.0071931
1.0081
1.0086169
1.0093002
1.0101839
1.0111905
1.0122142
1.0130006
1.0135436
1.0137909
1.0138657
1.0138194
1.0137796
1.0137782
1.0138931
1.0140507
1.0142255
1.0144055
1.0144571
1.0145018
1.0145523
1.0144307
1.0142131
1.0139838
1.0137758
1.0135944
1.0134046
1.0132089
1.0130091
1.0128326
1.012667
1.0124846
1.01228
1.0120758
1.0118984
1.0117067
1.0115287
1.0113327
1.0111438
1.0109273
1.0107479
1.0105572
1.0103908
1.0100921
1.010051
1.0097442
1.0094348
1.009517
1.0091805
1.0085999
1.0093141
1.008188
1.0027945
1.0055557
1.005944
1.0072538
1.0081696
1.008688
1.009324
1.0102394
1.011196
1.012195
1.0130123
1.0135522
1.0137369
1.0138496
1.0137223
1.0136582
1.0136253
1.0136764
1.0138177
1.0139777
1.0141804
1.0143418
1.0143828
1.0143353
1.014281
1.0141547
1.0139404
1.0136757
1.0134299
1.0132132
1.0130425
1.0129208
1.0127878
1.012639
1.0124827
1.0123058
1.0121066
1.0119025
1.0117007
1.0115039
1.0113286
1.0111093
1.0109523
1.0107176
1.010619
1.0102861
1.0102714
1.0099069
1.0097112
1.0097182
1.0093332
1.0088517
1.0095565
1.0083426
1.0087321
1.0028077
1.0055987
1.0060079
1.0073313
1.008245
1.0087255
1.0093604
1.0102363
1.0112208
1.0121456
1.0129941
1.0135253
1.0137531
1.013734
1.0136815
1.0135473
1.0135477
1.0135843
1.0136426
1.0137897
1.0138983
1.0140699
1.0142329
1.0142109
1.0140602
1.0139335
1.0138045
1.0136316
1.0134294
1.0132195
1.0130046
1.0127919
1.0126092
1.0124574
1.012321
1.0121631
1.0119899
1.0118088
1.0116285
1.0114594
1.0112719
1.0111255
1.0108815
1.0107865
1.0104932
1.0104377
1.0101478
1.0099328
1.0099258
1.009484
1.0092785
1.0094849
1.0089356
1.0084977
1.0089954
1.0028205
1.0056536
1.0060606
1.0073982
1.0083011
1.0087679
1.0094091
1.0102218
1.0111978
1.0121409
1.0129303
1.013446
1.0136934
1.0136292
1.0135836
1.0134241
1.0133907
1.0134295
1.0135322
1.0136531
1.013804
1.0138822
1.0139809
1.0140279
1.0139828
1.013829
1.0136109
1.0134166
1.0132508
1.0130641
1.0128694
1.0127121
1.0125728
1.01242
1.0122443
1.0120765
1.011908
1.0117386
1.0115768
1.0114167
1.0112654
1.0110608
1.0109219
1.0106826
1.0105865
1.0103494
1.0101544
1.010082
1.0097569
1.0095299
1.0095681
1.0093072
1.0085158
1.0095207
1.0082623
1.0028366
1.0056995
1.0061204
1.0074576
1.0083586
1.0088387
1.0094347
1.0102563
1.011149
1.0121207
1.0128835
1.0134038
1.0135732
1.0136111
1.0134512
1.0133223
1.0132124
1.013217
1.0133344
1.013453
1.0136558
1.0138013
1.0138324
1.0138486
1.0138444
1.01373
1.0135643
1.0133566
1.0131162
1.0128872
1.0127158
1.0125779
1.0124478
1.01232
1.0121998
1.0120746
1.0119177
1.0117446
1.0115638
1.011388
1.0112196
1.0110585
1.0108478
1.0107212
1.0105364
1.0103537
1.0102534
1.009973
1.0097681
1.0097532
1.0094417
1.0089262
1.0095235
1.0086395
1.0086841
1.0028432
1.0057527
1.0061797
1.0075288
1.0084328
1.0088985
1.0094482
1.0102772
1.0111376
1.0120416
1.0128439
1.0133776
1.0135364
1.013546
1.0133857
1.0132202
1.0131153
1.0131253
1.0131522
1.0132714
1.0133901
1.0135703
1.0137121
1.0137521
1.0136263
1.0135082
1.0134124
1.0132556
1.0130584
1.0128694
1.0126647
1.0124492
1.0122794
1.0121619
1.0120657
1.0119311
1.0117793
1.0116322
1.0114668
1.0113184
1.0111633
1.0109962
1.0108475
1.0106778
1.0105182
1.010402
1.0101442
1.0100309
1.0099002
1.0096095
1.0092984
1.0095287
1.0091313
1.0085962
1.008995
1.0028589
1.0057884
1.0062236
1.0075987
1.0085036
1.0089345
1.0094832
1.0102477
1.0111241
1.0119776
1.012767
1.0132767
1.0135082
1.0133995
1.0133343
1.0131132
1.013036
1.0130501
1.0130768
1.0131807
1.0132826
1.0133715
1.0135074
1.0135682
1.013537
1.013435
1.0132366
1.0130436
1.0128849
1.0127273
1.012533
1.0123794
1.0122527
1.0121188
1.0119703
1.0118182
1.0116813
1.011547
1.011399
1.0112583
1.0111243
1.0109774
1.010813
1.0106679
1.0105352
1.0103114
1.0102204
1.0100607
1.0097891
1.0096307
1.0096324
1.0094347
1.0086948
1.0094499
1.0086225
1.0028639
1.0058403
1.00627
1.0076608
1.0085663
1.0089961
1.0095176
1.0102369
1.0110646
1.0119467
1.0126792
1.0131778
1.0133823
1.0133232
1.0132149
1.0130185
1.0129063
1.0128768
1.0129681
1.0130487
1.0132072
1.0133307
1.013375
1.0133994
1.013425
1.0133264
1.0131761
1.0130123
1.0128005
1.0125768
1.012376
1.0122402
1.0121242
1.0120066
1.011904
1.0118034
1.0116825
1.0115442
1.011392
1.0112384
1.0110903
1.0109513
1.0107914
1.010655
1.0104763
1.0103634
1.0102229
1.00998
1.0098838
1.0097666
1.0096129
1.0090234
1.0095807
1.008901
1.0086919
1.0028848
1.0058761
1.0063122
1.0077251
1.0086264
1.0090661
1.0095385
1.0102637
1.0110153
1.0118797
1.0126118
1.0131276
1.013269
1.0132963
1.0131159
1.0129415
1.0127871
1.0127786
1.0128103
1.0128891
1.0130131
1.0131922
1.0132918
1.0133421
1.013258
1.0131554
1.0130654
1.0129281
1.0127371
1.0125547
1.0123602
1.012157
1.0119828
1.0118565
1.0117808
1.0116944
1.0115739
1.0114438
1.0113081
1.0111664
1.0110429
1.0109083
1.0107706
1.0106094
1.0104934
1.010366
1.0101676
1.0100656
1.0099225
1.0097656
1.0093816
1.0095878
1.0093651
1.0087734
1.0090299
1.0028866
1.0059248
1.006361
1.0077856
1.0086997
1.0091204
1.0095654
1.0102626
1.0110041
1.0117906
1.0125442
1.0130598
1.0132461
1.0131968
1.0130663
1.012858
1.0127312
1.0127412
1.0127365
1.0128179
1.012913
1.0130147
1.0131393
1.0132097
1.0131901
1.0131033
1.0129251
1.0127455
1.0125779
1.012441
1.0122668
1.0120991
1.011961
1.0118459
1.0117397
1.0116192
1.0114948
1.0113723
1.0112483
1.0111246
1.0110063
1.0108873
1.0107425
1.0106184
1.0104931
1.0103207
1.0102202
1.0100786
1.0099028
1.0097093
1.0095887
1.0097474
1.0088644
1.0092763
1.0090585
1.0029079
1.0059519
1.0063851
1.0078486
1.0087583
1.0091656
1.0096001
1.0102458
1.0109809
1.0117514
1.012462
1.0129511
1.0131792
1.0130837
1.0130064
1.0127879
1.0126815
1.0126526
1.0126894
1.0127679
1.0128906
1.0129852
1.01305
1.0130933
1.0131234
1.013035
1.0128874
1.0127306
1.0125553
1.0123499
1.0121443
1.0119885
1.0118784
1.0117768
1.0116738
1.0115869
1.011496
1.0113988
1.0112729
1.0111465
1.0110152
1.0108856
1.0107498
1.0106314
1.0104698
1.0103755
1.0102267
1.0100679
1.009974
1.0097375
1.0098364
1.009295
1.0093784
1.0092721
1.0090368
1.0029036
1.0060027
1.0064286
1.0079085
1.0088233
1.009215
1.0096239
1.0102596
1.0109397
1.0117305
1.0124158
1.0129075
1.0130861
1.0130724
1.0129335
1.0127381
1.0125886
1.0125663
1.0126122
1.0126699
1.0127826
1.0129336
1.0130378
1.0130864
1.0130471
1.0129556
1.0128657
1.012728
1.0125594
1.0123705
1.0121812
1.0119928
1.011821
1.0116936
1.0115947
1.0115342
1.0114589
1.0113722
1.0112537
1.0111299
1.0110091
1.0109059
1.0107819
1.0106465
1.0105257
1.0104125
1.0102339
1.0102033
1.0099418
1.0099465
1.0096754
1.00951
1.0095174
1.0093694
1.0089701
1.0029536
1.0060699
1.0064772
1.0080181
1.0089121
1.0092857
1.0096446
1.0102873
1.0109468
1.0117106
1.0124413
1.0129832
1.0131581
1.0131427
1.0129786
1.0127627
1.0125877
1.0125553
1.0125756
1.0126462
1.0127526
1.0128863
1.0130343
1.0131177
1.013118
1.013045
1.0129025
1.0127361
1.0125589
1.0123999
1.0122331
1.0120478
1.0118808
1.0117556
1.0116591
1.0115723
1.0114695
1.0113781
1.0112816
1.0111747
1.0110797
1.0109922
1.0108755
1.0107537
1.0106485
1.010497
1.0104063
1.0102699
1.010122
1.0100518
1.0097277
1.0099006
1.0094148
1.0095146
1.0091544
1.0030068
1.0062335
1.0066788
1.0082524
1.0091633
1.0094892
1.0097702
1.0103613
1.0110341
1.011801
1.0126223
1.0132255
1.0134883
1.0134222
1.0131859
1.0128722
1.0126419
1.0125763
1.0126047
1.0126987
1.0128455
1.0130012
1.0131667
1.0132542
1.0133103
1.0132662
1.013126
1.0129613
1.0127896
1.012612
1.012412
1.0122039
1.0120218
1.0118678
1.011739
1.0116225
1.011524
1.0114497
1.0113766
1.01129
1.0112118
1.011131
1.0110309
1.0109301
1.0108234
1.010699
1.0106135
1.0104323
1.0103925
1.0101446
1.0101625
1.0099421
1.00975
1.0097146
1.0095451
1.0030457
1.0064144
1.0068921
1.0085958
1.0095175
1.0099201
1.0101914
1.0106304
1.0111745
1.0119563
1.0131625
1.0133676
1.0138506
1.0144018
1.013407
1.0125209
1.0123533
1.0125154
1.012657
1.0127447
1.0129246
1.0130879
1.0133367
1.0135311
1.0134147
1.013423
1.0134049
1.0131531
1.0130074
1.0129634
1.0128417
1.0126313
1.0123649
1.012078
1.0118483
1.0116901
1.0115602
1.0114599
1.0113912
1.0113274
1.0112693
1.0112192
1.0111477
1.0110874
1.0110022
1.0109069
1.0108335
1.0107129
1.0105914
1.0105036
1.0103646
1.0101939
1.0101354
1.009981
1.0098073
1.0097287
1.0093313
1.0091878
1.0089484
1.0088023
1.0086975
1.0086816
1.0086903
1.0085465
1.0084623
1.0085206
1.0084518
1.0083341
1.0083619
1.0084402
1.0082726
1.00836
1.0083523
1.0083189
1.0084244
1.0083615
1.0084789
1.0085054
1.0085562
1.0086638
1.0086738
1.0087282
1.0094167
1.009158
1.0088101
1.0087182
1.0085974
1.0084676
1.0084245
1.0082947
1.0083282
1.0082463
1.0081595
1.0082125
1.0080556
1.0081308
1.008034
1.0080528
1.008047
1.0080264
1.0080587
1.0080363
1.0081369
1.0080938
1.0081954
1.0081979
1.0083074
1.008323
1.0084635
1.009296
1.0089123
1.0086179
1.0083676
1.0082635
1.0082724
1.0081165
1.008095
1.007999
1.0079582
1.0079327
1.0078327
1.0078975
1.0077564
1.007796
1.0077766
1.0076992
1.0077804
1.0077438
1.0077994
1.0077449
1.007851
1.0078105
1.007916
1.0078757
1.008033
1.0079599
1.0088637
1.0085346
1.0082714
1.008111
1.0080567
1.0078686
1.0079093
1.0078299
1.0076989
1.0077162
1.0076087
1.0075908
1.0075321
1.0075277
1.0074606
1.0074541
1.007469
1.0074316
1.0074287
1.0074462
1.0074791
1.0074835
1.0075051
1.0075316
1.0076089
1.0076122
1.0076014
1.0085667
1.0081066
1.0080486
1.0078015
1.0077758
1.0076882
1.0075337
1.0075381
1.0074479
1.0073446
1.0073397
1.0072462
1.0072662
1.007128
1.007231
1.0071144
1.0071374
1.0071024
1.0071039
1.0071932
1.0070546
1.0072092
1.0071388
1.0071925
1.0071696
1.0072441
1.0074594
1.0082767
1.0080857
1.0078111
1.0076145
1.0074221
1.007451
1.0072755
1.0071448
1.0072457
1.0069704
1.0069832
1.0069808
1.0068077
1.0069391
1.0067342
1.0068561
1.0067506
1.0068027
1.0067964
1.0066944
1.0069269
1.0066605
1.0069043
1.0067653
1.0069064
1.0067889
1.0068117
1.0080334
1.0078258
1.0075099
1.0073962
1.0070802
1.0069991
1.0070724
1.0067685
1.0067727
1.0068302
1.0065501
1.0066214
1.006526
1.0064932
1.0065047
1.0063762
1.006519
1.0063141
1.0064822
1.0063764
1.0064678
1.0064293
1.0064725
1.0064382
1.006436
1.0065402
1.0064486
1.0078071
1.0076605
1.0070774
1.0069495
1.0068681
1.0065916
1.0065425
1.0066347
1.0062909
1.0063696
1.0063784
1.0060958
1.0063116
1.0060087
1.0061697
1.0061296
1.0058923
1.0062208
1.0058764
1.0062166
1.0059031
1.0061719
1.005988
1.0061901
1.0060301
1.0061206
1.0060426
1.007426
1.0068879
1.0067595
1.0064896
1.0064849
1.006252
1.0061974
1.0061895
1.0060089
1.0060196
1.0058242
1.0059558
1.0057863
1.0057399
1.0057806
1.0056038
1.0058223
1.0055971
1.0056634
1.0056372
1.0056414
1.0057309
1.0055728
1.0057738
1.0055966
1.0057353
1.005668
1.006927
1.0064716
1.0063912
1.006068
1.0061054
1.0059265
1.0057603
1.0058264
1.0056777
1.005575
1.0055497
1.005485
1.0053707
1.005474
1.0052879
1.0052867
1.0053606
1.0052735
1.005273
1.0052866
1.0052228
1.0052775
1.0052485
1.0052377
1.0053386
1.0051521
1.0053076
1.0064648
1.0063591
1.0061087
1.0057606
1.0055606
1.0056683
1.0053299
1.0052847
1.0054236
1.0050401
1.0052404
1.0050355
1.0049253
1.005112
1.0047839
1.0050472
1.0046984
1.0050693
1.0047639
1.0049161
1.0048873
1.0047093
1.0050462
1.0046183
1.0050554
1.0046674
1.0049284
1.0061003
1.006108
1.0057297
1.0053262
1.0051556
1.005225
1.0048724
1.0049173
1.0048861
1.0046238
1.0048342
1.0046214
1.004551
1.0044956
1.004589
1.0045134
1.0043047
1.0046433
1.0042844
1.0046078
1.0043121
1.0044365
1.0044963
1.0043392
1.0043734
1.0044217
1.0043951
1.0055832
1.0055424
1.0050729
1.0049707
1.0048177
1.0045763
1.0045863
1.0045847
1.004343
1.0043723
1.0042439
1.0042768
1.0042736
1.0039877
1.0041755
1.0041133
1.0039926
1.0040778
1.0040011
1.0040504
1.0040152
1.004016
1.003949
1.0040274
1.0038703
1.0040675
1.0039112
1.0054929
1.0046439
1.0046515
1.0044517
1.0043529
1.0041278
1.0042481
1.0041065
1.0039488
1.0040738
1.0037458
1.0038554
1.003979
1.003543
1.0037734
1.0037602
1.0035329
1.0036791
1.0036406
1.003505
1.0036884
1.0035877
1.0034485
1.0036731
1.0033956
1.003633
1.0033499
1.0049484
1.0045379
1.0043397
1.0039885
1.0039324
1.0038336
1.0037736
1.0035633
1.0036253
1.0036194
1.0033055
1.0035011
1.0034254
1.0032038
1.0034311
1.0031876
1.0033031
1.0031515
1.0032637
1.0031164
1.0032
1.003159
1.003075
1.0032279
1.0029355
1.0032175
1.0028635
1.0043714
1.0043791
1.003852
1.0036614
1.003564
1.0033165
1.0032979
1.00312
1.0032179
1.0031707
1.0028624
1.0030466
1.0029712
1.0029037
1.002782
1.002931
1.0028084
1.0026968
1.0028476
1.0026282
1.002862
1.0025868
1.0027357
1.0026264
1.002606
1.0027404
1.0024247
1.003463
1.0042154
1.0033228
1.0031205
1.0030054
1.0030138
1.0026817
1.0028076
1.0026302
1.0026361
1.0027258
1.002262
1.0026875
1.0024912
1.0022571
1.0026165
1.0021721
1.0025131
1.0022569
1.0022993
1.0022677
1.0021512
1.0024231
1.0019922
1.0022349
1.002147
1.00215
1.003839
1.0025858
1.0028923
1.0025661
1.0025029
1.0025452
1.0023018
1.0022379
1.0022697
1.0022512
1.002156
1.0019532
1.0021733
1.0019809
1.001902
1.0020518
1.0018363
1.001977
1.0017792
1.0020329
1.0016619
1.001748
1.0019264
1.0015769
1.0018018
1.001633
1.001695
1.0029376
1.0025005
1.0025244
1.0020985
1.0021213
1.0021587
1.0018479
1.0018922
1.0019524
1.0016784
1.0018348
1.0016026
1.0016615
1.0016325
1.0013987
1.0016926
1.0014443
1.0013969
1.0014156
1.0014994
1.0013251
1.0012718
1.0014995
1.0010761
1.0013289
1.0011925
1.0012145
1.0034803
1.0027304
1.0022847
1.0018486
1.0017446
1.0016746
1.0016097
1.0013744
1.0015071
1.001381
1.0012299
1.0014416
1.0010193
1.0012612
1.0010331
1.001071
1.0012317
1.0008203
1.0011617
1.0008756
1.0010288
1.0007596
1.0010207
1.0007821
1.0007269
1.000858
1.0006698
1.0004589
1.0009337
1.0012906
1.0011065
1.0011719
1.001197
1.0009942
1.0011649
1.0008815
1.0008907
1.0010314
1.0006977
1.0009039
1.0006421
1.0006474
1.0006686
1.0004587
1.0008564
1.0003306
1.0007266
1.0003789
1.000522
1.000478
1.0003127
1.0003585
1.0003399
1.0002739
1.0042416
1.0023692
1.0023399
1.001409
1.0012121
1.0008274
1.0007156
1.0006811
1.0004293
1.0005912
1.0005011
1.000279
1.0003627
1.000304
1.0003153
1.000074
1.0001159
1.0002894
1.0000668
1.0000896
1.0000259
1.0000944
1.0000184
0.99987
0.99994694
0.99990221
0.99985227
1.0016805
1.0037038
1.0013424
1.0011901
1.0004642
1.0003372
1.0000511
1.0000703
1.0000085
0.99997502
1.0001922
0.99972837
0.99986925
1.0000072
0.99969158
0.99988135
0.99951604
0.99992074
0.99969829
0.99959949
0.99969411
0.99949449
0.99977307
0.99935382
0.99956409
0.99939044
0.99952885
0.99631101
0.99590333
0.99772485
0.99816228
0.99863479
0.99901671
0.99919157
0.99938453
0.99939831
0.99954032
0.99960601
0.9993245
0.99955119
0.99944509
0.99937337
0.99945475
0.99917813
0.99946655
0.99924716
0.99923857
0.99924614
0.99911608
0.99932836
0.99898793
0.99915984
0.99895951
0.99908836
1.0016181
0.99742632
1.0000631
0.99883486
0.99942894
0.99905106
0.99929617
0.99917361
0.99924547
0.99904487
0.99927767
0.99896833
0.99917562
0.99911538
0.99884905
0.99919042
0.99874953
0.99914255
0.99882927
0.9988316
0.99894027
0.99863779
0.99901373
0.99853549
0.99883382
0.99854387
0.99867122
1.0023387
1.0023583
1.0012319
1.0003537
0.99997534
0.9994487
0.99942758
0.99922133
0.99895783
0.99905658
0.99864317
0.998903
0.99877156
0.99860134
0.9987489
0.99840777
0.99874886
0.99847824
0.99853002
0.99847682
0.99841567
0.99857401
0.99829042
0.99841143
0.99823215
0.9983227
0.99821786
1.0004044
0.99986196
0.99935126
0.99902835
0.99883879
0.99857455
0.9987689
0.99850596
0.99845232
0.99848031
0.99817464
0.99852413
0.99823659
0.99820037
0.99827163
0.99794514
0.99842565
0.99800888
0.99822872
0.99796987
0.99803847
0.99821758
0.99787677
0.99807733
0.99782861
0.99796673
0.99783031
0.99840356
0.99813628
0.99838125
0.99812801
0.99809181
0.9979407
0.99804513
0.99785871
0.99797584
0.99788121
0.99778243
0.99801632
0.9977101
0.99797418
0.99768292
0.99774726
0.99791835
0.99763873
0.99797984
0.99746072
0.99782705
0.99769253
0.99770939
0.99761503
0.99754559
0.99754829
0.99751701
0.99826085
0.99807556
0.99801961
0.9978283
0.99773691
0.99766534
0.99763641
0.99768559
0.99757605
0.9975497
0.99762035
0.99745812
0.99764341
0.99746889
0.99745849
0.99752309
0.99740094
0.99758036
0.9973468
0.99747282
0.99724497
0.99746872
0.99732674
0.99732373
0.99727454
0.99719413
0.99720334
0.99815483
0.99781804
0.99772979
0.99750628
0.99746234
0.99737752
0.99733164
0.99742984
0.99720025
0.99735152
0.99726576
0.99719332
0.99736193
0.99705372
0.99732321
0.99704201
0.99721751
0.9971665
0.9970554
0.99722329
0.99685972
0.99721868
0.99691443
0.99711417
0.99688732
0.99690621
0.99685724
0.99762586
0.99741602
0.99730531
0.99711187
0.99705461
0.99699827
0.9970396
0.99696219
0.99691216
0.99694893
0.99688688
0.99698739
0.99688118
0.99686767
0.99684106
0.99678344
0.99691011
0.99682578
0.99680216
0.99678146
0.99668268
0.99681139
0.99674807
0.99673221
0.99665503
0.99655779
0.99657407
0.99702883
0.99703818
0.99694373
0.99672936
0.99670637
0.99668604
0.99669734
0.99661159
0.99657134
0.99657422
0.99655486
0.99664995
0.99662078
0.99648795
0.9966265
0.99638618
0.99666279
0.99644686
0.99657036
0.99648193
0.99641494
0.99651848
0.99638995
0.9965443
0.9963491
0.99639276
0.99628888
0.99663083
0.99677506
0.99670109
0.99650234
0.99643721
0.99640537
0.99644219
0.99635672
0.99634544
0.99636651
0.99622878
0.99641186
0.99627095
0.99633608
0.99635978
0.99617773
0.99640469
0.99614467
0.99638529
0.99621711
0.99624435
0.99627781
0.99611795
0.99633332
0.99607956
0.99624517
0.99608255
0.99643687
0.99659659
0.99649073
0.99634613
0.99621307
0.99613324
0.99618741
0.99610671
0.99619541
0.9961404
0.99603584
0.99615378
0.99601146
0.99617739
0.99608609
0.99603599
0.99613618
0.99594372
0.99618245
0.99596447
0.99611827
0.99603536
0.99597942
0.99605838
0.99591882
0.99602576
0.99592934
0.99624197
0.99637326
0.99630026
0.99617075
0.99600404
0.99594444
0.99594578
0.99591873
0.99599043
0.99588217
0.99588178
0.99590788
0.99586592
0.99596852
0.99583421
0.99590508
0.99586767
0.99584214
0.99593242
0.99581115
0.99589951
0.99584243
0.99585254
0.99584617
0.99582087
0.99580106
0.99577491
0.99600058
0.9961327
0.99610812
0.99596217
0.99582656
0.9958052
0.99578147
0.99577632
0.99576275
0.99568138
0.99573855
0.99574118
0.99574367
0.99577127
0.99566661
0.99572398
0.99571867
0.99569146
0.99578421
0.99568801
0.99572812
0.99568133
0.99570932
0.99570701
0.99569675
0.99567421
0.99564624
0.99577837
0.99595402
0.99594929
0.9958033
0.99569443
0.99565712
0.99564726
0.99565905
0.99562191
0.99557869
0.9955954
0.99562077
0.99561657
0.99562024
0.99558807
0.99557318
0.99561851
0.99557589
0.99564459
0.99559139
0.99560459
0.99559695
0.99559182
0.99562027
0.9955902
0.99559512
0.99556695
0.99559454
0.99582329
0.99581607
0.99572088
0.99563002
0.99556152
0.99553146
0.99553666
0.99554741
0.99552953
0.99554243
0.99551505
0.99553399
0.99549487
0.9955205
0.99551071
0.99553714
0.99553352
0.99550843
0.99551907
0.99549214
0.99554427
0.99552475
0.99555015
0.99552123
0.99550435
0.99549636
0.99549816
0.99573342
0.99574349
0.99566835
0.99556754
0.9955059
0.99545774
0.99548076
0.9954872
0.9954932
0.99551179
0.99544656
0.99550011
0.9954084
0.99551051
0.99545039
0.99551925
0.99547164
0.99546876
0.99546679
0.99546645
0.99551029
0.99550225
0.9954997
0.99548906
0.9954539
0.99546452
0.99548049
0.99569217
0.99569775
0.99563081
0.99550173
0.99550365
0.99543828
0.99547891
0.99546413
0.99543754
0.99547987
0.99539618
0.99549713
0.99538084
0.99551702
0.9953947
0.99553485
0.9953987
0.99550806
0.99541683
0.99550786
0.99548491
0.99549595
0.99549829
0.99544899
0.99546945
0.9954519
0.99547436
0.99571068
0.9956989
0.99564584
0.99549919
0.995526
0.99545959
0.99550994
0.99547569
0.99544394
0.99548047
0.99540599
0.99554467
0.99538714
0.99557189
0.99535668
0.99556654
0.99540347
0.99553336
0.99546748
0.99548321
0.9955312
0.99544983
0.99554702
0.99544411
0.99552771
0.9954915
0.9955429
0.99576261
0.99574374
0.99570843
0.99555414
0.99560352
0.99550624
0.9955673
0.9955114
0.9954914
0.99557119
0.99542943
0.99566821
0.99537833
0.99566846
0.99538753
0.99559235
0.99552458
0.99549692
0.99565679
0.99540249
0.99569929
0.99539494
0.99567612
0.99546379
0.99561021
0.99553216
0.99559915
0.99584762
0.99577358
0.99576781
0.99561973
0.99567692
0.9956313
0.99558614
0.99565441
0.9954516
0.99572591
0.99545689
0.99577295
0.99548699
0.99563545
0.99556495
0.99552196
0.99574492
0.99547635
0.99581064
0.99542239
0.99577227
0.99548404
0.9957446
0.99557777
0.99566725
0.99558962
0.99570576
0.9959267
0.99582998
0.99577405
0.99578287
0.99565773
0.99586238
0.99549979
0.9958113
0.99545013
0.99577961
0.99566114
0.99565921
0.99583934
0.99539403
0.99594172
0.99533062
0.99601739
0.99547668
0.99586827
0.99564018
0.99560763
0.99581053
0.99553431
0.99588859
0.99558364
0.99574184
0.99581741
0.99597363
0.9959627
0.99591403
0.9957737
0.99593409
0.99572688
0.99585426
0.99565845
0.9957456
0.99575941
0.99575915
0.9958765
0.9956528
0.9958889
0.99555868
0.9959693
0.99560891
0.9959915
0.99564616
0.99584095
0.99571777
0.99573196
0.9958519
0.99572869
0.99585375
0.99572987
0.99588718
0.99608063
0.99612209
0.99607386
0.99588368
0.9960379
0.99585668
0.99588371
0.99598407
0.99569899
0.996045
0.9957651
0.99597956
0.99594697
0.99574317
0.99605064
0.99564735
0.99612764
0.99576284
0.99601206
0.99582616
0.99583024
0.9959237
0.99583079
0.99597925
0.99583199
0.99586729
0.99605631
0.9963021
0.99611605
0.99628555
0.99604934
0.99611849
0.99614997
0.99582525
0.99622979
0.99581457
0.99618093
0.99603171
0.99591353
0.99621001
0.99575094
0.99627008
0.99581813
0.99615512
0.99601178
0.99595703
0.99612253
0.99582409
0.99616904
0.99587245
0.99613092
0.99591122
0.99598388
0.9961319
0.99645377
0.99628564
0.99626578
0.99638592
0.99607142
0.9964833
0.9959396
0.99622007
0.9961379
0.99606433
0.99648994
0.99588313
0.99642259
0.99582502
0.99632822
0.996158
0.99617318
0.996302
0.99585512
0.99635907
0.99587802
0.99645878
0.99596767
0.99626664
0.99595068
0.9961095
0.9963552
0.99637881
0.99657912
0.99636802
0.99632253
0.9965792
0.99611783
0.9965488
0.99603017
0.99638373
0.99634151
0.9962362
0.99658724
0.99589385
0.9966177
0.99586653
0.99667016
0.99613499
0.99635477
0.99627466
0.99600397
0.99656645
0.99601277
0.99663887
0.99596485
0.99634146
0.99610386
0.99644264
0.99661142
0.99655965
0.99641665
0.99665109
0.99639985
0.9966815
0.99635279
0.99632992
0.99648951
0.99624569
0.99674893
0.99622893
0.99658639
0.99622387
0.99643202
0.9964965
0.9963206
0.99660266
0.99610894
0.99660465
0.9961773
0.99661627
0.99629728
0.99640787
0.99630488
0.99633379
0.99651269
0.99677983
0.99656991
0.99665281
0.99670499
0.99654159
0.9968445
0.99632107
0.99653048
0.9964897
0.99648088
0.99689157
0.99631977
0.99669518
0.9962158
0.99663083
0.99661413
0.99653711
0.99666164
0.99619393
0.99669584
0.99628786
0.99684026
0.99633541
0.99657877
0.99631194
0.99647811
0.99657528
0.99669372
0.99698202
0.9968673