/*--------------------------------*- C++ -*----------------------------------*\
| =========                 |                                                 |
| \\      /  F ield         | OpenFOAM: The Open Source CFD Toolbox           |
|  \\    /   O peration     | Version:  2406                                  |
|   \\  /    A nd           | Website:  www.openfoam.com                      |
|    \\/     M anipulation  |                                                 |
\*---------------------------------------------------------------------------*/
FoamFile
{
    version     2.0;
    format      ascii;
    arch        "LSB;label=32;scalar=64";
    class       volVectorField;
    location    "16";
    object      U_0;
}
// * * * * * * * * * * * * * * * * * * * * * * * * * * * * * * * * * * * * * //

dimensions      [0 1 -1 0 0 0 0];

internalField   nonuniform List<vector> 
96472
(
(0.10612341 -0.0008858431 -1.1054226e-22)
(0.10393064 0.00066310229 3.0009052e-22)
(0.10501073 0.00088715245 1.8375148e-23)
(0.10303804 0.0012848227 -6.765473e-22)
(0.10177068 0.0020047878 6.6696484e-23)
(0.101611 0.0024433286 -5.6210379e-23)
(0.10159645 0.0027494569 9.2762847e-23)
(0.10140988 0.0030668506 -3.342482e-22)
(0.10094356 0.0032556964 -8.6431551e-22)
(0.10022179 0.0034776971 -5.7677825e-22)
(0.099279162 0.0036495296 -3.5386414e-22)
(0.098128904 0.0038298758 1.1305533e-21)
(0.096860775 0.0039810298 -7.1746714e-23)
(0.095495153 0.0041034089 2.2327921e-22)
(0.093967129 0.0040538089 -2.3868567e-24)
(0.092343034 0.0039637598 1.0419876e-24)
(0.090600088 0.0037894452 -1.4547166e-22)
(0.08878902 0.0037118205 -7.4154065e-22)
(0.086985582 0.0036501056 -4.1867591e-22)
(0.08513006 0.0037500383 -2.9997703e-22)
(0.083236559 0.0039922091 2.432333e-22)
(0.081327536 0.0044274182 -7.2509587e-22)
(0.07949191 0.0050387016 3.4008617e-22)
(0.077827806 0.0057252319 -6.0538391e-22)
(0.076103473 0.0063289504 -1.3071874e-22)
(0.074458437 0.007017508 1.6689068e-21)
(0.072984242 0.0073234512 -1.1035916e-21)
(0.071589912 0.0075357807 -2.5733914e-23)
(0.07031863 0.0073711879 1.9005166e-21)
(0.069136924 0.007207191 6.1290487e-22)
(0.068234971 0.0066827367 -8.5857179e-23)
(0.067311739 0.0061945026 8.5604171e-23)
(0.066676408 0.0053870437 -2.0699803e-21)
(0.065979327 0.0046186444 -1.7052725e-21)
(0.065583742 0.0035506676 0)
(0.06516722 0.002468163 -9.6481348e-23)
(0.065002869 0.0011040573 -1.1629802e-22)
(0.064783206 -0.00025935638 5.5492806e-22)
(0.06469385 -0.0018193574 -1.4377411e-21)
(0.064444296 -0.0032692884 -7.3508548e-22)
(0.064484533 -0.0049557589 2.0924016e-22)
(0.064133198 -0.0065021894 1.949917e-22)
(0.064296017 -0.0083128268 -9.6902565e-22)
(0.063974057 -0.01009648 1.8535545e-21)
(0.064257499 -0.011939713 3.1105039e-23)
(0.064042859 -0.013809241 2.5436038e-21)
(0.064801865 -0.015847438 2.1017073e-21)
(0.064931915 -0.018027953 -2.4033505e-21)
(0.065902737 -0.020035796 -2.3866017e-22)
(0.066238372 -0.022083472 3.0893623e-23)
(0.067448011 -0.024178636 1.5346468e-21)
(0.068121095 -0.026282952 6.6634324e-22)
(0.069273236 -0.028503625 -2.2077288e-21)
(0.070325318 -0.030325599 -2.2710303e-21)
(0.071367271 -0.033342576 -1.6681679e-21)
(0.10659337 -0.0008709386 1.7595943e-22)
(0.10406653 0.00078449767 1.8884362e-22)
(0.10515651 0.00097647637 0)
(0.10308404 0.0014005413 -2.5310026e-22)
(0.10185633 0.0020660455 4.4585874e-22)
(0.10170637 0.0024374954 6.8334147e-23)
(0.10169565 0.0027308165 6.9064008e-23)
(0.10148359 0.0029941394 -1.0277876e-22)
(0.10103368 0.0031817833 -1.0005051e-21)
(0.1003183 0.0033857436 0)
(0.099362553 0.0036304793 -2.2181578e-22)
(0.098231278 0.0038274039 5.9004547e-22)
(0.096977635 0.0040010649 5.1910565e-22)
(0.095616716 0.0041165 2.2067464e-23)
(0.094135881 0.0041130746 -5.8608101e-25)
(0.09253914 0.0039923322 9.9569179e-22)
(0.090827811 0.0037988587 -6.458649e-25)
(0.089032622 0.0036035803 -6.5823202e-24)
(0.08720445 0.0035534854 -1.1763164e-21)
(0.085358108 0.0036285846 0)
(0.083526517 0.0038196852 -3.7226111e-21)
(0.081738313 0.004197866 6.4382839e-22)
(0.080008223 0.0046772623 6.5952154e-23)
(0.078366369 0.0053356236 -7.4473013e-24)
(0.076748113 0.0059353117 1.7018803e-21)
(0.075179995 0.0064841034 1.1412272e-22)
(0.073695965 0.0068684585 1.9743903e-22)
(0.072325482 0.0071313618 -2.2157355e-21)
(0.071085696 0.0070655225 1.3100024e-21)
(0.069933474 0.006916749 1.7587402e-22)
(0.068968633 0.0064822151 -2.2039669e-22)
(0.068040709 0.0060316354 -1.5175907e-22)
(0.067345479 0.0052742419 8.5506495e-22)
(0.066547848 0.0045734681 -1.3038754e-22)
(0.066079833 0.0035767377 -3.273674e-22)
(0.065387616 0.002652676 4.9520612e-22)
(0.06513834 0.0014640821 2.6021761e-22)
(0.064639018 0.00029357239 -1.9720433e-23)
(0.064673444 -0.0011193741 -2.2310311e-22)
(0.064388633 -0.002550154 -1.0297687e-22)
(0.064625544 -0.0040698359 2.9280642e-22)
(0.064522715 -0.0057035156 -2.1494407e-23)
(0.064937492 -0.0073493006 2.0746341e-23)
(0.064945584 -0.0090754811 4.6427364e-22)
(0.065497569 -0.010785744 1.4281581e-21)
(0.065497793 -0.012612772 -1.0521796e-23)
(0.066084113 -0.014315531 1.5627698e-22)
(0.066263803 -0.016197651 -5.7681233e-23)
(0.066964549 -0.018074425 4.4616177e-23)
(0.067531434 -0.0200606 2.8051045e-22)
(0.068138374 -0.021932865 -8.2248806e-22)
(0.069195538 -0.023869514 -7.9907081e-22)
(0.06983994 -0.025982057 4.4561257e-22)
(0.071220295 -0.027469864 6.1699978e-22)
(0.071869324 -0.030343337 3.7482659e-22)
(0.10684244 -0.00068217355 -5.6119195e-26)
(0.10431803 0.00082332414 0)
(0.1053871 0.00099997437 4.0147904e-22)
(0.10328539 0.0014359974 0)
(0.10198624 0.0020993378 1.2155529e-21)
(0.10176487 0.0024170681 9.3601543e-25)
(0.10172365 0.002674914 -7.5322038e-23)
(0.10151941 0.0028975806 9.3133852e-24)
(0.10109431 0.0031173508 4.5872389e-22)
(0.1004061 0.0033196203 4.0444793e-22)
(0.099466702 0.0035746623 -1.4778177e-22)
(0.098346471 0.0038177799 -5.0633503e-23)
(0.09709569 0.0040260203 -1.5929723e-22)
(0.095726972 0.0040934545 -6.5317118e-22)
(0.094244524 0.0041411541 -7.307837e-24)
(0.092656237 0.0040095339 -3.6921802e-22)
(0.090961758 0.0038253305 -4.1163422e-22)
(0.089180279 0.0035911046 7.5791655e-22)
(0.087355284 0.0034465529 0)
(0.085529081 0.003467408 1.7450586e-24)
(0.083693049 0.0036158267 -3.5557404e-24)
(0.081921306 0.0040240714 3.2957998e-24)
(0.080206914 0.0044665483 2.9379027e-23)
(0.078564424 0.005011654 -5.8102213e-23)
(0.076968854 0.0055833592 -1.0007548e-22)
(0.075437629 0.0061708933 -1.1579902e-21)
(0.073967179 0.0064731919 1.1765565e-21)
(0.072603152 0.0067097118 4.2821238e-22)
(0.071379891 0.0066929852 -8.0128314e-22)
(0.070268426 0.0065607287 -4.5160755e-22)
(0.069326855 0.0061422972 -1.4479058e-24)
(0.068457819 0.005651542 -9.104834e-22)
(0.067769922 0.0049522356 -9.9596675e-23)
(0.067079276 0.0042064466 2.3061201e-22)
(0.066618623 0.0032354976 -2.2754489e-22)
(0.066063917 0.0022458752 -4.3334001e-24)
(0.065822497 0.0010609302 4.5088008e-22)
(0.065398907 -0.00010250028 1.1629832e-22)
(0.065355812 -0.0014089284 1.7225608e-23)
(0.065086481 -0.0027175866 -2.1999959e-23)
(0.06527627 -0.0041140777 -2.990313e-22)
(0.065180159 -0.0055884153 -3.1027216e-22)
(0.065580863 -0.0071118098 0)
(0.065722485 -0.0087353498 3.3534491e-22)
(0.06623449 -0.010358555 2.6749662e-22)
(0.066619346 -0.012057744 -8.4859595e-22)
(0.067130145 -0.013776778 -8.3783651e-22)
(0.067758733 -0.015542804 -6.6569494e-25)
(0.068211388 -0.017328519 0)
(0.069041814 -0.018931753 -4.5362585e-25)
(0.069525922 -0.02092349 -5.4610237e-23)
(0.070672323 -0.022444565 2.7079867e-22)
(0.071024261 -0.024383822 6.7885411e-23)
(0.07251479 -0.02583515 4.3164291e-22)
(0.072966421 -0.028174044 1.3371726e-21)
(0.10707548 -0.000655778 1.7811628e-22)
(0.10448084 0.00092793684 1.5468011e-22)
(0.10553128 0.001078085 -5.2253127e-24)
(0.10340191 0.0015166147 -9.3930846e-23)
(0.10204607 0.0021569745 -6.1450875e-23)
(0.10178675 0.0024313093 2.2501506e-24)
(0.10174408 0.0026198372 6.8295793e-23)
(0.10156526 0.0028343185 -6.2864481e-22)
(0.10117112 0.0030198079 -6.2800025e-23)
(0.1005135 0.0032692809 5.0814275e-22)
(0.099581809 0.0034953513 -6.0794679e-24)
(0.098456406 0.0037547222 4.6768452e-24)
(0.097209421 0.0039798087 3.6845021e-22)
(0.095836462 0.0041094734 8.5349321e-22)
(0.094352873 0.0041001457 -1.062714e-23)
(0.09277756 0.0039858171 -3.4319481e-24)
(0.091103014 0.0037701018 2.2735735e-22)
(0.089354993 0.0035982536 9.5258308e-25)
(0.087560279 0.0034270697 -1.523461e-21)
(0.085753131 0.0033987626 0)
(0.083941499 0.0035225886 -8.0180489e-22)
(0.082182268 0.003775226 0)
(0.080508264 0.004208735 2.3440318e-21)
(0.078900106 0.0047321012 3.1439918e-22)
(0.077317234 0.0052837802 -9.0120528e-23)
(0.075824888 0.0058135212 -1.2478449e-21)
(0.074400364 0.0061896568 -4.0872783e-22)
(0.073046812 0.0064402317 1.7557738e-22)
(0.071822955 0.006407795 -9.1097946e-22)
(0.070732297 0.0062379308 -9.6599301e-23)
(0.069788947 0.0058712434 1.0703364e-23)
(0.0689451 0.0054291361 7.3189291e-22)
(0.068240417 0.0048222587 -1.759368e-21)
(0.067607233 0.0041427054 -2.2098901e-21)
(0.067118217 0.0033143623 5.1955393e-22)
(0.066675708 0.002417026 2.1051343e-23)
(0.066370831 0.0013775724 2.1868359e-22)
(0.066104586 0.00026003714 6.4338337e-22)
(0.065994903 -0.00095891462 -1.3334675e-22)
(0.065907091 -0.0022272566 -1.58176e-22)
(0.065941921 -0.0035661539 -3.1673584e-22)
(0.066073977 -0.0049825846 3.8001241e-22)
(0.06623357 -0.0064139303 2.8040575e-22)
(0.066570946 -0.0079202499 4.5819545e-22)
(0.06685162 -0.0094643126 -3.6040769e-24)
(0.067411499 -0.011021876 -7.0434064e-22)
(0.067779444 -0.012700089 -6.9187915e-23)
(0.068591898 -0.014264309 6.5314945e-22)
(0.068971032 -0.016022722 1.5204095e-22)
(0.070067727 -0.017620612 -3.3709431e-23)
(0.070458382 -0.019418629 -2.7088515e-22)
(0.071650968 -0.020843772 3.1144564e-22)
(0.07222406 -0.022846225 -3.950826e-22)
(0.073525507 -0.024048507 4.4532425e-23)
(0.073997451 -0.026345261 1.0140249e-21)
(0.10728403 -0.00048743247 6.1178289e-23)
(0.10461599 0.00096543216 0)
(0.10564674 0.0011082181 -1.8797844e-21)
(0.10349117 0.0015641965 -8.9128918e-22)
(0.10208939 0.0021921658 0)
(0.10180689 0.0024140544 1.7617218e-21)
(0.10176577 0.0025565994 0)
(0.10161395 0.0027787863 0)
(0.10124568 0.002942522 -2.9002126e-22)
(0.10061045 0.0031955428 -1.8393984e-22)
(0.099689649 0.0034579421 -8.2817585e-23)
(0.09855949 0.0037170398 -7.7709523e-22)
(0.097302614 0.0039331986 3.784131e-22)
(0.095935919 0.0041183334 1.2326889e-21)
(0.094461598 0.0040849728 1.9014741e-21)
(0.092898305 0.0039748073 9.6760132e-22)
(0.091236212 0.0037419924 -2.3014723e-21)
(0.08950825 0.0035438071 -1.2479248e-21)
(0.087747589 0.003405918 5.3619876e-22)
(0.085964171 0.0033757722 -9.1132603e-24)
(0.084183836 0.0034474731 2.7867682e-22)
(0.082438984 0.0036782991 3.6930645e-24)
(0.080758969 0.0040256593 -4.5228288e-23)
(0.079164647 0.0045666844 8.0772126e-23)
(0.077626137 0.0050474932 1.3153361e-22)
(0.076142831 0.0055123622 9.6617878e-23)
(0.074717694 0.0058937582 -1.5160378e-21)
(0.073405506 0.0061247273 -6.6586956e-23)
(0.072210239 0.0061145237 6.1874386e-22)
(0.071131791 0.0059433048 0)
(0.070173257 0.0056163285 -1.1294329e-22)
(0.069365505 0.0051317854 9.7062671e-24)
(0.068651354 0.0045350648 5.4927302e-22)
(0.068095107 0.0037887861 -1.6495096e-23)
(0.067560203 0.0030001533 -2.3585844e-22)
(0.067227688 0.0020779857 3.1617223e-22)
(0.066866767 0.0011205585 -2.6705412e-22)
(0.066752667 3.183025e-05 6.0190708e-23)
(0.066516202 -0.0010627165 -4.3633249e-23)
(0.066611813 -0.0022562525 -4.9554405e-22)
(0.066562449 -0.0035037948 2.5202127e-22)
(0.066844787 -0.0047708235 -5.5995705e-23)
(0.06695033 -0.0061674319 4.5889193e-22)
(0.067408546 -0.0075012064 2.7572644e-24)
(0.067615168 -0.0089675777 -3.3374801e-22)
(0.06827937 -0.010340353 -7.5743181e-22)
(0.068562734 -0.011882905 2.7507762e-22)
(0.069439131 -0.013301318 4.1887396e-22)
(0.069857735 -0.014966484 -2.7881144e-23)
(0.070837199 -0.016293165 -1.9838967e-22)
(0.071375991 -0.018067509 -1.8237496e-23)
(0.072601135 -0.019397465 -2.1393041e-22)
(0.073034125 -0.021147883 -2.5620947e-22)
(0.074486936 -0.022389252 1.1049104e-22)
(0.075024807 -0.024447358 -3.0177318e-22)
(0.10752038 -0.00045020528 0)
(0.10472455 0.0010453302 -1.0871577e-22)
(0.10573449 0.0011773245 1.020184e-21)
(0.10355389 0.001642265 1.0088278e-22)
(0.10211551 0.0022474655 5.9889144e-23)
(0.10182015 0.0023926755 2.0427265e-21)
(0.1017846 0.0025188873 0)
(0.10165799 0.002691938 1.3767948e-21)
(0.10131678 0.0028797181 -1.3831308e-22)
(0.10069436 0.0030976455 1.2764587e-23)
(0.099778301 0.0033959341 2.8861124e-22)
(0.098649954 0.0036673181 -3.123829e-22)
(0.097386532 0.0039146032 1.1093604e-21)
(0.09602291 0.0040438111 -1.8197476e-22)
(0.094562505 0.0040950235 3.9017323e-24)
(0.093016674 0.003974918 -2.987306e-21)
(0.091383708 0.0037863025 -1.4429457e-21)
(0.089673779 0.0035098862 1.2968454e-21)
(0.08793172 0.0033420769 -1.5954849e-24)
(0.086179028 0.0032726316 -9.7736594e-24)
(0.084414828 0.00331904 1.7688472e-24)
(0.082686464 0.003571489 -7.6754203e-24)
(0.081017673 0.0038822905 6.250985e-22)
(0.079440547 0.0042991822 -6.4478635e-24)
(0.077931594 0.0047408171 -8.4955894e-23)
(0.076473775 0.0052456241 1.0753146e-22)
(0.075081329 0.0055600116 6.9001128e-22)
(0.073780149 0.0057539458 -3.8615907e-22)
(0.072589183 0.0058243308 3.8373491e-22)
(0.071535618 0.005723195 3.3445683e-22)
(0.070595076 0.0054605045 3.9208711e-22)
(0.06981932 0.0049944748 -1.0799693e-23)
(0.069102407 0.0044860042 1.1313936e-23)
(0.06857791 0.0037992563 2.2812137e-23)
(0.06802703 0.0031070721 -5.2114247e-22)
(0.067752905 0.0022132336 2.7428739e-22)
(0.067361759 0.001322533 4.0967813e-22)
(0.067310075 0.00031219763 -4.2853545e-22)
(0.067086828 -0.00074300306 4.1460039e-22)
(0.067228519 -0.0018709116 -1.5814568e-22)
(0.067157347 -0.0030566128 -5.1060304e-22)
(0.06752794 -0.0042782846 0)
(0.067607382 -0.0055742519 3.0506241e-22)
(0.068129953 -0.0068320485 -3.1749176e-23)
(0.068342757 -0.0082318883 4.8749793e-23)
(0.068997077 -0.0094866162 2.1165851e-22)
(0.069364324 -0.011025298 -6.9130243e-23)
(0.070188821 -0.012302143 -2.7259439e-22)
(0.070570015 -0.013796394 9.8273625e-23)
(0.071634354 -0.015167453 0)
(0.072100087 -0.016711068 -5.6744585e-22)
(0.073225942 -0.017919925 -2.9553497e-22)
(0.07389942 -0.019659493 -4.3905659e-23)
(0.075094638 -0.020693604 9.4799508e-23)
(0.075702405 -0.022642854 1.9946781e-21)
(0.10777985 -0.000308905 0)
(0.10481525 0.0010912149 -4.2064828e-22)
(0.1058075 0.0012083657 -9.3983482e-25)
(0.10360601 0.0016789307 -9.4188298e-23)
(0.10214119 0.0022709351 6.5514529e-23)
(0.10183473 0.0023918409 -6.1894764e-25)
(0.10180469 0.0024906048 5.5845833e-24)
(0.10169606 0.0026266727 -1.1891039e-22)
(0.10137479 0.002818724 -1.9930771e-22)
(0.10076613 0.003046188 1.5910412e-22)
(0.099850733 0.0033065176 7.0439492e-23)
(0.098720986 0.0035912832 -6.2130961e-23)
(0.097466499 0.0038612547 -6.8447077e-23)
(0.096102892 0.0039738871 -2.4285347e-21)
(0.094650327 0.0040415805 -2.2276356e-24)
(0.093126854 0.0039378686 -9.5769535e-22)
(0.091524785 0.0037601013 1.5118177e-21)
(0.089849402 0.0035448543 3.0043221e-21)
(0.088127108 0.0033259533 -1.6195033e-25)
(0.086390249 0.0032303575 2.7742425e-21)
(0.084636417 0.0032613742 -4.8929716e-24)
(0.082922529 0.0034265437 8.4435336e-22)
(0.081288865 0.0037423682 -1.5290545e-23)
(0.079730257 0.0040958584 -9.0020724e-22)
(0.078224196 0.0045618491 1.712225e-22)
(0.076797224 0.004992903 -3.431358e-22)
(0.075438851 0.0053507529 -4.893695e-23)
(0.074141477 0.005570094 5.3413308e-22)
(0.072946517 0.0056282454 -7.2041401e-23)
(0.0719045 0.0054537164 1.632831e-22)
(0.07097408 0.0051891579 -2.7966303e-22)
(0.070208585 0.0047393619 4.6346942e-22)
(0.069500351 0.0042635927 -1.2325299e-23)
(0.069007243 0.0035831297 1.2555296e-23)
(0.068486195 0.0029105375 -8.2284877e-22)
(0.068239521 0.0020578383 -1.0769961e-21)
(0.067869784 0.0012101606 6.6910445e-23)
(0.067832732 0.00023158993 -1.2974748e-22)
(0.067622455 -0.00075348416 2.6058798e-22)
(0.067780734 -0.0018019355 6.5507582e-25)
(0.067754342 -0.0029184591 -7.9858906e-23)
(0.068090985 -0.0040236684 -3.6934808e-22)
(0.068234558 -0.0052298889 4.7399149e-22)
(0.068740939 -0.0063958699 7.8633645e-22)
(0.068986385 -0.0076508485 -3.8332842e-22)
(0.069687665 -0.0088774361 -5.1226041e-22)
(0.070044703 -0.010203345 5.1121965e-22)
(0.07085322 -0.011368442 4.4033038e-22)
(0.071375804 -0.012869727 -2.5622317e-22)
(0.072278197 -0.01400976 1.3850817e-21)
(0.072825989 -0.015433829 4.1980176e-22)
(0.073983914 -0.016710443 -8.6963547e-23)
(0.074473772 -0.018091363 -2.5303494e-21)
(0.075794106 -0.01919691 -8.5394241e-22)
(0.076424696 -0.020987423 1.9891291e-22)
(0.10812779 -0.00026966112 -1.84452e-22)
(0.10486807 0.0011471465 -8.3195315e-22)
(0.10584905 0.0012680078 -1.7353685e-21)
(0.10363144 0.0017394388 -1.6209029e-21)
(0.10215034 0.0023318457 -1.5789548e-21)
(0.10184513 0.0024108045 -1.8429945e-21)
(0.10182423 0.0024484786 2.1635743e-21)
(0.10173029 0.0025958451 -6.4534447e-22)
(0.10142231 0.0027427295 -1.4439026e-22)
(0.10082778 0.0029981616 9.9736393e-23)
(0.099915019 0.0032345678 3.4786798e-22)
(0.098779148 0.0035097502 5.0811388e-22)
(0.097529737 0.0037536066 -1.5067266e-22)
(0.09617826 0.0039552939 -3.2730554e-23)
(0.09473957 0.0039567548 7.4620652e-24)
(0.093238381 0.0038885218 -1.7833362e-23)
(0.091654431 0.0036795905 0)
(0.090009711 0.0035128857 -9.159864e-22)
(0.088320432 0.0033350767 2.7897802e-21)
(0.086602406 0.0032533813 -4.6990483e-24)
(0.084876361 0.0032519193 5.3641924e-24)
(0.083168523 0.0033567786 3.5944985e-23)
(0.08153726 0.0035976704 -2.1654619e-23)
(0.079990396 0.0039935329 2.9020101e-21)
(0.078510022 0.0043790976 5.2584241e-23)
(0.077093961 0.0047489453 -5.048999e-22)
(0.075738849 0.0051152984 -2.2883346e-22)
(0.074477781 0.0053374909 -1.4638523e-22)
(0.073324283 0.0054078948 -3.1023649e-22)
(0.072298395 0.0052514033 1.9981062e-22)
(0.071366608 0.0050339691 -8.3337772e-24)
(0.070609207 0.0045993366 -1.0318418e-22)
(0.069919272 0.0041296962 1.1730615e-22)
(0.069426759 0.0034850106 -1.0471894e-23)
(0.068918236 0.0028658062 7.9356901e-23)
(0.068677883 0.0020835139 -1.298405e-23)
(0.068343089 0.0013155052 3.2166038e-22)
(0.068310935 0.0004233989 -3.4950485e-22)
(0.068136262 -0.00050155414 2.0936529e-22)
(0.06829367 -0.0014839859 6.0114729e-22)
(0.068285492 -0.0025266933 -5.8090183e-22)
(0.068648822 -0.0035778716 -3.8749085e-22)
(0.06879962 -0.0047172361 -2.3292045e-22)
(0.069309494 -0.0057845292 3.5020711e-23)
(0.069600278 -0.0070271891 3.4198867e-22)
(0.070239815 -0.0081027246 6.2690768e-22)
(0.070647037 -0.0093826096 -2.2738735e-22)
(0.071489627 -0.010534897 -5.6226925e-22)
(0.071938039 -0.011822762 8.471035e-22)
(0.072874088 -0.012865407 -2.3974409e-24)
(0.07348476 -0.014399409 -1.2102119e-21)
(0.074486233 -0.015232615 1.4573456e-22)
(0.075156575 -0.016821081 -4.1276256e-22)
(0.076339163 -0.017723675 -8.2419574e-22)
(0.076910248 -0.019267727 -2.942865e-22)
(0.10833317 -0.00019367553 -1.8669978e-22)
(0.10491136 0.0011579787 9.1267336e-22)
(0.10588506 0.0012959805 1.7934736e-21)
(0.10365473 0.0017903514 3.7330723e-21)
(0.10216117 0.0023718818 6.2517573e-23)
(0.10186004 0.0024072524 9.3555542e-23)
(0.10184061 0.002424511 -1.5118036e-24)
(0.10175803 0.0025667929 -2.0887608e-22)
(0.10146378 0.0027059638 -3.0553683e-22)
(0.10087456 0.0029247996 4.5536401e-22)
(0.099967586 0.0031953948 2.879537e-22)
(0.098833307 0.0034602374 1.8124873e-22)
(0.097578378 0.0036966051 5.052998e-23)
(0.096243362 0.003886129 7.4617955e-22)
(0.094827266 0.0039101878 2.4660448e-21)
(0.09334697 0.0038406128 0)
(0.091789998 0.003670838 0)
(0.090160918 0.0034459874 0)
(0.088495018 0.0032923296 -1.281575e-21)
(0.086804916 0.0031866552 -1.9251743e-21)
(0.08510413 0.0031838857 -1.824652e-21)
(0.083419942 0.0033283575 -2.2386185e-21)
(0.081787003 0.0035137377 2.1169091e-21)
(0.080253318 0.0038305341 -1.1209136e-24)
(0.078800448 0.0041808015 7.6148509e-22)
(0.077395658 0.0045651018 -9.5629349e-22)
(0.07605995 0.0048519038 -1.1986022e-21)
(0.074807952 0.0050213098 6.0854795e-23)
(0.073662049 0.0051163489 1.8316695e-22)
(0.07264867 0.0050379566 -7.7749811e-23)
(0.07174046 0.0048584689 -1.5869996e-22)
(0.070998122 0.0044588941 4.1800796e-23)
(0.070322804 0.0040406804 -2.1128039e-22)
(0.069836282 0.0034354424 2.1696694e-22)
(0.069350035 0.0028306852 -5.7617728e-23)
(0.069108643 0.0020639084 -7.4216685e-23)
(0.068790928 0.0013072538 -1.2923937e-22)
(0.06876788 0.00044941078 7.3638565e-23)
(0.068614586 -0.00042415598 -2.178921e-22)
(0.068772749 -0.0013471881 1.5912557e-22)
(0.068794958 -0.0023299008 4.3920348e-23)
(0.06912592 -0.0032860864 2.578981e-22)
(0.069316045 -0.0043502002 -3.5782638e-23)
(0.0698239 -0.0053595662 -2.0346636e-22)
(0.070116945 -0.0064559034 6.0920579e-23)
(0.070778581 -0.0074817701 -2.0127199e-22)
(0.071218151 -0.008676885 3.275207e-22)
(0.07198044 -0.0096463348 -3.2953162e-23)
(0.072501954 -0.010871734 -1.3286477e-22)
(0.073469669 -0.011971167 -1.4847877e-23)
(0.073952244 -0.013072405 -6.1912418e-22)
(0.075053942 -0.014171305 6.8882726e-24)
(0.075703876 -0.015495119 -7.2665277e-22)
(0.0767556 -0.016184417 -1.1403629e-21)
(0.077485537 -0.017855448 -8.8940731e-23)
(0.10856921 -0.00013294989 4.8544214e-22)
(0.10493478 0.0011673417 8.8646734e-22)
(0.10590763 0.0013307511 -1.8362863e-21)
(0.10366923 0.0018471304 2.2677503e-21)
(0.10216941 0.0024165724 2.3837351e-21)
(0.101871 0.0023918846 2.2745761e-21)
(0.10185387 0.0024093654 -3.3279883e-24)
(0.10178049 0.0025023221 -1.8910854e-21)
(0.1015022 0.002668158 5.7281398e-22)
(0.1009152 0.0028511699 -8.7709854e-23)
(0.10000438 0.0031099546 2.3311117e-22)
(0.098872754 0.0033770641 1.2506403e-22)
(0.097626814 0.0036447766 1.3824349e-21)
(0.096303784 0.0037532186 3.7520299e-22)
(0.094908274 0.0038637086 2.6730374e-21)
(0.093450724 0.0037852418 1.1457788e-21)
(0.0919262 0.0036683721 1.3698271e-21)
(0.090325444 0.0034589093 1.9298839e-21)
(0.088679443 0.0032615672 1.6705528e-21)
(0.087009115 0.003129314 -3.4357858e-21)
(0.085314886 0.0031025404 0)
(0.083649104 0.0032135217 -1.9092542e-23)
(0.082043348 0.0034258628 1.9614179e-21)
(0.080506434 0.0036524455 -1.923127e-21)
(0.079049223 0.0039967172 -2.585611e-24)
(0.077675912 0.0043415929 -1.8380506e-22)
(0.076372792 0.0046613987 6.47415e-23)
(0.075134281 0.0048593964 1.0333314e-21)
(0.073992907 0.0049563826 -6.4981693e-22)
(0.072990246 0.0048500978 -9.0107027e-22)
(0.072099958 0.0046708408 1.7473907e-23)
(0.071356294 0.0043183497 -2.0796248e-22)
(0.070698123 0.0039215837 1.714623e-22)
(0.0702206 0.0033551396 -8.5848936e-22)
(0.069756984 0.0028003703 1.4559535e-22)
(0.069524756 0.0020971802 1.0900271e-21)
(0.069232619 0.0014030269 2.6107556e-22)
(0.069199664 0.00061142952 1.6421751e-22)
(0.069070131 -0.00020591325 -1.237697e-22)
(0.069225188 -0.001069207 -3.2510788e-22)
(0.069252314 -0.0019678492 3.9068097e-22)
(0.06959922 -0.0028889325 -3.3600718e-23)
(0.069798587 -0.0038810545 -3.3664543e-22)
(0.070280085 -0.0048137137 2.5648538e-22)
(0.070614433 -0.0058551858 2.8359402e-22)
(0.071241557 -0.0068188063 -3.1905665e-22)
(0.071665943 -0.0078501729 -3.4619193e-22)
(0.072457321 -0.0088426968 1.5521081e-22)
(0.073017061 -0.009981923 4.6740389e-23)
(0.073811857 -0.010824062 -6.1954629e-22)
(0.074503725 -0.012077834 6.3712716e-22)
(0.075508408 -0.013038472 1.9077201e-21)
(0.076042351 -0.014004021 3.2191228e-22)
(0.077260748 -0.015089781 -6.2416526e-22)
(0.077900777 -0.01625132 2.3018974e-21)
(0.10855798 -0.00010501691 -3.8038741e-22)
(0.10496238 0.0011685367 -1.9948331e-21)
(0.10593007 0.0013466365 -2.2420096e-21)
(0.10368453 0.0018617895 -2.3229714e-21)
(0.10218004 0.0024396546 6.8545509e-23)
(0.10188254 0.0024127328 4.6794713e-23)
(0.10186759 0.0024003493 -1.3175436e-22)
(0.1017975 0.0024764104 -8.241714e-22)
(0.1015289 0.0026164041 2.1440418e-21)
(0.10094963 0.0028255425 -1.9942534e-22)
(0.10003593 0.0030323004 -4.5295329e-22)
(0.098898876 0.0032818307 1.225655e-22)
(0.097667063 0.0035358791 1.4946586e-23)
(0.096354083 0.0036765911 -1.0935216e-23)
(0.094974342 0.0037410354 -2.1694734e-21)
(0.093546085 0.0036962927 -3.6001752e-23)
(0.092044138 0.0035545703 1.9715135e-24)
(0.090479524 0.0034180631 1.2505644e-21)
(0.088862601 0.0032464339 1.6891968e-21)
(0.087212219 0.0031438324 2.2003237e-24)
(0.08553758 0.0031020841 -3.9767056e-21)
(0.083870587 0.0031263699 -4.8837509e-23)
(0.082273963 0.0032975245 -2.0551118e-21)
(0.080756573 0.003570078 -1.3274649e-23)
(0.079308589 0.0038439543 -2.0523192e-21)
(0.077936256 0.0041220365 0)
(0.076645269 0.0044440507 1.2784034e-21)
(0.075442988 0.0046547679 -1.8712556e-22)
(0.074341292 0.0047745323 -1.4483587e-22)
(0.073355025 0.0046843514 -1.3988341e-24)
(0.07246811 0.0045214937 1.7597581e-22)
(0.071730278 0.0041662043 -5.4221017e-22)
(0.071085546 0.0037642506 6.1324025e-22)
(0.070602554 0.0032270338 -1.3685979e-21)
(0.070147311 0.002700564 -3.4782127e-22)
(0.069906729 0.0020397212 -4.0072054e-25)
(0.069631236 0.0013890093 3.3643726e-22)
(0.06960768 0.00065610217 6.60618e-22)
(0.06949396 -0.00010610877 -8.3552049e-24)
(0.069635669 -0.00089110599 -3.1224799e-22)
(0.069691125 -0.0017516854 -5.877951e-23)
(0.07000732 -0.0025869775 2.4803014e-23)
(0.07022961 -0.003508918 0)
(0.070707582 -0.0043579243 3.8025979e-23)
(0.071044516 -0.0053384439 5.8063295e-22)
(0.071642313 -0.0061518559 -1.0633503e-22)
(0.072127749 -0.0072141135 -4.1674318e-22)
(0.072866528 -0.0080714348 4.2271451e-22)
(0.073372222 -0.009048623 3.2486685e-22)
(0.074311509 -0.0099887478 -8.9157506e-22)
(0.074906396 -0.011071931 -2.5083614e-23)
(0.075755104 -0.011689311 1.9447285e-22)
(0.076596125 -0.013116698 0)
(0.077536653 -0.013594182 1.9404247e-21)
(0.078150948 -0.014901538 -1.7921902e-21)
(0.10868561 -3.2071375e-05 -1.5357509e-21)
(0.10496074 0.0011327074 -1.1679829e-22)
(0.10594161 0.0013482399 4.5776243e-21)
(0.10369136 0.0018760817 2.2886046e-21)
(0.10217946 0.0024606449 -2.1073444e-21)
(0.10189017 0.0024092422 -4.4483028e-21)
(0.10187826 0.0023534947 -2.1507991e-21)
(0.10181424 0.0024561814 1.0335899e-21)
(0.10155165 0.0025555818 1.1913793e-22)
(0.10097665 0.0027716906 1.9502335e-22)
(0.10006531 0.0029711867 3.0424486e-22)
(0.098925037 0.0032023825 3.2463624e-24)
(0.097695374 0.0034055776 -5.4331405e-22)
(0.096406832 0.0036117575 -7.7868148e-22)
(0.095052522 0.00362958 -5.1307727e-21)
(0.09364874 0.0036187043 -1.0974286e-21)
(0.092168633 0.0034702679 -1.5446408e-21)
(0.090618702 0.0033209579 -1.333391e-21)
(0.089026027 0.0031899388 -4.0084857e-24)
(0.087399905 0.0030895771 2.6387101e-21)
(0.085757101 0.0030661875 -8.6098808e-24)
(0.084109533 0.0031131774 3.4382301e-21)
(0.082495971 0.0032107604 -6.8217908e-24)
(0.080984448 0.0034287882 1.6792638e-21)
(0.079570391 0.0036958609 0)
(0.078213965 0.0039686263 2.343843e-23)
(0.076933989 0.0042095225 -8.6903187e-25)
(0.075741546 0.0043665867 5.7565919e-23)
(0.074652704 0.0044825522 4.3431791e-22)
(0.073686897 0.0044525547 -2.0221942e-22)
(0.072829326 0.0043293652 -2.0211301e-22)
(0.072096147 0.0040492692 -3.4361131e-22)
(0.071451684 0.0037228819 -2.5779458e-22)
(0.070965012 0.0032418453 -9.8754549e-22)
(0.070523405 0.0027545486 8.2798592e-22)
(0.070282926 0.0021340911 1.3737721e-22)
(0.070017596 0.0015120037 4.0957621e-22)
(0.069979535 0.00081795063 5.3551609e-22)
(0.069882853 0.00011458018 -1.5848842e-22)
(0.070030236 -0.00063342551 -1.2698268e-22)
(0.070088119 -0.0014278902 -4.0874651e-22)
(0.070404148 -0.002212286 -3.6439704e-22)
(0.070621839 -0.0030632061 -3.1545247e-23)
(0.071087265 -0.0038704433 -8.890906e-23)
(0.071424461 -0.0047292261 -1.6872195e-23)
(0.072034385 -0.0055630786 1.7282948e-22)
(0.072507588 -0.0065059344 7.1305131e-22)
(0.073190895 -0.0072192285 0)
(0.073810986 -0.0083003162 -9.1188887e-23)
(0.07458878 -0.008995564 -4.0617311e-25)
(0.075164544 -0.0099241938 -5.658974e-22)
(0.076260107 -0.010860572 -2.6150704e-22)
(0.07675418 -0.01171908 -3.1171193e-22)
(0.077782473 -0.012326679 1.9160251e-22)
(0.078589759 -0.013667642 -9.7171085e-22)
(0.10845901 -4.471105e-05 1.9558354e-22)
(0.10497362 0.0011384738 -9.5065683e-22)
(0.10595272 0.0013439428 1.0079264e-22)
(0.10370053 0.0018902748 -2.1988863e-22)
(0.10218547 0.0024831252 2.0384498e-21)
(0.10190293 0.0023865929 -2.5984791e-21)
(0.10188491 0.0023327277 5.9479569e-23)
(0.10182035 0.0024136779 1.6978553e-21)
(0.10156642 0.0025216768 1.9743403e-22)
(0.10099019 0.0026872718 -1.3321834e-22)
(0.10007913 0.0029084358 -5.4056658e-22)
(0.098944012 0.003130081 -2.1170392e-22)
(0.097714081 0.0033494143 9.865599e-22)
(0.096440488 0.003473953 9.1280687e-25)
(0.095111273 0.0035360301 -2.1715576e-24)
(0.093733286 0.0034938613 5.3702794e-23)
(0.09228944 0.0034099337 0)
(0.090762923 0.0032532359 -1.8879757e-21)
(0.089192058 0.003097972 -5.1503073e-21)
(0.087584408 0.0029857724 -3.2549115e-21)
(0.085948775 0.0029270019 2.6455889e-21)
(0.084323712 0.0030037731 -2.1859711e-23)
(0.082736691 0.0031326318 6.0928171e-24)
(0.081218856 0.0032600796 2.8224368e-23)
(0.0798008 0.003487066 -3.697867e-23)
(0.078476332 0.0037545171 0)
(0.077231336 0.0040111333 -6.5287085e-22)
(0.076056986 0.0041838578 4.791334e-23)
(0.074974616 0.0042929417 -3.8567308e-21)
(0.074011328 0.0042614595 -1.600181e-21)
(0.07315591 0.004148085 1.2540772e-21)
(0.07242195 0.0039052117 -7.9968878e-24)
(0.071794899 0.0035912979 1.5699971e-23)
(0.071315277 0.003134437 1.1833028e-25)
(0.070884944 0.0026818479 -2.8152045e-22)
(0.070641406 0.0021122056 -1.2007617e-23)
(0.070395114 0.0015404805 5.5180769e-22)
(0.070346565 0.00088604772 -2.276416e-23)
(0.070257187 0.00022521341 -3.2310158e-22)
(0.070389018 -0.00046475877 0)
(0.070464922 -0.0011953288 -6.7208356e-23)
(0.070748083 -0.0019096475 8.5395428e-23)
(0.070991567 -0.0027022153 4.4824512e-22)
(0.071417508 -0.0034258703 3.4346552e-22)
(0.071785395 -0.00425509 -2.2282264e-22)
(0.072367345 -0.0050111268 -9.4895459e-23)
(0.0728072 -0.005791204 -3.7233835e-22)
(0.073552439 -0.0065863515 6.261506e-22)
(0.074072761 -0.0074269415 5.7389667e-22)
(0.074868839 -0.0080645118 -2.2376236e-22)
(0.075589634 -0.0091603526 -2.240407e-22)
(0.076340663 -0.0096709893 -2.5047567e-21)
(0.077061444 -0.010516046 1.5845024e-21)
(0.078133881 -0.011535773 -4.431143e-22)
(0.078743835 -0.012140149 1.3266749e-21)