/*--------------------------------*- C++ -*----------------------------------*\
| =========                 |                                                 |
| \\      /  F ield         | OpenFOAM: The Open Source CFD Toolbox           |
|  \\    /   O peration     | Version:  2406                                  |
|   \\  /    A nd           | Website:  www.openfoam.com                      |
|    \\/     M anipulation  |                                                 |
\*---------------------------------------------------------------------------*/
FoamFile
{
    version     2.0;
    format      ascii;
    arch        "LSB;label=32;scalar=64";
    class       volScalarField;
    location    "190";
    object      alphat;
}
// * * * * * * * * * * * * * * * * * * * * * * * * * * * * * * * * * * * * * //

dimensions      [1 -1 -1 0 0 0 0];

internalField   nonuniform List<scalar> 
20580
(
8.8810559e-07
8.783731e-07
8.5261131e-07
8.3558502e-07
8.2045765e-07
8.1362799e-07
8.0425661e-07
7.9962494e-07
7.94042e-07
7.882826e-07
7.8373399e-07
7.7953554e-07
7.7681337e-07
7.744796e-07
7.7214332e-07
7.7483919e-07
7.7288764e-07
7.7575577e-07
7.8618457e-07
7.8788465e-07
7.9686721e-07
8.0174557e-07
8.1855395e-07
8.2647427e-07
8.4174207e-07
8.7609266e-07
9.0623068e-07
9.3710194e-07
1.0013855e-06
1.0633802e-06
1.1679615e-06
8.8787345e-07
8.8582187e-07
8.6843451e-07
8.5311029e-07
8.332943e-07
8.2042e-07
8.0789061e-07
8.0090713e-07
7.9439869e-07
7.8764196e-07
7.8345138e-07
7.7901947e-07
7.7746744e-07
7.7449112e-07
7.7302662e-07
7.7608485e-07
7.716166e-07
7.7620376e-07
7.8881426e-07
7.8798072e-07
8.0048215e-07
8.1054722e-07
8.1886109e-07
8.2841903e-07
8.4421591e-07
8.8050949e-07
9.0925767e-07
9.2451288e-07
9.8318517e-07
1.0397024e-06
1.1433353e-06
8.8757261e-07
8.8948271e-07
8.7189645e-07
8.663218e-07
8.5468965e-07
8.4222434e-07
8.2363879e-07
8.1062678e-07
8.0006367e-07
7.9161005e-07
7.8578103e-07
7.8104912e-07
7.7808665e-07
7.7477314e-07
7.7332278e-07
7.7611184e-07
7.7127465e-07
7.7554705e-07
7.8863437e-07
7.8610327e-07
8.0059852e-07
8.1465444e-07
8.1447766e-07
8.3000488e-07
8.4489935e-07
8.7607692e-07
9.0378449e-07
9.0581908e-07
9.4798396e-07
1.0088684e-06
1.1286548e-06
8.8903309e-07
8.902524e-07
8.7251507e-07
8.6719556e-07
8.6740958e-07
8.6397077e-07
8.5465512e-07
8.3931835e-07
8.2160719e-07
8.0647729e-07
7.9499365e-07
7.8825091e-07
7.8333519e-07
7.7724879e-07
7.7731807e-07
7.7455579e-07
7.7288885e-07
7.737921e-07
7.8683124e-07
7.8378151e-07
8.0018928e-07
8.1768788e-07
8.1477633e-07
8.322031e-07
8.4739059e-07
8.7168678e-07
9.0647419e-07
9.0848788e-07
9.2809227e-07
9.7341619e-07
1.065017e-06
8.9141829e-07
8.926833e-07
8.7130665e-07
8.6954963e-07
8.7214515e-07
8.7476881e-07
8.7223651e-07
8.7004316e-07
8.5420072e-07
8.426303e-07
8.2524206e-07
8.0954551e-07
7.9664753e-07
7.8668594e-07
7.8505995e-07
7.7900763e-07
7.746934e-07
7.7794708e-07
7.8050789e-07
7.8465523e-07
7.9504059e-07
8.1677709e-07
8.1873348e-07
8.3678836e-07
8.5658385e-07
8.7035496e-07
9.1059811e-07
9.2524038e-07
9.3929751e-07
9.7564429e-07
1.0400539e-06
8.9290716e-07
9.0000699e-07
8.7446629e-07
8.7080869e-07
8.7687803e-07
8.7897185e-07
8.7636354e-07
8.7817892e-07
8.6730343e-07
8.645168e-07
8.5473964e-07
8.459545e-07
8.3529774e-07
8.1781165e-07
8.0422759e-07
7.9299928e-07
7.8407121e-07
7.8461259e-07
7.8163274e-07
7.8393592e-07
7.984489e-07
8.0926541e-07
8.1845134e-07
8.366749e-07
8.613669e-07
8.7351515e-07
9.0646856e-07
9.6255977e-07
9.837286e-07
1.0405316e-06
1.0615036e-06
8.9047364e-07
9.033547e-07
8.7749681e-07
8.727879e-07
8.7323504e-07
8.7469968e-07
8.7395377e-07
8.8003316e-07
8.6979456e-07
8.6685786e-07
8.6337053e-07
8.625092e-07
8.5718277e-07
8.5660779e-07
8.517461e-07
8.3296518e-07
8.1148881e-07
8.014575e-07
7.9172981e-07
7.8879585e-07
8.0049774e-07
8.0655706e-07
8.1087005e-07
8.3339616e-07
8.5387142e-07
8.6124447e-07
8.8576694e-07
9.5576181e-07
9.9604598e-07
1.0470578e-06
1.0959388e-06
8.8693046e-07
9.0198585e-07
8.8219271e-07
8.7521342e-07
8.7311271e-07
8.705573e-07
8.6523519e-07
8.6483459e-07
8.5975165e-07
8.6436787e-07
8.6657303e-07
8.6510679e-07
8.6463952e-07
8.7142409e-07
8.6754083e-07
8.7115627e-07
8.7209708e-07
8.4749653e-07
8.2112369e-07
8.1000268e-07
8.079436e-07
8.0758323e-07
8.0975057e-07
8.3096157e-07
8.5014833e-07
8.5394424e-07
8.6378134e-07
9.1082927e-07
9.6886871e-07
1.0159457e-06
1.0785533e-06
8.8254863e-07
9.2235822e-07
9.1012121e-07
9.004176e-07
8.9199628e-07
8.8339249e-07
8.7002527e-07
8.6411017e-07
8.5531209e-07
8.5082083e-07
8.5856022e-07
8.66481e-07
8.6928773e-07
8.7452172e-07
8.7819571e-07
8.8169523e-07
8.8698511e-07
8.9425312e-07
8.8731324e-07
8.7245288e-07
8.4109943e-07
8.2263666e-07
8.2127487e-07
8.3542883e-07
8.5096407e-07
8.5784967e-07
8.6589907e-07
9.0102873e-07
9.596852e-07
9.885418e-07
1.0333188e-06
8.7714801e-07
9.4961588e-07
9.8849002e-07
1.0048361e-06
9.9370693e-07
9.5109466e-07
9.0882709e-07
8.7993071e-07
8.6224199e-07
8.513316e-07
8.5178168e-07
8.5568969e-07
8.6291898e-07
8.7454848e-07
8.8172283e-07
8.84097e-07
8.9128366e-07
8.9924054e-07
9.0083564e-07
9.145158e-07
9.1267387e-07
8.8624317e-07
8.6017935e-07
8.566263e-07
8.6678793e-07
8.753779e-07
8.8204325e-07
9.0904767e-07
9.5840292e-07
1.0130322e-06
1.0427886e-06
8.473574e-07
9.2090057e-07
9.7933276e-07
1.0327311e-06
1.0474843e-06
1.0522778e-06
1.0087002e-06
9.385117e-07
8.9377212e-07
8.6711459e-07
8.5875132e-07
8.580824e-07
8.6578507e-07
8.7411594e-07
8.8298136e-07
8.9067593e-07
8.9581062e-07
9.0009345e-07
9.0782983e-07
9.198703e-07
9.2067862e-07
9.2500898e-07
9.3704634e-07
9.2343489e-07
8.9869516e-07
9.0833849e-07
9.1639531e-07
9.317859e-07
9.6252669e-07
1.0274587e-06
1.0839724e-06
8.5581468e-07
8.4778352e-07
8.9724475e-07
9.4198702e-07
9.914121e-07
1.0116171e-06
1.004214e-06
9.9819214e-07
9.7878755e-07
9.3631185e-07
9.1431443e-07
9.1035295e-07
9.1947298e-07
9.2964894e-07
9.4043213e-07
9.4837273e-07
9.4747309e-07
9.370676e-07
9.3040759e-07
9.3858016e-07
9.4046538e-07
9.4371993e-07
9.6251245e-07
9.5914104e-07
9.4332911e-07
9.3983715e-07
9.505852e-07
9.5059548e-07
9.5808451e-07
9.9267781e-07
1.0808444e-06
8.7427674e-07
8.5184928e-07
8.465549e-07
8.7034515e-07
8.8312344e-07
8.9108514e-07
9.1749705e-07
9.601143e-07
1.0024831e-06
1.0511706e-06
1.0949485e-06
1.1465755e-06
1.203369e-06
1.2470015e-06
1.2823564e-06
1.3150638e-06
1.3317683e-06
1.286038e-06
1.1830392e-06
1.0996229e-06
1.0265815e-06
9.895514e-07
1.0064495e-06
1.0068302e-06
9.9417481e-07
1.0009896e-06
1.0156938e-06
1.0062008e-06
9.9038787e-07
9.9526694e-07
1.0379571e-06
8.8117182e-07
9.1546633e-07
9.0106195e-07
9.2145127e-07
9.2890748e-07
9.0167486e-07
8.6768823e-07
9.0881705e-07
9.6902146e-07
1.0243466e-06
1.1012803e-06
1.2431136e-06
1.4270671e-06
1.5637456e-06
1.6534931e-06
1.7165319e-06
1.7691928e-06
1.7940535e-06
1.7142233e-06
1.5021259e-06
1.3105937e-06
1.1766578e-06
1.1204718e-06
1.0926575e-06
1.0657515e-06
1.0640554e-06
1.0870614e-06
1.1091135e-06
1.1063705e-06
1.0964079e-06
1.0909684e-06
8.8531254e-07
9.4425737e-07
9.543937e-07
9.8793487e-07
9.8771118e-07
9.4658537e-07
8.9720706e-07
8.6453272e-07
9.0189588e-07
9.4140313e-07
1.009517e-06
1.1471944e-06
1.3172824e-06
1.4432243e-06
1.5224338e-06
1.5784363e-06
1.6293985e-06
1.6663243e-06
1.6442153e-06
1.4707297e-06
1.3045046e-06
1.1772481e-06
1.1231804e-06
1.1171271e-06
1.112923e-06
1.116851e-06
1.1362114e-06
1.1890149e-06
1.2295308e-06
1.3272623e-06
1.3217996e-06
8.8292333e-07
9.0902374e-07
9.0807235e-07
9.2626617e-07
9.3260349e-07
9.2206131e-07
8.9371058e-07
8.752097e-07
8.6145263e-07
8.5639868e-07
8.7631364e-07
9.1004362e-07
9.6828243e-07
1.0204068e-06
1.057662e-06
1.0827522e-06
1.1117765e-06
1.1486476e-06
1.1846112e-06
1.1803694e-06
1.1269605e-06
1.0775745e-06
1.0691661e-06
1.100709e-06
1.1250568e-06
1.1446888e-06
1.1672648e-06
1.2311424e-06
1.2902697e-06
1.4094929e-06
1.4785077e-06
8.8469763e-07
8.8721966e-07
8.8515299e-07
9.102256e-07
9.3651452e-07
9.5235799e-07
9.3023205e-07
8.9907357e-07
8.6606475e-07
8.3965877e-07
8.4118502e-07
8.6294556e-07
8.8983424e-07
9.2860398e-07
9.7710251e-07
1.0124859e-06
1.0416856e-06
1.0755489e-06
1.1165355e-06
1.1268596e-06
1.0830101e-06
1.0501059e-06
1.0526709e-06
1.0766193e-06
1.1085895e-06
1.1488073e-06
1.1698793e-06
1.2344783e-06
1.307404e-06
1.4589523e-06
1.5681792e-06
8.8633852e-07
9.1415127e-07
9.35493e-07
9.5495397e-07
9.7081359e-07
9.6117008e-07
9.1748394e-07
8.790041e-07
8.5236775e-07
8.5127147e-07
8.8371484e-07
9.2138008e-07
9.8660235e-07
1.0668318e-06
1.1290776e-06
1.1660891e-06
1.1984239e-06
1.2278657e-06
1.198291e-06
1.1222654e-06
1.0756506e-06
1.0599452e-06
1.0551852e-06
1.0579952e-06
1.0852788e-06
1.1384822e-06
1.1779042e-06
1.2816995e-06
1.3736354e-06
1.6283995e-06
1.7399697e-06
8.7347369e-07
9.6592163e-07
9.3734547e-07
9.181331e-07
9.0094023e-07
8.9750362e-07
8.8419988e-07
8.9046601e-07
9.1384913e-07
9.2675004e-07
9.7176952e-07
1.016521e-06
1.0565342e-06
1.097033e-06
1.1349178e-06
1.159029e-06
1.1484923e-06
1.1187922e-06
1.0795757e-06
1.0412316e-06
1.0384818e-06
1.0574663e-06
1.0586687e-06
1.0584125e-06
1.0982889e-06
1.1769905e-06
1.297743e-06
1.5158654e-06
1.636094e-06
1.938027e-06
2.1076295e-06
8.6850081e-07
8.7629628e-07
8.6291969e-07
9.0473948e-07
9.3640942e-07
9.7727874e-07
9.9870434e-07
1.0088587e-06
9.9480994e-07
9.8756629e-07
9.9886791e-07
9.9362975e-07
9.9321681e-07
1.0004818e-06
1.0094699e-06
1.0185483e-06
1.0315277e-06
1.045219e-06
1.0573383e-06
1.0671834e-06
1.0817631e-06
1.1022775e-06
1.1420683e-06
1.1667267e-06
1.2639571e-06
1.1904421e-06
1.391316e-06
1.6070904e-06
1.8030848e-06
1.8947599e-06
2.0969794e-06
8.4717942e-07
8.794287e-07
9.4211921e-07
1.0391957e-06
1.1529363e-06
1.2451543e-06
1.3554029e-06
1.4206747e-06
1.5633755e-06
1.4356131e-06
1.4619706e-06
1.4833256e-06
1.4930216e-06
1.5039431e-06
1.5141798e-06
1.5214054e-06
1.5299515e-06
1.5511411e-06
1.5744587e-06
1.5901689e-06
1.5937554e-06
1.1379235e-06
1.5039141e-06
1.6453617e-06
1.701294e-06
1.0921522e-06
9.6087043e-07
1.8313211e-06
1.8661916e-06
1.8920426e-06
1.361072e-06
9.0360307e-07
1.1559509e-06
1.8649473e-06
1.8695755e-06
2.6801332e-06
2.6364793e-06
2.9101397e-06
3.4274247e-06
3.8868031e-06
4.0220194e-06
4.0246381e-06
3.9190434e-06
3.9124732e-06
3.8226244e-06
3.4418758e-06
3.7626352e-06
3.6648411e-06
3.2607803e-06
3.018269e-06
3.4941486e-06
3.3463733e-06
2.4650909e-06
2.5363696e-06
3.0523261e-06
2.9512473e-06
2.099698e-06
1.8190009e-06
2.4500784e-06
2.6537102e-06
2.6012771e-06
1.9500224e-06
7.0581102e-07
1.5279911e-06
1.8117842e-06
2.2366058e-06
1.827391e-06
2.7422847e-06
1.7741505e-06
3.6207921e-06
1.8891493e-06
3.6128318e-06
2.8996354e-06
2.4267737e-06
2.4629859e-06
2.2446419e-06
2.2950499e-06
2.115117e-06
2.0897088e-06
2.1083649e-06
2.1053669e-06
1.8761408e-06
1.8969947e-06
2.0892079e-06
2.0267008e-06
1.7390035e-06
1.6843807e-06
1.9695217e-06
2.4023681e-06
1.9342763e-06
1.5165569e-06
1.5820331e-06
2.259928e-06
2.3553353e-06
2.009645e-06
1.464541e-06
2.2389476e-06
2.3970185e-06
2.0717119e-06
1.6611544e-06
1.6120285e-06
1.4743647e-06
1.2021303e-06
1.1280386e-06
1.1426701e-06
1.1353283e-06
1.1073707e-06
1.0745971e-06
1.1246239e-06
1.1655969e-06
1.1518613e-06
1.1082208e-06
1.1017194e-06
1.1512266e-06
1.188754e-06
1.2415403e-06
1.7437513e-06
2.4667707e-06
2.0509412e-06
2.3259183e-06
2.5214314e-06
2.4614609e-06
1.9494037e-06
1.7703783e-06
1.6358128e-06
1.3440428e-06
1.2005175e-06
1.2316648e-06
1.2215863e-06
1.2061423e-06
1.1694582e-06
1.2100275e-06
1.2733749e-06
1.2470066e-06
1.1665943e-06
1.1295196e-06
1.1605097e-06
1.2721015e-06
1.3171119e-06
1.2655177e-06
2.3417676e-06
2.0654008e-06
2.3809424e-06
2.8192081e-06
2.7819861e-06
2.2870288e-06
2.0060783e-06
1.7950645e-06
1.4422998e-06
1.2368095e-06
1.24385e-06
1.2977186e-06
1.3249611e-06
1.3289101e-06
1.3422456e-06
1.4038593e-06
1.3766455e-06
1.297734e-06
1.238267e-06
1.2624721e-06
1.3589923e-06
1.4381115e-06
1.3180999e-06
1.3532329e-06
1.1975847e-06
2.0254128e-06
2.5165043e-06
3.3910628e-06
3.0052043e-06
2.5119405e-06
2.1500811e-06
1.6896959e-06
1.3427273e-06
1.3461166e-06
1.4233863e-06
1.4828863e-06
1.5066376e-06
1.4659526e-06
1.4837358e-06
1.4838586e-06
1.4642572e-06
1.4022995e-06
1.4049744e-06
1.4547035e-06
1.5009722e-06
1.035421e-06
1.2083789e-06
8.1746488e-07
1.9759589e-06
3.001035e-06
3.5919047e-06
3.0417786e-06
2.8722103e-06
2.4929844e-06
2.0366499e-06
1.628573e-06
1.5463962e-06
1.611656e-06
1.6173181e-06
1.5939229e-06
1.5189457e-06
1.4991788e-06
1.5372072e-06
1.5660285e-06
1.570848e-06
1.5511959e-06
1.5640817e-06
1.5747356e-06
9.0038567e-07
1.2926853e-06
1.8910582e-06
2.6777724e-06
3.3754202e-06
3.7950361e-06
3.9989246e-06
3.5510018e-06
2.8605963e-06
2.3619437e-06
1.9291297e-06
1.7367609e-06
1.8000194e-06
1.7387326e-06
1.674608e-06
1.6238531e-06
1.6037345e-06
1.6672927e-06
1.6991106e-06
1.7120454e-06
1.6438024e-06
1.6084394e-06
1.6235085e-06
8.0917549e-07
1.5456676e-06
1.0886032e-06
1.5375044e-06
2.8837992e-06
3.5243304e-06
2.6540238e-06
3.1584265e-06
3.5408606e-06
2.7468552e-06
2.2061288e-06
1.8646409e-06
1.8672451e-06
1.9088051e-06
1.8840682e-06
1.9231188e-06
1.9145398e-06
1.9927855e-06
2.0415742e-06
1.9382324e-06
1.8327958e-06
1.7035094e-06
1.7099682e-06
6.7161702e-07
7.5397964e-07
1.223126e-06
2.5858825e-06
2.3506981e-06
2.0790025e-06
2.3210286e-06
4.0282642e-06
4.8842581e-06
3.466743e-06
2.6899569e-06
2.0976555e-06
2.0338494e-06
2.1362681e-06
2.1744009e-06
2.2964482e-06
2.3978736e-06
2.3886812e-06
2.4113521e-06
2.2873888e-06
2.0776645e-06
1.9187572e-06
1.8592531e-06
3.4260979e-07
7.5012794e-07
6.7288567e-07
1.2682663e-06
1.9650737e-06
3.7816612e-06
5.5819758e-06
6.3321318e-06
4.3699092e-06
3.4601709e-06
3.2243548e-06
2.5426585e-06
2.3148532e-06
2.4399918e-06
2.4945003e-06
2.5276445e-06
2.6147174e-06
2.5990981e-06
2.597536e-06
2.5449192e-06
2.3530424e-06
2.2337967e-06
2.1843564e-06
4.3565095e-07
5.6053943e-07
7.6231556e-07
2.5080023e-06
3.0202051e-06
2.5209353e-06
2.6637138e-06
3.5521331e-06
5.2769914e-06
5.5571153e-06
4.0236063e-06
3.1668673e-06
2.7887473e-06
2.8723323e-06
2.8427917e-06
2.7107167e-06
2.6723593e-06
2.5909982e-06
2.5544762e-06
2.5635702e-06
2.5318148e-06
2.4487569e-06
2.4896424e-06
7.4691525e-07
6.3941729e-07
1.7365376e-06
2.7082243e-06
3.2801321e-06
4.9008602e-06
5.5465278e-06
6.6278458e-06
7.147656e-06
7.0813206e-06
5.1958553e-06
4.0568084e-06
3.4586954e-06
3.3930526e-06
3.2572264e-06
3.0137314e-06
2.8227056e-06
2.696069e-06
2.6262723e-06
2.6520923e-06
2.6816124e-06
2.6657454e-06
2.6909592e-06
8.4080121e-07
1.0328941e-06
1.4654426e-06
2.0108478e-06
3.2565829e-06
5.2102722e-06
5.7675466e-06
7.8391253e-06
9.1096666e-06
8.635278e-06
6.9452947e-06
5.0308137e-06
4.1295435e-06
4.0192432e-06
3.9438352e-06
3.6746907e-06
3.3281903e-06
3.1597246e-06
3.0736852e-06
3.2146957e-06
3.2848884e-06
3.202896e-06
2.9274248e-06
7.6374108e-07
6.7096285e-07
1.9677502e-06
3.105296e-06
3.6399282e-06
4.0664793e-06
5.0204175e-06
6.3954547e-06
8.472233e-06
1.2017198e-05
9.4457724e-06
6.5849431e-06
4.1612209e-06
4.0941365e-06
4.8473303e-06
4.7466195e-06
4.4182681e-06
4.2731587e-06
4.1814879e-06
4.2579617e-06
4.333362e-06
4.1898836e-06
3.6222768e-06
4.5967345e-07
6.1458369e-07
1.5039079e-06
2.9414624e-06
4.6723656e-06
4.9859585e-06
5.9729573e-06
7.9295862e-06
1.1532213e-05
1.4799737e-05
1.1294255e-05
7.6084587e-06
5.7651897e-06
5.1036411e-06
5.2380097e-06
5.2541617e-06
5.1396101e-06
5.2571954e-06
5.3768286e-06
5.4932661e-06
5.5216286e-06
5.1683743e-06
4.3902013e-06
4.5211514e-07
1.0554331e-06
1.9643235e-06
3.2116502e-06
5.1861081e-06
9.2280905e-06
1.2770264e-05
1.7051404e-05
1.9167158e-05
1.8968028e-05
1.1967669e-05
9.3539459e-06
6.6957671e-06
5.6707855e-06
5.6364387e-06
5.6556565e-06
5.6128833e-06
5.7426683e-06
6.1427208e-06
6.3934212e-06
6.4116171e-06
5.9190991e-06
5.0374027e-06
5.5213156e-07
1.1554073e-06
2.1708523e-06
3.4493419e-06
5.4992103e-06
1.0214649e-05
1.5347685e-05
2.2059597e-05
2.435446e-05
2.4061547e-05
1.5153239e-05
1.1757033e-05
8.2979272e-06
6.7929563e-06
6.5258383e-06
6.4733606e-06
6.3650302e-06
6.2355317e-06
6.6679046e-06
6.9772143e-06
7.0381688e-06
6.5683082e-06
5.5774866e-06
6.8399735e-07
1.3330821e-06
2.4802265e-06
3.8726244e-06
6.2617886e-06
1.0954748e-05
1.8299761e-05
2.6671827e-05
2.850347e-05
2.880093e-05
2.1488195e-05
1.5868248e-05
1.0781863e-05
8.8902929e-06
8.3991242e-06
8.173457e-06
7.5936942e-06
6.9781567e-06
7.3192678e-06
7.6826672e-06
7.8198606e-06
7.3645231e-06
6.2309494e-06
8.2609623e-07
1.388759e-06
2.8438682e-06
4.1834353e-06
6.5012306e-06
1.0093479e-05
1.6394297e-05
2.3695328e-05
2.9361778e-05
3.410956e-05
2.5463401e-05
1.9881784e-05
1.6057715e-05
1.3355467e-05
1.2796151e-05
1.241668e-05
1.1274782e-05
9.2034988e-06
8.9239271e-06
9.1669589e-06
9.5078096e-06
8.8466869e-06
7.0918414e-06
9.3539704e-07
1.4706411e-06
3.0421042e-06
4.6602553e-06
7.5485965e-06
1.0921967e-05
1.8972887e-05
2.6541616e-05
3.2401386e-05
3.4940807e-05
2.8165531e-05
2.4227706e-05
2.1141216e-05
1.7812054e-05
1.6571527e-05
1.6274333e-05
1.385817e-05
1.2021792e-05
1.3004193e-05
1.3980391e-05
1.4352301e-05
1.2963198e-05
9.5110872e-06
1.048769e-06
1.6801943e-06
3.4745843e-06
5.0457095e-06
8.4875968e-06
1.2529657e-05
2.2515123e-05
3.0979681e-05
3.7185952e-05
4.1623126e-05
3.0424308e-05
2.7353185e-05
2.4179473e-05
2.3091826e-05
2.0286691e-05
1.843454e-05
1.4541525e-05
1.3484602e-05
1.5874772e-05
1.7848404e-05
1.8332275e-05
1.6357944e-05
1.0697451e-05
1.2283692e-06
1.9793372e-06
3.6806837e-06
5.6406174e-06
1.030257e-05
1.5685531e-05
2.7768365e-05
3.7898173e-05
4.4346683e-05
4.3427785e-05
3.3488318e-05
3.0591264e-05
3.2356146e-05
3.0800803e-05
2.5594246e-05
1.9655172e-05
1.527618e-05
1.4969754e-05
1.8152287e-05
2.0405765e-05
2.0217722e-05
1.6755519e-05
1.1489113e-05
1.3497425e-06
2.0577827e-06
3.7393197e-06
5.8484406e-06
1.1133589e-05
2.1185079e-05
3.5773925e-05
4.846884e-05
5.9577731e-05
4.6177674e-05
3.8727661e-05
4.0571331e-05
4.684248e-05
4.8158473e-05
3.5487321e-05
2.2900978e-05
1.7261985e-05
1.7872645e-05
2.2093082e-05
2.4387703e-05
2.2580618e-05
1.5813801e-05
1.2617921e-05
8.2003989e-07
2.2785732e-06
4.0099178e-06
6.5020753e-06
1.3033779e-05
3.1338088e-05
6.4210543e-05
7.8593222e-05
6.983266e-05
5.4509382e-05
5.0929734e-05
5.9357391e-05
6.9737082e-05
7.1249969e-05
4.9923982e-05
2.9107321e-05
2.1513925e-05
2.3161923e-05
2.8927954e-05
3.0291681e-05
2.3346236e-05
1.6221282e-05
1.4332611e-05
6.3077461e-07
2.8528241e-06
4.476096e-06
7.1702584e-06
1.4582628e-05
3.8151622e-05
7.5387502e-05
8.9570529e-05
7.8552728e-05
6.2198611e-05
5.8633985e-05
6.8563639e-05
7.8271682e-05
7.9307098e-05
5.6849391e-05
3.5447497e-05
2.9278044e-05
3.7359978e-05
4.8244457e-05
4.7927848e-05
2.4529661e-05
1.8165569e-05
1.7234859e-05
7.0764027e-07
3.1801988e-06
5.639859e-06
9.6536255e-06
1.9252094e-05
4.0630587e-05
6.6154783e-05
9.3521588e-05
8.8371898e-05
7.5402472e-05
7.3390267e-05
8.6213545e-05
9.5621469e-05
9.3273504e-05
6.6079833e-05
5.000342e-05
5.6354671e-05
8.0350243e-05
8.7858376e-05
4.6512762e-05
2.5486558e-05
2.0843094e-05
2.0063925e-05
1.1882068e-06
3.4267794e-06
8.1393873e-06
1.2311719e-05
2.3226422e-05
3.0212121e-05
4.8958148e-05
6.8733987e-05
0.00010307759
9.8312244e-05
0.00010476487
0.00012239474
0.00012913291
0.00010392574
7.2828482e-05
6.5095091e-05
7.7105221e-05
9.6530166e-05
8.3291482e-05
4.1056804e-05
2.8239005e-05
2.5363834e-05
2.5991899e-05
3.0070028e-06
8.0300282e-06
1.2313674e-05
1.7370031e-05
2.602066e-05
3.9933499e-05
6.0623131e-05
7.4815577e-05
0.0001117085
0.00011987636
0.00011989977
0.00011675214
0.00013786556
0.00011008892
8.4137554e-05
8.2047194e-05
9.6561733e-05
9.7422627e-05
6.4559657e-05
4.1530686e-05
3.6973648e-05
3.7128463e-05
3.2542609e-05
5.55354e-06
1.4795398e-05
1.541091e-05
1.9767456e-05
3.1774023e-05
6.0132357e-05
8.8382926e-05
0.00010708458
0.00012158511
0.00012823608
0.00016517572
0.00019605239
0.00016656857
0.00011888994
0.00010551553
0.00010451008
9.8201691e-05
7.9702264e-05
5.4871183e-05
4.8721499e-05
4.9167886e-05
4.6050574e-05
4.5319659e-05
5.2454776e-06
2.0405221e-05
2.2158072e-05
2.5639538e-05
3.4661328e-05
6.4397861e-05
9.9322482e-05
0.00012527497
0.00014970083
0.00018500905
0.00020377708
0.00020194611
0.0001636798
0.00013276166
0.00011952237
0.00010456884
8.9006752e-05
6.609309e-05
5.6949824e-05
5.6424769e-05
5.7129812e-05
5.8704059e-05
7.1393491e-05
4.7982362e-06
2.2164207e-05
1.9127306e-05
2.8651292e-05
3.8560108e-05
7.2642473e-05
0.00011515391
0.00014848427
0.00017385256
0.00018963774
0.00019247639
0.00018281721
0.00015298497
0.00013613735
0.00012429725
0.00010647416
8.0130948e-05
6.5510938e-05
6.2228293e-05
6.261301e-05
6.3855839e-05
7.2895075e-05
7.4095923e-05
5.504539e-06
2.8267051e-05
2.5363996e-05
3.3086584e-05
4.1586038e-05
7.4446765e-05
0.00012690672
0.00016108296
0.00018068821
0.00018444626
0.00017847546
0.00016030652
0.00014549902
0.00014093076
0.00013342122
0.00010669228
7.8864967e-05
7.0224467e-05
6.6961987e-05
6.5018889e-05
6.6786395e-05
7.0117489e-05
6.9930295e-05
7.9737954e-06
3.8353459e-05
4.5307018e-05
4.5095207e-05
4.2101694e-05
6.876707e-05
0.00012049577
0.00016273246
0.00018538536
0.00018705696
0.00017755447
0.00015989112
0.00014873438
0.00014604752
0.00012758009
9.3209308e-05
7.7579126e-05
7.1772708e-05
6.8509625e-05
6.6606429e-05
6.7267207e-05
6.841011e-05
6.9290374e-05
1.1234829e-05
4.7091088e-05
5.5400975e-05
5.5795856e-05
4.7041523e-05
6.5110904e-05
0.00011387614
0.00016464438
0.00019332961
0.00019837058
0.00018369797
0.0001614205
0.00014528584
0.00013116122
0.00010063503
7.7313279e-05
7.1958053e-05
7.1719514e-05
7.3240403e-05
7.318104e-05
7.3848209e-05
7.4316363e-05
7.6792366e-05
1.182666e-05
5.854555e-05
7.6537979e-05
7.335221e-05
6.2425589e-05
6.6773851e-05
0.00010384701
0.00015637057
0.00018811489
0.00019955
0.00018940169
0.00016551235
0.00014293329
0.00011686908
8.1485595e-05
7.0260906e-05
6.8558092e-05
7.2968156e-05
7.7344419e-05
7.9468485e-05
8.3520607e-05
9.0943491e-05
0.00011270875
1.1774028e-05
9.9062989e-05
0.00010645702
9.9039613e-05
8.9688325e-05
7.0625798e-05
0.00010087687
0.0001621613
0.00018363425
0.00018489593
0.00017040368
0.00014809897
0.00012197275
9.1678442e-05
7.4711175e-05
6.9831064e-05
7.0151153e-05
7.5623433e-05
8.1512623e-05
9.273966e-05
0.00011558349
0.00015989338
0.00023945109
1.3574552e-05
0.00014348896
0.00018702668
0.00016341363
0.00013169825
8.2217418e-05
9.6856818e-05
0.00013837131
0.00017702179
0.0001801836
0.00016916156
0.00015072926
0.00012907523
9.9098738e-05
7.9444602e-05
7.4260924e-05
7.3721375e-05
7.7462132e-05
8.1123551e-05
8.8950778e-05
0.00010842457
0.00015320378
0.00024195677
1.2589492e-05
0.00016521937
0.00022604492
0.0002327843
0.00018074879
0.00013089141
9.6018245e-05
0.00012008194
0.00016306637
0.0001819519
0.00017630279
0.00015893307
0.00013463967
0.00010420223
8.1821809e-05
7.3211487e-05
7.2580936e-05
7.5683746e-05
7.9922171e-05
8.7819801e-05
0.0001079436
0.00015725624
0.00025768869
1.1078547e-05
0.0001829497
0.00024681961
0.00025312437
0.00022010584
0.00017854336
0.00011263108
0.00011676261
0.00014719337
0.00017901676
0.00018304936
0.00017020848
0.00014420431
0.00011123097
8.3788352e-05
7.0361272e-05
6.7902305e-05
6.9695258e-05
7.5526656e-05
8.5336653e-05
0.00010922193
0.00017008378
0.00028510937
1.0055437e-05
0.00014678021
0.00018311455
0.00020768428
0.00022842056
0.00022370244
0.00014028446
0.0001178528
0.00013680284
0.00016633135
0.00017711872
0.00017272306
0.00015209942
0.00011914009
8.9489309e-05
7.1512022e-05
6.6473239e-05
6.6533651e-05
7.1031583e-05
8.0537968e-05
0.00010496903
0.00017224346
0.00029117749
9.9362778e-06
0.00017375028
0.00021141582
0.00020667107
0.00021333458
0.00021820417
0.00014562049
0.00011946965
0.00013216377
0.00015608383
0.00016882077
0.00016714796
0.00015357569
0.0001241759
9.5386406e-05
7.5436631e-05
6.8545154e-05
6.7652799e-05
7.0014332e-05
7.7656374e-05
9.8846713e-05
0.00016258888
0.00027859249
9.9265275e-06
0.0001676969
0.00020452179
0.00020874474
0.00019626503
0.00017763162
0.00014410258
0.00012020439
0.00013132484
0.0001544202
0.00016795238
0.00016703923
0.00015611434
0.00012869923
9.9503046e-05
7.8102626e-05
6.8266099e-05
6.7310813e-05
6.8590534e-05
7.4581619e-05
9.1493479e-05
0.00014631417
0.00025928506
9.2262976e-06
0.00016049226
0.00018854819
0.00016842532
0.00016386643
0.00015087013
0.00013463174
0.00012216959
0.00013241208
0.0001546187
0.00016841287
0.00016939061
0.00016048709
0.00013542816
0.00010472306
8.1058088e-05
6.6807397e-05
6.5197141e-05
6.5284353e-05
6.8755959e-05
8.1594869e-05
0.00012347515
0.00022302971
8.5925812e-06
0.00015183496
0.00015310832
0.00013518749
0.00013270093
0.00013555449
0.00013406362
0.00012920089
0.00013713248
0.00015474707
0.00016543554
0.0001671481
0.00016097721
0.00014026479
0.0001107235
8.5664418e-05
6.9148223e-05
6.3232873e-05
6.3263099e-05
6.5026051e-05
7.3443656e-05
0.00010160061
0.00017033049
8.4708597e-06
0.00014442183
0.00017869616
0.00014490322
0.00012616813
0.00012246348
0.00013855053
0.00013786111
0.00014475587
0.00015845765
0.00016577061
0.00016600136
0.00016100227
0.00014421996
0.00011723336
9.1536021e-05
7.3004616e-05
6.3520604e-05
6.2658511e-05
6.2982226e-05
6.7911227e-05
8.5752635e-05
0.00012919273
8.0929273e-06
0.00013577512
0.00017836107
0.00017647045
0.00014653561
0.00012914756
0.00013611601
0.00014444083
0.0001518156
0.00016352854
0.00017022511
0.00016998831
0.0001653211
0.00015135882
0.00012679836
0.0001004192
7.8506314e-05
6.6206169e-05
6.1251008e-05
6.1023909e-05
6.2878243e-05
7.3416267e-05
0.0001150093
6.9876221e-06
0.00011874824
0.00017514487
0.00016618553
0.00015447256
0.00014925616
0.00015377332
0.00015191891
0.00015802929
0.00016773884
0.00017349804
0.00017323755
0.00016917102
0.00015797074
0.00013668365
0.00011174011
8.7308118e-05
7.0381792e-05
6.3180207e-05
5.9810729e-05
5.9816205e-05
6.4233029e-05
9.2418803e-05
6.4339366e-06
9.7032284e-05
0.0001598361
0.00016396764
0.00016932219
0.00017617186
0.00016575451
0.00016095496
0.00016474886
0.00017166368
0.00017675224
0.00017622621
0.00017261968
0.00016347068
0.00014537128
0.00012301214
0.00010014356
7.8512135e-05
6.7354331e-05
6.2512045e-05
6.0003438e-05
6.0588761e-05
7.0848768e-05
6.4702937e-06
7.7248238e-05
0.0001417147
0.00017950229
0.00018928527
0.00018540463
0.00017508864
0.00016870961
0.00016984796
0.00017472781
0.00018085806
0.00018189928
0.00017913332
0.00017222166
0.00015856323
0.00013765585
0.00011549926
9.3009742e-05
7.5009307e-05
6.6546266e-05
6.2640214e-05
6.0544348e-05
6.1848136e-05
6.2234748e-06
6.3470711e-05
0.00011877863
0.00016506324
0.00018750277
0.00019319088
0.00018660257
0.0001788264
0.00017639015
0.00017921508
0.000183282
0.00018686304
0.00018545942
0.00018114524
0.00017116569
0.00015363547
0.00013244673
0.00011023654
8.8733895e-05
7.3052098e-05
6.623924e-05
6.2644086e-05
6.0460141e-05
6.1442991e-06
5.831895e-05
0.00010435989
0.00014859982
0.0001786824
0.00019365568
0.00019735637
0.00019079321
0.00018604392
0.00018493115
0.0001863265
0.00018871328
0.0001895234
0.0001866247
0.00018087033
0.00017006439
0.000151911
0.00013042749
0.00010906385
8.7370962e-05
7.3724752e-05
6.7031426e-05
6.430582e-05
6.1619963e-06
6.0628175e-05
0.00010133111
0.00013835136
0.0001672659
0.00018681819
0.00019728956
0.00019908825
0.00019518151
0.00019239874
0.00019184726
0.00019256876
0.00019438381
0.00019410988
0.00019122416
0.0001843027
0.00017255113
0.00015423429
0.00013325816
0.00011123351
8.9638873e-05
7.5970452e-05
6.7170679e-05
5.9382251e-06
6.4954968e-05
0.00010500544
0.00013642301
0.00016089837
0.0001802284
0.00019404179
0.00020110265
0.00020256254
0.00020113083
0.00020014997
0.00020023671
0.00020155064
0.0002020752
0.00020045751
0.00019676256
0.00018892092
0.00017623302
0.00015886013
0.00013792782
0.00011709821
9.5273773e-05
7.8214652e-05
5.8076072e-06
6.8122984e-05
0.00011169101
0.0001415805
0.00016201862
0.00017804372
0.0001912316
0.00020057563
0.00020563615
0.00020765643
0.00020837388
0.00020919909
0.00021037798
0.00021113995
0.00021047679
0.00020797599
0.00020301724
0.00019520149
0.00018301983
0.00016755652
0.00014694035
0.00012980126
0.00010257557
5.6272307e-06
6.9002424e-05
0.00011703066
0.00014907699
0.00016841785
0.00018203224
0.0001932887
0.00020261839
0.00020953234
0.00021409256
0.00021692115
0.00021889966
0.00022042955
0.00022139345
0.00022150508
0.00022017563
0.00021726113
0.00021218221
0.00020461825
0.00019423899
0.00017715474
0.00016380425
0.00013550599
5.3859067e-06
6.8411451e-05
0.00012085694
0.00015684768
0.00017828765
0.00019194306
0.00020210047
0.00021056794
0.00021766454
0.00022324705
0.00022748797
0.0002305241
0.00023262943
0.00023378057
0.0002341094
0.00023339271
0.00023165562
0.00022882983
0.0002237736
0.00021701438
0.00020525884
0.00019451726
0.00017058924
5.2080548e-06
6.7413252e-05
0.00012323613
0.00016296881
0.00018791672
0.00020431864
0.00021604424
0.00022524416
0.00023307902
0.00023957811
0.00024489093
0.00024890712
0.00025187487
0.0002536768
0.00025464227
0.00025481598
0.00025392336
0.00025152523
0.00024667017
0.00024092023
0.00023193673
0.00022319738
0.00020369298
5.0416025e-06
6.7070692e-05
0.0001267138
0.00016986464
0.00019859881
0.00021836128
0.00023326614
0.000245042
0.00025474891
0.00026319059
0.00027032659
0.00027619574
0.00028072951
0.00028418815
0.0002862467
0.00028681154
0.00028582605
0.00028324196
0.0002788068
0.00027310846
0.00026511476
0.00025729824
0.00024031342
4.8391939e-06
6.6922972e-05
0.00012749731
0.0001722582
0.00020433626
0.00022768248
0.00024647997
0.00026219055
0.00027519682
0.00028601025
0.00029572197
0.00030447307
0.00031220078
0.00031855078
0.00032323817
0.00032613263
0.00032722295
0.00032649935
0.00032422097
0.00032024364
0.00031393475
0.00030675033
0.00029051429
4.6605161e-06
6.7213662e-05
0.00012554115
0.00017093955
0.00020501134
0.00023132655
0.00025309065
0.00027248934
0.00029032594
0.00030546122
0.00031827945
0.00032991542
0.0003404487
0.00035009788
0.00035873465
0.00036593975
0.00037134731
0.00037498363
0.00037683812
0.00037687647
0.00037447046
0.00037024405
0.00035643534
4.5117223e-06
6.736435e-05
0.00011981097
0.00016040426
0.00019517476
0.00022486466
0.00025009531
0.00027281648
0.00029433024
0.00031608077
0.00033663474
0.00035377178
0.00036829519
0.00038041593
0.00039109651
0.00040028989
0.00040863896
0.00041595689
0.0004222118
0.00042706271
0.00043008232
0.00043124824