/*--------------------------------*- C++ -*----------------------------------*\
| =========                 |                                                 |
| \\      /  F ield         | OpenFOAM: The Open Source CFD Toolbox           |
|  \\    /   O peration     | Version:  2406                                  |
|   \\  /    A nd           | Website:  www.openfoam.com                      |
|    \\/     M anipulation  |                                                 |
\*---------------------------------------------------------------------------*/
FoamFile
{
    version     2.0;
    format      ascii;
    arch        "LSB;label=32;scalar=64";
    class       volScalarField;
    location    "190";
    object      k_0;
}
// * * * * * * * * * * * * * * * * * * * * * * * * * * * * * * * * * * * * * //

dimensions      [0 2 -2 0 0 0 0];

internalField   nonuniform List<scalar> 
20580
(
3.1431643e-06
2.3449482e-06
1.8614425e-06
1.5536037e-06
1.3339292e-06
1.176801e-06
1.0521105e-06
9.5846849e-07
8.7917671e-07
8.1402409e-07
7.5976646e-07
7.1312271e-07
6.7394671e-07
6.3965793e-07
6.0987727e-07
5.8529867e-07
5.6348942e-07
5.4634311e-07
5.3531911e-07
5.227777e-07
5.1796183e-07
5.0651711e-07
5.0583147e-07
5.1110009e-07
5.2354117e-07
5.4569518e-07
5.7224627e-07
6.0041844e-07
6.5003094e-07
7.0968522e-07
8.2172549e-07
3.1498103e-06
2.3639841e-06
1.8950511e-06
1.5910879e-06
1.3600826e-06
1.1928173e-06
1.0613326e-06
9.6477458e-07
8.8390145e-07
8.1728817e-07
7.6336451e-07
7.1607101e-07
6.7766632e-07
6.4311179e-07
6.1292667e-07
5.8928085e-07
5.6521889e-07
5.496767e-07
5.4019948e-07
5.2819101e-07
5.2419851e-07
5.1912077e-07
5.0962903e-07
5.1141751e-07
5.2123186e-07
5.4378647e-07
5.7070922e-07
5.9309061e-07
6.4135807e-07
6.8983968e-07
7.9700996e-07
3.1483465e-06
2.3724225e-06
1.9012254e-06
1.6158859e-06
1.3965377e-06
1.228695e-06
1.0876655e-06
9.8044514e-07
8.9456831e-07
8.2527111e-07
7.6877777e-07
7.2135973e-07
6.8101712e-07
6.470412e-07
6.1642703e-07
5.9232751e-07
5.6902178e-07
5.5123553e-07
5.4321089e-07
5.30432e-07
5.2559472e-07
5.2335271e-07
5.1176497e-07
5.1133586e-07
5.1753442e-07
5.3464496e-07
5.5720705e-07
5.7209865e-07
6.1348297e-07
6.600243e-07
7.7421651e-07
3.1495807e-06
2.3713697e-06
1.8957839e-06
1.6130792e-06
1.4152748e-06
1.262195e-06
1.1334666e-06
1.0201201e-06
9.233896e-07
8.4541554e-07
7.8169937e-07
7.3139637e-07
6.8806103e-07
6.518747e-07
6.2133791e-07
5.946334e-07
5.7183142e-07
5.53984e-07
5.4420384e-07
5.3335414e-07
5.2850537e-07
5.2762433e-07
5.1734273e-07
5.1436509e-07
5.1843746e-07
5.3161588e-07
5.5617238e-07
5.6660662e-07
5.8497296e-07
6.1427186e-07
7.0001041e-07
3.1567184e-06
2.3784284e-06
1.8885027e-06
1.6051725e-06
1.4163733e-06
1.2767776e-06
1.1567462e-06
1.0605086e-06
9.6553462e-07
8.8844692e-07
8.1694881e-07
7.5666021e-07
7.0510149e-07
6.6327952e-07
6.3038117e-07
6.0009555e-07
5.7541102e-07
5.5691402e-07
5.446694e-07
5.340382e-07
5.3050834e-07
5.3063022e-07
5.2724047e-07
5.2458605e-07
5.2693227e-07
5.3518722e-07
5.6275428e-07
5.7936165e-07
5.9413759e-07
6.1832757e-07
6.6564033e-07
3.1708981e-06
2.4063002e-06
1.8989403e-06
1.605842e-06
1.4122317e-06
1.2721422e-06
1.1554281e-06
1.067105e-06
9.8029569e-07
9.1215628e-07
8.490917e-07
7.9420078e-07
7.4476574e-07
6.9486575e-07
6.5177583e-07
6.1460895e-07
5.8483531e-07
5.6314545e-07
5.4726999e-07
5.3494349e-07
5.318587e-07
5.3243448e-07
5.3075256e-07
5.3303273e-07
5.379829e-07
5.4564213e-07
5.6813286e-07
6.0978363e-07
6.3230868e-07
6.836752e-07
6.9400115e-07
3.1784334e-06
2.4243592e-06
1.9081135e-06
1.6072984e-06
1.3959189e-06
1.2459467e-06
1.1324034e-06
1.0522716e-06
9.737612e-07
9.0999724e-07
8.5589921e-07
8.0936672e-07
7.6609317e-07
7.291818e-07
6.9543844e-07
6.5232217e-07
6.1026495e-07
5.7925322e-07
5.5684737e-07
5.3982562e-07
5.3368296e-07
5.3178485e-07
5.2872784e-07
5.315759e-07
5.3700052e-07
5.4212128e-07
5.5829146e-07
6.0296722e-07
6.3784536e-07
6.9414706e-07
7.4251392e-07
3.1795475e-06
2.4365827e-06
1.9242447e-06
1.6106694e-06
1.3932501e-06
1.2332912e-06
1.1076358e-06
1.0166709e-06
9.4142617e-07
8.8999705e-07
8.4790815e-07
8.06131e-07
7.703927e-07
7.4107974e-07
7.0871342e-07
6.8422566e-07
6.6136893e-07
6.2125594e-07
5.8341112e-07
5.5724616e-07
5.4102951e-07
5.3356209e-07
5.2938891e-07
5.3182815e-07
5.3654653e-07
5.380151e-07
5.4376232e-07
5.694231e-07
6.097277e-07
6.5906474e-07
7.3224816e-07
3.2068757e-06
2.5514435e-06
2.0226441e-06
1.6790221e-06
1.4387958e-06
1.2595549e-06
1.1160176e-06
1.0144201e-06
9.2754851e-07
8.6323548e-07
8.2439479e-07
7.9325908e-07
7.6487842e-07
7.3868116e-07
7.1454807e-07
6.9226827e-07
6.7284138e-07
6.5781059e-07
6.3817481e-07
6.0866203e-07
5.7043889e-07
5.4700283e-07
5.3918508e-07
5.3962074e-07
5.4281915e-07
5.448067e-07
5.4889598e-07
5.6772173e-07
6.0382334e-07
6.3379409e-07
6.8726509e-07
3.2247266e-06
2.7771939e-06
2.3503445e-06
2.0110525e-06
1.6986859e-06
1.4116137e-06
1.1931159e-06
1.0431698e-06
9.3797011e-07
8.6208904e-07
8.0924962e-07
7.7046565e-07
7.4188802e-07
7.2291843e-07
7.0368392e-07
6.8464399e-07
6.6986591e-07
6.5875694e-07
6.4612856e-07
6.3864268e-07
6.2693274e-07
5.9850319e-07
5.7097314e-07
5.6145025e-07
5.614001e-07
5.6532768e-07
5.7142318e-07
5.9104849e-07
6.2390192e-07
6.7063841e-07
7.0047853e-07
3.0528392e-06
2.7043659e-06
2.4233677e-06
2.2126932e-06
1.9714277e-06
1.731097e-06
1.4323539e-06
1.1634104e-06
9.9503619e-07
8.8687571e-07
8.1843309e-07
7.7160507e-07
7.3887624e-07
7.1370172e-07
6.927873e-07
6.7433218e-07
6.5666755e-07
6.4255182e-07
6.3362983e-07
6.3272759e-07
6.2868383e-07
6.247852e-07
6.2390762e-07
6.1372754e-07
5.9291831e-07
5.9382514e-07
5.9962154e-07
6.1824958e-07
6.4750075e-07
7.0896193e-07
7.5959223e-07
3.0667803e-06
2.4195338e-06
2.1665894e-06
1.9843772e-06
1.8528653e-06
1.6838145e-06
1.5064406e-06
1.3515919e-06
1.1748875e-06
1.0048139e-06
9.0019465e-07
8.3841184e-07
8.0049225e-07
7.7330899e-07
7.5099498e-07
7.2936248e-07
7.0265012e-07
6.734839e-07
6.4988793e-07
6.3807433e-07
6.2986593e-07
6.2633301e-07
6.3319154e-07
6.3398411e-07
6.2534342e-07
6.161358e-07
6.1902436e-07
6.2640957e-07
6.4423252e-07
6.8339331e-07
7.6126462e-07
3.1538306e-06
2.4061675e-06
1.9957899e-06
1.7697608e-06
1.5839273e-06
1.4294114e-06
1.3451621e-06
1.2920164e-06
1.2717948e-06
1.2513862e-06
1.2115604e-06
1.1904516e-06
1.1852005e-06
1.1791671e-06
1.1718111e-06
1.1601022e-06
1.1294552e-06
1.0394985e-06
9.0044594e-07
7.9025287e-07
7.0858631e-07
6.6071783e-07
6.5631641e-07
6.5788678e-07
6.5553217e-07
6.5499845e-07
6.5759518e-07
6.5607558e-07
6.5807307e-07
6.7171777e-07
7.0789509e-07
3.2332421e-06
2.6479555e-06
2.1725488e-06
1.9106171e-06
1.688406e-06
1.4486378e-06
1.2440594e-06
1.1913514e-06
1.2028135e-06
1.2318553e-06
1.2942896e-06
1.4462486e-06
1.6490488e-06
1.7968211e-06
1.8788786e-06
1.9087042e-06
1.9081381e-06
1.8521062e-06
1.6464631e-06
1.3192543e-06
1.0459637e-06
8.5091667e-07
7.548312e-07
7.2026691e-07
7.0398252e-07
6.9878525e-07
7.0882114e-07
7.2710399e-07
7.393719e-07
7.4812699e-07
7.490594e-07
3.2393733e-06
2.7457613e-06
2.3251655e-06
2.0853993e-06
1.8185873e-06
1.5323606e-06
1.2879673e-06
1.1166839e-06
1.0772322e-06
1.0978571e-06
1.1605409e-06
1.3154109e-06
1.5090078e-06
1.6479689e-06
1.7209826e-06
1.7471817e-06
1.7495184e-06
1.7189306e-06
1.5947693e-06
1.3253817e-06
1.0855907e-06
8.9967345e-07
7.937194e-07
7.5481809e-07
7.4163381e-07
7.4096816e-07
7.5363167e-07
7.9597716e-07
8.4022463e-07
9.4435704e-07
9.5039641e-07
3.1914794e-06
2.5388189e-06
2.1091526e-06
1.857832e-06
1.639747e-06
1.4438109e-06
1.2601082e-06
1.1274845e-06
1.0297571e-06
9.722307e-07
9.545129e-07
9.6131644e-07
9.975174e-07
1.0275475e-06
1.0409239e-06
1.0421959e-06
1.0408476e-06
1.0386671e-06
1.0289703e-06
9.8115022e-07
8.9012746e-07
8.0661938e-07
7.5822776e-07
7.512462e-07
7.5473379e-07
7.6556112e-07
7.8441122e-07
8.3417666e-07
8.9046857e-07
9.9803446e-07
1.0893388e-06
3.172514e-06
2.4482119e-06
2.0328248e-06
1.8185601e-06
1.6604821e-06
1.5193939e-06
1.3486472e-06
1.1875958e-06
1.0495189e-06
9.5344744e-07
9.0654097e-07
8.9207031e-07
8.9078727e-07
9.0732319e-07
9.3640195e-07
9.560009e-07
9.6499885e-07
9.6692572e-07
9.6395272e-07
9.2663823e-07
8.3721159e-07
7.6933026e-07
7.4086985e-07
7.3858009e-07
7.4941329e-07
7.7364731e-07
7.9355301e-07
8.4610985e-07
9.0137252e-07
1.0198242e-06
1.1251302e-06
3.2023955e-06
2.6212818e-06
2.2517924e-06
2.0046552e-06
1.7973244e-06
1.587603e-06
1.355421e-06
1.1678853e-06
1.0469338e-06
9.7743831e-07
9.725323e-07
9.8765107e-07
1.0396974e-06
1.1084039e-06
1.1579407e-06
1.1766252e-06
1.1758969e-06
1.1506391e-06
1.0554475e-06
9.2267972e-07
8.1941297e-07
7.6110265e-07
7.3636081e-07
7.3091544e-07
7.4182082e-07
7.7673956e-07
8.1505707e-07
9.113385e-07
9.863955e-07
1.1914996e-06
1.2762621e-06
3.3140879e-06
2.8576534e-06
2.2773038e-06
1.9150066e-06
1.6379521e-06
1.4671566e-06
1.3000181e-06
1.2110208e-06
1.178343e-06
1.1068512e-06
1.1145585e-06
1.1209539e-06
1.1260915e-06
1.1340989e-06
1.1359827e-06
1.1167013e-06
1.054692e-06
9.6929658e-07
8.7892075e-07
8.0201021e-07
7.6237661e-07
7.5358457e-07
7.5138813e-07
7.5449465e-07
7.8296992e-07
8.5100374e-07
9.8679092e-07
1.233994e-06
1.3649102e-06
1.6880493e-06
1.8398363e-06
3.2269786e-06
2.544336e-06
2.0855824e-06
1.9166099e-06
1.771926e-06
1.6896457e-06
1.5676518e-06
1.4601835e-06
1.3018973e-06
1.2031707e-06
1.1442948e-06
1.0637e-06
1.0039219e-06
9.6190234e-07
9.2978492e-07
9.0422311e-07
8.8411329e-07
8.6331692e-07
8.4646667e-07
8.3444558e-07
8.3335093e-07
8.4629956e-07
8.8438493e-07
9.1798323e-07
1.018627e-06
1.1170386e-06
1.3233118e-06
1.4670531e-06
1.6940179e-06
1.822409e-06
2.0300416e-06
3.109795e-06
2.6948554e-06
2.4607558e-06
2.4343131e-06
2.4367287e-06
2.3831014e-06
2.3762512e-06
2.3164215e-06
2.41858e-06
2.0277916e-06
1.9441491e-06
1.8732903e-06
1.7917627e-06
1.7307794e-06
1.6829486e-06
1.6400211e-06
1.5992138e-06
1.5778894e-06
1.5815721e-06
1.5783364e-06
1.5741373e-06
1.5957803e-06
1.6313265e-06
1.6462035e-06
1.712768e-06
1.7805852e-06
1.8802332e-06
1.9368626e-06
1.9951133e-06
2.0497207e-06
2.0845369e-06
3.6863205e-06
4.6454413e-06
7.3049163e-06
7.1249256e-06
1.0340023e-05
9.6338614e-06
1.3238312e-05
1.2677828e-05
1.8758846e-05
1.2807784e-05
1.2200339e-05
1.1267368e-05
1.0747133e-05
1.0010284e-05
9.6824796e-06
9.2540689e-06
8.8845407e-06
8.4778288e-06
8.1857091e-06
7.8331583e-06
7.3519243e-06
7.0416039e-06
6.6770441e-06
6.3174228e-06
5.947319e-06
5.755357e-06
5.5451789e-06
5.3535374e-06
5.0863305e-06
4.9136909e-06
4.586737e-06
1.4963677e-05
3.480257e-05
5.8963812e-05
4.3675604e-05
7.4027e-05
4.7697894e-05
8.372674e-05
4.8956687e-05
9.6792303e-05
5.8119633e-05
4.4548372e-05
4.5049127e-05
3.6385554e-05
3.6253327e-05
3.1670894e-05
3.0951494e-05
2.8659042e-05
2.7544187e-05
2.5822123e-05
2.4750368e-05
2.3522798e-05
2.2327894e-05
2.0945912e-05
1.9949041e-05
1.8921153e-05
1.782538e-05
1.6693659e-05
1.6008858e-05
1.4910882e-05
1.4678388e-05
1.3345483e-05
1.3116915e-05
4.7483579e-06
2.1944145e-06
2.2482951e-06
2.2424445e-06
1.6063307e-06
1.2307939e-06
1.2244902e-06
1.097137e-06
8.4352919e-07
7.790516e-07
8.1843616e-07
8.2174292e-07
7.848712e-07
7.390963e-07
7.7826041e-07
8.0767018e-07
7.8151782e-07
7.4307156e-07
7.5224742e-07
8.2290341e-07
8.6035857e-07
8.9316337e-07
1.1722639e-05
5.1332836e-06
2.3493357e-06
2.4085566e-06
2.4988648e-06
2.082261e-06
1.528021e-06
1.4085536e-06
1.2742431e-06
9.8216713e-07
8.5139189e-07
9.1626053e-07
9.3137977e-07
9.0620334e-07
8.2683889e-07
8.529157e-07
9.1362558e-07
8.9559132e-07
8.3244066e-07
8.125354e-07
8.5694742e-07
9.6109871e-07
9.7667137e-07
1.1428405e-05
5.2363011e-06
2.5066989e-06
2.5516462e-06
2.9267335e-06
2.596436e-06
1.8475812e-06
1.6477981e-06
1.4721383e-06
1.1321339e-06
9.2439271e-07
9.6341277e-07
1.0294105e-06
1.0332898e-06
9.8118815e-07
9.7307089e-07
1.0468144e-06
1.0434245e-06
9.8323324e-07
9.2588899e-07
9.4755064e-07
1.047195e-06
1.1268406e-06
9.8992021e-06
5.3692525e-06
2.7626068e-06
2.8382031e-06
3.4746573e-06
3.3521826e-06
2.5558359e-06
2.162558e-06
1.8690882e-06
1.4453145e-06
1.0610154e-06
1.0713648e-06
1.1793459e-06
1.2283389e-06
1.2254411e-06
1.1361401e-06
1.1706786e-06
1.1848402e-06
1.1609997e-06
1.0784849e-06
1.0667768e-06
1.1365498e-06
1.2152491e-06
8.7398787e-06
5.4169839e-06
3.0243425e-06
3.1225783e-06
3.8400315e-06
3.8814454e-06
3.3831719e-06
2.7192771e-06
2.3458594e-06
1.8486206e-06
1.3469237e-06
1.2524089e-06
1.3705449e-06
1.395013e-06
1.3914367e-06
1.2954899e-06
1.2720734e-06
1.3096787e-06
1.3039461e-06
1.2752063e-06
1.222564e-06
1.2522867e-06
1.3207715e-06
7.9503744e-06
5.3633871e-06
3.3290316e-06
3.4343188e-06
4.1797495e-06
4.5345744e-06
4.2667123e-06
3.71982e-06
2.8559924e-06
2.2451555e-06
1.67793e-06
1.4516488e-06
1.5924177e-06
1.5841546e-06
1.5422961e-06
1.4828146e-06
1.4060331e-06
1.4738005e-06
1.4819128e-06
1.4728413e-06
1.3912226e-06
1.3676029e-06
1.430167e-06
7.6325829e-06
5.3213725e-06
3.6011398e-06
3.7789104e-06
4.6816208e-06
5.2077544e-06
4.9847851e-06
4.8859494e-06
3.8348363e-06
2.8667543e-06
2.1824599e-06
1.7088171e-06
1.7916097e-06
1.903011e-06
1.8565464e-06
1.8618709e-06
1.748891e-06
1.8113963e-06
1.874739e-06
1.7803881e-06
1.7115579e-06
1.5889244e-06
1.6161913e-06
7.4333856e-06
5.3004606e-06
3.903637e-06
4.1560378e-06
5.1779763e-06
6.1888978e-06
6.1921405e-06
6.8686998e-06
5.9748167e-06
4.0047333e-06
3.0594242e-06
2.2138694e-06
2.1639953e-06
2.3558532e-06
2.3366448e-06
2.4052276e-06
2.3907945e-06
2.2770637e-06
2.3421493e-06
2.2462807e-06
2.0592752e-06
1.9127392e-06
1.8500779e-06
7.697361e-06
5.3483288e-06
4.3163471e-06
4.7353702e-06
6.0676347e-06
8.0004381e-06
8.4599269e-06
9.4602387e-06
8.5770305e-06
5.450645e-06
3.942221e-06
2.8868508e-06
2.5560288e-06
2.8165058e-06
2.8758682e-06
2.8430741e-06
2.8805543e-06
2.7390471e-06
2.7519654e-06
2.6986565e-06
2.4202485e-06
2.2686293e-06
2.1837696e-06
8.60462e-06
5.5724134e-06
4.7862743e-06
5.4160804e-06
7.0215432e-06
9.4262208e-06
1.000911e-05
1.150718e-05
1.0993419e-05
7.6606615e-06
5.1169602e-06
3.6810292e-06
3.0946667e-06
3.3244475e-06
3.3475292e-06
3.1869715e-06
3.1779226e-06
3.0195366e-06
2.964003e-06
2.9723396e-06
2.8342679e-06
2.615669e-06
2.5594679e-06
9.9946685e-06
6.1333143e-06
5.7631436e-06
6.7542863e-06
9.0615519e-06
1.2072956e-05
1.3132282e-05
1.5282052e-05
1.5180933e-05
1.1902166e-05
7.3350076e-06
5.0360778e-06
3.9541351e-06
4.0297708e-06
4.0509003e-06
3.8117443e-06
3.6238481e-06
3.4037551e-06
3.2916141e-06
3.3632752e-06
3.339085e-06
3.0980105e-06
2.9477052e-06
1.1390706e-05
6.9595773e-06
6.7520883e-06
8.0545827e-06
1.0823603e-05
1.4682738e-05
1.6448994e-05
2.2246406e-05
2.4451948e-05
2.1490062e-05
1.2167978e-05
7.6156754e-06
5.5183692e-06
5.3947556e-06
5.5775248e-06
5.2683316e-06
4.6898301e-06
4.4163289e-06
4.1680818e-06
4.3962923e-06
4.4719595e-06
4.2129271e-06
3.638149e-06
1.2783586e-05
8.3616998e-06
8.5995604e-06
1.0534108e-05
1.4933417e-05
2.0942812e-05
2.3875475e-05
3.0823036e-05
3.6009974e-05
3.3190622e-05
1.9511567e-05
1.1674129e-05
8.3165466e-06
7.4395465e-06
7.9192195e-06
7.7372558e-06
6.9123724e-06
6.5281613e-06
6.0532862e-06
6.0438315e-06
6.193857e-06
5.935519e-06
4.8928127e-06
1.4190544e-05
9.5563565e-06
9.7089591e-06
1.162962e-05
1.6934195e-05
2.6655486e-05
3.4130611e-05
4.4859981e-05
5.0530627e-05
4.4670206e-05
2.6565622e-05
1.5683461e-05
1.0784279e-05
9.1417886e-06
9.5503619e-06
9.5257907e-06
8.8774674e-06
8.6970285e-06
8.284698e-06
8.0997354e-06
8.2487345e-06
7.8396327e-06
6.4382228e-06
1.635296e-05
1.1729091e-05
1.2176185e-05
1.4388906e-05
2.115293e-05
3.8222578e-05
5.7791107e-05
7.7591873e-05
8.1691748e-05
6.7919086e-05
3.8441112e-05
2.1634124e-05
1.3979803e-05
1.1200792e-05
1.1091838e-05
1.1034887e-05
1.0514265e-05
1.003606e-05
1.0015451e-05
9.8120285e-06
9.8934744e-06
9.348644e-06
7.8997008e-06
1.8832715e-05
1.387018e-05
1.4593398e-05
1.6826183e-05
2.4384572e-05
4.6789456e-05
8.051133e-05
0.00011836479
0.00012066223
9.9847826e-05
6.0708125e-05
3.1285213e-05
1.9330856e-05
1.4802353e-05
1.3999629e-05
1.3813793e-05
1.3174279e-05
1.1772359e-05
1.1685209e-05
1.1448254e-05
1.1451333e-05
1.0820907e-05
9.1033999e-06
2.1761766e-05
1.6543518e-05
1.7423719e-05
1.9888795e-05
2.9500716e-05
6.0977805e-05
0.00012799289
0.0001720482
0.00016370096
0.00012493196
7.1710104e-05
4.731491e-05
2.9449202e-05
2.2833718e-05
2.1349678e-05
2.0617973e-05
1.8741515e-05
1.5169614e-05
1.4618678e-05
1.4240893e-05
1.4210201e-05
1.3340706e-05
1.0803325e-05
2.3284477e-05
1.9477377e-05
2.0370247e-05
2.221937e-05
3.1935221e-05
6.8656839e-05
0.00016453714
0.0002355589
0.00022157706
0.00016225238
9.2166165e-05
6.8980349e-05
5.5863413e-05
4.3927648e-05
3.9744848e-05
3.8005127e-05
3.2112939e-05
2.3213604e-05
2.160317e-05
2.1048513e-05
2.1323845e-05
1.9365285e-05
1.4047829e-05
2.2860086e-05
2.1756214e-05
2.291366e-05
2.5536054e-05
3.8905627e-05
9.1835647e-05
0.00023861503
0.00033260636
0.00029860454
0.00018906709
0.00010825442
9.2216976e-05
8.9481071e-05
6.8465915e-05
5.831099e-05
5.5055959e-05
4.0642363e-05
3.1977147e-05
3.5468084e-05
3.8501213e-05
3.8730883e-05
3.3411266e-05
2.0706298e-05
2.2052285e-05
2.366699e-05
2.52859e-05
2.8429158e-05
4.541383e-05
0.00011504048
0.00031174515
0.00043002523
0.00037105302
0.00020380486
0.00012194161
0.00011114706
0.00011522851
9.7677863e-05
7.7277142e-05
6.4613143e-05
4.2557957e-05
3.6614882e-05
4.6321437e-05
5.4413829e-05
5.467233e-05
4.5097601e-05
2.3907181e-05
1.9388084e-05
2.421131e-05
2.6957153e-05
3.2525413e-05
5.7195962e-05
0.00015000893
0.00039437884
0.0005162222
0.00042573158
0.00021377318
0.00014163327
0.00013906966
0.00015528092
0.00015056066
0.00011243262
7.0283398e-05
4.4935749e-05
4.2007429e-05
5.5232503e-05
6.4855443e-05
6.2147381e-05
4.5314e-05
2.6836256e-05
2.024786e-05
2.5186391e-05
2.8511036e-05
3.5043753e-05
6.4093115e-05
0.00017636388
0.00045752624
0.00058073674
0.00045398844
0.00023328238
0.00018039344
0.00021015316
0.00029150442
0.00031054795
0.0001992393
8.7618186e-05
5.2673838e-05
5.3181899e-05
7.1829523e-05
8.1644691e-05
7.241638e-05
4.1444601e-05
3.1353136e-05
2.388998e-05
2.8334443e-05
3.2821679e-05
4.1644901e-05
7.9659369e-05
0.00021927198
0.00052749292
0.00064581563
0.00048921945
0.00029167674
0.00026622039
0.00036150356
0.0005011855
0.00052729999
0.00031689787
0.00012310054
7.2727732e-05
8.1771383e-05
0.00011380658
0.00011797857
7.4451201e-05
4.4476218e-05
3.8962666e-05
3.1262019e-05
3.4813514e-05
3.9844265e-05
5.0036156e-05
9.6528652e-05
0.00027379152
0.00060488732
0.00070988654
0.00053804662
0.00035657289
0.00034016485
0.00047058926
0.00061269844
0.00063163148
0.00037792674
0.00016524721
0.00011913876
0.00016582045
0.00022942753
0.00021094322
8.0186751e-05
5.5822681e-05
5.7001729e-05
4.5272902e-05
4.8654816e-05
5.5636902e-05
7.2304642e-05
0.00013856425
0.00036033954
0.00067989353
0.00075671734
0.00059534723
0.00047060034
0.00047721002
0.00066523581
0.00081589485
0.0007602567
0.00041604978
0.00024788654
0.00026608623
0.00043156126
0.00048806993
0.00020741277
9.0063325e-05
7.2746888e-05
7.5459336e-05
7.0892241e-05
7.1334143e-05
7.7347937e-05
9.720873e-05
0.00017946378
0.00042368017
0.00071712263
0.00078297136
0.0007039804
0.00065363538
0.00074959957
0.0010127542
0.0011054794
0.00079726943
0.00042551891
0.00034224162
0.00044007983
0.00057851763
0.00046532275
0.00017834077
0.00011369126
0.00011025019
0.0001183977
0.00011909679
0.00010564497
0.00011643256
0.00014047071
0.00023564191
0.00047797551
0.00071629479
0.00078146631
0.00079325598
0.00084575263
0.0010965055
0.0012867986
0.0011705792
0.0007033936
0.00049181556
0.00049577297
0.00060302024
0.00060020888
0.00034079547
0.00020019931
0.00017906266
0.00018849435
0.000154154
0.00016535446
0.00013844969
0.00014707031
0.00016217657
0.00024929859
0.00048162036
0.00071014015
0.00081368808
0.00089118443
0.0010681388
0.0013152545
0.0013799513
0.0011070507
0.00073724943
0.00065950759
0.00067134385
0.00063689246
0.00049143985
0.00030693268
0.00026030749
0.00025473403
0.00022336974
0.00021719262
0.00021926446
0.00019766052
0.00021024869
0.00021202131
0.0002595935
0.00047513797
0.0007275536
0.0008840278
0.0010214715
0.001224544
0.0013365949
0.0013095238
0.0010149612
0.00082890411
0.00076262018
0.0006861048
0.00057756642
0.00039653768
0.00032099519
0.00029541934
0.00027722977
0.00027973809
0.00038150161
0.00023204299
0.00020574744
0.00022689414
0.00023573524
0.00026341877
0.00046303947
0.00073600129
0.00093435754
0.0011092046
0.0012087271
0.0012124332
0.0011270539
0.00094206303
0.00085071442
0.000782962
0.00066361058
0.00046636355
0.0003650748
0.00033065784
0.00031371427
0.00031233424
0.00037852983
0.00043133948
0.00026885216
0.0002418962
0.0002793991
0.00027313143
0.00026204121
0.00041938816
0.00070819486
0.00093144616
0.0010786766
0.0011122743
0.0010761176
0.00096874906
0.0008874435
0.0008469122
0.00076796321
0.00056741164
0.00040473405
0.00036236619
0.0003452568
0.00033403935
0.000351097
0.00040475577
0.00043350997
0.00025795935
0.00022829355
0.00029825584
0.00034426038
0.00027113964
0.00035769057
0.00063230551
0.0008755024
0.0010236035
0.0010478423
0.0010045388
0.00091217493
0.0008423138
0.00078848435
0.00064095429
0.00044270764
0.0003709534
0.00035325912
0.00034810421
0.00035103965
0.00037520577
0.00041748206
0.00044301891
0.00040665007
0.00032422184
0.00035505111
0.00040439684
0.00032259726
0.00034052408
0.00055958435
0.00082317299
0.00097361355
0.00099212595
0.00092040006
0.00082406617
0.00075070597
0.00066449263
0.00047664912
0.00035856451
0.00033820028
0.00035147869
0.00036788114
0.00037359172
0.00040362653
0.00045254875
0.0005080553
0.00054011054
0.00047180174
0.00048704085
0.00049601344
0.00041312711
0.00035539162
0.00049020268
0.00073657213
0.00087103466
0.00090666992
0.00086527643
0.00078087475
0.00068826087
0.00054946747
0.00036946683
0.0003192565
0.00032001344
0.00034668435
0.0003665719
0.00038638175
0.00044542646
0.00054675725
0.00072863839
0.00069181532
0.00083322924
0.00088074366
0.00079078108
0.00055388992
0.00038181265
0.00044873126
0.00071822526
0.00081129732
0.00080660538
0.00074697339
0.00065702189
0.00053989514
0.00039604092
0.00032318714
0.0003076322
0.0003211256
0.00035357433
0.00038912445
0.00046880099
0.00064011928
0.00094555142
0.001448102
0.00067382159
0.00094607636
0.0011227044
0.0010781625
0.00089052586
0.00046618604
0.00043612187
0.00058143166
0.00074287439
0.00075490841
0.00071297844
0.00063996353
0.00054107178
0.00040007495
0.00031299105
0.00029438647
0.00030636432
0.00033894392
0.00037554525
0.00044483326
0.0005946535
0.00088579051
0.001392603
0.00072034608
0.0010525147
0.0012723994
0.0013322576
0.0012062137
0.00074415826
0.00046514575
0.00049881736
0.00064781936
0.00071548629
0.00069918951
0.00063933472
0.00053982446
0.00040418714
0.00030678498
0.0002726492
0.0002772477
0.00030378375
0.00034072964
0.00040633435
0.00054981407
0.00084802776
0.0013901596
0.00062846934
0.00099069833
0.0012841532
0.0014554993
0.001397187
0.001096686
0.00056437815
0.00048583862
0.00056464691
0.0006614467
0.00067413091
0.000637057
0.00054498027
0.0004155326
0.00030457919
0.00025390347
0.00024914119
0.00026668057
0.00030340981
0.00036637594
0.0005089005
0.00083481306
0.0013971993
0.00061216368
0.00092099005
0.0012360744
0.0014716903
0.0014648015
0.0012201101
0.00068822651
0.00048438956
0.0005133849
0.00059468617
0.00062340748
0.00061075121
0.00054242099
0.00042301611
0.00031082135
0.00024668206
0.00023282282
0.0002423499
0.00027113896
0.00032662346
0.00045944536
0.0007942481
0.0013348143
0.00054095281
0.00085496775
0.0011210822
0.0013713305
0.001417577
0.0011953847
0.00069666653
0.00047760088
0.00047980507
0.00054112821
0.00057544752
0.00057090941
0.00052592878
0.00042227817
0.00031625125
0.00024534909
0.00022397446
0.00022721462
0.00024760575
0.00029379236
0.00040721812
0.00071296028
0.0012270731
0.00048795892
0.00077483598
0.00098349111
0.0011657311
0.0012374682
0.0010626927
0.00065651727
0.00045379974
0.00044947305
0.00050691736
0.00054333881
0.00054203264
0.00050937593
0.00041888832
0.00031714677
0.00024284501
0.00021071806
0.00021076708
0.00022486266
0.00026105088
0.00035066843
0.00060895901
0.0010948688
0.0004167449
0.00069100783
0.00085785721
0.00094953248
0.00097004042
0.00082535472
0.00055249327
0.00042576812
0.00042595782
0.00047980658
0.00051470882
0.00051743886
0.00049265059
0.00041719314
0.00031974146
0.00024271077
0.00019842178
0.00019500667
0.00020223796
0.00022627908
0.00029128
0.00048968072
0.00090711303
0.00035847875
0.00060554899
0.00074744056
0.00080425017
0.00077608782
0.00065549188
0.00048923782
0.00041576713
0.00041666047
0.00045998097
0.00048679783
0.00049036822
0.00047218499
0.00041158639
0.00032337536
0.00024660343
0.00019682465
0.00018061708
0.0001849998
0.00020023375
0.00024240779
0.00037854006
0.00066474622
0.00030906681
0.00052423656
0.00065490503
0.00070356064
0.00066057198
0.00055577304
0.00045803882
0.00041412736
0.00041615481
0.00044957226
0.00046982795
0.00046997905
0.00045479473
0.00040636305
0.00032836943
0.0002528906
0.00019904221
0.00017288388
0.00017236953
0.00017971849
0.00020487001
0.00028927027
0.00047816369
0.0002663878
0.00044101262
0.00057387889
0.00063040165
0.00060573701
0.00051345458
0.00044164564
0.0004098617
0.00041413141
0.00044051992
0.00045785602
0.00045676403
0.00044406393
0.00040598168
0.00033914684
0.00026634841
0.00020514961
0.00017295096
0.00016115608
0.0001643942
0.00017603172
0.00022218246
0.00039446597
0.0002271932
0.00035034477
0.00048943552
0.00057131293
0.00057570918
0.00050422595
0.00043791113
0.00040630084
0.00040887991
0.00042885659
0.00044273484
0.0004422008
0.00043246472
0.00040428176
0.00035018079
0.00028588813
0.00022068798
0.0001771559
0.00015990729
0.00015381715
0.00015787829
0.00017779529
0.0002849215
0.00020117571
0.00026841854
0.00040155595
0.00050895743
0.00054285185
0.00049818447
0.00043906078
0.0004041698
0.00040179
0.00041494991
0.00042770475
0.00042817729
0.00042156487
0.00040120308
0.00035830136
0.00030358494
0.00024601106
0.0001900258
0.00016332899
0.00015285
0.00014985804
0.00015548001
0.0001962725
0.00019108163
0.00020643772
0.00031693267
0.00043364677
0.00049334562
0.00048293872
0.00043758492
0.00040079792
0.00039072423
0.00039732882
0.0004112598
0.00041538479
0.00041226251
0.00039980288
0.00037125531
0.00032419454
0.00027192267
0.00021731946
0.00017410003
0.00015527335
0.00014869002
0.00014682191
0.00015816028
0.00019104153
0.0001676685
0.00024644642
0.00035298012
0.0004298491
0.00045546479
0.00043378114
0.00039983058
0.00038170307
0.00038173697
0.00038954105
0.00039845202
0.00039894224
0.00039419965
0.00037723165
0.00034277757
0.00029760628
0.00024770832
0.00019871999
0.0001640499
0.00015041571
0.00014509944
0.00014652088
0.0001931391
0.00014933362
0.00020178482
0.00028516454
0.00035966488
0.00040563825
0.00041590199
0.00039643904
0.00037708408
0.00036892813
0.00037038391
0.0003765646
0.00038124996
0.00038040256
0.00037402692
0.00035710448
0.00032353971
0.00028011139
0.0002346659
0.00018839844
0.00015999757
0.00014740905
0.00014714683
0.00019244077
0.00014253805
0.00017956131
0.00024052955
0.00029989443
0.00034741351
0.00037420183
0.00037887487
0.00036865037
0.00035969871
0.00035709054
0.0003591856
0.00036437296
0.0003673988
0.00036688713
0.00035911873
0.00034221537
0.00031095978
0.00027202729
0.00022853379
0.00018552017
0.00015858773
0.00014470524
0.00018839787
0.00013639312
0.00016731567
0.00021388946
0.00025862033
0.00029818489
0.00032812327
0.00034486568
0.00034946174
0.00034748141
0.00034613754
0.00034722601
0.00035104129
0.00035481188
0.00035638432
0.00035516503
0.00034753901
0.00033077207
0.0003043882
0.00026825267
0.00023005968
0.00018888145
0.00015910262
0.00018270195
0.00013028087
0.00015935152
0.00019852105
0.00023323394
0.00026320845
0.00028860058
0.00030795667
0.0003203361
0.00032712672
0.00033131413
0.00033516572
0.00033956555
0.00034376131
0.00034676624
0.00034759019
0.00034544366
0.00033872973
0.00032489754
0.00030326913
0.00027028409
0.00024112244
0.00019563284
0.0001750751
0.00012161351
0.000149657
0.00018566217
0.000215993
0.00024026727
0.00026064979
0.00027803297
0.00029246952
0.00030394998
0.0003130996
0.0003206785
0.00032720351
0.00033265243
0.00033706419
0.0003396831
0.00034051766
0.00033834983
0.00033325997
0.00032279528
0.00030107102
0.00028211625
0.00024094796
0.00016665177
0.00011292113
0.0001396675
0.00017331177
0.00020225951
0.000224853
0.00024277778
0.00025791608
0.00027138872
0.0002837723
0.00029513201
0.00030532086
0.00031413053
0.00032136199
0.00032712538
0.00033121711
0.00033388103
0.00033499605
0.00033384018
0.0003299011
0.00031979449
0.00030814923
0.00028064684
0.00015759958
0.00010362382
0.00012824939
0.00015955679
0.00018821656
0.00021185276
0.00023072668
0.00024602122
0.00025925147
0.00027147689
0.00028319762
0.00029430262
0.00030451618
0.00031347458
0.00032115905
0.00032754319
0.00033232816
0.00033493356
0.00033489153
0.00033334499
0.00032902548
0.00032252429
0.0003068785
0.00014810721
9.7377551e-05
0.00011974292
0.00014747908
0.00017496141
0.00019977761
0.00022113606
0.00023892133
0.00025376854
0.00026686217
0.00027901335
0.00029050693
0.00030135595
0.00031153502
0.00032052697
0.00032782856
0.0003333191
0.00033676373
0.00033835708
0.00033821321
0.00033651074
0.00033309542
0.00032524578
0.00013790233
9.2142142e-05
0.00011037242
0.0001334927
0.00015854801
0.00018350359
0.00020716003
0.0002287146
0.00024732379
0.00026296664
0.00027687872
0.00028964032
0.00030153908
0.00031257899
0.00032246343
0.00033103687
0.00033809399
0.00034353822
0.00034769876
0.00035021465
0.00035106015
0.00034987069
0.00034601026
0.00012696867
9.1934606e-05
0.00010490297
0.0001213532
0.00014175505
0.0001642234
0.00018755175
0.00021099055
0.00023386552
0.0002542388
0.00027184607
0.00028741913
0.00030131179
0.00031410125
0.00032607809
0.00033706328
0.00034676721
0.00035511616
0.00036212273
0.00036766097
0.00037148583
0.00037353717
0.00037310342
0.00011692864
9.2353961e-05
9.9890832e-05
0.0001097642
0.00012500155
0.00014325729
0.00016341936
0.00018495519
0.00020755104
0.00023145558
0.00025504557
0.00027598424
0.00029432541
0.00031020092
0.00032436577
0.00033708613
0.00034888026
0.00035976989
0.00036969794
0.00037852127
0.0003860303
0.00039245216
0.00039742903
0.00010360758
9.8060904e-05
9.488011e-05
9.9417337e-05
0.00011007539
0.00012436763