/*--------------------------------*- C++ -*----------------------------------*\
| =========                 |                                                 |
| \\      /  F ield         | OpenFOAM: The Open Source CFD Toolbox           |
|  \\    /   O peration     | Version:  2406                                  |
|   \\  /    A nd           | Website:  www.openfoam.com                      |
|    \\/     M anipulation  |                                                 |
\*---------------------------------------------------------------------------*/
FoamFile
{
    version     2.0;
    format      ascii;
    arch        "LSB;label=32;scalar=64";
    class       volScalarField;
    location    "190";
    object      rho;
}
// * * * * * * * * * * * * * * * * * * * * * * * * * * * * * * * * * * * * * //

dimensions      [1 -3 0 0 0 0 0];

internalField   nonuniform List<scalar> 
20580
(
0.99915465
1.0017264
1.0033213
1.0040468
1.0021148
1.0036487
1.0029579
1.0032772
1.0041732
1.0039516
1.0037512
1.0039158
1.0048335
1.0045936
1.0040016
1.0053537
1.0049476
1.0028591
1.0074445
1.0052635
1.0019177
1.0055039
1.006792
1.0023978
1.0007824
1.0096809
1.008549
1.0036046
1.0083725
1.0049084
0.98967856
0.99884475
1.0016946
1.0035978
1.0042251
1.0020852
1.0036949
1.0028743
1.0029526
1.004272
1.003859
1.0035619
1.0040277
1.004848
1.0041469
1.0044005
1.0058087
1.0036942
1.0036742
1.0085394
1.0030725
1.0019677
1.0071056
1.0056533
1.0012882
1.0025221
1.0135954
1.0117292
0.99990793
1.0026052
1.0093977
0.99945192
0.9996868
1.0022873
1.0033188
1.0037043
1.0024817
1.0034234
1.0030019
1.0029748
1.0040337
1.0037705
1.0035425
1.0041325
1.0047386
1.0036353
1.0045631
1.0059666
1.0027687
1.0044
1.0089885
1.0018908
1.0029864
1.0086443
1.0048024
1.0016914
1.0034207
1.0139517
1.0130466
0.99777822
0.99714716
1.0119808
1.0129641
1.0012527
1.0033537
1.0026698
1.0027086
1.0031248
1.0030683
1.0033214
1.0033496
1.0036511
1.0038017
1.0035519
1.0042268
1.0046021
1.0033239
1.0046547
1.0058078
1.0026314
1.0051484
1.0082707
1.0015896
1.0045992
1.0096279
1.0042892
1.0037368
1.0042347
1.0105647
1.0117219
0.99808866
0.99343671
1.0098903
1.0236535
1.0030378
1.0044556
1.0019696
1.0017126
1.003632
1.0028632
1.0035769
1.0038629
1.0033767
1.0039538
1.0036762
1.0042134
1.0043065
1.0035255
1.0046118
1.0051804
1.0031828
1.0060861
1.0065744
1.0018159
1.0064908
1.0092999
1.00327
1.0062234
1.0060405
1.0051394
1.0078457
1.0011877
0.99389368
1.0041265
1.0228654
1.0044246
1.0052206
1.0015688
1.001283
1.0038141
1.0028581
1.0036829
1.004134
1.0033165
1.0039479
1.0038417
1.0042017
1.0038054
1.0040946
1.004616
1.0043138
1.0039313
1.0067448
1.0044037
1.002576
1.0082101
1.0079436
1.0012353
1.0081632
1.0089746
1.0005017
1.0026068
1.0061552
1.0000264
0.99925968
1.0112731
1.0045757
1.0051849
1.0016262
1.0015589
1.0036879
1.0030832
1.0036197
1.0039274
1.0033673
1.0035883
1.0039257
1.0042319
1.0033805
1.0046785
1.0045844
1.0035834
1.0046862
1.0070912
1.0025393
1.0034695
1.0089424
1.0062711
0.99924919
1.0084691
1.0118703
0.99901775
0.99756498
1.0095782
1.0108796
1.0004108
0.99714393
1.0034061
1.0043522
1.0021123
1.0023974
1.0032778
1.0033602
1.0033161
1.0034418
1.0035143
1.0031459
1.0041146
1.0041919
1.0030797
1.0049418
1.0047522
1.0032724
1.0052482
1.0071773
1.0014275
1.0047274
1.0086956
1.0045667
0.99854603
1.0070036
1.0131548
1.0008297
0.99495413
1.0091157
1.0199395
1.0081737
0.99202938
1.0014793
1.0031388
1.0027712
1.0034003
1.0027716
1.00348
1.003046
1.0030429
1.003786
1.0030386
1.004302
1.00403
1.0033442
1.0048042
1.0048978
1.0032324
1.0054864
1.0064727
1.0012949
1.0060592
1.0078419
1.0035691
0.99997546
1.0053496
1.0115331
1.004224
0.99635098
1.0058277
1.0206479
1.016623
0.99689178
0.99996096
1.0020521
1.0032447
1.0041023
1.0024944
1.0034062
1.0030698
1.0030222
1.0039703
1.0033956
1.0043194
1.0038756
1.0039785
1.0046046
1.0047414
1.0036627
1.0054483
1.0053453
1.0020445
1.0073744
1.0060068
1.0029171
1.0035727
1.0048544
1.0071966
1.0067625
1.0013928
1.0031868
1.0123101
1.0175563
1.006419
0.99929818
1.0016969
1.0035019
1.0042736
1.0025913
1.0032835
1.0033783
1.0033966
1.0038469
1.0039549
1.0040335
1.0038279
1.0045011
1.004246
1.0044284
1.0043209
1.0053545
1.0041502
1.0032545
1.0085165
1.0041436
1.0022045
1.0082836
1.0058592
1.0020533
1.0066079
1.0081836
1.0033718
1.001558
1.0079608
1.0116247
0.99968
1.0021804
1.0032648
1.0036827
1.0028227
1.0032175
1.0037502
1.0038734
1.0034965
1.0043645
1.0036135
1.0038085
1.0048445
1.0040533
1.003961
1.0050022
1.0053045
1.0029585
1.0044844
1.008957
1.0030348
1.0013276
1.0119731
1.0082535
0.99845387
1.0039587
1.0134714
1.0070963
0.99590625
0.9949829
1.0080693
1.0011074
1.0034021
1.0027017
1.0026896
1.0031509
1.0033159
1.0038795
1.0040841
1.0032471
1.004379
1.0034969
1.0037115
1.0049792
1.0041511
1.0035627
1.005445
1.0053275
1.0023505
1.0056241
1.0086162
1.0024353
1.0006747
1.0129537
1.0106012
0.99731976
1.0008018
1.0146552
1.0126687
0.99704547
0.98903994
0.99974521
1.0030904
1.0046278
1.0020858
1.001788
1.003451
1.0033422
1.0037313
1.0037525
1.0032904
1.0040999
1.003708
1.0036536
1.0049199
1.0040821
1.0034249
1.0054386
1.0053854
1.002582
1.0064746
1.007479
1.0027217
1.0011539
1.0112501
1.0108778
0.99850686
0.99933706
1.0113936
1.0153364
1.0028914
0.9920548
0.99522981
1.0044424
1.005439
1.0019463
1.0015816
1.0036371
1.0034268
1.0033699
1.003207
1.0036978
1.0038363
1.0039572
1.0038209
1.004617
1.004091
1.0036928
1.0052574
1.0050856
1.0032748
1.0069144
1.0053046
1.0038744
1.0032397
1.0079791
1.0081416
1.0015976
1.0009753
1.0063392
1.0114766
1.0089673
1.0012172
0.99837662
1.00411
1.0054127
1.002229
1.0020222
1.0037317
1.0035809
1.0030299
1.0029085
1.0042073
1.0037653
1.0041493
1.0042628
1.0041453
1.0041181
1.0043807
1.0048629
1.0045055
1.0042957
1.0072415
1.0028428
1.0047832
1.0065266
1.0048361
1.0031956
1.0047553
1.0054474
1.0034812
1.0027248
1.0087836
1.0110648
1.0069109
1.0026142
1.0042683
1.0025667
1.0027382
1.0035037
1.0034138
1.0030424
1.0031528
1.0043125
1.0035944
1.0041818
1.0048815
1.00377
1.0043032
1.0051541
1.004423
1.004026
1.0052837
1.0074662
1.001054
1.0050543
1.0099595
1.0039323
0.99847401
1.0063538
1.011581
1.0045427
0.99617906
1.00252
1.0149118
1.0157491
1.0006146
1.0027069
1.0028819
1.0035458
1.003001
1.0031878
1.0033247
1.0037097
1.0040988
1.0032516
1.0041338
1.0050854
1.003453
1.0045597
1.0055919
1.0041836
1.0036002
1.0059043
1.0073683
1.0003438
1.0048309
1.0121018
1.0046147
0.99646365
1.0058757
1.0159952
1.0081189
0.99537651
0.99639974
1.0117989
1.019035
0.99941209
1.001742
1.0031662
1.0042031
1.002687
1.0032747
1.0038262
1.0044133
1.0036045
1.002998
1.0041491
1.0047743
1.003508
1.0045914
1.0055894
1.0042154
1.0034706
1.0060313
1.0068203
1.001023
1.0044584
1.0119257
1.0057803
0.99756616
1.0045538
1.0162809
1.0109514
0.9982755
0.99592612
1.0054246
1.015849
0.99932355
1.0017073
1.003081
1.0040858
1.0026211
1.0032039
1.0041891
1.0044706
1.0034484
1.0032554
1.0042055
1.0041975
1.0038547
1.0043843
1.0051738
1.0044277
1.003924
1.0056825
1.0057046
1.0029702
1.004613
1.0087984
1.0066728
1.0006877
1.0047328
1.0114278
1.0106575
1.0027068
0.99995355
1.0024974
1.0079191
1.0004725
1.0027629
1.0027575
1.003265
1.0027165
1.0032172
1.0040165
1.0040971
1.002987
1.0037657
1.0042453
1.003799
1.0042969
1.0043196
1.0045274
1.0046787
1.0046627
1.0054075
1.0039546
1.0055659
1.0056018
1.0048115
1.0056528
1.0051003
1.0065307
1.0057197
1.0048792
1.0067898
1.006493
1.004244
1.0013493
1.0027075
1.0044178
1.0023087
1.002383
1.0031335
1.0035145
1.0035218
1.0032458
1.0039091
1.0036717
1.0041769
1.0037727
1.0047022
1.0044975
1.0039342
1.0047873
1.0053742
1.0054427
1.0023226
1.0076975
1.0072916
1.0019005
1.0031332
1.0090337
1.0095278
1.0026841
0.99819004
1.0065354
1.0137871
1.0099134
1.0001082
1.0044919
1.0059312
1.0027715
1.0023495
1.0041959
1.0042972
1.0029317
1.0042592
1.0039763
1.0041873
1.0046298
1.0041358
1.0051671
1.0051608
1.0037307
1.0047435
1.006178
1.0060716
1.0014011
1.0085174
1.009412
1.0010353
1.0010171
1.0101741
1.0131186
1.0031607
0.99474979
1.0027959
1.0166618
1.0157385
1.0033961
0.9948931
0.99813451
1.0039289
1.0095477
1.0121639
1.0100905
1.0042353
1.0010508
1.0045273
1.0132176
1.0191441
1.0170753
1.0060788
0.99155911
0.98447247
0.99012806
1.005934
1.0206545
1.0225344
1.010924
0.99761954
0.99392484
0.99934612
1.0124151
1.0119341
1.0078831
1.0008919
0.99257643
0.98801137
0.99002801
0.99843942
1.0109905
1.0208952
1.0219729
1.0133107
1.0018501
0.9971778
1.0015625
1.0111419
1.0169525
1.0115098
0.99715605
0.98406835
0.98381664
0.9974295
1.0176021
1.0231666
1.0162357
1.0075887
1.0002624
0.99797061
1.000396
1.0047431
1.0079899
1.0071965
1.0021579
0.99374508
0.98907931
0.99397028
1.0086206
1.0257233
1.0330419
1.0253777
1.0064105
0.98729294
0.98082794
0.98824752
1.004355
1.0189061
0.9975101
0.99513061
0.99901842
1.0095946
1.0220915
1.0298324
1.0301038
1.0196708
1.0035102
0.98780363
0.98169427
0.9855097
0.99745925
1.0101091
1.0193792
1.0176051
1.0066466
0.9970945
0.99769655
1.0087877
1.0224564
1.0273747
1.0173676
0.9828499
0.98860139
0.99914035
1.0107122
1.0195182
1.0221939
1.0151287
1.0051969
0.99862999
1.0015975
1.0111083
1.020951
1.0234535
1.0159021
0.99979978
0.98171299
0.97282092
0.97827339
0.99859503
1.0277913
1.0487348
1.0457418
1.0216104
1.0151103
1.0164529
1.0119173
1.0030697
0.99297306
0.98372074
0.97796178
0.98033778
0.99343437
1.0149474
1.037033
1.0482441
1.0422749
1.0212896
0.99620406
0.97954124
0.97668822
0.9853254
1.0012349
1.0175935
1.0273591
1.020411
1.005449
1.0422511
1.0314253
1.0161062
0.99985731
0.9879282
0.98221107
0.98414691
0.99093086
1.0002968
1.0108254
1.0180989
1.019309
1.0112985
1.0022485
0.99985667
1.0089493
1.0233394
1.0323804
1.0296849
1.0140996
0.9930016
0.97448444
0.96795153
1.0085205
1.0034151
1.002663
1.0050797
1.0145563
1.0266558
1.0355941
1.0350515
1.0231057
1.0039278
0.98507215
0.97199659
0.96603057
0.97130843
0.99025196
1.0209515
1.0549562
1.0716957
1.0601511
1.0267518
0.99133294
0.96775316
0.9603936
0.97090502
0.97224775
0.98387399
1.0056386
1.0335658
1.0581694
1.0681923
1.0561411
1.0314825
1.0045998
0.98508096
0.97413859
0.97274699
0.97766122
0.99054572
1.0115316
1.0334402
1.0459171
1.0375133
1.021929
1.0069738
1.0013453
1.0036188
0.98105495
0.99014101
1.0013086
1.0113257
1.0180992
1.0230079
1.0242534
1.0204509
1.0147886
1.0086464
1.0095674
1.0180241
1.0292985
1.0334787
1.0266786
1.0116311
0.99583255
0.98553143
0.97990908
0.98071812
0.9933537
1.020641
1.0548952
1.0490127
1.0417653
1.0255476
1.0067574
0.98923673
0.97811978
0.97169303
0.96857244
0.97402327
0.99081961
1.0229597
1.0631619
1.0939693
1.0933525
1.0634178
1.0216392
0.98691397
0.96495225
0.95321918
0.95172106
0.96801825
1.0032838
1.0542772
1.0982461
1.0733503
1.0363293
1.0025086
0.97939358
0.96779203
0.96364873
0.96278533
0.96923791
0.98621627
1.01633
1.0568719
1.09315
1.0990639
1.0764718
1.0377773
1.0028002
0.98271809
0.97461099
0.97406604
0.98176423
0.99793683
1.0239657
1.0669731
1.0512914
1.0333372
1.0167275
1.0041903
0.99872155
0.9988049
1.0013564
1.0069422
1.0110751
1.0164277
1.0259931
1.0375743
1.0445521
1.0403255
1.0313529
1.023402
1.0224684
1.0297403
1.0337991
1.031133
1.0201788
1.0114381
1.0060505
1.0050663
1.0082658
1.0180484
1.0338345
1.0539193
1.070309
1.0738443
1.0621977
1.0398106
1.0161227
0.99962366
0.99333192
0.99132601
0.99136263
0.99616718
1.0131876
1.0462083
1.0847328
1.108543
1.0965752
1.0572421
1.0174469
0.97246069
0.97450537
0.98326353
1.0052074
1.0437415
1.0933603
1.1348497
1.1424381
1.1101206
1.0594725
1.0134108
0.98525302
0.97496946
0.97165551
0.96806395
0.97302033
0.99392249
1.0407965
1.106033
1.1564461
1.1506535
1.0966986
1.034576
0.96813576
0.97091263
0.97964798
1.0024507
1.0475722
1.106998
1.1578582
1.1697292
1.1315528
1.0708869
1.0182125
0.98919503
0.97855554
0.97692961
0.97322951
0.97352481
0.98973542
1.032276
1.0999426
1.1615112
1.171969
1.1230198
1.0539639
0.98311548
0.98681181
0.99234913
1.011864
1.0514722
1.1048282
1.151319
1.1631725
1.1316024
1.0775457
1.031269
1.0046752
0.99714659
0.99514749
0.99139108
0.98974369
0.99892556
1.0310762
1.0894329
1.1472961
1.1647426
1.1270462
1.0680145
1.0083044
1.0090345
1.0108449
1.0235297
1.0544061
1.0985967
1.1388073
1.1522373
1.1275411
1.0835342
1.044782
1.0226004
1.0192689
1.0191363
1.017307
1.012347
1.0128297
1.0346327
1.0796877
1.1296667
1.1527282
1.1235102
1.0743221
1.0310767
1.0301351
1.0297809
1.0367934
1.0605499
1.0964656
1.1318346
1.1447983
1.1240134
1.0875956
1.0568837
1.0406618
1.0399865
1.0420734
1.040636
1.0307625
1.0257134
1.0410933
1.0778271
1.1218308
1.1440546
1.1169144
1.0769561
1.0501287
1.0462721
1.0419425
1.045734
1.0673137
1.1025296
1.1377063
1.1496284
1.1274512
1.0916467
1.0633664
1.0517756
1.0563661
1.0607959
1.0577636
1.044124
1.0341282
1.0499673
1.0875638
1.1297733
1.1467509
1.1144826
1.0769849
1.0549723
1.0508517
1.0455028
1.050255
1.0761298
1.1188684
1.1590395
1.1684482
1.1391902
1.0976666
1.0666102
1.0578052
1.0645823
1.0700576
1.0612152
1.0456855
1.0414694
1.0663434
1.1115749
1.1529467
1.1561609
1.1145051
1.0774038
1.0495076
1.0445564
1.0401732
1.0516044
1.0894665
1.1474937
1.1981889
1.2045918
1.1610206
1.1044015
1.0653863
1.0555931
1.0605476
1.0642516
1.051097
1.0388939
1.0491383
1.0909942
1.1504863
1.1899894
1.1645704
1.1105408
1.0724556
1.0381375
1.0334168
1.0322278
1.0504613
1.1041328
1.1867234
1.2550385
1.2518759
1.1828376
1.1062259
1.0588895
1.0463612
1.0476626
1.0479139
1.0329265
1.0292663
1.0630331
1.1350862
1.2098831
1.2321032
1.1673093
1.1018322
1.065468
1.0445753
1.0387123
1.0363205
1.05834
1.1261481
1.2267994
1.3060981
1.2872697
1.194594
1.1024836
1.050782
1.0367079
1.0321925
1.0304235
1.0177186
1.0314857
1.0960234
1.1989783
1.2770321
1.250054
1.1541101
1.0812559
1.0486236
1.0890687
1.0780534
1.0721135
1.0901651
1.1473342
1.2370151
1.3039163
1.2748793
1.1851085
1.1014727
1.0528511
1.0384301
1.0325442
1.0263731
1.0250686
1.0635064
1.1580912
1.2673383
1.302428
1.2153108
1.1165103
1.0603552
1.0329795
1.2069542
1.1660113
1.1275803
1.1152656
1.1348252
1.1851672
1.2264854
1.208256
1.1572843
1.1065683
1.0777571
1.0695183
1.0701391
1.0672773
1.0804153
1.1310343
1.2131063
1.2681153
1.2395112
1.148169
1.0838519
1.0547151
1.0354853
1.3499936
1.2577778
1.1557745
1.0977755
1.0853157
1.1106365
1.1384399
1.1292807
1.1137555
1.1131573
1.1350639
1.1601366
1.169025
1.149604
1.1429371
1.1661144
1.1890047
1.1841202
1.1297738
1.0930258
1.0841185
1.0792794
1.0789057
1.3682083
1.2773581
1.1587449
1.0817996
1.0602038
1.0778243
1.0945005
1.0877205
1.0990227
1.1513805
1.229963
1.2782377
1.2498169
1.1859933
1.1452565
1.1265255
1.1052584
1.0765032
1.0557854
1.0800436
1.1310113
1.169118
1.1711691
1.3437945
1.2735965
1.170689
1.1097802
1.0913691
1.1098201
1.1231212
1.1222223
1.1435287
1.1989052
1.2608238
1.2777958
1.2226093
1.1538917
1.1112165
1.0792163
1.0563061
1.0394748
1.0650631
1.1416325
1.2117858
1.2405619
1.2133267
1.3379308
1.2926861
1.2066325
1.1545319
1.1641027
1.1987638
1.2049153
1.1792355
1.1656183
1.174854
1.1830162
1.1762307
1.1442868
1.1238219
1.1144606
1.1038888
1.0926125
1.0989944
1.1394674
1.1851604
1.1989104
1.1790754
1.1509988
1.3459807
1.3004787
1.227497
1.1714299
1.1767571
1.2210317
1.2263425
1.1848554
1.1469267
1.1273416
1.1113118
1.0971646
1.0974064
1.1305651
1.1739813
1.1937191
1.1845511
1.1654522
1.1485195
1.1220722
1.0968813
1.0813829
1.0852115
1.3639585
1.3211894
1.2468381
1.1545253
1.127101
1.1620498
1.1833511
1.1700599
1.1484662
1.1295794
1.1125688
1.1041694
1.1157968
1.1611445
1.2073375
1.2234194
1.1992779
1.1615207
1.1172763
1.0714232
1.0480265
1.0550241
1.0801365
1.2946248
1.2916862
1.2628967
1.1849442
1.1092162
1.1222951
1.1459875
1.1569244
1.1729501
1.1835409
1.1741264
1.1520758
1.1437904
1.1532569
1.1566693
1.1496374
1.1388271
1.1311315
1.1213245
1.1144738
1.115298
1.1149269
1.1274755
1.2284999
1.2495959
1.2713243
1.2570236
1.1762844
1.1459637
1.1501478
1.1551351
1.1730565
1.1950349
1.1974319
1.176968
1.1519537
1.1272218
1.1014457
1.0847958
1.0877033
1.1085263
1.1416867
1.175396
1.1939477
1.1974301
1.1935387
1.2210601
1.2359079
1.2646
1.2844176
1.246549
1.1835399
1.1627231
1.1462078
1.1419863
1.1508884
1.1564226
1.1554969
1.1509308
1.1356211
1.1122759
1.0975043
1.0988364
1.1148809
1.1342629
1.1569795
1.1824063
1.2161116
1.2566954
1.2415326
1.2502224
1.2557786
1.2653155
1.2600217
1.2083903
1.1741283
1.1536344
1.137227
1.1290463
1.1245535
1.1290989
1.1447208
1.1580696
1.1608664
1.1571339
1.1473937
1.1332684
1.1161117
1.1082944
1.113758
1.1398583
1.196364
1.2409868
1.2539119
1.2547054
1.2514006
1.2445665
1.2141226
1.1777566
1.1652221
1.1611016
1.1541039
1.1427605
1.1324523
1.1317836
1.1411528
1.1490251
1.1528777
1.1537847
1.1476735
1.1333005
1.1223321
1.1224005
1.1434606
1.1870047
1.2146285
1.2382689
1.258193
1.2667014
1.2568981
1.2298748
1.1856081
1.1633828
1.1659305
1.1747951
1.1741197
1.1615037
1.1474226
1.1364552
1.1263635
1.1181372
1.1141647
1.1134445
1.1166746
1.1268304
1.1510072
1.1931645
1.2273684
1.2023697
1.2182759
1.2496711
1.2782574
1.2865692
1.261817
1.2088983
1.1642909
1.1514162
1.1554756
1.1609714
1.16051
1.1538094
1.1450656
1.1335895
1.118972
1.1073542
1.0998635
1.0988247
1.111428
1.1441112
1.1975803
1.2260518
1.2181931
1.2180478
1.2339902
1.2564026
1.2723462
1.262791
1.2200494
1.1709577
1.145589
1.1394079
1.1388849
1.1375028
1.1354706
1.1363197
1.1377482
1.1372171
1.1347321
1.1302559
1.1223605
1.1188597
1.1344576
1.1770873
1.1999429
1.2278176
1.2176475
1.219918
1.2300234
1.237982
1.2318633
1.2056068
1.1729414
1.1556102
1.1514706
1.1502812
1.1459876
1.1380682
1.1316991
1.129662
1.1319964
1.1377684
1.1414794
1.1368679
1.1281004
1.1297998
1.1566269
1.1841087
1.2167218
1.207294
1.2089048
1.2169726
1.2217011
1.2131783
1.1922654
1.1683738
1.1561606
1.1565928
1.1613615
1.1633226
1.1573842
1.1456306
1.132455
1.1236183
1.1221049
1.1251496
1.1228258
1.1141425
1.1123185
1.1319395
1.1668812
1.2141035
1.2001644
1.1991967
1.2064198
1.21381
1.2089393
1.1914367
1.1692365
1.1531655
1.1452491
1.1457291
1.1504414
1.1521479
1.1476683
1.1374142
1.126236
1.1204292
1.1213685
1.1215152
1.1150421
1.1094553
1.1200147
1.1514254
1.2255008
1.2042275
1.1914186
1.1873975
1.1896906
1.1881099
1.1817824
1.1702808
1.1571574
1.1460488
1.1388414
1.1384833
1.1413342
1.1419553
1.1376908
1.1303592
1.1254088
1.1266786
1.1302055
1.1287612
1.123471
1.1262018
1.1431977
1.2337885
1.2127811
1.196844
1.1823755
1.1734431
1.1680955
1.1642238
1.1617896
1.1589157
1.1544157
1.1504406
1.1492298
1.1502385
1.1507861
1.147059
1.1386956
1.1295496
1.1256495
1.1256326
1.1252299
1.1211674
1.1195117
1.1282944
1.2273959
1.2107051
1.2017285
1.192303
1.1816581
1.1723864
1.1651445
1.1603062
1.1580394
1.1565354
1.1544153
1.1524674
1.1515814
1.1512703
1.148337
1.1415934
1.1320252
1.1239419
1.1204471
1.118451
1.1151489
1.1131585
1.1174954
1.2357582
1.2158065
1.205205
1.1973767
1.1886038
1.1800454
1.1717633
1.1648995
1.1608399
1.1578467
1.1541975
1.1498005
1.1455764
1.1426974
1.1408397
1.1383382
1.1340538
1.1294575
1.1266461
1.1254263
1.1232274
1.120813
1.1219873
1.2521054
1.233056
1.2157124
1.2004625
1.1870867
1.1756767
1.1664392
1.1606669
1.1582877
1.1582176
1.1580626
1.1560509
1.1524164
1.1485735
1.1458
1.1441226
1.1420915
1.1391052
1.1354429
1.132036
1.1276589
1.1223844
1.1201244
1.249098
1.2379874
1.2233196
1.2082788
1.194402
1.1829151
1.1735372
1.1669652
1.1634847
1.1625217
1.1624083
1.1613241
1.1583435
1.1543775
1.1507339
1.1482484
1.1462219
1.1428888
1.1378772
1.1319431
1.1255872
1.1190817
1.1147331
1.2490988
1.2425277
1.2310483
1.2179949
1.2058197
1.1953406
1.1865834
1.1791213
1.1729774
1.1682766
1.1642562
1.1604072
1.1564981
1.1524147
1.1495749
1.1479821
1.1470489
1.1451977
1.1415032
1.136267
1.1311859
1.1268041
1.1231515
1.2517725
1.24935
1.2403127
1.2276467
1.2143509
1.2022329
1.191885
1.1832272
1.1763566
1.1706457
1.1664592
1.1632625
1.1608504
1.1590711
1.1580118
1.1572563
1.1564267
1.1541926
1.1495173
1.1432307
1.1369716
1.1328512
1.1293286
1.2456889
1.2479797
1.2449962
1.237672
1.2275297
1.2161402
1.2054023
1.1950772
1.1862501
1.179356
1.1739548
1.170716
1.1682729
1.1664284
1.1642806
1.1621145
1.1595464
1.1567854
1.1526018
1.1473957
1.1418995
1.1377948
1.1334557
1.2459734
1.2508872
1.2507706
1.2459942
1.2379692
1.2276261
1.2166512
1.2061429
1.1961248
1.1881648
1.1819633
1.1781569
1.1755406
1.1735578
1.1706469
1.1670426
1.163073
1.1598046
1.1571228
1.1549252
1.1522034
1.149673
1.1446505
1.2412252
1.2503179
1.2531696
1.2521634
1.2467341
1.2385631
1.2289519
1.2193547
1.2101072
1.2019004
1.1946997
1.1889979
1.1846759
1.1812286
1.1782695
1.1747427
1.171352
1.1681218
1.1659185
1.1642135
1.1619186
1.1589029
1.1522714
1.23522
1.2480621
1.2533213
1.2559974
1.2553105
1.2505921
1.24318
1.2345456
1.2260878
1.2180137
1.2106542
1.2036018
1.1974069
1.1918692
1.1875551
1.1839325
1.1808531
1.1780847
1.1758884
1.1737391
1.1711344
1.1673677
1.1600645
1.2323889
1.244811
1.2509521
1.2548894
1.2571803
1.2574902
1.2549448
1.2497322
1.243301
1.2361619
1.2292332
1.2219369
1.2152648
1.2088432
1.2035089
1.19919
1.1954172
1.1918812
1.1882005
1.1845398
1.1807083
1.1768745
1.1702004
1.2319789
1.2412818
1.2465823
1.251019
1.2544848
1.2569924
1.2587696
1.2589732
1.2570902
1.2537111
1.2489082
1.2432915
1.2368981
1.230672
1.2246146
1.219434
1.2147181
1.2103609
1.2057271
1.2009304
1.1960985
1.1918467
1.1850647
1.2307706
1.2388784
1.243863
1.2481842
1.2522884
1.255953
1.258669
1.2602423
1.2607678
1.2600738
1.2586565
1.2565742
1.2540359
1.250672
1.2469216
1.2426157
1.2381631
1.2333819
1.2284828
1.2232624
1.2179752
1.213076
1.2058667
1.2316465
1.2393677
1.2442376
1.2482857
1.2518566
1.2547881
1.257342
1.2592499
1.2603829
1.2611414
1.2613672
1.2616731
1.2617449
1.2613255
1.2599481
1.2576428
1.2545935
1.2513158
1.2479672
1.2446757
1.2410075
1.2370416
1.2308295
1.2330526
1.2412583
1.2467438
1.2510146
1.2543822
1.2570335
1.2589361
1.2607198
1.2621963
1.2634165
1.2643379
1.2646006
1.2648674
1.2644096
1.2639983
1.2629586
1.2619456
1.2606817
1.2595902
1.258302
1.2566291
1.2540162
1.2495684
1.2346224
1.2464383
1.2545207
1.2603675
1.2648024
1.2677678
1.2694551
1.2705167
1.2712476
1.2715643
1.2717021
1.2713464
1.2708153
1.2701046
1.2694036
1.2687747
1.2682843
1.2677512
1.2669051
1.265618
1.2640123
1.2621023
1.2592975
1.2363839
1.2520021
1.2647916
1.2753496
1.2834035
1.2886694
1.2919261
1.2936208
1.2937741
1.2935541
1.292228
1.2908446
1.2888652
1.2869208
1.2848491
1.2830231
1.2813338
1.2794998
1.2775738
1.2755204
1.273477
1.2714181
1.2687787
1.241557
1.2581354
1.2777435
1.295321
1.3088445
1.3177402
1.3230628
1.3257561
1.326235
1.3254305
1.3238697
1.3215007
1.318929
1.3157774
1.3123046
1.3087284
1.3052863
1.3020394
1.2986218
1.2951778
1.2918172
1.2888783
1.2857458
1.2542239
1.2686825
1.2933029
1.3190504
1.3366273
1.3456208
1.3497621
1.3503144
1.3491214
1.3466786
1.3435485
1.3401567
1.3363277
1.3326551
1.3290575
1.3253767
1.3210888
1.3168259
1.3129236
1.3096799
1.3064876
1.3031836
1.299983
1.2837527
1.3011924
1.3273078
1.3483854
1.3570019
1.3576655
1.35631
1.3533586
1.349884
1.3457214
1.3417135
1.3378589
1.3336749
1.3290332
1.32433
1.3200991
1.3161637
1.312282
1.3083016
1.3047169
1.3014754
1.2986975
1.2974414
1.3188952
1.3428497
1.3585073
1.3608963
1.3584266
1.3541344
1.3486377
1.3425548
1.3362379
1.3297056
1.3232219
1.3168723
1.3106059
1.3044377
1.2985979
1.2933169
1.2884281
1.2835732
1.2788088
1.2746336
1.2712697
1.2688586
1.2692984
1.3483244
1.3648709
1.3622328
1.3551402
1.3451935
1.3343252
1.323948
1.3140658
1.3040284
1.29406
1.2847286
1.2763076
1.268203
1.2598629
1.2516284
1.2441226
1.2373358
1.2307353
1.2243472
1.2185991
1.2138004
1.2101698
1.2108596
1.3620688
1.3637421
1.3519737
1.3339209
1.3160291
1.3002545
1.2867452
1.2744312
1.2621866
1.2499833
1.2385689
1.2283679
1.218575
1.2082575
1.1977277
1.1881061
1.1795826
1.1712207
1.1626678
1.1545521
1.1472966
1.1407665
1.1405545
1.3569155
1.3467967
1.3232126
1.2989479
1.2781296
1.2608193
1.2460503
1.2326347
1.2195484
1.206396
1.1937638
1.1821961
1.1711994
1.1598166
1.1480409
1.1368232
1.1265838
1.1166141
1.1061362
1.0954814
1.0854123
1.0752282
1.071844
1.3361587
1.31472
1.2858987
1.2605801
1.2396673
1.222418
1.2077091
1.1941593
1.1805819
1.1668066
1.1535733
1.1413516
1.1295282
1.1172468
1.1045203
1.0920962
1.0803884
1.0687095
1.0563632
1.043781
1.0329369
1.0235346
1.0199017
1.3075011
1.2782756
1.2488552
1.2248499
1.2050697
1.1883072
1.1736914
1.159998
1.1461687
1.1321315
1.1184944
1.1055398
1.0928631
1.0797949
1.0661929
1.0525504
1.0393185
1.0269608
1.0168429
1.0097061
1.0059772
1.0041436
1.003932
1.2775661
1.2447993
1.2164744
1.1940598
1.1753434
1.1590864
1.1444135
1.1303468
1.1162553
1.1020354
1.0879203
1.0741183
1.0605074
1.0464729
1.031822
1.0184071
1.009371
1.0050518
1.0032974
1.0025907
1.0023134
1.0023431
1.0025045
1.249845
1.2160219
1.1892724
1.1681393
1.1501501
1.1341256
1.1193652
1.1051497
1.0907361
1.0759025
1.0610081
1.0462725
1.0316111
1.0176684
1.0076347
1.0031479
1.0020173
1.002152
1.0024189
1.0022857
1.0020992
1.0020907
1.0021529
1.2262448
1.1916523
1.1661465
1.1462055
1.1291386
1.1134177
1.0983318
1.0833766
1.0682893
1.053114
1.0376761
1.0220603
1.0094154
1.0036448
1.0021618
1.001705
1.0016408
1.0019637
1.0023934
1.0023765
1.0018956
1.0016735
1.0018616
1.2062194
1.1713606
1.1472014
1.1281179
1.1114161
1.0956425
1.0800641
1.0646551
1.0492274
1.0334427
1.0177485
1.0061937
1.002105
1.001706
1.0020183
1.0020365
1.0017631
1.0016173
1.0019151
1.0021074
1.0019924
1.0016273
1.0014596
1.1895368
1.1545867
1.1313675
1.1128495
1.0964097
1.0806932
1.0649473
1.0489391
1.0326747
1.0168604
1.0057226
1.0021994
1.0016621
1.0016674
1.0018954
1.0020221
1.0017855
1.00145
1.0015621
1.0019806
1.0022304
1.0017837
1.0011978
1.1755444
1.140565
1.1181487
1.1001489
1.083912
1.0679511
1.0517632
1.0354396
1.0194487
1.0072225
1.0027496
1.0019973
1.0017669
1.0016576
1.0016435
1.0017073
1.0017831
1.0018062
1.0017798
1.0017877
1.0017534
1.0016124
1.0014955
1.1633905
1.1289923
1.1075864
1.0898412
1.0735609
1.0572566
1.0408124
1.0247551
1.0110936
1.0041878
1.0025564
1.0019724
1.0014955
1.0015499
1.0017766
1.001885
1.0018798
1.0018519
1.001617
1.0017932
1.0016415
1.0014306
1.0014215
1.1540167
1.1197617
1.0985129
1.0810948
1.0651273
1.0489943
1.0328744
1.0176211
1.0070154
1.003385
1.0028387
1.0025482
1.0021431
1.001664
1.0012744
1.0016517
1.0022149
1.0022362
1.0015953
1.0012892
1.0013101
1.001997
1.0020793
1.1460752
1.1122666
1.0919641
1.0748563
1.0588272
1.0429647
1.0272242
1.0138275
1.0065819
1.0041412
1.0034457
1.0029158
1.0025366
1.0023458
1.0019464
1.0016844
1.0013183
1.0017713
1.002135
1.0020156
1.0013359
1.0011798
1.0017883
1.1403512
1.1067622
1.0866517
1.0701162
1.0551542
1.0396591
1.0243899
1.0134089
1.0077157
1.0056411
1.0051957
1.0044834
1.0032671
1.0021962
1.0018889
1.001925
1.0023695
1.0019899
1.0011007
1.0015108
1.0019778
1.0021078
1.001821
1.1350275
1.1026967
1.0839191
1.0680232
1.053121
1.0382782
1.0245002
1.0154189
1.0113462
1.009179
1.0074018
1.0059365
1.0046716
1.004001
1.0035615
1.0025079
1.0016338
1.0018292
1.0020751
1.0022168
1.0014116
1.0012173
1.0018014
1.1314949
1.0999958
1.0815868
1.0665301
1.0526284
1.0392749
1.028149
1.0204975
1.0161087
1.0140076
1.0122325
1.0107528
1.008977
1.0064812
1.0049051
1.0044538
1.0037883
1.0029412
1.0018187
1.0016978
1.001942
1.0019175
1.0018044
1.1274126
1.0975263
1.0806402
1.0668591
1.054166
1.0424665
1.0332807
1.0273775
1.0242591
1.0224915
1.0200947
1.0173643
1.0152061
1.0135726
1.0118912
1.009226
1.0064889
1.0050025
1.0042967
1.0039203
1.0030238
1.0018293
1.0016476
1.1237567
1.0960873
1.080963
1.0677599
1.0564203
1.0477566
1.0418152
1.037486
1.0337009
1.0312284
1.0300951
1.0289377
1.027062
1.0242012
1.0214312
1.0191593
1.0163707
1.0134084
1.0106104
1.0086511
1.0071411
1.0047459
1.0025575
1.1215631
1.0949554
1.0814737
1.0710565
1.0621483
1.0549932
1.0502516
1.0475147
1.0455292
1.0437677
1.0426102
1.0416682
1.0403781
1.0387058
1.0368653
1.0344036
1.0312077
1.027614
1.024508
1.0217053
1.0182251
1.0137159
1.0100316
1.1191783
1.0958255
1.0844199
1.0754305
1.068146
1.0633059
1.0608217
1.0594449
1.0579673
1.0563806
1.0556949
1.0563506
1.0570064
1.0562289
1.0539903
1.0517916
1.0502651
1.0483719
1.0447424
1.040083
1.036277
1.0328611
1.0288803
1.1187938
1.0969649
1.0873877
1.081287
1.0767775
1.0731629
1.0707706
1.0698354
1.070008
1.0706641
1.0713084
1.0719419
1.072597
1.0731069
1.0731664
1.072679
1.0716598
1.0701806
1.0677351
1.0641998
1.0605199
1.0575697
1.0540033
1.1130981
1.0993161
1.0921768
1.0876794
1.0847755
1.0826454
1.0811525
1.080722
1.0817012
1.0836373
1.0855369
1.0870281
1.0884802
1.0903765
1.0922298
1.0931309
1.0929781
1.0923878
1.0917272
1.0905916
1.0882554
1.0849298
1.0813983
1.1109206
1.1026357
1.0979075
1.0947026
1.0924957
1.0912106
1.0907535
1.0911846
1.0926314
1.0950401
1.0980066
1.1009486
1.1035539
1.106087
1.1087548
1.1112087
1.112874
1.1136889
1.1142999
1.1151172
1.1152972
1.113764
1.1110748
1.1268548
1.1088629
1.1038253
1.1010675
1.0995632
1.0991535
1.0997637
1.101162
1.1030722
1.1053837
1.1082008
1.1115683
1.1152241
1.1187282
1.1220115
1.1253268
1.1287171
1.1318748
1.13432
1.1359297
1.1371241
1.1380406
1.1383221
1.1255121
1.1143962
1.109976
1.1077811
1.106928
1.1070486
1.1079532
1.1094308
1.1113049
1.1135264
1.1161695
1.1193829
1.1231848
1.1273308
1.1314519
1.1354085
1.1393222
1.1432562
1.1469481
1.1501634
1.1530619
1.1559923
1.1588015
1.1277656
1.1203344
1.1169832
1.1152118
1.1144313
1.1143572
1.1148909
1.1159826
1.1176032
1.1197281
1.1222944
1.1252602
1.1286394
1.1324115
1.1364363
1.1405127
1.1445313
1.148603
1.15288
1.1573468
1.1617873
1.1660784
1.1702321
1.1411316
1.1286083
1.1247919
1.1229548
1.1219993
1.1215998
1.1217352
1.1224388
1.1236874
1.1254542
1.1276207
1.1301048
1.1328743
1.1359407
1.1393085
1.1429728
1.1468798
1.1510107
1.1553912
1.1600243
1.1648128
1.1696574
1.1745146
1.1433747
1.136461
1.1328905
1.1309697
1.1298804
1.1293523
1.1292849
1.1296794
1.1305747
1.1318872
1.1334986
1.1353456
1.1374914
1.1400425
1.1430283
1.1463891
1.150035
1.1539091
1.1580586
1.1625848
1.1674665
1.1724805
1.177475
1.1484158
1.1446692
1.141725
1.1400594
1.1392429
1.1389627
1.1389148
1.1391027
1.1396644
1.1407023
1.1421346
1.1438495
1.145865
1.1482589
1.1510234
1.1541501
1.1576987
1.1616901
1.1659516
1.1703986
1.1752773
1.1807541