/*--------------------------------*- C++ -*----------------------------------*\
| =========                 |                                                 |
| \\      /  F ield         | OpenFOAM: The Open Source CFD Toolbox           |
|  \\    /   O peration     | Version:  2406                                  |
|   \\  /    A nd           | Website:  www.openfoam.com                      |
|    \\/     M anipulation  |                                                 |
\*---------------------------------------------------------------------------*/
FoamFile
{
    version     2.0;
    format      ascii;
    arch        "LSB;label=32;scalar=64";
    class       volScalarField;
    location    "190";
    object      TMean;
}
// * * * * * * * * * * * * * * * * * * * * * * * * * * * * * * * * * * * * * //

dimensions      [0 0 0 1 0 0 0];

internalField   nonuniform List<scalar> 
20580
(
1.0022195
1.0019348
1.0019143
1.0019156
1.0019154
1.0019039
1.0019027
1.0019106
1.0019206
1.0019324
1.0019452
1.0019579
1.0019671
1.0019808
1.001985
1.0019956
1.001998
1.0019803
1.0019599
1.0019287
1.0018949
1.0018687
1.001857
1.0017975
1.0016445
1.0015231
1.0015198
1.0015524
1.0013681
1.0010445
0.99978294
1.0021518
1.0019076
1.0018967
1.0018994
1.001893
1.0018892
1.0018949
1.0019018
1.0019135
1.0019257
1.0019381
1.0019496
1.0019593
1.0019656
1.0019754
1.0019807
1.001977
1.0019549
1.0019286
1.0018962
1.0018509
1.0018268
1.0018144
1.0017625
1.0016193
1.0014006
1.0012333
1.0012144
1.0012058
1.0012027
1.0003583
1.0021757
1.0018896
1.0018921
1.0019055
1.0018962
1.0018907
1.0018962
1.0019042
1.0019143
1.0019245
1.0019344
1.0019432
1.0019492
1.001955
1.0019616
1.0019619
1.0019474
1.0019209
1.0018863
1.0018451
1.001792
1.0017559
1.0017337
1.0016872
1.0015655
1.0013491
1.0010858
1.0008983
1.0008029
1.0008861
1.0006314
1.0022755
1.0018905
1.0018886
1.0019136
1.0019081
1.0019015
1.0019041
1.0019102
1.0019192
1.0019285
1.0019358
1.0019423
1.0019477
1.0019506
1.0019542
1.0019507
1.0019339
1.0019042
1.0018638
1.0018193
1.0017644
1.0017077
1.0016756
1.0016404
1.0015237
1.0013237
1.0010718
1.0008223
1.0005754
1.0003732
1.0003976
1.0023119
1.0019521
1.001904
1.0019205
1.0019123
1.0019033
1.001907
1.0019086
1.0019172
1.0019277
1.0019367
1.0019433
1.0019481
1.001952
1.001952
1.0019466
1.0019307
1.0019019
1.0018587
1.001809
1.0017413
1.0016749
1.0016296
1.001593
1.0015137
1.0013529
1.0011401
1.0008625
1.0005375
1.0001361
0.99987321
1.0022139
1.0019583
1.0019177
1.0019117
1.0018974
1.0018911
1.0018975
1.0019023
1.0019126
1.0019244
1.001934
1.0019414
1.0019468
1.0019495
1.0019534
1.0019486
1.001934
1.0019058
1.0018635
1.0018141
1.0017459
1.0016629
1.001605
1.0015587
1.0014656
1.0013383
1.0011967
1.000979
1.0006726
1.0002708
0.9996482
1.0021738
1.0019208
1.00192
1.0019131
1.0018959
1.0018897
1.0018948
1.0019004
1.001911
1.0019228
1.0019304
1.0019371
1.0019412
1.0019432
1.001944
1.0019447
1.0019338
1.0019092
1.0018672
1.0018219
1.0017564
1.0016676
1.0015891
1.0015046
1.0013817
1.001234
1.0010831
1.0009503
1.0007757
1.000589
1.0000416
1.0022101
1.0018882
1.0019018
1.001925
1.0019105
1.0018997
1.0018989
1.0019007
1.0019074
1.0019186
1.001926
1.0019309
1.001933
1.0019339
1.0019332
1.0019288
1.0019111
1.0018814
1.0018414
1.001797
1.001745
1.0016623
1.0015533
1.0014177
1.0012747
1.0011353
1.0009763
1.0007839
1.0005768
1.0003453
1.0001957
1.0022234
1.0018752
1.0018697
1.0019208
1.0019178
1.0019057
1.0019021
1.0018988
1.0019042
1.0019138
1.0019209
1.0019257
1.0019276
1.0019284
1.0019266
1.0019194
1.0019028
1.0018714
1.0018278
1.0017819
1.0017265
1.0016503
1.0015361
1.0013881
1.0012351
1.0010866
1.0008993
1.0006534
1.0003676
1.000001
0.99978246
1.0020086
1.0017859
1.0018132
1.0018685
1.0018835
1.0018865
1.0018937
1.0018983
1.0019047
1.0019147
1.0019213
1.0019242
1.0019255
1.0019251
1.0019213
1.0019136
1.0018987
1.0018696
1.0018274
1.0017756
1.0017227
1.001652
1.0015736
1.0014555
1.0013114
1.0011696
1.000981
1.0007176
1.0003796
0.99999066
0.9995024
1.0018354
1.0016039
1.0016773
1.0017253
1.0017605
1.0017996
1.0018337
1.0018597
1.0018784
1.0018968
1.0019092
1.0019162
1.0019211
1.0019215
1.0019194
1.0019113
1.0019012
1.0018747
1.001836
1.0017835
1.0017233
1.0016549
1.0015898
1.0015085
1.001409
1.0013023
1.0011662
1.000989
1.000735
1.0004747
0.9999276
1.0018581
1.0015717
1.001593
1.0016535
1.0016813
1.001702
1.0017329
1.001764
1.0017929
1.0018254
1.0018495
1.0018663
1.0018775
1.0018849
1.0018893
1.001891
1.0018888
1.0018707
1.0018374
1.0017788
1.0017067
1.0016355
1.0015387
1.0014172
1.0013109
1.0012364
1.001153
1.001012
1.0008019
1.0005446
1.0002856
1.0020342
1.001645
1.0016021
1.0016429
1.0016499
1.0016526
1.0016637
1.0016812
1.0017058
1.001737
1.0017616
1.001781
1.0017953
1.001804
1.0018121
1.0018183
1.0018189
1.001804
1.0017794
1.0017365
1.0016595
1.0015584
1.0014204
1.0012438
1.0010787
1.0009697
1.0008847
1.0007417
1.0005199
1.0001704
0.99996497
1.0021082
1.0017501
1.0017122
1.0017089
1.0016917
1.0016794
1.0016778
1.0016813
1.001688
1.0017058
1.0017203
1.0017329
1.001745
1.0017555
1.0017583
1.0017562
1.0017523
1.0017405
1.0017189
1.0016788
1.0016054
1.0014999
1.001352
1.0011689
1.0009887
1.0008245
1.000668
1.0004858
1.0002439
0.99991826
0.99960929
1.0019975
1.0017185
1.0017336
1.0017165
1.0016995
1.0016969
1.0017001
1.0017042
1.0017069
1.0017213
1.0017276
1.001731
1.0017354
1.0017393
1.0017388
1.0017333
1.0017295
1.0017118
1.0016866
1.0016625
1.0015887
1.0015068
1.0013977
1.0012635
1.0011111
1.0009226
1.0007213
1.0005533
1.000364
1.0001403
0.999794
1.0019245
1.0016543
1.0016708
1.0016798
1.0016744
1.0016714
1.0016712
1.0016753
1.0016833
1.0017062
1.0017171
1.0017217
1.0017267
1.0017299
1.00173
1.0017265
1.0017232
1.0017059
1.0016807
1.0016445
1.0016022
1.0015516
1.0014854
1.0013982
1.0012909
1.0011752
1.0010548
1.0009169
1.0007317
1.0005379
1.000264
1.0020591
1.001699
1.0016845
1.0017046
1.0016961
1.0016844
1.0016769
1.0016737
1.0016732
1.0016963
1.0017037
1.0017053
1.0017076
1.0017079
1.0017062
1.0017047
1.0017025
1.0016877
1.0016595
1.001618
1.0015725
1.0015171
1.0014494
1.0013478
1.0012298
1.0011276
1.0010442
1.0009216
1.0007443
1.0004915
1.0003141
1.0021229
1.0017465
1.0017548
1.0017716
1.0017611
1.00175
1.0017413
1.0017399
1.0017244
1.0017412
1.0017398
1.0017346
1.0017321
1.001726
1.0017187
1.001713
1.0017047
1.0016846
1.0016484
1.0015962
1.001526
1.0014291
1.0013109
1.0011683
1.0010104
1.0008473
1.000685
1.0005083
1.0003182
1.0000695
0.99993644
1.001955
1.0016752
1.0017169
1.0017099
1.0017052
1.0017132
1.0017224
1.0017247
1.0017242
1.0017566
1.0017556
1.0017499
1.0017466
1.001742
1.001736
1.0017307
1.0017157
1.0016953
1.0016544
1.0015955
1.0015179
1.001409
1.0012657
1.0011008
1.0009219
1.0007301
1.0005171
1.0002787
1.0000382
0.99980432
0.99964386
1.0019108
1.0016165
1.0016399
1.0016307
1.0016283
1.001633
1.0016283
1.0016451
1.0016233
1.0016779
1.0016872
1.0016889
1.0016956
1.0016968
1.0016979
1.0016963
1.0016856
1.0016725
1.0016422
1.0015958
1.0015339
1.0014457
1.0013363
1.0012191
1.0010861
1.0009199
1.0007285
1.0005318
1.0003449
1.0001811
1.0000311
1.0019836
1.0016443
1.001668
1.0016788
1.0016725
1.0016624
1.0016542
1.0016377
1.0016314
1.0016722
1.0016638
1.0016559
1.0016545
1.0016538
1.0016536
1.0016494
1.0016389
1.0016254
1.0016011
1.0015758
1.0015389
1.0014892
1.0014342
1.0013781
1.0013008
1.001196
1.0010972
1.0009911
1.0008971
1.0007712
1.0006232
1.0020229
1.0016054
1.0016822
1.0016269
1.0016091
1.0015785
1.0015693
1.0015612
1.0014896
1.0015638
1.0015458
1.0015278
1.0015176
1.0014971
1.0014918
1.001488
1.0014685
1.0014486
1.0014191
1.001386
1.0013419
1.0012872
1.0012253
1.0011475
1.0010603
1.0009457
1.0008193
1.000673
1.000534
1.0003703
1.0002628
1.0018831
1.0011535
1.0012689
1.0009921
1.0010592
1.0010918
1.0011089
1.000889
1.0011879
1.0011573
1.0011405
1.0010957
1.0010712
1.0010432
1.0011345
1.0011642
1.0009935
1.0010466
1.0010643
1.0009763
1.0009111
1.0008305
1.0007225
1.0006239
1.000508
1.0003673
1.0001673
0.99991886
0.99966221
0.99942093
0.99928682
0.99890698
0.99995963
1.0004574
0.99995152
0.99930958
0.99928715
0.99971123
1.0000662
0.99973784
0.99901369
0.99892041
0.99959662
0.99986147
0.99915598
0.99872349
0.99918539
0.99969628
0.9993914
0.99894567
0.9992628
0.99999835
1.000028
0.99918024
0.99862031
0.9996604
1.0002908
0.99991426
0.9990983
0.99867807
0.99905088
0.99976678
0.99978564
0.99873349
0.99803402
0.99872599
0.99962416
0.99915347
0.99804448
0.99803651
0.99887858
0.99924441
0.99838683
0.99781447
0.99839266
0.99925122
0.99900791
0.99802126
0.99926052
1.0000505
0.999643
0.99853354
0.99777934
0.99839307
0.99942257
0.99962745
0.99829307
0.99704113
0.99768451
0.99905864
0.99910683
0.99751805
0.99673042
0.99757289
0.99863999
0.99817534
0.99670949
0.99680255
0.99802449
0.99859774
0.99700346
0.99854828
0.99966747
0.9993058
0.99773045
0.99638448
0.99716681
0.99869181
0.99941101
0.9979942
0.99578945
0.99595337
0.99779001
0.99888288
0.99735918
0.99527609
0.99564186
0.99735662
0.99792707
0.99584566
0.99474023
0.9958501
0.99724953
0.99584581
0.9976775
0.9991322
0.99895005
0.99698403
0.99492028
0.99554232
0.9975696
0.99897679
0.99777529
0.99453395
0.99359259
0.99574971
0.99804992
0.99737155
0.99379459
0.99276871
0.99482851
0.99692566
0.99573089
0.99264751
0.9928427
0.9948822
0.99445396
0.99657845
0.99840623
0.99847372
0.99610187
0.99319195
0.99316536
0.99566834
0.99805666
0.99757722
0.9936013
0.99060666
0.99253031
0.99600191
0.99724005
0.99354159
0.98984873
0.99123316
0.99461099
0.99564516
0.99189535
0.98955282
0.99128051
0.99258173
0.99512168
0.99742405
0.99779242
0.99505203
0.99119926
0.99013691
0.99299402
0.99649717
0.99730663
0.99314644
0.98778797
0.98855668
0.99264535
0.99600829
0.99397031
0.98763178
0.98664959
0.9903146
0.99390866
0.99244827
0.98686133
0.98652453
0.99008785
0.9931824
0.99607556
0.99686549
0.99383261
0.98889317
0.98635751
0.98936039
0.99398175
0.99639868
0.99279062
0.98537094
0.98335113
0.98756265
0.9932148
0.99408022
0.98730191
0.98181022
0.98433787
0.9898258
0.99218667
0.98695399
0.98199417
0.9868006
0.99055764
0.9942648
0.99549457
0.99212837
0.98575842
0.98133364
0.9842835
0.99003666
0.99450845
0.99227325
0.98362136
0.97747141
0.98087096
0.98809444
0.99252647
0.98783401
0.97848238
0.97757074
0.98305766
0.98907739
0.98778689
0.9798287
0.98239698
0.98701819
0.99186317
0.99362859
0.98993907
0.98187498
0.9753127
0.97788944
0.98464927
0.99138713
0.99122692
0.98211808
0.97205255
0.9731152
0.9807375
0.98870354
0.98771041
0.97716998
0.97053953
0.97449466
0.98286367
0.98664779
0.9802166
0.97716498
0.98269552
0.98889179
0.99123849
0.98699462
0.97689447
0.96814704
0.96995092
0.97764929
0.98674241
0.98898974
0.98010686
0.9671794
0.96399614
0.97130136
0.98220007
0.9858166
0.97655474
0.96455109
0.96477886
0.97348986
0.98228016
0.98037161
0.97067136
0.97718921
0.98497796
0.98799099
0.98290118
0.97040476
0.95934582
0.95979573
0.9686867
0.98040368
0.9852388
0.97715958
0.96225424
0.95372406
0.96028263
0.97338191
0.98158796
0.9751201
0.96037275
0.95423997
0.96187751
0.97441114
0.97858529
0.9629343
0.97048052
0.980155
0.98391329
0.97754032
0.96243357
0.94886831
0.9475021
0.95792142
0.97251413
0.97987716
0.97296863
0.95627077
0.94296038
0.94812532
0.96275335
0.97512575
0.97236389
0.95681295
0.94390173
0.9492101
0.96382596
0.97403474
0.95417575
0.96280816
0.97436462
0.97872548
0.97091079
0.95315885
0.93710796
0.93398408
0.94604107
0.96341602
0.97305792
0.96698566
0.94878114
0.93241894
0.93572717
0.95115378
0.96690941
0.96784239
0.95212012
0.93497366
0.93664326
0.95186336
0.96704087
0.94479161
0.95444311
0.96768879
0.97253415
0.96303196
0.94277299
0.92459878
0.92009507
0.93360852
0.95330609
0.96474903
0.9592305
0.94010764
0.92237234
0.92379637
0.93946943
0.95764982
0.96149617
0.9461939
0.92701898
0.92448697
0.93969984
0.95835889
0.93460858
0.94538409
0.96004741
0.96515072
0.95418275
0.93174212
0.91181141
0.90631745
0.92104197
0.94246945
0.95509906
0.94979997
0.93022713
0.91222233
0.91230148
0.92813129
0.94786601
0.95359403
0.93886429
0.91886441
0.91258609
0.92803881
0.94902762
0.92414697
0.93593016
0.9517458
0.95681705
0.94427419
0.91987502
0.8985406
0.89249147
0.90831723
0.93106783
0.94443357
0.93906947
0.91934216
0.9016108
0.90096624
0.91720333
0.93787232
0.9445905
0.93022076
0.90977683
0.90123497
0.91737991
0.93984087
0.91308173
0.92573269
0.94252508
0.94768542
0.93400523
0.90781615
0.88496931
0.87834781
0.89504611
0.91893997
0.93288264
0.92756838
0.9078444
0.89044085
0.8896569
0.90663258
0.92788323
0.93471769
0.92030785
0.89968339
0.89057933
0.90803484
0.93127701
0.90113331
0.91469083
0.9323891
0.93794009
0.92353447
0.89569864
0.87119269
0.86401365
0.88143538
0.90627707
0.92063543
0.91527134
0.89559618
0.8786523
0.87860356
0.89669296
0.91802033
0.9239326
0.90894647
0.88863593
0.88080687
0.90026875
0.92348223
0.88787576
0.90269694
0.9215381
0.92775812
0.91289018
0.88343108
0.8572161
0.84966234
0.86764184
0.89320335
0.90778427
0.90211911
0.88238353
0.86616104
0.86798996
0.88734357
0.90824058
0.91226794
0.89626892
0.8769896
0.87222544
0.89405335
0.9161312
0.87273489
0.88906432
0.90966275
0.9171711
0.90228018
0.87131164
0.84351862
0.83595282
0.8542543
0.88001361
0.89432036
0.88791501
0.86820803
0.85340396
0.85843915
0.87904701
0.89851297
0.89936258
0.88200375
0.86486498
0.86564329
0.88949452
0.90841837
0.85591539
0.87342718
0.89614627
0.90577017
0.89187384
0.85997815
0.83063019
0.82319641
0.84147991
0.86686112
0.8803018
0.87285713
0.85354974
0.84104897
0.85034672
0.87171076
0.88833637
0.88486662
0.86658522
0.85330485
0.86196422
0.88595416
0.89898568
0.8337881
0.85299364
0.8790775
0.89256507
0.88191394
0.85098312
0.82017435
0.81197585
0.82943137
0.85359646
0.86577002
0.85747856
0.8394259
0.83033006
0.84366171
0.86484153
0.87721952
0.86931408
0.85147663
0.84383536
0.86064156
0.88224428
0.88674563
0.8045505
0.82473011
0.85415736
0.87268162
0.8680368
0.84175907
0.81224672
0.80409725
0.81967861
0.84115062
0.85120381
0.84225876
0.8264172
0.82196045
0.83820994
0.85787996
0.86487027
0.85318584
0.83811856
0.83890166
0.86060073
0.87645882
0.87150582
0.77088625
0.79263925
0.82606515
0.84926298
0.84973567
0.82911057
0.80377149
0.79782653
0.81182422
0.82984123
0.83687293
0.82767632
0.8151539
0.81645777
0.83388323
0.85026232
0.85110687
0.83780552
0.82842418
0.83903591
0.85990569
0.86672149
0.85495606
0.73923105
0.76030763
0.79437738
0.82184596
0.8293002
0.81638375
0.796642
0.79414976
0.80609664
0.81963315
0.82296757
0.81446957
0.80670574
0.81376821
0.83028862
0.84138274
0.83682454
0.82497871
0.82414213
0.84201887
0.85655426
0.85300388
0.84027251
0.7303161
0.74720386
0.7734211
0.79527409
0.80359585
0.79866357
0.79052373
0.79335934
0.80300369
0.81104639
0.81106482
0.80445069
0.80233266
0.81315429
0.82662801
0.83144096
0.82418593
0.81741122
0.82612225
0.84371317
0.84848871
0.83870645
0.83177326
0.73416042
0.74689172
0.76436245
0.77827475
0.7841086
0.78220456
0.78107838
0.79009308
0.79922996
0.80379306
0.80223509
0.79851376
0.80170237
0.81299967
0.82211872
0.82199546
0.81535118
0.81619087
0.83060773
0.84130669
0.83695595
0.8280592
0.83045102
0.7435354
0.75278215
0.76204498
0.76746129
0.76952649
0.77196317
0.77578907
0.78597567
0.7949066
0.79788354
0.79650366
0.79622463
0.80276104
0.81234091
0.81705798
0.81470137
0.81184235
0.81968283
0.83247111
0.83418638
0.82643443
0.82353877
0.8344817
0.75234604
0.75757567
0.76110423
0.76074183
0.7604789
0.76505591
0.77375262
0.78388235
0.79147087
0.7937503
0.79368005
0.79653544
0.80401371
0.81079846
0.81233012
0.81040479
0.81275821
0.82323379
0.82955907
0.82527484
0.82018874
0.8251256
0.83525657
0.75989348
0.76260508
0.76189997
0.75858642
0.75749354
0.7628293
0.77325425
0.78344249
0.78969842
0.791683
0.79313564
0.79794293
0.80475515
0.80896063
0.80921922
0.80954172
0.81575475
0.82383477
0.82390896
0.81924491
0.81950313
0.82752226
0.82963054
0.76439963
0.76554722
0.76296984
0.75884294
0.75835186
0.7642173
0.77450227
0.78380159
0.78884501
0.79100278
0.79390285
0.79926862
0.8046205
0.80693313
0.80749852
0.81056077
0.81757984
0.82116083
0.81844186
0.81656137
0.82103204
0.82596045
0.82183359
0.76813135
0.7682795
0.76506075
0.761084
0.76125773
0.76708484
0.77657384
0.78477686
0.78899485
0.7915574
0.79528928
0.80026839
0.80428823
0.80600913
0.80775954
0.81233334
0.81751685
0.81768343
0.81544391
0.81674182
0.82162156
0.82197433
0.81713798
0.77008158
0.77000308
0.766936
0.76373889
0.76477287
0.77052821
0.77882233
0.78558986
0.78921551
0.79216377
0.79621432
0.80061059
0.80355365
0.80539753
0.8084397
0.81321998
0.81592176
0.81476227
0.81446747
0.81803974
0.82097877
0.81891176
0.81691539
0.77191045
0.77193037
0.76942527
0.76704885
0.76870464
0.77427142
0.78141818
0.78691878
0.79035009
0.79365344
0.79764833
0.80129387
0.80385183
0.80646355
0.81006866
0.8132645
0.81395651
0.81361895
0.81550277
0.8185158
0.81922917
0.81853874
0.82128728
0.77236126
0.77271352
0.77110815
0.76946488
0.77088287
0.77540357
0.78142549
0.78649304
0.78982624
0.79295065
0.79662558
0.80018703
0.80277237
0.8052527
0.80859131
0.81177977
0.81302207
0.81315634
0.81514024
0.8184909
0.82058094
0.82127144
0.82400334
0.77236128
0.7730065
0.77211043
0.77106013
0.77223961
0.77583055
0.78087655
0.78554936
0.78885476
0.7918059
0.79519499
0.79862813
0.80132052
0.80375282
0.80679897
0.81004865
0.81202605
0.81274139
0.81456078
0.8178712
0.82093393
0.82269007
0.82540371
0.77209627
0.7728519
0.77251018
0.77203916
0.77318382
0.77618961
0.78042587
0.78465488
0.78789052
0.79068102
0.79383306
0.7971471
0.79988954
0.8023234
0.8051712
0.80839345
0.810899
0.81224011
0.81408236
0.81718074
0.8206576
0.82322949
0.826261
0.77154916
0.77231988
0.77240713
0.77243231
0.77364748
0.77632306
0.77997186
0.78375257
0.78688828
0.78955922
0.79249135
0.79565339
0.79844193
0.8008892
0.80361373
0.80678943
0.80967036
0.81158567
0.81358343
0.81649079
0.82008259
0.82324047
0.82668878
0.77087233
0.7714915
0.77181305
0.77223412
0.77360106
0.77613753
0.77942506
0.78282184
0.78582817
0.78843109
0.79117027
0.79415689
0.79696139
0.7994569
0.80209268
0.80519132
0.8083528
0.81080101
0.81308013
0.81589176
0.81941184
0.82289697
0.82674812
0.77002468
0.770431
0.7709089
0.77160593
0.77310273
0.77557905
0.77865484
0.7817924
0.78468744
0.78725843
0.78983868
0.79263875
0.79542665
0.79801154
0.80063394
0.80362478
0.8068997
0.80984757
0.81250058
0.81538477
0.81878093
0.82230295
0.82640545
0.76936851
0.76930579
0.76972248
0.770588
0.77218019
0.77462548
0.77759213
0.78060252
0.7834344
0.78600501
0.7884784
0.7911065
0.79384265
0.79651603
0.79921309
0.80214353
0.80541381
0.80868317
0.81175949
0.81485523
0.81822758
0.82166715
0.82578684
0.76924553
0.76841321
0.76851347
0.76934163
0.77093315
0.77330925
0.77618989
0.7791672
0.78201786
0.78463557
0.78706921
0.78957108
0.79223972
0.79498711
0.79778177
0.80073814
0.80398566
0.8074054
0.81081679
0.81419648
0.81765239
0.82103706
0.82506654
0.76996804
0.76818336
0.76760269
0.76807841
0.7694981
0.77173305
0.77450174
0.77746903
0.7803833
0.78310744
0.7855883
0.78803735
0.79065055
0.79343295
0.7963304
0.79936257
0.80263091
0.80613543
0.80976131
0.81336944
0.81694423
0.82036143
0.82435208
0.77092821
0.76851409
0.76727463
0.76715144
0.76814513
0.77008219
0.77265433
0.77555725
0.77851808
0.78137158
0.78399275
0.78648939
0.78909622
0.7918987
0.79486946
0.79800678
0.80135165
0.80494456
0.80868106
0.81241593
0.8160953
0.81961577
0.82367869
0.77204882
0.76952225
0.76770849
0.76684053
0.76716611
0.76859644
0.77083046
0.77355615
0.77648937
0.7794387
0.7822471
0.78489899
0.78757737
0.79041997
0.79345024
0.79668585
0.8001467
0.803825
0.80762439
0.81142722
0.81520569
0.81887306
0.82307227
0.77307673
0.77074039
0.76867358
0.76721565
0.76678972
0.76753036
0.76924831
0.77164155
0.77442761
0.77738793
0.78036053
0.7832413
0.78608846
0.7890264
0.79213299
0.79545919
0.79902047
0.80277565
0.806634
0.81051228
0.81440064
0.81823418
0.8226007
0.7740296
0.77183331
0.76966074
0.76792986
0.76695544
0.76701118
0.76809818
0.77001575
0.77251403
0.77537052
0.77842412
0.78152661
0.78461134
0.78772542
0.79096143
0.79439106
0.7980313
0.8018497
0.80578304
0.80976727
0.81378824
0.81779313
0.82233851
0.77459045
0.77229567
0.77016533
0.76844748
0.76728453
0.76689505
0.76742217
0.76882336
0.77092914
0.77356788
0.77659165
0.77984094
0.78317246
0.78653074
0.78995985
0.79352719
0.79726179
0.80115513
0.80517541
0.80928561
0.81346598
0.81765005
0.82237786
0.77505988
0.77253331
0.77034391
0.76867241
0.76750167
0.76692047
0.76708956
0.76806604
0.76979549
0.77216049
0.7750583
0.77835299
0.7818796
0.78550181
0.78917457
0.79292614
0.79679366
0.80079281
0.80492149
0.80917044
0.81352356
0.81790055
0.82281204
0.77509304
0.77242338
0.77031544
0.76875352
0.76764735
0.7670147
0.76699644
0.7676978
0.76914788
0.7712863
0.77403173
0.77729786
0.78094037
0.78478766
0.78871609
0.79269119
0.79673433
0.80087587
0.80514006
0.80953851
0.81406825
0.81864157
0.82373815
0.77491066
0.77236414
0.77033111
0.76888875
0.76787609
0.76727088
0.76719121
0.76776182
0.76905169
0.77105476
0.77370868
0.77693546
0.78063763
0.78464631
0.78880092
0.79301262
0.79726649
0.80159323
0.80602881
0.81059855
0.81529923
0.8200517
0.82528798
0.77462429
0.77212971
0.77037694
0.76917726
0.76835771
0.76788452
0.76787264
0.76845292
0.76971689
0.77169302
0.77433908
0.77759243
0.78134759
0.78546826
0.78980422
0.79423972
0.79872802
0.8032764
0.80791992
0.812679
0.81754363
0.82244762
0.82774683
0.7741884
0.77206028
0.77060881
0.76973475
0.76923628
0.76905118
0.76927602
0.77004242
0.77145154
0.77354229
0.77630394
0.77966911
0.78353437
0.7877712
0.79226218
0.79690475
0.80163247
0.80642703
0.81129812
0.81625588
0.8212775
0.82631026
0.83159046
0.77359174
0.77180491
0.77088923
0.77053941
0.77054812
0.77086294
0.77153777
0.77271056
0.77447433
0.77687428
0.77990633
0.78350063
0.78756155
0.79198151
0.7966568
0.80150791
0.80647483
0.81152151
0.81663424
0.82179519
0.82697807
0.83211703
0.83729645
0.77288585
0.77172418
0.77136577
0.77161741
0.7722839
0.77327892
0.77463168
0.77642411
0.77875589
0.78166269
0.78512815
0.78909049
0.79345883
0.7981464
0.80307351
0.80817369
0.81339867
0.81870834
0.82406515
0.82944263
0.83480465
0.8400472
0.84506478
0.77207746
0.77149531
0.77190628
0.77292217
0.77438541
0.77621281
0.77840019
0.78099263
0.78405535
0.78762146
0.79166235
0.79611692
0.80090602
0.80595397
0.81121058
0.81662747
0.82215074
0.82773845
0.83334767
0.83894447
0.84447557
0.84979377
0.85461054
0.77157319
0.77160505
0.77276456
0.77455574
0.77686654
0.7795962
0.78269645
0.78618319
0.79008035
0.79439692
0.7991063
0.80414143
0.80943879
0.81493915
0.82060248
0.82639084
0.83225317
0.83812373
0.84395202
0.84970353
0.85528959
0.86053542
0.86504647
0.77122583
0.77188777
0.77393964
0.77658737
0.77977624
0.7834305
0.78747245
0.79188046
0.7966437
0.8017389
0.80714178
0.8128017
0.81865542
0.8246582
0.83077105
0.83694693
0.84311031
0.84919154
0.85515456
0.86097593
0.86653889
0.87158365
0.8755873
0.77127508
0.77280428
0.77570943
0.77915363
0.78317905
0.7877341
0.7927116
0.7980298
0.80363964
0.80950565
0.81558963
0.82186076
0.82826735
0.83476536
0.8413011
0.84778287
0.85415272
0.86039701
0.86648527
0.87233736
0.87775903
0.88231058
0.8855282
0.77163766
0.77416458
0.778007
0.7822743
0.78711107
0.79252274
0.79839049
0.8045815
0.81100076
0.81759791
0.82434012
0.8311786
0.83808628
0.84499893
0.85182353
0.85851879
0.86507648
0.87147344
0.87763962
0.88341426
0.88834074
0.89199993
0.89443809
0.77260109
0.77634962
0.78108377
0.7860994
0.79165552
0.79782382
0.80449269
0.81148887
0.81867077
0.82595838
0.83330407
0.84066402
0.84797116
0.85514772
0.86216866
0.86905312
0.87577247
0.8822542
0.8883347
0.89358189
0.8974873
0.90029779
0.9022291
0.77400223
0.77910959
0.78480308
0.79059765
0.79683901
0.80366895
0.81101947
0.81872485
0.82660573
0.8345309
0.84242682
0.85022723
0.85781741
0.86517612
0.87237934
0.87941505
0.88620492
0.89258795
0.89811955
0.90224429
0.90520852
0.90752855
0.90915322
0.77604184
0.78263201
0.78927144
0.79584126
0.80271426
0.81009391
0.81798018
0.82624848
0.83471355
0.84319947
0.85156899
0.85969052
0.86750052
0.87507311
0.88243851
0.88954885
0.89624659
0.90211973
0.90653252
0.90967687
0.91212407
0.91413291
0.91551724
0.77866523
0.78677332
0.79442928
0.80179177
0.80924601
0.81705585
0.82531142
0.83395797
0.84283882
0.85175046
0.86047024
0.86882082
0.87685637
0.88464755
0.89214313
0.89921082
0.90549608
0.91032862
0.91373371
0.91635705
0.91849372
0.92027661
0.92145782
0.78204661
0.79168617
0.80028993
0.808337
0.81626325
0.82440473
0.83290893
0.84177797
0.85089702
0.8600557
0.86896724
0.87751472
0.88576936
0.89372883
0.90127547
0.90807667
0.9134571
0.91724902
0.92010298
0.92242022
0.92433478
0.92594791
0.92697971
0.78612516
0.79722939
0.80664189
0.8152437
0.82357081
0.83198453
0.84065694
0.84962983
0.85882297
0.86801492
0.87696249
0.88565997
0.89409602
0.90214774
0.90953067
0.9156243
0.91997163
0.92314142
0.92566829
0.9277593
0.92949354
0.93096711
0.93189253
0.79079147
0.80321994
0.8133158
0.82237553
0.83101291
0.83962731
0.84840524
0.85740022
0.8665347
0.87558562
0.88446362
0.89321818
0.90172649
0.90969173
0.91654182
0.92163603
0.92526155
0.92806887
0.93034751
0.93224118
0.93381143
0.93515045
0.93599478
0.79590471
0.80947072
0.82011359
0.82952126
0.83840338
0.84717758
0.8560323
0.86501002
0.87399588
0.8828183
0.89156096
0.90024725
0.90863424
0.91619412
0.9221423
0.92634748
0.92950707
0.93205089
0.93412883
0.93583618
0.93724164
0.93842857
0.93918652
0.80131588
0.81585219
0.82691607
0.83657833
0.8456405
0.85453608
0.86344264
0.87237421
0.8811713
0.88977656
0.89835563
0.90684775
0.91482961
0.92155449
0.92646752
0.93004628
0.93286125
0.93515657
0.93703314
0.93856723
0.93980045
0.94081962
0.94147661
0.80688848
0.82220346
0.83359437
0.84346266
0.85266719
0.86165263
0.87058457
0.87943861
0.88804431
0.89648176
0.90488195
0.91301349
0.92025265
0.92585472
0.92985415
0.93293475
0.93543196
0.93747471
0.93914224
0.94051313
0.94163723
0.94255798
0.94316434
0.81246996
0.82841136
0.84007243
0.85010849
0.85943334
0.86849111
0.87742426
0.88616462
0.89460577
0.90291022
0.91107754
0.91864951
0.92485113
0.9292897
0.93254795
0.93516594
0.93734473
0.93917368
0.94071386
0.94200971
0.94309499
0.94399631
0.94458588
0.81808209
0.83453114
0.84637738
0.85654668
0.86596159
0.87505643
0.88395414
0.89256257
0.90086728
0.90903328
0.91683696
0.92360512
0.92862715
0.93208272
0.93473439
0.93696821
0.93890954
0.94060205
0.94206216
0.94331182
0.94436352
0.94524736
0.94582603
0.82358894
0.84040462
0.85242382
0.86270266
0.87218553
0.88129468
0.89013408
0.89861063
0.90679954
0.91476063
0.92201917
0.92777799
0.93169323
0.93446228
0.93671361
0.9386741
0.94040792
0.94194862
0.943303
0.94448154
0.94548751
0.94634335
0.94691101
0.82904483
0.84615369
0.85826935
0.86862191
0.8781382
0.8872279
0.89597362
0.90431872
0.91237797
0.91999616
0.92650766
0.93120527
0.93433134
0.93670011
0.93868541
0.94040801
0.94192986
0.94328778
0.94449762
0.94556984
0.94650304
0.94731209
0.947858
0.83434397
0.85165449
0.86386793
0.87427176
0.88379144
0.89282985
0.90145511
0.90966333
0.91753675
0.92466194
0.9302896
0.93411933
0.93677851
0.93887365
0.94063833
0.94215658
0.9434846
0.94465877
0.94570255
0.94663583
0.94746081
0.94819315
0.94869056
0.83952448
0.85694343
0.86920712
0.8796353
0.88912615
0.8980773
0.90655956
0.91461041
0.92218291
0.92870031
0.93350862
0.93672118
0.93906807
0.94095569
0.9425349
0.94387588
0.94503074
0.94604023
0.94692803
0.94771623
0.94840891
0.94902923
0.94943799
0.84463446
0.8620819
0.87436421
0.8847761
0.89419583
0.90302171
0.91133249
0.91917705
0.92634454
0.93219239
0.93628013
0.93906733
0.94118968
0.9429139
0.94434606
0.94554435
0.9465541
0.9474163
0.94815482
0.94879661
0.94935286
0.94984152
0.95013571
0.84956498
0.86698235
0.87925248
0.88962367
0.89895063
0.90762781
0.91574083
0.92332233
0.93003938
0.93520095
0.93868291
0.94117087
0.94312588
0.94472367
0.94604266
0.94713501
0.94803695
0.94878359
0.94939743
0.94990445
0.95031819
0.95065841
0.95080756
0.85437558
0.87177074
0.88400782
0.89430197
0.90350309
0.91199429
0.91987281
0.92713155
0.93331855
0.93778275
0.94080077
0.94306464
0.94488759
0.94638342
0.94761759
0.94863639
0.94946338
0.95013222
0.95065686
0.95106301
0.95135835
0.95156367
0.9515664
0.85906703
0.87637481
0.88856168
0.8987656
0.90782848
0.91611676
0.92374326
0.93064295
0.93619783
0.94000497
0.94268159
0.94476874
0.9464762
0.94788536
0.94905445
0.95001884
0.95079928
0.95142168
0.95189618
0.95224245
0.95246293
0.95257278
0.95245991
0.86371182
0.88090437
0.89302562
0.90311624
0.91201998
0.92008971
0.92744524
0.9339035
0.9387475
0.94200837
0.94441492
0.94633978
0.94792497
0.94924095
0.95033939
0.95125174
0.95199318
0.95258397
0.95303428
0.9533572
0.95355038
0.95362105
0.95345207
0.86826551
0.88529646
0.89734412
0.90731859
0.91605445
0.92390712
0.93098038
0.9368735
0.94100467
0.94385515
0.94603784
0.94779998
0.94925086
0.95045792
0.95146711
0.95231048
0.9530032
0.95356402
0.95399465
0.95431646
0.95451708
0.95460258
0.95443738
0.87273728
0.88965955
0.90161259
0.9114621
0.92003016
0.92767897
0.93442614
0.93963427
0.9431433
0.94567051
0.94764442
0.94923127
0.950529
0.95159942
0.95248901
0.95323073
0.95384296
0.9543463
0.95474435
0.95505399
0.95526813
0.95538898
0.95526842
0.87708939
0.89385691
0.90571951
0.91546123
0.92389254
0.9313689
0.937666
0.9421533
0.94520849
0.94747892
0.94926061
0.95067264
0.95180789
0.9527242
0.95346959
0.95407897
0.95457582
0.95498372
0.95531304
0.95558108
0.95577889
0.9559133
0.95582565
0.88142736
0.89800256
0.90974457
0.91937688
0.9276894
0.93496458
0.94067422
0.94453751
0.94726325
0.94932106
0.95091992
0.95216022
0.9531317
0.95388945
0.95448007
0.95494003
0.9552965
0.95557576
0.95579543
0.95597024
0.95609909
0.95619151
0.95607967
0.88567304
0.90205738
0.91367169
0.92320618
0.93141693
0.93834164
0.94337433
0.94679501
0.94928287
0.95116625
0.95260162
0.9536838
0.95449608
0.9550946
0.95552656
0.95583019
0.95603654
0.95617302
0.95626058
0.95631317
0.95633591
0.95633924
0.95614226
0.88977293
0.90598767
0.91748139
0.92693405
0.93499051
0.94138244
0.94582158
0.94893727
0.95124507
0.95297926
0.95427107
0.95520792
0.95587169
0.95631818
0.95659737
0.9567497
0.95680983
0.95680668
0.9567588
0.95668206
0.95658704
0.95648609
0.95618682