/*--------------------------------*- C++ -*----------------------------------*\
| =========                 |                                                 |
| \\      /  F ield         | OpenFOAM: The Open Source CFD Toolbox           |
|  \\    /   O peration     | Version:  2406                                  |
|   \\  /    A nd           | Website:  www.openfoam.com                      |
|    \\/     M anipulation  |                                                 |
\*---------------------------------------------------------------------------*/
FoamFile
{
    version     2.0;
    format      ascii;
    arch        "LSB;label=32;scalar=64";
    class       volVectorField;
    location    "190";
    object      U;
}
// * * * * * * * * * * * * * * * * * * * * * * * * * * * * * * * * * * * * * //

dimensions      [0 1 -1 0 0 0 0];

internalField   nonuniform List<vector> 
20580
(
(0.089096606 -0.0006710347 1.7523404e-22)
(0.091003862 5.1547534e-05 7.9985036e-20)
(0.098215457 -7.1267764e-05 -6.1481102e-22)
(0.097518461 0.00088700997 1.3413571e-20)
(0.097725789 0.00042005927 4.0248207e-23)
(0.097917159 0.001164336 5.6152227e-21)
(0.097849102 0.00064271848 6.5767919e-20)
(0.097211008 0.0014820186 5.0523187e-21)
(0.09760067 0.00051481204 7.0150509e-21)
(0.096601793 0.0010174828 0)
(0.096485307 0.00065128399 -4.5049893e-21)
(0.095993742 -0.00017471599 2.008295e-20)
(0.09515703 0.00099189457 2.1036778e-21)
(0.094864482 2.4409529e-05 5.448886e-21)
(0.094584084 -0.0014766107 -7.5212442e-21)
(0.09341885 -0.00039948373 -1.6414566e-20)
(0.093379965 -0.0019585916 7.9756991e-20)
(0.09416352 -0.0066283139 1.0918221e-21)
(0.091933867 -0.0027881312 -5.0836819e-20)
(0.092269841 -0.0057125074 -9.7978817e-21)
(0.094838416 -0.012488022 1.8061569e-22)
(0.093488674 -0.011057834 -1.5532667e-21)
(0.092768183 -0.012465128 -2.1300594e-20)
(0.097258099 -0.020501428 8.340331e-20)
(0.10010732 -0.026262874 4.0907056e-20)
(0.096570314 -0.025057893 7.1477528e-20)
(0.097474519 -0.021888962 6.8748693e-20)
(0.10049977 -0.025680049 -7.2089068e-21)
(0.098364031 -0.037337143 -4.0248649e-20)
(0.10257668 -0.04516621 4.557099e-20)
(0.11822281 -0.045955757 2.0323803e-20)
(0.088948055 -0.002073952 0)
(0.090195035 0.00026641547 -8.0661114e-20)
(0.096879085 0.00076693389 -2.1397424e-21)
(0.097019625 0.0006931192 -2.5453424e-20)
(0.097091144 0.00085640096 -1.7126082e-20)
(0.097310588 0.0016349439 -1.9844103e-22)
(0.097496822 0.0011381539 -1.2081822e-20)
(0.097681045 0.00046843049 -1.1450584e-20)
(0.097415896 0.00087494402 -3.7060746e-21)
(0.096797289 0.0007588216 -5.5198767e-21)
(0.096510633 0.00064797048 6.7894719e-21)
(0.095912648 4.5632289e-05 3.6498801e-21)
(0.095229465 0.00071800428 -1.1006037e-21)
(0.095198177 -0.00018142387 -2.0371786e-23)
(0.094584111 -0.0011052314 1.6116624e-20)
(0.093579406 -0.0004313109 3.2287488e-22)
(0.09445983 -0.0024533555 -2.7641092e-20)
(0.093950823 -0.0052766883 3.4854885e-20)
(0.091882477 -0.0022212629 0)
(0.094195256 -0.0068642943 -6.4581887e-20)
(0.09515415 -0.011378134 0)
(0.092999437 -0.0089776013 5.0213477e-20)
(0.094004238 -0.011782885 3.7309093e-20)
(0.098226807 -0.018289689 -4.9270862e-22)
(0.098898305 -0.020600987 5.0522349e-20)
(0.094436564 -0.020382895 -3.2569578e-20)
(0.097671317 -0.020853672 2.7100755e-20)
(0.10598075 -0.025825271 -1.6931346e-21)
(0.1051839 -0.036875604 9.2012689e-20)
(0.10198079 -0.043152601 2.2069331e-20)
(0.11221111 -0.039579016 -1.5166727e-19)
(0.088782689 -0.0031503599 0)
(0.08956358 0.00076140247 0)
(0.095860448 0.0017731661 1.1836219e-19)
(0.096086648 0.00054088907 2.7999854e-19)
(0.096167657 0.0014823113 -5.7045584e-20)
(0.096648461 0.0018458549 -1.3999857e-23)
(0.097120595 0.0016709158 6.4931203e-20)
(0.097373696 -0.00028892744 8.5714689e-21)
(0.09704077 0.0012099113 0)
(0.096675767 0.0007107255 -3.6619289e-21)
(0.096484595 0.00030630858 -1.350037e-24)
(0.095813069 0.00044358366 -7.6488253e-21)
(0.095273559 0.00022464873 0)
(0.095359134 -0.00061025116 4.1836784e-23)
(0.094616668 -0.00079438935 3.6407916e-21)
(0.093793124 -0.00096436764 2.3325195e-21)
(0.094955149 -0.0030075822 -1.253478e-21)
(0.093793754 -0.0037351177 3.6883727e-21)
(0.092233448 -0.0024618909 6.497816e-21)
(0.095290771 -0.0076729508 0)
(0.095030001 -0.0095771441 0)
(0.092880531 -0.0073262541 -4.5078787e-20)
(0.094936137 -0.01147117 -1.1841048e-20)
(0.098273485 -0.015980144 3.2385676e-20)
(0.098191557 -0.015094978 1.8822405e-20)
(0.093835113 -0.016596665 -8.9118187e-21)
(0.09685059 -0.021684691 1.3450029e-20)
(0.1082204 -0.026665871 1.8203864e-20)
(0.11101816 -0.034160666 -4.7526401e-20)
(0.10292243 -0.040745283 -5.891727e-21)
(0.10324206 -0.037581114 3.2189444e-20)
(0.088362516 -0.0031599195 0)
(0.088586986 0.0010258808 -1.2833792e-22)
(0.09484858 0.0020503696 3.0303393e-21)
(0.094834587 0.00034614478 3.2619753e-21)
(0.094813293 0.0017669882 -1.2661375e-19)
(0.095536019 0.001322291 -2.0489385e-20)
(0.096298675 0.0016571714 8.0511758e-20)
(0.096616486 -0.00044376507 0)
(0.096305217 0.0012491577 1.3198572e-22)
(0.096222425 0.00070173664 -6.5224894e-21)
(0.096092972 -4.2604372e-05 5.6312665e-21)
(0.09549018 0.00084855035 -3.3190848e-21)
(0.095203815 -0.00017412351 2.1295755e-22)
(0.095266608 -0.001050597 2.479611e-21)
(0.094527993 -0.00054982893 -1.9415641e-21)
(0.094047672 -0.0015251981 1.2068549e-21)
(0.095141371 -0.0034620532 8.4590693e-21)
(0.093648404 -0.0021329276 2.2259142e-23)
(0.092915107 -0.0029863976 -9.2986245e-22)
(0.096038007 -0.0082748117 -3.2442838e-21)
(0.094620966 -0.0074000239 -9.0117275e-21)
(0.093091125 -0.0061952554 -1.3137033e-20)
(0.095722083 -0.011755468 -5.6237361e-21)
(0.097637221 -0.014705445 6.4707243e-20)
(0.09782791 -0.0107896 0)
(0.09513066 -0.013842348 -7.0786524e-21)
(0.096695137 -0.023533508 -3.1498895e-20)
(0.1075295 -0.027951426 -1.510682e-21)
(0.11351937 -0.029515838 -4.8423914e-20)
(0.10549129 -0.034785419 -3.69789e-20)
(0.097252186 -0.037761736 4.7071652e-20)
(0.088396164 -0.0023244999 0)
(0.087952084 0.0013960372 -1.6303165e-19)
(0.093994261 0.0017191174 -1.9350312e-19)
(0.0935682 0.00035288535 -1.7930661e-19)
(0.093345931 0.0017205546 -4.0446448e-22)
(0.094078784 0.00039642782 -2.3895018e-20)
(0.094896259 0.0010659159 0)
(0.095296419 0.0001669942 -2.3122014e-20)
(0.095181111 0.00092313262 8.5792117e-21)
(0.095360083 0.00042594327 -9.4147813e-21)
(0.095184284 -6.4732277e-05 1.0769972e-20)
(0.094797702 0.00098962788 2.8823131e-23)
(0.094844106 -0.00033012483 1.4813791e-20)
(0.094797594 -0.0011864689 1.2276693e-20)
(0.094227872 -0.00029973487 5.6961313e-22)
(0.094136688 -0.0018185818 2.1522022e-20)
(0.094901726 -0.0036657846 3.148609e-20)
(0.093513577 -0.00080113449 -4.1421073e-20)
(0.093842539 -0.0036746957 -7.754427e-20)
(0.096387939 -0.008375243 0)
(0.094156375 -0.0053605288 -8.2827517e-21)
(0.093878038 -0.0055595033 3.7657352e-21)
(0.096984161 -0.01213263 4.4102068e-20)
(0.096737149 -0.014693662 3.5407555e-21)
(0.097151177 -0.0094559702 0)
(0.098308968 -0.012100349 1.199877e-19)
(0.098517915 -0.024017442 -5.3862828e-20)
(0.10477688 -0.028786193 -8.5886251e-20)
(0.11248561 -0.024567306 7.0005861e-20)
(0.10910628 -0.025452776 5.045112e-20)
(0.099200928 -0.033950002 6.556747e-20)
(0.089523941 -0.0004024082 2.5224532e-19)
(0.087274512 0.0014788318 -9.7719812e-22)
(0.093158463 0.00073019112 2.7078532e-23)
(0.09243589 0.00053598441 1.0791947e-20)
(0.092021973 0.0012099491 1.2154943e-20)
(0.09248304 -0.00035762283 1.5813162e-23)
(0.093105989 0.00024600221 1.1106245e-21)
(0.093515722 0.0010928966 4.7926436e-23)
(0.093631578 0.00046630119 1.3679825e-21)
(0.093997371 -6.246787e-05 -3.2306682e-20)
(0.09378193 0.00024195308 1.2325324e-20)
(0.093704604 0.00069932415 1.1571293e-21)
(0.094052589 -0.00042528249 1.7246802e-20)
(0.093913038 -0.00099224749 1.8933263e-20)
(0.093628026 -7.8552264e-05 -6.3877073e-22)
(0.093993229 -0.0017510518 -6.8557084e-22)
(0.094223455 -0.0035100669 3.5838517e-20)
(0.093272918 -3.1291076e-05 -2.8407891e-20)
(0.094822603 -0.0043369418 -3.464584e-21)
(0.096336158 -0.0077171488 0)
(0.093716172 -0.0038796941 -5.9565779e-21)
(0.095141759 -0.0057846971 -9.7609173e-20)
(0.09886957 -0.012143353 -6.4935621e-20)
(0.096315719 -0.014572528 0)
(0.096489164 -0.01074574 -6.7086007e-20)
(0.10164906 -0.012424289 -7.6177665e-20)
(0.10206235 -0.02350205 6.2421732e-20)
(0.1017253 -0.028445814 -1.7692862e-19)
(0.10774203 -0.020336155 -9.0187058e-20)
(0.1114408 -0.015506587 -2.7984603e-20)
(0.10767214 -0.025413783 1.4824438e-19)
(0.092309869 0.0016483054 -4.7123877e-21)
(0.086455319 0.0014391181 -7.7422629e-20)
(0.092284326 -0.000378666 1.9571081e-22)
(0.09137218 0.00075824784 2.0504192e-19)
(0.090901277 0.00038377466 -2.7463516e-20)
(0.091089248 -0.00041036269 -2.7534844e-20)
(0.091384647 -0.00028252664 -3.9153469e-20)
(0.09166487 0.00179744 1.3598769e-23)
(0.091974324 0.000181691 -7.300512e-23)
(0.092225427 -0.00030556174 2.3766557e-20)
(0.092038818 0.00051182064 -2.4985752e-22)
(0.092264875 0.00027575912 3.4561408e-22)
(0.092766466 -0.00049720985 -1.4119987e-20)
(0.092574746 -0.00059036148 -3.0673342e-23)
(0.092641034 -7.680418e-05 3.1707336e-21)
(0.093506711 -0.0015262503 3.7293082e-22)
(0.093226312 -0.0029193158 -6.1743708e-22)
(0.092878418 -0.00018098828 2.7836239e-20)
(0.095316925 -0.0049007347 0)
(0.095818527 -0.006332603 4.1164389e-20)
(0.093384326 -0.0028516795 3.0368727e-21)
(0.09633187 -0.0068502839 -5.5129763e-20)
(0.10035839 -0.011480376 -3.0499597e-21)
(0.096442456 -0.013044631 -1.9207767e-20)
(0.095633351 -0.012911342 -4.344543e-20)
(0.10369777 -0.01383028 -8.536913e-21)
(0.10650864 -0.02103919 -6.2722747e-20)
(0.10098382 -0.0263531 4.4134623e-21)
(0.10157019 -0.020184564 -3.37265e-19)
(0.11012153 -0.011418258 1.0119034e-19)
(0.11677328 -0.01676081 1.7489884e-21)
(0.0953826 0.0030792097 1.2370054e-18)
(0.086618047 0.0013522885 0)
(0.092101934 -0.0012541162 -1.913109e-19)
(0.090942545 0.00067500119 -2.1471788e-19)
(0.090412641 -0.00034323041 1.0108087e-19)
(0.090251004 0.00027227514 -1.502965e-23)
(0.090140246 -0.0002040315 -2.7736282e-20)
(0.090315084 0.0017576335 -8.2311835e-23)
(0.090643174 0.00018306739 1.1195222e-20)
(0.090538809 -8.1534257e-05 4.7470943e-20)
(0.090326422 0.00044921069 -1.8584298e-20)
(0.090669306 2.6852932e-05 4.1918174e-22)
(0.091140015 -0.00046906855 -9.9723393e-22)
(0.090918144 -9.569502e-05 4.7425305e-21)
(0.091263282 -0.00035482476 -9.4098887e-21)
(0.092433183 -0.001228948 1.0241459e-20)
(0.091887763 -0.0018619585 -1.4270199e-20)
(0.092263361 -0.00090561311 -1.426419e-20)
(0.095119261 -0.0052199037 -2.0615817e-22)
(0.094811171 -0.0045942904 -1.35787e-21)
(0.093227043 -0.0024123445 1.81141e-22)
(0.096892506 -0.0082264059 -6.6276169e-22)
(0.10079908 -0.010091384 0)
(0.09723728 -0.0097270724 -1.1112628e-20)
(0.095513855 -0.013465922 4.2684218e-21)
(0.10371407 -0.015673881 -1.1504941e-19)
(0.10893605 -0.017039102 -9.5390511e-21)
(0.10207484 -0.020394135 -9.3251854e-20)
(0.097328916 -0.021028005 4.4830402e-20)
(0.10584688 -0.015397717 -2.4121296e-19)
(0.11991324 -0.015429589 8.8776586e-21)
(0.099076832 0.0032854804 -5.6942515e-19)
(0.087822041 0.0012201042 -1.3687373e-23)
(0.092641906 -0.0014382453 -6.218003e-20)
(0.091335244 0.00048987663 -1.9492465e-19)
(0.090645245 -0.00061432592 9.2726777e-22)
(0.090215238 0.0013897455 2.4012955e-23)
(0.089863761 0.00058724895 2.1924518e-20)
(0.089847125 0.0009554625 -1.0625941e-23)
(0.089915058 0.00025893091 1.3280293e-20)
(0.089405772 0.00034521045 7.7528468e-21)
(0.089022128 0.00020178213 -1.0275443e-20)
(0.089222993 -0.00013912693 0)
(0.089487674 -0.00041699571 3.981151e-22)
(0.089263137 0.00026028397 -1.2351833e-21)
(0.089694339 -0.00089537804 2.7846968e-21)
(0.090796127 -0.0010563586 1.2404859e-20)
(0.090219907 -0.00070066548 4.5533025e-21)
(0.091217304 -0.0017061305 4.4772763e-20)
(0.094002314 -0.0051597523 -1.0199575e-20)
(0.093331131 -0.0026353492 -5.4198654e-20)
(0.093238516 -0.0023414784 4.7656496e-20)
(0.096951312 -0.0094907975 1.4158766e-21)
(0.10004258 -0.0086356788 -1.9693987e-21)
(0.098229762 -0.0056189739 -8.7162154e-21)
(0.096594997 -0.012155017 9.8401165e-22)
(0.10255903 -0.017323493 5.7865459e-20)
(0.10886603 -0.013653208 -8.2065249e-20)
(0.10483196 -0.012628003 -6.2248907e-20)
(0.097507142 -0.018502972 -8.5601316e-20)
(0.1011775 -0.022304777 1.7148118e-19)
(0.11572053 -0.021571041 -1.0051262e-19)
(0.10446237 0.0021928243 -1.4807628e-18)
(0.091077169 0.00097901181 -4.157015e-22)
(0.094843067 -0.00084250012 7.7296398e-20)
(0.093207748 0.00028901834 1.0913979e-19)
(0.091955318 -0.000324847 -4.5024263e-22)
(0.091119375 0.002238131 0)
(0.090507182 0.0015519745 -1.3694981e-20)
(0.090089832 -3.1135091e-05 1.3744943e-20)
(0.08981128 0.00021427147 -5.4204559e-22)
(0.088921503 0.00037372594 2.5885836e-20)
(0.088027663 8.8476332e-05 -2.1467784e-23)
(0.087901746 -0.00035311254 -6.3394005e-23)
(0.087867647 -0.00026797849 0)
(0.087667967 0.00037517571 1.7210818e-20)
(0.088046837 -0.0013814873 -8.3755777e-21)
(0.088843164 -0.00115395 1.3918626e-22)
(0.088422485 0.00014385333 1.1619379e-21)
(0.089849214 -0.0024584324 6.0277596e-20)
(0.091993718 -0.0047227385 -4.0073821e-20)
(0.091215576 -0.0010326511 -5.4475615e-20)
(0.093124026 -0.0021766893 6.783163e-20)
(0.09655226 -0.0098403303 2.7160399e-20)
(0.097975134 -0.0074226505 -1.3721606e-19)
(0.098614406 -0.001743044 -1.8644712e-20)
(0.099006844 -0.0092418934 -1.9811547e-19)
(0.10146061 -0.017266716 6.0252735e-21)
(0.10633264 -0.011555298 1.449605e-21)
(0.10738754 -0.0061938832 1.2634799e-20)
(0.10307662 -0.013084726 -1.6508119e-19)
(0.10142126 -0.025722909 -9.0810503e-20)
(0.10894284 -0.029205151 2.6761767e-19)
(0.11007341 0.00021945951 6.9351104e-20)
(0.096688209 0.00064912059 -7.0764797e-22)
(0.099534643 0.00036387926 -1.44487e-20)
(0.097857141 0.00017961483 2.4386032e-22)
(0.095622607 0.0004577005 -9.9120382e-23)
(0.094017373 0.0021595722 3.2780945e-20)
(0.092743031 0.0019851264 -2.5176632e-20)
(0.091291539 -0.00060506607 -2.7932229e-23)
(0.090284742 9.0433828e-05 1.7613136e-20)
(0.089117169 -7.1581221e-05 -2.3976961e-20)
(0.087929331 0.00014627492 -1.6986069e-20)
(0.087257976 -0.0005310574 2.7831364e-21)
(0.08678856 -2.7620802e-05 0)
(0.086609319 0.00027008109 7.496562e-24)
(0.086739884 -0.0016506997 -2.8039167e-20)
(0.086957424 -0.0013216838 3.6242381e-22)
(0.086831285 0.0005926063 -1.7407754e-22)
(0.088523962 -0.0029112844 1.8257327e-22)
(0.089547392 -0.0036011221 -3.7567006e-21)
(0.088794979 -0.00015547048 4.3595552e-22)
(0.092667497 -0.0022680523 -6.3626146e-20)
(0.095701277 -0.0088808001 3.4248237e-20)
(0.094842481 -0.0065437192 -2.4876342e-21)
(0.097795669 -0.00041014532 -1.8275867e-20)
(0.10192924 -0.0066757706 -5.8541242e-20)
(0.10141003 -0.015476821 -9.9510925e-21)
(0.10223208 -0.011723377 1.472235e-19)
(0.10679558 -0.0037255385 -7.5246068e-20)
(0.11002897 -0.0077291941 -9.4788868e-21)
(0.10828103 -0.022601236 2.0583991e-19)
(0.1064059 -0.031744575 -3.850687e-21)
(0.10880383 -0.001877846 -7.6352977e-19)
(0.10133364 0.00048820972 0)
(0.10465359 0.0016181681 4.5370138e-20)
(0.10310797 0.00030107389 2.8075745e-19)
(0.10102032 0.0014493035 8.0343781e-20)
(0.099064713 0.0011418036 2.3491021e-21)
(0.097078198 0.0015852741 1.4912136e-22)
(0.09444812 -0.00048894086 -2.6986087e-23)
(0.092065309 0.00010592037 -2.2259276e-20)
(0.090057289 -0.00060441904 -5.8571378e-21)
(0.088432975 5.9959281e-05 1.4164269e-20)
(0.08743751 -0.00063481692 8.4823218e-24)
(0.086736806 2.9218158e-05 1.7089382e-20)
(0.086795215 -0.00015716749 0)
(0.086791345 -0.001484959 -3.2574154e-20)
(0.086449878 -0.0014254505 2.9374325e-20)
(0.086709996 0.00041178393 3.1654729e-22)
(0.088419665 -0.0029606085 4.9121009e-20)
(0.088275661 -0.0020163399 5.4396743e-22)
(0.087451055 0.00012575947 1.965898e-21)
(0.09218513 -0.0026674743 -2.5474781e-20)
(0.094642473 -0.0064152166 7.1642519e-22)
(0.091550187 -0.0051254437 8.140139e-20)
(0.095688013 -0.0017318573 7.4673096e-20)
(0.10349455 -0.0054829048 6.73102e-20)
(0.10243372 -0.012314694 -4.2137497e-20)
(0.098789831 -0.012380372 -8.0569144e-20)
(0.1038986 -0.0061583094 -1.9800287e-21)
(0.11362783 -0.0068822085 5.7927307e-20)
(0.11658477 -0.016289465 -9.6666561e-20)
(0.11094959 -0.026876688 6.4155538e-20)
(0.1057662 -0.0029457485 5.3465885e-19)
(0.10193603 0.00035363754 -1.866604e-19)
(0.10620364 0.0021363543 7.9002269e-22)
(0.10507843 0.00045566095 3.0064589e-21)
(0.10355105 0.0020146007 1.1945438e-22)
(0.10252935 -0.00023380245 6.4467714e-21)
(0.10121476 0.00040585188 -4.7816666e-21)
(0.098678709 -1.4725354e-05 -4.9719144e-23)
(0.095777913 -0.00015976539 -2.3879464e-22)
(0.092864009 -0.0008248095 -1.0352959e-20)
(0.090539552 -0.00021824495 -1.2049423e-22)
(0.0889759 -0.00028820256 -5.6844873e-21)
(0.087959874 -2.8504442e-05 -1.9688368e-23)
(0.088063271 -0.00068040692 7.1199459e-22)
(0.08795034 -0.00087384271 0)
(0.087222744 -0.0012524287 0)
(0.087768921 -0.00022909648 3.6264319e-21)
(0.089282606 -0.0027574667 -3.9515215e-22)
(0.088464 -0.00048415416 4.9680653e-20)
(0.087785864 -0.00023130541 -3.0599164e-21)
(0.092347751 -0.0035295926 -8.310512e-21)
(0.094073895 -0.003527525 -5.3240492e-21)
(0.089532068 -0.0029845416 0)
(0.093030405 -0.0042304107 0)
(0.10258305 -0.0062017986 0)
(0.1029383 -0.0086049897 1.7037707e-21)
(0.096804884 -0.010847639 1.7399331e-21)
(0.099712765 -0.011030591 4.8426448e-20)
(0.11177097 -0.010248448 2.6235842e-20)
(0.11997546 -0.011635151 2.0648934e-21)
(0.11657083 -0.016508355 -3.2826147e-20)
(0.10100288 -0.0027020895 2.5763378e-19)
(0.10039866 0.00043588528 -2.4780593e-21)
(0.10531515 0.0017482922 -4.6742131e-22)
(0.10437168 0.00065484991 -1.5683973e-19)
(0.10323075 0.0018355317 0)
(0.10246854 -0.0010018376 5.9508289e-23)
(0.10165897 -0.00061323362 -2.1037456e-20)
(0.10043457 0.00086874539 4.6327394e-20)
(0.099138406 -0.00018021636 1.0003406e-22)
(0.096839505 -0.0011481337 2.5528004e-20)
(0.094642396 -0.0009787684 8.9483902e-21)
(0.092949956 -0.00024785518 0)
(0.091947426 -0.00028517783 3.7055794e-20)
(0.09194331 -0.0011066692 7.3973606e-21)
(0.091799596 -0.00011648629 -2.1327119e-21)
(0.090948156 -0.00069663435 -1.3227351e-21)
(0.091498497 -0.00081487387 1.1474832e-20)
(0.092453915 -0.0022472007 6.8648506e-22)
(0.09125185 0.0011008941 2.9843873e-20)
(0.090727522 -0.0005972358 -3.7962975e-21)
(0.09392602 -0.0044016687 4.5105825e-22)
(0.094882168 -0.00078753137 -5.9727742e-20)
(0.090493407 -9.8094433e-05 4.2779977e-20)
(0.09222302 -0.0064310799 0)
(0.10047278 -0.008360578 1.0121303e-20)
(0.10231967 -0.0052922144 -4.1256085e-22)
(0.096987799 -0.0064983894 -1.113098e-19)
(0.096916458 -0.013778517 1.2517381e-20)
(0.10649263 -0.015328341 1.0288193e-19)
(0.11657058 -0.010896433 6.7304606e-20)
(0.11848418 -0.0067342538 -1.3377786e-21)
(0.095806116 -0.0012133916 -2.1432979e-19)
(0.095424187 0.00042482005 5.5615883e-20)
(0.10152231 0.00050952621 -2.8147084e-22)
(0.10097747 0.00057008827 -4.3041822e-20)
(0.10044188 0.00074297341 -5.2288577e-20)
(0.10033709 -0.0010990806 -1.9338451e-23)
(0.10011348 -0.0011401775 6.3225037e-20)
(0.10008152 0.0010234766 -2.1654557e-20)
(0.10006872 -0.00032952939 -3.3107142e-22)
(0.099141245 -0.0011224447 -3.4640669e-23)
(0.098182447 -0.00078278873 -9.1982153e-21)
(0.097912704 0.00023600048 -3.0032354e-22)
(0.097816529 -0.00023011926 -3.0109971e-22)
(0.097921819 -0.0012502168 -4.1323721e-23)
(0.097976839 0.00039228681 -3.0113108e-20)
(0.097403345 -0.00012629605 -8.8683216e-23)
(0.097908774 -0.0011403609 -2.7025898e-20)
(0.098103903 -0.0017025332 2.1145089e-21)
(0.096906945 0.0019932514 1.5739407e-21)
(0.096779646 -0.0010633016 0)
(0.097673436 -0.0055761649 -3.227633e-20)
(0.09706782 0.00059431331 -7.0658287e-22)
(0.094193026 0.0026882744 1.1076942e-19)
(0.094471627 -0.0073623403 -4.4926428e-21)
(0.098730339 -0.010404401 -3.9733624e-20)
(0.10040672 -0.0027108579 1.4331598e-19)
(0.098680733 -0.0013417632 4.6537465e-20)
(0.097803109 -0.011686243 2.8793065e-22)
(0.10143959 -0.018710044 -1.1616688e-20)
(0.10844251 -0.012796006 -1.0548723e-19)
(0.1137273 -0.0029025477 -3.9479961e-21)
(0.092768693 0.00066834891 3.4297479e-19)
(0.091181098 0.00082810636 -1.1765088e-22)
(0.097190027 -0.00078515711 -6.9560845e-20)
(0.096750628 0.00060254453 -2.313588e-21)
(0.096876976 -0.00032935164 5.4466316e-22)
(0.097268729 7.6436247e-05 -2.3551603e-21)
(0.097644924 -0.00061263088 0)
(0.098718132 0.00076635 -1.7802323e-22)
(0.10025004 -0.00041465992 3.1162586e-23)
(0.10026992 -0.0021298609 -2.6569354e-20)
(0.10016328 -0.00099025141 2.4895306e-23)
(0.10086864 0.00029068545 -6.9565866e-24)
(0.10167271 6.0112094e-05 -3.6710332e-20)
(0.10181491 -0.00094254568 2.832722e-21)
(0.10198007 0.00069367849 4.7664603e-20)
(0.10177285 0.00067084028 5.8570156e-23)
(0.10212729 -0.0010087078 3.2309621e-22)
(0.10140905 -0.00097567649 -5.4331422e-22)
(0.10046971 0.001969209 0)
(0.10132273 -0.0011519655 9.5435624e-20)
(0.1001841 -0.0056857149 -1.6799375e-20)
(0.097884961 0.00064238849 6.4073307e-20)
(0.097777304 0.0033319858 3.0565742e-20)
(0.098316394 -0.006660769 -8.7375494e-23)
(0.097271411 -0.010850176 -2.835639e-20)
(0.096805839 -0.0017156662 -8.3419376e-20)
(0.09928519 0.0022879688 8.4650574e-21)
(0.10124789 -0.0058095046 -8.692275e-20)
(0.10003711 -0.016615937 4.111146e-20)
(0.10002705 -0.014107052 -7.2959781e-20)
(0.10473555 -0.0041535779 -6.204949e-21)
(0.091532595 0.0027702338 4.5766816e-19)
(0.091044064 0.0011589639 1.2093028e-23)
(0.09713281 -0.0017481006 -1.2564877e-21)
(0.096819876 0.00046891907 2.5491157e-19)
(0.097125254 -0.0012439954 -9.2909485e-22)
(0.097661335 0.0012678149 -1.662031e-20)
(0.098151171 0.00046776578 0)
(0.099374785 -0.0003204222 0)
(0.10113891 0.00052233019 -3.4694526e-21)
(0.10080879 -0.0015775534 0)
(0.10037831 -0.00033326541 -1.9823365e-21)
(0.10107399 0.00032699764 -3.5281353e-20)
(0.10201087 2.1104663e-05 0)
(0.10186565 -0.00082303386 2.85027e-20)
(0.10184783 0.00018498062 4.0188397e-20)
(0.10196143 0.00070433253 -1.81069e-20)
(0.10225818 -0.0012443355 -8.2162294e-22)
(0.10086136 -0.00067102753 3.4668624e-21)
(0.10023982 0.00064817984 -4.4028519e-21)
(0.10217007 -0.0019029196 5.7851298e-20)
(0.099852061 -0.0048603762 -6.3929274e-22)
(0.09648443 -0.00077027055 7.2863858e-22)
(0.099040667 0.0013728953 -9.5324643e-21)
(0.10159916 -0.0052647772 5.9666653e-20)
(0.097308085 -0.0090711161 -2.1216711e-20)
(0.094037546 -0.0028310616 -2.205834e-19)
(0.098890034 0.0021543663 4.0231664e-21)
(0.10521701 -0.0017313857 3.4183711e-21)
(0.10300801 -0.0099318746 -1.7730866e-19)
(0.096640541 -0.012454334 1.0790874e-20)
(0.096856989 -0.0074669005 1.229192e-19)
(0.092353328 0.002505184 -4.584337e-19)
(0.093219447 0.0016093022 2.5661304e-22)
(0.099773025 -0.0015419134 3.7337501e-20)
(0.099921905 0.00053746345 -1.9546924e-19)
(0.10025834 -0.001055022 1.6388775e-19)
(0.1007331 0.0025454646 6.4038118e-23)
(0.1013682 0.0016065709 -1.348911e-22)
(0.101519 -0.00048859785 6.5479212e-20)
(0.10240708 -0.00060791288 6.2650316e-20)
(0.10124635 -0.002320878 1.3507597e-20)
(0.10001562 -0.00042524722 -7.406952e-23)
(0.10043556 0.0004194264 2.5002537e-22)
(0.1008993 0.00017704104 6.2720033e-21)
(0.10030576 -0.00012397345 1.1080493e-20)
(0.099810996 3.8767214e-05 1.6714071e-20)
(0.099870322 0.0006878067 -1.6657017e-21)
(0.099962691 -0.00085972312 -1.5240571e-20)
(0.098224382 0.00022576122 1.8802535e-20)
(0.097797445 -0.00044559595 4.6827993e-21)
(0.10040802 -0.0021080705 -5.9082676e-21)
(0.098055092 -0.0023882143 -3.1573603e-21)
(0.094152114 -0.001789568 -1.6503815e-20)
(0.098044985 -0.0016179639 4.3537938e-20)
(0.10272005 -0.0041790305 -1.1683966e-22)
(0.097838538 -0.0048785592 -1.6768531e-20)
(0.092452242 -0.0032930554 6.0293546e-20)
(0.09772136 -0.0010064468 1.9370301e-21)
(0.10733011 -0.0021094418 -4.2248961e-20)
(0.10795006 -0.0031456409 5.667452e-20)
(0.099713712 -0.0059426627 -5.6221699e-20)
(0.095521824 -0.0079687286 -1.7736527e-20)
(0.096977239 0.0019102346 -5.6380814e-19)
(0.098871337 0.0019407503 1.689291e-22)
(0.10454407 -0.00062023326 -5.7696124e-22)
(0.10412454 0.00040996792 -2.6791326e-22)
(0.10348345 -0.00036261865 -6.4303129e-20)
(0.10327572 0.0019045348 -2.4796822e-21)
(0.10301702 0.0014934887 -3.1497527e-20)
(0.10248788 -0.00092780468 -1.5794169e-20)
(0.10184515 0.0015465419 2.4606134e-20)
(0.099806084 -0.0016509441 2.1704005e-22)
(0.097735826 -0.00054728392 -4.1524887e-22)
(0.097432734 -0.00029412797 -7.4339145e-20)
(0.097449992 -0.00080283232 4.132926e-23)
(0.096412398 -0.00017045125 5.7843492e-21)
(0.095492974 -0.00092840544 1.0399031e-22)
(0.09562596 -0.00051760956 -9.3707554e-21)
(0.09575201 -0.0012926291 -1.3122358e-20)
(0.094320669 0.00036794937 0)
(0.094386559 -0.0023288523 5.0622313e-22)
(0.097184228 -0.0028806456 -6.6942506e-22)
(0.096013818 -3.5504555e-05 -1.1687104e-20)
(0.092890574 -0.0019034007 3.280997e-20)
(0.096828532 -0.0051893951 -9.3190145e-22)
(0.10248936 -0.0042345405 3.6316762e-20)
(0.099441055 -0.00045785149 -7.021686e-21)
(0.093916569 -0.0018396437 3.602484e-20)
(0.097761096 -0.0061423193 1.8431317e-20)
(0.10714198 -0.006114584 6.4529515e-20)
(0.11075297 -0.0010222207 -6.4314868e-20)
(0.10579084 0.00090118669 7.7676991e-20)
(0.10092762 -0.0047635935 1.9855719e-19)
(0.10865296 -0.00049757053 7.2391597e-20)
(0.10077489 0.0021381599 -6.2658178e-20)
(0.10490037 0.0010358435 -3.3447393e-20)
(0.10380568 0.00050688816 -2.1792229e-19)
(0.10263702 0.0010532245 2.102514e-22)
(0.10152188 0.00085447624 1.8478446e-23)
(0.10126009 0.0005814431 -2.8221095e-23)
(0.099029568 0.0005326671 2.072499e-20)
(0.099250258 -0.0017915265 -3.3462789e-20)
(0.097674913 -0.0026972775 2.4238879e-20)
(0.094516302 0.000349976 -1.1449766e-21)
(0.094358235 0.00015601632 2.0253591e-22)
(0.094412589 -0.00064877759 -1.5500824e-20)
(0.093766012 0.00087362981 -7.1454197e-23)
(0.093235583 -0.00060332318 7.3306148e-20)
(0.093579456 -0.0006805955 1.4870286e-20)
(0.093987143 -0.00086000478 4.2463239e-22)
(0.093503719 0.001532615 -1.3979087e-22)
(0.094035659 -0.0025740066 7.7620633e-20)
(0.096023006 -0.0026051013 -1.0286446e-19)
(0.096197534 0.0026605902 3.6917999e-21)
(0.094911705 -9.237573e-07 -1.3519732e-19)
(0.097676724 -0.007006104 -5.2667318e-21)
(0.10230559 -0.0039741382 1.3499143e-19)
(0.10185965 0.0032088338 -1.7910096e-20)
(0.099491171 0.0017580952 7.4391079e-20)
(0.10186883 -0.0085106968 1.6944041e-19)
(0.10797048 -0.0098465881 6.8864921e-20)
(0.11184948 -0.0015448987 6.9849595e-20)
(0.11212715 0.0050984874 -5.248001e-22)
(0.11025991 0.00037552675 -2.8199635e-20)
(0.11189668 -0.0018997007 -1.1601564e-18)
(0.097613664 0.00087548208 -2.829562e-21)
(0.10153119 0.001738282 -3.9322827e-22)
(0.099714534 0.00035278728 -1.6427475e-21)
(0.09827328 0.0017036449 -7.232562e-22)
(0.097215739 -0.00085529583 4.7402749e-22)
(0.096858115 -0.0007247535 -9.9207511e-23)
(0.096975518 0.00093423898 1.2541989e-22)
(0.096996208 0.0026724074 2.7236221e-24)
(0.094620697 -0.0054318293 -2.1421286e-22)
(0.092612833 -0.00036241574 -1.9635142e-23)
(0.093769867 -0.0010859417 4.5971434e-20)
(0.094255474 -0.0016837454 2.8469071e-20)
(0.094183176 0.00043258312 3.4550029e-23)
(0.094220083 -0.001174619 -8.1394563e-23)
(0.094519772 -0.0016088841 -2.4730795e-23)
(0.09478866 -0.0013666774 -1.3702765e-21)
(0.095221731 0.0012931722 7.090943e-22)
(0.096232407 -0.002923958 -9.3797047e-20)
(0.096716914 -0.0030906368 1.0462501e-19)
(0.097757427 0.0033705729 5.9300708e-20)
(0.099262923 0.0010348598 8.648228e-22)
(0.10082612 -0.0070663911 2.2909216e-22)
(0.10257368 -0.0045533293 -2.0511929e-21)
(0.10364182 0.0040648759 -4.3992434e-20)
(0.10608733 0.0037194249 -5.6150349e-20)
(0.10873923 -0.0075929337 -4.0862835e-21)
(0.10948767 -0.012460049 6.6868696e-21)
(0.11084383 -0.0041041724 8.0132624e-20)
(0.11471422 0.0042018439 -1.1094798e-19)
(0.11833294 0.0027819889 -3.0790359e-20)
(0.10521234 -0.0036463332 -1.3316687e-20)
(0.09413186 0.00055153134 1.8525295e-19)
(0.097850939 0.0018963387 1.5688059e-20)
(0.097072434 0.00039262709 2.1266942e-19)
(0.095235092 0.0019221848 1.7657361e-19)
(0.095970871 -0.0010334725 -1.4094652e-21)
(0.09469918 -0.0011646361 -1.1027622e-19)
(0.094913279 0.0026534754 7.6821109e-23)
(0.096853457 -0.0031094076 2.8182064e-20)
(0.095736769 -0.0027641374 -3.7489568e-21)
(0.092853366 0.0017204742 5.1407002e-21)
(0.094390079 4.2926231e-05 2.445914e-22)
(0.095461627 -0.00065346575 2.3982337e-20)
(0.096204532 0.001037807 -2.6504742e-20)
(0.096986539 -0.0003167672 1.7536989e-22)
(0.097522443 -0.00091858517 2.8256563e-20)
(0.097859267 -0.00053630566 3.0819419e-22)
(0.09927534 0.001659726 -9.3352337e-21)
(0.10108295 -0.0014597887 8.2021961e-22)
(0.10011486 -0.002286319 5.1460191e-20)
(0.10138065 0.0031338091 -7.3624843e-20)
(0.10552205 0.0018543842 -8.1097579e-22)
(0.10667278 -0.0041003165 4.4545687e-21)
(0.10495813 -0.003925181 -1.0960806e-19)
(0.10582627 0.003265247 5.5280541e-21)
(0.11206155 0.0039128763 1.236841e-20)
(0.11685621 -0.0032474755 -3.1364486e-19)
(0.11386854 -0.0091375765 0)
(0.11052933 -0.0049266483 -5.4054651e-20)
(0.11498248 0.0019639397 -1.8871442e-19)
(0.12300766 0.0032248507 -4.000176e-21)
(0.09980435 -0.00075830132 1.8322155e-19)
(0.10159234 0.00022687104 0)
(0.084259623 0.00016028501 2.9700795e-22)
(0.11159407 0.00045602818 2.12862e-20)
(0.074410055 0.00013744985 2.3133321e-20)
(0.11546411 -1.0660787e-05 -1.8744234e-22)
(0.06352605 -0.00062375282 -7.5953358e-20)
(0.12158209 0.00037705699 -1.3793271e-20)
(0.056053837 0.0042258056 6.7556918e-21)
(0.11440146 -0.0097439577 1.0661133e-21)
(0.11576923 -0.00015391223 4.1247914e-22)
(0.10909609 -0.00061425533 -3.5450177e-21)
(0.11655911 -0.00063384734 -1.7880484e-21)
(0.11276876 -0.00010462661 -1.9700928e-20)
(0.11767369 -0.00038147736 1.5180209e-20)
(0.11503339 -0.00034147267 1.8796504e-21)
(0.1165866 -0.00043107172 5.4980403e-21)
(0.11762264 0.00015723345 -1.2601414e-20)
(0.11933209 -0.00041529526 3.5840675e-20)
(0.11602148 -0.00058772205 -6.0052938e-22)
(0.11763655 0.00038345334 -4.8331304e-20)
(0.12238302 0.00037529337 -7.7213075e-21)
(0.12279426 -0.00085214467 -8.2287764e-21)
(0.11833208 -0.0011335819 9.9040648e-21)
(0.11877041 0.00030958368 3.5770782e-20)
(0.12587004 0.00070485174 -2.2356829e-20)
(0.13183212 -0.00060369811 6.1492292e-21)
(0.12672523 -0.0023356588 -2.6529082e-20)