-0.5 	1.0020094
-0.48412699 	1.034788
-0.46825397 	1.0293263
-0.45238095 	0.98875822
-0.43650794 	1.0671654
-0.42063492 	1.0045548
-0.40476191 	0.91532081
-0.3888889 	0.99801032
-0.37301588 	1.1339705
-0.35714287 	1.0390661
-0.34126985 	0.87682648
-0.32539684 	0.89400417
-0.30952379 	1.049476
-0.29365078 	1.2207094
-0.27777776 	1.1242022
-0.26190475 	0.91687769
-0.24603173 	0.85856775
-0.23015872 	0.91190895
-0.2142857 	0.99019908
-0.19841269 	1.0665145
-0.18253967 	1.1394209
-0.16666666 	1.1839991
-0.15079364 	1.1839852
-0.13492063 	1.1478103
-0.11904758 	1.099992
-0.10317457 	1.0585648
-0.087301552 	1.0308336
-0.071428537 	1.0148254
-0.055555522 	1.0104029
-0.039682507 	1.0353859
-0.023809493 	1.0836418
-0.0079364777 	1.1083663
0.0079365373 	1.1568318
0.023809552 	1.1735733
0.039682567 	1.1509498
0.055555582 	1.1556168
0.071428597 	1.1608879
0.087301612 	1.1277421
0.10317463 	1.070353
0.11904764 	1.0192968
0.13492066 	0.99009464
0.15079367 	0.97935704
0.16666669 	0.96755212
0.1825397 	0.94582796
0.19841272 	0.92786631
0.21428573 	0.92874635
0.23015875 	0.96222189
0.24603176 	1.0334484
0.26190484 	1.1072429
0.27777785 	1.1147207
0.29365087 	1.0479076
0.30952388 	0.99749935
0.3253969 	1.0098167
0.34126991 	1.0467889
0.35714292 	1.0562082
0.37301594 	1.0403477
0.38888895 	1.03273
0.40476197 	1.0408433
0.42063499 	1.042272
0.436508 	1.0436049
0.45238101 	1.0234592
0.46825403 	1.053711
0.48412704 	1.0357561
0.5 	1.0335532
