/*--------------------------------*- C++ -*----------------------------------*\
| =========                 |                                                 |
| \\      /  F ield         | OpenFOAM: The Open Source CFD Toolbox           |
|  \\    /   O peration     | Version:  2406                                  |
|   \\  /    A nd           | Website:  www.openfoam.com                      |
|    \\/     M anipulation  |                                                 |
\*---------------------------------------------------------------------------*/
FoamFile
{
    version     2.0;
    format      ascii;
    arch        "LSB;label=32;scalar=64";
    class       volScalarField;
    location    "155";
    object      rho;
}
// * * * * * * * * * * * * * * * * * * * * * * * * * * * * * * * * * * * * * //

dimensions      [1 -3 0 0 0 0 0];

internalField   nonuniform List<scalar> 
20580
(
1.0044759
1.0033053
1.0018716
1.0030519
1.0027277
1.0037478
1.0037449
1.0040052
1.0048852
1.0043007
1.0050108
1.0045837
1.0046843
1.0051499
1.0053819
1.0043865
1.0059525
1.0070365
1.0026266
1.0068831
1.0090442
1.0045004
1.0048417
1.0108213
1.010542
1.00064
1.0032318
1.0079969
1.0014798
1.0078823
1.0295198
1.0048514
1.0032415
1.0023289
1.0031859
1.0025522
1.0039755
1.0037136
1.0039961
1.0044674
1.0042168
1.0053175
1.0043007
1.0046351
1.0056243
1.0047829
1.0042779
1.0073259
1.0056426
1.0020882
1.0091217
1.0081622
1.0033934
1.0069124
1.011934
1.007972
0.9961326
1.0005976
1.01415
1.0088531
1.0004405
1.0143128
1.0039659
1.0034705
1.002994
1.003356
1.0026474
1.0039948
1.0036265
1.0040857
1.0038328
1.004214
1.0054319
1.0043942
1.004428
1.0060323
1.0045894
1.0042248
1.0079991
1.0045027
1.002155
1.0103059
1.0066631
1.0020808
1.0078246
1.0113866
1.0069911
0.99552083
0.99911247
1.0174253
1.0168009
0.99712766
0.99530514
1.0022033
1.0039091
1.0035831
1.0034591
1.0030738
1.0037414
1.003679
1.0042707
1.0034432
1.004546
1.0051107
1.0046619
1.0045065
1.0060079
1.0046809
1.004361
1.0078313
1.0036973
1.0030066
1.0102892
1.0048738
1.0016565
1.0081118
1.0085132
1.006569
0.9994987
1.0000937
1.0162543
1.0222135
1.0007619
0.98306118
1.0003739
1.0041501
1.0038641
1.0033389
1.0037307
1.0033288
1.0037501
1.0043725
1.003611
1.0050139
1.0047307
1.0048083
1.0049848
1.0055323
1.0047807
1.0048549
1.006972
1.0032276
1.0046616
1.0095304
1.0030556
1.0025663
1.0086037
1.0046901
1.0051181
1.0061086
1.0039708
1.011395
1.0209853
1.0093147
0.98600752
0.99929725
1.0042336
1.0037033
1.0030994
1.0042024
1.0030129
1.003834
1.0041691
1.0041932
1.0051342
1.0044859
1.0046821
1.0056252
1.0048814
1.0049594
1.0055456
1.0056758
1.0030374
1.0066937
1.0081465
1.0016629
1.0043642
1.0098866
1.0017627
1.0022778
1.012036
1.0098662
1.0053412
1.0113857
1.0155814
1.0007609
0.99940372
1.0041556
1.0031976
1.0028605
1.0041834
1.0029102
1.0039336
1.0037012
1.00477
1.0048678
1.0044801
1.0045867
1.0059028
1.0043412
1.0051912
1.0062015
1.0044459
1.0032479
1.0084584
1.00654
1.0011047
1.0065147
1.0119821
1.0008192
0.99942931
1.0145746
1.0158145
1.0016532
0.99827645
1.0119627
1.0180121
1.0005492
1.0038945
1.0026598
1.0027007
1.0037652
1.0030818
1.0037815
1.0032737
1.0050386
1.0044287
1.0045552
1.0047923
1.0056608
1.0040314
1.0051635
1.0065667
1.0036625
1.0038066
1.0094091
1.0050792
1.0014352
1.0081855
1.0131079
1.0020552
0.99835803
1.0128867
1.0189121
1.0021036
0.98983185
1.0011767
1.0237395
1.0021899
1.0035968
1.0023161
1.0027636
1.0030772
1.0034125
1.0034235
1.0032286
1.0049072
1.0042255
1.0043852
1.0052483
1.0052412
1.0041006
1.0048694
1.0065635
1.0034894
1.0045676
1.0092746
1.003797
1.0025185
1.0087741
1.0115963
1.0046229
0.99988452
1.0091074
1.0171801
1.0060417
0.99040895
0.99275159
1.0165645
1.0040491
1.00351
1.0022549
1.0030968
1.0024444
1.0036759
1.0031407
1.0036538
1.0044115
1.0043885
1.0042877
1.0055063
1.0047919
1.0044423
1.0047282
1.0061396
1.0037803
1.005595
1.0082738
1.0026231
1.0045945
1.0087007
1.0074875
1.0063749
1.0041327
1.0057142
1.010122
1.0096966
0.99901076
0.9949356
1.004178
1.0050533
1.0039183
1.0026987
1.0036082
1.0024043
1.0038528
1.0031394
1.0044054
1.0039262
1.0046247
1.0046051
1.0052974
1.0044529
1.0049195
1.004795
1.0053141
1.0042553
1.0067228
1.0066621
1.0017013
1.0069706
1.0086059
1.0021183
1.005589
1.0100146
1.0047689
1.0011853
1.0079222
1.0113978
1.0053687
0.99958597
1.0043842
1.0042562
1.0033206
1.003839
1.0028511
1.0038226
1.0034754
1.0050458
1.0037835
1.0048017
1.005222
1.0050115
1.0043121
1.0055142
1.0050182
1.0044037
1.0047701
1.0076147
1.0050546
1.0014401
1.0088576
1.0089316
0.99804371
1.0031444
1.0147477
1.0070339
0.99581974
1.0014608
1.0184876
1.0192506
1.005828
1.0024384
1.0044136
1.0036868
1.0036756
1.0035281
1.0035877
1.004034
1.0050816
1.0039236
1.0046409
1.0056536
1.0048984
1.0043092
1.0059083
1.0054697
1.0038973
1.0051976
1.0080024
1.0040175
1.001875
1.0098749
1.0096828
0.99676562
1.0013115
1.0162566
1.0111144
0.99585589
0.99590005
1.0158451
1.0276876
1.0157713
1.000539
1.0042915
1.0035964
1.0032444
1.0041516
1.0033244
1.0044989
1.0044519
1.0042167
1.0042465
1.0054876
1.0049336
1.0044433
1.0058339
1.005941
1.0038737
1.0054222
1.007686
1.0036247
1.0029727
1.0095648
1.0096036
0.99841285
1.0015092
1.0139372
1.0134009
0.99979991
0.99670468
1.0070588
1.0238977
1.0211077
0.9993188
1.0041268
1.0035202
1.002903
1.0045078
1.0032569
1.0045129
1.0036921
1.0045396
1.0041086
1.0050329
1.0050601
1.0046926
1.0054771
1.0059028
1.0041609
1.0055568
1.0067306
1.00364
1.0049751
1.0081163
1.0077484
1.0021402
1.0041544
1.0098295
1.010988
1.0056238
1.0022575
1.0028978
1.0096378
1.0160835
0.99923535
1.0037525
1.0032034
1.0027439
1.0042303
1.0033661
1.0041426
1.003221
1.0047549
1.0044022
1.0047337
1.0050958
1.0051668
1.0050761
1.0052961
1.0047132
1.0058664
1.0054191
1.0036978
1.0075495
1.0064852
1.0041637
1.0060831
1.0086163
1.0063626
1.0038363
1.0091066
1.0099086
1.0053083
0.99789291
1.0030262
1.000686
1.0036508
1.0028182
1.0028672
1.0035118
1.0035335
1.0035177
1.0031902
1.0047031
1.0048883
1.0045849
1.004905
1.0057309
1.0047476
1.004632
1.0053999
1.0062779
1.004266
1.0038884
1.0095896
1.0055027
1.0004637
1.0077859
1.0133279
1.0052417
0.99693021
1.0068131
1.017673
1.0116234
0.99645073
0.99208807
1.0030022
1.0037449
1.0026818
1.0032254
1.0028335
1.0036851
1.0030581
1.0035947
1.0044659
1.0051789
1.0045737
1.0045405
1.0060522
1.0044048
1.0041825
1.0057537
1.0063928
1.0035584
1.0041656
1.0105656
1.005428
0.99831949
1.0071389
1.0162614
1.006191
0.99376324
1.0021579
1.0194516
1.0181359
1.0013507
0.99022658
1.0047352
1.0041129
1.0029689
1.0037784
1.0025418
1.0038261
1.003073
1.0043475
1.0041265
1.0050133
1.0046529
1.0043956
1.0060385
1.0043262
1.0041017
1.0056794
1.0061884
1.0035306
1.0044026
1.0100628
1.0055757
0.99891471
1.0054089
1.01541
1.0070407
0.99583495
0.99951389
1.0144727
1.0199956
1.0077206
0.99606007
1.0047695
1.0043348
1.0032278
1.0038323
1.0026767
1.0038264
1.0033057
1.0046597
1.0040918
1.0046246
1.0047499
1.0046747
1.0056978
1.0046579
1.0044152
1.0053959
1.005801
1.0040858
1.0050854
1.0078424
1.0060453
1.0013849
1.0051405
1.0107304
1.0071866
1.000117
1.0021458
1.0079728
1.0127826
1.0111723
1.0046002
1.0031294
1.0043458
1.0032515
1.003609
1.003182
1.0036517
1.0037009
1.0044685
1.0038483
1.0042453
1.0048974
1.0051627
1.0050746
1.0050924
1.0049754
1.0051879
1.0050276
1.0050338
1.0062169
1.005142
1.0054453
1.0054348
1.0061547
1.0055438
1.0044562
1.0061887
1.0078363
1.0052418
1.002773
1.0076284
1.0112407
1.0007305
1.0040749
1.0031905
1.0032356
1.0039325
1.0036092
1.0041965
1.003985
1.0045999
1.004089
1.0050004
1.0055824
1.0045004
1.0055742
1.0056626
1.0052008
1.0044026
1.0058383
1.0076587
1.0031901
1.0041538
1.009566
1.0088238
1.0023684
1.0006205
1.0101085
1.0152954
1.0072993
0.99627076
1.0010002
1.0132505
0.99941901
1.0039886
1.003491
1.0036649
1.0048059
1.0042855
1.0044132
1.0049257
1.0046713
1.0041125
1.005658
1.0061653
1.004556
1.0061013
1.0064068
1.0056047
1.0044229
1.0062657
1.0093475
1.0026697
1.0028619
1.0114309
1.0121046
1.0024557
0.99784507
1.0097029
1.021196
1.0123008
0.9962116
0.99612428
1.0111635
1.0228032
1.0176632
1.0092047
1.0012944
0.99801686
1.0012129
1.007068
1.0110273
1.0098703
1.0020423
0.99227194
0.99132214
1.0042607
1.0244412
1.0349386
1.0286315
1.0078431
0.9888961
0.98635501
0.99957816
1.0171381
1.0255385
1.0175252
1.0034148
0.99954046
1.0019196
1.0115831
1.0231005
1.0303224
1.0286969
1.0173496
0.99962748
0.98693095
0.98651302
0.99617564
1.0100299
1.0199876
1.0180841
1.0048552
0.99422389
0.99820171
1.016205
1.0354586
1.0385178
1.0196101
0.9905577
0.9859973
0.99195612
1.0021985
1.0138946
1.0223519
1.0226738
1.0130964
1.0036097
1.0018679
1.0098865
1.0212055
1.0268631
1.0229503
1.0056903
0.98573468
0.97523795
0.98138376
1.003636
1.0319696
1.0476139
1.0384571
1.0113442
0.98718323
1.0160825
1.0182273
1.0134475
1.0030228
0.99155498
0.98180434
0.9790679
0.98765895
1.0072052
1.0309769
1.0468803
1.0447871
1.0244154
1.0003397
0.98720973
0.99039854
1.0034159
1.0165292
1.0217225
1.0148642
0.99680328
0.9854009
0.99156547
1.0477977
1.0349184
1.0163492
0.9983696
0.98644248
0.98457468
0.99051387
1.0027894
1.0128931
1.0187917
1.0170412
1.0052137
0.99303011
0.99337708
1.0123974
1.0392521
1.0558105
1.0506968
1.0196463
0.98353902
0.96059905
0.96198341
0.98391612
1.0109939
1.0043758
1.002755
1.0076191
1.0210369
1.0383284
1.0483322
1.0426416
1.0227202
0.99676502
0.97587265
0.96387558
0.96614149
0.98610737
1.0187516
1.0546032
1.0738261
1.0590142
1.0236321
0.99147893
0.97972198
0.98524823
1.0033803
0.96938479
0.9720991
0.98733432
1.0129225
1.0421648
1.0646393
1.0668781
1.047491
1.0218971
0.99950854
0.98750222
0.99100908
0.99870535
1.0092771
1.0168385
1.0206176
1.0190208
1.0071338
0.99776928
1.0017805
1.0234112
1.0529779
1.0701125
0.99171299
1.0037211
1.0131035
1.0154362
1.0124942
1.008886
1.0051764
1.0013404
1.0014294
1.0099062
1.033322
1.063878
1.0794618
1.0668637
1.031202
0.99177229
0.96586338
0.95440756
0.95796191
0.98210807
1.026563
1.0853783
1.1214374
1.0801451
1.0632155
1.0329469
1.0020224
0.98016134
0.96822937
0.96079373
0.95883805
0.97224087
1.0034994
1.0510448
1.0995982
1.1199908
1.0955384
1.0481269
1.0040335
0.97553167
0.97041891
0.97138872
0.98813846
1.0137568
1.0487814
1.0795825
1.1006166
1.0728584
1.0403623
1.0118666
0.99122347
0.98109976
0.98494206
0.99259971
1.004442
1.0151545
1.0278461
1.0445535
1.0577262
1.0528389
1.0390142
1.0249138
1.0225787
1.0399328
1.0552649
1.0565921
1.040099
1.0164397
0.99997224
1.0231784
1.0169284
1.0183449
1.0260905
1.0373848
1.0562367
1.0763375
1.0831473
1.0706561
1.039554
1.0061528
0.98719807
0.98072976
0.97877537
0.98542484
1.005129
1.0457365
1.106591
1.1588308
1.1516529
1.0933589
1.0227858
0.97230774
0.96873496
0.96756495
0.97716737
1.0061132
1.0585043
1.1274888
1.1812659
1.177989
1.122024
1.0510699
0.99711691
0.97279555
0.96650169
0.9650666
0.96464581
0.98152236
1.02421
1.1020881
1.1846259
1.2094807
1.1513406
1.0620533
0.99374906
0.96748646
0.97176365
0.98449387
1.0138962
1.0640286
1.1285621
1.1827807
1.1842589
1.1378044
1.0740818
1.0233138
0.99729529
0.99418299
1.0048734
1.0061619
1.0102845
1.0259785
1.0668283
1.1228582
1.1682727
1.1524405
1.099808
1.0459261
1.0203791
1.025924
1.0323454
1.0453739
1.0650634
1.0893102
1.10962
1.1152407
1.1004883
1.0776499
1.0582872
1.0523811
1.0629113
1.0819835
1.0822748
1.0696655
1.0509681
1.0469662
1.0631549
1.0908025
1.0961027
1.0862824
1.0746369
1.1145341
1.1053088
1.0817259
1.0599445
1.0479854
1.0493097
1.0547744
1.0576426
1.052607
1.0511025
1.0656624
1.0969024
1.1430915
1.1836231
1.1779143
1.132266
1.0749417
1.036654
1.0311829
1.0401507
1.0478534
1.0483196
1.0577339
1.2141531
1.1752881
1.1125057
1.0613957
1.0327942
1.0285987
1.0338823
1.0356406
1.0274511
1.0284813
1.0554622
1.116331
1.2024659
1.2744488
1.2650232
1.1826941
1.0946417
1.0371353
1.0206374
1.0224273
1.0266181
1.02489
1.0378306
1.2848712
1.2194523
1.1309796
1.0630829
1.0332397
1.0302657
1.0371147
1.0396685
1.0268279
1.0237542
1.0523014
1.1269442
1.23752
1.3332686
1.3273643
1.2219509
1.1144501
1.0469454
1.0264864
1.0271592
1.0310706
1.020359
1.030855
1.3267172
1.2478296
1.147659
1.0725675
1.0430528
1.0446879
1.0537002
1.0564101
1.0421046
1.0364329
1.0627093
1.1438276
1.2652702
1.3689184
1.3613432
1.2456948
1.1281895
1.0589657
1.0399647
1.0397434
1.0435639
1.0277484
1.0355291
1.3535862
1.2685055
1.1626395
1.0851127
1.0572104
1.0613833
1.0714749
1.0730878
1.057824
1.0531916
1.0809609
1.1676269
1.2958297
1.3973623
1.378303
1.2551623
1.1363581
1.0675315
1.0518617
1.0552143
1.0578048
1.0386762
1.0491653
1.3770286
1.2873804
1.1776237
1.0985127
1.0709199
1.0764708
1.0876663
1.0894725
1.076862
1.0751407
1.1095645
1.2021896
1.3289361
1.4184989
1.3788307
1.25054
1.13663
1.0800093
1.0704128
1.0680411
1.0634609
1.0508153
1.070243
1.378023
1.3008591
1.1966248
1.1189814
1.0872911
1.0920633
1.1044351
1.1088445
1.1005625
1.1035866
1.1504217
1.246559
1.3614946
1.4187485
1.3557103
1.2357623
1.1409059
1.0963008
1.086961
1.0858617
1.0691767
1.0613651
1.106735
1.3488456
1.2989052
1.2158955
1.1500753
1.1152324
1.121341
1.1367295
1.1438291
1.1443441
1.1549922
1.203435
1.281716
1.3621573
1.3837611
1.3170677
1.2208631
1.1490847
1.1218178
1.1113029
1.108213
1.0876634
1.0957221
1.1668375
1.2989628
1.2784774
1.2292309
1.1810565
1.1598237
1.1744493
1.2038419
1.2141433
1.2147589
1.2206678
1.2463612
1.2874813
1.3164073
1.3151999
1.268537
1.2108679
1.173204
1.1596954
1.1541715
1.1421141
1.136678
1.1649987
1.2436472
1.2652912
1.2574895
1.2266763
1.2023226
1.2117448
1.2604438
1.3263662
1.3348777
1.3027063
1.2656603
1.2445932
1.2434488
1.2423841
1.2315899
1.2099599
1.2007396
1.2068755
1.224246
1.2355555
1.2189714
1.2118503
1.2331394
1.2625374
1.3132169
1.2896531
1.2496628
1.2300747
1.2708272
1.3685574
1.4545953
1.423237
1.3272432
1.2440737
1.2008325
1.182413
1.1708174
1.1580394
1.1632635
1.2048813
1.2768366
1.3402411
1.3495153
1.2973196
1.2537105
1.225073
1.1812527
1.3750959
1.349985
1.3050099
1.2739946
1.2966195
1.3812564
1.4433156
1.3830228
1.2909288
1.2168911
1.177669
1.1555055
1.1431538
1.1388733
1.1797732
1.271907
1.3774599
1.4267891
1.3734234
1.2847125
1.2162273
1.1551276
1.1125843
1.419818
1.3691937
1.3076126
1.2529341
1.2463118
1.288917
1.3125746
1.2909153
1.2593264
1.2312662
1.2093755
1.1980063
1.195763
1.2167347
1.2622869
1.3211575
1.3589491
1.3451275
1.2876701
1.2304178
1.179651
1.1343405
1.1153347
1.4380441
1.3527733
1.2703918
1.2131997
1.1972787
1.2087367
1.2156827
1.216386
1.2391244
1.2778336
1.3079226
1.3144522
1.300836
1.2817039
1.2695573
1.2533384
1.2295508
1.2039852
1.1966049
1.2088443
1.2211599
1.2227238
1.2224577
1.3715201
1.3095626
1.2536732
1.2176484
1.2070431
1.2030707
1.2004721
1.2130738
1.2529855
1.3110289
1.3589987
1.3636822
1.3256561
1.2694891
1.2138108
1.1666653
1.1400733
1.1385788
1.1677958
1.2258918
1.2913469
1.3369223
1.3305853
1.2778007
1.2480112
1.2444358
1.2603403
1.2763896
1.2751783
1.264602
1.2562377
1.2619774
1.2756416
1.2874994
1.2879386
1.270722
1.243861
1.2108084
1.1789478
1.1623516
1.1686185
1.2025472
1.2441745
1.2687642
1.27008
1.2645686
1.2627417
1.2238195
1.2282491
1.2725534
1.3181771
1.3306557
1.3105521
1.2769882
1.2443039
1.2185023
1.2020845
1.1985939
1.2115566
1.2340957
1.2545802
1.2654516
1.2621457
1.2449746
1.2261937
1.2015526
1.1766247
1.1649327
1.1836808
1.3229889
1.2573756
1.2357702
1.250909
1.270004
1.2829662
1.2841106
1.2713109
1.2458561
1.2151436
1.1932739
1.187844
1.200902
1.2297978
1.2601706
1.2767824
1.2740279
1.2563215
1.2310629
1.2050625
1.1896895
1.1954364
1.2243731
1.35547
1.2811867
1.2379752
1.2267094
1.2211707
1.2205496
1.2299426
1.2470851
1.2605678
1.2622696
1.2518743
1.2361534
1.2238025
1.2174564
1.2086506
1.1994829
1.1953354
1.2020551
1.226063
1.2662591
1.3137933
1.3417946
1.327336
1.3098179
1.2626184
1.2401891
1.2370459
1.2307043
1.2240005
1.224411
1.2363681
1.2535607
1.2650816
1.2654884
1.255454
1.2390524
1.2155369
1.1885486
1.1665358
1.1560904
1.1715462
1.2144179
1.2815482
1.3486188
1.384032
1.350905
1.2800581
1.2366951
1.2335414
1.2567985
1.2670729
1.2625194
1.2508769
1.2389583
1.2286831
1.2197365
1.2143552
1.2136949
1.2168444
1.220632
1.2229206
1.2205373
1.2134319
1.2115503
1.2205801
1.2396736
1.2575003
1.2769797
1.278157
1.2987664
1.2500232
1.229036
1.2430249
1.2563609
1.2591603
1.2549811
1.2444609
1.2287702
1.2103016
1.1934318
1.1838878
1.1835584
1.1948151
1.2158532
1.2404959
1.265163
1.2830956
1.2799665
1.2564195
1.2284322
1.2004028
1.1912819
1.3062235
1.2702772
1.2336511
1.2276368
1.2278463
1.2262004
1.2249725
1.2258555
1.2271048
1.2256055
1.2198058
1.2094609
1.1982892
1.1907551
1.1909698
1.2014866
1.2212804
1.2461842
1.264191
1.2617059
1.2405381
1.2109123
1.1893397
1.2748869
1.2628219
1.2349941
1.225077
1.222398
1.216338
1.2102216
1.2092171
1.2139393
1.2219798
1.2295058
1.2322025
1.2272646
1.2158143
1.2014912
1.191444
1.1914983
1.2041378
1.2217559
1.2367135
1.2401117
1.2263163
1.2052664
1.2458546
1.2436207
1.2317411
1.2262108
1.2317009
1.2334176
1.2300781
1.2244437
1.2187921
1.2145574
1.2117721
1.2090728
1.2066927
1.2047751
1.2034337
1.2015432
1.2033768
1.2109957
1.2202842
1.227657
1.2283058
1.2189108
1.2008085
1.2460355
1.2432058
1.2335447
1.2220033
1.224725
1.2306366
1.2331129
1.2326976
1.2281884
1.2187117
1.2054286
1.190345
1.178114
1.1739835
1.1778114
1.190634
1.2109252
1.2303603
1.2396348
1.2380819
1.2261168
1.2078656
1.1880257
1.2420106
1.2436151
1.2363341
1.2206346
1.2122966
1.2099956
1.2099601
1.2114302
1.2130201
1.2130402
1.2079817
1.1984419
1.1871001
1.1779284
1.1761062
1.1847689
1.2041771
1.2241643
1.2330164
1.2283317
1.213168
1.1965329
1.182328
1.2192161
1.2252985
1.2293326
1.2241565
1.2161062
1.2116362
1.2075488
1.2027435
1.200329
1.2006849
1.2020902
1.2028276
1.2007692
1.1965413
1.1931722
1.1936981
1.2019656
1.2127249
1.2157589
1.2087135
1.1970108
1.1885571
1.1856244
1.2105746
1.2128542
1.2187612
1.2217126
1.221762
1.2220368
1.2213671
1.2174583
1.2104663
1.2031566
1.1978424
1.1943047
1.1920528
1.1889024
1.1856379
1.1851911
1.1907128
1.2009589
1.207003
1.2052372
1.2000105
1.195803
1.1954134
1.2208775
1.2180394
1.2169868
1.2157998
1.2130884
1.2121139
1.2132402
1.2139091
1.2118074
1.2063749
1.1995407
1.1923441
1.1852683
1.1786642
1.1721862
1.1697569
1.1739238
1.1877685
1.201885
1.2107789
1.2118741
1.207421
1.200096
1.2140187
1.214639
1.2151629
1.2150882
1.2114378
1.2061532
1.202529
1.2011867
1.2008307
1.1998203
1.1973841
1.1935673
1.188924
1.1833592
1.1773881
1.1735992
1.1751145
1.1869496
1.2021491
1.212147
1.2136697
1.206827
1.1944447
1.2048596
1.2042161
1.208416
1.2147446
1.2186918
1.2173143
1.2125292
1.2076147
1.2036428
1.2004675
1.1971594
1.193166
1.1883993
1.1834899
1.1786511
1.1747513
1.1759857
1.1838323
1.1971858
1.205275
1.2047264
1.1984872
1.188196
1.2174941
1.208152
1.2053829
1.2083433
1.2124932
1.214289
1.2124342
1.2081759
1.2036299
1.2008575
1.1979188
1.1937157
1.1879948
1.1808297
1.1736787
1.1677608
1.1669417
1.1718262
1.1840165
1.194022
1.196906
1.1947221
1.191226
1.2177324
1.2075585
1.202662
1.2022984
1.2044491
1.2071388
1.2072273
1.2044214
1.2003528
1.1976337
1.1965991
1.1955451
1.1923923
1.186239
1.1786767
1.1707168
1.1661468
1.1679014
1.1769375
1.1895778
1.1966691
1.1979748
1.1970541
1.2209763
1.2051627
1.1984209
1.1983613
1.2011671
1.2065388
1.2107191
1.2106109
1.2069322
1.201493
1.196965
1.1946803
1.1922558
1.1876179
1.180972
1.1725345
1.1657845
1.1641047
1.16907
1.1811469
1.1919314
1.1958478
1.1954482
1.2189638
1.2013895
1.1943489
1.1928169
1.1943637
1.1994742
1.2054227
1.2091662
1.2089337
1.2042707
1.1982122
1.1933218
1.1896495
1.1865907
1.1815878
1.1747483
1.1671059
1.161729
1.1627375
1.1700069
1.1824856
1.1908221
1.1936049
1.2247743
1.2004175
1.1931404
1.1925273
1.1943085
1.1974698
1.2016828
1.2055117
1.2068463
1.2050541
1.2008208
1.1955564
1.1907931
1.1881577
1.1846397
1.1798493
1.1730138
1.1654505
1.1617626
1.1635559
1.1719912
1.18271
1.1907298
1.2253723
1.1980224
1.1901533
1.1896747
1.1929187
1.1971299
1.2011316
1.2041628
1.2057686
1.2058123
1.2038187
1.1997607
1.1947078
1.1900683
1.1854133
1.1812124
1.1752147
1.1680386
1.1615035
1.1589497
1.162251
1.1712693
1.1826618
1.240551
1.2053435
1.190772
1.1851642
1.1868276
1.1925001
1.1983419
1.2028452
1.206177
1.2079118
1.2076831
1.2054253
1.2004376
1.1939291
1.1873551
1.1816123
1.1757774
1.1699677
1.1634741
1.1592124
1.1589717
1.163185
1.173081
1.2520727
1.2148022
1.1940668
1.1831839
1.1814165
1.1874219
1.1958261
1.2029075
1.2077316
1.2096949
1.2093968
1.2075439
1.2034993
1.1973108
1.1902207
1.1833765
1.177868
1.1728448
1.1673427
1.1620158
1.1586004
1.1595322
1.1643065
1.2701621
1.2329092
1.2058552
1.1873354
1.180094
1.1817442
1.1897683
1.1981464
1.2043745
1.2075947
1.2077572
1.2059828
1.2027539
1.1985902
1.1935918
1.18787
1.1826785
1.1775803
1.1725064
1.1662615
1.1602218
1.156849
1.1576319
1.2929864
1.260069
1.2275858
1.1998206
1.1831578
1.1777341
1.1803748
1.1879876
1.1954516
1.2008503
1.2036162
1.2041922
1.2026332
1.1994369
1.1951034
1.1899917
1.1849707
1.1797494
1.1747297
1.1686593
1.1619841
1.1563618
1.1546286
1.3243315
1.2982329
1.2622827
1.2251698
1.1965568
1.1806006
1.1750093
1.1765661
1.1834662
1.1906928
1.1960184
1.1988258
1.1992817
1.1974523
1.1939357
1.1894304
1.184597
1.1797123
1.1750525
1.1701035
1.1652524
1.15959
1.1565287
1.356649
1.3433761
1.3104985
1.2682897
1.228396
1.1982464
1.1806839
1.1737297
1.1728675
1.1771729
1.1832765
1.188141
1.1907873
1.1911362
1.1893481
1.1865702
1.1831076
1.1794582
1.1760925
1.172567
1.1689592
1.1642946
1.1602877
1.3810255
1.3831293
1.3646291
1.3276007
1.283907
1.2415415
1.2072842
1.1856959
1.1751324
1.1707219
1.1705787
1.1735231
1.1775519
1.1809098
1.1821795
1.1820184
1.1805522
1.1784227
1.1762494
1.1735549
1.1706437
1.1666272
1.1626781
1.3906234
1.4050832
1.4037374
1.3845625
1.3522511
1.3111564
1.2670224
1.2274881
1.1983201
1.1806209
1.1723481
1.1687568
1.1677269
1.1690662
1.1712653
1.1733971
1.1745334
1.1742541
1.1736534
1.1718738
1.1700255
1.1672524
1.1646163
1.3989649
1.41457
1.4171684
1.4122471
1.3992643
1.3764378
1.343548
1.3032022
1.2616495
1.225393
1.198399
1.1814651
1.1724818
1.1683069
1.1658778
1.1651614
1.1654032
1.1663059
1.1672928
1.1673105
1.1673789
1.1663446
1.1657676
1.4073777
1.4167143
1.4176754
1.4158859
1.4122212
1.4055766
1.3930285
1.3723399
1.3428157
1.3065796
1.2682904
1.2333248
1.2057442
1.1866951
1.1748204
1.1683152
1.1650964
1.1631574
1.1624744
1.1618464
1.1621597
1.1621561
1.1628809
1.411638
1.4153509
1.4146493
1.4129352
1.4106779
1.4076706
1.4038652
1.3981418
1.3882583
1.3716768
1.3473008
1.3162315
1.2818743
1.248587
1.2201041
1.198065
1.1825764
1.1724074
1.1664463
1.1629163
1.1610384
1.1595365
1.1588583
1.4079933
1.4091513
1.4062932
1.4041193
1.4025966
1.4012139
1.399438
1.3968034
1.3931932
1.388628
1.3816605
1.3704538
1.3529602
1.3291007
1.3005593
1.2702875
1.2415436
1.2166591
1.1968885
1.1823255
1.1722593
1.1657926
1.1580081
1.3999868
1.3985422
1.3934503
1.3897619
1.3874136
1.3860131
1.3853002
1.3847776
1.3840856
1.3826374
1.3801513
1.3765202
1.3719079
1.3651341
1.3548247
1.339316
1.3187284
1.294478
1.2685769
1.243364
1.2206667
1.2017635
1.1789879
1.3928848
1.3861257
1.3786137
1.372871
1.368647
1.3655736
1.3635562
1.3625238
1.3622971
1.3625428
1.3630333
1.3633287
1.3627875
1.3610749
1.357915
1.3540534
1.3486744
1.3409316
1.3298611
1.3144405
1.2953083
1.2735573
1.245798
1.3849862
1.3737095
1.3637376
1.3556653
1.3491023
1.3436871
1.3392492
1.3358164
1.3335007
1.3323157
1.3321391
1.3328838
1.3342843
1.336104
1.3379646
1.3391116
1.3392935
1.3379853
1.33521
1.3318469
1.3272202
1.3206019
1.309911
1.3762915
1.36161
1.3494941
1.3392235
1.3303249
1.3225453
1.3157256
1.309736
1.3045827
1.3003547
1.2971596
1.2951026
1.2943135
1.2948884
1.2967399
1.299566
1.3030325
1.3068896
1.3106312
1.3135233
1.3154072
1.3161255
1.3159713
1.3669974
1.3497506
1.3357062
1.323413
1.3124286
1.3026572
1.2939295
1.285924
1.2784269
1.2714757
1.2652602
1.2599518
1.2556231
1.2523813
1.2504416
1.2499944
1.2510771
1.2536692
1.2577716
1.2631248
1.269288
1.2759315
1.2834545
1.3566644
1.3371585
1.3212086
1.3067348
1.2938115
1.2826029
1.2726476
1.2632769
1.2541561
1.2454699
1.2374663
1.2300843
1.2231155
1.2165936
1.2108323
1.2061099
1.2026551
1.200532
1.199996
1.2012647
1.2044069
1.2092528
1.2157349
1.3465777
1.3264545
1.3073184
1.2898152
1.2745746
1.2618376
1.2509265
1.2407548
1.2306523
1.2208244
1.2117671
1.2033761
1.1951215
1.1867906
1.1787627
1.1713963
1.1647374
1.1586493
1.1533334
1.1493044
1.1467986
1.1461681
1.1480994
1.3331793
1.3127107
1.2904425
1.2702154
1.2531358
1.2393363
1.2278472
1.2170816
1.2061168
1.1954528
1.1858567
1.1771764
1.1685657
1.1594121
1.1501788
1.1415517
1.1334785
1.1255412
1.1176737
1.1102963
1.103634
1.0980625
1.0960336
1.3158974
1.2944271
1.2699605
1.2480324
1.2296502
1.214923
1.2028484
1.191696
1.1804748
1.1694297
1.1593906
1.1504365
1.1415341
1.1319443
1.1221166
1.1127968
1.1040038
1.0953057
1.086259
1.0771123
1.0681541
1.0594794
1.0547394
1.2946401
1.2720055
1.2464162
1.2237107
1.2047673
1.1896521
1.1774459
1.1665253
1.1553871
1.1438346
1.1330494
1.1235678
1.1144736
1.1047147
1.0942451
1.0840221
1.0744926
1.0650045
1.0549871
1.0445443
1.0347098
1.0259172
1.0212384
1.2716092
1.2462254
1.220401
1.1985281
1.1803339
1.1653643
1.1531129
1.1422596
1.1311305
1.1194393
1.1082292
1.0980019
1.0883819
1.0783448
1.0672749
1.0560381
1.0450918
1.0345213
1.0248177
1.0164093
1.0102631
1.0060328
1.0045991
1.2490112
1.2213447
1.1956757
1.1749179
1.1576041
1.1430498
1.1310009
1.120024
1.1087095
1.0969508
1.0853182
1.0745201
1.0643819
1.0534985
1.0414308
1.0292227
1.0185011
1.0108555
1.0061974
1.0034904
1.0020515
1.0012959
1.0014436
1.2284675
1.1987948
1.1731594
1.1534306
1.137209
1.1234514
1.1112239
1.099659
1.0884458
1.0767279
1.0646379
1.0530371
1.0416765
1.0300973
1.0184003
1.0088144
1.0036803
1.0018688
1.0016781
1.00155
1.0011611
1.0007411
1.0006497
1.2101001
1.1791211
1.1534367
1.134506
1.1193742
1.105999
1.0935716
1.0817059
1.070004
1.0580574
1.0458278
1.0333099
1.0212248
1.0109571
1.0041956
1.0013841
1.0005719
1.0008208
1.0012834
1.001216
1.0007335
1.000294
1.0005245
1.1935776
1.1617913
1.1365832
1.1182526
1.1033816
1.0901479
1.077656
1.0654219
1.0535576
1.0412784
1.0281827
1.0153537
1.0058625
1.0021508
1.0013838
1.0006023
1.0000887
1.0003062
1.0009162
1.0012055
1.0005674
1.0000341
1.0003147
1.1787463
1.1464201
1.121659
1.1035422
1.0888836
1.0757507
1.0634171
1.0511625
1.038356
1.0250912
1.0121145
1.0035686
1.0010339
1.0008266
1.0007359
1.0003846
1.0000202
1.0000875
1.0006454
1.0010151
1.0005968
0.99986749
0.99976155
1.1657595
1.1319805
1.1079748
1.0906932
1.0762483
1.0629915
1.0500196
1.0370895
1.0240302
1.0111345
1.0028218
1.0003583
1.000209
1.0005735
1.0006425
1.0002315
0.9998478
0.99998579
1.0005686
1.000671
1.0002616
0.99973573
0.99964842
1.1535329
1.1192486
1.0959563
1.078954
1.0644444
1.0510177
1.037852
1.0244244
1.0111868
1.0026759
1.0004524
1.0001939
1.0001288
1.0002576
1.0003974
1.0001838
0.9998664
0.99985636
1.0002379
1.0003708
1.0000524
0.99955308
0.99964042
1.1423973
1.1075315
1.0848671
1.0683003
1.0537973
1.0398399
1.0260659
1.0127648
1.0034483
1.0008058
1.0003653
1.0001362
0.99996521
0.99995794
1.0000289
1.0001728
1.0001786
0.99995136
0.99979205
0.99976235
0.99991536
0.9998817
0.99983834
1.13159
1.0969501
1.0751801
1.0586784
1.0440029
1.0296182
1.0153378
1.0046309
1.0011322
1.0006063
1.0004675
1.0000104
0.99978082
1.0000092
1.0000686
1.000129
1.0000781
0.99995362
0.99966428
0.99960009
0.9996888
0.99987851
0.99994793
1.1217589
1.0875614
1.0664365
1.049961
1.0347956
1.0198914
1.0069888
1.0016253
1.0010032
1.0007089
1.0005525
1.0000176
0.99986796
1.0002803
1.0001789
1.0001068
0.99974291
0.9995284
0.99957832
0.99991602
0.99983069
0.99964132
0.9993324
1.1140013
1.0788616
1.0576616
1.0414981
1.0266567
1.012312
1.0029344
1.0011212
1.0009755
1.0005369
1.0006185
1.0003788
1.000388
1.0005393
1.0000884
1.0000401
0.99985571
0.99976312
0.99976136
0.99980553
0.9996419
0.99964972
0.99977884
1.1064735
1.0715839
1.0507628
1.0342061
1.0193219
1.0065607
1.0015434
1.0015243
1.0015252
1.0013918
1.001059
1.0002587
1.0004084
1.0009556
1.0011646
1.0010173
0.99993334
0.99948569
0.99955112
1.0000894
1.0004287
1.0000009
0.99882995
1.1004655
1.0653447
1.0446215
1.0274345
1.0125492
1.0042063
1.0025637
1.0025155
1.0020889
1.0014845
1.0013775
1.001436
1.0018714
1.002032
1.0012956
1.0011702
1.0010434
1.0006993
1.0004553
1.0003784
1.0000489
1.0002614
1.0006979
1.0947427
1.0603962
1.0395122
1.0221077
1.0085938
1.0035893
1.0034103
1.0034818
1.0030524
1.0029018
1.0033112
1.0031951
1.002812
1.0032235
1.0033336
1.0029171
1.0023986
1.0021672
1.0017035
1.0014891
1.001846
1.0011466
1.0001583
1.0898742
1.0561824
1.0355026
1.0176338
1.0064964
1.0042517
1.0045679
1.0051047
1.0050582
1.004809
1.0054448
1.0064178
1.0061912
1.0058282
1.0061551
1.0066858
1.0064353
1.0053647
1.0044724
1.004465
1.0045872
1.0034402
1.0019285
1.0845297
1.0524247
1.0330968
1.0160444
1.0059668
1.0037701
1.0052674
1.0077475
1.0092382
1.0090409
1.0084958
1.0097506
1.0122075
1.0133546
1.012511
1.0115243
1.0123564
1.0134997
1.012765
1.0102182
1.0088261
1.0094754
1.0099605
1.0829143
1.0480966
1.0279624
1.0135314
1.0078393
1.0070218
1.0076808
1.0091698
1.0120696
1.0152898
1.0172674
1.0179558
1.0187888
1.0206139
1.0228571
1.0241146
1.0242071
1.0236686
1.0233608
1.0230139
1.0224902
1.021707
1.0204785
1.0790186
1.0465488
1.0266887
1.0121008
1.007464
1.0089024
1.012211
1.0145495
1.0173827
1.0216386
1.0261699
1.0288766
1.0298336
1.0315859
1.0355648
1.0394701
1.0404201
1.039209
1.0390634
1.0410522
1.0423752
1.0407317
1.0380254
1.0755296
1.0441633
1.027258
1.0138459
1.0081989
1.0095689
1.0154221
1.0218483
1.0269717
1.0301694
1.0332051
1.0380234
1.0440185
1.0485878
1.050842
1.0528177
1.056315
1.0600159
1.0615267
1.0611374
1.0616318
1.0639469
1.0653695
1.0764082
1.0427306
1.0243645
1.0131167
1.0112754
1.0155993
1.0207912
1.02569
1.0315803
1.0384177
1.0449605
1.0503011
1.0549749
1.0601411
1.0658091
1.0706476
1.0739641
1.0765695
1.0797207
1.0833212
1.0859103
1.0868473
1.0868185
1.0744863
1.0433298
1.0263612
1.015161
1.012643
1.0174725
1.024155
1.0310167
1.0379158
1.0449377
1.0521215
1.0592311
1.0659751
1.0722183
1.0780416
1.0834281
1.0881984
1.0925225
1.0969054
1.1012037
1.1043933
1.1059962
1.1070866
1.0717267
1.043573