/*--------------------------------*- C++ -*----------------------------------*\
| =========                 |                                                 |
| \\      /  F ield         | OpenFOAM: The Open Source CFD Toolbox           |
|  \\    /   O peration     | Version:  2406                                  |
|   \\  /    A nd           | Website:  www.openfoam.com                      |
|    \\/     M anipulation  |                                                 |
\*---------------------------------------------------------------------------*/
FoamFile
{
    version     2.0;
    format      ascii;
    arch        "LSB;label=32;scalar=64";
    class       volScalarField;
    location    "155";
    object      T;
}
// * * * * * * * * * * * * * * * * * * * * * * * * * * * * * * * * * * * * * //

dimensions      [0 0 0 1 0 0 0];

internalField   nonuniform List<scalar> 
20580
(
1.00285
1.0022176
1.001383
1.0021098
1.0022207
1.0022666
1.0023442
1.0026604
1.0028531
1.0027123
1.0028317
1.0028718
1.0027252
1.0028848
1.003045
1.0025951
1.0030639
1.0037214
1.0018277
1.003171
1.0043296
1.0025895
1.0024236
1.0047099
1.005105
1.0011222
1.0016791
1.0038316
1.0009241
1.0025592
1.0102299
1.0028599
1.0021303
1.0015002
1.0021036
1.0021061
1.0023286
1.0023413
1.0026439
1.0026897
1.0026359
1.0030101
1.0027452
1.0026799
1.0030753
1.0028321
1.0024299
1.0036294
1.0032715
1.0014552
1.0040331
1.0041331
1.0020508
1.00316
1.0054297
1.0043847
0.99908549
0.99978486
1.0053971
1.0039928
1.0002946
1.0048853
1.0027112
1.002093
1.0018913
1.0021361
1.0020821
1.0024025
1.0023563
1.0026319
1.0024687
1.0025993
1.0031306
1.0027064
1.0025908
1.0032586
1.0027305
1.0023708
1.0039092
1.0028289
1.0013277
1.004538
1.0036204
1.0013319
1.0034137
1.0051797
1.0039292
0.99868973
0.99875507
1.0059044
1.0070676
0.99940867
0.997116
1.0024667
1.0020301
1.0023539
1.0021757
1.0021463
1.0024272
1.0024375
1.0026188
1.0023398
1.0026766
1.0030749
1.0027585
1.0026122
1.0032724
1.0027433
1.0024443
1.0038751
1.002457
1.0016034
1.0046496
1.0029154
1.00102
1.0035352
1.003957
1.0033638
1.0001592
0.99920888
1.0052768
1.0089318
1.0010273
0.99244673
1.0020076
1.0020371
1.0027145
1.002269
1.0022575
1.0023403
1.0024888
1.0025546
1.0024035
1.0028486
1.0028921
1.0027915
1.0028344
1.0031001
1.0027882
1.0026949
1.003593
1.0021538
1.0023001
1.004441
1.0020751
1.00129
1.0037676
1.0023741
1.0023207
1.0025981
1.001169
1.0037384
1.008115
1.0042305
0.99368193
1.0015453
1.0019394
1.0027525
1.0023043
1.002331
1.002191
1.0024582
1.0024288
1.0025848
1.0029598
1.0026905
1.0027457
1.0031345
1.0028531
1.0028331
1.0030374
1.0031495
1.0019321
1.0031823
1.0040672
1.0013899
1.0019092
1.0044553
1.0013204
1.0007909
1.0046058
1.0041456
1.0020808
1.0041348
1.0061663
0.99990545
1.0015008
1.0018182
1.00243
1.0022251
1.0023294
1.0020778
1.0023814
1.0022904
1.0027636
1.0029162
1.0026164
1.0027026
1.0032712
1.0026294
1.0028471
1.0033458
1.0027199
1.001897
1.0039292
1.0035381
1.0010957
1.0026957
1.0054244
1.0011138
0.99945329
1.0052137
1.0067812
1.0012619
0.99893114
1.0040056
1.0068335
1.0018303
1.0017786
1.0019223
1.0020968
1.0022508
1.0020318
1.0022292
1.0022128
1.0028455
1.0027416
1.0026381
1.0027524
1.0031738
1.0025119
1.002768
1.0034728
1.0024153
1.0020164
1.0043611
1.0029845
1.0010238
1.0033292
1.005849
1.0016676
0.9990642
1.0044746
1.0079045
1.0017212
0.99550435
0.99848731
1.0077523
1.0022877
1.0018533
1.0015333
1.0019924
1.0021154
1.0020727
1.002071
1.0022397
1.0027665
1.0025939
1.002629
1.002889
1.0029724
1.0024986
1.0026554
1.0034247
1.0023017
1.0022889
1.0044312
1.0024337
1.0014053
1.0036631
1.0052135
1.0026144
0.99995193
1.0031058
1.0068846
1.0031246
0.99573363
0.99473597
1.0033262
1.0024443
1.0020059
1.0013919
1.0019259
1.0019492
1.002168
1.0020165
1.0023907
1.0025732
1.0025746
1.0026399
1.0029752
1.0027618
1.0025592
1.0026098
1.0032115
1.0023194
1.0027485
1.0041079
1.0018192
1.0022047
1.0038574
1.0035761
1.0031129
1.0019919
1.0022474
1.003921
1.0041214
0.99932555
0.99625395
0.99835218
1.0025214
1.0019775
1.0014385
1.0018067
1.0017666
1.0021762
1.0020254
1.0025309
1.0023669
1.0026387
1.0027142
1.0029123
1.0025869
1.0026991
1.0026594
1.0028344
1.0023953
1.0032923
1.0035473
1.0013212
1.0031
1.0041469
1.0014793
1.0024201
1.0044315
1.0024834
1.0006425
1.0028624
1.0045461
1.0019171
0.99861009
1.0024214
1.0020326
1.0017688
1.0018458
1.0018102
1.002138
1.0021179
1.0025353
1.0022051
1.002626
1.0027645
1.0027716
1.0024332
1.0028423
1.0027774
1.0024346
1.0024653
1.0036832
1.0029364
1.0010838
1.0037523
1.0045357
0.99987635
1.0009051
1.0059299
1.0036964
0.99867691
0.99961143
1.0065641
1.0079601
1.0028926
1.0022151
1.0020024
1.0021826
1.0019591
1.0019589
1.0020512
1.0022934
1.0024384
1.0021654
1.0024684
1.0027582
1.0026342
1.0023097
1.0028703
1.002904
1.0021727
1.0025161
1.0038002
1.0024015
1.0010592
1.0040478
1.0047592
0.99923396
0.99977842
1.005879
1.0049836
0.99853284
0.99717791
1.0041988
1.0100393
1.0068645
1.0018552
1.0019338
1.0024348
1.0021008
1.0021651
1.0019897
1.002403
1.0022916
1.0022867
1.0022983
1.002677
1.0026116
1.0023047
1.0028351
1.0030088
1.0021117
1.0025457
1.0036797
1.0021069
1.0013825
1.0039193
1.0045459
0.99976991
0.99990379
1.0046914
1.0055213
0.99999508
0.99762455
1.0006448
1.0074153
1.0078325
1.0014577
1.001657
1.0023428
1.0021238
1.0022552
1.0019431
1.0023111
1.0021411
1.0024242
1.0022555
1.0026378
1.0026834
1.0024253
1.0027694
1.0029396
1.0022449
1.0026471
1.0033163
1.001959
1.0022452
1.0034545
1.0036157
1.001203
1.0013301
1.0034914
1.0042599
1.0023022
1.000247
1.0001043
1.0022306
1.0050227
1.0013925
1.0015091
1.0020323
1.0020764
1.0021433
1.0018937
1.0020631
1.0019947
1.0024503
1.0023635
1.0025978
1.0026404
1.0026621
1.0026798
1.0027035
1.0025015
1.002873
1.0028214
1.0018629
1.0033789
1.0030866
1.0020244
1.0026149
1.0035922
1.0029347
1.0015609
1.0035539
1.0041834
1.0023735
0.99897579
0.99986483
1.0018457
1.0016223
1.001712
1.0019474
1.0019688
1.0019309
1.0018646
1.0019953
1.002422
1.0025914
1.0025513
1.0024708
1.0028991
1.0025427
1.0023807
1.0027105
1.0030719
1.0023522
1.0018019
1.0042394
1.0029029
1.0004711
1.0028574
1.0056479
1.0028069
0.99879594
1.0019104
1.0068958
1.0051316
0.99906235
0.99575039
1.0024156
1.0018612
1.0015312
1.0018033
1.0018155
1.0020246
1.0018324
1.002118
1.0023422
1.0027818
1.0025537
1.0023553
1.0030792
1.0024736
1.0021949
1.0028158
1.0031472
1.0020747
1.0018514
1.0046027
1.002972
0.9995087
1.0022734
1.0064902
1.0030862
0.99734068
0.99928771
1.0062518
1.0071714
1.0004971
0.99492465
1.0025622
1.0020131
1.0015157
1.0016164
1.0016078
1.0019864
1.0018566
1.0021904
1.0021693
1.0027694
1.0025353
1.0023516
1.0030509
1.0024832
1.002187
1.002764
1.0031058
1.0020498
1.0020123
1.0043816
1.0030511
0.99976599
1.0016236
1.0058653
1.0033363
0.99804323
0.99831686
1.0035761
1.0067925
1.0025289
0.99717442
1.0024182
1.0020592
1.0016363
1.0015558
1.0015882
1.001954
1.0019447
1.0022419
1.0019698
1.0025687
1.0024725
1.002461
1.00283
1.0025395
1.0023075
1.002631
1.0029013
1.0021926
1.0023836
1.0035595
1.003067
1.0008523
1.0018535
1.0042438
1.0031932
0.99993867
0.9999899
1.0018567
1.003915
1.0037634
1.0010914
1.0022143
1.0020078
1.0018798
1.0017959
1.0018676
1.0019886
1.0021306
1.0021753
1.0020443
1.0024588
1.0024699
1.0026215
1.002544
1.0025695
1.0025179
1.0025369
1.0025143
1.0024296
1.0029203
1.0025124
1.0025208
1.0025451
1.0027231
1.002544
1.0018695
1.0025419
1.0030464
1.0022001
1.0008054
1.0023928
1.0039862
1.0019016
1.0017444
1.0020374
1.00195
1.0021022
1.0018877
1.0021195
1.0020822
1.0020774
1.0022493
1.0024842
1.0026865
1.0022243
1.0025259
1.0026251
1.002393
1.0020428
1.0024072
1.0033677
1.0015349
1.0014412
1.0036955
1.0037259
1.0011922
0.99972744
1.0032205
1.0057963
1.0031803
0.99816976
0.99893018
1.0036794
1.0013625
1.0011187
1.0017078
1.0014358
1.0017998
1.0009946
1.001858
1.0005651
1.0024055
1.002201
1.0021478
1.0024073
1.0017357
1.0021019
1.0024898
1.0021942
1.0014438
1.0019566
1.0035385
1.0007886
1.0002904
1.0034846
1.0043946
1.0005954
0.99791692
1.0019136
1.0070367
1.0042391
0.99731265
0.99582781
1.0012608
1.0063746
1.0060739
1.0035343
0.99928504
0.99615731
0.99690411
1.0001123
1.0028249
1.0030915
1.000053
0.99598789
0.99569693
1.0000646
1.0064072
1.010554
1.0100879
1.0030504
0.99404984
0.99089703
0.99587588
1.0042504
1.0093668
1.0073083
0.99929421
0.99916938
1.0005398
1.0033708
1.0063287
1.0083824
1.0087256
1.0058985
0.99894229
0.9916054
0.98988153
0.99456985
1.0019616
1.0064877
1.0056537
1.0007569
0.9965209
0.99692041
1.0014179
1.0076048
1.0111212
1.0071952
0.99595928
0.98965915
0.99391841
0.99990253
1.0048353
1.0073066
1.0068952
1.0040098
1.0009405
0.99904455
0.99885426
1.0012317
1.0050315
1.007001
1.0017474
0.99144919
0.98491783
0.98767928
0.99761563
1.0086902
1.0139039
1.0118869
1.0030729
0.99232022
0.99893775
1.0026754
1.0037744
1.0005339
0.99421884
0.98816328
0.98749215
0.99232003
1.0008237
1.008401
1.0118815
1.0124876
1.0081118
0.99911926
0.98949483
0.9858839
0.99105934
1.0001492
1.0058737
1.0026361
0.99400565
0.98935391
0.99206168
1.0121602
1.0102881
1.0052012
0.99740405
0.98884222
0.98400261
0.98669384
0.99481832
1.0025122
1.0052234
1.0015448
0.9958446
0.99305007
0.99482416
0.99927383
1.0025742
1.0069758
1.0101409
1.0048852
0.98896258
0.97295743
0.97245689
0.98384291
0.99791517
0.9985935
0.99982761
1.0002732
1.0003056
1.0013197
1.0048888
1.0083366
1.0062742
0.99623629
0.98184416
0.97116465
0.97437821
0.98697814
1.002333
1.0118993
1.0142063
1.0121592
1.0038036
0.99042831
0.9768765
0.97350695
0.98260941
0.97635084
0.98106093
0.9902242
1.0018422
1.0102316
1.0131957
1.0130294
1.0100967
1.004572
0.99567374
0.98291076
0.97401068
0.97723523
0.98877866
0.99986301
1.0019202
0.9930597
0.986187
0.98739039
0.99244549
0.99537257
0.99353955
0.99904943
0.97835398
0.98756011
0.99715372
1.0018216
0.99856587
0.99099496
0.98576295
0.98840759
0.99418008
0.99903755
0.99976601
0.9964565
0.99836638
1.00336
1.0030341
0.99032168
0.96772655
0.95256785
0.95838616
0.97661777
0.99847666
1.0103731
1.0148481
1.0049526
1.0074102
1.0045425
0.9954502
0.98106375
0.96563281
0.9555623
0.95885116
0.97283623
0.99330914
1.0093099
1.0127186
1.0092242
1.0080041
1.0030848
0.99120191
0.96922198
0.94769176
0.94750649
0.9631943
0.98660491
1.0025828
1.0023416
1.0129398
1.0101953
1.0037021
0.99326631
0.97784015
0.9609372
0.95071127
0.95651007
0.97187106
0.99024821
0.99968579
0.99451289
0.98321057
0.98282857
0.98978938
0.99436852
0.98731552
0.96999847
0.96176755
0.97158117
0.98632494
0.98952315
0.97334712
0.97562822
0.98325197
0.99340647
0.99735277
0.99106362
0.97749616
0.96752088
0.97368808
0.98679502
0.99580604
0.98873905
0.96462086
0.93889612
0.93592499
0.9511549
0.97794116
0.99824867
0.99790136
0.98582231
0.98728929
0.9916695
0.98588293
0.96033405
0.93747568
0.94937467
0.96753167
0.98614566
0.99779447
0.9971332
0.99048219
0.99166023
0.9941559
0.99231288
0.97770295
0.94906171
0.91958261
0.90449334
0.91603276
0.94683437
0.9828319
1.0025944
0.99884445
0.99259703
0.99148561
0.98657146
0.96339042
0.91989578
0.9324325
0.95448998
0.97705898
0.99124454
0.99168116
0.98431442
0.9827007
0.98613241
0.98667029
0.97509033
0.94745454
0.91494099
0.89407048
0.90390548
0.93266276
0.96803203
0.98577433
0.98084157
0.96783659
0.97210844
0.98090751
0.97456651
0.91919175
0.9349843
0.95998349
0.97971994
0.98105002
0.96351567
0.94338805
0.93970835
0.95553645
0.97508592
0.9778696
0.9582443
0.92385769
0.89669662
0.9043498
0.93279909
0.96394694
0.97113915
0.95123184
0.92648443
0.93069175
0.95590544
0.9756693
0.93008293
0.94652591
0.96987936
0.97772456
0.96206237
0.92835446
0.89878871
0.89124929
0.9136595
0.94875266
0.97179208
0.96743388
0.93701161
0.90607626
0.90965664
0.93695409
0.96143903
0.956986
0.92390869
0.89082767
0.88865225
0.91758655
0.95776032
0.94190513
0.95670654
0.97190231
0.96861066
0.93882367
0.89647008
0.86367368
0.85430345
0.87818801
0.91851578
0.9548594
0.96395036
0.94329402
0.91453955
0.91398499
0.93813639
0.9559524
0.94385456
0.90250368
0.86467298
0.85364523
0.88450575
0.93327062
0.94366665
0.95735905
0.96677365
0.95473457
0.91644763
0.87067373
0.83749652
0.8283512
0.85254415
0.8941809
0.93458037
0.95196738
0.93887741
0.91456224
0.91225404
0.93456938
0.9485113
0.93089572
0.8862286
0.84627175
0.82995565
0.86155981
0.91324146
0.93604789
0.94975077
0.95719002
0.94034621
0.89934659
0.85163355
0.81906745
0.81052904
0.8346112
0.87623703
0.91787685
0.93667933
0.92726349
0.90678515
0.90525285
0.9271628
0.93775865
0.91563409
0.870097
0.8293965
0.81418332
0.84792671
0.90128724
0.92127214
0.93599219
0.94452875
0.92880226
0.88685544
0.83853439
0.80467246
0.79544119
0.8188063
0.86103569
0.90368748
0.92289099
0.91402886
0.89482314
0.89490518
0.9164841
0.92492521
0.89891936
0.85074056
0.8136366
0.80330296
0.84128747
0.89617151
0.9003808
0.91820878
0.92961784
0.91770275
0.87746054
0.82748264
0.79292261
0.78467926
0.80867376
0.85206436
0.89344529
0.90788768
0.89681536
0.8807052
0.88563488
0.9054643
0.90916822
0.87919044
0.83211149
0.80118094
0.80046958
0.84315704
0.89628776
0.87220323
0.89422741
0.9136559
0.90886879
0.87071313
0.81983632
0.78408093
0.77740215
0.80336648
0.84709128
0.88456974
0.89168988
0.87631361
0.86267622
0.87379869
0.89270581
0.89285565
0.8578926
0.81214095
0.78758051
0.80525836
0.85426252
0.89812071
0.82822226
0.85603218
0.89007129
0.89856052
0.87139511
0.81983432
0.78044026
0.7763848
0.80520886
0.84841009
0.8737381
0.86832462
0.84751662
0.83941824
0.85878668
0.87810255
0.87271199
0.83475138
0.79892069
0.7867432
0.82246872
0.87132456
0.89341675
0.76921113
0.80039207
0.84927844
0.88065432
0.87472598
0.83038299
0.78888616
0.78580737
0.81389044
0.84785433
0.85418181
0.83467143
0.81385217
0.81428377
0.84004756
0.85976216
0.85072156
0.81711422
0.7958438
0.80536959
0.85054464
0.88035269
0.87138165
0.70942459
0.74093418
0.7981073
0.85436404
0.87328013
0.84935144
0.81118257
0.80777615
0.82562195
0.83663683
0.8232368
0.79609428
0.7812772
0.79173758
0.81911479
0.83746707
0.8300909
0.81473312
0.81411448
0.84407188
0.87147279
0.86034722
0.82689616
0.65759549
0.69057171
0.7567135
0.82962021
0.86910312
0.85891571
0.82486858
0.8208512
0.82359459
0.81448346
0.78956083
0.76769343
0.75988841
0.77635834
0.80220827
0.81933473
0.82534435
0.83238482
0.85130367
0.86966453
0.85506361
0.81815581
0.79588958
0.66921124
0.69579074
0.75249347
0.81663559
0.85084312
0.83558994
0.80822599
0.81098369
0.8120873
0.7980201
0.77485681
0.75932066
0.75919327
0.77945359
0.80437181
0.82232107
0.83490547
0.84807369
0.86153158
0.85368904
0.82068821
0.79598387
0.78628063
0.72672852
0.74428677
0.77959976
0.81250351
0.81794085
0.79225665
0.77965859
0.79340342
0.80182537
0.79593356
0.78187635
0.77623725
0.78763111
0.80845028
0.81930699
0.82143845
0.8242813
0.83396173
0.84054383
0.82866604
0.80872441
0.79575716
0.79747308
0.77305363
0.79181924
0.8026592
0.80498496
0.78928084
0.7689026
0.76682121
0.78120382
0.79512138
0.80322498
0.80832042
0.8139471
0.82195536
0.82227747
0.81263989
0.80259776
0.79943257
0.80717462
0.81556339
0.81731201
0.82059977
0.82837648
0.83650898
0.7707222
0.80234389
0.81329409
0.80573332
0.78557131
0.77274965
0.77522069
0.78836666
0.79974996
0.80942532
0.81960091
0.82704659
0.82902081
0.81793856
0.80041326
0.78920872
0.78784478
0.79827171
0.81060564
0.82396023
0.84204782
0.8583727
0.86405291
0.75423465
0.79046059
0.81241955
0.8121773
0.80219654
0.79774384
0.80028119
0.80256976
0.8018263
0.80123565
0.80423893
0.81091641
0.81611174
0.81400405
0.80708637
0.8034018
0.80588709
0.81513616
0.82364423
0.83201129
0.83798846
0.83915204
0.83578713
0.75947567
0.79146915
0.80981387
0.81116201
0.81014963
0.81239135
0.81395171
0.8092797
0.79937135
0.79159891
0.78971643
0.79566246
0.80587342
0.81573471
0.82551311
0.835049
0.84072899
0.84130792
0.83392416
0.82466793
0.81337934
0.80132106
0.78598728
0.77511851
0.80392204
0.81173461
0.80393647
0.79889981
0.80211597
0.80792291
0.80896898
0.80430291
0.79873532
0.7969485
0.80178472
0.81052896
0.82055433
0.83188866
0.84101178
0.84557719
0.84466023
0.83618321
0.82287584
0.80530735
0.78295075
0.76048792
0.77893587
0.80987073
0.81347959
0.79979351
0.79116241
0.79172508
0.79811768
0.80601459
0.81250698
0.8172259
0.82019459
0.82231745
0.8229998
0.82352042
0.8244684
0.82534903
0.82735267
0.82870953
0.82745548
0.82265438
0.81082751
0.79295773
0.77074021
0.76421519
0.80216416
0.81529057
0.80701592
0.80034928
0.79976801
0.80300691
0.80783948
0.81401758
0.82096174
0.82696925
0.83074408
0.83170663
0.83001366
0.82754614
0.82375097
0.81988717
0.81357976
0.80646077
0.79819533
0.7928353
0.79078167
0.79074357
0.76411022
0.79845373
0.8158363
0.8154364
0.81427378
0.81510572
0.81511513
0.81359792
0.81329429
0.81509001
0.81950549
0.82537978
0.83205303
0.83826925
0.8409378
0.83778123
0.82602979
0.80731382
0.78805254
0.7764282
0.77616756
0.79287517
0.82249779
0.77432676
0.8002681
0.81676754
0.81545143
0.81421321
0.81609045
0.81821795
0.81830525
0.81718614
0.81672517
0.81793532
0.82106228
0.82636481
0.83354316
0.83960782
0.84132682
0.83585987
0.82222272
0.80492597
0.79221806
0.79123064
0.80436269
0.82748592
0.78458545
0.80264468
0.81870543
0.81587579
0.81085603
0.81037332
0.81283225
0.81620043
0.82014632
0.82444053
0.8287936
0.83175276
0.83374128
0.83480541
0.83484115
0.8323513
0.82588363
0.81546519
0.80736888
0.80550946
0.81064937
0.82314922
0.83837701
0.78766099
0.79951688
0.81740183
0.82001279
0.81506268
0.81242471
0.81276687
0.81524553
0.81964273
0.82590535
0.83292162
0.83929451
0.84338554
0.84407076
0.8406832
0.83280211
0.82107477
0.80878433
0.80306782
0.8072094
0.8195072
0.83433321
0.84620726
0.79470074
0.799721
0.81383813
0.82344885
0.82289305
0.82184759
0.82222536
0.82303811
0.82408677
0.82652195
0.82999401
0.83408499
0.83859143
0.84246747
0.84355412
0.83977801
0.82936814
0.81710708
0.81060146
0.81305768
0.82350316
0.83626999
0.84581215
0.80877922
0.80772296
0.81365099
0.82298818
0.82428016
0.82444484
0.82570677
0.82770174
0.82929841
0.83026671
0.83087815
0.83150524
0.83302242
0.83613208
0.83926393
0.84008959
0.83561101
0.82703937
0.8213716
0.8214907
0.82775983
0.83582051
0.84259734
0.81814225
0.81574715
0.81625556
0.821893
0.82366892
0.82248562
0.82258384
0.82451833
0.82740155
0.83078192
0.83419009
0.83668133
0.83884659
0.84078112
0.84250854
0.84220896
0.83733015
0.82869415
0.82304353
0.82232233
0.82702197
0.83405111
0.84090221
0.82051831
0.8183998
0.81763443
0.8220373
0.82602526
0.82615025
0.82534567
0.82521283
0.8266629
0.82972426
0.8341845
0.83956545
0.84458459
0.8486091
0.85073353
0.84890891
0.84100921
0.82967933
0.82215148
0.82044442
0.82485874
0.83258579
0.84111155
0.82542059
0.82261596
0.81981811
0.82196529
0.82691454
0.83052113
0.83181076
0.83206746
0.83206421
0.83269009
0.83471884
0.83830513
0.84290917
0.84746232
0.85062317
0.84975149
0.84312199
0.83174516
0.82389779
0.82275797
0.82741294
0.8347327
0.84247522
0.83099897
0.82890701
0.82481578
0.82238266
0.82410131
0.82770738
0.83053269
0.83244197
0.83385423
0.83501115
0.83650212
0.83875135
0.84183344
0.84551433
0.84855752
0.84867364
0.8441526
0.83448214
0.82699177
0.82679486
0.83113066
0.83684019
0.84174031
0.82834676
0.82941497
0.82809728
0.825303
0.82452499
0.82584202
0.82798157
0.82986895
0.83177115
0.8339461
0.83648409
0.83960152
0.84331461
0.84740953
0.8513503
0.85302103
0.85027333
0.84147166
0.83221478
0.82932657
0.83129771
0.83496625
0.83795984
0.82566837
0.82834509
0.82915505
0.82849511
0.82806891
0.82887228
0.8304508
0.83208687
0.83328445
0.83469392
0.83665204
0.83931689
0.8427325
0.84690435
0.85159735
0.85515314
0.85446011
0.84780839
0.8371703
0.8304204
0.82917844
0.83120123
0.83425607
0.82561896
0.82942746
0.83050251
0.8297781
0.82846699
0.82816107
0.8293096
0.83125564
0.83313361
0.83494359
0.83688637
0.83905617
0.84164882
0.84474335
0.84863561
0.85303322
0.85436114
0.85086841
0.84128952
0.83216037
0.82880478
0.82976838
0.83310588
0.82566083
0.83136822
0.8327727
0.83175231
0.82998385
0.828255
0.82786475
0.8287869
0.83086343
0.83349391
0.83610655
0.83898269
0.84187056
0.84478254
0.84830203
0.85241323
0.85556226
0.85473851
0.84829818
0.83845518
0.83219291
0.8311419
0.8330366
0.81930428
0.82967898
0.83372924
0.83374639
0.83289825
0.83151524
0.83010837
0.82994218
0.83078741
0.8327654
0.83516614
0.83775945
0.84059786
0.84350428
0.84682098
0.85074855
0.85487233
0.85657332
0.85370259
0.845229
0.83655993
0.83238945
0.83185496
0.82068923
0.8322215
0.83568177
0.83524072
0.83376453
0.83194594
0.83016915
0.8291914
0.82958648
0.83069095
0.83292126
0.83559277
0.83821143
0.84126075
0.8444257
0.84820652
0.85275207
0.85625515
0.8562755
0.85149344
0.84244176
0.83524173
0.83166834
0.81224169
0.83025399
0.8365445
0.83728969
0.83562848
0.83257013
0.82965164
0.82762621
0.82722138
0.82796725
0.83002553
0.83314946
0.83648169
0.83990061
0.84307685
0.84662906
0.85094167
0.85552678
0.85788201
0.85615647
0.84960137
0.84092492
0.83403122
0.81012758
0.82946283
0.83675266
0.83866268
0.83680016
0.83302696
0.82904228
0.82590332
0.82443971
0.82498993
0.82680067
0.83000755
0.83398987
0.83784949
0.84113352
0.84441461
0.84789807
0.85250206
0.85664396
0.85803221
0.85514845
0.84784599
0.83909608
0.8038818
0.82646915
0.83616632
0.83961775
0.83803331
0.83356521
0.82880263
0.82503435
0.82283794
0.82256385
0.82372078
0.82645337
0.83041134
0.83483766
0.83883915
0.8422224
0.84545814
0.84946443
0.85428374
0.85793868
0.85827373
0.85495471
0.84726706
0.79641168
0.8201703
0.8335967
0.84042433
0.84114955
0.8368335
0.83125244
0.82663642
0.82376622
0.82251131
0.8226244
0.82378654
0.82640208
0.83049717
0.83530162
0.83972512
0.84369792
0.84756485
0.85213577
0.85688593
0.85970528
0.85891337
0.85440456
0.78575003
0.80918263
0.82704256
0.83955109
0.84423729
0.84272773
0.83681087
0.83078809
0.82638823
0.82390239
0.82310315
0.82365298
0.82548915
0.82862698
0.83283519
0.83750512
0.84206512
0.84609803
0.85026901
0.85484357
0.85893792
0.86068209
0.8586755
0.77267598
0.79275293
0.81386446
0.83275334
0.84430724
0.84762906
0.84487628
0.83853533
0.83264151
0.82858703
0.82653616
0.82616734
0.82723875
0.82971186
0.83335523
0.83749155
0.84157813
0.84527057
0.84868966
0.85228529
0.85659434
0.8600449
0.86080055
0.75603237
0.77093499
0.79272951
0.81650244
0.83597723
0.84711919
0.85051245
0.84868716
0.84316258
0.83783902
0.83418197
0.83234759
0.83201887
0.83310718
0.83541737
0.83855816
0.84200569
0.84533179
0.84845817
0.85152285
0.85491268
0.85904972
0.86165368
0.73904576
0.74600592
0.76447621
0.78945393
0.81497157
0.83563551
0.84784707
0.85281588
0.85326852
0.8498917
0.84539325
0.84181335
0.83978632
0.83924447
0.83998428
0.84178369
0.84415647
0.84673766
0.84943501
0.85216772
0.85502415
0.85822774
0.86116252
0.72629218
0.7250206
0.73480048
0.75502107
0.7805934
0.80740082
0.83032325
0.84566734
0.85321892
0.85588359
0.85582163
0.85342828
0.8503392
0.84815041
0.84714079
0.8472838
0.84830948
0.84974877
0.85157023
0.85346243
0.85555961
0.85793079
0.86016801
0.72129972
0.71402282
0.71474783
0.72470872
0.74186354
0.76507273
0.79169132
0.81724046
0.83719872
0.84949163
0.85551089
0.85811664
0.85871983
0.85815992
0.85653809
0.85508261
0.85434425
0.85415231
0.85472371
0.85549285
0.85673154
0.85829778
0.86003796
0.71715193
0.70927488
0.70811393
0.71070158
0.71729966
0.72905142
0.74677856
0.76982961
0.7952285
0.81898153
0.83771744
0.84984012
0.85641765
0.85951426
0.86106693
0.86155472
0.8613978
0.86069904
0.86011158
0.859653
0.85980907
0.86025628
0.86094719
0.71319125
0.70835938
0.70774877
0.70869896
0.71058219
0.71400203
0.72043703
0.73135365
0.7475382
0.76839543
0.79176724
0.81431063
0.8328962
0.846315
0.85473299
0.85956827
0.8620883
0.86352249
0.86436564
0.86458254
0.86460113
0.86435374
0.86388195
0.71098005
0.70906355
0.70931725
0.71012822
0.71131172
0.71294678
0.71495912
0.7179744
0.72312626
0.73189829
0.74514088
0.76277778
0.78329273
0.80428635
0.82322978
0.83850543
0.84973246
0.85702794
0.86153412
0.86405547
0.86546415
0.86644882
0.86688004
0.71264039
0.7120835
0.71358009
0.7146943
0.71550425
0.71621717
0.71717115
0.71853928
0.7204104
0.72283215
0.72652841
0.73258352
0.74217972
0.75561524
0.7723093
0.79076806
0.8091509
0.82570722
0.83932724
0.84972941
0.85705721
0.86185615
0.86764451
0.71665842
0.71742966
0.72007885
0.72198559
0.72321216
0.72394441
0.72440257
0.72471852
0.72512851
0.72590956
0.7272883
0.72927316
0.73180278
0.7355292
0.74119491
0.74982007
0.76156229
0.77595745
0.79191866
0.80807901
0.82314002
0.83609976
0.85230458
0.72020862
0.72369859
0.72765976
0.73076128
0.73307361
0.73472658
0.73581924
0.73643562
0.73663947
0.73656343
0.73633933
0.73625126
0.73660311
0.73758365
0.73936166
0.74155562
0.74461211
0.74902068
0.75536349
0.76427876
0.77561062
0.78884967
0.80651668
0.7241766
0.73010136
0.73545201
0.73988703
0.74355553
0.74659656
0.74906013
0.75097201
0.75233365
0.75312305
0.75331663
0.75296218
0.75220611
0.75121547
0.75022007
0.74966101
0.74969958
0.75053716
0.75210955
0.75402547
0.75670952
0.76057969
0.76693897
0.72850649
0.73635085
0.74301968
0.74877271
0.75379279
0.75825497
0.7622501
0.76579778
0.76887735
0.7714344
0.77338435
0.77463857
0.77514247
0.7748852
0.77389404
0.77228721
0.77025313
0.76801403
0.76590588
0.76431478
0.76327701
0.76291633
0.76310963
0.73308748
0.74252498
0.75047602
0.75751676
0.76378283
0.76949226
0.7748127
0.77979389
0.78442412
0.78868158
0.79254167
0.79595261
0.79879974
0.80094088
0.80225154
0.80261493
0.8019605
0.80031939
0.79775707
0.79449589
0.79072865
0.78665067
0.78207512
0.73816485
0.74930927
0.75860767
0.76689711
0.77430277
0.78111185
0.78751619
0.79355867
0.79925812
0.80470131
0.80997256
0.81505713
0.8198466
0.82423066
0.82813578
0.83143523
0.83396591
0.83553015
0.83595076
0.83510171
0.83300843
0.82973879
0.82531115
0.74350811
0.75541687
0.76682197
0.77687059
0.78560357
0.79354242
0.80097831
0.80794937
0.81445282
0.82064335
0.82676159
0.83288724
0.83890344
0.8446989
0.85030044
0.85573023
0.86088107
0.86552406
0.8694439
0.87250399
0.87455166
0.87518434
0.8736785
0.75089799
0.7633808
0.77680935
0.78863222
0.79870986
0.80774271
0.81612838
0.82388562
0.83097373
0.83766965
0.84437399
0.85122127
0.85804652
0.86464001
0.87110091
0.87765902
0.88431404
0.89083132
0.89701763
0.90284274
0.90839545
0.91323685
0.91496976
0.76061785
0.77408035
0.78950964
0.80292768
0.81406917
0.82386893
0.83292919
0.84131195
0.84900698
0.85625702
0.86347073
0.8708942
0.87834621
0.88559555
0.89272768
0.90004078
0.90764392
0.91532314
0.92290912
0.93042727
0.93811889
0.9460439
0.95059922
0.77279567
0.78780197
0.80472756
0.81904828
0.83074906
0.84102083
0.85057685
0.8595598
0.86787607
0.87561841
0.88328619
0.89129783
0.89950697
0.90763674
0.91559876
0.92367573
0.93227785
0.94122259
0.95028985
0.95936917
0.96803321
0.9765136
0.981572
0.78691
0.80391282
0.82152315
0.83613865
0.84809255
0.85854675
0.868323
0.87768122
0.88648998
0.89477743
0.90303744
0.91172628
0.92074868
0.92987751
0.93894064
0.94816358
0.95805972
0.96839954
0.97814192
0.98613447
0.99162291
0.99539918
0.99703084
0.8012261
0.82007651
0.83813908
0.85281084
0.8647765
0.8752798
0.88525153
0.89491309
0.90413811
0.91304777
0.9220032
0.93145512
0.94143545
0.95165326
0.96204419
0.97264203
0.98278347
0.99095997
0.99605004
0.9985153
0.99945493
0.99986711
1.0001517
0.81482377
0.83525308
0.85367596
0.86829348
0.88022312
0.89086558
0.90099186
0.91081238
0.92056951
0.93025898
0.93998701
0.95029865
0.96128181
0.97283102
0.9839058
0.99227498
0.99706123
0.99926716
1.0001888
1.0004176
1.0002855
1.000166
1.0002037
0.82721531
0.84904444
0.86780811
0.88233259
0.89436425
0.90514121
0.91540034
0.92557073
0.93584901
0.94627463
0.95702979
0.96838882
0.98037574
0.99104604
0.99717768
0.99933923
0.99987683
1.0001717
1.0004612
1.0004507
1.0002344
1.000022
1.0001536
0.83839315
0.86162245
0.88074756
0.89518674
0.90713819
0.91803873
0.92866172
0.93930875
0.95028021
0.96162942
0.97340668
0.98542836
0.99471872
0.99903337
1.000226
1.0002132
1.0000092
1.0000712
1.0003107
1.0004266
1.0001819
0.99991806
1.000035
0.84867347
0.87332582
0.89265098
0.90687725
0.91881827
0.92999078
0.94112133
0.95249367
0.96413102
0.9763077
0.98846055
0.99672737
0.99967582
1.0002989
1.0003262
1.000188
1.0000329
1.0000382
1.0002199
1.0003107
1.0001693
0.99987739
0.99982609
0.85835836
0.88408805
0.90341685
0.91767816
0.92980342
0.94134554
0.95293895
0.96486706
0.97739466
0.98987718
0.99773499
0.99985704
1.0001829
1.0003344
1.0003508
1.0001825
0.99999908
1.0000316
1.0002244
1.0002382
1.0000475
0.99982517
0.99979502
0.86733589
0.89423055
0.91351286
0.92769386
0.93996162
0.95190871
0.96417157
0.97695509
0.98972209
0.99793145
1.0000316
1.000295
1.0002963
1.0002625
1.0002728
1.0002371
1.0001546
1.000109
1.0001322
1.000107
0.99999996
0.99984288
0.99985807
0.87591977
0.90371137
0.92278444
0.93700416
0.94961111
0.96205041
0.97488552
0.98802261
0.99756843
1.0001582
1.0003446
1.0003047
1.000265
1.0002675
1.0002929
1.0003416
1.0003531
1.0002435
1.0001012
1.0000176
1.00004
1.0000187
0.99995299
0.88394391
0.91257657
0.93156496
0.94577268
0.95867107
0.97168338
0.98506643
0.99608928
1.0000537
1.0004689
1.0004501
1.0003302
1.0002338
1.0003612
1.0004355
1.0004763
1.0004684
1.0003654
1.000204
1.0001253
1.0001141
1.0001324
1.0000554
0.8915167
0.92085824
0.93977805
0.95411819
0.96738865
0.98081632
0.99307476
0.99938381
1.0005835
1.0006099
1.0005669
1.0003468
1.0002364
1.0005163
1.0006213
1.0006113
1.0004608
1.0003653
1.0003812
1.0004994
1.0003876
1.0002247
0.99999437
0.89900612
0.92850641
0.94691615
0.96155573
0.97554004
0.98920876
0.9980351
1.0002276
1.0005189
1.0004489
1.000541
1.0005147
1.0004363
1.000556
1.0005329
1.0006359
1.0006641
1.0006097
1.0005139
1.000591
1.0005051
1.0005274
1.0004519
0.90568469
0.93530387
0.95361456
0.96861292
0.98332776
0.9952782
0.99967202
1.0003566
1.000551
1.0005904
1.0005513
1.0002103
1.0002015
1.0005659
1.0007966
1.0009126
1.0005197
1.0003395
1.0004174
1.0007855
1.0009593
1.0008275
1.0003113
0.91186642
0.94126103
0.95946508
0.97502114
0.9897396
0.99864391
1.0003454
1.0004322
1.0003412
1.0000823
1.0000602
1.0001076
1.0002759
1.0004214
1.000223
1.0003022
1.000463
1.0004238
1.0003423
1.0005463
1.0006382
1.0009334
1.0011528
0.91698118
0.94650405
0.96473737
0.98085378
0.99428039
0.99967903
1.0002796
1.0000549
0.99970976
0.99954654
0.99960593
0.99938064
0.99899918
0.99916936
0.99944927
0.99951683