/*--------------------------------*- C++ -*----------------------------------*\
| =========                 |                                                 |
| \\      /  F ield         | OpenFOAM: The Open Source CFD Toolbox           |
|  \\    /   O peration     | Version:  2406                                  |
|   \\  /    A nd           | Website:  www.openfoam.com                      |
|    \\/     M anipulation  |                                                 |
\*---------------------------------------------------------------------------*/
FoamFile
{
    version     2.0;
    format      ascii;
    arch        "LSB;label=32;scalar=64";
    class       volScalarField;
    location    "155";
    object      TMean;
}
// * * * * * * * * * * * * * * * * * * * * * * * * * * * * * * * * * * * * * //

dimensions      [0 0 0 1 0 0 0];

internalField   nonuniform List<scalar> 
20580
(
1.0022026
1.0019188
1.0019007
1.0019037
1.0019043
1.0018913
1.0018902
1.0018962
1.0019046
1.0019143
1.0019254
1.0019369
1.0019445
1.0019573
1.0019623
1.0019732
1.0019745
1.0019577
1.001939
1.0019075
1.0018756
1.0018509
1.0018381
1.0017785
1.0016347
1.0015223
1.0015217
1.0015455
1.0013627
1.0010386
0.9998853
1.0021398
1.0018934
1.0018813
1.0018851
1.00188
1.0018751
1.001881
1.0018881
1.0018987
1.0019092
1.0019199
1.0019303
1.0019389
1.0019441
1.0019536
1.0019597
1.001957
1.0019369
1.0019104
1.001879
1.0018372
1.0018123
1.0018003
1.001755
1.0016251
1.0014219
1.0012642
1.0012453
1.0012303
1.0012089
1.0004111
1.0021624
1.0018775
1.001879
1.0018918
1.0018824
1.001876
1.0018816
1.0018894
1.0018997
1.001909
1.0019187
1.0019269
1.0019313
1.0019361
1.0019428
1.0019438
1.0019302
1.0019062
1.0018718
1.0018318
1.0017843
1.0017476
1.0017292
1.0016882
1.0015781
1.0013739
1.0011236
1.0009542
1.0008655
1.0009358
1.000676
1.0022556
1.0018828
1.0018771
1.0019016
1.0018939
1.0018868
1.0018892
1.0018947
1.0019036
1.0019122
1.0019196
1.0019261
1.0019313
1.0019341
1.0019376
1.0019347
1.0019182
1.0018916
1.0018514
1.0018073
1.0017596
1.0017053
1.0016754
1.001643
1.0015361
1.001351
1.0011129
1.0008789
1.0006515
1.0004676
1.0004799
1.0022822
1.0019396
1.0018883
1.0019073
1.0018975
1.0018874
1.0018908
1.0018934
1.0019013
1.0019108
1.0019196
1.0019263
1.0019314
1.0019361
1.001936
1.0019315
1.0019165
1.00189
1.0018468
1.0017986
1.0017351
1.0016697
1.0016267
1.0015934
1.001518
1.0013663
1.0011689
1.0009071
1.0006087
1.0002408
1.000007
1.002185
1.0019387
1.0018993
1.0018963
1.0018824
1.0018747
1.0018813
1.0018874
1.0018976
1.0019089
1.0019184
1.0019256
1.0019313
1.0019347
1.0019373
1.0019347
1.0019218
1.001895
1.0018529
1.0018054
1.0017404
1.0016571
1.0015997
1.0015561
1.001469
1.0013495
1.0012164
1.0010068
1.0007151
1.0003395
0.99978874
1.0021396
1.0018965
1.0019066
1.0019009
1.0018831
1.0018762
1.0018812
1.0018869
1.0018969
1.0019075
1.0019151
1.0019224
1.0019271
1.00193
1.0019304
1.0019313
1.0019226
1.0018983
1.0018573
1.0018145
1.0017502
1.0016609
1.0015833
1.0015085
1.0013901
1.0012505
1.0011116
1.0009883
1.000817
1.000626
1.0001204
1.0021628
1.001856
1.0018806
1.0019121
1.001898
1.0018887
1.0018881
1.001891
1.001897
1.0019067
1.001914
1.0019191
1.0019219
1.0019237
1.0019234
1.0019199
1.0019037
1.0018735
1.0018357
1.0017931
1.0017432
1.0016621
1.0015596
1.0014323
1.001294
1.0011598
1.0010103
1.0008326
1.0006372
1.0004201
1.0002732
1.0021383
1.001824
1.0018228
1.0018893
1.0018935
1.0018864
1.0018865
1.0018875
1.0018943
1.001904
1.0019111
1.0019166
1.0019194
1.0019203
1.0019186
1.0019131
1.0018988
1.0018669
1.0018263
1.0017826
1.0017301
1.0016566
1.001548
1.0014052
1.0012542
1.0011098
1.0009341
1.0007085
1.0004422
1.0001007
0.9999033
1.0019002
1.0017036
1.0017439
1.0018125
1.0018368
1.0018476
1.0018629
1.0018754
1.0018867
1.0018995
1.0019087
1.001914
1.0019174
1.0019179
1.0019148
1.0019088
1.0018957
1.0018675
1.0018283
1.0017778
1.0017256
1.0016579
1.0015841
1.0014663
1.0013205
1.0011794
1.0009962
1.0007457
1.0004251
1.0000643
0.99962756
1.0017633
1.0015352
1.0016242
1.0016776
1.0017122
1.0017565
1.0017951
1.0018247
1.0018481
1.0018696
1.001886
1.0018981
1.0019073
1.0019106
1.0019105
1.0019049
1.0018978
1.0018731
1.0018371
1.0017863
1.0017267
1.0016607
1.0015975
1.0015169
1.0014201
1.0013141
1.0011797
1.0010061
1.0007578
1.0005036
0.99999055
1.0018233
1.0015298
1.0015463
1.0016081
1.0016332
1.0016553
1.0016896
1.0017243
1.0017569
1.001791
1.0018183
1.0018401
1.0018564
1.0018677
1.0018767
1.0018811
1.0018827
1.0018681
1.0018379
1.0017811
1.0017085
1.0016416
1.0015538
1.0014372
1.0013387
1.0012658
1.0011842
1.0010524
1.0008541
1.0006096
1.0003565
1.0020322
1.0016486
1.0015778
1.0016083
1.0016069
1.0016071
1.0016196
1.0016404
1.0016682
1.0016998
1.001727
1.0017508
1.001769
1.001781
1.0017926
1.0018031
1.0018082
1.0017967
1.0017776
1.001739
1.0016659
1.0015715
1.0014413
1.0012709
1.0011129
1.0010123
1.0009315
1.0007968
1.0005953
1.0002719
1.0000811
1.0021284
1.0017709
1.0017245
1.0017014
1.0016714
1.0016535
1.0016473
1.0016475
1.0016537
1.001669
1.0016836
1.0016993
1.0017139
1.0017265
1.0017322
1.0017326
1.0017312
1.0017242
1.001708
1.0016734
1.0016064
1.0015093
1.0013705
1.0011949
1.0010219
1.0008674
1.000717
1.0005446
1.0003228
1.0000238
0.99974845
1.0020126
1.0017382
1.0017705
1.0017435
1.001712
1.0017028
1.0016996
1.0016968
1.0016958
1.001702
1.0017048
1.0017066
1.0017105
1.0017143
1.0017135
1.0017082
1.001705
1.0016896
1.0016671
1.0016461
1.0015753
1.0014973
1.0013911
1.0012576
1.0011077
1.0009296
1.0007324
1.0005675
1.0003927
1.0001834
0.99987016
1.0018989
1.0016466
1.0016819
1.0016956
1.0016854
1.0016804
1.0016799
1.0016828
1.0016893
1.0017053
1.0017128
1.0017152
1.0017175
1.0017182
1.0017163
1.0017112
1.0017063
1.001689
1.0016631
1.0016271
1.0015854
1.0015355
1.0014707
1.0013867
1.0012843
1.0011699
1.0010503
1.0009175
1.0007385
1.0005503
1.0002868
1.0020352
1.0016933
1.0016822
1.0017027
1.001693
1.0016829
1.0016781
1.001676
1.0016767
1.0016943
1.0017004
1.0017019
1.0017045
1.0017042
1.0017
1.0016975
1.0016948
1.0016793
1.0016497
1.0016075
1.0015642
1.0015085
1.0014454
1.0013512
1.0012437
1.0011479
1.0010685
1.0009557
1.0007937
1.0005546
1.0003775
1.0021064
1.0017398
1.0017624
1.0017734
1.0017588
1.0017493
1.0017428
1.0017397
1.0017281
1.0017392
1.0017373
1.001733
1.0017305
1.0017251
1.0017158
1.0017085
1.0017012
1.001681
1.0016432
1.0015924
1.0015271
1.0014321
1.0013155
1.0011827
1.0010344
1.000877
1.0007233
1.0005621
1.0003875
1.0001578
1.0000328
1.0019342
1.001666
1.0017376
1.0017258
1.001715
1.0017231
1.001732
1.0017355
1.0017368
1.00176
1.0017598
1.0017554
1.0017524
1.0017477
1.0017409
1.0017343
1.0017198
1.0016996
1.0016581
1.0016001
1.0015261
1.001422
1.0012808
1.0011204
1.0009491
1.000765
1.0005596
1.0003384
1.0001144
0.99989325
0.99974791
1.0018999
1.0016065
1.0016518
1.0016377
1.0016314
1.001634
1.0016333
1.0016478
1.001638
1.0016786
1.0016871
1.0016913
1.001698
1.0017013
1.0017016
1.0017003
1.0016899
1.0016774
1.0016477
1.001602
1.0015428
1.0014559
1.001346
1.001228
1.0010969
1.0009335
1.0007439
1.0005523
1.0003745
1.0002142
1.0000746
1.0019531
1.0016273
1.0016728
1.0016737
1.0016639
1.0016565
1.0016502
1.001639
1.0016329
1.001662
1.0016569
1.0016527
1.0016533
1.0016527
1.001652
1.0016486
1.0016389
1.0016261
1.0016026
1.001579
1.0015433
1.0014945
1.0014408
1.0013853
1.0013091
1.0012039
1.0011073
1.0010029
1.0009131
1.0007906
1.0006459
1.0019597
1.0015506
1.0016783
1.0016076
1.0015773
1.0015558
1.0015437
1.0015368
1.0014871
1.0015365
1.0015214
1.0015078
1.0014987
1.0014848
1.0014774
1.001473
1.0014568
1.0014372
1.001409
1.001378
1.0013344
1.0012817
1.0012238
1.0011502
1.0010658
1.0009544
1.0008351
1.0006994
1.0005671
1.0004098
1.0003062
1.00187
1.0009565
1.0012446
1.0009115
1.0010148
1.00105
1.0010606
1.0009199
1.0011436
1.0010979
1.001109
1.0010554
1.0010502
1.0010004
1.0011054
1.0011298
1.000963
1.0010013
1.001039
1.0009509
1.0008839
1.0008065
1.0007027
1.0006098
1.0004978
1.0003648
1.000175
0.9999425
0.99969954
0.99946854
0.99933927
0.9989833
1.0000166
1.0004842
0.99999088
0.99942304
0.99942328
0.99980809
1.0001044
0.99980152
0.99917642
0.99910881
0.99972869
0.99993207
0.99927858
0.99891708
0.99935032
0.9998037
0.99951897
0.99913859
0.99943236
1.0000939
1.000101
0.99933623
0.99872008
0.9997376
1.0003281
0.99995163
0.99921611
0.99886031
0.99919594
0.99983389
0.99983814
0.99889165
0.99829352
0.99893579
0.99972318
0.99926166
0.99829177
0.99831655
0.99906313
0.99936514
0.99860436
0.99811901
0.99865414
0.99940954
0.99916951
0.99814489
0.99935299
1.0000976
0.99969325
0.99868442
0.99803998
0.9986067
0.99952898
0.99968628
0.998456
0.9973907
0.99800228
0.99923422
0.99921886
0.99779056
0.99713385
0.99789404
0.9988322
0.99839255
0.99710774
0.99722223
0.99831526
0.99880772
0.99717447
0.99868035
0.99973932
0.99937738
0.99792951
0.99674352
0.99748299
0.99887466
0.99948869
0.99815097
0.99623282
0.99643424
0.99810299
0.99903643
0.99760697
0.99578202
0.99612704
0.99767719
0.9981604
0.99628769
0.99534053
0.99634941
0.99761069
0.99610596
0.99787607
0.99925218
0.99905206
0.99723734
0.9954002
0.99599978
0.9978582
0.99910099
0.99794433
0.99506919
0.994303
0.99627634
0.99832266
0.9975946
0.99439741
0.99351909
0.99540233
0.99728836
0.99613999
0.99340749
0.99362484
0.99548278
0.99483095
0.99687159
0.99858264
0.99862027
0.9964484
0.99385853
0.99386353
0.99616316
0.99829206
0.99775463
0.99417602
0.99160664
0.9933904
0.99654261
0.99752033
0.99408757
0.99086637
0.99218093
0.99527035
0.99608142
0.99260972
0.99061994
0.99224261
0.9931058
0.99553332
0.99768118
0.99801187
0.99551137
0.99209325
0.99117522
0.99379551
0.99693602
0.99753288
0.99367886
0.98898218
0.98980808
0.99360197
0.99652445
0.99443334
0.98869133
0.98802112
0.99146501
0.99463696
0.99305865
0.98800399
0.98789971
0.99076631
0.99373087
0.99643508
0.99717289
0.99439251
0.98997965
0.98778037
0.99055642
0.99473679
0.99676906
0.99327283
0.98654761
0.98507192
0.98908804
0.99420361
0.99464263
0.98815333
0.98345945
0.98603276
0.99114409
0.99302272
0.98790264
0.98360365
0.98765509
0.99127809
0.99476969
0.99592967
0.99282343
0.98708886
0.98321491
0.98599612
0.99124933
0.99515894
0.9927964
0.98471405
0.97956092
0.98302804
0.98982664
0.99353823
0.98863221
0.97997614
0.97973306
0.98509061
0.99051663
0.9888312
0.98127824
0.98348122
0.98795963
0.99255251
0.99423609
0.99084024
0.98352306
0.97771605
0.98023948
0.98647786
0.99252233
0.99196783
0.98320584
0.97421305
0.97587452
0.98326159
0.99044828
0.98880355
0.9784695
0.97288728
0.97706634
0.98507868
0.98819705
0.98162212
0.97847748
0.98388176
0.98981323
0.99208323
0.98821892
0.97898441
0.97109998
0.97300934
0.98021057
0.98851518
0.99018104
0.98135202
0.96930679
0.96727951
0.97453324
0.98479925
0.98755538
0.97803909
0.96682708
0.96779713
0.97642166
0.98454394
0.9821081
0.97219589
0.97859948
0.98616221
0.98915598
0.98456736
0.97302147
0.96292544
0.96370317
0.97206353
0.98289791
0.98701524
0.97878385
0.96453508
0.95731963
0.9640627
0.97676358
0.98411396
0.97709497
0.96268616
0.95763346
0.96535162
0.977389
0.98089025
0.96467293
0.97211947
0.98162178
0.98549251
0.9797802
0.96571846
0.95318435
0.95223003
0.96207068
0.97576243
0.98239934
0.97526912
0.95906242
0.94671357
0.95225378
0.96674298
0.97844538
0.97504878
0.95957799
0.9475031
0.95303833
0.96736123
0.97696712
0.95609547
0.96466443
0.97617681
0.98084505
0.97385906
0.95722583
0.94211172
0.93927651
0.95076872
0.9673711
0.97649068
0.97024824
0.95229829
0.93629364
0.93994114
0.95544957
0.97087723
0.97138519
0.95563758
0.93876907
0.94064225
0.95574031
0.97056456
0.94685459
0.95646874
0.96983579
0.9752816
0.96678549
0.94761373
0.93009341
0.92562357
0.93867461
0.95789903
0.96915825
0.96358694
0.94435312
0.92637016
0.92791035
0.94383436
0.96215672
0.9659303
0.95047814
0.93106994
0.9284425
0.94366361
0.96232406
0.93664392
0.94747197
0.96251418
0.9685331
0.9587143
0.93720196
0.91750943
0.91177924
0.92622828
0.94759855
0.96044605
0.95514618
0.93506254
0.91631533
0.91622039
0.93241232
0.95274361
0.95884634
0.9439214
0.92317415
0.91622969
0.93183976
0.95327241
0.92602899
0.93798142
0.95448075
0.96078271
0.94941808
0.92566577
0.9041427
0.89764575
0.91345816
0.93661128
0.95052739
0.94513696
0.92453842
0.90570418
0.90462764
0.92136308
0.94306611
0.95052637
0.93587081
0.91418285
0.90445522
0.92093589
0.94428772
0.91453815
0.9276129
0.94541132
0.95209675
0.9395915
0.91372465
0.8902947
0.88306107
0.89999196
0.92470471
0.9394925
0.93412486
0.91322074
0.89442784
0.89301202
0.91067741
0.93337164
0.94117993
0.92626473
0.90396258
0.89331517
0.91135299
0.93596224
0.90214444
0.9163182
0.93532313
0.94267539
0.92947873
0.90169918
0.87628663
0.86836278
0.88619168
0.91215801
0.92756687
0.92212708
0.90105481
0.88250135
0.88173187
0.90071972
0.92378459
0.93071001
0.91491198
0.89258607
0.88309715
0.90350683
0.92853513
0.88855843
0.90410487
0.92449402
0.93272765
0.91916848
0.88963334
0.86224982
0.85379614
0.87223293
0.89911397
0.91491395
0.90918492
0.88790023
0.86988493
0.87101267
0.89145478
0.91426124
0.91919856
0.90205623
0.88060937
0.87428042
0.89746671
0.92167782
0.87292927
0.8901164
0.91251511
0.92234619
0.90903242
0.87796079
0.84869439
0.83996799
0.85867511
0.88587518
0.90159822
0.89514801
0.87374075
0.85700049
0.86148642
0.88334882
0.90480788
0.90631954
0.88740244
0.86799792
0.86771146
0.89334472
0.91442972
0.85551189
0.87381113
0.89854319
0.91097576
0.89920685
0.86730389
0.83596401
0.82689187
0.84548528
0.87246514
0.8875278
0.88003919
0.85886722
0.84429261
0.85333309
0.87620358
0.8948073
0.89150908
0.87126163
0.8557702
0.86429892
0.89043822
0.90527377
0.83076135
0.85091102
0.87969026
0.89718476
0.89002852
0.85978192
0.82625711
0.81519932
0.83263515
0.85849522
0.87257446
0.86426597
0.84424605
0.83296838
0.8464448
0.86943037
0.88359453
0.87521949
0.85516382
0.84556044
0.86340234
0.88735514
0.89269005
0.7959721
0.81679508
0.84921791
0.8732261
0.87457066
0.85131842
0.81976976
0.80781905
0.82257384
0.84532952
0.85731894
0.84833079
0.83039593
0.82394602
0.84079504
0.86242839
0.87067011
0.8578564
0.84050592
0.84037002
0.86398299
0.88171765
0.87616567
0.75720138
0.77909622
0.81533059
0.84455341
0.85225964
0.83672361
0.81128169
0.80177682
0.8145789
0.83341412
0.8420175
0.83261837
0.81806263
0.8179318
0.83629395
0.85442896
0.85577804
0.84104645
0.82983144
0.84080144
0.86369495
0.87110821
0.85790091
0.72400803
0.74376458
0.77812846
0.81080681
0.82692348
0.82148252
0.80362438
0.79857453
0.80895791
0.82257329
0.82686505
0.81814811
0.80876359
0.81504578
0.83250182
0.84478654
0.84018553
0.82691676
0.82532983
0.84425924
0.85998532
0.85599107
0.84195818
0.7204073
0.73555575
0.75972482
0.78158158
0.7944088
0.79759236
0.79536301
0.79846254
0.80663003
0.8137203
0.81380914
0.80704876
0.80407506
0.81447472
0.82847231
0.8339663
0.82649484
0.81873256
0.82745367
0.84602447
0.85117748
0.84083339
0.83354947
0.72368458
0.73499647
0.75213139
0.76698529
0.77462756
0.77602141
0.7804348
0.79304742
0.80233803
0.80600643
0.80417829
0.80049037
0.80325704
0.8141974
0.82348854
0.82387933
0.81701168
0.81754174
0.83221688
0.8435786
0.83954828
0.83048994
0.83394539
0.73373511
0.7410843
0.74967318
0.75668029
0.76105558
0.7657342
0.77248562
0.7860478
0.79667224
0.79953876
0.79795185
0.79785124
0.80402406
0.81328536
0.81809154
0.81623738
0.81332657
0.82125923
0.83453554
0.83699974
0.82986452
0.82797883
0.84069059
0.742842
0.74620673
0.74936196
0.75038499
0.7526356
0.7593411
0.77016164
0.78275343
0.79227323
0.7949933
0.79493623
0.79794462
0.80505258
0.8115607
0.8132741
0.81184857
0.81451066
0.82546152
0.83258785
0.82941669
0.82541783
0.83199782
0.84416784
0.75097977
0.75277941
0.75221157
0.75025916
0.75120049
0.75820008
0.77007957
0.78230479
0.79021033
0.79274525
0.79435922
0.79920497
0.80566297
0.80969357
0.81036443
0.81132985
0.81816115
0.82716698
0.82842779
0.82508918
0.8267727
0.83642263
0.83946817
0.75534394
0.75669243
0.75520731
0.75285574
0.75402207
0.7609414
0.77213049
0.78314481
0.78951133
0.79210042
0.79514563
0.80040019
0.80545044
0.80786303
0.80913152
0.81312777
0.82109294
0.82590132
0.82454345
0.82388806
0.82941966
0.83487197
0.82961995
0.75971719
0.76068185
0.75902291
0.75703131
0.75857196
0.76505814
0.77518162
0.7848054
0.78990711
0.79272758
0.79648856
0.8012682
0.80521767
0.80743125
0.81019463
0.81582094
0.82217227
0.82367069
0.82255896
0.82448467
0.82936232
0.82837984
0.82048064
0.76186304
0.76310598
0.76197787
0.76093479
0.76339707
0.76970256
0.77841805
0.78615841
0.79032431
0.79338241
0.79729694
0.80154607
0.80474159
0.8074904
0.81181201
0.81773037
0.82171539
0.82158177
0.82165544
0.82473589
0.82605459
0.82093563
0.81505232
0.7640973
0.76575796
0.76556027
0.76533572
0.76837777
0.77434316
0.78171673
0.78787833
0.79153935
0.79479036
0.79868774
0.80251313
0.80580332
0.8096139
0.81439155
0.81858758
0.8201001
0.81989246
0.82093807
0.82204296
0.81990529
0.81575454
0.81529969
0.76449978
0.76666037
0.76744865
0.76799009
0.77089545
0.77598072
0.78203467
0.78749147
0.79099579
0.79404858
0.79766866
0.80144493
0.80474544
0.80842254
0.81294213
0.81698049
0.81869613
0.81857305
0.8192857
0.8203274
0.81939058
0.81697053
0.81739944
0.76435101
0.76676302
0.7682625
0.7694192
0.77217275
0.77650858
0.78157558
0.78648499
0.78996619
0.79283724
0.79617036
0.79979281
0.8031148
0.8066631
0.81084261
0.81485941
0.8171326
0.81748658
0.81797982
0.81900725
0.81921413
0.81828971
0.81924674
0.76386127
0.76634199
0.76828268
0.77001068
0.7728178
0.77668866
0.78106635
0.78547654
0.78890294
0.79162742
0.79471028
0.79819347
0.80149435
0.80494561
0.80885219
0.81275013
0.81541223
0.81624755
0.8166955
0.81761171
0.81850587
0.81887343
0.82054783
0.76296919
0.76543193
0.76767248
0.76984654
0.77277438
0.77641728
0.7803817
0.78438691
0.78775508
0.79040167
0.79325289
0.7965513
0.79983662
0.8031748
0.80684679
0.81060252
0.8135121
0.81479515
0.81537097
0.81624295
0.8175865
0.81894073
0.82133548
0.76190101
0.76418536
0.76649337
0.76893714
0.77204299
0.77566831
0.77947352
0.78318987
0.78650017
0.78914367
0.79180027
0.79488515
0.7981167
0.80136399
0.80478795
0.80835297
0.81142629
0.81315485
0.81401443
0.81494226
0.81654188
0.81856542
0.82158686
0.76058744
0.76264922
0.76498607
0.76755058
0.77074328
0.77442335
0.77823249
0.78183461
0.78511002
0.78780075
0.79032116
0.79317713
0.79630246
0.79948785
0.80272041
0.806022
0.80909104
0.81126257
0.81255762
0.81375891
0.81550705
0.81779753
0.82122653
0.75962684
0.76109011
0.76320462
0.76576861
0.76897267
0.77270745
0.77660283
0.78025304
0.78355762
0.78633852
0.78879306
0.79143716
0.79440633
0.79750053
0.80061463
0.80367692
0.8066176
0.80909034
0.81093412
0.81257835
0.81453571
0.81687583
0.8203913
0.75956096
0.75998086
0.76153894
0.76385278
0.76691042
0.77059259
0.77453878
0.77832785
0.78176656
0.78470096
0.78718011
0.78967096
0.79245499
0.79543227
0.79842454
0.80133709
0.80414783
0.80676997
0.80910322
0.81126293
0.81351314
0.81589123
0.81932014
0.76093323
0.7599849
0.76047252
0.76211553
0.76478529
0.76825571
0.77214106
0.77604185
0.77966219
0.78282242
0.78543891
0.78786758
0.79047724
0.79329928
0.79617132
0.79898549
0.80174087
0.80447382
0.80715647
0.80974484
0.81229864
0.81480232
0.81820167
0.7627568
0.76099179
0.76042875
0.76106687
0.76298561
0.76596969
0.7696
0.77347736
0.77723177
0.78063513
0.78350224
0.78599225
0.78848968
0.79114366
0.79388663
0.79665195
0.79942598
0.80229926
0.80521031
0.80807532
0.81088103
0.81358692
0.81708769
0.76487123
0.7631023
0.76166102
0.76110192
0.76192757
0.76409362
0.76720585
0.77083774
0.77458165
0.77815536
0.78131086
0.78399403
0.78648356
0.78901366
0.79163743
0.79437341
0.79723273
0.80024834
0.80332485
0.80636574
0.80938043
0.8123212
0.81600063
0.76695353
0.76567858
0.76382597
0.76231508
0.7619423
0.76300303
0.76529892
0.76840737
0.77192097
0.7755002
0.77886672
0.78182176
0.78444235
0.78695095
0.78951326
0.79224092
0.79518662
0.79832412
0.80155108
0.804761
0.80796623
0.81113525
0.81500929
0.76886339
0.76793435
0.76599835
0.76409969
0.76288514
0.76287598
0.7641673
0.76650966
0.76953662
0.77289833
0.77630698
0.77949277
0.7823436
0.78497323
0.78758739
0.79035384
0.79335938
0.79659252
0.79997483
0.80338233
0.80678088
0.81015957
0.81422239
0.77045042
0.76934124
0.76743206
0.76558319
0.76410577
0.76342977
0.76385155
0.76535473
0.76770638
0.77062942
0.77386445
0.77713811
0.78023081
0.7831068
0.78590122
0.78877899
0.79186141
0.7951863
0.79870621
0.80231918
0.80593346
0.80951748
0.81376544
0.77171914
0.77018815
0.7682472
0.76654822
0.76512264
0.76419653
0.76408417
0.76490554
0.76658911
0.76895998
0.77183965
0.77502257
0.77827782
0.78144786
0.78452174
0.78759752
0.79080526
0.79423438
0.7978804
0.80167371
0.8055132
0.80932672
0.81377175
0.77282629
0.77079183
0.76883141
0.76728519
0.76599899
0.76503049
0.76464544
0.76501911
0.76618591
0.76806382
0.77054159
0.77351224
0.77680935
0.7802205
0.78360028
0.78694149
0.7903334
0.79388438
0.79764331
0.80158146
0.80563703
0.80970596
0.81437994
0.77336326
0.77130178
0.76942796
0.76805855
0.76694812
0.76604686
0.76556484
0.76569532
0.76653171
0.76806537
0.77024286
0.77300589
0.77626222
0.77981056
0.78344457
0.78706202
0.79068248
0.79439061
0.7982685
0.80233878
0.80656994
0.81087898
0.81576224
0.77430386
0.77193501
0.77023453
0.76910201
0.76823563
0.76752174
0.76710799
0.76718454
0.76788551
0.76926112
0.77129967
0.77397268
0.77718882
0.78079575
0.78459954
0.78845313
0.79231356
0.7962161
0.80023707
0.8044324
0.80880529
0.81328659
0.8182765
0.7749889
0.77276327
0.77134456
0.77054861
0.77004485
0.76970147
0.76958105
0.76985001
0.77066524
0.77211858
0.77423158
0.77697242
0.78024861
0.7839217
0.78784462
0.79188368
0.79596502
0.80007634
0.80425998
0.80857883
0.81305673
0.81763731
0.82258943
0.77600146
0.77382854
0.77279954
0.7724472
0.77245088
0.77267329
0.77311396
0.77388792
0.77513427
0.77695958
0.77939934
0.78240599
0.78589118
0.78973793
0.79382278
0.79803963
0.80232197
0.80664109
0.81100618
0.81545977
0.82002805
0.82463536
0.82941217
0.77701679
0.77527344
0.7747011
0.77483185
0.77542779
0.77634934
0.77757365
0.77913489
0.78112346
0.78361653
0.7866323
0.7901201
0.79399255
0.79815368
0.80250375
0.80696495
0.81148273
0.81603196
0.82060918
0.82522978
0.82990145
0.83452594
0.83906207
0.77842349
0.7771728
0.77716199
0.77779763
0.77897799
0.78064314
0.78272369
0.78521717
0.78814001
0.79150414
0.79529039
0.79943966
0.80386747
0.80849054
0.81323999
0.81805476
0.82289309
0.82773141
0.83256326
0.83738825
0.84217456
0.84681571
0.85110779
0.78043337
0.77979166
0.78039002
0.78151153
0.78321123
0.7855307
0.78842203
0.79182921
0.79571206
0.80001905
0.80467168
0.80958155
0.81467719
0.81989034
0.82516034
0.83043717
0.83568116
0.84085976
0.84593683
0.85090057
0.85570461
0.8602172
0.86419342
0.78292008
0.7831299
0.78455487
0.786228
0.78838366
0.79120387
0.79473525
0.79892069
0.8036529
0.8088186
0.81430155
0.81999793
0.82581138
0.83167158
0.83751802
0.84329156
0.84891634
0.85434413
0.85958064
0.86463846
0.8694343
0.87374855
0.8771603
0.78572759
0.78717365
0.789619
0.79199484
0.79467221
0.79794295
0.80193961
0.8066672
0.81202656
0.81787057
0.82405267
0.83043737
0.83691548
0.84339248
0.84976941
0.85592353
0.86181366
0.86747571
0.87292106
0.87811132
0.8828708
0.88667375
0.8891051
0.78880828
0.79171274
0.79529469
0.79856678
0.80196014
0.80580556
0.81026353
0.81538034
0.82110955
0.82736321
0.83401173
0.84090454
0.8478847
0.85479257
0.86146327
0.86786337
0.87403729
0.87999993
0.88570427
0.89100129
0.8953477
0.89812591
0.89961487
0.79226244
0.79665807
0.80135692
0.80560793
0.80985731
0.81443895
0.81949933
0.82506744
0.83112268
0.83761652
0.84447522
0.85158128
0.85875159
0.86575459
0.87252854
0.87913475
0.88558197
0.89181591
0.89766169
0.902565
0.90579954
0.90764035
0.90865433
0.79609577
0.80196925
0.80774844
0.81296397
0.81807572
0.82342959
0.8291615
0.83529355
0.84178639
0.84858246
0.85560432
0.86272509
0.8697327
0.87655982
0.88331034
0.89001247
0.8965981
0.90288248
0.90828706
0.91197617
0.91419709
0.91563233
0.91647479
0.80023546
0.80760209
0.81441389
0.82055078
0.82648152
0.83255773
0.83892647
0.8456173
0.85258985
0.85976586
0.86701466
0.87411298
0.88093437
0.88762719
0.89429132
0.90091533
0.90734786
0.91307022
0.91714446
0.91968335
0.92142487
0.9226549
0.9233686
0.80468933
0.81354085
0.82131602
0.82829485
0.83497058
0.84170116
0.84864789
0.85584404
0.86324701
0.87075243
0.87815573
0.88522883
0.89206259
0.89880499
0.90548422
0.9119908
0.91790931
0.92228198
0.92498312
0.92683731
0.92820624
0.92919759
0.92967996
0.80942679
0.81969856
0.82837561
0.83610956
0.84343857
0.85074486
0.8581975
0.86583467
0.87360109
0.88134426
0.88878317
0.89586492
0.90279793
0.90967298
0.91642611
0.92273401
0.92764245
0.93068487
0.93266246
0.93408502
0.93510433
0.93579783
0.93595373
0.81447213
0.82606449
0.83553804
0.843925
0.85181631
0.85961146
0.86748829
0.87548722
0.88352757
0.89136962
0.89878196
0.9059423
0.91302821
0.92004421
0.92676339
0.93238414
0.93606775
0.93840437
0.94006034
0.94126324
0.94208798
0.94259306
0.94254081
0.81980207
0.83260059
0.84277971
0.85172412
0.86008279
0.86827775
0.87649133
0.88475564
0.8929434
0.90074786
0.90813983
0.91540109
0.92263001
0.92970354
0.93603612
0.94056831
0.94341806
0.94541784
0.94690168
0.94798575
0.94872606
0.94916886
0.94907804
0.82537873
0.83926291
0.85005152
0.85945914
0.86820174
0.87671889
0.88519308
0.8936326
0.9018288
0.90951603
0.91690888
0.92425356
0.93154144
0.93843142
0.94387346
0.94737046
0.94976025
0.95157288
0.9529644
0.95400574
0.9547354
0.9551908
0.95514435
0.83118173
0.84601473
0.85732498
0.86711028
0.87615837
0.88492642
0.89358743
0.90210659
0.91019645
0.91777007
0.92517518
0.93256332
0.9397717
0.94602425
0.95030389
0.95309125
0.95516182
0.95680209
0.95809354
0.95908979
0.95981587
0.96030361
0.96032637
0.83719108
0.8528594
0.86459306
0.8746644
0.88393568
0.89288029
0.90164966
0.91014363
0.91806764
0.92556987
0.93298821
0.94034937
0.94720916
0.95241563
0.95569896
0.95799443
0.95978521
0.961218
0.96235495
0.96324123
0.96390073
0.96436244
0.96440427
0.84330502
0.85966328
0.87173056
0.8820112
0.89144704
0.90051001
0.90931438
0.91769122
0.92544763
0.9329068
0.94032293
0.94755109
0.95367258
0.95771922
0.96032045
0.96224732
0.96376932
0.96497399
0.96591563
0.96663461
0.96715449
0.96751024
0.96750243
0.84955238
0.86652414
0.87879178
0.88918896
0.89870511
0.90779803
0.91654459
0.92473951
0.93235545
0.93978373
0.94714272
0.95397406
0.9590381
0.96214751
0.96427114
0.96589067
0.96715155
0.96812692
0.96885898
0.96939006
0.9697314
0.96992332
0.96981315
0.85573729
0.87314753
0.88555783
0.89600858
0.90554832
0.91461144
0.92324294
0.93123889
0.9387524
0.94614352
0.95334403
0.9594223
0.96336271
0.96581546
0.96756618
0.96890103
0.96990978
0.97065826
0.97117917
0.97150626
0.97165529
0.97166194
0.97142879
0.86187009
0.87964231
0.89207826
0.90250802
0.91199986
0.92096919
0.92942128
0.9372175
0.94465036
0.95195767
0.95876872
0.96381357
0.96682248
0.96878083
0.97020681
0.97126239
0.97202094
0.97253299
0.97283531
0.97296479
0.97295037
0.97282397
0.9725149
0.86775499
0.88572752
0.89816964
0.90854761
0.91795899
0.9267955
0.93504127
0.94266849
0.95002589
0.95715633
0.96324135
0.96718305
0.96950759
0.97106453
0.97217999
0.97295478
0.97345889
0.97375214
0.97388419
0.97389612
0.9738081
0.97363752
0.97330334
0.87349926
0.89155697
0.90391595
0.91419169
0.92346887
0.93211738
0.9401299
0.94759677
0.95483849
0.96161724
0.9667136
0.96967952
0.97146765
0.97266536
0.97347141
0.97398782
0.97429995
0.9744709
0.97453106
0.97450394
0.97439016
0.97420645
0.97385963
0.8790469
0.89705428
0.90929815
0.91943675
0.92853792
0.93696431
0.94473746
0.9520511
0.9590984
0.96521185
0.96920212
0.97140583
0.97274451
0.97360826
0.97416592
0.97452885
0.97475591
0.97487913
0.97490401
0.97484821
0.97471132
0.97450884
0.97414697
0.88436805
0.90225344
0.91431587
0.92426673
0.9331529
0.94133003
0.94886428
0.95601054
0.96273217
0.96790404
0.97085065
0.97245246
0.97342002
0.97405524
0.97449042
0.97478711
0.97496838
0.97505122
0.97504083
0.97495149
0.97478571
0.97455706
0.9741702
0.88939584
0.90718237
0.91904046
0.92876041
0.93739884
0.94530262
0.95259431
0.95951636
0.965649
0.96971183
0.9718048
0.97295809
0.97371181
0.97424467
0.97462088
0.97487227
0.97500969
0.9750532
0.97500334
0.97487839
0.97467782
0.97441788
0.97400311
0.8942194
0.91182358
0.92344127
0.93290898
0.94128451
0.94890389
0.95595417
0.96255495
0.96779766
0.97075027
0.97224299
0.97316669
0.97383188
0.97430654
0.9746353
0.97484089
0.97493507
0.97493488
0.97484202
0.97467644
0.97443698
0.97414446
0.97370125
0.89882966
0.91619358
0.92753599
0.93672073
0.94482074
0.95216111
0.95895203
0.96502793
0.96916258
0.97124046
0.97242642
0.97325669
0.97386034
0.97428208
0.97456052
0.97471773
0.9747623
0.97471441
0.97457471
0.97436628
0.9740888
0.97376757
0.9733036
0.90322693
0.92025514
0.93131372
0.94021288
0.94802167
0.95508162
0.96155978
0.9668142
0.96983854
0.97143089
0.97248887
0.97325644
0.97380292
0.97417344
0.97439921
0.97450465
0.97449917
0.97440479
0.97422077
0.97397505
0.97366568
0.97332433
0.97284094
0.90733589
0.92406377
0.93480582
0.94341225
0.95094331
0.95773475
0.96375521
0.96795459
0.97017734
0.9715338
0.97250416
0.97320105
0.97368625
0.97399716
0.9741658
0.97421439
0.97415586
0.97401226
0.97378762
0.97351021
0.97317902
0.97282155
0.97232792
0.91114367
0.92744757
0.93787406
0.94620205
0.95348
0.95999874
0.96531723
0.96853272
0.97034259
0.97155975
0.97244787
0.97307141
0.97349016
0.97373653
0.97384188
0.97382954
0.97371714
0.97352621
0.9732677
0.97296599
0.97261955
0.97224981
0.97175174
0.91479268
0.9305843
0.94065091
0.94869723
0.95571486
0.96185696
0.96631999
0.96886154
0.97044139
0.97154413
0.97233642
0.97287284
0.97321145
0.97338113
0.97341389
0.9733321
0.97315844
0.9729143
0.97261926
0.9722873
0.97192172
0.97153934
0.97104299
0.91816851
0.93339279
0.94310945
0.95087942
0.95762521
0.96322024
0.9669057
0.96908258
0.97051452
0.97151442
0.97220439
0.97264083
0.97287812
0.97294963
0.97288775
0.97271749
0.97246768
0.97215808
0.97181195
0.97143554
0.97104029
0.9706366
0.97013514
0.921155
0.93579518
0.9451742
0.95268366
0.95909796
0.96405985
0.96720394
0.96916098
0.97047503
0.97137426
0.97196174
0.97229237
0.97242271
0.97238598
0.9722192
0.97194956
0.97161222
0.97122666
0.97081454
0.97038254
0.96994669
0.96951478