/*--------------------------------*- C++ -*----------------------------------*\
| =========                 |                                                 |
| \\      /  F ield         | OpenFOAM: The Open Source CFD Toolbox           |
|  \\    /   O peration     | Version:  2406                                  |
|   \\  /    A nd           | Website:  www.openfoam.com                      |
|    \\/     M anipulation  |                                                 |
\*---------------------------------------------------------------------------*/
FoamFile
{
    version     2.0;
    format      ascii;
    arch        "LSB;label=32;scalar=64";
    class       volVectorField;
    location    "155";
    object      U;
}
// * * * * * * * * * * * * * * * * * * * * * * * * * * * * * * * * * * * * * //

dimensions      [0 1 -1 0 0 0 0];

internalField   nonuniform List<vector> 
20580
(
(0.090123376 -0.0011276987 1.1532461e-21)
(0.09065735 0.00078658762 3.2401505e-20)
(0.098606133 -0.0006711142 1.0467028e-21)
(0.097124896 -0.00021914105 2.760867e-21)
(0.096242609 0.0012387075 6.9072017e-24)
(0.097094117 0.00011255748 1.4105973e-20)
(0.096249931 0.00080235327 5.8422809e-21)
(0.095324869 0.0014841187 -1.3985474e-21)
(0.095181295 0.00098849625 -9.9289679e-21)
(0.094326873 0.0010394549 0)
(0.093864054 0.0017466341 6.0645315e-21)
(0.092752859 0.0023680271 -6.7108143e-20)
(0.093073369 0.00090452591 -1.282858e-21)
(0.092044104 0.0017648564 -6.4700556e-21)
(0.091305203 0.0018293624 1.6849437e-20)
(0.091573806 -0.00090969828 1.0394968e-20)
(0.090338248 0.00027833856 -9.618559e-20)
(0.089149881 0.0018126252 -2.433807e-21)
(0.090845569 -0.0051341142 3.5761212e-20)
(0.088866465 -0.0032957273 7.6743676e-21)
(0.086726362 -0.001059144 4.7548199e-23)
(0.088706596 -0.0083387105 3.357554e-21)
(0.088907729 -0.010263974 3.7016163e-20)
(0.084657675 -0.0057333513 -9.0559387e-20)
(0.084535167 -0.0068186408 -7.2649859e-20)
(0.090605812 -0.016565885 -8.2796298e-20)
(0.090106837 -0.02713406 -8.1588814e-20)
(0.08756521 -0.028837291 1.3470901e-20)
(0.092769057 -0.021853555 4.6553728e-20)
(0.089615451 -0.021936712 -5.1031892e-20)
(0.072162409 -0.031543114 -3.0486231e-20)
(0.089312288 0.00013442422 0)
(0.089991809 -8.8079532e-05 -4.7932624e-21)
(0.096862802 0.0009399461 8.6133986e-20)
(0.096237948 0.00024198515 1.4746995e-20)
(0.096323075 0.00036511166 8.233599e-21)
(0.096387857 0.00099415216 -2.2504062e-22)
(0.095916787 0.0011652456 1.4669359e-20)
(0.095758455 0.00083588325 1.5166843e-21)
(0.095336434 0.0011129983 -3.0117848e-20)
(0.094683874 0.00082390794 -3.8247358e-21)
(0.093749633 0.0022833496 -2.3636512e-20)
(0.093550936 0.0015827418 -5.1767031e-21)
(0.093218822 0.0012464672 -5.9029532e-21)
(0.092157039 0.0021410264 9.4572515e-23)
(0.092044893 0.001604076 -2.3879883e-20)
(0.091913706 -0.0003118666 -8.5097262e-22)
(0.090097163 0.0010952201 2.5827428e-20)
(0.090745145 0.00073654694 -5.9401051e-20)
(0.091827553 -0.0045354067 0)
(0.088407689 -0.0013791861 6.4359274e-20)
(0.088465354 -0.0013617909 0)
(0.090943114 -0.0083649916 -4.2242077e-20)
(0.088784005 -0.0081873001 -5.4256981e-20)
(0.085153508 -0.0058072523 1.6958867e-22)
(0.0877148 -0.010150056 -6.7213433e-20)
(0.095159898 -0.017857151 4.9439183e-20)
(0.093669695 -0.024199762 -3.0147037e-20)
(0.086711846 -0.025062807 1.5778491e-20)
(0.090680743 -0.018206496 -1.151744e-19)
(0.097244445 -0.017377804 -3.6706362e-20)
(0.085966735 -0.03056434 2.0897107e-19)
(0.088894026 0.0015626547 0)
(0.089625175 -0.00096066024 0)
(0.09570132 0.0026015024 -2.188056e-19)
(0.095464237 0.00093141734 -4.5455508e-20)
(0.0957579 -0.00042898343 -2.1036377e-20)
(0.095864184 0.0017389568 -1.2125055e-22)
(0.095753174 0.0013501177 5.1299594e-21)
(0.095674715 0.00031794553 6.0404916e-21)
(0.095248364 0.0012122071 0)
(0.094653041 0.0008438567 1.9846278e-20)
(0.09387837 0.0022136557 -2.383232e-21)
(0.093854872 0.0011043459 -1.1578909e-20)
(0.09331373 0.0015999282 0)
(0.092384448 0.0022186896 -3.3169931e-23)
(0.092544491 0.001224595 -1.853016e-21)
(0.092106232 0.00051255761 -4.3287935e-21)
(0.090214168 0.0012712218 1.1732255e-22)
(0.091677692 -0.00079768358 -3.330198e-21)
(0.092133484 -0.0034971228 -2.0950958e-20)
(0.08831975 -0.00027864988 0)
(0.090023461 -0.0028122394 0)
(0.092387328 -0.0084071152 3.090192e-20)
(0.089368857 -0.0069064623 5.7708373e-21)
(0.086608043 -0.0075102553 -5.0122655e-20)
(0.089401325 -0.014246257 -2.4834827e-20)
(0.096815099 -0.017859107 8.1342257e-21)
(0.09567295 -0.018488215 -7.6472236e-21)
(0.085955543 -0.020238691 -1.9875363e-20)
(0.087801597 -0.018333541 6.2833352e-20)
(0.10220522 -0.016702707 6.4369352e-21)
(0.10462994 -0.02613645 -4.2109046e-20)
(0.088533966 0.0020636066 0)
(0.08912493 -0.0012456487 -1.295171e-22)
(0.0947696 0.0030713638 -3.1683324e-21)
(0.094698664 0.0016579271 -2.3157479e-22)
(0.094878501 -0.00082150836 -9.2835417e-20)
(0.095071338 0.0018617356 -2.3088219e-20)
(0.095402862 0.0011721803 2.1137175e-20)
(0.095338309 9.6900787e-05 0)
(0.094973556 0.001126999 1.0299955e-22)
(0.094400474 0.0011868036 -1.9798213e-20)
(0.093873357 0.0016342862 -4.6510888e-20)
(0.093859512 0.00097684061 -7.3838353e-21)
(0.09319589 0.0020537874 -3.2857787e-22)
(0.09250703 0.0020982989 7.8882545e-21)
(0.092706497 0.00086034427 -5.3340618e-21)
(0.092130351 0.0013385019 -1.9016651e-21)
(0.090632287 0.0014908453 -2.4636391e-20)
(0.092314268 -0.0023464342 5.3306968e-24)
(0.091943585 -0.0020490872 1.2399284e-21)
(0.088572894 0.00045086933 1.4631889e-21)
(0.091333622 -0.0045887614 9.6742237e-21)
(0.092860446 -0.0080312047 -9.0347026e-22)
(0.089828699 -0.0052006982 7.0526048e-21)
(0.089041942 -0.0079128493 -9.3552749e-20)
(0.090917229 -0.017074566 0)
(0.095691153 -0.01786134 6.7673965e-21)
(0.095902002 -0.012698484 3.1500542e-20)
(0.087081475 -0.014205948 -7.9555069e-21)
(0.084768172 -0.019866132 5.4992783e-20)
(0.099992437 -0.019824809 5.1973652e-20)
(0.11551065 -0.021930932 -4.7080077e-20)
(0.088412045 0.0014595724 0)
(0.088853098 -0.00078627126 -1.4276888e-20)
(0.094313507 0.0021187618 8.0670539e-20)
(0.094218464 0.0019165108 -1.9930331e-20)
(0.094037252 -0.00054137211 -5.74398e-22)
(0.094226559 0.0013040314 -6.0822885e-20)
(0.094824869 0.00067133025 0)
(0.094763034 0.00036909966 7.0061291e-21)
(0.094488183 0.00087369219 -2.1138022e-20)
(0.093976717 0.0016587819 -3.2331111e-20)
(0.093632157 0.00091370107 -3.3686578e-20)
(0.093499317 0.0010209237 4.9034563e-24)
(0.092886516 0.0024002089 -2.2070604e-20)
(0.092520184 0.0018669736 -1.8743619e-20)
(0.092591686 0.00051799316 -4.2283339e-21)
(0.09193381 0.001813645 -1.796927e-20)
(0.091149155 0.0015674179 -5.336028e-20)
(0.092600789 -0.0033778367 2.0161788e-20)
(0.091397116 -0.00064454971 7.4588934e-20)
(0.089199473 0.00073102778 0)
(0.092470373 -0.0059934176 7.7898446e-21)
(0.092603003 -0.0073024676 -6.2073459e-21)
(0.090004657 -0.0035862339 -2.670105e-20)
(0.091987453 -0.0069045935 -4.5795445e-21)
(0.092957184 -0.01697428 0)
(0.09347082 -0.017018439 -1.5144386e-19)
(0.095069776 -0.0075665981 6.048708e-20)
(0.091071958 -0.0086602187 1.0932707e-19)
(0.086018267 -0.021512675 -1.1244335e-19)
(0.094421579 -0.027176961 -6.8468133e-20)
(0.11349427 -0.023029404 -8.7784886e-20)
(0.088464041 0.00019353663 -2.1480093e-19)
(0.08856186 0.0005336844 2.7371498e-22)
(0.094086828 0.00025173594 5.2213593e-24)
(0.093966142 0.0012797204 2.2335025e-20)
(0.09338444 0.00025241123 3.8429774e-20)
(0.093470594 0.000462948 -1.5607895e-22)
(0.094053039 0.00010887005 -2.3731982e-21)
(0.09388439 0.00094650936 -4.2747396e-23)
(0.093642294 0.00060639288 -3.1830977e-20)
(0.093261221 0.001754039 -4.3633466e-21)
(0.093028544 0.00059254622 -1.745689e-20)
(0.092684458 0.0010553652 -5.2998361e-21)
(0.092274215 0.0023625093 -1.8115505e-20)
(0.092275281 0.0015669233 -2.0057193e-20)
(0.092127385 0.00018441277 -5.4893293e-21)
(0.091400415 0.0018272798 6.4352221e-22)
(0.091511901 0.0013615721 -6.2448146e-20)
(0.092427547 -0.0034600197 3.9490268e-21)
(0.090557621 0.00041448758 4.1434565e-21)
(0.08994012 0.00045678809 0)
(0.093362081 -0.0065906401 4.2760242e-21)
(0.091848661 -0.0061466126 1.3153439e-19)
(0.089649305 -0.0025040391 5.2111272e-20)
(0.094498901 -0.0054056649 0)
(0.095472243 -0.013986852 6.6031453e-20)
(0.091184887 -0.015252254 1.019688e-19)
(0.092766745 -0.0061225531 -7.2187967e-20)
(0.096403012 -0.0053059477 1.9462968e-19)
(0.093222745 -0.019575504 1.1558257e-19)
(0.091362799 -0.032477684 3.4074723e-20)
(0.10172626 -0.027570827 -1.8852832e-19)
(0.089432869 -0.0012220804 4.1412474e-21)
(0.088476818 0.0021465931 -3.0083396e-20)
(0.093922492 -0.001518641 4.1859624e-23)
(0.093645991 8.916949e-05 -7.6622464e-20)
(0.092833509 0.0011079208 -1.8665862e-20)
(0.092838688 -0.00026904428 5.715937e-21)
(0.093063977 -0.00014868504 -1.5305912e-20)
(0.092751485 0.0013450542 -1.6960018e-23)
(0.09244199 0.0005042896 3.665833e-22)
(0.092147018 0.0013085196 1.7314437e-20)
(0.091922564 0.00074449807 1.1514286e-22)
(0.091387049 0.0010185861 -8.9730938e-22)
(0.091180442 0.0019393461 9.6872846e-22)
(0.091521083 0.0012336275 1.8178528e-23)
(0.091168371 0.00019425206 1.5898703e-21)
(0.090444305 0.001339745 -9.9564294e-22)
(0.091402444 0.00076052742 7.6677998e-22)
(0.091681637 -0.0027432852 2.5927942e-20)
(0.089468542 0.0012269776 0)
(0.090397933 -0.00047786322 -5.958454e-20)
(0.093636383 -0.0065595055 -9.5019641e-23)
(0.090715794 -0.0042315175 6.131056e-20)
(0.088662992 -0.0026681274 7.4774678e-21)
(0.095313967 -0.0053051038 1.9613675e-20)
(0.097115155 -0.0096470983 5.2405111e-20)
(0.089709657 -0.011626068 9.2319831e-21)
(0.089998909 -0.0075538831 7.5813819e-20)
(0.099784152 -0.0061859778 -6.0041655e-21)
(0.10334647 -0.016624874 3.6909235e-19)
(0.095941475 -0.031534554 -1.5295275e-19)
(0.091067494 -0.031917412 -5.1682817e-23)
(0.093098059 -0.0019705147 -1.2359475e-18)
(0.088348015 0.0034774681 0)
(0.093703172 -0.0022815624 2.6002381e-19)
(0.092943122 -0.00099066505 2.7108749e-20)
(0.092049763 0.0016481145 9.4290562e-20)
(0.091988025 -0.00049360553 1.7230203e-23)
(0.091760946 4.7205536e-05 -2.2476063e-20)
(0.091394206 0.0011859532 -4.8616394e-22)
(0.090989106 0.00049887541 2.9565611e-21)
(0.090589126 0.00057756002 5.4162344e-20)
(0.090311505 0.0010051898 2.8287788e-21)
(0.089685043 0.0010537592 -4.5192415e-22)
(0.089562047 0.0013462695 -1.3022079e-20)
(0.09010645 0.00077001351 -9.1354346e-21)
(0.089643267 0.00063976478 1.0106234e-20)
(0.088958805 0.00069652061 -8.9988195e-21)
(0.090476838 -0.00012330794 2.1424478e-20)
(0.090249405 -0.0014941425 2.863787e-20)
(0.088167378 0.001700949 9.6159096e-23)
(0.090464367 -0.0018324893 1.4979572e-21)
(0.092908564 -0.0057677497 -3.0422319e-21)
(0.089404145 -0.0018396298 5.6788794e-22)
(0.087770371 -0.0036557906 0)
(0.094537133 -0.007232944 1.1551277e-20)
(0.097559123 -0.0060720757 -1.2522955e-20)
(0.089886083 -0.0067613402 1.2453532e-19)
(0.087235255 -0.0099300259 8.032219e-21)
(0.09835016 -0.010610234 1.0303162e-19)
(0.10887404 -0.014022337 -4.6342441e-20)
(0.10375031 -0.023066362 2.9982772e-19)
(0.089912538 -0.029463731 7.1198549e-21)
(0.10000863 -0.0020070206 5.3666357e-19)
(0.089201995 0.0038699262 1.1480305e-23)
(0.094123411 -0.0017061415 4.6817789e-20)
(0.092765969 -0.0015975433 -1.8788562e-20)
(0.091707164 0.0016163006 1.2925996e-21)
(0.091433589 -0.00015515675 5.3149872e-23)
(0.090777498 0.00061812502 4.6350183e-20)
(0.09039718 0.00058143016 -2.1190224e-23)
(0.089846932 0.0005720377 -1.9161979e-20)
(0.089090805 -2.0273844e-05 -3.9131929e-21)
(0.088532624 0.00098712451 1.3602046e-20)
(0.087902566 0.0012585467 0)
(0.087773295 0.00089173896 -5.4655088e-22)
(0.08823735 0.00034535368 2.4767959e-22)
(0.087793977 0.0012779058 1.0716051e-20)
(0.087253531 0.00034015768 -1.5683275e-20)
(0.088805536 -0.00097010648 -2.8442392e-21)
(0.088187391 -5.8344515e-06 -4.4241271e-20)
(0.08678331 0.0016872302 2.2990884e-20)
(0.089790715 -0.0031816301 5.2756025e-20)
(0.09116975 -0.0044537721 -5.384399e-20)
(0.088335119 0.00059579122 -1.2815253e-21)
(0.087751241 -0.0044283872 5.228391e-21)
(0.092750378 -0.010167855 9.2125603e-21)
(0.096238328 -0.0047362038 -3.2655875e-21)
(0.091567448 -0.0029241621 -7.1207364e-20)
(0.087685751 -0.011510895 1.1171306e-19)
(0.095356979 -0.017082279 7.8430661e-20)
(0.10750582 -0.014328398 1.0798488e-19)
(0.10845336 -0.011581454 -1.5616653e-19)
(0.096449936 -0.017488433 1.0829114e-19)
(0.10753961 -0.00099291843 1.4490928e-18)
(0.091576985 0.0027493489 3.2448238e-22)
(0.095555617 -0.00027882145 4.0574371e-20)
(0.093460872 -0.0014278148 8.1044102e-20)
(0.092025267 0.00096956792 -7.5806594e-22)
(0.091616822 0.00049276307 0)
(0.090814773 0.0011436022 8.8865876e-21)
(0.090357945 -0.00010259416 7.0026386e-20)
(0.089733959 0.0007149799 2.9303736e-20)
(0.088870966 -8.6662396e-05 8.3714354e-21)
(0.08810137 0.00053645203 5.6873161e-23)
(0.087316401 0.0015258397 6.3884994e-23)
(0.087092818 0.00057473823 0)
(0.08708056 0.00014142157 -2.5329849e-20)
(0.08654304 0.0017631888 -6.8272522e-22)
(0.08613348 0.00030721386 -2.7731313e-22)
(0.08710114 -0.0014663946 -1.6428859e-20)
(0.086106672 0.0013335402 -5.8584095e-20)
(0.085649635 0.0013527102 5.5524971e-20)
(0.088623667 -0.0040088385 4.8304671e-20)
(0.088563598 -0.0032395414 -8.3194349e-20)
(0.087214492 0.0024445518 -8.3850759e-22)
(0.088719832 -0.0040071141 1.5593887e-19)
(0.090813288 -0.012183751 -5.408089e-21)
(0.092727695 -0.0052908258 2.2434114e-19)
(0.092973663 -0.00013410096 -5.6258849e-21)
(0.091425072 -0.010132212 -2.08035e-21)
(0.093373828 -0.021515595 -1.7850265e-20)
(0.10122408 -0.016428616 1.9236922e-19)
(0.10695304 -0.0047355701 1.3923587e-19)
(0.10412906 -0.0028860501 -2.9128782e-19)
(0.11288923 0.00029556164 -4.4799401e-20)
(0.095571296 0.00092037801 5.0333517e-22)
(0.098603298 0.0014283094 6.8071458e-20)
(0.096120753 -0.00020310347 2.2171691e-23)
(0.094113027 1.9458889e-05 -1.4698563e-22)
(0.093060185 0.0010240685 -1.4291936e-20)
(0.091973379 0.0013044919 -1.1573783e-20)
(0.091295959 -0.00035274569 -2.695347e-23)
(0.090465568 0.00078482699 2.097946e-20)
(0.089542279 0.00011377137 -8.6992906e-21)
(0.088521923 1.7710992e-05 1.7959438e-20)
(0.087672449 0.0016650336 1.0709336e-20)
(0.087486448 0.00051318675 0)
(0.087030384 0.00030845078 -1.4260598e-22)
(0.08654151 0.0020142236 1.0311736e-20)
(0.086340793 0.00051551612 -4.9036144e-22)
(0.086428758 -0.0014740146 1.3489699e-21)
(0.085037695 0.0020417295 -1.9452754e-22)
(0.08547863 0.0007084712 4.350394e-21)
(0.087894457 -0.003975483 -3.3172557e-22)
(0.085975178 -0.0021983742 8.8251867e-20)
(0.085901514 0.0028612155 -1.1143373e-20)
(0.090242836 -0.0030867611 1.6000768e-21)
(0.089909723 -0.011743471 2.3148358e-20)
(0.088353348 -0.0065582073 7.1363154e-20)
(0.092334185 0.00011687478 1.46095e-20)
(0.096173207 -0.0073944085 -1.7097439e-19)
(0.094226459 -0.020401442 1.3081192e-19)
(0.093279887 -0.018654207 5.0178365e-21)
(0.098787893 -0.004234396 -2.2998807e-19)
(0.10594585 0.0045602562 -8.0847907e-21)
(0.11128984 0.0017052855 9.2525059e-19)
(0.099061016 -0.0010141575 0)
(0.10248358 0.0023914224 -7.973186e-20)
(0.10027965 0.0014608369 -2.6473112e-20)
(0.098185278 -0.00063886408 1.378442e-19)
(0.097008216 0.0011566286 1.2053249e-20)
(0.095961467 0.00087612207 3.9218805e-22)
(0.094703812 2.7597829e-05 -1.3048724e-23)
(0.093476423 0.00071486464 -4.3351164e-21)
(0.092224109 0.00016149043 3.1759e-21)
(0.090602793 -0.00016176317 -1.864335e-20)
(0.089522095 0.0013793483 -8.4178158e-23)
(0.08913697 0.00046121921 -1.1629736e-20)
(0.088077788 0.0006036089 0)
(0.087466865 0.0018391718 2.112492e-20)
(0.087403272 0.00089858512 -4.3549044e-20)
(0.086636382 -0.00093581265 2.0382749e-20)
(0.085055806 0.0021920402 -3.198341e-20)
(0.086229043 -0.00034013473 -5.5969142e-22)
(0.087922812 -0.0033962134 2.2968903e-21)
(0.084338661 -0.0010270574 4.490039e-20)
(0.084870548 0.0015464439 -1.0920008e-21)
(0.091565196 -0.0029520506 -9.838387e-20)
(0.089877305 -0.0086289853 -7.6940031e-20)
(0.084646644 -0.0065580574 -7.8557491e-20)
(0.089862441 -0.0018161116 4.2677484e-20)
(0.098994497 -0.0053513606 8.0761097e-20)
(0.097400771 -0.013668571 2.5281056e-21)
(0.089084585 -0.017416045 -2.1924223e-20)
(0.089075989 -0.0089202877 1.0939658e-19)
(0.1006004 5.5359927e-05 -8.5542e-20)
(0.10410665 0.0021240897 -5.3525378e-19)
(0.099570138 -0.0019738677 3.196821e-21)
(0.10424244 0.0020725307 -4.5938204e-22)
(0.10325593 0.0024529727 3.6065565e-22)
(0.10220738 -0.00088117343 2.3990101e-24)
(0.10159001 0.00088471392 -7.8511907e-20)
(0.10124223 0.00012248589 1.0536188e-19)
(0.10020131 0.00074711813 -4.91977e-23)
(0.099024112 0.00044752758 6.6906899e-23)
(0.097566193 -3.4058197e-05 -1.7076303e-20)
(0.095399151 0.00021891934 5.2862455e-23)
(0.094054257 0.0009749419 -4.4498457e-21)
(0.093280072 0.00056952355 -6.6909727e-23)
(0.091625288 0.0010383061 -5.5329195e-22)
(0.090623296 0.0010273343 0)
(0.090147464 0.00082988048 0)
(0.088367413 -0.00015572723 -1.7430578e-20)
(0.086612759 0.0019569592 9.4370137e-22)
(0.087978454 -0.0016069623 -4.3348121e-20)
(0.088668953 -0.0023897557 5.4494991e-21)
(0.084312354 0.00030649839 1.2303095e-20)
(0.084813544 -0.0010365451 8.8063418e-21)
(0.091951853 -0.0039796888 0)
(0.090198956 -0.0039517012 0)
(0.082922701 -0.0041457945 0)
(0.086782551 -0.0047785357 -2.3876854e-21)
(0.097806141 -0.0053790345 -2.3479297e-21)
(0.099543938 -0.0056508552 -3.2489513e-20)
(0.089348973 -0.0095081411 -3.4485004e-20)
(0.082804635 -0.011841717 1.158159e-21)
(0.091548664 -0.010156721 4.0206809e-20)
(0.096047247 0.001814298 -2.4892452e-19)
(0.096683409 -0.0017330855 3.3329002e-22)
(0.10249684 0.00069285956 -3.5881174e-23)
(0.10262723 0.0023444332 -7.1759468e-20)
(0.10218849 -0.00057067755 0)
(0.10211292 0.00049453289 4.0066163e-23)
(0.10231288 -0.00038099145 1.316266e-20)
(0.10183252 0.0014444905 8.0018655e-20)
(0.10147708 0.00020089164 -2.3170626e-24)
(0.10072599 -0.00036077975 2.8617466e-20)
(0.099225043 0.00051810352 -1.2701693e-20)
(0.098419005 0.00021056616 0)
(0.097867517 0.00056454846 -2.8197786e-20)
(0.096356305 0.001410671 1.3690909e-20)
(0.095439926 9.1843074e-05 -1.0902485e-20)
(0.095129396 0.0006382489 3.4408449e-22)
(0.092782568 0.00062442312 -9.2986451e-21)
(0.090834737 0.0013736507 -1.0854939e-21)
(0.09160365 -0.0026369538 -1.3532644e-20)
(0.09106743 -0.0007797138 6.0483095e-21)
(0.086930469 0.0019032206 -3.527779e-22)
(0.086978014 -0.0034177552 5.4191858e-20)
(0.092594304 -0.0054824057 -4.5755494e-20)
(0.09134622 0.00027181817 0)
(0.084543 6.2026489e-05 -1.0045522e-20)
(0.085937321 -0.0073903765 3.2036456e-21)
(0.094884862 -0.0077601559 1.2767611e-19)
(0.099285211 -0.0012215561 -4.0654899e-20)
(0.093484593 0.0012399611 -1.0702833e-19)
(0.085013465 -0.007820388 -9.7706434e-20)
(0.086612804 -0.01694125 -8.4099097e-21)
(0.092854031 5.9264211e-05 3.1817852e-19)
(0.092949312 -0.00026232016 -4.982536e-20)
(0.098663304 -0.00069172593 4.5975156e-22)
(0.099592849 0.0011444495 6.0787343e-20)
(0.099776765 6.1794904e-05 -6.064919e-21)
(0.10009678 0.00016318898 1.2847899e-23)
(0.10072801 -0.00028807343 3.7007415e-20)
(0.10069264 0.001320576 -3.6126298e-20)
(0.10077404 8.1496927e-05 -1.5426587e-22)
(0.10008487 -0.00013983825 8.2056877e-23)
(0.098964246 0.0010032008 1.4788422e-20)
(0.098464455 -0.00026093071 1.8224201e-22)
(0.098165187 0.00064970458 9.7068181e-24)
(0.097442228 0.0013319692 -1.4951183e-22)
(0.09697527 -0.00070143111 2.1441327e-20)
(0.097083127 -4.457925e-05 1.9520722e-23)
(0.095708069 0.00097322234 1.3701247e-20)
(0.094943521 0.00032407096 -2.3495595e-21)
(0.095524779 -0.0035297931 -1.5001136e-21)
(0.094396747 6.538073e-05 0)
(0.091960052 0.0030831109 5.2979136e-20)
(0.091997308 -0.0049476631 1.7386747e-21)
(0.094506306 -0.0071353452 -1.3668612e-19)
(0.093443449 0.0025914786 5.1299778e-21)
(0.090114985 0.0043351737 4.5080142e-20)
(0.090052761 -0.0074015722 -2.0714012e-19)
(0.093400436 -0.011213482 -6.0251211e-20)
(0.096467164 -0.0011256384 -3.4751932e-22)
(0.097041404 0.0069543421 8.0281196e-21)
(0.094048197 -0.00078805297 1.3452757e-19)
(0.090900375 -0.017158637 8.2715459e-22)
(0.09363395 -0.0015765924 -3.0095085e-19)
(0.092692297 0.0018129603 1.7376527e-22)
(0.097874061 -0.0013946659 1.1485938e-19)
(0.097898059 -0.00054524939 9.119965e-23)
(0.097506278 0.0010744711 1.0402402e-21)
(0.097479686 0.00030331791 7.8580404e-21)
(0.097590932 0.00054157418 0)
(0.097652687 0.00094874508 -1.1590568e-22)
(0.097963833 -0.00010005921 3.0460925e-23)
(0.097368632 -0.0004750884 6.3754347e-20)
(0.096752074 0.0003354399 -1.2827281e-23)
(0.096635079 -0.00066145832 6.5275164e-23)
(0.0965319 0.00072934403 4.2871311e-20)
(0.096518911 0.0013080049 -2.4787599e-20)
(0.096291361 -0.00060798899 -4.3734961e-20)
(0.096246548 -0.000209362 3.7300452e-22)
(0.095406602 0.0014239557 -2.2863373e-22)
(0.095723741 -3.0462526e-05 6.790826e-22)
(0.096013049 -0.0031275842 0)
(0.094535622 0.00072883771 -1.0465237e-19)
(0.094876788 0.0036639196 4.6471846e-20)
(0.096284465 -0.0045596905 -6.9104482e-20)
(0.095591915 -0.0077787677 -4.5068088e-20)
(0.093928872 0.002416443 1.2835217e-22)
(0.095633534 0.0052564513 1.9931491e-20)
(0.097517507 -0.005840668 1.0455505e-19)
(0.095183887 -0.01327266 -1.6850044e-20)
(0.093709532 -0.0044646653 9.5175581e-20)
(0.097980335 0.0054518225 -5.7364966e-20)
(0.10353187 0.0037910997 6.3749117e-20)
(0.10193968 -0.010562883 7.9690105e-21)
(0.097911156 -0.0025252179 -5.4755437e-19)
(0.095394724 0.0032062276 -2.8130878e-23)
(0.10013517 -0.0013727704 1.7869001e-21)
(0.099393045 -0.0020444715 2.369436e-20)
(0.098474238 0.0015164498 -1.3578863e-21)
(0.098115225 0.00044385602 2.6502692e-20)
(0.097650179 0.0015262886 0)
(0.097340776 -3.0674367e-05 0)
(0.097007661 0.00056788197 -8.3988487e-21)
(0.095806959 0.00012657302 0)
(0.094552338 0.00018542453 -1.0585524e-20)
(0.094035953 -0.00037322812 2.6441783e-20)
(0.09383169 0.00041248257 0)
(0.094316706 0.00070172848 -4.5927675e-20)
(0.09432139 -0.00075769554 -3.8654172e-20)
(0.094117113 -0.00092034445 2.8731843e-20)
(0.093793461 0.00079122825 9.57219e-22)
(0.095004017 -0.00091020856 -2.6493564e-21)
(0.094872935 -0.0024352106 -8.4235422e-21)
(0.092849238 0.0003296409 -6.8170715e-20)
(0.095213539 0.0023933585 -2.2887194e-20)
(0.09832581 -0.0031707366 -8.5078967e-22)
(0.095131419 -0.0060001478 1.420681e-20)
(0.092223879 0.00077863456 -6.4337664e-20)
(0.097927435 0.003214329 2.6994057e-20)
(0.10352164 -0.0036346504 2.2193328e-19)
(0.098509809 -0.010516512 -1.5210219e-20)
(0.091656844 -0.0077968147 -6.3620276e-21)
(0.095651972 -0.00042600686 1.7627208e-19)
(0.10714874 0.0011178932 3.3263001e-20)
(0.11193144 -0.0046888643 -1.3293333e-19)
(0.10339564 -0.0027636523 5.2604001e-19)
(0.099675227 0.0034144075 -1.5895023e-22)
(0.10432899 -0.00058078184 -6.3914102e-21)
(0.10298575 -0.0020915703 -6.4506724e-20)
(0.10156623 0.0015621187 1.3269127e-19)
(0.1009025 0.00095813331 1.3340414e-22)
(0.099852609 0.0021669424 -1.9556681e-23)
(0.098635431 -0.00014939607 6.3480373e-20)
(0.097904968 -0.00018992735 5.2578376e-20)
(0.096084555 -0.001090127 -5.7440716e-21)
(0.094805019 -0.00063019021 -5.757864e-22)
(0.093537256 0.00043110132 -5.9733906e-22)
(0.092664083 0.00050437171 -1.3447569e-20)
(0.093039483 0.00070679658 -1.2186793e-20)
(0.092967803 0.00021476664 -1.8066177e-20)
(0.09226747 -0.00032971563 7.1068207e-21)
(0.092003868 0.00088461203 3.9006598e-22)
(0.093508102 -0.00098080862 -1.7416109e-20)
(0.093047741 -0.00049103218 -5.7982313e-21)
(0.090559663 0.00039886351 1.2037463e-20)
(0.093611775 0.00027715548 -8.1311821e-21)
(0.097901867 -0.0018888662 1.3133611e-20)
(0.093942009 -0.0022554759 -5.8066601e-20)
(0.089548307 -0.00080361335 1.8153478e-22)
(0.096085302 -0.0010256833 1.3161925e-20)
(0.10470639 -0.0036783759 -2.3366535e-20)
(0.10120173 -0.0045168309 -2.3921388e-21)
(0.091643904 -0.006248771 6.8618106e-20)
(0.092778101 -0.0061085383 -6.2749256e-20)
(0.10513735 -0.005387298 5.7821293e-20)
(0.11453267 -0.0040197606 5.9628305e-20)
(0.10680478 -0.0011094707 4.8516219e-19)
(0.1016517 0.0021604131 -1.1967829e-22)
(0.10662175 0.00028234691 9.2239459e-23)
(0.10517648 -0.00092641175 -3.6519312e-22)
(0.10382294 0.00051685603 -2.5158892e-20)
(0.10294949 0.00075257213 -6.1045161e-21)
(0.10147075 0.0014187688 -9.2299597e-21)
(0.099972217 -0.00054960655 -2.8165025e-20)
(0.098250511 0.0013962416 1.5405927e-20)
(0.096396883 -0.00070649215 1.5090783e-22)
(0.094174553 -0.0011022109 -3.4469652e-21)
(0.092977677 0.00020504499 1.4916977e-20)
(0.092290752 -0.00036040788 -1.7530901e-22)
(0.092557664 -0.00061699455 -1.0335497e-20)
(0.092536625 0.000165621 -8.4711184e-23)
(0.091681211 -0.00041300098 1.0730934e-20)
(0.091386083 -2.4513684e-05 1.8821017e-20)
(0.09266929 -0.0018626648 0)
(0.092133281 0.00086258345 -3.4514256e-22)
(0.089767809 0.00016882091 6.9576042e-22)
(0.092298764 -0.0030449541 -8.5882992e-21)
(0.096546889 -0.0019081821 -3.0663749e-20)
(0.093447704 0.0015626009 5.0442646e-21)
(0.088925809 -0.00056138576 -4.7102013e-20)
(0.094134784 -0.0060520822 6.2150087e-21)
(0.10234604 -0.0055351857 -4.9181904e-20)
(0.1013037 0.00077279945 -1.855043e-20)
(0.093450601 0.00021422872 -9.5454463e-20)
(0.091599858 -0.0077114948 1.0472567e-19)
(0.10060025 -0.011048085 -9.5098378e-20)
(0.11066937 -0.006192937 -2.5666685e-19)
(0.1102082 0.00041474951 -1.0951146e-19)
(0.10154524 0.00027228425 -1.042398e-20)
(0.10635105 0.00095369284 5.2849921e-20)
(0.10469942 0.0011878657 1.9289383e-21)
(0.10326305 -0.00018592233 4.3204628e-22)
(0.10205243 0.00073330476 3.712948e-23)
(0.10096798 1.8255129e-06 -7.3221277e-23)
(0.098595855 0.00036161857 -4.9722168e-21)
(0.097977042 -0.00070853211 -1.7008751e-20)
(0.096333934 -0.0025597099 -2.0492346e-20)
(0.094483407 -0.0006199636 -3.1444868e-21)
(0.093012808 0.0010387341 -2.1005457e-22)
(0.092492761 0.00061700174 2.1651031e-20)
(0.092493522 -0.00050215208 6.7637366e-23)
(0.092505528 0.001264969 -5.9083832e-20)
(0.091848203 0.00090723297 -1.7259737e-20)
(0.091628203 0.00033514258 -4.5812404e-22)
(0.092335475 -0.0015950355 5.9963005e-23)
(0.091996009 0.0026211226 -5.1241586e-20)
(0.090783148 0.0011924906 1.1099732e-19)
(0.092151545 -0.0046450312 -3.9921889e-21)
(0.095023273 -0.0014205648 1.3130081e-19)
(0.093749491 0.0050256071 5.8292336e-21)
(0.091258062 0.0018185675 -1.6359612e-19)
(0.094239395 -0.0081267767 1.8464704e-20)
(0.099266889 -0.0062757003 -7.9975978e-20)
(0.099862009 0.0042022993 -2.5489679e-19)
(0.097383637 0.0076346315 -6.1693374e-20)
(0.095878192 -0.0036278344 -9.5255666e-20)
(0.098530505 -0.012667544 5.1442261e-22)
(0.1039915 -0.0081001052 3.7536688e-20)
(0.1088403 0.0026904218 1.1750943e-18)
(0.099267029 -0.0016318054 4.132787e-22)
(0.10407429 0.00082638129 3.0036814e-22)
(0.10254504 0.002796487 -1.1534228e-22)
(0.10120898 -0.0013737023 -9.7901568e-22)
(0.10046269 0.00010210573 1.0580387e-22)
(0.099752351 -0.0014326783 9.4792879e-23)
(0.099406996 0.00040206292 -3.1351888e-23)
(0.098765416 0.0024619707 2.1294593e-24)
(0.09662893 -0.0030622635 -2.0452328e-22)
(0.09413428 -0.0019816241 7.4081011e-23)
(0.094097844 -0.00056128391 -7.2296379e-20)
(0.094073401 -0.0002584058 -5.3159962e-20)
(0.093797598 -0.0017090753 -1.3653222e-23)
(0.093682916 0.00061837529 3.360996e-22)
(0.093331335 0.00077748527 1.7594807e-22)
(0.093263657 -0.0002033965 6.9077459e-22)
(0.093080668 -0.0021146509 -1.0068567e-21)
(0.092739786 0.0025169059 6.4235704e-20)
(0.093288883 0.0012312576 -1.1277015e-19)
(0.093539806 -0.0054500311 -5.3780583e-20)
(0.093918974 -0.0023788059 -9.9862888e-22)
(0.094084618 0.0054338248 3.0052345e-23)
(0.095091683 0.0029803994 2.2244392e-21)
(0.096668331 -0.0075739679 5.8021819e-20)
(0.096494547 -0.0075466386 6.0281405e-20)
(0.096273997 0.0041603748 4.317229e-21)
(0.099320223 0.01028502 -2.1754208e-20)
(0.10224594 0.0014476101 -9.4459993e-20)
(0.10108952 -0.0099781534 1.5064226e-19)
(0.099507666 -0.0091092389 3.116999e-20)
(0.098470337 0.0022741187 1.5891706e-20)
(0.096817025 -0.0015988245 -5.6152759e-20)
(0.10091422 0.00043129667 -5.4711165e-21)
(0.10108639 0.0031856249 3.2613323e-20)
(0.099819691 -0.0011857369 1.4859065e-19)
(0.10046153 0.00021139803 1.0363154e-20)
(0.099700283 -0.001761172 2.251569e-20)
(0.099542916 0.0015632958 5.7437519e-23)
(0.10037533 -0.0016309175 2.4983337e-20)
(0.09910552 -0.0031615868 -1.4872681e-20)
(0.096121594 0.00039327018 1.4721809e-20)
(0.096108512 0.00057300197 -2.1848055e-22)
(0.096793603 0.00091043763 -5.7775099e-20)
(0.096666038 -0.00069941636 -2.9509072e-20)
(0.096641243 0.0010663621 -3.2850239e-23)
(0.096889849 0.0014668907 -2.4915711e-21)
(0.097389764 0.00054325692 -2.7606184e-22)
(0.096495837 -0.0012140967 -1.2222061e-20)
(0.096072289 0.0022015731 -6.9453828e-22)
(0.098433747 0.0016618096 -6.9901878e-20)
(0.098253635 -0.0034618703 7.2057692e-20)
(0.095986867 -0.002438387 9.2029913e-22)
(0.096664515 0.0041969357 -4.5586575e-21)
(0.10114411 0.0034429147 1.0199375e-19)
(0.10314695 -0.0038330215 -6.7254778e-21)
(0.098446182 -0.0061226347 -2.1033069e-21)
(0.095468807 0.0021613853 3.5368974e-19)
(0.1019708 0.0082758275 0)
(0.11037555 0.0044050695 4.6574792e-20)
(0.10892467 -0.0041066958 2.3417627e-19)
(0.10174272 -0.0058754461 6.5952108e-21)
(0.10007634 0.0011617997 -1.8889335e-19)
(0.10275954 8.3277899e-05 0)
(0.085301285 -0.00010615341 -8.6324289e-24)
(0.11423872 0.0010683002 2.8081123e-21)
(0.080539927 -0.00078029749 1.361399e-20)
(0.11808251 0.0002779035 2.0416771e-22)
(0.073362584 -0.00069979082 -2.8927624e-21)
(0.12185174 0.00011554096 -1.1985851e-20)
(0.069869977 0.0031727052 6.0109946e-21)
(0.11246969 -0.0051303498 -1.8118459e-21)
(0.1119612 -0.0024487903 -1.2204537e-22)
(0.11658015 -0.00094990652 1.0022158e-20)
(0.11762138 -0.00039959379 9.5902441e-21)
(0.11659712 -0.00056117129 1.5702001e-21)
(0.1165339 -6.6858068e-05 -1.3869774e-20)
(0.11665035 8.7147946e-05 -1.4411462e-21)
(0.11681207 -5.3935645e-05 -1.1825894e-20)
(0.114407 -0.00042281557 6.8035155e-21)
(0.11401425 0.00028921322 -4.0072491e-20)
(0.11669157 0.0003257993 3.8690126e-22)
(0.11571157 -0.00077912467 4.8271818e-20)
(0.11145518 -0.0007390725 7.0173743e-21)
(0.11244226 0.00056350145 8.4354798e-21)
(0.11824892 0.00068937341 -1.3371467e-20)
(0.1202098 -0.00069391503 -3.7413658e-20)
(0.11283557 -0.0016218504 3.4377036e-20)
(0.10742568 -0.0001622373 -5.7027599e-21)