/*--------------------------------*- C++ -*----------------------------------*\
| =========                 |                                                 |
| \\      /  F ield         | OpenFOAM: The Open Source CFD Toolbox           |
|  \\    /   O peration     | Version:  2406                                  |
|   \\  /    A nd           | Website:  www.openfoam.com                      |
|    \\/     M anipulation  |                                                 |
\*---------------------------------------------------------------------------*/
FoamFile
{
    version     2.0;
    format      ascii;
    arch        "LSB;label=32;scalar=64";
    class       volVectorField;
    location    "155";
    object      U_0;
}
// * * * * * * * * * * * * * * * * * * * * * * * * * * * * * * * * * * * * * //

dimensions      [0 1 -1 0 0 0 0];

internalField   nonuniform List<vector> 
20580
(
(0.090297892 -0.0014896769 9.0061339e-22)
(0.090578823 0.00083229681 -1.3404426e-20)
(0.098367431 -0.00067575356 1.6082997e-21)
(0.097133619 -0.00022118996 -3.434861e-21)
(0.096226656 0.0013777108 -9.4881749e-24)
(0.097101772 1.138914e-05 6.4633507e-21)
(0.096263346 0.00080833222 1.7210434e-21)
(0.095405478 0.0014384191 -4.2696904e-21)
(0.095308064 0.0010511622 -9.9090627e-21)
(0.094341798 0.0010893284 0)
(0.093859577 0.0015865733 5.3798074e-21)
(0.092684563 0.0025685474 -4.8232788e-20)
(0.093086324 0.00093861945 -2.9215164e-21)
(0.092064573 0.0015752916 -6.2974016e-21)
(0.091242324 0.0020820823 1.2948842e-20)
(0.091506859 -0.00067942917 1.9020551e-20)
(0.090613652 -0.00047261745 -9.4065624e-20)
(0.088987383 0.0022405651 -1.4652224e-21)
(0.090634753 -0.0045664914 5.4733738e-20)
(0.089449479 -0.004489233 6.290042e-21)
(0.086731868 -0.0010678516 -1.0727155e-22)
(0.088329524 -0.0077058902 3.9277693e-21)
(0.089511271 -0.011362594 2.9621538e-20)
(0.085516574 -0.0071172606 -1.1733873e-19)
(0.083855845 -0.0060819155 -2.7972628e-20)
(0.089616078 -0.014230583 -8.7543845e-20)
(0.090458153 -0.0256971 -7.1131772e-20)
(0.087459969 -0.030331706 8.1688521e-21)
(0.092653428 -0.024152691 4.2772594e-20)
(0.092588971 -0.021744987 -7.5571561e-20)
(0.074841867 -0.028942134 -5.9015954e-20)
(0.089442679 0.00021053077 0)
(0.089908697 -6.4660658e-05 2.5955185e-20)
(0.096916103 0.0004912388 1.0640723e-19)
(0.096277215 0.0001790649 5.187224e-21)
(0.096342159 0.0004229832 1.3404027e-20)
(0.0964189 0.00088673632 -3.6736306e-23)
(0.095940522 0.0011503444 -3.0782742e-20)
(0.095790477 0.00082307225 -1.6202348e-21)
(0.095310533 0.0013739946 -2.4948658e-20)
(0.09471576 0.00086662324 -8.6013333e-21)
(0.093769649 0.0021156016 -4.0023776e-20)
(0.093507448 0.0016781313 -9.4795483e-21)
(0.09326273 0.001303765 -7.1427632e-21)
(0.092190405 0.0019142167 -3.8644349e-24)
(0.091944756 0.0018056645 -1.9323658e-20)
(0.092038697 -0.00026984093 -6.9083663e-22)
(0.090249576 0.00058467224 2.7142563e-20)
(0.090354398 0.0013492132 -4.206572e-20)
(0.091999489 -0.0044154031 0)
(0.088907899 -0.0022909827 6.6471139e-20)
(0.088052492 -0.00084533968 0)
(0.090749352 -0.007759877 -5.2486811e-20)
(0.089517134 -0.0090360184 -4.781748e-20)
(0.085379463 -0.0061347714 6.6749862e-22)
(0.086345917 -0.0089950809 -5.1860208e-20)
(0.094202592 -0.016490473 3.8183867e-20)
(0.095154752 -0.02385975 -3.9249439e-20)
(0.087749965 -0.026773569 -1.4783775e-20)
(0.089631858 -0.020454571 -1.3579702e-19)
(0.097610993 -0.016245565 -1.3553205e-20)
(0.089379413 -0.026761016 2.1227824e-19)
(0.08898342 0.0022000866 0)
(0.089587834 -0.00098737552 0)
(0.095774025 0.0019159715 -3.6592838e-19)
(0.095479063 0.00083534339 -4.5006662e-20)
(0.095788924 -0.00050150121 3.6177871e-21)
(0.095891961 0.0016963212 -1.4767727e-22)
(0.095777641 0.0012858711 4.0363085e-20)
(0.095681218 0.00030750243 -5.7883759e-21)
(0.09522568 0.0014532248 0)
(0.094731101 0.00077673255 -2.1473872e-21)
(0.093884674 0.0021913807 8.4941698e-21)
(0.093798031 0.001096433 4.0051016e-21)
(0.093387002 0.00160576 0)
(0.09240614 0.0020993888 1.9975365e-22)
(0.092424722 0.0013015712 -2.8064068e-21)
(0.092299433 0.00042051507 -3.5406422e-21)
(0.090269839 0.0011102472 1.4111611e-21)
(0.091245499 -0.00022187558 -3.6475327e-21)
(0.092493746 -0.0037659575 -4.7810655e-21)
(0.088698013 -0.00075365571 0)
(0.089391905 -0.0019593141 0)
(0.092378962 -0.0079783382 4.6859826e-20)
(0.090124259 -0.0074858222 6.6360033e-21)
(0.086621131 -0.0068822759 -4.0361479e-20)
(0.088033073 -0.01321282 -2.2213499e-20)
(0.095873149 -0.017974375 1.328784e-20)
(0.097567298 -0.019245689 -5.556734e-21)
(0.087881198 -0.021314644 -2.6022633e-20)
(0.086196057 -0.019902873 6.3456287e-20)
(0.099816836 -0.016076679 3.4817627e-20)
(0.10711568 -0.022699607 -2.8874247e-20)
(0.08855885 0.0030226235 0)
(0.08915135 -0.0012507106 -1.2270696e-22)
(0.094831117 0.0024522319 -6.4730152e-21)
(0.094688088 0.0015548549 -9.3316799e-22)
(0.09491287 -0.0010168613 -1.6912123e-20)
(0.09508874 0.0019361413 6.4400531e-21)
(0.095429946 0.001074098 4.8564527e-20)
(0.095322552 0.00011679819 0)
(0.094979995 0.0011629067 4.426887e-23)
(0.094493033 0.00098226904 -1.5089057e-20)
(0.093864679 0.0017836 -3.2806411e-20)
(0.093816316 0.0009300288 -2.3140269e-21)
(0.093278385 0.0018790357 -3.3929375e-22)
(0.092510268 0.0021866398 4.893927e-21)
(0.09260125 0.00086468652 -2.0986828e-21)
(0.092326409 0.0010862441 -1.6353726e-21)
(0.090596221 0.0016758741 -1.440108e-20)
(0.091946171 -0.0018623036 -6.6037968e-23)
(0.092404559 -0.0027548962 1.0493689e-21)
(0.088743295 0.00043615956 3.821225e-21)
(0.090641664 -0.0035604124 9.8230645e-21)
(0.093043689 -0.0081239689 8.9176979e-21)
(0.090387902 -0.0056576652 7.5842093e-21)
(0.088900911 -0.0065767441 -9.065032e-20)
(0.090115846 -0.016034695 0)
(0.095025727 -0.019348894 1.0116763e-20)
(0.097405796 -0.014487343 4.2529588e-20)
(0.089344262 -0.014390033 1.9043538e-21)
(0.083616153 -0.019842599 2.1459442e-20)
(0.095986168 -0.020152502 6.1875104e-20)
(0.1148701 -0.021076169 8.7240576e-21)
(0.088368784 0.0023452909 0)
(0.088936471 -0.00072099017 5.5587551e-20)
(0.094345225 0.0018530437 2.7206203e-19)
(0.09419413 0.0018589727 7.518182e-20)
(0.094056348 -0.0007631331 -1.8166044e-22)
(0.094230763 0.0014649141 -2.6583204e-20)
(0.094852779 0.00062110379 0)
(0.094743803 0.00046336403 1.4744337e-20)
(0.094534421 0.00067814914 -1.9028972e-20)
(0.094038963 0.0014560219 -4.3160509e-20)
(0.093606469 0.0011266389 -4.5001347e-20)
(0.093496717 0.0010248206 -1.046629e-23)
(0.092949946 0.0020782014 -2.5830042e-20)
(0.092492604 0.0021179368 -1.6230662e-20)
(0.092544507 0.00048441199 -1.6660956e-21)
(0.092084321 0.0014408628 -2.197938e-20)
(0.091021292 0.0020194984 -3.9444834e-20)
(0.092404054 -0.0030430916 4.4348223e-20)
(0.09186948 -0.0016436947 7.7429402e-20)
(0.089099283 0.0010930473 0)
(0.09188367 -0.0050264664 8.8346508e-21)
(0.093014721 -0.0079320257 -4.3191408e-21)
(0.090213488 -0.004123007 -3.820382e-20)
(0.091626539 -0.0055293771 -4.7294735e-21)
(0.092986121 -0.01588191 0)
(0.093438214 -0.019060489 -1.1347718e-19)
(0.095628365 -0.0099559941 7.725452e-20)
(0.092761118 -0.0079284786 6.6782572e-20)
(0.085992305 -0.019426181 -1.4075243e-19)
(0.090878453 -0.02773721 -4.8828479e-20)
(0.11020828 -0.025034554 -1.0265791e-19)
(0.088384122 0.00054805319 -1.4828153e-19)
(0.088674 0.00063973991 7.0943698e-22)
(0.094084263 0.00047557043 -2.9110548e-24)
(0.093942338 0.0013310553 -8.5177878e-21)
(0.093378597 0.00015189185 2.5399438e-20)
(0.093466694 0.00061775014 -1.517742e-22)
(0.094076316 0.0001288229 1.0372358e-20)
(0.093882556 0.00111237 -3.4090382e-23)
(0.093712362 0.00031920054 -2.4125721e-20)
(0.093268595 0.001718717 3.0689022e-20)
(0.092994407 0.00073699517 -3.5300661e-20)
(0.09273424 0.0010893702 -4.4290684e-21)
(0.09230214 0.002098351 -2.244693e-20)
(0.092219224 0.0018496477 -1.808441e-20)
(0.092159895 0.0001259703 6.2675612e-22)
(0.091472141 0.0014511675 8.2218078e-22)
(0.091304966 0.0019264862 -4.7307172e-20)
(0.092459853 -0.0033646878 2.8711335e-20)
(0.090970475 -0.00059114349 4.5701425e-21)
(0.089576655 0.0011070147 0)
(0.092988924 -0.0059551618 6.4875916e-21)
(0.092524442 -0.0071494905 9.9323022e-20)
(0.089534765 -0.0032320035 6.9344874e-20)
(0.093771533 -0.0044998822 0)
(0.096190906 -0.013090103 8.810702e-20)
(0.092022628 -0.016935739 6.5131743e-20)
(0.092402911 -0.0083938934 -8.6116885e-20)
(0.096422928 -0.0040899995 7.572707e-20)
(0.09409626 -0.015961749 1.1777822e-19)
(0.090373168 -0.03172644 4.9840432e-20)
(0.098190244 -0.031306459 -1.7295459e-19)
(0.089369446 -0.0015417899 1.5340642e-21)
(0.088567129 0.0022173897 -2.6507625e-21)
(0.09390079 -0.00093858445 -3.5566844e-23)
(0.09363693 0.00023986049 -8.1063136e-20)
(0.09281391 0.0011840648 -1.8046496e-21)
(0.092836849 -0.00019548125 4.4561154e-20)
(0.093073018 -3.0219798e-05 -4.9814739e-20)
(0.092777441 0.0015006095 -2.1824314e-23)
(0.092510001 0.00028919118 4.5474669e-22)
(0.092115518 0.0014555104 9.0574578e-21)
(0.091897748 0.00076771691 1.8681622e-22)
(0.091466197 0.00097579868 -1.0389858e-21)
(0.091164741 0.0019138842 4.3848013e-21)
(0.091460666 0.0014416076 2.7639876e-23)
(0.091268507 0.00016906921 -4.8877914e-21)
(0.090430508 0.0011002086 -2.7868489e-22)
(0.091163711 0.0012531051 7.0796859e-22)
(0.09191864 -0.0029165124 -1.4537918e-20)
(0.08976049 0.00047715201 0)
(0.089858516 0.00031358066 -4.6374687e-20)
(0.093545772 -0.0063661527 -3.2440441e-21)
(0.091607373 -0.0053571731 5.4757867e-20)
(0.088338962 -0.0032157458 2.7970356e-21)
(0.094198071 -0.0050151628 2.3347851e-20)
(0.098123665 -0.0093818736 4.010179e-20)
(0.091295917 -0.012404006 1.1810937e-20)
(0.089107127 -0.0088991105 4.3455035e-20)
(0.097983346 -0.0051488162 -6.0321393e-21)
(0.10397246 -0.013167921 3.1324377e-19)
(0.09792392 -0.029199182 -2.198777e-19)
(0.090630521 -0.034718162 6.5679285e-21)
(0.093094322 -0.002719806 -5.8140159e-19)
(0.088386533 0.0034560676 0)
(0.093681007 -0.0016731617 5.0088386e-19)
(0.0929591 -0.0008414878 7.8831583e-20)
(0.09202939 0.00186681 3.1367681e-20)
(0.091989291 -0.00053259435 -2.5674469e-24)
(0.091756265 0.00025297593 -3.0976495e-20)
(0.091451997 0.0012186365 -5.0628304e-22)
(0.091034474 0.00046320554 6.1698226e-22)
(0.09054884 0.00077439069 5.8165496e-20)
(0.090312444 0.00099759361 -6.4853686e-21)
(0.08975722 0.00089548379 -5.7274486e-22)
(0.089511363 0.0015258958 -1.2127417e-20)
(0.09005895 0.00085236362 -1.0470543e-20)
(0.089774668 0.00068027688 1.2934013e-20)
(0.088892524 0.00065906305 -5.9642884e-21)
(0.090258014 0.0001772173 1.8597115e-20)
(0.090616792 -0.0018794429 1.647007e-20)
(0.088307581 0.0013785072 2.72346e-22)
(0.089864224 -0.0010202606 1.4590967e-21)
(0.09305948 -0.0060216821 -7.7831469e-23)
(0.090357483 -0.0027821127 6.8292175e-22)
(0.087388887 -0.0033979022 0)
(0.093284942 -0.0074114599 1.2940423e-20)
(0.098346066 -0.0067275735 8.2672881e-21)
(0.09177805 -0.0067322309 1.1328664e-19)
(0.086501854 -0.0096886768 -1.2015709e-21)
(0.095526333 -0.010200635 1.3008735e-19)
(0.10821333 -0.012452135 -5.4250769e-20)
(0.10698985 -0.020887045 3.1058432e-19)
(0.093144961 -0.029607969 6.9658691e-20)
(0.10007522 -0.0028535249 2.3880454e-19)
(0.08918522 0.0037295218 1.8477583e-23)
(0.094115343 -0.0013539844 1.0596136e-19)
(0.092797712 -0.0015300709 7.7021546e-20)
(0.091698179 0.001894959 4.8003507e-22)
(0.091438671 -0.00027606155 -5.7724101e-23)
(0.090776719 0.00077842647 3.4641886e-20)
(0.090472947 0.00043897887 -2.1714608e-23)
(0.089865927 0.00073267513 -1.7789878e-20)
(0.089065577 6.4590457e-05 -1.347348e-20)
(0.088564462 0.00098430978 -1.2285155e-20)
(0.087952021 0.0010835787 0)
(0.087703725 0.0011465653 -3.7525946e-22)
(0.08820526 0.00030583167 7.427814e-22)
(0.087926048 0.0013071693 4.1936551e-21)
(0.087175407 0.00049647677 -1.9843621e-20)
(0.088649128 -0.00087859298 -4.3365139e-21)
(0.08858212 -0.00057138349 -4.4481217e-20)
(0.086759714 0.0018501163 5.2922488e-21)
(0.089263061 -0.002383233 6.1670104e-20)
(0.091492857 -0.0052019125 -4.4648637e-20)
(0.089082531 9.097778e-06 -1.7075466e-21)
(0.087459225 -0.0031692616 1.1653268e-21)
(0.091752087 -0.010404136 9.672938e-21)
(0.096571013 -0.0062284364 -5.4136038e-23)
(0.09311422 -0.0025566312 -3.7790757e-20)
(0.087542809 -0.0096356608 1.3205224e-19)
(0.092779042 -0.016988948 4.7779689e-20)
(0.10576633 -0.015293568 1.4627624e-19)
(0.11081319 -0.011927211 -7.4229397e-20)
(0.10110701 -0.01603335 1.1603182e-19)
(0.10765582 -0.0016456198 7.2574598e-19)
(0.091519448 0.0025255368 3.1759869e-22)
(0.095562025 -0.00032193881 -5.118211e-22)
(0.093491433 -0.001454653 -7.7748475e-20)
(0.092035174 0.0011510766 -3.9065173e-22)
(0.091630211 0.00036359452 0)
(0.09083109 0.0011521961 -7.5071354e-21)
(0.090424759 -0.00037007917 4.1902582e-20)
(0.089738994 0.00095812408 2.2816548e-20)
(0.08887457 -0.00014551018 1.6669194e-21)
(0.088150704 0.00045599907 6.0358475e-23)
(0.08733108 0.001487018 5.2036438e-23)
(0.087027598 0.00080847482 0)
(0.087072967 1.4434221e-06 -1.38232e-20)
(0.086640803 0.0017113626 4.2167718e-21)
(0.086062915 0.00063984743 6.8615421e-23)
(0.087051343 -0.0015285499 5.1741202e-22)
(0.086435002 0.00066486464 -6.8404339e-20)
(0.085443017 0.0019250647 4.1113093e-20)
(0.088307444 -0.0033258597 6.5122313e-20)
(0.089020346 -0.0043225851 -7.1700726e-20)
(0.087478345 0.0021383792 -3.279908e-20)
(0.08849174 -0.0020353563 1.5072761e-19)
(0.090514543 -0.011920911 4.2052138e-20)
(0.092716803 -0.0073274462 2.264078e-19)
(0.0934691 7.2101415e-05 -4.941843e-21)
(0.091765383 -0.0072903443 -1.6265151e-21)
(0.092311796 -0.020762798 -4.6858749e-20)
(0.099639885 -0.019513728 1.6510155e-19)
(0.1072051 -0.0078368028 1.8803674e-19)
(0.10721971 -0.0022698211 -1.6354183e-19)
(0.11302687 0.00019339347 -5.600439e-20)
(0.095504386 0.00072950146 4.2730732e-22)
(0.098617731 0.0010042078 1.0201812e-19)
(0.096136494 -0.00031222862 -2.878691e-22)
(0.094143295 -2.3576479e-05 3.7071144e-23)
(0.093078866 0.00095036654 -7.3892738e-20)
(0.092014712 0.0011364524 -3.01028e-20)
(0.091335972 -0.00060061983 -3.7444075e-23)
(0.09046739 0.00095252919 1.3276957e-20)
(0.089575593 6.584905e-06 -1.023938e-20)
(0.088563436 -0.00015115586 9.5897965e-21)
(0.087648742 0.0017585949 2.1979857e-21)
(0.087453948 0.0006706276 0)
(0.087052925 9.184294e-05 -1.1307851e-22)
(0.086569435 0.0018876781 2.3877584e-20)
(0.08627911 0.00093803861 -4.6997916e-22)
(0.086517905 -0.0016368369 8.1243309e-22)
(0.085243808 0.0014413351 -2.6005406e-22)
(0.085103126 0.0015033565 3.7322275e-21)
(0.087857832 -0.0036089736 -5.4835991e-22)
(0.086536164 -0.0032651871 7.5724216e-20)
(0.085578908 0.0027201649 -4.618946e-20)
(0.089876165 -0.0010995995 4.0924667e-21)
(0.090515641 -0.011001737 2.1094877e-20)
(0.088432099 -0.0085170286 6.1422347e-20)
(0.091545286 -0.00010425354 1.5112985e-20)
(0.096262675 -0.0048819454 -1.5169418e-19)
(0.095163862 -0.018706185 1.9516917e-19)
(0.093247378 -0.021858423 -2.5980791e-21)
(0.097695779 -0.0086017323 -2.5292772e-19)
(0.10549068 0.0031567586 -2.1912535e-20)
(0.11139891 0.0022845255 4.3285198e-19)
(0.099028641 -0.0010358352 0)
(0.10249976 0.0018298483 -1.4673663e-19)
(0.10027524 0.001323845 -1.1850946e-19)
(0.098222564 -0.00087089038 6.1839569e-20)
(0.097032033 0.0011881801 -5.7486215e-21)
(0.096017184 0.00059009068 2.5042232e-22)
(0.094711586 -4.5403983e-05 -3.0860682e-24)
(0.0934814 0.00073810495 -3.5681778e-22)
(0.092279141 0.00015451612 -6.528814e-22)
(0.090624423 -0.00031708329 -7.7982247e-21)
(0.089470827 0.0014880836 -4.3624358e-23)
(0.089146821 0.00053662373 -1.5007131e-20)
(0.08812712 0.00040281727 0)
(0.087414854 0.001661536 3.4527067e-20)
(0.087350636 0.0012346819 -3.646128e-20)
(0.086844298 -0.0011552488 6.6322198e-21)
(0.085120099 0.0018345484 -4.698674e-20)
(0.085770575 0.00042092816 -5.5227115e-22)
(0.088132798 -0.003414273 -1.5523846e-20)
(0.084971806 -0.0018554917 3.5937452e-20)
(0.084101398 0.0015413799 -4.9907106e-22)
(0.09091535 -0.0016359757 -8.7010149e-20)
(0.091192762 -0.0080942364 -1.0139994e-19)
(0.085180959 -0.0077388426 -4.7523253e-20)
(0.088275825 -0.0024047332 5.202298e-20)
(0.098155436 -0.0040879466 6.6439249e-20)
(0.099417887 -0.01213007 1.5405267e-21)
(0.091180072 -0.018555107 1.2027911e-19)
(0.088220463 -0.012431516 9.8773052e-20)
(0.097515512 -0.0019903843 -1.0748323e-19)
(0.10415092 0.0030112663 -2.6724667e-19)
(0.099594324 -0.0017809181 8.5374207e-20)
(0.10425533 0.0017243907 -1.1247193e-21)
(0.1032419 0.0023808879 -1.3800244e-21)
(0.10222678 -0.0011742089 6.42347e-23)
(0.10161703 0.00099863224 -4.4562218e-20)
(0.10130041 -0.00012141937 6.6300298e-20)
(0.10018022 0.00090014442 -4.1565849e-23)
(0.099027251 0.0003467602 -1.0701278e-22)
(0.097625154 0.00010593297 -1.5730974e-20)
(0.095413088 0.00019882476 1.0589348e-22)
(0.093992119 0.0010260691 -1.7257441e-21)
(0.093318512 0.00056505738 -2.8274892e-24)
(0.09169726 0.00094876696 -7.8344106e-22)
(0.090522709 0.00086243946 0)
(0.090095639 0.00096721152 0)
(0.088630855 -0.00037100844 -1.096728e-20)
(0.086563776 0.0019153387 1.5568087e-23)
(0.087517202 -0.0010384884 -5.0890755e-20)
(0.08903707 -0.0027955525 3.1941042e-21)
(0.084969462 -0.00014367183 1.7274863e-20)
(0.083853705 -0.00069703155 7.1351578e-21)
(0.091095381 -0.0036601671 0)
(0.091740345 -0.0043065647 0)
(0.083944708 -0.0042521453 0)
(0.085102989 -0.00508438 -4.5073191e-21)
(0.096157313 -0.005437504 -3.1013475e-21)
(0.10120629 -0.005727055 -1.3996178e-20)
(0.092614435 -0.0087035295 -3.6989651e-20)
(0.083389003 -0.012311086 1.4234443e-20)
(0.088106792 -0.010970128 3.1610064e-20)
(0.096018903 0.002601195 -1.2031825e-19)
(0.096745825 -0.0014337148 1.5556534e-21)
(0.10250977 0.00067844577 1.2183191e-22)
(0.10262061 0.0023401679 8.8950421e-20)
(0.10218865 -0.00078930299 0)
(0.10213626 0.00060125657 8.2154305e-23)
(0.10234663 -0.00040949272 -1.153959e-20)
(0.1018116 0.0017257672 4.1505161e-20)
(0.1014775 4.2059455e-05 1.9005008e-23)
(0.1007687 -0.00022286961 3.4626191e-20)
(0.099252597 0.00061112418 -5.6015343e-21)
(0.098368679 0.00020388246 0)
(0.097906061 0.00046958448 -2.2495367e-20)
(0.096443451 0.0014370645 2.4586275e-21)
(0.095330303 8.1533434e-05 3.8662462e-24)
(0.095074056 0.00059221677 9.3993852e-22)
(0.093025696 0.00042703803 -1.1747605e-20)
(0.090725815 0.001661166 -3.1480085e-22)
(0.091234102 -0.0022973982 -3.0413297e-20)
(0.091465956 -0.0016275388 4.1556679e-21)
(0.087477685 0.0019467911 -8.2322064e-22)
(0.086143918 -0.0025076136 6.900484e-20)
(0.091826907 -0.0061815936 -3.8475963e-20)
(0.092555003 -0.0010625399 0)
(0.08568724 0.00070400724 -1.336821e-20)
(0.084804819 -0.006572027 1.8843664e-20)
(0.093219265 -0.0088581441 1.2371604e-19)
(0.099726071 -0.0029975755 -5.7873058e-20)
(0.096192605 0.0019147795 -5.4081625e-20)
(0.086761201 -0.0050945798 -1.0559279e-19)
(0.084955782 -0.015308086 -3.7140358e-20)
(0.092767139 0.00041604253 1.6281809e-19)
(0.093044265 1.3893593e-05 -6.880116e-20)
(0.098678693 -0.00043452061 8.6492057e-22)
(0.09959793 0.0011785101 -3.8308713e-20)
(0.099761665 5.9053908e-05 5.4808596e-21)
(0.1001048 0.00020475716 6.4225402e-23)
(0.10073658 -8.0042536e-05 7.4620364e-20)
(0.10069847 0.0015642327 -1.7715003e-20)
(0.10078489 -4.1916023e-05 -4.0250974e-23)
(0.10010864 -0.00017681329 5.7549812e-23)
(0.099007539 0.0010964729 4.0492296e-21)
(0.098436508 -0.00025084453 2.1925047e-22)
(0.09818711 0.00044930202 8.7576446e-23)
(0.097507743 0.0014332244 -5.9266563e-23)
(0.096888379 -0.00048070702 3.3130119e-20)
(0.097056604 -0.00023863588 5.6085079e-23)
(0.095877785 0.00073762746 2.2928043e-20)
(0.094802989 0.00086887429 -1.7825097e-21)
(0.095372234 -0.0033624691 -2.273311e-21)
(0.094715799 -0.0011210421 0)
(0.092190498 0.0034533756 1.9632753e-20)
(0.09153027 -0.003444741 7.3857074e-22)
(0.09416969 -0.0084069134 -1.0278564e-19)
(0.094052277 0.00057907578 3.9043262e-21)
(0.090747503 0.0051425596 1.9616482e-20)
(0.089741564 -0.0052042168 -2.4444501e-19)
(0.092553123 -0.012405388 -3.8243825e-20)
(0.096140087 -0.0038482322 -5.9753137e-22)
(0.097705459 0.0061466083 5.2817802e-21)
(0.095368281 0.0029901064 1.124296e-19)
(0.09145756 -0.013450715 -3.3477571e-21)
(0.093544069 -0.0019149858 -1.3142893e-19)
(0.092780349 0.001846955 1.2739994e-22)
(0.097899939 -0.00099160404 1.9361803e-19)
(0.097912898 -0.00045065922 6.9944862e-22)
(0.097489272 0.0013056328 3.1415905e-22)
(0.097475236 0.00027556782 -2.0050355e-21)
(0.097585751 0.00084788058 0)
(0.097691956 0.0010392293 -1.5678142e-22)
(0.097997434 -0.00013548124 1.519152e-23)
(0.09738179 -0.00069712589 6.4382458e-20)
(0.09677797 0.00039916266 1.1595789e-23)
(0.096640128 -0.00055035126 2.2306791e-23)
(0.096542422 0.00045173715 4.6409584e-20)
(0.096520946 0.0014543481 -1.6789032e-20)
(0.096256451 -0.00026073031 -5.2078208e-20)
(0.096284634 -0.00049227974 2.4626118e-22)
(0.095461093 0.0011798554 -3.3316966e-22)
(0.095545524 0.00058487161 6.3889882e-22)
(0.09614179 -0.0031165173 0)
(0.094772652 -0.0004184034 -1.0758506e-19)
(0.094619995 0.0041172052 8.887727e-21)
(0.096185614 -0.0028903426 -7.4431625e-20)
(0.095969571 -0.008816328 -1.9666819e-20)
(0.094059815 0.00027451487 1.0520664e-21)
(0.095177541 0.0059566316 -6.335736e-21)
(0.097659245 -0.0031357277 1.0359298e-19)
(0.095831655 -0.013296871 -2.0446338e-20)
(0.093503033 -0.0074069093 9.1917851e-20)
(0.09676576 0.0038199122 -7.8028912e-20)
(0.10297638 0.0059127361 3.0346013e-20)
(0.10321336 -0.00667715 7.4473812e-21)
(0.097906263 -0.0034690746 -2.7349262e-19)
(0.095432175 0.0029538152 -1.5026416e-23)
(0.1001593 -0.0010559268 3.3334468e-21)
(0.099415091 -0.0019226182 -1.7166609e-19)
(0.098469744 0.001821016 -6.2479421e-22)
(0.098108999 0.00035833543 1.696003e-20)
(0.09764616 0.0017368637 0)
(0.097402042 -0.00011820552 0)
(0.097065841 0.00063524914 -8.6951363e-21)
(0.095808672 -0.0001198948 0)
(0.094535391 0.00022774971 -1.1822267e-20)
(0.094080811 -0.00020910562 3.6712996e-20)
(0.093837759 0.00017348528 0)
(0.09424588 0.0008636185 -3.1638693e-20)
(0.094345733 -0.00047241143 -4.5356376e-20)
(0.094225076 -0.0011521376 1.6118437e-20)
(0.093733859 0.00066467527 6.1160975e-22)
(0.094802832 -0.00041036152 -3.323087e-21)
(0.095234657 -0.0026025363 7.9077026e-21)
(0.093027149 -0.0004133329 -6.9747704e-20)
(0.094516735 0.0027673502 6.7541768e-21)
(0.098374352 -0.001924779 -6.5737249e-22)
(0.096211225 -0.0064195622 -4.3969434e-21)
(0.092196127 -0.00076688736 -6.1430996e-20)
(0.096447542 0.0037307868 2.6730858e-20)
(0.10341708 -0.0016166317 1.8383294e-19)
(0.10046009 -0.0095707678 -3.6409207e-20)
(0.092427832 -0.0095182261 -1.2800488e-20)
(0.093678424 -0.0019950842 1.7885087e-19)
(0.10480178 0.0012941222 8.4026086e-20)
(0.11236237 -0.0027292093 -8.9553553e-20)
(0.10349942 -0.0036974541 2.6950738e-19)
(0.099650464 0.0030407682 -1.6518575e-22)
(0.10433864 -0.00053929627 -5.4667867e-20)
(0.10300568 -0.0020292648 1.5015823e-19)
(0.10157866 0.0017857643 4.9085527e-20)
(0.10090351 0.00086756226 1.3756908e-22)
(0.099855067 0.0021664869 -6.5865604e-23)
(0.098691171 -0.00036259099 1.8492653e-20)
(0.097968185 -5.1079514e-05 5.0009884e-20)
(0.096086067 -0.001181348 -1.0345778e-20)
(0.094752552 -0.00059772476 4.313021e-21)
(0.093604636 0.00050938159 -5.2757697e-22)
(0.092667274 0.00042908041 -9.0457546e-21)
(0.092923454 0.00081431099 -4.9369733e-21)
(0.093027892 0.00032026233 -1.9354693e-20)
(0.092409177 -0.00040734822 -4.1327229e-21)
(0.091877424 0.00093514659 4.4693685e-21)
(0.093315628 -0.0007142737 -2.1470286e-20)
(0.093529433 -0.00080766611 -5.0748629e-21)
(0.090718795 0.00024624376 1.4092571e-20)
(0.092687421 0.00060618605 2.3820099e-21)
(0.0978874 -0.0015524684 1.8287753e-20)
(0.095392153 -0.0023489132 -6.1168343e-20)
(0.089660837 -0.0011090216 7.4717745e-23)
(0.094133249 -0.00049801613 1.7953537e-20)
(0.10402603 -0.0031319625 -1.9379567e-20)
(0.10350476 -0.0040695271 -2.020882e-21)
(0.093499715 -0.0059470102 1.0364265e-19)
(0.091224619 -0.0065414467 -3.6970472e-20)
(0.10205731 -0.0059016496 5.6525237e-20)
(0.11360817 -0.004638611 1.1782437e-19)
(0.10696958 -0.0014276809 1.6559469e-19)
(0.101596 0.0018950336 -8.9617836e-23)
(0.10661122 9.878369e-05 4.6471952e-22)
(0.10517438 -0.00092225508 4.4786777e-22)
(0.10384442 0.00056598171 -9.6328678e-22)
(0.10296308 0.00071073595 -2.8398818e-20)
(0.1014862 0.001263786 -3.0036147e-20)
(0.099999383 -0.0007422555 -1.1929862e-20)
(0.098291053 0.0015337776 1.3209693e-20)
(0.096405186 -0.00061066314 2.0486357e-22)
(0.094120634 -0.0010780992 7.1769993e-21)
(0.093046786 9.9640062e-05 4.3802739e-20)
(0.092292703 -0.00023864788 1.0536848e-22)
(0.092443102 -0.00062912865 -9.0086691e-21)
(0.092594373 7.1496849e-05 -1.1286728e-22)
(0.091814091 -0.00036638587 1.3556716e-20)
(0.09125992 0.00016434874 1.6074902e-20)
(0.092517403 -0.0018747762 0)
(0.09257922 0.00039092834 -4.8006856e-22)
(0.089911041 0.00070232968 6.3166232e-22)
(0.091461865 -0.0027203393 2.5278381e-20)
(0.096399442 -0.0025536728 -3.2498705e-20)
(0.094767614 0.0012219688 1.609086e-20)
(0.089217023 0.00052265438 -4.9316535e-20)
(0.092456648 -0.005276498 -7.685513e-21)
(0.1013857 -0.0063803021 -4.5253961e-20)
(0.10289736 -0.00028651311 -1.3429439e-20)
(0.095571959 0.0013945812 -9.0746567e-20)
(0.091234106 -0.0059764372 1.7973901e-19)
(0.098091236 -0.011355723 -8.8638386e-20)
(0.10898505 -0.0083039553 -2.6129339e-19)
(0.11035842 0.00080857741 -7.2253757e-20)
(0.10149902 0.00029497966 2.0838345e-20)
(0.1063291 0.0007424804 1.0597546e-19)
(0.10468581 0.0011226218 1.0979904e-19)
(0.1032892 -0.00035465557 1.3649464e-22)
(0.1020721 0.00075335917 1.4043015e-23)
(0.10098693 -0.00018860664 -7.5233363e-23)
(0.098592388 0.0003387634 -3.6770691e-21)
(0.097997627 -0.00066520871 -7.648735e-21)
(0.096360144 -0.0023769683 -1.9245933e-20)
(0.094461108 -0.00061803689 -3.6580923e-24)
(0.093058163 0.0008071393 -2.4493758e-22)
(0.092492174 0.0008820672 2.0853657e-20)
(0.092421162 -0.00059048541 6.8355349e-23)
(0.092532074 0.0010232083 -7.6550023e-20)
(0.091936148 0.00097419655 -1.2244342e-20)
(0.091548545 0.00066595735 -4.1427117e-22)
(0.092273475 -0.0018337807 1.0794954e-22)
(0.092254336 0.0019894538 -7.1872229e-20)
(0.090884286 0.0021995637 9.6371286e-20)
(0.091658425 -0.0041707839 -4.1656568e-21)
(0.094887931 -0.0028103333 1.2414457e-19)
(0.094499643 0.0042291359 5.3560172e-21)
(0.091501081 0.0036421009 -1.4380862e-19)
(0.093336068 -0.0068100405 1.6241049e-20)
(0.098664411 -0.0081391841 -6.8637504e-20)
(0.10049282 0.0018411876 -3.1311196e-19)
(0.09846344 0.0082978644 -3.164966e-20)
(0.096343902 -0.00048549911 -9.0799165e-20)
(0.097755754 -0.011793176 -6.1220771e-20)
(0.10279757 -0.010425401 3.8578428e-20)
(0.10892988 0.0035322776 5.4613251e-19)
(0.099258454 -0.0013172702 1.8356264e-21)
(0.10406491 0.00069949061 7.0089208e-22)
(0.10254075 0.0026732706 1.1143603e-21)
(0.10121897 -0.0016891658 -5.1718187e-22)
(0.10048217 0.00016792288 1.4763727e-22)
(0.099770904 -0.0015651263 -7.5225086e-24)
(0.099396955 0.00053129401 2.8937691e-23)
(0.098780711 0.0023304444 9.1663086e-24)
(0.096657963 -0.0029132363 -1.7286884e-22)
(0.09415711 -0.0020316137 6.7933995e-23)
(0.094108573 -0.00077414439 -7.2994423e-20)
(0.09406493 4.7549271e-05 -4.2455427e-20)
(0.093793772 -0.0018202822 -2.4458589e-24)
(0.093681052 0.00032470397 2.7423698e-22)
(0.093334316 0.00081078006 2.7487569e-23)
(0.093245147 0.0001724343 7.4904352e-22)
(0.093163084 -0.0024131804 -9.3386012e-22)
(0.092760075 0.0018432879 8.5601111e-20)
(0.093216943 0.0022836742 -9.2189048e-20)
(0.093557952 -0.0047420182 -9.3905697e-20)
(0.093987742 -0.0040699443 -8.7091495e-22)
(0.094115727 0.0043769296 3.6764554e-22)
(0.094909589 0.0046839149 1.7530648e-21)
(0.096706842 -0.0058839851 7.7930098e-20)
(0.096819669 -0.0094636717 3.656356e-20)
(0.096255991 0.0012728796 6.3249154e-21)
(0.098781494 0.010024212 -2.2157329e-20)
(0.10237777 0.0043870214 -8.2438921e-20)
(0.10200174 -0.0079605325 1.8847161e-19)
(0.099902536 -0.010587609 1.7277629e-22)
(0.098448403 0.0030799221 7.1677516e-21)
(0.096865535 -0.0011468988 -1.2435048e-19)
(0.10093229 0.00039751484 -2.1970039e-20)
(0.10109853 0.0030393962 -1.9455783e-19)
(0.099816766 -0.0014545757 5.4712479e-20)
(0.10047059 0.00030742006 1.4464383e-20)
(0.099714576 -0.0017418244 -4.8821749e-20)
(0.099552809 0.0017213127 1.5540556e-23)
(0.10038964 -0.0018985123 2.4187408e-20)
(0.099133294 -0.0030488454 -3.5717952e-20)
(0.096172228 0.00031373111 1.4869432e-20)
(0.096078634 0.00043876123 -1.2873443e-22)
(0.096783385 0.0011239556 -3.8439954e-20)
(0.096728611 -0.00078074387 3.5020452e-21)
(0.09662471 0.00081428282 -2.5053095e-22)
(0.096804404 0.0014385774 -2.8572794e-20)
(0.09740433 0.00079658092 -2.7795905e-22)
(0.096729147 -0.0013836219 5.9517966e-21)
(0.095906531 0.001605541 -8.425397e-22)
(0.098119178 0.0024053137 -4.8344564e-20)
(0.098702599 -0.0028048271 9.3495327e-20)
(0.096428892 -0.0035921664 8.0640712e-22)
(0.096151182 0.0031408088 -3.2440953e-21)
(0.10032764 0.0044390066 5.3572986e-20)
(0.10370388 -0.0024529477 -3.8912309e-21)
(0.099907203 -0.0069776996 2.3822485e-20)
(0.095428218 -0.0003749223 3.4487563e-19)
(0.10007987 0.0075561128 0)
(0.10940555 0.006026519 2.1889202e-20)
(0.11057973 -0.0022764552 2.3237513e-19)
(0.10378171 -0.0062262956 3.6874757e-20)
(0.10001336 0.0013752067 -6.5861992e-20)
(0.10294792 0.00022853372 0)
(0.085362575 -0.00010490557 -1.3274184e-22)
(0.11418545 0.0010148444 -2.3880504e-20)
(0.08044412 -0.00083554838 4.5622699e-21)
(0.11812181 0.00031105557 2.51886e-22)
(0.073412574 -0.00066281192 -4.2211783e-20)
(0.1219544 0.00015249177 -2.9143676e-21)
(0.069715523 0.0030995903 5.7745561e-21)
(0.11254372 -0.0051228485 -1.0697004e-20)
(0.11202398 -0.0024566446 -2.1439246e-22)
(0.11649994 -0.00097059403 8.6255804e-21)
(0.11765117 -0.00036577132 3.9864942e-21)
(0.11668546 -0.00057160193 1.1942517e-20)
(0.11644053 -0.0001218248 -1.3723481e-20)
(0.11648929 7.0147929e-05 -1.6873183e-21)
(0.11686667 -7.4058436e-06 -5.9205286e-21)
(0.11472079 -0.00044832084 1.2266836e-20)
(0.11363075 0.00015372063 -3.6935259e-20)
(0.11629221 0.00045782008 6.1585611e-22)
(0.11648682 -0.0006246313 4.5340966e-20)
(0.11203664 -0.00092476416 1.6143576e-21)
(0.11158932 0.00031161572 6.5100219e-21)
(0.11705953 0.00083479468 -2.0412438e-20)
(0.12093199 -0.00038165187 -2.4064672e-20)
(0.11494917 -0.0017062068 4.1619876e-20)
(0.10746822 -0.00071970469 8.1539522e-21)
(0.1121827 0.0010680273 2.7283997e-20)