/*--------------------------------*- C++ -*----------------------------------*\
| =========                 |                                                 |
| \\      /  F ield         | OpenFOAM: The Open Source CFD Toolbox           |
|  \\    /   O peration     | Version:  2406                                  |
|   \\  /    A nd           | Website:  www.openfoam.com                      |
|    \\/     M anipulation  |                                                 |
\*---------------------------------------------------------------------------*/
FoamFile
{
    version     2.0;
    format      ascii;
    arch        "LSB;label=32;scalar=64";
    class       volScalarField;
    location    "18";
    object      k;
}
// * * * * * * * * * * * * * * * * * * * * * * * * * * * * * * * * * * * * * //

dimensions      [0 2 -2 0 0 0 0];

internalField   nonuniform List<scalar> 
62344
(
4.5373444e-06
3.5701888e-06
2.7594641e-06
2.3367145e-06
2.084449e-06
1.8989364e-06
1.7023491e-06
1.5163287e-06
1.3594789e-06
1.2406389e-06
1.165952e-06
1.1192956e-06
1.0756617e-06
1.048579e-06
1.0233661e-06
9.8798283e-07
9.7576468e-07
9.7755747e-07
9.7174929e-07
9.4251456e-07
9.2255869e-07
9.2362424e-07
9.2494307e-07
9.3826878e-07
9.5369497e-07
9.5683926e-07
9.7439393e-07
9.9894575e-07
1.0535098e-06
1.160143e-06
1.2912963e-06
1.4135981e-06
1.6600925e-06
1.9146207e-06
2.3190006e-06
2.7075297e-06
3.5419779e-06
4.4474105e-06
5.9151711e-06
7.7886991e-06
9.7128822e-06
1.4214025e-05
1.8469953e-05
2.4640152e-05
3.2564158e-05
4.2231168e-05
5.334589e-05
6.1253435e-05
6.4533506e-05
6.6852126e-05
7.2433336e-05
8.4966071e-05
0.00011264951
0.00013845089
0.0002014818
4.5411957e-06
3.585614e-06
2.7669513e-06
2.3376127e-06
2.0906857e-06
1.9057113e-06
1.7123424e-06
1.5269312e-06
1.3608748e-06
1.2444181e-06
1.1699435e-06
1.1165552e-06
1.0750853e-06
1.0538313e-06
1.0290439e-06
9.8758856e-07
9.6919018e-07
9.6695669e-07
9.5939598e-07
9.3320592e-07
9.0926817e-07
9.0062442e-07
8.9625754e-07
9.0429485e-07
9.1112432e-07
9.146834e-07
9.2661942e-07
9.4691761e-07
1.0050749e-06
1.0916431e-06
1.1815636e-06
1.2722584e-06
1.4774564e-06
1.6377739e-06
1.9060747e-06
2.2054131e-06
2.8367976e-06
3.5011346e-06
4.6859621e-06
5.7288567e-06
8.1621966e-06
1.1339308e-05
1.7135411e-05
2.5389669e-05
3.6450846e-05
5.1889053e-05
6.3914221e-05
7.2235143e-05
8.2531129e-05
8.9274322e-05
9.057656e-05
9.4543048e-05
0.0001087148
0.00012586708
0.00016405
4.5451859e-06
3.601168e-06
2.7773807e-06
2.3449495e-06
2.0976222e-06
1.9104744e-06
1.7201726e-06
1.5308956e-06
1.3711954e-06
1.2517626e-06
1.1781032e-06
1.1178469e-06
1.0833883e-06
1.0550824e-06
1.029738e-06
9.9518209e-07
9.777166e-07
9.7287477e-07
9.6224648e-07
9.3257523e-07
9.1581931e-07
8.9633165e-07
8.8619394e-07
8.8816519e-07
8.9213683e-07
9.0229048e-07
9.1550533e-07
9.378846e-07
9.9827043e-07
1.0802664e-06
1.1601265e-06
1.2499441e-06
1.4362893e-06
1.5710982e-06
1.8322173e-06
2.1402364e-06
2.6646224e-06
3.1462559e-06
4.0411526e-06
4.911636e-06
6.747229e-06
9.0197636e-06
1.5228189e-05
2.2679361e-05
3.7082893e-05
5.1341632e-05
6.5254789e-05
7.6240998e-05
9.4182678e-05
0.00010990976
0.00012090048
0.00012168869
0.00012440947
0.00013231434
0.00015140425
4.5478459e-06
3.6112251e-06
2.7854954e-06
2.3498113e-06
2.1031643e-06
1.9223147e-06
1.7286084e-06
1.5393216e-06
1.3746206e-06
1.2560368e-06
1.1788544e-06
1.1208999e-06
1.0812272e-06
1.0496863e-06
1.0311359e-06
1.0015744e-06
9.8092752e-07
9.791554e-07
9.745837e-07
9.5289576e-07
9.1435285e-07
8.9040819e-07
8.8221108e-07
8.8539418e-07
8.9687645e-07
9.1116206e-07
9.1886675e-07
9.4122673e-07
1.0087657e-06
1.0842545e-06
1.150519e-06
1.2440179e-06
1.3967347e-06
1.5238348e-06
1.794855e-06
2.2216868e-06
2.6784661e-06
3.1265302e-06
3.9440357e-06
4.7366794e-06
6.4187205e-06
8.764191e-06
1.3834163e-05
1.9911198e-05
3.3628093e-05
4.5664475e-05
6.6443181e-05
8.1433252e-05
0.00010253812
0.00012411395
0.00014792027
0.0001661189
0.00017093298
0.00017726442
0.00017382959
4.5522874e-06
3.6209933e-06
2.7930118e-06
2.3529825e-06
2.1028926e-06
1.9251909e-06
1.7427235e-06
1.5495267e-06
1.3851296e-06
1.2595328e-06
1.1799948e-06
1.1304925e-06
1.0839105e-06
1.0595019e-06
1.0445134e-06
1.0066189e-06
9.7954186e-07
9.7938573e-07
9.737845e-07
9.5600233e-07
9.160046e-07
8.8642043e-07
8.7788463e-07
8.8405648e-07
8.960971e-07
9.0397808e-07
9.1015812e-07
9.3132067e-07
9.9548351e-07
1.0675613e-06
1.134084e-06
1.2302384e-06
1.3352951e-06
1.4522745e-06
1.6901215e-06
2.2055096e-06
2.6535632e-06
3.1713762e-06
3.9432659e-06
4.6746938e-06
6.0636085e-06
8.8269992e-06
1.2764836e-05
1.8346168e-05
3.1422745e-05
4.4978416e-05
6.7657313e-05
8.4288811e-05
0.00010284082
0.00013793789
0.00015762028
0.00019155919
0.00021699401
0.0002417239
0.0002344409
4.5567096e-06
3.6335031e-06
2.8047823e-06
2.3655152e-06
2.1102425e-06
1.9295456e-06
1.7435286e-06
1.5587292e-06
1.3944819e-06
1.2717104e-06
1.1915411e-06
1.1392062e-06
1.0910648e-06
1.0613892e-06
1.0526567e-06
1.0147937e-06
9.8437492e-07
9.8156075e-07
9.7821481e-07
9.5527638e-07
9.2887064e-07
8.9559966e-07
8.8034942e-07
8.8541777e-07
8.8954447e-07
8.9485205e-07
8.9829254e-07
9.1620055e-07
9.8096261e-07
1.0544042e-06
1.1267445e-06
1.2122698e-06
1.3035724e-06
1.4076249e-06
1.6279079e-06
2.1452124e-06
2.61014e-06
3.2179435e-06
4.0716936e-06
4.7695833e-06
6.0055368e-06
8.4377426e-06
1.139279e-05
1.6179524e-05
2.7073043e-05
4.3006152e-05
6.036498e-05
8.096675e-05
0.00010661867
0.00014278842
0.00016313367
0.00020591922
0.00023105362
0.00027251927
0.0002911451
4.5602508e-06
3.6472962e-06
2.8109702e-06
2.369081e-06
2.1206986e-06
1.9418779e-06
1.7483052e-06
1.5653991e-06
1.3978442e-06
1.2794109e-06
1.1932854e-06
1.142148e-06
1.1008015e-06
1.0622448e-06
1.0570882e-06
1.0272107e-06
9.9091625e-07
9.859211e-07
9.8764936e-07
9.6889784e-07
9.3323684e-07
9.039241e-07
8.8918605e-07
8.8595625e-07
8.8628142e-07
8.9285045e-07
8.9550725e-07
9.1041424e-07
9.7293472e-07
1.0482021e-06
1.1303045e-06
1.2142869e-06
1.301455e-06
1.3963632e-06
1.5751658e-06
1.9407113e-06
2.3760742e-06
3.0791969e-06
4.06562e-06
4.737295e-06
6.0566798e-06
7.9841065e-06
1.0711165e-05
1.5145445e-05
2.3320249e-05
3.6187799e-05
5.0927727e-05
7.7184482e-05
0.00010466818
0.00013184449
0.0001545909
0.00019520819
0.00021839057
0.00026739659
0.00029610709
4.5627917e-06
3.6597066e-06
2.8177152e-06
2.3681485e-06
2.1215282e-06
1.9466251e-06
1.7628233e-06
1.5731875e-06
1.4076344e-06
1.2811029e-06
1.1956607e-06
1.1464195e-06
1.1036171e-06
1.0686972e-06
1.054624e-06
1.0369182e-06
1.0018028e-06
9.8856301e-07
9.829095e-07
9.696961e-07
9.3652562e-07
9.1159303e-07
8.9759783e-07
8.860495e-07
8.8163563e-07
8.8751678e-07
8.9115748e-07
9.0383924e-07
9.526248e-07
1.02948e-06
1.1315179e-06
1.2309074e-06
1.327435e-06
1.408559e-06
1.5885816e-06
1.8210483e-06
2.201211e-06
2.8646908e-06
3.7825031e-06
4.4205846e-06
5.7523704e-06
7.5939781e-06
1.0164762e-05
1.5202954e-05
2.1598183e-05
2.889956e-05
4.3938836e-05
6.4667444e-05
8.4588403e-05
0.00010903639
0.00014062229
0.00017592471
0.00019764656
0.00024662666
0.00027951312
4.5653144e-06
3.6684462e-06
2.8265596e-06
2.3768551e-06
2.1227412e-06
1.9495745e-06
1.769806e-06
1.5830006e-06
1.414754e-06
1.2853118e-06
1.2056794e-06
1.1494689e-06
1.0972173e-06
1.0694215e-06
1.0475936e-06
1.0377408e-06
1.0078974e-06
9.88153e-07
9.7427025e-07
9.6580865e-07
9.5027752e-07
9.2181868e-07
8.9963568e-07
8.8910636e-07
8.8298108e-07
8.8748391e-07
8.9403388e-07
9.0512186e-07
9.3727811e-07
1.0021939e-06
1.1212802e-06
1.2350998e-06
1.3463633e-06
1.4310555e-06
1.6039576e-06
1.8245553e-06
2.1209854e-06
2.6551677e-06
3.2835131e-06
3.9743104e-06
5.3883139e-06
7.3661204e-06
9.9337593e-06
1.521905e-05
2.0197359e-05
2.6650007e-05
3.8049567e-05
5.1351234e-05
6.6614326e-05
8.5602176e-05
0.00010906131
0.00014342783
0.0001684646
0.00021380543
0.00024936722
4.567784e-06
3.6769626e-06
2.8322033e-06
2.3833367e-06
2.1300212e-06
1.9573627e-06
1.7728758e-06
1.590608e-06
1.4217216e-06
1.2918345e-06
1.2152691e-06
1.1574799e-06
1.1034011e-06
1.0770235e-06
1.0583798e-06
1.0424965e-06
1.0112845e-06
9.958943e-07
9.858667e-07
9.7014639e-07
9.5184729e-07
9.2512928e-07
8.9958993e-07
8.9327593e-07
8.8912601e-07
8.9238279e-07
9.0248007e-07
9.1217951e-07
9.3592056e-07
9.8950868e-07
1.1047263e-06
1.2183657e-06
1.3494401e-06
1.4659498e-06
1.6431763e-06
1.8934402e-06
2.1605829e-06
2.5913257e-06
2.9782872e-06
3.6938017e-06
4.7651027e-06
7.0472221e-06
9.6671924e-06
1.468375e-05
1.8901025e-05
2.5081117e-05
3.3664021e-05
4.5352286e-05
5.7873499e-05
7.3959068e-05
9.1765128e-05
0.00011894885
0.00014035171
0.00017588219
0.0002068413
4.5706637e-06
3.6855981e-06
2.8366214e-06
2.3809546e-06
2.1328808e-06
1.9600167e-06
1.7785767e-06
1.5930484e-06
1.4284192e-06
1.2932542e-06
1.214092e-06
1.1587963e-06
1.1140668e-06
1.0876179e-06
1.0656433e-06
1.0490869e-06
1.0225439e-06
1.0035599e-06
9.969762e-07
9.7667809e-07
9.4700663e-07
9.2738465e-07
9.0857974e-07
8.9643265e-07
8.8763299e-07
8.8684736e-07
8.9537939e-07
9.1094074e-07
9.3734826e-07
9.93877e-07
1.0937466e-06
1.1997828e-06
1.337801e-06
1.4758671e-06
1.6563763e-06
1.935362e-06
2.1997383e-06
2.582842e-06
2.9253206e-06
3.6200348e-06
4.4974148e-06
6.5903334e-06
9.3224728e-06
1.403758e-05
1.8308036e-05
2.4835189e-05
3.3165929e-05
4.4105047e-05
5.5491279e-05
7.0398313e-05
8.6683087e-05
0.00011239721
0.00013381934
0.00016718491
0.00019392601
4.5736817e-06
3.6942164e-06
2.8438462e-06
2.3832457e-06
2.1332516e-06
1.9605854e-06
1.7868891e-06
1.5993213e-06
1.4326726e-06
1.2945469e-06
1.2104725e-06
1.1536676e-06
1.1147325e-06
1.08772e-06
1.0594781e-06
1.0499122e-06
1.0310137e-06
1.0041875e-06
9.9244491e-07
9.7630016e-07
9.4704954e-07
9.3490556e-07
9.2037905e-07
9.0220896e-07
8.8723854e-07
8.8313842e-07
8.8818588e-07
9.0402771e-07
9.3616391e-07
9.9784587e-07
1.0834339e-06
1.1935052e-06
1.3292582e-06
1.4713227e-06
1.6468072e-06
1.913026e-06
2.1684489e-06
2.5807263e-06
2.9488901e-06
3.6442941e-06
4.4698133e-06
6.447946e-06
9.124953e-06
1.3544111e-05
1.816603e-05
2.5041663e-05
3.4189555e-05
4.5932954e-05
5.8878695e-05
7.4116933e-05
9.1863739e-05
0.00011980993
0.00014749408
0.00018627888
0.00021197808
4.5766578e-06
3.7011602e-06
2.8524619e-06
2.3960699e-06
2.1368231e-06
1.9690357e-06
1.7953952e-06
1.6094889e-06
1.4419091e-06
1.3024019e-06
1.2155299e-06
1.1580921e-06
1.1104468e-06
1.082055e-06
1.0529998e-06
1.0494074e-06
1.0361e-06
9.9656514e-07
9.7222048e-07
9.6610537e-07
9.5699936e-07
9.4629663e-07
9.2747615e-07
9.0851719e-07
8.9443441e-07
8.931141e-07
8.9716346e-07
9.1086952e-07
9.4034517e-07
9.901974e-07
1.0646522e-06
1.1840775e-06
1.3241578e-06
1.4514568e-06
1.606181e-06
1.8499566e-06
2.0993625e-06
2.5310439e-06
2.9789835e-06
3.7447226e-06
4.5793852e-06
6.5036451e-06
9.2486656e-06
1.3334205e-05
1.8125841e-05
2.512798e-05
3.5480727e-05
4.8139395e-05
6.2440784e-05
7.7825529e-05
9.9123731e-05
0.0001314092
0.00016971002
0.00021487035
0.00025123072
4.5787899e-06
3.7077385e-06
2.858286e-06
2.4065223e-06
2.1422386e-06
1.9782594e-06
1.8007671e-06
1.6163824e-06
1.4539933e-06
1.3095096e-06
1.2267372e-06
1.1763235e-06
1.1172712e-06
1.0814988e-06
1.060729e-06
1.0547238e-06
1.0345962e-06
9.9554471e-07
9.6974719e-07
9.6438024e-07
9.5990402e-07
9.4780465e-07
9.2164152e-07
9.0818468e-07
8.987915e-07
9.0058594e-07
9.1072881e-07
9.2877772e-07
9.5258957e-07
9.8611446e-07
1.0544902e-06
1.1729466e-06
1.320192e-06
1.4290312e-06
1.5666369e-06
1.8143723e-06
2.0529123e-06
2.4543608e-06
2.9598642e-06
3.7444191e-06
4.6186346e-06
6.4271281e-06
9.2792613e-06
1.294774e-05
1.7659894e-05
2.4417019e-05
3.5459006e-05
4.866656e-05
6.3339683e-05
7.8331679e-05
0.00010124662
0.00013378384
0.00017337227
0.00022056615
0.0002642759
4.5803497e-06
3.7154343e-06
2.8614842e-06
2.404959e-06
2.1452586e-06
1.9797291e-06
1.8032905e-06
1.6186756e-06
1.456631e-06
1.3111459e-06
1.2270867e-06
1.1805852e-06
1.1235379e-06
1.087942e-06
1.0732151e-06
1.0605409e-06
1.0296957e-06
1.0043516e-06
9.8782163e-07
9.7498273e-07
9.6315458e-07
9.4170559e-07
9.1215758e-07
8.9819025e-07
8.8972003e-07
8.915487e-07
9.059153e-07
9.320899e-07
9.6037284e-07
9.9249872e-07
1.0604459e-06
1.1639699e-06
1.3082959e-06
1.4215426e-06
1.5639193e-06
1.8195036e-06
2.040645e-06
2.3945126e-06
2.8864628e-06
3.6460364e-06
4.6427252e-06
6.0456003e-06
8.8457412e-06
1.1762232e-05
1.6042225e-05
2.1847103e-05
3.2079757e-05
4.3916939e-05
5.6508364e-05
6.8112631e-05
8.8451438e-05
0.00011757491
0.00015389146
0.00019826868
0.00024355389
4.5815133e-06
3.723723e-06
2.8650595e-06
2.3993817e-06
2.1461784e-06
1.9760094e-06
1.8047896e-06
1.6206227e-06
1.4523964e-06
1.3104244e-06
1.2179308e-06
1.1663623e-06
1.119651e-06
1.0891029e-06
1.0791225e-06
1.0594346e-06
1.0268249e-06
1.0052745e-06
9.9583118e-07
9.8075291e-07
9.581058e-07
9.319885e-07
9.0808183e-07
8.8710176e-07
8.7263524e-07
8.6977837e-07
8.8080245e-07
9.0878343e-07
9.5857685e-07
1.0010866e-06
1.0708629e-06
1.1536789e-06
1.2787437e-06
1.4104745e-06
1.5694566e-06
1.8394288e-06
2.0425545e-06
2.3380762e-06
2.7939663e-06
3.4232316e-06
4.5993505e-06
5.688108e-06
7.8493394e-06
1.001793e-05
1.3461534e-05
1.7320497e-05
2.4431769e-05
3.3140201e-05
4.2646106e-05
4.9543832e-05
6.1670656e-05
8.1490657e-05
0.00011178028
0.00014840247
0.00018860569
4.5827253e-06
3.7315608e-06
2.8704707e-06
2.4001764e-06
2.1489283e-06
1.9766544e-06
1.81011e-06
1.6262393e-06
1.4518534e-06
1.3129631e-06
1.2158207e-06
1.1547638e-06
1.1186932e-06
1.085152e-06
1.0713306e-06
1.0571744e-06
1.0340075e-06
1.0033058e-06
9.8872843e-07
9.7935793e-07
9.5878433e-07
9.3518009e-07
9.1474176e-07
8.8835061e-07
8.6985608e-07
8.6463077e-07
8.7376313e-07
8.9910133e-07
9.5269329e-07
1.0086331e-06
1.0836341e-06
1.1460995e-06
1.2507316e-06
1.3771377e-06
1.55443e-06
1.8231853e-06
2.0366022e-06
2.2575142e-06
2.7067321e-06
3.1931728e-06
4.3264808e-06
5.2700287e-06
7.0087796e-06
8.3632791e-06
1.0877954e-05
1.3128603e-05
1.7789724e-05
2.2955374e-05
3.2041482e-05
3.9374993e-05
4.7511979e-05
5.8817249e-05
7.6139616e-05
9.854659e-05
0.00012546578
4.583227e-06
3.7367176e-06
2.8767817e-06
2.4091478e-06
2.1546354e-06
1.9854205e-06
1.8211844e-06
1.6344409e-06
1.4632844e-06
1.3223026e-06
1.2236273e-06
1.1639033e-06
1.1255252e-06
1.0874591e-06
1.0688302e-06
1.0615224e-06
1.0484161e-06
1.0077418e-06
9.8270403e-07
9.7510467e-07
9.6384621e-07
9.507445e-07
9.2841917e-07
8.9556489e-07
8.7465349e-07
8.6791166e-07
8.7323304e-07
8.951996e-07
9.4567174e-07
1.0017392e-06
1.0549819e-06
1.107463e-06
1.1955275e-06
1.2863749e-06
1.4587254e-06
1.6907506e-06
1.9467148e-06
2.1223869e-06
2.5056695e-06
2.9137018e-06
3.7985651e-06
4.5870982e-06
5.9293097e-06
6.9185925e-06
8.6480244e-06
1.0167982e-05
1.3410945e-05
1.6900032e-05
2.1844433e-05
2.9593188e-05
3.9183446e-05
4.83819e-05
5.9198545e-05
7.6243087e-05
9.2175015e-05
4.5849407e-06
3.7427781e-06
2.8823932e-06
2.4196972e-06
2.1606492e-06
1.9956177e-06
1.8313149e-06
1.642017e-06
1.4807431e-06
1.3322726e-06
1.2340934e-06
1.1882402e-06
1.1400193e-06
1.0940007e-06
1.0745855e-06
1.07e-06
1.0541249e-06
1.0128607e-06
9.786475e-07
9.7009285e-07
9.6474848e-07
9.5671223e-07
9.3361598e-07
8.9774024e-07
8.7810829e-07
8.710261e-07
8.7547814e-07
8.9534358e-07
9.3549013e-07
9.7884216e-07
1.0086837e-06
1.0450603e-06
1.1111588e-06
1.1756956e-06
1.2950802e-06
1.4541521e-06
1.6802678e-06
1.840803e-06
2.1915434e-06
2.5437803e-06
3.2727408e-06
4.0256623e-06
5.3659954e-06
6.3079706e-06
7.775892e-06
9.0383618e-06
1.1365857e-05
1.4528251e-05
1.7916154e-05
2.2524723e-05
2.8875947e-05
3.7921683e-05
4.6380782e-05
6.166597e-05
7.4591977e-05
4.5846155e-06
3.744655e-06
2.884981e-06
2.4223703e-06
2.1619637e-06
1.9968724e-06
1.8325818e-06
1.6430295e-06
1.4856695e-06
1.3333777e-06
1.2352872e-06
1.1950184e-06
1.1420046e-06
1.0920162e-06
1.073521e-06
1.0674884e-06
1.0486535e-06
1.0094886e-06
9.7363079e-07
9.6517942e-07
9.6299558e-07
9.563883e-07
9.3372052e-07
8.9882777e-07
8.8293308e-07
8.7521797e-07
8.8019011e-07
9.0498726e-07
9.4534248e-07
9.8371801e-07
1.0077613e-06
1.0372497e-06
1.091906e-06
1.1419673e-06
1.229696e-06
1.3505773e-06
1.5365553e-06
1.6977729e-06
2.0156096e-06
2.3488303e-06
3.0177172e-06
3.751139e-06
5.1394212e-06
6.1462777e-06
7.5718154e-06
8.8088072e-06
1.0737485e-05
1.3641068e-05
1.6300593e-05
1.9947633e-05
2.4366254e-05
2.9868552e-05
3.646807e-05
4.3956639e-05
5.703606e-05
4.5868828e-06
3.7501208e-06
2.8865813e-06
2.4177518e-06
2.1565332e-06
1.9856573e-06
1.8218918e-06
1.6350125e-06
1.4786293e-06
1.3277048e-06
1.2298066e-06
1.188788e-06
1.1352593e-06
1.0913391e-06
1.0768941e-06
1.0696607e-06
1.0519024e-06
1.0225214e-06
9.9794704e-07
9.9563481e-07
9.9883577e-07
9.9924515e-07
9.8785777e-07
9.6998873e-07
9.652856e-07
9.6525693e-07
9.8011527e-07
1.0266475e-06
1.0862272e-06
1.1362835e-06
1.1792821e-06
1.2453138e-06
1.3127763e-06
1.3477058e-06
1.4120023e-06
1.5083458e-06
1.6758133e-06
1.8473437e-06
2.1390654e-06
2.426972e-06
2.9778238e-06
3.6973033e-06
5.0727302e-06
6.2872442e-06
7.7996017e-06
9.2278518e-06
1.0797572e-05
1.3401073e-05
1.5653115e-05
1.8757443e-05
2.2607045e-05
2.6017585e-05
3.1328895e-05
3.5143533e-05
4.2612629e-05
4.5840391e-06
3.7428491e-06
2.8805409e-06
2.404456e-06
2.1379103e-06
1.9613364e-06
1.8041746e-06
1.6300514e-06
1.4823045e-06
1.3461116e-06
1.2578786e-06
1.2218352e-06
1.1834855e-06
1.157364e-06
1.1623296e-06
1.1710407e-06
1.1645842e-06
1.1642442e-06
1.1752227e-06
1.2068006e-06
1.2388681e-06
1.2717562e-06
1.2853465e-06
1.3106108e-06
1.3445996e-06
1.3840015e-06
1.4376392e-06
1.5489493e-06
1.6773761e-06
1.7771829e-06
1.8924792e-06
2.0865965e-06
2.2395201e-06
2.2925883e-06
2.3507084e-06
2.4504785e-06
2.6160574e-06
2.9060557e-06
3.2570603e-06
3.5473923e-06
3.8783293e-06
4.4065747e-06
5.5474871e-06
6.9687415e-06
8.7637908e-06
1.0706858e-05
1.21964e-05
1.4329403e-05
1.616938e-05
1.8611032e-05
2.2047428e-05
2.4542392e-05
2.8809562e-05
3.1439762e-05
3.6119163e-05
4.5797583e-06
3.7226404e-06
2.8642822e-06
2.3926251e-06
2.1219426e-06
1.9577876e-06
1.8350484e-06
1.7113634e-06
1.6222718e-06
1.5514084e-06
1.5196943e-06
1.5268458e-06
1.5385934e-06
1.5601988e-06
1.6383952e-06
1.7194924e-06
1.7510101e-06
1.8069634e-06
1.9076386e-06
2.068282e-06
2.1872867e-06
2.3101317e-06
2.3771604e-06
2.5101117e-06
2.6672312e-06
2.8281111e-06
2.9691822e-06
3.2434299e-06
3.5827817e-06
3.8432949e-06
4.1408739e-06
4.6410547e-06
5.0941019e-06
5.2977754e-06
5.5246614e-06
5.7632832e-06
5.9987377e-06
6.4583176e-06
7.0824602e-06
7.7210514e-06
8.0843873e-06
8.5682907e-06
9.387564e-06
1.1065309e-05
1.326299e-05
1.5773674e-05
1.7560364e-05
1.9190342e-05
2.0781544e-05
2.2530032e-05
2.4983094e-05
2.6969402e-05
3.0166594e-05
3.2784612e-05
3.5111891e-05
4.5618224e-06
3.6774658e-06
2.9040988e-06
2.5078965e-06
2.2745995e-06
2.1861107e-06
2.1924629e-06
2.2543835e-06
2.391047e-06
2.5449052e-06
2.7071848e-06
2.8632029e-06
2.9746243e-06
3.1041549e-06
3.4027254e-06
3.6551128e-06
3.7724487e-06
3.965665e-06
4.279169e-06
4.725608e-06
5.0331371e-06
5.3352593e-06
5.5219564e-06
5.8835416e-06
6.3500094e-06
6.7870448e-06
7.1424188e-06
7.7608393e-06
8.6073757e-06
9.3032949e-06
9.9767466e-06
1.1053951e-05
1.2281432e-05
1.312253e-05
1.4232694e-05
1.5351709e-05
1.5924493e-05
1.6634041e-05
1.7672274e-05
1.9170862e-05
2.0376363e-05
2.1552223e-05
2.2476894e-05
2.4540588e-05
2.770149e-05
3.0887982e-05
3.3209614e-05
3.4418421e-05
3.5620656e-05
3.647868e-05
3.7895003e-05
3.9496891e-05
4.057997e-05
4.2625426e-05
4.2657549e-05
4.6878746e-06
4.4165192e-06
4.108883e-06
3.9489862e-06
3.9431017e-06
4.027586e-06
4.2711592e-06
4.8799479e-06
5.5007383e-06
6.0620625e-06
6.6037002e-06
6.9920159e-06
7.2031428e-06
7.5160656e-06
8.0935176e-06
8.5728093e-06
8.8648462e-06
9.3155062e-06
9.9639561e-06
1.0715622e-05
1.1229022e-05
1.1798893e-05
1.2248496e-05
1.2926734e-05
1.3834043e-05
1.4653543e-05
1.5394032e-05
1.6438619e-05
1.8037947e-05
1.9592517e-05
2.0717897e-05
2.2299216e-05
2.3883117e-05
2.5451923e-05
2.7582868e-05
2.9977306e-05
3.1103412e-05
3.1905746e-05
3.2881866e-05
3.4670681e-05
3.7428621e-05
4.0461984e-05
4.2969175e-05
4.404275e-05
4.4630586e-05
4.5000368e-05
4.5451525e-05
4.5843566e-05
4.6364433e-05
4.7223574e-05
4.8961345e-05
5.0754489e-05
5.2620071e-05
5.4735956e-05
5.5923037e-05
7.9869599e-06
1.4372261e-05
1.5686872e-05
1.5428875e-05
1.5109788e-05
1.4916803e-05
1.4856685e-05
1.5097456e-05
1.5234631e-05
1.531803e-05
1.5625875e-05
1.5784012e-05
1.5796164e-05
1.5878719e-05
1.6614634e-05
1.7069515e-05
1.7216682e-05
1.7406709e-05
1.8020006e-05
1.8723227e-05
1.9109309e-05
1.9555696e-05
2.003267e-05
2.0596651e-05
2.131399e-05
2.1956123e-05
2.2570734e-05
2.3382227e-05
2.4316208e-05
2.5714087e-05
2.6714545e-05
2.7528131e-05
2.8295448e-05
2.9484203e-05
3.1412453e-05
3.3696926e-05
3.4970874e-05
3.5243293e-05
3.5653342e-05
3.6993644e-05
3.9093055e-05
4.23235e-05
4.5167913e-05
4.6823206e-05
4.7050277e-05
4.6540044e-05
4.6188079e-05
4.6310514e-05
4.6247218e-05
4.6756559e-05
4.8008258e-05
4.9292277e-05
5.1337226e-05
5.4153603e-05
5.6460398e-05
5.8257746e-05
8.9969608e-05
8.0233916e-05
6.9833261e-05
6.4863725e-05
6.1408876e-05
5.8547094e-05
5.5410094e-05
5.2133903e-05
4.9391344e-05
4.8610283e-05
4.9744396e-05
5.1360626e-05
5.3074964e-05
5.2526868e-05
5.013537e-05
4.8143418e-05
4.6563906e-05
4.4236718e-05
4.2304445e-05
4.1599458e-05
4.1746913e-05
4.3195826e-05
4.5939526e-05
4.8308269e-05
4.8867581e-05
4.6954733e-05
4.4364608e-05
4.3190917e-05
4.3714022e-05
4.4162041e-05
4.1775556e-05
3.7915323e-05
3.6473916e-05
3.5661079e-05
3.6767819e-05
4.0225848e-05
4.252176e-05
4.2155211e-05
4.0839411e-05
4.1859833e-05
4.4853406e-05
5.2247915e-05
6.208792e-05
6.9675775e-05
7.3067297e-05
7.2223291e-05
6.9382384e-05
6.8780061e-05
6.9515542e-05
7.1282889e-05
7.3411674e-05
7.5862256e-05
7.7125278e-05
7.9212269e-05
8.0443651e-05
5.8166301e-05
5.6802256e-05
4.4177259e-05
3.8383314e-05
4.0594092e-05
4.835124e-05
6.4543865e-05
8.3709375e-05
0.00011172481
0.00016335575
0.00023687762
0.00030313248
0.00033151824
0.00032464927
0.00028081004
0.00025879836
0.0002644546
0.00030991704
0.0003375806
0.00035115396
0.00032901852
0.00027495844
0.00020517993
0.00017384747
0.00018221413
0.0002270892
8.0303423e-05
5.8019447e-05
5.665959e-05
4.7535521e-05
4.3417812e-05
4.6285111e-05
5.5531962e-05
7.4465827e-05
0.00010425806
0.00015491181
0.00022158619
0.00029495654
0.00036513023
0.00040267625
0.00040603917
0.00037363855
0.00033690853
0.00033209468
0.00037709416
0.00043673363
0.00044259493
0.00039895224
0.00032125439
0.00023515598
0.00020155963
0.00021228869
0.00026951835
7.6559425e-05
5.6044842e-05
5.7199273e-05
5.0862173e-05
4.7364978e-05
5.1900081e-05
6.6332949e-05
9.3491621e-05
0.00014245214
0.00020616241
0.00027216313
0.00033864395
0.00040878417
0.00046507568
0.00048441807
0.00047103223
0.00043253157
0.00042277431
0.00046026844
0.00055002944
0.00056264797
0.00049962428
0.00038456744
0.00028726881
0.0002497597
0.00026357285
0.00032386816
7.2989768e-05
5.363005e-05
5.7168536e-05
5.4601939e-05
5.3666356e-05
6.0525489e-05
8.1723414e-05
0.00012189226
0.00018010398
0.00023743482
0.00029255641
0.00035430987
0.00042536271
0.00049474987
0.00053388565
0.00053805539
0.0005218186
0.00052081383
0.0005517698
0.00064667753
0.00069598279
0.00063363232
0.00047213634
0.00034255933
0.00031726919
0.00033995212
0.0004075592
7.4539578e-05
5.2325658e-05
5.8820225e-05
5.966219e-05
6.1984254e-05
7.2904525e-05
0.00010266225
0.00015097922
0.00020440508
0.00025032672
0.0003005988
0.0003659293
0.00043619168
0.00050393899
0.00055405082
0.00058166014
0.00059581327
0.00061717622
0.00065393744
0.00074328109
0.00081364162
0.00077533169
0.0005935189
0.0004096635
0.00039848839
0.00044543732
0.00051077326
7.9887041e-05
5.2320591e-05
6.2122175e-05
6.6501357e-05
7.2284785e-05
8.809792e-05
0.00012290917
0.00016992396
0.00021528245
0.00025738191
0.00031672748
0.00039188783
0.00045775571
0.00051710573
0.00056824858
0.00061560845
0.00065598964
0.00070164442
0.00076839907
0.0008425656
0.00090747809
0.00089559595
0.00073799944
0.0005090433
0.00049499867
0.00054864212
0.00062149358
8.528896e-05
5.446396e-05
6.7134042e-05
7.4366998e-05
8.3339993e-05
0.00010285023
0.00013531738
0.00018251366
0.00022586954
0.00027503281
0.00035376112
0.00043986354
0.00050213123
0.00055185627
0.00059938948
0.0006558121
0.00070845661
0.00077719781
0.00085995972
0.00093094189
0.001005207
0.0010136431
0.00086818899
0.00060624277
0.00057767341
0.00063287628
0.00071672137
9.1704232e-05
5.7184498e-05
7.2061186e-05
8.2713988e-05
9.3887693e-05
0.00011547494
0.0001495942
0.00020139367
0.00024756545
0.00031504714
0.00041984756
0.00052329104
0.0005829866
0.00062054691
0.00065775745
0.00071110422
0.00077311284
0.00084394946
0.0009201244
0.0010001487
0.0011139519
0.0011467449
0.0009842959
0.00068080011
0.00063506577
0.00068913497
0.00078806259
9.9192139e-05
5.6576752e-05
7.2869632e-05
8.9779011e-05
0.0001024468
0.00012701152
0.00016967678
0.0002275719
0.00028435516
0.00038385381
0.00052940111
0.00064833924
0.00070176272
0.00072558754
0.00075596849
0.00081224251
0.00087693743
0.00092686606
0.0009879514
0.0010876322
0.0012369895
0.0012834419
0.0010987636
0.00074866126
0.00070187149
0.0007636146
0.00087347974
0.00010345982
5.389499e-05
6.889154e-05
9.2155736e-05
0.00010754719
0.00013808384
0.00019105158
0.00024799138
0.00033049001
0.00049066593
0.00068575955
0.00081086772
0.00085961879
0.00087119334
0.00090214708
0.00096650389
0.0010394844
0.0010721384
0.0011110066
0.0012199206
0.0013927827
0.001430953
0.0012264318
0.00082672004
0.00079763814
0.00090767256
0.0010377646
0.00010420605
5.2310868e-05
6.3894307e-05
9.4105595e-05
0.00011440894
0.00015631991
0.00021208017
0.0002783432
0.00041421959
0.00064412134
0.00085892068
0.00098433962
0.0010307698
0.0010425903
0.0010825803
0.0011681235
0.001259171
0.0012872192
0.0013175513
0.0014417661
0.0016301035
0.0016356923
0.0013882531
0.00092335988
0.00092356056
0.0011041909
0.0012820054
0.00010370156
5.2064151e-05
6.1902034e-05
9.7401375e-05
0.00012944062
0.000180425
0.00023885008
0.00034140262
0.00056599163
0.00082411166
0.0010189532
0.0011270445
0.0011791153
0.0012079433
0.0012687325
0.0013727684
0.001482844
0.001534053
0.0015886315
0.0017469486
0.0019676954
0.0019477202
0.0016297589
0.0010716633
0.001063612
0.0013049224
0.0015532182
0.00010283758
5.3854761e-05
6.4691566e-05
0.00010644334
0.00015834596
0.0002140666
0.00029546286
0.00048491227
0.0007574311
0.00099144302
0.0011565224
0.0012561896
0.0013213118
0.0013712094
0.0014511514
0.0015585996
0.0016649744
0.0017404925
0.0018415336
0.0020553255
0.0023527253
0.0023558086
0.0020067741
0.0013233843
0.0012281245
0.0014952201
0.0017976706
0.00010913738
5.6454616e-05
7.0821659e-05
0.00012644758
0.00019520965
0.00026362589
0.00041224997
0.00068241078
0.00094836625
0.0011621373
0.0013093375
0.0014114946
0.0014860331
0.0015559326
0.0016605999
0.0017760345
0.0018725922
0.0019298886
0.0020167026
0.0022455708
0.0026279776
0.0027486001
0.0024922735
0.0017142789
0.0014575194
0.0017013066
0.0020028738
0.00011577788
6.0897142e-05
8.1084614e-05
0.00016042164
0.00023384837
0.0003494351
0.00059100605
0.00087494284
0.0011473385
0.001363219
0.0015148339
0.0016182449
0.0016984679
0.0017813987
0.0019024033
0.0020227811
0.0020925419
0.002114296
0.0021648452
0.0023496784
0.0027440752
0.0029652812
0.0029133397
0.0022329197
0.0017972443
0.0019847818
0.0022574923
0.00012712561
6.6777335e-05
9.9876278e-05
0.00019723798
0.00027768559
0.00045230515
0.00072599818
0.0010269693
0.0013148041
0.0015607781
0.0017496139
0.0018904854
0.0020106923
0.002120807
0.0022434567
0.0023227589
0.0023363771
0.002298508
0.002300974
0.0024381064
0.0028085008
0.0031012438
0.0031668435
0.0027379886
0.0022320882
0.0023855429
0.0025873415
0.000135919
7.9774276e-05
0.00013103182
0.00021324674
0.00031271971
0.00052253354
0.00081370262
0.0011299669
0.0014469146
0.0017361468
0.0019760666
0.0021677672
0.0023281772
0.0024741521
0.0026295395
0.0027187473
0.002688276
0.0025855137
0.0025008103
0.00256611
0.0028625466
0.0031817847
0.0033719051
0.0031450092
0.0026530809
0.0028309738
0.0030265144
0.00014140216
9.658849e-05
0.0001544636
0.00022356482
0.00034501391
0.00057910543
0.00088622459
0.0012271184
0.0015760401
0.0019015524
0.0021792583
0.00240416
0.0025909206
0.0027600904
0.0029432795
0.003085916
0.0031131389
0.0030029033
0.0028863351
0.0028487369
0.0030210051
0.003308908
0.0035289285
0.003454295
0.0030349975
0.003220766
0.0035046648
0.00014138579
0.00011295477
0.0001694731
0.00023923324
0.00039101818
0.00066165648
0.00099356187
0.0013552557
0.0017217659
0.0020627308
0.002350183
0.0025837083
0.002783907
0.0029747795
0.0031728377
0.0033486797
0.0034550681
0.0034399627
0.0033630526
0.0033119659
0.0033950772
0.0036109515
0.0037798765
0.0037381439
0.0034438705
0.0035611275
0.0039486829
0.00014860527
0.00012726263
0.000181603
0.00027244387
0.00047695441
0.0008012703
0.0011664343
0.0015406634
0.0019031193
0.0022254316
0.00249158
0.0027143668
0.0029105252
0.0031154153
0.0033387448
0.0035567911
0.0037064169
0.0037677422
0.0037813607
0.0038262905
0.0039546507
0.004140916
0.0042175449
0.0041068857
0.0038718297
0.0038894191
0.0043412862
0.00016730382
0.00015275412
0.00021415593
0.0003542161
0.00065175256
0.0010351945
0.0014251692
0.0018000515
0.002137614
0.0024208629
0.0026462798
0.0028369755
0.0030171028
0.0032314716
0.0034795106
0.0037194409
0.0039267575
0.0040554937
0.0041578031
0.0043106865
0.0045591349
0.0047774335
0.0047898006
0.0046487433
0.0043579906
0.004244653
0.0046828452
0.00020070683
0.00018630989
0.00027815814
0.00050801164
0.00091425139
0.0013367018
0.0017320824
0.0020917614
0.0024035016
0.0026507576
0.002847585
0.0030191176
0.0031978034
0.0034209691
0.003674987
0.0039289957
0.0041638694
0.0043660619
0.0045821781
0.0048371089
0.0051275278
0.0053374324
0.0053348879
0.0052263995
0.0049103198
0.0047134893
0.005047175
0.00024432793
0.00023231989
0.00036973467
0.00071288604
0.0011840299
0.0016163131
0.0020059004
0.0023525358
0.0026494241
0.0028963856
0.0031015498
0.0032901412
0.0034843669
0.0036971677
0.0039401381
0.0042012384
0.0044795629
0.0047803849
0.0051115388
0.0054363747
0.0056690316
0.005751087
0.0057496007
0.0057110665
0.0054821356
0.0053330391
0.0055619157
0.00029159841
0.00027521262
0.00045323053
0.00087580953
0.0013532953
0.0017825269
0.0021708669
0.0025235055
0.0028411676
0.0031224433