/*--------------------------------*- C++ -*----------------------------------*\
| =========                 |                                                 |
| \\      /  F ield         | OpenFOAM: The Open Source CFD Toolbox           |
|  \\    /   O peration     | Version:  2406                                  |
|   \\  /    A nd           | Website:  www.openfoam.com                      |
|    \\/     M anipulation  |                                                 |
\*---------------------------------------------------------------------------*/
FoamFile
{
    version     2.0;
    format      ascii;
    arch        "LSB;label=32;scalar=64";
    class       volScalarField;
    location    "18";
    object      nut;
}
// * * * * * * * * * * * * * * * * * * * * * * * * * * * * * * * * * * * * * //

dimensions      [0 2 -1 0 0 0 0];

internalField   nonuniform List<scalar> 
62344
(
1.0425878e-06
1.0725201e-06
1.004007e-06
9.8416665e-07
9.9712765e-07
1.0182039e-06
1.0163437e-06
9.9388197e-07
9.6270047e-07
9.3677445e-07
9.2738161e-07
9.3174348e-07
9.3919861e-07
9.5528885e-07
9.7031776e-07
9.748085e-07
9.8878014e-07
1.0024113e-06
1.0099385e-06
1.0018217e-06
1.0000264e-06
1.0095204e-06
1.0170627e-06
1.0364286e-06
1.0643864e-06
1.0851023e-06
1.1127029e-06
1.1464045e-06
1.2010013e-06
1.2926077e-06
1.3950655e-06
1.4855107e-06
1.6601482e-06
1.8140527e-06
2.0562927e-06
2.2657102e-06
2.6623311e-06
3.066596e-06
3.611358e-06
4.4129216e-06
4.9025323e-06
6.2077056e-06
7.2690477e-06
8.7017949e-06
1.0436123e-05
1.2308766e-05
1.4348711e-05
1.5711615e-05
1.6239598e-05
1.6625216e-05
1.7474226e-05
1.9474946e-05
2.3586791e-05
2.7427761e-05
3.5662474e-05
1.0420178e-06
1.0743871e-06
1.0046424e-06
9.826e-07
9.9637325e-07
1.0175732e-06
1.0174591e-06
9.9617459e-07
9.6229394e-07
9.3655602e-07
9.2693091e-07
9.2712774e-07
9.3540055e-07
9.5344616e-07
9.6849483e-07
9.7159911e-07
9.82198e-07
9.9406213e-07
1.0017101e-06
9.9431438e-07
9.891341e-07
9.9303462e-07
9.9644608e-07
1.0094382e-06
1.0287938e-06
1.0504786e-06
1.0739391e-06
1.1038754e-06
1.1645964e-06
1.2415836e-06
1.3176573e-06
1.3885538e-06
1.5445156e-06
1.6522232e-06
1.8263974e-06
1.9989194e-06
2.3440166e-06
2.6343388e-06
3.1817288e-06
3.6088576e-06
4.3954239e-06
5.4791391e-06
7.0278022e-06
8.8817208e-06
1.1119873e-05
1.417369e-05
1.6194034e-05
1.7582191e-05
1.9145542e-05
1.9976391e-05
2.0030787e-05
2.056273e-05
2.2669939e-05
2.4894865e-05
2.9780289e-05
1.0414834e-06
1.0773796e-06
1.0064712e-06
9.8324744e-07
9.9697611e-07
1.0180892e-06
1.0196468e-06
9.9757892e-07
9.6599673e-07
9.3957443e-07
9.2952935e-07
9.2631891e-07
9.3774619e-07
9.5279538e-07
9.6751697e-07
9.742111e-07
9.857531e-07
9.9572945e-07
1.003037e-06
9.9443572e-07
9.9196161e-07
9.890075e-07
9.8891423e-07
9.9831395e-07
1.017281e-06
1.0412063e-06
1.0649139e-06
1.0959866e-06
1.1587115e-06
1.2304404e-06
1.2996567e-06
1.3713523e-06
1.5153364e-06
1.6098221e-06
1.7791786e-06
1.9564165e-06
2.2557506e-06
2.462986e-06
2.94434e-06
3.2580639e-06
3.9539228e-06
4.7954968e-06
6.6876421e-06
8.3685745e-06
1.1414052e-05
1.4318464e-05
1.6741862e-05
1.841553e-05
2.116184e-05
2.3503076e-05
2.4928303e-05
2.4639475e-05
2.4967032e-05
2.5884274e-05
2.8209547e-05
1.0407356e-06
1.0787615e-06
1.0075763e-06
9.8314067e-07
9.9663202e-07
1.0197964e-06
1.0211748e-06
9.997886e-07
9.6681648e-07
9.4057876e-07
9.28529e-07
9.2632119e-07
9.3491869e-07
9.489015e-07
9.6536102e-07
9.7649987e-07
9.8713285e-07
9.9736428e-07
1.0069991e-06
1.0091675e-06
9.916731e-07
9.8417696e-07
9.8486642e-07
9.9450141e-07
1.0169445e-06
1.0443395e-06
1.0640776e-06
1.0941673e-06
1.1632793e-06
1.229474e-06
1.2893499e-06
1.3678256e-06
1.4858584e-06
1.5766628e-06
1.7506473e-06
2.0080773e-06
2.2466988e-06
2.4471563e-06
2.9027399e-06
3.1691176e-06
3.871551e-06
4.666151e-06
6.252009e-06
7.717193e-06
1.0914577e-05
1.327704e-05
1.7316943e-05
1.953981e-05
2.2756252e-05
2.5981635e-05
2.9442632e-05
3.1744684e-05
3.2007794e-05
3.2314536e-05
3.1537094e-05
1.0405338e-06
1.0803879e-06
1.0086329e-06
9.8292793e-07
9.9530424e-07
1.019562e-06
1.0249322e-06
1.0031701e-06
9.7061037e-07
9.4156003e-07
9.2851516e-07
9.2927994e-07
9.3432138e-07
9.5079086e-07
9.7017315e-07
9.7705671e-07
9.854385e-07
9.9710845e-07
1.0071973e-06
1.0094023e-06
9.9198359e-07
9.8029057e-07
9.8177792e-07
9.9291927e-07
1.0151173e-06
1.0364336e-06
1.0548119e-06
1.0828311e-06
1.1481384e-06
1.2138959e-06
1.276059e-06
1.3600379e-06
1.4394867e-06
1.5228705e-06
1.6765935e-06
2.0034849e-06
2.2192688e-06
2.4647241e-06
2.8932865e-06
3.1406543e-06
3.7040867e-06
4.7176119e-06
5.9627727e-06
7.2237281e-06
1.0554033e-05
1.3238103e-05
1.7590307e-05
1.9920058e-05
2.2619884e-05
2.8394303e-05
3.1161654e-05
3.5964028e-05
3.9217681e-05
4.2397461e-05
4.0975192e-05
1.0399531e-06
1.0824662e-06
1.0106948e-06
9.8478835e-07
9.9584396e-07
1.0193697e-06
1.0242285e-06
1.0059133e-06
9.7378976e-07
9.4604659e-07
9.3262141e-07
9.3166761e-07
9.360825e-07
9.5002401e-07
9.7255322e-07
9.8041046e-07
9.8661459e-07
9.9656627e-07
1.0107404e-06
1.0082203e-06
9.9830698e-07
9.8325403e-07
9.8264742e-07
9.9332301e-07
1.0079613e-06
1.0288955e-06
1.0448993e-06
1.068932e-06
1.1349521e-06
1.2025277e-06
1.269758e-06
1.3442269e-06
1.4165986e-06
1.4911841e-06
1.638282e-06
1.9667083e-06
2.1901934e-06
2.4816314e-06
2.9428281e-06
3.1849932e-06
3.6571072e-06
4.6130554e-06
5.476921e-06
6.6680946e-06
9.5609139e-06
1.2973082e-05
1.5990372e-05
1.9429155e-05
2.3630845e-05
2.9639481e-05
3.236932e-05
3.8294314e-05
4.1566403e-05
4.7018526e-05
4.8871734e-05
1.0396086e-06
1.0846541e-06
1.0115035e-06
9.8459036e-07
9.9713815e-07
1.0216886e-06
1.0248393e-06
1.0076817e-06
9.7484615e-07
9.4857145e-07
9.3273717e-07
9.3216548e-07
9.3852621e-07
9.4965617e-07
9.7206597e-07
9.859177e-07
9.8965564e-07
9.9845058e-07
1.0128395e-06
1.0179721e-06
1.0005836e-06
9.8901425e-07
9.8824957e-07
9.923883e-07
1.0036681e-06
1.025976e-06
1.0408892e-06
1.0615565e-06
1.1262475e-06
1.1953641e-06
1.268238e-06
1.340796e-06
1.4126461e-06
1.4796621e-06
1.6052738e-06
1.8410502e-06
2.0635314e-06
2.404989e-06
2.9356995e-06
3.1770964e-06
3.6941168e-06
4.400738e-06
5.2385963e-06
6.4490275e-06
8.6249897e-06
1.1530372e-05
1.413139e-05
1.9066915e-05
2.3639215e-05
2.8009716e-05
3.1209339e-05
3.7400314e-05
4.0618824e-05
4.6885924e-05
5.0250705e-05
1.0391869e-06
1.0863494e-06
1.0122599e-06
9.8331359e-07
9.9596988e-07
1.0216481e-06
1.028361e-06
1.0098426e-06
9.7805426e-07
9.4885061e-07
9.3276197e-07
9.3291544e-07
9.3870396e-07
9.5054243e-07
9.704211e-07
9.8739598e-07
9.9432106e-07
1.000065e-06
1.0100113e-06
1.0170059e-06
1.0025344e-06
9.9190905e-07
9.9112763e-07
9.9161556e-07
1.0002371e-06
1.0198131e-06
1.0349718e-06
1.0538945e-06
1.1049665e-06
1.1780129e-06
1.2671812e-06
1.3476944e-06
1.4270869e-06
1.4825903e-06
1.6160631e-06
1.761261e-06
1.98579e-06
2.3082013e-06
2.7908191e-06
3.035174e-06
3.6038936e-06
4.2438122e-06
4.999323e-06
6.5443203e-06
8.2238579e-06
9.7257142e-06
1.3086293e-05
1.7076083e-05
2.0102477e-05
2.3913581e-05
2.9052802e-05
3.4674184e-05
3.7830196e-05
4.4351776e-05
4.8673285e-05
1.0386134e-06
1.0877047e-06
1.0136807e-06
9.8443666e-07
9.9489095e-07
1.0212082e-06
1.0295779e-06
1.0128361e-06
9.8035611e-07
9.5016362e-07
9.3657e-07
9.3314477e-07
9.3458404e-07
9.4893987e-07
9.6573037e-07
9.8633265e-07
9.9601798e-07
9.9948869e-07
1.0066008e-06
1.0133737e-06
1.0095261e-06
9.9667161e-07
9.9106283e-07
9.9437752e-07
1.0002402e-06
1.015218e-06
1.0340457e-06
1.0546045e-06
1.0895086e-06
1.153462e-06
1.2612773e-06
1.347978e-06
1.4333011e-06
1.4948034e-06
1.6191966e-06
1.7605105e-06
1.9369961e-06
2.2238566e-06
2.5441734e-06
2.8189951e-06
3.4710087e-06
4.162222e-06
4.9085237e-06
6.6041669e-06
7.8259785e-06
9.2118937e-06
1.1879349e-05
1.4455526e-05
1.7003406e-05
2.0042668e-05
2.39339e-05
2.9703274e-05
3.3524665e-05
3.9970952e-05
4.50616e-05
1.0380581e-06
1.0888783e-06
1.0143641e-06
9.8502022e-07
9.9551758e-07
1.0220732e-06
1.0295535e-06
1.0146758e-06
9.8271982e-07
9.5218061e-07
9.4000598e-07
9.3538716e-07
9.3626007e-07
9.5056889e-07
9.6822172e-07
9.8908052e-07
9.9524055e-07
1.0032101e-06
1.0121178e-06
1.0166429e-06
1.010076e-06
9.9824663e-07
9.911106e-07
9.9734436e-07
1.0014823e-06
1.0144204e-06
1.0376566e-06
1.0588646e-06
1.0866459e-06
1.14039e-06
1.2472373e-06
1.3351486e-06
1.4312237e-06
1.5160554e-06
1.6361998e-06
1.796315e-06
1.9511738e-06
2.1926598e-06
2.3875903e-06
2.7170106e-06
3.1882765e-06
4.0726852e-06
4.8171208e-06
6.4465591e-06
7.4711266e-06
8.8934016e-06
1.0789602e-05
1.3198813e-05
1.5463897e-05
1.8173898e-05
2.1024338e-05
2.5673005e-05
2.9075099e-05
3.4607142e-05
3.935502e-05
1.0378393e-06
1.0899199e-06
1.0146748e-06
9.8346494e-07
9.9489264e-07
1.0213473e-06
1.0302479e-06
1.0148971e-06
9.8476937e-07
9.5231412e-07
9.3856856e-07
9.3569988e-07
9.3863239e-07
9.5448573e-07
9.703769e-07
9.8961648e-07
1.001528e-06
1.0060456e-06
1.0155473e-06
1.0210031e-06
1.0073732e-06
9.9990681e-07
9.9608434e-07
9.9829529e-07
9.9914516e-07
1.0097657e-06
1.0304243e-06
1.0553325e-06
1.0838784e-06
1.1413304e-06
1.2341745e-06
1.3197974e-06
1.4213658e-06
1.5201667e-06
1.6399821e-06
1.8147231e-06
1.9652974e-06
2.1804712e-06
2.3585505e-06
2.694931e-06
3.0606661e-06
3.8854283e-06
4.7247053e-06
6.2276866e-06
7.2536465e-06
8.8120546e-06
1.0639776e-05
1.2887784e-05
1.4993768e-05
1.7550547e-05
2.0169278e-05
2.4552783e-05
2.7969147e-05
3.3429177e-05
3.755519e-05
1.0375494e-06
1.0910417e-06
1.0156245e-06
9.8300551e-07
9.9363849e-07
1.0200608e-06
1.0317767e-06
1.0164821e-06
9.8582466e-07
9.5258199e-07
9.3597576e-07
9.3239136e-07
9.3791882e-07
9.5271829e-07
9.6670371e-07
9.8584057e-07
1.0047565e-06
1.0062588e-06
1.0127531e-06
1.018584e-06
1.0071678e-06
1.0053914e-06
1.0010104e-06
1.0006606e-06
9.9844691e-07
1.0074594e-06
1.0221876e-06
1.045059e-06
1.0789494e-06
1.1424052e-06
1.2222526e-06
1.3143277e-06
1.4149364e-06
1.514557e-06
1.6318346e-06
1.7994162e-06
1.9452536e-06
2.1710917e-06
2.3630301e-06
2.7054632e-06
3.0428566e-06
3.810758e-06
4.6509298e-06
6.0337342e-06
7.1605847e-06
8.7809207e-06
1.0736107e-05
1.295734e-05
1.5221148e-05
1.769018e-05
2.0534135e-05
2.5104085e-05
2.9527448e-05
3.589653e-05
3.9806057e-05
1.0371324e-06
1.0919702e-06
1.0169604e-06
9.8515432e-07
9.932304e-07
1.0213077e-06
1.0334714e-06
1.0195082e-06
9.8903123e-07
9.5550151e-07
9.3738207e-07
9.3311765e-07
9.3528988e-07
9.4770022e-07
9.6267197e-07
9.8226149e-07
1.0066895e-06
1.0024516e-06
1.0019617e-06
1.0092491e-06
1.0121662e-06
1.0119076e-06
1.003962e-06
1.0036478e-06
1.0035853e-06
1.0109683e-06
1.0262063e-06
1.0473273e-06
1.0796534e-06
1.1325808e-06
1.2030906e-06
1.3043726e-06
1.410015e-06
1.4978057e-06
1.6024688e-06
1.7553237e-06
1.8985446e-06
2.1355511e-06
2.3575208e-06
2.7355177e-06
3.0655075e-06
3.7929561e-06
4.6652246e-06
5.8935795e-06
7.0270022e-06
8.5971807e-06
1.0698907e-05
1.2908017e-05
1.518772e-05
1.7449058e-05
2.0825236e-05
2.6026023e-05
3.1930542e-05
3.8694572e-05
4.4032275e-05
1.0366851e-06
1.0927249e-06
1.01766e-06
9.8671369e-07
9.9347541e-07
1.0225315e-06
1.034026e-06
1.0211981e-06
9.9319059e-07
9.5777925e-07
9.4181694e-07
9.3931247e-07
9.3986326e-07
9.4381808e-07
9.6371851e-07
9.8466145e-07
1.0040062e-06
1.0016875e-06
1.0002256e-06
1.0074704e-06
1.0127363e-06
1.0128115e-06
1.0002355e-06
1.001788e-06
1.0043391e-06
1.0120781e-06
1.030809e-06
1.0557172e-06
1.083425e-06
1.121498e-06
1.1905882e-06
1.2907241e-06
1.402687e-06
1.4733929e-06
1.5663963e-06
1.7254202e-06
1.8616131e-06
2.0777588e-06
2.3233301e-06
2.6934512e-06
3.0288558e-06
3.6989043e-06
4.6216508e-06
5.6651365e-06
6.7798262e-06
8.2604879e-06
1.0531327e-05
1.279798e-05
1.5045693e-05
1.7144512e-05
2.0792586e-05
2.6087342e-05
3.2188676e-05
3.6650197e-05
3.5719886e-05
1.0363281e-06
1.0935017e-06
1.0177168e-06
9.8537439e-07
9.9293934e-07
1.0214373e-06
1.0335256e-06
1.0210332e-06
9.9373149e-07
9.5784716e-07
9.4155428e-07
9.4061988e-07
9.4076456e-07
9.4617834e-07
9.6690346e-07
9.8900994e-07
9.9891383e-07
1.0034336e-06
1.0086118e-06
1.0139395e-06
1.014832e-06
1.0070397e-06
9.9157378e-07
9.9210142e-07
9.9586365e-07
1.0049813e-06
1.0252349e-06
1.054109e-06
1.0837532e-06
1.1185854e-06
1.1869261e-06
1.2726322e-06
1.3826355e-06
1.456299e-06
1.5546901e-06
1.7148767e-06
1.8357815e-06
2.018687e-06
2.2551866e-06
2.5985432e-06
3.0030808e-06
3.4560394e-06
4.3948111e-06
5.1498189e-06
6.1825442e-06
7.4161979e-06
9.5407211e-06
1.1526503e-05
1.3369968e-05
1.4798089e-05
1.8075552e-05
2.2971896e-05
2.8747706e-05
3.0915795e-05
2.8110824e-05
1.0359663e-06
1.0943868e-06
1.0178525e-06
9.831114e-07
9.9180662e-07
1.0188179e-06
1.0326412e-06
1.0207384e-06
9.9147588e-07
9.5689543e-07
9.3606076e-07
9.3349791e-07
9.3496053e-07
9.4660175e-07
9.6882803e-07
9.8667997e-07
9.9387517e-07
1.0016764e-06
1.0118473e-06
1.0151159e-06
1.0091225e-06
9.9796724e-07
9.8619709e-07
9.7856243e-07
9.7871546e-07
9.8575036e-07
1.0000095e-06
1.0267724e-06
1.0744159e-06
1.1143651e-06
1.1808687e-06
1.2442869e-06
1.3410938e-06
1.4272475e-06
1.5350894e-06
1.6938959e-06
1.7982263e-06
1.9399677e-06
2.1586221e-06
2.3997898e-06
2.9189056e-06
3.2058925e-06
3.8898841e-06
4.3898727e-06
5.2286251e-06
5.9955229e-06
7.5233689e-06
8.9697757e-06
1.0322239e-05
1.0953571e-05
1.2833139e-05
1.6249701e-05
2.1370494e-05
2.6795705e-05
2.4093828e-05
1.0355329e-06
1.0952484e-06
1.0183819e-06
9.8232842e-07
9.9114701e-07
1.0174118e-06
1.0329987e-06
1.0216262e-06
9.9057526e-07
9.5730577e-07
9.3407739e-07
9.2723398e-07
9.323378e-07
9.4280713e-07
9.6168018e-07
9.816188e-07
9.9467742e-07
9.9792831e-07
1.003629e-06
1.0090993e-06
1.0054168e-06
9.971878e-07
9.8581704e-07
9.7286376e-07
9.7058825e-07
9.7611283e-07
9.8722874e-07
1.0096882e-06
1.0550871e-06
1.1001736e-06
1.1647019e-06
1.1278411e-06
1.2876341e-06
1.3677603e-06
1.3370017e-06
1.6282343e-06
1.7309071e-06
1.8070824e-06
2.0208551e-06
2.1764415e-06
2.651383e-06
2.8878369e-06
3.4184822e-06
3.6340908e-06
4.2262427e-06
4.5764691e-06
5.5962129e-06
6.4897085e-06
8.169747e-06
9.1125757e-06
1.0253952e-05
1.2050745e-05
1.4965617e-05
1.8229053e-05
2.2391959e-05
1.0350341e-06
1.0956432e-06
1.0192085e-06
9.8349653e-07
9.9126437e-07
1.0184096e-06
1.0352864e-06
1.0233974e-06
9.9406676e-07
9.60156e-07
9.3620662e-07
9.2932616e-07
9.3306235e-07
9.4084487e-07
9.5683097e-07
9.7592274e-07
9.9615268e-07
9.970685e-07
8.5546557e-07
9.9705623e-07
9.9768591e-07
7.8219273e-07
9.3794464e-07
9.6288226e-07
9.5655576e-07
9.5170006e-07
9.6181526e-07
7.6283222e-07
7.9690888e-07
1.021951e-06
7.6327871e-07
6.6866821e-07
9.8777746e-07
1.2241522e-06
8.7885175e-07
1.3059208e-06
1.5592626e-06
1.4576083e-06
1.7561279e-06
1.8903041e-06
2.2276623e-06
2.4022057e-06
2.8033893e-06
2.9400137e-06
3.3167378e-06
3.5216158e-06
4.2312488e-06
4.8359024e-06
5.7115958e-06
7.100303e-06
8.7286342e-06
1.0091636e-05
1.1826659e-05
1.4174322e-05
1.6574131e-05
1.0345437e-06
1.0962421e-06
1.0197524e-06
9.849721e-07
9.9128742e-07
1.0195609e-06
1.0363621e-06
1.0241723e-06
9.9820266e-07
9.6096993e-07
9.3738149e-07
9.3404472e-07
9.3547464e-07
9.3553595e-07
9.4984809e-07
9.0182507e-07
8.9675926e-07
9.8566409e-07
6.9086083e-07
9.7386781e-07
9.7507009e-07
5.9833045e-07
6.3527315e-07
9.3313921e-07
9.2323575e-07
6.7044757e-07
6.6201465e-07
4.9814853e-07
5.5081843e-07
7.5267969e-07
4.3754576e-07
4.0489016e-07
5.6125406e-07
6.7787459e-07
5.1958681e-07
7.4971489e-07
1.238851e-06
9.3038527e-07
1.1228905e-06
1.5073676e-06
1.7854446e-06
1.9800701e-06
2.4009021e-06
2.5666378e-06
2.7290505e-06
3.0590022e-06
3.5345733e-06
4.1340647e-06
4.7011703e-06
5.4380058e-06
6.4976567e-06
7.985659e-06
9.3074909e-06
1.1477291e-05
1.3458913e-05
1.0340398e-06
1.0957341e-06
1.019314e-06
9.8401795e-07
9.8921084e-07
1.0163567e-06
1.0318636e-06
1.0185965e-06
9.9238229e-07
9.5235124e-07
9.2812155e-07
9.2158451e-07
9.2196777e-07
9.1585421e-07
9.2650627e-07
6.2879907e-07
6.7402371e-07
7.682435e-07
6.5276923e-07
6.8279425e-07
6.8880143e-07
5.7205499e-07
5.4335622e-07
8.7963201e-07
8.8099203e-07
5.2736781e-07
5.3609348e-07
3.9563128e-07
4.5099211e-07
7.174011e-07
2.9314286e-07
2.8039355e-07
3.8467309e-07
3.8646412e-07
3.3048933e-07
4.6110246e-07
1.0364534e-06
5.5152444e-07
7.3295574e-07
9.9031534e-07
1.2651552e-06
1.6792341e-06
2.1147071e-06
2.3263113e-06
2.1249155e-06
2.6692749e-06
3.2011302e-06
3.7519398e-06
4.1847079e-06
4.735467e-06
5.4383892e-06
6.2641271e-06
7.2709236e-06
8.2112514e-06
1.0273436e-05
1.0332574e-06
1.0952334e-06
1.017296e-06
9.7891841e-07
9.8147624e-07
1.0032079e-06
1.0149225e-06
9.9934516e-07
9.7122697e-07
9.2959332e-07
9.0319878e-07
8.9367845e-07
8.9066738e-07
8.8569364e-07
8.7176528e-07
5.3995592e-07
6.5202383e-07
5.3565044e-07
9.1058111e-07
5.7397133e-07
4.8108601e-07
6.0551774e-07
6.0493284e-07
8.7560927e-07
8.190631e-07
5.3324386e-07
7.0589409e-07
4.6606201e-07
5.4285677e-07
9.3964418e-07
2.683871e-07
2.5984198e-07
3.7340595e-07
3.1086477e-07
2.7782102e-07
3.8409899e-07
7.3982203e-07
3.8612534e-07
5.2025929e-07
6.22692e-07
7.3372159e-07
1.096581e-06
1.8094617e-06
2.0965169e-06
1.8561866e-06
2.2044817e-06
2.9493718e-06
3.413406e-06
3.7822073e-06
4.241352e-06
4.8563699e-06
5.3096355e-06
6.0986588e-06
6.5134288e-06
7.6132213e-06
1.0306766e-06
1.0880767e-06
1.0072595e-06
9.6273417e-07
9.5770028e-07
9.7165329e-07
9.8055573e-07
9.6705431e-07
9.4198592e-07
9.0586713e-07
8.8278525e-07
8.745122e-07
8.7425283e-07
8.7531248e-07
6.9326819e-07
6.3007543e-07
9.1864928e-07
5.8306684e-07
9.420653e-07
5.840376e-07
4.5898083e-07
7.787695e-07
9.9535177e-07
1.0038631e-06
1.0171071e-06
6.9536668e-07
1.0407921e-06
8.0288476e-07
8.8218641e-07
1.1549387e-06
3.8630387e-07
3.780745e-07
5.536927e-07
4.3222798e-07
3.9414275e-07
5.8643507e-07
8.5300505e-07
4.266897e-07
5.7076623e-07
6.004207e-07
5.5065765e-07
7.6631732e-07
1.7186188e-06
1.9875107e-06
1.643486e-06
1.9684868e-06
2.8804469e-06
3.2198909e-06
3.4957091e-06
3.7189795e-06
3.9530494e-06
4.6609131e-06
5.2840364e-06
5.6016551e-06
6.27553e-06
1.0185811e-06
1.0629443e-06
9.7817544e-07
9.3071872e-07
9.189892e-07
9.3062168e-07
9.4565212e-07
9.4451617e-07
9.3796037e-07
9.248717e-07
9.2350607e-07
9.2857847e-07
9.3941288e-07
9.5308979e-07
6.9098981e-07
7.2116521e-07
1.0369165e-06
1.0650475e-06
1.0077757e-06
7.3062852e-07
6.09391e-07
8.7825392e-07
1.2369596e-06
1.2740265e-06
1.3154937e-06
1.0588221e-06
1.3742021e-06
1.3837336e-06
1.4329133e-06
1.5811555e-06
8.0491371e-07
7.7493449e-07
1.077958e-06
9.0343021e-07
8.5028162e-07
1.6518344e-06
1.9963214e-06
8.2493332e-07
1.0260306e-06
1.0781799e-06
8.5058132e-07
1.0469896e-06
2.3022127e-06
2.5332545e-06
1.5947554e-06
1.8784159e-06
2.8431572e-06
3.5198347e-06
3.7045633e-06
3.6254626e-06
3.3447168e-06
3.5580632e-06
4.578306e-06
5.1526076e-06
5.5371569e-06
9.9435739e-07
1.0147797e-06
9.393457e-07
8.9693702e-07
8.7790856e-07
8.8965454e-07
9.2917252e-07
9.565066e-07
1.0049817e-06
1.0408181e-06
1.0713788e-06
1.0943294e-06
1.1112064e-06
1.1350439e-06
9.4625086e-07
8.6287729e-07
1.2621983e-06
1.3100286e-06
1.2047238e-06
1.0085006e-06
9.35955e-07
1.0989906e-06
1.5638436e-06
1.6256937e-06
1.7001653e-06
1.522423e-06
1.6696442e-06
1.7525249e-06
1.8983536e-06
2.1167972e-06
1.5550065e-06
1.53671e-06
2.0726708e-06
2.0236379e-06
2.1434964e-06
2.9829436e-06
3.0549624e-06
2.0027935e-06
2.1691393e-06
2.3093312e-06
1.8979064e-06
2.1940786e-06
3.678341e-06
3.8700943e-06
2.3282262e-06
2.2899954e-06
3.0861736e-06
3.902571e-06
4.1626864e-06
4.0994755e-06
3.6487083e-06
3.3651483e-06
3.6721429e-06
5.0290504e-06
5.2467176e-06
9.8475343e-07
9.8947221e-07
9.3525227e-07
9.0533438e-07
8.9887891e-07
9.0593292e-07
9.4060421e-07
1.0324565e-06
1.11013e-06
1.171346e-06
1.17498e-06
1.1401781e-06
1.190277e-06
1.2567049e-06
1.0958528e-06
1.0477081e-06
1.2669494e-06
1.4571063e-06
1.3511208e-06
1.2497032e-06
1.2354553e-06
1.3103598e-06
1.5551805e-06
1.7856438e-06
1.7329406e-06
1.6801983e-06
1.7639942e-06
1.8636478e-06
2.0589049e-06
2.2507259e-06
2.0254001e-06
2.0770245e-06
2.2705185e-06
2.2057291e-06
2.4265229e-06
3.1837831e-06
3.2787252e-06
2.7983361e-06
3.0104505e-06
3.1207788e-06
2.7678457e-06
3.2212108e-06
4.1893536e-06
4.2484686e-06
3.1066562e-06
2.9072086e-06
3.4589299e-06
3.9242835e-06
3.9140453e-06
3.7949338e-06
3.4188974e-06
3.112579e-06
3.0945584e-06
3.714e-06
4.6932435e-06
8.641264e-07
1.1619024e-06
1.1922184e-06
1.1708538e-06
1.1342724e-06
1.1030065e-06
1.0956371e-06
1.0996438e-06
1.1035288e-06
1.095576e-06
1.096922e-06
1.0831889e-06
1.0695893e-06
1.066e-06
1.0687479e-06
1.0821436e-06
1.100058e-06
1.1176978e-06
1.1411843e-06
1.1477496e-06
1.148481e-06
1.152124e-06
1.1876923e-06
1.2538968e-06
1.2878754e-06
1.3077854e-06
1.3235969e-06
1.345706e-06
1.3750595e-06
1.4203144e-06
1.4489881e-06
1.4838365e-06
1.5180634e-06
1.5843032e-06
1.5256159e-06
1.6973877e-06
1.8660925e-06
1.7938765e-06
1.8770998e-06
1.9280025e-06
1.8037507e-06
1.6385012e-06
2.0768943e-06
2.3442475e-06
2.3008589e-06
2.1083856e-06
2.1974161e-06
2.2470409e-06
2.2318154e-06
2.2508674e-06
2.2682161e-06
2.33772e-06
2.249627e-06
2.3000853e-06
2.6824319e-06
1.047098e-06
1.5935853e-06
1.4262653e-06
1.2471684e-06
1.1599032e-06
1.1012144e-06
1.0495072e-06
9.9017165e-07
9.2981707e-07
8.8338163e-07
8.7031966e-07
8.9212529e-07
9.2230597e-07
9.5290152e-07
9.2856781e-07
8.8324279e-07
8.6009188e-07
8.3452555e-07
7.8602545e-07
7.4956404e-07
7.3540513e-07
7.4403019e-07
7.7931837e-07
8.3280457e-07
8.7235886e-07
8.735793e-07
8.2946891e-07
7.8378258e-07
7.711889e-07
7.8646967e-07
7.8605176e-07
7.2826414e-07
6.4966952e-07
6.2328498e-07
6.2249935e-07
6.6711744e-07
7.2257632e-07
7.6414725e-07
7.3854514e-07
7.0439642e-07
7.2965042e-07
8.1747429e-07
6.7518056e-07
6.3455561e-07
7.8344943e-07
1.2053302e-06
1.2830721e-06
1.2128815e-06
1.1882053e-06
1.192442e-06
1.2208003e-06
1.2629996e-06
1.3277438e-06
1.3854982e-06
1.4585929e-06
1.469879e-06
2.7107243e-06
4.7967391e-06
5.367999e-06
5.8841784e-06
6.8308657e-06
8.342623e-06
1.1134802e-05
1.4275071e-05
1.8761543e-05
2.2361408e-05
2.66961e-05
3.7414745e-05
5.0972422e-05
4.752062e-05
4.3767328e-05
4.6561428e-05
4.7372126e-05
5.324534e-05
5.6076885e-05
5.6760828e-05
5.3577774e-05
4.5927255e-05
3.5550113e-05
3.1143879e-05
3.2256496e-05
3.8047918e-05
1.381894e-06
2.5705614e-06
4.6933355e-06
4.8695431e-06
5.5814283e-06
7.3748537e-06
9.0377518e-06
1.1932939e-05
1.4338927e-05
1.7682607e-05
2.5765215e-05
4.4576683e-05
5.51897e-05
6.1039901e-05
5.1840748e-05
5.5146405e-05
5.6873201e-05
5.6570899e-05
6.2140972e-05
6.8190071e-05
6.7368523e-05
6.1914095e-05
5.1499091e-05
3.9211287e-05
3.4389631e-05
3.5908052e-05
4.2457507e-05
1.2105661e-06
2.3326116e-06
3.9138788e-06
3.566589e-06
3.8574084e-06
4.6311005e-06
5.9793064e-06
7.6139288e-06
1.0705157e-05
1.6578542e-05
2.7862603e-05
4.7022058e-05
4.9477489e-05
4.5630146e-05
5.4960168e-05
7.0542247e-05
6.8279961e-05
6.8110737e-05
7.2424234e-05
8.135544e-05
8.0535882e-05
7.3086708e-05
5.8932334e-05
4.5338767e-05
3.9816043e-05
4.1403569e-05
4.7961707e-05
1.0591405e-06
2.1571967e-06
4.235336e-06
3.4652038e-06
3.4848556e-06
4.0891375e-06
5.583092e-06
8.3668271e-06
1.2872383e-05
2.0307898e-05
2.7912898e-05
2.8888469e-05
3.0706965e-05
3.9257025e-05
5.3533145e-05
7.693978e-05
7.8306069e-05
7.9703145e-05
8.3047189e-05
9.2107718e-05
9.4995839e-05
8.71934e-05
6.8745865e-05
5.1571053e-05
4.7476844e-05
4.9893147e-05
5.7160481e-05
9.9608324e-07
2.0485931e-06
3.7006489e-06
3.1718574e-06
3.391384e-06
4.6200079e-06
7.8422108e-06
1.4633678e-05
2.3534556e-05
2.9892416e-05
3.2823409e-05
3.0165923e-05
3.4250182e-05
4.7459046e-05
6.2467941e-05
6.7126776e-05
6.5480946e-05
7.3974468e-05
9.4315924e-05
0.00010276605
0.00010780717
0.00010126962
8.1663872e-05
5.8760194e-05
5.6213432e-05
6.0916615e-05
6.8239688e-05
1.0075235e-06
1.9798262e-06
2.9626583e-06
3.3106285e-06
4.2902612e-06
8.2274764e-06
1.3696274e-05
1.8608228e-05
2.3543357e-05
2.9226511e-05
3.9304697e-05
4.7069584e-05
6.1779914e-05
6.9953613e-05
7.6808418e-05
8.1818955e-05
7.1739901e-05
7.1991678e-05
8.0456395e-05
0.00010919221
0.00011796815
0.0001136301
9.7045481e-05
6.9580213e-05
6.6309138e-05
7.0922612e-05
7.9153717e-05
1.0595086e-06
1.6276507e-06
3.0683691e-06
5.148932e-06
8.5524703e-06
1.0964271e-05
1.4341187e-05
1.8824212e-05
2.3188919e-05
2.9576359e-05
3.9261018e-05
4.5014568e-05
5.743038e-05
7.3443568e-05
7.9793202e-05
8.7580502e-05
9.4842659e-05
0.00010401882
9.7486016e-05
0.00010297126
0.00012807306
0.00012585036
0.0001112482
8.0628169e-05
7.4717307e-05
7.8374808e-05
8.7399983e-05
1.1388334e-06
1.940606e-06
4.6780809e-06
7.2115624e-06
9.1224796e-06
1.0752314e-05
1.453346e-05
1.894895e-05
2.3359096e-05
2.9002463e-05
2.7551644e-05
2.9371212e-05
3.2316232e-05
3.575636e-05
4.871814e-05
8.5473694e-05
0.00010059127
0.00011037688
0.00012106598
0.00013006748
0.00013862147
0.00013899507
0.0001237124
9.0058609e-05
8.1016182e-05
8.3006076e-05
9.263818e-05
1.171455e-06
1.8332678e-06
4.4639232e-06
7.3051473e-06
9.1246944e-06
1.1437298e-05
1.4684066e-05
1.9244514e-05
2.4651181e-05
2.6953055e-05
2.6311074e-05
2.6931128e-05
2.847334e-05
3.103617e-05
3.5419182e-05
4.6187667e-05
6.6462766e-05
0.00010927985
0.00012758383
0.00013880265
0.00014958564
0.00015153535
0.00013512824
9.8803223e-05
8.9355892e-05
8.9733361e-05
9.769538e-05
1.1325707e-06
1.6017843e-06
3.8515502e-06
5.9496343e-06
7.9294178e-06
1.1132812e-05
1.4945726e-05
1.9292907e-05
2.7578305e-05
4.5851874e-05
4.7584933e-05
4.3610284e-05
3.9039359e-05
3.7413789e-05
3.7506776e-05
4.0790828e-05
4.7893828e-05
5.9885048e-05
8.9718776e-05
0.00015014483
0.0001622597
0.00016401693
0.0001469328
0.00010817039
0.00010036605
0.00010284317
7.7676127e-05
1.0342255e-06
1.4144462e-06
3.2697973e-06
4.9535832e-06
5.6457499e-06
7.2297439e-06
9.8815934e-06
1.3981443e-05
2.1296698e-05
4.0288764e-05
8.0154078e-05
9.5592318e-05
0.00010533236
8.3403712e-05
6.6080132e-05
5.8491308e-05
5.5349533e-05
5.5155065e-05
6.2588737e-05
8.4577542e-05
0.00012047098
0.00016526546
0.00016047659
0.00011858457
0.00011354107
0.00010863131
7.6257048e-05
9.5064899e-07
1.3032352e-06
2.9086729e-06
5.3635716e-06
6.4532819e-06
8.3353992e-06
1.1074788e-05
1.5063998e-05
2.4586902e-05
3.6420639e-05
4.6575327e-05
5.6493052e-05
7.242282e-05
0.00010712596
0.0001268262
0.00013482761
0.00013914048
8.8968875e-05
7.3614259e-05
7.5489767e-05
9.0923025e-05
0.00011342855
0.00016070761
0.0001328374
0.00012666236
0.00010970469
0.00010330617
8.9373116e-07
1.2607015e-06
2.8141367e-06
5.8199488e-06
8.973645e-06
1.2471275e-05
1.9638975e-05
3.6290269e-05
6.0407791e-05
6.8659006e-05
6.2949206e-05
6.003054e-05
5.9148839e-05
6.1173109e-05
7.2677201e-05
9.3267053e-05
0.0001551776
0.00017053665
0.00018145566
0.00011782409
0.00010763141
0.00010499514
0.00011178068
0.00012583384
0.00012240958
0.00012123987
0.00016467873
9.2473331e-07
1.2901113e-06
2.8428223e-06
6.1183099e-06
9.9898417e-06
1.5849989e-05
2.8781222e-05
5.1306104e-05
7.4261278e-05
9.4692067e-05
0.00011200357
0.00012729839
0.00013681604
9.830038e-05
8.0975483e-05
7.5238791e-05
7.4849598e-05
8.5842331e-05
0.00011653059
0.00020463098
0.00023076024
0.00017163172
0.0001213873
9.5476736e-05
9.0335819e-05
0.00014774869
0.00017911668
9.5801183e-07
1.314397e-06
2.927754e-06
6.9464335e-06
1.224068e-05
2.2476491e-05
4.2234103e-05
6.5033483e-05
7.9559205e-05
8.4349734e-05
9.4687287e-05
0.00010369371
0.0001279032
0.0001636434
0.00017246816
0.00018105567
0.00010361064
7.7845705e-05
7.5505214e-05
9.5107431e-05
0.00017226943
0.00025055035
0.00025001244
0.00011983042
8.9853494e-05
0.0001400981
0.00010523509
9.9465014e-07
1.3472852e-06
3.2788937e-06
8.4933841e-06
1.5749256e-05
3.0063592e-05
5.106588e-05
7.3695058e-05
9.5655046e-05
0.00011520858
9.4898466e-05
9.0265691e-05
9.4357644e-05
0.00010496299
0.00012395699
0.00016498805
0.00020321279
0.00017621249
0.00011425113
9.580112e-05
0.00010721693
0.00014672564
0.00025185062
0.00024300916
0.00014289849
0.00012705501
8.0200203e-05
9.7368433e-07
1.4915631e-06
4.0525858e-06
8.752825e-06
1.7574493e-05
3.4915601e-05
5.5811492e-05
7.7884344e-05
0.00010046381
0.00012293361
0.00014542693
0.00016707187
0.0001454901
0.00011749995
0.00010531689
9.6105628e-05
9.940868e-05
0.00012554285
0.00022308542
0.00022822268
0.00016084601
0.00013054388
0.00013652942
0.00018021884
0.00023433469
0.0001435537
8.4484734e-05
9.2886254e-07
1.6789895e-06
4.6484428e-06
8.0417905e-06
1.6046557e-05
3.0776979e-05
4.8633734e-05
7.2501397e-05
0.00010493832
0.00012814603
0.0001513899
0.00017390673
0.00019453696
0.00016742526
0.00013918476
0.00012119271
0.0001038176
9.5598907e-05
0.00010158006
0.00014467247
0.00025339776
0.00023838268
0.0001575477
0.00014500901
0.00017500132
0.0001311052
0.00011112668
8.7705364e-07
1.8490072e-06
4.9733457e-06
8.3200115e-06
1.7249697e-05
3.2996055e-05
5.4913814e-05
8.4307444e-05
0.00011104101
0.00013434501
0.00015132829
0.00013062043
0.00012727701
0.00013859695
0.00016125005
0.00020346329
0.00020089236
0.00014177612
0.00010588386
9.6978818e-05
0.00011496241
0.00017456507
0.00029131376
0.00019802473
0.00012388753
0.00010461697
0.00015158268
9.1017914e-07
2.0204315e-06
4.8066466e-06
9.436317e-06
2.1783904e-05
4.8523847e-05
7.2933854e-05
9.6841118e-05
0.00012044076
0.00013773262
0.00011285873
0.00010484702
0.00010680549
0.0001225626
0.00015948957
0.00024434502
0.00026244856
0.00026918526
0.00020447647
0.00011882561
9.9192405e-05
0.0001214424
0.00027609817
0.0003098288
0.00012506307
0.00010454814
0.00018017213
1.0625549e-06
2.416848e-06
5.8349122e-06
1.4885185e-05
3.7341978e-05
6.2895634e-05
8.8353317e-05
0.00011288737
0.000131919
0.00012188808
0.00011481866
0.00011114585
0.0001216447
0.00015436267
0.00020303898
0.0002609104
0.00027518827
0.00028437347
0.00029391844
0.00018041049
0.00013014487
0.00014176246
0.0002281396
0.00019939602
0.00014197869
0.00014086382
0.00023176938
9.6523636e-07
2.9695023e-06
9.0511089e-06
2.4429195e-05
5.1937807e-05
7.1935845e-05
8.0887149e-05
8.70169e-05
9.3634575e-05
0.00010390844
0.00011903825
0.00014358787
0.00019681492
0.00023641481
0.00025510697
0.00027376722
0.00028941053
0.00030166665
0.00024646813
0.00020092804
0.00021959298
0.00028556916
0.00024344096
0.00015780662
0.00015873385
0.00025497032
0.00031266383
9.6085587e-07
3.7138928e-06
1.2320632e-05
3.4266443e-05
5.575598e-05
6.5325931e-05
7.4605737e-05
8.3656113e-05
9.3839053e-05
0.00010733688
0.00012641181
0.00015864652
0.00021681691
0.00025295208
0.0002716306
0.00029101372
0.00030856288
0.00025384086