/*--------------------------------*- C++ -*----------------------------------*\
| =========                 |                                                 |
| \\      /  F ield         | OpenFOAM: The Open Source CFD Toolbox           |
|  \\    /   O peration     | Version:  2406                                  |
|   \\  /    A nd           | Website:  www.openfoam.com                      |
|    \\/     M anipulation  |                                                 |
\*---------------------------------------------------------------------------*/
FoamFile
{
    version     2.0;
    format      ascii;
    arch        "LSB;label=32;scalar=64";
    class       volScalarField;
    location    "18";
    object      omega_0;
}
// * * * * * * * * * * * * * * * * * * * * * * * * * * * * * * * * * * * * * //

dimensions      [0 0 -1 0 0 0 0];

internalField   nonuniform List<scalar> 
96472
(
3.8149717
2.9109914
2.3739965
2.056306
1.8250834
1.6378533
1.4842541
1.3612255
1.2645043
1.1878855
1.1250229
1.0709811
1.0225286
0.9784764
0.9381825
0.90222262
0.87031161
0.84309214
0.81950558
0.79985525
0.78264524
0.76815433
0.75454213
0.74265972
0.73058199
0.71956329
0.70756882
0.69668734
0.68457026
0.67417026
0.66236875
0.65337161
0.64325703
0.63801554
0.62994886
0.62730769
0.62478686
0.6255788
0.6298303
0.63058767
0.64047402
0.64591367
0.65745241
0.66346283
0.66989346
0.67363936
0.67529602
0.67668952
0.67874702
0.6847664
0.69301798
0.70456601
0.71723842
0.73483458
0.76043944
3.814731
2.9110618
2.3772302
2.060383
1.8295654
1.642589
1.4888457
1.3653754
1.268141
1.1911157
1.1280869
1.074117
1.025888
0.98203886
0.94181778
0.90580953
0.87359481
0.84608204
0.82209902
0.8023204
0.78476091
0.7703261
0.75643486
0.74471033
0.73217823
0.72156069
0.70924626
0.69893971
0.68656193
0.67647527
0.66479257
0.65499786
0.64545836
0.63729863
0.63048995
0.6249936
0.61982173
0.61780841
0.61446517
0.6144665
0.6153522
0.61818352
0.62415829
0.63640653
0.64658083
0.66186524
0.66931486
0.67799318
0.6814619
0.68906359
0.69325725
0.70274508
0.71081279
0.71924742
0.73968688
3.815229
2.9143498
2.381323
2.0649748
1.8347147
1.6477196
1.493434
1.3691589
1.2712877
1.193904
1.1307599
1.0768314
1.0287232
0.98488516
0.94453891
0.90828485
0.87584979
0.84796815
0.82376676
0.80365641
0.78603005
0.77131192
0.75759629
0.74590201
0.73370614
0.72312277
0.71104102
0.70064607
0.68812048
0.67823196
0.66576078
0.65716491
0.64599827
0.63942849
0.63140031
0.62692738
0.6217671
0.61984233
0.61728514
0.6166133
0.6164759
0.61716567
0.61846893
0.62250118
0.62625274
0.63526606
0.64275408
0.65872782
0.66875772
0.6821044
0.68946013
0.69790312
0.7073962
0.7135794
0.72801428
3.8165703
2.9198326
2.3857787
2.0692499
1.839235
1.6522295
1.4975546
1.3727232
1.2743411
1.1966931
1.1335047
1.0796408
1.0315936
0.98784588
0.94743819
0.91101744
0.87835882
0.85020392
0.82573185
0.80530255
0.78757236
0.77272778
0.75897275
0.74716719
0.73516642
0.72451815
0.71280073
0.70245732
0.69051764
0.68063678
0.66869182
0.65966724
0.64856351
0.64137177
0.63274693
0.62775823
0.62162125
0.61936248
0.61610096
0.61554209
0.61555113
0.61641678
0.61737062
0.62025698
0.62226634
0.62738876
0.63087292
0.63805658
0.64645216
0.65507167
0.6708368
0.67901739
0.69515112
0.70218426
0.7184722
3.8174212
2.9239332
2.3898052
2.0733195
1.8435735
1.6566349
1.5016215
1.376297
1.2774402
1.1994887
1.1362173
1.0824123
1.0344457
0.99068899
0.95029505
0.91366978
0.88080612
0.85230683
0.82765582
0.80690253
0.78905178
0.77403724
0.76040224
0.74849
0.73672553
0.72599112
0.71463574
0.70402904
0.69249065
0.68204173
0.67055466
0.66103933
0.65056734
0.64254037
0.6342549
0.62893165
0.62286788
0.6196373
0.61664101
0.61495154
0.61418352
0.61454274
0.61532519
0.6173087
0.61967519
0.62263946
0.62724741
0.63059806
0.6374079
0.64178042
0.65150208
0.65737758
0.67014866
0.67736997
0.69616759
3.8187084
2.9295882
2.3942515
2.0773615
1.8478177
1.6608987
1.5056023
1.3797987
1.280512
1.2022879
1.1388837
1.0851023
1.0372459
0.99350356
0.95310148
0.91630239
0.88331976
0.8544178
0.82960996
0.80854697
0.79062478
0.77534122
0.76183556
0.74972132
0.73831662
0.72733817
0.71650397
0.70572596
0.69487183
0.68411631
0.67338944
0.66307309
0.65319058
0.64418403
0.63607209
0.62952805
0.62388278
0.61936344
0.61617399
0.61426005
0.61288262
0.61291953
0.61331132
0.6143004
0.61658202
0.61855606
0.62274043
0.62540375
0.63117957
0.63460193
0.64190841
0.64620527
0.65535596
0.66063649
0.67449102
3.8195885
2.9340122
2.3983547
2.0812742
1.8519331
1.6650826
1.5095795
1.3833291
1.283584
1.2050716
1.1415358
1.0877327
1.039937
0.99625885
0.95585002
0.91892393
0.88579132
0.85665502
0.83157849
0.81022981
0.79219921
0.77671541
0.76318048
0.75100447
0.7397445
0.7288034
0.71816296
0.70739059
0.69680818
0.68597923
0.67544484
0.66496495
0.65531915
0.64602184
0.63792229
0.6307177
0.62517757
0.62036072
0.61658712
0.61421058
0.61247846
0.6116313
0.61178479
0.61228898
0.61385393
0.61536581
0.61870018
0.6209398
0.62577267
0.62865649
0.63484633
0.63840086
0.64573024
0.65007552
0.66009316
3.8203795
2.9393577
2.4027196
2.0851124
1.8558871
1.6691517
1.5134689
1.3868489
1.2866625
1.2078253
1.144163
1.0903441
1.0425947
0.99893934
0.95857707
0.92152931
0.88822785
0.85888248
0.83358326
0.81197814
0.79373112
0.7781412
0.76456818
0.75232542
0.74113241
0.73032255
0.71987166
0.70923364
0.69884447
0.68808156
0.6776457
0.66718014
0.65737728
0.64793169
0.63964938
0.63202999
0.62601
0.62092409
0.61685394
0.61360529
0.6120441
0.61050729
0.61040121
0.61063028
0.61149393
0.61259398
0.61520028
0.61703007
0.62103942
0.62353361
0.62884072
0.63180407
0.63829402
0.64169822
0.6499733
3.8210369
2.9433619
2.4065245
2.0887441
1.8597182
1.6731475
1.5173379
1.3903648
1.2897622
1.2105734
1.1467216
1.0928862
1.0452057
1.0015689
0.96125523
0.92414603
0.8906797
0.86109221
0.83554389
0.81375413
0.79528188
0.77951806
0.76594073
0.75367141
0.74254236
0.73178972
0.7215085
0.71093762
0.70069617
0.69005418
0.67966355
0.66923858
0.65938903
0.65000234
0.64156603
0.63382376
0.62741446
0.6219026
0.61787135
0.61406106
0.61182679
0.61015123
0.609236
0.60926246
0.60962735
0.61042845
0.61233589
0.61381808
0.61710781
0.61918676
0.62360363
0.62626003
0.63163702
0.63472048
0.64169621
3.8220893
2.9486052
2.4106429
2.0924133
1.8635516
1.6771484
1.5212523
1.3939001
1.2928713
1.2133503
1.1492895
1.0953746
1.047758
1.0041819
0.96387548
0.92673614
0.89314988
0.86338108
0.83758555
0.81554396
0.79693422
0.7809675
0.76729051
0.75501777
0.74395109
0.73325405
0.72312213
0.71263859
0.70252634
0.69203456
0.68172329
0.67137085
0.661521
0.65199641
0.64344427
0.6354633
0.62880437
0.62283283
0.61843834
0.61455512
0.61160623
0.60969946
0.60847577
0.60793739
0.60811625
0.60853585
0.60980992
0.61102764
0.6136726
0.61536771
0.61914576
0.62134198
0.62599335
0.62873467
0.63454607
3.823582
2.9531828
2.4143315
2.0958391
1.867231
1.6810416
1.525097
1.3974222
1.2959541
1.2160702
1.1518218
1.0978312
1.0502274
1.0067332
0.96645766
0.92928573
0.89559052
0.86564865
0.83965928
0.81734534
0.79854029
0.7824442
0.7686647
0.75633585
0.74527012
0.73466168
0.72462819
0.71429119
0.70423824
0.69387764
0.68370418
0.67342268
0.66364873
0.65413429
0.64551507
0.63742541
0.63053663
0.62427992
0.61937546
0.61535475
0.61224598
0.60947279
0.6081487
0.60694826
0.60686529
0.60705536
0.60780445
0.60865869
0.61072028
0.61215021
0.61525557
0.61709318
0.62122337
0.62330719
0.62849539
3.8250957
2.9589124
2.4184043
2.0993581
1.8709503
1.6850133
1.5290224
1.4010269
1.2991175
1.2188252
1.1543513
1.1002862
1.052702
1.0092354
0.96902696
0.93183078
0.89803881
0.86792377
0.84174388
0.81925802
0.80019402
0.78394269
0.77005935
0.75769634
0.74664449
0.7360713
0.72610139
0.71595487
0.7059941
0.69578235
0.68574251
0.67553196
0.66578227
0.65626748
0.6475011
0.63933684
0.63221514
0.62573866
0.62048427
0.61592292
0.61277491
0.60966976
0.60779339
0.60639957
0.60572098
0.60573853
0.6060251
0.60667585
0.60817389
0.60934751
0.61188173
0.61348667
0.61681457
0.6188294
0.62312649
3.8274603
2.9640984
2.4219962
2.1025813
1.8744493
1.6888146
1.5328291
1.4045435
1.3022251
1.221539
1.156794
1.1026245
1.0550865
1.011679
0.97153221
0.93434942
0.90048112
0.87020628
0.84378611
0.82110265
0.80184394
0.78541798
0.7713925
0.758993
0.74796605
0.73744668
0.72754979
0.71752247
0.70770283
0.69761459
0.68772818
0.67763932
0.6679498
0.6584942
0.64967951
0.64138281
0.6341576
0.62743094
0.62190877
0.61698387
0.61337236
0.610253
0.60782965
0.60609139
0.60503846
0.60456038
0.60471513
0.60502405
0.60606766
0.60694232
0.60901129
0.61035419
0.61319235
0.61496149
0.61835163
3.8293827
2.9703767
2.4261256
2.1060113
1.8781154
1.6927712
1.5368207
1.4082146
1.305439
1.2243446
1.1593161
1.1049951
1.0574367
1.0141234
0.97398678
0.93684508
0.90294749
0.87257282
0.84597641
0.82304275
0.80358581
0.78698795
0.77282826
0.76033607
0.74927319
0.73882855
0.72902001
0.7190852
0.70941895
0.69944794
0.68970476
0.67974049
0.67014719
0.66072276
0.65189895
0.64349689
0.63613575
0.62920441
0.62341486
0.61823189
0.6141594
0.61067797
0.60830085
0.60588477
0.60473521
0.60364254
0.60354806
0.60368873
0.60421305
0.60492322
0.60650233
0.6076033
0.61004373
0.61129564
0.61446671
3.8330396
2.9765754
2.4296412
2.1091003
1.8815055
1.6964947
1.5406126
1.411758
1.3085442
1.2270157
1.1617167
1.1072749
1.0596898
1.0164531
0.97639062
0.93927526
0.90531078
0.87479076
0.84803908
0.82492198
0.80525083
0.78849342
0.77422622
0.76168094
0.750575
0.74017042
0.73041293
0.72062421
0.71109658
0.70129908
0.69167809
0.68182615
0.67233681
0.6629672
0.65413932
0.64572311
0.63819427
0.63118532
0.62514322
0.61967843
0.6153412
0.61139555
0.60875912
0.60624425
0.60451041
0.60329869
0.60258551
0.60257424
0.60279218
0.60325916
0.6044085
0.60530687
0.60721612
0.60854917
0.61102476
3.8348013
2.9824742
2.4336234
2.1124362
1.8850994
1.7004599
1.544643
1.4155231
1.3118651
1.229869
1.1642155
1.1096005
1.0619877
1.0187601
0.97878581
0.94171522
0.90775564
0.87715202
0.8502295
0.82695196
0.80707126
0.79009939
0.7756793
0.76306474
0.75192911
0.7415769
0.73187658
0.72223356
0.71280359
0.70319409
0.69370581
0.68397988
0.67460061
0.66531334
0.65648002
0.6480166
0.64039182
0.63321861
0.62703265
0.62130651
0.61667828
0.61245924
0.60932304
0.60666164
0.60474182
0.60305738
0.60216248
0.6015603
0.60168447
0.60189021
0.60260425
0.60333086
0.60491453
0.60602553
0.60787427
3.8381721
2.9881918
2.436737
2.115228
1.8881477
1.703895
1.5482658
1.4189945
1.3149614
1.2325502
1.1665541
1.1117601
1.0641267
1.0209683
0.9810535
0.9440369
0.9100486
0.87935656
0.8522796
0.82880444
0.80879354
0.79169165
0.77711301
0.76442394
0.75323916
0.74294188
0.73331761
0.72378282
0.71446026
0.7049733
0.69565332
0.68606182
0.67678392
0.66761738
0.65882556
0.65034216
0.64269229
0.63540592
0.62906529
0.62314485
0.61824339
0.61381366
0.61035381
0.60721595
0.60523135
0.6031871
0.60207237
0.60104357
0.60079533
0.60088516
0.60126019
0.60178252
0.60304003
0.60374191
0.60566336
3.8398267
2.9942492
2.440907
2.1185687
1.8916781
1.7078213
1.5523707
1.4228734
1.318397
1.2354928
1.1691031
1.1140359
1.0662589
1.0231507
0.98328995
0.94637271
0.91244381
0.88174973
0.85460575
0.83095188
0.81070061
0.79342049
0.77869557
0.76592753
0.75467655
0.74440612
0.73483383
0.72542557
0.71624269
0.70690963
0.69771308
0.6882618
0.67907779
0.67003618
0.66135102
0.65288849
0.64516305
0.63789492
0.63139876
0.6253309
0.6201571
0.61546787
0.61172673
0.60828008
0.60584689
0.60373251
0.60218171
0.60105248
0.60032131
0.60013857
0.60029048
0.60062396
0.6013686
0.60214627
0.60354647
3.8420991
2.999081
2.4438514
2.1210025
1.8942431
1.7107798
1.5556136
1.4261485
1.3213941
1.2381028
1.171408
1.1161856
1.0683526
1.0252437
0.98546375
0.9485741
0.91462371
0.88384006
0.85659913
0.83288663
0.81251701
0.79511751
0.78028108
0.76747648
0.75621196
0.7459574
0.7364303
0.72713901
0.71803008
0.70886477
0.69979753
0.69055149
0.68146872
0.67257483
0.6640302
0.65569303
0.64794675
0.64067926
0.63416078
0.62799505
0.62265389
0.61774863
0.61374361
0.61006156
0.60723558
0.60474194
0.60306382
0.60153662
0.60065593
0.59999175
0.59997322
0.60017229
0.60054414
0.60125119
0.60199871
3.8442941
3.0066009
2.4486626
2.1245279
1.8977069
1.714639
1.5597024
1.430141
1.3250361
1.2412387
1.1740455
1.1184665
1.0704697
1.0273537
0.9877069
0.95097271
0.91714381
0.88643343
0.85914174
0.83529373
0.8147574
0.79717663
0.78217854
0.76933177
0.75805709
0.74791102
0.73844888
0.7292754
0.72035524
0.7114002
0.70241481
0.69341227
0.68460545
0.67595161
0.66761551
0.65956583
0.65199898
0.6448799
0.63841302
0.63227159
0.62673604
0.62168599
0.61739968
0.61353271
0.61035627
0.6074305
0.60534637
0.60356131
0.60231875
0.60129371
0.60086736
0.60075243
0.6009214
0.60120915
0.60178963
3.8455963
3.0103374
2.4513505
2.12653
1.8996777
1.7170185
1.5624507
1.4331372
1.3279418
1.2438751
1.1765107
1.1208879
1.0729705
1.0300061
0.99050251
0.95387812
0.9200025
0.88922992
0.86192424
0.8379873
0.81743891
0.79977264
0.78480916
0.7721328
0.76096698
0.75108597
0.741866
0.73291098
0.72427755
0.71570295
0.70702433
0.69832967
0.68999753
0.68180899
0.67392172
0.66638374
0.65926785
0.6525753
0.64641743
0.64055266
0.63507297
0.63000344
0.62555824
0.62144511
0.61793715
0.61445749
0.611903
0.60975426
0.6080648
0.60640305
0.60574877
0.60501864
0.60452374
0.60455658
0.60440663
3.8485265
3.01952
2.456729
2.1301788
1.9031337
1.7213777
1.5673319
1.4383641
1.3328061
1.2480077
1.1803102
1.1247936
1.0774336
1.0353154
0.99657409
0.96052539
0.92668598
0.89585165
0.86830873
0.84410018
0.82329387
0.80538659
0.79059525
0.77844712
0.76795194
0.75904308
0.7506701
0.7424909
0.73508028
0.72741609
0.7194188
0.71159704
0.70444317
0.69719192
0.69008281
0.68351966
0.67751367
0.67179913
0.66632615
0.66100028
0.65568049
0.65106487
0.6465666
0.64249594
0.63853111
0.63461144
0.63094235
0.62864203
0.62600735
0.62368054
0.62200736
0.62115208
0.61927759
0.6186377
0.61706401
3.8486995
3.0223681
2.4610542
2.1334641
1.9077838
1.729154
1.5766462
1.4491273
1.342479
1.2564617
1.1894655
1.136531
1.0932936
1.0556519
1.0201603
0.98539221
0.95079164
0.91863755
0.88944095
0.8637382
0.8420154
0.82334639
0.80917615
0.7987434
0.79043007
0.784579
0.77954607
0.7746499
0.77065982
0.76621406
0.76069314
0.75501898
0.75020338
0.74505578
0.73910457
0.73378495
0.72914153
0.72471706
0.72050831
0.71637608
0.71081325
0.70762621
0.70314085
0.70015796
0.69615188
0.69198365
0.6870184
0.68510932
0.68132525
0.6772578
0.67462692
0.6733282
0.66944914
0.66726759
0.66198732
3.8586665
3.0625944
2.4910881
2.1614192
1.9472983
1.7852018
1.6397384
1.5115248
1.3939985
1.3013656
1.2368469
1.1942418
1.1677375
1.1489923
1.1262511
1.0956914
1.0583191
1.0183762
0.98001444
0.94719445
0.92030463
0.89909114
0.88573061
0.88118317
0.8815624
0.88410628
0.89173613
0.9024756
0.91173971
0.91881838
0.92318079
0.92626172
0.92687461
0.92672887
0.92469898
0.92005112
0.91693165
0.91097797
0.90964016
0.90727738
0.90093501
0.89957286
0.89701929
0.89548736
0.89589867
0.89439521
0.88957281
0.8892404
0.88859346
0.88270174
0.87657807
0.87550959
0.87189292
0.86750141
0.8512107
3.9631697
3.3791197
2.6999617
2.363834
2.2051291
2.092081
1.9732313
1.8255893
1.6519559
1.5472781
1.5147351
1.5197995
1.5471178
1.595284
1.6177119
1.6205817
1.6083468
1.55882
1.495034
1.4480062
1.412628
1.3987251
1.3965378
1.4018646
1.4276222
1.4760084
1.530008
1.5809687
1.6233303
1.6601556
1.6841289
1.7091102
1.7192698
1.7348112
1.7363184
1.736573
1.7381343
1.7316376
1.7367561
1.7367194
1.723703
1.7260862
1.7213482
1.7197451
1.7354198
1.7349193
1.7249587
1.7326066
1.7422709
1.7296222
1.7127542
1.717121
1.7160659
1.7086764
1.6755055
5.5245581
5.0894995
3.8553341
3.4556855
3.47295
3.6018717
3.7595348
3.7060433
3.5410579
3.5166086
3.5284306
3.6105171
3.7202617
3.8149193
3.8600239
3.8796549
3.8883523
3.8912041
3.8723945
3.8481531
3.7679379
3.7596101
3.7363996
3.7594472
3.8162097
3.8550311
3.9231024
4.0016979
4.0290411
4.093289
4.0934975
4.1412742
4.1345077
4.1731735
4.1604468
4.1733782
4.2114314
4.1632775
4.2336006
4.2348016
4.1789418
4.2297586
4.1605983
4.1513921
4.2415487
4.2082196
4.1216998
4.1742262
4.2572093
4.160124
4.0813642
4.1299389
4.1320538
4.116956
4.051527
11.409942
12.453638
12.416202
12.473037
12.430266
12.477566
12.534172
12.647464
12.637916
12.653012
12.635119
12.630615
12.647161
12.684253
12.721531
12.750178
12.78617
12.838818
12.885522
12.906661
12.933117
12.893062
12.895843
12.845296
12.843076
12.81933
12.809414
12.800221
12.805101
12.801471
12.81446
12.811911
12.831663
12.827809
12.852246
12.845645
12.86022
12.867686
12.857409
12.88818
12.872111
12.873217
12.895375
12.867669
12.864098
12.88851
12.861939
12.844058
12.849874
12.865197
12.823872
12.805438
12.821292
12.78595
12.774589
13.163737
4.1299867
1.716249
0.86828462
0.66797152
0.6196054
0.60594342
0.60303753
0.60341082
0.60470339
0.60695724
0.60949948
0.61255378
0.61607921
0.62026385
0.62496238
0.63054531
0.63688841
0.64423544
0.65279297
0.66318372
0.67679999
0.69607651
0.72128705
0.73292595
0.74563378
0.76168365
13.865904
4.6136147
1.9091826
0.93622569
0.68650338
0.62611901
0.60901029
0.60506006
0.60517944
0.60631544
0.60871048
0.6113799
0.61477018
0.61844089
0.6227979
0.62760758
0.63309242
0.63941976
0.64661769
0.65505767
0.664842
0.67767643
0.69628968
0.72223498
0.73705929
0.75045999
0.76280411
14.667705
5.2548413
2.0609821
0.98313591
0.69694826
0.63009779
0.61104314
0.60651283
0.60657209
0.60775245
0.61045478
0.61334576
0.61686328
0.62079675
0.62533234
0.63044147
0.63619499
0.64271863
0.65021133
0.65867499
0.66839612
0.68013131
0.69698571
0.72336901
0.74111675
0.75679399
0.76704008
15.575618
5.1972455
2.0784034
0.99553053
0.70320367
0.63362249
0.61344817
0.60868156
0.60899579
0.61037111
0.61324757
0.61624505
0.61983221
0.62372936
0.62827804
0.63335126
0.63921307
0.6457473
0.65323054
0.66198314
0.67169726
0.68321641
0.69817165
0.72422643
0.74378486
0.76273312
0.77308511
16.49155
4.8574314
2.0936162
1.0168278
0.71659481
0.64133685
0.61920796
0.61362566
0.61363557
0.61463346
0.61724093
0.62026404
0.62385281
0.62771567
0.63229848
0.63721393
0.64298988
0.64961313
0.65706674
0.66559506
0.67529048
0.68632628
0.69971749
0.72457954
0.74547711
0.76728462
0.77976286
17.362782
5.1037374
2.2282643
1.0987672
0.756191
0.65825373
0.62937759
0.61968116
0.61829974
0.61878384
0.62093578
0.62392665
0.62765335
0.63170034
0.6363513
0.64162464
0.64744345
0.65411246
0.66169207
0.67034942
0.68007328
0.69107959
0.70267845
0.72589405
0.74693962
0.77055643
0.7848457
18.357344
6.3847195
2.6525125
1.2564859
0.7916699
0.6704208
0.63560608
0.62303585
0.62094564
0.62118112
0.62310423
0.62629339
0.63031884
0.63472253
0.63979899
0.64529047
0.6513102
0.657912
0.66552869
0.67406607
0.68392249
0.69534208
0.70616972
0.72766997
0.74861404
0.77340186
0.7899673
19.492599
7.1599392
2.8329096
1.3011285
0.79950101
0.67424802
0.63762072
0.62473484
0.62267263
0.62309624
0.62526952
0.6289948
0.63349016
0.63814509
0.64350353
0.64926715
0.65588562
0.66281983
0.67059141
0.67925297
0.68893601
0.70044567
0.7105401
0.73052186
0.75034337
0.77606587
0.79430073
20.82391
6.9028594
2.7710527
1.2852822
0.79846154
0.67587383
0.63982624
0.62758208
0.62586508
0.62660612
0.62972854
0.63406682
0.63854826
0.64315773
0.648202
0.65363387
0.65989753
0.66686759
0.67480823
0.68361334
0.6935238
0.70545216
0.71508631
0.73431795
0.75292222
0.7782547
0.79856897
22.04032
5.9533307
2.6635005
1.2772051
0.80427198
0.68122463
0.64603064
0.6349664
0.63407499
0.63554409
0.63890517
0.64268768
0.6467164
0.65080144
0.65551007
0.66053286
0.66611958
0.6724226
0.67957277
0.68788743
0.6972666
0.70930896
0.71845126
0.73723839
0.75496562
0.77959545
0.80176522
23.267007
6.1004951
2.7367243
1.3314657
0.84309201
0.7024793
0.66680576
0.65157867
0.64693557
0.6463808
0.64760858
0.65025794
0.65391132
0.65788947
0.66267252
0.66765159
0.67337332
0.67969887
0.6869167
0.69506488
0.70391717
0.71578362
0.72430108
0.74213908
0.75919829
0.78213939
0.80562503
24.635101
7.4864779
3.2046527
1.5801287
0.9510375
0.7446357
0.68968133
0.66456229
0.65562038
0.65271898
0.65306819
0.65479629
0.65844432
0.66247396
0.66690087
0.67208546
0.67794598
0.68450908
0.69195356
0.70043789
0.70948829
0.72160273
0.72981143
0.74663985
0.76347186
0.7850843
0.80902524
26.143732
9.0192505
3.7099897
1.7943693
1.0053146
0.76544086
0.69856216
0.67073539
0.65942042
0.65577451
0.6558224
0.65749523
0.66138069
0.66562024
0.67083012
0.67668729
0.68305576
0.68980042
0.69730251
0.70546618
0.71427476
0.72639603
0.7343817
0.75032203
0.7669604
0.78741049
0.81166394
27.805663
9.0716157
3.7279736
1.8080009
1.0047474
0.76844107
0.70052193
0.67363494
0.66211072
0.65849531
0.65855879
0.66040869
0.66449554
0.66900544
0.67443876
0.68075416
0.68786073
0.69556896
0.70364078
0.71224386
0.72098182
0.73295872
0.74050604
0.7549268
0.77125515
0.79014941
0.81389533
29.567477
7.8834973
3.5014679
1.7440126
0.99741406
0.76984411
0.70316423
0.67836115
0.66698365
0.66369424
0.6637229
0.66599159
0.67054801
0.67547694
0.68115257
0.68714682
0.69366899
0.70090142
0.70875762
0.71753878
0.72617798
0.7388216
0.74634479
0.75955356
0.77561742
0.79337434
0.81692082
31.403954
7.7792731
3.5195014
1.7566427
1.0156555
0.77759327
0.71262724
0.6917701
0.68166744
0.67864237
0.67831427
0.68073768
0.68513741
0.68947475
0.69363158
0.69819867
0.70311793
0.70882465
0.71538119
0.72289021
0.73046308
0.74262306
0.75041074
0.76251606
0.7782855
0.79516478
0.81794198
33.244142
12.433286
4.6020306
2.07743
1.1451155
0.81836917
0.74594625
0.71664014
0.70394577
0.69544474
0.69294413
0.69339023
0.69579509
0.69918733
0.70294414
0.70729575
0.71203505
0.7175402
0.72380161
0.73101206
0.73775344
0.74925499
0.75663573
0.76721671
0.78234561
0.79807987
0.81976172
35.626891
14.066795
4.9045385
2.2058296
1.1824271
0.84020493
0.76013798
0.7249073
0.71131045
0.70076003
0.69756052
0.69731012
0.69908192
0.70250109
0.70651925
0.71128512
0.71648177
0.72243323
0.72901559
0.73668185
0.74370263
0.75553607
0.76352974
0.77316251
0.78752102
0.80200774
0.82241732
38.017489
10.016028
4.1149575
2.0084832
1.1473199
0.83717354
0.7614506
0.72697684
0.71368756
0.70322836
0.69976096
0.69932046
0.70097099
0.70452655
0.70877393
0.71368839
0.71914899
0.72533017
0.73205004
0.73997384
0.74690355
0.75882551
0.76769961
0.77680017
0.79091043
0.80494215
0.82375462
40.536978
9.6741869
4.3126823
2.1562727
1.2210703
0.86680734
0.78051837
0.73933421
0.72324797
0.71160744
0.70690927
0.70566641
0.70679164
0.71048417
0.71503407
0.72014922
0.72593189
0.73233702
0.73919957
0.74719374
0.75359923
0.76496073
0.77413651
0.78232027
0.79594973
0.80951718
0.82698936
42.599753
27.225407
11.732452
4.4937046
1.9243592
1.0606394
0.87011115
0.78192627
0.7500827
0.72890865
0.71909985
0.71510486
0.71515083
0.71787839
0.72212424
0.7270678
0.73266038
0.73914045
0.74587686
0.75412367
0.7604623
0.77130016
0.78116026
0.78872607
0.80159152
0.81452692
0.83066327
50.6534
26.953855
9.3875963
3.6617968
1.7280556
1.0480583
0.87303304
0.78590587
0.75175529
0.7310014
0.72136954
0.71796096
0.71836928
0.72120333
0.72560429
0.73058862
0.73611414
0.74257858
0.7490734
0.75746174
0.76378706
0.77433591
0.7845314
0.79218932
0.80475826
0.81748684
0.83330305
51.148911
14.356406
4.845799
2.6422091
1.4709479
1.0627032
0.8878419
0.80491761
0.76575387
0.74266788
0.73058698
0.72522554
0.72470307
0.72631068
0.73026104
0.73475096
0.74005508
0.7462973
0.75249568
0.76088593
0.76710672
0.77732456
0.7881589
0.79579877
0.80768316
0.82030971
0.83576013
53.953601
34.154317
15.826602
7.5571661
3.4399757
1.6502219
1.0937854
0.9000913
0.82709678
0.77825223
0.75517624
0.74319787
0.73910357
0.73845525
0.74118601
0.74497524
0.7497899
0.75550726
0.76112208
0.76912126
0.77514601
0.78416768
0.79496413
0.8020626
0.81278019
0.82463635
0.83948035
56.73567
36.418994
19.003715
8.9657137
3.9398704
1.7702332
1.1381299
0.91553447
0.85607313
0.79124974
0.77102732
0.75183941
0.74748078
0.74648962
0.74851388
0.75242984
0.75701787
0.76252408
0.76795779
0.77564061
0.78155254
0.7895704
0.80036513
0.80743442
0.81731087
0.82808275
0.84313923
59.864911
28.730558
15.535692
7.4509014
3.3662198
1.5863121
1.0696379
0.89023702
0.83742399
0.78190291
0.76686566
0.74971595
0.74778402
0.74698124
0.74992419
0.75428411
0.75902452
0.76483023
0.77035009
0.77814886
0.7843769
0.79190516
0.80300989
0.81016131
0.81976105
0.8299263
0.84482627
62.307612
15.857833
8.4533103
4.3566127
2.2320246
1.30611
0.98358274
0.86929624
0.81883339
0.77757885
0.76314384
0.74971829
0.74828105
0.74788425
0.75105067
0.75542317
0.76031985
0.7661739
0.77175582
0.77946878
0.78586872
0.79311847
0.80416678
0.81145202
0.82078538
0.83046182
0.84481596
65.836472
14.839747
6.7956018
3.6256897
2.0133063
1.2796501
0.98500735
0.87870575
0.82495337
0.78454804
0.76713847
0.75412034
0.75280458
0.75170364
0.75513764
0.75906182
0.76421471
0.76998435
0.77566291
0.78314782
0.78966147
0.7965443
0.80737545
0.81483005
0.82365709
0.83233444
0.8468312
70.608106
25.51802
9.5481839
4.8358634
2.5785313
1.5176392
1.1019775
0.93608092
0.88267194
0.8114654
0.79326773
0.76843288
0.77036446
0.76404962
0.76772842
0.77000151
0.77556014
0.78073801
0.78636956
0.79325454
0.7995992
0.80557755
0.8154821
0.82262084
0.83056882
0.83737868
0.85052736
72.70896
37.857577
18.38127
9.8179982
5.0865548
2.6103408
1.5599534
1.0946831
1.0007658
0.86717967
0.84573831
0.80041625
0.79655137
0.78313283
0.78368266
0.78305644
0.78620514
0.78996369
0.79448095
0.80023681
0.80617578
0.81116246
0.82019882
0.82706349
0.8349372
0.84102774
0.85322609
73.611753
37.006503
19.51125
11.296844
6.200056
3.1708106
1.7737703
1.1614801
1.0255295
0.89318973
0.86197338
0.81739441
0.80472929
0.79102415
0.78871635
0.78774995
0.78975279
0.79310495
0.79709233
0.8022313
0.80800946
0.81258695
0.82129742
0.82836679
0.83666043
0.84269639
0.85359825
75.793707
28.942307
17.56667
10.600724
5.9592563
3.0951886
1.7378532
1.1479197
1.014523
0.89228419
0.86133651
0.8182657
0.80420966
0.79105538
0.78825082
0.78755622
0.78936594
0.79286111
0.79676364
0.80193406
0.80777763
0.81246078
0.82112813
0.82824326
0.83667701
0.84265334
0.85320416
78.514208
19.28495
11.748513
7.5515352
4.4377952
2.4280063
1.4549245
1.048034
0.954121
0.86724586
0.84813403
0.8105321
0.79865645
0.78763256
0.78573073
0.78575577
0.7880043
0.79191868
0.79596112
0.80138858
0.8072559
0.81210431
0.82068379
0.82789207
0.83637915
0.84258828
0.85338626
81.689158
18.915959
9.9950451
6.0489391
3.5086074
2.0092744
1.2994362
0.99961364
0.92341012
0.84937971
0.83548314
0.80076591
0.79430422
0.78425504
0.784089
0.78417034
0.78695801
0.79092017
0.79522322
0.80069171
0.80670329
0.81174367
0.82023871
0.82759617
0.836365
0.84298552
0.85372124
84.139191
26.041465
11.229507
6.3250149
3.5901959
2.0497649
1.3218615
1.009886
0.92771883
0.85133805
0.83581376
0.80018765
0.79441604
0.78426828
0.78427025
0.7842012
0.78703453
0.79089202
0.79529784
0.80069014
0.80680078
0.81187448
0.8204204
0.82824556
0.83735759
0.84398579
0.85452177
84.748076
31.840897
14.661664
8.0056362
4.4492263
2.4798841
1.5264637
1.0909596
0.96740021
0.87187233
0.84776467
0.80603673
0.79968123
0.7879052
0.78748096
0.78676013
0.78949655
0.79311368
0.79781889
0.80313494
0.809361
0.81458006
0.82272967
0.83027383
0.83884877
0.84409182
0.85449197
85.315762
31.303427
15.289243
9.5384606
5.9695528
3.5409812
2.1170183
1.3504083
1.0859619
0.93748352
0.88951699
0.83333875
0.82090965
0.80316734
0.79919682
0.79593817
0.79729169
0.79940602
0.80295658
0.80729997
0.81254194
0.81705663
0.82386947
0.83052595
0.83917439
0.84374634
0.85391613
86.050722
29.20168
15.108992
9.8853853
6.5946586
4.135569
2.5054608
1.5497507
1.167887
0.98608037
0.91948797
0.86133782
0.83763063
0.81587589
0.80678019
0.8013978
0.80091858
0.80176907
0.80434021
0.80811814
0.81297509
0.81710275
0.82374084
0.83006745
0.83880698
0.84310809
0.85299862
86.627151
23.526537
14.164003
9.7455885
6.6065119
4.2157117
2.5747363
1.5908893
1.1837314
0.99735287
0.92579923
0.86880422
0.84106962
0.81849245
0.80785844
0.80201244
0.80103967
0.80165324
0.80404663
0.80766061
0.8124406
0.81640987
0.82306786
0.82906651
0.83788194
0.84200113
0.85155673
86.838612
18.644607
11.219723
8.7031943
6.1195813
3.9782262
2.453359
1.5374584
1.1583166
0.98814047
0.92082827
0.86680579
0.83899331
0.81693896
0.8062328
0.80053671
0.79941836
0.79993498
0.80228779
0.80585125
0.81056955
0.81455712
0.8213538
0.82725058
0.8359474
0.84034214
0.84938809
86.696124
16.39215
8.370729
6.1378134
4.4295459
2.9654656
1.9018333
1.2878576
1.0407093
0.93341513
0.88849523
0.84891436
0.82481574
0.80654224
0.79742376
0.79334556
0.79263449
0.79369531
0.79652657
0.80059913
0.80555065
0.81022509
0.81738089
0.82391165
0.83211934
0.83770853
0.84676866
86.286351
16.146159
7.2181887
4.5708049
3.0741252
2.0480949
1.4080464
1.0717397
0.935396
0.87063905
0.84187422
0.81528262
0.79956194
0.78731293
0.78225254
0.78084091
0.78200502
0.7847644
0.78871193
0.79381859
0.79947296
0.80510084
0.81260492
0.81998831
0.82809031
0.83511669
0.84467578
85.387265
16.59483
7.080128
4.031797
2.4656265
1.6031075
1.1672115
0.96686548
0.88257622
0.83744504
0.81476607
0.79431265
0.78312128
0.77468303
0.7720541
0.77205647
0.77459395
0.77843243
0.78323755
0.78896744
0.79513683
0.80142739
0.80933985
0.81720657
0.82549147
0.83361494
0.84368898
83.988575
18.164089
7.298105
3.9941279
2.307938
1.451795
1.0789523
0.9284822
0.86361518
0.82613874
0.80521934
0.78675277
0.77693666
0.76994577
0.7681574
0.76854523
0.77167001
0.77592694
0.78110226
0.78712291
0.7934483
0.80014789
0.80819964
0.81629573
0.82466558
0.83319071
0.84345396
82.19086
19.111626
8.1445888
4.2256694
2.3465144
1.4435102
1.0664896
0.9226328
0.8614314
0.82545516
0.80491609
0.78647502
0.77679893
0.76975564
0.76801892
0.76836279
0.77144402
0.7758424
0.78087336
0.78711416
0.79326237
0.80022858
0.8082285
0.81646386
0.82492944
0.8340494
0.84513475
80.058308
19.227396
8.9665867
5.1052565
2.6716875
1.5227021
1.0856444
0.92878066
0.86543766
0.83000432
0.80953892
0.79082614
0.78042345
0.77264188
0.77023792
0.77035142
0.77312181
0.77728499
0.78241092
0.78839206
0.79479099
0.80195949
0.81043336
0.818682
0.82736516
0.83679436
0.84789471
77.585533
18.884415
9.2386037
5.8260737
3.2496185
1.7699449
1.1615919
0.95157996
0.87636855
0.83980981
0.82009619
0.80104778
0.78991556
0.78057576
0.77738492
0.77681287
0.77876494
0.78220773
0.78713019