/*--------------------------------*- C++ -*----------------------------------*\
| =========                 |                                                 |
| \\      /  F ield         | OpenFOAM: The Open Source CFD Toolbox           |
|  \\    /   O peration     | Version:  2406                                  |
|   \\  /    A nd           | Website:  www.openfoam.com                      |
|    \\/     M anipulation  |                                                 |
\*---------------------------------------------------------------------------*/
FoamFile
{
    version     2.0;
    format      ascii;
    arch        "LSB;label=32;scalar=64";
    class       volScalarField;
    location    "18";
    object      omega_0;
}
// * * * * * * * * * * * * * * * * * * * * * * * * * * * * * * * * * * * * * //

dimensions      [0 0 -1 0 0 0 0];

internalField   nonuniform List<scalar> 
62344
(
4.3521726
3.3291398
2.7490511
2.3749945
2.090918
1.8649401
1.6748207
1.5258423
1.4120644
1.3247191
1.2571254
1.2018744
1.1459691
1.0980375
1.0552086
1.0133356
0.98694629
0.97564832
0.96247726
0.94072193
0.92200933
0.91522822
0.91010981
0.90595194
0.8965945
0.88199099
0.87600811
0.87165399
0.87616178
0.8961384
0.92642602
0.95217135
1.0010584
1.0569078
1.1275601
1.1909312
1.3253217
1.4494624
1.6413805
1.7718326
1.9876794
2.2934297
2.5328934
2.8137089
3.0925308
3.3903985
3.6784677
3.8897269
3.9756007
4.0335882
4.1587231
4.3610269
4.7671364
5.0606258
5.6928783
4.3581489
3.3375947
2.7549313
2.3795884
2.0984683
1.8731151
1.683153
1.5326318
1.4143164
1.3286897
1.262152
1.2046076
1.14958
1.1057521
1.0632727
1.0166965
0.98689279
0.97300362
0.95788083
0.93844822
0.9190626
0.90739474
0.89975472
0.8962342
0.88630664
0.87106481
0.86331617
0.85807301
0.86199972
0.87825047
0.89738839
0.91686149
0.95712072
0.99284464
1.0428366
1.1005932
1.2066323
1.3296981
1.4755737
1.5935376
1.8633137
2.0650178
2.4215367
2.8316403
3.2431169
3.6444781
3.9470978
4.1178791
4.3224863
4.4788453
4.5353251
4.6126439
4.7958447
5.0564557
5.5140291
4.3641257
3.3426535
2.7599845
2.3851718
2.1038592
1.8768959
1.6874172
1.5345975
1.4196778
1.3316289
1.2676051
1.2071153
1.1548671
1.107997
1.0647582
1.0216058
0.99198138
0.97734088
0.95937943
0.93731386
0.92320604
0.9070408
0.89654969
0.88981872
0.87740608
0.86684863
0.86034109
0.85605281
0.86047814
0.87711112
0.89319143
0.91212697
0.94818414
0.97700918
1.0292054
1.0916191
1.1776532
1.2781708
1.3743148
1.5126054
1.7120121
1.8766248
2.2582108
2.6771411
3.2224616
3.5918918
3.9069819
4.1554498
4.4582546
4.6899323
4.8651913
4.9533659
4.986298
5.1129123
5.3583918
4.3697721
3.3477001
2.7647008
2.3903308
2.1102266
1.8850226
1.6930122
1.5399311
1.4219298
1.3349509
1.2696611
1.2104328
1.1560997
1.1066776
1.0685204
1.0255923
0.9935825
0.98204791
0.96805367
0.94373246
0.92179754
0.90529837
0.89622126
0.89059637
0.88240166
0.87278498
0.86425755
0.86059084
0.86624214
0.88121091
0.89242631
0.90986724
0.94011329
0.96734097
1.0240823
1.1039343
1.1892371
1.2784391
1.3601645
1.4985142
1.6630294
1.8738113
2.1938311
2.5469704
3.066937
3.441051
3.8451813
4.1799246
4.522604
4.7914337
5.0327551
5.2458436
5.3517812
5.49821
5.5222772
4.3749201
3.3516439
2.7691322
2.3942092
2.1130592
1.8880867
1.7002764
1.5450245
1.4270954
1.3377525
1.2707686
1.2167484
1.1603693
1.1144658
1.0770033
1.0304372
0.99381679
0.98224014
0.96712757
0.94686969
0.92326
0.90455555
0.89443059
0.89069665
0.88326766
0.87262374
0.86367933
0.86045308
0.8662702
0.87910199
0.88873496
0.90473925
0.92762583
0.95414227
1.0064629
1.0982015
1.1930855
1.2876817
1.3641438
1.4911614
1.6404919
1.8650301
2.1258832
2.5163351
2.9595714
3.3883334
3.84569
4.2397179
4.56506
4.8769307
5.0710506
5.3376295
5.5469826
5.7187939
5.7480427
4.3816068
3.3566978
2.7752721
2.4024311
2.1194392
1.8928917
1.7022373
1.5498098
1.4318818
1.3444492
1.2775537
1.2226075
1.1663182
1.117316
1.0825379
1.0355753
0.99788106
0.98463836
0.96793614
0.94736769
0.93051342
0.91124539
0.89615618
0.8916322
0.8827935
0.87003085
0.86046538
0.85746264
0.86370789
0.87676507
0.88766183
0.90208812
0.92021564
0.94427543
0.99171456
1.0878724
1.1892666
1.2976545
1.3851766
1.499249
1.6433876
1.8215818
2.0682213
2.4143027
2.818794
3.3028745
3.7705232
4.176887
4.533401
4.8376565
5.0629099
5.3957677
5.5716152
5.8118263
5.9778031
4.3864683
3.3624456
2.7793586
2.4064214
2.1270804
1.9009022
1.7061082
1.5535394
1.4336312
1.3488861
1.2793808
1.2248854
1.1737286
1.1188443
1.0873843
1.0424697
1.0016688
0.98728577
0.97489024
0.9516252
0.93279454
0.91437398
0.90016289
0.89306002
0.88285393
0.87019897
0.86090681
0.85794147
0.86347322
0.87702019
0.89166975
0.9061661
0.92137492
0.94387728
0.97884204
1.0508415
1.1493316
1.2812236
1.3875132
1.4927629
1.6386619
1.8052284
2.0336705
2.3416318
2.7017767
3.1326064
3.5974124
4.0508405
4.4453792
4.7284416
4.9775604
5.2429356
5.3964969
5.7176269
5.8978527
4.3907168
3.3686016
2.78403
2.4084546
2.1302533
1.9056625
1.7145447
1.5579129
1.4390429
1.3499821
1.2819514
1.2286899
1.1764066
1.1247935
1.0866096
1.0505952
1.0078789
0.98861284
0.97285558
0.9531007
0.934201
0.91920683
0.90591698
0.89386487
0.88084122
0.86965744
0.86132177
0.85791961
0.86190275
0.8741004
0.89336772
0.91402234
0.93067678
0.95025425
0.98026471
1.0301033
1.106103
1.2419256
1.3593278
1.4585095
1.5941915
1.7798199
2.0219865
2.3192772
2.6289428
2.9731279
3.3532395
3.7807857
4.2161133
4.5785141
4.8644679
5.0972896
5.2482188
5.5824003
5.7398052
4.3955895
3.3725799
2.7888484
2.4146093
2.1336184
1.9092235
1.7192245
1.5630738
1.4431571
1.3523148
1.2873862
1.2320122
1.1744187
1.127502
1.084843
1.0521269
1.0122283
0.98888935
0.96787328
0.95256266
0.94119365
0.92507859
0.90778719
0.8942301
0.88213751
0.87339987
0.86474221
0.8585676
0.86013828
0.86899259
0.88933445
0.91690489
0.94022999
0.95756321
0.98766641
1.0319689
1.0919825
1.1948426
1.295501
1.4131219
1.5505537
1.7597194
2.0118635
2.3027687
2.5845664
2.8982869
3.2031936
3.547359
3.9128676
4.2778142
4.5748422
4.8501432
5.044467
5.3624627
5.5338597
4.4003445
3.3769725
2.7924674
2.4199318
2.1395517
1.9150642
1.7220461
1.567732
1.4469185
1.3563802
1.2927369
1.2378963
1.1785199
1.1335899
1.0935838
1.0534396
1.0160628
0.99304062
0.97426581
0.9539956
0.94191884
0.92642191
0.90725133
0.89540368
0.88751091
0.87949198
0.87002812
0.86181243
0.86127863
0.86776721
0.88589483
0.9132022
0.94402644
0.96723701
1.0012514
1.049252
1.1036971
1.183077
1.2521318
1.3631643
1.4930077
1.7212691
1.9950103
2.2757689
2.5329487
2.8260895
3.1275519
3.4420916
3.7397501
4.0655815
4.3704402
4.6472228
4.8399663
5.0835745
5.2455618
4.4040289
3.3818038
2.7958929
2.4214629
2.143872
1.9189813
1.7262765
1.5696764
1.4506928
1.3578915
1.2932574
1.2390021
1.1867305
1.1400304
1.09893
1.059364
1.0203733
0.99790977
0.98186891
0.95651462
0.93953326
0.92620183
0.91108863
0.89784386
0.88858311
0.87863596
0.86920154
0.86353308
0.86499286
0.8709102
0.88611798
0.90945395
0.9423714
0.97130866
1.0071697
1.0615684
1.1155322
1.1853621
1.2448009
1.3467806
1.4676558
1.6879013
1.961792
2.2503741
2.5251029
2.8235709
3.1294066
3.4369027
3.7106655
4.010895
4.2925057
4.5775255
4.7883277
4.998537
5.1444733
4.408157
3.3861884
2.8003344
2.4249061
2.1470287
1.9220446
1.731825
1.5732932
1.4533126
1.3589979
1.292907
1.2378473
1.1884045
1.1421641
1.0967483
1.0645332
1.0253251
0.99809869
0.97995757
0.95836699
0.93987646
0.92815727
0.91841125
0.90191104
0.88916041
0.87693497
0.86890773
0.86524934
0.86787472
0.87379525
0.88620366
0.90820221
0.94061839
0.97201342
1.0066246
1.0585235
1.1110631
1.188401
1.2517363
1.3502132
1.4677975
1.6843505
1.9508626
2.2397231
2.5345317
2.8545134
3.1990685
3.5644401
3.8877485
4.2021635
4.4754373
4.7654166
4.9872994
5.1816431
5.2991992
4.4127776
3.3895627
2.8050778
2.4325567
2.1515226
1.9280602
1.7373626
1.5786532
1.4577587
1.3631063
1.2964936
1.2414753
1.1872974
1.1420411
1.0945354
1.0683325
1.0286532
0.99386793
0.97037299
0.95693562
0.94516053
0.9339429
0.92312921
0.90575774
0.89188173
0.88363331
0.87414458
0.86966371
0.87096825
0.87478824
0.88480281
0.90765047
0.94027853
0.96962014
1.0000597
1.0497223
1.1024646
1.1847087
1.2667234
1.3716354
1.4924348
1.7076268
1.9717571
2.2581447
2.5749729
2.9225826
3.3310954
3.7507526
4.1331658
4.4804563
4.7736813
5.0453636
5.2928826
5.5247874
5.6641567
4.4166982
3.3930705
2.8088163
2.4391619
2.1564213
1.9347843
1.7417388
1.582985
1.4637108
1.3672422
1.3025228
1.2525589
1.1889309
1.1459649
1.1011608
1.0714709
1.0303773
0.99320876
0.96946967
0.9567493
0.94755557
0.93539962
0.92105943
0.90706662
0.89558436
0.89018828
0.88352806
0.8795992
0.87896775
0.87970463
0.8857334
0.90835702
0.94216883
0.97034763
0.99817031
1.0477767
1.0998272
1.1808077
1.2761839
1.3932236
1.5231914
1.7309821
1.9981567
2.2842122
2.6014911
2.9539156
3.3778413
3.8218379
4.2295831
4.5917123
4.890133
5.1352145
5.367654
5.6432074
5.8494112
4.4197107
3.3975842
2.8118102
2.4407912
2.160592
1.9382845
1.7450215
1.5856515
1.4656069
1.3687574
1.3033907
1.2552836
1.1946094
1.1498038
1.1100286
1.0728942
1.0311597
1.0001467
0.97882217
0.96084202
0.9489108
0.93510789
0.91966635
0.9056564
0.89399277
0.8877012
0.88394595
0.88401324
0.88560338
0.88750168
0.89360125
0.914174
0.94676001
0.97645871
1.0043015
1.0576089
1.1091283
1.1856991
1.2808882
1.4061388
1.5437516
1.7427228
2.0042392
2.2852627
2.5931716
2.9438205
3.3664143
3.8250867
4.2467737
4.6254273
4.9157075
5.1343305
5.3472703
5.6323161
5.847269
4.4223638
3.4023418
2.8149987
2.4406932
2.163983
1.9395789
1.747892
1.5880628
1.4648013
1.3692533
1.3012451
1.2495945
1.1980514
1.1504803
1.1134489
1.0744395
1.0336633
1.0028276
0.98262416
0.96518705
0.94949649
0.93373684
0.92051316
0.9067644
0.8919572
0.88280874
0.88104504
0.88466698
0.89125794
0.89821529
0.90684351
0.92664943
0.95333602
0.98843059
1.0210061
1.0828117
1.1345588
1.2047559
1.2945118
1.4287546
1.5728429
1.7676738
2.0097513
2.283858
2.5744884
2.8876838
3.2442579
3.7011354
4.1462568
4.5440572
4.8278221
5.0319551
5.2346658
5.5166545
5.7086492
4.4253968
3.4068058
2.8189239
2.4434623
2.1682379
1.942839
1.752328
1.5921149
1.4657329
1.3712145
1.3017063
1.2455136
1.2005332
1.1509582
1.1133392
1.0777644
1.0400435
1.0047976
0.98290599
0.96936455
0.95386059
0.93743657
0.92748713
0.91337252
0.89641772
0.88593139
0.88498218
0.88964213
0.90163369
0.91623417
0.93009145
0.94798847
0.97048402
1.0067945
1.0504755
1.1169152
1.1761806
1.2488375
1.3392355
1.4677551
1.6285418
1.8182104
2.0415414
2.3021406
2.5749196
2.8691363
3.1719176
3.5340973
3.9284904
4.3371912
4.6561161
4.9001532
5.0945175
5.3966406
5.5729858
4.4280315
3.4103361
2.8229063
2.4497519
2.1738051
1.9495507
1.7590445
1.5972588
1.4721971
1.3768228
1.3070106
1.2525365
1.2069771
1.1558946
1.1163791
1.0884736
1.0529177
1.0102024
0.98508964
0.97672287
0.9663502
0.95491432
0.94631429
0.9303678
0.91460646
0.90760187
0.90743139
0.9127897
0.92698338
0.94650895
0.96557363
0.98974728
1.0154584
1.0505328
1.1015891
1.176981
1.2485135
1.3315475
1.4262133
1.5396784
1.7016073
1.9021066
2.1050209
2.351882
2.6087649
2.8899327
3.1640351
3.4869364
3.8215383
4.1767933
4.508067
4.8137368
5.0156119
5.3768975
5.5480974
4.4317938
3.4140598
2.8269574
2.4568844
2.1798841
1.9573973
1.7669516
1.6032493
1.4836536
1.3860357
1.3164095
1.272262
1.2193584
1.1695405
1.1308151
1.1080477
1.0719554
1.0269675
1.000865
0.99291279
0.98945482
0.98633465
0.97906863
0.96224306
0.95142189
0.94819615
0.95088155
0.95910692
0.97613476
0.99904919
1.0205697
1.0488555
1.0847013
1.121177
1.1813919
1.2689375
1.3565942
1.4533495
1.5667225
1.6845449
1.8285821
2.0246022
2.2227092
2.4541976
2.6907704
2.9581364
3.2137334
3.5065762
3.7993775
4.1398311
4.4547665
4.7650914
4.995434
5.373102
5.535883
4.4336416
3.4174315
2.8307242
2.4620523
2.1858177
1.9648435
1.7758991
1.6128559
1.497334
1.3997698
1.3306069
1.2968218
1.2393879
1.1925937
1.1583244
1.1364666
1.0990681
1.0580821
1.0335253
1.0265455
1.0262128
1.0253113
1.0200955
1.0083537
1.0025052
1.0006473
1.0077461
1.0224471
1.0463232
1.0757188
1.0997132
1.1321154
1.1755016
1.2147996
1.2781819
1.38135
1.4828954
1.5941371
1.729687
1.8715326
2.0237023
2.2239731
2.4149545
2.6369515
2.8493546
3.1090106
3.3545845
3.6324358
3.8833148
4.2001728
4.4796155
4.778775
5.0267974
5.3540907
5.5493984
4.4392183
3.4240417
2.837869
2.4701956
2.197491
1.9794316
1.795053
1.6357885
1.5226513
1.4279386
1.3610217
1.330278
1.2753893
1.2324568
1.2038629
1.1814962
1.1456653
1.1136778
1.0942175
1.0899856
1.0935551
1.096528
1.0946095
1.0922401
1.0917575
1.0951591
1.1099868
1.1378277
1.1706204
1.2080068
1.2355677
1.2744749
1.3252731
1.3614917
1.423534
1.5329645
1.6586341
1.785426
1.9428759
2.1151556
2.3072037
2.5535957
2.7866362
2.9937583
3.1630552
3.4190262
3.6599382
3.9259744
4.1296966
4.4065233
4.6466235
4.9052883
5.1459943
5.3956095
5.596385
4.4475808
3.4399038
2.8600992
2.4978968
2.2325356
2.0186625
1.8399467
1.685269
1.5737793
1.4856664
1.4241053
1.3970649
1.3546141
1.3222964
1.3066215
1.2962502
1.2699556
1.2502556
1.2440111
1.254323
1.2695058
1.2856533
1.2934571
1.3065197
1.3214768
1.3463422
1.3796367
1.4294601
1.4834822
1.5345668
1.5822794
1.6593223
1.7356764
1.7738593
1.8134432
1.8973701
2.0005529
2.141114
2.3023543
2.4713294
2.6541538
2.9139412
3.2111207
3.5019526
3.7452664
4.0086763
4.2292243
4.4507375
4.6216893
4.8536283
5.0668328
5.2619505
5.4566271
5.6126604
5.7563781
4.4962256
3.5021847
2.9284331
2.5710753
2.3091457
2.1038431
1.9404898
1.8114526
1.7299342
1.6769316
1.6442395
1.6436629
1.6394963
1.636061
1.6672778
1.6992918
1.6962174
1.6956798
1.7262677
1.7876548
1.8492893
1.9069263
1.9293426
1.9735581
2.0260535
2.0943155
2.1562089
2.2418481
2.3378921
2.4206693
2.5058515
2.6392323
2.772199
2.8319692
2.8836998
2.9368093
2.9981655
3.1194744
3.2717111
3.4438689
3.6013366
3.8227105
4.064686
4.3624568
4.6587544
4.9723709
5.2350507
5.4491505
5.6056962
5.7874402
5.9581365
6.1180082
6.2592041
6.3692968
6.3460079
4.58775
3.6238039
3.0917488
2.796369
2.5910941
2.4572395
2.35887
2.3550162
2.3805401
2.4440622
2.5231246
2.6140529
2.6816214
2.7326998
2.8592962
2.9818357
3.0088785
3.0271923
3.120843
3.276062
3.4081002
3.5080144
3.5478948
3.6268902
3.7326683
3.8527613
3.9597624
4.0939071
4.2450606
4.3772899
4.5094507
4.6943842
4.8764199
4.9735148
5.0845983
5.1533967
5.2041002
5.309585
5.4321398
5.6107862
5.7565984
5.9496927
6.1015438
6.3367991
6.6125391
7.0026534
7.3240449
7.5429319
7.7048452
7.8000621
7.9667615
8.1185014
8.2115108
8.281873
8.1445892
4.7606915
4.4631556
4.3927916
4.3610832
4.3864617
4.4441054
4.5366584
4.7189605
4.9578471
5.1721624
5.3759859
5.5822077
5.7567488
5.8745272
6.1097739
6.3238208
6.3785037
6.395085
6.5301654
6.7823633
6.9772074
7.0953952
7.1463297
7.2354776
7.3776394
7.5238397
7.6888748
7.877193
8.1215864
8.3247722
8.4981195
8.7146141
8.9465498
9.0935097
9.2634755
9.4275268
9.4865298
9.5801139
9.6391186
9.7711131
9.9803039
10.127731
10.253412
10.3818
10.534984
10.778523
11.044265
11.223565
11.392968
11.470544
11.763882
11.842385
11.897442
12.04519
11.933934
9.2463855
12.373321
13.161768
13.179199
13.325037
13.523451
13.544797
13.695671
13.809651
13.970458
14.208024
14.444755
14.791913
14.8865
15.492818
15.815688
15.72413
15.582286
15.697295
16.108621
16.43389
16.444586
16.397511
16.383942
16.55791
16.771348
17.010812
17.30029
17.604648
18.010098
18.387969
18.552372
18.643992
18.599413
18.568081
18.606796
18.728673
19.017044
19.046543
19.211732
19.400047
19.577901
19.759042
20.003934
20.344114
20.427746
20.407616
20.574619
20.691351
20.770712
21.19884
21.071181
20.883872
20.996114
21.019893
55.63579
56.457887
56.259843
55.99533
55.936445
55.765303
55.76806
55.920249
56.09563
55.913447
55.847836
55.741993
55.728096
55.654008
56.454571
56.846306
56.163136
55.762325
56.162517
56.317647
56.532328
56.258445
55.594522
55.207879
55.295453
55.763482
56.458261
56.57093
56.066698
55.479519
55.912224
57.054748
58.213091
58.629797
57.778195
55.555277
54.39683
55.208473
56.748019
57.927652
57.832095
55.764811
53.003826
52.063479
52.629566
54.170676
55.685941
56.734938
57.518363
58.08387
58.41346
58.449086
57.862231
56.52527
55.018499
54.97088
21.534536
11.88614
8.2495644
6.5338576
5.9525309
5.8064079
5.8051336
5.8639612
5.9309364
6.0016903
6.1127017
6.230671
6.2357486
6.0496862
5.6711491
5.5247212
5.5599182
5.8080911
6.0064928
6.1876456
6.1579183
6.013029
5.785534
5.5803834
5.6592707
5.9723678
57.611623
22.647133
12.086757
8.5472678
6.8770762
6.2964221
6.1618969
6.2439929
6.4292457
6.5424523
6.5782518
6.5843051
6.6089822
6.593566
6.4802072
6.1525622
5.8934695
5.8425329
6.0323523
6.3678525
6.5505655
6.4482248
6.2537947
6.0118022
5.8818975
5.9397207
6.3711921
62.307535
23.939223
12.625591
8.8472803
7.1911188
6.7202931
6.7012785
6.8992631
7.154757
7.2540026
7.0773546
6.9315387
6.8915093
6.9487246
6.9390284
6.6834402
6.3363577
6.194129
6.3313864
6.7267262
6.9464836
6.8103647
6.5210733
6.3505247
6.3081273
6.4121436
6.8076426
68.229172
24.805259
13.032741
9.2781255
7.6931609
7.3121834
7.4513526
7.7398176
7.9814326
7.9043119
7.432843
7.1661566
7.105464
7.2175353
7.2333477
7.0293038
6.6775432
6.5324972
6.6486016
7.0229925
7.3075133
7.2326225
6.8397759
6.6385224
6.7096274
6.8659936
7.1952131
74.50173
25.466062
13.523672
9.8622898
8.3980482
8.1290548
8.3050559
8.5667296
8.6885214
8.4290283
7.7570927
7.4034457
7.3171913
7.3651867
7.3760817
7.2087184
6.9449631
6.8629509
6.9399746
7.2576733
7.5693212
7.6611971
7.2504977
6.9481039
7.0814486
7.3496635
7.5392124
80.046321
26.504829
14.277039
10.652296
9.1910779
8.8628063
8.9652717
9.168378
9.2110691
8.8876193
8.1221717
7.631509
7.4525956
7.4345559
7.4319651
7.3394168
7.2477623
7.212191
7.2358936
7.4518729
7.7252401
7.9203963
7.6320304
7.3091159
7.4416355
7.7422626
7.8845872
82.734565
27.663436
15.00502
11.165342
9.7653963
9.3979811
9.4664478
9.7439422
9.7973334
9.3394544
8.3961993
7.8328889
7.5768179
7.5091411
7.5119072
7.4970635
7.490634
7.4960674
7.4902915
7.5998799
7.8774624
8.1061038
7.8643027
7.5578017
7.7466547
8.0684528
8.199789
82.20778
29.01831
15.546733
11.520407
10.304767
10.053315
10.293759
10.631166
10.586162
9.7650644
8.7009796
8.172539
7.8601644
7.7067502
7.669953
7.681874
7.7043813
7.6852191
7.6395211
7.7204834
8.0748687
8.3179995
8.0292184
7.6234907
7.9012166
8.3189246
8.481449
83.790795
31.017803
16.384129
12.31978
11.260392
11.127422
11.585588
11.806918
11.44358
10.114273
9.2084578
8.7523553
8.3697476
8.1179086
8.0227061
8.0172995
7.9764763
7.8622257
7.7632336
7.8628967
8.3210074
8.5527639
8.2179984
7.6409652
7.9218403
8.5451279
8.7686198
89.607572
33.339997
17.759282
13.40481
12.404333
12.471026
12.825085
12.832964
11.843587
10.55716
9.9436606
9.5338643
9.0799851
8.7624786
8.6712795
8.6612285
8.5029356
8.2243857
8.0206623
8.110771
8.6126285
8.7956253
8.4303753
7.7022765
7.9948883
8.8443522
9.1646766
99.236374
36.399186
19.352195
14.677386
13.647437
13.820527
14.044225
13.474331
11.892665
11.081418
10.692106
10.276134
9.7437157
9.4414412
9.4491702
9.5284384
9.3316338
8.8786201
8.5376716
8.5668911
9.0215379
9.107731
8.7005293
7.8370991
8.1628992
9.2119338
9.7194161
108.63709
39.665652
21.181531
16.281317
15.280272
15.46782
15.185488
13.482168
12.271795
11.702538
11.250555
10.679268
10.145089
9.9290682
10.039538
10.169487
10.074827
9.686031
9.354459
9.328153
9.6775696
9.6106135
9.0813727
8.0846294
8.3939836
9.5485082
10.339477
115.74925
42.796267
23.008287
18.278662
17.617474
17.122131
15.025153
13.406006
12.610542
12.104704
11.5516
10.921135
10.421186
10.200817
10.291652
10.455984
10.432465
10.222229
10.102362
10.232116
10.602148
10.418552
9.6738132
8.5227996
8.6910884
9.8410672
10.868732
119.46235
44.191684
25.069926
20.721696
19.59135
16.695491
14.395195
13.366238
12.834388
12.347807
11.77092
11.165919
10.693777
10.533697
10.617257
10.751726
10.707456
10.515244
10.44651
10.75309
11.369548
11.366344
10.5965
9.2092108
9.0699993
10.138219
11.204258
121.38728
46.842218
27.914698
23.221596
19.19742
15.635869
14.054275
13.484171
13.16894
12.717927
12.117369
11.477623
11.001587
10.900158
11.07408
11.2489
11.16554
10.862298
10.661484
10.882196
11.582422
11.891049
11.531051
10.179806
9.6621146
10.495758
11.501453
127.15829
50.001483
30.671331
23.295098
17.668961
15.101903
14.279886
13.977629
13.746999
13.345631
12.705965
12.047755
11.621171
11.539167
11.662152
11.718803
11.587317
11.212624
10.950669
11.078684
11.626676
12.029899
12.015769
11.128499
10.502357
11.095391
12.018515
137.9376
53.590798
32.378059
22.36659
16.747412
15.007104
14.632683
14.540258
14.413432
14.10885
13.553065
12.929608
12.49875
12.353808
12.388673
12.32246
12.056711
11.611715
11.267003
11.337861
11.756419
12.174532
12.281757
11.792681
11.304943
11.876708
12.903509
151.39128
57.68965
33.145574
21.571685
16.482441
15.111749
14.939861
15.01213
15.031986
14.876159
14.448524
13.889233
13.360412
13.130539
13.11436
13.109749
12.89328
12.372035
11.894787
11.71347
11.946519
12.368539
12.590705
12.322101
11.888546
12.546751
13.976343
161.99836
61.514211
33.73761
21.319769
16.73995
15.537299
15.394251
15.491637
15.567366
15.463188
15.121679
14.575718
14.055131
13.817462
13.747787
13.776422
13.69981
13.347645
12.809879
12.418213
12.374051
12.650269
12.947022
12.866571
12.471236
13.050627
14.775487
166.14061
63.700072
33.758668
21.300319
17.189774
16.177639
15.998154
15.979643
15.934729
15.753304
15.369759
14.893799
14.473692
14.257254
14.176416
14.209095
14.217045
14.005955
13.636197
13.272618
13.133852
13.252747
13.420429
13.364862
13.134808
13.606081
15.2943
161.18037
64.272823
32.604017
21.043481
17.505196
16.46705
16.169115
16.028271
15.870901
15.6313
15.308209
14.947853
14.625057
14.469874
14.434221
14.399799
14.38865
14.340546
14.141747
13.983413
14.017918
14.070242
13.996977
13.884196
13.859392
14.290777
15.818218
153.28039
63.867755
31.415961
21.018341
17.667815
16.454322
15.955283
15.694272
15.501324
15.286979
15.037334
14.841923
14.696058
14.599241
14.535317
14.468703
14.481616
14.52312
14.535134
14.599933
14.759364
14.777596
14.493606
14.417139
14.690142
15.113072
16.376249
149.38216
63.334133
30.370907
20.914624
17.53639
16.183367
15.583308
15.292594
15.126689
15.006078
14.903105
14.828553
14.748448
14.657703
14.563361
14.488285
14.548249
14.713821
14.971292
15.257348
15.357587
15.140181
14.797363
14.885471
15.510534
16.047126
17.122148
152.5943
62.661352
29.487222
20.446921
17.192205
15.846537
15.27157
15.037529
14.953786
14.965058
15.004572
14.988364
14.912918
14.799498
14.672121
14.607208
14.71602
15.022181
15.442702
15.766654
15.761602
15.353618
14.999284
15.269588
16.204247
16.878144
17.89754
161.80545
62.349017
28.965707
20.060312
16.898835
15.571034
15.008247
14.820372
14.832742
14.953098
15.161553
15.252718
15.241252
15.150383
14.996247
14.939029
15.085168
15.421923
15.824341
16.049321
15.982298
15.611412
15.329064
15.612589
16.660667
17.669476
18.745087
172.93718
62.701298
28.720862
19.81792
16.624689
15.270965
14.708337
14.562385
14.643993
14.919304
15.31203
15.579753
15.690936
15.674606
15.542175
15.483481
15.598089
15.846344
16.112921
16.231801
16.175172
15.914715
15.701809
15.907773
16.905219
18.152889
19.62976
180.70555
63.080884
28.614707
19.641465
16.404781
15.042408
14.488655
14.387877
14.511618
14.970878
15.581991
16.063689
16.329487
16.377864
16.22199
16.110092
16.149328
16.264224
16.404613
16.462415
16.401516
16.176421
16.007628
16.112499
17.015321
18.661377
20.470884
183.45827
62.71787
28.500709
19.611906
16.346612
14.954908
14.41883
14.381516
14.576008
15.22966
16.032134
16.670561
17.043597
17.110502
16.918
16.770601
16.720179
16.745816
16.81914
16.800083
16.661922
16.335737
16.145708
16.216872
17.178852
19.146293
21.272116
182.37162
62.148874
28.523321
19.690341
16.409799
15.017069
14.515267
14.518274
14.814546
15.606098
16.496974
17.21176
17.641178
17.727555
17.551474
17.394286
17.308799
17.325501
17.327529
17.223971
16.943434
16.484635
16.259497
16.407207
17.655844
19.938046
21.726857
178.88096
60.028632
28.165438
19.789002
16.645217
15.289346
14.805115
14.821687
15.15599
15.958902
16.845234
17.562747
18.032115
18.180454
18.062444
17.950687
17.924646
17.960424
17.891524
17.66735
17.255387
16.74143
16.527012
16.876616
18.483842
20.822452
21.922766
174.22058
56.873089
27.728338
20.045296
17.085943
15.758533
15.242497
15.236178
15.528676
16.257809
17.098875
17.81075
18.29414
18.519439
18.511899
18.482169
18.542501
18.587326
18.477402
18.184911
17.702683
17.209387
17.080368
17.648241
19.563738
21.4622
21.856192
168.32322
54.630394
27.863197
20.611115
17.696787
16.323558
15.733099
15.672271
15.902355
16.544484
17.362729
18.096797
18.628955
18.948481
19.079341
19.154361
19.264617
19.294497
19.170386
18.889483
18.466924
18.040192
17.978962
18.724828
20.717143
22.053817
21.964479
161.44277
53.559561
28.407954
21.428984
18.529485
17.106885
16.454768
16.331065
16.514347
17.093533
17.906272
18.672463
19.266493
19.661014
19.88905
20.033314
20.153782
20.202052
20.146044
19.956361
19.579416
19.144096
19.096399
19.871741
21.808862
23.066369
22.529451
153.37384
52.750525
29.236113
22.433198
19.501857
18.064895
17.432025
17.348139
17.573417
18.225136
19.096602
19.912378
20.521191
20.917559
21.128132
21.221977
21.309289
21.382437
21.402005
21.318364
21.030759
20.529484
20.345617
20.974931
22.938381
24.606972
23.922098
145.99668
52.627969
30.453525
24.073865
21.279028
19.916187
19.380839
19.391223
19.740273
20.582981
21.492823
22.216717
22.727715
23.061722
23.199781
23.150329
23.045426
22.998929
23.07007
23.132838
22.987125
22.438547
21.807556
22.003704
23.693335
26.638438
26.984085
138.63093
53.164852
32.003855
25.988025
23.420704
22.276053
22.004074
22.140906
22.755477
23.889175
24.836354
25.500913
25.994335
26.321318
26.509688
26.415119
25.934111
25.52526
25.427034
25.634205
25.773853
25.577094
24.344715
23.413793
24.26122
27.781245
31.235485
125.94836
55.498252
35.964307
30.265744
27.441139
25.811673
25.083636
25.094111
25.343812
26.278482
27.706659
28.869826
29.886228
30.771452
31.116361
30.634423
29.087567
27.646558
27.082693
27.48469
28.215642
28.572219
27.931668
25.977433
25.024461
26.982394
33.261882
104.76976
60.172483
43.570759
38.143272
33.951014
30.540704
28.020996
26.794403
26.526614
26.66301
28.126091
30.557519
32.832215
34.626108
35.450075
34.45473
31.560909
28.708135
27.604324
28.205676
29.598673
30.357671
30.13478
28.598139
25.8215
26.353134
31.094822
91.224851
64.302138
51.70367
45.367058
39.633243
34.306064
30.05331
27.352808
26.103589
25.823462
26.752756
29.944691
33.044315
35.637855
37.048814
35.879355
32.05214
28.435066
27.11424
27.99881
29.72567
30.564258
30.382432
28.765719
25.898235
25.703761
28.507512
92.258505
66.991698
54.303519
46.596352
39.824649
33.877907
29.222595
25.922886
24.283782
23.852495
24.608114
27.738677
30.944398
33.552998
34.459219
32.836516
29.175506
26.436671
25.703226
27.123804
28.842694
29.50861
29.211335
27.367424
25.221979
25.310622
27.60016
100.0211
68.279564
52.780235
42.775825
35.209744
29.435057
25.448191
22.96229
21.824325
21.657861
22.312157
24.549264
26.717841
28.165573
28.248633
26.830786
25.035233
23.88583
24.049009
25.294911
26.266975
26.534738
25.749687
24.320006
23.759337
24.453291
26.734958
109.08033
66.183448
45.409875
34.838546
28.440833
24.194326
21.45187
19.832319
19.22804
19.252497
19.782653
21.064481
22.153442
22.718987
22.549688
21.865009
21.36823
21.348722
22.063621
22.955868
23.276695
23.1449
22.411673
21.823459
21.976652
22.90841
24.095613
110.54729
61.079228
39.674602
29.727428
24.123043
20.735168
18.711144
17.610801
17.179605
17.219936
17.52215
18.11533
18.611925
18.81725
18.772586
18.661338
18.774209
19.284124
20.028429
20.603432
20.72719
20.422453
19.918645
19.683926
19.918972
20.513111
20.996442
108.24277
57.990783
36.26571
26.644561
21.630179
18.807037
17.189216
16.315284
15.933381
15.887513
16.011786
16.273178
16.523564
16.679557
16.776365
16.919326
17.205769
17.642769
18.134761
18.449981
18.500435
18.316389
18.047647
17.926569
17.988037
18.161646
18.414078
110.595
53.840076
32.44266
23.95094
19.77916
17.484352
16.1713
15.443421
15.092901
14.991826
15.037289
15.190306
15.388292
15.580688
15.763571
15.952089
16.158769
16.363817
16.519993
16.595207
16.598149
16.582653
16.533333
16.437175
16.322572
16.252014
16.389186
120.05499
48.810368
29.175333
21.916791
18.486121
16.636526
15.574142
14.960572
14.631556
14.496906
14.494711
14.597804
14.777245
14.983621
15.180471
15.341686
15.441392
15.455693
15.375468
15.267945
15.232688
15.298872
15.386832
15.354583
15.170808
14.960485
14.903719
122.40818
48.418338
28.743769
21.688855
18.40965
16.638957
15.614015
15.013956
14.68161
14.528439
14.490691
14.529893
14.61148
14.721057
14.848107
14.94603
14.972511
14.906764
14.753387
14.584362
14.484252
14.492
14.582374
14.65809
14.63096
14.514474
14.428296
124.99288
50.095345
29.634321
22.306867
18.958762
17.219156
16.246168
15.680318
15.341586
15.130274
14.99171
14.899238
14.840287
14.795068
14.727111
14.648115
14.5644
14.460243
14.337985
14.215009
14.121842
14.085965
14.108789
14.195561
14.333963
14.498561
14.639968
129.02213
49.255501
29.917312
22.976582
19.951761
18.476217
17.700535
17.243948
16.906577
16.576919
16.208625
15.820149
15.48685
15.204454
14.951167
14.71185
14.488524
14.313236
14.203422
14.140752
14.094016
14.050721
14.017632
14.050388
14.252746
14.658536
15.202465
120.95633
47.68747
30.237086
23.89609
21.091981
19.663946
18.856711
18.370623
18.063553
17.82663
17.567599
17.269382
16.895243
16.424891
15.894524
15.387359
15.00546
14.77178
14.640513
14.570824
14.540428
14.48694
14.416932
14.416973
14.631853
15.141355
15.861546
108.06219
49.468134
32.308563
25.234449
21.776566
19.946834
19.05355
18.731287
18.744944
19.150917
19.881916
20.479181
20.582713
20.027935
18.813289
17.523796
16.576336
16.091378
15.925645
15.832391
15.681983
15.574648
15.539924
15.55297
15.724025
16.124324
16.541515
85.575442
48.991719
33.143662
25.778577
21.795514
19.675815
18.710885
18.427283
18.684395
19.812798
21.730406
23.229556
23.311619
22.059941
19.923822
17.998299
16.747596
16.211781
16.170912
16.482285
16.81153
16.829401
16.490187
16.277697
16.412461
16.871869
17.084946
62.001314
43.164578
31.287324
25.008667
21.380422
19.209419
18.072854
17.764472
17.977149
18.966184
21.07407
23.052218
23.161226
21.628393
19.225273
17.280771
16.180086
15.846448
15.942941