/*--------------------------------*- C++ -*----------------------------------*\
| =========                 |                                                 |
| \\      /  F ield         | OpenFOAM: The Open Source CFD Toolbox           |
|  \\    /   O peration     | Version:  2406                                  |
|   \\  /    A nd           | Website:  www.openfoam.com                      |
|    \\/     M anipulation  |                                                 |
\*---------------------------------------------------------------------------*/
FoamFile
{
    version     2.0;
    format      ascii;
    arch        "LSB;label=32;scalar=64";
    class       volScalarField;
    location    "18";
    object      p;
}
// * * * * * * * * * * * * * * * * * * * * * * * * * * * * * * * * * * * * * //

dimensions      [1 -1 -2 0 0 0 0];

internalField   nonuniform List<scalar> 
96472
(
1.0034623
1.00277
1.0011947
1.0007146
1.0006529
1.0007485
1.0008178
1.0008498
1.0006681
1.0004844
1.0004951
1.0004777
1.0003233
1.0000762
0.99953055
0.99868037
0.99787812
0.99708255
0.99612658
0.99503188
0.99428997
0.99353874
0.99275822
0.99199534
0.99165617
0.99130088
0.99080096
0.99042998
0.99019677
0.98994175
0.98963437
0.98930316
0.98894336
0.98838838
0.98781615
0.98741429
0.98705721
0.98667293
0.98640762
0.98617838
0.98606781
0.98583221
0.9858694
0.98617576
0.98590561
0.98618409
0.98678076
0.98670035
0.98738543
0.9879359
0.98878045
0.98969047
0.99037875
0.99151255
0.99247025
1.0034526
1.0027793
1.0011867
1.0006974
1.0006123
1.0007332
1.0008314
1.0008848
1.0007538
1.0005119
1.0004221
1.0004693
1.0003796
0.99997942
0.99950607
0.99871298
0.99780401
0.99692934
0.99613107
0.99517457
0.99419121
0.99360671
0.99292651
0.99217523
0.99154591
0.99116552
0.99087507
0.9904711
0.99008917
0.98969736
0.98928675
0.98901195
0.98882149
0.98845591
0.98798474
0.98751953
0.98710919
0.98668262
0.98640005
0.98619291
0.98589104
0.98585787
0.98586198
0.98570429
0.98604451
0.98609921
0.98627027
0.98680261
0.98721102
0.98783258
0.98848481
0.98917958
0.990218
0.9911703
0.99222236
1.003445
1.0027854
1.0011699
1.0006584
1.0006214
1.0007179
1.0008811
1.0009049
1.0008123
1.0006144
1.0004248
1.000373
1.0003631
1.0000365
0.99943904
0.99876668
0.99792897
0.99698036
0.99605839
0.99525781
0.99431269
0.99346199
0.99290238
0.99225947
0.99166367
0.99117319
0.99089298
0.99051276
0.99019542
0.98988823
0.98943985
0.98901845
0.98868644
0.98828648
0.98788104
0.98751971
0.98712774
0.98671371
0.98637606
0.9861182
0.98594686
0.98572425
0.98566607
0.98587074
0.98571319
0.98588374
0.98621011
0.98653759
0.98696608
0.98755089
0.98824777
0.98902861
0.98988727
0.99070959
0.99196378
1.003433
1.0027904
1.0011358
1.0006501
1.0006129
1.0007199
1.0009219
1.0009709
1.0008488
1.0006638
1.0005314
1.0003916
1.0002624
1.0000667
0.99946587
0.99874731
0.99800596
0.99720291
0.99622491
0.99519764
0.99444968
0.99357926
0.99283001
0.99210564
0.99168854
0.99126871
0.9907746
0.99046159
0.99021677
0.98993358
0.98959923
0.98928302
0.98896876
0.98850474
0.98800336
0.98757613
0.9872035
0.98676752
0.98642704
0.98613485
0.98585981
0.98572237
0.98571635
0.98557357
0.98566569
0.98582327
0.98601422
0.98632183
0.98678241
0.98737153
0.98792304
0.98873466
0.98926696
0.99053401
0.99133375
1.0034215
1.0027835
1.0011102
1.0006477
1.0005614
1.0007522
1.0009231
1.0010788
1.0009451
1.0006864
1.0005678
1.0004818
1.0002882
0.99997202
0.9995339
0.99874837
0.99792468
0.99711847
0.9963337
0.99526208
0.99434035
0.99372037
0.99297027
0.99219759
0.99156938
0.99117266
0.99089402
0.99047965
0.99008946
0.98973711
0.98936297
0.98909108
0.98890907
0.9885888
0.98816315
0.98770788
0.98727617
0.98681706
0.98643672
0.98613678
0.98590253
0.98567228
0.98558877
0.98556388
0.98561704
0.98558334
0.98579561
0.98626351
0.98664671
0.98708655
0.9878051
0.98819063
0.98923414
0.98990346
0.99121678
1.0034084
1.0027744
1.0010942
1.000593
1.0005774
1.0007607
1.0009855
1.0011331
1.0010968
1.000828
1.0005693
1.0004598
1.0003671
0.99997451
0.9995075
0.99882875
0.99799072
0.99705854
0.99620091
0.99541479
0.99437067
0.99358057
0.99303286
0.99230697
0.99169313
0.99120663
0.99087692
0.99054037
0.99024927
0.98994028
0.9894881
0.98909539
0.98879959
0.98846324
0.98809944
0.98772273
0.98731763
0.98687633
0.98648801
0.98615746
0.98588289
0.98569827
0.98552599
0.9855671
0.98539884
0.98554286
0.98576021
0.98593019
0.98640669
0.98695985
0.98733861
0.98808319
0.98895767
0.98921842
0.99058903
1.0033937
1.0027586
1.0010572
1.0005661
1.000575
1.0007639
1.0010802
1.0012101
1.0011709
1.0009826
1.0007062
1.0004524
1.0003178
1.000082
0.99947139
0.99884814
0.99812234
0.99728823
0.99629204
0.99535829
0.9945789
0.99363396
0.99290893
0.99223522
0.99173745
0.99126413
0.99082469
0.99052144
0.99021384
0.98995913
0.98963662
0.98933217
0.98903737
0.9886375
0.98820244
0.98779162
0.98739559
0.98696899
0.9865398
0.98621769
0.9859128
0.98565053
0.98556883
0.98537584
0.98542751
0.98550404
0.98549724
0.98587637
0.98636665
0.986661
0.98721484
0.98791997
0.98774605
0.98979702
0.99009594
1.0033854
1.00273
1.0010146
1.0005587
1.0005753
1.0008151
1.001136
1.0013505
1.00129
1.0010575
1.0008546
1.0006023
1.0003206
1.0000834
0.99955552
0.99883062
0.99807169
0.99730813
0.99650057
0.99535534
0.99451521
0.99381244
0.99303507
0.99222357
0.99160091
0.99123155
0.99089284
0.99051486
0.99015839
0.98983316
0.98946697
0.98918558
0.98899819
0.98872178
0.98835399
0.98794783
0.98752141
0.98705392
0.98662795
0.98621853
0.98597177
0.98568976
0.9854819
0.98543257
0.98536741
0.98520735
0.98554024
0.98576042
0.98595492
0.98654667
0.98709364
0.98710762
0.98867442
0.98846915
0.98963211
1.0033856
1.0026878
1.0009781
1.00054
1.000563
1.0008529
1.001177
1.0014708
1.0014773
1.0011869
1.0009183
1.0006989
1.0004691
1.0000562
0.99965549
0.99892307
0.9980953
0.99718763
0.99638814
0.99553885
0.99446036
0.99370436
0.99314487
0.99235645
0.99173134
0.99121733
0.99088785
0.9905836
0.99030482
0.98997994
0.98955493
0.98917942
0.98889849
0.98860914
0.98829529
0.9879436
0.98756501
0.98712128
0.98666577
0.98634415
0.98594764
0.98571472
0.98550031
0.98541068
0.985188
0.98540585
0.98541342
0.98546108
0.985942
0.98641862
0.986526
0.98751116
0.98752781
0.9882716
0.98952693
1.0033783
1.0026446
1.0009331
1.0005243
1.0005722
1.0008902
1.0012972
1.0015577
1.0016315
1.0014219
1.0010441
1.000707
1.000529
1.0001775
0.99964621
0.99901402
0.99826253
0.99737595
0.99638744
0.99552463
0.99467274
0.99371885
0.9929932
0.99235661
0.99181969
0.99129359
0.99088044
0.99056114
0.99025299
0.99001927
0.98970324
0.98938363
0.98909587
0.98875684
0.98838928
0.98802303
0.98763387
0.98722177
0.98677921
0.98640457
0.9860827
0.98572054
0.98557478
0.98525704
0.98536839
0.98515632
0.98517363
0.98565962
0.98581767
0.98592413
0.98662554
0.98696635
0.98714706
0.98876883
0.98856393
1.0033682
1.0025966
1.0008961
1.0005048
1.0005966
1.0009232
1.0014021
1.001713
1.001769
1.0015828
1.0012593
1.000852
1.0005198
1.0002921
0.99968037
0.99903511
0.99829819
0.99751948
0.99664701
0.99550425
0.99470279
0.99388785
0.99312446
0.992303
0.99165956
0.99128411
0.99091058
0.99056437
0.99021276
0.98991836
0.98957469
0.98927898
0.98907952
0.98882708
0.98850484
0.98816053
0.98776386
0.98730019
0.98687344
0.98648879
0.98612884
0.98580519
0.98548313
0.98549787
0.98510902
0.98514269
0.98538254
0.98523869
0.98559804
0.98596017
0.98634327
0.98648278
0.98786733
0.98709047
0.98866484
1.0033536
1.0025479
1.000851
1.0004899
1.0006056
1.0009917
1.0014805
1.0018769
1.0019481
1.0017093
1.0014095
1.0010562
1.0006683
1.0003074
0.99984794
0.99911475
0.99829362
0.99740853
0.99663341
0.99566907
0.99462658
0.99384789
0.99323712
0.99244485
0.99175355
0.99123319
0.99088307
0.99060444
0.99033166
0.99004373
0.9896404
0.98924294
0.98898212
0.9887288
0.98843777
0.98815068
0.98781908
0.98738417
0.98691789
0.98660697
0.98618506
0.98580601
0.98566456
0.98523715
0.98527109
0.98518122
0.98500016
0.98540543
0.98542615
0.9858676
0.98604846
0.98656353
0.98654085
0.98749586
0.98857041
1.0033372
1.0024954
1.0007935
1.000478
1.0005974
1.0010514
1.0015532
1.0020027
1.0021716
1.0019455
1.0015342
1.0011391
1.0008486
1.0003887
0.99995388
0.99925506
0.99846043
0.99751707
0.99655611
0.99572037
0.99477813
0.99382554
0.99310828
0.99244535
0.99188611
0.99131793
0.99092331
0.99062164
0.99031962
0.99008288
0.98977069
0.9894115
0.98913906
0.988858
0.98851974
0.98820078
0.98788491
0.98747149
0.98705793
0.98663035
0.98631556
0.98595244
0.98553023
0.9855355
0.98518036
0.98501318
0.98519024
0.98505555
0.98554888
0.98547087
0.98586026
0.9862574
0.98648583
0.98793295
0.98697705
1.0033195
1.0024404
1.0007442
1.0004576
1.0006234
1.0010878
1.0016946
1.0021311
1.0023277
1.0021859
1.0017557
1.0012378
1.0008792
1.0005667
0.99997188
0.99934154
0.99859104
0.99775857
0.99680208
0.99570777
0.99489224
0.99396896
0.9932039
0.99239603
0.99174482
0.99131663
0.9909549
0.99059744
0.99022919
0.98996986
0.98968041
0.98936794
0.98914395
0.98891804
0.98861065
0.98830934
0.98799503
0.98757618
0.9871564
0.98677599
0.98639209
0.98596129
0.9857733
0.98534352
0.98527187
0.98511405
0.98502892
0.98513146
0.98512676
0.98550003
0.98574993
0.98608726
0.9868275
0.98599879
0.98775315
1.0032981
1.0023832
1.0006931
1.0004386
1.0006353
1.0011319
1.0017963
1.0023006
1.002483
1.0023353
1.0019734
1.0014714
1.0009788
1.0006736
1.0000998
0.99942736
0.9986094
0.99772764
0.99692868
0.99584456
0.99485342
0.99401398
0.99332541
0.9925447
0.99180538
0.99127412
0.99090093
0.99061421
0.99033991
0.99010067
0.98974877
0.98933763
0.98904868
0.9888252
0.98855054
0.98828484
0.98802678
0.98764295
0.98723584
0.98686745
0.98645634
0.98613955
0.98569731
0.98553165
0.98520145
0.98520305
0.98485196
0.98510505
0.98504673
0.98539315
0.98571951
0.98581024
0.98574134
0.98683243
0.98759339
1.0032804
1.0023254
1.0006343
1.0004224
1.0006362
1.0011912
1.0018552
1.0024465
1.0026983
1.0025131
1.0021162
1.0016404
1.0012097
1.0007277
1.0003051
0.99957998
0.99873992
0.99775474
0.99682519
0.99595964
0.99493249
0.99395885
0.99326291
0.99256364
0.9919456
0.99132742
0.99092208
0.99067345
0.99036614
0.99014556
0.98985841
0.98947453
0.9891575
0.98891799
0.98862665
0.98833313
0.98806062
0.98772049
0.98734136
0.9869297
0.98659723
0.98616173
0.98584979
0.98550733
0.98541495
0.98498264
0.98514968
0.98476658
0.98521773
0.98515078
0.98533269
0.98562499
0.98610851
0.98711759
0.98574668
1.003267
1.0022679
1.0005641
1.0003942
1.000629
1.001228
1.0019449
1.0025516
1.0028753
1.0027699
1.0022952
1.001734
1.0013297
1.0008795
1.0003995
0.99971421
0.99892332
0.99801854
0.9969983
0.99595374
0.9950919
0.99410971
0.99327065
0.99250231
0.99185571
0.99134334
0.99097257
0.99063315
0.99026243
0.9900232
0.98976821
0.989445
0.98917636
0.98898276
0.98871513
0.98842778
0.98813742
0.987816
0.98743893
0.98707723
0.98666273
0.98629465
0.98594973
0.98564884
0.98533405
0.98519924
0.9849213
0.98504126
0.98482703
0.98509866
0.98529252
0.9855613
0.98630079
0.98517161
0.98691261
1.0032533
1.0022098
1.0005143
1.0003697
1.0006281
1.0012528
1.0020533
1.0026668
1.0030002
1.002952
1.00253
1.0019147
1.0013847
1.0010587
1.0004503
0.99981888
0.99901232
0.99811336
0.9972366
0.99607349
0.99513523
0.99418864
0.99342229
0.99264181
0.99185442
0.99133006
0.9909421
0.99065851
0.99034965
0.99010659
0.98984024
0.989465
0.98912962
0.98891391
0.98866421
0.98840857
0.98814963
0.98786936
0.98752783
0.98715055
0.98678352
0.98642079
0.98600113
0.98576574
0.98538636
0.98529143
0.98491235
0.98493898
0.98486339
0.98502213
0.98522234
0.98539901
0.98530656
0.98590792
0.98682942
1.0032409
1.0021566
1.0004425
1.0003327
1.0006267
1.00127
1.0021009
1.0028003
1.0031426
1.0030747
1.0026925
1.0021329
1.0015797
1.0011469
1.0006291
0.99996037
0.99910883
0.99810297
0.99718315
0.99624241
0.99515698
0.99413555
0.99344124
0.99270085
0.99202476
0.99136563
0.99091735
0.99069168
0.99039557
0.99016502
0.9899474
0.98959129
0.98922274
0.98896729
0.98870876
0.98845234
0.98817104
0.98792018
0.98761563
0.98723873
0.9869198
0.98647215
0.98616615
0.98572369
0.98566618
0.9851323
0.98515834
0.98481305
0.9848965
0.98500649
0.98483673
0.98538905
0.9853029
0.98637171
0.98530537
1.0032296
1.0021002
1.0003775
1.0002949
1.0006058
1.0013074
1.0021358
1.0028936
1.003306
1.003257
1.0028259
1.0022385
1.0017708
1.0012383
1.000822
1.0001274
0.9992774
0.99830345
0.99726771
0.99624773
0.99531408
0.99430413
0.99339879
0.99264881
0.99200866
0.99141775
0.99097316
0.990661
0.99032031
0.99006964
0.98986581
0.98954606
0.98922914
0.98901731
0.98878967
0.98854263
0.98824671
0.98799005
0.9876977
0.9873618
0.98699007
0.98665322
0.98617481
0.98599534
0.98554772
0.98544472
0.98506906
0.98496693
0.9848296
0.9847448
0.98511385
0.98506161
0.9854662
0.98509092
0.98604835
1.003231
1.0020453
1.000314
1.0002751
1.0005812
1.0013131
1.0022031
1.0029429
1.0034107
1.0034482
1.0030139
1.0023622
1.0018277
1.0013991
1.0008879
1.0002308
0.99942963
0.99849797
0.99753841
0.99636647
0.99542561
0.99438414
0.99354957
0.99275566
0.99195708
0.99138968
0.99099162
0.99070923
0.99039081
0.99011367
0.98990868
0.98957757
0.98924398
0.98899839
0.98876826
0.98853805
0.98827581
0.98803854
0.98776357
0.987445
0.98711863
0.98671032
0.9863973
0.98600699
0.98573812
0.98548701
0.98522583
0.98490173
0.98493298
0.98469899
0.98508384
0.98477504
0.98519124
0.98543896
0.9856576
1.0032243
1.0020025
1.0002608
1.0002073
1.0005591
1.0013006
1.0022446
1.0030225
1.0034837
1.0035441
1.003178
1.0025466
1.0019307
1.0015303
1.0009594
1.0003462
0.99953368
0.99852648
0.99757731
0.99654498
0.99547417
0.99439573
0.99362445
0.99286411
0.99210622
0.99145321
0.99095339
0.99070702
0.99044474
0.99017646
0.99000045
0.98968727
0.98935503
0.98906256
0.98879467
0.98855431
0.98830784
0.98808377
0.98782813
0.98754346
0.987197
0.98686237
0.98649643
0.98610892
0.98590081
0.98551757
0.98529795
0.98509891
0.9847766
0.98499265
0.98453242
0.98506935
0.9850882
0.98532479
0.98512529
1.0032456
1.0019397
1.0002111
1.0002021
1.0005349
1.0012992
1.0022442
1.0030919
1.0035841
1.0036386
1.0032729
1.0026683
1.0021162
1.0015918
1.0011278
1.000507
0.99965364
0.99863375
0.99761101
0.99658232
0.99557427
0.99451509
0.99360726
0.99285244
0.99216699
0.99155469
0.99102318
0.99070955
0.99042009
0.99013238
0.98995281
0.98967001
0.98936912
0.98910276
0.98886389
0.98861765
0.98838633
0.98815247
0.98790305
0.98763535
0.98730703
0.98700206
0.98656527
0.98632574
0.98589075
0.98576642
0.98530449
0.9852298
0.98490863
0.98480793
0.98472395
0.98509964
0.98479043
0.98482361
0.98560761
1.0032284
1.0019313
1.0001615
1.0001583
1.000501
1.0012995
1.0022531
1.0031075
1.0036527
1.0037531
1.00337
1.0027386
1.0021981
1.0016779
1.001252
1.0006035
0.99978377
0.99882706
0.99782905
0.99670046
0.99572302
0.99463209
0.99373178
0.99293467
0.99214603
0.9915353
0.99105624
0.99076374
0.9904554
0.99015868
0.98996908
0.98969271
0.98938493
0.98911259
0.98888579
0.98863472
0.98842921
0.98818589
0.98797667
0.98771593
0.98742807
0.98706645
0.98675626
0.98634408
0.98613796
0.98573978
0.98558394
0.98519223
0.98507174
0.98476378
0.98504252
0.98457143
0.98477614
0.9852731
0.98499591
1.0032845
1.0018363
1.0001326
1.0001539
1.0004747
1.0012827
1.0022713
1.0031165
1.0036892
1.0038296
1.0034849
1.0028483
1.0022364
1.0017943
1.0012805
1.0006692
0.99990014
0.99892938
0.99795365
0.9968656
0.99584519
0.9947244
0.99385777
0.993072
0.99227199
0.99161141
0.99107347
0.99076304
0.99050488
0.99024183
0.99004151
0.98978817
0.9894797
0.98920663
0.98894713
0.98867838
0.9884542
0.98823706
0.98803561
0.98779359
0.98749032
0.98720026
0.98684951
0.986532
0.9862166
0.98588808
0.98565128
0.98532654
0.9851273
0.9849984
0.98480997
0.98455432
0.98515692
0.9847823
0.98482721
1.0032467
1.001906
1.0000828
1.0001159
1.0004535
1.0012568
1.002254
1.0031394
1.0037081
1.0038578
1.0035384
1.0029286
1.002324
1.0018499
1.001334
1.000766
0.99999353
0.9989851
0.99797822
0.99692641
0.99590246
0.99480557
0.99388714
0.99311802
0.99236919
0.99171435
0.99115502
0.99080277
0.99053503
0.99026531
0.99002994
0.98980997
0.98951198
0.98927209
0.98900247
0.98875629
0.98849794
0.98826658
0.98812041
0.98791674
0.98756227
0.98729459
0.98697198
0.98666432
0.98633562
0.98610404
0.98563296
0.98554173
0.985227
0.98509093
0.98465476
0.98498558
0.98484948
0.9844475
0.98515564
1.0032915
1.0018133
1.0000741
1.0001315
1.0004182
1.0012492
1.0022209
1.0031085
1.003724
1.0038883
1.0035768
1.0029569
1.0023874
1.0018627
1.0014345
1.0008496
1.000057
0.99911144
0.99811834
0.99705401
0.99603116
0.99493762
0.99399455
0.99320789
0.99241402
0.99177262
0.9912039
0.99085537
0.99056209
0.990289
0.99005629
0.98984946
0.98954423
0.98929715
0.98903382
0.98879347
0.98860909
0.98832723
0.98811016
0.98791671
0.98770856
0.98742515
0.98707377
0.98672846
0.98650693
0.98611936
0.98591767
0.98562767
0.98537381
0.98505839
0.98494913
0.98496272
0.98456603
0.98505426
0.98480568
0.98496374
0.98501825
0.98526801
0.98531405
0.98543552
0.98576423
0.98586852
0.98611363
0.98655405
0.98645889
0.98698503
0.98758971
0.98736135
0.98818364
0.98867236
0.98875435
0.98948061
0.98977526
0.99040295
0.9908393
0.99130493
0.9919046
0.99220554
0.99286928
0.99316616
0.99361799
0.99392233
0.98516907
0.98529008
0.98553447
0.9856913
0.98586253
0.98611729
0.98637235
0.98666495
0.98696325
0.9873315
0.9876575
0.98799241
0.98868659
0.98880563
0.9895257
0.98996327
0.99037984
0.991195
0.99142776
0.99232676
0.99272567
0.99333088
0.99395037
0.99434847
0.99484601
0.99525956
0.99574044
0.98554737
0.98577077
0.98585482
0.98616622
0.98641236
0.98664661
0.98704826
0.98732946
0.98769274
0.98813116
0.98862164
0.98907024
0.9895211
0.99024954
0.99044654
0.99131871
0.99178041
0.9923665
0.99325929
0.99354842
0.99459511
0.99494976
0.99575051
0.99617608
0.99680151
0.99720488
0.99774297
0.9860869
0.98626716
0.98651713
0.98677166
0.9870564
0.98758484
0.98779349
0.98829329
0.98879483
0.98921967
0.98982435
0.99038581
0.99095471
0.99151224
0.99226847
0.99266884
0.99363903
0.99417974
0.99486573
0.99577653
0.99615274
0.99723236
0.99751598
0.99851527
0.99880361
0.99958732
1.0000316
0.98661963
0.98686979
0.98727958
0.9877177
0.98813423
0.98847507
0.98918532
0.98954468
0.99011682
0.99087244
0.99126299
0.992157
0.99273652
0.99328816
0.99429396
0.99482207
0.99567681
0.99644814
0.99718958
0.99792847
0.99881036
0.99931919
1.0002351
1.0006938
1.0015941
1.00208
1.0026783
0.98755127
0.98789399
0.9884536
0.98889623
0.98956287
0.98997919
0.99057384
0.99140221
0.99188062
0.99265185
0.99352434
0.99391828
0.99507325
0.99576429
0.99641926
0.9976433
0.99807845
0.99928972
0.99988371
1.0008175
1.0015772
1.0023861
1.0031089
1.003827
1.0045149
1.0052697
1.0057354
0.98890186
0.98947667
0.99004352
0.99048053
0.99121274
0.99202417
0.99246516
0.99339056
0.99428513
0.99482527
0.99591364
0.99673583
0.99745953
0.99868494
0.99937618
1.0004106
1.0014029
1.0021555
1.0033586
1.0039645
1.0050767
1.0057356
1.0066721
1.0074486
1.0082169
1.0088675
1.0096221
0.99062925
0.99122443
0.99192774
0.99268733
0.99331576
0.99429244
0.99518895
0.99580755
0.996971
0.99795566
0.9985717
1.0000135
1.0007763
1.0017178
1.003099
1.0035977
1.0050831
1.0057686
1.0068933
1.008
1.0086488
1.009905
1.0105918
1.0116441
1.0124537
1.0132474
1.014102
0.9927052
0.99364838
0.99437256
0.9954005
0.99607464
0.99717603
0.99831683
0.99905466
1.0003309
1.0013825
1.0023107
1.0036967
1.00454
1.0057717
1.006893
1.00787
1.0090944
1.0100881
1.011189
1.012297
1.0132737
1.0143752
1.0154255
1.0163285
1.0174163
1.0182767
1.0192079
0.99561921
0.9963525
0.99750157
0.99867681
0.99971614
1.0007011
1.0020604
1.0032002
1.0041323
1.0056837
1.0066938
1.0077991
1.0094537
1.0101466
1.0116877
1.0127876
1.0138878
1.0154115
1.0160825
1.0177725
1.0184523
1.0199611
1.0208376
1.0221589
1.0230055
1.0241821
1.0249747
0.99916515
1.0003004
1.0014607
1.0027709
1.0041171
1.0050455
1.0066608
1.0078764
1.0089164
1.0107065
1.0117098
1.0130794
1.0146559
1.0156658
1.0173749
1.0183302
1.0198955
1.0212009
1.0222616
1.0239717
1.0247188
1.0264325
1.0271246
1.0287917
1.0294679
1.0308384
1.0315071
1.0037742
1.0050304
1.0062826
1.0077787
1.0091816
1.0103749
1.0120082
1.0134889
1.0146535
1.0162937
1.0179126
1.0189738
1.0207212
1.0222526
1.0235521
1.025139
1.026459
1.0279506
1.0292265
1.0307885
1.0318562
1.0335063
1.0342596
1.0358581
1.0364343
1.0378462
1.0382676
1.0090967
1.0104838
1.0119442
1.0136972
1.0151353
1.0165061
1.018384
1.0198304
1.0212525
1.0231237
1.0244372
1.0260881
1.027642
1.029172
1.0309136
1.0322541
1.0338925
1.0351478
1.0367692
1.037855
1.0394432
1.0404562
1.0416259
1.0426323
1.0433346
1.0442925
1.0445132
1.0154893
1.0170224
1.0187065
1.0204533
1.0219923
1.0237587
1.0254078
1.0270227
1.0287998
1.030367
1.0321815
1.0336701
1.0352146
1.0368431
1.0383805
1.0400444
1.0411377
1.0429059
1.0436744
1.0450321
1.0460501
1.0468234
1.0478431
1.0480589
1.0487604
1.0489213
1.0489209
1.0224914
1.0246921
1.0261413
1.0280609
1.0298482
1.0314673
1.0332505
1.0350995
1.0365379
1.0383935
1.0400355
1.0415314
1.0430693
1.044292
1.0459081
1.0469014
1.0482471
1.0491453
1.0497981
1.0506545
1.0507095
1.051346
1.0513161
1.0513734
1.0512716
1.0509714
1.050503
1.0310861
1.0322177
1.0344634
1.036226
1.0380044
1.0396772
1.0414595
1.042998
1.0444808
1.0460104
1.0474683
1.0485476
1.0497914
1.0507137
1.0513387
1.0523329
1.0526522
1.0529917
1.0533526
1.0531751
1.0529385
1.0527699
1.0523118
1.0517777
1.0514292
1.0506119
1.0500518
1.0393281
1.0413928
1.0430631
1.0444953
1.0461362
1.0473888
1.0487361
1.0499874
1.050961
1.0521244
1.0526473
1.0533449
1.0539983
1.0539263
1.054283
1.0543198
1.05402
1.0539157
1.0536563
1.0531673
1.0523945
1.0520559
1.0509622
1.0505101
1.0498099
1.0490505
1.0485434
1.048027
1.0493488
1.0504737
1.0514859
1.0524802
1.0531331
1.0537595
1.0544259
1.0547173
1.0548788
1.0550819
1.0550723
1.0549531
1.0544732
1.0543641
1.0538718
1.0530645
1.0527949
1.0520325
1.0513602
1.0505677
1.0502205
1.0491188
1.0486709
1.0480016
1.0472113
1.0466457
1.0538708
1.0546751
1.0550765
1.055358
1.0556929
1.0557849
1.0557963
1.0557256
1.0555166
1.0552301
1.0548917
1.0544429
1.0539493
1.0531702
1.0528464
1.0518303
1.0512346
1.0507373
1.0498984
1.0492501
1.0485259
1.0482126
1.0470869
1.0468422
1.0461455
1.0455385
1.0447753
1.0562076
1.0539554
1.0559571
1.0553947
1.0558693
1.0554547
1.0551806
1.0546412
1.0541719
1.0536691
1.0529638
1.0524968
1.0516929
1.0511436
1.0505397
1.0495737
1.0492238
1.0483627
1.0479737
1.0469329
1.0466142
1.0459924
1.045059
1.0447971
1.0440149
1.0436188
1.0426649
1.0592331
1.0564337
1.0566034
1.0551501
1.0547216
1.0538331
1.0531462
1.0524066
1.0518332
1.0511657
1.0505612
1.049876
1.049162
1.0488283
1.047854
1.0474306
1.046705
1.0462064
1.0457224
1.044727
1.0447304
1.0436179
1.0432336
1.0424044
1.0420779
1.0414525
1.0407297
1.0498917
1.0525385
1.050981
1.0513078
1.0507064
1.0503469
1.0499389
1.0494719
1.0490543
1.0485254
1.0479479
1.0473356
1.0469654
1.0462636
1.0457557
1.0451882
1.0445712
1.044217
1.0433697
1.0428805
1.0424907
1.0418579
1.0412634
1.0405661
1.0402084
1.0396567
1.0389915
1.0488598
1.0423352
1.0473529
1.0463338
1.0474373
1.0471509
1.0472671
1.0469587
1.0467503
1.0463299
1.0457088
1.0453583
1.0449124
1.0441635
1.0439522
1.0431435
1.0429808
1.0424216
1.0415583
1.0414053
1.0404988
1.0403761
1.0394725
1.0390489
1.0385241
1.0379975
1.0374741
1.0483645
1.0477222
1.0478335
1.0465938
1.046764
1.0460708
1.0457512
1.0451747
1.0447676
1.0441553
1.0437096
1.0435002
1.0427839
1.0425027
1.0419463
1.0414989
1.041296
1.040579
1.0401606
1.0396726
1.0391437
1.0387421
1.0380539
1.0375953
1.0370408
1.0365915
1.0360126
1.0471697
1.0455673
1.0449535
1.0444463
1.0440432
1.0435355
1.0432297
1.0427856
1.0423574
1.04198
1.0416242
1.0414106
1.0408639
1.0405369
1.0401835
1.0396058
1.0397079
1.0386336
1.0387717
1.0379056
1.0377333
1.0372897
1.0365035
1.0364157
1.0355849
1.0354394
1.0347086
1.0426145
1.0425143
1.0427123
1.0420858
1.0416603
1.0413381
1.0411042
1.0406274
1.0402545
1.0399296
1.0397638
1.0393193
1.039214
1.0386727
1.0384138
1.038245
1.0376051
1.0374608
1.0367575
1.0367062
1.0361964
1.0358539
1.0353323
1.0348522
1.0346061
1.0340521
1.0336867
1.0401747
1.040192
1.0400981
1.0397357
1.03957
1.0391951
1.0390686
1.0385906
1.0384022
1.038092
1.0379868
1.0375003
1.0373404
1.0369637
1.036731
1.0367562
1.0360005
1.036011
1.0352314
1.0352426
1.0348478
1.0345153
1.034055
1.0336457
1.0333443
1.0330206
1.0326462
1.037775
1.0377856
1.0376623
1.0374952
1.0374425
1.0372515
1.0371975
1.0368753
1.0367236
1.0364559
1.0362691
1.0358199
1.0357466
1.0352788
1.0351467
1.035125
1.0345107
1.0345861
1.0339037
1.033775
1.0333942
1.0331501
1.0328011
1.0324983
1.0320877
1.0319204
1.031584
1.0383229
1.0355418
1.0364282
1.0356932
1.035918
1.0355584
1.0355238
1.0351867
1.0350974
1.0348369
1.0346136
1.0343301
1.0342241
1.0336971
1.0338631
1.0332465
1.0334642
1.0328483
1.0327811
1.0323419
1.0320541
1.0319232
1.0314867
1.0315132
1.0309035
1.0310278
1.0305659
1.0346903
1.0348734
1.0346997
1.0343196
1.0343242
1.0339886
1.0339549
1.0336515
1.0336309
1.0334026
1.0330134
1.0329889
1.0325588
1.0325331
1.0323803
1.0319301
1.0321399
1.0313389
1.0316937
1.0309431
1.0310455
1.0307022
1.0303894
1.0305322
1.0299531
1.0301285
1.0297056
1.033844
1.0332909
1.033096
1.0329788
1.032889
1.0326742
1.0325562
1.0322321
1.0322842
1.0319919
1.0318461
1.0318137
1.0312565
1.0315754
1.030942
1.0310423
1.0307845
1.0302601
1.0305063
1.0297089
1.0300992
1.0295833
1.0295773
1.0294782
1.0291932
1.029235
1.0290119
1.0317023
1.0316702
1.0318105
1.0315855
1.0315806
1.0314563
1.0312881
1.031075
1.0309651
1.0307028
1.0308368
1.0304092
1.0303611
1.0302216
1.0297556
1.0300192
1.029486
1.0294941
1.0293251
1.0289681
1.0292
1.0287684
1.0289392
1.0285643
1.028596
1.0284529
1.0284443
1.0304323
1.0304392
1.0304116
1.0303547
1.030355
1.0302296
1.0301209
1.030017
1.0297858
1.0296464
1.0296402
1.0292523
1.0294189
1.0289358
1.0289967
1.028812
1.0286648
1.0287456
1.0283829
1.0285147
1.0281613
1.028296
1.0280804
1.0281152
1.0279935
1.0280065
1.0279652
1.0295894
1.029546
1.0295485
1.0294187
1.0293214
1.0291459
1.0291291
1.0290364
1.0288342
1.0287601
1.0285353
1.0284184
1.028549
1.0281605
1.0283797
1.0279047
1.0280664
1.0278811
1.0278697
1.0279304
1.0276589
1.0278495
1.0274766
1.0277213
1.0275004
1.0277158
1.0276381
1.0287734
1.0286397
1.0285962
1.0284939
1.0284181
1.028279
1.0283113
1.0281527
1.0280387
1.0280548
1.0277573
1.0278317
1.0277404
1.0276071
1.0277563
1.0273985
1.0276269
1.0273631
1.0275107
1.027408
1.0273699
1.0273445
1.0272648
1.0273364
1.0273535
1.0274386
1.0274701
1.0280217
1.0279378
1.0278811
1.0278237
1.0277415
1.027654
1.0276901
1.0275312
1.027525
1.0274916
1.0272545
1.0274086
1.0272312
1.0272911
1.0273003
1.0271286
1.0272608
1.0271077
1.0272371
1.0272054
1.0271831
1.0272189
1.0272002
1.0272888
1.0273452
1.0274463
1.0275131
1.0273691
1.0272029
1.0272031
1.0271928
1.0272178
1.0272057
1.027264
1.0271562
1.0271549
1.0271101
1.0270321
1.027116
1.0270715
1.027103
1.0270901
1.0270653
1.0270379
1.0271404
1.0271044
1.0272987
1.0271599
1.027332
1.0271966
1.0274454
1.0274324
1.0276293
1.0276946
1.0269334
1.0269594
1.0269723
1.0269725
1.0269915
1.0269825
1.0270779
1.0270133
1.0270466
1.0269732
1.0270078
1.0270599
1.0270139
1.0271465
1.0270043
1.0271557
1.0270485
1.0272532
1.0272111
1.0274111
1.027341
1.0274564
1.0274371
1.0276358
1.0277106
1.0278698
1.0279336
1.026904
1.0269717
1.0269517
1.0269783
1.0270375
1.0270014
1.0271164
1.0270247
1.0270471
1.0270943
1.0270357
1.0271819
1.0270596
1.0271999
1.0271139
1.0272893
1.0272558
1.027417
1.0274182
1.0275382
1.0276206
1.0276555
1.027794
1.0278818
1.0280304
1.028108
1.028265
1.0269929
1.0270242
1.027045
1.0270325
1.0270777
1.0270608
1.0271421
1.0271594
1.0271403
1.0272191
1.027185
1.0272671
1.0272468
1.0273212
1.0273409
1.0274384
1.027497
1.027583
1.0276882
1.0277707
1.0279231
1.0280379
1.0281511
1.0282558
1.0283907
1.0285109
1.0286337
1.0271273
1.0271282
1.027185
1.0271964
1.0272281
1.0272229
1.0272517
1.0273066
1.0273502
1.0273994
1.0274242
1.0274333
1.0274772
1.0275388
1.0276236
1.02773
1.0277634
1.0279111
1.0279665
1.0281535
1.0282636
1.0284288
1.0285463
1.0286803
1.0288047
1.0289523
1.0290764
1.0274033
1.0274216
1.0274484
1.0274674
1.0274941
1.0275254
1.0275687
1.0276208
1.0276804
1.0277037
1.0277767
1.0277675
1.0278084
1.0279214
1.0279248
1.0281356
1.0281099
1.0283843
1.0283536
1.0286025
1.0286681
1.0288476
1.0289827
1.0291213
1.0293085
1.0294368
1.0296056
1.0278286
1.0278539
1.027857
1.0278061
1.0279273
1.0278708
1.0280079
1.0280095
1.0280776
1.0281803
1.0281351
1.0283787
1.0281877
1.028495
1.028364
1.028592
1.0286903
1.0286948
1.0290762
1.0288555
1.0293916
1.0291836
1.0296527
1.0296282
1.0299078
1.0300196
1.0301852
1.0282408
1.0281514
1.0281802
1.0281967
1.0282569
1.0283982
1.0283299
1.0285224
1.0283227
1.0286917
1.0284821
1.0288961
1.0287461
1.0289227
1.0289894
1.0289353
1.0293957
1.0290936
1.0297752
1.02938
1.0299468
1.0298237
1.030143
1.0303418
1.0304331
1.0307059
1.0307794
1.0284951
1.0285306
1.0283946
1.0286384
1.0284845
1.0288158
1.0286716
1.0288797
1.0288361
1.0288725
1.0291702
1.0289686
1.0295441
1.0290694
1.0297668
1.0293373
1.0298899
1.0298802
1.0298708
1.0304491
1.029943
1.0308921
1.0303425
1.0311729
1.0308955
1.0313882
1.0313848
1.0287917
1.0288615
1.0289103
1.0289104
1.0289712
1.0288313
1.0292526
1.0289905
1.0294164
1.0292866
1.0294152
1.0297436
1.0295009
1.0301311
1.0296721
1.0303087
1.0301477
1.0303934
1.030686
1.030419
1.0311193
1.0307403
1.0315268
1.0312929
1.0317768
1.0317001
1.0319796
1.0292307
1.0291743
1.029136
1.029324
1.0293796
1.0291499
1.0295686
1.0294302
1.0297105
1.0298828
1.0296087
1.0303023
1.0299053
1.0305951
1.0303676
1.03052
1.0309562
1.030495
1.0315538
1.0308229
1.0317199
1.0313494
1.0317741
1.0319954
1.0320637
1.0324396
1.0324056
1.0296123
1.0294922
1.029445
1.0294979
1.0299663
1.0296704
1.0299349
1.0297275
1.0298591
1.0304077
1.0301037
1.0307897
1.0301961
1.0309002
1.0308253
1.0310695
1.0315055
1.0310675
1.0319005
1.0313626
1.0323445
1.0318382
1.0324317
1.0322193
1.0326514
1.0328013
1.0330566
1.0299771
1.0298139
1.0298448
1.0298485
1.0299442
1.0304394
1.0300134
1.0303844
1.0301469
1.0303719
1.0310743
1.0305577
1.0314137
1.0304401
1.0314764
1.031371
1.0317708
1.0322558
1.0314925
1.0325691
1.0317875
1.0331659
1.0325162
1.0331865
1.0327691
1.0331708
1.0333922
1.030163
1.0301313
1.0301656
1.030156
1.0303121