/*--------------------------------*- C++ -*----------------------------------*\
| =========                 |                                                 |
| \\      /  F ield         | OpenFOAM: The Open Source CFD Toolbox           |
|  \\    /   O peration     | Version:  2406                                  |
|   \\  /    A nd           | Website:  www.openfoam.com                      |
|    \\/     M anipulation  |                                                 |
\*---------------------------------------------------------------------------*/
FoamFile
{
    version     2.0;
    format      ascii;
    arch        "LSB;label=32;scalar=64";
    class       surfaceScalarField;
    location    "18";
    object      phi_0;
}
// * * * * * * * * * * * * * * * * * * * * * * * * * * * * * * * * * * * * * //

dimensions      [1 0 -1 0 0 0 0];

oriented        oriented;

internalField   nonuniform List<scalar> 
192068
(
0.00087809636
2.4244391e-05
-4.0350922e-05
0.00089156146
-0.00013392418
0.00012718525
0.00089183832
-0.00020712734
0.00021434869
0.00088436999
-0.00025890656
0.00026818627
0.00087039309
-0.00030052629
0.00030906211
0.00085312439
-0.00031767999
0.00032755614
0.00083486256
-0.00033518004
0.00034357628
0.00081786815
-0.00034348432
0.00035701306
0.00080292916
-0.00035594591
0.00037084013
0.00079023812
-0.00037117331
0.00038270669
0.00077978667
-0.00038251333
0.00039578488
0.00077242415
-0.00039313763
0.00041265632
0.00076866731
-0.00040649096
0.0004238003
0.00076787443
-0.00041535392
0.00042541241
0.00076896848
-0.00041606959
0.00043228113
0.00077004937
-0.00042036277
0.00043383146
0.00077046191
-0.00041909347
0.00042733165
0.00076991768
-0.00040978638
0.00041936621
0.00076945077
-0.00039455511
0.00041089383
0.00076855551
-0.00038014205
0.00039419912
0.00076643134
-0.00035890069
0.0003673126
0.00076361042
-0.00033174882
0.00035157231
0.0007611337
-0.00031223538
0.00032949885
0.00075823551
-0.00029414702
0.00030669239
0.0007541756
-0.00027399476
0.00028314218
0.00074928234
-0.00025635709
0.00026973716
0.0007442084
-0.00024254142
0.00025701939
0.00073951401
-0.00023173623
0.00024541719
0.00073460319
-0.00021728782
0.00022946315
0.00073071109
-0.00020651844
0.00021543107
0.00072906527
-0.00018696731
0.0001934931
0.00072732369
-0.0001653637
0.00017527896
0.00072803084
-0.00014011524
0.00015283272
0.00073134067
-0.00011434347
0.00012732803
0.00073597799
-8.5633168e-05
9.4672549e-05
0.00074300212
-5.6415415e-05
5.8800243e-05
0.00075148332
-2.2855002e-05
2.2476945e-05
0.00076189378
1.1468904e-05
-1.4674413e-05
0.00077222786
4.6354592e-05
-5.0627846e-05
0.00078388971
7.9980168e-05
-8.6734723e-05
0.00079579266
0.00011351736
-0.00012106512
0.00080898477
0.0001471141
-0.00015414035
0.00082106457
0.00017458133
-0.0001890257
0.00083483632
0.00020604556
-0.0002174953
0.00085353236
0.00023326369
-0.00024256808
0.00086710736
0.00025569655
-0.00028133179
0.00088753092
0.00028152234
-0.00029508926
0.00090651254
0.00030268882
-0.00032275041
0.00092716055
0.00031913587
-0.00034041639
0.0009453054
0.00033559005
-0.00036461104
0.00096711096
0.00035009332
-0.00037206458
0.00098670837
0.00036134569
-0.0003910464
0.0010085738
0.00037291304
-0.00039691363
0.0010314145
0.00037720481
-0.00041019684
0.00039477705
0.0010499645
-0.00041902042
0.00087936747
1.030035e-05
0.00089261395
-0.00013977283
0.000893607
-0.0002007022
0.00088528892
-0.00024885653
0.0008711837
-0.00028890794
0.00085414913
-0.00030758133
0.00083636492
-0.00032285011
0.000819461
-0.00033317207
0.00080454071
-0.00034067545
0.00079197328
-0.00035391535
0.00078161532
-0.00036981891
0.00077417496
-0.00038046133
0.00077020433
-0.00038739176
0.00076937339
-0.00039913566
0.00077047871
-0.00040367833
0.00077198015
-0.00040385189
0.00077280074
-0.00040483118
0.00077268563
-0.00040101293
0.00077237353
-0.00038608202
0.00077177741
-0.00036375065
0.0007703663
-0.00034652451
0.00076760771
-0.00032290315
0.0007655225
-0.0002974648
0.00076312442
-0.00027514464
0.00075981812
-0.00025973588
0.00075547314
-0.00024475177
0.00075220147
-0.00022576727
0.0007477783
-0.00021447136
0.00074368338
-0.00020296824
0.00073973462
-0.00019231651
0.00073774032
-0.00017709584
0.00073555504
-0.00015892124
0.00073560553
-0.00013620035
0.00073790786
-0.0001104086
0.00074166053
-8.1492157e-05
0.00074628838
-5.2360238e-05
0.00075325475
-2.1753767e-05
0.00076245247
9.7167092e-06
0.00077296751
4.1191835e-05
0.00078474428
7.4023666e-05
0.0007988807
0.00010449915
0.00081196121
0.00013467499
0.000827637
0.00016473309
0.00084343835
0.00019112001
0.00085884751
0.00021580302
0.00087725361
0.00024271881
0.00089288261
0.00026174638
0.00091102968
0.00028214172
0.00092797689
0.00029977178
0.00094739273
0.00031409123
0.00096383627
0.00032752727
0.00098394073
0.00033631827
0.0010012031
0.00034953569
0.0010195122
0.00035194922
0.0003668155
0.0010406432
0.00088180879
-2.8427345e-06
0.00089441569
-0.00014441861
0.00089505274
-0.00019261254
0.00088710147
-0.00023734882
0.00087334735
-0.00027609378
0.0008563869
-0.00029709613
0.00083818858
-0.00031047953
0.00082076496
-0.00032146082
0.00080543425
-0.00032857892
0.00079265971
-0.00033683844
0.00078234479
-0.00035133774
0.00077508231
-0.00036660204
0.00077100452
-0.00037485171
0.00077016758
-0.00037940506
0.00077111632
-0.0003887068
0.00077241986
-0.00038902654
0.00077316469
-0.00038565131
0.00077312833
-0.0003799625
0.00077312144
-0.00037159115
0.00077251657
-0.00035228875
0.00077164214
-0.00032820179
0.00076925313
-0.00031171885
0.00076775918
-0.00028850347
0.00076573062
-0.00026590478
0.00076304465
-0.00024341588
0.0007597693
-0.00022787777
0.00075625251
-0.00021517491
0.00075261874
-0.00020166144
0.00074937767
-0.00018657175
0.00074642693
-0.00017338742
0.0007449489
-0.00015826224
0.00074314879
-0.00014214849
0.00074340044
-0.0001242368
0.00074606028
-0.00010311211
0.0007501749
-7.8072677e-05
0.00075597586
-5.0623153e-05
0.00076371838
-2.1652422e-05
0.00077246776
8.4382346e-06
0.00078228598
3.7805759e-05
0.00079370833
6.71828e-05
0.00080626382
9.6181508e-05
0.00082121818
0.00012572391
0.00083465769
0.00014982006
0.00085145421
0.00017796745
0.00086869933
0.00020119998
0.00088612483
0.00022294801
0.00090334371
0.00024529605
0.00092184244
0.00026223069
0.00093792816
0.00027901765
0.0009560611
0.00029144984
0.00097264001
0.00030662126
0.00099054337
0.00031426928
0.001006827
0.00032665054
0.0010225154
0.00032856486
0.00034027359
0.0010386286
0.00088426786
-1.4962536e-05
0.00089585438
-0.00014732647
0.00089599158
-0.00018305691
0.00088841143
-0.00022564776
0.00087488872
-0.00026502832
0.00085804042
-0.00028360602
0.00083949938
-0.00029926651
0.00082177143
-0.00030491026
0.00080626043
-0.00031347876
0.00079348388
-0.00032464264
0.00078333552
-0.00033390425
0.00077622329
-0.00034658515
0.00077217503
-0.00036051823
0.00077101679
-0.00036565671
0.0007720143
-0.00036986673
0.00077323015
-0.00037544805
0.00077412686
-0.00037327682
0.00077409001
-0.00036423634
0.00077429341
-0.00035174671
0.00077409008
-0.00034055652
0.00077327844
-0.00031696674
0.00077166563
-0.00029315179
0.00077044578
-0.00027504503
0.00076929718
-0.00025494194
0.00076712081
-0.00023440782
0.00076408769
-0.00021643202
0.00076136216
-0.00020224173
0.00075856798
-0.00018934868
0.00075577602
-0.0001774767
0.00075322009
-0.00016561166
0.00075189883
-0.00015001409
0.00075036944
-0.00013184913
0.00075058619
-0.00011262704
0.00075312686
-9.2112901e-05
0.00075691263
-6.998026e-05
0.00076225761
-4.6383483e-05
0.00076906367
-2.0184579e-05
0.00077836277
6.4979392e-06
0.0007877641
3.4228563e-05
0.00079934824
6.1772894e-05
0.00081154983
8.8987103e-05
0.00082434421
0.00011338114
0.00083899448
0.00014136837
0.00085409266
0.00016182349
0.00087026803
0.00018654872
0.00088859012
0.00020681029
0.00090459909
0.0002265401
0.00092231538
0.00024174043
0.00094032333
0.00026057386
0.0009578847
0.00027005042
0.00097577759
0.00028488874
0.00099251513
0.00029087373
0.0010094903
0.00030263225
0.0010254785
0.00030796446
0.00031850148
0.0010415544
0.00088622615
-2.654044e-05
0.00089711878
-0.00014925917
0.00089674008
-0.00017405984
0.0008894045
-0.00021265769
0.00087615351
-0.00025165208
0.00085935667
-0.00027001
0.00084075995
-0.00028684829
0.00082274841
-0.00029142809
0.00080704172
-0.00029615921
0.00079435286
-0.00030900066
0.00078433165
-0.00032139859
0.00077727618
-0.00033012086
0.00077324737
-0.00033980711
0.00077191362
-0.00035186876
0.00077266532
-0.00035351587
0.00077377813
-0.00035764434
0.0007746394
-0.00035992291
0.00077476711
-0.00035624775
0.00077495178
-0.00034107332
0.0007754355
-0.00032255552
0.00077503918
-0.00030772529
0.00077369482
-0.00028270179
0.00077309413
-0.00025884971
0.00077237504
-0.00023866513
0.00077049443
-0.00022258093
0.00076804743
-0.00020586069
0.00076588491
-0.0001880227
0.00076337225
-0.00017580167
0.00076076636
-0.00016455088
0.00075895454
-0.00015314024
0.00075815484
-0.00014127956
0.00075713906
-0.00012661508
0.00075754165
-0.00010914129
0.00076031138
-8.8536756e-05
0.00076418706
-6.6367605e-05
0.00076996957
-4.3749199e-05
0.00077724007
-1.9878431e-05
0.00078603274
4.9697744e-06
0.00079576358
3.0623746e-05
0.00080702651
5.5237439e-05
0.00081865956
8.1279585e-05
0.00083272494
0.00010536656
0.00084472333
0.00012759341
0.00086080212
0.00015040158
0.0008762048
0.00017259157
0.00089221615
0.00018877288
0.00090867965
0.00021003338
0.00092560051
0.00022382399
0.0009414829
0.00023916532
0.00095873311
0.00024946696
0.00097566619
0.0002636617
0.00099195862
0.00026906736
0.0010123215
0.00028494337
0.001024007
0.00028105636
0.00029542685
0.0010396801
0.00088918256
-3.7103016e-05
0.00089853187
-0.00014936141
0.00089734291
-0.00016215188
0.00089023579
-0.00019948693
0.00087723231
-0.00023785006
0.00086046362
-0.00025728368
0.00084185971
-0.00027090997
0.00082368515
-0.00027826974
0.00080782918
-0.00028100513
0.00079516419
-0.00028966026
0.00078527121
-0.00030559784
0.00077831933
-0.00031817408
0.00077411576
-0.00032400715
0.00077283526
-0.00033174383
0.00077331288
-0.00033963765
0.00077438099
-0.00033932549
0.00077517068
-0.00033913609
0.00077548872
-0.00033648819
0.00077596525
-0.00032943727
0.00077646134
-0.00030838688
0.00077680863
-0.00028932385
0.00077579455
-0.00027346605
0.00077565912
-0.00025022783
0.00077531417
-0.00022783167
0.00077415299
-0.00020704298
0.00077238346
-0.00019181568
0.00077017226
-0.00017858601
0.00076841016
-0.00016365818
0.00076632107
-0.00015079147
0.00076484772
-0.00013795492
0.00076412236
-0.00012557052
0.00076325646
-0.00011250555
0.00076355536
-9.8716805e-05
0.00076612507
-8.2226931e-05
0.00076969656
-6.310124e-05
0.0007751018
-4.2108532e-05
0.00078194753
-1.9320311e-05
0.00079102599
3.3125794e-06
0.00080048831
2.7425417e-05
0.00081151296
5.0153606e-05
0.00082337532
7.3968763e-05
0.00083566918
9.4525306e-05
0.00084983464
0.00011865771
0.00086398029
0.00013685425
0.00087870484
0.00015729445
0.00089584122
0.00017601055
0.00091119723
0.00019305166
0.00092562913
0.00020390704
0.00094294249
0.00022235199
0.00095876077
0.0002299044
0.00097425255
0.00024234525
0.00099514037
0.00025121006
0.0010033086
0.00025667918
0.0010255459
0.00026494986
0.00027279345
0.0010367128
0.00089242116
-4.6620243e-05
0.00090003473
-0.00014703268
0.0008978803
-0.00014816363
0.00089093374
-0.00018529365
0.00087811587
-0.00022234254
0.00086152548
-0.00024273271
0.00084288763
-0.00025552869
0.00082461756
-0.00026207387
0.00080866913
-0.00026673652
0.00079593352
-0.00027474196
0.00078611792
-0.00028602618
0.00077928222
-0.00029986336
0.00077499859
-0.00031103607
0.00077350978
-0.00031353954
0.0007740408
-0.00032177187
0.00077504167
-0.00032502972
0.0007760172
-0.0003231577
0.00077637407
-0.00031567912
0.00077726343
-0.00030719148
0.00077779335
-0.0002981069
0.00077830772
-0.00027440391
0.00077786584
-0.0002552859
0.00077787122
-0.00023927007
0.00077816711
-0.0002189939
0.00077732314
-0.0001995218
0.00077598324
-0.00018122262
0.00077440222
-0.00016711556
0.000773049
-0.00015446621
0.0007713348
-0.00014361495
0.00077049816
-0.00013134778
0.00077026344
-0.00011800867
0.00076972819
-0.00010349927
0.00077013849
-8.8476258e-05
0.00077265995
-7.268557e-05
0.00077619124
-5.599873e-05
0.00078156957
-3.8007316e-05
0.00078870297
-1.8056519e-05
0.0007970844
2.4918861e-06
0.00080674303
2.4292927e-05
0.0008172935
4.4554207e-05
0.00082871795
6.6990211e-05
0.00084141619
8.6301277e-05
0.00085423099
0.00010741827
0.00086766786
0.00012405234
0.00088405383
0.00014623838
0.00089777144
0.00015827004
0.0009128382
0.00017650252
0.00092973217
0.00019013098
0.00094328371
0.00020240897
0.00095855638
0.00021086988
0.0009770586
0.00022554507
0.00098790825
0.00022726052
0.0010090254
0.00024092116
0.0010212731
0.00024337976
0.00025074141
0.0010348686
0.00089819174
-5.2883576e-05
0.00090139191
-0.00014007279
0.00089828592
-0.00013395343
0.00089143073
-0.00017077305
0.00087877767
-0.00020795387
0.00086241332
-0.00022627693
0.00084381085
-0.0002428228
0.00082550509
-0.00024503815
0.00080944341
-0.00024998888
0.00079673347
-0.00026141518
0.0007870237
-0.00027078858
0.00078018015
-0.00027991172
0.00077593982
-0.00029161877
0.00077409174
-0.00030006881
0.00077463569
-0.00030144373
0.00077553073
-0.00030796634
0.00077666413
-0.00031004435
0.00077720691
-0.00030596608
0.00077799996
-0.00029233324
0.00077925341
-0.00027981545
0.00077988219
-0.00026638246
0.00077976846
-0.00024322318
0.00078029681
-0.00022196615
0.00078075014
-0.00020563104
0.00078037596
-0.00018926263
0.00077948827
-0.00017200375
0.00077827923
-0.00015599483
0.00077717151
-0.0001429128
0.00077575771
-0.00013112047
0.00077519137
-0.0001210762
0.0007751667
-0.0001110275
0.00077491399
-9.90564e-05
0.00077542627
-8.505686e-05
0.00077785113
-6.9239299e-05
0.00078126285
-5.2580119e-05
0.00078628895
-3.5565671e-05
0.0007928612
-1.7109691e-05
0.00080132995
9.0056127e-07
0.00081050248
2.1185854e-05
0.00082096589
3.9627206e-05
0.00083214758
5.9860737e-05
0.00084441551
7.7850221e-05
0.00085677965
9.6902388e-05
0.00087147204
0.00011472455
0.00088430975
0.00013010504
0.00089982996
0.00014582351
0.00091557334
0.00016301281
0.000928115
0.00016974947
0.00094347019
0.00018556746
0.00095985296
0.00019445207
0.00097238524
0.0002041095
0.00098998961
0.00021057984
0.0010071392
0.00022325459
0.0010156763
0.00021839323
0.00023203723
0.0010319291
0.00090118666
-5.7185262e-05
0.00090206728
-0.00013059141
0.00089865637
-0.00011894951
0.00089185211
-0.00015652251
0.00087939143
-0.00019317187
0.00086316228
-0.00021132743
0.00084478455
-0.00022678407
0.00082639539
-0.00023101309
0.00081019831
-0.00023144989
0.00079750805
-0.0002422948
0.00078783858
-0.00025749415
0.00078102834
-0.00026622682
0.00077668376
-0.00027204297
0.00077487313
-0.00028226326
0.00077512727
-0.0002851668
0.00077600791
-0.00028752896
0.00077707074
-0.00028978367
0.00077787558
-0.0002894598
0.00077885946
-0.0002826663
0.00078026348
-0.00026311851
0.00078151049
-0.00024963551
0.00078171361
-0.00023460579
0.00078239986
-0.00021358885
0.00078346143
-0.000192549
0.00078355772
-0.00017402591
0.000783042
-0.00016067835
0.00078205237
-0.00014664638
0.00078154563
-0.00013281049
0.00078030131
-0.00012062116
0.00077998165
-0.0001088749
0.0007802572
-9.8086325e-05
0.00078026182
-8.7460633e-05
0.00078085076
-7.6466767e-05
0.00078314938
-6.3907111e-05
0.00078642581
-4.9593528e-05
0.00079137034
-3.4294168e-05
0.00079793663
-1.7292478e-05
0.00080609472
6.6201784e-08
0.00081512872
1.8011395e-05
0.00082531414
3.5652518e-05
0.00083629761
5.3335985e-05
0.00084785816
6.9556732e-05
0.00086103117
8.8541131e-05
0.00087253628
0.00010074901
0.0008880274
0.00012070259
0.00090226608
0.00013241038
0.000914109
0.0001452311
0.00093016002
0.0001578425
0.00094473718
0.00016982569
0.0009571183
0.00017549986
0.00097280333
0.00018740102
0.00099042256
0.0001939746
0.00099704329
0.0001971217
0.001018911
0.00020703731
0.00021151061
0.0010287588
0.00090517579
-5.7864673e-05
0.00090235202
-0.00011740729
0.00089888439
-0.00010331521
0.00089223918
-0.00014158613
0.00088000441
-0.00017643753
0.00086396712
-0.00019575741
0.00084571676
-0.0002094688
0.00082731588
-0.0002159158
0.00081100425
-0.00021726415
0.0007982077
-0.0002244055
0.00078861209
-0.00023846963
0.00078185526
-0.00025148907
0.00077733668
-0.00025844164
0.00077553955
-0.00026124885
0.00077563683
-0.00027019419
0.00077660894
-0.00027095503
0.00077783343
-0.00026999246
0.00077871631
-0.00026553889
0.00078019992
-0.00026094455
0.00078142532
-0.0002520307
0.00078296621
-0.00023217962
0.00078352045
-0.0002175524
0.00078447252
-0.00020334452
0.00078602079
-0.00018477425
0.00078620729
-0.00016684796
0.00078628237
-0.00014957869
0.00078558103
-0.00013640101
0.00078527572
-0.00012467769
0.00078440956
-0.00011439018
0.00078444643
-0.00010275044
0.00078504953
-9.1322607e-05
0.00078526957
-7.940181e-05
0.00078591619
-6.7539427e-05
0.00078805873
-5.5661174e-05
0.00079106826
-4.3250203e-05
0.00079561135
-3.017939e-05
0.00080172829
-1.5690713e-05
0.000809598
-7.3204335e-07
0.00081858468
1.6216071e-05
0.00082784936
3.0618596e-05
0.00083891682
4.8210363e-05
0.00085049788
6.2441518e-05
0.00086167174
7.8111247e-05
0.00087582088
9.3256037e-05
0.00088861017
0.00010702047
0.00090122203
0.00011793177
0.00091675967
0.00013402716
0.00092913458
0.0001409381
0.00094272946
0.00015376836
0.00095629002
0.00015891443
0.00097270205
0.00017137284
0.00098127754
0.00017278793
0.0010038602
0.00018716178
0.0010110034
0.0001849473
0.0001912126
0.0010240658
0.00090455353
-5.9820067e-05
0.00090284749
-0.00010553372
0.00089909815
-8.7605416e-05
0.0008925916
-0.00012699905
0.00088052804
-0.00016007205
0.00086473824
-0.00018020949
0.00084659213
-0.00019410757
0.00082820406
-0.00019786942
0.00081176283
-0.00020183563
0.00079889521
-0.0002109572
0.00078935874
-0.000220411
0.00078262965
-0.00023082693
0.00077813353
-0.00024230573
0.00077593443
-0.00024568583
0.00077614404
-0.00025010501
0.00077704352
-0.00025518969
0.00077850212
-0.00025663505
0.00077957231
-0.00025223992
0.00078110702
-0.00024152041
0.00078289037
-0.00023461386
0.00078440498
-0.00022248844
0.0007853078
-0.00020374972
0.00078660546
-0.0001858812
0.00078814542
-0.00017240688
0.00078877576
-0.00015888349
0.00078911605
-0.00014237458
0.00078866048
-0.00012812734
0.00078855372
-0.00011548351
0.00078813104
-0.00010444813
0.00078835849
-9.4591428e-05
0.00078923411
-8.5846579e-05
0.00078976502
-7.5855122e-05
0.00079061546
-6.4695274e-05
0.00079280668
-5.2846589e-05
0.00079580547
-4.0416087e-05
0.00080009109
-2.7897393e-05
0.00080604882
-1.4622108e-05
0.00081357585
-1.4727803e-06
0.00082185634
1.3088306e-05
0.00083131899
2.7346719e-05
0.00084159967
4.156786e-05
0.0008525437
5.490307e-05
0.00086486873
7.080958e-05
0.00087625544
8.1469916e-05
0.00088937303
9.6491357e-05
0.00090345914
0.00010766754
0.0009155416
0.00011938197
0.00092892306
0.00012753967
0.00094088201
0.00013756728
0.00095649099
0.00014584555
0.00096788643
0.00015365273
0.00098486446
0.00015878179
0.00099534632
0.00016673192
0.0010058098
0.00016446696
0.00017896894
0.0010228569
0.00090675915
-5.9713716e-05
0.00090297974
-9.1574405e-05
0.00089914759
-7.2400586e-05
0.00089290701
-0.0001115865
0.00088106249
-0.00014552835
0.00086552636
-0.00016338836
0.00084751872
-0.00018041881
0.0008290969
-0.00018229809
0.00081251824
-0.00018315678
0.00079963013
-0.00019480147
0.00079013519
-0.00020668302
0.00078337489
-0.00021384531
0.00077887524
-0.00022045121
0.00077647031
-0.00023040937
0.00077659244
-0.00023008453
0.00077739988
-0.00023549312
0.00077889359
-0.00023890076
0.00078026108
-0.00023924788
0.00078182659
-0.0002320066
0.00078392525
-0.0002166892
0.00078581737
-0.00020791245
0.00078709088
-0.00019404148
0.00078840603
-0.00017703146
0.00079031975
-0.00015929848
0.00079144315
-0.00014382826
0.0007918724
-0.00013224718
0.00079173389
-0.00011934334
0.00079207594
-0.00010639825
0.00079190681
-9.4778719e-05
0.00079216135
-8.4159126e-05
0.00079323074
-7.5464296e-05
0.0007938779
-6.696335e-05
0.00079473294
-5.7988931e-05
0.00079683074
-4.8299516e-05
0.0007996897
-3.7656416e-05
0.00080362263
-2.6630377e-05
0.00080909704
-1.4288e-05
0.00081626686
-2.09964e-06
0.0008245712
1.1021149e-05
0.00083298477
2.294955e-05
0.0008432983
3.7023276e-05
0.0008543429
4.8804818e-05
0.00086502185
6.1932547e-05
0.00087728817
7.3201085e-05
0.00089018746
8.5896518e-05
0.00090221789
9.4816423e-05
0.00091512983
0.00010649838
0.0009268724
0.00011417141
0.00094142994
0.00012551018
0.00095249971
0.00012913221
0.00096631797
0.00013864729
0.00098047498
0.00014246574
0.00098727221
0.00014672339
0.0010113614
0.00015793346
0.0001563625
0.001014191
0.00090268613
-6.4159181e-05
0.00090332278
-8.226058e-05
0.00089919243
-5.729355e-05
0.00089310554
-9.7607517e-05
0.00088151909
-0.0001297347
0.0008661514
-0.00014868524
0.00084838904
-0.00016398064
0.00082998536
-0.00016826019
0.00081325192
-0.00016668162
0.00080027895
-0.00017510887
0.00079079998
-0.00019023163
0.00078409436
-0.00020103148
0.0007793869
-0.00020500255
0.00077713847
-0.00021064083
0.00077693
-0.00021535404
0.00077782993
-0.00021651447
0.00077937623
-0.00021707806
0.00078086635
-0.00021542508
0.00078292732
-0.00021357513
0.00078493178
-0.00020375804
0.00078726252
-0.00018923192
0.00078866304
-0.00017907043
0.00079024288
-0.0001665686
0.00079254134
-0.00015163066
0.00079371275
-0.00013594046
0.00079466412
-0.00012147897
0.00079479119
-0.00010939349
0.00079525273
-9.8805405e-05
0.00079525634
-9.0046758e-05
0.00079568873
-7.9781466e-05
0.00079716647
-6.972341e-05
0.00079818018
-5.9785001e-05
0.00079917934
-5.032435e-05
0.00080120236
-4.1282398e-05
0.00080388845
-3.2127875e-05
0.00080757911
-2.2985239e-05
0.00081270228
-1.2688091e-05
0.00081938186
-2.1880902e-06
0.00082715012
9.5546316e-06
0.00083546985
1.9681064e-05
0.00084522345
3.228609e-05
0.00085550409
4.2599223e-05
0.00086652643
5.4693453e-05
0.0008777207
6.4752246e-05
0.00088978928
7.6049449e-05
0.00090182796
8.3861051e-05
0.0009146537
9.6244416e-05
0.0009262585
0.00010051187
0.00093831482
0.00011173696
0.00095032332
0.00011527985
0.00096362912
0.00012393363
0.00097372276
0.00012767876
0.00099485541
0.00013796337
0.00099637617
0.00013428419
0.00013964344
0.0010111621
0.00090336137
-6.7927635e-05
0.00090326777
-7.242181e-05
0.00089910764
-4.1764463e-05
0.00089333263
-8.4237163e-05
0.00088204968
-0.00011419628
0.0008669351
-0.0001341853
0.00084930464
-0.00014776542
0.00083094177
-0.00015207021
0.00081407705
-0.00015281236
0.00080094861
-0.00015984069
0.00079142072
-0.00017108766
0.00078473747
-0.00018256134
0.00077989525
-0.00019165351
0.00077748776
-0.00019196752
0.00077724556
-0.00019939672
0.00077828035
-0.00020175482
0.00078015786
-0.00020176244
0.00078178565
-0.00019774014
0.00078405064
-0.00019057697
0.00078628595
-0.0001876331
0.00078854604
-0.00017644764
0.00079028306
-0.00016321732
0.00079198414
-0.00015011302
0.00079434013
-0.00013922277
0.00079579876
-0.00012864098
0.00079704372
-0.00011434671
0.00079726109
-0.00010234397
0.00079768658
-9.2244376e-05
0.00079811379
-8.2690992e-05
0.00079879118
-7.3107561e-05
0.00080051626
-6.5080905e-05
0.00080180429
-5.6721666e-05
0.00080291959
-4.7823514e-05
0.00080488347
-3.8887561e-05
0.00080744812
-2.9890776e-05
0.00081089482
-2.0938197e-05
0.00081558176
-1.1507237e-05
0.0008217869
-2.3554741e-06
0.00082893449
7.5760702e-06
0.00083714598
1.7472715e-05
0.00084603346
2.7469638e-05
0.0008561604
3.7108258e-05
0.00086677722
4.8277876e-05
0.0008771946
5.5465155e-05
0.00088875534
6.6324466e-05
0.00090181061
7.5258144e-05
0.00091155033
8.2137038e-05
0.00092535348
9.13249e-05
0.00093504092
9.7034533e-05
0.0009476252
0.00010322202
0.00096107568
0.00011182936
0.00097311938
0.00011330225
0.00098266768
0.00011856601
0.0009916242
0.0001176126
0.00013261569
0.00101137
0.00089455322
-7.8199324e-05
0.00090236375
-7.0660572e-05
0.00089908442
-2.7840503e-05
0.00089363263
-7.0991945e-05
0.00088245208
-9.9247583e-05
0.00086758626
-0.00011932227
0.00085009109
-0.00013452179
0.000831755
-0.00013610449
0.00081474809
-0.00013639609
0.00080154714
-0.00014635437
0.00079206756
-0.00015542227
0.00078532181
-0.00016319797
0.0007805854
-0.00017188503
0.00077768972
-0.00017789459
0.00077749793
-0.00017915104
0.00077837349
-0.00018378497
0.00078029162
-0.0001870999
0.00078228129
-0.00018689717
0.00078458373
-0.00017920124
0.00078743631
-0.00016905591
0.00078992758
-0.00016347742
0.00079204613
-0.00015261141
0.00079381903
-0.00013878387
0.00079626207
-0.00012566604
0.00079814264
-0.00011454706
0.00079929021
-0.00010510224
0.00079961296
-9.4984157e-05
0.00080052546
-8.3460729e-05
0.00080135916
-7.3245831e-05
0.00080195331
-6.3793392e-05
0.00080367618
-5.6425109e-05
0.00080512997
-4.9938562e-05
0.00080632615
-4.2876259e-05
0.00080825364
-3.5402048e-05
0.0008108008
-2.7690016e-05
0.00081406962
-1.9785648e-05
0.0008183794
-1.115011e-05
0.00082413255
-2.7969321e-06
0.00083109527
6.2456025e-06
0.00083841257
1.4147808e-05
0.00084726927
2.371881e-05
0.00085685766
3.22635e-05
0.0008662737
4.0343499e-05
0.00087705801
4.9422242e-05
0.00088874655
5.8167792e-05
0.00089858336
6.4184429e-05
0.00091219477
7.3926089e-05
0.0009210118
7.7689173e-05
0.00093432891
8.7637271e-05
0.00094535884
9.0418374e-05
0.00095590056
9.7370019e-05
0.00096676048
9.8713531e-05
0.00097574439
0.00010410451
0.00099903014
0.00011409204
0.00010964651
0.00099783205
0.00089324178
-8.8729106e-05
0.00090201435
-7.0013758e-05
0.00089896577
-1.496531e-05
0.00089384739
-5.8903667e-05
0.00088293741
-8.602732e-05
0.00086831305
-0.00010493591
0.0008510136
-0.00012214486
0.0008327454
-0.00012231645
0.00081558526
-0.00011898535
0.00080227752
-0.00012840637
0.00079267076
-0.00014123635
0.00078585808
-0.00014927828
0.00078092886
-0.00015306286
0.00077804794
-0.00016166587
0.00077770597
-0.00016152362
0.00077858859
-0.00016506037
0.00078062094
-0.00016677689
0.0007828642
-0.00016666306
0.00078547919
-0.00016545895
0.00078826098
-0.00015496221
0.00079110213
-0.00014590982
0.00079341035
-0.00013866205
0.0007952971
-0.00012907938
0.00079801157
-0.00011765661
0.00080000012
-0.00010510901
0.00080140722
-9.5173441e-05
0.00080219195
-8.5226914e-05
0.00080318898
-7.6345689e-05
0.00080411488
-6.9050233e-05
0.00080470453
-6.0502338e-05
0.00080651663
-5.2068115e-05
0.00080835807
-4.4403222e-05
0.00080975948
-3.6837446e-05
0.00081160239
-2.9591231e-05
0.00081400813
-2.2983357e-05
0.000817023
-1.6526859e-05
0.00082086732
-9.5448118e-06
0.00082615075
-2.4036049e-06
0.00083241678
5.2694193e-06
0.00083947987
1.2254146e-05
0.00084775451
2.0287175e-05
0.00085618337
2.6740755e-05
0.00086648609
3.627529e-05
0.00087592715
4.1461134e-05
0.00088668757
5.0698755e-05
0.00089757304
5.5192975e-05
0.00090861818
6.4389302e-05
0.00092011486
6.8283804e-05
0.00093019161
7.5359771e-05
0.00094136317
7.8754996e-05
0.0009505394
8.400056e-05
0.00096216609
8.779682e-05
0.00098064514
9.6702382e-05
0.00098036761
9.2017324e-05
9.5928919e-05
0.00099524766
0.00088512017
-0.00010184675
0.0008992081
-7.4974207e-05
0.00089865333
-4.7049665e-06
0.00089382676
-4.7201227e-05
0.00088293676
-7.2385136e-05
0.00086850182
-9.2377734e-05
0.0008515826
-0.00010721374
0.00083348568
-0.00010974967
0.00081625246
-0.00010513955
0.00080284424
-0.00011099528
0.00079319445
-0.0001232733
0.00078638069
-0.00013461925
0.0007811844
-0.00014077978
0.00077837921
-0.00014271364
0.00077760006
-0.00014841184
0.00077856023
-0.00014997289
0.00078086017
-0.00014920324
0.00078326373
-0.00014597034
0.00078639991
-0.0001421918
0.00078940217
-0.00014053202
0.00079259237
-0.00013004979
0.00079512898
-0.00012110344
0.00079703055
-0.00011411405
0.00079982481
-0.00010565413
0.00080184747
-9.8046562e-05
0.00080365458
-8.6767766e-05
0.00080439244
-7.7483289e-05
0.0008051067
-7.013883e-05
0.00080624845
-6.3130471e-05
0.00080704598
-5.550799e-05
0.00080894737
-4.8254057e-05
0.0008111654
-4.1585649e-05
0.00081284939
-3.4458314e-05
0.00081465066
-2.7328893e-05
0.00081698378
-2.0936568e-05
0.00081983539
-1.4821206e-05
0.00082341405
-8.3341933e-06
0.00082818969
-2.1403322e-06
0.00083399975
4.2547231e-06
0.00084055025
1.0450024e-05
0.00084799883
1.6727001e-05
0.00085695561
2.3898188e-05
0.00086529758
2.9707325e-05
0.00087550237
3.7075335e-05
0.00088433861
4.1455832e-05
0.00089658469
4.9351077e-05
0.00090569307
5.3285014e-05
0.00091727248
5.9886653e-05
0.00092686537
6.397227e-05
0.0009368527
6.813474e-05
0.00094810096
7.4209974e-05
0.00096081777
7.5989016e-05
0.00096628654
7.8851431e-05
0.00097539868
7.8060959e-05
9.1623014e-05
0.00099459904
0.00088520781
-0.00011502875
0.00089925815
-7.9897181e-05
0.00089855986
5.6344007e-06
0.00089385824
-3.6608017e-05
0.00088321049
-5.8991785e-05
0.0008691164
-8.0569414e-05
0.00085245049
-9.5017536e-05
0.00083452795
-9.5847546e-05
0.00081718735
-9.1813595e-05
0.00080356678
-9.8283267e-05
0.00079367901
-0.00010624063
0.00078663276
-0.0001152216
0.00078133499
-0.00012500543
0.00077815489
-0.00012705275
0.00077738002
-0.00013249715
0.00077855815
-0.00013442739
0.00078117029
-0.00013585198
0.00078395883
-0.00013468898
0.00078705713
-0.00012751481
0.00079057072
-0.00012165092
0.00079372625
-0.00011754253
0.00079639151
-0.00011057444
0.00079862577
-9.9349586e-05
0.0008012708
-9.1379941e-05
0.00080370951
-8.4930149e-05
0.00080540344
-7.7975238e-05
0.00080612513
-7.0773902e-05
0.00080713935
-6.2102589e-05
0.00080859448
-5.4392771e-05
0.00080948882
-4.7289261e-05
0.00081127429
-4.0656084e-05
0.00081361433
-3.5352575e-05
0.00081538113
-3.0218253e-05
0.00081704084
-2.480423e-05
0.00081930492
-1.9423752e-05
0.00082211866
-1.3857589e-05
0.00082537297
-8.0591524e-06
0.00082964817
-2.3331789e-06
0.00083504268
3.3508136e-06
0.00084087664
8.2920449e-06
0.00084843506
1.4729348e-05
0.00085584178
1.9272596e-05
0.00086504607
2.5942312e-05
0.00087249943
2.9645822e-05
0.00088383035
3.7052053e-05
0.00089208358
3.9821111e-05
0.00090421948
4.6744473e-05
0.00091233013
4.9024623e-05
0.00092409786
5.6159206e-05
0.00093325818
5.8007336e-05
0.00094276186
6.1966397e-05
0.00095293007
6.4717414e-05
0.00095872168
6.6449945e-05
0.00098111345
7.5255196e-05
7.1480423e-05
0.0009800029
0.00088108585
-0.0001296673
0.00089750008
-8.74713e-05
0.00089752405
1.3941422e-05
0.00089314663
-2.7017837e-05
0.00088251702
-4.6893192e-05