/*--------------------------------*- C++ -*----------------------------------*\
| =========                 |                                                 |
| \\      /  F ield         | OpenFOAM: The Open Source CFD Toolbox           |
|  \\    /   O peration     | Version:  2406                                  |
|   \\  /    A nd           | Website:  www.openfoam.com                      |
|    \\/     M anipulation  |                                                 |
\*---------------------------------------------------------------------------*/
FoamFile
{
    version     2.0;
    format      ascii;
    arch        "LSB;label=32;scalar=64";
    class       surfaceScalarField;
    location    "18";
    object      phi_0;
}
// * * * * * * * * * * * * * * * * * * * * * * * * * * * * * * * * * * * * * //

dimensions      [1 0 -1 0 0 0 0];

oriented        oriented;

internalField   nonuniform List<scalar> 
123996
(
0.0018219699
-3.9693637e-05
9.4936783e-05
0.0018312173
-0.00019800395
0.00034111081
0.0018219941
-0.00034514321
0.00049679944
0.0017972116
-0.00033636767
0.0005679966
0.0017370614
-0.00027686562
0.00052586443
0.0016773192
-0.00055003529
0.00054867226
0.0016634638
-0.00063372761
0.00055091898
0.0016778144
-0.00038964388
0.00042832548
0.001563983
-0.00063505265
0.00059424181
0.0014247418
-0.000394446
0.00083947749
0.0011989772
-0.00080141443
0.00084351956
0.0011621157
-0.00086494578
0.0010777895
0.0012162097
-0.00055848766
0.00090767596
0.0012280248
-0.00090066076
0.0010079093
0.0013699098
-0.00093043014
0.0012520977
0.001322272
-0.00076867978
0.00070676509
0.0012584451
-0.00058663565
0.00055075428
0.0012040352
-0.0006474488
0.00088943696
0.0010994354
-0.00066600256
0.00087557805
0.0010093926
-0.00050336019
0.00050280447
0.00087396606
-0.00068643229
0.00055319937
0.00085901996
-0.00097728238
0.0010057852
0.00083230557
-0.00090371703
0.0011315087
0.0008426608
-0.00078706006
0.0010287944
0.0009639632
-0.00076570782
0.00088082175
0.00099459715
-0.0006968733
0.00066429502
0.0011151301
-0.00063593838
0.00058085613
0.0012556685
-0.00038889951
0.00038231073
0.00091634296
-0.00033509782
0.00030221372
0.00054275469
-0.00051303485
0.0005592544
0.00053969489
-0.00070585526
0.00076913702
0.00092589379
-0.00052577424
0.00062752601
0.0014265088
-0.0001281057
0.00022678155
0.0018279368
0.00015848358
-2.390005e-05
0.0017364129
0.00013213227
-0.00015521706
0.0011301138
-0.00011518752
-7.1445626e-05
0.00034253292
-0.00044963859
0.00021138972
0.00022547194
-0.00063319439
0.00052160344
0.00090049321
-0.00050563731
0.00062209662
0.0018381825
-0.00011449761
0.00034680752
0.0023064353
0.00032265722
-0.00013615674
0.0021478061
0.00061273733
-0.00070263057
0.0016857477
0.00060764193
-0.00090376966
0.0012104283
0.00018909384
-0.00075258534
0.00076975866
-0.00034179578
-0.00037776648
0.00018668769
-0.00098964347
7.255446e-05
-0.00033578134
-0.0012725349
0.00057005122
-0.00021878488
-0.0010218309
0.00088192638
0.00056714236
-0.00040502727
0.00083091949
0.001584078
7.8615999e-05
0.00051864327
0.0023881825
0.00052193456
4.4295815e-05
0.0025597775
0.00087707345
-0.00039674416
0.0023746729
0.0010857697
-0.00086015114
0.0024766945
0.0012093163
-0.0011012088
0.0013583819
0.0028718121
-0.0011175919
0.0017357558
-2.1229728e-05
0.0017396894
-0.000132935
0.0017398561
-0.00013629533
0.0017241767
-0.00019242264
0.001649235
-0.00022863681
0.0015991355
-0.00038980925
0.0016053725
-0.00050909861
0.0015832412
-0.00053732662
0.0015272876
-0.00054584781
0.0013539848
-0.00034074187
0.0011644371
-0.00074531383
0.001171273
-0.00079407588
0.0011455958
-0.00053115624
0.0011829029
-0.00079997313
0.0013355986
-0.00060670282
0.0012922749
-0.00059748473
0.0012107401
-0.00053737551
0.0011835603
-0.00055214598
0.0011266564
-0.00059364928
0.00097623264
-0.00046095188
0.00081109096
-0.00065622396
0.0008712705
-0.00088137986
0.00086187126
-0.00082209113
0.00083091529
-0.0007061928
0.0009301172
-0.00066025698
0.00093312303
-0.0006440635
0.001083043
-0.00062443906
0.0011942849
-0.00041709451
0.00088135413
-0.00040824929
0.00054086768
-0.00055610069
0.00062073238
-0.00061115063
0.0010039837
-0.0003606306
0.0013205239
2.9548466e-05
0.0015024993
0.00029375604
0.0014119107
0.00021845648
0.00095635154
-0.0001368565
0.00036578921
-0.00050647482
0.00025871849
-0.00069236147
0.00080298104
-0.00047613612
0.0017145666
-3.9006266e-05
0.0021666646
0.00027809428
0.0018686234
0.00036766435
0.0010185239
0.00024209463
0.00010228725
-0.00029918056
-0.0006318761
-0.001067875
-0.00075949853
-0.0015332718
-0.00014332463
-0.0012981221
0.00087474814
-0.00058586385
0.0018658655
0.00012155946
0.00264987
0.00061510998
0.0032172851
0.00089414313
0.0034048441
0.00096829729
0.0031895878
0.00095818949
0.0028058724
0.00095858041
0.0011211506
0.0025975927
0.001647543
-1.9907382e-05
0.0016541351
-0.00012300368
0.0016517217
-5.1984877e-05
0.0016398968
-0.00017512565
0.0015623765
-0.00032540384
0.0015199974
-0.00023133219
0.0015192533
-0.00032041135
0.0015019293
-0.00056465074
0.0014654408
-0.00039299042
0.0012591094
-0.00059561428
0.0011102452
-0.00062846612
0.0011299062
-0.00066257923
0.0010473801
-0.00078643903
0.0011365579
-0.00065908895
0.0012696415
-0.00051492613
0.0012430968
-0.00061620418
0.0011548062
-0.00049524341
0.001124969
-0.0004317473
0.0010968805
-0.0005601541
0.00089464445
-0.00057336044
0.00073613807
-0.00065224207
0.00083866141
-0.00067253188
0.000840275
-0.00066519021
0.00078787713
-0.00066844297
0.00086869661
-0.00060469969
0.00086754421
-0.00058556304
0.0010488148
-0.00055610907
0.001139353
-0.00040889358
0.0008473339
-0.00045715479
0.00053821674
-0.00060962625
0.00066678364
-0.0005566763
0.0010739827
-0.00023030471
0.0013743253
0.00012561125
0.0014651613
0.00035365975
0.0013391756
0.0002927448
0.00094441512
-7.1072413e-05
0.00042201298
-0.00052945625
0.00035049204
-0.00067846911
0.00082087214
-0.00044502302
0.001596081
-2.4366426e-05
0.0019858963
0.00025123266
0.0016933476
0.00018385954
0.0006136519
-0.00017757401
-0.0008665864
-0.00072558238
-0.001663814
-0.001231923
-0.0011726759
-0.0013033859
9.9587286e-05
-0.00087836424
0.0013536072
-0.00023525028
0.0023567724
0.00028118067
0.0028039521
0.00062459486
0.0029668321
0.00074903505
0.0031190654
0.00081694068
0.0031007017
0.00075837517
0.0028695873
0.00066855978
0.00070462693
0.0026626849
0.0015663807
-2.2282559e-05
0.0015762276
-8.4711294e-05
0.001566757
-7.5075992e-05
0.0015560635
-0.00016315103
0.001494048
-0.00035837742
0.0014489772
-0.00024382295
0.0014370475
-0.00024972513
0.0014447392
-0.00040867156
0.0013860629
-0.00026467237
0.0012074528
-0.00068567147
0.0010665259
-0.00057039682
0.0010620991
-0.00044746286
0.0010048419
-0.0010134814
0.001090499
-0.00057991948
0.0011978154
-0.00043614993
0.0012073536
-0.00072808437
0.0011288344
-0.00061519089
0.0010772832
-0.00033631497
0.0010601742
-0.00041849463
0.00085882346
-0.00061299643
0.0007105225
-0.00074814114
0.00081620194
-0.00061317427
0.00082732194
-0.00055166374
0.00078065044
-0.00057294091
0.00084083037
-0.00049087575
0.00082927542
-0.00050120559
0.0010155308
-0.00047994214
0.001084917
-0.00038054801
0.00081238297
-0.00047781737
0.00054755206
-0.0006669068
0.00068985829
-0.00057574985
0.0010784657
-0.00020545199
0.0013558304
0.0001521366
0.0013696664
0.00038466069
0.0011327114
0.00032872374
0.00072042193
-2.1352911e-05
0.00034631624
-0.00047701899
0.00033059281
-0.00068220491
0.00078327118
-0.0004440748
0.0014357307
-1.2624383e-05
0.0017414705
0.00022191839
0.0014073625
1.9166484e-05
0.00039489964
-0.00050186842
-0.0010570059
-0.0011110863
-0.0017337171
-0.0013046122
-0.0010178263
-0.00096296835
0.0002169583
-0.00046327796
0.0013509878
-2.7154107e-05
0.0022004759
0.00026068703
0.0024956627
0.00036817151
0.0024841888
0.00046376572
0.0025512438
0.00056347614
0.0025473183
0.00060915655
0.0025038489
0.00055881533
0.00057253556
0.0024426495
0.0014883451
-2.0539293e-05
0.0014984869
-4.3232598e-05
0.0014895051
-0.00012954384
0.0014718288
-0.00010954035
0.0014248653
-0.00025690334
0.0013769613
-0.00031709517
0.0013616652
-0.00032719725
0.0013881738
-0.00023356397
0.0013024303
-0.00019932751
0.0011608058
-0.00050625285
0.0010251028
-0.00054907366
0.00095888894
-0.00036136986
0.00097807582
-0.00099727632
0.0010452078
-0.0006330638
0.001096967
-0.00035932692
0.0011452254
-0.00068755516
0.0010981535
-0.00073106489
0.0010237515
-0.00038607815
0.00099615401
-0.00028636361
0.00081950388
-0.00048584497
0.00068835098
-0.00073214276
0.00077032763
-0.00064476399
0.00078722857
-0.0005812376
0.00076838793
-0.00054095632
0.0008092121
-0.00037551976
0.00078928856
-0.00038200312
0.00097004079
-0.00038840332
0.0010195036
-0.00034351201
0.00076995921
-0.00046815778
0.00056511791
-0.00067080036
0.00071255096
-0.00058507191
0.001081193
-0.00023594399
0.001358727
0.0001526284
0.001349776
0.00038098585
0.0010575491
0.00034088418
0.00061477994
1.5381172e-05
0.00030606426
-0.00044447339
0.00038148211
-0.00068410412
0.00084586386
-0.00049648088
0.0013707866
-4.5318227e-05
0.0014614386
0.00019389263
0.0010330191
-5.3105451e-05
0.0001822258
-0.00061114009
-0.00083462282
-0.0011685605
-0.0013258864
-0.001256729
-0.00086461113
-0.00078999753
0.00011265849
-0.00027402686
0.00098907234
7.1990846e-05
0.0017127873
0.00026635269
0.0021241638
0.00027525947
0.0022310614
0.00028121186
0.0021954467
0.00034241202
0.002139511
0.00044519928
0.002109413
0.0004909192
0.00060195653
0.002182935
0.0014182816
-3.1157684e-05
0.0014237603
-2.7096012e-05
0.0014208446
-0.00015189875
0.0014006601
-7.1598779e-05
0.0013578911
-0.00010728035
0.0013070787
-0.00029360227
0.0013001614
-0.00035741055
0.0013285104
-0.00018113747
0.0012364468
-0.00022345379
0.0011137936
-0.00027105205
0.00099951472
-0.00051597726
0.00088350742
-0.00046801891
0.00096900302
-0.0007340333
0.0010081512
-0.00066280274
0.0010132408
-0.00039437691
0.0010854228
-0.00048207825
0.0010791832
-0.00067314775
0.00099426981
-0.00052845051
0.00094956029
-0.00027623536
0.00078228675
-0.0003271909
0.00067758462
-0.00055630449
0.00073072517
-0.00056532509
0.00075413506
-0.00058310489
0.00077459702
-0.00057070683
0.00078258438
-0.00035129847
0.00074810917
-0.0003270183
0.00092249155
-0.00033385442
0.00096204292
-0.00030588598
0.00073018468
-0.00042539974
0.00057398359
-0.00059068939
0.00071702154
-0.00050803226
0.0010663148
-0.00021921755
0.0013364509
0.00015516475
0.0013082074
0.00038071548
0.00096735739
0.00035758626
0.00047474331
5.7193316e-05
0.00020005118
-0.0004299387
0.00034360344
-0.00070422348
0.00087075843
-0.0005699701
0.0013090595
-0.00011708936
0.0012392745
0.00014278741
0.00071420073
-8.300865e-05
4.243179e-05
-0.00064375285
-0.00052534017
-0.0011463046
-0.00074949189
-0.001263434
-0.00046902813
-0.00084200671
0.00015842279
-0.00020143044
0.00076109708
0.00018795475
0.00127963
0.0003554215
0.0016535828
0.00029929291
0.0019291568
0.00023546919
0.002016163
0.00019217499
0.0019896945
0.00026083599
0.0019728872
0.00038282387
0.00051257066
0.0020157618
0.0013512824
-4.3877655e-05
0.0013508109
-6.8858434e-05
0.0013546898
-0.00012911857
0.001336106
-8.3252573e-05
0.0012905508
-3.8027412e-05
0.0012428875
-0.00019160219
0.0012445938
-0.00026877447
0.0012614153
-0.00020192461
0.0011820921
-0.00031594353
0.0010598404
-0.00016162598
0.00095691124
-0.00041280837
0.00082694423
-0.00065421128
0.00092972477
-0.00043588182
0.00097136583
-0.00061194707
0.00095850297
-0.00052591912
0.0010258114
-0.00025287944
0.001040491
-0.00044042589
0.00096565783
-0.00060036108
0.00090855957
-0.00041750981
0.00075029252
-0.00027109583
0.00066877298
-0.00032153303
0.00068902409
-0.000309168
0.00070808469
-0.00043954886
0.00075981234
-0.00057099325
0.00073542436
-0.00045675184
0.00069449665
-0.00039768807
0.00086193823
-0.00035251491
0.00090530454
-0.00030162861
0.00070511618
-0.00038870203
0.00059096441
-0.00048132573
0.000724269
-0.00036322255
0.0010599163
-0.00012706888
0.0013303764
0.00017591579
0.0012971199
0.00037362974
0.00094379553
0.00034938631
0.0003993796
6.4028307e-05
0.00012938448
-0.00040049812
0.00030342865
-0.00070977449
0.00090302342
-0.00061640889
0.0013027312
-0.00017751447
0.0011111562
7.786305e-05
0.00050229966
-0.00013957969
-7.422378e-05
-0.00062094034
-0.00040264814
-0.001078049
-0.00033604682
-0.0012179238
1.7638649e-05
-0.0008733235
0.00042904725
-0.00026606819
0.00074625385
0.00020643707
0.00096287427
0.00040411702
0.0011972943
0.00040174514
0.0014967334
0.0003186489
0.0017548914
0.00020360916
0.0019037566
0.00018545968
0.0019281291
0.00020568213
0.00028992306
0.0018960581
0.0012872444
-4.1533022e-05
0.0012846481
-0.00011907098
0.0012907345
-8.5105367e-05
0.0012737319
-0.00012556546
0.0012267485
-3.5944789e-05
0.0011865687
-0.00010646719
0.0011896087
-0.00014335679
0.0011960766
-0.00020027637
0.0011364117
-0.00035155039
0.0010088517
-0.00021472742
0.00090015748
-0.00028806082
0.00079955152
-0.00074538769
0.00087307166
-0.0002496324
0.00093303793
-0.00049464089
0.00093613751
-0.00066119851
0.00097785368
-0.00013186619
0.00099041154
-0.00017502605
0.0009319424
-0.00053636233
0.00087904159
-0.0005460069
0.00073493466
-0.00035403624
0.00067489068
-0.00015721068
0.00066202289
-3.6079231e-05
0.00065344009
-0.00021310845
0.00072388399
-0.00051155576
0.00068906709
-0.00059119172
0.00063910662
-0.00056768575
0.00079799557
-0.00044677173
0.0008526688
-0.00032918411
0.00069557623
-0.00038080815
0.00061543649
-0.00039285014
0.00072714724
-0.00022640283
0.0010352357
-1.0237202e-05
0.0012949256
0.00021005333
0.0012604004
0.00034071793
0.00090643569
0.0003090658
0.00032299825
5.259443e-05
3.7648426e-05
-0.00038091512
0.00020983531
-0.0006921138
0.00086922191
-0.00058999809
0.0012735316
-0.00021031675
0.0010457971
-1.1004512e-05
0.00038836548
-0.00020412232
-0.00013480646
-0.00062298746
-0.00040680717
-0.0010092679
-0.00010171972
-0.0010825109
0.000336788
-0.00077984909
0.000730658
-0.0003293571
0.00080948041
7.7421411e-05
0.00083316207
0.00035804192
0.00093418406
0.00044137966
0.001144678
0.00043717189
0.0013973196
0.00033036277
0.0016173487
0.00021858994
0.0017842319
0.000122573
8.3643858e-05
0.0017600232
0.0012242723
-2.4270495e-05
0.0012232203
-0.0001400911
0.0012269705
-4.1420374e-05
0.0012146124
-0.00013490125
0.0011657939
-8.0050391e-05
0.0011307674
-9.2241226e-05
0.0011316463
-8.9099339e-05
0.001133695
-0.00016424004
0.0010877243
-0.00029200414
0.00096305402
-0.00032014321
0.00084012936
-0.00021271147
0.00078493397
-0.00068940214
0.00081001325
-0.00021055329
0.00087385496
-0.0003734955
0.00092140182
-0.0007074429
0.00093891169
-0.00018874196
0.00092843454
-4.7698931e-05
0.00088629228
-0.00036873327
0.00084998079
-0.00053246261
0.00072894606
-0.00045133865
0.0006779346
-0.00013515445
0.00063338709
0.00010429471
0.0005987861
-4.0331696e-05
0.00067182181
-0.00043589118
0.00063898585
-0.00068033413
0.00059123299
-0.00072787317
0.00073894144
-0.00053406446
0.00079625568
-0.00034737926
0.00068598547
-0.00039438048
0.00063828397
-0.00035734324
0.00072726274
-0.00016275754
0.00099620243
5.6086548e-05
0.0012459061
0.00022646566
0.0012257457
0.00028893568
0.00089496913
0.00022283846
0.00030244287
-1.272853e-05
-2.1784118e-05
-0.00037482857
0.00012040917
-0.0006373152
0.00079934621
-0.00051530519
0.0012331888
-0.00018188778
0.0010117349
-7.345876e-05
0.0003488448
-0.00030638747
-0.0001831548
-0.00066636676
-0.00041828011
-0.00092830396
-3.0401444e-05
-0.00092667443
0.00047938619
-0.0006726177
0.0009303858
-0.00035639796
0.0010343285
-7.6799685e-05
0.00091893517
0.00017456742
0.00089370722
0.0003750478
0.00098271419
0.00048657954
0.0011118855
0.00047061616
0.0012835924
0.00035618359
0.001441828
0.0001601148
2.9731967e-05
0.0015138906
0.0011644305
1.3338354e-07
0.00116653
-0.00010875641
0.0011661454
-7.4299952e-06
0.0011579839
-9.263779e-05
0.0011089749
-0.00011336136
0.0010766105
-0.00011533124
0.0010758157
-0.00011867303
0.0010780382
-0.00013967676
0.0010373108
-0.00018448095
0.00092512341
-0.00036574943
0.00078935066
-0.00022646065
0.00077800016
-0.00053233733
0.00076280833
-0.00026647292
0.00081069686
-0.00027042493
0.00090020919
-0.00061529939
0.0009022542
-0.00035174779
0.00087075515
-0.00010613053
0.00084640525
-0.0001849884
0.00082547963
-0.00035185635
0.00072795956
-0.00043057162
0.00068071898
-0.00023208554
0.00060597023
2.8936661e-05
0.00053541559
-5.1890585e-05
0.00060516532
-0.00041628298
0.00059167527
-0.0007072771
0.00056561866
-0.00080696263
0.00070207611
-0.00054165739
0.00074549191
-0.00032295676
0.00067551629
-0.00039524951
0.0006529906
-0.0003599016
0.00071776283
-0.00016650392
0.00093209151
8.2122055e-05
0.0011622469
0.00023275135
0.0011676159
0.00022643838
0.00086551707
0.00012194217
0.00028595502
-0.00010707194
-7.9221007e-05
-0.00040741716
4.1149888e-05
-0.00054709846
0.00070308791
-0.00037301032
0.0011416809
-9.5774372e-05
0.00095101666
-9.3730984e-05
0.00033512498
-0.00039538935
-0.00017076809
-0.00071784199
-0.00042559744
-0.00088506273
-4.4629709e-05
-0.00078146957
0.0004832173
-0.00052726816
0.00095545828
-0.00030682982
0.0011283088
-0.0001730882
0.0010803179
-2.089309e-05
0.001009659
0.00018172941
0.00096161289
0.00039612036
0.00094369566
0.00050315279
0.000991228
0.00046705474
0.0010679339
0.00029419086
9.2853919e-05
0.0011106139
0.0011074728
1.8947558e-05
0.0011125268
-4.3208959e-05
0.0011094104
1.1000618e-05
0.0011030085
-1.8770825e-05
0.0010562015
-0.000107948
0.001023929
-0.00013081594
0.0010223593
-0.00017040117
0.0010271364
-0.00015713016
0.00098507574
-0.00010219594
0.00088900522
-0.00031865088
0.00074656289
-0.00031137465
0.00075903287
-0.00036844297
0.0007233642
-0.00033936269
0.00075803354
-0.00020499399
0.00086745934
-0.00041999776
0.00086096719
-0.00050840442
0.00082551307
-0.00030971652
0.00081312924
-5.035801e-05
0.00079770592
-7.4769301e-05
0.00071593909
-0.00027739097
0.00066833322
-0.00033917626
0.00056340611
-0.00018380731
0.00046570697
-0.00023228573
0.00053115134
-0.00044916967
0.00054866532
-0.00066860482
0.00056500338
-0.00075115805
0.0006891838
-0.00044015699
0.00070291143
-0.00023695302
0.00065383628
-0.00034415141
0.00065095486
-0.00037034747
0.00070448277
-0.00019988026
0.00087037075
7.0471203e-05
0.0010691321
0.0002306601
0.0011016756
0.00019171239
0.00083959165
4.3344369e-05
0.0003017862
-0.00020234961
-6.4068626e-05
-0.00045624036
2.4179304e-05
-0.00045380598
0.00062397114
-0.00018534779
0.0010250289
3.2870338e-05
0.00087393022
-7.0971616e-05
0.00033983411
-0.00043184753
-0.00011352638
-0.00076699846
-0.00036023678
-0.00088993541
-6.1944089e-05
-0.00070045707
0.00043031144
-0.00038667378
0.00086470234
-0.00018379875
0.0010683926
-0.00015304738
0.0011436918
-0.00011113888
0.0011247545
-2.9701591e-06
0.0010320207
0.00018762325
0.00088849111
0.0003659307
0.00077524919
0.00045948765
0.00072235242
0.00039779489
0.00026579474
0.00069090852
0.0010545731
2.7505098e-05
0.0010604865
1.2806474e-05
0.001057189
1.8038527e-05
0.0010498029
3.3778015e-05
0.0010071039
-8.2938333e-05
0.00097415754
-0.00011765812
0.00097212736
-0.00018391763
0.00098035226
-0.00019945767
0.00093675321
-8.4764141e-05
0.00085124548
-0.00021366767
0.00071288671
-0.00039358584
0.00072692536
-0.00026170946
0.00069461992
-0.00039525135
0.00071354627
-0.00017198886
0.00082031447
-0.00018806495
0.00082043782
-0.00060939646
0.00079986593
-0.00052612154
0.00079085904
3.2317445e-05
0.00077139738
0.00019501721
0.00068878597
-5.7940776e-05
0.00063983698
-0.0003904818
0.00051729146
-0.0004516096
0.00041139863
-0.00042834231
0.00047465015
-0.00047203818
0.00052049792
-0.00057010451
0.00058694362
-0.00057918723
0.00069554741
-0.00025375986
0.00067339655
-9.9609752e-05
0.00062743206
-0.0002420482
0.00063769954
-0.0003528225
0.00069201029
-0.00023369205
0.00081890214
4.958839e-05
0.00097338465
0.00023394067
0.0010208281
0.00019849692
0.00079776173
6.8097258e-06
0.00031851372
-0.00026907134
-1.4718733e-05
-0.00050835807
4.695225e-05
-0.00038798486
0.00054701194
-1.6404836e-05
0.00088658493
0.00017292797
0.00078109665
-5.8363146e-07
0.00032295747
-0.00043426229
-6.2951298e-05
-0.0008031675
-0.00027610791
-0.00093117913
-3.2159198e-05
-0.00069303186
0.00037043047
-0.00030208718
0.00071731873
-7.3836988e-05
0.00093181986
-4.1032035e-05
0.0010651919
-7.7390067e-05
0.0011037343
-7.740999e-05
0.0010671959
5.2288275e-06
0.0009161108
0.00015366756
0.00070012089
0.00030860668
0.00048883461
0.00037800872
0.00036015258
0.00032355256
0.0010050572
2.595172e-05
0.0010098953
4.8099175e-05
0.0010081035
8.5249597e-06
0.00099912241
5.4572157e-05
0.00096020364
-5.9302373e-05
0.00092703965
-8.9828916e-05
0.00092494556
-0.00014834631
0.00093638283
-0.00022310112
0.0008929312
-0.000122418
0.00081054681
-0.00010633598
0.00068552999
-0.00041214507
0.00068606772
-0.00021138333
0.00067143521
-0.00043880509
0.00067993208
-0.00017783653
0.00076134905
1.1587666e-05
0.0007784063
-0.00062959418
0.00078820782
-0.00065210218
0.00077589003
5.4257768e-05
0.00074246916
0.00037856526
0.0006474397
0.00010505628
0.00059998367
-0.00037966404
0.00048386657
-0.00063159241
0.00037744515
-0.00058665569
0.00043594345
-0.00045881087
0.00050449377
-0.00043575039
0.00061349585
-0.00036118923
0.00070147727
-4.5193062e-05
0.00064869171
6.1441433e-05
0.00059580718
-0.00011635654
0.00062149776
-0.00031043398
0.00069152893
-0.00026284421
0.00078847616
3.0117163e-05
0.00089813912
0.00026049082
0.00094140249
0.00023577176
0.00076126272
1.418997e-06
0.00034266019
-0.00031145995
5.1857814e-05
-0.00053815682
0.00011697503
-0.00034566767
0.00050746196
0.00011957663
0.00076595398
0.00032559448
0.00065490285
8.4399439e-05
0.00027390349
-0.0003848879
-5.1698403e-05
-0.00080350386
-0.00019918923
-0.0009725543
2.9977322e-05
-0.00073235629
0.00034714261
-0.00030182676
0.0005959185
6.8589892e-06
0.00076431445
8.2770965e-05
0.00089975419
2.5791681e-05
0.00097605268
-4.9183824e-05
0.0010060882
-5.5739051e-05
0.00091461205
1.0251354e-05
0.00069785011
0.00011636363
0.00039814283
0.00022039365
0.00028441139
7.4775124e-05
0.00095834318
1.4803876e-05
0.00096120605
5.1405161e-05
0.00096153176
-1.6797732e-05
0.00095059786
3.5227156e-05
0.00091575922
-4.9381551e-05
0.00088342051
-7.8447084e-05
0.00088027528
-8.8411307e-05
0.00089446214
-0.00019893917
0.00085349388
-0.00017433049
0.00076924054
-4.244264e-05
0.00066149847
-0.00034904082
0.00064257427
-0.00019205097
0.00064858487
-0.00045895782
0.00065674045
-0.00021531469
0.00069778052
0.00010353274
0.00073587836
-0.00056650198
0.00077932049
-0.00065738103
0.00076310622
4.5715411e-06
0.00070893463
0.00040534663
0.0006002184
0.00018516698
0.00055705736
-0.00033278164
0.00046149934
-0.00066837575
0.00036303803
-0.0006470468
0.00041313924
-0.00042904871
0.00049382244
-0.00031685015
0.00063154348
-0.00017195224
0.00070101403
0.00010822722
0.00062457822
0.00019196813
0.0005561773
-7.5938006e-06
0.00059471962
-0.00026623539
0.00069259707
-0.00028633065
0.00078301628
8.0550005e-07
0.00085075542
0.00029579232
0.00086712216
0.00029674889
0.00071538842
3.2062328e-05
0.00035192432
-0.00032535786
0.0001138876
-0.00054716409
0.00019316104
-0.00030431186
0.00049120951
0.00021523025
0.00066310412
0.00044192323
0.00054009449
0.00018885641
0.00020935303
-0.00030843596
-6.7410898e-05
-0.00079081242
-0.00013956104
-0.0010002764
8.3581732e-05
-0.00077446459
0.00035736908
-0.00032650534
0.00052522361
4.1379907e-05
0.00060093303
0.00017596986
0.00067596302
0.00014140942
0.00079248318
5.4250476e-05
0.00087765585
-6.6417978e-06
0.00085113958
-4.1674466e-05
0.00068836075
-8.6549441e-06
0.00038886274
2.5833557e-05
8.9097691e-05
-1.6600687e-05
0.00091392249
1.4902695e-06
0.00091465221
3.5769462e-05
0.00091645054
-4.2638122e-05
0.00090445008
-1.5814128e-06
0.00087354924
-5.5236781e-05
0.00084340426
-7.7570399e-05
0.00083785632
-4.362018e-05
0.00085281637
-0.00013513188
0.0008172117
-0.00020545604
0.00072932391
-2.281004e-05
0.00063754641
-0.00022841648
0.00060168524
-0.00017625769
0.00062184686
-0.00045704258
0.0006354709
-0.00026628831
0.00063851719
7.3015689e-05
0.00069531303
-0.00043599867
0.00076783565
-0.00054488621
0.00074586315
-7.9011718e-05
0.00067014532
0.00030788327
0.00055372889
0.0001536929
0.00051716036
-0.00027604701
0.00044821121
-0.00057029742
0.00036114376
-0.00059453818
0.00039705402
-0.00039196255
0.00047955725
-0.00025236119
0.00063197803
-6.5461044e-05
0.00068691471
0.00019517881
0.00059255319
0.000265145
0.00051028196
5.7967435e-05
0.00055679459
-0.0002381685
0.00068831929
-0.00030986322
0.00078603146
-3.8464091e-05
0.00081979463
0.00031933482
0.00080072435
0.00036571046
0.00066266578
9.8898915e-05
0.00035324944
-0.00031278174
0.00018468216
-0.00053692075
0.00027976405
-0.00028810304
0.00048189265
0.00023130626
0.00056887688
0.00050674939
0.00042764216
0.00028048792
0.00012194488
-0.0002269801
-0.00011994715
-0.00072279118
-0.00011270188
-0.00097961261
0.0001365927
-0.00080777759
0.00041194642
-0.00039244145
0.00053348434
1.4470512e-05
0.00053527624
0.00020557611
0.00055761663
0.00023988297
0.00063326055
0.00017958975
0.00072351963
9.0717944e-05
0.00076127195
9.3565391e-06
0.00065793782
-3.5662724e-05
0.00039247383
-9.1864735e-05
-8.7299347e-05
2.1190696e-06
0.00087129498
-1.0507464e-05
0.00087021907
1.1194733e-05
0.00087323016
-5.7648758e-05
0.0008609045
-3.815192e-05
0.00083311774
-6.5754145e-05
0.00080520985
-8.6905596e-05
0.00079750195
-2.7409852e-05
0.00081153841
-5.9914694e-05
0.00078338145
-0.0001978624
0.00069450736
-3.8605518e-05
0.00061316542
-9.7315431e-05
0.00056492304
-0.00015603095
0.00059635728
-0.00042217498
0.00061203784
-0.00031421775
0.00059075514
-4.6645995e-05
0.00066247285
-0.00028582323
0.00074980668
-0.00033756985
0.00072271105
-0.00016332455
0.0006290011
9.7238513e-05
0.00051264724
3.7230465e-05
0.00048802821
-0.0002140156
0.00044298204
-0.00038105908
0.0003660863
-0.00045122924
0.00038337431
-0.00034247593
0.00046101751
-0.00023641663
0.00061690072
-4.1935309e-05
0.00066440934
0.00020093759
0.00055833457
0.00026942887
0.00046216052
6.8558876e-05
0.00051016846
-0.00023591223
0.00067222868
-0.00034954784
0.00078850703
-9.4604813e-05
0.00079839973
0.00031208193
0.00074476993
0.00043122114
0.00060517138
0.00018162774
0.00034522295
-0.00027649174
0.00023988816
-0.00052430658
0.00036309733
-0.00029812865
0.00049523626
0.00022113381
0.00049075089
0.00054259628
0.00032783722
0.00035641898
4.8953301e-05
-0.00012757746
-0.00016465357
-0.00062355575
-0.00010820658
-0.00093324474
0.00019145444
-0.00082136284
0.00047495689
-0.00045755754
0.00056092102
-6.4449687e-05
0.00052989399
0.00018285259
0.00050623602
0.00028796015
0.00054595083
0.00027233374
0.0006185684
0.00021330244
0.00066568321
0.00010247244
0.00060517796
5.9475703e-06
0.00040355004
-0.00010722597
-0.00018804399
6.7742885e-05
0.0008306004
-1.6530423e-05
0.0008280623
-1.3839556e-05
0.00083183142
-5.6271828e-05
0.00081991757
-6.283938e-05
0.00079373251
-6.9201446e-05
0.00076822148
-0.00010222127
0.00076003766
-4.2826393e-05
0.00077175698
-6.3338343e-07
0.00075077251
-0.00015145601
0.00066468821
-7.6307931e-05
0.00058814248
3.1988464e-06
0.00053321993
-0.00012760537
0.00057130654
-0.00034663845
0.00058429667
-0.0003444299
0.00055347696
-0.00020620912
0.00063660556
-0.00012615233
0.00072458718
-8.0802001e-05
0.00069200706
-0.00021222138
0.00058794155
-0.000147242
0.00047849649
-0.00013413611
0.00046675223
-0.00015583074
0.00043696737
-0.00017335368
0.00036869785
-0.00026653906
0.00036989491
-0.0002672822
0.00044053157
-0.00023422077
0.00059245298
-6.8583539e-05
0.00063468872
0.00015629987
0.00052107374
0.00021453777
0.00041350294
2.987376e-05
0.00045980037
-0.00026518943
0.00064635494
-0.00040444749
0.00078789051
-0.00016163071
0.00078595241
0.00026909389
0.00070157745
0.00047438366
0.00054472287
0.00026832538
0.00032670144
-0.00021555221
0.00027267233
-0.00051196186
0.00043583439
-0.00033177411
0.0005385347
0.00017449317
0.00044456235
0.00054066409
0.00025020113
0.00043698359
-1.3876383e-05
-3.093053e-06
-0.00022018788
-0.00050112194
-0.00012730235
-0.00085980069
0.00020182708
-0.00081382345
0.00052179515
-0.00050257807
0.00062446355
-0.00016158725
0.0005792031
0.00010415928
0.00052213995
0.00026757057
0.00051959823
0.00033125013
0.0005657546
0.00033007923
0.00059347585
0.00023648946
0.0005501431
9.4493379e-05
0.00039908023
-5.646813e-05
-0.00020576652
0.00014936848
0.00079148541
-1.5173467e-05
0.00078825313
-3.2038943e-05
0.00079219996
-3.9706756e-05
0.00078157832
-6.9975398e-05
0.00075601256
-5.9498256e-05
0.00073224389
-0.00010626855
0.00072455133
-7.5977041e-05
0.00073378768
1.8188088e-05
0.00071828336
-8.4349746e-05
0.00063857539
-0.00011178826
0.00056216549
5.1540744e-05
0.00050594242
-0.0001024992
0.00054477898
-0.00023610878
0.00055551995
-0.00034607958
0.00052736986
-0.00035791138
0.00061417928
3.2988454e-05
0.0006929589
0.00017234242
0.00065761278
-0.00021223214
0.00055108397
-0.00038123549
0.00045307604
-0.0003121486
0.00045411792
-0.00011123457
0.00043253681
2.7900594e-05
0.00036818917
-7.6967135e-05
0.00035652652
-0.00016403409
0.00041908674
-0.00021942868
0.00056414171
-0.00010510124
0.00060398823
8.179455e-05
0.00048589584
0.00012759239
0.00036789709
-3.4309712e-05
0.00040848152
-0.00031139044
0.0006140788
-0.00045548757
0.0007813813
-0.00022181317
0.00077990453
0.00020334143
0.00067214764
0.00048009951
0.00049223626
0.00034413683
0.00029728338
-0.00013601607
0.00028662197
-0.00049191327
0.00048875363
-0.00036686417
0.00058534535
0.00011079195
0.00044210753
0.00050960763
0.00021282929
0.00050914283
-5.33987e-05
0.00013686722
-0.00026624436
-0.00037652209
-0.00015030635
-0.00077950486
0.0001954767
-0.00078427174
0.00054711886
-0.00051436847
0.00068179939
-0.00023568067
0.00064318723
3.7803117e-06
0.00057588885
0.00019193682
0.00055755596
0.00034209148
0.0005670112
0.00041172298
0.00055999981
0.00036909129
0.00051942246
0.00021376235
0.00039290397
1.4255978e-05
-0.00017544599
0.00020886853
0.00075437245
-9.3099781e-06
0.00075090235
-4.071485e-05
0.00075463435
-1.4600876e-05
0.00074528245
-5.9712781e-05
0.00071991286
-3.6560739e-05
0.00069723063
-9.3021743e-05
0.00069095767
-0.00010545817
0.00069836329
-3.7602229e-06
0.00068551731
-1.6862613e-05
0.00061349335
-0.00013236188
0.00053538099
4.2100931e-05
0.00048180338
-9.5726947e-05