/*--------------------------------*- C++ -*----------------------------------*\
| =========                 |                                                 |
| \\      /  F ield         | OpenFOAM: The Open Source CFD Toolbox           |
|  \\    /   O peration     | Version:  2406                                  |
|   \\  /    A nd           | Website:  www.openfoam.com                      |
|    \\/     M anipulation  |                                                 |
\*---------------------------------------------------------------------------*/
FoamFile
{
    version     2.0;
    format      ascii;
    arch        "LSB;label=32;scalar=64";
    class       volScalarField;
    location    "18";
    object      rho;
}
// * * * * * * * * * * * * * * * * * * * * * * * * * * * * * * * * * * * * * //

dimensions      [1 -3 0 0 0 0 0];

internalField   nonuniform List<scalar> 
96472
(
1.0013266
1.0012003
1.0002315
0.99998987
0.99983409
0.99972314
0.99970918
0.99981963
0.99989814
0.99998169
1.0001109
1.0001025
0.99987988
0.99950032
0.99890561
0.99819111
0.9976173
0.9971534
0.99664058
0.99606361
0.99573598
0.99535481
0.99490323
0.99441448
0.99417173
0.99387161
0.99344454
0.99310357
0.99285786
0.99260784
0.9923421
0.99207112
0.99181067
0.99143071
0.99106165
0.99082461
0.99062624
0.99039901
0.99025165
0.99011798
0.99006014
0.98990423
0.98995808
0.99016922
0.989975
0.99019335
0.99061115
0.9905634
0.99107624
0.99147775
0.99209396
0.9927626
0.99326514
0.99410202
0.99481163
1.0013177
1.0012081
1.0002272
0.9999812
0.99981295
0.99972264
0.99972655
0.99984562
0.99995233
0.99999331
1.0000602
1.0001082
0.9999349
0.99944886
0.99891082
0.99822619
0.99756018
0.99703059
0.99662847
0.99613952
0.99563842
0.99538896
0.99501723
0.99453843
0.99410053
0.99379801
0.99352384
0.99315821
0.9928082
0.99245685
0.99210837
0.99187559
0.99172959
0.99147623
0.99117075
0.99087779
0.99063807
0.9903753
0.99022326
0.99010055
0.98992227
0.98991395
0.98993712
0.989833
0.99009058
0.99011169
0.99025826
0.99063579
0.99093756
0.99138335
0.99185363
0.9923581
0.99309622
0.99379716
0.99455781
1.0013132
1.0012156
1.0002165
0.99996182
0.99983304
0.99972424
0.99976785
0.99985884
0.99998794
1.00006
1.0000601
1.0000462
0.99993907
0.99950452
0.99887497
0.99827152
0.99764366
0.99704903
0.99655701
0.99618344
0.99570472
0.99527126
0.99499501
0.99460163
0.99418434
0.99380551
0.99355002
0.99320198
0.99289281
0.99259748
0.99221446
0.9918723
0.99162172
0.99134387
0.99108342
0.99086409
0.99063387
0.99037958
0.99018738
0.99003394
0.98994495
0.9897994
0.98979166
0.98993722
0.98983413
0.98996185
0.99019871
0.99044597
0.9907593
0.99119373
0.9916871
0.99226178
0.99287103
0.99348114
0.9943684
1.0013047
1.0012235
1.0001938
0.99996442
0.99984037
0.99973633
0.99980249
0.99990355
1.0000058
1.0000908
1.0001362
1.0000628
0.99987959
0.99954506
0.99890673
0.99826684
0.9977006
0.99719985
0.9966571
0.9961227
0.99578895
0.99533682
0.99493196
0.99448758
0.99420989
0.99388609
0.9934777
0.99318134
0.9929303
0.99265459
0.99234961
0.99207523
0.991826
0.99149441
0.99115849
0.99089257
0.99067358
0.99041
0.99021128
0.99003746
0.98987205
0.98980209
0.9898076
0.98972612
0.98978694
0.98990887
0.99004704
0.99028425
0.99060763
0.99105352
0.99144529
0.99204856
0.99242838
0.99334669
0.99391654
1.0012974
1.0012221
1.0001765
0.99996953
0.99981388
0.99976957
0.99980761
0.99998036
1.0000666
1.0000991
1.0001635
1.0001341
0.99990722
0.99949351
0.99897058
0.99827415
0.99764184
0.99713449
0.99672386
0.99614743
0.99569457
0.99542757
0.99502044
0.99454503
0.99412465
0.99382541
0.99357355
0.99320797
0.99285188
0.99252478
0.99219166
0.99195013
0.99179213
0.9915578
0.99126666
0.99097462
0.99070819
0.99042997
0.99019952
0.99002958
0.98989043
0.98975428
0.98971616
0.98970805
0.98974814
0.98974513
0.98988508
0.99023454
0.99051085
0.99084259
0.99134798
0.99164393
0.99237058
0.99290347
0.99383076
1.0012903
1.0012213
1.0001653
0.99993717
0.99983466
0.99978553
0.99985485
1.0000178
1.0001686
1.0001922
1.0001624
1.0001253
0.99997633
0.9995077
0.99896696
0.99833912
0.99768483
0.99707649
0.9966131
0.99623963
0.9956928
0.99531351
0.99505934
0.99462161
0.9942111
0.99385381
0.99357696
0.99326717
0.99297999
0.99268136
0.99228643
0.9919531
0.99171142
0.99146523
0.99121699
0.99097825
0.9907257
0.99046125
0.99022325
0.99003311
0.98986651
0.98977179
0.98965549
0.98970987
0.98959416
0.98970467
0.98985405
0.98999543
0.99032535
0.99074353
0.99100851
0.99154152
0.9921893
0.99237453
0.99337194
1.0012849
1.001215
1.0001391
0.99992385
0.99984107
0.99979641
0.99992601
1.0000699
1.0002149
1.0002981
1.0002566
1.0001221
0.9999525
0.99959963
0.9989537
0.9983624
0.99778092
0.99723006
0.99665661
0.99618266
0.9958241
0.99533023
0.99495825
0.99456625
0.99424902
0.99390426
0.99354991
0.99327125
0.99297673
0.99271772
0.99241272
0.99213563
0.99188508
0.99158474
0.99127962
0.99101346
0.99076604
0.99051034
0.99024525
0.99006366
0.98987649
0.9897243
0.98968278
0.98956972
0.98960607
0.98968037
0.98966166
0.98994142
0.99030275
0.9905272
0.99090187
0.99143688
0.99129063
0.99278615
0.99301503
1.0012876
1.0012015
1.0001106
0.99992455
0.99984948
0.99984073
0.99996993
1.0001672
1.0002919
1.0003459
1.0003629
1.000232
0.99996153
0.99961696
0.9990261
0.99835606
0.99774669
0.99724104
0.9967933
0.99615737
0.99576334
0.99544465
0.99503237
0.99454891
0.99415
0.99388784
0.99360969
0.99327906
0.99294827
0.99263975
0.99230601
0.9920457
0.99186999
0.99165282
0.99138911
0.99111949
0.99084582
0.99055948
0.99029587
0.9900515
0.98990869
0.98974406
0.98961404
0.98960038
0.9895701
0.98945224
0.98968138
0.98987087
0.99000234
0.99043204
0.99082398
0.99083861
0.9919451
0.9918505
0.99266203
1.0012945
1.0011738
1.0000847
0.99991686
0.99984763
0.99987611
1.0000009
1.0002515
1.0004176
1.0004295
1.0004073
1.000307
1.0000761
0.99960971
0.99911228
0.99842724
0.99775983
0.99714292
0.99670025
0.9962696
0.9956997
0.99535279
0.99510417
0.99463767
0.99423907
0.99388178
0.99361826
0.99334353
0.99307012
0.99275798
0.99237702
0.99204527
0.99180033
0.99157226
0.99134435
0.99110949
0.99086629
0.99059173
0.99030847
0.9901257
0.98987934
0.98975086
0.98961631
0.98958954
0.98942549
0.98958762
0.9896009
0.98964081
0.98998703
0.99034331
0.99040853
0.99111946
0.99116
0.99166345
0.99258543
1.0012953
1.0011476
1.0000531
0.99991052
0.99986014
0.99991005
1.0000889
1.0003106
1.0005223
1.000591
1.0004921
1.000315
1.0001292
0.99970845
0.99911918
0.99850054
0.99787943
0.99726437
0.99667761
0.99624334
0.9958307
0.9953404
0.9949822
0.9946348
0.99430718
0.9939414
0.99362235
0.9933428
0.99305246
0.99280679
0.99250276
0.99220619
0.99194863
0.99167766
0.99140618
0.99115673
0.99090382
0.99065079
0.99037432
0.99015712
0.98996187
0.98974294
0.98966641
0.98946358
0.98955382
0.98940796
0.98941858
0.9897881
0.98989833
0.9899822
0.9904713
0.9907502
0.99084381
0.99204459
0.99190038
1.0012871
1.0011127
1.0000247
0.99990048
0.99988325
0.99994068
1.0001672
1.0004175
1.0006131
1.0007003
1.0006426
1.0004172
1.0001296
0.999805
0.99915363
0.99852307
0.9979094
0.99736436
0.99684881
0.99620674
0.99583669
0.99544473
0.99505745
0.99458642
0.99419145
0.99394163
0.99365448
0.99335716
0.99303564
0.99274892
0.99242788
0.99214889
0.99195206
0.99173759
0.99149152
0.99125112
0.99098756
0.99069316
0.99042877
0.99019968
0.98998419
0.98979247
0.98958825
0.98963386
0.98935609
0.9893882
0.98957586
0.98948185
0.98974032
0.98999809
0.99027815
0.99038372
0.99138301
0.99085129
0.99193797
1.0012779
1.0010807
0.99999201
0.99989375
0.99989564
0.99999573
1.000227
1.0005327
1.000733
1.0007819
1.0007477
1.0005654
1.0002391
0.99982805
0.99928482
0.99858538
0.99790547
0.99727889
0.99683023
0.99630526
0.99575951
0.99540014
0.99512937
0.99467912
0.99425129
0.99390639
0.99364236
0.99339756
0.99313492
0.99285162
0.99248592
0.99213138
0.99188852
0.99167087
0.99144452
0.99124136
0.99101995
0.99074111
0.9904456
0.99027115
0.9900083
0.98977923
0.98971092
0.98943206
0.9894635
0.9894224
0.98930049
0.989599
0.98960986
0.98994254
0.99006374
0.99044512
0.99044233
0.99108776
0.99190183
1.0012581
1.0010393
0.99994664
0.99988767
0.99989361
1.0000446
1.0002811
1.0006202
1.0008863
1.000941
1.0008313
1.0006263
1.0003763
0.99989522
0.99937427
0.99869335
0.99802344
0.99734376
0.99675633
0.99632572
0.9958447
0.99536183
0.99502207
0.99467491
0.99434842
0.99396887
0.9936773
0.99342245
0.99314506
0.99290034
0.99259902
0.99226742
0.99201006
0.99176649
0.99150139
0.99127108
0.99105783
0.99079089
0.99053094
0.99027127
0.99008743
0.98987102
0.98960169
0.98963311
0.98939516
0.98930001
0.98942927
0.98934967
0.98970222
0.98965654
0.98992833
0.99022548
0.99036229
0.99145047
0.99074549
1.0012423
1.001001
0.99990914
0.99987646
0.99991671
1.0000761
1.0003856
1.0007086
1.0009922
1.0011065
1.0009832
1.0006938
1.0004043
1.0000328
0.99939797
0.99876526
0.9981218
0.99751336
0.99691577
0.99629659
0.99590901
0.9954443
0.99507085
0.99462716
0.99424464
0.99397216
0.9937085
0.99341643
0.99309174
0.99283283
0.99255119
0.99225524
0.99203098
0.99182222
0.991573
0.99134839
0.99113085
0.99085551
0.99058931
0.99035914
0.99012834
0.98986314
0.9897611
0.98948882
0.98945616
0.98936538
0.98932089
0.98939207
0.98940467
0.98966924
0.98984142
0.99009938
0.99063539
0.9900537
0.99125387
1.0012107
1.000953
0.99986497
0.99986301
0.99992812
1.0001118
1.0004627
1.0008267
1.0010953
1.0012055
1.0011348
1.0008586
1.0004772
1.0001201
0.99949782
0.99883257
0.99813741
0.99749071
0.99699994
0.99637475
0.99586087
0.99546027
0.99514539
0.99472228
0.99427856
0.99394086
0.99367487
0.99343575
0.99318147
0.99293832
0.99261159
0.99224462
0.99197331
0.9917634
0.991534
0.99133084
0.99114918
0.99089405
0.99063287
0.99041161
0.99015824
0.98997465
0.989698
0.9896067
0.98939953
0.98943194
0.98918008
0.98938081
0.98933417
0.98958998
0.98982708
0.9899026
0.98985189
0.99059297
0.99120203
1.0011909
1.0009104
0.9998195
0.99985469
0.99993284
1.0001591
1.0005091
1.0009291
1.0012416
1.0013224
1.0012323
1.0009799
1.0006457
1.0001665
0.99965573
0.99894868
0.99822918
0.9975009
0.99691288
0.99644097
0.99589381
0.99539894
0.99508582
0.99472909
0.99437682
0.99397805
0.99369214
0.993488
0.99321731
0.99299063
0.99270936
0.99235836
0.9920627
0.99183615
0.99159005
0.99136278
0.99116786
0.9909404
0.99069675
0.99044038
0.99024364
0.98997762
0.98978695
0.98958356
0.98954485
0.98926628
0.9893918
0.98912865
0.98945952
0.98941225
0.98954594
0.98975899
0.99008897
0.99085984
0.98985516
1.0011676
1.0008631
0.99975855
0.99983422
0.99992938
1.00019
1.0005748
1.0010017
1.0013624
1.0014975
1.0013528
1.0010441
1.0007375
1.0002813
0.99973493
0.99905322
0.99836281
0.99768478
0.99701909
0.9964186
0.9959877
0.99548394
0.99507115
0.9946712
0.99430886
0.99398975
0.99373367
0.99346822
0.99315339
0.99291572
0.99266065
0.9923552
0.99209341
0.99189622
0.99166223
0.99143346
0.99122033
0.99100188
0.99075629
0.99053233
0.99027677
0.99005313
0.98985005
0.98966742
0.98948337
0.98940673
0.98922968
0.98931877
0.98917832
0.98937016
0.98950986
0.98971233
0.99025838
0.9894512
0.99064585
1.0011546
1.0008215
0.99971962
0.99981948
0.99993132
1.0002129
1.0006558
1.0010821
1.0014453
1.0016212
1.0015144
1.0011682
1.0007773
1.000417
0.99977961
0.99913409
0.99843034
0.99775465
0.99718212
0.99648359
0.99600017
0.9955246
0.99516181
0.99475625
0.99429653
0.99397811
0.99371566
0.99349163
0.99322329
0.99298489
0.9927226
0.99238104
0.99207193
0.99185777
0.99163386
0.99142338
0.99122865
0.99103481
0.99081039
0.99057302
0.99034668
0.99013174
0.98986888
0.98974511
0.9895009
0.98947108
0.98920685
0.98924934
0.98919318
0.98931506
0.98946639
0.98959657
0.98953604
0.98992824
0.9906495
1.0011405
1.0007817
0.99965623
0.9997917
0.99993069
1.0002289
1.0006916
1.0011755
1.0015385
1.0017002
1.0016262
1.0013224
1.0009162
1.0004872
0.99991406
0.99923851
0.99849815
0.99774234
0.99713617
0.99659002
0.99599399
0.99546393
0.99516094
0.99478865
0.99441093
0.99399996
0.99369882
0.99352313
0.99326984
0.99304338
0.9928165
0.99248778
0.99215203
0.99190591
0.99167167
0.99145631
0.99124192
0.99106555
0.99086448
0.99062282
0.99043162
0.99015104
0.9899753
0.98969694
0.98969397
0.9893412
0.98937852
0.98914934
0.98922266
0.98930153
0.98918355
0.98958711
0.98950859
0.99031298
0.98953126
1.0011316
1.0007412
0.99960804
0.99976762
0.99991776
1.0002595
1.0007174
1.0012417
1.0016475
1.0018206
1.0017144
1.001396
1.0010562
1.0005567
1.0000616
0.99936382
0.99861771
0.99787755
0.99717865
0.99657641
0.99608422
0.99556111
0.99510895
0.9947355
0.99439439
0.99403513
0.99373945
0.99350654
0.99322442
0.99298673
0.99277228
0.99247124
0.99217286
0.99195636
0.99174077
0.99152727
0.99129685
0.99111195
0.990916
0.99070072
0.99046798
0.99026638
0.98996549
0.98987671
0.98959807
0.98954805
0.98930888
0.9892584
0.98916648
0.98911359
0.98937221
0.98935349
0.98963786
0.98938409
0.99003798
1.001131
1.0007019
0.99954782
0.99975076
0.999898
1.0002652
1.0007638
1.0012737
1.0017153
1.0019507
1.0018417
1.0014799
1.0010993
1.0006763
1.0001169
0.99944167
0.99872794
0.9980159
0.99736253
0.99664198
0.99614626
0.99560065
0.99519462
0.99479302
0.99434464
0.99401138
0.99375609
0.99354583
0.9932811
0.99302662
0.99281262
0.99250464
0.99219551
0.99195599
0.99173727
0.99153208
0.99132105
0.99114509
0.99095776
0.99075127
0.99054747
0.99029367
0.99010796
0.98987495
0.98971461
0.98957435
0.98940941
0.98920495
0.98923944
0.98906904
0.98936489
0.98913549
0.98944502
0.98960366
0.98979751
1.0011269
1.0006718
0.99951022
0.99970415
0.99988232
1.0002578
1.0007927
1.0013272
1.0017582
1.0020114
1.0019537
1.0016084
1.0011717
1.0007771
1.0001744
0.99952792
0.9988036
0.99803338
0.99738286
0.9967543
0.99616014
0.99558612
0.99523073
0.99485644
0.99443897
0.9940494
0.99372763
0.99354999
0.99333035
0.99308589
0.99289466
0.99260001
0.99229125
0.99201625
0.9917676
0.9915513
0.99134815
0.99117735
0.99099992
0.9908142
0.99059314
0.99038769
0.99016918
0.98992859
0.98982472
0.9895808
0.98945754
0.98933608
0.98912268
0.9892812
0.98896347
0.98934166
0.98937403
0.98955015
0.98938849
1.0011462
1.0006267
0.99945646
0.99969944
0.99986293
1.0002566
1.0007918
1.0013737
1.0018225
1.002072
1.0020174
1.0016964
1.0013105
1.0008327
1.0003087
0.99965486
0.99889549
0.99810918
0.99739932
0.9967702
0.99621269
0.99564927
0.99519646
0.99483095
0.99447516
0.99412068
0.99377985
0.99356051
0.99332851
0.9930753
0.99288486
0.99261452
0.99232927
0.9920719
0.99184104
0.9916164
0.99141851
0.99123587
0.99105935
0.99088129
0.99066671
0.99048339
0.99020759
0.99007784
0.98980934
0.98975581
0.98945436
0.98943372
0.98921562
0.98915903
0.98909381
0.98939303
0.98917057
0.98917971
0.98974884
1.0011312
1.0006306
0.99942941
0.99968133
0.99985693
1.0002812
1.0008144
1.001397
1.001869
1.0021468
1.0020833
1.0017524
1.0013904
1.0009289
1.0004473
0.99977499
0.99902825
0.99827038
0.99756367
0.99684885
0.99630635
0.99571837
0.99526789
0.99487712
0.99445685
0.99411515
0.99382386
0.99362965
0.99339203
0.99313911
0.99294732
0.99268546
0.99239723
0.99213585
0.99191201
0.99167982
0.99149513
0.99129426
0.99113933
0.99096205
0.99077018
0.99053997
0.99035219
0.99009539
0.98999013
0.98974753
0.98966019
0.98941912
0.98935584
0.9891428
0.98935646
0.98904424
0.98917391
0.9895423
0.98935859
1.0012231
1.000582
0.99940935
0.99972561
0.99990299
1.0003563
1.0009128
1.001464
1.0019367
1.0022242
1.0021813
1.0018632
1.0014789
1.0011165
1.0006097
0.99998498
0.99926731
0.99846944
0.99774625
0.9970212
0.99641527
0.99578803
0.99535702
0.99497771
0.99456294
0.9942072
0.99389954
0.99371968
0.99354103
0.99333217
0.99314504
0.99290753
0.9926198
0.99235756
0.99210693
0.99185472
0.99164777
0.99145512
0.99129096
0.99111122
0.99089062
0.99070046
0.99046888
0.99026236
0.99008366
0.98987533
0.98974115
0.9895422
0.98943852
0.98935816
0.98925252
0.98908542
0.98953024
0.98929071
0.9892968
1.0013633
1.0007697
0.99943793
0.99980725
1.0000617
1.0005696
1.001157
1.0017109
1.0021364
1.0023765
1.0023119
1.0020457
1.0017189
1.001371
1.0009396
1.0004697
0.99978857
0.99885372
0.9979585
0.99715639
0.99648797
0.99585617
0.99538415
0.9950254
0.99466587
0.99434828
0.99407036
0.99390468
0.99375894
0.99358072
0.99339501
0.99320045
0.99292932
0.99269289
0.99243253
0.99219623
0.99197759
0.9917456
0.99162776
0.99146195
0.99115931
0.9909686
0.99070338
0.99046604
0.99026201
0.99011083
0.98974654
0.98972286
0.98955649
0.98947111
0.98914948
0.98944882
0.98940723
0.98911887
0.98964584
1.0017113
1.0010997
0.99977626
1.0001328
1.0003516
1.0008889
1.0014977
1.0019811
1.0027396
1.0027431
1.0024009
1.0024508
1.0022121
1.0014036
1.0011752
1.0013514
1.0009683
0.99937549
0.99792363
0.99699484
0.9963777
0.99588899
0.99547949
0.99507397
0.99465601
0.99437428
0.99414773
0.99404309
0.99391545
0.99376706
0.99361725
0.99347948
0.99323308
0.993
0.99274127
0.99250423
0.99236578
0.99214441
0.99198564
0.99184958
0.99161851
0.9914188
0.99113974
0.99076198
0.99061402
0.99028365
0.99009147
0.98982496
0.98966324
0.98946157
0.98935069
0.98937544
0.98914126
0.98950684
0.98939092
0.98956943
0.98957786
0.98964518
0.98958097
0.9896387
0.98986226
0.98993511
0.99011939
0.99042687
0.99036312
0.9907577
0.99117576
0.99102281
0.99162688
0.99196219
0.99203582
0.99256118
0.99277281
0.99323643
0.9935534
0.99390265
0.99433961
0.9945653
0.99504518
0.99525087
0.99557266
0.99581893
0.9896859
0.98978999
0.98986093
0.98987199
0.98995513
0.99012845
0.99030476
0.99051883
0.99073258
0.99099881
0.99123791
0.99148667
0.9919823
0.99207392
0.99259739
0.9929047
0.99321722
0.99379775
0.99397421
0.99462915
0.99492198
0.99536979
0.99581985
0.99611287
0.99646238
0.99674791
0.99710551
0.99008069
0.99020405
0.99012291
0.99022865
0.99035332
0.99050697
0.99079173
0.99099212
0.9912537
0.99157062
0.99192555
0.99225155
0.9925844
0.99310326
0.99325145
0.99388307
0.99420943
0.99464389
0.99527711
0.99549917
0.99625173
0.99651253
0.99709769
0.99740761
0.99785748
0.998139
0.99852526
0.99055532
0.99060968
0.9905774
0.99065357
0.99080414
0.99117115
0.99131764
0.99167828
0.99203772
0.99234354
0.99278025
0.99318492
0.99359787
0.99400721
0.99454949
0.994843
0.99554613
0.99592955
0.99643886
0.99708094
0.99736697
0.99813598
0.99835304
0.99907424
0.99928965
0.99984332
1.0001556
0.99097792
0.99092208
0.99110648
0.99131181
0.99156254
0.99180923
0.99231021
0.99256796
0.99298685
0.99352171
0.99380269
0.99445066
0.99486009
0.99526942
0.99599314
0.99637614
0.9969985
0.99755405
0.99809197
0.99863011
0.99926055
0.99963544
1.0002959
1.000637
1.0012862
1.0016299
1.0020416
0.99159758
0.99166477
0.99196836
0.99216639
0.99260613
0.99288686
0.9933133
0.99390479
0.99424129
0.99480353
0.99541974
0.99570446
0.99653995
0.99702612
0.99751729
0.99838837
0.99870964
0.99958754
1.000008
1.000697
1.0012385
1.0018338
1.0023537
1.0028828
1.0033753
1.0039186
1.0042232
0.99250965
0.9929296
0.99317046
0.99334764
0.993815
0.99436002
0.99466765
0.99533589
0.99596313
0.99635555
0.99714068
0.99771892
0.99825286
0.99912712
0.99962508
1.0003837
1.0010876
1.0016398
1.0025014
1.0029415
1.003752
1.0042283
1.0049094
1.0054698
1.0060259
1.0064938
1.0070066
0.99391086
0.99424909
0.99457086
0.9949489
0.99531828
0.99599688
0.99661459
0.99706019
0.99790127
0.99859076
0.99904697
1.0000825
1.0006125
1.0013093
1.0022851
1.0026559
1.0037317
1.004209
1.0050403
1.0058167
1.0063082
1.0072014
1.0077067
1.0084638
1.0090491
1.0096205
1.0102147
0.99542619
0.99602604
0.99628924
0.99688288
0.9972757
0.99806022
0.9988517
0.99938276
1.0003098
1.0010475
1.0017262
1.0027197
1.0033118
1.0042037
1.0049987
1.0057094
1.0065887
1.0073006
1.0080964
1.0088918
1.0095948
1.0103952
1.0111466
1.0118027
1.0125849
1.0132089
1.0138616
0.99748869
0.9977858
0.99846926
0.99919155
0.99987746
1.0005826
1.0015486
1.0023477
1.0030321
1.0041428
1.0048461
1.0056591
1.0068288
1.0073186
1.0084379
1.0092035
1.0100182
1.0110926
1.0115898
1.0127961
1.0132829
1.0143739
1.0149975
1.015953
1.0165595
1.0174157
1.0179682
1.000037
1.0005938
1.0013189
1.0021312
1.0030425
1.0036979
1.004857
1.0056955
1.0064554
1.0077337
1.0084296
1.0094272
1.010537
1.0112634
1.0124843
1.0131543
1.0142959
1.0152088
1.0159923
1.0172007
1.0177448
1.0189678
1.0194675
1.0206648
1.0211494
1.0221439
1.0226118
1.0032604
1.0040502
1.0048205
1.0057618
1.0066856
1.0075096
1.0086799
1.0097117
1.0105399
1.0117213
1.0128559
1.0136129
1.0148715
1.0159449
1.0168785
1.0180018
1.0189506
1.0200082
1.0209341
1.0220399
1.0228119
1.0239828
1.0245293
1.0256741
1.026088
1.0271064
1.0274073
1.0070301
1.0079806
1.0089027
1.0100185
1.0109289
1.011884
1.013215
1.0142207
1.0152461
1.0165727
1.0175001
1.0186876
1.0197828
1.0208804
1.0221089
1.0230647
1.024225
1.0251203
1.0262762
1.0270475
1.0281885
1.028892
1.0297481
1.0304473
1.0309704
1.031644
1.0318212
1.0116355
1.012723
1.0137624
1.0148378
1.0158084
1.017035
1.0181895
1.0193364
1.0205959
1.0217165
1.0230119
1.0240667
1.0251719
1.026322
1.0274212
1.0285839
1.0293673
1.0306201
1.0311512
1.0321352
1.0328298
1.0334032
1.0341064
1.0342712
1.0347685
1.0348873
1.0349005
1.0165027
1.018238
1.0189652
1.020218
1.0213632
1.0224919
1.0237582
1.0250581
1.0260846
1.0274128
1.0285683
1.0296421
1.0307265
1.0315961
1.0327341
1.0334244
1.0343897
1.0350006
1.0354785
1.0360655
1.0361081
1.0365622
1.0365261
1.0365791
1.0364995
1.0363032
1.0359778
1.0224435
1.0231491
1.0248108
1.0259238
1.0271471
1.0283228
1.0295812
1.0306664
1.0317185
1.0328046
1.0338285
1.0345884
1.0354739
1.0361059
1.0365526
1.0372462
1.0374512
1.0377046
1.037948
1.0378175
1.0376517
1.0375371
1.0371997
1.0368446
1.036585
1.0360304
1.0356533
1.0292682
1.0301381
1.0311953
1.0319091
1.0330062
1.033799
1.0347373
1.035594
1.0362842
1.0370937
1.0374462
1.0379539
1.0383914
1.0383397
1.038603
1.0386037
1.0383975
1.0383241
1.0381446
1.0377928
1.0372672
1.0370267
1.0362463
1.0359554
1.0354396
1.0349239
1.0345785
1.0351805
1.0363507
1.036596
1.0370098
1.0374968
1.0378407
1.0382375
1.0386799
1.0388659
1.0389808
1.0391178
1.0391118
1.0390212
1.0386893
1.0386275
1.0382619
1.0377114
1.0375245
1.0369813
1.0365106
1.0359647
1.0357192
1.0349391
1.034656
1.0341641
1.0336259
1.0332418
1.0377959
1.039617
1.0391975
1.0393221
1.0394372
1.0395455
1.0395584
1.0395319
1.0393916
1.0391994
1.0389634
1.0386609
1.038306
1.0377739
1.0375453
1.0368185
1.0364219
1.0360566
1.0354733
1.0350146
1.0345242
1.0342945
1.0335024
1.0333605
1.0328545
1.0324451
1.0319224
1.0375505
1.0366343
1.0390315
1.0388754
1.0394976
1.0392793
1.0391724
1.0388209
1.0385028
1.0381427
1.0376435
1.037317
1.0367411
1.0363737
1.035927
1.0352609
1.0350149
1.0344047
1.0341347
1.0333869
1.0331986
1.0327236
1.0320923
1.0319078
1.0313641
1.0310839
1.0304339
1.0470543
1.0428614
1.0430274
1.0408659
1.0399814
1.0388044
1.0380722
1.0373903
1.0369225
1.0364114
1.035972
1.0354714
1.0349833
1.0347356
1.0340424
1.0337632
1.0332333
1.0329068
1.0325349
1.0318629
1.0318614
1.0310655
1.0308156
1.0302199
1.0300116
1.0295496
1.0290692
1.0354093
1.0407343
1.0376423
1.0374495
1.0362849
1.0358316
1.0354458
1.0351047
1.0348221
1.0344655
1.0340665
1.0336514
1.0333961
1.032901
1.0325614
1.0321586
1.0317382
1.0314876
1.0308844
1.0305595
1.0302742
1.0298372
1.0294148
1.0289392
1.0286887
1.0282916
1.0278391
1.0304862
1.0269046
1.0331816
1.0314103
1.0330181
1.0328932
1.0332771
1.0331633
1.0331457
1.0328834
1.0324813
1.0322678
1.0319458
1.0314396
1.0312997
1.0307245
1.0306438
1.0302172
1.0296402
1.0295256
1.0288857
1.0288136
1.0281502
1.0278899
1.0274998
1.0271379
1.0267678
1.0341765
1.0359142
1.0371071
1.0353483
1.0348137
1.0337797
1.0331178
1.0324868
1.0320621
1.0315526
1.0312146
1.0310398
1.0305167
1.030324
1.0299162
1.0296187
1.0294692
1.0289526
1.0286764
1.028325
1.027957
1.0276688
1.0271777
1.0268667
1.0264729
1.0261547
1.0257502
1.0356938
1.0347139
1.0349528
1.034062
1.0330893
1.0318692
1.0312739
1.0307502
1.0303482
1.0300101
1.0297243
1.0295577
1.0291399
1.0289304
1.0286513
1.0282762
1.0283247
1.0275739
1.0276978
1.0270543
1.0269864
1.0266173
1.0261104
1.0260253
1.0254575
1.0253422
1.0248359
1.0286736
1.0311109
1.0324059
1.0315671
1.03076
1.0298369
1.0295311
1.0290352
1.0287519
1.0284589
1.0283286
1.0280017
1.0279377
1.0275349
1.0273915
1.027249
1.0268151
1.0267142
1.0262267
1.0262194
1.025836
1.0256264
1.0252373
1.0249358
1.0247474
1.0243667
1.024107
1.0269399
1.0294636
1.0298378
1.0291572
1.0286485
1.0280645
1.0278748
1.0275109
1.0273613
1.0271269
1.0270532
1.0267033
1.0266111
1.0263227
1.0262021
1.0261914
1.0256806
1.0256894
1.0251365
1.0251782
1.0248724
1.024675
1.0243256
1.0240791
1.023849
1.0236385
1.0233691
1.0228902
1.0273657
1.0276891
1.0269621
1.0268062
1.0264181
1.0264657
1.0261996
1.026134
1.0259621
1.0258631
1.0255505
1.0255198
1.0251625
1.0251155
1.0250646
1.0246586
1.0247091
1.0242189
1.0241531
1.0238627
1.0237172
1.0234541
1.0232624
1.0229727
1.0228553
1.0226283
1.0245632
1.0253045
1.0272312
1.0258427
1.0261314
1.0253429
1.0254727
1.0249858
1.0250554
1.0248173
1.0247403
1.0245335
1.024465
1.0240969
1.0242139
1.023773
1.0239471
1.0234878
1.0234761
1.023125
1.0229659
1.0228318
1.0225662
1.0225541
1.0221517
1.0222261
1.0219138
1.0258126
1.0265054
1.0267933
1.0262035
1.0258299
1.0250196
1.0246749
1.0241681
1.024118
1.023895
1.0236354
1.0236122
1.0232821
1.0233025
1.0231415
1.0228657
1.0229913
1.0224309
1.0227029
1.0221348
1.0222642
1.0219632
1.0218046
1.0218582
1.0214874
1.0215955
1.0213111
1.0262961
1.0257883
1.0260222
1.025848
1.0254708
1.0246588
1.0239668
1.0233723
1.0232676
1.0229615
1.0228335
1.022757
1.0223653
1.0225918
1.0221136
1.0222313
1.0219953
1.021669
1.0218242
1.0212624
1.0215727
1.0211689
1.0212156
1.021106
1.0209442
1.0209579
1.0208211
1.023278
1.0240565
1.0247935
1.0244588
1.0242376
1.0236306
1.0230719
1.0225711
1.0223528
1.0220721
1.0221083
1.0217508
1.0217353
1.0215906
1.0212922
1.0214731
1.0210785
1.0211168
1.0209635
1.0207467
1.0209047
1.0206122
1.0207377
1.0204713
1.0205056
1.0204074
1.0204127
1.020721
1.0227077
1.0231164
1.0229693
1.0227733
1.0222553
1.0219116
1.0216417
1.0214269
1.0212744
1.0212273
1.0209376
1.0210545
1.0206831
1.0207642
1.0205968
1.02053
1.0205624
1.0203236
1.0204224
1.020172
1.0202912
1.020119
1.0201694
1.0200688
1.0200989
1.0200671
1.0184062
1.0214154
1.0219859
1.0216929
1.0214836
1.021026
1.0209243
1.0207571
1.0206527
1.0205681
1.0204152
1.0203444
1.0204246
1.0201563
1.020322
1.0199663
1.0201143
1.0199459
1.0199796
1.0199951
1.0198371
1.0199588
1.0197051
1.0198791
1.0197254
1.0198868
1.0198349
1.0184774
1.0205961
1.0211255
1.0209116
1.0206523
1.0202585
1.0202105
1.0200424
1.0200158
1.0200101
1.0198372
1.0199114
1.019838
1.0197729
1.019865
1.0196181
1.0197887
1.0195844
1.0197168
1.0196242
1.0196256
1.0195907
1.0195527
1.0195934
1.0196228
1.0196779
1.0197111
1.0203397
1.0204514
1.0207847
1.0206714
1.0203924
1.0200264
1.0198781
1.0196381
1.0196342
1.0195806
1.019458
1.0195779
1.0194571
1.0195319
1.0195263
1.0194221
1.0195113
1.0193993
1.0195055
1.0194768
1.0194756
1.0194979
1.0194893
1.0195546
1.0195993
1.0196748
1.0197296
1.0207228
1.0201878
1.0204322
1.0204435
1.0203539
1.0200282
1.0198149
1.0195045
1.0194143
1.0193317
1.0192935
1.0193547
1.0193364
1.019372
1.0193757
1.0193548
1.0193504
1.0194126
1.0194058
1.0195393
1.0194536
1.0195761
1.019482
1.0196653
1.0196572
1.0198019
1.0198566
1.0201935
1.0200455
1.0203854
1.0205012
1.0205096
1.0202656
1.0199878
1.0196233
1.0194595
1.0193175
1.0193234
1.0193349
1.0193118
1.0194031
1.0193124
1.0194229
1.0193504
1.0195034
1.0194738
1.0196321
1.0195738
1.0196761
1.0196482
1.0198107
1.0198507
1.019979
1.0200251
1.0197976
1.0199494
1.0203127
1.0205385
1.020584
1.0203915
1.0201731
1.019783
1.019593
1.0194957
1.0194018
1.0194672
1.0193602
1.0194583
1.0193894
1.0195244
1.0194939
1.0196249
1.0196167
1.0197212
1.0197731
1.0198103
1.0199046
1.0199793
1.0200822
1.0201418
1.0202573
1.0195302
1.0198824
1.0202436
1.0204273
1.0204568
1.0202781
1.0200686
1.0198025
1.0196241
1.0195823
1.0195039
1.0195321
1.0194901
1.0195415
1.0195446
1.0196251
1.0196602
1.0197346
1.0198057
1.0198737
1.0199863
1.0200716
1.0201582
1.0202311
1.0203355
1.0204172
1.0205192
1.019322
1.0198259
1.0201344
1.0202393
1.0202291
1.020066
1.0198909
1.0197573
1.0196951
1.0196676
1.0196509
1.0196323
1.0196517
1.0196882
1.0197492
1.0198234
1.0198528
1.0199618
1.0200038
1.0201462
1.0202236
1.0203508
1.0204336
1.0205339
1.0206253
1.0207284
1.0208281
1.0190426
1.019858
1.0200695
1.0200932
1.0200282
1.0199297
1.019854
1.019816
1.0198345
1.0198238
1.0198736
1.0198492
1.0198871
1.0199553
1.0199661
1.0201139
1.020097
1.020303
1.0202748
1.0204701
1.0205049
1.0206537
1.020735
1.0208518
1.0209753
1.0210767
1.0212009
1.0189839
1.0199392
1.0201638
1.0200907
1.0200682
1.019918
1.0199826
1.0199602
1.0200378
1.0201014
1.0200951
1.0202633
1.0201335
1.0203658
1.0202538
1.0204511
1.0204888
1.020535
1.0207805
1.0206451
1.0210307
1.0208719
1.0212308
1.0211902
1.0214166
1.0214821
1.0216245
1.0191971
1.0198987
1.0203056
1.0203117
1.0202395
1.0202107
1.0201526
1.0202623
1.0201618
1.0204245
1.0202931
1.0206144
1.0204921
1.0206633
1.0206712
1.0206824
1.0209793
1.0207919
1.0212823
1.0209873
1.0214312
1.0213012
1.0215825
1.0216859
1.0217902
1.02197
1.0220508
1.0195001
1.0200166
1.0204785
1.0207249
1.020476
1.0205801
1.0203803
1.0205412
1.020481
1.0205626
1.0207529
1.0206555
1.0210622
1.0207333
1.0212637
1.0209181
1.021386
1.0212991
1.0213841
1.0217248
1.0214199
1.0220766
1.0216856
1.0223037
1.0220788
1.0224769
1.0224737
1.0199723
1.020308
1.0209489
1.0210944
1.0209859
1.0206983
1.0208957
1.0206318
1.0209687
1.020827
1.0209857
1.0211759
1.021048
1.0214983
1.0211775
1.0216785
1.0215196
1.0217585
1.0219082
1.0217713
1.0222459
1.0219906
1.0225588
1.0223715
1.0227385
1.0226803
1.0229156
1.0206392
1.0206953
1.0212882
1.0216175
1.021431
1.021048
1.0212062
1.0210089
1.0212268
1.0212764
1.0211192
1.0215902
1.0213047
1.0218492
1.0216334
1.0218343
1.0220712
1.021809
1.0225436
1.0220165
1.0227111
1.0223821
1.022764
1.02285
1.0229597
1.0232059
1.0232224
1.0213171
1.0211989
1.0216185
1.0218116
1.0219368
1.0214687
1.0215227
1.0212531
1.0213613
1.0216778
1.0214669
1.0219372
1.0215018
1.0220633
1.0219486
1.0221975
1.0224387
1.0221837
1.0227593
1.0223948
1.0231142
1.0227194
1.0231852
1.0229936
1.023365
1.0234698
1.0236917
1.0217338
1.0216075
1.0219275
1.0219726
1.0218859
1.0220084
1.0215534
1.0217777
1.0215234
1.0217346
1.0221507
1.0218121
1.0223992
1.0216852
1.0224957
1.0223301
1.0227154
1.0229611