/*--------------------------------*- C++ -*----------------------------------*\
| =========                 |                                                 |
| \\      /  F ield         | OpenFOAM: The Open Source CFD Toolbox           |
|  \\    /   O peration     | Version:  2406                                  |
|   \\  /    A nd           | Website:  www.openfoam.com                      |
|    \\/     M anipulation  |                                                 |
\*---------------------------------------------------------------------------*/
FoamFile
{
    version     2.0;
    format      ascii;
    arch        "LSB;label=32;scalar=64";
    class       volScalarField;
    location    "18";
    object      T;
}
// * * * * * * * * * * * * * * * * * * * * * * * * * * * * * * * * * * * * * //

dimensions      [0 0 0 1 0 0 0];

internalField   nonuniform List<scalar> 
96472
(
1.0021319
1.0015669
1.0009619
1.0007237
1.000818
1.0010246
1.001108
1.0010294
1.0007691
1.0005018
1.0003831
1.0003742
1.0004425
1.0005752
1.0006247
1.0004892
1.0002605
0.99992799
0.99948331
0.99896324
0.99854684
0.9981745
0.99784304
0.99756631
0.99746873
0.99741246
0.99733802
0.99730689
0.99731881
0.9973131
0.99727042
0.99720896
0.99710806
0.99693041
0.99672427
0.99655714
0.99639624
0.99623685
0.99611717
0.99602012
0.99596663
0.99588549
0.9958689
0.99596594
0.99588844
0.99595007
0.99613235
0.9960992
0.996275
0.99642675
0.99665912
0.99690452
0.99709309
0.99739421
0.99764546
1.0021312
1.0015683
1.0009583
1.0007152
1.0007985
1.0010099
1.0011042
1.0010384
1.0008005
1.0005177
1.0003609
1.00036
1.0004438
1.0005299
1.0005949
1.0004867
1.0002435
0.99989749
0.99949997
0.99903035
0.9985455
0.99820853
0.99789786
0.99762287
0.99742926
0.99735013
0.99733301
0.99729342
0.99726032
0.99721858
0.99715498
0.99711195
0.99706669
0.99695276
0.99678466
0.99660986
0.99643682
0.99627048
0.99613809
0.99605234
0.99592677
0.99590164
0.99588248
0.99582793
0.99591248
0.99594649
0.99597182
0.99612964
0.99623842
0.99641741
0.99660255
0.99679604
0.99710081
0.99735579
0.99765082
1.0021281
1.001567
1.0009523
1.0006956
1.0007875
1.000993
1.0011125
1.0010453
1.0008234
1.0005534
1.0003637
1.0003258
1.0004231
1.0005313
1.0005637
1.0004951
1.000285
0.99993017
0.9994987
0.99906987
0.99860101
0.99818117
0.99789589
0.99764417
0.99746363
0.99735032
0.99732475
0.99729142
0.99728234
0.99726959
0.99720266
0.99712181
0.99703896
0.99691495
0.99676786
0.99662383
0.99645976
0.99629756
0.99614996
0.99604389
0.99596035
0.9958819
0.99583091
0.99589123
0.99583578
0.99587958
0.99597097
0.99605296
0.99617045
0.99632384
0.99653088
0.99674066
0.99699386
0.99720931
0.99758081
1.0021246
1.001564
1.0009409
1.0006847
1.0007716
1.0009829
1.0011186
1.0010665
1.000842
1.000572
1.0003942
1.0003278
1.0003819
1.0005209
1.0005588
1.0004803
1.0003051
1.0000021
0.99956541
0.99907038
0.99865411
0.99823325
0.99788639
0.9976039
0.99746301
0.99736556
0.9972782
0.99726062
0.99726619
0.9972579
0.99722746
0.99718453
0.99711827
0.99698373
0.99681577
0.99665213
0.9964963
0.9963213
0.99617739
0.99605716
0.99594576
0.99587729
0.99586566
0.99580339
0.99583527
0.99587179
0.99592568
0.99599776
0.99613756
0.99628382
0.9964464
0.99665858
0.99681351
0.99716753
0.99740044
1.0021204
1.0015586
1.0009326
1.0006772
1.0007467
1.0009819
1.0011147
1.0010975
1.0008775
1.0005863
1.0004032
1.0003466
1.0003801
1.0004778
1.0005629
1.0004741
1.0002826
0.99998298
0.9996076
0.99911027
0.99863896
0.998284
0.99793861
0.99763872
0.99742867
0.99732981
0.99730217
0.99725207
0.99721674
0.99719038
0.99714809
0.9971168
0.99709212
0.99700477
0.99686819
0.99670255
0.99653483
0.99635123
0.99619901
0.99606704
0.99597042
0.99587479
0.99582877
0.99581178
0.99582515
0.99579414
0.99586778
0.99598885
0.99609789
0.99620829
0.99642525
0.99651664
0.99683849
0.99697759
0.99736883
1.0021143
1.0015502
1.0009277
1.0006549
1.0007419
1.0009744
1.0011298
1.0011143
1.0009271
1.0006347
1.0004059
1.0003335
1.0003898
1.0004661
1.0005401
1.0004895
1.0003056
0.99998104
0.99958545
0.99917109
0.99867119
0.99825795
0.99796251
0.99767188
0.99746641
0.99733549
0.99728155
0.99725375
0.99724902
0.99723776
0.99717897
0.99711815
0.99706288
0.99697122
0.99685387
0.9967139
0.99655907
0.99637961
0.99622692
0.99608438
0.99597465
0.99588343
0.99582638
0.9958132
0.99575961
0.99579394
0.99586325
0.99589272
0.9960421
0.99618001
0.99629586
0.99651121
0.99674197
0.99681869
0.99719757
1.0021051
1.0015407
1.000917
1.0006414
1.000733
1.0009668
1.0011533
1.0011391
1.0009549
1.0006834
1.0004485
1.0003293
1.0003643
1.0004816
1.0005173
1.0004856
1.0003412
1.0000574
0.99963325
0.99917151
0.99874862
0.99829482
0.99793934
0.99765527
0.99747295
0.99734272
0.99725612
0.9972306
0.99721661
0.99722022
0.99720172
0.99717336
0.99712804
0.99702679
0.99689479
0.99674799
0.99659719
0.99642376
0.9962571
0.99611448
0.99599481
0.99588299
0.9958422
0.99576096
0.99577661
0.99577917
0.99579112
0.99589269
0.99602441
0.99609587
0.99627816
0.99645175
0.99642332
0.9969882
0.99705942
1.0020941
1.0015258
1.000903
1.0006332
1.0007249
1.0009735
1.0011652
1.0011821
1.0009968
1.0007104
1.0004905
1.0003693
1.0003582
1.0004657
1.000529
1.0004744
1.0003248
1.0000663
0.99970537
0.99919392
0.9987456
0.99835936
0.99799178
0.99766096
0.99743495
0.99732642
0.99726472
0.99721614
0.99718935
0.99717164
0.99713799
0.99711599
0.99710371
0.99704334
0.99693756
0.99679897
0.99664393
0.99646008
0.99629518
0.99612757
0.99602199
0.99590273
0.99582354
0.99578743
0.99575205
0.9957089
0.99581473
0.99584653
0.99591075
0.99607614
0.99623416
0.99623356
0.99670181
0.99658991
0.99694673
1.0020875
1.0015112
1.0008924
1.0006223
1.0007146
1.0009759
1.0011751
1.0012181
1.0010583
1.0007561
1.0005099
1.0003909
1.000392
1.0004457
1.0005427
1.0004957
1.0003353
1.0000439
0.9996859
0.99926556
0.99875436
0.99834292
0.99803011
0.99770553
0.99747678
0.9973182
0.9972511
0.99722063
0.99721445
0.99720074
0.99715528
0.99711021
0.99707322
0.99701074
0.99692337
0.99680475
0.99666733
0.99649563
0.99632069
0.99617978
0.99602715
0.9959211
0.99583986
0.99577623
0.99571627
0.99577327
0.99576756
0.99577556
0.9959131
0.99603609
0.99607892
0.99635841
0.99633446
0.99657868
0.99691769
1.0020794
1.0014943
1.000879
1.0006129
1.0007112
1.0009793
1.0012073
1.0012458
1.0011077
1.0008295
1.0005508
1.0003909
1.0003988
1.0004683
1.0005265
1.0005133
1.000383
1.0001109
0.9997079
0.99927762
0.99883623
0.9983699
0.99800001
0.99770856
0.99749731
0.99733509
0.99723954
0.99719875
0.99717999
0.99719132
0.99717838
0.99715431
0.99712314
0.99705371
0.996956
0.99683738
0.99669908
0.99653767
0.996369
0.9962092
0.99608054
0.99593497
0.99586469
0.99574771
0.99576944
0.99570189
0.9957087
0.99582796
0.99587674
0.99589991
0.99611629
0.99617987
0.99626813
0.99669701
0.99663535
1.0020774
1.0014812
1.0008704
1.0006034
1.0007124
1.0009816
1.0012337
1.0012941
1.0011542
1.0008809
1.0006154
1.0004337
1.0003892
1.0004863
1.0005262
1.0005118
1.0003886
1.0001546
0.9997966
0.99929388
0.9988604
0.99843504
0.99805645
0.9977032
0.99745236
0.99732532
0.99723763
0.99718758
0.99715637
0.99714781
0.99712409
0.99710643
0.9971032
0.99706429
0.99698674
0.99688118
0.99674603
0.9965742
0.99640936
0.99625143
0.99610469
0.99597065
0.99585073
0.99581973
0.99570628
0.995708
0.99576155
0.99571078
0.99581383
0.99592034
0.99602553
0.99606023
0.99645281
0.9962035
0.99669931
1.0020721
1.0014646
1.000858
1.0005953
1.0007091
1.0009951
1.0012522
1.0013426
1.0012133
1.0009258
1.0006604
1.0004896
1.0004282
1.0004785
1.0005626
1.0005292
1.000388
1.000129
0.99980159
0.99936049
0.99886128
0.99843962
0.99809753
0.99775282
0.99748686
0.99730946
0.9972221
0.99718736
0.99717641
0.99717094
0.99713198
0.9970877
0.99706888
0.99703226
0.99696635
0.99688105
0.99676917
0.99661073
0.99643731
0.99629887
0.99613723
0.9959848
0.99591062
0.99575933
0.995762
0.99571252
0.9956522
0.9957614
0.99577142
0.9958827
0.99594347
0.99608002
0.99605992
0.99637485
0.99664043
1.0020756
1.0014536
1.000846
1.0005894
1.0007029
1.0010057
1.0012707
1.0013807
1.0012832
1.0010025
1.0007014
1.0005116
1.0004711
1.0004926
1.000579
1.0005615
1.0004369
1.0001728
0.99979817
0.99939146
0.99892802
0.99845559
0.99807569
0.99775755
0.99752274
0.99733201
0.99722752
0.99717969
0.9971541
0.99716144
0.99714962
0.99712087
0.99710492
0.99706642
0.99699184
0.99690172
0.99679749
0.99664878
0.99649283
0.99632235
0.99618941
0.99604037
0.9958848
0.99585852
0.99573906
0.99566586
0.99571472
0.9956587
0.9958025
0.99576963
0.99588959
0.9959918
0.99608486
0.99645119
0.99619541
1.0020737
1.0014371
1.0008341
1.0005803
1.0007058
1.0010107
1.0013075
1.0014206
1.0013332
1.0010773
1.0007708
1.0005426
1.0004737
1.0005329
1.0005733
1.000576
1.0004692
1.0002449
0.999885
0.99940804
0.9989781
0.99851695
0.99812284
0.99775587
0.99748475
0.99732741
0.99722801
0.99716137
0.99711658
0.99711541
0.99710672
0.99708921
0.99708883
0.99707091
0.99701152
0.99693348
0.99683516
0.99668945
0.99653352
0.99638102
0.99622555
0.99605724
0.99596999
0.99580971
0.99577017
0.99570202
0.99566075
0.99569276
0.99567533
0.99578631
0.99586556
0.99594681
0.99615515
0.99590341
0.99646743
1.0020839
1.0014279
1.0008273
1.0005747
1.0007063
1.001019
1.001332
1.0014718
1.0013853
1.0011275
1.0008367
1.0006113
1.0005004
1.0005525
1.0006013
1.0005945
1.0004719
1.0002366
0.99992758
0.99946693
0.99898741
0.99854616
0.99817019
0.99780991
0.99751163
0.99731605
0.99720745
0.99715886
0.99713798
0.99714121
0.99711492
0.99706933
0.99705075
0.99703644
0.99699012
0.9969264
0.99684876
0.99671807
0.99656989
0.99642057
0.99626035
0.99612511
0.99595671
0.9958812
0.99575599
0.99572498
0.99562358
0.99567739
0.99566538
0.99575806
0.99584926
0.99586495
0.99584636
0.9962028
0.99635838
1.0020861
1.0014127
1.000814
1.0005669
1.0007024
1.0010309
1.0013444
1.0015151
1.0014539
1.0011881
1.0008819
1.0006589
1.0005627
1.0005601
1.0006486
1.000631
1.0005107
1.0002535
0.99991108
0.99951599
0.99903377
0.99855229
0.99816713
0.99782211
0.99755407
0.99733236
0.9972114
0.99716605
0.99712841
0.9971339
0.99712716
0.99709301
0.9970706
0.99705687
0.99701051
0.996943
0.99686412
0.9967497
0.99661215
0.99645448
0.9963167
0.99614452
0.99602126
0.99587991
0.99582551
0.99566893
0.99571144
0.99558903
0.99571206
0.99569198
0.99574129
0.99582227
0.99597874
0.99622228
0.99584847
1.002096
1.0014027
1.0008048
1.0005591
1.0006987
1.0010368
1.0013684
1.0015474
1.0015099
1.0012696
1.0009402
1.0006882
1.0005908
1.0005971
1.0006637
1.0006607
1.0005605
1.0003336
0.99997819
0.99953252
0.99909963
0.99861858
0.99818962
0.99781854
0.99753185
0.99733663
0.99722054
0.99714533
0.99708815
0.99708588
0.99708522
0.99706642
0.99705875
0.99706179
0.99702717
0.9969674
0.99688883
0.99678425
0.99665073
0.99651092
0.99634952
0.9962028
0.99605873
0.99593851
0.99580562
0.99574651
0.99564376
0.99567535
0.99560016
0.99568165
0.995737
0.99580486
0.99600252
0.99567383
0.99623055
1.0020953
1.0013862
1.0007939
1.0005494
1.0006958
1.0010387
1.0013957
1.0015821
1.0015517
1.0013277
1.0010131
1.0007447
1.000606
1.0006404
1.0006699
1.0006844
1.0005819
1.0003586
1.0000537
0.9995875
0.99913063
0.99865708
0.99825107
0.99787346
0.99754293
0.99733495
0.99720795
0.99714737
0.99710579
0.99710041
0.99709555
0.99706062
0.99703322
0.99703101
0.99700434
0.99695816
0.99689278
0.99680495
0.99668604
0.99654401
0.99640115
0.99625111
0.99609171
0.99597844
0.99584085
0.99577493
0.99565768
0.99564184
0.99562195
0.99565975
0.99570982
0.99575735
0.99572484
0.99593782
0.99614292
1.002097
1.0013728
1.0007855
1.0005402
1.0006951
1.00104
1.0014073
1.001622
1.0016007
1.0013712
1.0010637
1.0008084
1.000662
1.0006584
1.0007141
1.0007214
1.0006106
1.0003605
1.0000462
0.99965024
0.99915867
0.99866461
0.99827098
0.99790031
0.99759946
0.99734881
0.99719993
0.99714913
0.99710531
0.99710052
0.99710919
0.99708063
0.99704659
0.99703645
0.99701125
0.99696919
0.99690103
0.99682531
0.99672024
0.99658292
0.9964533
0.99628356
0.99615133
0.99598443
0.99592931
0.9957448
0.99573356
0.99561519
0.99562575
0.99565755
0.9956047
0.9957568
0.99574876
0.99601922
0.99572844
1.0020946
1.001357
1.0007688
1.0005264
1.0006871
1.0010466
1.0014164
1.0016489
1.0016548
1.0014328
1.0011086
1.0008404
1.0007129
1.0006803
1.0007593
1.0007631
1.0006596
1.0004258
1.0000883
0.99966924
0.99922588
0.99873645
0.99828048
0.99790131
0.99759987
0.99736596
0.99721532
0.9971349
0.99707512
0.99706135
0.99707141
0.99705168
0.99703211
0.99703616
0.99702336
0.9969889
0.99692212
0.99684915
0.99675124
0.99662879
0.99648766
0.99635037
0.99616994
0.99607798
0.99590612
0.99585238
0.9957134
0.99566098
0.99561467
0.99558217
0.99569494
0.99566098
0.99578371
0.99565981
0.99596927
1.0020966
1.0013415
1.0007655
1.0005235
1.0006823
1.0010467
1.0014373
1.0016661
1.0016915
1.0014937
1.001169
1.0008801
1.0007266
1.0007213
1.00077
1.0007886
1.0007016
1.0004821
1.0001754
0.9997226
0.99927561
0.99877716
0.99834605
0.99795102
0.9975979
0.99736156
0.99721721
0.99714402
0.99708921
0.99706564
0.99707407
0.99704988
0.99702429
0.99701746
0.9970053
0.99697944
0.99692714
0.99686474
0.9967757
0.99666191
0.99653749
0.99638057
0.99625131
0.99609153
0.99598122
0.99586864
0.99577069
0.99564886
0.99564574
0.99558069
0.99567198
0.9955907
0.99569989
0.99579059
0.99581647
1.0020941
1.0013289
1.00075
1.0005023
1.0006759
1.0010416
1.0014497
1.0016921
1.0017216
1.0015286
1.0012209
1.0009357
1.0007572
1.0007516
1.0007839
1.0008177
1.00073
1.0004931
1.000194
0.99978904
0.99931043
0.99880338
0.99838507
0.99799641
0.99765325
0.99738731
0.99720729
0.99713762
0.99709406
0.99706936
0.99708413
0.99706458
0.99704002
0.99702158
0.99700143
0.99697652
0.99693221
0.99687794
0.99679845
0.99669799
0.99657066
0.99643951
0.99628982
0.99614051
0.99603479
0.99589303
0.99579514
0.99571621
0.99560518
0.99566403
0.99551854
0.99568071
0.99566719
0.99572907
0.99569012
1.002096
1.0013112
1.0007541
1.0005019
1.0006711
1.0010413
1.0014503
1.0017149
1.0017574
1.0015623
1.0012519
1.0009693
1.0008037
1.0007575
1.0008179
1.0008514
1.000758
1.0005246
1.0002113
0.99981055
0.9993582
0.99885991
0.99840216
0.99801025
0.99767805
0.99741788
0.99722511
0.9971296
0.99707109
0.9970356
0.99704598
0.99703263
0.99701601
0.99700618
0.99699741
0.99697494
0.99694062
0.99688838
0.99681427
0.99672324
0.99660771
0.99648426
0.9963207
0.99620935
0.99604011
0.99596837
0.99580494
0.99575023
0.9956451
0.99560025
0.995581
0.99565963
0.99557095
0.99559529
0.99581492
1.0020938
1.0012989
1.0007315
1.0004761
1.0006432
1.0010171
1.0014366
1.0017072
1.0017793
1.0016019
1.001283
1.0009835
1.0008056
1.0007473
1.0008034
1.0008278
1.0007553
1.0005567
1.0002651
0.99985018
0.99941355
0.99890808
0.99845563
0.99804659
0.99767535
0.99740392
0.99721423
0.99711476
0.99704287
0.99699802
0.99699964
0.99698424
0.99696367
0.99695182
0.99694815
0.9969284
0.99690683
0.99686337
0.99680812
0.99672332
0.9966258
0.99649235
0.99636809
0.99621021
0.99610793
0.99594978
0.99588021
0.99572696
0.99566886
0.99557196
0.99563869
0.99547669
0.99555315
0.99568473
0.99558943
1.0020579
1.0012527
1.0007227
1.0004275
1.0005708
1.0009251
1.0013564
1.0016492
1.0017482
1.0016009
1.0012998
1.0009823
1.0007554
1.0006762
1.0006694
1.0006832
1.0006323
1.0004597
1.0002069
0.99984298
0.99942691
0.99893091
0.9984928
0.99808371
0.99769557
0.99738813
0.99715563
0.99702372
0.99694315
0.99688797
0.99687409
0.9968574
0.9968356
0.99682385
0.9968141
0.99679662
0.99677857
0.99675325
0.99671509
0.99665166
0.99656748
0.99646599
0.99634484
0.99623201
0.99609325
0.99597101
0.99586679
0.99573883
0.99564181
0.99559239
0.99550823
0.99541795
0.99557945
0.99544184
0.99548111
1.0018798
1.0011345
1.0006443
1.0003077
1.0003908
1.0006858
1.0010948
1.0014252
1.0015674
1.0014768
1.0012227
1.0008801
1.0006031
1.0004773
1.000393
1.0002952
1.000204
1.0001306
1.0000188
0.9997684
0.99941146
0.99894408
0.99849509
0.99808212
0.99769005
0.99735014
0.99706632
0.99687812
0.99675489
0.99666221
0.99661161
0.99658535
0.99655737
0.99655307
0.99654284
0.99653205
0.99649125
0.99649107
0.99646208
0.99642331
0.99636993
0.99629155
0.99623263
0.99616074
0.99603404
0.99595224
0.99584285
0.9957745
0.99562386
0.99557226
0.99545503
0.99548822
0.9953925
0.99527629
0.99546187
1.0015765
1.0007119
1.000297
0.99999774
1.0000656
1.000359
1.0007212
1.0011242
1.0009808
1.0011411
1.0011721
1.0005039
1.0001739
1.0004575
1.0002581
0.99949786
0.9990886
0.99973483
1.0001942
1.0000584
0.99965124
0.99904375
0.99850736
0.99812372
0.99774501
0.99738266
0.99703788
0.99679222
0.99662515
0.99649917
0.99641521
0.99634521
0.99628506
0.99627009
0.99626449
0.99626025
0.99621345
0.99615165
0.99609226
0.99603386
0.99605605
0.99597082
0.99589673
0.99592792
0.99585305
0.99579389
0.99578348
0.99575861
0.99566482
0.99554896
0.99555011
0.99553895
0.99537359
0.99549925
0.99536464
0.99534481
0.99539142
0.99557608
0.9956872
0.99575186
0.99585905
0.99589111
0.99595332
0.9960888
0.99605683
0.99619119
0.99638108
0.99630442
0.99652673
0.99668255
0.99669124
0.99689538
0.99697967
0.99714627
0.99726734
0.99738538
0.99755018
0.99762639
0.99781231
0.99790438
0.99803568
0.99809448
0.99543514
0.99545272
0.99562827
0.99577558
0.99586492
0.9959479
0.99602813
0.99610828
0.99619446
0.99629843
0.99638698
0.99647478
0.9966767
0.99670464
0.99690445
0.9970366
0.99714228
0.99738005
0.99743716
0.99768422
0.99779152
0.99795064
0.99812171
0.99822776
0.99837694
0.99850584
0.99863001
0.99542031
0.99552191
0.99568838
0.99589653
0.9960197
0.99610169
0.99622078
0.99630309
0.99640667
0.99653035
0.99666824
0.9967929
0.99691286
0.9971255
0.99717508
0.99741891
0.99755588
0.9977094
0.99797165
0.99803947
0.99833619
0.9984308
0.99864794
0.99876431
0.9989408
0.99906318
0.99921559
0.99548802
0.99561537
0.99590016
0.99608051
0.99621652
0.9963808
0.99644403
0.99658565
0.99673012
0.99685106
0.99702165
0.99718073
0.99733885
0.99748904
0.99770552
0.99781362
0.99808341
0.99824208
0.99842029
0.99869081
0.99878162
0.99909374
0.9991606
0.99943955
0.99951266
0.999743
0.99987501
0.99560108
0.99590964
0.99613781
0.99637343
0.99654157
0.99663735
0.99684993
0.99695312
0.99710874
0.9973325
0.9974435
0.99769258
0.9978645
0.99800836
0.99829303
0.99843933
0.99867337
0.99889042
0.99909492
0.99929645
0.99954852
0.99968267
0.99993827
1.0000558
1.0003066
1.0004485
1.0006345
0.99591845
0.99619657
0.99645582
0.99670307
0.99693312
0.99707055
0.99724114
0.99748111
0.9976247
0.99783612
0.99809492
0.99820515
0.99852725
0.99873344
0.99889828
0.99925277
0.99936704
0.99970111
0.99987472
1.0001195
1.0003374
1.0005504
1.0007525
1.0009405
1.0011348
1.0013449
1.0015049
0.99636403
0.99652153
0.9968506
0.99711273
0.99738059
0.99764994
0.99778474
0.9980446
0.99831423
0.99846316
0.99876848
0.9990137
0.99920432
0.99955648
0.99975005
1.0000259
1.000314
1.0005139
1.0008541
1.0010191
1.0013188
1.0015
1.0017531
1.0019671
1.0021769
1.0023574
1.0025963
0.99669733
0.99695689
0.99734149
0.99772599
0.9979871
0.99828775
0.99856856
0.99874271
0.99906682
0.99936305
0.99952332
0.99992999
1.0001627
1.000407
1.0008112
1.0009383
1.0013454
1.0015521
1.0018427
1.0021697
1.002325
1.0026833
1.0028621
1.0031526
1.0033731
1.0035915
1.0038471
0.99726555
0.9976119
0.99807523
0.99851202
0.9987947
0.99911313
0.99946356
0.99967074
1.0000201
1.0003337
1.0005826
1.0009734
1.0012232
1.0015605
1.0018839
1.0021473
1.0024884
1.0027663
1.0030668
1.0033743
1.0036429
1.0039381
1.0042308
1.004472
1.0047704
1.0050008
1.0052722
0.99812486
0.99856257
0.99902987
0.99948389
0.9998377
1.0001176
1.00051
1.0008496
1.0010959
1.0015336
1.0018378
1.002127
1.0026062
1.0028065
1.0032216
1.0035505
1.0038303
1.0042705
1.0044403
1.0049125
1.0051007
1.005507
1.0057529
1.0061075
1.00634
1.0066496
1.0068819
0.9991272
0.99970581
1.0001406
1.0006374
1.0010704
1.0013417
1.0017941
1.0021676
1.0024443
1.0029489
1.0032518
1.0036171
1.0040749
1.0043524
1.0048293
1.0051077
1.0055197
1.0059014
1.0061696
1.0066556
1.0068515
1.0073247
1.00751
1.0079614
1.0081452
1.0085053
1.0086976
1.0005111
1.0009753
1.0014542
1.0020045
1.0024785
1.002843
1.0032987
1.0037399
1.0040698
1.0045184
1.0049916
1.005288
1.005763
1.0062077
1.0065619
1.00701
1.0073678
1.0077856
1.0081214
1.008559
1.0088416
1.0092994
1.0094964
1.0099281
1.0100823
1.0104554
1.0105696
1.0020512
1.0024824
1.0030137
1.0036412
1.0041599
1.0045669
1.0051006
1.00553
1.0059152
1.0064432
1.0068168
1.0072637
1.0077058
1.0081211
1.0086133
1.0089812
1.0094378
1.0097808
1.0102234
1.0105219
1.0109452
1.0112386
1.0115337
1.011824
1.0119918
1.0122596
1.0122996
1.0038085
1.0042444
1.004876
1.0055324
1.0060867
1.0066101
1.0070884
1.0075395
1.0080374
1.0084656
1.0089624
1.0093767
1.0097951
1.0102503
1.0106659
1.0111411
1.0114336
1.0119198
1.0121438
1.0124944
1.0127992
1.0129854
1.0132826
1.0133298
1.0135209
1.01356
1.0135466
1.0058905
1.0063375
1.0070417
1.0076865
1.0083065
1.008777
1.0092711
1.009795
1.0101867
1.0106868
1.0111477
1.011546
1.0119738
1.0123061
1.0127555
1.0130401
1.0133957
1.0136654
1.0138281
1.0140802
1.0140916
1.0142614
1.0142678
1.0142712
1.014251
1.0141534
1.0140198
1.008452
1.0088625
1.0094179
1.0100409
1.0105693
1.0110407
1.011536
1.0119637
1.012369
1.0127854
1.0131925
1.0134916
1.013826
1.0140978
1.0142637
1.014544
1.0146513
1.0147307
1.0148404
1.0147969
1.0147311
1.0146807
1.0145691
1.0144015
1.0143193
1.0140734
1.0139018
1.0097728
1.0109245
1.0115078
1.012196
1.0127096
1.0131446
1.0135279
1.0138977
1.014162
1.0144922
1.0146514
1.0148272
1.0150289
1.0150101
1.0150962
1.015131
1.0150438
1.0150151
1.0149408
1.0148136
1.0145828
1.0144915
1.0142002
1.0140485
1.0138775
1.0136489
1.0134972
1.012409
1.0125412
1.0133868
1.0139585
1.0144409
1.0147338
1.0149493
1.0151587
1.0152574
1.0153005
1.0153622
1.0153588
1.0153326
1.015195
1.0151504
1.0150337
1.0147941
1.0147171
1.0145134
1.0143256
1.0140952
1.0140003
1.0137
1.0135444
1.0133793
1.0131424
1.0129717
1.0154885
1.0144833
1.0152791
1.0154282
1.0156379
1.0156207
1.015619
1.0155769
1.0155129
1.015425
1.01533
1.0151937
1.0150652
1.0148349
1.0147464
1.0144777
1.0142912
1.0141689
1.0139299
1.013753
1.0135334
1.0134556
1.0131432
1.0130455
1.0128672
1.012681
1.0124543
1.0179808
1.016708
1.0162888
1.0159003
1.0157487
1.0155631
1.0154038
1.0152281
1.0150871
1.014955
1.0147635
1.0146327
1.0144209
1.0142506
1.0141049
1.0138243
1.0137272
1.0134928
1.0133813
1.0131074
1.0129836
1.0128473
1.0125625
1.0124898
1.0122651
1.0121561
1.0118689
1.0116306
1.0130135
1.013015
1.0137224
1.0141726
1.0144662
1.0145202
1.014474
1.0143788
1.014235
1.0140817
1.0139102
1.0136985
1.0136186
1.0133559
1.0132201
1.0130374
1.012875
1.0127711
1.0124659
1.0124706
1.0121732
1.0120458
1.0118261
1.0117137
1.0115603
1.0113301
1.0139861
1.0113412
1.0128539
1.013357
1.0139156
1.0140122
1.0139959
1.013879
1.0137523
1.0135905
1.0134231
1.0132377
1.0131298
1.0129359
1.0127772
1.0126227
1.0124372
1.0123399
1.0121103
1.0119547
1.0118565
1.0116715
1.0115091
1.0112989
1.0111975
1.0110514
1.0108493
1.017829
1.0150254
1.0137152
1.014468
1.0139574
1.0138027
1.0135384
1.0133516
1.0131672
1.0130175
1.0128103
1.0126804
1.0125642
1.012335
1.0122675
1.0120478
1.0119692
1.0118454
1.0115741
1.011538
1.0112861
1.0112378
1.0110113
1.0108552
1.0107283
1.0105717
1.0104262
1.0137182
1.0113976
1.0103416
1.0108606
1.0115474
1.0118885
1.0122274
1.0122877
1.0123099
1.0122162
1.0121158
1.0120844
1.0119029
1.0118193
1.0116797
1.0115375
1.0114872
1.0112983
1.0111632
1.011034
1.0108815
1.0107742
1.0105874
1.0104469
1.0102944
1.0101699
1.0100038
1.0110795
1.0104883
1.009662
1.0100412
1.0106021
1.011305
1.0115923
1.0116754
1.0116545
1.0116201
1.0115554
1.0115117
1.0113911
1.0112792
1.0112101
1.0110171
1.0110687
1.010762
1.0107745
1.0105645
1.0104635
1.0103947
1.0101277
1.0101258
1.0098751
1.0098467
1.0096325
1.0135514
1.0110583
1.0099819
1.0101958
1.0105741
1.011167
1.0112402
1.0112641
1.0111802
1.0111523
1.0111193
1.0110083
1.0109689
1.0108383
1.0107275
1.0107034
1.0105073
1.010466
1.0102606
1.0102179
1.0100985
1.0099709
1.0098455
1.0096741
1.0096196
1.0094541
1.0093532
1.0128866
1.0104204
1.0099621
1.0102778
1.0106163
1.0108258
1.0108893
1.0107821
1.0107459
1.0106746
1.0106446
1.0105152
1.0104503
1.0103671
1.0102591
1.0102942
1.0100606
1.0100621
1.0098463
1.0098162
1.0097324
1.0096024
1.0094974
1.0093407
1.0092731
1.0091644
1.0090643
1.0145508
1.0101414
1.0097035
1.0102556
1.0103577
1.0105536
1.0104541
1.0104022
1.010319
1.0102273
1.0101427
1.0100126
1.0099714
1.009867
1.0097845
1.0098134
1.0096141
1.0096379
1.0094548
1.0093941
1.0093084
1.0092134
1.0091318
1.0090249
1.0089094
1.0088616
1.0087566
1.0134288
1.0099836
1.0089522
1.0096014
1.0095364
1.0099621
1.0098005
1.0099513
1.0097956
1.009776
1.0096339
1.009561
1.0095251
1.0093733
1.0094201
1.0092526
1.0092935
1.0091448
1.0090906
1.0090076
1.0088831
1.0088876
1.0087227
1.0087605
1.0085611
1.0086094
1.0084656
1.0086534
1.008151
1.0076992
1.0079079
1.0082795
1.0087492
1.0090556
1.0092586
1.009288
1.0092847
1.0091605
1.0091594
1.0090647
1.0090194
1.0090288
1.0088608
1.0089421
1.0087116
1.0087903
1.0086166
1.0085892
1.0085502
1.0084007
1.0084875
1.0082866
1.0083517
1.0082183
1.0073536
1.007313
1.0068935
1.0069502
1.007233
1.0078215
1.0083874
1.0086565
1.0088106
1.0088267
1.0088104
1.0088542
1.0086957
1.0087841
1.0086365
1.0086184
1.0085991
1.0084079
1.0084957
1.0082696
1.0083455
1.0082389
1.008187
1.0081982
1.0080787
1.0081062
1.0080227
1.0082317
1.0074338
1.0068462
1.0069556
1.0071682
1.0076441
1.0080299
1.0083152
1.0084231
1.0084433
1.0085387
1.0084731
1.0084414
1.0084477
1.008286
1.0083655
1.008233
1.0082031
1.0081889
1.0080533
1.0081245
1.0079905
1.0080339
1.0079297
1.0079269
1.0078836
1.0078699
1.0095132
1.0075589
1.0071294
1.0072186
1.0074119
1.0077998
1.0080324
1.0081969
1.0081826
1.0081966
1.0082371
1.0081432
1.008191
1.0080846
1.0080641
1.0080485
1.0079702
1.0080173
1.0078978
1.0079294
1.0078304
1.0078447
1.0078035
1.0077878
1.0077679
1.0077508
1.0077418
1.0109801
1.0079591
1.0073989
1.0075608
1.007672
1.0079517
1.0080357
1.00811
1.008015
1.0080259
1.0079568
1.007912
1.0079609
1.0078451
1.0078962
1.007782
1.0077943
1.0077791
1.0077345
1.0077788
1.0076687
1.0077354
1.0076203
1.0076883
1.0076236
1.0076754
1.0076504
1.0101082
1.0078802
1.0073152
1.0074261
1.0076077
1.0078603
1.0079394
1.00795
1.0078645
1.0078859
1.0077651
1.0077647
1.0077477
1.0076814
1.0077366
1.0076297
1.0076852
1.0076283
1.0076423
1.007633
1.0075943
1.0076039
1.0075632
1.0075932
1.007581
1.00761
1.007608
1.0075279
1.0073354
1.0069509
1.0070065
1.0072013
1.0074769
1.0076588
1.0077402
1.0077379
1.0077581
1.0076467
1.0076794
1.0076248
1.0076096
1.0076242
1.0075587
1.0076003
1.0075607
1.0075827
1.0075801
1.0075592
1.0075723
1.0075626
1.0075849
1.0075961
1.0076207
1.0076319
1.0065104
1.0068753
1.0066343
1.0066131
1.006726
1.0070356
1.0073034
1.0075044
1.0075921
1.00763
1.0075912
1.0076129
1.0075875
1.0075831
1.0075669
1.007563
1.0075406
1.0075797
1.0075511
1.0076098
1.0075583
1.007606
1.0075662
1.0076291
1.0076244
1.0076745
1.0076845
1.0066055
1.0067771
1.0064543
1.0063403
1.0063506
1.0065825
1.0069502
1.0072468
1.0074414
1.0075097
1.0075378
1.0075775
1.0075551
1.007595
1.0075452
1.0075845
1.0075509
1.0076006
1.0075886
1.0076283
1.0076172
1.0076292
1.0076378
1.0076722
1.0077059
1.0077352
1.0077522
1.0069674
1.006884
1.0065059
1.0063092
1.0063224
1.0064768
1.006805
1.0071003
1.0073099
1.0074523
1.0074877
1.0075665
1.0075521
1.0075928
1.0075765
1.0076152
1.0076125
1.0076412
1.0076504
1.0076648
1.0076944
1.0076918
1.0077345
1.0077467
1.0077908
1.007808
1.0078477
1.0073188
1.0070017
1.0066655
1.0064721
1.0064872
1.0066469
1.0069333
1.0072131
1.0073706
1.0074892
1.0075331
1.0075859
1.0076074
1.0076296
1.0076459
1.007662
1.0076848
1.0076955
1.0077284
1.0077422
1.0077804
1.0078085
1.007834
1.0078645
1.0078937
1.0079308
1.0079504
1.0076563
1.0071594
1.0069105
1.0068181
1.0068593
1.0070151
1.0072162
1.0074021
1.0075063
1.0075817
1.0076225
1.0076499
1.0076738
1.0076981
1.0077209
1.0077519
1.0077556
1.0077927
1.0078056
1.0078482
1.0078797
1.0079159
1.0079492
1.0079815
1.0080132
1.0080559
1.008079
1.0082035
1.0074153
1.0072328
1.0072279
1.0073184
1.0074463
1.0075635
1.0076522
1.0076923
1.0077258
1.0077481
1.0077632
1.0077659
1.0078093
1.007802
1.0078625
1.007854
1.0079195
1.0079173
1.0079683
1.0079982
1.0080271
1.0080791
1.0080996
1.008161
1.0081865
1.0082292
1.0086789
1.007759
1.0075402
1.0075624
1.0077035
1.0077965
1.0078671
1.0078908
1.0078809
1.0079188
1.0078807
1.0079533
1.0078942
1.007966
1.0079482
1.0079768
1.0080358
1.0079946
1.0081258
1.0080434
1.0081877
1.0081408
1.0082459
1.0082619
1.0083122
1.008357
1.0083785
1.0088724
1.0080907
1.007717
1.0077271
1.0078574
1.0080243
1.0080148
1.0080951
1.0079987
1.0081008
1.0080252
1.0081134
1.0080874
1.0080912
1.0081488
1.0080847
1.0082425
1.0081317
1.008315
1.0082193
1.0083359
1.0083438
1.0083786
1.0084712
1.0084576
1.0085471
1.0085392
1.0088219
1.008346
1.0077563
1.0077519
1.0078468
1.0080686
1.0081247
1.0081698
1.0081864
1.0081415
1.0082452
1.008144
1.008306
1.0081658
1.0083252
1.0082457
1.0083249
1.0084012
1.0083081
1.0085378
1.0083433
1.0086241
1.0084721
1.0086747
1.0086253
1.0087144
1.0087143
1.0086457
1.0083823
1.0077971
1.0076536
1.0078202
1.0079671
1.0081849
1.0081888
1.0082732
1.008286
1.0082553
1.0083891
1.0082777
1.0084501
1.0083175
1.0084462
1.0084453
1.0084501
1.0085886
1.0084625
1.0086793
1.0085604
1.0087692
1.0087252
1.0088364
1.0088188
1.0088599
1.0084167
1.0083061
1.0076833
1.0075425
1.0077809
1.007934
1.0081878
1.0082471
1.0083064
1.0084262
1.008313
1.008527
1.0084202
1.0085579
1.0085483
1.0084991
1.0086922
1.0084997
1.0088106
1.0086157
1.0088078
1.0087699
1.0088087
1.0089401
1.0088987
1.0090233
1.0089738
1.0081211
1.0081201
1.0076599
1.0075213
1.0078562
1.0080284
1.008234
1.008297
1.0083192
1.0085438
1.0084542
1.0086614
1.0085103
1.0086452
1.0086851
1.0086783
1.0088668
1.0086901
1.0089368
1.0087704
1.0090208
1.0089153
1.009036
1.0090174
1.0090734
1.0091165
1.0091472
1.0080671
1.0080318
1.0077465
1.0077055
1.0078848
1.0082485
1.0082805
1.0084223
1.0084408
1.0084526
1.0087292
1.008558
1.0088161
1.0085681
1.0087821
1.0088424
1.0088533
1.0090851
1.0087905
1.0091233
1.0088875
1.0092523
1.0091127
1.0092413
1.0091473
1.0091795
1.0092431
1.0081867
1.0080857
1.00791
1.0079188
1.0081256
1.008291
1.0083997
1.0085048
1.0085252
1.0085901
1.0086168
1.0086831
1.008751
1.0087786