/*--------------------------------*- C++ -*----------------------------------*\
| =========                 |                                                 |
| \\      /  F ield         | OpenFOAM: The Open Source CFD Toolbox           |
|  \\    /   O peration     | Version:  2406                                  |
|   \\  /    A nd           | Website:  www.openfoam.com                      |
|    \\/     M anipulation  |                                                 |
\*---------------------------------------------------------------------------*/
FoamFile
{
    version     2.0;
    format      ascii;
    arch        "LSB;label=32;scalar=64";
    class       volVectorField;
    location    "18";
    object      U;
}
// * * * * * * * * * * * * * * * * * * * * * * * * * * * * * * * * * * * * * //

dimensions      [0 1 -1 0 0 0 0];

internalField   nonuniform List<vector> 
96472
(
(0.082973741 -0.00047225284 3.4370972e-23)
(0.084001304 0.001336497 4.0211609e-22)
(0.087099429 0.0023166428 -1.4833337e-22)
(0.086178296 0.0030984045 -4.1443817e-22)
(0.085200793 0.0037824521 1.2550242e-21)
(0.08397625 0.0041855176 1.2179236e-22)
(0.082469537 0.0045985716 -8.8105835e-23)
(0.080889182 0.0049532313 1.1320952e-21)
(0.07951971 0.0053578814 1.0004101e-21)
(0.078419648 0.0057924267 2.3741011e-22)
(0.077536125 0.0062369222 1.0817716e-22)
(0.076923355 0.0067357331 -1.9034847e-22)
(0.076713248 0.0072276303 1.6872282e-22)
(0.076852597 0.0076171463 8.5531437e-22)
(0.077133484 0.0080149888 3.1178393e-24)
(0.077583253 0.0083986223 -6.0412595e-24)
(0.077990432 0.0086532392 1.5135881e-22)
(0.078240589 0.0088254856 1.1926849e-22)
(0.078372114 0.0089318209 -5.8591116e-22)
(0.078511928 0.0089252425 8.2123134e-22)
(0.078514063 0.0086940762 -1.2653809e-21)
(0.078271346 0.0085327546 1.072281e-21)
(0.078102497 0.0083230456 1.6077183e-21)
(0.07797063 0.0080816128 2.5241967e-21)
(0.077624143 0.007786025 5.5515492e-22)
(0.077252584 0.0076784657 -7.9815512e-23)
(0.076801211 0.0075548782 8.0905171e-23)
(0.076424533 0.0075339188 -4.2972461e-22)
(0.076049337 0.0072947058 -7.843611e-22)
(0.075581302 0.0071638617 -2.2215028e-22)
(0.075314115 0.0066877858 7.4177489e-23)
(0.074864613 0.0062081072 -4.6902995e-23)
(0.07457027 0.0055381901 -1.9638636e-21)
(0.07429685 0.0047089877 -1.663872e-21)
(0.074307597 0.0035604494 0)
(0.074094696 0.0022588941 6.6141887e-22)
(0.074381922 0.00067171437 -5.2091835e-22)
(0.074106815 -0.00098499193 9.1209299e-22)
(0.074524238 -0.0028712728 -1.4269479e-21)
(0.074037907 -0.0047164471 -6.6719351e-22)
(0.074437986 -0.0067953341 1.0003585e-22)
(0.074013302 -0.0088975536 5.9044874e-22)
(0.074350975 -0.011126324 -2.018852e-22)
(0.073938362 -0.013309751 -1.6016683e-22)
(0.07433709 -0.015517009 1.4276214e-22)
(0.074287642 -0.018201703 -1.7191098e-21)
(0.074649529 -0.020107374 -2.0284061e-21)
(0.074793794 -0.022718615 -5.5290441e-22)
(0.07554869 -0.024791178 1.1028434e-22)
(0.075602983 -0.027384106 1.2051348e-21)
(0.07636385 -0.029171776 -3.7128824e-21)
(0.076541658 -0.031656966 -2.9023566e-21)
(0.077311876 -0.033566896 6.1505429e-21)
(0.077773092 -0.03572493 8.7575747e-21)
(0.078340014 -0.038492899 8.6514333e-22)
(0.083287977 -0.00038699095 1.0734531e-22)
(0.083947145 0.001424114 8.6033035e-23)
(0.087335928 0.0023092503 0)
(0.086314843 0.0030226808 -7.4311048e-22)
(0.085252412 0.0036723723 -4.1408347e-22)
(0.084058483 0.0040696544 1.2557741e-23)
(0.082595084 0.0044768139 5.5216895e-24)
(0.081054286 0.0047998172 -6.3125703e-22)
(0.079676861 0.00515779 1.5823154e-21)
(0.078552999 0.0055964658 0)
(0.077677458 0.0060402094 3.0789057e-24)
(0.077082895 0.0064659034 1.000542e-21)
(0.076842709 0.0069174442 -2.1170507e-22)
(0.076930091 0.0073876863 -3.1164095e-23)
(0.077252562 0.0077381909 3.9239619e-24)
(0.077691144 0.0081119716 -6.1470997e-22)
(0.078102055 0.0084468547 -8.1748109e-23)
(0.078391416 0.0086484612 -7.6258925e-23)
(0.078574735 0.0086643241 4.6766693e-22)
(0.078687526 0.0086013747 0)
(0.078692751 0.0084802374 -2.8066403e-22)
(0.078554107 0.0081724112 -4.5626179e-22)
(0.078369355 0.0079238671 2.1703668e-22)
(0.078204864 0.0076962752 -1.7734983e-23)
(0.077970559 0.0074976659 -3.0235806e-22)
(0.077648154 0.0073075276 1.3710396e-22)
(0.077317266 0.0071200723 1.9505921e-22)
(0.077004275 0.0070339018 -5.4436425e-22)
(0.07665341 0.0069003161 -9.7931402e-23)
(0.076267272 0.0068159323 -1.1141612e-22)
(0.075946164 0.0064933625 3.8310979e-22)
(0.075520798 0.0060298991 6.0771592e-22)
(0.075228687 0.0053472785 -1.101728e-21)
(0.074895952 0.0045313705 -1.7915936e-22)
(0.074838001 0.0035156295 -5.2059311e-22)
(0.074564742 0.0023949981 3.3105578e-22)
(0.074579307 0.0010635329 3.9643574e-22)
(0.074416513 -0.00045577482 -2.8135639e-23)
(0.074643277 -0.0020916834 -2.4988096e-22)
(0.074530389 -0.0039351591 3.161251e-22)
(0.074959358 -0.0057933617 2.1228002e-22)
(0.074870356 -0.0078309739 -9.7581349e-25)
(0.075346053 -0.0098110526 9.5536667e-24)
(0.075310075 -0.011992099 -1.5451377e-22)
(0.075811783 -0.014058052 1.564411e-21)
(0.075828478 -0.01624502 5.1119658e-22)
(0.0763513 -0.018442103 -2.424587e-21)
(0.076337969 -0.020627662 8.3691691e-23)
(0.076844746 -0.022725496 -9.9784147e-23)
(0.077086783 -0.0248354 -7.259476e-22)
(0.077412411 -0.026967708 1.8953329e-21)
(0.078003052 -0.028830394 -2.7803708e-22)
(0.078010236 -0.031099346 -2.0688984e-21)
(0.078963989 -0.032510737 -5.646459e-22)
(0.078886732 -0.035278363 9.021478e-22)
(0.083570122 -0.00016879469 -3.200059e-25)
(0.084148173 0.0014844845 0)
(0.087462713 0.002191024 -7.2304926e-22)
(0.086454694 0.0028762735 0)
(0.085431521 0.0035256486 1.1229356e-23)
(0.084259844 0.0039490027 -3.5016709e-25)
(0.082768083 0.0043234163 -7.2981447e-24)
(0.081169848 0.0046610971 -2.3207473e-24)
(0.079732991 0.004966151 -1.0501e-21)
(0.078569473 0.0053455763 -7.9133129e-22)
(0.0776888 0.0058160764 1.3167904e-23)
(0.077106871 0.0062709296 -7.3808769e-22)
(0.076855907 0.0066638166 -5.407048e-22)
(0.07693218 0.007100032 1.0968819e-21)
(0.077244931 0.0075187229 1.0291522e-22)
(0.077651963 0.0078385736 1.1945375e-22)
(0.078033943 0.0081454675 5.323221e-22)
(0.078329204 0.0083777551 -9.7878652e-22)
(0.078532135 0.0084481751 0)
(0.078641696 0.0083011224 2.0634755e-22)
(0.078669862 0.0081417182 -2.1554021e-23)
(0.078587484 0.0079495718 1.5400328e-23)
(0.078430059 0.0076302161 1.6888831e-22)
(0.078288118 0.0073297501 -2.0294557e-22)
(0.07807736 0.0070958896 -1.7759458e-22)
(0.077832727 0.006925528 -5.0885857e-22)
(0.077531346 0.0067077052 -3.3315997e-22)
(0.077224355 0.0065979614 -1.9216468e-22)
(0.076918688 0.0064266793 -3.2572407e-22)
(0.076599673 0.0062682704 -2.0244703e-22)
(0.076329111 0.0059561252 -1.2832419e-24)
(0.076011913 0.0055274073 -8.6405513e-22)
(0.075744743 0.0049380262 -9.4959443e-23)
(0.075506911 0.004163669 2.7751699e-22)
(0.075445 0.0031769209 -3.096127e-22)
(0.075284812 0.0020377295 2.0305619e-22)
(0.075383062 0.00072106969 7.387308e-22)
(0.075307684 -0.00074269405 2.1274167e-22)
(0.075491643 -0.0022883217 2.5833227e-23)
(0.075441237 -0.0039908631 -1.9796194e-23)
(0.075750085 -0.005734829 -3.1856891e-22)
(0.075835047 -0.0076504032 -6.5171227e-22)
(0.076253673 -0.009494078 0)
(0.076389064 -0.011527133 -3.4155966e-22)
(0.076963494 -0.01350269 -4.1763711e-22)
(0.077258046 -0.0155991 1.5118818e-21)
(0.077705157 -0.017589751 1.5053961e-22)
(0.078198747 -0.019610505 -1.8624448e-24)
(0.078413411 -0.021622315 0)
(0.079072265 -0.02344404 -1.6380159e-24)
(0.079032028 -0.025508218 -4.5699359e-22)
(0.079952907 -0.027139269 3.458075e-22)
(0.079707242 -0.029325147 7.0797048e-22)
(0.08067622 -0.030613613 -2.4063803e-21)
(0.080317271 -0.032885161 -4.3790088e-21)
(0.083875125 -7.4170711e-05 1.0842411e-22)
(0.084329589 0.0015493249 -9.2369249e-23)
(0.087544675 0.0021261941 2.911861e-24)
(0.086549795 0.0027681782 1.4798087e-23)
(0.085558061 0.0033934314 -2.6068649e-24)
(0.084398239 0.0038094222 7.3819781e-27)
(0.082883103 0.0041773519 9.135209e-24)
(0.081241774 0.004479169 1.9877666e-21)
(0.079776796 0.0047829327 3.1727548e-24)
(0.078595329 0.0051329127 -3.9058821e-22)
(0.077711131 0.0055442905 6.0551769e-25)
(0.077145337 0.0060106208 4.3604397e-25)
(0.076901797 0.006448401 -1.0473e-21)
(0.076947575 0.0068041578 2.7995265e-22)
(0.077241815 0.0072223817 9.5389025e-23)
(0.077641432 0.0075742841 -4.5444892e-25)
(0.078006837 0.0078315042 8.6886012e-23)
(0.078287983 0.0079992597 -8.1701562e-24)
(0.078508364 0.0080929695 1.7740506e-21)
(0.078657063 0.0080527718 0)
(0.078696206 0.0078040119 1.733318e-22)
(0.078650921 0.007614592 0)
(0.078564231 0.0073644012 9.8840487e-22)
(0.078468228 0.0070709893 -6.8424583e-22)
(0.078301662 0.0067436365 -1.3825966e-22)
(0.078074133 0.0065210761 1.6111596e-24)
(0.077827592 0.0063703273 -3.6982738e-24)
(0.077580095 0.0061972301 -8.5174681e-23)
(0.077310671 0.0059957419 7.4095689e-22)
(0.077037606 0.0058066023 -8.3829485e-23)
(0.076765995 0.005504303 7.1761753e-24)
(0.076500142 0.005100075 2.2895628e-22)
(0.076247351 0.0045914281 -9.2372105e-22)
(0.076110602 0.0039323612 -1.7595404e-21)
(0.076044083 0.0030975036 2.1118171e-23)
(0.076000904 0.0021046969 2.751827e-23)
(0.076028905 0.00094222449 3.5850605e-22)
(0.076104017 -0.00037008063 5.9026057e-22)
(0.07626409 -0.0018106452 -1.6565909e-22)
(0.076402264 -0.0033719664 -2.4925441e-22)
(0.076636799 -0.0050393348 -2.4913809e-22)
(0.076842776 -0.0067553541 9.9076925e-23)
(0.077099372 -0.0085780344 1.1094764e-22)
(0.077465567 -0.010428263 6.9083091e-22)
(0.077740567 -0.012370714 -6.2638662e-22)
(0.078337104 -0.01428684 -6.9194503e-23)
(0.078568133 -0.016341844 -8.830757e-22)
(0.079279145 -0.018090563 -7.6162652e-22)
(0.079389297 -0.020168234 1.7923845e-22)
(0.080340864 -0.021801535 1.2160512e-22)
(0.080315335 -0.023875497 1.2179804e-21)
(0.081349647 -0.025398262 -9.836985e-22)
(0.08116241 -0.027388278 2.072114e-21)
(0.082147624 -0.028815903 -1.4766683e-22)
(0.081918553 -0.030929893 -4.187332e-21)
(0.084103816 0.00010436411 -1.8922459e-22)
(0.084489891 0.001588422 0)
(0.087611637 0.002011492 1.1765372e-21)
(0.086616131 0.0026109958 7.7211806e-22)
(0.085651807 0.0032429767 0)
(0.084502409 0.0036394127 5.0765497e-22)
(0.082977376 0.0040247051 0)
(0.081306326 0.0042739788 0)
(0.079811721 0.0045581477 2.704261e-21)
(0.078624754 0.0049354354 -8.5037407e-22)
(0.077742253 0.0053147581 6.2036042e-24)
(0.077171134 0.0057208305 9.4777556e-22)
(0.076929809 0.0061690277 -4.6303271e-22)
(0.076965837 0.0065757722 1.2371851e-21)
(0.077228666 0.0069095034 -2.8513257e-22)
(0.077611355 0.0072926379 -2.6733582e-22)
(0.077977353 0.0075897484 -3.3002416e-22)
(0.078255636 0.007761231 -1.7769504e-21)
(0.078462397 0.0077704581 9.6518655e-23)
(0.078643323 0.0077420006 2.183236e-22)
(0.078734641 0.0075715265 4.8896822e-22)
(0.078698525 0.0072644496 -1.9368234e-22)
(0.078638122 0.0070082584 -2.122573e-22)
(0.078602163 0.0067317935 2.3638587e-22)
(0.078488174 0.0064714449 3.5208051e-22)
(0.078284378 0.0062204464 1.2169657e-22)
(0.078068643 0.0059827979 -6.2856339e-22)
(0.077861826 0.005815737 -7.8229059e-23)
(0.07762935 0.0056625479 1.5428201e-22)
(0.077417332 0.0054793837 0)
(0.077198776 0.0051901095 -9.4400326e-23)
(0.076990231 0.0047722083 4.9255213e-24)
(0.076731898 0.0042407338 -4.224801e-23)
(0.076635465 0.0035599838 -5.8745354e-22)
(0.076542299 0.0027464943 -5.196177e-22)
(0.076616003 0.0018148893 3.9397195e-22)
(0.076648389 0.00070863046 -2.0319271e-22)
(0.076855884 -0.00051397309 1.6297582e-22)
(0.07696056 -0.0018775717 -6.0166422e-23)
(0.077267329 -0.0033059825 -3.6436403e-22)
(0.077409806 -0.0048758558 2.2804765e-22)
(0.077858576 -0.0064327668 5.7781803e-23)
(0.078001214 -0.0081489274 8.3183668e-23)
(0.078533805 -0.0097495622 1.6261093e-23)
(0.078775751 -0.011649921 -2.6599885e-22)
(0.079467774 -0.013272498 -9.41018e-23)
(0.079604059 -0.015192336 6.7385698e-22)
(0.080430114 -0.016834603 -2.1342935e-21)
(0.080489385 -0.018765528 4.1113891e-23)
(0.081395638 -0.020240534 -7.5745837e-22)
(0.081451322 -0.022229067 6.3538977e-23)
(0.082416153 -0.023537775 -1.6030618e-21)
(0.082474439 -0.025703285 -1.1484794e-22)
(0.08343325 -0.026813268 -2.0113901e-21)
(0.083156019 -0.028873642 -7.0315998e-22)
(0.084472705 0.00020949307 0)
(0.084698321 0.0015974572 6.4488682e-23)
(0.087663946 0.0019022264 -6.8632426e-22)
(0.086669696 0.0024667832 -1.3651561e-23)
(0.085728613 0.0030880261 5.653715e-24)
(0.084584842 0.0034796595 1.4516587e-22)
(0.083051837 0.0038489342 0)
(0.081363354 0.004096536 1.4852084e-21)
(0.07984079 0.0043278608 -2.4265171e-21)
(0.078643837 0.004681726 -5.4269314e-24)
(0.077772289 0.0051035096 -3.9583777e-23)
(0.077203781 0.0054926889 -2.7014543e-22)
(0.076941802 0.0058612227 -2.2084111e-22)
(0.076966991 0.006290019 9.7197204e-22)
(0.077212132 0.0066347571 -2.5486835e-24)
(0.077564799 0.0069561454 9.1081016e-22)
(0.077923317 0.0072684311 5.0955833e-22)
(0.078221098 0.0074949623 -3.2565852e-22)
(0.078444347 0.0075420513 1.6069219e-22)
(0.078619629 0.0073881776 1.1929541e-22)
(0.078755256 0.007273543 -2.1972375e-23)
(0.078777177 0.0070308579 -1.732772e-22)
(0.078737827 0.0066936443 5.4076017e-22)
(0.078716531 0.0063786107 -1.8514112e-23)
(0.078647963 0.0061094456 -1.8320949e-22)
(0.078509068 0.0058703645 1.6067238e-22)
(0.07831798 0.0056197122 -6.5681804e-22)
(0.078122166 0.0054151119 -2.2722238e-22)
(0.077924055 0.0052314532 3.4110171e-22)
(0.077748488 0.0050181763 4.427656e-22)
(0.077570374 0.0047851612 5.4162427e-22)
(0.077419938 0.004455062 -9.6096424e-24)
(0.077211615 0.0040219136 9.1755483e-24)
(0.077149405 0.0034297457 -3.085765e-23)
(0.077073244 0.0026986205 -6.126649e-22)
(0.077172224 0.0018502167 1.3680369e-22)
(0.077202789 0.00085683251 5.9782961e-22)
(0.077494901 -0.00024368198 -6.6713115e-22)
(0.077628301 -0.0015106982 5.1661469e-22)
(0.078018825 -0.002811933 -2.545055e-22)
(0.078177807 -0.0042958213 -4.2332436e-22)
(0.078668716 -0.0057273449 0)
(0.07884311 -0.0073409459 5.111253e-23)
(0.079474186 -0.0089226118 -8.9872678e-24)
(0.079642766 -0.010631012 3.9131572e-22)
(0.080409281 -0.012216528 -1.6876306e-22)
(0.080632537 -0.014066064 7.8202136e-22)
(0.081374798 -0.015476084 7.135372e-22)
(0.081470128 -0.017338932 2.4528152e-22)
(0.082405672 -0.01875584 0)
(0.082443761 -0.020537458 2.6549041e-21)
(0.083530158 -0.021977175 4.2181069e-22)
(0.083458475 -0.023777743 1.4776133e-22)
(0.08437415 -0.024809983 -2.45263e-22)
(0.08438143 -0.026839918 -9.558668e-21)
(0.084875573 0.00036366537 0)
(0.08492902 0.0016007766 2.5792864e-22)
(0.08771271 0.001761955 1.4406962e-25)
(0.086710593 0.0023094589 1.2820256e-23)
(0.08578584 0.0029076436 7.1982611e-24)
(0.084650655 0.0033062174 -8.3580824e-26)
(0.083115409 0.0036398752 1.4163343e-24)
(0.081415473 0.0038990778 1.1741197e-24)
(0.079876347 0.0041185484 1.080663e-23)
(0.078659233 0.0044247436 -2.1218293e-23)
(0.077784026 0.0048378965 -1.3958708e-23)
(0.0772275 0.0052599109 -2.0030242e-21)
(0.0769565 0.0056234248 -2.0819947e-22)
(0.07695314 0.0059580072 1.3952557e-21)
(0.077187886 0.0063570639 8.2953002e-25)
(0.077526872 0.0066470891 7.4457798e-24)
(0.077865513 0.0069048249 -5.2883594e-22)
(0.078159535 0.0070839683 -1.9667221e-21)
(0.078419244 0.0071924638 -7.5241454e-23)
(0.078620265 0.007114608 5.7273571e-22)
(0.078752966 0.006888207 1.8905969e-24)
(0.0788232 0.0067165838 -1.3574984e-21)
(0.078839097 0.0064532464 -2.1639653e-22)
(0.078849129 0.0061212734 -4.3169804e-22)
(0.078804905 0.0057907572 3.4067516e-22)
(0.078693182 0.0055261619 -3.1715103e-22)
(0.078556333 0.0053222097 -5.4084198e-23)
(0.078405194 0.0050861674 1.8282219e-22)
(0.078238053 0.0048918965 -6.556372e-23)
(0.078089829 0.0046495922 -2.168559e-22)
(0.077942519 0.0043682094 4.0204884e-23)
(0.077812845 0.0040209236 2.6497202e-22)
(0.07763364 0.0036084937 -1.0395787e-23)
(0.077598689 0.0030767818 1.3443772e-23)
(0.077555171 0.0024194239 -6.6245646e-22)
(0.077684083 0.0016360681 -1.0440794e-21)
(0.077764415 0.00069521998 9.9546202e-23)
(0.078077735 -0.00033214346 -2.0805037e-22)
(0.078245379 -0.0015029363 3.7815318e-22)
(0.078681481 -0.0026883043 5.0347757e-25)
(0.078881941 -0.0040517299 -2.1994288e-22)
(0.079423284 -0.0053439254 -2.4675963e-22)
(0.079651705 -0.0068870625 2.3881893e-22)
(0.080263385 -0.0082029783 -8.3838398e-23)
(0.080556529 -0.0098916797 1.207453e-22)
(0.081320706 -0.011316083 6.1253394e-23)
(0.08150049 -0.012934473 -2.982788e-24)
(0.082342239 -0.014343908 -9.9732502e-22)
(0.082508098 -0.0160791 5.3985399e-22)
(0.083301525 -0.01729093 2.0690318e-24)
(0.083523209 -0.019094113 -2.6413493e-21)
(0.084442947 -0.020309396 2.3165851e-21)
(0.084496677 -0.021865537 5.1615474e-21)
(0.085478091 -0.023280211 7.4334787e-21)
(0.085424821 -0.02483781 3.8035807e-22)
(0.085739863 0.00043047979 -1.0918046e-22)
(0.085112376 0.0015780979 5.8063137e-22)
(0.087755665 0.0015861556 1.1396136e-21)
(0.086729239 0.0021322158 3.3677198e-22)
(0.085817887 0.0027231988 1.6162663e-22)
(0.084696272 0.0031146386 -1.0965215e-21)
(0.083165661 0.0034560099 1.1398821e-21)
(0.081456963 0.0036732114 -2.9381652e-21)
(0.079906881 0.003900274 2.1706588e-23)
(0.078679522 0.0042149167 1.0428753e-21)
(0.077794792 0.0045629083 -1.049512e-21)
(0.077234581 0.0049526963 -2.3060366e-21)
(0.076964433 0.0053589185 1.2953012e-21)
(0.076936592 0.0056757095 6.1488215e-23)
(0.077145134 0.0060129733 8.1945484e-23)
(0.077481631 0.006353826 -1.192844e-22)
(0.077822464 0.0066150156 0)
(0.078111706 0.0067609405 -2.7360099e-22)
(0.078363274 0.0067923573 -4.3877107e-22)
(0.078607112 0.0068112263 1.079975e-22)
(0.078779138 0.0066178495 1.5474113e-24)
(0.078850842 0.0063535482 -2.1380516e-22)
(0.07890713 0.0061125543 -2.2837534e-22)
(0.078970333 0.0058413466 -1.2893918e-21)
(0.078968339 0.0055551397 1.8060307e-22)
(0.07888076 0.0052442816 -9.6885863e-23)
(0.078767909 0.0049888629 -3.7190536e-22)
(0.078643699 0.0047691171 -1.6599998e-22)
(0.078508542 0.0045774627 -2.7177668e-22)
(0.078399346 0.0043628589 1.3449395e-23)
(0.078294261 0.0041096992 -7.2805668e-24)
(0.078190851 0.0037775938 -7.0049341e-23)
(0.078031442 0.0033631078 -1.619085e-22)
(0.077997149 0.0028549514 -9.6580756e-24)
(0.077984509 0.0022617877 1.6270618e-22)
(0.078127237 0.0015756241 -1.4744205e-23)
(0.078238702 0.00074982676 4.8728642e-22)
(0.078582057 -0.00014726598 -5.1356283e-22)
(0.078807636 -0.0012230723 3.1732129e-22)
(0.079262846 -0.0022918003 7.3482447e-22)
(0.079518465 -0.0035574576 -5.2720441e-22)
(0.080080859 -0.0047670078 -3.3126368e-22)
(0.080346144 -0.0061512744 3.1068792e-22)
(0.081016147 -0.0074773152 7.5770849e-23)
(0.081321884 -0.0089942317 -1.4156585e-22)
(0.082039644 -0.010253379 -1.8838664e-22)
(0.082383878 -0.011930595 3.2634879e-22)
(0.083150307 -0.013141485 4.5552208e-22)
(0.08330401 -0.014679358 -1.7812469e-21)
(0.084203455 -0.015963976 1.2374606e-22)
(0.084380618 -0.017600184 -8.9865164e-22)
(0.085247709 -0.018572104 -2.2954043e-21)
(0.085560302 -0.02054445 4.0539174e-22)
(0.086366936 -0.0212549 9.0076077e-22)
(0.086274102 -0.022918158 7.760902e-22)
(0.086209144 0.00048655836 -1.095139e-22)
(0.085201421 0.0015048718 -6.2212579e-22)
(0.08779372 0.0014437423 -1.1038873e-21)
(0.086747519 0.0019776124 -9.0626278e-22)
(0.085845167 0.0025495218 1.1590922e-23)
(0.084732194 0.0029112742 4.5593397e-23)
(0.083212248 0.0032683845 2.0376179e-24)
(0.081500375 0.0034555887 -2.5145846e-23)
(0.079929053 0.0036471689 -3.6646278e-21)
(0.078694232 0.0039775162 1.8567862e-21)
(0.077810228 0.004341127 -2.746329e-21)
(0.077237167 0.0046747909 -4.4659183e-23)
(0.0769528 0.0050308711 -3.34712e-23)
(0.076918593 0.0054094539 -1.1399861e-21)
(0.077101252 0.0056748721 -7.3233943e-22)
(0.077414387 0.006003198 0)
(0.077758804 0.0062956963 0)
(0.078069878 0.0064995569 0)
(0.078327381 0.0065268433 -3.8021124e-22)
(0.078569895 0.0064196772 1.0857239e-21)
(0.078791656 0.0063415232 9.6115723e-22)
(0.078909906 0.0060962862 -5.4653573e-22)
(0.078969595 0.0057813161 4.4403596e-22)
(0.079052597 0.0054996947 -2.0475207e-23)
(0.079104515 0.0052131309 -1.3009895e-21)
(0.079068285 0.004954513 2.9992995e-22)
(0.078978586 0.0046826966 -4.5381517e-23)
(0.078877657 0.0044366987 6.3550957e-23)
(0.078762898 0.0042098114 -3.2151725e-22)
(0.078669725 0.0039975733 -8.6386658e-22)
(0.078604882 0.003770556 2.315285e-22)
(0.078549405 0.0034840662 -7.2618918e-22)
(0.078434552 0.0031204769 3.4160185e-22)
(0.078414727 0.0026526785 -1.1653218e-22)
(0.07841047 0.0020871168 2.5289749e-22)
(0.078556519 0.0014423469 1.0215951e-22)
(0.078696758 0.00066535839 -3.5308382e-22)
(0.079049919 -0.00017752227 4.7198779e-22)
(0.079308308 -0.0011538133 -8.129082e-22)
(0.079788616 -0.0021498703 7.1894459e-22)
(0.080105804 -0.0032802919 2.7303858e-22)
(0.080668665 -0.0043818352 2.590119e-22)
(0.081021646 -0.005688197 -1.9107083e-23)
(0.081654508 -0.0068309442 -1.1710564e-22)
(0.082010861 -0.0082169499 -1.495035e-25)
(0.082817314 -0.0094884655 1.0246779e-22)
(0.083090636 -0.010884113 -7.2755421e-22)
(0.083859279 -0.011991913 2.5552732e-23)
(0.08419202 -0.013543029 5.7580931e-22)
(0.084984586 -0.014652253 -1.0379828e-21)
(0.085165386 -0.016062181 -7.475091e-22)
(0.086223462 -0.017312763 -2.3911153e-21)
(0.086262347 -0.018655366 -9.5038309e-22)
(0.087098201 -0.019515041 5.4254053e-21)
(0.087371735 -0.0212437 -3.2392961e-21)
(0.086943887 0.00058393042 -2.6403452e-22)
(0.085218491 0.0013172875 -6.6078677e-22)
(0.087810941 0.0012261745 1.0756905e-21)
(0.086753129 0.0017780607 -4.7062046e-22)
(0.085867396 0.0023469111 4.1648533e-22)
(0.084768222 0.0027124204 8.5983529e-22)
(0.083256333 0.0030453733 -5.6630678e-24)
(0.08154426 0.0032543416 -2.7190258e-21)
(0.07995462 0.0034050394 3.1142684e-21)
(0.078698758 0.00369721 1.2900945e-23)
(0.077815692 0.0040954736 1.6465667e-21)
(0.077247823 0.004446245 -7.5343295e-22)
(0.076939622 0.0047431741 -6.741448e-22)
(0.076885325 0.0050686164 -8.6749192e-22)
(0.077055972 0.0053838818 -3.5978245e-22)
(0.077347872 0.0056430698 -6.5684545e-22)
(0.077681811 0.005895092 -7.4464565e-22)
(0.078002906 0.0060881036 -1.1615098e-21)
(0.078302658 0.0062008874 -8.6346501e-22)
(0.078557218 0.0061041249 -2.2044114e-22)
(0.078776388 0.005950545 0)
(0.078945046 0.0057994743 2.4290227e-22)
(0.079052133 0.00555036 9.7945339e-23)
(0.079160029 0.0052202926 -2.6687548e-22)
(0.079224208 0.0049013673 -1.4869729e-23)
(0.079217302 0.0046392571 -3.6339437e-22)
(0.079170965 0.0043910723 9.2904275e-23)
(0.079098228 0.0041466042 3.2381376e-22)
(0.079008861 0.0039288345 -1.2840147e-22)
(0.078929487 0.0036764484 -4.0163312e-22)
(0.078881653 0.0034201947 1.5230688e-23)
(0.078845132 0.0031304689 -5.8269876e-22)
(0.078762605 0.0028031573 1.49771e-22)
(0.078765736 0.0024086825 -1.1496357e-21)
(0.078792652 0.0019302602 2.6614197e-22)
(0.078947119 0.0013734908 1.4887845e-21)
(0.079107045 0.00069543491 5.6502543e-22)
(0.079465139 -5.5758043e-05 2.4917145e-22)
(0.079772182 -0.0009501936 -5.9427412e-22)
(0.080247618 -0.0018366204 -4.069362e-22)
(0.080598907 -0.0028808824 4.7246686e-22)
(0.081208083 -0.0038819025 -2.9401431e-23)
(0.081563784 -0.0050644587 -3.8979762e-22)
(0.082244988 -0.0061223239 8.3028754e-23)
(0.082680029 -0.0074787403 -3.0918195e-23)
(0.083377615 -0.0085201289 4.2444614e-22)
(0.08376877 -0.0098685454 2.6928867e-22)
(0.084557486 -0.010987031 -2.0097285e-22)
(0.084848488 -0.012356252 2.9789956e-22)
(0.085646439 -0.013263233 1.5626814e-21)
(0.08599234 -0.014795197 -4.1232461e-22)
(0.086773047 -0.015703831 -7.9250297e-22)
(0.087070777 -0.017056866 7.4220577e-22)
(0.088009404 -0.018218463 2.6252895e-21)
(0.088045153 -0.019300307 -3.2745917e-22)
(0.086747142 0.00049427876 -2.2013985e-22)
(0.085283048 0.0012544099 1.5311025e-21)
(0.087836011 0.0010941464 1.1346473e-21)
(0.086760649 0.00163612 4.495543e-22)
(0.08588497 0.00215298 1.5409634e-23)
(0.08479974 0.0025185545 3.1894499e-23)
(0.083294873 0.0028266094 -6.1697882e-23)
(0.081581888 0.0030279044 -3.5742647e-21)
(0.079981821 0.0031933737 6.7319865e-21)
(0.078704723 0.0034562475 1.4618908e-21)
(0.077807181 0.0037995557 3.6173446e-21)
(0.077243043 0.0041622182 -1.603217e-21)
(0.076932358 0.0044937544 -6.5066753e-22)
(0.076847849 0.0047385056 6.4398992e-23)
(0.076999136 0.0050690532 3.2307884e-21)
(0.07728866 0.0053321235 -1.1429897e-22)
(0.077616264 0.0055553622 -2.4532832e-25)
(0.077929446 0.0056872055 -1.1483671e-22)
(0.078235141 0.0057479205 -1.1681647e-21)
(0.078535899 0.005784221 -8.9234971e-23)
(0.078779195 0.0056149549 -7.843899e-23)
(0.078948748 0.0054193502 2.3071205e-22)
(0.079098625 0.0052039786 1.326136e-21)
(0.079253811 0.0049548973 -2.3183787e-22)
(0.079350834 0.0046929187 -3.3469481e-22)
(0.079365387 0.0043719746 0)
(0.079333475 0.0041174483 1.4045486e-22)
(0.079283861 0.0038849297 8.1286856e-23)
(0.079228601 0.0036757421 -1.5389998e-22)
(0.079188956 0.0034348946 2.0820594e-25)
(0.079174219 0.0031972583 1.9579545e-22)
(0.079160117 0.0029059396 -5.2618918e-22)
(0.079097072 0.0025640833 4.9205089e-22)
(0.079107131 0.0021724665 -4.8539566e-22)
(0.079148024 0.0017182479 -8.1014949e-22)
(0.079305863 0.0012064588 8.3744271e-25)
(0.079489723 0.00059605633 4.342701e-22)
(0.079856065 -7.7301907e-05 9.2887398e-22)
(0.08017408 -0.0008793336 -2.2222021e-22)
(0.080667525 -0.0016749085 -4.3858746e-22)
(0.081058698 -0.0026261735 -2.5010589e-22)
(0.081654703 -0.003515252 4.0069076e-22)
(0.082090203 -0.0046018122 0)
(0.082759989 -0.0055842833 -4.1489838e-23)
(0.083194347 -0.0067237246 2.2343297e-22)
(0.08396163 -0.0077366363 9.5839242e-23)
(0.08438828 -0.0090244423 8.3656327e-23)
(0.085144917 -0.0099253239 -1.4368527e-22)
(0.085454879 -0.011168049 -4.3894786e-22)
(0.086293849 -0.012133256 1.600821e-21)
(0.086643133 -0.013471184 1.2200804e-21)
(0.087490864 -0.014253523 -2.1307941e-21)
(0.087850589 -0.015868062 0)
(0.088483117 -0.01619919 -1.7530531e-21)
(0.088731568 -0.017781128 4.047584e-21)
(0.087161696 0.00065684889 4.7786461e-22)
(0.08528229 0.0010193614 6.9928421e-23)
(0.087836667 0.00084940997 -2.8942164e-21)
(0.086749402 0.0014088635 -3.6193818e-22)
(0.085898707 0.0019371305 -1.0472484e-23)
(0.084831686 0.0022974686 -3.1159085e-21)
(0.083336618 0.0026226786 -1.7961904e-21)
(0.081618077 0.0027816683 3.2369479e-21)
(0.080003758 0.0029417439 1.6176011e-24)
(0.078715879 0.0032319649 3.7098511e-21)
(0.077809163 0.0035463243 -1.2930128e-21)
(0.077228123 0.0038474558 9.7681198e-25)
(0.076911926 0.0041729454 1.4210569e-21)
(0.076810209 0.0044622745 3.7373054e-22)
(0.076932479 0.0046941529 5.4343016e-21)
(0.077213322 0.0049914996 8.4136034e-22)
(0.077550763 0.0052473278 6.7491344e-22)
(0.077883016 0.005413704 7.1393849e-23)
(0.078183551 0.0054304758 -1.0036443e-22)
(0.078490856 0.0053938464 -1.7381504e-21)
(0.078780553 0.0053425155 2.044026e-23)
(0.078982281 0.0051292747 5.4679323e-22)
(0.07913467 0.0048676991 -1.8914788e-25)
(0.07930332 0.0046298868 -7.4812621e-22)
(0.079451165 0.0043878971 0)
(0.079509746 0.0041280891 8.8520946e-23)
(0.079495463 0.0038653799 -5.5540594e-24)
(0.079464374 0.0036017669 7.2393688e-23)
(0.079427046 0.0033584112 -8.8236869e-23)
(0.079400874 0.0031273166 -1.9965733e-22)
(0.079419895 0.0029271025 -2.2807408e-22)
(0.079441082 0.0026867628 2.4150152e-22)
(0.079412177 0.0023902915 -1.8708251e-22)
(0.079436217 0.002037997 1.7025308e-22)
(0.079491028 0.0016214432 1.8145434e-22)
(0.079641888 0.0011588972 1.4400368e-22)
(0.079824067 0.00060679784 -3.678457e-22)
(0.080186878 1.3159411e-05 3.703904e-23)
(0.080541291 -0.00069471897 4.3634203e-22)
(0.081025412 -0.001418921 -1.8194067e-22)
(0.08143979 -0.0022602155 -6.0220028e-22)
(0.082065187 -0.003081266 -3.2594751e-22)
(0.082521517 -0.0040751217 -3.6928081e-23)
(0.083192172 -0.0049222717 -5.3127977e-23)
(0.083700807 -0.0060285102 -7.781954e-23)
(0.084445827 -0.0069584259 -1.0558806e-22)
(0.084886571 -0.0080443078 -2.5896996e-22)
(0.085621323 -0.0089363187 0)
(0.08605157 -0.010116779 4.2508834e-23)
(0.086843322 -0.011005533 -8.6924734e-25)
(0.087183278 -0.012132427 1.3567756e-21)
(0.088119794 -0.013028317 2.0126146e-22)
(0.088265046 -0.01401824 1.8229312e-21)
(0.08917824 -0.014959144 -4.0277233e-21)
(0.089584286 -0.016287164 -3.254748e-21)
(0.086318345 0.0005095897 1.0993503e-22)
(0.08533407 0.00097616379 6.5827693e-22)
(0.087847831 0.00074074275 -6.2656333e-23)
(0.086742533 0.0012851345 1.1100266e-23)
(0.085909229 0.0017754059 1.84723e-22)
(0.084856153 0.002105457 -1.1280105e-21)
(0.083373032 0.0024314789 3.7529957e-23)
(0.081656509 0.002579806 2.8159465e-21)
(0.080021457 0.0026838094 -4.0211609e-21)
(0.078713721 0.0029595662 -2.3714316e-21)
(0.077803844 0.0033035002 1.7791986e-21)
(0.077219273 0.0035947773 8.0642984e-22)
(0.076878617 0.0038415152 -9.9611715e-22)
(0.076766543 0.0041525485 -6.5812469e-23)
(0.076869276 0.0043618804 9.6765697e-24)
(0.077123047 0.0046154991 1.2415814e-22)
(0.077453838 0.0048498924 0)
(0.077800036 0.0050313784 1.3164765e-21)
(0.078136576 0.0051220108 1.6613984e-21)
(0.078449419 0.0050233594 1.4155717e-22)
(0.078751346 0.0049437895 -1.344437e-21)
(0.079001624 0.0048221685 2.2520013e-22)
(0.079186717 0.0046114137 3.9772752e-25)
(0.079373606 0.0043372763 -2.1252743e-22)
(0.079529221 0.0040578303 -1.9738872e-22)
(0.079616659 0.0038262646 0)
(0.079644728 0.0035793548 3.1907601e-22)
(0.079641932 0.0033293329 6.1932797e-23)
(0.079624628 0.0031110631 -9.8696585e-22)
(0.079605073 0.0028670409 -3.6597912e-22)
(0.079638394 0.0026369942 -4.7859576e-23)
(0.07968693 0.0023880053 -8.807147e-24)
(0.079689826 0.0021104832 -3.740359e-22)
(0.07973456 0.0017984268 -1.3567902e-24)
(0.079808602 0.0014344927 -2.8319455e-22)
(0.079965302 0.0010324665 -2.1579202e-22)
(0.080155412 0.00053723843 9.7063464e-22)
(0.080499869 -3.2365852e-06 -3.6635712e-23)
(0.080861848 -0.00064011501 -1.4550092e-22)
(0.081352081 -0.00125529 0)
(0.081786237 -0.0020449433 5.0375789e-22)
(0.08240734 -0.0027679357 -3.619606e-22)
(0.082899499 -0.0036320292 3.3016143e-22)
(0.083573353 -0.0044420907 -9.0803087e-23)
(0.084109072 -0.0054074357 -2.3049355e-22)
(0.084835031 -0.0061716095 1.446903e-22)
(0.085360753 -0.0072726793 -1.1565736e-23)
(0.086106376 -0.0080034461 -2.2828637e-22)
(0.086517193 -0.009167518 3.5488552e-23)
(0.087293064 -0.0098233444 6.5062097e-22)
(0.087713857 -0.010945542 3.3186494e-22)
(0.088463709 -0.011671586 6.1175321e-22)
(0.089025452 -0.012824947 2.0016651e-21)