/*--------------------------------*- C++ -*----------------------------------*\
| =========                 |                                                 |
| \\      /  F ield         | OpenFOAM: The Open Source CFD Toolbox           |
|  \\    /   O peration     | Version:  2406                                  |
|   \\  /    A nd           | Website:  www.openfoam.com                      |
|    \\/     M anipulation  |                                                 |
\*---------------------------------------------------------------------------*/
FoamFile
{
    version     2.0;
    format      ascii;
    arch        "LSB;label=32;scalar=64";
    class       volScalarField;
    location    "54640";
    object      k;
}
// * * * * * * * * * * * * * * * * * * * * * * * * * * * * * * * * * * * * * //

dimensions      [0 2 -2 0 0 0 0];

internalField   nonuniform List<scalar> 
94692
(
3.4284354e-06
2.5202669e-06
1.9462517e-06
1.5707653e-06
1.3115997e-06
1.1234234e-06
9.8099676e-07
8.696153e-07
7.8023778e-07
7.0701703e-07
6.4600447e-07
5.9443624e-07
5.5031948e-07
5.1218115e-07
4.7890916e-07
4.4964858e-07
4.2373164e-07
4.006294e-07
3.7991767e-07
3.6125243e-07
3.4435187e-07
3.2898303e-07
3.149517e-07
3.0209478e-07
2.902743e-07
2.7937282e-07
2.6928976e-07
2.599385e-07
2.5124409e-07
2.4314131e-07
2.3557322e-07
2.2848984e-07
2.2184715e-07
2.1560624e-07
2.0973261e-07
2.0419552e-07
1.9896756e-07
1.9402417e-07
1.8934331e-07
1.8490513e-07
1.8069172e-07
1.7668691e-07
1.7287602e-07
1.6924572e-07
1.657839e-07
1.6247952e-07
1.593225e-07
1.5630365e-07
1.5341455e-07
1.5064751e-07
1.4799546e-07
1.4545196e-07
1.4301109e-07
1.4066744e-07
1.3841607e-07
1.3625248e-07
1.3417258e-07
1.3217264e-07
1.3024933e-07
1.2839968e-07
1.2662105e-07
1.2491114e-07
1.23268e-07
1.2169002e-07
1.2017595e-07
1.1872486e-07
1.1733621e-07
1.1600985e-07
1.1474602e-07
1.1354537e-07
1.12409e-07
1.1133847e-07
1.103358e-07
1.0940348e-07
1.0854446e-07
1.0776214e-07
1.0706022e-07
1.0644265e-07
1.059134e-07
1.0547612e-07
1.0513374e-07
1.0488784e-07
1.0473782e-07
1.0467991e-07
1.04706e-07
1.0480247e-07
1.0494971e-07
1.0512255e-07
1.0529462e-07
1.0544701e-07
1.0559103e-07
1.058012e-07
1.0629255e-07
1.0752776e-07
1.1045632e-07
1.1719337e-07
1.300984e-07
1.5664712e-07
2.0075436e-07
3.4288783e-06
2.5209486e-06
1.9469795e-06
1.5714651e-06
1.3122495e-06
1.1240214e-06
9.8154672e-07
8.7012237e-07
7.8070749e-07
7.0745375e-07
6.4641245e-07
5.948188e-07
5.5067964e-07
5.1252134e-07
4.7923152e-07
4.4995499e-07
4.240237e-07
4.0090842e-07
3.8018496e-07
3.6150902e-07
3.4459869e-07
3.2922094e-07
3.1518144e-07
3.0231703e-07
2.9048966e-07
2.7958185e-07
2.6949295e-07
2.6013632e-07
2.5143695e-07
2.433296e-07
2.357573e-07
2.2867003e-07
2.2202378e-07
2.157796e-07
2.0990296e-07
2.0436314e-07
1.9913269e-07
1.9418706e-07
1.8950418e-07
1.850642e-07
1.8084921e-07
1.7684303e-07
1.7303096e-07
1.6939969e-07
1.659371e-07
1.6263213e-07
1.5947473e-07
1.5645568e-07
1.5356657e-07
1.5079969e-07
1.4814799e-07
1.4560502e-07
1.4316485e-07
1.4082207e-07
1.3857173e-07
1.3640932e-07
1.3433072e-07
1.3233222e-07
1.3041044e-07
1.2856239e-07
1.267854e-07
1.2507712e-07
1.2343556e-07
1.2185903e-07
1.203462e-07
1.1889606e-07
1.1750794e-07
1.1618155e-07
1.1491695e-07
1.1371462e-07
1.1257539e-07
1.1150056e-07
1.1049183e-07
1.0955132e-07
1.0868156e-07
1.0788547e-07
1.0716626e-07
1.0652733e-07
1.0597207e-07
1.0550357e-07
1.0512421e-07
1.048351e-07
1.0463524e-07
1.0452059e-07
1.0448286e-07
1.0450821e-07
1.0457652e-07
1.0466112e-07
1.0473228e-07
1.0476298e-07
1.0474958e-07
1.0473375e-07
1.0487747e-07
1.0546975e-07
1.0712716e-07
1.1099051e-07
1.1984517e-07
1.3662228e-07
1.7986037e-07
3.4293009e-06
2.5215773e-06
1.947643e-06
1.5720991e-06
1.3128361e-06
1.124559e-06
9.8203945e-07
8.7057556e-07
7.8112582e-07
7.0784186e-07
6.4677387e-07
5.951568e-07
5.5099682e-07
5.1282003e-07
4.7951367e-07
4.5022221e-07
4.2427742e-07
4.0114994e-07
3.8041527e-07
3.6172908e-07
3.4480934e-07
3.2942287e-07
3.1537529e-07
3.0250335e-07
2.9066895e-07
2.7975453e-07
2.6965941e-07
2.6029689e-07
2.5159194e-07
2.4347928e-07
2.3590189e-07
2.2880974e-07
2.2215877e-07
2.1591002e-07
2.1002895e-07
2.0448479e-07
1.9925009e-07
1.9430025e-07
1.8961321e-07
1.851691e-07
1.8094998e-07
1.7693964e-07
1.7312338e-07
1.6948786e-07
1.6602093e-07
1.6271154e-07
1.5954959e-07
1.5652585e-07
1.5363187e-07
1.5085995e-07
1.4820298e-07
1.4565449e-07
1.4320854e-07
1.4085966e-07
1.3860289e-07
1.3643368e-07
1.3434786e-07
1.3234168e-07
1.3041174e-07
1.2855497e-07
1.2676867e-07
1.2505044e-07
1.2339822e-07
1.2181028e-07
1.2028521e-07
1.1882193e-07
1.1741972e-07
1.1607821e-07
1.147974e-07
1.1357766e-07
1.124198e-07
1.11325e-07
1.1029491e-07
1.0933159e-07
1.0843751e-07
1.0761553e-07
1.0686881e-07
1.062007e-07
1.0561453e-07
1.0511331e-07
1.0469928e-07
1.0437328e-07
1.0413391e-07
1.0397637e-07
1.0389118e-07
1.0386259e-07
1.0386752e-07
1.0387488e-07
1.0384843e-07
1.0375173e-07
1.0356747e-07
1.0331859e-07
1.0313284e-07
1.0331719e-07
1.0453947e-07
1.0755128e-07
1.1430244e-07
1.2497559e-07
1.5641956e-07
3.4297005e-06
2.5221557e-06
1.9482489e-06
1.572676e-06
1.3133688e-06
1.1250468e-06
9.8248636e-07
8.7098638e-07
7.8150514e-07
7.081937e-07
6.4710167e-07
5.9546346e-07
5.5128481e-07
5.1309144e-07
4.7977028e-07
4.5046557e-07
4.2450885e-07
4.013706e-07
3.8062617e-07
3.6193111e-07
3.4500329e-07
3.2960943e-07
3.1555509e-07
3.0267695e-07
2.9083686e-07
2.7991721e-07
2.6981729e-07
2.6045036e-07
2.5174135e-07
2.4362496e-07
2.3604416e-07
2.2894889e-07
2.2229508e-07
2.1604376e-07
2.1016036e-07
2.0461412e-07
1.9937758e-07
1.9442613e-07
1.8973771e-07
1.8529244e-07
1.8107239e-07
1.7706135e-07
1.7324462e-07
1.6960885e-07
1.6614192e-07
1.6283277e-07
1.596713e-07
1.566483e-07
1.5375534e-07
1.5098471e-07
1.4832933e-07
1.4578274e-07
1.4333901e-07
1.409927e-07
1.3873886e-07
1.3657295e-07
1.3449085e-07
1.3248882e-07
1.3056349e-07
1.2871183e-07
1.2693115e-07
1.252191e-07
1.2357366e-07
1.2199313e-07
1.2047614e-07
1.1902167e-07
1.1762904e-07
1.1629792e-07
1.1502837e-07
1.1382082e-07
1.1267611e-07
1.1159551e-07
1.1058069e-07
1.0963375e-07
1.087572e-07
1.0795391e-07
1.07227e-07
1.0657975e-07
1.0601532e-07
1.0553646e-07
1.0514498e-07
1.0484105e-07
1.046223e-07
1.0448253e-07
1.0441028e-07
1.0438707e-07
1.0438613e-07
1.043714e-07
1.0429997e-07
1.0412624e-07
1.0381992e-07
1.0338436e-07
1.0292047e-07
1.0263841e-07
1.0302282e-07
1.0500338e-07
1.1022501e-07
1.1953757e-07
1.4304363e-07
3.4300761e-06
2.5226865e-06
1.948801e-06
1.5732001e-06
1.3138518e-06
1.1254887e-06
9.8289082e-07
8.7135795e-07
7.8184802e-07
7.0851156e-07
6.4739762e-07
5.9574014e-07
5.5154445e-07
5.1333591e-07
4.800012e-07
4.506843e-07
4.2471657e-07
4.0156833e-07
3.8081479e-07
3.6211139e-07
3.4517589e-07
3.2977495e-07
3.1571406e-07
3.0282982e-07
2.9098403e-07
2.8005905e-07
2.6995411e-07
2.6058244e-07
2.5186893e-07
2.4374827e-07
2.3616339e-07
2.290642e-07
2.2240662e-07
2.1615166e-07
2.1026472e-07
2.0471503e-07
1.994751e-07
1.9452033e-07
1.8982861e-07
1.8538007e-07
1.8115675e-07
1.7714243e-07
1.733224e-07
1.6968329e-07
1.6621297e-07
1.6290034e-07
1.5973532e-07
1.5670867e-07
1.5381194e-07
1.510374e-07
1.4837796e-07
1.4582713e-07
1.4337897e-07
1.4102802e-07
1.3876931e-07
1.3659829e-07
1.345108e-07
1.3250309e-07
1.3057176e-07
1.2871375e-07
1.2692637e-07
1.2520724e-07
1.235543e-07
1.2196584e-07
1.2044047e-07
1.1897714e-07
1.1757514e-07
1.1623413e-07
1.1495412e-07
1.1373554e-07
1.1257918e-07
1.1148626e-07
1.104584e-07
1.0949763e-07
1.0860636e-07
1.0778729e-07
1.0704338e-07
1.063776e-07
1.0579276e-07
1.0529109e-07
1.0487374e-07
1.0454006e-07
1.042866e-07
1.0410594e-07
1.0398517e-07
1.0390432e-07
1.0383516e-07
1.0374033e-07
1.03576e-07
1.0329586e-07
1.0286791e-07
1.022931e-07
1.0165066e-07
1.0118228e-07
1.0131477e-07
1.0287235e-07
1.0694859e-07
1.1506853e-07
1.3444961e-07
3.430427e-06
2.5231722e-06
1.9493031e-06
1.5736753e-06
1.3142891e-06
1.1258884e-06
9.8325652e-07
8.7169381e-07
7.8215791e-07
7.0879883e-07
6.4766512e-07
5.9599027e-07
5.5177925e-07
5.135571e-07
4.8021025e-07
4.5088247e-07
4.2490496e-07
4.0174788e-07
3.8098632e-07
3.6227563e-07
3.4533349e-07
3.2992648e-07
3.1586002e-07
3.0297068e-07
2.911202e-07
2.801909e-07
2.7008199e-07
2.6070667e-07
2.5198981e-07
2.4386606e-07
2.3627834e-07
2.2917657e-07
2.2251663e-07
2.1625952e-07
2.1037065e-07
2.0481923e-07
1.9957778e-07
1.9462167e-07
1.8992882e-07
1.8547933e-07
1.8125526e-07
1.7724039e-07
1.7342001e-07
1.6978076e-07
1.6631051e-07
1.6299818e-07
1.5983368e-07
1.5680779e-07
1.5391207e-07
1.511388e-07
1.4848092e-07
1.4593194e-07
1.4348594e-07
1.4113749e-07
1.3888162e-07
1.367138e-07
1.3462991e-07
1.3262621e-07
1.3069931e-07
1.288462e-07
1.2706418e-07
1.2535089e-07
1.2370429e-07
1.2212267e-07
1.2060464e-07
1.1914913e-07
1.1775541e-07
1.1642306e-07
1.1515205e-07
1.1394266e-07
1.1279553e-07
1.1171167e-07
1.1069241e-07
1.0973941e-07
1.0885458e-07
1.0804003e-07
1.0729794e-07
1.0663035e-07
1.0603894e-07
1.055246e-07
1.0508693e-07
1.0472354e-07
1.0442917e-07
1.0419452e-07
1.0400509e-07
1.0383975e-07
1.0367001e-07
1.0345953e-07
1.0316715e-07
1.0275074e-07
1.0218331e-07
1.0146849e-07
1.0068774e-07
1.0003267e-07
9.9844546e-08
1.0096673e-07
1.043053e-07
1.1147792e-07
1.2833766e-07
3.430753e-06
2.5236154e-06
1.9497587e-06
1.5741055e-06
1.3146844e-06
1.1262494e-06
9.8358661e-07
8.7199683e-07
7.824374e-07
7.0905782e-07
6.4790621e-07
5.9621562e-07
5.5199069e-07
5.1375618e-07
4.8039829e-07
4.510606e-07
4.2507413e-07
4.0190894e-07
3.8114e-07
3.6242255e-07
3.4547421e-07
3.3006148e-07
3.1598974e-07
3.0309549e-07
2.9124044e-07
2.8030687e-07
2.7019396e-07
2.6081487e-07
2.5209445e-07
2.4396734e-07
2.3637643e-07
2.292716e-07
2.2260874e-07
2.1634882e-07
2.1045725e-07
2.0490321e-07
1.996592e-07
1.947006e-07
1.900053e-07
1.855534e-07
1.8132694e-07
1.7730968e-07
1.7348689e-07
1.6984522e-07
1.663725e-07
1.6305765e-07
1.5989056e-07
1.5686197e-07
1.5396344e-07
1.5118722e-07
1.485262e-07
1.4597388e-07
1.435243e-07
1.4117197e-07
1.3891188e-07
1.3673946e-07
1.3465049e-07
1.3264118e-07
1.3070804e-07
1.2884796e-07
1.270581e-07
1.2533599e-07
1.236794e-07
1.2208643e-07
1.2055547e-07
1.1908517e-07
1.1767449e-07
1.1632268e-07
1.1502924e-07
1.1379399e-07
1.1261699e-07
1.114986e-07
1.104394e-07
1.0944017e-07
1.0850189e-07
1.0762557e-07
1.068122e-07
1.0606258e-07
1.0537704e-07
1.0475516e-07
1.0419533e-07
1.0369416e-07
1.0324584e-07
1.0284123e-07
1.0246705e-07
1.0210491e-07
1.0173109e-07
1.0131644e-07
1.0082962e-07
1.0024053e-07
9.9534281e-08
9.8724992e-08
9.7888911e-08
9.723103e-08
9.7071097e-08
9.8149007e-08
1.0122142e-07
1.0774395e-07
1.2306191e-07
3.4310539e-06
2.5240186e-06
1.9501712e-06
1.574494e-06
1.3150411e-06
1.1265748e-06
9.8388411e-07
8.7226987e-07
7.8268918e-07
7.0929112e-07
6.4812337e-07
5.9641861e-07
5.5218117e-07
5.1393557e-07
4.8056777e-07
4.5122119e-07
4.2522672e-07
4.0205427e-07
3.8127874e-07
3.6255528e-07
3.4560141e-07
3.3018359e-07
3.1610713e-07
3.0320849e-07
2.9134934e-07
2.8041191e-07
2.7029534e-07
2.6091277e-07
2.5218901e-07
2.4405867e-07
2.364646e-07
2.2935668e-07
2.2269075e-07
2.1642776e-07
2.1053309e-07
2.0497589e-07
1.9972864e-07
1.9476668e-07
1.9006788e-07
1.856123e-07
1.8138194e-07
1.7736054e-07
1.7353334e-07
1.6988691e-07
1.6640907e-07
1.6308866e-07
1.5991554e-07
1.5688038e-07
1.5397467e-07
1.5119059e-07
1.4852095e-07
1.4595915e-07
1.4349912e-07
1.4113528e-07
1.3886247e-07
1.3667598e-07
1.3457145e-07
1.3254487e-07
1.3059259e-07
1.2871123e-07
1.2689775e-07
1.2514934e-07
1.2346351e-07
1.2183798e-07
1.2027075e-07
1.1876006e-07
1.1730439e-07
1.1590246e-07
1.1455323e-07
1.132559e-07
1.1200987e-07
1.1081482e-07
1.0967058e-07
1.0857723e-07
1.0753497e-07
1.0654412e-07
1.0560503e-07
1.0471797e-07
1.0388295e-07
1.030995e-07
1.0236639e-07
1.016812e-07
1.0103985e-07
1.0043603e-07
9.986061e-08
9.9301086e-08
9.874156e-08
9.8162816e-08
9.754504e-08
9.6870231e-08
9.6133259e-08
9.5351329e-08
9.4593003e-08
9.4014428e-08
9.3867282e-08
9.4810836e-08
9.7574489e-08
1.0339999e-07
1.1749683e-07
3.4313299e-06
2.524384e-06
1.9505436e-06
1.5748443e-06
1.3153623e-06
1.1268678e-06
9.8415175e-07
8.725154e-07
7.8291551e-07
7.0950072e-07
6.483183e-07
5.9660058e-07
5.5235156e-07
5.1409552e-07
4.8071818e-07
4.5136275e-07
4.2535995e-07
4.0217953e-07
3.8139622e-07
3.6266505e-07
3.457034e-07
3.3027762e-07
3.1619289e-07
3.0328558e-07
2.9141723e-07
2.8046999e-07
2.7034289e-07
2.6094899e-07
2.5221301e-07
2.4406947e-07
2.3646116e-07
2.2933786e-07
2.2265535e-07
2.1637451e-07
2.1046064e-07
2.0488283e-07
1.9961348e-07
1.9462788e-07
1.8990382e-07
1.8542129e-07
1.8116224e-07
1.7711031e-07
1.7325067e-07
1.6956985e-07
1.6605554e-07
1.6269653e-07
1.5948257e-07
1.5640426e-07
1.5345296e-07
1.5062076e-07
1.4790035e-07
1.4528503e-07
1.4276858e-07
1.4034529e-07
1.3800988e-07
1.3575746e-07
1.3358352e-07
1.3148391e-07
1.2945478e-07
1.274926e-07
1.2559413e-07
1.237564e-07
1.2197673e-07
1.2025268e-07
1.1858209e-07
1.1696303e-07
1.1539387e-07
1.1387323e-07
1.124e-07
1.1097338e-07
1.0959283e-07
1.0825814e-07
1.069694e-07
1.0572702e-07
1.045317e-07
1.0338445e-07
1.0228651e-07
1.0123928e-07
1.0024424e-07
9.9302787e-08
9.8416e-08
9.7584372e-08
9.6807457e-08
9.608345e-08
9.5408797e-08
9.4777729e-08
9.4182267e-08
9.3612063e-08
9.3056204e-08
9.2504267e-08
9.1953582e-08
9.1416147e-08
9.0932965e-08
9.0633223e-08
9.0709915e-08
9.1664226e-08
9.4103094e-08
9.8935662e-08
1.1135474e-07
3.4315817e-06
2.5247143e-06
1.9508791e-06
1.5751593e-06
1.3156509e-06
1.1271308e-06
9.8439167e-07
8.7273485e-07
7.8311663e-07
7.0968505e-07
6.4848675e-07
5.9675345e-07
5.5248858e-07
5.1421585e-07
4.8082047e-07
4.5144518e-07
4.2542026e-07
4.0221508e-07
3.8140402e-07
3.6264182e-07
3.4564562e-07
3.3018157e-07
3.160547e-07
3.0310126e-07
2.9118274e-07
2.8018126e-07
2.6999586e-07
2.6053963e-07
2.5173737e-07
2.4352368e-07
2.3584147e-07
2.2864065e-07
2.2187713e-07
2.1551195e-07
2.0951058e-07
2.0384228e-07
1.9847963e-07
1.9339808e-07
1.885756e-07
1.8399238e-07
1.7963053e-07
1.7547387e-07
1.7150775e-07
1.6771885e-07
1.6409506e-07
1.6062531e-07
1.5729951e-07
1.5410843e-07
1.510436e-07
1.4809726e-07
1.4526226e-07
1.4253206e-07
1.3990062e-07
1.3736239e-07
1.3491227e-07
1.3254556e-07
1.3025795e-07
1.2804551e-07
1.2590461e-07
1.2383199e-07
1.2182468e-07
1.1988001e-07
1.1799563e-07
1.1616946e-07
1.1439976e-07
1.1268506e-07
1.110242e-07
1.0941636e-07
1.0786102e-07
1.0635803e-07
1.0490756e-07
1.0351019e-07
1.0216682e-07
1.0087876e-07
9.9647674e-08
9.8475596e-08
9.7364865e-08
9.6318086e-08
9.5338046e-08
9.442759e-08
9.3589467e-08
9.2826121e-08
9.2139457e-08
9.1530538e-08
9.0999318e-08
9.054428e-08
9.0162366e-08
8.9848624e-08
8.9597131e-08
8.9400978e-08
8.9256205e-08
8.9165535e-08
8.9145634e-08
8.9263279e-08
8.9609346e-08
9.0534922e-08
9.2479275e-08
9.6053158e-08
1.057613e-07
3.4318097e-06
2.5250116e-06
1.9511805e-06
1.5754417e-06
1.3159083e-06
1.1273622e-06
9.8459612e-07
8.7290971e-07
7.8325707e-07
7.0978401e-07
6.48535e-07
5.9673986e-07
5.5240049e-07
5.1403941e-07
4.805411e-07
4.5104793e-07
4.2489015e-07
4.0153745e-07
3.8056481e-07
3.6162778e-07
3.4444452e-07
3.2878232e-07
3.1444746e-07
3.0127751e-07
2.8913532e-07
2.7790433e-07
2.6748493e-07
2.5779152e-07
2.4875014e-07
2.4029659e-07
2.323749e-07
2.2493603e-07
2.1793688e-07
2.1133938e-07
2.0510983e-07
1.9921823e-07
1.9363785e-07
1.8834475e-07
1.8331745e-07
1.7853661e-07
1.7398476e-07
1.6964612e-07
1.6550636e-07
1.6155244e-07
1.577725e-07
1.5415569e-07
1.5069211e-07
1.473727e-07
1.4418911e-07
1.4113372e-07
1.381995e-07
1.3537999e-07
1.3266926e-07
1.3006185e-07
1.2755274e-07
1.2513734e-07
1.2281142e-07
1.2057113e-07
1.1841298e-07
1.1633378e-07
1.143307e-07
1.1240117e-07
1.1054297e-07
1.0875416e-07
1.070331e-07
1.0537846e-07
1.037892e-07
1.022646e-07
1.0080425e-07
9.9408057e-08
9.8076251e-08
9.6809406e-08
9.5608429e-08
9.4474574e-08
9.3409437e-08
9.2414955e-08
9.1493392e-08
9.0647327e-08
8.9879617e-08
8.9193366e-08
8.8591871e-08
8.8078553e-08
8.7656881e-08
8.7330261e-08
8.7101929e-08
8.6974748e-08
8.6951115e-08
8.7032528e-08
8.721974e-08
8.7512002e-08
8.7908278e-08
8.8408074e-08
8.9013892e-08
8.975057e-08
9.062218e-08
9.1836835e-08
9.3567195e-08
9.6242612e-08
1.0287466e-07
3.4320149e-06
2.5252783e-06
1.9514488e-06
1.5756836e-06
1.3161019e-06
1.1274791e-06
9.8459713e-07
8.7274518e-07
7.8286921e-07
7.0910991e-07
6.4751187e-07
5.9530759e-07
5.5050361e-07
5.1162896e-07
4.7757582e-07
4.4749493e-07
4.2072512e-07
3.9674447e-07
3.7513596e-07
3.5556253e-07
3.3774903e-07
3.2146865e-07
3.065328e-07
2.927834e-07
2.800869e-07
2.6832965e-07
2.574143e-07
2.4725694e-07
2.3778478e-07
2.2893434e-07
2.2064995e-07
2.1288257e-07
2.0558879e-07
1.9873e-07
1.9227174e-07
1.8618314e-07
1.8043643e-07
1.7500656e-07
1.6987088e-07
1.6500882e-07
1.6040167e-07
1.5603238e-07
1.5188537e-07
1.4794637e-07
1.442023e-07
1.4064113e-07
1.3725182e-07
1.3402418e-07
1.3094883e-07
1.2801711e-07
1.2522103e-07
1.2255322e-07
1.2000686e-07
1.1757566e-07
1.1525381e-07
1.1303596e-07
1.1091718e-07
1.0889294e-07
1.0695909e-07
1.0511184e-07
1.0334775e-07
1.016637e-07
1.0005691e-07
9.8524899e-08
9.7065513e-08
9.5676904e-08
9.435754e-08
9.310621e-08
9.1922031e-08
9.0804463e-08
8.9753322e-08
8.8768807e-08
8.7851523e-08
8.7002518e-08
8.6223318e-08
8.5515979e-08
8.4883142e-08
8.4328101e-08
8.3854881e-08
8.3468328e-08
8.3174206e-08
8.2979301e-08
8.2891518e-08
8.2919943e-08
8.3074862e-08
8.3367623e-08
8.3810374e-08
8.4415371e-08
8.5194105e-08
8.615551e-08
8.7304334e-08
8.8638379e-08
9.0150873e-08
9.1810095e-08
9.3533454e-08
9.5423126e-08
9.7389539e-08
9.9844037e-08
1.0405364e-07
3.4322002e-06
2.5255149e-06
1.9516285e-06
1.5756562e-06
1.3156547e-06
1.1263493e-06
9.8250199e-07
8.6941433e-07
7.7806961e-07
7.0266189e-07
6.3929212e-07
5.8524974e-07
5.3859518e-07
4.9790427e-07
4.6210594e-07
4.3037897e-07
4.0208255e-07
3.7670837e-07
3.5384728e-07
3.3316543e-07
3.143871e-07
2.9728203e-07
2.8165603e-07
2.6734386e-07
2.5420377e-07
2.4211333e-07
2.3096611e-07
2.2066907e-07
2.1114049e-07
2.0230825e-07
1.9410849e-07
1.8648443e-07
1.7938544e-07
1.7276628e-07
1.6658638e-07
1.6080928e-07
1.5540219e-07
1.5033552e-07
1.4558251e-07
1.4111899e-07
1.3692301e-07
1.3297468e-07
1.2925589e-07
1.2575019e-07
1.2244259e-07
1.1931942e-07
1.1636819e-07
1.1357751e-07
1.1093697e-07
1.0843704e-07
1.0606901e-07
1.038249e-07
1.0169742e-07
9.9679916e-08
9.7766281e-08
9.5950963e-08
9.42289e-08
9.2595494e-08
9.1046587e-08
8.9578435e-08
8.8187693e-08
8.6871403e-08
8.562698e-08
8.4452216e-08
8.3345276e-08
8.2304711e-08
8.1329464e-08
8.0418896e-08
7.9572815e-08
7.8791508e-08
7.8075795e-08
7.7427089e-08
7.6847467e-08
7.6339769e-08
7.5907706e-08
7.5556e-08
7.5290541e-08
7.5118589e-08
7.5048992e-08
7.5092443e-08
7.5261768e-08
7.5572213e-08
7.6041723e-08
7.6691147e-08
7.7544287e-08
7.862765e-08
7.9969683e-08
8.1599254e-08
8.3542832e-08
8.5820386e-08
8.8438532e-08
9.1383432e-08
9.461529e-08
9.8021509e-08
1.0140313e-07
1.047631e-07
1.0760964e-07
1.1069512e-07
1.1267212e-07
3.4323993e-06
2.5255244e-06
1.9505351e-06
1.5721713e-06
1.3084353e-06
1.114295e-06
9.6491813e-07
8.4603943e-07
7.4901703e-07
6.6832379e-07
6.0024203e-07
5.4215731e-07
4.9215882e-07
4.4880501e-07
4.1098136e-07
3.7780647e-07
3.4857178e-07
3.2269942e-07
2.9971293e-07
2.7921587e-07
2.6087589e-07
2.4441263e-07
2.2958825e-07
2.162001e-07
2.0407476e-07
1.9306328e-07
1.8303729e-07
1.7388585e-07
1.6551274e-07
1.5783429e-07
1.5077757e-07
1.4427879e-07
1.3828206e-07
1.3273824e-07
1.2760405e-07
1.2284126e-07
1.1841604e-07
1.1429835e-07
1.104615e-07
1.0688168e-07
1.0353766e-07
1.0041041e-07
9.7482895e-08
9.473982e-08
9.2167428e-08
8.9753335e-08
8.7486379e-08
8.5356491e-08
8.3354582e-08
8.1472449e-08
7.9702686e-08
7.8038616e-08
7.6474224e-08
7.5004108e-08
7.362343e-08
7.232788e-08
7.1113645e-08
6.9977383e-08
6.8916209e-08
6.7927682e-08
6.7009797e-08
6.6160994e-08
6.5380161e-08
6.4666654e-08
6.4020325e-08
6.3441553e-08
6.2931297e-08
6.2491156e-08
6.2123444e-08
6.183129e-08
6.1618753e-08
6.1490971e-08
6.1454333e-08
6.1516699e-08
6.1687656e-08
6.1978827e-08
6.2404244e-08
6.2980784e-08
6.3728671e-08
6.4672052e-08
6.583962e-08
6.7265268e-08
6.8988681e-08
7.1055776e-08
7.3518774e-08
7.6435598e-08
7.9868063e-08
8.3878345e-08
8.8522252e-08
9.3839848e-08
9.9836337e-08
1.0647497e-07
1.1359959e-07
1.2101694e-07
1.2828389e-07
1.3531381e-07
1.4064341e-07
1.4657971e-07
1.4439222e-07
3.4326309e-06
2.5209663e-06
1.9340833e-06
1.5383439e-06
1.2550882e-06
1.0423775e-06
8.7734869e-07
7.4656069e-07
6.4138593e-07
5.5586623e-07
4.8567674e-07
4.2758047e-07
3.7910974e-07
3.3836074e-07
3.0385223e-07
2.7442423e-07
2.4916121e-07
2.2733573e-07
2.0836878e-07
1.9179499e-07
1.7723748e-07
1.6438901e-07
1.529975e-07
1.4285494e-07
1.3378865e-07
1.2565448e-07
1.1833148e-07
1.1171762e-07
1.0572639e-07
1.0028412e-07
9.5327744e-08
9.0803101e-08
8.6663448e-08
8.2868303e-08
7.9382484e-08
7.6175309e-08
7.3219939e-08
7.0492834e-08
6.7973288e-08
6.564305e-08
6.3485999e-08
6.1487871e-08
5.963603e-08
5.7919266e-08
5.6327638e-08
5.4852322e-08
5.3485498e-08
5.2220246e-08
5.1050455e-08
4.9970757e-08
4.8976459e-08
4.80635e-08
4.7228404e-08
4.6468252e-08
4.578066e-08
4.516376e-08
4.4616198e-08
4.4137133e-08
4.3726246e-08
4.3383761e-08
4.3110475e-08
4.2907795e-08
4.2777791e-08
4.2723265e-08
4.2747835e-08
4.2856035e-08
4.3053444e-08
4.3346843e-08
4.3744395e-08
4.4255881e-08
4.4892969e-08
4.5669545e-08
4.6602115e-08
4.7710281e-08
4.9017312e-08
5.0550832e-08
5.2343616e-08
5.4434536e-08
5.6869635e-08
5.9703339e-08
6.2999757e-08
6.6834004e-08
7.1293385e-08
7.6478205e-08
8.2501748e-08
8.9488833e-08
9.7571853e-08
1.0688315e-07
1.1754135e-07
1.2963068e-07
1.4316559e-07
1.5806627e-07
1.7400463e-07
1.9069486e-07
2.0729531e-07
2.2365433e-07
2.365569e-07
2.5152273e-07
2.4525146e-07
3.426735e-06
2.4641123e-06
1.8070382e-06
1.3487525e-06
1.0240651e-06
7.9183428e-07
6.2406545e-07
5.0122904e-07
4.097934e-07
3.4049095e-07
2.8700505e-07
2.4501317e-07
2.1152499e-07
1.8443991e-07
1.6225682e-07
1.4388378e-07
1.2851359e-07
1.1554182e-07
1.0450659e-07
9.5050463e-08
8.6893544e-08
7.9814448e-08
7.3636481e-08
6.8217438e-08
6.344194e-08
5.9215682e-08
5.546105e-08
5.2113748e-08
4.9120193e-08
4.6435476e-08
4.4021769e-08
4.1847056e-08
3.9884129e-08
3.8109771e-08
3.6504113e-08
3.5050096e-08
3.3733046e-08
3.2540317e-08
3.1461001e-08
3.0485689e-08
2.9606278e-08
2.8815799e-08
2.8108289e-08
2.7478678e-08
2.6922695e-08
2.6436796e-08
2.6018105e-08
2.5664365e-08
2.5373904e-08
2.5145609e-08
2.4978912e-08
2.4873782e-08
2.4830731e-08
2.4850822e-08
2.4935696e-08
2.5087596e-08
2.5309418e-08
2.5604757e-08
2.5977977e-08
2.6434296e-08
2.6979881e-08
2.7621971e-08
2.8369017e-08
2.9230856e-08
3.0218908e-08
3.1346424e-08
3.2628765e-08
3.4083749e-08
3.5732048e-08
3.7597673e-08
3.9708541e-08
4.2097145e-08
4.4801357e-08
4.786536e-08
5.1340748e-08
5.5287808e-08
5.9776983e-08
6.489054e-08
7.0724407e-08
7.7390134e-08
8.5016867e-08
9.3753143e-08
1.0376816e-07
1.1525203e-07
1.2841413e-07
1.4347862e-07
1.6067496e-07
1.8022235e-07
2.0230371e-07
2.2702598e-07
2.543802e-07
2.8412803e-07
3.1560625e-07
3.4825037e-07
3.8079346e-07
4.1281769e-07
4.4000034e-07
4.6909925e-07
4.6973267e-07
3.326386e-06
2.0902513e-06
1.2736352e-06
7.8822971e-07
5.1169576e-07
3.524302e-07
2.5634767e-07
1.947875e-07
1.5304267e-07
1.2340567e-07
1.0161328e-07
8.5149296e-08
7.2437936e-08
6.2444665e-08
5.4465835e-08
4.8008893e-08
4.2722617e-08
3.8351788e-08
3.4705657e-08
3.1640114e-08
2.9045212e-08
2.68361e-08
2.4946553e-08
2.3324348e-08
2.1927914e-08
2.0723896e-08
1.9685347e-08
1.8790366e-08
1.8021069e-08
1.7362804e-08
1.6803537e-08
1.6333383e-08
1.5944231e-08
1.5629458e-08
1.5383692e-08
1.5202636e-08
1.5082919e-08
1.5021986e-08
1.5018006e-08
1.5069806e-08
1.5176815e-08
1.5339029e-08
1.5556985e-08
1.5831745e-08
1.6164892e-08
1.6558534e-08
1.7015315e-08
1.7538439e-08
1.8131696e-08
1.8799505e-08
1.9546956e-08
2.0379875e-08
2.1304883e-08
2.2329487e-08
2.3462168e-08
2.4712489e-08
2.6091227e-08
2.7610514e-08
2.9284003e-08
3.112707e-08
3.3157026e-08
3.539338e-08
3.7858128e-08
4.0576096e-08
4.3575319e-08
4.6887502e-08
5.0548513e-08
5.4598984e-08
5.9084957e-08
6.4058663e-08
6.957937e-08
7.571434e-08
8.2539903e-08
9.0142621e-08
9.8620566e-08
1.080846e-07
1.1865972e-07
1.304862e-07
1.4372059e-07
1.5853613e-07
1.7512231e-07
1.9368319e-07
2.1443338e-07
2.3759143e-07
2.6336808e-07
2.9195004e-07
3.2347265e-07
3.5798879e-07
3.9541334e-07
4.3546183e-07
4.7768858e-07
5.2042203e-07
5.6205315e-07
6.0131323e-07
6.3619567e-07
6.6512891e-07
6.8547655e-07
6.9707319e-07
6.9528247e-07
2.6828436e-06
1.03604e-06
4.0894321e-07
2.0286408e-07
1.2907029e-07
9.3967893e-08
7.2644027e-08
5.8334086e-08
4.8394084e-08
4.1311572e-08
3.612673e-08
3.2234475e-08
2.9253509e-08
2.6937521e-08
2.5121032e-08
2.3689676e-08
2.2562694e-08
2.1680938e-08
2.1000867e-08
2.0489939e-08
2.012358e-08
1.9883113e-08
1.9754338e-08
1.9726485e-08
1.9791474e-08
1.9943343e-08
2.0177854e-08
2.0492199e-08
2.0884774e-08
2.1355018e-08
2.1903291e-08
2.2530785e-08
2.3239467e-08
2.4032041e-08
2.4911922e-08
2.5883228e-08
2.69508e-08
2.8120195e-08
2.939774e-08
3.0790548e-08
3.230658e-08
3.3954692e-08
3.5744716e-08
3.7687529e-08
3.9795142e-08
4.2080803e-08
4.4559119e-08
4.7246171e-08
5.015967e-08
5.3319114e-08
5.6745956e-08
6.0463818e-08
6.4498695e-08
6.8879224e-08
7.3636928e-08
7.8806524e-08
8.4426247e-08
9.0538204e-08
9.7188788e-08
1.0442909e-07
1.1231531e-07
1.2090937e-07
1.302793e-07
1.4049987e-07
1.5165313e-07
1.6382893e-07
1.7712557e-07
1.9165016e-07
2.075191e-07
2.2485835e-07
2.4380334e-07
2.6449872e-07
2.8709759e-07
3.1175994e-07
3.3865025e-07
3.6793392e-07
3.9977175e-07
4.3431259e-07
4.7168293e-07
5.1197283e-07
5.552174e-07
6.0137252e-07
6.5028358e-07
7.0164731e-07
7.5496129e-07
8.0947195e-07
8.640959e-07
9.1737368e-07
9.6733341e-07
1.0115177e-06
1.0471891e-06
1.0714405e-06
1.0795193e-06
1.0674165e-06
1.0290201e-06
9.6282976e-07
8.6630146e-07
7.3664443e-07
6.1522323e-07
2.8913534e-06
1.4945476e-06
8.1950974e-07
5.0835634e-07
3.6169106e-07
2.846988e-07
2.3847753e-07
2.0767125e-07
1.8573702e-07
1.6947971e-07
1.5712886e-07
1.476087e-07
1.4022058e-07
1.3449055e-07
1.3008597e-07
1.2676779e-07
1.2436102e-07
1.2273586e-07
1.2179536e-07
1.2146688e-07
1.2169608e-07
1.2244271e-07
1.2367787e-07
1.2538177e-07
1.2754225e-07
1.3015331e-07
1.332146e-07
1.3673069e-07
1.4071068e-07
1.4516775e-07
1.5011913e-07
1.5558591e-07
1.6159307e-07
1.6816949e-07
1.7534805e-07
1.8316577e-07
1.9166407e-07
2.008889e-07
2.1089121e-07
2.2172707e-07
2.3345828e-07
2.4615266e-07
2.5988465e-07
2.7473578e-07
2.9079534e-07
3.0816104e-07
3.2693978e-07
3.472484e-07
3.6921468e-07
3.9297821e-07
4.1869155e-07
4.4652127e-07
4.7664934e-07
5.0927429e-07
5.446128e-07
5.8290106e-07
6.2439647e-07
6.6937922e-07
7.1815404e-07
7.7105181e-07
8.2843129e-07
8.9068069e-07
9.5821894e-07
1.0314969e-06
1.110998e-06
1.197238e-06
1.2907644e-06
1.3921544e-06
1.5020107e-06
1.620956e-06
1.7496244e-06
1.8886486e-06
2.0386435e-06
2.2001827e-06
2.3737689e-06
2.5597935e-06
2.7584859e-06
2.969849e-06
3.1935772e-06
3.4289557e-06
3.6747354e-06
3.9289868e-06
4.188914e-06
4.4506649e-06
4.7090566e-06
4.9573945e-06
5.1870176e-06
5.38738e-06
5.5450067e-06
5.6450235e-06
5.6669418e-06
5.5932031e-06
5.395069e-06
5.0628785e-06
4.5536678e-06
3.8958231e-06
3.037103e-06
2.0952484e-06
1.1122843e-06
3.3609341e-07
4.4847815e-07
6.9386843e-07
5.3128297e-07
2.9108885e-07
1.6240936e-07
1.1894145e-07
1.0855791e-07
1.0863168e-07
1.1359236e-07
1.2149373e-07
1.2975924e-07
1.3695691e-07
1.437158e-07
1.5110829e-07
1.6214448e-07
1.7747059e-07
2.0838766e-07
2.3230038e-07
1.3180874e-07
2.9757117e-07
6.8070962e-07
6.042296e-07
3.5228965e-07
1.8991383e-07
1.281926e-07
1.1333519e-07
1.1408503e-07
1.2105866e-07
1.3145095e-07
1.4227925e-07
1.5141376e-07
1.5977084e-07
1.681775e-07
1.8085514e-07
1.9763812e-07
2.3128989e-07
2.6346859e-07
4.0591168e-07
2.0056137e-07
6.4016529e-07
6.8274339e-07
4.284004e-07
2.2802975e-07
1.4184793e-07
1.1937039e-07
1.203987e-07
1.3013918e-07
1.4422011e-07
1.5893522e-07
1.7107154e-07
1.8154264e-07
1.9149502e-07
2.0530128e-07
2.2471371e-07
2.5846119e-07
3.0077877e-07
1.3678667e-06
2.1560584e-07
5.6941984e-07
7.5321425e-07
5.1698602e-07
2.774734e-07
1.6083719e-07
1.2685347e-07
1.2712417e-07
1.4009328e-07
1.5900623e-07
1.789866e-07
1.9550854e-07
2.0864264e-07
2.2095088e-07
2.3540615e-07
2.5863438e-07
2.9154807e-07
3.435994e-07
3.0839651e-06
3.746437e-07
4.8249532e-07
8.0206658e-07
6.1407952e-07
3.3931551e-07
1.8650826e-07
1.3635782e-07
1.3414647e-07
1.5044942e-07
1.75256e-07
2.019533e-07
2.2460342e-07
2.4118522e-07
2.5680277e-07
2.7167492e-07
2.9946881e-07
3.3176577e-07
3.9221232e-07
5.4651452e-06
6.7750626e-07
4.0345957e-07
8.1914858e-07
7.1229148e-07
4.1354933e-07
2.202803e-07
1.4864716e-07
1.4145497e-07
1.607116e-07
1.9222802e-07
2.2702985e-07
2.5774983e-07
2.7887035e-07
2.9878594e-07
3.1409276e-07
3.4667757e-07
3.7895699e-07
4.4610694e-07
8.2757825e-06
1.0928312e-06
3.5633086e-07
8.0172638e-07
8.017022e-07
4.9800127e-07
2.6316398e-07
1.6457779e-07
1.4910706e-07
1.7029185e-07
2.0883474e-07
2.5278838e-07
2.9340399e-07
3.2039425e-07
3.4559816e-07
3.6160283e-07
3.9884593e-07
4.3174653e-07
5.0392671e-07
1.118504e-05
1.5661696e-06
3.5545447e-07
7.5571727e-07
8.7226618e-07
5.8791337e-07
3.1515501e-07
1.8494062e-07
1.5729983e-07
1.7868856e-07
2.2390127e-07
2.7745855e-07
3.2932031e-07
3.635445e-07
3.9496573e-07
4.1212711e-07
4.5366064e-07
4.8771682e-07
5.6332548e-07
1.382748e-05
2.0316739e-06
4.0091558e-07
6.9371918e-07
9.1650721e-07
6.763872e-07
3.7464862e-07
2.1011631e-07
1.6632628e-07
1.8559818e-07
2.3638331e-07
2.9920716e-07
3.6283645e-07
4.0536417e-07
4.43724e-07
4.6261895e-07
5.0790328e-07
5.4353706e-07
6.2107376e-07
1.5857313e-05
2.4227636e-06
4.8054968e-07
6.3081067e-07
9.3149714e-07
7.556735e-07
4.3819009e-07
2.3964739e-07
1.7642697e-07
1.9099561e-07
2.4562495e-07
3.1655119e-07
3.91414e-07
4.4266959e-07
4.8826911e-07
5.0947653e-07
5.5785399e-07
5.9541062e-07
6.7364212e-07
1.7018242e-05
2.6836406e-06
5.7549105e-07
5.7946641e-07
9.194295e-07
8.1894206e-07
5.0080231e-07
2.7191767e-07
1.875642e-07
1.9513645e-07
2.5157945e-07
3.2880318e-07
4.1333795e-07
4.7285676e-07
5.2538135e-07
5.4930173e-07
6.0006293e-07
6.3981261e-07
7.1799347e-07
1.7203091e-05
2.7814559e-06
6.6565073e-07
5.455842e-07
8.8668366e-07
8.619649e-07