/*--------------------------------*- C++ -*----------------------------------*\
| =========                 |                                                 |
| \\      /  F ield         | OpenFOAM: The Open Source CFD Toolbox           |
|  \\    /   O peration     | Version:  2406                                  |
|   \\  /    A nd           | Website:  www.openfoam.com                      |
|    \\/     M anipulation  |                                                 |
\*---------------------------------------------------------------------------*/
FoamFile
{
    version     2.0;
    format      ascii;
    arch        "LSB;label=32;scalar=64";
    class       volScalarField;
    location    "54640";
    object      TMean;
}
// * * * * * * * * * * * * * * * * * * * * * * * * * * * * * * * * * * * * * //

dimensions      [0 0 0 1 0 0 0];

internalField   nonuniform List<scalar> 
94692
(
1.0005364
1.0005378
1.0005394
1.0005408
1.0005426
1.0005446
1.000547
1.0005497
1.0005526
1.0005559
1.0005595
1.0005634
1.0005677
1.0005722
1.0005772
1.0005824
1.000588
1.0005938
1.0006001
1.0006067
1.0006136
1.0006209
1.0006286
1.0006367
1.0006451
1.000654
1.0006632
1.0006729
1.0006831
1.0006936
1.0007045
1.000716
1.0007279
1.0007404
1.0007533
1.0007667
1.0007807
1.0007953
1.0008105
1.0008262
1.0008426
1.0008596
1.0008773
1.0008957
1.0009148
1.0009346
1.0009552
1.0009767
1.0009991
1.0010222
1.0010462
1.0010712
1.0010971
1.0011241
1.0011521
1.0011812
1.0012115
1.001243
1.0012757
1.0013098
1.0013451
1.0013817
1.0014199
1.0014595
1.0015007
1.0015434
1.0015878
1.0016339
1.0016818
1.0017314
1.0017828
1.0018361
1.0018914
1.0019486
1.0020078
1.0020688
1.0021317
1.0021964
1.002263
1.0023313
1.0024012
1.0024723
1.0025445
1.0026174
1.0026903
1.0027636
1.0028355
1.002906
1.0029752
1.0030406
1.0031003
1.0031523
1.0031934
1.0032191
1.0032227
1.0031959
1.003127
1.0030031
1.0028011
1.0005362
1.0005378
1.0005394
1.0005408
1.0005426
1.0005446
1.000547
1.0005496
1.0005526
1.0005559
1.0005594
1.0005634
1.0005676
1.0005722
1.0005771
1.0005823
1.0005879
1.0005938
1.0006
1.0006066
1.0006135
1.0006208
1.0006285
1.0006366
1.0006449
1.0006538
1.000663
1.0006727
1.0006828
1.0006933
1.0007043
1.0007157
1.0007276
1.00074
1.0007529
1.0007663
1.0007803
1.0007948
1.00081
1.0008257
1.0008421
1.0008591
1.0008767
1.000895
1.0009141
1.0009339
1.0009545
1.000976
1.0009982
1.0010213
1.0010453
1.0010702
1.0010962
1.0011231
1.0011511
1.0011801
1.0012104
1.0012418
1.0012745
1.0013085
1.0013438
1.0013805
1.0014185
1.0014581
1.0014993
1.001542
1.0015864
1.0016325
1.0016803
1.00173
1.0017814
1.0018347
1.0018899
1.0019472
1.0020063
1.0020672
1.0021301
1.0021947
1.0022611
1.0023291
1.0023987
1.0024693
1.0025409
1.002613
1.0026853
1.0027573
1.0028281
1.0028971
1.002963
1.0030242
1.0030791
1.0031257
1.0031605
1.0031805
1.0031783
1.0031475
1.0030742
1.0029486
1.002732
1.000536
1.0005377
1.0005394
1.0005408
1.0005425
1.0005446
1.0005469
1.0005496
1.0005526
1.0005558
1.0005594
1.0005633
1.0005676
1.0005722
1.0005771
1.0005823
1.0005878
1.0005937
1.0006
1.0006065
1.0006134
1.0006208
1.0006284
1.0006365
1.0006449
1.0006537
1.000663
1.0006727
1.0006828
1.0006933
1.0007042
1.0007157
1.0007276
1.00074
1.0007529
1.0007663
1.0007803
1.0007948
1.00081
1.0008257
1.0008421
1.000859
1.0008767
1.000895
1.0009141
1.0009339
1.0009545
1.000976
1.0009982
1.0010213
1.0010453
1.0010702
1.0010962
1.0011231
1.0011511
1.0011802
1.0012104
1.0012419
1.0012746
1.0013086
1.0013438
1.0013805
1.0014186
1.0014582
1.0014994
1.0015421
1.0015865
1.0016326
1.0016804
1.00173
1.0017815
1.0018347
1.00189
1.0019471
1.0020061
1.002067
1.0021297
1.0021943
1.0022604
1.0023281
1.0023973
1.0024676
1.0025387
1.0026102
1.0026817
1.0027526
1.0028222
1.0028895
1.0029529
1.0030112
1.0030626
1.0031049
1.0031349
1.0031487
1.0031404
1.0031039
1.0030252
1.0029024
1.0026783
1.0005358
1.0005376
1.0005393
1.0005407
1.0005424
1.0005445
1.0005468
1.0005495
1.0005525
1.0005557
1.0005594
1.0005633
1.0005675
1.0005721
1.000577
1.0005822
1.0005877
1.0005936
1.0005998
1.0006064
1.0006133
1.0006206
1.0006283
1.0006364
1.0006448
1.0006535
1.0006628
1.0006725
1.0006825
1.0006931
1.000704
1.0007154
1.0007273
1.0007397
1.0007526
1.000766
1.0007799
1.0007946
1.0008097
1.0008253
1.0008417
1.0008587
1.0008763
1.0008946
1.0009136
1.0009334
1.0009541
1.0009755
1.0009977
1.0010208
1.0010447
1.0010697
1.0010956
1.0011224
1.0011504
1.0011795
1.0012097
1.0012412
1.0012738
1.0013077
1.001343
1.0013796
1.0014178
1.0014573
1.0014985
1.0015412
1.0015856
1.0016316
1.0016794
1.001729
1.0017804
1.0018338
1.0018889
1.001946
1.002005
1.0020659
1.0021286
1.002193
1.002259
1.0023266
1.0023956
1.0024655
1.0025362
1.0026074
1.0026781
1.0027482
1.0028167
1.0028825
1.0029443
1.0030003
1.0030491
1.0030881
1.0031145
1.0031243
1.0031114
1.0030708
1.0029877
1.0028644
1.002642
1.0005356
1.0005375
1.0005392
1.0005406
1.0005424
1.0005444
1.0005467
1.0005494
1.0005524
1.0005557
1.0005593
1.0005632
1.0005674
1.000572
1.0005768
1.0005821
1.0005876
1.0005935
1.0005997
1.0006063
1.0006132
1.0006205
1.0006281
1.0006362
1.0006446
1.0006534
1.0006627
1.0006723
1.0006824
1.0006929
1.0007038
1.0007152
1.0007271
1.0007395
1.0007524
1.0007658
1.0007798
1.0007943
1.0008094
1.0008251
1.0008415
1.0008584
1.000876
1.0008943
1.0009134
1.0009331
1.0009538
1.0009751
1.0009974
1.0010204
1.0010444
1.0010693
1.0010952
1.0011221
1.00115
1.001179
1.0012093
1.0012408
1.0012734
1.0013073
1.0013425
1.0013791
1.0014172
1.0014567
1.0014979
1.0015405
1.0015848
1.0016309
1.0016787
1.0017282
1.0017796
1.0018329
1.0018879
1.0019449
1.0020039
1.0020646
1.0021272
1.0021915
1.0022573
1.0023247
1.0023934
1.002463
1.0025332
1.0026038
1.002674
1.0027432
1.0028106
1.0028751
1.0029355
1.0029898
1.0030365
1.0030734
1.003097
1.0031042
1.0030883
1.003045
1.0029595
1.0028357
1.0026156
1.0005354
1.0005374
1.0005391
1.0005405
1.0005423
1.0005443
1.0005467
1.0005494
1.0005523
1.0005556
1.0005592
1.0005631
1.0005673
1.0005718
1.0005767
1.0005819
1.0005875
1.0005933
1.0005996
1.0006061
1.000613
1.0006203
1.0006279
1.000636
1.0006444
1.0006533
1.0006625
1.0006721
1.0006822
1.0006926
1.0007036
1.000715
1.0007269
1.0007393
1.0007521
1.0007655
1.0007795
1.000794
1.0008091
1.0008248
1.0008411
1.000858
1.0008757
1.0008939
1.0009129
1.0009328
1.0009533
1.0009747
1.0009969
1.0010199
1.0010438
1.0010687
1.0010946
1.0011214
1.0011493
1.0011784
1.0012086
1.00124
1.0012726
1.0013065
1.0013416
1.0013782
1.0014162
1.0014557
1.0014967
1.0015394
1.0015836
1.0016296
1.0016773
1.0017268
1.0017781
1.0018313
1.0018863
1.001943
1.0020018
1.0020624
1.0021247
1.0021888
1.0022544
1.0023215
1.0023897
1.0024589
1.0025287
1.0025986
1.0026681
1.0027365
1.002803
1.0028663
1.0029252
1.0029781
1.0030231
1.0030581
1.0030797
1.0030849
1.0030669
1.0030221
1.0029359
1.0028125
1.0025955
1.0005351
1.0005372
1.000539
1.0005404
1.0005422
1.0005443
1.0005466
1.0005492
1.0005522
1.0005554
1.000559
1.0005629
1.0005671
1.0005717
1.0005766
1.0005818
1.0005873
1.0005932
1.0005994
1.0006059
1.0006129
1.0006201
1.0006278
1.0006358
1.0006443
1.0006531
1.0006623
1.0006719
1.0006819
1.0006924
1.0007034
1.0007147
1.0007266
1.000739
1.0007519
1.0007653
1.0007792
1.0007937
1.0008088
1.0008244
1.0008407
1.0008577
1.0008752
1.0008935
1.0009125
1.0009323
1.0009529
1.0009742
1.0009963
1.0010193
1.0010432
1.0010681
1.0010939
1.0011206
1.0011486
1.0011776
1.0012077
1.001239
1.0012715
1.0013053
1.0013404
1.0013769
1.0014148
1.0014542
1.0014951
1.0015376
1.0015817
1.0016275
1.0016751
1.0017244
1.0017755
1.0018284
1.0018831
1.0019398
1.0019981
1.0020583
1.0021203
1.002184
1.0022491
1.0023156
1.0023833
1.0024519
1.0025209
1.0025899
1.0026585
1.0027258
1.0027911
1.0028531
1.0029107
1.0029622
1.0030056
1.0030393
1.0030589
1.003063
1.0030442
1.0029987
1.0029126
1.0027903
1.0025783
1.0005349
1.0005371
1.0005389
1.0005403
1.0005421
1.0005441
1.0005465
1.0005491
1.000552
1.0005553
1.0005588
1.0005628
1.000567
1.0005715
1.0005764
1.0005816
1.0005871
1.000593
1.0005992
1.0006058
1.0006126
1.0006199
1.0006276
1.0006356
1.0006441
1.0006529
1.0006621
1.0006717
1.0006817
1.0006922
1.0007031
1.0007144
1.0007263
1.0007386
1.0007515
1.0007649
1.0007788
1.0007932
1.0008083
1.0008239
1.0008401
1.000857
1.0008745
1.0008927
1.0009118
1.0009314
1.0009519
1.0009731
1.0009951
1.0010181
1.0010419
1.0010666
1.0010923
1.001119
1.0011468
1.0011757
1.0012056
1.0012367
1.0012691
1.0013027
1.0013376
1.0013739
1.0014116
1.0014507
1.0014914
1.0015336
1.0015774
1.0016229
1.0016701
1.0017191
1.0017697
1.0018222
1.0018765
1.0019326
1.0019903
1.00205
1.0021113
1.0021742
1.0022386
1.0023042
1.002371
1.0024386
1.0025065
1.0025745
1.0026419
1.0027078
1.0027717
1.0028324
1.0028885
1.0029386
1.0029805
1.0030129
1.0030305
1.0030337
1.0030143
1.0029691
1.0028843
1.0027639
1.0025585
1.0005347
1.000537
1.0005388
1.0005402
1.000542
1.000544
1.0005463
1.000549
1.0005519
1.0005551
1.0005587
1.0005626
1.0005668
1.0005714
1.0005762
1.0005814
1.000587
1.0005928
1.000599
1.0006055
1.0006124
1.0006197
1.0006273
1.0006354
1.0006437
1.0006525
1.0006616
1.0006712
1.0006812
1.0006916
1.0007024
1.0007137
1.0007255
1.0007377
1.0007506
1.0007638
1.0007776
1.000792
1.0008069
1.0008223
1.0008384
1.0008551
1.0008725
1.0008906
1.0009094
1.0009289
1.0009491
1.0009702
1.0009919
1.0010146
1.0010382
1.0010627
1.0010881
1.0011145
1.001142
1.0011705
1.0012001
1.0012309
1.0012628
1.001296
1.0013305
1.0013664
1.0014036
1.0014423
1.0014824
1.0015241
1.0015673
1.0016122
1.0016588
1.0017071
1.0017571
1.0018088
1.0018622
1.0019175
1.0019746
1.0020333
1.0020937
1.0021555
1.0022188
1.0022834
1.0023489
1.0024152
1.0024818
1.0025484
1.0026143
1.0026789
1.0027413
1.0028005
1.0028552
1.002904
1.0029447
1.0029761
1.0029927
1.0029951
1.0029755
1.0029307
1.0028476
1.0027292
1.0025313
1.0005345
1.0005369
1.0005386
1.0005401
1.0005418
1.0005439
1.0005462
1.0005488
1.0005518
1.000555
1.0005586
1.0005624
1.0005666
1.0005712
1.000576
1.0005812
1.0005866
1.0005925
1.0005986
1.0006051
1.0006119
1.0006191
1.0006266
1.0006345
1.0006427
1.0006513
1.0006603
1.0006697
1.0006794
1.0006896
1.0007002
1.0007113
1.0007228
1.0007348
1.0007473
1.0007602
1.0007737
1.0007877
1.0008023
1.0008174
1.0008331
1.0008494
1.0008663
1.000884
1.0009024
1.0009214
1.0009412
1.0009617
1.0009831
1.0010052
1.0010283
1.0010522
1.0010771
1.001103
1.0011298
1.0011577
1.0011868
1.001217
1.0012484
1.0012809
1.0013147
1.0013499
1.0013865
1.0014244
1.0014638
1.0015046
1.0015471
1.0015911
1.0016368
1.0016842
1.0017332
1.001784
1.0018365
1.0018906
1.0019466
1.0020041
1.0020634
1.002124
1.0021861
1.0022494
1.0023136
1.0023787
1.002444
1.0025092
1.0025739
1.0026372
1.0026984
1.0027563
1.0028099
1.0028575
1.0028973
1.0029277
1.0029438
1.0029454
1.002926
1.0028817
1.0028003
1.0026836
1.0024932
1.0005343
1.0005367
1.0005386
1.00054
1.0005417
1.0005437
1.0005461
1.0005487
1.0005515
1.0005548
1.0005583
1.0005621
1.0005662
1.0005706
1.0005753
1.0005803
1.0005857
1.0005912
1.0005971
1.0006032
1.0006097
1.0006165
1.0006236
1.000631
1.0006387
1.0006468
1.0006553
1.0006641
1.0006733
1.0006829
1.000693
1.0007033
1.0007142
1.0007256
1.0007375
1.0007497
1.0007625
1.0007758
1.0007897
1.0008041
1.0008191
1.0008348
1.000851
1.000868
1.0008856
1.0009039
1.0009229
1.0009427
1.0009634
1.0009849
1.0010072
1.0010304
1.0010545
1.0010796
1.0011056
1.0011328
1.001161
1.0011903
1.0012208
1.0012525
1.0012855
1.0013198
1.0013555
1.0013925
1.0014309
1.0014709
1.0015124
1.0015555
1.0016003
1.0016467
1.0016948
1.0017444
1.001796
1.0018492
1.001904
1.0019605
1.0020186
1.0020783
1.0021392
1.0022014
1.0022646
1.0023284
1.0023927
1.0024568
1.0025203
1.0025824
1.0026425
1.0026994
1.0027518
1.0027985
1.0028375
1.0028667
1.0028831
1.0028837
1.0028642
1.0028203
1.0027404
1.0026249
1.0024407
1.0005341
1.0005366
1.0005385
1.0005399
1.0005416
1.0005435
1.0005458
1.0005483
1.000551
1.0005541
1.0005573
1.0005607
1.0005644
1.0005683
1.0005723
1.000577
1.0005815
1.0005863
1.0005914
1.0005963
1.0006016
1.0006073
1.0006134
1.0006198
1.0006265
1.0006336
1.000641
1.0006488
1.000657
1.0006656
1.0006745
1.000684
1.0006939
1.0007042
1.000715
1.0007264
1.0007382
1.0007506
1.0007636
1.000777
1.0007911
1.0008059
1.0008212
1.0008373
1.000854
1.0008715
1.0008896
1.0009086
1.0009284
1.000949
1.0009705
1.0009929
1.0010161
1.0010404
1.0010657
1.001092
1.0011195
1.001148
1.0011777
1.0012086
1.0012408
1.0012743
1.0013092
1.0013454
1.001383
1.0014222
1.0014628
1.0015051
1.001549
1.0015945
1.0016417
1.0016906
1.001741
1.0017933
1.0018473
1.0019027
1.0019599
1.0020185
1.0020784
1.0021396
1.0022017
1.0022644
1.0023275
1.0023905
1.0024529
1.0025139
1.0025728
1.0026286
1.0026799
1.0027254
1.0027636
1.0027914
1.0028082
1.0028075
1.002788
1.0027442
1.0026652
1.0025503
1.0023712
1.0005339
1.0005365
1.0005383
1.0005396
1.0005411
1.0005429
1.0005447
1.0005467
1.0005489
1.0005509
1.0005529
1.0005549
1.0005569
1.0005591
1.0005614
1.000564
1.0005668
1.0005698
1.0005732
1.0005767
1.0005805
1.0005847
1.0005892
1.000594
1.0005993
1.0006049
1.0006109
1.0006174
1.0006243
1.0006318
1.0006398
1.0006482
1.0006571
1.0006665
1.0006763
1.0006867
1.0006976
1.0007091
1.0007212
1.0007339
1.0007472
1.0007611
1.0007757
1.000791
1.000807
1.0008237
1.0008411
1.0008594
1.0008784
1.0008984
1.0009191
1.0009408
1.0009634
1.000987
1.0010116
1.0010373
1.001064
1.0010918
1.0011209
1.0011511
1.0011825
1.0012153
1.0012494
1.0012849
1.0013218
1.0013601
1.0013999
1.0014414
1.0014844
1.001529
1.0015753
1.0016232
1.0016728
1.001724
1.0017769
1.0018313
1.0018875
1.001945
1.0020036
1.0020636
1.0021245
1.0021859
1.0022477
1.0023093
1.0023703
1.0024299
1.0024873
1.0025416
1.0025915
1.0026355
1.0026722
1.0026983
1.0027146
1.0027124
1.0026923
1.0026479
1.0025694
1.0024542
1.0022791
1.0005337
1.0005364
1.0005379
1.0005388
1.0005393
1.0005395
1.0005394
1.0005388
1.0005381
1.0005371
1.0005359
1.0005354
1.0005346
1.0005339
1.000533
1.0005333
1.000534
1.0005351
1.0005364
1.0005375
1.0005397
1.0005424
1.0005456
1.0005492
1.0005534
1.0005579
1.000563
1.0005685
1.0005751
1.0005829
1.0005901
1.0005976
1.0006056
1.0006142
1.0006233
1.0006331
1.0006434
1.0006542
1.0006658
1.0006779
1.0006907
1.0007042
1.0007183
1.0007331
1.0007486
1.0007648
1.0007818
1.0007996
1.0008181
1.0008375
1.0008577
1.0008788
1.0009009
1.0009239
1.0009478
1.0009728
1.0009988
1.001026
1.0010543
1.0010837
1.0011143
1.0011462
1.0011795
1.0012141
1.00125
1.0012875
1.0013262
1.0013666
1.0014085
1.001452
1.0014971
1.0015438
1.001592
1.0016419
1.0016934
1.0017465
1.0018009
1.0018568
1.001914
1.0019721
1.0020312
1.0020909
1.0021507
1.0022104
1.0022692
1.0023268
1.002382
1.0024341
1.0024817
1.0025235
1.0025578
1.0025821
1.0025953
1.0025921
1.0025702
1.0025241
1.0024447
1.002328
1.0021553
1.0005333
1.0005357
1.0005353
1.000533
1.0005297
1.0005247
1.0005193
1.0005129
1.0005069
1.0005013
1.0004964
1.0004923
1.000489
1.0004862
1.0004839
1.0004822
1.0004811
1.0004807
1.0004811
1.0004825
1.0004841
1.0004861
1.0004888
1.000492
1.0004957
1.0005
1.0005049
1.0005104
1.0005164
1.0005231
1.0005302
1.0005379
1.000546
1.0005546
1.0005638
1.0005735
1.0005837
1.0005945
1.0006059
1.0006178
1.0006304
1.0006436
1.0006573
1.0006717
1.0006868
1.0007026
1.0007191
1.0007363
1.0007543
1.000773
1.0007926
1.000813
1.0008342
1.0008564
1.0008796
1.0009036
1.0009286
1.0009548
1.000982
1.0010103
1.0010398
1.0010705
1.0011024
1.0011356
1.0011701
1.001206
1.0012434
1.0012821
1.0013223
1.001364
1.0014072
1.001452
1.0014983
1.0015462
1.0015954
1.0016462
1.0016984
1.001752
1.0018065
1.0018622
1.0019187
1.0019755
1.0020326
1.0020894
1.0021452
1.0021997
1.0022519
1.0023007
1.0023451
1.0023837
1.0024142
1.0024362
1.0024442
1.0024389
1.0024137
1.0023643
1.0022821
1.0021619
1.0019878
1.0005316
1.0005294
1.0005213
1.0005085
1.0004952
1.000481
1.0004686
1.0004578
1.0004484
1.0004404
1.0004336
1.0004287
1.0004246
1.0004215
1.0004196
1.0004184
1.000418
1.0004186
1.0004197
1.0004214
1.0004238
1.0004268
1.0004304
1.0004344
1.0004388
1.0004438
1.0004492
1.0004551
1.0004615
1.0004682
1.0004755
1.0004833
1.0004915
1.0005002
1.0005093
1.0005189
1.000529
1.0005396
1.0005506
1.0005623
1.0005743
1.000587
1.0006002
1.0006141
1.0006285
1.0006435
1.0006592
1.0006755
1.0006926
1.0007103
1.0007288
1.000748
1.0007681
1.000789
1.0008107
1.0008333
1.0008569
1.0008814
1.0009069
1.0009335
1.0009612
1.0009899
1.0010199
1.001051
1.0010834
1.001117
1.001152
1.0011882
1.0012259
1.001265
1.0013055
1.0013475
1.0013909
1.0014357
1.0014819
1.0015294
1.0015783
1.0016284
1.0016794
1.0017315
1.0017841
1.0018373
1.0018903
1.0019431
1.001995
1.0020453
1.0020932
1.0021379
1.0021779
1.0022124
1.0022375
1.0022581
1.0022575
1.0022499
1.0022199
1.0021655
1.0020787
1.0019533
1.0017716
1.0005218
1.0004988
1.0004708
1.0004438
1.0004219
1.000405
1.0003924
1.0003822
1.0003745
1.0003692
1.0003655
1.0003633
1.000362
1.0003619
1.0003624
1.0003635
1.0003652
1.0003675
1.0003702
1.0003735
1.0003771
1.0003811
1.0003856
1.0003903
1.0003954
1.0004009
1.0004067
1.0004129
1.0004194
1.0004263
1.0004335
1.0004411
1.000449
1.0004574
1.0004661
1.0004752
1.0004847
1.0004947
1.0005051
1.0005159
1.0005272
1.0005389
1.0005511
1.0005638
1.0005772
1.000591
1.0006055
1.0006204
1.000636
1.0006523
1.0006692
1.0006868
1.0007051
1.0007241
1.000744
1.0007646
1.0007861
1.0008084
1.0008317
1.0008558
1.000881
1.0009072
1.0009345
1.0009628
1.0009923
1.0010229
1.0010548
1.0010879
1.0011222
1.0011578
1.0011945
1.0012328
1.0012723
1.0013132
1.0013553
1.0013987
1.0014432
1.0014887
1.0015353
1.0015827
1.0016307
1.0016788
1.0017271
1.0017749
1.0018219
1.0018671
1.0019101
1.0019499
1.001985
1.0020148
1.0020354
1.0020503
1.0020478
1.0020351
1.0020005
1.001942
1.0018507
1.0017226
1.0015255
1.0004686
1.0004128
1.0003748
1.000351
1.0003363
1.0003281
1.0003237
1.0003216
1.0003206
1.0003208
1.0003217
1.000323
1.0003246
1.0003267
1.0003291
1.0003319
1.000335
1.0003384
1.000342
1.000346
1.0003502
1.0003545
1.0003592
1.0003641
1.0003691
1.0003745
1.0003801
1.000386
1.0003922
1.0003987
1.0004054
1.0004125
1.0004198
1.0004274
1.0004355
1.0004437
1.0004524
1.0004614
1.0004708
1.0004806
1.0004908
1.0005014
1.0005124
1.0005239
1.0005358
1.0005482
1.000561
1.0005744
1.0005884
1.0006029
1.000618
1.0006336
1.00065
1.0006669
1.0006846
1.000703
1.0007221
1.000742
1.0007627
1.0007843
1.0008067
1.00083
1.0008542
1.0008794
1.0009056
1.0009328
1.0009611
1.0009905
1.001021
1.0010527
1.0010855
1.0011195
1.0011547
1.0011911
1.0012286
1.0012673
1.0013068
1.0013475
1.001389
1.0014314
1.0014742
1.0015173
1.0015603
1.0016032
1.0016451
1.0016856
1.001724
1.0017594
1.0017908
1.0018178
1.0018354
1.0018503
1.0018463
1.0018322
1.0017976
1.0017406
1.0016514
1.0015329
1.0013371
1.0003325
1.0003072
1.0002966
1.0002957
1.0002968
1.0002983
1.0003
1.0003017
1.0003036
1.0003057
1.0003079
1.0003102
1.0003127
1.0003152
1.0003179
1.0003209
1.0003241
1.0003276
1.0003313
1.0003352
1.0003393
1.0003435
1.0003478
1.0003524
1.0003572
1.0003622
1.0003675
1.0003729
1.0003786
1.0003845
1.0003907
1.0003972
1.0004039
1.000411
1.0004183
1.0004258
1.0004337
1.000442
1.0004505
1.0004594
1.0004687
1.0004783
1.0004883
1.0004988
1.0005096
1.0005209
1.0005326
1.0005447
1.0005574
1.0005705
1.0005842
1.0005983
1.0006131
1.0006284
1.0006444
1.0006609
1.0006782
1.0006961
1.0007148
1.0007341
1.0007543
1.0007753
1.0007971
1.0008198
1.0008433
1.0008678
1.0008933
1.0009197
1.0009471
1.0009756
1.0010051
1.0010357
1.0010673
1.0011001
1.0011339
1.0011687
1.0012045
1.0012412
1.0012788
1.0013171
1.0013561
1.0013954
1.0014348
1.0014741
1.0015128
1.0015505
1.001587
1.0016219
1.0016545
1.0016842
1.0017071
1.0017186
1.001722
1.0017118
1.0016828
1.0016384
1.001567
1.0014959
1.0013288
1.0011447
1.0011599
1.0013017
1.0015263
1.0017489
1.0019223
1.0020508
1.0021457
1.0022166
1.0022698
1.0023081
1.0023347
1.0023528
1.0023675
1.0023835
1.0024047
1.0024341
1.0024765
1.0025509
1.001023
1.0009905
1.0010797
1.0012709
1.0015008
1.0016855
1.0018219
1.0019226
1.0019977
1.0020537
1.0020943
1.0021217
1.0021389
1.0021504
1.0021605
1.0021729
1.0021906
1.0022101
1.0022677
1.0007574
1.0007611
1.0008312
1.0009872
1.0012012
1.0013993
1.0015445
1.0016501
1.0017281
1.0017857
1.0018276
1.0018546
1.0018703
1.0018783
1.001883
1.0018865
1.0018949
1.0018975
1.0019326
1.0007123
1.0004743
1.0005276
1.0006383
1.0008297
1.0010459
1.0012074
1.0013212
1.0014038
1.0014642
1.0015082
1.0015357
1.0015508
1.0015563
1.0015564
1.0015528
1.0015519
1.0015433
1.0015542
1.0003605
1.0001855
1.0002251
1.0002741
1.0004019
1.0006249
1.0008099
1.000936
1.001025
1.0010895
1.0011367
1.0011658
1.0011813
1.0011848
1.0011811
1.0011712
1.0011602
1.0011415
1.0011277
1.0004541
0.99986446
0.99982841
0.99987535
0.99996402
1.0001523
1.0003624
1.0005054
1.0006009
1.0006682
1.0007175
1.0007475
1.0007624
1.0007637
1.000756
1.0007401
1.0007187
1.0006908
1.0006538
1.0002312
0.99913118
0.99943791
0.99945141
0.99949562
0.99964803
0.9998608
1.0000239
1.0001287
1.0001995
1.0002507
1.0002814
1.0002962
1.0002951
1.0002839
1.0002628
1.0002314
1.0001953
1.0001375
0.99936849
0.99936031
0.99892113
0.99890403
0.99898048
0.99910313
0.9993106
0.99949469
0.99961276
0.99968835
0.9997418
0.99977378
0.99978858
0.9997859
0.99977179
0.99974649
0.99970645
0.99966317
0.99958714
0.99991572
0.99875394
0.99853625
0.99842636
0.99842614
0.99853361
0.99872804
0.99892759
0.99906244
0.99914532
0.99920173
0.99923555
0.999251
0.99924765
0.99923142
0.99920313
0.99915605
0.99910703
0.99901572
0.99798004
0.99844671
0.99795851
0.99785437
0.99788577
0.9979603
0.99813435
0.99834967
0.99850301
0.99859406
0.99865312
0.99868826
0.99870406
0.99870023
0.99868231
0.99865185
0.99859936
0.99854617
0.9984428
0.99887235
0.99874312
0.99775872
0.99744586
0.99737614
0.9974196
0.99755511
0.99776911
0.99794641
0.9980504
0.99811389
0.99815118
0.99816821
0.99816497
0.99814668
0.99811555
0.99805994
0.99800482
0.99789313
0.99926606
0.99825829
0.99752435
0.99704544
0.99688023
0.99688585
0.99698901
0.99718761
0.99739044
0.99751607
0.99758978
0.99763388
0.99765605
0.99765734
0.99764268
0.9976148
0.9975605
0.99750763
0.99739289
0.99842138
0.99804156
0.99759986
0.99684679
0.99652196
0.99646133
0.99652862
0.9966991
0.99691321
0.99705835
0.99714069
0.99718972
0.9972156
0.99722072
0.99720957
0.99718549
0.99713432
0.9970862
0.99697241
0.99812627
0.99790241
0.99746548
0.99673825
0.99629617
0.99617422
0.99620748
0.99634797
0.99655928
0.99671839
0.9968061
0.99685664
0.99688354
0.99688995
0.99688045
0.99685899
0.99681131
0.99676902
0.9966587
0.99806191
0.9977986
0.99731105
0.99670014
0.99617633
0.99598374
0.99598296
0.99609856
0.99630086
0.99647148
0.99656681
0.99662061
0.99664942
0.99665882
0.99665308
0.99663543
0.99659454
0.99655782
0.99645804
0.99802524
0.99775037
0.99723254
0.99665915
0.99611705
0.99587895
0.99585247
0.99595486
0.99614935
0.99632433
0.99642252
0.99647677
0.99650793
0.99651982
0.99651854
0.99650665
0.99647646
0.99644657
0.99636164
0.99800627
0.99777291
0.99725952
0.99666913
0.99613172
0.99585619
0.99580619
0.99589114
0.99607448
0.99625161
0.99635584
0.99641465
0.99644644
0.99646115
0.99646484
0.99645788
0.99643513
0.99640713
0.99634624
0.99801282
0.99782185
0.99731898
0.99669959
0.99617039
0.99588725
0.99582487
0.99591005
0.9960946
0.99626712
0.9963651
0.99641573
0.99644146
0.9964578
0.99646708
0.99646589
0.99644927
0.99642791
0.99638442
0.99803151
0.99787282
0.99738218
0.99673802
0.99621483
0.99594264
0.99587941
0.99596744
0.99615
0.99631253
0.99640356
0.99645213
0.99647942
0.9964962
0.99650393
0.99650442
0.9964922
0.99647471
0.99645193
0.9980642
0.99792718
0.99743982
0.99677605
0.99626942
0.9960089
0.99595311
0.99605177
0.99623626
0.99638511
0.99646624
0.99650933
0.99653582
0.99655168
0.99655935
0.99656048
0.99655062
0.99653975
0.9965354
0.99810294
0.9979755
0.99747492
0.9968027
0.99632041
0.99607944
0.99603822
0.99615467
0.99633757
0.99647054
0.99654019
0.99657827
0.99660238
0.9966165
0.99662337
0.99662358
0.99661688
0.99661554
0.99662475
0.99814151
0.9980177
0.99749469
0.99682977
0.9963622
0.99614933
0.99612903
0.99626671
0.99644222
0.99655694
0.99661518
0.99664856
0.9966696
0.99668142
0.99668728
0.99668658
0.99668552
0.99669446
0.99671141
0.99818151
0.99805439
0.99748149
0.99682113
0.99639746
0.99621699
0.996225
0.99638203
0.99654443
0.99663962
0.99668771
0.99671636
0.99673366
0.99674286
0.99674679
0.99674713
0.99675427
0.99677235
0.99679335
0.99821839
0.99807845
0.99746074
0.99680668
0.99642595
0.99628278
0.99632399
0.99649397
0.9966379
0.99671413
0.99675352
0.99677685
0.99678981
0.99679675
0.99679946
0.99680718
0.99682568
0.99684791
0.99685903
0.99825326
0.99809672
0.99743712
0.99681575
0.99645503
0.9963454
0.99642523
0.99659817
0.99672069
0.99678097
0.99681338
0.99683197
0.996842
0.99684726
0.99685352
0.99686733
0.99688529
0.99689301
0.99693212
0.99828255
0.99809904
0.99740892
0.99680458
0.99648558
0.99640983
0.99652439
0.99668927
0.99678905
0.99683649
0.99686161
0.99687415
0.99687979
0.99688499
0.99689664
0.99691156
0.99693066
0.99694789
0.99726199
0.99832252
0.99809784
0.99737188
0.99678624
0.9965234
0.99648278
0.99662705
0.99677555
0.99685362
0.99689043
0.99690913
0.9969194
0.99692995
0.99694547
0.99695495
0.99697263
0.99700498
0.99716708
0.99827691
0.99834421
0.99807756
0.99733134
0.99677495
0.9965615
0.99655568
0.99671389
0.99684391
0.9969055
0.99693476
0.99695017
0.99696045
0.99696625
0.99696387
0.99696523
0.99697698
0.99712099
0.99765004
0.99981669
0.99843725
0.99807701
0.99726532
0.99676645
0.99659379
0.99665578
0.9968287
0.99692706
0.99696802
0.99698984
0.99700267
0.99701022
0.99701365
0.99702524
0.99706458
0.99719628
0.99770952
0.99895438
1.0007216
0.99824329
0.99805836
0.9973322
0.99682602
0.99664665
0.99669648
0.99685061
0.99694679
0.99699536
0.997023
0.99704672
0.99707303
0.99708581
0.99710898
0.99717466
0.99738324
0.99795846
0.99955395
1.0010433
0.99884197
0.99816171
0.99739567
0.99686699
0.99665247
0.99669114
0.99684622
0.99694894
0.99700071
0.99702937
0.99705197
0.99707137
0.99709119
0.99709818
0.99715669
0.99733154
0.9979346
0.99970598
1.0009981
0.99833319
0.99816809
0.99743295
0.9969061
0.99667572
0.99668998
0.99684504
0.99694874
0.996998
0.99702577
0.9970484
0.99707018
0.99709113
0.99709814
0.99713249
0.99733113
0.99800103
0.99986254
1.0009395
0.99826826
0.99819382
0.9974795
0.99694948
0.99671618
0.99673093
0.99687205
0.99697455
0.99702232
0.997043
0.99706276
0.99708345
0.99710329
0.99710886
0.99713298
0.99735952
0.99813863
1.00004
1.0009005
0.99823656
0.99814718
0.99752412
0.99699914
0.99673407
0.99674307
0.99687628
0.99697911
0.99702883
0.99705372
0.99707295
0.997093
0.99711091
0.99711577
0.99715101
0.99737211
0.99829625
1.0001788
1.0008615
0.99834655
0.99816827
0.99756318
0.99703317
0.99676679
0.99674883
0.99687375
0.99697515
0.99702646
0.99705155
0.99707103
0.99709088
0.99710833
0.99711209
0.99714582
0.99736212
0.99846784
1.0002984
1.0008391
0.99814391
0.99812164
0.99759966
0.99707447
0.99677443
0.99675666
0.99687203
0.99697029
0.99701924
0.99704556
0.9970653
0.99708528
0.99710352
0.99710792
0.99714266
0.99740289
0.998649
1.0003922
1.0008291
0.99872115
0.99816426
0.99761268
0.99706785
0.99679248
0.99673763
0.99684056
0.99695004
0.99700037
0.99703058
0.99705474
0.99707675
0.99709705
0.99710407
0.99714111
0.99736836
0.99882133
1.000468
1.0008312
0.99827423
0.99820834
0.99764593
0.99711549
0.99676085
0.99673719
0.99684836
0.99694713
0.99700067
0.99703083
0.99705422
0.99707631
0.99709581
0.99710509
0.99714084
0.99750018
0.99900778
1.000527
1.0008412
0.99821267
0.99821432
0.99766776
0.99713003
0.99682992
0.99676441
0.99686998
0.9969775
0.99702186
0.99704854
0.99706888
0.99708776
0.99710491
0.99711371
0.99714421
0.99749673
0.9991993
1.0005683
1.0008539
0.99821371
0.99818057
0.99770516
0.99718931
0.99686693
0.99678783
0.99687778
0.99698122
0.99703627
0.99706165
0.9970806
0.99710116
0.99711498
0.99712404
0.99716029
0.9976207
0.99939106
1.0005998
1.0008666
0.99825111
0.9981684
0.99772642
0.99719839
0.99685319
0.99679243
0.99688051
0.99698256
0.99703908
0.99706623
0.99708654
0.99710631
0.99712226
0.99713263
0.99716368
0.99770374
0.99957368
1.0006259
1.0008786
0.99826769
0.99815767
0.99774334
0.99722736
0.996905
0.99680543
0.99688217
0.99698392
0.99704207
0.99707111
0.99709163
0.99711157
0.99712912
0.99714005
0.99718076
0.99785094
0.99974462
1.0006512
1.0008897
0.99839033
0.9981755
0.99777794
0.99727714
0.99691012
0.99681575
0.99688543
0.99698763
0.99704633
0.99707601
0.99709793
0.99711789
0.99713526
0.99714905
0.99718153
0.99800001
0.99989507
1.000678
1.0009009
0.9981736
0.9981517
0.99778636
0.99728537
0.99696047
0.99683394
0.99689076
0.99699133
0.99705203
0.99708292
0.99710514
0.99712551
0.99714298
0.99715794
0.99720077
0.99817683
1.0000226
1.0007052
1.0009123
0.99866957
0.99819085
0.99780307
0.99730569
0.99694085
0.99682343
0.99687944
0.99698222
0.99704737
0.99708066
0.99710502
0.99712749
0.99714682
0.997163
0.99720333
0.99836355
1.0001348
1.000733
1.0009239
0.99828037
0.9982286
0.99781302
0.99732658
0.99697337
0.9968351
0.99688189
0.9969856
0.99704992
0.99708409
0.99710938
0.99713237
0.99714969
0.99717113
0.9972349
0.99855137
1.0002322
1.000762
1.0009367
0.99821704
0.99823197
0.99784842
0.99738127
0.99701894
0.99687088
0.99691337
0.99701124
0.99707356
0.99710474
0.99712765
0.99714828
0.99716333
0.99718377
0.99728603
0.99873841
1.0003066
1.0007901
1.0009505
0.99822021
0.998222
0.99786688
0.9973973
0.99703926
0.99689291
0.99691956
0.99702029
0.99708561
0.99711909
0.99714309
0.99716307
0.99717752
0.99720001
0.9973699
0.99892435
1.0003644
1.000817
1.0009649
0.9982352
0.99819479
0.99788349
0.99742482
0.99706102
0.99690621
0.99692758
0.99702307
0.99709036
0.9971256
0.99715067
0.99717137
0.99718696
0.99721248
0.99746208
0.99910688
1.000405
1.0008399
1.0009795
0.99832588
0.99820053
0.99789923
0.99745328
0.99708092
0.99691738
0.99692702
0.99702781
0.99709519
0.99713229
0.99715856
0.99717944
0.9971956
0.99722865
0.99757939
0.99927559
1.0004372
1.0008584
1.0009937
0.99815411
0.99817203
0.99792061
0.99747677
0.99710755
0.99693568
0.99693699
0.99702861
0.99709946
0.99713739
0.9971636
0.99718525
0.99720378
0.9972399
0.99773513
0.9994306
1.0004685
1.0008739
1.0010073
0.99859647
0.99820945
0.9979325
0.99749299
0.99710787
0.99692449
0.99692853
0.99702172
0.99709493
0.99713644