-0.5 	1.0155149
-0.48412699 	1.0211131
-0.46825397 	1.0200938
-0.45238095 	1.0200926
-0.43650794 	1.0213055
-0.42063492 	1.0181685
-0.40476191 	1.0157143
-0.3888889 	1.018356
-0.37301588 	1.0163666
-0.35714287 	1.0154068
-0.34126985 	1.0167213
-0.32539684 	1.0119394
-0.30952379 	1.0142714
-0.29365078 	1.0145187
-0.27777776 	1.0084778
-0.26190475 	1.0106679
-0.24603173 	1.0098814
-0.23015872 	1.0080617
-0.2142857 	1.0065554
-0.19841269 	1.0065053
-0.18253967 	1.0035708
-0.16666666 	1.0055351
-0.15079364 	1.0019079
-0.13492063 	1.0027436
-0.11904758 	1.0007324
-0.10317457 	1.0005663
-0.087301552 	1.0008211
-0.071428537 	1.0033621
-0.055555522 	0.99723795
-0.039682507 	1.0001819
-0.023809493 	1.0004516
-0.0079364777 	1.0042744
0.0079365373 	1.0038589
0.023809552 	1.0014118
0.039682567 	1.0024804
0.055555582 	1.0087234
0.071428597 	1.0003207
0.087301612 	1.0016327
0.10317463 	1.0104728
0.11904764 	0.99840414
0.13492066 	1.0078464
0.15079367 	1.0057702
0.16666669 	1.0003019
0.1825397 	1.0074629
0.19841272 	1.0057746
0.21428573 	1.0026716
0.23015875 	1.0042787
0.24603176 	1.0070365
0.26190484 	1.0032094
0.27777785 	1.0039478
0.29365087 	1.0054678
0.30952388 	1.0014451
0.3253969 	1.0044238
0.34126991 	1.0042884
0.35714292 	1.0045294
0.37301594 	1.0057345
0.38888895 	1.0054277
0.40476197 	1.0036155
0.42063499 	0.99993307
0.436508 	0.99734756
0.45238101 	0.99630897
0.46825403 	0.99602266
0.48412704 	0.99475119
0.5 	0.98429054
