-0.5 	0.99791787
-0.48412699 	1.0013243
-0.46825397 	0.99592385
-0.45238095 	0.99292387
-0.43650794 	0.99381928
-0.42063492 	0.98751989
-0.40476191 	0.99030373
-0.3888889 	0.99544762
-0.37301588 	0.99081811
-0.35714287 	0.98216611
-0.34126985 	0.98214467
-0.32539684 	0.99004542
-0.30952379 	0.99586879
-0.29365078 	0.99421138
-0.27777776 	0.98724876
-0.26190475 	0.98003339
-0.24603173 	0.97686888
-0.23015872 	0.98117022
-0.2142857 	0.98697931
-0.19841269 	0.99083746
-0.18253967 	0.99176759
-0.16666666 	0.98973589
-0.15079364 	0.98635477
-0.13492063 	0.9825981
-0.11904758 	0.97884019
-0.10317457 	0.97589197
-0.087301552 	0.97503445
-0.071428537 	0.97561919
-0.055555522 	0.97754921
-0.039682507 	0.97996754
-0.023809493 	0.98191751
-0.0079364777 	0.98354858
0.0079365373 	0.98505229
0.023809552 	0.9865478
0.039682567 	0.98796409
0.055555582 	0.98926161
0.071428597 	0.99080251
0.087301612 	0.99250802
0.10317463 	0.99417387
0.11904764 	0.99508958
0.13492066 	0.99451462
0.15079367 	0.99311997
0.16666669 	0.991379
0.1825397 	0.99195965
0.19841272 	0.99405551
0.21428573 	0.99557733
0.23015875 	0.99540153
0.24603176 	0.99308962
0.26190484 	0.9910218
0.27777785 	0.99258926
0.29365087 	0.99706421
0.30952388 	1.0005343
0.3253969 	0.99924392
0.34126991 	0.99436981
0.35714292 	0.98881444
0.37301594 	0.98526701
0.38888895 	0.98963315
0.40476197 	0.99802023
0.42063499 	0.99501885
0.436508 	0.98821515
0.45238101 	0.99768212
0.46825403 	0.99893039
0.48412704 	0.98552702
0.5 	0.9914262
