/*--------------------------------*- C++ -*----------------------------------*\
| =========                 |                                                 |
| \\      /  F ield         | OpenFOAM: The Open Source CFD Toolbox           |
|  \\    /   O peration     | Version:  2406                                  |
|   \\  /    A nd           | Website:  www.openfoam.com                      |
|    \\/     M anipulation  |                                                 |
\*---------------------------------------------------------------------------*/
FoamFile
{
    version     2.0;
    format      ascii;
    arch        "LSB;label=32;scalar=64";
    class       volScalarField;
    location    "115";
    object      k;
}
// * * * * * * * * * * * * * * * * * * * * * * * * * * * * * * * * * * * * * //

dimensions      [0 2 -2 0 0 0 0];

internalField   nonuniform List<scalar> 
20580
(
3.1594482e-06
2.4117291e-06
1.9028443e-06
1.5577888e-06
1.3193105e-06
1.1569302e-06
1.0357395e-06
9.3741705e-07
8.6211898e-07
7.9865619e-07
7.4788786e-07
7.0270667e-07
6.6400803e-07
6.3074149e-07
6.0141396e-07
5.7639925e-07
5.5761801e-07
5.4272459e-07
5.2962459e-07
5.2130538e-07
5.1569612e-07
5.0388186e-07
4.9676467e-07
5.0237452e-07
5.1301437e-07
5.2493348e-07
5.4511397e-07
5.7052427e-07
5.9387825e-07
6.3679626e-07
7.3312604e-07
3.1652477e-06
2.4271485e-06
1.9266442e-06
1.5877584e-06
1.3451537e-06
1.174986e-06
1.046688e-06
9.4486874e-07
8.6760124e-07
8.0307607e-07
7.5188235e-07
7.067278e-07
6.6686371e-07
6.3497123e-07
6.0433899e-07
5.7942641e-07
5.5945909e-07
5.4564222e-07
5.3029553e-07
5.2441339e-07
5.2139195e-07
5.1394398e-07
5.0407159e-07
5.0930248e-07
5.2015165e-07
5.332187e-07
5.5339444e-07
5.8377929e-07
6.1400013e-07
6.4618264e-07
7.25589e-07
3.1644619e-06
2.4261329e-06
1.9262032e-06
1.5987962e-06
1.3692091e-06
1.2008939e-06
1.0689163e-06
9.6319819e-07
8.8044133e-07
8.1299908e-07
7.5942662e-07
7.1264789e-07
6.7185213e-07
6.3918274e-07
6.0741618e-07
5.8287844e-07
5.6263694e-07
5.4794006e-07
5.3147953e-07
5.2431332e-07
5.2015519e-07
5.1334631e-07
5.0396626e-07
5.0701872e-07
5.1600174e-07
5.281753e-07
5.4206414e-07
5.6627334e-07
6.0724408e-07
6.3800543e-07
7.2306115e-07
3.1658501e-06
2.4211356e-06
1.9178594e-06
1.5939454e-06
1.3741634e-06
1.2172066e-06
1.0949919e-06
9.9339069e-07
9.0881822e-07
8.3669802e-07
7.7729474e-07
7.2593158e-07
6.8268168e-07
6.4751549e-07
6.1447131e-07
5.8783721e-07
5.673567e-07
5.5031026e-07
5.3483997e-07
5.2626687e-07
5.193441e-07
5.1312946e-07
5.0522282e-07
5.0622974e-07
5.1447233e-07
5.2951235e-07
5.4525157e-07
5.6362876e-07
5.8763342e-07
6.0887836e-07
6.808857e-07
3.1705666e-06
2.424179e-06
1.9182771e-06
1.5839557e-06
1.3716949e-06
1.2235727e-06
1.1056449e-06
1.0132741e-06
9.3292199e-07
8.6458817e-07
8.0807553e-07
7.5515319e-07
7.0891546e-07
6.6949671e-07
6.3318487e-07
6.0059046e-07
5.7658551e-07
5.5571724e-07
5.3904188e-07
5.2932941e-07
5.1989845e-07
5.1447617e-07
5.0983997e-07
5.0918379e-07
5.1694453e-07
5.3463508e-07
5.6498573e-07
5.9176277e-07
6.1209e-07
6.3369975e-07
6.6670219e-07
3.1806009e-06
2.4364217e-06
1.9209003e-06
1.5836243e-06
1.3707658e-06
1.2216674e-06
1.104137e-06
1.0139254e-06
9.3771853e-07
8.7731981e-07
8.2665114e-07
7.7782781e-07
7.3721903e-07
6.9773836e-07
6.6071649e-07
6.2822368e-07
5.9916384e-07
5.6986205e-07
5.4866412e-07
5.3518008e-07
5.2276184e-07
5.1693371e-07
5.1300512e-07
5.0994649e-07
5.1481951e-07
5.3337355e-07
5.6352913e-07
6.1323343e-07
6.4964882e-07
7.2777584e-07
7.2481215e-07
3.2283662e-06
2.4832881e-06
1.9355481e-06
1.589172e-06
1.3678351e-06
1.2071711e-06
1.0894696e-06
1.0045611e-06
9.3304585e-07
8.7586911e-07
8.2825149e-07
7.8402586e-07
7.4533759e-07
7.0944661e-07
6.7785215e-07
6.460873e-07
6.1824722e-07
5.9400304e-07
5.7118349e-07
5.4921877e-07
5.3050162e-07
5.2185164e-07
5.1618574e-07
5.0804905e-07
5.0704374e-07
5.2061187e-07
5.449978e-07
5.9436459e-07
6.3410916e-07
7.192884e-07
7.8242355e-07
3.491119e-06
2.8444857e-06
2.0549473e-06
1.6311898e-06
1.3779896e-06
1.2078409e-06
1.082933e-06
9.8590776e-07
9.1341558e-07
8.5826038e-07
8.1721509e-07
7.7682376e-07
7.4164426e-07
7.0774985e-07
6.7758739e-07
6.5095199e-07
6.2764043e-07
6.0467265e-07
5.8858887e-07
5.7464861e-07
5.506522e-07
5.3487107e-07
5.2658232e-07
5.1403765e-07
5.0666178e-07
5.1279594e-07
5.2638359e-07
5.4419128e-07
5.7730504e-07
6.3385535e-07
7.6121473e-07
3.7805197e-06
3.2455591e-06
2.4147295e-06
1.8129457e-06
1.4687321e-06
1.258027e-06
1.1076049e-06
9.9516341e-07
9.1219707e-07
8.486145e-07
7.9567675e-07
7.5007593e-07
7.1736679e-07
6.8706736e-07
6.6472486e-07
6.4522356e-07
6.2429797e-07
6.0508501e-07
5.9656873e-07
5.8313729e-07
5.7033697e-07
5.6231658e-07
5.559973e-07
5.4080502e-07
5.2328448e-07
5.2430794e-07
5.3533318e-07
5.5078732e-07
5.7708079e-07
6.0418853e-07
6.7664583e-07
3.1647042e-06
2.9736798e-06
2.4960567e-06
2.1181823e-06
1.7929989e-06
1.5003727e-06
1.2545237e-06
1.084214e-06
9.6237203e-07
8.7485685e-07
8.0700063e-07
7.5204396e-07
7.0939345e-07
6.7188837e-07
6.4304792e-07
6.247207e-07
6.0734531e-07
5.9677281e-07
5.9232274e-07
5.8273678e-07
5.7494777e-07
5.7749752e-07
5.8021284e-07
5.8144386e-07
5.7538471e-07
5.7445792e-07
5.8135371e-07
6.0020856e-07
6.2436855e-07
6.504453e-07
6.9492394e-07
3.1641888e-06
2.5484068e-06
2.2816178e-06
2.074106e-06
1.9138759e-06
1.7756143e-06
1.619266e-06
1.4314629e-06
1.225774e-06
1.0403542e-06
9.1281716e-07
8.1903372e-07
7.5027834e-07
6.9684414e-07
6.5594883e-07
6.2756517e-07
6.0672384e-07
5.9042002e-07
5.8192417e-07
5.7338942e-07
5.7104112e-07
5.769654e-07
5.805979e-07
5.9066619e-07
6.0114958e-07
6.1313696e-07
6.2668904e-07
6.7174904e-07
7.0863301e-07
7.8224703e-07
7.941908e-07
3.3259459e-06
2.7378694e-06
2.1870758e-06
1.8793708e-06
1.7109045e-06
1.6760719e-06
1.6040736e-06
1.5373067e-06
1.4703096e-06
1.383031e-06
1.2617028e-06
1.1419622e-06
1.0117418e-06
8.8079745e-07
7.8268091e-07
7.1083208e-07
6.607029e-07
6.2535333e-07
6.0173311e-07
5.8364372e-07
5.7323586e-07
5.7496251e-07
5.7587466e-07
5.8372619e-07
5.9811062e-07
6.094044e-07
6.1880783e-07
6.4999554e-07
7.0026411e-07
7.7897424e-07
8.5676154e-07
3.3725557e-06
2.998455e-06
2.327812e-06
1.9008776e-06
1.6350011e-06
1.4595187e-06
1.3765313e-06
1.3182813e-06
1.3090518e-06
1.3044188e-06
1.2763759e-06
1.2658024e-06
1.2447537e-06
1.2185297e-06
1.1738788e-06
1.0835202e-06
9.8447908e-07
8.8522765e-07
7.891088e-07
7.1613939e-07
6.6522899e-07
6.3168055e-07
6.0995423e-07
6.039919e-07
6.0892678e-07
6.1166734e-07
6.1225078e-07
6.2421842e-07
6.5957711e-07
7.2002102e-07
7.8920904e-07
3.2210099e-06
2.7573887e-06
2.3092123e-06
1.9685969e-06
1.7240055e-06
1.5161752e-06
1.3627669e-06
1.2573413e-06
1.1547201e-06
1.0812505e-06
1.0669361e-06
1.0697617e-06
1.0842894e-06
1.1196058e-06
1.1345045e-06
1.1552209e-06
1.1712631e-06
1.174416e-06
1.1663005e-06
1.137834e-06
1.0902805e-06
1.0148461e-06
9.4286046e-07
8.5476212e-07
7.8718974e-07
7.3953861e-07
6.9955242e-07
6.9407274e-07
7.1055068e-07
7.6159988e-07
7.941306e-07
3.229889e-06
2.6166093e-06
2.1568317e-06
1.8832095e-06
1.6923677e-06
1.5326555e-06
1.3957943e-06
1.2870637e-06
1.1777943e-06
1.079221e-06
1.017534e-06
9.6365878e-07
9.104814e-07
8.9826398e-07
9.0474821e-07
9.2952478e-07
9.7621223e-07
1.040042e-06
1.0949362e-06
1.1293991e-06
1.1625688e-06
1.1942817e-06
1.220005e-06
1.2297215e-06
1.2297532e-06
1.2229292e-06
1.1860633e-06
1.1402618e-06
1.1004931e-06
1.0968382e-06
1.0560229e-06
3.1533247e-06
2.4612971e-06
2.0001672e-06
1.6967483e-06
1.4970217e-06
1.3860399e-06
1.2838259e-06
1.2078115e-06
1.134054e-06
1.0617614e-06
1.0011026e-06
9.4326357e-07
8.9144461e-07
8.5555758e-07
8.2228805e-07
8.0320554e-07
8.0187079e-07
8.0687571e-07
8.2357086e-07
8.7217968e-07
9.2548972e-07
9.9231741e-07
1.0637197e-06
1.1543989e-06
1.2034553e-06
1.2669249e-06
1.3215351e-06
1.3918659e-06
1.4306774e-06
1.5216787e-06
1.5521918e-06
3.2269031e-06
2.5843939e-06
2.0392565e-06
1.6899133e-06
1.4468164e-06
1.2941033e-06
1.1755681e-06
1.0843266e-06
1.0156218e-06
9.6917517e-07
9.2164875e-07
8.7617957e-07
8.3636759e-07
7.9680331e-07
7.6826816e-07
7.4301983e-07
7.2922354e-07
7.1853238e-07
7.1571304e-07
7.2366897e-07
7.3354429e-07
7.5025266e-07
7.7577446e-07
8.3834422e-07
8.9383464e-07
9.8948378e-07
1.0599645e-06
1.1820586e-06
1.2780219e-06
1.3622984e-06
1.4725712e-06
3.1754496e-06
2.4999088e-06
2.0086011e-06
1.6699472e-06
1.4308093e-06
1.2642901e-06
1.1386031e-06
1.0424015e-06
9.6333741e-07
9.0380589e-07
8.5406279e-07
8.0779043e-07
7.7144105e-07
7.3575279e-07
7.0945705e-07
6.8974422e-07
6.7781967e-07
6.6631754e-07
6.5854887e-07
6.5944956e-07
6.606326e-07
6.6059207e-07
6.6736905e-07
6.8610982e-07
7.0424762e-07
7.2265578e-07
7.585735e-07
7.993539e-07
8.7043538e-07
9.1300679e-07
1.0461932e-06
3.1682638e-06
2.5072422e-06
2.022753e-06
1.6948754e-06
1.4633115e-06
1.2915748e-06
1.1598042e-06
1.057931e-06
9.7320768e-07
9.0348375e-07
8.4659528e-07
7.9674275e-07
7.5677645e-07
7.2026782e-07
6.9088939e-07
6.6586774e-07
6.4867488e-07
6.3321711e-07
6.2353398e-07
6.1828753e-07
6.1659541e-07
6.1429992e-07
6.1827972e-07
6.3016237e-07
6.4195628e-07
6.5219473e-07
6.7999239e-07
7.0645908e-07
7.5379473e-07
7.8088736e-07
8.2681811e-07
3.2269956e-06
2.6753596e-06
2.1367172e-06
1.807507e-06
1.5932299e-06
1.4126139e-06
1.2835213e-06
1.1761281e-06
1.0735508e-06
9.8827175e-07
9.2578865e-07
8.7658117e-07
8.3238734e-07
7.9196972e-07
7.5371958e-07
7.1966704e-07
6.948237e-07
6.7472433e-07
6.6345906e-07
6.6102424e-07
6.6342774e-07
6.6601083e-07
6.7547454e-07
6.9561468e-07
7.1510246e-07
7.3705459e-07
7.6042728e-07
8.037995e-07
8.3284525e-07
8.8300002e-07
8.8006471e-07
3.3417734e-06
3.0534124e-06
2.6071282e-06
2.40933e-06
2.2299812e-06
2.0278478e-06
1.9594782e-06
1.833894e-06
1.7149653e-06
1.6367456e-06
1.6087625e-06
1.5809057e-06
1.542314e-06
1.4918049e-06
1.4280177e-06
1.3743499e-06
1.3351127e-06
1.3137148e-06
1.3109124e-06
1.3454904e-06
1.3750397e-06
1.4103515e-06
1.4353175e-06
1.4892141e-06
1.5285175e-06
1.5536641e-06
1.5736978e-06
1.6323031e-06
1.6719573e-06
1.6853974e-06
1.5771577e-06
4.5872835e-06
1.1082324e-05
8.1964358e-06
8.695579e-06
8.144655e-06
7.2102219e-06
7.838014e-06
7.0162998e-06
6.6586661e-06
6.1509457e-06
6.775145e-06
6.6201588e-06
6.6721158e-06
6.4141416e-06
6.2536573e-06
6.0898671e-06
6.2958331e-06
6.2976566e-06
6.5298349e-06
6.8075814e-06
6.9433666e-06
7.1287407e-06
7.1398786e-06
7.2312801e-06
7.2486084e-06
7.173126e-06
7.0825444e-06
7.025013e-06
6.977311e-06
6.8772961e-06
6.4365246e-06
2.0893522e-05
8.7743859e-05
5.2635077e-05
4.2781613e-05
4.7516591e-05
4.1579625e-05
3.8288225e-05
4.3674702e-05
3.8027051e-05
3.9455171e-05
3.6475329e-05
3.8982794e-05
3.6931548e-05
3.8775838e-05
3.6558882e-05
3.6185428e-05
3.4546386e-05
3.411027e-05
3.2663319e-05
3.2366949e-05
3.0974187e-05
3.0499728e-05
2.9922475e-05
2.8781128e-05
2.8476871e-05
2.7074025e-05
2.7157721e-05
2.5668863e-05
2.5252397e-05
2.3534475e-05
2.3377593e-05
2.1971902e-05
6.9244583e-06
1.825716e-06
9.7604819e-07
8.7933352e-07
1.0374311e-06
1.5239755e-06
1.6921668e-06
1.2635867e-06
9.2252187e-07
8.6628955e-07
9.3611464e-07
9.0388521e-07
8.124317e-07
7.7569462e-07
8.3429457e-07
8.7707163e-07
8.3107412e-07
7.5390958e-07
7.5244232e-07
7.9869457e-07
8.2769461e-07
8.3360895e-07
2.2396111e-05
7.4858631e-06
2.1252444e-06
1.1047427e-06
9.6659203e-07
1.0853125e-06
1.5970972e-06
1.9116417e-06
1.536241e-06
1.0857603e-06
9.4988612e-07
1.046621e-06
1.0534577e-06
9.8594609e-07
8.8084067e-07
9.0557972e-07
9.7727509e-07
9.6087736e-07
8.8766929e-07
8.6010178e-07
8.967049e-07
9.4054901e-07
9.1585667e-07
1.9175787e-05
8.3645102e-06
2.6891879e-06
1.3486245e-06
1.1329729e-06
1.1756533e-06
1.6660951e-06
2.1133261e-06
1.9178193e-06
1.368871e-06
1.0903011e-06
1.1627759e-06
1.1991243e-06
1.1563832e-06
1.0168187e-06
9.8021288e-07
1.0768246e-06
1.0983734e-06
1.0901202e-06
1.0131893e-06
1.0223685e-06
1.0572555e-06
1.0805225e-06
1.9341752e-05
8.6240851e-06
3.0777983e-06
1.651788e-06
1.3929265e-06
1.3350854e-06
1.7719335e-06
2.4181008e-06
2.3895581e-06
1.9924512e-06
1.3818301e-06
1.3842102e-06
1.4568323e-06
1.4173663e-06
1.3242873e-06
1.1812026e-06
1.245125e-06
1.335705e-06
1.3636034e-06
1.2967344e-06
1.1949557e-06
1.2165576e-06
1.2327331e-06
1.6830071e-05
8.9546591e-06
3.4336665e-06
1.932304e-06
1.5967969e-06
1.4912329e-06
1.8843322e-06
2.7659869e-06
2.8102907e-06
2.5807736e-06
1.8672298e-06
1.6288625e-06
1.7415254e-06
1.717551e-06
1.6702675e-06
1.5291963e-06
1.4991343e-06
1.5989096e-06
1.5981528e-06
1.5583791e-06
1.4145804e-06
1.409436e-06
1.432089e-06
1.568304e-05
9.1621588e-06
4.2298098e-06
2.6422879e-06
2.1434902e-06
1.9327438e-06
2.2664222e-06
3.4648073e-06
3.4294942e-06
3.0701799e-06
2.2482805e-06
1.8334534e-06
1.9649156e-06
1.9723909e-06
1.9314805e-06
1.834998e-06
1.7640977e-06
1.8743799e-06
1.8497287e-06
1.7669891e-06
1.6175584e-06
1.5521759e-06
1.6037207e-06
1.3516664e-05
9.148471e-06
4.7879383e-06
3.2990737e-06
2.7546485e-06
2.472969e-06
2.7484561e-06
4.207198e-06
4.2286876e-06
3.8167129e-06
2.9354194e-06
2.2415153e-06
2.3059184e-06
2.399506e-06
2.3180814e-06
2.2178468e-06
2.0834279e-06
2.1172551e-06
2.1690679e-06
2.0955182e-06
1.9522274e-06
1.8375539e-06
1.8592985e-06
1.2206802e-05
9.1790764e-06
5.6373583e-06
4.4153667e-06
3.7225773e-06
3.2992307e-06
3.4199055e-06
5.4251991e-06
5.9182688e-06
5.5528901e-06
4.66625e-06
3.3420888e-06
3.1660564e-06
3.3545378e-06
3.2090127e-06
3.0430279e-06
2.7088104e-06
2.5874523e-06
2.7650204e-06
2.7712421e-06
2.6418182e-06
2.3906235e-06
2.3402542e-06
1.2217467e-05
9.3827942e-06
6.3874412e-06
5.3130793e-06
4.5718394e-06
4.116347e-06
4.1284648e-06
6.5269999e-06
7.5458171e-06
7.2559445e-06
6.8499812e-06
5.3015592e-06
4.3373095e-06
4.5339717e-06
4.4113011e-06
3.9469662e-06
3.623351e-06
3.3591244e-06
3.4870491e-06
3.6725312e-06
3.6358581e-06
3.3817899e-06
3.1707941e-06
1.2993432e-05
9.6311602e-06
8.0866879e-06
7.648847e-06
6.7659555e-06
5.8199836e-06
5.5937555e-06
8.1554888e-06
9.49114e-06
9.2029424e-06
8.6540163e-06
6.8205999e-06
5.471421e-06
5.5693699e-06
5.4263423e-06
4.8524286e-06
4.4850381e-06
4.2385889e-06
4.2941287e-06
4.5324785e-06
4.5440466e-06
4.1580977e-06
3.8171072e-06
1.3085962e-05
1.0255288e-05
1.003851e-05
1.0303034e-05
9.9652329e-06
8.5850154e-06
8.0373191e-06
1.1843741e-05
1.3946827e-05
1.3256077e-05
1.1257766e-05
8.3900742e-06
6.700848e-06
6.629973e-06
6.6710478e-06
6.3820207e-06
5.6675822e-06
5.3099235e-06
5.2852072e-06
5.5631914e-06
5.4922607e-06
4.9201361e-06
4.322977e-06
1.339178e-05
1.1378142e-05
1.2968016e-05
1.5012673e-05
1.5867806e-05
1.5295293e-05
1.3527701e-05
2.1031466e-05
2.4884304e-05
2.2712967e-05
1.6738208e-05
1.1699256e-05
9.4061752e-06
9.0825227e-06
9.4358672e-06
9.3374378e-06
8.0422302e-06
7.1367135e-06
6.8021114e-06
7.1765908e-06
7.1978115e-06
6.4709681e-06
5.216528e-06
1.5124306e-05
1.3581543e-05
1.6324323e-05
1.8921139e-05
2.2714784e-05
2.5457273e-05
2.4648042e-05
3.6471854e-05
4.4634117e-05
4.0058916e-05
2.8304964e-05
2.1020185e-05
1.6177369e-05
1.5069929e-05
1.6059873e-05
1.6120855e-05
1.4060849e-05
1.1149921e-05
9.7535276e-06
1.0305578e-05
1.1173281e-05
1.0063117e-05
7.3914332e-06
1.7530635e-05
1.587124e-05
1.9736634e-05
2.6886523e-05
3.8783583e-05
4.5772824e-05
4.6483849e-05
6.3236261e-05
7.5929222e-05
6.6656196e-05
4.4945139e-05
3.3943731e-05
2.4578462e-05
2.1896112e-05
2.2668638e-05
2.26956e-05
2.0760459e-05
1.7270942e-05
1.6001856e-05
1.6632608e-05
1.9268099e-05
1.8333293e-05
1.3690577e-05
2.0797053e-05
2.0920212e-05
2.7071061e-05
3.3933069e-05
4.8058992e-05
6.5315071e-05
8.7218652e-05
0.00012301022
0.00013468993
0.00011733981
7.8511501e-05
5.9722181e-05
3.939947e-05
3.2606035e-05
3.2116691e-05
3.117357e-05
2.7181646e-05
2.2701913e-05
2.214178e-05
2.1874307e-05
2.4400848e-05
2.4598266e-05
2.2516054e-05
2.2359608e-05
2.4453231e-05
3.3560267e-05
4.1971967e-05
6.2673626e-05
0.0001094369
0.00017522722
0.00023794285
0.00023759943
0.00020903102
0.00012810531
8.9104715e-05
6.5895694e-05
5.5680241e-05
5.3486061e-05
4.9192728e-05
3.8078579e-05
2.9135278e-05
2.7782886e-05
2.672845e-05
2.8692631e-05
2.9147108e-05
2.752807e-05
2.7465831e-05
3.0197242e-05
3.8612232e-05
4.6349178e-05
7.2904107e-05
0.00014038781
0.00026651501
0.00034818257
0.00033519676
0.00025899226
0.00015779841
0.0001305603
0.00012631719
0.00012057086
0.00011764364
0.00010253815
6.5560974e-05
4.1472054e-05
3.7592127e-05
3.5926742e-05
3.817199e-05
3.8204784e-05
3.4697212e-05
2.8877449e-05
3.472931e-05
4.4716417e-05
5.5921267e-05
9.7060144e-05
0.00020544269
0.00041141656
0.00050363954
0.00047047639
0.00031861937
0.00020156949
0.0001937347
0.00024946893
0.00029911903
0.00028587736
0.00020423237
8.6610297e-05
6.0566678e-05
5.9281378e-05
5.94057e-05
6.5801965e-05
6.2466592e-05
4.6988892e-05
2.7940859e-05
3.8732315e-05
4.8912396e-05
6.4603063e-05
0.00011934963
0.00026335973
0.0005437149
0.00066881441
0.00062171071
0.00040866425
0.00026373135
0.00026395679
0.00037900701
0.00053094235
0.00050239834
0.00029451823
0.00012072356
9.6675781e-05
0.00011544138
0.00015209884
0.00017415127
0.00015053808
7.6327413e-05
2.7104631e-05
4.0342575e-05
4.9841819e-05
7.0988069e-05
0.00013839664
0.0003138997
0.00066219339
0.0008287681
0.00076983903
0.00050087055
0.00033348904
0.00034630509
0.00054856392
0.00083078556
0.00075732005
0.0003851674
0.00016755568
0.00014624442
0.00022920698
0.00034487191
0.00037203555
0.00028154644
0.00011393214
3.0736088e-05
4.0859465e-05
5.0647504e-05
7.6158235e-05
0.0001563536
0.00036582988
0.00077926964
0.00097667276
0.0009108074
0.00061420603
0.00046451878
0.0005374195
0.00098084678
0.0014321574
0.0012371911
0.00055272518
0.00024998082
0.00022365689
0.00034763573
0.0004651546
0.00047297692
0.00032426281
0.00013660765
4.0200428e-05
4.3681337e-05
5.3149799e-05
7.354879e-05
0.00014533437
0.00034812037
0.00078400677
0.0010708323
0.0010242454
0.0007828364
0.00071063357
0.00089212608
0.0015693638
0.0020128853
0.0017087188
0.00079712948
0.00039547956
0.00035999211
0.00052720428
0.00065226706
0.00058131938
0.00030508711
0.00016209018
7.2434555e-05
6.2108192e-05
6.9215573e-05
7.8312327e-05
0.00012055218
0.00028715763
0.00072776512
0.0011141992
0.0010972167
0.00094069336
0.0009281869
0.0011735495
0.0018612817
0.0021993615
0.0018755426
0.00096844889
0.0006338657
0.00064030497
0.00095587888
0.0010795233
0.00072178143
0.00033032337
0.00025217271
0.00026229357
0.00021484487
0.00016720367
0.00013162471
0.00013312594
0.00020850763
0.00056669316
0.0011235171
0.0012164963
0.0011645706
0.0011616902
0.0013915194
0.0019554112
0.0022303597
0.0019309557
0.0012427348
0.0010620556
0.0013122127
0.0016751133
0.0014890094
0.00072124909
0.00039362315
0.00035873059
0.00051937352
0.00046614991
0.00043028285
0.00033172064
0.0002334917
0.00024770127
0.00042344467
0.00098233317
0.0012242234
0.0012853798
0.0013889096
0.0016455858
0.0020553285
0.0022080838
0.0019694214
0.0015656348
0.001572364
0.0019716989
0.0021155898
0.0014307014
0.00068032596
0.00050447831
0.00052857919
0.00073676007
0.00064653848
0.00059045532
0.00054380632
0.00044098056
0.00032342238
0.00039492399
0.00068879999
0.0010965142
0.0013085656
0.001579356
0.0018699416
0.0021627417
0.0021937011
0.0020205031
0.0019121096
0.0020649848
0.0022673386
0.0019877382
0.0010879828
0.00075313363
0.00069694261
0.00068114594
0.00092071555
0.00084314666
0.0008402198
0.00080959906
0.00073615361
0.00048595692
0.00042994601
0.00056916963
0.00096362086
0.0014081443
0.0017706757
0.0020806547
0.0022724242
0.0022854963
0.0022163464
0.0021575288
0.0021152206
0.0020238546
0.0015248664
0.0010042743
0.00082231241
0.00074511115
0.00065527154
0.00114943
0.0010846345
0.001122461
0.0011076673
0.0010433675
0.00091887921
0.00063555604
0.00062301956
0.00084166874
0.0014151257
0.0018779566
0.0022230424
0.0023659174
0.0023857291
0.0022727618
0.0020280513
0.0018079932
0.0015815514
0.0012775587
0.00099619921
0.00082748615
0.00073520069
0.00071015647
0.0012752053
0.0013965012
0.0016483353
0.00167894
0.0015203039
0.0012327945
0.0007933632
0.00068561092
0.000846554
0.0013832658
0.0018731508
0.0022209854
0.0023148193
0.0022608687
0.0020847484
0.0017973337
0.0015507819
0.0013554601
0.0011532991
0.00090542715
0.0007910656
0.00075958484
0.00084026743
0.0011276034
0.0013778519
0.0018479217
0.0020994066
0.0020883647
0.0017222185
0.0010459141
0.00079038204
0.00087380574
0.0012829266
0.0016994372
0.0020395897
0.0021765618
0.0021486898
0.0019497217
0.0016340396
0.0013702499
0.0011796949
0.00091336429
0.00077412283
0.00073924107
0.00077147975
0.00083149396
0.0012805375
0.0017240073
0.0020864341
0.0023104208
0.0023052831
0.0018350259
0.0010972484
0.00082166543
0.00086031079
0.0012153212
0.0015949903
0.0019133074
0.0020723689
0.0020465231
0.001762894
0.0014147989
0.0011850546
0.00092922256
0.00075207339
0.0006847623
0.00067752726
0.00074991344
0.000786843
0.0011065911
0.0017962583
0.0021517876
0.0022978622
0.0021820103
0.0017157006
0.0010795454
0.00084136767
0.00089657394
0.001251865
0.0016191201
0.0018297492
0.0018819554
0.0017204381
0.001418442
0.0011447489
0.00091943933
0.00073541248
0.00065768502
0.00063340192
0.00066556481
0.00071315315
0.00072883431
0.001088604
0.0017873035
0.0021589262
0.0022702171
0.0020314716
0.0014934508
0.00098820593
0.00084991285
0.0009577827
0.001333229
0.0015853218
0.0016508394
0.0015732209
0.0013173442
0.0010497953
0.00087496923
0.00073169748
0.00066398435
0.00063679045
0.00063155332
0.00068956438
0.00072588476
0.00074376143
0.00093534356
0.0016915408
0.0019912656
0.0020840527
0.0017674075
0.0011607907
0.00087231985
0.00082945875
0.00099564504
0.0013356679
0.0014737442
0.001471423
0.001277324
0.0010049535
0.00080887239
0.00068078277
0.00061735425
0.00060503163
0.00061404488
0.00065474357
0.00073305037
0.00078587068
0.00087682368
0.00084403174
0.0015287498
0.0017150466
0.0017414803
0.0013714131
0.00097478648
0.0008427754
0.00084243343
0.0010483711
0.0012195723
0.0012465904
0.0011529764
0.00094911886
0.00074995668
0.00063598823
0.00058032752
0.00056680825
0.00057766016
0.0006180295
0.00070835324
0.0008512143
0.0010534343
0.0013998848
0.00075688048
0.0013632549
0.0014772653
0.0014774416
0.0011744254
0.00091435316
0.00082907446
0.00083607135
0.0010052488
0.0010834117
0.0010948463
0.0010010262
0.00082111455
0.00066460199
0.00058527035
0.00054741655
0.00053696023
0.00054549692
0.00058035982
0.00066431736
0.00079585593
0.0010120069
0.0014099681
0.00069809174
0.001246126
0.0013303829
0.0012995147
0.0010377754
0.00085633414
0.00080319551
0.00082089032
0.00094902815
0.00099412819
0.00098500589
0.00087916592
0.00070915191
0.00057509298
0.00051320491
0.00049134526
0.00048942457
0.00050304002
0.00054203816
0.00062480771
0.00076075863
0.0010249656
0.0014424275
0.00059860433
0.0011077428
0.0012044226
0.0011707701
0.00094355517
0.00080265421
0.00076151368
0.00078333517
0.00087713446
0.00090975351
0.00089561926
0.0007918234
0.00063066728
0.00050468285
0.00044912372
0.00043353222
0.00043751247
0.00045785234
0.00050714593
0.00060517271
0.00078011656
0.0011006625
0.0014544095
0.00050985144
0.00098478729
0.0011007374
0.0010895309
0.00089799384
0.00077358461
0.00073064011
0.00074216013
0.00079830903
0.00081578043
0.00079873498
0.00071235729
0.00057428425
0.00045966668
0.00040962703
0.00039565484
0.00039970061
0.00042075108
0.00047412691
0.00058528305
0.0007995777
0.0011503979
0.0013935073
0.00044362199
0.00087039292
0.00098653987
0.00099837092
0.00085191775
0.00074693808
0.00070698202
0.00070820666
0.0007370205
0.00073979976
0.00071570509
0.00064252524
0.00052807761
0.00042426056
0.00037873466
0.0003675224
0.00037311751
0.00039675813
0.00045491781
0.00058392108
0.00082929419
0.0011650328
0.00131119
0.00038972357
0.00076930242
0.00089234605
0.00091375952
0.00080420406
0.00070655403
0.00066767283
0.00066541853
0.00068409314
0.00068458245
0.00065891074
0.00059229697
0.00049379915
0.00039777862
0.00035018785
0.00033895092
0.00034340205
0.00036901371
0.00043650572
0.00058746712
0.00087151442
0.001153753
0.0012503498
0.00033688087
0.00067491008
0.00081059226
0.00084691718
0.00076498696
0.00066779442
0.00062383803
0.00061737888
0.00063007838
0.00063167934
0.00060694037
0.00054692445
0.00046318736
0.00038162992
0.00033087295
0.00031360104
0.00031412088
0.00033844696
0.00041164056
0.00058141234
0.00088043429
0.0011352845
0.0011973396
0.00028641596
0.00058187814
0.00072747732
0.00078825431
0.00073754622
0.00064354009
0.00059185573
0.00057872821
0.00058284157
0.00057958422
0.00055411782
0.00049951023
0.00042614608
0.00035892642
0.00031482625
0.00029549753
0.00029225211
0.00031311993
0.00038679718
0.00056836763
0.00087342859
0.0010965116
0.0011375038
0.00025347305
0.00048294073
0.0006328319
0.00071836084
0.00070574566
0.00062739788
0.00056730584
0.00054561316
0.00054562845
0.00054160384
0.00051754604
0.00046497591
0.00039534218
0.00033140189
0.00029250302
0.00027922039
0.0002756761
0.00028848895
0.00035353383
0.00053778518
0.0008442542
0.0010541922
0.0010859009
0.00022924374
0.00040581796
0.00054701056
0.00064522592
0.00066044316
0.00060408673
0.0005417016
0.00051410591
0.00051063635
0.00051018174
0.00049471303
0.00045068459
0.00038410171
0.00032052269
0.00027633744
0.00026004298
0.00025975096
0.00026507075
0.00030902799
0.00046603062
0.00076973854
0.00099881004
0.0010552017
0.00019900042
0.0003387844
0.00048134107
0.00058497609
0.00061877334
0.00058662015
0.00052363759
0.00048667927
0.0004794596
0.00047924899
0.00047151208
0.00044206752
0.00038435247
0.00032205848
0.00027404808
0.0002471262
0.0002427588
0.00024592727
0.0002683973
0.00037048343
0.00063495826
0.00091697736
0.0010227062
0.00017678552
0.00025483991
0.00040637255
0.00053126136
0.00058559383
0.00057314984
0.0005220553
0.00047170826
0.00045337647
0.00045212833
0.00044785554
0.00043025377
0.00038595645
0.00032576144
0.00027529942
0.00024437149
0.00022993203
0.00022964543
0.00023853738
0.00028890679
0.00046248609
0.00078047051
0.00096779547
0.00017124919
0.00017823687
0.00030072038
0.00045322414
0.00054313821
0.0005531304
0.0005208972
0.00046971714
0.00043409073
0.00042491124
0.00042442802
0.00041691222
0.00038945637
0.00033620455
0.00028335736
0.00024687905
0.00022786928
0.00021855556
0.00022000335
0.00023774699
0.0003202452
0.00054567038
0.00082495304
0.0001713116
0.00012896372
0.00020192014
0.00034048671
0.00046369319
0.00052254752
0.00051399827
0.00047660585
0.0004342941
0.00040776385
0.00040019786
0.00039856051
0.00038701383
0.00035648737
0.00030278515
0.00025659765
0.00023048174
0.00021708489
0.00020931073
0.00021232555
0.00023865497
0.00034059923
0.00057402918
0.00017261958
0.00010950132
0.00015136827
0.00024494843
0.00035870363
0.00045577496
0.00049472139
0.00047850657
0.00044208054
0.00040896463
0.00038760352
0.00037852051
0.00037561562
0.00035981531
0.00032662415
0.00027782796
0.00023852364
0.00021869151
0.00020812706
0.00020120685
0.00020599858
0.00023722583
0.00035475913
0.00017127261
0.00010550193
0.0001374111
0.00020172067
0.00028374916
0.00037074868
0.00044328349
0.00046578611
0.00045004414
0.00041603919
0.00038917821
0.00037154622
0.00036144455
0.0003554041
0.0003382611
0.00030601938
0.00026214461
0.00022760396
0.00021069556
0.00020107369
0.00019579069
0.00020139975
0.00024015399
0.00016813572
0.00010321114
0.0001322597
0.00018557454
0.00024820282
0.00031515005
0.0003819146
0.00043286503
0.00044336371
0.00042982186
0.00039873474
0.00037442473
0.00035896596
0.00034796516
0.0003374507
0.00031958227
0.00029159413
0.00025338599
0.00022128603
0.0002043015
0.00019582819
0.0001907898
0.00019877754
0.00016365239
9.4240757e-05
0.00011966705
0.00016508495
0.00021975457
0.00027783792
0.00033683935
0.00038948977
0.00042417247
0.00042708301
0.00041547325
0.00038701809
0.00036313528
0.0003481723
0.00033696864
0.00032346748
0.00030682458
0.00028214572
0.0002508983
0.00021817563
0.00020119451
0.00019107681
0.00019152833
0.00015779848
8.1933821e-05
9.4869614e-05
0.00013553822
0.0001869164
0.0002416403
0.00029766749
0.00035113413
0.00039427886
0.00041709501
0.00041550187
0.00040510623
0.00037987985
0.00035527348
0.00034001154
0.00032700091
0.00031375411
0.0002975092
0.00027796944
0.00025118062
0.00022192618
0.00019977885
0.00018855457
0.0001530651
7.7864166e-05
7.8568901e-05
0.00010829272
0.00015236112
0.00020161994
0.00025361272
0.00030659639
0.00035605307
0.00039489248
0.00041037322
0.00040896688
0.00040019892
0.00037843565
0.0003520368
0.00033461314
0.00032013157
0.00030548699
0.00029112551
0.00027424142
0.00025335851
0.00022937207
0.00020376313
0.00015405457
7.7569335e-05
7.4604166e-05
9.5454718e-05
0.00012803803
0.00016637163
0.00020942729
0.00025640844
0.00030542022
0.0003523264
0.00039031848
0.00040420315
0.00040380115
0.00039774425
0.00038135988
0.00035621586
0.0003342247
0.00031668826
0.00030114642
0.00028670588
0.0002701875
0.00025674165
0.00023167119
0.00015802953
7.7329238e-05
7.635779e-05
9.4544953e-05
0.00011838554
0.00014608021
0.00017784545
0.00021403383
0.00025465859
0.00029847105
0.00034318948
0.00038072124
0.00039653156
0.00039868161
0.00039536301
0.00038480823
0.00036608125
0.00034384196
0.00032267748
0.00030478145
0.00028608777
0.00027447229
0.00025231888
0.00015772371
7.93553e-05
8.1764133e-05
9.7088107e-05
0.00011689144
0.00013879457
0.00016287798
0.00018985756
0.00022022323
0.00025417778
0.00029142426
0.00033010635
0.000366173
0.00038749165
0.00039394638
0.00039326152
0.00038833376
0.00037659636
0.0003585552
0.00033934408
0.00031708313
0.00030274463
0.00027709483
0.00015463675
7.9943119e-05
8.311711e-05
9.7383677e-05
0.00011483375
0.00013414549
0.00015529024
0.00017814752
0.00020300192
0.00023005661
0.00025923288
0.00029016192
0.00032217159
0.00035319822
0.00037764847
0.00038918723
0.00039263461
0.00039164553
0.00038598776
0.00037435544
0.00035591489
0.00034220899
0.00031494176
0.00014947464
7.7309712e-05
8.0266105e-05
9.2327678e-05
0.00010661519
0.00012296755
0.00014193265
0.0001636758
0.00018763675
0.00021324834
0.00024011974
0.00026782824
0.00029562339
0.00032279899
0.00034860898
0.00037184249
0.0003873825
0.000394381
0.00039822118
0.0003963228
0.00038978581
0.00037960295
0.000359983
0.00014313123
7.0441285e-05
7.1780688e-05
7.9664828e-05
9.0474691e-05
0.00010387283
0.0001200718
0.00013921189
0.00016131632
0.00018616823
0.00021323918
0.00024183066
0.00027110728
0.00029973664
0.00032661947