/*--------------------------------*- C++ -*----------------------------------*\
| =========                 |                                                 |
| \\      /  F ield         | OpenFOAM: The Open Source CFD Toolbox           |
|  \\    /   O peration     | Version:  2406                                  |
|   \\  /    A nd           | Website:  www.openfoam.com                      |
|    \\/     M anipulation  |                                                 |
\*---------------------------------------------------------------------------*/
FoamFile
{
    version     2.0;
    format      ascii;
    arch        "LSB;label=32;scalar=64";
    class       volScalarField;
    location    "115";
    object      p;
}
// * * * * * * * * * * * * * * * * * * * * * * * * * * * * * * * * * * * * * //

dimensions      [1 -1 -2 0 0 0 0];

internalField   nonuniform List<scalar> 
20580
(
1.0033888
1.0058542
1.0033056
1.0060169
1.0016153
1.0042671
1.0058673
1.0037854
1.0037115
1.0037975
1.0048949
1.0044983
1.0037097
1.0040867
1.0050298
1.0037461
1.0035272
1.0083549
1.0026829
1.0025047
1.0096869
1.006148
1.0020749
1.0071067
1.0149074
1.0042619
0.99818956
1.0068385
1.0006958
0.99506758
1.0233155
1.0035886
1.0058921
1.0031738
1.0063656
1.0010611
1.0042506
1.0058977
1.0040356
1.0036325
1.0034376
1.0052798
1.004302
1.003187
1.0045749
1.0049832
1.0024591
1.0050552
1.0085654
1.000321
1.0048583
1.0111961
1.0037141
1.0032382
1.010831
1.0159704
1.0000274
0.99018652
1.0065644
1.0123198
0.99725924
1.0025036
1.0039408
1.0054674
1.0033003
1.0055307
1.001792
1.0042824
1.0048583
1.0043173
1.0039673
1.0036411
1.0050246
1.0044039
1.0031084
1.0048967
1.0048345
1.0018522
1.0061558
1.0081281
0.99890161
1.0069389
1.0113809
1.0009847
1.0036917
1.0108381
1.0145564
0.99924734
0.98681705
1.0049092
1.0221625
1.0041157
0.98366622
1.0042171
1.0047484
1.0036144
1.0037891
1.0034203
1.004196
1.0033487
1.0046532
1.0042585
1.0041239
1.004533
1.0045721
1.0033392
1.0052267
1.0046408
1.0021474
1.0066819
1.0067705
0.99901117
1.0083689
1.0098348
0.99899411
1.0043613
1.0080242
1.0095897
1.0017218
0.98976764
1.0029292
1.0264165
1.0154455
0.98002143
1.0041795
1.0038985
1.0039582
1.001829
1.0051614
1.0040231
1.0023556
1.0048676
1.0043444
1.0044005
1.0042634
1.0045911
1.0038836
1.005288
1.0045893
1.0031579
1.0066481
1.0048047
1.0007706
1.0092048
1.0069952
0.99836701
1.0062354
1.0048966
1.0022934
1.0046232
0.99850711
1.0019726
1.0206796
1.024403
0.9927646
1.0039582
1.0033286
1.0041193
1.0008345
1.0063522
1.003812
1.0026056
1.0046663
1.0042949
1.0044721
1.0043349
1.0041956
1.0045633
1.0049736
1.0042122
1.0044628
1.0062669
1.0026171
1.0032598
1.0096134
1.0039338
0.99862094
1.0099045
1.0041929
0.99534538
1.0056739
1.0100861
1.0030415
1.007038
1.0204589
1.0124819
1.0038753
1.0034844
1.0039821
1.0014381
1.0063426
1.0034311
1.0039815
1.0042207
1.0041126
1.0044271
1.0044365
1.0036819
1.0052158
1.0044214
1.0034063
1.0056493
1.0058349
1.0008064
1.005774
1.00947
1.0013144
0.99955219
1.0135156
1.006606
0.99146827
1.0044012
1.0197196
1.0075505
0.99339112
1.0021554
1.0201125
1.003795
1.0042722
1.0036335
1.0030407
1.0050531
1.0031533
1.0054322
1.0038382
1.0040224
1.0046103
1.0043046
1.0033768
1.005696
1.0039066
1.0028927
1.0062079
1.0053009
0.99994801
1.0079988
1.0086108
0.99977976
1.0013972
1.0148418
1.0098083
0.99250784
1.0019223
1.0228354
1.0140584
0.98798495
0.98196059
1.0089167
1.0035798
1.0051872
1.0032278
1.0048822
1.0032281
1.0032933
1.0059225
1.0035457
1.0041295
1.0050746
1.0041391
1.0034488
1.0056981
1.0035933
1.0028381
1.0059586
1.0046435
1.0002772
1.0092297
1.0068562
0.99989283
1.0038027
1.0130037
1.0108444
0.99783145
1.0004856
1.017749
1.0182426
0.99222588
0.97571755
0.99053044
1.0034043
1.0059277
1.0030226
1.0063147
1.0017492
1.0038217
1.0052376
1.0035055
1.0042755
1.0050518
1.0039621
1.0040226
1.0049154
1.0035154
1.0030951
1.0051261
1.0039125
1.0017398
1.0093117
1.0043905
1.0011432
1.0068329
1.0084121
1.0079197
1.0045332
1.0020001
1.0080187
1.0142651
1.0028593
0.98544365
0.98400944
1.0035167
1.0061694
1.0031325
1.0064034
1.0011315
1.0045604
1.0038219
1.0039321
1.0044328
1.0044337
1.0038378
1.004915
1.003848
1.0036351
1.0039105
1.0041586
1.0032276
1.0038352
1.0087238
1.0018968
1.0025401
1.0106473
1.0036436
1.0012493
1.0094059
1.0069846
0.99953575
1.0016057
1.0105418
1.0057133
0.99467109
1.0035534
1.0055709
1.0034928
1.0049019
1.0017048
1.0050537
1.0027156
1.0046332
1.0046576
1.0036603
1.0040561
1.0055695
1.0031208
1.0038007
1.0050842
1.0035186
1.0025684
1.0057877
1.0076993
0.99986044
1.0035904
1.0142421
1.0009887
0.99400777
1.0105001
1.0138059
0.99656064
0.9886457
1.007451
1.0228906
1.0149492
1.0035525
1.0043773
1.0038449
1.0029488
1.003429
1.0048434
1.0026456
1.0053132
1.0047881
1.0031596
1.0045091
1.0054983
1.0030066
1.003826
1.0058693
1.0033215
1.0021031
1.0072148
1.0063352
0.99899307
1.0042881
1.0158318
1.0007374
0.99047576
1.0085833
1.0185561
0.99919221
0.98438153
0.99694757
1.0254299
1.0302035
1.0038885
1.0033906
1.0039132
1.0015669
1.0053363
1.0039471
1.0035375
1.0056117
1.0045849
1.0032953
1.0048361
1.0050412
1.0033665
1.0039907
1.0058103
1.0034846
1.0022444
1.0078872
1.0047965
0.99992578
1.0047946
1.0145397
1.0023686
0.99217376
1.0061247
1.0181999
1.0053751
0.9892292
0.99164907
1.0133105
1.029517
1.0040476
1.0029997
1.0037082
1.0010989
1.0063295
1.0028829
1.0047867
1.0052062
1.0041181
1.0039933
1.0047615
1.0044518
1.0038414
1.0043262
1.0051707
1.0039486
1.0029279
1.0075137
1.003082
1.0024105
1.005497
1.0103477
1.0041037
0.99838798
1.0056867
1.0119501
1.009586
0.99952777
0.99663161
1.000907
1.0133685
1.0039914
1.0032473
1.0033559
1.0019488
1.0062203
1.0023749
1.0055437
1.0041456
1.0038085
1.0048373
1.0044014
1.0038705
1.0043743
1.00443
1.0042276
1.004299
1.0038525
1.0064363
1.0012895
1.0054638
1.0071019
1.0043384
1.0036323
1.0069986
1.0082383
1.0032301
1.0058343
1.0112077
1.0074639
0.99798179
0.99357316
1.0039126
1.0043588
1.0032701
1.0038016
1.0048951
1.0028414
1.0054854
1.0031713
1.0038927
1.0052393
1.0041931
1.0034728
1.0047848
1.0044624
1.0030435
1.0041386
1.0047722
1.0053332
0.99983353
1.007935
1.009111
0.99964451
1.0005622
1.0138115
1.0122124
0.99721023
0.99598487
1.0149321
1.0194387
1.0041314
0.98542857
1.0036327
1.0056513
1.0034676
1.0054932
1.0026653
1.0039922
1.0047099
1.0030291
1.0042315
1.0049514
1.0042363
1.0034397
1.0049352
1.0046897
1.002157
1.0036756
1.0054413
1.0044586
0.99924913
1.0087387
1.0108879
0.99764286
0.99741423
1.0156405
1.0159449
0.99562091
0.98830606
1.008903
1.0248926
1.0118482
0.98858372
1.0032339
1.0063282
1.0036391
1.0061641
1.0010251
1.0051334
1.0034566
1.0038529
1.0044714
1.004569
1.0044902
1.0035842
1.0049052
1.0048866
1.0020508
1.003301
1.0056347
1.0037938
0.99991052
1.0078251
1.0110952
0.99856331
0.9967585
1.0129227
1.0165592
0.99702978
0.98889611
1.0007364
1.0191471
1.0162173
0.99729977
1.0032176
1.0060089
1.0036376
1.0056748
1.0010911
1.0055111
1.002851
1.0048861
1.0044853
1.0042805
1.0045271
1.0036972
1.004552
1.0047057
1.002668
1.0031752
1.0051843
1.0034122
1.0020634
1.0062137
1.0086401
1.0014859
0.99964997
1.0088434
1.0113811
1.0011465
0.99530743
0.99979196
1.0075417
1.0117486
1.0052468
1.0033234
1.0050431
1.0035345
1.0042844
1.0024003
1.0048218
1.0031099
1.0052324
1.0043912
1.0041527
1.0044516
1.0040363
1.0042938
1.0042225
1.0037468
1.0034433
1.0044465
1.0029208
1.0051634
1.0047388
1.0040321
1.0052804
1.0046594
1.0064378
1.0032548
1.0037197
1.005306
1.0055723
0.99951149
1.0005333
1.0067915
1.003706
1.0037633
1.0032341
1.0027524
1.0047652
1.0034399
1.0041889
1.0046307
1.0042717
1.0040942
1.004148
1.0048245
1.0040909
1.0034698
1.0049014
1.0041131
1.0038023
1.0021517
1.008056
1.004023
0.99967691
1.0065598
1.0108186
1.0061927
0.9966232
1.0015571
1.0152181
1.0143351
0.99836363
0.99039214
1.0023383
1.004303
1.0031229
1.0035384
1.0016708
1.0067764
1.0023447
1.0054132
1.0035643
1.0042814
1.0039279
1.003668
1.0055863
1.0039469
1.002697
1.0056723
1.0048402
1.0035527
1.0011832
1.00989
1.0046454
0.99705658
1.005006
1.0150202
1.0083183
0.99412075
0.99679167
1.0178429
1.0226632
1.0028297
0.98664753
0.9961779
1.0188261
1.0171429
1.0090394
0.99605362
0.98357848
0.98062788
0.98867405
1.0021383
1.0137324
1.0155184
1.0060637
0.99434054
0.99378747
1.008273
1.0262231
1.0317328
1.0159744
0.98553633
0.96577643
0.97203423
0.99913033
1.0294107
1.0440836
1.0144326
1.0075988
1.0032372
1.0044113
1.0108532
1.0171266
1.0190042
1.0129191
0.9964985
0.97774603
0.96932639
0.97702525
0.99902121
1.024721
1.0361974
1.026793
1.0037848
0.98647406
0.98686219
1.0037894
1.0227255
1.0238971
1.0061464
0.97366305
0.97969213
0.99572029
1.0158653
1.0322198
1.0385107
1.0290533
1.0104419
0.99152857
0.98326299
0.98951053
1.0039278
1.0145532
1.0124694
0.9959219
0.97594358
0.97124644
0.98938659
1.0228808
1.0511008
1.0520476
1.0225056
0.97953899
0.9813025
0.99303461
1.0031389
1.006984
1.0039169
0.99392023
0.98360758
0.98237869
0.99682669
1.0215434
1.0427237
1.0502881
1.0373972
1.0022115
0.96607261
0.94965229
0.96103177
0.99148749
1.0248981
1.0436311
1.0330214
1.0045072
0.98262144
1.0386455
1.0336938
1.0171674
0.99335173
0.97075482
0.95497398
0.95573386
0.97321099
1.0005249
1.0262876
1.0421266
1.0368105
1.0140197
0.99413772
0.9870766
0.99570685
1.0124432
1.0249763
1.0211512
0.99550599
0.96245845
0.94905444
0.96626591
1.0361757
1.0243323
1.0108952
0.99836704
0.9906176
0.99475804
1.0054225
1.0155128
1.0149517
0.9998842
0.97807765
0.95747978
0.95397302
0.97045318
1.0066673
1.0503671
1.0797073
1.0765305
1.0355746
0.97872262
0.93524551
0.92597391
0.94837081
0.96497876
0.96665066
0.97988885
1.0053416
1.0382329
1.0634952
1.0723521
1.0582305
1.0271265
0.98916773
0.95266227
0.93222251
0.93547091
0.96222299
1.0018592
1.0386976
1.0602832
1.0500327
1.0229818
0.99521678
0.97998973
0.98186799
0.99754146
0.9428905
0.95687321
0.98189831
1.0071717
1.0298752
1.0430473
1.0417516
1.0301198
1.0154386
1.0007658
0.99258644
0.99570044
1.0070389
1.016788
1.0137534
0.99631295
0.96961845
0.9493244
0.95072312
0.97235379
1.0136697
1.0590818
1.0925147
1.014696
1.023557
1.0203823
1.0050996
0.98046177
0.95579457
0.94187946
0.94372828
0.96244748
0.99672622
1.0425381
1.0831869
1.1031173
1.089705
1.0437231
0.98634676
0.9333897
0.90019524
0.89777873
0.92920008
0.98786173
1.058786
1.11504
1.1108528
1.0813747
1.0350354
0.98923382
0.95291386
0.92724447
0.91169054
0.91379129
0.93677927
0.97942039
1.03402
1.0827897
1.107091
1.091101
1.0543947
1.0107921
0.96649978
0.9403094
0.93605316
0.95365202
0.98238906
1.0134221
1.0288894
1.0647201
1.0499906
1.0351149
1.0119757
0.98419782
0.963539
0.95993173
0.97307807
0.99327861
1.0081562
1.0084234
0.99756785
0.98732636
0.98926898
0.9984564
1.0113098
1.0230511
1.0313732
1.0412312
1.0473885
1.0367946
1.003853
0.96220277
0.94980229
0.95963924
0.98156997
1.0102078
1.0376799
1.0609968
1.0777241
1.0849841
1.0698872
1.0352161
0.98716067
0.93863635
0.90543461
0.89166656
0.90647892
0.94835459
1.0156889
1.0898367
1.1467302
1.1543588
1.1076099
1.0321039
0.95218089
0.88946699
0.90211796
0.93127305
0.98005863
1.0479543
1.1207313
1.172009
1.1734095
1.1217418
1.0465946
0.97668181
0.92380272
0.88841006
0.87320319
0.87812544
0.91199034
0.97409963
1.0601629
1.1433472
1.1826011
1.1538725
1.0737144
0.98681786
0.88937851
0.90840937
0.94221398
0.99044233
1.0444983
1.0965411
1.1340131
1.1399306
1.1116363
1.0592838
1.0031964
0.9506179
0.91683764
0.90414986
0.90908403
0.9323773
0.9724094
1.025341
1.0721046
1.1049843
1.1073459
1.0814694
1.0339038
0.94455801
0.96323734
0.99054092
1.0174573
1.0333728
1.0358581
1.0345272
1.0355678
1.0397415
1.0406652
1.0294414
1.0063976
0.98106993
0.96550781
0.96962509
0.98726431
1.0029774
1.0079206
1.0041382
1.0063786
1.0145368
1.028128
1.0366526
1.0257469
1.0338056
1.0386631
1.0297434
1.007122
0.97628419
0.95174244
0.94806427
0.9666629
0.99741788
1.0272613
1.0450555
1.0492066
1.0470275
1.047497
1.0423931
1.0244314
0.9959145
0.96309873
0.93572396
0.93761035
0.96548672
1.006693
1.1000834
1.0910283
1.0646681
1.0262037
0.97880297
0.9350463
0.90457033
0.89938085
0.92162285
0.96268064
1.0137583
1.0622551
1.0989469
1.1168723
1.1114059
1.0809283
1.0357187
0.98397603
0.93416314
0.89877021
0.89109869
0.91903264
0.97280335
1.1513239
1.1255693
1.0763018
1.0191591
0.95997648
0.91232496
0.88392233
0.8776732
0.89842374
0.94212908
1.0048431
1.0712331
1.1275392
1.1565304
1.1465709
1.1013623
1.0406159
0.97574509
0.91870538
0.88057911
0.86987348
0.8962931
0.95441308
1.1697843
1.1369797
1.0786356
1.0151019
0.95483581
0.90671311
0.87554558
0.86825185
0.8889012
0.93342611
0.99953486
1.076185
1.1428837
1.1794168
1.1654041
1.1082231
1.0349806
0.96532609
0.90752301
0.87105632
0.8639476
0.89206746
0.95441119
1.1633847
1.1341987
1.0798506
1.0181537
0.95507356
0.90478091
0.8742326
0.86818309
0.89286967
0.94111355
1.0091882
1.0841538
1.1466166
1.1780545
1.1591849
1.1007613
1.0288075
0.95820942
0.901496
0.86759494
0.86390354
0.89756531
0.96525767
1.1203454
1.1078321
1.0727576
1.0248301
0.96856105
0.92093231
0.88964038
0.88598966
0.91277275
0.96392191
1.0295815
1.0892422
1.1328507
1.1491389
1.1299276
1.0788314
1.0178701
0.95190178
0.89843771
0.86846535
0.87572714
0.9222549
0.99694141
1.0339338
1.0463926
1.0514077
1.0321241
0.99693757
0.95461014
0.92289529
0.92648849
0.95882198
1.0068214
1.0505621
1.0762277
1.086111
1.0866099
1.078973
1.0502926
1.0057478
0.95362826
0.9104644
0.89291275
0.91502415
0.97161759
1.0380924
0.92483017
0.95555767
0.99397976
1.0250288
1.0361963
1.0287836
1.01834
1.0189814
1.0343453
1.0470488
1.0398921
1.019902
1.0030117
1.001451
1.0142003
1.0182285
1.001926
0.97181885
0.94999041
0.95786819
0.99197585
1.0320723
1.0565801
0.84567017
0.87441881
0.92966464
1.0057283
1.0851542
1.1505686
1.1760855
1.1514481
1.0948047
1.0321889
0.97937632
0.9366793
0.91578607
0.92034677
0.9474491
0.98209712
1.0124594
1.0356852
1.0523836
1.0644615
1.0601085
1.0384207
1.0045159
0.88632
0.90605471
0.96111998
1.0423051
1.121374
1.1859366
1.2029259
1.1566993
1.0668058
0.97482394
0.90598003
0.86471981
0.85058342
0.86580383
0.91132181
0.98971825
1.0836279
1.1603575
1.1726581
1.1265894
1.0520939
0.97000188
0.90878406
1.0076789
0.99440514
1.0008769
1.0117413
1.0272192
1.0406581
1.0610744
1.0580498
1.0180235
0.95610168
0.89816788
0.8682636
0.868878
0.90105729
0.96605369
1.0599591
1.1541365
1.2058312
1.1690549
1.0730196
0.97242586
0.89802828
0.85325525
1.1184134
1.0650792
1.0041135
0.93900247
0.90527412
0.90934592
0.93557701
0.96880255
0.9970551
1.0054274
0.99646578
0.98487306
0.98925431
1.0069545
1.0278154
1.0487997
1.0723564
1.0823651
1.059359
1.0020757
0.93498637
0.89264846
0.88522209
1.1021666
1.0681935
1.0001391
0.93106747
0.8820534
0.87275221
0.89493668
0.94654486
1.0172465
1.0904132
1.1322245
1.1188786
1.0659996
1.0133203
0.97009002
0.94093433
0.93711347
0.95296122
0.97892225
0.99661191
1.0018887
0.99868306
1.0013601
0.96021997
0.985856
0.99780928
0.98876706
0.96428161
0.94739762
0.95487905
0.98674972
1.0327219
1.0831054
1.1114926
1.0918046
1.0323773
0.96356139
0.90997093
0.88314695
0.88668818
0.92687927
0.99039584
1.0585552
1.1062132
1.1164827
1.0801594
0.90830034
0.93279251
0.98076564
1.036701
1.0651927
1.0485572
1.013724
0.99198142
0.97659778
0.97275914
0.98119111
0.99061318
0.98814762
0.96974265
0.94919977
0.94360703
0.95740897
0.98827645
1.0259701
1.0580936
1.0664542
1.0595322
1.0426917
0.98106676
0.97046421
0.98075158
1.0070678
1.0330745
1.0392958
1.0105915
0.96807763
0.93538984
0.91849499
0.92158114
0.94615957
0.98669509
1.0314715
1.0578009
1.0585631
1.0413493
1.008308
0.97486046
0.95379183
0.94866837
0.95561281
0.98414483
1.0404976
1.0105053
0.97568368
0.94918072
0.95149488
0.97788373
0.99894492
0.99815547
0.98330829
0.96519965
0.95894132
0.97097725
0.99861692
1.0340304
1.0636257
1.066391
1.0390495
0.99401691
0.94600839
0.91313621
0.9107867
0.93220726
0.96887697
1.0129147
1.0093967
0.98126784
0.95284375
0.94350275
0.95942442
0.99422164
1.0257772
1.0405097
1.0322892
1.0086312
0.98490447
0.9720181
0.97082395
0.97935248
0.99228816
1.0031489
1.0069501
1.0084263
1.0039742
0.99296929
0.97783274
0.963105
0.96462782
0.98339611
1.0022355
1.0021206
0.98771404
0.9787935
0.98328141
0.9965017
1.0125046
1.0213919
1.0175038
0.99788467
0.9700985
0.94852766
0.94016989
0.94825943
0.97190054
1.0098994
1.0527388
1.0786926
1.0741383
1.0379834
0.97949689
0.97268754
0.97941478
1.0047252
1.0265606
1.0249531
1.0023774
0.97600997
0.96182542
0.96196161
0.9756022
0.99617957
1.0131665
1.0190249
1.0077132
0.98586532
0.96620059
0.96124648
0.97234839
0.99436711
1.020931
1.0423765
1.0491804
1.0400547
1.005101
0.99523427
0.99244292
1.0002199
1.0099186
1.0099102
0.99848098
0.98018008
0.96522408
0.96162663
0.96992459
0.98992164
1.0154113
1.0361827
1.0442857
1.0314898
1.002762
0.97450547
0.95543073
0.94907823
0.95515037
0.97386561
1.0103658
1.0185014
1.0068394
0.9870858
0.97523695
0.97552361
0.98488539
0.9980609
1.0084557
1.0107101
1.0032378
0.99136607
0.98279021
0.98114967
0.9886694
1.0011383
1.0135746
1.0179187
1.0110716
0.99799219
0.98501948
0.97653891
0.9768645
0.98505321
0.99841826
1.0040747
0.99967738
0.9869571
0.9759843
0.97493268
0.98432551
0.99996354
1.0165252
1.0265026
1.0238464
1.0079374
0.98630007
0.96991062
0.96344608
0.96812674
0.9808227
0.99610393
1.0097986
1.0191778
1.0230576
1.0198799
1.0096865
0.98285818
0.99236549
1.0061884
1.0136563
1.0116832
1.0028751
0.99352791
0.98935665
0.99087288
0.996522
1.0024037
1.0048703
1.0020144
0.99432131
0.98731272
0.98256327
0.98176444
0.98578376
0.99205095
1.0000212
1.0068327
1.008335
1.004497
0.9927853
0.99052036
0.99662146
1.0074627
1.0163538
1.0182662
1.0119244
0.9995405
0.98686699
0.97787411
0.97514162
0.97955263
0.98835627
0.99986671
1.0099051
1.0158147
1.0159515
1.0087919
0.99839994
0.98929463
0.98419377
0.9833571
0.98436902
1.0152949
1.0058853
0.99549853
0.98996785
0.9906094
0.9953532
1.0003819
1.0029261
1.0010913
0.99633698
0.99140836
0.98790225
0.98822396
0.99244463
0.99873475
1.005042
1.0081547
1.0063098
1.0003009
0.9923291
0.98725162
0.98768379
0.99295287
1.0076542
1.0083542
1.0017499
0.99299995
0.9865538
0.98419473
0.98630586
0.99208634
0.99955737
1.0065085
1.0107771
1.0114369
1.0085707
1.0020853
0.99480546
0.9885475
0.98431082
0.98291561
0.98358134
0.98637749
0.99138369
0.99812554
1.0053805
0.98903324
0.99296849
0.99863687
1.0037981
1.0056953
1.0047821
1.0019661
0.99846087
0.99638202
0.99631601
0.99858057
1.0013901
1.0031704
1.0023872
0.99846591
0.99225212
0.98712593
0.9858937
0.98826502
0.99392422
0.99986292
1.0029869
1.0018584
0.99889475
0.99592914
0.99630702
1.0000674
1.005632
1.009938
1.0108849
1.0080329
1.0020129
0.99517498
0.98969659
0.98679084
0.98650364
0.98851342
0.9914056
0.99432017
0.99678256
0.99951806
1.0027082
1.0052994
1.006819
1.0036116
0.99507016
1.0104556
1.0067042
1.0013006
0.99648269
0.99367985
0.99352297
0.99481104
0.99622146
0.99732436
0.99792089
0.99765146
0.99704888
0.99644862
0.99632822
0.99685911
0.99791914
0.99903154
0.99950254
0.99843809
0.99617046
0.99300491
0.99027381
0.98652498
0.99782215
0.99901468
0.99938344
0.9994518
0.998637
0.99721426
0.99535491
0.99369185
0.99399775
0.99652518
1.000653
1.0044721
1.0061072
1.0050298
1.0022324
0.99967593
0.99801635
0.99587373
0.99298963
0.98788108
0.98282056
0.98167454
0.9859848
0.99696446
0.99545477
0.99593018
0.99919981
1.0038996
1.0076657
1.0084023
1.0058046
1.0015495
0.99823512
0.99740158
0.99838456
0.99880115
0.99666236
0.99270065
0.98910947
0.98859786
0.99092622
0.99336058
0.99348518
0.99139359
0.99051787
0.994513
1.0080986
1.0046951
0.99929143
0.99589105
0.99578288
0.99820573
1.0009263
1.0013435
0.99884923
0.9955526
0.99396645
0.99481714
0.99723588
0.99805121
0.99590802
0.99262958
0.99077163
0.99291403
0.99731117
1.0007677
1.0004159
0.9973801
0.99498236
0.99708876
0.99957828
0.99984489
0.99785426
0.99646268
0.99697526
0.99864288
1.0002872
1.0002466
0.99809991
0.9962264
0.99652207
0.99905533
1.0025239
1.0037739
1.0019117
0.99856603
0.99615764
0.99604835
0.99635106
0.99535533
0.99207393
0.98733631
0.99465087
0.99767665
1.0014834
1.0035645
1.0029084
1.0013896
1.0009764
1.0015338
1.0022751
1.0017848
0.99961446
0.99719419
0.99586955
0.99608892
0.9970969
0.99715721
0.99560835
0.99365789
0.9923707
0.99216372
0.99197744
0.99101871
0.98950249
0.99935582
0.99992554
1.0021213
1.0032208
1.0017665
0.99841302
0.99527681
0.99420779
0.99544174
0.99812917
1.0003684
1.0007532
0.99989864
0.99841264
0.99728012
0.99710008
0.99671665
0.9962463
0.99598649
0.9957423
0.99588934
0.99548872
0.99514853
1.0001817
0.99904613
0.99846422
0.99883916
0.99939968
0.99941091
0.99852482
0.99778396
0.9981913
0.99939988
1.0008916
1.0018336
1.0009875
0.99916801
0.99749626
0.99642215
0.99667799
0.99719062
0.99729618
0.99706605
0.99557357
0.99407571
0.99244043
1.0017387
1.0003727
0.99809875
0.99667754
0.99720957
0.99864685
1.0003737
1.0014992
1.0015518
1.0012067
1.0005087
0.99941173
0.99831272
0.9968749
0.99588072
0.99568164
0.99638916
0.99746992
0.99814589
0.99816018
0.99714814
0.99581746
0.99434182
0.99864325
0.99893935
0.99855138
0.99852428
0.99869827
0.999654
1.000578
1.0008261
1.0002688
0.99901298
0.99780722
0.9969573
0.99685491
0.99729462
0.99833325
0.99957239
1.0005886
1.0005543
0.99954287
0.99731293
0.99535238
0.99393916
0.993696
0.99812629
0.99848197
0.99912393
0.99968303
0.99997781
0.9999219
0.99962195
0.99890836
0.99820745
0.99771567
0.99791892
0.99856335
0.99932387
0.99988678
1.0000192
0.99985559
0.99947321
0.9987489
0.99738442
0.99575352
0.99448435
0.99440844
0.99546293
0.99910531
0.99896018
0.99889781
0.99893807
0.9990016
0.9989475
0.99879228
0.99859199
0.99832345
0.99843014
0.99898947
0.99990588
1.0006832
1.0008509
0.99993775
0.99843818
0.99690225
0.99629118
0.99628851
0.99682107
0.99739792
0.99826953
0.99912712
0.99888297
0.99888447
0.99868023
0.99845677
0.99825142
0.99826021
0.99856145
0.99911032
0.99956904
0.99965963
0.99940605
0.99911783
0.99889668
0.99874417
0.9984421
0.99793026
0.99749407
0.99761061
0.99847704
0.99952566
1.00011
0.99975158
0.99863691
0.9980617
0.99841809
0.99885427
0.99906897
0.9989765
0.99875289
0.99854113
0.99859048
0.99888793
0.99910964
0.99898849
0.99864908
0.99832287
0.99823978
0.99850461
0.99894982
0.99935675
0.99940156
0.99935333
0.99928521
0.99905339
0.99823143
0.99694483
0.99829662
0.99836124
0.9986463
0.99896633
0.99909922
0.99895324
0.99861737
0.99825757
0.99818087
0.99846587
0.99882202
0.99899915
0.99898247
0.998895
0.99893072
0.99913849
0.99939885
0.99937118
0.99883033
0.99814168
0.99767341
0.99755148
0.99770939
0.9989243
0.99872934
0.99848884
0.99829528
0.99826346
0.99840952
0.9985477
0.9985951
0.99857276
0.99868931
0.99888272
0.99900641
0.99900039
0.99886088
0.99868752
0.99860765
0.9986951
0.99885969
0.99891559
0.99871048
0.99845471
0.99845505
0.99894909
0.99865717
0.99845125
0.99819002
0.99805957
0.9980443
0.99826758
0.99870626
0.9990154
0.99898047
0.99870259
0.99850045
0.99843585
0.99842613
0.99860461
0.99883157
0.99894474
0.99891695
0.99891557
0.99899323
0.99905148
0.99897092
0.99882835
0.99893224
0.99820734
0.9980965
0.9981381
0.99824733
0.99835959
0.99833747
0.99827735
0.99848112
0.99868022
0.99852846
0.99830413
0.99823783
0.99838086
0.99864278
0.99889828
0.99904267
0.99898258
0.998749
0.9985738
0.99864842
0.99882767
0.99886621
0.99884874
0.99784841
0.99782009
0.9979548
0.9983183
0.99847615
0.99815712
0.99785551
0.99802643
0.99822024
0.99823754
0.9981989
0.99839517
0.9986122
0.99872493
0.99867312
0.99857308
0.99851848
0.99846946
0.99843234
0.99853797
0.99880241
0.99894183
0.99880597
0.99784692
0.99757046
0.99761423
0.99792417
0.99798464
0.99778917
0.99766027
0.99810891
0.99805569
0.99792647
0.99813434
0.99828308
0.9984914
0.99852103
0.9982662
0.99804867
0.99813178
0.99831962
0.99843475
0.9985634
0.99863448
0.99862443
0.99850102
0.99745341
0.997264
0.99745225
0.9976024
0.99759529
0.99740143
0.9979054
0.99790441
0.99749378
0.99781526
0.99808859
0.99805422
0.99813758
0.99782759
0.99750544
0.99790343
0.99838959
0.99842842
0.99826616
0.9981288
0.99822063
0.99817923
0.99810751
0.99657995
0.9972055
0.99756815
0.99728114
0.99692443
0.99715046
0.99772882
0.99744989
0.99738426
0.9977077
0.99738052
0.99751263
0.99787128
0.9973894
0.99751566
0.99799876
0.99792931
0.99800481
0.99802261
0.99790929
0.99773336
0.99772854
0.99785736
0.99666665
0.9969179
0.99714469
0.99666055
0.99655231
0.99733341
0.99755728
0.99685314
0.99677286
0.9971697
0.99732803
0.99761685
0.99725811
0.99687911
0.99755162
0.99785795
0.99747412
0.99733261
0.9976402
0.9976079
0.9971751
0.99752891
0.99770131
0.99658986
0.99714989
0.99716446
0.99646274
0.9963504
0.99712713
0.99710545
0.99655634
0.99688978
0.99707461
0.99684726
0.99717362
0.99700978
0.99693958
0.99743521
0.99712632
0.99695334
0.99695705
0.99735857
0.99748354
0.99673793
0.99690164
0.99725656
0.99699755
0.99724401
0.99657024
0.99604305
0.99652056
0.99721702
0.99698453
0.99633898
0.99652607
0.99697139
0.99678936
0.99684353
0.99710969
0.99694242
0.99667348
0.99639902
0.99678247
0.99749024
0.99711523
0.99648345
0.99611598
0.99682887
0.99777533
0.9968326
0.99742295
0.99651762
0.9958049
0.99655835
0.99759182
0.99716615
0.99605609
0.9961255
0.99712354
0.99738856
0.99658518
0.99606841
0.99653489
0.99718927
0.99704791
0.99616637
0.99609264
0.99677038
0.99701885
0.99668053
0.99615355
0.99606598
0.99638572
0.99776806
0.99731456
0.99582154
0.99586575
0.99754823
0.99817389
0.9966937
0.99549442
0.99626168
0.99745099
0.99716237
0.99611896
0.99610224
0.99681439
0.99694926
0.99633547
0.99608437
0.99654763
0.99676887
0.99641954
0.99592863
0.99592427
0.99665469
0.99745678
0.99726551
0.9963155
0.99598696
0.99703645
0.99802015
0.99712954
0.99553691
0.99585395
0.99762244
0.99787581
0.99613024
0.99517938
0.99638178
0.99753444
0.99685963
0.99573394
0.99593082
0.99686981
0.99674461
0.99541704
0.99509126
0.99600412
0.99724446
0.99769157
0.99682443
0.99603114
0.99664798
0.99776097
0.99756314
0.99612585
0.99546855
0.9967574
0.99798095
0.99712646
0.9955729
0.99561597
0.99683962
0.99712614
0.9963194
0.99595138
0.99617893
0.99633541
0.99609128
0.99558319
0.99607784
0.99675329
0.99744396
0.99718498
0.99660257
0.99676354
0.99727445
0.99718666
0.99638294
0.99571887
0.99635769
0.99735662
0.99708461
0.99620217
0.99611328
0.9966719
0.99658239
0.99569614
0.99578067
0.99666332
0.99669245
0.99570249
0.99478463
0.99658165
0.99683202
0.9969234
0.99682869
0.99653674
0.99660394
0.99698831
0.99690258
0.99639298
0.99604492
0.99644164
0.9971741
0.99687802
0.99594084
0.99578525
0.99661751
0.9970106
0.99597862
0.99503384
0.99581154
0.99700098
0.9963475
0.99506738
0.99636489
0.99681595
0.9971538
0.99695798
0.99633936
0.99600227
0.99638846
0.99702162
0.99709683
0.99662808
0.99618069
0.99619732
0.9962966
0.9961434
0.99621025
0.99640149
0.99641874
0.99599336
0.99552693
0.99598387
0.99649124
0.9961203
0.99504725
0.99707901
0.99658223
0.99631238
0.99648963
0.99665946
0.99655825
0.99640779
0.99648442
0.99669394
0.99664549
0.99628804
0.99604717
0.99627298
0.99644918
0.99628416
0.99609665
0.99602845
0.99611396
0.99595052
0.99569242
0.9955998
0.99560506
0.99558546
0.99670971
0.99690683
0.99694376
0.99659072
0.99615983
0.99605884
0.99631995
0.99665524
0.99686616
0.99696328
0.99656299
0.9961484
0.99592378
0.99599225
0.99629961
0.99630825
0.9960997
0.9959517
0.99577174
0.99553998
0.99571051
0.99574212
0.99577435
0.99720113
0.99716727
0.99686325
0.99636485
0.99589223
0.99608142
0.9966191
0.99707642
0.99716511
0.99687391
0.99633946
0.99617398
0.99602449
0.99607756
0.99650484
0.99635182
0.99618047
0.99595272
0.99570737
0.99590004
0.99560503
0.99551331
0.99542366
0.99734576
0.9968843
0.99677628
0.99682744
0.99655715
0.99646038
0.99642945
0.99652179
0.99686922
0.99714031
0.99698831
0.99666048
0.99617396
0.99579783
0.99592033
0.99621905
0.99661624
0.99671733
0.99586101
0.99535443
0.99534934
0.99585284
0.99622667
0.99701274
0.99744414
0.99760724
0.99725363
0.99627425
0.99583428
0.99620754
0.99691213
0.99770855
0.99761929
0.99687046
0.99611511
0.99578574
0.99639063
0.99705808
0.9968254
0.99607138
0.9956121
0.99594486
0.99646441
0.99632537
0.99531135
0.99476696
0.99840707
0.99732909
0.99655219
0.99651481
0.99692699
0.99741816
0.99738097
0.99673197
0.99636445
0.99677445
0.99758418
0.99796421
0.99693724
0.99564132
0.9954399
0.99643465
0.99754041
0.99726841
0.9960308
0.99495724
0.99551283
0.99632861
0.99699614
0.99709656
0.99837085
0.99853473
0.99810282
0.99713559
0.99589607
0.99624779
0.99759385
0.9984501
0.99824618
0.99739197
0.9963525
0.99611683
0.99675028
0.99752096
0.99716938
0.99668798
0.99627433
0.99625325
0.99625298
0.99683155
0.99604253
0.99548549
0.99952543
0.99815226
0.99708327
0.99727902
0.99792332
0.99831486
0.99846481
0.9975474
0.99677152
0.99745406
0.99830161
0.99852343
0.99760888
0.99626725
0.99643203
0.99706406
0.9979687
0.9978262
0.99639508
0.99588541
0.99644421
0.9964611
0.99655872
0.99764825
0.9996193
1.0004533
0.99962458
0.9976376
0.99606026
0.99677403
0.99900038
1.0003413
0.99964116
0.99787479
0.99674301
0.99752735
0.9983345
0.99776647
0.997134
0.99771419
0.99824193
0.99731766
0.99629717
0.99670767
0.99731959
0.99779928
1.0017164
0.9994971
0.99771479
0.99779028
0.99924279
1.0001378
0.99927596
0.99796357
0.99826111
0.99981718
1.0004238
0.9990484
0.99732722
0.99722531
0.99836628
0.99888826
0.99849968
0.99796228
0.99769596
0.99782473
0.99732191
0.99711857
0.99747768
0.99940178
1.0012728
1.001949
1.0000346
0.99760871
0.99756257
0.99942053
1.0009868
1.0007748
0.99978772
0.99945652
0.99962512
0.99867201
0.99755578
0.99817907
0.99948012
1.0002168
0.99941095
0.99796194
0.99779386
0.99810476
0.99753893
0.99739369
1.0021517
1.0004388
1.0003512
1.0003527
0.99994051
0.99919734
0.99929658
1.0007047
1.0018729
1.0011568
0.99953445
0.99879874
0.99968011
1.0003432
0.99891908
0.99830311
0.99996796
1.0015065
0.99993167
0.99691818
0.99616455
0.99873539
1.001278
1.0036186
1.0017527
0.99960225
0.99905
1.000096
1.0014077
1.0012218
1.0002743
1.0009174
1.0022568
1.002173
1.0001887
0.99813727
0.99869216
1.0005963
1.0011106
1.0003289
0.99998628
1.0004244
0.99975811
0.99811233
0.99774681
0.99901892
1.0013992
1.0029056
1.0031687
1.0011473
0.99932197
1.0001669
1.0021141
1.0029234
1.0020886
1.0008963
1.0007477
1.001035
1.0002146
0.99947517
1.0004425
1.0020181
1.0019441
1.0002892
0.99932009
0.99978485
0.99931426
0.99817816
0.99847104