/*--------------------------------*- C++ -*----------------------------------*\
| =========                 |                                                 |
| \\      /  F ield         | OpenFOAM: The Open Source CFD Toolbox           |
|  \\    /   O peration     | Version:  2406                                  |
|   \\  /    A nd           | Website:  www.openfoam.com                      |
|    \\/     M anipulation  |                                                 |
\*---------------------------------------------------------------------------*/
FoamFile
{
    version     2.0;
    format      ascii;
    arch        "LSB;label=32;scalar=64";
    class       surfaceScalarField;
    location    "115";
    object      phi;
}
// * * * * * * * * * * * * * * * * * * * * * * * * * * * * * * * * * * * * * //

dimensions      [1 0 -1 0 0 0 0];

oriented        oriented;

internalField   nonuniform List<scalar> 
40800
(
0.00076495016
0.00095620009
-0.0012391303
0.00085795772
0.00099624545
-0.0011374268
0.00093415932
0.0010278308
-0.0009558807
0.00098828224
0.00087426533
-0.0010322597
0.0010437209
0.00086443279
-0.00087866031
0.0010960012
0.00074229547
-0.0007267883
0.0011413395
0.00070231792
-0.0007274004
0.0011789188
0.00064130029
-0.00073322852
0.0012198585
0.00058670256
-0.00063061029
0.0012646229
0.00058702043
-0.00059590987
0.0012926952
0.00054850381
-0.00060868247
0.0013286632
0.00046915918
-0.0005090276
0.0013740405
0.00054912416
-0.00055343804
0.0013915751
0.00053505005
-0.00058111361
0.0014255017
0.00045915492
-0.0004787367
0.0014837845
0.0005921167
-0.00061305583
0.0014712917
0.00061844352
-0.00067999642
0.0014921141
0.00040733224
-0.00042625361
0.0016108833
0.00070942277
-0.00070695387
0.0015533977
0.00074742535
-0.00084976615
0.0015575467
0.00051050746
-0.00058333314
0.0016840987
0.00073674994
-0.00074414527
0.001743552
0.00091963513
-0.0010089246
0.0016294189
0.00075504366
-0.00085091466
0.0016881538
0.00065778541
-0.00064979164
0.0019522803
0.00086984526
-0.00083906564
0.001949237
0.0012279032
-0.0012547434
0.0019645714
0.0014241328
-0.0014875464
0.0022119951
0.0012140962
-0.0013392962
0.0021577705
0.00097752129
-0.0012267337
0.001225798
0.0017445343
-0.0013542809
0.00076080676
0.00066184787
0.00085188522
0.00083844944
0.00092793795
0.0010725533
0.00098451474
0.00073080544
0.001041141
0.00081294145
0.0010951417
0.00076031592
0.001137765
0.00068183075
0.0011739165
0.00054968351
0.0012167678
0.00053801784
0.0012592174
0.00057093191
0.001284312
0.00048915024
0.0013271243
0.00044926374
0.0013668805
0.00051742704
0.0013807237
0.00047497206
0.001426586
0.00045400585
0.0014755951
0.0005464757
0.0014427137
0.00052841685
0.0015167492
0.00043221121
0.0016028941
0.00069162236
0.0015117282
0.00061940709
0.0015806612
0.00048100219
0.0016967759
0.00072208453
0.001698687
0.00082143565
0.0016027502
0.00069645988
0.0017099042
0.00076277306
0.0020371435
0.00096068622
0.0020324381
0.0011352976
0.0018693105
0.0012552733
0.0020447409
0.0011206843
0.0022697588
0.00084468404
0.0010470484
0.0020620024
0.00076010168
0.00044251248
0.00084857379
0.0006833638
0.00091718936
0.0010307891
0.00097733765
0.00064572699
0.0010349127
0.00072657357
0.0010885248
0.00074720303
0.00112783
0.00063661503
0.0011665213
0.00048473077
0.0012117832
0.00051087643
0.0012492493
0.00053527796
0.0012753367
0.00042933492
0.0013224787
0.00045634913
0.0013546881
0.00046863055
0.0013699842
0.0004061112
0.0014215985
0.0004569621
0.0014603741
0.00049195405
0.001422383
0.00043329185
0.0015322001
0.00048582959
0.0015789492
0.00066466064
0.0014805487
0.00049247899
0.0016034113
0.00048978601
0.001696316
0.00074048594
0.0016687513
0.00072093078
0.0016218715
0.00062108816
0.0017299884
0.00087514528
0.0020418836
0.0010732183
0.0020497581
0.0010137317
0.0018034183
0.0010009068
0.0018908526
0.001035598
0.0022952923
0.00086377219
0.00089364389
0.002433229
0.00076024674
0.00036247917
0.00084531839
0.00056154174
0.00090495247
0.00088655318
0.00096720667
0.00062843348
0.0010248002
0.00062190542
0.0010751752
0.00068393136
0.0011135255
0.00055296755
0.0011576713
0.00046933174
0.0012028967
0.00050632773
0.0012340882
0.00047502941
0.0012657515
0.000380697
0.0013121311
0.00046295152
0.0013373399
0.00042112535
0.0013598749
0.00035032366
0.001409992
0.00045162454
0.0014409677
0.00044520461
0.0014145232
0.00035001773
0.0015367124
0.00053546254
0.0015450477
0.00062691841
0.0014652574
0.00038752966
0.0016256259
0.00051770779
0.0016757805
0.00076474765
0.0016296717
0.00063139121
0.0016699883
0.00053475868
0.001747957
0.00090198001
0.0019637299
0.0011287707
0.0020197125
0.00088125838
0.0017972786
0.00072920943
0.0017597743
0.00093369024
0.002180762
0.001044108
0.00090613639
0.0026066171
0.0007635383
0.00042460474
0.00084402597
0.00049617367
0.00089609057
0.0006839784
0.0009578768
0.00065217551
0.0010118777
0.00053258089
0.0010569402
0.00057709247
0.0010966657
0.00045673615
0.0011451683
0.00048032114
0.0011864532
0.00049265946
0.0012139039
0.00039750144
0.0012536478
0.00036182417
0.0012942692
0.00044417659
0.0013155899
0.00037368581
0.001348751
0.00031811949
0.0013917652
0.00043944634
0.0014149954
0.00041094353
0.0014135816
0.00029109474
0.0015275851
0.00055904074
0.0015048273
0.00056607267
0.0014653539
0.00032298398
0.0016453099
0.00056183908
0.0016410565
0.00075557418
0.0015882347
0.00057372127
0.0017234197
0.00047665275
0.0017844815
0.00080855229
0.0018441444
0.0010780049
0.0019331855
0.00077108658
0.0018493245
0.00049694756
0.0017570921
0.00077972569
0.0020274173
0.0012163566
0.0011199751
0.00251982
0.00076858208
0.00056575586
0.00084393404
0.00048848198
0.00089308581
0.00051349244
0.00095153046
0.00067596156
0.0010010442
0.00048510955
0.0010392575
0.00046376245
0.0010810455
0.00039524931
0.0011283263
0.00047940621
0.0011632282
0.00045127926
0.0011917051
0.00033119758
0.0012363863
0.00036103005
0.0012691434
0.00039554251
0.0012905378
0.00032383948
0.0013345081
0.00030844297
0.0013687738
0.00040662858
0.0013840862
0.00038160323
0.0014146256
0.00027270101
0.0015042693
0.00054857232
0.001459794
0.00047954854
0.0014743625
0.00029670386
0.0016532024
0.00059226529
0.0016029952
0.00070191292
0.0015527459
0.00053859689
0.0017650575
0.00046516838
0.0018268237
0.00067372289
0.0017391155
0.00090631027
0.0018018336
0.00070738887
0.001904212
0.00038645389
0.0019045728
0.00061178864
0.0019384589
0.0011932686
0.0013784459
0.0022358965
0.00078077495
0.00069893831
0.00084932644
0.00052380051
0.00089589974
0.00045586593
0.00094647189
0.00067195952
0.00099092373
0.00048192931
0.0010243294
0.00038506558
0.0010677362
0.00039019207
0.0011091588
0.00045861355
0.0011381043
0.00037906001
0.0011706019
0.00030136192
0.001213542
0.00035417629
0.0012396102
0.00033137843
0.0012642057
0.00028625354
0.0013143026
0.00031352377
0.0013414257
0.00035570102
0.0013510451
0.0003504315
0.0014137543
0.00029143847
0.0014690954
0.0005004183
0.001416062
0.00037969156
0.0014854966
0.00030918272
0.0016401958
0.00059055002
0.0015642173
0.0005837028
0.0015150674
0.00047760351
0.0017665559
0.00052122698
0.0018429235
0.00057902483
0.0016682704
0.00065469034
0.0016930632
0.00064891883
0.0019370578
0.00046016542
0.0020955709
0.00053319623
0.0020342427
0.00094239649
0.0013506606
0.0020055266
0.00081902188
0.00075859661
0.00086097157
0.00058305477
0.00090533099
0.00052251514
0.00094668477
0.00062342482
0.00098650952
0.00049493126
0.0010177799
0.00035864011
0.0010587788
0.00043000953
0.001090312
0.00041273958
0.0011163131
0.0002964343
0.0011517918
0.0003040913
0.0011880051
0.00033364261
0.0012106435
0.00027868816
0.0012391046
0.00026213659
0.0012878812
0.00031902836
0.0013112682
0.00030227996
0.0013181894
0.00030847984
0.0014032425
0.00032724716
0.0014239644
0.00042893526
0.0013807207
0.00027413635
0.0014895705
0.00033698327
0.0016012123
0.0005770733
0.0015253665
0.00042155777
0.0014927522
0.0003789214
0.0017326954
0.00061636733
0.0018277976
0.00056010269
0.0016411047
0.00043536259
0.0016056382
0.00056395963
0.0019074316
0.00066068666
0.0021903317
0.00059952601
0.0021815522
0.00066926785
0.00097270659
0.0019600868
0.00089776332
0.00070783697
0.00088872462
0.0006352784
0.00092476382
0.00065863507
0.00095589941
0.00053872213
0.00099005616
0.00049222936
0.0010229273
0.00037525811
0.0010583586
0.00045883587
0.0010804255
0.00034156589
0.0011061948
0.00025024787
0.0011383962
0.00031449004
0.0011652765
0.00029792107
0.0011864913
0.00024523238
0.0012170302
0.00024156409
0.0012583322
0.00031403691
0.0012808786
0.00025072542
0.0012887248
0.00025398236
0.0013798226
0.00035159502
0.0013733187
0.00035482493
0.0013544681
0.0001861938
0.0014850043
0.00035352504
0.0015388251
0.00054921356
0.0014879568
0.00027154918
0.0014998144
0.00027405411
0.0016738795
0.00067213458
0.0017754454
0.00059841
0.0016635381
0.00029529581
0.0016061558
0.00044274048
0.0018463154
0.0008323443
0.0021465914
0.000796791
0.0022214074
0.00054725862
0.00048347677
0.0020048146
0.0009797036
0.00052848675
0.00094530344
0.00062220049
0.00096685188
0.00076050064
0.00098733315
0.00044919632
0.0010106146
0.00046238202
0.0010399908
0.00041216442
0.0010644674
0.00043732919
0.0010819255
0.00027049232
0.0011097801
0.00025351015
0.0011353244
0.0003014117
0.0011563154
0.00025915044
0.0011750639
0.00021421704
0.00120498
0.00022301788
0.001233122
0.00029558403
0.0012547887
0.00020750904
0.0012667005
0.00019841321
0.0013476094
0.0003540131
0.0013224926
0.00028391499
0.0013361996
0.00013710299
0.0014725536
0.00036919218
0.0014597271
0.00049034671
0.0014425957
0.0001745466
0.0015307904
0.00018297414
0.0016160151
0.00063382087
0.0016703703
0.00064408768
0.0016746898
0.00024031133
0.0016975372
0.00031907071
0.0018044064
0.00082996586
0.0020091866
0.0009955701
0.0021041692
0.00056171885
0.00022693815
0.0020513203
0.0010018651
0.00027198222
0.00099731402
0.00050705736
0.0010174454
0.0007432239
0.0010401282
0.00038299165
0.0010569049
0.00040591324
0.0010775872
0.0004398787
0.0010887596
0.00037461891
0.0011037261
0.00023386039
0.0011262264
0.00028159425
0.0011414198
0.00026465882
0.0011582211
0.00024059464
0.001175169
0.00019253864
0.0012055312
0.00020991159
0.0012209176
0.00027058063
0.0012410554
0.00018533738
0.0012604381
0.00015812291
0.001317747
0.00033463942
0.0012808535
0.00021818813
0.0013268541
0.00013298759
0.0014512167
0.00037156263
0.0013762708
0.00040745143
0.0013945456
0.00015170297
0.001564362
0.00015652061
0.0015868086
0.0005205181
0.00155041
0.00061802371
0.0016410981
0.00028180954
0.0017897782
0.00025307391
0.0018318328
0.00063134725
0.0018394463
0.0009680467
0.0018908388
0.00069073005
0.00020130351
0.0019888005
0.00098253194
5.6815218e-05
0.0010209873
0.00033736058
0.0010503684
0.00059156013
0.0010880027
0.00033008531
0.0011164455
0.00032249736
0.0011379081
0.00043014469
0.0011428966
0.00029077091
0.0011569911
0.00024774302
0.0011683
0.00029798657
0.0011741057
0.00022798136
0.0011823705
0.00024361693
0.0011931946
0.00018222725
0.0012188089
0.00020483467
0.0012207727
0.00023289039
0.001238789
0.00018465418
0.0012678157
0.00014637735
0.0012980183
0.00028573747
0.0012616996
0.00016102894
0.0013317374
0.00016925105
0.0014292125
0.0003487639
0.0013125999
0.00030453936
0.0013598805
0.00017683952
0.0015838334
0.00021164489
0.0015637392
0.00039974255
0.0014463824
0.00046560134
0.0015885671
0.00034275262
0.0018271463
0.00026742696
0.0018837477
0.00040653474
0.0017415336
0.00064930748
0.0017132989
0.00068298564
0.0004017748
0.0018613348
0.00092792206
-5.3592519e-05
0.0010068579
0.00017840844
0.0010452831
0.0003738167
0.0010945871
0.00030059702
0.0011360892
0.00025351081
0.0011670722
0.00036388997
0.0011888017
0.00021040107
0.0012165771
0.00028423785
0.00122818
0.00027190487
0.0012372882
0.00020799534
0.0012390049
0.00024228353
0.0012458804
0.00019213911
0.0012632403
0.0002083807
0.0012534289
0.00018174399
0.0012617518
0.00019698607
0.001291647
0.00016466667
0.0012921226
0.00022548687
0.0012678387
0.00011737951
0.0013458576
0.00022696473
0.0014126196
0.00032375381
0.0012876418
0.00017520184
0.0013409943
0.00020171446
0.00157707
0.00033436582
0.001534555
0.00030193814
0.0013780512
0.00023431995
0.0015119303
0.00035247939
0.0017803916
0.00036266322
0.0018638141
0.00029911702
0.001694037
0.0002477366
0.001584806
0.00044397262
0.00052214489
0.001734479
0.00088012105
-5.8381643e-06
0.0009646823
0.00011465469
0.0010160157
0.00020181511
0.0010757729
0.0002904871
0.0011251997
0.00023071332
0.0011560859
0.00026520907
0.0011893479
0.00016380474
0.0012231963
0.00029942758
0.0012437931
0.00021316073
0.0012700435
0.00020228913
0.0012820077
0.00019772864
0.0013019161
0.00020241044
0.0013212611
0.00021050299
0.0013166148
0.00013180426
0.0013226086
0.00020010881
0.0013507857
0.00020347647
0.0013258216
0.00018918572
0.0013152162
9.7806228e-05
0.0013799124
0.00027623529
0.0014096604
0.00030859062
0.0013098576
5.0470251e-05
0.0013620438
0.00019772626
0.0015607436
0.00046558423
0.0015103857
0.00024569572
0.0013811081
3.4541901e-05
0.0014718052
0.00027793428
0.0017045827
0.00050152566
0.0017755406
0.00029028316
0.0016907098
4.1906717e-05
0.0015563795
8.8118439e-05
0.00045525454
0.0016597846
0.00087729054
0.0001419937
0.00094172119
0.0001786386
0.00098324771
0.00018405257
0.0010387165
0.00029065504
0.0010898236
0.00023611852
0.0011224266
0.00017347359
0.0011675022
0.00015350147
0.0012002237
0.00025413304
0.0012287156
0.00017037252
0.0012604278
0.00020901146
0.0012772445
0.00013274203
0.0013062978
0.00018948039
0.0013292271
0.00021123303
0.0013431328
9.1796933e-05
0.0013606584
0.00018329378
0.001400166
0.00023059603
0.0013760303
0.00016097656
0.0013939275
8.9944907e-05
0.0014434387
0.00029328391
0.001431169
0.00028083808
0.0013839204
-1.5177242e-05
0.0014415278
0.00016625345
0.0015514563
0.00052968883
0.0014994864
0.00023619186
0.0014447287
-7.001501e-05
0.0015189679
0.00014685639
0.0016370287
0.00056734765
0.0016666846
0.00039573555
0.0016589168
2.2669754e-05
0.0016493948
-0.0001046278
0.0002732226
0.0016866227
0.00094840227
0.00032534585
0.00096030603
0.00033933771
0.00098908915
0.00031458984
0.0010305746
0.00028258241
0.0010684763
0.00023925048
0.0010941982
0.00012292522
0.0011369648
0.00017554727
0.0011636192
0.00016263526
0.0011989676
0.00016525321
0.0012285947
0.00019610898
0.0012528299
8.6514132e-05
0.0012864893
0.00015772526
0.001305356
0.00019142324
0.0013337766
7.3609932e-05
0.0013550348
0.00015550383
0.0013933481
0.0002267461
0.0013758233
0.00012684428
0.0014291349
9.1097862e-05
0.0014688081
0.00026944077
0.0014267249
0.00022861085
0.0014441927
-2.2625342e-05
0.0015404481
0.00011993289
0.0015554803
0.0004615743
0.0014839377
0.00025545916
0.0015191824
-6.8584549e-05
0.0016510528
6.6239223e-05
0.0016472093
0.00046626521
0.001595976
0.00050141013
0.0016171732
0.00012520008
0.0017579034
-4.0086736e-05
0.00011973184
0.0018239171
0.00092168601
0.00035663158
0.00096949987
0.00040005888
0.00099716909
0.000474809
0.0010349268
0.00026379154
0.0010665104
0.00023338408
0.0010913445
0.00011392476
0.0011264099
0.00018765788
0.0011475022
6.828057e-05
0.0011803439
0.00017401542
0.0012009511
0.00015127776
0.0012297011
8.009189e-05
0.0012615904
0.0001285036
0.0012733365
0.00014145161
0.0013136436
7.9053913e-05
0.0013364909
0.00012256306
0.001366267
0.0001869287
0.0013558461
9.5151121e-05
0.0014305934
0.00011134351
0.0014528299
0.00021108563
0.0013904523
0.00015988805
0.0014574635
1.633075e-05
0.0015867588
0.00010904559
0.0015325367
0.00030183471
0.0014445021
0.0002179238
0.0015623096
1.0694837e-06
0.0017512777
8.3968112e-05
0.0016962696
0.00028498486
0.0015552361
0.00040835771
0.0016066473
0.00027001413
0.0018216853
0.00011915113
0.00013320789
0.0019807664
0.0009135498
0.0001980465
0.00096960565
0.00032185772
0.00099767853
0.00054545879
0.0010332288
0.00021289285
0.0010624421
0.00018101642
0.0010888513
0.00013490888
0.0011166917
0.00017471886
0.0011414761
1.6951399e-05
0.0011691349
0.00015586792
0.0011856414
9.3309226e-05
0.0012164432
9.3479389e-05
0.0012431235
0.00010201343
0.0012504394
7.8538606e-05
0.0012950998
0.00010465519
0.0013166031
9.5259273e-05
0.0013354692
0.00012696075
0.0013342181
6.9973399e-05
0.0014124484
0.00014255229
0.001421164
0.00013324171
0.0013524531
6.9841795e-05
0.0014427474
9.7412779e-05
0.0015824872
0.00015759921
0.0014949325
0.00011990763
0.0013918052
0.00010082214
0.001553517
0.00011705225
0.001771207
0.00020200078
0.001723382
0.00013997792
0.0015455436
0.00015024028
0.0015806996
0.00026181006
0.0018221362
0.00030684049
0.00024681608
0.0020222124
0.00096239403
-5.9843627e-05
0.00098725776
0.00015126168
0.0010059396
0.00043900902
0.0010402193
0.00012292159
0.0010672202
9.8337966e-05
0.0010954273
0.00016064129
0.0011168465
0.00011394593
0.0011456779
3.8009914e-05
0.0011643906
0.0001091993
0.0011825515
5.4683073e-05
0.001212205
0.00010523517
0.0012326468
7.8782252e-05
0.0012411145
2.5807033e-05
0.0012818069
0.00012546296
0.0013004878
7.5459565e-05
0.0013115912
6.681303e-05
0.0013214409
4.4754447e-05
0.0013872344
0.00016283499
0.0013895565
6.9190872e-05
0.0013379504
-3.0182105e-05
0.0014288335
0.00017793772
0.0015453694
0.00021561735
0.0014653484
7.1133217e-06
0.0013740051
-6.5673713e-05
0.0015410397
0.00019455512
0.0017203417
0.00031670899
0.0016866452
0.00010585777
0.0015554243
-9.3092844e-05
0.0015585803
6.3810372e-05
0.0017685213
0.00037214643
0.00036557636
0.0019553474
0.00096712974
-0.00034235405
0.0010165168
-8.961685e-05
0.0010288392
0.00022836201
0.0010645941
2.4035338e-05
0.0010920256
1.5016787e-05
0.0011141441
0.00017002906
0.0011324652
3.2868542e-05
0.0011635964
0.00010661728
0.0011739066
5.5121681e-05
0.0011919658
4.2268652e-05
0.0012141846
0.00010651374
0.0012294061
4.8168488e-05
0.0012440856
-7.3828182e-06
0.0012761239
0.00012241172
0.0012935244
5.9459556e-05
0.0013004331
2.1748256e-05
0.0013214873
1.3011745e-05
0.0013630686
0.0001688281
0.0013602707
2.7036352e-05
0.0013499699
-9.8537496e-05
0.0014140949
0.00018312111
0.0014894691
0.00027554847
0.0014293439
-3.3540854e-05
0.0014006264
-0.00018282175
0.0015292305
0.00015961882
0.0016437845
0.00040715549
0.0016037015
9.2701122e-05
0.0015664063
-0.00019943811
0.0016020998
-0.00012843895
0.0017107352
0.00025611415
0.00039528158
0.0018172067
0.0010572739
-0.00047188586
0.0010564525
-0.00019155825
0.0010611185
7.1511374e-05
0.0010997108
-3.5134728e-05
0.0011251826
-3.3937217e-05
0.001142992
0.00015070756
0.001166069
-2.3200112e-05
0.0011882525
0.00015158289
0.0011951926
2.1642733e-05
0.0012164487
4.2052982e-05
0.0012335346
8.8906679e-05
0.0012441342
2.5344842e-05
0.0012676976
-1.1600859e-05
0.0012853489
9.7188835e-05
0.001300113
4.8194066e-05
0.0013055965
2.1712113e-07
0.001340921
-5.6453389e-06
0.0013561783
0.00014095273
0.0013460342
1.7509798e-05
0.001385275
-0.0001185887
0.001427878
0.00013127082
0.0014408761
0.00027679518
0.0014028697
-3.7863992e-05
0.0014510101
-0.00019475976
0.0015653972
7.6624151e-05
0.0015703661
0.00036415739
0.0015067149
0.00014404905
0.0015419033
-0.00018900749
0.0016668319
-0.00021968188
0.0017159158
8.5552088e-05
0.00029406498
0.0017141431
0.0010722235
-0.00037908882
0.0010462861
-0.00010767414
0.0010568338
9.6553239e-05
0.0011022493
-5.003115e-05
0.00113805
-4.0852981e-05
0.0011507461
0.0001013304
0.0011883833
-5.5556859e-05
0.0012088217
0.00010575072
0.0012255144
1.4356551e-05
0.00125077
3.453649e-05
0.0012671325
4.7492401e-05
0.0012833021
1.1478898e-05
0.0013138788
-2.9457482e-06
0.0013267753
4.8743606e-05
0.0013430431
3.8794624e-05
0.0013494248
8.6036262e-07
0.0013976368
-8.8871332e-06
0.001391257
7.706452e-05
0.0013779136
1.7609547e-05
0.0014565315
-8.1909048e-05
0.0014897996
6.1831835e-05
0.0014463321
0.0001656448
0.0014254996
3.8731776e-06
0.0015297597
-0.00012763003
0.0016484833
9.0766388e-06
0.001573373
0.00019179111
0.0014759076
0.00014115222
0.0015666154
-0.00010175096
0.0017671829
-0.00014422612
0.0017953386
-8.2931081e-06
0.00013254114
0.0016940989
0.00084496775
0.00092666916
0.0012010867
0.0012146163
0.0012383092
0.001310117
0.0013076107
0.0013197706
0.0013719826
0.0014072111
0.0014235309
0.0014308348
0.0014719927
0.0014778856
0.0015216292
0.0015406547
0.0015999934
0.0015891169
0.001570478
0.0016720012
0.0017029721
0.001631219
0.0016087714
0.0017405908
0.0018702699
0.0017632803
0.0016136354
0.0017289053
0.001981562
0.0020446088
0.0019001405
-2.2216112e-05
0.001632355
1.0062334e-05
0.0015259328
0.00014803604
0.0015839704
0.00033688513
0.0017090003
0.00044742786
0.0017843344
0.00035270771
0.0017878398
0.00011261096
0.0017795086
-1.0554206e-05
0.0017632906
5.9621883e-05
0.001808837
0.00043502798
0.0019505021
0.0010069401
0.0020729759
0.0013453609
0.0020569477
0.0012373144
0.0019069632
0.00078962609
0.0017316869
0.00045340789
0.0016324231
0.00050714215
0.0016842859
0.00098507891
0.0019099309
0.0014721025
0.0022360427
0.0015536786
0.0024276429
0.0012133365
0.0024076898
0.00075040734
0.0022537047
0.00055656259
0.0020978517
0.0021461764
0.00083937925
0.00028933656
0.0018746683
0.00057356288
0.0017189233
0.00073839507
0.0016275152
0.00068912396
0.0015488489
0.00047597245
0.0014600828
0.00018811926
0.0014046725
1.7696636e-06
0.0014191406
5.0492912e-05
0.0015263443
0.00030711864
0.0017408801
0.00064473276
0.0019527764
0.00079085208
0.00202768
0.0006720371
0.0019997981
0.0003991256
0.001902128
0.00030717018
0.0018299606
0.00054710601
0.0018744169
0.0011154163
0.0019759143
0.0016795869
0.002041127
0.001817864
0.0020462485
0.0013931497
0.0019718913
0.00070975348
0.0018109043
0.00032551428
0.0017559102
0.00051840329
0.001961853
0.0023888098
0.0012379727
0.00017402271
0.0019769057
0.00016292062
0.0018123079
4.9189758e-05
0.0016974875
3.0637655e-05
0.0016019251
0.00011362569
0.001548427
0.00033903859
0.0015225966
0.00070644967
0.0015384148
0.0010386414
0.0015437605
0.0010964364
0.0015796882
0.00081414371
0.0015926823
0.00035505964
0.0015622014
6.9168215e-06
0.0015719213
-0.00010974715
0.0016461628
0.00020637995
0.0018757063
0.0008319723
0.0021844875
0.0013777543
0.002348779
0.0015300069
0.0023063264
0.0012974227
0.0020909599
0.00083919207
0.0018432407
0.00054716564
0.0016467216
0.00073274955
0.0015802567
0.0013455588
0.0017834558
0.0021833419
0.0018874894
-0.00043067197
0.0016037132
-0.00080029764
0.0015110828
-0.00087438295
0.001547426
-0.00067349664
0.0016519015
-0.00013071762
0.0018124833
0.00054906684
0.0018825911
0.0010311847
0.0018677166
0.0011574013
0.0017674745
0.00093540509
0.0016066243
0.00054307766
0.0014676493
0.00021619933
0.0013569301
0.00018509243
0.0013244161
0.00058009974
0.0014214823
0.0011026105
0.0016630185
0.0013466975
0.0019535624
0.0011199321
0.0020823363
0.00060334655
0.0020553523
5.3109974e-05
0.0019821777
3.5030847e-05
0.0019541908
0.00049674735
0.0020540879
0.0014586479
0.0021268305
0.0022784791
0.0021436847
0.0021115513
0.0024477311
-0.00032750649
0.0013352724
-0.00036156483
0.0012795054
-0.00013717692
0.0013386968
0.00013999291
0.0014922605
0.00035948236
0.0016473635
0.00044959776
0.001687248
0.0002685916
0.0016943747
-0.00013552711
0.0016753495
-0.00041109412
0.0016434219
-0.00034891246
0.001647275
8.6662564e-05
0.0017073578
0.0009228318
0.0017105245
0.0017064471
0.0016815303
0.0021130616
0.0016356964
0.0018310607
0.0016335035
0.0010037274
0.0015887601
6.2997692e-05
0.0014731456
-0.00044516076
0.0014830322
-0.00017317859
0.0017223807
0.00073723392
0.0021779012
0.0016765608
0.0025204552
0.0020900744
0.0025346542
0.0023614418
0.0019865138
0.00056751207
0.0016533587
0.0010723614
0.0014750581
0.0013484627
0.0013659842
0.0014103209
0.0013341519
0.0010396726
0.0013121887
0.00035315518
0.0012305321
-0.00041352332
0.0012014356
-0.00093197256
0.0012615652
-0.0009868672
0.0014263955
-0.00054588695
0.0016858292
0.00016145242
0.0019280014
0.00096639668
0.0020062397
0.0014474983
0.0019857183
0.0014490984
0.0018605348
0.0011315173
0.0016894348
0.00061641793
0.0015536126
0.00029418317
0.0013550412
0.00046344406
0.0012655549
0.0011012963
0.0014139386
0.0017341645
0.0018182596
0.001789373
0.0021902151
0.0013860921
0.0022823738
0.0021954237
0.00071521017
0.00044965275
0.0019356659
0.00080758845
0.0017158732
0.00091790461
0.0015691628
0.00079373125
0.0014082578
0.00044578436
0.0012797566
0.00012758636
0.0011392799
3.1875002e-05
0.0010578152
0.00026449941
0.0010822223
0.00062223736
0.0012028117
0.00086462816
0.0014199499
0.00097858062
0.0016415056
0.00067905421
0.0017179303
0.00016515092
0.0017416957
-0.00037546271
0.0017553871
-0.00070385311
0.0017683904
-0.00041491624
0.0018463025
0.00044819646
0.0018800582
0.0016701444
0.0017451473
0.0026238841
0.0016202847
0.0029580718
0.0015987352
0.002421718
0.0017192906
0.0012800769
0.0017634044
0.0016347589
-7.0527197e-05
-0.00026673158
0.0017613425
-0.00082437011
0.0015870519
-0.0013260712
0.001497832
-0.0015207147
0.0014727227
-0.0011081457
0.0015292421
-0.0002046731
0.0015406133
0.00092757493
0.0014534546
0.0018323655
0.0013564995
0.0023567732
0.0012762051
0.0024751147
0.0012552547
0.0018910379
0.0012894511
0.00078234718
0.0012643163
-0.00049141476
0.0012114593
-0.0013560276
0.0012753165
-0.0014917462
0.0014978575
-0.00086103209
0.0018391495
0.00024108989
0.0021382052
0.0014277271
0.002169907
0.0022530924
0.002058111
0.0025552647
0.0018576674
0.0023149974
0.0017203653
0.0013936213
0.0015989163
0.0013226888
0.00029882375
-0.0011966342
0.001325665
-0.0019444307
0.0012627992
-0.0020779407
0.0012890504
-0.0016705493
0.0014204376
-0.0010420589
0.0015906651
-0.00030020202
0.0016560476
0.00048166461
0.0016301581
0.0012403042
0.0016244465
0.001761062
0.0015802688
0.0018575422
0.001428187
0.0013941378
0.0012920022
0.00061068085
0.0011288106
3.0624135e-05
0.00094014334
-2.727978e-05
0.00092922794
0.00027809016
0.0011478115
0.00057155985
0.0014974027
0.00091329728
0.0018820792
0.00093011837
0.0020455127
0.00077841159
0.0020109047
0.00042811319
0.0019393097
0.00010483227
0.0018765214
5.4603888e-05
0.0018384438
0.0017212354
0.00056146976
-7.629588e-05
0.0011958156
4.4521229e-05
0.0010847421
0.00024226938
0.0010586828
0.000319807
0.0011919949
0.00033508571
0.0013849467
0.0003711883
0.0014794196
0.00018956854
0.0014758401
-0.00023144333
0.0014935112
-0.0007897362
0.001539914
-0.0012322211
0.0015289156
-0.0011527049
0.0015135349
-0.00036591625
0.0014693643
0.00084106828
0.0012911499
0.0020295511
0.0011064203
0.0026967277
0.0010792825
0.0028602108
0.0012166576
0.0024278476
0.001474473
0.0013882822
0.0016804275
3.1748982e-05
0.0016683288
-0.001239728
0.0016112778
-0.0019228444
0.0016813755
-0.0015963921
0.0018814724
0.0021056663
-0.00028586468
0.0014714229
0.0015257863
0.0025750584
0.0012798298
0.0030597579
0.0010723872
0.0029075399
0.0010293542
0.0022362202
0.0011020757
0.0012231296
0.0011657956
-8.7262976e-05
0.0011663902
-0.0014498904
0.0011994483
-0.0026018534
0.0012862158
-0.0030911176
0.0013858582
-0.0026995668
0.001517892
-0.0014586363
0.0016685898
0.00030359242
0.001655803
0.0020522384
0.0015091738
0.0034441234
0.0013830767
0.0040476122
0.0013055621
0.0036983328
0.0012956654
0.0022587614
0.0013648989
0.00021766879
0.0013059046
-0.0014400166
0.0012144248
-0.0021095362
0.0013437302
-0.0017848916
0.001659053
0.00202138
-0.00068482715
0.0011787118
0.0017654293
0.0021503434
0.0015613886
0.003070338
0.0013144254
0.0035131532
0.0011499384
0.0031311324
0.0010553976
0.0018053381
0.00096297879
-0.00010069998
0.00083864423
-0.0017487828
0.0008349606
-0.0024326315
0.00099648798
-0.0022302671
0.001207679
-0.0014986644
0.0014150948
-0.00073133889
0.0016128203
-1.6867362e-05
0.0016629217
0.00073850785
0.0015847036
0.0015013224
0.0015469174
0.0021112281
0.0015222129
0.0024121468
0.0014626507
0.0020072864
0.001398615
0.00097808685
0.001247988
-7.3035189e-05
0.00098614765
-0.00043521219
0.0010169393
-0.00020808903
0.0013817458
0.0017658652
0.000262299
0.00026670976
0.0017826658
0.00045190403
0.0016563399
0.00051036606
0.0014327831
0.00053854178
0.0012830105
0.00046850728
0.001168723
0.00029774753
0.0010358383
0.00014704892
0.00082730812
0.0001781373
0.0007232644
0.00031258436
0.00082477775
0.00047815591
0.001025482
0.00055242631
0.0012414527
0.00051850816
0.0014633909
0.00041551835
0.001558451
0.00014716273
0.001503225
-0.00032078491
0.0014793475
-0.00071227074
0.0015191066
-0.00090397713
0.001550698
-0.000650657
0.00153902
0.00020870549
0.0014772772
0.0013564266
0.0011823579
0.0021265246
0.00098651568
0.0022505264
0.0011814403
0.0014824729
0.001928842
-0.0006897914
0.0017157484
-0.0015167147
0.0016302495
-0.0023249326
0.0014156101
-0.0029870074
0.0012808388
-0.0030711475
0.0012141905
-0.0021225584
0.0011554551
-0.00015691922
0.0010156127
0.0019817685
0.00088545958
0.003334703
0.00089206861
0.0035459672
0.00097183518
0.002994302
0.0011029291
0.0020974684
0.0012766497
0.0010356915
0.0014048524
-0.00013011661
0.0013816604
-0.0014360539
0.0013547425
-0.0026227922
0.0014002174
-0.0033350066
0.0014906084
-0.0030441172
0.001546458
-0.0014294202
0.0016178655
0.0009956599
0.0014658871
0.0033088238
0.001204919
0.0042487653
0.0011882057
0.0013633023
0.0039660432
-0.0017428067
0.0016224241
-0.0033788914
0.0015704441
-0.004611816
0.001347055
-0.0050670659
0.0012368386
-0.0045537055
0.0012141356
-0.0029693479
0.0012023207
-0.00051766162
0.0011207089
0.0021226624
0.0010276403
0.0041486734
0.0010214088
0.0050814553
0.0010323717
0.004848347
0.001084648
0.0037153554
0.0011894356
0.0019735146
0.0012885861
-0.00016682034
0.001266761
-0.0022815976
0.0012238473
-0.0038112497
0.0012901054
-0.0044648726
0.0014093403
-0.0039709591
0.0014954032
-0.0024235872
0.0016056955
1.2561096e-05
0.0015367598
0.0025267493
0.0013129864
0.0044048654
0.0012942957
0.0014240984
0.0050379984
-0.0025217984
0.0015571532
-0.0044730321
0.0015097193
-0.0053265063
0.0012833832
-0.0051609648
0.0011869447
-0.0040682717
0.001171035
-0.0024406767
0.0011639588
-0.00052561248
0.0010989158
0.0014880089
0.0010337467
0.003315532
0.0010553141
0.0047278694
0.0010795342
0.0052478701
0.0011144237
0.0045497145
0.0011790224
0.002639731
0.0012584386
-0.00011787448
0.001217657
-0.0026803101
0.0011635225
-0.0041249769
0.0012453084
-0.0044764943
0.0013597058
-0.0038414492
0.0014329014
-0.0024509905
0.0015418086
-0.00058499406
0.0015114606
0.0016149205
0.0013319814
0.0035016451
0.0013433118
0.001492164
0.0046877884
-0.0027572744
0.0015794904
-0.004493762