/*--------------------------------*- C++ -*----------------------------------*\
| =========                 |                                                 |
| \\      /  F ield         | OpenFOAM: The Open Source CFD Toolbox           |
|  \\    /   O peration     | Version:  2406                                  |
|   \\  /    A nd           | Website:  www.openfoam.com                      |
|    \\/     M anipulation  |                                                 |
\*---------------------------------------------------------------------------*/
FoamFile
{
    version     2.0;
    format      ascii;
    arch        "LSB;label=32;scalar=64";
    class       volVectorField;
    location    "115";
    object      U;
}
// * * * * * * * * * * * * * * * * * * * * * * * * * * * * * * * * * * * * * //

dimensions      [0 1 -1 0 0 0 0];

internalField   nonuniform List<vector> 
20580
(
(0.088212663 -0.00012584348 5.557232e-22)
(0.089003453 -0.00064972703 -3.5259081e-20)
(0.095920453 -0.0001046774 1.2690548e-23)
(0.096384702 0.00027451155 2.1106228e-20)
(0.095327851 0.00055907599 5.301617e-23)
(0.09545395 0.0015094608 1.3413101e-21)
(0.095549485 0.0013965804 -1.0554645e-19)
(0.095349627 0.0014600786 9.8037925e-22)
(0.094605932 0.0019781944 -5.6040142e-21)
(0.094336609 0.0017900186 0)
(0.094281597 0.0015917878 9.49555e-21)
(0.093600236 0.0024706187 -2.6167319e-20)
(0.093412651 0.0012372822 -8.2487184e-21)
(0.093202452 0.00067191228 -4.2652054e-21)
(0.092285658 0.0016652207 2.6172156e-21)
(0.092544205 -0.00082902082 2.8630526e-20)
(0.092147888 -0.0024739093 -6.7726898e-20)
(0.089923764 0.0012834757 6.4719077e-22)
(0.091049028 -0.004249407 7.2732821e-20)
(0.091319924 -0.0072892053 4.6986969e-21)
(0.088011799 -0.0029198303 -4.1013276e-22)
(0.088395389 -0.0072475019 2.1684064e-21)
(0.090907687 -0.013311466 1.0216518e-20)
(0.088358147 -0.011263021 -1.2927437e-19)
(0.084993448 -0.0079955961 4.4323554e-20)
(0.089576096 -0.012539946 -7.7530111e-20)
(0.092444365 -0.023658628 -4.2051824e-20)
(0.0895542 -0.032280985 -1.8270957e-21)
(0.094065154 -0.029752233 2.8687122e-20)
(0.098465638 -0.025127503 -9.417167e-20)
(0.084885827 -0.028527039 -8.3198928e-20)
(0.087240247 0.0011591346 0)
(0.087647394 -4.8123369e-05 4.9710401e-20)
(0.095237235 -0.0010168454 -3.5093654e-22)
(0.095116025 0.0010415257 -2.1504579e-20)
(0.095108649 0.00023167855 -6.4768296e-21)
(0.095469641 0.00083578095 -9.8288787e-22)
(0.095445075 0.0011538205 1.391502e-19)
(0.094944826 0.0019178808 1.2253219e-20)
(0.094553772 0.0019622985 5.3848238e-21)
(0.094488025 0.0014206481 -3.04665e-21)
(0.093976889 0.0018850192 -3.9513495e-21)
(0.093608631 0.0023653505 -1.5199244e-21)
(0.093720961 0.00098171065 -8.0248475e-21)
(0.093010346 0.0010335911 -1.9834158e-22)
(0.09255223 0.0013864474 -4.2258766e-21)
(0.092984633 -0.00078267741 -2.5497803e-22)
(0.091490536 -0.0013124105 2.4718778e-20)
(0.090466503 0.00091132928 -6.4625322e-21)
(0.092556035 -0.0047502379 0)
(0.090548703 -0.0049948096 5.964765e-20)
(0.088203558 -0.0018704229 0)
(0.090549298 -0.0074052863 -5.9130495e-20)
(0.091137225 -0.011161344 -2.4631538e-20)
(0.087221784 -0.0087121361 1.2826286e-21)
(0.085737861 -0.0093520901 -1.603053e-20)
(0.092970757 -0.015345861 8.3366719e-21)
(0.097764274 -0.023381259 -4.4391986e-20)
(0.091668002 -0.029266765 -5.6368026e-20)
(0.090562446 -0.025921772 -1.2905369e-19)
(0.099041478 -0.018996236 1.9947742e-20)
(0.097110313 -0.024388494 1.7061859e-19)
(0.086490343 0.0029013167 0)
(0.08695677 0.00082515978 0)
(0.094023042 -0.0016067189 -4.5563489e-20)
(0.093988059 0.0015520121 3.3746493e-19)
(0.094346281 0.00038518553 -8.8026747e-20)
(0.0948305 0.00027288144 -3.5539155e-22)
(0.094831373 0.0010148927 -2.1068381e-19)
(0.09444109 0.0022792476 1.4609225e-20)
(0.094305537 0.001890669 0)
(0.094226238 0.001211771 3.7860743e-20)
(0.093636716 0.0021324208 -1.2408327e-20)
(0.093524254 0.001913767 -8.6838435e-21)
(0.0936186 0.0010170702 0)
(0.092774127 0.0014721389 5.2409454e-22)
(0.092612839 0.00088901943 -3.4352051e-21)
(0.093047918 -0.00050757798 -1.4761485e-21)
(0.09106529 -0.00032768801 3.4747199e-21)
(0.090834514 -0.00032557265 -3.2386138e-21)
(0.093029098 -0.0048646566 1.9715427e-20)
(0.090040724 -0.0030888715 0)
(0.088738504 -0.002144519 0)
(0.091995453 -0.0079318576 6.172914e-20)
(0.091611659 -0.0095931595 3.4935736e-21)
(0.087701574 -0.0076687982 -1.668176e-20)
(0.086762936 -0.012414886 -1.3479657e-20)
(0.094033464 -0.018462781 1.8429201e-20)
(0.099912609 -0.0210403 -2.9070007e-22)
(0.092780555 -0.023741837 -2.8806705e-20)
(0.087237905 -0.023835391 4.9394651e-20)
(0.097432411 -0.018672432 6.2453552e-20)
(0.10988825 -0.021265574 -5.7322498e-21)
(0.085663334 0.0037020458 0)
(0.086382356 0.0015917011 8.1682829e-23)
(0.09278098 -0.0013862611 -1.1676886e-21)
(0.092655426 0.0014537742 4.1788679e-21)
(0.093228322 0.00074431521 -2.4832972e-19)
(0.09374553 4.0162914e-05 -8.2408688e-21)
(0.093774576 0.0010994159 -2.0698477e-19)
(0.093634968 0.0021439006 0)
(0.093778894 0.0014978875 -1.0471646e-22)
(0.093595961 0.0012440886 -1.4275114e-20)
(0.093061047 0.0022884271 -3.7682547e-20)
(0.093165461 0.0012623558 -2.7713417e-21)
(0.093114984 0.001168336 -1.3624506e-22)
(0.092360174 0.0018641315 -4.6156506e-21)
(0.092419269 0.00035294074 5.3334752e-21)
(0.092755254 -0.00021839649 -9.288525e-22)
(0.090871651 0.00071596064 1.0058021e-20)
(0.091252127 -0.0017743757 -1.7727278e-22)
(0.092909669 -0.0047932148 4.8949735e-22)
(0.089549597 -0.0013258234 6.7138711e-21)
(0.089513866 -0.0030409994 7.9133469e-21)
(0.092769848 -0.0089562632 2.6063217e-20)
(0.091421914 -0.0080160331 6.3038786e-21)
(0.089188604 -0.0062093259 -6.4401181e-20)
(0.089172306 -0.014404398 0)
(0.093594468 -0.021279121 1.3383187e-20)
(0.099045451 -0.01856096 4.8455951e-20)
(0.094096532 -0.016940697 1.6332648e-20)
(0.085279073 -0.021216825 -2.0306529e-20)
(0.092096778 -0.022297712 6.262023e-20)
(0.11239753 -0.022356732 7.2370334e-20)
(0.085160561 0.0032707362 0)
(0.086090974 0.0019099119 8.6206251e-20)
(0.091850313 -0.00033280821 7.8020398e-20)
(0.091535392 0.00082295022 -2.5779315e-19)
(0.092027808 0.001180405 -1.2049207e-21)
(0.092433667 0.00035303535 -2.4807001e-20)
(0.092394092 0.0014876704 0)
(0.092516292 0.0015887861 -3.1643686e-22)
(0.092772601 0.0010266888 -7.1743939e-22)
(0.092479919 0.001562754 -1.2931552e-20)
(0.092195671 0.0021772444 -6.5697606e-21)
(0.092422364 0.00078350514 -4.3419011e-23)
(0.092180566 0.0013171248 -1.6419811e-20)
(0.091728758 0.0020105241 -3.0646682e-21)
(0.091929306 -3.5165166e-05 4.3263478e-21)
(0.09199288 -9.1728067e-05 -2.3410006e-20)
(0.09061359 0.0014505571 -6.7916461e-21)
(0.09152902 -0.002937961 7.0470548e-20)
(0.092239589 -0.0043917144 6.1506252e-20)
(0.089123675 -0.00013590663 0)
(0.090550135 -0.0042486816 8.8570517e-21)
(0.093073844 -0.0095879564 -5.4990743e-23)
(0.09066206 -0.0068824465 -5.4037832e-20)
(0.090950389 -0.0051013182 -3.9383894e-21)
(0.09267986 -0.014051427 0)
(0.093278485 -0.021478083 -3.5043052e-20)
(0.09638795 -0.015361715 8.3475857e-20)
(0.095724269 -0.01028327 -9.9834867e-22)
(0.088223307 -0.017876698 -1.3895072e-19)
(0.088286072 -0.028102573 -1.6589515e-20)
(0.10508272 -0.028661991 -1.0313414e-19)
(0.084956251 0.0018667285 -4.3669527e-20)
(0.08580645 0.0017864786 4.1555086e-22)
(0.091285268 0.00094275492 1.5593636e-23)
(0.090875454 -2.3514674e-05 1.6968131e-20)
(0.091059807 0.0013170462 8.7137711e-20)
(0.091193181 0.00095886626 -2.2483489e-22)
(0.09102949 0.0017781567 -4.469166e-20)
(0.091234271 0.00093513043 -1.1510561e-22)
(0.09134091 0.00077938222 4.8746029e-21)
(0.091005461 0.0019130585 1.4851816e-21)
(0.091032068 0.0017255217 5.7636242e-21)
(0.091235669 0.00068126681 -1.3636286e-20)
(0.0908599 0.0014591711 -1.7818138e-20)
(0.09082779 0.0017711271 -1.0474725e-20)
(0.091122647 -0.00023450505 1.3196156e-20)
(0.090824628 -0.00010365511 1.0356392e-21)
(0.090201563 0.0016273795 -1.4803001e-20)
(0.091490183 -0.0035940124 6.5935462e-20)
(0.09102998 -0.0035011252 4.2534401e-21)
(0.088739172 0.00027453062 0)
(0.09156757 -0.0055377979 8.7601475e-21)
(0.093015697 -0.0094087235 2.9598524e-20)
(0.089541676 -0.0062945155 8.4509334e-20)
(0.092039708 -0.0048350823 0)
(0.096311989 -0.011865458 1.0253092e-19)
(0.093531 -0.019213089 -3.489164e-22)
(0.092640048 -0.013641845 -8.8249336e-20)
(0.096482849 -0.00558948 -9.170247e-20)
(0.095765201 -0.012640032 9.6844346e-20)
(0.090783988 -0.029350722 6.2227872e-20)
(0.094697373 -0.035584091 -1.1953336e-19)
(0.085733716 0.00026589216 -1.1947189e-21)
(0.086251563 0.0012097177 5.577192e-20)
(0.091225741 0.0015920093 1.0270884e-22)
(0.090452769 -0.00062610206 2.7802389e-19)
(0.090140462 0.0010896506 -4.6676575e-20)
(0.090015234 0.0015099425 4.1436126e-20)
(0.089822712 0.0016233255 1.5417642e-19)
(0.089966966 0.00050733927 3.9975118e-24)
(0.089787772 0.00091495956 5.0658344e-23)
(0.089468705 0.00195873 -2.528821e-21)
(0.089672022 0.00120911 2.0818825e-22)
(0.089700109 0.00090319193 -3.7523086e-22)
(0.08929984 0.0015234404 1.5335349e-20)
(0.089643171 0.0012439086 3.4553276e-23)
(0.089974407 -0.00011386941 -1.467697e-20)
(0.089364481 -0.00016099635 1.2142857e-21)
(0.089583877 0.0010599978 4.7898024e-22)
(0.091038283 -0.0036458443 -9.0358153e-20)
(0.089516962 -0.0022403709 0)
(0.088412838 -0.00010153835 -1.4424897e-20)
(0.092194318 -0.0063851869 -7.700841e-21)
(0.092486985 -0.0080396288 3.2256779e-20)
(0.088150955 -0.0056855888 -5.3062875e-21)
(0.091705136 -0.0059735716 2.4354839e-20)
(0.098321725 -0.0096445755 1.2386636e-20)
(0.094196915 -0.014310579 1.272861e-20)
(0.089428727 -0.012449488 -6.7961071e-21)
(0.095641759 -0.0060728269 -4.6677921e-21)
(0.1037195 -0.0098760149 1.9968712e-19)
(0.10079886 -0.025062173 -2.6682763e-19)
(0.092471294 -0.036974471 1.1745299e-20)
(0.091649212 -0.00046562065 1.0099263e-19)
(0.08735157 0.00049281061 0)
(0.091666974 0.0010815631 1.0985661e-19)
(0.090542416 -0.00084349645 -2.8226597e-19)
(0.089737064 0.00056186634 2.2247052e-19)
(0.089393397 0.0015619561 9.3304685e-23)
(0.089091729 0.00088183411 5.2875492e-20)
(0.08887796 0.00036811326 3.0065926e-22)
(0.088374475 0.0013530723 3.6513769e-22)
(0.088115262 0.0016002357 -3.6427469e-20)
(0.088273012 0.00085425854 9.8969961e-21)
(0.088092957 0.0011960324 -4.1910553e-22)
(0.087745629 0.0014473293 6.5063418e-21)
(0.088249173 0.00059910859 -2.048166e-20)
(0.088548138 0.00019504045 1.1707747e-20)
(0.087767209 -7.8232592e-05 -6.0689476e-21)
(0.088633859 3.3067175e-05 1.5587875e-20)
(0.090014066 -0.0030843076 -9.0918191e-21)
(0.087950159 -0.00078911594 5.206326e-22)
(0.088057708 -0.00099165415 1.0925746e-21)
(0.092046602 -0.0068264264 4.8727483e-21)
(0.091485451 -0.005567647 7.3144147e-22)
(0.087206072 -0.0043132075 0)
(0.090727012 -0.0082829313 1.2452107e-20)
(0.098300587 -0.0088795195 3.9116498e-20)
(0.095137173 -0.008378898 7.5913256e-20)
(0.087495756 -0.010621403 -9.9531645e-21)
(0.092447653 -0.010648532 1.5030667e-19)
(0.1060528 -0.011223646 -5.829138e-20)
(0.11061598 -0.018409631 2.8423401e-19)
(0.099619024 -0.029455383 1.4294343e-19)
(0.10467277 -0.00021968293 -4.9397069e-20)
(0.090333191 -0.00015747135 8.9815192e-24)
(0.093387826 -0.00021615457 3.0485723e-20)
(0.091489584 -0.00048921164 -2.751528e-19)
(0.090130611 0.00015032481 2.0048006e-21)
(0.089595754 0.0011840867 5.4052785e-22)
(0.08924664 8.4698226e-05 1.0472353e-20)
(0.088597995 0.00061666051 1.4508159e-23)
(0.08775944 0.0017015418 5.1819151e-21)
(0.087388685 0.0010356089 8.3124911e-21)
(0.087128891 0.00073275991 1.7154876e-20)
(0.086722366 0.0012965163 0)
(0.086428956 0.0012865609 -3.5424593e-23)
(0.086851634 8.7173407e-05 1.7741364e-21)
(0.087065693 0.00050821306 -6.4148102e-21)
(0.086272798 0.00024338862 -2.1263788e-20)
(0.087402603 -0.00101331 -5.8131108e-21)
(0.088428749 -0.0022920593 -3.1580508e-20)
(0.086412576 0.00059373981 -2.4244387e-20)
(0.087665944 -0.001944458 6.1196179e-20)
(0.09103375 -0.0069211018 -2.0645847e-20)
(0.090117177 -0.0025847659 -2.0459034e-21)
(0.087407073 -0.0023026382 -5.7481301e-21)
(0.090034367 -0.010489349 8.5276156e-21)
(0.096416617 -0.0097200006 5.2718104e-21)
(0.095854715 -0.0043910242 1.4711277e-20)
(0.089214687 -0.0081916712 1.2764662e-19)
(0.090584279 -0.016393815 -8.0609889e-22)
(0.10315761 -0.016795514 1.7478752e-19)
(0.11313593 -0.014187742 2.7729637e-20)
(0.10854955 -0.016265693 1.0474694e-19)
(0.11514484 0.00070557434 -3.1141334e-20)
(0.096479108 -0.0007475494 8.7837202e-23)
(0.097600751 -0.0017118866 -1.3913414e-20)
(0.0947492 2.1822677e-05 1.8793341e-19)
(0.092250324 -7.0352085e-05 -1.4372664e-21)
(0.091031891 0.0005213428 0)
(0.090188363 -0.00032469942 5.674167e-20)
(0.089010546 0.0010857477 1.8440666e-20)
(0.088138342 0.0015528128 -6.2925238e-21)
(0.087565421 0.00063069332 -1.2039162e-20)
(0.086978307 0.00082798941 -4.2743754e-23)
(0.086329649 0.0013300072 1.352833e-22)
(0.085937572 0.0011424407 0)
(0.085965454 -0.00019255278 -4.0389498e-22)
(0.085893314 0.00082297751 1.2232323e-20)
(0.08522724 0.00073044447 6.1293745e-22)
(0.08622563 -0.0017029514 2.7079005e-20)
(0.08655288 -0.0013885053 -6.5387344e-20)
(0.084998056 0.0014799074 8.21127e-21)
(0.087230534 -0.0027370347 7.4340113e-20)
(0.089236812 -0.006503259 -3.5793655e-20)
(0.088045873 -0.00032841928 -8.0404627e-20)
(0.088330331 -0.00012195492 1.1049493e-19)
(0.090242057 -0.010780637 1.0756581e-19)
(0.093036322 -0.01109268 1.7722153e-19)
(0.094877659 -0.0022596888 -3.3092547e-21)
(0.093406707 -0.0048773193 -6.3994664e-22)
(0.092419822 -0.018537037 -7.6578769e-20)
(0.098698796 -0.023163279 9.0125276e-20)
(0.10824067 -0.01413316 2.1487416e-19)
(0.11190829 -0.0057552275 1.5138941e-20)
(0.11403214 0.001821263 -2.0587599e-20)
(0.1010132 -0.00033573163 1.2028752e-22)
(0.10230206 -0.0022876826 2.2135291e-20)
(0.099623915 0.00068552057 4.4180864e-22)
(0.096750443 0.00010131496 -2.7955135e-23)
(0.094597963 -8.1080706e-05 -1.5077066e-19)
(0.092876471 -8.8992618e-05 6.8053829e-20)
(0.091031948 0.0014582938 -1.5892692e-23)
(0.089817536 0.0010327202 -8.1819146e-21)
(0.088590848 0.0006169403 2.6342398e-20)
(0.087555265 0.0008360069 1.6049496e-21)
(0.086721483 0.0013059687 -2.3759225e-20)
(0.086320665 0.00097139255 0)
(0.08599936 -0.00026967379 -3.3659228e-23)
(0.085575691 0.00093340704 4.5575801e-20)
(0.085115316 0.0011123315 -3.1499823e-22)
(0.085674511 -0.0020094415 -3.8462038e-22)
(0.084988268 -0.00053480865 -3.2629832e-22)
(0.083990099 0.0015502093 1.4880357e-21)
(0.086830637 -0.0033512964 -8.2715621e-22)
(0.087050257 -0.005410401 4.147009e-20)
(0.085323686 0.00054151283 -9.5022185e-20)
(0.088998726 0.00081919089 7.0264983e-21)
(0.091448682 -0.0091636152 1.1737581e-20)
(0.089821574 -0.011613076 3.1383712e-20)
(0.0917198 -0.0027390009 1.2438704e-20)
(0.096806017 -0.0029583218 -1.0511093e-19)
(0.09749848 -0.015642036 2.3489494e-19)
(0.095744151 -0.025095769 -7.2791364e-21)
(0.099115266 -0.016293504 -2.4120421e-19)
(0.10654769 -0.0027645616 -3.2964879e-20)
(0.10749109 0.0034929636 -1.1794198e-20)
(0.10193429 0.00034503366 0)
(0.10489273 -0.0019911575 -3.2707317e-20)
(0.10318227 0.001018557 4.1132901e-19)
(0.10160126 0.00057024827 2.4082742e-19)
(0.1000583 -0.00045874562 -8.8255639e-21)
(0.097908677 0.00046716092 -2.4061234e-23)
(0.095590142 0.001314624 8.6975301e-24)
(0.09372762 0.00048207602 7.5351053e-21)
(0.091742157 0.00086029587 2.4088062e-20)
(0.089975316 0.00069743064 -1.151792e-20)
(0.08857333 0.0012789429 2.2100073e-23)
(0.087793794 0.00079994284 -2.3750195e-20)
(0.086859639 -0.00010481169 0)
(0.085940197 0.00079490163 4.4908203e-20)
(0.085795395 0.0012137196 -1.7519269e-20)
(0.085933815 -0.0018362094 -2.1576489e-20)
(0.084412669 0.00018900093 -6.3250245e-20)
(0.084024742 0.00081615844 -4.0416939e-22)
(0.086972698 -0.0036126112 -4.6035292e-20)
(0.085344376 -0.003828459 1.2374961e-20)
(0.082816278 8.6224537e-05 5.0894583e-22)
(0.088765851 -0.00031729936 -5.2416184e-20)
(0.092537566 -0.0070802267 -1.2036029e-19)
(0.087440155 -0.0097401412 8.6893595e-21)
(0.08759368 -0.0046785845 5.5203426e-20)
(0.096989317 -0.0033654325 3.9512561e-20)
(0.10240714 -0.010558881 -3.3501528e-22)
(0.096861825 -0.01973254 2.7213675e-19)
(0.091604016 -0.017973593 7.0313558e-20)
(0.096838517 -0.0071571073 -1.2126324e-19)
(0.097419471 0.0040005141 4.0697736e-20)
(0.098999539 0.0017390669 1.1442622e-19)
(0.10397954 -0.00059465262 -5.681065e-23)
(0.10281942 0.0010066762 3.9178057e-21)
(0.10257171 0.0010058091 2.1042627e-22)
(0.10214227 -0.00040313822 -1.3410854e-19)
(0.1011844 0.0010549748 6.6093177e-20)
(0.10007928 0.00069384675 1.1070144e-22)
(0.098718389 0.00025225677 6.8432942e-22)
(0.096865788 0.00091426369 -6.9279168e-21)
(0.094800386 0.00034571762 3.8430382e-22)
(0.092892547 0.00095195287 -8.8978039e-21)
(0.091695461 0.00048370574 2.5583862e-23)
(0.090027372 0.00030781729 -1.0066194e-21)
(0.088314658 0.00041296948 0)
(0.087770268 0.00081207715 0)
(0.087182802 -0.0011199111 4.0307109e-21)
(0.085080311 0.00085859308 -1.6631078e-21)
(0.085120384 -0.00052422668 -5.3869959e-20)
(0.087667785 -0.0036376778 -9.259348e-22)
(0.085006104 -0.0017965375 1.7144972e-20)
(0.081742762 -0.00091023586 3.6172691e-21)
(0.088006423 -0.0032129218 0)
(0.092663702 -0.0052467534 0)
(0.086398978 -0.0052824132 0)
(0.084022439 -0.0058850293 -7.0307862e-21)
(0.093730498 -0.0058316889 -3.5017223e-21)
(0.10292085 -0.0068929168 2.9186702e-21)
(0.09893972 -0.0090550652 -3.2772567e-20)
(0.088740909 -0.013485957 2.8090651e-20)
(0.088192311 -0.012730378 1.4665307e-20)
(0.091261895 0.0040243279 3.0552192e-20)
(0.093083563 0.0019722294 1.2051585e-21)
(0.1002739 0.00071958241 -1.5271765e-22)
(0.10023744 0.00053768066 -2.1876568e-19)
(0.10105168 0.0009714887 0)
(0.10119464 8.948639e-05 -5.2763105e-22)
(0.10069482 0.0014200627 5.7156059e-20)
(0.10027639 6.3854024e-06 4.8492815e-21)
(0.099726806 0.00042655382 -2.8559929e-22)
(0.098964492 0.00075673001 -3.1845962e-20)
(0.098011765 0.00040404337 4.299391e-21)
(0.096952113 0.00058843903 0)
(0.096333398 0.00020064623 -4.7023744e-20)
(0.094876886 0.00086866134 -1.2893972e-20)
(0.093128944 -1.0290801e-05 1.6499811e-20)
(0.092474587 5.2129198e-05 1.677754e-21)
(0.090892542 -0.00057988623 -1.5956388e-20)
(0.088309266 0.0012161593 1.0456455e-21)
(0.088203269 -0.0018176805 -5.3947443e-20)
(0.08961475 -0.0034885655 3.599454e-22)
(0.086699266 0.00075710068 -1.4245014e-21)
(0.08354856 -0.0014063748 7.5643293e-20)
(0.088541525 -0.0067823139 -2.0867497e-20)
(0.092677442 -0.0041048787 0)
(0.087433055 -0.00020671143 -1.568809e-20)
(0.083897979 -0.0053812336 3.2367014e-20)
(0.090802996 -0.0098996382 9.7839797e-20)
(0.099877823 -0.0062681514 -6.759981e-20)
(0.10049353 -8.2477015e-05 1.8720893e-20)
(0.0919853 -0.0030748219 -9.2566374e-20)
(0.086981588 -0.012433517 -6.2551774e-20)
(0.090642356 0.0022684383 -1.8934801e-20)
(0.091222615 0.0017476523 -7.64866e-21)
(0.096660439 0.0013808955 3.002469e-22)
(0.09639602 2.7694799e-05 -4.3231665e-20)
(0.097327804 0.00048818049 -9.004974e-20)
(0.098083876 0.00062955896 2.145285e-22)
(0.09824042 0.0011750911 -1.0652855e-19)
(0.09848929 -0.00029098299 -3.4617157e-20)
(0.098313105 0.00061247621 3.9689815e-22)
(0.098223934 0.00025572667 2.5428553e-22)
(0.097695285 0.00070903897 7.6103594e-21)
(0.097161798 0.00013065847 2.870211e-22)
(0.097094068 -0.0002771646 1.9497172e-22)
(0.096565245 0.0011929668 9.6084498e-23)
(0.095750669 -0.00022060685 3.6918107e-20)
(0.095914239 -0.00089936563 1.0484667e-22)
(0.094932415 -0.00034029203 3.0247231e-20)
(0.093197279 0.001127352 -4.5963119e-22)
(0.093333117 -0.0028330236 -2.9292996e-21)
(0.093286675 -0.0034128686 0)
(0.090872313 0.0027327531 -3.9569517e-20)
(0.08911196 -0.0010231405 -1.0308019e-21)
(0.091640137 -0.009198623 -2.6812407e-20)
(0.09350971 -0.0035115101 1.1091475e-21)
(0.090952955 0.0040830025 -1.9814918e-20)
(0.088888132 -0.0021023491 -2.2715119e-19)
(0.091186105 -0.012425045 -1.0258881e-21)
(0.095911375 -0.0081875139 -9.4214227e-22)
(0.099028831 0.0025433021 1.424146e-21)
(0.097898344 0.0054570309 6.0087948e-20)
(0.09411571 -0.0077063654 -7.4554629e-21)
(0.10143588 0.00084356832 2.3492288e-20)
(0.093374719 3.193985e-05 -2.0722687e-23)
(0.097043711 0.00020090637 3.8080437e-20)
(0.095739362 -0.00031666118 -3.6372387e-21)
(0.095689519 0.00017825683 1.0664378e-21)
(0.095652367 0.0010423052 -1.3567541e-21)
(0.095638056 0.00073691528 0)
(0.095734598 0.00018625475 1.6128439e-22)
(0.095761497 0.00049618245 1.2284849e-23)
(0.09596787 -0.00010468322 7.0976977e-20)
(0.095848541 0.0011575538 -5.6549601e-23)
(0.095892306 0.00013026275 4.5088461e-24)
(0.095887958 -0.00044719254 2.6697761e-20)
(0.095863122 0.0013531871 3.5644762e-21)
(0.095697182 -0.00016146919 -5.065073e-20)
(0.095885489 -0.0014120143 -1.7593391e-22)
(0.095295264 -2.7422019e-05 -3.7554021e-22)
(0.095010624 0.00096683204 4.38293e-22)
(0.095992681 -0.0029776912 0)
(0.094987792 -0.0027684604 -8.763052e-20)
(0.093878622 0.0034054128 -5.2929189e-20)
(0.095150994 -0.00027488122 -6.8055048e-20)
(0.095791052 -0.0092300856 2.2547864e-20)
(0.094270058 -0.0038935216 2.0044635e-21)
(0.094234535 0.0051066673 -4.0607653e-20)
(0.096844339 0.00052666326 7.9506789e-20)
(0.096660655 -0.011493654 -1.7347864e-20)
(0.094494613 -0.011214525 7.0132442e-20)
(0.096253125 8.6216699e-05 -9.5480288e-20)
(0.10208966 0.0064185265 -1.4200832e-20)
(0.10470574 -0.0016939597 5.3371825e-21)
(0.094319496 -0.0013016651 4.2029525e-20)
(0.093513925 -0.0014927805 1.1202096e-23)
(0.097226885 -0.0017801417 -2.1114808e-22)
(0.095732277 -0.00075169587 4.038335e-19)
(0.095480564 -0.00022951917 -2.722954e-21)
(0.095233937 0.00078136336 9.5346638e-20)
(0.094993587 -2.906322e-05 0)
(0.09468753 0.00081080636 0)
(0.094458816 -5.8438992e-06 8.9466572e-21)
(0.094229806 -0.0001899022 0)
(0.094110548 0.0009856906 -8.5221979e-21)
(0.094353496 2.8257677e-05 1.3518197e-20)
(0.094101663 -0.00043789282 0)
(0.094346651 0.00094985295 1.3573539e-20)
(0.094769174 -0.00013532115 -4.9234997e-20)
(0.094850341 -0.0014612172 -1.4556687e-20)
(0.094238355 0.00011845094 -2.5696111e-22)
(0.094879952 0.00021725775 -3.5361865e-21)
(0.096174807 -0.0026712716 3.5015372e-20)
(0.094070395 -0.0019321705 -5.7295992e-20)
(0.093756932 0.0023682797 5.2999897e-20)
(0.097870141 -5.6344422e-05 -2.6158068e-22)
(0.097896376 -0.0065885874 -3.1994782e-20)
(0.093334517 -0.0036981923 -4.6268371e-20)
(0.094684573 0.0033116976 1.9836937e-20)
(0.10219404 0.0010855193 1.0558672e-19)
(0.10311121 -0.0073255731 -5.9782725e-20)
(0.095616616 -0.010948644 -1.8264194e-20)
(0.093375128 -0.0048063672 1.5796382e-19)
(0.10205721 0.00058939406 1.3417264e-19)
(0.11180689 -0.00101801 -2.2095368e-20)
(0.092707223 -0.00058684052 -7.2874593e-20)
(0.092599958 -0.0016844693 -5.6309031e-23)
(0.096753263 -0.0031350464 4.7223598e-20)
(0.09522188 -0.00053730762 -2.6325446e-19)
(0.095039351 -0.0001439115 3.856099e-19)
(0.094823689 0.00053698073 1.0787613e-21)
(0.09445126 -5.3697781e-05 1.7486805e-22)
(0.094135354 0.0013731184 3.199438e-20)
(0.093900322 -0.00032066805 -3.6666044e-20)
(0.093413439 0.00023318096 1.280625e-20)
(0.093278848 0.00069161673 -4.7063769e-21)
(0.093525464 0.00016346241 -1.7672757e-22)
(0.092986395 0.00017244089 -2.287188e-21)
(0.093249968 0.00036849579 1.1264369e-20)
(0.093898854 8.3289096e-06 -2.3639404e-20)
(0.093735594 -0.00090723018 -1.8574019e-20)
(0.093012519 0.00036934502 1.7063759e-20)
(0.094112604 -0.00058620154 -2.4888427e-20)
(0.095412191 -0.0016227314 -2.9606371e-21)
(0.092618271 -0.00045131349 1.4593748e-20)
(0.092320238 0.00054412178 2.1174076e-20)
(0.097833301 -0.0011246434 2.3947081e-20)
(0.098183687 -0.002887917 -5.7939305e-20)
(0.091729096 -0.001947187 -4.3298044e-23)
(0.092458886 2.9470936e-06 2.4342838e-20)
(0.10243169 -0.0019005202 -1.9942795e-20)
(0.10653401 -0.0036577052 -1.0028384e-21)
(0.098585413 -0.0053739677 1.2676692e-19)
(0.09243506 -0.0067518666 3.8452666e-21)
(0.099430991 -0.0062052496 4.677917e-20)
(0.11182458 -0.0056169749 1.6598956e-19)
(0.099520623 0.00061676922 -1.1278844e-19)
(0.094201316 -0.00068639685 -4.5092502e-27)
(0.097191287 -0.0034276019 -2.0280998e-23)
(0.095499993 -0.00043740345 2.0161547e-22)
(0.095367458 2.3516511e-05 -1.0351134e-19)
(0.095096612 -0.00034409778 -1.3241271e-19)
(0.094596691 -0.00026582483 4.8303845e-20)
(0.094331608 0.0011630182 -4.3739894e-20)
(0.093990908 -0.0002587948 -5.5177452e-21)
(0.093254309 0.00039149879 -2.0561276e-23)
(0.093113088 -9.5650588e-05 -1.0179342e-20)
(0.093226809 1.8691157e-05 1.6137919e-20)
(0.092600341 0.00061973599 4.2271832e-22)
(0.092734463 -0.00045597988 -2.5114818e-21)
(0.093301605 -4.399285e-05 -8.1449898e-23)
(0.092941003 -0.00030585423 9.3769691e-21)
(0.092206197 0.00032220604 5.2138941e-21)
(0.093283834 -0.0017212651 0)
(0.094406934 -0.00080318095 -5.7419856e-22)
(0.091816082 0.0011269684 4.0083028e-22)
(0.091408392 -0.0019460471 7.6002102e-20)
(0.09647329 -0.0034733678 -2.7898366e-20)
(0.097475514 -0.00015060731 2.8593383e-20)
(0.091567263 0.0014745158 -4.0968264e-20)
(0.091424945 -0.0032630679 -2.5774212e-20)
(0.10008783 -0.0066696383 -3.0345554e-20)
(0.10527685 -0.0026172287 -3.4903124e-21)
(0.10044013 0.0016575338 -6.5326367e-20)
(0.094099666 -0.0034191932 2.3766691e-19)
(0.097180102 -0.010429053 -6.4566855e-20)
(0.10750227 -0.010384866 -2.1281304e-19)
(0.097226771 0.00341242 3.9983526e-21)
(0.096406842 0.00047634742 5.9053187e-20)
(0.099376882 -0.0021312166 -8.4778578e-21)
(0.097413205 0.00070925508 -3.4076213e-19)
(0.097366645 0.00046255554 6.9835038e-22)
(0.096900966 -0.00051931273 6.4161632e-23)
(0.095954907 0.00045327023 2.9823495e-23)
(0.095655953 0.00017352657 -6.4420339e-20)
(0.095236046 7.7686896e-05 -3.4426818e-21)
(0.09427462 0.00063235744 -7.9387476e-21)
(0.093777494 -0.0002023773 5.0209435e-22)
(0.093549946 0.00025635109 -6.8839908e-23)
(0.09303059 0.0011825594 8.9796516e-21)
(0.09301473 -0.00091058597 7.6862209e-23)
(0.093345459 -2.6168527e-05 -8.2267941e-20)
(0.093007457 0.00041959717 2.0581194e-21)
(0.092480793 0.00077885955 -2.2826865e-22)
(0.09312939 -0.0020837023 1.7689061e-22)
(0.093642904 0.00017923191 -9.4549332e-20)
(0.092248052 0.0030479274 5.0345426e-20)
(0.091901096 -0.0028836595 -3.4445979e-21)
(0.095029928 -0.0049292147 8.8334486e-20)
(0.096128217 0.0018210111 3.584419e-21)
(0.093009039 0.0052387863 -8.0418137e-20)
(0.093011245 -0.003584344 1.0058878e-20)
(0.098237873 -0.0095381996 -3.7372094e-20)
(0.102052 -0.0022466384 -3.3860311e-19)
(0.10133955 0.0066794824 1.2953406e-20)
(0.099108036 0.0030216655 -6.5515178e-20)
(0.099129428 -0.0089367625 -1.2951362e-19)
(0.10306199 -0.012245779 3.4145398e-20)
(0.1091906 0.0046469279 -1.2591177e-19)
(0.1004956 0.0034457555 1.7802498e-21)
(0.10225454 -0.00083428952 -5.4213209e-22)
(0.10014292 0.00091518964 -1.9016027e-21)
(0.10015271 0.0010715172 -2.0532688e-21)
(0.099395549 -0.0013193019 -2.6657005e-22)
(0.098470438 0.00067000008 1.2469234e-22)
(0.098005431 -0.0007480524 -1.2824173e-22)
(0.09719756 0.00033797059 -1.2093995e-23)
(0.096092573 4.8192083e-05 -1.2750462e-23)
(0.095546292 -0.00078513074 -4.6446852e-23)
(0.095103296 0.00015873326 -7.1684472e-20)
(0.094817812 0.0009693137 -1.3475131e-20)
(0.09459024 -0.00097300302 -5.7179772e-23)
(0.094384313 -0.00016469557 4.1987944e-24)
(0.093949061 0.00057559782 -1.1027156e-22)
(0.093844033 0.00073461468 9.0975848e-22)
(0.094036167 -0.0024371157 -5.4063222e-22)
(0.093638573 0.00011064007 1.0660515e-19)
(0.09377914 0.0034103469 -3.7347634e-20)
(0.094170074 -0.0028596836 -1.3730088e-19)
(0.094509908 -0.0061143071 -4.5935608e-22)
(0.094552944 0.0017325352 1.274523e-21)
(0.094873662 0.0060269416 6.219486e-22)
(0.096857587 -0.0024097625 9.1438818e-20)
(0.097840543 -0.010363417 -3.4565725e-21)
(0.097487923 -0.0035071383 7.7405699e-21)
(0.099219041 0.0071455722 -1.813678e-20)
(0.10324396 0.0070755614 -4.9702933e-20)
(0.10446269 -0.004144144 1.9731933e-19)
(0.10269347 -0.011016541 -3.5954938e-20)
(0.11248085 0.0050182499 -1.7871571e-21)
(0.098101197 0.0013887728 -8.7255607e-20)
(0.10133367 0.0005483137 2.1101294e-23)
(0.099694975 0.0014184374 2.7914635e-19)
(0.10047519 0.00054318266 4.1716437e-19)
(0.10016069 -0.00034603942 7.0900409e-20)
(0.0997993 0.0011607332 1.178215e-19)
(0.099691157 -0.0012709521 7.7467623e-23)
(0.099311735 0.00034522497 -2.3686264e-21)
(0.098902938 0.00018223502 -8.6169488e-21)
(0.09859167 -0.00034339929 -2.7496991e-20)
(0.098190906 0.00014135937 1.5747633e-22)
(0.098367087 0.00078643541 -1.589258e-20)
(0.098238941 -0.00077905036 8.1833959e-20)
(0.097903773 -0.0003274103 -5.6901075e-22)
(0.097584312 0.00060655803 -6.2867443e-20)
(0.098088976 0.00091421167 -2.9773323e-22)
(0.09800109 -0.0015667134 3.6489574e-20)
(0.096632528 5.62393e-05 -9.2130142e-22)
(0.098039415 0.0030095262 -1.4015942e-21)
(0.099716609 -0.0013410388 1.0850038e-19)
(0.097792643 -0.0046888704 4.6321792e-22)
(0.096061384 0.00072898592 -3.6145623e-22)
(0.098891196 0.0049692242 -2.8034859e-20)
(0.10370339 -5.1541701e-05 1.4142739e-21)
(0.10248942 -0.0068299463 5.1630729e-20)
(0.097246909 -0.0041399331 2.6290527e-19)
(0.098791314 0.0047576037 0)
(0.107724 0.0068626934 -1.5657779e-20)
(0.11262224 0.00046366212 1.8074279e-19)
(0.10822482 -0.0056883775 6.8215386e-20)
(0.10176298 0.0017069851 5.7823417e-20)
(0.061758187 0.0010292643 0)
(0.11370379 -0.0024518632 1.8466716e-22)
(0.11427536 0.00041840617 2.9507852e-20)
(0.10539576 0.00056033526 4.7881817e-20)
(0.11305827 -0.0011224946 1.0397657e-21)
(0.11459953 0.00051962191 7.188792e-20)
(0.10333068 -9.2199464e-05 -2.0076049e-20)
(0.113657 -0.00012406074 3.5528512e-23)
(0.10840401 -0.00026882463 -4.4235128e-21)
(0.11369072 -0.00017501826 -9.5664972e-22)
(0.10688601 0.00012596699 1.9623742e-20)
(0.11303257 8.1574319e-05 4.1162271e-22)
(0.10739977 0.00013485834 3.7279769e-20)
(0.11190114 -0.00034289414 -1.316344e-20)
(0.1112012 -0.00013209359 -1.7451066e-21)
(0.1134337 6.9304934e-05 2.2208733e-21)
(0.11233653 -0.00042061929 1.9980026e-20)
(0.11101924 -0.00013975935 -2.3459005e-20)
(0.11299881 0.00053054526 8.7022861e-22)
(0.11532016 -0.00035461407 3.4276029e-20)
(0.11153978 -0.0010797308 -6.6124561e-21)
(0.10895668 -0.00030324609 2.0594344e-21)
(0.11315221 0.00090152916 -2.6979108e-20)
(0.11882524 1.7092992e-05 7.3687779e-22)
(0.1170476 -0.0014677568 4.1530684e-20)