/*--------------------------------*- C++ -*----------------------------------*\
| =========                 |                                                 |
| \\      /  F ield         | OpenFOAM: The Open Source CFD Toolbox           |
|  \\    /   O peration     | Version:  2406                                  |
|   \\  /    A nd           | Website:  www.openfoam.com                      |
|    \\/     M anipulation  |                                                 |
\*---------------------------------------------------------------------------*/
FoamFile
{
    version     2.0;
    format      ascii;
    arch        "LSB;label=32;scalar=64";
    class       volVectorField;
    location    "115";
    object      U_0;
}
// * * * * * * * * * * * * * * * * * * * * * * * * * * * * * * * * * * * * * //

dimensions      [0 1 -1 0 0 0 0];

internalField   nonuniform List<vector> 
20580
(
(0.088146799 -0.00014830555 3.1953177e-22)
(0.089087444 -0.00071805867 -4.9969057e-21)
(0.09596512 -3.5406295e-05 -3.9326992e-22)
(0.096503752 -4.7024284e-05 2.1215688e-20)
(0.09512745 0.0009826746 2.8733817e-23)
(0.095623139 0.001419746 7.1261682e-21)
(0.095769838 0.0011443775 -1.0903209e-19)
(0.095218193 0.0014663742 2.7830233e-21)
(0.094519079 0.0021042385 -6.0391e-21)
(0.094332038 0.0019423932 0)
(0.094384917 0.001365357 7.4889962e-21)
(0.093543623 0.002542766 -7.2044007e-21)
(0.09333274 0.0015002224 -1.0014756e-20)
(0.093244513 0.00053384319 -2.4745923e-21)
(0.092251548 0.0016939664 -1.707923e-21)
(0.092398543 -0.00033275061 3.1282459e-20)
(0.092350598 -0.0029261319 -4.5803522e-20)
(0.090012275 0.00097876378 1.9141439e-21)
(0.090615021 -0.0032782704 7.6551717e-20)
(0.09163988 -0.0079618617 3.3931818e-21)
(0.088376694 -0.0037350197 -5.1918127e-22)
(0.088016355 -0.0065222293 5.8163003e-22)
(0.090930435 -0.013558181 -8.0577196e-22)
(0.089427783 -0.013055 -1.280976e-19)
(0.085191468 -0.0089086402 8.3651123e-20)
(0.088493453 -0.011187482 -6.5270831e-20)
(0.092314764 -0.021382021 -1.8905335e-20)
(0.089641821 -0.031855149 -7.3363072e-21)
(0.093266674 -0.031885446 1.7058346e-20)
(0.10005459 -0.026436522 -1.015579e-19)
(0.089748612 -0.027266183 -9.4099259e-20)
(0.087220223 0.00095111003 0)
(0.087641466 5.7435655e-05 5.3971678e-20)
(0.095268 -0.00093832623 -4.0416495e-20)
(0.095032624 0.001120934 4.0472324e-21)
(0.095084768 0.00023651027 9.9049259e-21)
(0.095590658 0.0008212397 -9.0063541e-22)
(0.095398796 0.0013743231 1.4031124e-19)
(0.094891245 0.0018163933 1.5824713e-20)
(0.094548209 0.0019111115 6.7508074e-21)
(0.094533949 0.001449873 -7.2156956e-21)
(0.093997708 0.0018536999 -4.8044332e-21)
(0.093541407 0.0023763738 4.2016106e-21)
(0.093712904 0.0011074337 -1.2823285e-20)
(0.093088796 0.00088438234 -2.4904824e-22)
(0.092464642 0.0014341103 1.8284762e-21)
(0.092942625 -0.00046486238 8.9194152e-24)
(0.091803468 -0.0018076693 1.9349087e-20)
(0.090250266 0.00096535256 1.5059711e-20)
(0.092301786 -0.0040815356 0)
(0.091143146 -0.0058472022 4.8610731e-20)
(0.088185042 -0.0021879744 0)
(0.090062608 -0.0065241829 -5.6000846e-20)
(0.091525838 -0.011512528 -1.1087762e-20)
(0.088054111 -0.0096360313 1.5256621e-21)
(0.085170337 -0.0091331974 4.1377574e-21)
(0.091276954 -0.01404129 -8.9025718e-21)
(0.097960351 -0.02201775 -4.4149356e-20)
(0.093177486 -0.029517645 -7.6526729e-20)
(0.090139609 -0.028265436 -1.2014368e-19)
(0.098420725 -0.020105294 3.9607135e-20)
(0.10025419 -0.02188473 1.341076e-19)
(0.0864898 0.0025553082 0)
(0.086927852 0.0010884721 0)
(0.094047645 -0.0015750355 9.5153813e-20)
(0.093889479 0.002077643 1.9170176e-19)
(0.094375024 -0.00010244295 -6.6207603e-20)
(0.094900147 0.00032502845 -2.7511808e-22)
(0.094774383 0.0015660263 -2.1842807e-19)
(0.094431603 0.0021163325 2.6470583e-20)
(0.094296881 0.0017564104 0)
(0.094264862 0.0011108036 1.1556175e-20)
(0.093650509 0.002242075 -8.2450854e-21)
(0.093460763 0.0018752247 -1.2938424e-20)
(0.093630899 0.0010018382 0)
(0.092850078 0.0013284178 6.9836234e-22)
(0.092483522 0.00098556416 -2.583754e-21)
(0.093087639 -0.00047314806 -1.0188103e-22)
(0.091373829 -0.00071200639 4.1793674e-21)
(0.090478207 4.9337643e-05 -2.68226e-21)
(0.092937081 -0.0046119043 3.2295459e-20)
(0.090700519 -0.003893613 0)
(0.088439381 -0.0019021655 0)
(0.091520635 -0.0071004212 6.2761788e-20)
(0.092143824 -0.0099733259 8.7271467e-22)
(0.088364714 -0.0076702657 -1.68689e-21)
(0.086070169 -0.01124089 -6.8566583e-21)
(0.09224494 -0.017782688 1.9770736e-20)
(0.10013922 -0.021114747 3.1849185e-21)
(0.095186019 -0.024389053 -2.8715892e-20)
(0.087483548 -0.025579563 3.8024127e-20)
(0.094827221 -0.019875864 7.8822779e-20)
(0.1097297 -0.019424426 9.4276198e-21)
(0.085677445 0.003399035 0)
(0.086339658 0.0019201705 1.2646385e-22)
(0.09278689 -0.0014230763 1.0467838e-21)
(0.09258344 0.0022322469 2.8910326e-21)
(0.093297492 -7.1042937e-07 -2.2104384e-19)
(0.093729995 0.00016256333 -2.8295003e-20)
(0.093749603 0.0016255631 -2.0630523e-19)
(0.093673768 0.0019830121 0)
(0.09376073 0.0014238229 -1.9068957e-22)
(0.093609012 0.0011316637 -6.6697014e-21)
(0.093072302 0.002388523 -1.5622416e-20)
(0.09311809 0.0012618329 1.3096802e-21)
(0.093144371 0.0010320393 -3.4024598e-23)
(0.092416933 0.0017540267 -8.6634684e-21)
(0.092288955 0.00044588835 9.0458341e-21)
(0.092849593 -0.00046379056 -3.3651442e-22)
(0.091093752 0.00050805848 1.9951203e-20)
(0.090854612 -0.0011168388 -2.2081851e-22)
(0.092992124 -0.005062374 1.1017717e-22)
(0.090122592 -0.001965242 7.7155098e-21)
(0.088996488 -0.0022524506 5.8332893e-21)
(0.0924333 -0.0084108563 3.5162643e-20)
(0.09192386 -0.0086111693 5.1296563e-21)
(0.089484054 -0.0056502157 -4.3877265e-20)
(0.088725678 -0.012509033 0)
(0.092313326 -0.021135598 1.3976818e-20)
(0.099124322 -0.020144794 4.9332476e-20)
(0.096647209 -0.017888512 2.1640377e-20)
(0.086376178 -0.021491974 -5.0517124e-20)
(0.08894243 -0.023296804 6.0611968e-20)
(0.10890509 -0.022438755 1.168393e-19)
(0.085175548 0.0031404381 0)
(0.08605455 0.0021749379 3.1883556e-20)
(0.091830686 -0.00042452049 3.1853216e-20)
(0.091526806 0.0014591763 -2.0292544e-19)
(0.092114822 0.00049686314 -1.2538177e-21)
(0.092347734 0.0004951885 -4.8139416e-20)
(0.092423782 0.0016114377 0)
(0.092570601 0.0015606492 -2.418559e-21)
(0.092745421 0.0010487408 5.4685636e-21)
(0.092478464 0.0015023901 -1.1528156e-20)
(0.092206629 0.0021804811 6.1113155e-21)
(0.092390729 0.00088995106 -9.2574816e-23)
(0.092221128 0.0010993129 -1.516692e-20)
(0.09175437 0.0020076265 2.9460284e-21)
(0.091832288 8.7122756e-05 8.17014e-21)
(0.092103614 -0.00050267784 -2.215668e-20)
(0.090691183 0.0014176545 1.1788488e-20)
(0.091200405 -0.0021555082 7.9005772e-20)
(0.092485556 -0.005074018 4.5766672e-20)
(0.089470961 -0.00054721437 0)
(0.089931155 -0.0031803327 7.9203722e-21)
(0.093009556 -0.0094314664 2.2983619e-21)
(0.091075037 -0.0078535144 -5.4804546e-20)
(0.090700391 -0.0046052164 -3.1740677e-21)
(0.092539989 -0.012055374 0)
(0.093029992 -0.021590145 1.5691715e-20)
(0.096342754 -0.017958036 8.1742451e-20)
(0.097319057 -0.011320769 -4.1712985e-20)
(0.089863875 -0.016357581 -1.3357852e-19)
(0.086434211 -0.027497309 8.5222863e-21)
(0.10022087 -0.03030459 -9.8519471e-20)
(0.084964572 0.0018785454 3.0247138e-20)
(0.085793807 0.0018182134 -2.49454e-22)
(0.091250243 0.00084755564 1.2672066e-23)
(0.090940427 7.8362752e-05 2.7269793e-20)
(0.091125808 0.0010078409 1.1121844e-19)
(0.091087433 0.0010966031 -1.7654984e-22)
(0.091095556 0.0013916615 -5.5372905e-20)
(0.091264261 0.0010669582 -1.0471126e-22)
(0.091319071 0.00086468016 1.3648578e-20)
(0.091010633 0.0018739406 2.4389325e-20)
(0.091024045 0.0016923188 6.941217e-21)
(0.091220845 0.00086783138 -1.8345833e-20)
(0.09090789 0.0012104693 -1.8191173e-20)
(0.090803592 0.001891474 -4.9071849e-21)
(0.091079745 -1.2931169e-05 1.6851986e-20)
(0.090942972 -0.00053946149 9.9521713e-22)
(0.09011558 0.0017169679 6.8055841e-21)
(0.091288638 -0.0028639566 7.966329e-20)
(0.091415568 -0.0043752462 3.6638222e-21)
(0.088805167 0.00012060901 0)
(0.090930641 -0.0044450072 9.1264486e-21)
(0.093339944 -0.0096356985 -1.3092891e-20)
(0.089937843 -0.0074693434 8.1725337e-20)
(0.091198353 -0.0048074638 0)
(0.096272091 -0.010449179 1.0097664e-19)
(0.094468265 -0.01939241 -4.2318366e-20)
(0.09268082 -0.016381636 -8.2519639e-20)
(0.096369473 -0.0066041693 -2.047773e-19)
(0.096892467 -0.0099454786 7.8086391e-20)
(0.091216329 -0.026465887 6.4829119e-20)
(0.091879414 -0.036866112 -7.3661466e-20)
(0.08574106 0.00039319976 -3.5359577e-21)
(0.086264866 0.00095978328 5.9082993e-20)
(0.091190863 0.00155214 1.1100057e-22)
(0.090551604 -0.0010787686 1.6668675e-19)
(0.090146321 0.0013414146 -3.0023294e-20)
(0.089953751 0.0016033413 2.3027507e-21)
(0.08988871 0.00099568724 1.6823358e-19)
(0.089946413 0.00070834519 1.6877142e-23)
(0.089785427 0.00099225503 4.3525227e-23)
(0.089487251 0.0018819357 -1.2545878e-20)
(0.089636581 0.0012371793 2.8693852e-22)
(0.089714648 0.0010448178 -2.4396902e-22)
(0.089343239 0.0013015151 1.7292027e-20)
(0.089558625 0.001437202 3.5318077e-23)
(0.090002154 9.4032491e-05 -1.6344675e-20)
(0.089492437 -0.00047681282 1.7653315e-21)
(0.089356074 0.0012500902 2.7830865e-22)
(0.090991444 -0.0031743234 -1.2109e-19)
(0.089984064 -0.0031339323 0)
(0.088207215 6.1054038e-05 4.9763842e-21)
(0.091610558 -0.0055053208 -9.4100218e-21)
(0.093168352 -0.0086662255 1.5210283e-20)
(0.088632583 -0.0065635518 -9.5246748e-21)
(0.090467442 -0.0062542445 2.2462163e-20)
(0.098092554 -0.0092641659 -6.1518038e-21)
(0.095975205 -0.014591665 1.2567781e-20)
(0.089861652 -0.014264737 -4.0351539e-20)
(0.094012008 -0.0069955409 -3.4982301e-21)
(0.10307276 -0.0074049014 1.0237378e-19)
(0.10252791 -0.020966502 -2.759669e-19)
(0.093755952 -0.036255947 1.5889103e-20)
(0.091665611 -0.0001927455 6.428717e-19)
(0.087373072 0.00012238954 0)
(0.091645946 0.0011361188 -7.2389996e-20)
(0.090618115 -0.0015686769 -1.9974004e-19)
(0.089685151 0.0012518003 2.0141122e-19)
(0.089414386 0.0015199213 1.1289133e-22)
(0.089122735 0.00047582723 5.1084946e-20)
(0.088815699 0.00055584459 4.5408468e-22)
(0.088402634 0.001331434 3.47483e-21)
(0.088134672 0.0014591201 -4.5385878e-20)
(0.088215372 0.00094542023 1.8865765e-20)
(0.088142274 0.001205456 -3.8146668e-22)
(0.087769174 0.0013488742 7.6798713e-21)
(0.088128537 0.0007864579 -2.2431789e-20)
(0.088629797 0.00026040636 1.3186403e-20)
(0.087879229 -0.00016167483 -1.3825124e-21)
(0.088334844 0.00032300292 8.8365482e-21)
(0.09012165 -0.003014877 -2.1255051e-20)
(0.088407335 -0.0015209245 6.0475093e-22)
(0.087645674 -0.00046654848 7.6806222e-22)
(0.091616352 -0.0063761107 7.2058814e-21)
(0.092335361 -0.0065540099 6.6152629e-22)
(0.08774286 -0.0044971596 0)
(0.089478731 -0.0082622815 1.0767944e-20)
(0.09778257 -0.0096064219 5.4441505e-20)
(0.09705816 -0.0088699443 4.7472433e-20)
(0.088441277 -0.010778656 -1.7502799e-20)
(0.090220992 -0.011037918 1.5137424e-19)
(0.1035922 -0.010160696 -5.118092e-20)
(0.11183482 -0.015676137 2.3465522e-19)
(0.10363787 -0.027333 1.8217744e-19)
(0.10467992 0.0001058982 -2.8494945e-19)
(0.090356889 -0.00045537426 -1.1234355e-23)
(0.093388913 -8.544434e-05 2.2352533e-20)
(0.091512461 -0.0011798087 -2.1153972e-19)
(0.090051463 0.00092064085 2.2135259e-21)
(0.089683487 0.00098460655 5.183211e-22)
(0.089227606 0.00016532368 3.5007201e-20)
(0.088536192 0.00071786467 1.7047637e-23)
(0.08781808 0.0015913816 1.6356212e-20)
(0.087385034 0.0009747585 3.0037528e-21)
(0.08706243 0.00083242046 2.6625067e-20)
(0.086788626 0.0011493957 0)
(0.086421071 0.0014179793 8.8373878e-23)
(0.086732665 0.00021650697 1.9368832e-21)
(0.08715899 0.0004347431 -7.0542234e-21)
(0.086347553 0.00038719645 -2.0509396e-20)
(0.087128022 -0.00066975417 -5.9116473e-21)
(0.088650773 -0.002639817 -2.2452077e-20)
(0.086751128 0.00019255495 -3.982913e-20)
(0.087181211 -0.0011308614 5.5217251e-20)
(0.090846125 -0.0069557323 -3.1454399e-22)
(0.090865064 -0.0037632921 -2.0272093e-21)
(0.087830853 -0.0016607914 -9.318725e-21)
(0.089171986 -0.0096864393 6.8447592e-21)
(0.095785559 -0.011104033 7.8892674e-21)
(0.097139224 -0.005203857 4.7715954e-20)
(0.09043195 -0.0068862433 1.174204e-19)
(0.088926945 -0.015386306 -3.8121005e-20)
(0.100101 -0.017276729 1.8351341e-19)
(0.11270459 -0.014700605 1.042674e-19)
(0.11241954 -0.015310911 9.0632991e-20)
(0.11512145 0.00087361643 -6.2946201e-19)
(0.096494351 -0.00086472786 -1.3778563e-22)
(0.097628789 -0.0015818224 -1.6407469e-19)
(0.094706082 -0.00029862304 1.6855145e-19)
(0.092181708 0.00044257888 -1.6563484e-21)
(0.091137238 0.00023755681 0)
(0.090134782 0.00016582561 6.9755721e-20)
(0.088991266 0.00099911231 2.7299568e-20)
(0.088193051 0.0014371514 -1.5712218e-20)
(0.087534638 0.00078892859 -1.9081315e-20)
(0.086937834 0.00088842722 -3.6112124e-23)
(0.086379479 0.0010529584 1.5213165e-22)
(0.085897426 0.0014630546 0)
(0.085890101 -0.00014930229 8.8795415e-21)
(0.085963963 0.00060339712 1.4232059e-20)
(0.085254624 0.00099141305 9.2888533e-22)
(0.086052256 -0.0013704573 3.8082216e-20)
(0.086835364 -0.0020466637 -5.7245139e-20)
(0.085136517 0.0014188012 -1.3085259e-20)
(0.086787763 -0.0018152143 7.2858672e-20)
(0.0893528 -0.0068468895 -1.0363237e-20)
(0.088504953 -0.0016178241 -9.9242067e-20)
(0.088366297 0.0010549239 7.6174167e-20)
(0.08998581 -0.0091672423 1.3683741e-19)
(0.092705521 -0.012430846 1.336275e-19)
(0.095146375 -0.0034837039 -1.8470633e-21)
(0.094189463 -0.002931288 9.0024624e-24)
(0.092098445 -0.015908197 -8.9633256e-20)
(0.096631782 -0.024250096 3.4109215e-20)
(0.106822 -0.017432044 2.2554888e-19)
(0.11327475 -0.0077028626 1.3923431e-19)
(0.11400396 0.0017819994 -1.8540404e-20)
(0.10100397 -0.00018283936 -1.2043676e-22)
(0.10233816 -0.0022331541 -5.5025636e-20)
(0.099534084 0.00098158095 4.3457228e-22)
(0.096723755 0.00013984362 2.1059035e-22)
(0.094672791 -0.00030814048 -8.5518477e-20)
(0.092825562 0.00046924261 7.3992841e-20)
(0.091068657 0.0011818882 -4.3529819e-23)
(0.089830133 0.0009543069 -7.1775313e-21)
(0.08854758 0.000904247 2.9178654e-20)
(0.087573666 0.00079628042 4.9501578e-21)
(0.086730197 0.0010272823 -2.3010143e-20)
(0.086257674 0.0012928017 0)
(0.085998727 -0.00029388002 2.1026497e-23)
(0.085608681 0.00057637624 4.9414152e-20)
(0.085077349 0.0013511295 -1.9954165e-22)
(0.085635168 -0.0017318447 -9.6497461e-22)
(0.085285437 -0.0012880373 -3.2162519e-22)
(0.083898871 0.0017587895 2.0003296e-22)
(0.086472605 -0.0024959176 -9.1014391e-22)
(0.087522558 -0.0058965935 1.8559163e-20)
(0.085470958 -0.00068385178 -1.1243416e-19)
(0.088412133 0.0019853506 8.0629503e-21)
(0.091691633 -0.0072451531 6.4172591e-21)
(0.090241078 -0.01241202 1.1007877e-20)
(0.091221087 -0.0042244542 1.0312127e-20)
(0.096323322 -0.0013681919 -6.5675604e-20)
(0.098134698 -0.012421193 2.4528901e-19)
(0.096143159 -0.025290513 -1.3919297e-20)
(0.098134073 -0.020580468 -2.152994e-19)
(0.10532656 -0.0066398717 -4.2058098e-20)
(0.10746843 0.0033242764 -4.2509818e-19)
(0.10191184 0.0007414996 0)
(0.10491141 -0.002037197 2.5131488e-20)
(0.10309865 0.0017506524 3.064854e-19)
(0.10163768 5.7184616e-05 2.2546986e-19)
(0.100075 -0.00045921818 1.0377954e-20)
(0.097893892 0.00071274464 4.4589562e-23)
(0.095661599 0.00097799752 8.3095091e-24)
(0.093686259 0.00046356482 -2.498007e-21)
(0.091707956 0.0010938867 2.027445e-20)
(0.090044626 0.00055720965 -1.01376e-20)
(0.088533239 0.0011727924 3.7870848e-23)
(0.087720093 0.00096684265 -2.1703856e-20)
(0.086933261 -0.0001394653 0)
(0.085940437 0.00046394024 4.5545174e-20)
(0.08567883 0.0013554675 -4.7171453e-21)
(0.08601572 -0.0016501702 -3.5857e-20)
(0.08469066 -0.00047342703 -6.5762687e-20)
(0.083728763 0.0012559586 -2.8993441e-22)
(0.086709841 -0.0030327707 -5.6564202e-20)
(0.086140276 -0.004380134 -1.986062e-21)
(0.082746343 -0.00067908588 1.038641e-21)
(0.087581226 0.00050463795 -2.4122689e-20)
(0.092988476 -0.0057276025 -1.1942694e-19)
(0.088705275 -0.010030091 4.4265718e-20)
(0.086838226 -0.0059022616 5.2204402e-20)
(0.095265132 -0.0026741433 1.1428126e-20)
(0.10294404 -0.0085550703 -1.4634515e-21)
(0.099318932 -0.018732699 3.6660484e-19)
(0.09252765 -0.020638742 4.06781e-20)
(0.094759575 -0.010728923 -1.221581e-19)
(0.097407383 0.0036970573 2.6232548e-19)
(0.098986415 0.002135196 4.8719132e-20)
(0.10397237 -0.00069246834 -1.4743883e-22)
(0.10278849 0.0017126673 3.1177248e-21)
(0.10264812 0.0001694477 1.4547207e-22)
(0.10210036 -0.00011876519 -1.8223137e-19)
(0.10122264 0.00085125454 9.1338987e-20)
(0.10014235 0.00047763635 1.1049149e-22)
(0.098636866 0.0003268186 7.7537621e-22)
(0.096856206 0.00095115913 5.1903506e-22)
(0.094880545 0.00020785233 3.5939792e-22)
(0.092825098 0.0010436158 -4.1813619e-21)
(0.091625775 0.00046520511 5.8638027e-23)
(0.090136901 0.00024077493 -9.5931077e-22)
(0.088299149 0.00030047511 0)
(0.087599546 0.00085182416 0)
(0.087347911 -0.0011219161 1.1566477e-20)
(0.08530421 0.00039619059 -2.4389406e-21)
(0.084706618 9.6219347e-05 -4.8585089e-20)
(0.087526096 -0.0035617337 -3.3530724e-21)
(0.08592072 -0.0023742149 1.4752339e-20)
(0.081612862 -0.00088367949 7.2394289e-22)
(0.086546642 -0.0027875197 0)
(0.093031285 -0.0051761293 0)
(0.088155952 -0.0054624849 0)
(0.083571263 -0.0061540186 -7.1288963e-21)
(0.09148335 -0.0060471491 -3.4020753e-21)
(0.10254754 -0.0069504729 1.5898746e-20)
(0.10186294 -0.0084448999 -2.8093357e-20)
(0.091420491 -0.0132545 3.5951723e-20)
(0.087240504 -0.013761732 1.9558956e-21)
(0.091262404 0.0037110701 1.3022153e-19)
(0.093074691 0.0021441945 2.5677041e-23)
(0.1002511 0.00061388573 6.3791082e-22)
(0.10027449 0.00091838713 -1.7282194e-19)
(0.10111728 0.00029137143 0)
(0.10113014 0.0005125261 -5.0518086e-22)
(0.10077168 0.00092795665 6.6706648e-20)
(0.10029272 6.6935799e-05 3.0574665e-20)
(0.099644266 0.00057352152 -2.7046709e-22)
(0.098979362 0.00057116267 -4.127224e-20)
(0.09806661 0.00036714899 -1.9521584e-21)
(0.096892522 0.00079202526 0)
(0.096290225 6.9496421e-05 -4.4068155e-20)
(0.094969611 0.00072901641 -1.8129629e-20)
(0.093107284 0.00011777886 1.8508868e-20)
(0.092313094 -1.8794972e-06 1.9143312e-21)
(0.091090312 -0.00079743363 -1.5287337e-20)
(0.088432824 0.0010707386 1.7345959e-21)
(0.08780289 -0.001110724 -6.1101037e-20)
(0.089592076 -0.003959523 -2.0707717e-21)
(0.087491645 0.00014881125 -1.6196934e-21)
(0.083453312 -0.00052202127 7.3501507e-20)
(0.087257955 -0.0065749668 -7.6943529e-21)
(0.092857272 -0.0054030123 0)
(0.089071166 -0.00069720268 -1.575861e-20)
(0.083945303 -0.0043735072 4.1764816e-20)
(0.088930587 -0.010311087 7.0369555e-20)
(0.098818636 -0.0079691012 -7.4259212e-20)
(0.10219402 -0.0012496859 6.4763991e-20)
(0.094880831 -0.0013864756 -7.93633e-20)
(0.087808646 -0.010189396 -7.9126996e-20)
(0.090655318 0.0021672556 -1.30259e-19)
(0.091211488 0.0016724238 4.3367656e-20)
(0.096625969 0.001314304 -8.2131906e-22)
(0.096474171 -6.7264129e-05 -2.9295322e-20)
(0.097355401 0.00028226874 -9.4514005e-20)
(0.098041256 0.00092734962 1.4263888e-22)
(0.09831759 0.00071192926 -1.2168935e-19)
(0.098449571 6.4343467e-05 -4.9164724e-20)
(0.098276823 0.00073046804 2.2315829e-22)
(0.098247693 -3.2961783e-05 2.0235271e-22)
(0.097701596 0.00077550425 4.9801218e-21)
(0.097126055 0.0003638558 1.138919e-22)
(0.097088626 -0.00043950742 2.7626784e-22)
(0.09661633 0.0010666028 1.8186073e-22)
(0.095732831 5.3339015e-05 3.8783462e-20)
(0.095811215 -0.00097116492 1.2602617e-22)
(0.095100656 -0.00067402743 3.0112664e-20)
(0.09319285 0.0013069183 3.863525e-22)
(0.093067574 -0.0021273814 -3.0572136e-21)
(0.093411776 -0.0042576179 0)
(0.091315858 0.0020571496 -7.1134603e-20)
(0.089026114 0.00052302635 -2.0373967e-21)
(0.090946335 -0.0088396877 2.4039501e-20)
(0.093631045 -0.0057471647 -7.5313093e-22)
(0.091818116 0.0031476562 -4.0444549e-20)
(0.089165638 -0.00018185329 -2.0610003e-19)
(0.090401699 -0.011801714 2.6429829e-20)
(0.09503851 -0.010815966 -1.0970449e-21)
(0.099116615 2.7099612e-05 -2.3724523e-21)
(0.099159701 0.0064259398 2.2058124e-20)
(0.09545894 -0.0035540571 -1.0717011e-20)
(0.10144931 0.0009709811 1.6707583e-19)
(0.093367711 -0.00027588918 -3.5420675e-23)
(0.097017898 0.0001871798 -5.8618138e-20)
(0.095820942 -0.00089060965 -2.8291835e-21)
(0.095670308 0.00051433676 1.051666e-21)
(0.095649641 0.0010004824 1.4195656e-20)
(0.095676391 0.0005754825 0)
(0.095670997 0.00062336779 1.5169375e-22)
(0.095790371 0.00049988394 2.595924e-23)
(0.095981057 -0.00030396841 3.9474967e-20)
(0.095811523 0.0012320233 -1.8149951e-23)
(0.095888445 0.00030936263 2.0197181e-23)
(0.095909737 -0.00058582471 1.1725351e-20)
(0.095856373 0.001290124 1.9772651e-20)
(0.095685129 0.00020096436 -5.0469739e-20)
(0.095859103 -0.0013874899 -3.5667944e-22)
(0.095410575 -0.00037574193 -3.7711356e-22)
(0.094873772 0.001321528 2.5780672e-22)
(0.095923665 -0.0023881196 0)
(0.09530485 -0.0037048777 -6.7780247e-20)
(0.093854742 0.0027351945 -8.4165665e-20)
(0.094909575 0.0013733344 -5.7256036e-20)
(0.095924016 -0.0085333972 4.6987673e-20)
(0.094627098 -0.0062471736 2.3422424e-21)
(0.094048287 0.0040233186 -5.9342704e-20)
(0.096619379 0.0025480989 5.9165058e-20)
(0.097179486 -0.0095722502 -1.6998168e-20)
(0.094741677 -0.013199415 4.5897971e-20)
(0.095433994 -0.0027665717 -1.0341057e-19)
(0.10095419 0.0060718942 -4.4041065e-20)
(0.10491681 0.0016665951 3.5937213e-21)
(0.09431873 -0.00099521867 2.68767e-19)
(0.093514484 -0.0019097917 4.5945829e-25)
(0.097223343 -0.0017602968 5.0866756e-22)
(0.095770744 -0.001479644 3.173652e-19)
(0.09543054 0.00057309778 -2.7695416e-21)
(0.095269012 0.00040148683 1.1254149e-19)
(0.094979256 0.00016762524 0)
(0.094641458 0.0010125396 0)
(0.094525704 -9.2771461e-05 4.0625219e-21)
(0.094231593 -0.00018480268 0)
(0.094052295 0.00099772385 1.7846732e-20)
(0.094367932 9.9496555e-05 1.4404054e-20)
(0.094142455 -0.00052043499 0)
(0.094280404 0.0008967833 3.9225682e-20)
(0.094745589 0.00021584313 -4.5835761e-20)
(0.094913507 -0.0013405928 -2.7263943e-20)
(0.094318069 -0.00018128462 -7.040564e-22)
(0.094625406 0.00061079605 -3.2841529e-21)
(0.096289363 -0.0023538517 4.7123314e-20)
(0.094565874 -0.0026112807 -4.4515506e-20)
(0.093356997 0.0018709941 7.5370119e-20)
(0.097336551 0.0011052799 2.0077691e-23)
(0.098681277 -0.0058854566 -4.6304506e-20)
(0.094117914 -0.0052079506 -3.0170567e-20)
(0.093735759 0.0024879821 1.4442956e-20)
(0.10104064 0.0025314193 4.4328713e-20)
(0.10419883 -0.0052910163 -6.8108217e-20)
(0.097375178 -0.011107521 -2.1506375e-20)
(0.092801976 -0.0068273914 1.2742184e-19)
(0.099534303 -0.00022907245 1.6811199e-19)
(0.11022674 3.1725231e-05 2.6011157e-20)
(0.092696784 -0.00021407035 -2.7337841e-19)
(0.092607932 -0.0019619481 1.0226101e-22)
(0.096767186 -0.0030353802 -1.8445549e-19)
(0.095185537 -0.00098699758 -1.8703935e-19)
(0.094997138 0.00072184733 3.914903e-19)
(0.094889307 3.9669753e-05 1.0716676e-21)
(0.094401961 0.00040837769 2.2484777e-22)
(0.09413004 0.001172076 6.7586113e-20)
(0.093956634 -0.00040953748 -1.0534821e-21)
(0.093410463 0.00035459545 1.0361396e-20)
(0.093229801 0.00064430432 -6.3958808e-21)
(0.093543281 0.00014328343 5.4901628e-24)
(0.09303877 0.00013730499 2.7425753e-22)
(0.093142614 0.00032893215 1.3090039e-20)
(0.093847997 0.00018890958 -1.98745e-20)
(0.093870346 -0.00079736852 -2.5043183e-20)
(0.093069039 0.00019526887 1.9631421e-20)
(0.093801592 -0.00020448458 -2.4296689e-20)
(0.095612002 -0.0017064892 -1.3449875e-21)
(0.093237011 -0.00068506637 1.4722213e-20)
(0.091771294 0.00044461821 2.9974468e-20)
(0.09702998 -0.00065055338 2.3990529e-20)
(0.099184006 -0.0027690033 -5.1002816e-20)
(0.092918211 -0.0022749269 -1.4458327e-22)
(0.091312847 -0.00012021973 2.553958e-20)
(0.10056844 -0.0010540479 -8.6167785e-21)
(0.10727758 -0.0030767801 -2.9893635e-22)
(0.10117474 -0.0045459344 1.3161062e-19)
(0.092903992 -0.0066214802 3.2773361e-20)
(0.096800038 -0.006467231 3.8771597e-20)
(0.10913697 -0.006033788 1.8959587e-19)
(0.099485906 0.00080360261 -3.2197646e-19)
(0.094211536 -0.00066088233 3.2810398e-23)
(0.097213371 -0.0032859632 -1.0800542e-22)
(0.095416649 -0.00043055872 4.1974247e-22)
(0.095361437 0.00037974378 -1.0780078e-19)
(0.095156916 -0.00065277701 -1.0602196e-19)
(0.094556502 0.00015757266 5.5698974e-20)
(0.094367028 0.00073167719 -5.754419e-20)
(0.094003917 -0.00028724395 2.5811037e-21)
(0.093257343 0.00049078815 1.2005622e-22)
(0.093076013 -0.00012495575 -3.4312118e-21)
(0.093235802 -2.3892098e-05 9.4235576e-21)
(0.092653319 0.00064716448 6.8869233e-22)
(0.092619369 -0.0003948002 6.8231707e-21)
(0.093231182 -0.00010766305 -7.8979721e-23)
(0.093093441 -0.00028237897 8.9284209e-21)
(0.092240733 0.00034110636 1.1595881e-21)
(0.093002463 -0.0013971475 0)
(0.094599777 -0.001357094 -5.6941155e-22)
(0.092417489 0.0012218139 2.1678001e-22)
(0.090936071 -0.0013319292 1.0027445e-19)
(0.095639591 -0.0036600417 -2.350459e-20)
(0.098273054 -0.0009581044 3.3651006e-20)
(0.092817315 0.0018484402 -3.3329824e-20)
(0.090513158 -0.0020352452 -3.6003426e-20)
(0.09825715 -0.006505442 -2.0776099e-20)
(0.10538685 -0.0038021058 2.9796284e-21)
(0.10257984 0.0017368445 -4.331554e-20)
(0.095389351 -0.0014929756 2.6237565e-19)
(0.095678456 -0.0092763889 -4.2287759e-20)
(0.10493813 -0.011234354 -1.7025414e-19)
(0.097175743 0.0033087263 4.19372e-20)
(0.096408638 0.00072833339 3.8808727e-20)
(0.099399797 -0.0020705188 -4.3125043e-20)
(0.097334033 0.0011097876 -2.598291e-19)
(0.097389528 0.00014918369 6.751036e-22)
(0.096934888 -0.00043041908 1.1874878e-22)
(0.095948795 0.00053136903 3.4161492e-23)
(0.095701363 -0.00010833344 -6.0477544e-20)
(0.095206228 9.6400782e-05 -1.5146472e-21)
(0.094279965 0.00068705297 -2.1036824e-21)
(0.093748433 -0.00016218556 6.0906575e-21)
(0.093548016 0.00017336389 -5.2561265e-23)
(0.093070427 0.0012378156 8.8192349e-22)
(0.09293436 -0.00073070706 6.8429407e-23)
(0.093279763 -0.00029394801 -7.9782984e-20)
(0.093116758 0.00033256329 8.3385577e-21)
(0.092495793 0.00094804405 -1.0549001e-22)
(0.092976098 -0.0018180433 1.8925378e-22)
(0.093782498 -0.00075198332 -9.5326298e-20)
(0.092602496 0.0032907168 2.0614596e-20)
(0.091670873 -0.0015857492 -2.6193536e-21)
(0.094502393 -0.0056232218 5.5024061e-20)
(0.096534322 0.00033972871 2.0211895e-21)
(0.093763743 0.0056731909 -3.5543271e-20)
(0.092589015 -0.0012974268 4.5918228e-21)
(0.097147446 -0.0097497883 -1.2499852e-20)
(0.10191698 -0.0046050696 -3.4490743e-19)
(0.10221192 0.0052513609 3.8028584e-20)
(0.10002673 0.0051902643 -4.465314e-20)
(0.099069471 -0.0064133344 -1.6833294e-19)
(0.1019389 -0.012654548 2.7358236e-20)
(0.10915104 0.0043179894 -6.2431541e-19)
(0.10048759 0.0037878201 3.0923222e-22)
(0.10225809 -0.00091500187 1.2330518e-21)
(0.10010524 0.0014964564 -1.5186329e-21)
(0.10018347 0.0002385318 -2.1612584e-21)
(0.099400254 -0.00087014867 -3.2814575e-22)
(0.098495036 0.00036613037 1.5280058e-22)
(0.098035097 -0.00064130005 -1.4899293e-22)
(0.097154763 0.00035735422 -1.3256136e-23)
(0.096091202 7.5762531e-05 -3.0452874e-23)
(0.095535483 -0.0006804399 -9.1778062e-23)
(0.095101348 -5.2303335e-05 -7.6503427e-20)
(0.094820212 0.0010174973 2.6541074e-22)
(0.0945617 -0.00071272904 -6.4561636e-23)
(0.09435186 -0.00054012928 -4.2843623e-23)
(0.093983486 0.00037236877 -2.1659683e-22)
(0.093811477 0.00094094866 7.6105109e-22)
(0.094071917 -0.0021759286 -3.1738262e-22)
(0.093737434 -0.00091951186 1.0575808e-19)
(0.09372176 0.0036674832 -2.3250888e-21)
(0.094196566 -0.0014136887 -1.4589882e-19)
(0.094540263 -0.0067091873 -1.3980948e-22)
(0.094657343 -9.1215263e-05 1.5521652e-21)
(0.094790874 0.0062405488 -1.0435582e-22)
(0.096668925 -0.00011115993 9.0674968e-20)
(0.097980995 -0.010146426 -3.2934856e-20)
(0.097670334 -0.0064559368 7.9924296e-21)
(0.098857975 0.0049540685 -1.5656421e-20)
(0.10280548 0.0082561172 -2.4098853e-20)
(0.10498704 -0.0013889507 1.8856876e-19)
(0.10344351 -0.010593677 -6.0872856e-20)
(0.11248343 0.0045643154 -7.9864933e-21)
(0.098105519 0.0016256317 3.8488772e-21)
(0.10132025 0.00032157548 -1.731139e-19)
(0.099721984 0.001922018 1.9542909e-19)
(0.10048939 -0.00042713357 4.2697144e-19)
(0.10014047 0.00016890151 6.8159157e-20)
(0.099831366 0.00064985764 1.3562159e-19)
(0.099689225 -0.00087490752 1.1824137e-22)
(0.099293842 0.0003343966 7.7659972e-21)
(0.098889016 0.00023658102 -1.3793329e-20)
(0.098613542 -0.00019257058 -3.2778539e-20)
(0.098192713 -0.00013795094 3.2907518e-22)
(0.098305572 0.00085269255 -5.3531568e-21)
(0.098267531 -0.00050910494 9.1930934e-20)
(0.097932819 -0.00067250511 -6.6641038e-22)
(0.097543349 0.0003642195 -7.3439678e-20)
(0.097976474 0.0010708081 -2.3463421e-22)
(0.098213158 -0.0013248568 4.8486382e-20)
(0.096740113 -0.00074824181 -8.493312e-22)
(0.09759635 0.0031077687 2.764049e-20)
(0.099818965 -0.00027194531 1.0867265e-19)
(0.098441874 -0.004760725 2.3387041e-22)
(0.096114632 -0.00086068291 1.3205315e-21)
(0.098012225 0.0049073689 -7.9451816e-20)
(0.10332755 0.0014202513 4.3226967e-21)
(0.10372804 -0.0061633445 6.5654071e-20)
(0.098240088 -0.0062420487 1.7342703e-19)
(0.097728885 0.0026595729 0)
(0.10586166 0.0069511119 -3.8418418e-20)
(0.1127579 0.0022202079 1.3404994e-19)
(0.11015589 -0.0049845525 8.7429406e-20)
(0.10176625 0.0015485297 1.4263952e-19)
(0.061786299 0.001053293 0)
(0.11356635 -0.0025450284 5.2094485e-22)
(0.11449399 0.00054364665 2.0532619e-20)
(0.10502139 0.00028769894 4.8040137e-20)
(0.11322587 -0.00098469944 8.7163405e-22)
(0.11437953 0.00036516302 8.164292e-20)
(0.10350733 4.3576263e-05 -2.6596929e-20)
(0.11365026 -0.00013751583 3.0777456e-21)
(0.1084085 -0.00024626125 -6.6038484e-21)
(0.11381882 -0.000131416 -9.088383e-22)
(0.10677868 5.7231529e-05 1.5113339e-20)
(0.11294151 0.00010145865 -1.55485e-21)
(0.10755775 0.00019813205 3.6664897e-20)
(0.11188009 -0.00042048397 -1.0752973e-20)
(0.11104591 -0.00018906357 -1.5245699e-21)
(0.11327664 0.00010063665 8.3088992e-21)
(0.11271742 -0.00036578513 2.0638789e-20)
(0.11101517 -0.00029936808 -1.2729593e-20)
(0.11232675 0.00051485367 9.3437371e-22)
(0.11552994 -0.00012897828 2.5692725e-20)
(0.11259563 -0.001043429 -9.9368428e-21)
(0.10889627 -0.00062950148 -1.0723366e-21)
(0.11187034 0.00082914172 -2.9968448e-20)
(0.11816406 0.00027605517 1.4393046e-20)
(0.11879769 -0.0012427908 3.7715619e-20)
(0.10974026 -0.001883483 3.6052776e-20)
(0.10792811 -9.0375903e-05 1.066302e-20)