/*--------------------------------*- C++ -*----------------------------------*\
| =========                 |                                                 |
| \\      /  F ield         | OpenFOAM: The Open Source CFD Toolbox           |
|  \\    /   O peration     | Version:  2406                                  |
|   \\  /    A nd           | Website:  www.openfoam.com                      |
|    \\/     M anipulation  |                                                 |
\*---------------------------------------------------------------------------*/
FoamFile
{
    version     2.0;
    format      ascii;
    arch        "LSB;label=32;scalar=64";
    class       volScalarField;
    location    "31";
    object      k;
}
// * * * * * * * * * * * * * * * * * * * * * * * * * * * * * * * * * * * * * //

dimensions      [0 2 -2 0 0 0 0];

internalField   nonuniform List<scalar> 
62344
(
4.946427e-06
3.8633453e-06
2.7312675e-06
2.2126377e-06
1.8948005e-06
1.690034e-06
1.552202e-06
1.4467084e-06
1.3513404e-06
1.2417924e-06
1.1480606e-06
1.0631968e-06
1.0005517e-06
9.5635553e-07
9.1604448e-07
8.8447519e-07
8.5523045e-07
8.2537008e-07
7.9063645e-07
7.6022214e-07
7.3779709e-07
7.2836651e-07
7.2584315e-07
7.2737745e-07
7.3141556e-07
7.41026e-07
7.4720204e-07
7.5204675e-07
7.5404958e-07
7.5636348e-07
7.592825e-07
7.6778642e-07
7.8311833e-07
8.3417537e-07
9.1330561e-07
9.9403587e-07
1.1785294e-06
1.3354496e-06
1.6408631e-06
1.8893721e-06
2.396361e-06
2.8044034e-06
3.6853974e-06
4.72479e-06
6.027515e-06
7.019672e-06
8.7150138e-06
1.0819474e-05
1.3940257e-05
1.6052046e-05
1.8292531e-05
1.916775e-05
2.1028787e-05
2.2440809e-05
2.5714614e-05
4.9448711e-06
3.8746738e-06
2.7435088e-06
2.2193682e-06
1.8969071e-06
1.6939648e-06
1.5585851e-06
1.4524999e-06
1.3577023e-06
1.2475154e-06
1.1531091e-06
1.0661009e-06
1.0031527e-06
9.6040304e-07
9.2016938e-07
8.8838236e-07
8.6099418e-07
8.3256594e-07
7.967359e-07
7.6456388e-07
7.4041017e-07
7.2793899e-07
7.2484375e-07
7.2555998e-07
7.2794586e-07
7.3525921e-07
7.4204965e-07
7.4641119e-07
7.4733518e-07
7.4761984e-07
7.482472e-07
7.5172401e-07
7.5542291e-07
7.7421672e-07
8.2466916e-07
8.7817252e-07
9.5509887e-07
1.0939959e-06
1.3670653e-06
1.5588472e-06
1.9438353e-06
2.3083884e-06
3.1518597e-06
3.9081801e-06
5.3709435e-06
6.6324194e-06
8.1753011e-06
1.0084979e-05
1.2828966e-05
1.5741196e-05
1.8189663e-05
2.094347e-05
2.300087e-05
2.6415229e-05
2.7674544e-05
4.9697228e-06
3.8877914e-06
2.7499396e-06
2.2273121e-06
1.9063476e-06
1.6992299e-06
1.5651596e-06
1.4570368e-06
1.3644517e-06
1.2558899e-06
1.1627947e-06
1.0755015e-06
1.0105746e-06
9.6640691e-07
9.2584199e-07
8.932365e-07
8.6662462e-07
8.369859e-07
8.0170637e-07
7.6926119e-07
7.4578684e-07
7.320412e-07
7.2793998e-07
7.2869545e-07
7.3010544e-07
7.3652327e-07
7.4502208e-07
7.5008927e-07
7.5111595e-07
7.5068262e-07
7.5120175e-07
7.5412518e-07
7.5771271e-07
7.749238e-07
8.050259e-07
8.6708091e-07
9.4255878e-07
1.0220102e-06
1.2012867e-06
1.3447558e-06
1.6203381e-06
1.8523793e-06
2.3454418e-06
2.7750926e-06
3.7471264e-06
4.6786026e-06
6.0601052e-06
8.1841832e-06
9.7249491e-06
1.2827465e-05
1.6149666e-05
2.0118626e-05
2.2889764e-05
2.616863e-05
2.8918334e-05
4.9847105e-06
3.9017795e-06
2.7586558e-06
2.2383434e-06
1.9142141e-06
1.7029524e-06
1.5672203e-06
1.465368e-06
1.3748619e-06
1.2635523e-06
1.1705954e-06
1.0839452e-06
1.0160393e-06
9.7187349e-07
9.3402664e-07
8.9958582e-07
8.6955714e-07
8.4203305e-07
8.0827749e-07
7.7574091e-07
7.5133912e-07
7.3625301e-07
7.3130541e-07
7.3162487e-07
7.323229e-07
7.378404e-07
7.4896184e-07
7.5758906e-07
7.6099703e-07
7.6025547e-07
7.6096188e-07
7.6227907e-07
7.6365702e-07
7.7459272e-07
7.9552936e-07
8.4129322e-07
9.2083205e-07
9.9331226e-07
1.1549494e-06
1.2815815e-06
1.5306859e-06
1.7149966e-06
2.0767427e-06
2.3577081e-06
2.9789545e-06
3.4837214e-06
4.5689349e-06
5.5667916e-06
7.183404e-06
8.8137485e-06
1.1568178e-05
1.470617e-05
1.8788518e-05
2.2642549e-05
2.7521272e-05
4.999659e-06
3.9142349e-06
2.7713509e-06
2.2455283e-06
1.9171727e-06
1.7053713e-06
1.5734212e-06
1.4732908e-06
1.3808979e-06
1.2666133e-06
1.1737092e-06
1.0868117e-06
1.0196302e-06
9.7326249e-07
9.3623074e-07
9.0489283e-07
8.7872035e-07
8.5116647e-07
8.1807943e-07
7.8310989e-07
7.5694967e-07
7.4046335e-07
7.3324925e-07
7.332371e-07
7.3354618e-07
7.3787978e-07
7.4874711e-07
7.5907631e-07
7.6510324e-07
7.6605829e-07
7.6805763e-07
7.6874565e-07
7.6991469e-07
7.7870252e-07
7.9303297e-07
8.2293176e-07
8.6955014e-07
9.2925661e-07
1.0798959e-06
1.2085665e-06
1.4659819e-06
1.6416207e-06
1.9934028e-06
2.2432023e-06
2.7670012e-06
3.1298117e-06
3.934741e-06
4.554067e-06
5.7415296e-06
6.6233765e-06
8.4305212e-06
9.7346657e-06
1.2380412e-05
1.4496137e-05
1.981872e-05
5.0104251e-06
3.9276764e-06
2.7792289e-06
2.2511383e-06
1.9259231e-06
1.713215e-06
1.580185e-06
1.4788366e-06
1.383607e-06
1.2736655e-06
1.1815758e-06
1.0957659e-06
1.0231145e-06
9.7738037e-07
9.4086947e-07
9.0911825e-07
8.8250663e-07
8.5361821e-07
8.199192e-07
7.8775425e-07
7.6082978e-07
7.4435301e-07
7.3681434e-07
7.35815e-07
7.3607569e-07
7.3933285e-07
7.4789782e-07
7.5839631e-07
7.6566201e-07
7.6882344e-07
7.7297368e-07
7.7439528e-07
7.7687234e-07
7.8486353e-07
7.9676155e-07
8.1298915e-07
8.5282189e-07
8.9996987e-07
1.0137577e-06
1.127791e-06
1.3780654e-06
1.5624792e-06
1.9387135e-06
2.1973627e-06
2.7145586e-06
3.0709636e-06
3.8387331e-06
4.3647276e-06
5.4546222e-06
6.1641953e-06
7.5947524e-06
8.3901376e-06
1.0125926e-05
1.124837e-05
1.3707211e-05
5.032028e-06
3.9402309e-06
2.7836315e-06
2.2621623e-06
1.9344368e-06
1.7187986e-06
1.5830238e-06
1.4825817e-06
1.3908114e-06
1.2872459e-06
1.191765e-06
1.1028116e-06
1.027229e-06
9.828159e-07
9.4731052e-07
9.1292278e-07
8.8303937e-07
8.569786e-07
8.24571e-07
7.922458e-07
7.6456371e-07
7.4696791e-07
7.3989902e-07
7.3827857e-07
7.3847279e-07
7.4173376e-07
7.4897618e-07
7.5831014e-07
7.6613285e-07
7.7010648e-07
7.7540474e-07
7.7713158e-07
7.8070409e-07
7.891304e-07
7.9966117e-07
8.1406985e-07
8.505806e-07
8.89966e-07
9.8121578e-07
1.0749367e-06
1.2807462e-06
1.4426979e-06
1.7863356e-06
2.0331272e-06
2.5365165e-06
2.8951407e-06
3.6592474e-06
4.1349522e-06
5.148616e-06
5.8130231e-06
7.1550169e-06
7.9775015e-06
9.6365114e-06
1.1311811e-05
1.2779747e-05
5.0421803e-06
3.9516081e-06
2.793432e-06
2.2709985e-06
1.9392929e-06
1.719803e-06
1.584756e-06
1.4900357e-06
1.397608e-06
1.2935131e-06
1.1941345e-06
1.1064837e-06
1.0361303e-06
9.8801592e-07
9.517514e-07
9.1866075e-07
8.8967748e-07
8.6747174e-07
8.3698083e-07
8.0276239e-07
7.7128106e-07
7.5032697e-07
7.4042783e-07
7.3837608e-07
7.3870947e-07
7.4222287e-07
7.5079765e-07
7.6170158e-07
7.6956017e-07
7.7358867e-07
7.7893133e-07
7.8021903e-07
7.8394402e-07
7.9213458e-07
8.019613e-07
8.1632121e-07
8.5246909e-07
8.9228254e-07
9.4373955e-07
1.0731806e-06
1.1936536e-06
1.3225532e-06
1.603958e-06
1.8259228e-06
2.1482948e-06
2.6142581e-06
3.3214389e-06
3.7182458e-06
4.3343114e-06
4.9171422e-06
6.2301216e-06
7.1360785e-06
8.9539494e-06
1.0545309e-05
1.1897093e-05
5.0490002e-06
3.9618225e-06
2.8030937e-06
2.2749955e-06
1.9432268e-06
1.7221206e-06
1.5873203e-06
1.4937421e-06
1.3998185e-06
1.2946806e-06
1.1948847e-06
1.108938e-06
1.0394642e-06
9.8812653e-07
9.518023e-07
9.1981287e-07
8.9259962e-07
8.6902746e-07
8.3875481e-07
8.0583913e-07
7.7419902e-07
7.5067945e-07
7.3992825e-07
7.3740188e-07
7.3808604e-07
7.4162961e-07
7.5047075e-07
7.6270547e-07
7.7195055e-07
7.7769925e-07
7.844467e-07
7.8729657e-07
7.925728e-07
8.0140417e-07
8.1020548e-07
8.2297092e-07
8.5510728e-07
8.8842755e-07
9.4313911e-07
1.0551815e-06
1.1516092e-06
1.2508051e-06
1.4641783e-06
1.7557351e-06
2.0005365e-06
2.3607213e-06
2.835145e-06
3.1238901e-06
3.5107364e-06
3.996553e-06
5.1877764e-06
6.2661059e-06
7.9116836e-06
8.8594682e-06
1.0398701e-05
5.0583256e-06
3.9719913e-06
2.8098576e-06
2.2785208e-06
1.9501259e-06
1.7292148e-06
1.5925469e-06
1.4958819e-06
1.4004725e-06
1.2970367e-06
1.1991121e-06
1.1143827e-06
1.0396312e-06
9.8562649e-07
9.507795e-07
9.2017723e-07
8.9273824e-07
8.6731323e-07
8.373898e-07
8.0582106e-07
7.7707288e-07
7.537799e-07
7.4252135e-07
7.4016337e-07
7.4099329e-07
7.4367764e-07
7.5059304e-07
7.6223348e-07
7.7129103e-07
7.785675e-07
7.8627024e-07
7.908908e-07
7.9879721e-07
8.0968697e-07
8.2020367e-07
8.3419344e-07
8.5655508e-07
8.9340023e-07
9.6591412e-07
1.0425662e-06
1.1115259e-06
1.1989318e-06
1.3737527e-06
1.6610898e-06
2.0169984e-06
2.291084e-06
2.6268242e-06
2.8475431e-06
3.1604466e-06
3.5628068e-06
4.5703879e-06
5.5430047e-06
7.0277429e-06
7.7231954e-06
8.849201e-06
5.0713563e-06
3.9822458e-06
2.8142449e-06
2.2881626e-06
1.9597555e-06
1.7354241e-06
1.5970752e-06
1.4997882e-06
1.4068619e-06
1.3099276e-06
1.2100406e-06
1.1226165e-06
1.0439043e-06
9.8970935e-07
9.547476e-07
9.2398231e-07
8.9433431e-07
8.6826739e-07
8.3951094e-07
8.1076221e-07
7.839953e-07
7.6245416e-07
7.4972977e-07
7.4720802e-07
7.4819308e-07
7.503708e-07
7.5358171e-07
7.6154875e-07
7.6951583e-07
7.7871448e-07
7.8705552e-07
7.9240172e-07
8.0253729e-07
8.1401437e-07
8.2624123e-07
8.3968311e-07
8.6801987e-07
8.9793117e-07
9.6014519e-07
1.0257282e-06
1.1088658e-06
1.1898864e-06
1.3487436e-06
1.5940188e-06
1.9838896e-06
2.2862647e-06
2.6571388e-06
2.8980626e-06
3.2410451e-06
3.6144363e-06
4.4827505e-06
5.5594784e-06
6.7176256e-06
7.5821031e-06
8.5481738e-06
5.0778975e-06
3.9913346e-06
2.8210487e-06
2.3005268e-06
1.9684973e-06
1.7382804e-06
1.5977272e-06
1.5108562e-06
1.4168576e-06
1.3264169e-06
1.2205034e-06
1.1290121e-06
1.0566755e-06
1.0018292e-06
9.6498792e-07
9.3618932e-07
9.0562573e-07
8.787651e-07
8.5498124e-07
8.2595422e-07
7.9532636e-07
7.6863186e-07
7.5319898e-07
7.4945158e-07
7.5020126e-07
7.5220925e-07
7.5481422e-07
7.6090214e-07
7.6879007e-07
7.7971775e-07
7.8934948e-07
7.956431e-07
8.0670513e-07
8.1827561e-07
8.3186715e-07
8.4491171e-07
8.7383436e-07
8.9958869e-07
9.5387003e-07
1.0003835e-06
1.0984322e-06
1.1787737e-06
1.347989e-06
1.5487594e-06
1.9050827e-06
2.1773594e-06
2.634171e-06
2.9412905e-06
3.4037187e-06
3.7305738e-06
4.3639554e-06
5.5255468e-06
6.4252873e-06
7.3736365e-06
8.4814255e-06
5.0794617e-06
4.0001368e-06
2.8305566e-06
2.3075618e-06
1.9730553e-06
1.741033e-06
1.5982843e-06
1.5153919e-06
1.4206303e-06
1.3315538e-06
1.2232594e-06
1.1317334e-06
1.0610935e-06
1.0052739e-06
9.6767998e-07
9.3904824e-07
9.1067643e-07
8.8279529e-07
8.6044723e-07
8.3099589e-07
7.9831805e-07
7.6967328e-07
7.5307324e-07
7.4817418e-07
7.4808929e-07
7.4972972e-07
7.5307806e-07
7.5910356e-07
7.6742145e-07
7.7981259e-07
7.9083924e-07
7.9875159e-07
8.1083837e-07
8.2293015e-07
8.378162e-07
8.5023662e-07
8.7648961e-07
8.9928159e-07
9.4785889e-07
9.8852778e-07
1.0741755e-06
1.1471318e-06
1.3268298e-06
1.4923501e-06
1.8321323e-06
2.1149722e-06
2.4468423e-06
2.8834e-06
3.3687953e-06
3.6882309e-06
4.2667227e-06
5.3118777e-06
6.0313425e-06
6.8194986e-06
7.9028184e-06
5.078619e-06
4.0077022e-06
2.8392375e-06
2.3097027e-06
1.9756227e-06
1.745822e-06
1.600311e-06
1.5136822e-06
1.4201302e-06
1.3291559e-06
1.2226645e-06
1.1311195e-06
1.0617754e-06
1.0033069e-06
9.6303865e-07
9.3413752e-07
9.0817583e-07
8.8053291e-07
8.573431e-07
8.310034e-07
7.9732692e-07
7.6721866e-07
7.4830402e-07
7.4095702e-07
7.396666e-07
7.4084455e-07
7.4464727e-07
7.5227418e-07
7.6182597e-07
7.7593691e-07
7.8835958e-07
7.9791555e-07
8.1042707e-07
8.2167952e-07
8.3626305e-07
8.4889287e-07
8.7250619e-07
8.9293487e-07
9.3534071e-07
9.8240643e-07
1.0339052e-06
1.1019228e-06
1.2631936e-06
1.4199212e-06
1.7362274e-06
2.0516275e-06
2.2366527e-06
2.5688939e-06
3.1571223e-06
3.4999278e-06
4.1129913e-06
4.6948364e-06
5.5778602e-06
6.0720431e-06
6.8861572e-06
5.0795411e-06
4.0158241e-06
2.8456044e-06
2.3112154e-06
1.9793405e-06
1.7514796e-06
1.6044639e-06
1.511509e-06
1.4197127e-06
1.3257013e-06
1.2236339e-06
1.1321049e-06
1.0591714e-06
9.9983778e-07
9.5794883e-07
9.267189e-07
8.9992402e-07
8.7388535e-07
8.4796684e-07
8.23164e-07
7.9266552e-07
7.6504046e-07
7.468774e-07
7.3830793e-07
7.3657425e-07
7.3746877e-07
7.4041646e-07
7.4743694e-07
7.5794871e-07
7.7144246e-07
7.8296702e-07
7.9186857e-07
8.0369704e-07
8.13989e-07
8.2716327e-07
8.4003576e-07
8.6207667e-07
8.8015037e-07
9.1533604e-07
9.7095996e-07
1.0138535e-06
1.0917428e-06
1.1986549e-06
1.3200842e-06
1.5970675e-06
1.9295717e-06
2.1045613e-06
2.3166292e-06
2.8066016e-06
3.1087295e-06
3.6704365e-06
4.0639942e-06
4.8072773e-06
5.3137157e-06
5.9008557e-06
5.0807349e-06
4.0228717e-06
2.8498101e-06
2.3160758e-06
1.986567e-06
1.7570616e-06
1.609041e-06
1.5142842e-06
1.423944e-06
1.3295658e-06
1.2315464e-06
1.1389287e-06
1.0605617e-06
1.0015334e-06
9.5934933e-07
9.2680489e-07
8.9949955e-07
8.7393145e-07
8.4739104e-07
8.2162137e-07
7.9419965e-07
7.6866966e-07
7.4991614e-07
7.3999554e-07
7.3730444e-07
7.3790854e-07
7.4013302e-07
7.4584376e-07
7.5686573e-07
7.6998869e-07
7.8023931e-07
7.8752403e-07
7.962948e-07
8.0400888e-07
8.1244822e-07
8.2359606e-07
8.4320654e-07
8.6168535e-07
8.8937537e-07
9.5254068e-07
9.9787344e-07
1.068355e-06
1.1785393e-06
1.2650635e-06
1.4538657e-06
1.7548237e-06
1.9623885e-06
2.182695e-06
2.5260274e-06
2.7552086e-06
3.2625141e-06
3.7152036e-06
4.3151945e-06
4.7131283e-06
5.0570531e-06
5.0830006e-06
4.0306671e-06
2.8540511e-06
2.3255554e-06
1.9972598e-06
1.7628399e-06
1.6132287e-06
1.5240513e-06
1.4343989e-06
1.3444467e-06
1.2486294e-06
1.1530836e-06
1.0707545e-06
1.0133733e-06
9.7072808e-07
9.3773117e-07
9.1199243e-07
8.8518799e-07
8.5958483e-07
8.335161e-07
8.0780312e-07
7.8325571e-07
7.6217144e-07
7.495626e-07
7.4456307e-07
7.4445521e-07
7.4611583e-07
7.5036585e-07
7.5980262e-07
7.7179018e-07
7.8119343e-07
7.8790122e-07
7.9520113e-07
8.0167794e-07
8.0774097e-07
8.1759131e-07
8.324269e-07
8.5320397e-07
8.7365769e-07
9.2597309e-07
9.9437432e-07
1.039683e-06
1.1367788e-06
1.2649587e-06
1.3768947e-06
1.5801871e-06
1.871045e-06
2.1129905e-06
2.3311697e-06
2.5399618e-06
3.0248209e-06
3.530933e-06
4.0609163e-06
4.3601679e-06
4.6206915e-06
5.081102e-06
4.0354078e-06
2.8592186e-06
2.3347817e-06
2.0065278e-06
1.7679943e-06
1.6154147e-06
1.5348708e-06
1.4470739e-06
1.3600229e-06
1.2621325e-06
1.1639883e-06
1.0845813e-06
1.0254064e-06
9.8152746e-07
9.5114912e-07
9.255709e-07
8.9812114e-07
8.7546488e-07
8.5282569e-07
8.2647173e-07
7.9902954e-07
7.7487704e-07
7.5954306e-07
7.5302187e-07
7.5253296e-07
7.5404863e-07
7.5728193e-07
7.6387259e-07
7.7517006e-07
7.8586491e-07
7.9399237e-07
8.0211195e-07
8.0904679e-07
8.1459541e-07
8.2407578e-07
8.3719647e-07
8.5856745e-07
8.7865883e-07
9.1604941e-07
9.9242792e-07
1.044511e-06
1.1005232e-06
1.2388232e-06
1.3750089e-06
1.4920422e-06
1.721434e-06
1.9994821e-06
2.1895774e-06
2.3581377e-06
2.760839e-06
3.245803e-06
3.7812338e-06
4.0754241e-06
4.3675948e-06
5.0806276e-06
4.042276e-06
2.8659363e-06
2.3410896e-06
2.012161e-06
1.7717703e-06
1.6166972e-06
1.5383826e-06
1.4520364e-06
1.3653163e-06
1.2653735e-06
1.1663522e-06
1.0884232e-06
1.0279556e-06
9.8414545e-07
9.5451129e-07
9.2849429e-07
9.027292e-07
8.8184078e-07
8.6112642e-07
8.3636906e-07
8.0780225e-07
7.849963e-07
7.7114335e-07
7.6575634e-07
7.6618671e-07
7.6784359e-07
7.7128316e-07
7.7706198e-07
7.9047216e-07
8.0886124e-07
8.2389579e-07
8.4087194e-07
8.5349147e-07
8.6457806e-07
8.7764155e-07
8.9331814e-07
9.1994867e-07
9.4189655e-07
9.7343101e-07
1.0445579e-06
1.1058598e-06
1.1514942e-06
1.2629142e-06
1.4205127e-06
1.5198198e-06
1.6734482e-06
1.949012e-06
2.1622372e-06
2.3088434e-06
2.6245659e-06
3.060383e-06
3.5859417e-06
3.9025323e-06
4.1922782e-06
5.0722878e-06
4.04435e-06
2.8705785e-06
2.3434108e-06
2.0134494e-06
1.773565e-06
1.6158208e-06
1.5336144e-06
1.4462799e-06
1.3605614e-06
1.2617345e-06
1.1633863e-06
1.0862697e-06
1.0268929e-06
9.8544692e-07
9.5649847e-07
9.3083862e-07
9.1100058e-07
8.9504583e-07
8.7742431e-07
8.5987818e-07
8.3746775e-07
8.2455356e-07
8.2279891e-07
8.2506042e-07
8.306237e-07
8.4018683e-07
8.4871876e-07
8.6366238e-07
8.8530875e-07
9.2314793e-07
9.5651085e-07
1.0078237e-06
1.0404601e-06
1.0737507e-06
1.105023e-06
1.1407048e-06
1.1938393e-06
1.2273043e-06
1.2613569e-06
1.3372667e-06
1.4222605e-06
1.4718931e-06
1.5832788e-06
1.7361488e-06
1.8361913e-06
1.9605753e-06
2.2048868e-06
2.4243334e-06
2.5543214e-06
2.8037731e-06
3.219577e-06
3.657468e-06
3.9703274e-06
4.2493411e-06
5.0719861e-06
4.050805e-06
2.8742624e-06
2.3422089e-06
2.0107481e-06
1.7708184e-06
1.6101157e-06
1.5190101e-06
1.4318813e-06
1.3528441e-06
1.2617391e-06
1.1727851e-06
1.1030822e-06
1.0531748e-06
1.0258997e-06
1.0087094e-06
9.9469278e-07
9.9361732e-07
9.9838293e-07
1.0031675e-06
1.0117551e-06
1.0175275e-06
1.0348495e-06
1.0583479e-06
1.1110153e-06
1.1444694e-06
1.1961364e-06
1.2267591e-06
1.2796537e-06
1.332346e-06
1.417183e-06
1.501584e-06
1.6525197e-06
1.757961e-06
1.8444697e-06
1.9490967e-06
2.0539172e-06
2.1865377e-06
2.2540659e-06
2.3366649e-06
2.4270442e-06
2.6056797e-06
2.7150636e-06
2.8826934e-06
3.0078818e-06
3.1946218e-06
3.3454942e-06
3.5932733e-06
3.8075369e-06
3.9965674e-06
4.1462338e-06
4.5125807e-06
4.753955e-06
5.2294837e-06
5.2730514e-06
5.0458892e-06
4.0355841e-06
2.8644446e-06
2.3308659e-06
2.0005461e-06
1.7606834e-06
1.6061437e-06
1.5131802e-06
1.4389748e-06
1.3838151e-06
1.3292977e-06
1.2846808e-06
1.2599943e-06
1.2639851e-06
1.2826795e-06
1.3226247e-06
1.3642428e-06
1.4118978e-06
1.5214275e-06
1.5934747e-06
1.6901694e-06
1.7496216e-06
1.8869551e-06
1.9995731e-06
2.1979282e-06
2.3224325e-06
2.5191804e-06
2.6413474e-06
2.8205911e-06
2.9898568e-06
3.1891753e-06
3.3764769e-06
3.7629038e-06
4.0999422e-06
4.3263946e-06
4.6207665e-06
4.9140859e-06
5.2539766e-06
5.4474186e-06
5.636083e-06
5.816834e-06
6.1556658e-06
6.4502434e-06
6.7260702e-06
6.8724547e-06
7.1823164e-06
7.4543778e-06
7.8591924e-06
8.1229344e-06
8.4348682e-06
8.5487916e-06
8.8533111e-06
9.0545279e-06
9.5093023e-06
9.3657084e-06
4.9924853e-06
3.9825124e-06
2.838852e-06
2.3285611e-06
2.0157834e-06
1.8091526e-06
1.6996358e-06
1.6328718e-06
1.6360498e-06
1.6745637e-06
1.7711811e-06
1.8895196e-06
2.0641538e-06
2.2120339e-06
2.4391826e-06
2.6430705e-06
2.8437375e-06
3.0269015e-06
3.4116272e-06
3.6520808e-06
3.9830519e-06
4.1848231e-06
4.6096449e-06
4.9407682e-06
5.4269236e-06
5.7901408e-06
6.3012552e-06
6.7460068e-06
7.220949e-06
7.6975933e-06
8.1872514e-06
8.5610506e-06
9.2994197e-06
1.0134905e-05
1.0725674e-05
1.1326822e-05
1.2021385e-05
1.2700541e-05
1.3253713e-05
1.3585481e-05
1.3987115e-05
1.4466449e-05
1.5104778e-05
1.5571709e-05
1.589058e-05
1.6218692e-05
1.6707502e-05
1.7170071e-05
1.7657836e-05
1.808138e-05
1.8310852e-05
1.8605936e-05
1.8818692e-05
1.9351388e-05
1.906862e-05
4.7286341e-06
3.8586481e-06
2.9748417e-06
2.6056436e-06
2.414001e-06
2.4249674e-06
2.4801645e-06
2.6004524e-06
2.8184341e-06
3.2658265e-06
3.8376402e-06
4.384458e-06
5.0591419e-06
5.6381892e-06
6.2413058e-06
6.7652198e-06
7.2868656e-06
7.7076777e-06
8.4957793e-06
9.0155506e-06
9.7228774e-06
1.0151755e-05
1.0954514e-05
1.1644787e-05
1.2475097e-05
1.3229505e-05
1.4135738e-05
1.5110004e-05
1.6061274e-05
1.7007901e-05
1.8027776e-05
1.8818298e-05
1.9812673e-05
2.1159044e-05
2.2337485e-05
2.3364146e-05
2.4479507e-05
2.5446324e-05
2.6466774e-05
2.7087333e-05
2.7762065e-05
2.8247333e-05
2.9042122e-05
2.9685172e-05
3.0296502e-05
3.0512597e-05
3.0997342e-05
3.1270481e-05
3.1892161e-05
3.2323341e-05
3.2808034e-05
3.2984126e-05
3.3135594e-05
3.3640622e-05
3.3433822e-05
5.5870126e-06
5.9754847e-06
5.8305424e-06
5.7612979e-06
6.0188127e-06
6.6836253e-06
7.214085e-06
7.8578631e-06
8.6084394e-06
9.7358162e-06
1.097634e-05
1.2023553e-05
1.3084727e-05
1.4056349e-05
1.4829481e-05
1.5521537e-05
1.6312401e-05
1.6973894e-05
1.7806474e-05
1.8469985e-05
1.9319859e-05
1.9871028e-05
2.0622345e-05
2.1435338e-05
2.2242709e-05
2.305597e-05
2.3975116e-05
2.4986392e-05
2.5957414e-05
2.6965221e-05
2.8070913e-05
2.9202016e-05
3.0130746e-05
3.122081e-05
3.2469642e-05
3.3514582e-05
3.4382367e-05
3.5096078e-05
3.5993867e-05
3.6777644e-05
3.7528888e-05
3.8134433e-05
3.8675211e-05
3.9391597e-05
3.9981591e-05
4.0149361e-05
4.0082372e-05
4.0002243e-05
4.0199119e-05
4.0510738e-05
4.0823868e-05
4.0857043e-05
4.0787345e-05
4.059587e-05
4.0651858e-05
1.3701368e-05
2.7542819e-05
2.8011794e-05
2.7513784e-05
2.7846015e-05
2.8278153e-05
2.8379707e-05
2.8288935e-05
2.8061605e-05
2.8090003e-05
2.8342308e-05
2.8361054e-05
2.8200367e-05
2.7658414e-05
2.6849655e-05
2.6244873e-05
2.5934895e-05
2.5709652e-05
2.5448275e-05
2.5308325e-05
2.5254962e-05
2.5296802e-05
2.5505603e-05
2.5815237e-05
2.5965683e-05
2.6120501e-05
2.6507204e-05
2.7083982e-05
2.7601502e-05
2.801214e-05
2.8257249e-05
2.8640781e-05
2.9094171e-05
2.9397055e-05
2.9862628e-05
3.0467945e-05
3.0821658e-05
3.0893806e-05
3.1065868e-05
3.1325569e-05
3.1456892e-05
3.1580998e-05
3.1850247e-05
3.2289889e-05
3.2657878e-05
3.2663046e-05
3.2444821e-05
3.2240028e-05
3.2319306e-05
3.2677246e-05
3.3053324e-05
3.3287593e-05
3.3188721e-05
3.2840051e-05
3.292846e-05
4.9428041e-05
9.5634473e-05
9.5622719e-05
9.1544324e-05
8.262031e-05
7.477123e-05
6.9523078e-05
6.4616797e-05
5.9615466e-05
5.5454421e-05
5.2012449e-05
4.9058407e-05
4.6934248e-05
4.5435065e-05
4.4586014e-05
4.382799e-05
4.2856639e-05
4.1838909e-05
4.0516574e-05
3.9248662e-05
3.7778861e-05
3.6171369e-05
3.4659738e-05
3.3162275e-05
3.1729694e-05
3.0412225e-05
2.9328109e-05
2.8480992e-05
2.7919769e-05
2.7369761e-05
2.6840722e-05
2.6202293e-05
2.5583683e-05
2.4987483e-05
2.4470753e-05
2.4049929e-05
2.360374e-05
2.2891688e-05
2.2069018e-05
2.1599699e-05
2.1351163e-05
2.086763e-05
2.0083212e-05
1.9355617e-05
1.8971625e-05
1.8745706e-05
1.8287994e-05
1.7461083e-05
1.6486717e-05
1.5632373e-05
1.5036729e-05
1.4671527e-05
1.4488889e-05
1.4041168e-05
1.3645351e-05
1.2669254e-05
3.2215856e-05
4.11747e-05
3.5062171e-05
2.0652252e-05
1.0511823e-05
5.9959056e-06
4.8678317e-06
4.7851356e-06
4.9646308e-06
5.1655088e-06
5.5261561e-06
6.449232e-06
7.6003877e-06
8.6414642e-06
9.2390601e-06
9.3533849e-06
9.6866272e-06
1.1629263e-05
1.4026411e-05
1.4797791e-05
1.5594532e-05
2.1434907e-05
3.1629583e-05
3.2695613e-05
3.2817397e-05
3.1334299e-05
1.1681321e-05
3.1459356e-05
4.2081747e-05
3.6716657e-05
2.2467387e-05
1.1792624e-05
7.0790117e-06
5.8626897e-06
5.7566673e-06
5.8427641e-06
5.9763791e-06
6.3064207e-06
7.1787957e-06
8.7064996e-06
1.0111786e-05
1.0298963e-05
9.9607992e-06
1.0193604e-05
1.2156373e-05
1.5917848e-05
1.8171046e-05
1.8745752e-05
2.3685687e-05
3.5819551e-05
3.8362369e-05
3.8695846e-05
3.8604717e-05
1.1145643e-05
3.0711584e-05
4.2729321e-05
3.7948291e-05
2.4142826e-05
1.3215431e-05
8.3284767e-06
6.7790773e-06
6.4923687e-06
6.5222122e-06
6.5940321e-06
6.9148616e-06
7.8294589e-06
9.653687e-06
1.1609206e-05
1.2333069e-05
1.1277e-05
1.1024187e-05
1.2891022e-05
1.7265862e-05
2.0514744e-05
2.0967394e-05
2.5371035e-05
3.9360091e-05
4.3834013e-05
4.4503702e-05
4.7288155e-05
1.0953015e-05
2.8886302e-05
4.2361034e-05
3.8573052e-05
2.582762e-05
1.4865584e-05
9.69183e-06
7.8719792e-06
7.404296e-06
7.2816297e-06
7.2877037e-06
7.6325112e-06
8.815284e-06
1.0786663e-05
1.283557e-05
1.3913827e-05
1.3743681e-05
1.3244064e-05
1.4741015e-05
1.9334513e-05
2.2859518e-05
2.3102218e-05
2.6779992e-05
4.3416582e-05
5.1373853e-05
5.1143627e-05
5.7296278e-05
1.0777227e-05
2.6195178e-05
4.1348652e-05
3.8860181e-05
2.7700241e-05
1.6626259e-05
1.1205861e-05
9.294673e-06
8.9103269e-06
8.7694237e-06
8.6266143e-06
8.9677144e-06
1.0376986e-05
1.277451e-05
1.4899387e-05
1.6270808e-05
1.7382542e-05
1.7126246e-05
1.9033201e-05
2.4433113e-05
2.8181373e-05
2.7771057e-05
3.0086542e-05
4.8123428e-05
6.0682211e-05
5.8716999e-05
6.7118905e-05
9.9523453e-06
2.3760396e-05
4.0277778e-05
3.9045824e-05
2.9504239e-05
1.8333393e-05
1.2838945e-05
1.0855037e-05
1.036514e-05
1.0170483e-05
1.0014698e-05
1.0328207e-05
1.1849839e-05
1.4918586e-05
1.8087516e-05
2.0555489e-05
2.176397e-05
2.1594459e-05
2.3925883e-05
3.1054859e-05
3.6011404e-05
3.5313242e-05
3.6438415e-05
5.5586279e-05
6.910386e-05
6.5397918e-05
7.4480207e-05
8.9198816e-06
2.1932945e-05
3.9631109e-05
3.9449996e-05
3.1316881e-05
2.0482106e-05
1.5108256e-05
1.2943789e-05
1.2108608e-05
1.1522276e-05
1.1013159e-05
1.1195068e-05
1.2732274e-05
1.6244455e-05
2.0669375e-05
2.4291535e-05
2.5408367e-05
2.4690929e-05
2.706018e-05
3.5805756e-05
4.2871864e-05
4.3605736e-05
4.4002347e-05
6.1620368e-05
8.2322152e-05
7.6333401e-05
8.405235e-05
8.4075158e-06
2.0292718e-05
3.8835362e-05
3.9630034e-05
3.310904e-05
2.3057587e-05
1.7763636e-05
1.5251701e-05
1.3997629e-05
1.3038269e-05
1.2214636e-05
1.2193141e-05
1.3706535e-05
1.7655341e-05
2.2597462e-05
2.7481784e-05
2.9153651e-05
2.7185377e-05
2.870781e-05
3.777662e-05
4.7047447e-05
4.9405199e-05
4.8916456e-05
6.6047782e-05
9.9935091e-05
9.3276301e-05
9.6854879e-05
8.4907629e-06
1.8352354e-05
3.7577827e-05
3.9566618e-05
3.4996608e-05
2.6022333e-05
2.0496976e-05
1.7575786e-05
1.606699e-05
1.4976548e-05
1.4137451e-05
1.4103031e-05
1.580967e-05
2.0442612e-05
2.6374214e-05
3.2698811e-05
3.4786525e-05
3.1368846e-05
3.1076381e-05
4.0001916e-05
5.2404546e-05
5.5556214e-05
5.3610707e-05
6.9956009e-05
0.00011438647
0.00011378049
0.00011401846
8.9972456e-06
1.6138168e-05
3.5431259e-05
3.9066646e-05
3.6289545e-05
2.868289e-05
2.2990014e-05
2.0300679e-05
1.9154595e-05
1.8199889e-05
1.7196581e-05
1.704366e-05
1.8898573e-05
2.416903e-05
3.1735321e-05
3.8620535e-05
4.0698882e-05
3.6905954e-05
3.6034581e-05
4.5735274e-05
6.2714917e-05
6.6046068e-05
6.1963168e-05
7.6139048e-05
0.00012612358
0.00013719675
0.00013489459
9.0657654e-06
1.4023764e-05
3.2840048e-05
3.8451318e-05
3.7192491e-05
3.1582769e-05
2.6753603e-05
2.4427163e-05
2.3270704e-05
2.1883238e-05
2.039632e-05
1.9949707e-05
2.1877454e-05
2.759125e-05
3.6622098e-05
4.3556763e-05
4.5733898e-05
4.3251675e-05
4.3748725e-05
6.013442e-05
8.2517371e-05
8.4877298e-05
7.613567e-05
8.5598162e-05
0.00014228878
0.0001622883
0.00015107857
8.4257837e-06
1.2355752e-05
3.0736966e-05
3.823127e-05
3.8259672e-05
3.5155811e-05
3.0513713e-05
2.79962e-05
2.6323616e-05
2.4556647e-05
2.2711698e-05
2.1895396e-05
2.3711767e-05
2.9516652e-05
3.9817484e-05
4.8197173e-05
5.1826256e-05
5.1261174e-05
5.2398581e-05
7.3552158e-05
0.00010842274
0.00011439794
0.00010074676
0.00010155939
0.00016134725
0.00019222086
0.0001686949
8.1666194e-06
1.1274188e-05
2.9489519e-05
3.8462735e-05
3.9614088e-05
3.7971445e-05
3.3888251e-05
3.1427398e-05
2.9730942e-05
2.788267e-05
2.5703736e-05
2.4621583e-05
2.6393291e-05
3.2550577e-05
4.5130756e-05
5.7313857e-05
6.3713745e-05
6.3416265e-05
6.294757e-05
8.2840331e-05
0.00013081284
0.00014468539
0.00013200678
0.00012554431
0.00018596423
0.00022859553
0.000196895
8.1299738e-06
1.0622673e-05
2.8531161e-05
3.8647089e-05
4.0837208e-05
4.0264648e-05
3.8190509e-05
3.5993917e-05
3.4590354e-05
3.2643415e-05
3.0077701e-05
2.8789684e-05
3.0649327e-05
3.7664828e-05
5.2626285e-05
6.8137559e-05
7.7223161e-05
7.7168097e-05
7.4287244e-05
9.0750626e-05
0.00014417092
0.00016754369
0.00015957756
0.00015024046
0.00020877741
0.00027158887
0.00023486367
8.6599387e-06
9.860799e-06
2.6674702e-05
3.8318428e-05
4.2070512e-05
4.2811952e-05
4.2330228e-05
4.0977125e-05
3.9264898e-05
3.7102713e-05
3.4755325e-05
3.3641898e-05
3.5950999e-05
4.4164374e-05
6.0305272e-05
7.8631844e-05
8.8794926e-05
8.8457389e-05
8.3653215e-05
9.7561478e-05
0.00015556737
0.00019595372
0.00019558924
0.00017530173
0.00021652915
0.0003163656
0.00028782284
9.3050901e-06
8.923304e-06
2.3730599e-05
3.7295034e-05
4.3025154e-05
4.504096e-05
4.5547319e-05
4.5298848e-05
4.4442284e-05
4.2668193e-05
4.0740873e-05
3.9844759e-05
4.2484031e-05
5.1902137e-05
7.0231151e-05
9.2712759e-05
0.00010465073
0.00010381102
9.5942619e-05
0.00010762208
0.00017181026
0.00023504994
0.00024111722
0.00020757831
0.00022399463
0.00034381272
0.00034181983
8.9686659e-06
8.0091209e-06
2.0518116e-05
3.5859123e-05
4.3345144e-05
4.6705805e-05
4.8614534e-05
4.9823596e-05
5.034642e-05
4.9786098e-05
4.7479018e-05
4.6233916e-05
4.8815533e-05
5.9481599e-05
8.2428977e-05
0.00011075573
0.00012441416
0.00012287015
0.00011290244
0.00012321654
0.00019044758
0.00027668856
0.00029080764
0.00025049346
0.00024398938
0.000359852
0.00038827199
9.2201339e-06
7.2621546e-06
1.7616047e-05
3.4373054e-05
4.4060217e-05
4.9350862e-05
5.3209553e-05
5.5678705e-05
5.6849635e-05
5.638291e-05
5.3242269e-05
5.1268732e-05
5.3565285e-05
6.4876481e-05
9.0302687e-05
0.00012344194
0.00014219345
0.00014391992
0.00013576106
0.00014386162
0.00020703413
0.00031185129
0.00034230415
0.00030483224
0.00027751232
0.00037559935
0.00043824136
1.0659614e-05
6.7897834e-06
1.5633295e-05
3.3675826e-05
4.5605206e-05
5.2969923e-05
5.8641107e-05
6.1728827e-05
6.2833493e-05
6.2020934e-05
5.8948291e-05
5.7244073e-05
5.9560074e-05
7.0573116e-05
9.5720887e-05
0.0001323483
0.00015774177
0.0001660226
0.00016214061
0.0001685066
0.00022503308
0.00034606721
0.00039906373
0.00037064122
0.00032680389
0.00040027307
0.00050874339
1.2077435e-05
6.5988289e-06
1.4924915e-05
3.4128574e-05
4.8070328e-05
5.6521966e-05
6.2687276e-05
6.6078101e-05
6.7293565e-05
6.7051062e-05
6.5333727e-05
6.4001992e-05
6.5948089e-05
7.5929134e-05
0.00010059269
0.0001410982
0.00017504752
0.0001904564
0.00018921973
0.00019225311
0.00024389008
0.00038152917
0.00046092772
0.0004460867
0.00039135198
0.00044284663
0.00059685761
1.217087e-05
6.6724116e-06
1.5053234e-05
3.478603e-05
5.0117253e-05
5.9327568e-05
6.5698998e-05
7.0769643e-05
7.3273757e-05
7.3801447e-05
7.2725627e-05
7.1448797e-05
7.3120996e-05
8.2938558e-05
0.00010945614
0.00015564111
0.00019690344
0.00021608212
0.00021480924
0.00021511744
0.00026108893
0.00040607178
0.000515061
0.00052068827
0.00047598715
0.00051157642
0.00067979438
1.283112e-05
6.6023163e-06
1.4534938e-05
3.4004763e-05
5.0992402e-05
6.1649467e-05
6.9593174e-05
7.677375e-05
8.0910233e-05
8.2119413e-05
8.1531152e-05
8.0475374e-05
8.225219e-05
9.2806292e-05
0.00012221206
0.00017418464
0.00022007857
0.00023934803
0.00023927918
0.00023903624
0.00027974374
0.00042047591
0.00055293254
0.00059446617
0.00057623497
0.0005993872
0.00075771386
1.2947427e-05
6.3832491e-06
1.2961744e-05
3.0887984e-05
4.9240453e-05
6.1972176e-05
7.2280527e-05
8.1474262e-05
8.8172264e-05
9.1338594e-05
9.2199403e-05
9.2374088e-05
9.5329513e-05
0.00010815671
0.00014076142