/*--------------------------------*- C++ -*----------------------------------*\
| =========                 |                                                 |
| \\      /  F ield         | OpenFOAM: The Open Source CFD Toolbox           |
|  \\    /   O peration     | Version:  2406                                  |
|   \\  /    A nd           | Website:  www.openfoam.com                      |
|    \\/     M anipulation  |                                                 |
\*---------------------------------------------------------------------------*/
FoamFile
{
    version     2.0;
    format      ascii;
    arch        "LSB;label=32;scalar=64";
    class       volScalarField;
    location    "31";
    object      k_0;
}
// * * * * * * * * * * * * * * * * * * * * * * * * * * * * * * * * * * * * * //

dimensions      [0 2 -2 0 0 0 0];

internalField   nonuniform List<scalar> 
62344
(
4.9483576e-06
3.8617182e-06
2.7305201e-06
2.2124845e-06
1.8946823e-06
1.6901609e-06
1.552392e-06
1.4468388e-06
1.3514127e-06
1.2418107e-06
1.1480078e-06
1.063094e-06
1.0004612e-06
9.5629237e-07
9.1601884e-07
8.8460227e-07
8.5536671e-07
8.2534297e-07
7.9054959e-07
7.602905e-07
7.3790715e-07
7.2849723e-07
7.2609506e-07
7.2754017e-07
7.3179788e-07
7.4121887e-07
7.4743149e-07
7.5220595e-07
7.5431864e-07
7.5667474e-07
7.5918682e-07
7.6812934e-07
7.8367779e-07
8.3443975e-07
9.1437296e-07
9.9528396e-07
1.1801293e-06
1.3350192e-06
1.6426132e-06
1.8918653e-06
2.4011995e-06
2.8119905e-06
3.6873963e-06
4.7278376e-06
6.0431e-06
7.044927e-06
8.7477423e-06
1.0863795e-05
1.3954415e-05
1.6055065e-05
1.8337734e-05
1.9233966e-05
2.1082303e-05
2.2475153e-05
2.5718047e-05
4.9467922e-06
3.8730537e-06
2.7428143e-06
2.2191874e-06
1.8967707e-06
1.6940571e-06
1.5588261e-06
1.4527113e-06
1.3577427e-06
1.2475574e-06
1.15302e-06
1.0660228e-06
1.0030683e-06
9.6034056e-07
9.2018839e-07
8.8848954e-07
8.6104748e-07
8.3265002e-07
7.9690731e-07
7.6451181e-07
7.404623e-07
7.2793278e-07
7.2497085e-07
7.2564881e-07
7.28214e-07
7.3539637e-07
7.4219816e-07
7.4658323e-07
7.4746429e-07
7.480803e-07
7.4820386e-07
7.5212637e-07
7.5588991e-07
7.7430073e-07
8.2532876e-07
8.7920145e-07
9.5570256e-07
1.0950742e-06
1.3691035e-06
1.5598786e-06
1.9465257e-06
2.3097014e-06
3.1568183e-06
3.9172022e-06
5.3754929e-06
6.6493164e-06
8.2119189e-06
1.0103846e-05
1.2813148e-05
1.5734164e-05
1.8250095e-05
2.1014815e-05
2.3093998e-05
2.6491777e-05
2.7782162e-05
4.9716818e-06
3.8860581e-06
2.7491243e-06
2.2270263e-06
1.9062701e-06
1.6992966e-06
1.5654238e-06
1.4572769e-06
1.3644534e-06
1.2559169e-06
1.1627352e-06
1.0754117e-06
1.0104468e-06
9.6638302e-07
9.2579577e-07
8.9346096e-07
8.6657915e-07
8.370139e-07
8.0186413e-07
7.6924689e-07
7.4590627e-07
7.3218005e-07
7.2802893e-07
7.2882235e-07
7.3034059e-07
7.3666451e-07
7.4513234e-07
7.5022878e-07
7.5116248e-07
7.5108023e-07
7.5113324e-07
7.5456793e-07
7.5812017e-07
7.7490792e-07
8.0566965e-07
8.6823561e-07
9.4303829e-07
1.022585e-06
1.2036042e-06
1.3468183e-06
1.6215318e-06
1.8518373e-06
2.3512746e-06
2.7822237e-06
3.7517426e-06
4.6820408e-06
6.0707296e-06
8.1777287e-06
9.7336891e-06
1.2865631e-05
1.615719e-05
2.0153965e-05
2.2984165e-05
2.6313761e-05
2.9029056e-05
4.9867392e-06
3.8998315e-06
2.7576444e-06
2.2379992e-06
1.9141592e-06
1.7030403e-06
1.56747e-06
1.4655294e-06
1.374894e-06
1.2635537e-06
1.1705241e-06
1.0838037e-06
1.0159155e-06
9.7186261e-07
9.3398762e-07
8.9976819e-07
8.6957432e-07
8.4207956e-07
8.0830243e-07
7.7575591e-07
7.513279e-07
7.3646408e-07
7.3134966e-07
7.3176857e-07
7.325616e-07
7.3801066e-07
7.4920011e-07
7.5776559e-07
7.6113941e-07
7.6056866e-07
7.6091945e-07
7.6274783e-07
7.6395757e-07
7.7448645e-07
7.9607995e-07
8.4239054e-07
9.2135972e-07
9.9377604e-07
1.1568976e-06
1.2844194e-06
1.5311316e-06
1.7140937e-06
2.081669e-06
2.3643121e-06
2.9850246e-06
3.4879579e-06
4.5639189e-06
5.5638934e-06
7.2082876e-06
8.851042e-06
1.1602035e-05
1.47012e-05
1.8818289e-05
2.2702469e-05
2.7523785e-05
5.0017392e-06
3.9120924e-06
2.7702656e-06
2.2451408e-06
1.9171337e-06
1.7054624e-06
1.5736316e-06
1.4733882e-06
1.3809937e-06
1.2665876e-06
1.1735944e-06
1.086664e-06
1.0195618e-06
9.7319779e-07
9.3635544e-07
9.0494375e-07
8.7879086e-07
8.5123863e-07
8.180845e-07
7.8321076e-07
7.5689228e-07
7.4066547e-07
7.3328943e-07
7.3336433e-07
7.3375934e-07
7.3803166e-07
7.4903023e-07
7.5927471e-07
7.653816e-07
7.663648e-07
7.680633e-07
7.6923445e-07
7.7006969e-07
7.7851752e-07
7.9355025e-07
8.2382157e-07
8.7008105e-07
9.2976293e-07
1.0812579e-06
1.2115442e-06
1.4666246e-06
1.6415907e-06
1.9960868e-06
2.2489804e-06
2.7762409e-06
3.1337604e-06
3.9276054e-06
4.5548515e-06
5.7608927e-06
6.6531759e-06
8.4640756e-06
9.7618201e-06
1.2394217e-05
1.4465515e-05
1.9734299e-05
5.0125574e-06
3.9255393e-06
2.7781883e-06
2.250806e-06
1.9258303e-06
1.7132667e-06
1.5803831e-06
1.4790073e-06
1.3837335e-06
1.2736962e-06
1.1815109e-06
1.0956458e-06
1.0230301e-06
9.7728637e-07
9.4101986e-07
9.0908974e-07
8.8259281e-07
8.5366099e-07
8.1997564e-07
7.8790495e-07
7.6085568e-07
7.4445754e-07
7.3689556e-07
7.359446e-07
7.3624347e-07
7.3944853e-07
7.481762e-07
7.5853261e-07
7.659897e-07
7.6909751e-07
7.7303081e-07
7.7496221e-07
7.7697228e-07
7.8468247e-07
7.9724014e-07
8.1366318e-07
8.5343929e-07
9.0078488e-07
1.0145313e-06
1.1295738e-06
1.3795582e-06
1.5645196e-06
1.9395193e-06
2.2013273e-06
2.7241983e-06
3.0718507e-06
3.8386447e-06
4.3666304e-06
5.4594891e-06
6.1842431e-06
7.6234823e-06
8.4236119e-06
1.0133946e-05
1.121071e-05
1.3642026e-05
5.034184e-06
3.9382088e-06
2.7827198e-06
2.2619122e-06
1.9342353e-06
1.7188206e-06
1.5832707e-06
1.4828662e-06
1.3909281e-06
1.2872992e-06
1.1917423e-06
1.1026481e-06
1.0270973e-06
9.8273325e-07
9.4737368e-07
9.1294023e-07
8.831673e-07
8.570216e-07
8.246388e-07
7.9233646e-07
7.6467919e-07
7.4693606e-07
7.4002627e-07
7.3849054e-07
7.3862771e-07
7.4185752e-07
7.492476e-07
7.5839279e-07
7.6646855e-07
7.7032702e-07
7.7554019e-07
7.7775274e-07
7.8076042e-07
7.8903103e-07
8.0018172e-07
8.1455543e-07
8.5108009e-07
8.9116205e-07
9.821668e-07
1.0755624e-06
1.2820388e-06
1.445986e-06
1.7881085e-06
2.0342148e-06
2.5419014e-06
2.8946004e-06
3.6652539e-06
4.1446082e-06
5.1519649e-06
5.8199649e-06
7.1788048e-06
8.0045735e-06
9.6407707e-06
1.1286887e-05
1.2762042e-05
5.0443407e-06
3.9497051e-06
2.792633e-06
2.2707703e-06
1.9390346e-06
1.7198484e-06
1.5850365e-06
1.4903342e-06
1.39765e-06
1.2935014e-06
1.1940779e-06
1.1063486e-06
1.0360008e-06
9.8796261e-07
9.5175909e-07
9.1876489e-07
8.8982333e-07
8.6752627e-07
8.3707931e-07
8.0274672e-07
7.7138323e-07
7.5031053e-07
7.4051167e-07
7.3861275e-07
7.3884321e-07
7.4237694e-07
7.5107481e-07
7.6180498e-07
7.6991336e-07
7.7371977e-07
7.7913114e-07
7.8080573e-07
7.8391437e-07
7.921272e-07
8.0254931e-07
8.166658e-07
8.5283399e-07
8.9349734e-07
9.450943e-07
1.0736992e-06
1.1937939e-06
1.325968e-06
1.6073714e-06
1.8272889e-06
2.1486017e-06
2.6159385e-06
3.329236e-06
3.7287078e-06
4.3400497e-06
4.9172031e-06
6.2400704e-06
7.1509433e-06
8.9512661e-06
1.052927e-05
1.1917578e-05
5.051167e-06
3.9600019e-06
2.8022872e-06
2.2747645e-06
1.942997e-06
1.7221854e-06
1.5875454e-06
1.4939262e-06
1.3998217e-06
1.2946685e-06
1.1947429e-06
1.1088735e-06
1.0392927e-06
9.8808587e-07
9.5183701e-07
9.1994994e-07
8.9268373e-07
8.6906941e-07
8.3887841e-07
8.0577344e-07
7.7422479e-07
7.5082069e-07
7.3997915e-07
7.3760262e-07
7.3816416e-07
7.4180955e-07
7.5072695e-07
7.6282544e-07
7.7233044e-07
7.7777438e-07
7.8472377e-07
7.8783469e-07
7.9246632e-07
8.0145243e-07
8.1089852e-07
8.232769e-07
8.5524106e-07
8.895595e-07
9.4492115e-07
1.055847e-06
1.1510075e-06
1.2531676e-06
1.4687316e-06
1.7599761e-06
1.9994493e-06
2.3595206e-06
2.840804e-06
3.1316269e-06
3.5195759e-06
4.0062797e-06
5.2017335e-06
6.2685393e-06
7.8968455e-06
8.8515775e-06
1.0430525e-05
5.0605388e-06
3.9701891e-06
2.8089571e-06
2.2782237e-06
1.9499692e-06
1.7292497e-06
1.5927384e-06
1.4959612e-06
1.4005302e-06
1.2970674e-06
1.1989654e-06
1.11427e-06
1.039388e-06
9.8560746e-07
9.5082055e-07
9.2031767e-07
8.9274818e-07
8.6735181e-07
8.3751924e-07
8.0579523e-07
7.7702837e-07
7.5404526e-07
7.4258781e-07
7.4027002e-07
7.4102179e-07
7.438657e-07
7.508276e-07
7.6237925e-07
7.7169096e-07
7.7860516e-07
7.8662567e-07
7.9140989e-07
7.9864737e-07
8.0980917e-07
8.2097453e-07
8.3455816e-07
8.565099e-07
8.9450543e-07
9.6772071e-07
1.0432976e-06
1.1110706e-06
1.1997954e-06
1.3779648e-06
1.6670638e-06
2.0182171e-06
2.288164e-06
2.6277788e-06
2.852852e-06
3.1700479e-06
3.5787693e-06
4.5923625e-06
5.5438866e-06
7.0078068e-06
7.7175583e-06
8.8707005e-06
5.0735983e-06
3.9803298e-06
2.8132399e-06
2.287787e-06
1.959678e-06
1.7354353e-06
1.5972642e-06
1.4998885e-06
1.4069723e-06
1.3099151e-06
1.2099864e-06
1.1223939e-06
1.0436753e-06
9.8970733e-07
9.5474032e-07
9.2411953e-07
8.9430132e-07
8.6830742e-07
8.3962443e-07
8.108092e-07
7.8390488e-07
7.6272311e-07
7.4983278e-07
7.4723906e-07
7.4821193e-07
7.5056605e-07
7.5376077e-07
7.6173498e-07
7.6993455e-07
7.7872939e-07
7.874494e-07
7.9288839e-07
8.0239299e-07
8.1421647e-07
8.2698497e-07
8.401065e-07
8.6802317e-07
8.9867989e-07
9.6178853e-07
1.0264534e-06
1.1094202e-06
1.189835e-06
1.351569e-06
1.5995898e-06
1.9865805e-06
2.2872038e-06
2.6548721e-06
2.8998346e-06
3.2501334e-06
3.6318569e-06
4.5013652e-06
5.5647814e-06
6.7074945e-06
7.575479e-06
8.5550694e-06
5.0801736e-06
3.9892717e-06
2.8199365e-06
2.3000813e-06
1.9684376e-06
1.738327e-06
1.5979442e-06
1.5110858e-06
1.4169472e-06
1.3263267e-06
1.2204831e-06
1.1287659e-06
1.0565285e-06
1.0017984e-06
9.6493929e-07
9.3634085e-07
9.0560073e-07
8.7886419e-07
8.550857e-07
8.2604982e-07
7.9527759e-07
7.6879808e-07
7.5330838e-07
7.4949774e-07
7.5023294e-07
7.5242535e-07
7.5495021e-07
7.6112854e-07
7.6921874e-07
7.797757e-07
7.8978149e-07
7.9610862e-07
8.0657142e-07
8.18543e-07
8.3250471e-07
8.453059e-07
8.7400153e-07
9.001434e-07
9.5504512e-07
1.0009573e-06
1.0998172e-06
1.17951e-06
1.3490653e-06
1.5529683e-06
1.9074413e-06
2.1814458e-06
2.6358368e-06
2.9420641e-06
3.4081844e-06
3.7448618e-06
4.3757456e-06
5.5283181e-06
6.4276875e-06
7.3800566e-06
8.4761858e-06
5.0817624e-06
3.9979979e-06
2.8293963e-06
2.3070819e-06
1.9729476e-06
1.7410519e-06
1.5985392e-06
1.5156846e-06
1.4206423e-06
1.3314808e-06
1.2231934e-06
1.1315416e-06
1.0609751e-06
1.0051848e-06
9.6765854e-07
9.3919398e-07
9.1066504e-07
8.8295833e-07
8.6051275e-07
8.3110424e-07
7.9835492e-07
7.6971096e-07
7.5316243e-07
7.482894e-07
7.4818434e-07
7.4993288e-07
7.5315834e-07
7.593424e-07
7.6782842e-07
7.7992978e-07
7.9130042e-07
7.9919956e-07
8.1077879e-07
8.2329127e-07
8.3835167e-07
8.5052608e-07
8.7678715e-07
8.9989463e-07
9.4849894e-07
9.8907612e-07
1.0754407e-06
1.1490269e-06
1.3276224e-06
1.4941447e-06
1.8349672e-06
2.1189482e-06
2.4537141e-06
2.8866385e-06
3.3658341e-06
3.695608e-06
4.2761459e-06
5.3140756e-06
6.0359309e-06
6.8414548e-06
7.901951e-06
5.0809414e-06
4.0055691e-06
2.8381249e-06
2.3093088e-06
1.975475e-06
1.7458269e-06
1.6005437e-06
1.5139384e-06
1.4201331e-06
1.3291623e-06
1.2225001e-06
1.1309874e-06
1.0616164e-06
1.003169e-06
9.6308193e-07
9.3424076e-07
9.0818069e-07
8.807094e-07
8.5736218e-07
8.3106781e-07
7.9743077e-07
7.671617e-07
7.4833873e-07
7.4114085e-07
7.3981893e-07
7.4100736e-07
7.4467321e-07
7.52521e-07
7.6218061e-07
7.7611264e-07
7.8884542e-07
7.9827728e-07
8.1041484e-07
8.2212894e-07
8.3672557e-07
8.4905185e-07
8.728477e-07
8.9379319e-07
9.3569873e-07
9.8264562e-07
1.034787e-06
1.1043353e-06
1.2651829e-06
1.4202212e-06
1.7380876e-06
2.0556805e-06
2.242898e-06
2.5758307e-06
3.1547917e-06
3.49807e-06
4.1138227e-06
4.6913122e-06
5.5840324e-06
6.0920683e-06
6.9016139e-06
5.0818805e-06
4.0137219e-06
2.8445656e-06
2.3108916e-06
1.9791408e-06
1.7514646e-06
1.6047206e-06
1.5116656e-06
1.4197766e-06
1.3257751e-06
1.2233948e-06
1.1319808e-06
1.058944e-06
9.9968877e-07
9.5803461e-07
9.2675431e-07
8.9993921e-07
8.7403945e-07
8.4795209e-07
8.2318614e-07
7.9280371e-07
7.6498653e-07
7.4686444e-07
7.3852099e-07
7.3674697e-07
7.3760695e-07
7.4039789e-07
7.4769531e-07
7.5823843e-07
7.7165687e-07
7.8346648e-07
7.9214689e-07
8.0371559e-07
8.1453138e-07
8.2764378e-07
8.4004503e-07
8.6244906e-07
8.8120199e-07
9.1576291e-07
9.7077751e-07
1.0147221e-06
1.0940639e-06
1.201045e-06
1.3202787e-06
1.5974699e-06
1.9333755e-06
2.1097654e-06
2.3232457e-06
2.811027e-06
3.1041501e-06
3.6610865e-06
4.0586847e-06
4.8159626e-06
5.3305606e-06
5.9176737e-06
5.0830924e-06
4.0208397e-06
2.8488324e-06
2.3158436e-06
1.9863561e-06
1.7570483e-06
1.6093294e-06
1.5143974e-06
1.4240629e-06
1.3296705e-06
1.2313319e-06
1.1387654e-06
1.0603044e-06
1.0013651e-06
9.5945393e-07
9.2678713e-07
8.9955909e-07
8.7404739e-07
8.4740325e-07
8.2160634e-07
7.943155e-07
7.6867783e-07
7.4989794e-07
7.4017672e-07
7.3747403e-07
7.3803451e-07
7.4008768e-07
7.4612599e-07
7.5709688e-07
7.7023222e-07
7.807359e-07
7.8773312e-07
7.9629782e-07
8.0455174e-07
8.1296121e-07
8.234683e-07
8.4357315e-07
8.6279575e-07
8.8999648e-07
9.5217589e-07
9.9858234e-07
1.0705811e-06
1.181118e-06
1.2660714e-06
1.4529481e-06
1.7568107e-06
1.9677765e-06
2.1891906e-06
2.5328535e-06
2.7551656e-06
3.2535746e-06
3.7075321e-06
4.3215334e-06
4.7263697e-06
5.0706079e-06
5.0853671e-06
4.0286843e-06
2.8531175e-06
2.3253582e-06
1.9970726e-06
1.7628457e-06
1.6135042e-06
1.5242e-06
1.4345535e-06
1.3445561e-06
1.248514e-06
1.1528836e-06
1.0705563e-06
1.0131838e-06
9.7080992e-07
9.3770376e-07
9.1210774e-07
8.8526562e-07
8.5965937e-07
8.3347885e-07
8.0784289e-07
7.8334032e-07
7.6217237e-07
7.4968561e-07
7.4470659e-07
7.4455233e-07
7.4607781e-07
7.5068036e-07
7.6000196e-07
7.720645e-07
7.8168609e-07
7.8808947e-07
7.9521772e-07
8.0221227e-07
8.0828667e-07
8.1741635e-07
8.3268518e-07
8.5425286e-07
8.7439242e-07
9.2570853e-07
9.9472891e-07
1.0416229e-06
1.1397114e-06
1.2667495e-06
1.3758551e-06
1.5801523e-06
1.8756171e-06
2.1184565e-06
2.3372161e-06
2.5444335e-06
3.0220896e-06
3.5226363e-06
4.0598868e-06
4.3693268e-06
4.6333037e-06
5.0834756e-06
4.0334463e-06
2.8583164e-06
2.3346015e-06
2.0063437e-06
1.7680186e-06
1.615644e-06
1.5350808e-06
1.447236e-06
1.3600942e-06
1.2620758e-06
1.1637839e-06
1.0844442e-06
1.0251978e-06
9.8156945e-07
9.5113602e-07
9.2571941e-07
8.98163e-07
8.7563914e-07
8.5282819e-07
8.2641719e-07
7.9916814e-07
7.7492123e-07
7.5962627e-07
7.5312415e-07
7.5260501e-07
7.5401844e-07
7.57622e-07
7.640662e-07
7.7545317e-07
7.8633821e-07
7.9418851e-07
8.0215439e-07
8.0954146e-07
8.1515772e-07
8.2391882e-07
8.3734038e-07
8.595278e-07
8.7952769e-07
9.1586022e-07
9.9251742e-07
1.0460259e-06
1.1030916e-06
1.2411244e-06
1.3751056e-06
1.4910613e-06
1.7227142e-06
2.0050734e-06
2.1949851e-06
2.3620516e-06
2.7636338e-06
3.2414862e-06
3.7748604e-06
4.0768505e-06
4.3793588e-06
5.083017e-06
4.0403191e-06
2.8650369e-06
2.3408878e-06
2.0119791e-06
1.7718048e-06
1.616902e-06
1.5386752e-06
1.4521571e-06
1.3653288e-06
1.2653427e-06
1.1661557e-06
1.0883082e-06
1.0277459e-06
9.8415683e-07
9.545172e-07
9.286357e-07
9.0272648e-07
8.8207371e-07
8.6117746e-07
8.362357e-07
8.079516e-07
7.8510042e-07
7.7120794e-07
7.6581532e-07
7.6624274e-07
7.6780808e-07
7.7161263e-07
7.77264e-07
7.907604e-07
8.0933361e-07
8.2414853e-07
8.4093131e-07
8.5397243e-07
8.6519002e-07
8.7752166e-07
8.9332649e-07
9.2082432e-07
9.4285233e-07
9.7330302e-07
1.0444539e-06
1.1068882e-06
1.1541515e-06
1.2652001e-06
1.4212482e-06
1.5193535e-06
1.6736575e-06
1.9532868e-06
2.1685572e-06
2.3119978e-06
2.6282349e-06
3.0625241e-06
3.5805319e-06
3.8956885e-06
4.1970856e-06
5.0746776e-06
4.0424149e-06
2.8696542e-06
2.3431664e-06
2.01327e-06
1.7735956e-06
1.6159893e-06
1.5339476e-06
1.4463832e-06
1.3605528e-06
1.2616982e-06
1.1632192e-06
1.0861366e-06
1.0267035e-06
9.8545885e-07
9.5653296e-07
9.3094586e-07
9.1096226e-07
8.9528193e-07
8.7751357e-07
8.5969918e-07
8.3762249e-07
8.2470952e-07
8.2287847e-07
8.250615e-07
8.3063367e-07
8.4011221e-07
8.4901479e-07
8.6383158e-07
8.8553569e-07
9.2364918e-07
9.5689089e-07
1.0079135e-06
1.0409672e-06
1.0745469e-06
1.1048039e-06
1.1403737e-06
1.1949462e-06
1.2286527e-06
1.2611189e-06
1.3365934e-06
1.4230957e-06
1.4755943e-06
1.5860988e-06
1.7365507e-06
1.8350963e-06
1.9595715e-06
2.2082706e-06
2.43257e-06
2.5599197e-06
2.8077084e-06
3.2244025e-06
3.656248e-06
3.9612081e-06
4.2490908e-06
5.0744184e-06
4.0488744e-06
2.8732878e-06
2.3419307e-06
2.0105696e-06
1.7708505e-06
1.610253e-06
1.5193394e-06
1.4319929e-06
1.3528413e-06
1.2616912e-06
1.1726606e-06
1.1029164e-06
1.0530166e-06
1.0259279e-06
1.0087515e-06
9.9478829e-07
9.9350722e-07
9.9862424e-07
1.0033015e-06
1.0115047e-06
1.0176878e-06
1.035061e-06
1.0584214e-06
1.11092e-06
1.1443867e-06
1.1958154e-06
1.2270277e-06
1.2796112e-06
1.3322466e-06
1.4177453e-06
1.502227e-06
1.6525995e-06
1.7586239e-06
1.845963e-06
1.9485549e-06
2.0524195e-06
2.1883955e-06
2.2571405e-06
2.3365407e-06
2.4240212e-06
2.6064548e-06
2.7222866e-06
2.8896958e-06
3.0074917e-06
3.19077e-06
3.3395981e-06
3.5960006e-06
3.8214647e-06
4.0129269e-06
4.1516036e-06
4.5162573e-06
4.7526357e-06
5.218943e-06
5.2713417e-06
5.0482797e-06
4.0337169e-06
2.863459e-06
2.3305665e-06
2.000381e-06
1.7607088e-06
1.6062782e-06
1.5134927e-06
1.4391329e-06
1.3838882e-06
1.3293313e-06
1.2847036e-06
1.2599492e-06
1.2638418e-06
1.2827799e-06
1.3226592e-06
1.3644356e-06
1.4114981e-06
1.5218762e-06
1.5937229e-06
1.6893683e-06
1.7498097e-06
1.8876451e-06
1.9997841e-06
2.1973476e-06
2.3219415e-06
2.5181911e-06
2.6418548e-06
2.8203022e-06
2.9890558e-06
3.1896693e-06
3.3771245e-06
3.76277e-06
4.1012161e-06
4.3296959e-06
4.620046e-06
4.9097576e-06
5.257026e-06
5.4542246e-06
5.637159e-06
5.8091545e-06
6.1537983e-06
6.4630542e-06
6.7445988e-06
6.8751148e-06
7.176575e-06
7.4404131e-06
7.8546226e-06
8.1425424e-06
8.4715943e-06
8.5711032e-06
8.8599614e-06
9.0486405e-06
9.4890508e-06
9.3577213e-06
4.9948343e-06
3.9807935e-06
2.8378926e-06
2.3282575e-06
2.0156327e-06
1.8091584e-06
1.6997415e-06
1.6331752e-06
1.6363545e-06
1.6748899e-06
1.7716622e-06
1.8901328e-06
2.0646026e-06
2.2117922e-06
2.4395249e-06
2.6429882e-06
2.8441153e-06
3.0253329e-06
3.4124561e-06
3.6527061e-06
3.9810252e-06
4.1850415e-06
4.6118725e-06
4.9412937e-06
5.4253312e-06
5.7882386e-06
6.2986834e-06
6.7467995e-06
7.2207412e-06
7.6961429e-06
8.187334e-06
8.5613095e-06
9.2978498e-06
1.0136876e-05
1.0732904e-05
1.1327629e-05
1.2015483e-05
1.2703445e-05
1.3263765e-05
1.359031e-05
1.3977732e-05
1.4460629e-05
1.5114657e-05
1.5600339e-05
1.5908401e-05
1.6219835e-05
1.6696999e-05
1.7152545e-05
1.7661256e-05
1.811449e-05
1.8358299e-05
1.8632674e-05
1.8826592e-05
1.9335168e-05
1.9047938e-05
4.7296274e-06
3.8568132e-06
2.9736144e-06
2.604956e-06
2.4134391e-06
2.4246454e-06
2.4795814e-06
2.6005763e-06
2.8188343e-06
3.2665584e-06
3.8387581e-06
4.3862207e-06
5.0602145e-06
5.6370297e-06
6.2414142e-06
6.7645245e-06
7.2869424e-06
7.7037589e-06
8.4965139e-06
9.0163838e-06
9.718806e-06
1.0152009e-05
1.0957509e-05
1.1645399e-05
1.2472473e-05
1.3225169e-05
1.4130928e-05
1.5110238e-05
1.6060984e-05
1.7006992e-05
1.802898e-05
1.8818958e-05
1.9810338e-05
2.1162495e-05
2.2346601e-05
2.3370749e-05
2.448035e-05
2.5449746e-05
2.6469591e-05
2.7096072e-05
2.7768245e-05
2.8251983e-05
2.903597e-05
2.968826e-05
3.0327772e-05
3.0543975e-05
3.1027401e-05
3.1259181e-05
3.1862052e-05
3.2294712e-05
3.2825132e-05
3.3035161e-05
3.3193779e-05
3.3676575e-05
3.3426837e-05
5.5877771e-06
5.9698553e-06
5.8235506e-06
5.755273e-06
6.0131927e-06
6.6791371e-06
7.2074557e-06
7.8542379e-06
8.6059978e-06
9.7335375e-06
1.0975186e-05
1.202356e-05
1.3082355e-05
1.4051177e-05
1.4825779e-05
1.5518437e-05
1.6308356e-05
1.6968552e-05
1.7804224e-05
1.8468386e-05
1.9315848e-05
1.98688e-05
2.0621555e-05
2.1434637e-05
2.2241233e-05
2.3051574e-05
2.3969608e-05
2.4981075e-05
2.5959116e-05
2.6967038e-05
2.8072864e-05
2.9204179e-05
3.0127526e-05
3.1218924e-05
3.2470266e-05
3.3522796e-05
3.4404228e-05
3.5100144e-05
3.5967868e-05
3.6769811e-05
3.7577122e-05
3.8171049e-05
3.8644082e-05
3.9331116e-05
3.9978287e-05
4.0229252e-05
4.0187895e-05
4.005447e-05
4.0131435e-05
4.0411986e-05
4.0746796e-05
4.0871997e-05
4.0885448e-05
4.0695978e-05
4.0698769e-05
1.3739323e-05
2.755221e-05
2.8006848e-05
2.7504556e-05
2.7832965e-05
2.8265711e-05
2.8361864e-05
2.8275685e-05
2.8047832e-05
2.8075654e-05
2.8329364e-05
2.8346656e-05
2.8180589e-05
2.7636791e-05
2.6830333e-05
2.6229674e-05
2.5917443e-05
2.5694683e-05
2.5434384e-05
2.5294936e-05
2.5243174e-05
2.5286614e-05
2.5496509e-05
2.5808121e-05
2.5961288e-05
2.6113191e-05
2.6501326e-05
2.7076393e-05
2.7602685e-05
2.8014068e-05
2.8255743e-05
2.8642905e-05
2.9093788e-05
2.939519e-05
2.9855955e-05
3.0471338e-05
3.0847624e-05
3.0913808e-05
3.1033363e-05
3.129758e-05
3.1497856e-05
3.1646965e-05
3.1862352e-05
3.2210904e-05
3.2605798e-05
3.2715261e-05
3.2555774e-05
3.2355981e-05
3.2317908e-05
3.2574145e-05
3.292144e-05
3.3227496e-05
3.3236835e-05
3.2944684e-05
3.3020968e-05
4.9724426e-05
9.6134986e-05
9.6108266e-05
9.1923219e-05
8.2906233e-05
7.4995257e-05
6.9730846e-05
6.4802469e-05
5.977228e-05
5.5593894e-05
5.2126996e-05
4.9130247e-05
4.6943191e-05
4.53827e-05
4.4485863e-05
4.3709992e-05
4.270434e-05
4.1679751e-05
4.0352025e-05
3.9069673e-05
3.7592545e-05
3.5979393e-05
3.4457369e-05
3.2954732e-05
3.153054e-05
3.020904e-05
2.9108737e-05
2.8231432e-05
2.7676764e-05
2.7152893e-05
2.6645859e-05
2.6031278e-05
2.5425924e-05
2.4842387e-05
2.4325468e-05
2.3910199e-05
2.3512785e-05
2.2865316e-05
2.2036775e-05
2.1517114e-05
2.1286973e-05
2.0895157e-05
2.0171676e-05
1.9376188e-05
1.8917911e-05
1.8700099e-05
1.8346783e-05
1.7645646e-05
1.6645904e-05
1.5743611e-05
1.507854e-05
1.4640571e-05
1.4460536e-05
1.4083171e-05
1.3772386e-05
1.2786319e-05
3.22286e-05
4.1103011e-05
3.5011066e-05
2.0642804e-05
1.0529043e-05
6.0115802e-06
4.884841e-06
4.8074671e-06
4.9887331e-06
5.1903555e-06
5.5481778e-06
6.4656969e-06
7.5990485e-06
8.6339266e-06
9.242124e-06
9.3744538e-06
9.7166388e-06
1.1670911e-05
1.4078496e-05
1.4819794e-05
1.5594341e-05
2.140547e-05
3.157466e-05
3.2681492e-05
3.288091e-05
3.1542843e-05
1.175061e-05
3.1330028e-05
4.1934634e-05
3.6659038e-05
2.2497582e-05
1.1833197e-05
7.1032949e-06
5.8759863e-06
5.7653769e-06
5.8521096e-06
5.9897513e-06
6.3140676e-06
7.1731326e-06
8.7014141e-06
1.013126e-05
1.0338468e-05
9.9949544e-06
1.0222963e-05
1.2187319e-05
1.5930916e-05
1.8198283e-05
1.8816956e-05
2.3780275e-05
3.5871002e-05
3.8287028e-05
3.8594264e-05
3.8744644e-05
1.1069589e-05
3.0602943e-05
4.2676897e-05
3.7964934e-05
2.4177146e-05
1.3229885e-05
8.3306898e-06
6.7747059e-06
6.4822723e-06
6.5066927e-06
6.5717813e-06
6.8887528e-06
7.8032226e-06
9.6362487e-06
1.1601256e-05
1.2333301e-05
1.1299379e-05
1.1052458e-05
1.2908383e-05
1.7276451e-05
2.0567609e-05
2.1046385e-05
2.5492685e-05
3.9573612e-05
4.3898846e-05
4.4445073e-05
4.7262943e-05
1.0829747e-05
2.89657e-05
4.2474695e-05
3.862908e-05
2.5820139e-05
1.4857234e-05
9.6932254e-06
7.8746275e-06
7.3980453e-06
7.2667742e-06
7.2700485e-06
7.6171138e-06
8.8072149e-06
1.076959e-05
1.2798453e-05
1.3869508e-05
1.3707558e-05
1.3227759e-05
1.4735783e-05
1.936255e-05
2.2948325e-05
2.3216303e-05
2.6901261e-05
4.3554211e-05
5.1500732e-05
5.1404195e-05
5.7421198e-05
1.0775396e-05
2.6335376e-05
4.1486496e-05
3.8917897e-05
2.7682447e-05
1.6597518e-05
1.1187886e-05
9.2855735e-06
8.9096107e-06
8.7796443e-06
8.6491336e-06
9.0014355e-06
1.0419368e-05
1.2822301e-05
1.4942286e-05
1.6290757e-05
1.7358017e-05
1.7066033e-05
1.8980691e-05
2.4395325e-05
2.8166549e-05
2.7784547e-05
3.0184419e-05
4.8238279e-05
6.0950988e-05
5.9093826e-05
6.76083e-05
1.0058946e-05
2.3844294e-05
4.0296291e-05
3.8995533e-05
2.9452168e-05
1.8315311e-05
1.2849905e-05
1.087824e-05
1.0397654e-05
1.0213485e-05
1.0064118e-05
1.0379783e-05
1.1912852e-05
1.4995955e-05
1.8168082e-05
2.0608151e-05
2.1792091e-05
2.1628903e-05
2.3962236e-05
3.1039179e-05
3.5917549e-05
3.5144972e-05
3.6249585e-05
5.5481639e-05
6.9469165e-05
6.590288e-05
7.5077529e-05
9.0373128e-06
2.1895017e-05
3.9489173e-05
3.9340864e-05
3.1301833e-05
2.0518852e-05
1.5152717e-05
1.2991199e-05
1.2157137e-05
1.1565619e-05
1.1053429e-05
1.1236007e-05
1.2778965e-05
1.627896e-05
2.0669328e-05
2.429455e-05
2.5454987e-05
2.4778417e-05
2.7206639e-05
3.6014181e-05
4.3024592e-05
4.3545112e-05
4.3692178e-05
6.1078522e-05
8.2061031e-05
7.6639989e-05
8.4607424e-05
8.4018448e-06
2.0167661e-05
3.8709429e-05
3.95728e-05
3.314226e-05
2.3120294e-05
1.7815172e-05
1.528385e-05
1.4006895e-05
1.3039996e-05
1.2214136e-05
1.2190426e-05
1.3698829e-05
1.7645486e-05
2.2612005e-05
2.757514e-05
2.9313779e-05
2.7327772e-05
2.8828791e-05
3.7950728e-05
4.715137e-05
4.9431309e-05
4.8985698e-05
6.5944372e-05
9.9514947e-05
9.274057e-05
9.6766201e-05
8.3555633e-06
1.8355771e-05
3.7607671e-05
3.9609318e-05
3.5032886e-05
2.6052037e-05
2.0512448e-05
1.7583956e-05
1.6067601e-05
1.496703e-05
1.4116234e-05
1.4071264e-05
1.5774828e-05
2.0401045e-05
2.6336756e-05
3.2658135e-05
3.476101e-05
3.1418796e-05
3.1171345e-05
4.0076198e-05
5.2461633e-05
5.567425e-05
5.3902931e-05
7.0600996e-05
0.00011483412
0.00011346606
0.00011296838
8.8949985e-06
1.6229542e-05
3.5576966e-05
3.9190895e-05
3.6373658e-05
2.8722428e-05
2.3024209e-05
2.0330998e-05
1.9163183e-05
1.8183729e-05
1.7176673e-05
1.7030162e-05
1.8900811e-05
2.4179444e-05
3.1722606e-05
3.852704e-05
4.0529914e-05
3.6693901e-05
3.5904142e-05
4.5698454e-05
6.290968e-05
6.6551645e-05
6.25235e-05
7.6903086e-05
0.0001273312
0.00013730103
0.00013402822
9.152964e-06
1.4114968e-05
3.300254e-05
3.8552878e-05
3.7244612e-05
3.1587039e-05
2.6753381e-05
2.4425253e-05
2.3273977e-05
2.1900938e-05
2.0441155e-05
2.001611e-05
2.1968646e-05
2.7717141e-05
3.6779866e-05
4.3687041e-05
4.5772619e-05
4.3126285e-05
4.3519779e-05
5.9981233e-05
8.2297577e-05
8.4830754e-05
7.6370189e-05
8.6228682e-05
0.00014280323
0.00016183475
0.00015187568
8.6186464e-06
1.2403563e-05
3.077776e-05
3.8189131e-05
3.8203139e-05
3.5134821e-05
3.0514681e-05
2.8027807e-05
2.6391765e-05
2.4661624e-05
2.2838775e-05
2.203788e-05
2.3890299e-05
2.9777199e-05
4.0152039e-05
4.8487397e-05
5.1944072e-05
5.1248198e-05
5.2407951e-05
7.3792585e-05
0.00010831316
0.00011410818
0.00010027056
0.00010115864
0.00016102115
0.00019301607
0.0001705948
8.3152861e-06
1.1252518e-05
2.9342595e-05
3.8331653e-05
3.9539082e-05
3.7983934e-05
3.3973947e-05
3.1557547e-05
2.9886977e-05
2.8037416e-05
2.5851212e-05
2.477778e-05
2.6577013e-05
3.2817146e-05
4.5411913e-05
5.7471724e-05
6.372799e-05
6.3468549e-05
6.3215523e-05
8.3591775e-05
0.0001318498
0.00014520415
0.00013164581
0.00012422282
0.00018439122
0.00022834822
0.00019819318
8.2367694e-06
1.0561637e-05
2.8346323e-05
3.85617e-05
4.0843706e-05
4.0339518e-05
3.8331065e-05
3.6145589e-05
3.4730145e-05
3.2771349e-05
3.0200537e-05
2.8895258e-05
3.0766998e-05
3.7772943e-05
5.2625354e-05
6.815061e-05
7.7491805e-05
7.7652653e-05
7.4860086e-05
9.1704554e-05
0.00014582256
0.00016882367
0.00015946467
0.00014952953
0.00020796995
0.00027004988
0.00023374861
8.6031152e-06
9.8769711e-06
2.6693904e-05
3.8394896e-05
4.2174488e-05
4.2926826e-05
4.2440362e-05
4.106115e-05
3.931344e-05
3.7120896e-05
3.4750033e-05
3.363499e-05
3.5932804e-05
4.4098425e-05
6.0214538e-05
7.8727079e-05
8.9104373e-05
8.8895658e-05
8.4222434e-05
9.8437258e-05
0.00015693916
0.00019632151
0.0001950856
0.00017557783
0.00021842687
0.0003166666
0.00028568887
9.3162868e-06
8.9786623e-06
2.3960612e-05
3.7577684e-05
4.3303113e-05
4.5284533e-05
4.5749757e-05
4.5435995e-05
4.4482132e-05
4.2612349e-05
4.0625649e-05
3.9690566e-05
4.2334231e-05
5.1753332e-05
7.0172241e-05
9.2829592e-05
0.00010481871
0.00010405461
9.6102629e-05
0.00010799808
0.00017197982
0.00023474511
0.0002421897
0.00020952584
0.00022641778
0.00034800508
0.00034347856
9.3275734e-06
8.0775955e-06
2.0800039e-05
3.61942e-05
4.3639503e-05
4.6938717e-05
4.8767149e-05
4.9869659e-05
5.0284574e-05
4.9642957e-05
4.7323227e-05
4.6153891e-05
4.8822524e-05
5.9510067e-05
8.2448672e-05
0.00011085085
0.00012452925
0.00012301796
0.00011297745
0.00012294675
0.00018945406
0.00027642221
0.00029239547
0.00025255369
0.00024605886
0.00036450689
0.00039145126
9.1956173e-06
7.3172415e-06
1.7794034e-05
3.4563899e-05
4.4159911e-05
4.9374053e-05
5.3164112e-05
5.5569135e-05
5.6732288e-05
5.6358663e-05
5.3353971e-05
5.1493749e-05
5.3892432e-05
6.5396189e-05
9.1109248e-05
0.00012429915
0.00014255631
0.0001437741
0.00013499289
0.00014295289
0.00020614568
0.00031231611
0.0003427302
0.00030512608
0.00027845632
0.00037865095
0.00043892575
1.0348611e-05
6.820188e-06
1.5561911e-05
3.3505836e-05
4.5363384e-05
5.2703632e-05
5.8422481e-05
6.1640057e-05
6.2956944e-05
6.2334154e-05
5.9436103e-05
5.7820203e-05
6.0219816e-05
7.1554949e-05
9.7131468e-05
0.00013386315
0.0001585548
0.00016559107
0.00016103105
0.00016762774
0.00022456992
0.00034654666
0.00039991947
0.00037109145
0.00032733888
0.00040041799
0.00050402001
1.1893612e-05
6.5486677e-06
1.4590824e-05
3.3589951e-05
4.7588273e-05
5.6233505e-05
6.2635712e-05
6.631927e-05
6.7764186e-05
6.7645265e-05
6.5972709e-05
6.4645698e-05
6.6616154e-05
7.6816572e-05
0.0001016892
0.00014180662
0.00017473041
0.00018952105
0.00018883861
0.00019295854
0.00024500199
0.00038307631
0.00046192823
0.0004467507
0.00039159853
0.00043922338
0.00059019777
1.2577815e-05
6.5918774e-06
1.468427e-05
3.4293648e-05
4.9813662e-05
5.9261816e-05
6.5805133e-05
7.1062263e-05
7.371468e-05
7.4314982e-05
7.325762e-05
7.1931648e-05
7.3538976e-05
8.3276658e-05
0.00010942386
0.00015498943
0.00019601819
0.00021620932
0.00021604379
0.00021717523
0.00026466058
0.0004117252
0.00051778223
0.00052048096
0.00047237299
0.00050464634
0.00067685646
1.2848075e-05
6.6334662e-06
1.4560718e-05
3.4089007e-05
5.1117788e-05
6.1755226e-05
6.9710288e-05
7.6904656e-05
8.1043612e-05
8.2241296e-05
8.1565414e-05
8.0391989e-05
8.2026303e-05
9.2363996e-05
0.00012115423
0.00017271082
0.00021964768
0.00024108443
0.00024189261
0.00024237879
0.00028447753
0.00042810805
0.00055836311
0.00059438563
0.00056883805
0.00059253201
0.00075811573
1.3281022e-05
6.4434006e-06
1.3302148e-05
3.1598702e-05
5.01088e-05
6.279188e-05
7.2970127e-05
8.1938426e-05
8.8264004e-05
9.1004805e-05
9.1568932e-05
9.1557141e-05
9.4367218e-05
0.00010693933
0.00013926149
0.00019221391
0.00024034001