/*--------------------------------*- C++ -*----------------------------------*\
| =========                 |                                                 |
| \\      /  F ield         | OpenFOAM: The Open Source CFD Toolbox           |
|  \\    /   O peration     | Version:  2406                                  |
|   \\  /    A nd           | Website:  www.openfoam.com                      |
|    \\/     M anipulation  |                                                 |
\*---------------------------------------------------------------------------*/
FoamFile
{
    version     2.0;
    format      ascii;
    arch        "LSB;label=32;scalar=64";
    class       volScalarField;
    location    "31";
    object      p;
}
// * * * * * * * * * * * * * * * * * * * * * * * * * * * * * * * * * * * * * //

dimensions      [1 -1 -2 0 0 0 0];

internalField   nonuniform List<scalar> 
62344
(
1.0063795
1.0036896
0.99724584
0.99237584
0.98953505
0.98708936
0.98411307
0.98113529
0.98042319
0.97968671
0.97954308
0.98148364
0.98379989
0.98609261
0.9873499
0.98804031
0.98467012
0.98571912
0.98522304
0.98708887
0.98695042
0.99001084
0.99097351
0.99436149
0.9947689
0.99609494
0.99790036
1.0025466
1.0028515
1.0045698
1.0042395
1.0097467
1.0028709
1.0062535
1.0124225
1.0029086
0.99674159
1.0077457
1.0182711
1.0161748
1.0016781
0.99707332
1.0089764
1.0262435
1.0302856
1.0116118
0.98719135
0.98327304
1.0009857
1.019396
1.0208884
1.0118462
0.99720006
0.9861303
0.9868291
1.0064145
1.0036761
0.9969238
0.99205583
0.98905558
0.98689764
0.98366882
0.98048223
0.9795774
0.97932339
0.97913993
0.98093532
0.98325714
0.98591248
0.98711563
0.98710343
0.98436935
0.98705222
0.98430522
0.98482072
0.98620589
0.9889514
0.99058267
0.99384635
0.99445677
0.99580774
0.99831976
1.0023022
1.0032836
1.0043813
1.0041328
1.008828
1.0018231
1.0046711
1.0095928
1.00281
1.0015457
1.0094118
1.012777
1.0054974
1.0024498
1.0072072
1.0124063
1.0185196
1.017843
1.0081163
0.99326046
0.98869543
1.0025873
1.0247152
1.0326112
1.0146883
0.98855536
0.96557816
0.95878239
1.0061232
1.0032502
0.99661621
0.99194331
0.98907574
0.98634955
0.98323592
0.98006971
0.97902648
0.97876442
0.97834821
0.98030168
0.98325868
0.98559824
0.98746095
0.98636811
0.98428991
0.98720364
0.98548533
0.9848646
0.986917
0.9877949
0.9897031
0.99335619
0.99402562
0.99567511
0.9982415
1.0022102
1.003839
1.0041737
1.005112
1.0083275
1.0014206
1.0055159
1.0109011
1.0031599
1.0006151
1.0108987
1.0099982
0.99876299
1.0005856
1.0141356
1.0178817
1.0098736
1.0025923
1.0016757
1.0053481
1.0067921
1.0091602
1.013945
1.0162953
1.0074913
0.98979463
0.97274981
0.96229933
1.0057231
1.0028023
0.99665497
0.99226214
0.9894183
0.98595683
0.98300918
0.97987126
0.97917843
0.97816832
0.97783237
0.98013746
0.98259333
0.98516764
0.98727615
0.9859943
0.98500737
0.98551442
0.98524677
0.98448453
0.98725827
0.9875627
0.98853732
0.99313239
0.99358623
0.9956844
0.99795461
1.0009226
1.0039544
1.0030209
1.0057422
1.0072135
1.0011129
1.0065333
1.0108839
1.0032662
1.0006506
1.0096425
1.008416
0.99528143
0.99825252
1.0160167
1.0227181
1.0076807
0.99231578
0.99346347
1.0110951
1.024706
1.0216051
1.0067332
0.99140708
0.9848598
0.98630527
0.98775677
0.99008094
1.0055032
1.0027036
0.99678307
0.99249737
0.98952796
0.98597715
0.98322407
0.98014044
0.97918566
0.97794959
0.97799962
0.97989758
0.98199247
0.98536006
0.98663603
0.98528785
0.98588178
0.98498646
0.98521271
0.9840921
0.9861041
0.98760686
0.98804527
0.99262514
0.99319486
0.99575326
0.9980851
0.99992509
1.0037452
1.0021261
1.0063893
1.0057294
1.0005258
1.0071624
1.0109306
1.0039045
1.0009135
1.0059864
1.0052257
0.99635208
0.99899051
1.0129108
1.0217609
1.0095815
0.99101373
0.99021198
1.0082492
1.0289919
1.029417
1.0083234
0.98241355
0.96945761
0.97377534
0.98964861
1.005982
1.0055486
1.0028711
0.996852
0.99231148
0.98920692
0.98648175
0.98361194
0.98042731
0.97885382
0.97794209
0.97809445
0.97922738
0.98178584
0.98533801
0.98600536
0.98515073
0.98565326
0.98516584
0.98513733
0.98452403
0.98434495
0.98695765
0.98833967
0.99166153
0.99259932
0.99597304
0.99815585
0.99991785
1.0034665
1.0012744
1.0069262
1.0043912
1.000316
1.0077652
1.0102388
1.0042192
1.002296
1.0025282
0.99948686
0.99931456
1.0024861
1.0094845
1.0142812
1.0087544
0.99677792
0.99571384
1.0065469
1.0194545
1.0242935
1.0093884
0.98897354
0.9728274
0.97208255
0.98522971
1.005712
1.0057338
1.0031
0.99676921
0.99186161
0.98886417
0.98714243
0.98367674
0.98027357
0.97842278
0.97776725
0.97756122
0.97884473
0.98190423
0.98502026
0.98572449
0.98565344
0.98464943
0.98499063
0.98440374
0.98505675
0.98367983
0.98594571
0.98861049
0.99071044
0.99191064
0.99587782
0.997812
1.0001771
1.0032733
1.000687
1.0069366
1.0030264
1.0006749
1.008618
1.0090212
1.0040581
1.0047289
1.0018316
0.9946724
0.99879933
1.0074161
1.0086437
1.0049326
1.0019819
1.003312
1.0064288
1.0108687
1.0093641
1.007751
1.002034
0.99542648
0.98844039
0.98498614
0.99137751
1.0018498
1.0059562
1.003273
0.99655751
0.99153451
0.98887318
0.98745436
0.98338407
0.97987041
0.97840976
0.97779062
0.97690876
0.97896531
0.98174184
0.98479488
0.98568743
0.98590161
0.98388049
0.98502267
0.98347322
0.98479209
0.98437957
0.98538397
0.98804918
0.98991169
0.9914129
0.99544185
0.99701063
1.000039
1.0028438
1.0007817
1.0068082
1.0019309
1.0011766
1.0093738
1.0079482
1.0031413
1.0068555
1.0039129
0.99279702
0.99510603
1.0090875
1.0103206
0.99966238
0.99267865
1.0031969
1.0159544
1.0183762
1.0077647
0.99461593
0.98714667
0.99254761
0.99829131
1.0042903
1.0072873
1.0074443
1.0060658
1.0032815
0.99638369
0.99153771
0.98918454
0.98727638
0.98328945
0.97978273
0.97890697
0.97783832
0.97704293
0.97872751
0.98150643
0.98473906
0.9855747
0.98550695
0.98361621
0.98547829
0.98333358
0.9838779
0.98558339
0.98535835
0.98671238
0.98923201
0.99153122
0.99520232
0.99620614
0.99990545
1.002194
1.0012868
1.0068321
1.0011899
1.0016375
1.0097668
1.0071807
1.0020094
1.0077871
1.0069211
0.99402965
0.99208667
1.0060244
1.0117117
0.99887959
0.98807178
0.99714944
1.017341
1.0246252
1.0129843
0.99210962
0.9772396
0.98112644
0.99764386
1.0126504
1.0232432
1.0204312
1.0060573
1.0031007
0.99639994
0.99189084
0.98969321
0.98700878
0.9835645
0.98020675
0.97934085
0.97760952
0.97772455
0.97820236
0.98177954
0.98461193
0.9854357
0.98499309
0.98357494
0.98562183
0.98395556
0.98278986
0.98615921
0.98548935
0.98538896
0.98849674
0.9918799
0.99530414
0.99576625
0.99998776
1.0012101
1.0016901
1.0065677
1.0004693
1.0021451
1.00992
1.0064505
1.0012469
1.0074266
1.0089715
0.99678775
0.99195116
1.0011752
1.0095574
1.0005106
0.98925878
0.99344158
1.010523
1.0246705
1.0180578
0.99685104
0.9782162
0.97530843
0.9896086
1.0108943
1.0267441
1.0304599
1.0059248
1.0028934
0.99655564
0.99250095
0.99020511
0.98706112
0.98401573
0.98079548
0.97934704
0.9775895
0.97797621
0.97813495
0.98221376
0.9844281
0.98543028
0.98478422
0.98380327
0.98509113
0.9844348
0.98216258
0.98572279
0.98535288
0.98472868
0.98789806
0.99176618
0.99535045
0.99571434
1.000164
1.0001433
1.001858
1.0059072
0.99989381
1.0025748
1.0096634
1.005779
1.0011938
1.006414
1.0090201
0.99952504
0.99446118
0.9983342
1.0033402
1.0013499
0.99338825
0.99492944
1.003754
1.0163327
1.0167157
1.0024819
0.98678535
0.97963446
0.98672962
1.0024554
1.01953
1.027536
1.0057912
1.00284
0.9967974
0.99311642
0.99058129
0.98720876
0.98447797
0.98109545
0.9792722
0.97825958
0.9775591
0.97852014
0.9820301
0.98427667
0.98554662
0.98476842
0.98433339
0.98445713
0.98446135
0.98241554
0.98448106
0.98502174
0.98476222
0.98756192
0.99121125
0.99480039
0.99579899
1.0003701
0.99932269
1.0017969
1.0050043
0.99957747
1.0030452
1.0089755
1.0051085
1.0017951
1.0059671
1.0070949
1.0013289
0.99828218
0.99856405
0.99715906
0.99763269
0.99815096
0.99925502
1.0028891
1.0055488
1.0071151
1.0029465
0.99695857
0.99060173
0.99133053
0.99857524
1.0079702
1.0164348
1.0056999
1.002956
0.99715982
0.99361824
0.99090693
0.98761443
0.98485543
0.98113977
0.9794516
0.979048
0.97704612
0.97886847
0.98135802
0.9843613
0.98569746
0.98461566
0.98497765
0.98406868
0.98412365
0.98335759
0.98328472
0.98451398
0.98516048
0.98756027
0.99037862
0.99356499
0.99581331
1.0006749
0.99895765
1.0016604
1.0040349
0.99927642
1.0034599
1.0080318
1.0042232
1.0026572
1.0062659
1.0046061
1.0010732
1.0023911
1.0013321
0.99415667
0.99100846
0.99851751
1.0046632
1.0061279
1.0004908
0.99439428
0.99592842
1.0008762
1.0024464
1.0019879
1.0022547
1.0015697
1.0026641
1.0056643
1.0030988
0.9974536
0.99380076
0.99113401
0.98832709
0.98523883
0.98121406
0.97994194
0.97934941
0.97702633
0.97894198
0.98072294
0.98451981
0.98576519
0.98433395
0.98538666
0.98406662
0.98354197
0.98432853
0.9826599
0.98409686
0.98553155
0.98762794
0.989482
0.99229586
0.99562173
1.0009282
0.99905083
1.0016085
1.0031788
0.99921051
1.0037139
1.0070785
1.0031628
1.0032449
1.0072204
1.0027602
0.99919592
1.004786
1.0051967
0.99510411
0.98565476
0.99358735
1.0074179
1.010632
1.0011544
0.9871581
0.98476183
0.99641474
1.0077383
1.0143314
1.0116678
1.0039498
0.99483986
1.0056641
1.0032839
0.99759953
0.99369917
0.99125113
0.98903241
0.98558097
0.981599
0.98041367
0.97923265
0.97757184
0.97882031
0.98063924
0.98448293
0.98569679
0.9841993
0.98545138
0.98430534
0.9829357
0.98464388
0.98264437
0.98365263
0.98577351
0.98744037
0.98882158
0.99139285
0.99522118
1.000914
0.99927103
1.0017025
1.0024082
0.99940398
1.0040899
1.0063055
1.0020591
1.0034808
1.0084103
1.0021838
0.99693903
1.0048546
1.0092953
0.99857205
0.98407692
0.98696905
1.0050871
1.0142987
1.0047445
0.98734869
0.97644296
0.98675641
1.0053039
1.0203373
1.0228413
1.0117513
0.99608616
1.0056973
1.0034292
0.99765602
0.99346257
0.99130095
0.9896861
0.98584736
0.98222484
0.9807431
0.97889267
0.97834848
0.9787403
0.98099203
0.98429159
0.98551924
0.98440089
0.98514873
0.98449495
0.98245732
0.98421256
0.98301862
0.9835378
0.98567308
0.98707591
0.98843206
0.99087763
0.99491907
1.0005966
0.99944241
1.001821
1.0016823
0.99961374
1.0045166
1.0059457
1.0011786
1.0033323
1.0092033
1.002581
0.99546891
1.0033941
1.0119406
1.0026872
0.9859634
0.98264259
0.99928541
1.0141054
1.008933
0.99109929
0.97507771
0.97794959
0.99790018
1.0184597
1.0285563
1.0209739
1.0034017
1.0057276
1.0035413
0.99763901
0.99327591
0.99125498
0.99008866
0.98610264
0.98275019
0.98098697
0.97869498
0.97880861
0.97879767
0.98129068
0.98415631
0.98532083
0.9847883
0.98468609
0.98460071
0.98235337
0.9831651
0.98356922
0.98375366
0.98519789
0.98659132
0.98814323
0.99091476
0.99486235
0.99999253
0.99950691
1.0017017
1.0010397
0.99971703
1.0048132
1.0060158
1.0008239
1.0029333
1.0093613
1.0034576
0.99511057
1.0013967
1.0123515
1.0063129
0.98966936
0.98228405
0.99318231
1.0094799
1.0110305
0.99571243
0.97856687
0.97513809
0.98945002
1.0110305
1.0266204
1.0263839
1.0122406
1.005769
1.0036132
0.9976039
0.99324065
0.9912152
0.99018684
0.98631394
0.98312315
0.98114983
0.97876095
0.97884742
0.97889766
0.98122228
0.98414716
0.98530249
0.9851165
0.98424799
0.98470289
0.98264498
0.98203308
0.98409797
0.98411579
0.984582
0.98601612
0.98779056
0.99122931
0.99505445
0.99934469
0.99947896
1.0013253
1.0004519
0.99963925
1.0048664
1.0062962
1.0010342
1.0025862
1.0088415
1.0041883
0.99590016
0.99995285
1.0106217
1.0086368
0.99380095
0.98491678
0.99006405
1.002491
1.0092948
0.99928488
0.98410522
0.97738823
0.9845517
1.0014276
1.0189574
1.0254131
1.0180825
1.0058008
1.0036804
0.9975607
0.99333796
0.9912003
0.99009287
0.98650287
0.98330956
0.98123059
0.97907751
0.97858906
0.97901571
0.98089209
0.98423878
0.98539065
0.98526354
0.98391547
0.98487526
0.98319138
0.98127547
0.98450839
0.98450004
0.98388188
0.98537284
0.98733241
0.99150769
0.99525168
0.99879842
0.99944868
1.0008521
0.99999479
0.99942141
1.004618
1.0064801
1.0016307
1.0024723
1.0078232
1.0044637
0.99727914
0.99968275
1.0079077
1.0088486
0.99741031
0.9892947
0.99033937
0.99691209
1.0034408
1.0006021
0.98953614
0.98235695
0.98407491
0.9946583
1.0087891
1.0190443
1.0183473
1.0058384
1.0037431
0.99758758
0.99356787
0.99129277
0.9900045
0.98671423
0.98334564
0.98129674
0.9794851
0.97822486
0.97908713
0.98052102
0.98434131
0.98547058
0.98518711
0.98378026
0.98509039
0.9838458
0.9811275
0.9847078
0.98474008
0.9833792
0.98481906
0.9868669
0.9914984
0.9953141
0.99847313
0.99948375
1.0003258
0.99983235
0.99921607
1.0041234
1.0064219
1.0024473
1.0027464
1.0065548
1.0041588
0.99908948
1.0004343
1.0056785
1.0066829
0.99994127
0.99399206
0.99302334
0.99396554
0.99689229
0.99728609
0.99362538
0.98800961
0.98708129
0.99227422
1.0005933
1.0095296
1.013462
1.0058638
1.0037888
0.99766582
0.99383528
0.99151145
0.98997786
0.98688916
0.98328904
0.98134623
0.97984389
0.97795708
0.97906522
0.98031417
0.98439502
0.98551315
0.98495581
0.98383127
0.98523471
0.98419878
0.98141162
0.98451463
0.98476116
0.98311001
0.98451458
0.98632538
0.99121917
0.99508022
0.99813236
0.99965607
0.99988001
0.99967222
0.99902674
1.0034738
1.005982
1.0032829
1.00335
1.0052046
1.0030062
1.0006705
1.0021099
1.0042323
1.0033828
1.0005842
0.99855791
0.99738561
0.99404651
0.99123572
0.99092278
0.99412989
0.9933699
0.9922871
0.99377769
0.99647217
1.0003609
1.0051814
1.0059199
1.0037796
0.99776404
0.99405826
0.99175798
0.98998425
0.98699462
0.98312897
0.98143462
0.98012516
0.97795214
0.97898562
0.98039383
0.98437493
0.98557138
0.9846826
0.98405418
0.98521645
0.98417619
0.98200328
0.98409334
0.98467815
0.98310399
0.98473087
0.98588494
0.99064458
0.99458486
0.9978176
0.99998862
0.99955127
0.99989832
0.99908562
1.002783
1.0054817
1.004004
1.0041556
1.0041637
1.0015665
1.0015596
1.0042406
1.0040605
1.0000355
0.99903451
1.0020589
1.0019412
0.99684043
0.98765258
0.98435839
0.99048911
0.99661044
0.99804634
0.99783648
0.9961206
0.99340973
0.99618591
1.00593
1.0037451
0.99787254
0.99423094
0.99205392
0.98999342
0.9870561
0.98300003
0.98154444
0.9802678
0.97822796
0.97885568
0.9806469
0.98427403
0.98561004
0.98441256
0.98436846
0.98517218
0.98370972
0.98248925
0.98349123
0.9842751
0.9832886
0.98517883
0.98557868
0.98973872
0.99382706
0.9974197
1.0001836
0.99923451
1.000056
0.99908643
1.0022563
1.0046767
1.0044994
1.0050359
1.0034493
0.99985473
1.001557
1.0063764
1.0048629
0.9974916
0.99642433
1.0034209
1.0062148
1.0011605
0.98694293
0.97904469
0.98453897
0.99616047
1.0027737
1.0033422
0.99849715
0.99027004
0.98858275
1.0059503
1.0037112
0.99796579
0.99436945
0.99237053
0.9900426
0.98703396
0.98292496
0.98165051
0.98030508
0.97863916
0.97871331
0.98101006
0.98415156
0.98561552
0.98437019
0.98478733
0.98502681
0.98320601
0.98306188
0.98300933
0.98395666
0.98361523
0.98583636
0.98537071
0.98892814
0.99306041
0.99689231
1.000739
0.99924444
1.0002987
0.9994568
1.0019845
1.0041543
1.0047206
1.006111
1.0033267
0.99831992
1.0007182
1.0081192
1.0063714
0.99639166
0.99335918
1.00272
1.0097594
1.0056417
0.98902117
0.97565904
0.97817801
0.9922349
1.004739
1.0091098
1.0025929
0.99097261
0.98376775
1.0059544
1.003681
0.99803487
0.99449353
0.99267766
0.99015778
0.98710487
0.98295276
0.98175346
0.98029974
0.97903359
0.97857236
0.98141696
0.98403332
0.98557322
0.98439459
0.9850968
0.98500056
0.98249291
0.9833743
0.98254051
0.98346771
0.98388252
0.98641069
0.98535936
0.98805555
0.99207736
0.99606048
1.0005667
0.99922941
1.0003982
0.99953148
1.0016939
1.0035306
1.0047017
1.0068073
1.0036802
0.99707134
0.99952756
1.0090676
1.0083372
0.99659265
0.99050547
1.0005547
1.0122854
1.0099845
0.99278686
0.97483145
0.97305886
0.9860566
1.0039279
1.0134047
1.0089064
0.99413909
0.98268798
1.0059796
1.0036516
0.99807074
0.99456267
0.9928773
0.99027029
0.98702269
0.98297003
0.98181746
0.98024547
0.9793737
0.97842463
0.9817512
0.98405393
0.9855535
0.98442302
0.98533139
0.98498519
0.98198179
0.983591
0.98234274
0.98319376
0.9840357
0.98687354
0.98557125
0.98756658
0.99143701
0.99561664
1.0009559
0.99938381
1.0005775
0.99977031
1.0016547
1.0032706
1.0045022
1.0074781
1.0045226
0.99635132
0.99793628
1.0090236
1.010528
0.99786711
0.98849501
0.99723521
1.0125536
1.0141001
0.99763942
0.97656968
0.9684259
0.97924381
0.99900145
1.015115
1.0144869
1.0006759
0.98485898
1.0059693
1.0036456
0.99812425
0.99461414
0.99301909
0.99036782
0.9870533
0.9830294
0.98187412
0.98024718
0.97955691
0.97834984
0.9818614
0.98396909
0.98552034
0.9844199
0.9854536
0.98509806
0.98176887
0.98367784
0.98222455
0.98298513
0.98398103
0.98695919
0.98562112
0.98713404
0.99072672
0.99464442
1.0004173
0.99942133
1.0006365
0.99972567
1.0013503
1.0028917
1.0041579
1.0073175
1.0055116
0.99723833
0.99660203
1.0075699
1.0113582
1.0001472
0.98982463
0.9940171
1.0098822
1.0149574
1.0025868
0.98246856
0.97031326
0.97494752
0.99238122
1.0104
1.0147994
1.0059582
0.99064533
0.97786129
0.97621197
0.9805599
0.9875898
0.99567125
1.0030568
1.0086022
1.0108568
1.0081274
1.0000529
0.99032335
0.98293593
0.98210813
0.99011048
1.0042874
1.0159541
1.0220503
1.017677
1.0072471
1.0039793
1.0147747
1.0265462
1.0230385
0.99751806
0.9669733
0.96617065
0.9805758
0.98945701
0.99536018
1.0033597
1.009274
1.0130893
1.013438
1.0094616
1.0022817
0.99425553
0.9863298
0.98042025
0.98022683
0.98608746
0.99508696
1.0019042
1.0030367
0.99716197
0.98766306
0.98459585
0.99407341
1.0131417
1.027091
1.0249374
1.0080098
0.99334537
0.99340256
0.98622987
1.0207326
1.0276644
1.0292857
1.0276914
1.0236715
1.0172691
1.0111793
1.0052422
1.0003252
0.9969159
0.99795736
1.0023958
1.0084935
1.0103849
1.0062884
0.99563921
0.98166799
0.97263506
0.97395311
0.98516079
0.99537895
0.99982894
0.99631463
1.0004709
1.0177754
1.0298624
1.0027908
1.0356823
1.0350301
1.0297177
1.0256755
1.0214645
1.0177004
1.0148638
1.0138456
1.0165485
1.0223793
1.028503
1.0325442
1.0321246
1.0256703
1.0145169
1.0016005
0.99130255
0.98867131
0.98991592
0.99161126
0.98446824
0.96967094
0.96223798
0.97860881
1.015322
1.0402997
1.0143261
1.0149876
1.0113267
1.0079137
1.0057589
1.0051594
1.0073316
1.0126204
1.0216823
1.0309064
1.0372664
1.0408366
1.0397035
1.0333595
1.0254384
1.0186548
1.0145947
1.0176072
1.0229884
1.0222851
1.0134633
0.9917519
0.9650307
0.95480435
0.96722589
0.99209534
1.0065739
0.99542747
0.99281466
0.98864121
0.98881317
0.99147263
0.99688204
1.0042179
1.0120501
1.0180695
1.0222565
1.0229696
1.0206084
1.0149547
1.0096754
1.0068499
1.0090888
1.0192371
1.0341923
1.0455518
1.0461565
1.0305681
1.0082983
0.98975944
0.98262347
0.98232737
0.97716512
0.95913775
0.95327472
0.98899591
0.99221099
0.99821872
1.0045485
1.0100768
1.0139606
1.0154218
1.0136994
1.0087025
1.0016956
0.99381957
0.98721007
0.9841241
0.98716687
0.99717982
1.0109043
1.0230628
1.0306343
1.0289966
1.0213395
1.0164292
1.0214168
1.0276588
1.0173804
0.98565474
0.9376865
0.9290304
1.0162934
1.021475
1.0241529
1.0255737
1.0253337
1.0229204
1.0188209
1.0129859
1.0064674
0.99852866
0.99160319
0.98785118
0.98841289
0.99278649
0.99808939
1.0006543
0.9994342
0.99296374
0.98584563
0.98732183
1.0022592
1.029754
1.0514095
1.0454849
1.005182
0.95720833
0.94378767
1.0410845
1.0439449
1.0420399
1.0387677
1.0337809
1.0279431
1.0219932
1.0163788
1.0110011
1.0084722
1.0094551
1.0133964
1.0177842
1.0204038
1.0171164
1.0069068
0.99035609
0.97164563
0.96321628
0.96605189
0.98434901
1.0086366
1.0271316
1.025132
1.0084931
0.99804123
0.99644271
1.0377355
1.0346341
1.0309334
1.0272568
1.0243976
1.0222661
1.020738
1.0210364
1.0240846
1.0301225
1.0365854
1.0417789
1.0439568
1.0405287
1.0319847
1.0174692
1.0002658
0.98549061
0.97929614
0.98306526
0.98875894
0.98958678
0.98090904
0.96820269
0.98053672
1.0207113
1.0600926
1.0122512
1.008322
1.0055394
1.0038525
1.0035413
1.0053369
1.010963
1.0198322
1.0300123
1.0392417
1.0463012
1.0492877
1.0464796
1.0382914
1.0267056
1.0163533
1.0107889
1.0134311
1.020684
1.0245644
1.0180721
0.99385108
0.9568672
0.93691462
0.95463719
1.009873
1.0678263
0.99000153
0.98756064
0.98844319
0.99195804
0.99758612
1.0046256
1.0118812
1.0173872
1.021632
1.0233372
1.0230908
1.0200473
1.0147753
1.0084336
1.0041558
1.0053357
1.0161927
1.0338788
1.0504617
1.0553438
1.0408015
1.0089136
0.97195359
0.95601143
0.97046701
0.99819692
1.0116087
0.99048002
0.99254058
0.99822126
1.0038429
1.0088354
1.012767
1.0143133
1.0136568
1.0107199
1.0043014
0.99558606
0.98558612
0.97746191
0.97359089
0.97773583
0.99288708
1.0145557
1.0344292
1.0458281
1.0435422
1.0272957
1.0085691
1.0020544
1.0116753
1.0194448
1.0093876
0.95626664
1.0186346
1.0227097
1.0247122
1.0249068
1.0233849
1.0200711
1.0145704
1.007035
0.9978334
0.98823374
0.97818937
0.97114694
0.96814474
0.97140094
0.98087686
0.99391551
1.0059337
1.0140403
1.0115782
0.99870807
0.98580474
0.98971325
1.0175717
1.0578062
1.0710141
1.0267571
0.94525216
1.0439195
1.0459506
1.0431798
1.0387722
1.0321887
1.0235117
1.0138378
1.0039018
0.99323862
0.98421539
0.97859795
0.97811107
0.98437352
0.99447957
1.0053204
1.0116023
1.0078737
0.9930935
0.97124355
0.9547123
0.95460148
0.97577561
1.0171368
1.0571314
1.0664765
1.0216234
0.97071165
1.0386137
1.0350397
1.0307891
1.0259834
1.0208294
1.015117
1.0090964
1.0034519
1.0000518
1.000298
1.0044129
1.0121396
1.0207392
1.0268723
1.0279071
1.0194908
1.0028196
0.97959684
0.9574154
0.94815549
0.95810208
0.98587875
1.0134845
1.0244847
1.0058413
0.98144637
0.98658141
1.0048421
1.0006662
0.99708378
0.993919
0.99126914
0.99066624
0.99340351
0.99997324
1.0100417
1.0226204
1.0363189
1.0476483
1.0537606
1.0511108
1.0381893
1.0159854
0.98981502
0.96864385
0.96193683
0.97156768
0.99345105
1.0132437
1.0167635
0.98888973
0.94841224
0.93968349
0.96686091
0.96855777
0.9642372
0.96300662
0.96423388
0.96833994
0.97565838
0.98593995
0.99903591
1.0143389
1.0292768
1.0416515
1.0489602
1.0477262
1.0375849
1.0214706
1.0027303
0.9873819
0.98180486
0.98812545
1.006615
1.0283676
1.0382109
1.0148507
0.96742895
0.92685839
0.92392049
0.95017903
0.9491396
0.94896427
0.95351312
0.96046619
0.96964128
0.98153947
0.9942039
1.0059187
1.0139813
1.0170365
1.0145212
1.0078695
0.99863827
0.98882101
0.98071614
0.97915871
0.98796795
1.0067189
1.0319996
1.0526099
1.0548994
1.0347732
0.99291648
0.95288729
0.93533045
0.93798805
0.9718754
0.96657517
0.97235019
0.97989763
0.98796082
0.99565966
1.0008818
1.0028643
1.0007785
0.99544471
0.98676404
0.97518134
0.9611954
0.94864259
0.94202027
0.94522358
0.96056502
0.98712807
1.0214955
1.0545639
1.0710313
1.0597751
1.0193036
0.97384332
0.9478089
0.94844949
0.97014151
1.0211602
1.0253238
1.0287654
1.0290742
1.0258914
1.0198272
1.0113359
1.0003035
0.98678544
0.97141405
0.95601187
0.94181563
0.93095075
0.92716601
0.93119407
0.94354145
0.96521518
0.99408222
1.0214807
1.0390353
1.039481
1.0179383
0.99145772
0.9722851
0.96678571
0.97467724
1.0125082
1.0661838
1.0645445
1.0651062
1.0581208
1.0473284
1.0332458
1.0163413
0.99782988
0.97915842
0.96171824
0.94737294
0.93800371
0.9362262
0.94019118
0.95217827
0.97138046
0.99225059
1.0069934
1.0081786
0.99578142
0.97355931
0.9557194
0.95211336
0.96746407
0.99210856
1.0246043
1.0676292
1.0769971
1.0432629
1.0383011
1.0322339
1.0253756
1.0168917
1.0069146
0.99629425
0.98581726
0.97719095
0.97247083
0.97264581
0.97766901
0.98895406
1.0038779
1.0158428
1.0177289
1.0053333
0.98165046
0.95029283
0.91991268
0.90976161
0.92164068
0.95327555
1.0030974
1.0703526
1.1063308
1.0586342
0.98151112
0.97701915
0.97313422
0.97028926
0.96942476
0.9714706
0.97680293
0.98567316
0.99781414
1.0119426
1.0280994
1.0455035
1.0591009
1.0639345
1.0526526
1.0266858
0.99189447
0.95386631
0.92020678
0.89841121
0.89647323
0.91317481
0.95021344
1.0126
1.0788686
1.0922109
1.0149297
0.92256247
0.91897404
0.91945198
0.92307415
0.92990112
0.9404768
0.95579686
0.97661451
1.003125
1.0341927
1.0651219
1.0884599
1.0974833
1.0884391
1.0614677
1.0234835
0.98135704
0.94340646
0.91598329
0.90741828
0.91154495
0.93233937
0.97255565
1.023899
1.0512494
1.0249651
0.96066924
0.89437175
0.89423991
0.89957135
0.90845376
0.9214754
0.93914934
0.96091145
0.98608027
1.0110574
1.033791
1.049752
1.0583567
1.0582806
1.048416
1.0302335
1.005138
0.97889106
0.95718163
0.94538411
0.94123125
0.95054955
0.97561282
1.0108781
1.0273809
1.000966
0.94426988
0.91909839
0.91269016
0.91833403
0.9275572
0.93962604
0.95458159
0.97096527
0.98653262
0.9987366
1.0050661
1.0047282
0.9979826
0.98615021
0.974983
0.9673299
0.96348002
0.96352396
0.96830082
0.9783339
0.98843969
0.99907185
1.016784
1.0376426
1.0419587
1.0102749
0.94655649
0.88618088
0.89451703
0.98688894
0.9921959
0.99828407
1.0035138
1.0064592
1.0054081
0.99900144
0.98761107
0.9715705
0.95320472
0.93536922
0.91993515
0.90845931
0.90230373
0.90516519
0.91911116
0.94618237
0.98280102
1.0222515
1.0619661
1.0910129
1.0934713
1.0523569
0.97927173
0.90489705
0.86516321
0.88316408
1.0779595
1.0774578
1.0701974
1.0571037
1.039182
1.0172693
0.9924926
0.96608246
0.93962037
0.91539754
0.89577378
0.88178656
0.87348332
0.87353369
0.88175941
0.90084138
0.93266442
0.97792317
1.0368992
1.0974916
1.1307716
1.1131076
1.0426606
0.95563832
0.89080025
0.87191241
0.88225739
1.1095241
1.1063275
1.0939109
1.0748639
1.049925
1.0204963
0.98899212
0.9579699
0.92969942
0.90603611
0.88754058
0.87491626
0.87006704
0.87350032
0.88682366
0.90916485
0.94155537
0.98544209
1.0388288
1.0859601
1.108689
1.0832458
1.0217137
0.95116203
0.90254497
0.89457174
0.89432252
1.0786351
1.0739976
1.064978
1.0517338
1.0348874
1.0149696
0.99247027
0.96867126
0.94499758
0.92265102
0.90405369
0.89228564
0.88843853
0.89410552
0.90959515
0.93415679
0.9663506
1.0002369
1.0283547
1.0435764
1.0400482
1.0193751
0.99084421
0.95817254
0.93401369
0.928267
0.92471652
1.0178885
1.0143294
1.0106481
1.0070582
1.0026568
0.99704935
0.9899063
0.98023574
0.9676086
0.95305402
0.93876417
0.92831968
0.92509068
0.93150243
0.94617925
0.9681438
0.99170186
1.0072988
1.0061941
0.98671129
0.96523026
0.95311058
0.95461457
0.96329033
0.96983634
0.96837308
0.9723123
0.9476066
0.94791228
0.94984014
0.95370716
0.95994582
0.96776247
0.97553821
0.98223223
0.9865007
0.98741432
0.98552533
0.98278296
0.98179329
0.98511741
0.99312184
1.0027687
1.0063445
0.9972857
0.97218502
0.93616699
0.90755807
0.90044325
0.91977432
0.95993494
0.99803717
1.0118384
1.0291677
0.88923707
0.89063081
0.89519922
0.90298906
0.91405664
0.92863564
0.94692206
0.96786375
0.99055746
1.0129705
1.0325446
1.04648
1.0534402
1.05433
1.0497858
1.0358967
1.0120116
0.97641841
0.93464131
0.89716289
0.87101349
0.86762366
0.89366731
0.94674626
1.0086182
1.0500638
1.0853083
0.85461704
0.85551985
0.85895149
0.86560401
0.87618641
0.8916282
0.91321035
0.94193102
0.97787282
1.0201176
1.0646856
1.1041734
1.128212
1.1290804
1.1055528
1.0622892
1.009531
0.95465736
0.90670928
0.87265384
0.85202646
0.84963793
0.87326895
0.92734773
1.0051789
1.0767379
1.1277069
0.83647067
0.83740548
0.84045617
0.84642303
0.85653885
0.87193355
0.89373589
0.9239473
0.96402222
1.0149429
1.0744224
1.1339796
1.1767271
1.1835123
1.1485509
1.08447
1.0098752
0.94242998
0.89031566
0.85548904
0.83811066
0.83817592
0.86005684
0.91184329
0.99594109
1.0903998
1.1543346
0.83021917
0.83219214
0.83673643
0.84435042
0.85602211
0.87261807
0.8955865
0.92615339
0.96572943
1.0150339
1.073194
1.1333747
1.1795352
1.190176
1.1579015
1.0915365
1.0116956
0.9390958
0.88382412
0.84811011
0.83361171
0.83494334
0.85417844
0.90489494
0.98875475
1.0973998
1.168254
0.84175898
0.84421764
0.84963019
0.85839265
0.8712379
0.88871829
0.91210002
0.94184493
0.97803182
1.0196185
1.0653839
1.1119417
1.1471577
1.1575042
1.1341391
1.0806107
1.0101648
0.94129385
0.88585263
0.85053519
0.83600335
0.83973972
0.86143964
0.90950209
0.99169007
1.1020812
1.1697159
0.86187382
0.86451186
0.87016415
0.87929602
0.8928246
0.91115215
0.93450049
0.96241885
0.99340251
1.0253544
1.0560162
1.0827036
1.1017617
1.1084449
1.0954954
1.0560842
1.0009714
0.94336922
0.89468692
0.86270082
0.84848507
0.85351567
0.87701547
0.92260671
1.0029675
1.1031049
1.1540507
0.87979275
0.88285594
0.8894025
0.89954596
0.91335793
0.93072014
0.95130086
0.97426529
0.99827035
1.021342
1.0413216
1.0563105
1.065404
1.0674831
1.0579302
1.0330313
0.99445063
0.94915899
0.90769737
0.87864975
0.86796329
0.87347521
0.89705502
0.94414518
1.0106333
1.0906743
1.1255887
0.89074203
0.893505
0.89944025
0.90860362
0.92095959
0.93621856
0.95397575
0.97354349
0.99387969
1.0132239
1.0295853
1.0414031
1.0480238
1.0485897
1.0409035
1.0215843
0.99164528
0.9558221
0.92152222
0.89671327
0.88674481
0.89373304
0.91510577
0.95060822
1.0045741
1.0694209
1.0959861
0.89019312
0.89258833
0.89783386
0.90605347
0.91729856
0.93129885
0.94775087
0.96612543
0.98565371
1.0052879
1.0237196
1.039139
1.0491638
1.0505871
1.0420116
1.0226362
0.99476684
0.96242744
0.93197346
0.90991219
0.90005007
0.90462142
0.91899839
0.94467686
0.98946302
1.0465287
1.0767191
0.88447563
0.88647622
0.89107574
0.89848425
0.90893629
0.92247184
0.9390878
0.95847279
0.98031845
1.0034089
1.0261359
1.0458918
1.0592998
1.0629627
1.0545065
1.0324138
1.0009043
0.96609458
0.93486603
0.91263951
0.90090721
0.90058137
0.90956303
0.93123926
0.97439127
1.0297381
1.070894
0.88229702
0.88383439
0.88781234
0.8946571
0.90466197
0.91807042
0.93494681
0.95504762
0.97807986
1.0033429
1.0292197
1.052663
1.0690808
1.0735684
1.0632586
1.0392919
1.0050913
0.9670865
0.93228814
0.90691722
0.89405305
0.89196957
0.89939201
0.92446871
0.96692639
1.0264203
1.0749737
0.88823328
0.88923959
0.89240407
0.89792732
0.90646013
0.91834029
0.93368516
0.9526499
0.97526236
1.0009479
1.0277838
1.0523154
1.069498
1.0740403
1.0633483
1.0390379
1.0051502
0.96744311
0.93221718
0.90462546
0.88880488
0.88665168
0.89627704
0.92218259
0.96654468
1.0261944
1.0765395
0.89918191
0.8999846
0.90271311
0.90756139
0.91485525
0.92468323
0.93728791
0.95294162
0.9716768
0.99320857
1.0165116
1.0388721
1.0556372
1.0619985
1.0551016
1.0352902
1.0055446
0.97103051
0.93768096
0.91141127
0.89571603
0.89195881
0.90065744
0.92543147
0.96393629
1.0151193
1.0602948
0.91638839
0.91679114
0.91914627
0.92332127
0.92923096
0.9369103
0.94645514
0.95776791
0.97064048
0.98468549
0.99922013
1.0129697
1.0241966
1.0309291
1.0316422
1.0246728
1.0086639
0.98450699
0.9556331
0.92828367
0.90889568
0.90133313
0.90746436
0.93239663
0.96699101
1.0019592
1.026645
0.94743603
0.94695826
0.94737936
0.94878346
0.95120189
0.95450489
0.95847483
0.96305934
0.96815549
0.9734257
0.97840937
0.98306148
0.98749931
0.99154586
0.99591892
0.99883872
0.99922105
0.99351507
0.97905367
0.9592846
0.93667278