/*--------------------------------*- C++ -*----------------------------------*\
| =========                 |                                                 |
| \\      /  F ield         | OpenFOAM: The Open Source CFD Toolbox           |
|  \\    /   O peration     | Version:  2406                                  |
|   \\  /    A nd           | Website:  www.openfoam.com                      |
|    \\/     M anipulation  |                                                 |
\*---------------------------------------------------------------------------*/
FoamFile
{
    version     2.0;
    format      ascii;
    arch        "LSB;label=32;scalar=64";
    class       volScalarField;
    location    "31";
    object      rho;
}
// * * * * * * * * * * * * * * * * * * * * * * * * * * * * * * * * * * * * * //

dimensions      [1 -3 0 0 0 0 0];

internalField   nonuniform List<scalar> 
62344
(
1.0028707
1.0015386
0.99702118
0.99381096
0.99185434
0.99008209
0.9879695
0.98576794
0.98515248
0.98460578
0.98453476
0.98602591
0.98779449
0.98935619
0.99017226
0.99056224
0.9881133
0.9891632
0.98907897
0.99054587
0.99046519
0.99279132
0.99362128
0.99609235
0.99639889
0.99754373
0.99884894
1.0022787
1.002393
1.0038596
1.0039032
1.0078884
1.0032202
1.0060095
1.0107788
1.0045468
1.0004606
1.0082584
1.0161936
1.0158772
1.006827
1.0047338
1.0130404
1.0245084
1.0265853
1.0144016
0.9999889
1.0011446
1.0167808
1.0309896
1.0314965
1.0240792
1.0123545
1.0042128
1.0059951
1.0029191
1.0015408
0.99682689
0.99362848
0.99157365
0.9900004
0.98752767
0.98504369
0.98430585
0.98414333
0.98410625
0.98553888
0.98725183
0.98913472
0.98995326
0.98994737
0.98811942
0.99008645
0.98817992
0.98887625
0.98991576
0.9918714
0.99307157
0.99553341
0.99595221
0.99708078
0.99893457
1.0018403
1.0024774
1.0033075
1.0034504
1.0068682
1.0021018
1.0044815
1.0084364
1.004007
1.0033335
1.0090461
1.0119889
1.0078552
1.0068325
1.0105314
1.0140864
1.0181845
1.0180249
1.0126926
1.0050092
1.0052983
1.0179905
1.0350586
1.0397871
1.0259937
1.006972
0.99103425
0.9868989
1.0027207
1.0012189
0.99661949
0.99346884
0.99148677
0.98956119
0.98709491
0.98465462
0.9838911
0.9837087
0.9835158
0.98504212
0.98726758
0.98900914
0.99055078
0.98984067
0.98866092
0.99070699
0.98942024
0.9889662
0.99038308
0.99104206
0.99253157
0.99528443
0.99579948
0.99703548
0.998926
1.00181
1.0029378
1.0031986
1.0041287
1.0064425
1.0017525
1.0050607
1.0091888
1.0039931
1.0024589
1.0099041
1.0097744
1.0028908
1.0049022
1.014251
1.0162428
1.0111431
1.0073586
1.0085757
1.0131821
1.0159773
1.0190869
1.0231908
1.0250324
1.0186482
1.0066091
0.99564076
0.98968924
1.0024488
1.0008975
0.99663521
0.99360034
0.9916084
0.98916816
0.98691926
0.9846339
0.98422047
0.98356167
0.98333491
0.98497658
0.98684091
0.98883086
0.9906369
0.98986097
0.98940842
0.98972376
0.98955929
0.98890652
0.9907952
0.99103925
0.99191108
0.99527384
0.99566924
0.99720395
0.99883805
1.0009249
1.0029452
1.0023054
1.0044405
1.0055099
1.0014517
1.0057464
1.0091621
1.0039235
1.0022917
1.0090006
1.0086
1.0003522
1.0032719
1.0154252
1.0192648
1.0091908
1.0004248
1.00338
1.0170478
1.0263922
1.0234624
1.0128165
1.0029437
1.0001391
1.0030964
1.0057314
1.009468
1.0023041
1.00084
0.99667227
0.99375921
0.99167951
0.98915497
0.98715734
0.98501339
0.98442787
0.98361656
0.98357325
0.98489153
0.98646912
0.98909097
0.99008998
0.98930178
0.98980649
0.98920445
0.98943613
0.98857403
0.9899897
0.99112236
0.99168318
0.9949732
0.9954247
0.99728672
0.99894776
1.0001734
1.0027032
1.0015623
1.0047799
1.0043488
1.0009251
1.0060873
1.0090828
1.0042028
1.0022432
1.006211
1.0063071
1.0009083
1.003433
1.0129558
1.0185489
1.0103461
0.99921627
1.0009813
1.0147775
1.0286689
1.0271138
1.0115271
0.99446027
0.98790999
0.9941643
1.0077236
1.0211256
1.0023351
1.0009618
0.99671703
0.99368491
0.99153143
0.98957361
0.98755121
0.98533763
0.98426019
0.98358554
0.98362982
0.98450758
0.98642391
0.98908156
0.9894557
0.98886237
0.98910744
0.98887512
0.98891058
0.98854494
0.98852333
0.99053014
0.99173381
0.99416739
0.99487361
0.99725417
0.9988049
1.0000656
1.0024776
1.0009657
1.0051841
1.003421
1.0008107
1.0065514
1.0086249
1.0044028
1.0030611
1.0035703
1.0022261
1.0029231
1.0052772
1.0100409
1.0132118
1.0096973
1.0027095
1.0039221
1.0122453
1.0208899
1.0227506
1.0117217
0.99844622
0.98950809
0.99220086
1.0041664
1.0208155
1.0024482
1.0011114
0.99670432
0.99342996
0.99135771
0.99014016
0.98770149
0.98524183
0.98387436
0.98331672
0.98317823
0.9842654
0.98656722
0.9887663
0.98910297
0.98891789
0.98802742
0.9884163
0.98803764
0.98865449
0.98781967
0.98966732
0.99166871
0.99325444
0.99418251
0.99693248
0.99829441
1.0000828
1.0022994
1.0005916
1.0052397
1.002498
1.0011134
1.0071763
1.0077859
1.0043616
1.0047947
1.0030401
0.9989326
1.0026144
1.0084952
1.0090629
1.00668
1.0054442
1.0073329
1.010349
1.0135076
1.0119323
1.0104758
1.0066301
1.0029706
0.9996433
0.99958767
1.00639
1.0158149
1.0026086
1.0012198
0.99661339
0.99321715
0.99138591
0.9904115
0.98750546
0.98486051
0.98370779
0.98317008
0.98259182
0.98420893
0.98628142
0.98842031
0.98895599
0.98897131
0.98744626
0.9884067
0.98732608
0.98842715
0.98828518
0.98925269
0.99121291
0.99255676
0.99373111
0.9965307
0.99762002
0.999887
1.0019745
1.0007419
1.0052266
1.0018414
1.0015302
1.0076689
1.0069477
1.0036887
1.0063138
1.0045063
0.99759934
1.0001303
1.0098209
1.0101587
1.0031703
0.99960746
1.008199
1.0171522
1.0181087
1.0101938
1.0011368
0.99713324
1.00218
1.0072213
1.0124267
1.0151584
1.0163554
1.0026934
1.0012182
0.99652102
0.99319798
0.99157437
0.99024605
0.98734681
0.98465634
0.98389558
0.98306438
0.98255116
0.98382588
0.98595015
0.98828502
0.9888764
0.98882664
0.98757651
0.98901519
0.98749494
0.98801106
0.98938943
0.98938444
0.99043318
0.99221407
0.99395793
0.99654596
0.99726716
0.99995855
1.0016196
1.0012098
1.0053623
1.0014997
1.0020019
1.0079462
1.006276
1.0027755
1.0069277
1.0065789
0.99836347
0.99794943
1.0078077
1.0112333
1.0027386
0.99671727
1.0047199
1.0190199
1.0230329
1.0140221
0.99976254
0.99093146
0.99572977
1.0085043
1.0195556
1.0265494
1.0237469
1.0026939
1.001092
0.99650543
0.99342691
0.99189146
0.99003801
0.98746603
0.98488877
0.98414545
0.98286985
0.98298373
0.9834071
0.98613132
0.98822052
0.98893381
0.98873708
0.98797522
0.98951904
0.988385
0.98763766
0.99010697
0.98965467
0.98974996
0.99200576
0.99451816
0.99697226
0.99735763
1.000377
1.0011334
1.0016173
1.0052288
1.0010797
1.0024498
1.0080808
1.0056636
1.0020918
1.0065684
1.0078932
1.0000982
0.99757511
1.0042256
1.0097745
1.003773
0.99738746
1.0020106
1.014558
1.0236349
1.0177857
1.0031209
0.99167505
0.99186543
1.0037106
1.0193923
1.0299342
1.0310646
1.0026153
1.000966
0.99654583
0.99382994
0.99222917
0.99007255
0.98775974
0.98531226
0.98424572
0.98305934
0.98330829
0.98351332
0.98651817
0.98817161
0.98914072
0.98886729
0.98850262
0.98949614
0.98914127
0.98755891
0.99006253
0.98970263
0.98941235
0.99181443
0.99468608
0.99728393
0.99764557
1.000785
1.0005696
1.0018184
1.0047219
1.000606
1.0026975
1.0078328
1.0050902
1.0019048
1.0057049
1.0078405
1.0017619
0.99890242
1.0017102
1.0051957
1.0041668
0.9998066
1.002303
1.0090908
1.0176879
1.016895
1.0069911
0.9971872
0.99426753
1.0010127
1.0130146
1.0248878
1.029267
1.0025356
1.0009418
0.99666482
0.99424717
0.99249127
0.99013306
0.98807458
0.98558125
0.98438798
0.9838122
0.98323905
0.9839686
0.98650128
0.988201
0.98938327
0.98901724
0.98905152
0.98921346
0.9893497
0.98790677
0.98927929
0.98954854
0.98943466
0.99161112
0.99436835
0.9969626
0.99780481
1.0009972
1.0000606
1.0017883
1.0039803
1.0002157
1.0028992
1.0072791
1.0045813
1.0022198
1.005278
1.0064515
1.0029487
1.0011984
1.0012648
1.0003524
1.0012594
1.0026073
1.004369
1.0073347
1.0091181
1.0098983
1.0072356
1.0037581
1.0006328
1.0027283
1.008692
1.0155539
1.0210253
1.0024833
1.0010259
0.99690597
0.99458869
0.99273292
0.99041042
0.98833936
0.98568303
0.98466209
0.98448238
0.98303497
0.98429224
0.98606454
0.9883636
0.98953855
0.98890913
0.98945525
0.98884895
0.98900482
0.98847406
0.98831414
0.98912136
0.98962882
0.99152959
0.99369294
0.99597795
0.99769363
1.0010773
0.99969738
1.0016386
1.0032048
0.99984335
1.003063
1.0065757
1.0040222
1.0028632
1.0055096
1.0047981
1.0029487
1.003946
1.0028973
0.99788487
0.99652668
1.0028534
1.0075123
1.0087227
1.0044837
1.0004852
1.0024878
1.0066371
1.0084558
1.0089723
1.0097843
1.009504
1.0104534
1.0024647
1.0011164
0.99713309
0.9947033
0.99291128
0.99091471
0.9886629
0.98582279
0.9850562
0.98467027
0.98303888
0.98431082
0.98562627
0.98849083
0.98949584
0.98856976
0.98946794
0.98849412
0.98818944
0.9887922
0.98754597
0.98864238
0.98976004
0.99140773
0.99288652
0.99489684
0.99733572
1.0010258
0.99957674
1.00148
1.0025401
0.99972827
1.003143
1.0059077
1.0033864
1.0034167
1.0063095
1.0036522
1.0018755
1.0057933
1.0055557
0.99839016
0.99273443
0.99959644
1.0095819
1.0114487
1.004479
0.9950103
0.99489273
1.004182
1.0127861
1.0176544
1.0156745
1.0103994
1.0042103
1.0024643
1.0012372
0.99728588
0.99464937
0.99300463
0.99143236
0.98896033
0.98618096
0.98535399
0.98446831
0.98331898
0.98414892
0.98555768
0.98841916
0.9892842
0.98826106
0.98912734
0.98824405
0.98729905
0.98854868
0.98714534
0.98808066
0.98978102
0.99110231
0.9922583
0.99409138
0.9968492
1.0007999
0.99957248
1.0014393
1.001961
0.99983927
1.0033582
1.0053341
1.0026675
1.0037169
1.0072535
1.0033379
1.0004737
1.0060875
1.0084971
1.0007751
0.99158861
0.99515446
1.0084181
1.0141974
1.0068961
0.99501636
0.98895903
0.99795649
1.0120294
1.0227089
1.0237445
1.015616
1.0046658
1.0024853
1.0013395
0.99739008
0.99452251
0.99304589
0.99193451
0.98920511
0.98667798
0.98553758
0.98413385
0.98374977
0.98404058
0.98577874
0.9882227
0.98902306
0.988219
0.98858658
0.98808736
0.98662689
0.98789618
0.98713998
0.9877703
0.98956448
0.99072618
0.99185371
0.99357109
0.99647155
1.0004069
0.99958937
1.0014464
1.0014631
1.000008
1.0036409
1.0050451
1.0020166
1.003672
1.0078193
1.0035644
0.99941975
1.0051917
1.0104794
1.0036234
0.9927713
0.99208657
1.0046655
1.0144756
1.0098617
0.99756815
0.98763229
0.99172691
1.0072036
1.0220675
1.0282623
1.0220142
1.0093742
1.0025079
1.0014296
0.99742536
0.99444277
0.99302147
0.99226449
0.98946243
0.98707321
0.98568808
0.98396257
0.98399727
0.98408149
0.98596215
0.98809211
0.98881107
0.98838918
0.98808717
0.98804243
0.98641781
0.98701323
0.98743828
0.98779933
0.98913218
0.99031841
0.99156673
0.99350743
0.99633001
0.9998686
0.99956217
1.0013
1.0010184
1.0001111
1.0038464
1.0050229
1.0016577
1.0032897
1.0078181
1.0040049
0.99893446
1.003677
1.0107416
1.0060372
0.9951665
0.99157206
1.0003035
1.0116
1.0115189
1.0006382
0.98959725
0.98911561
1.0008338
1.0168148
1.0271768
1.0257946
1.0151209
1.0025421
1.001494
0.99741487
0.99445404
0.99301169
0.99237137
0.98968327
0.98734398
0.98579754
0.98400482
0.98400009
0.98416069
0.98588887
0.98805979
0.98877039
0.98857981
0.98773366
0.98812372
0.98663919
0.98622117
0.98783487
0.98802429
0.98866533
0.98987985
0.99127448
0.99368818
0.99642188
0.99933433
0.99948669
1.0009731
1.0005905
1.0000667
1.0038543
1.0051293
1.001627
1.0028463
1.0072052
1.0041927
0.99904285
1.0022837
1.0093844
1.0074726
0.99776788
0.99293764
0.99764487
1.0065201
1.0105082
1.0028742
0.99296507
0.98981621
0.99637218
1.0091996
1.0214822
1.0249198
1.0188155
1.0025722
1.0015538
0.99736989
0.99453591
0.99301298
0.9923208
0.98985064
0.98745978
0.98586529
0.98423869
0.98381248
0.98421015
0.98560533
0.98808373
0.98880797
0.98866625
0.98753413
0.98833079
0.98711136
0.98577828
0.98820583
0.98832566
0.98816754
0.98942316
0.99093473
0.99386451
0.99654111
0.99890696
0.99940731
1.0005497
1.0001804
0.99985261
1.0036261
1.0051177
1.0018102
1.002504
1.006216
1.0040668
0.9995407
1.0016191
1.0071782
1.0074647
0.99991752
0.99544092
0.99716232
1.0020092
1.00616
1.0037175
0.99624316
0.99238264
0.99485215
1.0031587
1.0134033
1.0200006
1.0185764
1.0026067
1.0016028
0.99736985
0.99469717
0.99309348
0.99226717
0.99000853
0.98746117
0.9859062
0.98453344
0.98357463
0.98419726
0.98528598
0.98811283
0.98885315
0.98861771
0.98753284
0.98860242
0.98771351
0.985809
0.98844761
0.98856187
0.98783639
0.98904501
0.99062341
0.99389619
0.9966036
0.9986968
0.99940548
1.0000858
0.99994377
0.99960749
1.0031921
1.0049437
1.0021695
1.0024328
1.0051008
1.0036006
1.0004433
1.0016421
1.0052447
1.0057998
1.0014503
0.99823197
0.9983535
0.9991675
1.0011262
1.0013653
0.99882108
0.99562577
0.99596555
1.0003248
1.0065551
1.012804
1.0148729
1.0026337
1.0016354
0.99740354
0.99487075
0.99325758
0.99223915
0.9901119
0.98739499
0.98593047
0.98480454
0.98342189
0.98414555
0.98510903
0.98811597
0.98890554
0.98849512
0.98770409
0.98884949
0.98813107
0.98618106
0.98843856
0.9886947
0.98770705
0.98887754
0.99028308
0.99378343
0.99653131
0.99856763
0.99961388
0.99980493
0.9997772
0.99941112
1.0027044
1.0045649
1.0026467
1.0026979
1.0040518
1.0027088
1.0013774
1.0024627
1.0039119
1.0033934
1.0019062
1.0011398
1.000965
0.99858886
0.99673304
0.99684789
0.9993569
0.99909318
0.99901452
1.0006006
1.0028397
1.0057617
1.0091686
1.0026852
1.0016245
0.99745322
0.99500862
0.99343096
0.99222313
0.99015241
0.98726918
0.98600611
0.98504756
0.98347926
0.98410924
0.98519112
0.98812239
0.98902044
0.98840531
0.98805916
0.9890247
0.98833686
0.98685331
0.98835563
0.98883166
0.98784402
0.98914517
0.9900755
0.99353104
0.99636553
0.9985702
1.0000635
0.99975149
1.0000594
0.99954537
1.0023345
1.0043275
1.0032522
1.0033006
1.0034032
1.0018321
1.0021238
1.0039057
1.0036668
1.0011169
1.0010751
1.0036698
1.0039153
1.0001476
0.99379896
0.99220805
0.99717475
1.0017267
1.0029332
1.0030432
1.0019427
1.000409
1.0029097
1.0027013
1.0015976
0.99752037
0.99511145
0.99363175
0.9922311
0.99017873
0.98720933
0.98614942
0.98524976
0.98377991
0.98412513
0.98548685
0.98817032
0.98922334
0.98841649
0.98857034
0.98926896
0.98831326
0.98753095
0.98823963
0.9888517
0.98823119
0.98968839
0.99005239
0.99311376
0.99609086
0.99861295
1.0005317
0.99988945
1.000482
0.99980979
1.0022543
1.0040667
1.0038867
1.0041417
1.0030946
1.0009244
1.0024461
1.005655
1.0043203
0.99940778
0.99951408
1.0049384
1.0069305
1.003153
0.99306319
0.98835913
0.99321578
1.0020404
1.0066757
1.007033
1.003372
0.99776665
0.99729891
1.0027333
1.0015861
0.99759871
0.99521353
0.99387846
0.99232
0.99021429
0.98727209
0.98638205
0.98547593
0.98428556
0.98429206
0.98601071
0.98833723
0.98952079
0.98870487
0.98921162
0.98949741
0.98834022
0.98835238
0.98834521
0.98905597
0.98887673
0.99048808
0.99019946
0.99282987
0.99585898
0.99854144
1.0012974
1.0003314
1.0010673
1.0004617
1.0024262
1.0041209
1.0044984
1.0052768
1.0033028
1.0001645
1.0022512
1.0073153
1.0056178
0.99871146
0.99748551
1.0047708
1.009691
1.0064332
0.99441364
0.98566424
0.98857598
0.99957209
1.0086961
1.0116636
1.0065775
0.99818897
0.99345304
1.0028015
1.0016281
0.99774494
0.99541155
0.99423015
0.99258882
0.99046152
0.98756653
0.98675582
0.98581512
0.98493677
0.98463355
0.98671236
0.98862626
0.98985727
0.98907048
0.98979089
0.98980957
0.98818483
0.98897406
0.98844829
0.98917868
0.98951396
0.99132629
0.99058639
0.99255062
0.99549731
0.99830118
1.0014593
1.0006595
1.0015056
1.0008483
1.0025475
1.0040656
1.0049389
1.0062175
1.0038838
0.99952602
1.0017806
1.0084682
1.0073638
0.99904603
0.99546834
1.0033495
1.0118317
1.0096998
0.99718674
0.98472802
0.98455472
0.9946876
1.0081632
1.0149595
1.0114746
1.0008423
0.99275782
1.0031448
1.0018677
0.99806533
0.99581746
0.99474555
0.99307028
0.99082339
0.98803095
0.98725858
0.98623601
0.98566118
0.98506678
0.98745986
0.98912394
0.99027882
0.98945812
0.99024818
0.9900639
0.98808751
0.98939528
0.98862123
0.98937151
0.99003525
0.99207683
0.99115155
0.99258315
0.99541516
0.99834804
1.0020616
1.0010627
1.001955
1.0013139
1.0027004
1.0040578
1.0051097
1.0071506
1.0048817
0.99919343
1.0008419
1.0088032
1.0093504
1.0002784
0.993975
1.0009497
1.0120285
1.0126388
1.0008487
0.98592991
0.98084533
0.98911978
1.0037549
1.0152004
1.0147138
1.0049473
0.99408061
1.0039133
1.0023898
0.99848752
0.99634719
0.99537318
0.99361699
0.99130738
0.98853596
0.98774975
0.98666833
0.98620579
0.98544927
0.9879654
0.98950588
0.9906699
0.98982136
0.9905842
0.99033757
0.98806213
0.98953782
0.98861449
0.98934999
0.99016041
0.99235665
0.99146168
0.99251909
0.99513736
0.99795716
1.0019577
1.0013106
1.0022339
1.0015043
1.0026239
1.0037848
1.004845
1.0071136
1.0057539
0.99993083
0.99977239
1.0077002
1.0102257
1.0021647
0.9950614
0.99860091
1.009858
1.013005
1.0040971
0.99001647
0.98208851
0.98588516
0.99865815
1.0112574
1.0138779
1.0075102
0.99676979
0.98868041
0.98862767
0.99192744
0.99734549
1.0035831
1.0084631
1.0116059
1.0127036
1.0108816
1.0060454
1.0003761
0.99629347
0.9963923
1.0021016
1.0117247
1.0197167
1.0241547
1.0210277
1.0140242
1.0134698
1.0249153
1.0360777
1.0342658
1.0164133
0.9960338
0.99484162
1.0023273
0.9976573
1.0025341
1.008963
1.0141913
1.0170329
1.0163806
1.0125208
1.0070611
1.0021476
0.99815112
0.99572855
0.99714196
1.0017915
1.0074763
1.010855
1.0108047
1.0067119
1.0007465
0.99909843
1.006852
1.0225753
1.034855
1.0344091
1.0244631
1.0174477
1.017407
1.0083968
1.0203133
1.025528
1.0280376
1.0279162
1.0247649
1.0192254
1.0141781
1.010078
1.0078288
1.007393
1.0104538
1.0151242
1.0195986
1.0197258
1.0151585
1.0070104
0.99809818
0.99343796
0.9948704
1.0023468
1.0097684
1.0141313
1.012693
1.0182783
1.0361491
1.0467143
1.0230035
1.0298671
1.030074
1.0285398
1.0266142
1.0230903
1.0194567
1.0169144
1.0166437
1.0200076
1.0262125
1.0327093
1.0370139
1.0365813
1.0309523
1.0220487
1.0133367
1.0083705
1.0090724
1.0100497
1.0097346
1.0033829
0.99325571
0.98891412
1.0024419
1.0343689
1.0555764
1.0334784
1.014943
1.0140304
1.0136177
1.0122618
1.011102
1.0120081
1.0156074
1.0221954
1.0293731
1.0353864
1.0397186
1.0403297
1.0362251
1.030327
1.0254919
1.0242861
1.0298096
1.0367447
1.0360594
1.0273424
1.0101247
0.99230019
0.98631185
0.9959401
1.0177825
1.0322049
1.0213615
1.0000873
0.99909281
1.0009034
1.0028163
1.0063126
1.0110548
1.0158388
1.0192772
1.0221739
1.0236329
1.0236949
1.0216032
1.0189881
1.0173706
1.0195753
1.0288858
1.0427832
1.0534188
1.0535503
1.039925
1.0229584
1.0125989
1.0103296
1.0097564
1.0081699
0.99898217
0.99209709
0.99866903
1.0027679
1.0082405
1.0128288
1.0167551
1.0191005
1.0191414
1.0167243
1.0127656
1.0089318
1.0054913
1.0030831
1.0025983
1.0056543
1.0134911
1.0246798
1.0353066
1.042098
1.0400221
1.0324075
1.0285849
1.0370878
1.0464858
1.0386205
1.0158077
0.98518424
0.97684061
1.018952
1.0241154
1.0268924
1.0285999
1.0287608
1.0263583
1.022028
1.0165446
1.0121
1.0083241
1.0063137
1.0068908
1.0097263
1.0139043
1.0178388
1.0197727
1.0194973
1.0150736
1.0088736
1.0077377
1.0184903
1.0433018
1.0651748
1.0610302
1.0314679
1.0012161
0.99053625
1.0365036
1.0395327
1.0395755
1.0388987
1.0358733
1.0307681
1.0247574
1.0196487
1.0166931
1.0177119
1.0222153
1.0288181
1.0345491
1.0373431
1.0346038
1.0266167
1.0146553
1.0012702
0.99454336
0.99475705
1.0073181
1.0291551
1.0488194
1.0473308
1.0345987
1.0324256
1.0328622
1.0341445
1.0330247
1.0325977
1.0317185
1.0296212
1.0266878
1.0239472
1.0238056
1.0278896
1.0356434
1.0442594
1.0516184
1.0555795
1.0534074
1.0464206
1.0349629
1.0227376
1.0133109
1.0093647
1.0106714
1.0138454
1.017621
1.0172743
1.0083094
1.0152665
1.0490242
1.0821011
1.016784
1.0151053
1.0157913
1.0160779
1.0153931
1.0152133
1.01772
1.0240961
1.0332815
1.0430054
1.0517839
1.0574975
1.0576118
1.0519582
1.042479
1.0340293
1.0309044
1.0354995
1.0429271
1.0447784
1.0384132
1.0230479
1.0021322
0.98910751
0.99904557
1.0421054
1.0881517
1.0018257
1.0018975
1.0052931
1.0089784
1.0122856
1.0156735
1.0197043
1.0238587
1.0285691
1.0323043
1.0351378
1.0358838
1.0340663
1.0297598
1.0259814
1.0265463
1.0359132
1.0520835
1.0672557
1.0700002
1.0572531
1.0353371
1.0149676
1.0064881
1.0139149
1.0350594
1.0490194
1.0034782
1.0069431
1.0136785
1.0183484
1.020905
1.0223217
1.0227103
1.0224974
1.0217864
1.0193568
1.015723
1.0112587
1.0075764
1.0052358
1.0077671
1.0186666
1.0363385
1.0548694
1.0669442
1.0642479
1.0494067
1.0360213
1.0380321
1.0505525
1.0528253
1.0440746
1.0109165
1.0249701
1.0298043
1.0335963
1.0340175
1.032026
1.0287749
1.0244715
1.0193435
1.0137144
1.0083475
1.003759
1.0021358
1.0027282
1.0062779
1.0128969
1.0220278
1.0322694
1.0425328
1.0449289
1.0349298
1.0222973
1.0240378
1.0496232
1.0852805
1.0921645
1.0569909
1.0055293
1.0434899
1.0467868
1.0469748
1.0445561
1.0396313
1.0330151
1.0257938
1.0187586
1.0118769
1.0074655
1.0070086
1.0105263
1.0184387
1.0269427
1.0340562
1.0377179
1.0366304
1.0301846
1.0182994
1.0064516
1.0032847
1.0169329
1.0509113
1.085434
1.0891321
1.0536656
1.0253613
1.0404888
1.0395327
1.0386243
1.036323
1.0327537
1.0285006
1.0239611
1.0200635
1.0189398
1.0220794
1.0296857
1.0404074
1.0504063
1.05565
1.0546413
1.0467858
1.035216
1.0222014
1.011018
1.0054425
1.0098519
1.0274233
1.0497558
1.0640216
1.0484912
1.0265379
1.0359639
1.0174495
1.0157132
1.0156166
1.0147348
1.0131862
1.0126036
1.0142357
1.0190979
1.027914
1.0408834
1.0564032
1.0703863
1.078733
1.077459
1.0664532
1.048258
1.0292492
1.0172481
1.0170544
1.0257739
1.0391504
1.0496065
1.0534624
1.03993
1.0117356
1.000451
1.0213779
0.9926149
0.99097089
0.99279856
0.99544606
0.99889442
1.0039832
1.010998
1.0205336
1.033079
1.0473669
1.0617716
1.0730178
1.0764478
1.0703482
1.0573028
1.0423516
1.0317449
1.031387
1.0406874
1.0559861
1.0676154
1.0692896
1.0519725
1.0255183
1.0011481
0.9940382
1.0116197
0.98065854
0.98232934
0.98867286
0.99551876
1.0024352
1.0106443
1.0189559
1.0270119
1.0339673
1.0398
1.0432078
1.0438562
1.0414888
1.0361347
1.029932
1.0283698
1.0354936
1.0533039
1.0775605
1.0946098
1.0912504
1.0687971
1.0367968
1.015173
1.0103191
1.0092184
1.0325199
0.9962967
1.0029266
1.0112
1.0183823
1.0236495
1.0260961
1.0260397
1.023939
1.0212787
1.0183173
1.0151747
1.0108075
1.0064359
1.0040677
1.0066372
1.0175176
1.0379789
1.0669906
1.0964577
1.1110013
1.0984277
1.0619297
1.0263443
1.0129487
1.0213911
1.0377305
1.0734728
1.0428765
1.0473871
1.0498408
1.0479008
1.042471
1.0346855
1.0252343
1.0147883
1.0049806
0.99739595
0.99236627
0.99063889
0.9933538
0.99951597
1.0092031
1.0248191
1.0460669
1.0684758
1.0862476
1.0895432
1.0710756
1.0462978
1.0299275
1.0300805
1.0437156
1.0744775
1.1091009
1.0719495
1.0742029
1.071499
1.0643472
1.053527
1.0399359
1.0252839
1.0116173
1.0006564
0.99425236
0.99340284
0.99899098
1.0078207
1.0203579
1.0349499
1.0486326
1.0579654
1.0599114
1.055071
1.0422224
1.0289635
1.021976
1.030353
1.0517863
1.0852627
1.1203772
1.1180446
1.0571693
1.0549065
1.0524347
1.0485081
1.0422979
1.0345698
1.026415
1.0192891
1.0154577
1.0170522
1.0244151
1.0361953
1.0519375
1.0665472
1.0737761
1.0709299
1.0584985
1.0413573
1.022812
1.0053444
0.99879378
1.0038824
1.0238819
1.0631272
1.1223618
1.151608
1.1077714
1.0137548
1.0112773
1.0108811
1.0100261
1.0092055
1.0099172
1.0132499
1.0206055
1.0327118
1.0494697
1.0708119
1.0943368
1.1128007
1.1187809
1.1066233
1.0815366
1.0513285
1.0234231
1.0028304
0.99276892
0.99299386
1.002433
1.0270438
1.0747377
1.1296323
1.1428774
1.0801127
0.97323563
0.97149531
0.97402172
0.97790369
0.98297248
0.99023306
1.0007758
1.0163755
1.0387538
1.0680811
1.1006936
1.1294739
1.1452687
1.14176
1.1185035
1.0845714
1.0489135
1.0204688
1.0043493
1.0036154
1.009027
1.0226797
1.0500278
1.0873079
1.1109255
1.094588
1.0462694
0.95622855
0.95744283
0.96364318
0.97147062
0.98100536
0.99335823
1.0086246
1.0274078
1.0480126
1.070177
1.0906987
1.1076971
1.1169846
1.1143036
1.0992759
1.0765937
1.0535813
1.037427
1.0326416
1.0348499
1.0452452
1.0625361
1.0842869
1.0931084
1.0748471
1.0381379
1.021865
0.97493876
0.98116846
0.98984482
0.99983143
1.0107863
1.0214854
1.0310045
1.0389941
1.0451869
1.0500245
1.0539323
1.055916
1.0568625
1.0561581
1.053027
1.0498586
1.0510985
1.0591686
1.0709871
1.086204
1.1039782
1.1170929
1.1122311
1.0826057
1.0370398
0.99964291
1.0090704
1.0373758
1.042869
1.0486538
1.0524198
1.052506
1.0485845
1.0410321
1.0314531
1.0218701
1.0139812
1.0099249
1.0094603
1.0107697
1.011754
1.0137539
1.021784
1.0392724
1.0670052
1.101976
1.1409719
1.1682359
1.1651339
1.1242662
1.0635979
1.0103051
0.98971787
1.0053121
1.1097351
1.1106702
1.1051567
1.0939062
1.077891
1.0582895
1.0373808
1.0177649
1.0010987
0.98967833
0.98479305
0.98515392
0.98884862
0.99494317
1.0016659
1.0143122
1.0355829
1.0694965
1.1190675
1.1731867
1.2026494
1.1840653
1.1222143
1.0522406
1.0063017
1.0008363
1.0097149
1.1320746
1.1314709
1.1226384
1.1075908
1.0868614
1.0626718
1.0377399
1.0157877
0.99867178
0.98831552
0.9843565
0.98612317
0.99248616
1.0012351
1.0126063
1.0284925
1.0507476
1.0835042
1.1273116
1.1686321
1.1886669
1.1657601
1.1129526
1.0568351
1.0226928
1.0235765
1.0243751
1.1091798
1.1068939
1.1003286
1.089927
1.0761765
1.0605101
1.0438154
1.0285081
1.0160921
1.0079414
1.0048835
1.0080979
1.0156181
1.0265788
1.0394013
1.0569353
1.0786333
1.1027284
1.1255997
1.140803
1.1397545
1.1214651
1.0959691
1.0692532
1.054039
1.0553115
1.0551498
1.0635689
1.0623242
1.0599876
1.0569384
1.0528867
1.0483562
1.0438711
1.0403769
1.0384351
1.0387885
1.0417807
1.0477965
1.0566404
1.0679111
1.0791195
1.0930469
1.106356
1.1152936
1.1143096
1.1020795
1.0871533
1.0761572
1.0733487
1.0789833
1.087988
1.0925835
1.1008205
1.0139463
1.0147429
1.0163903
1.0186717
1.0223592
1.0273195
1.0344162
1.0441578
1.0569893
1.0725485
1.0895402
1.1054042
1.1178606
1.125635
1.1291471
1.1296942
1.1247458
1.1132367
1.0937389
1.0689832
1.0491186
1.0410112
1.0514975
1.0810143
1.1147188
1.1327455
1.1535815
0.97594519
0.97662726
0.9795688
0.98466939
0.99109872
1.0005577
1.0150661
1.0358795
1.0640275
1.0993713
1.1383056
1.1727701
1.1941346
1.198394
1.1873598
1.1644362
1.1356828
1.10312
1.071261
1.0461079
1.0272415
1.0216783
1.0369633
1.0748899
1.1266302
1.1684363
1.204075
0.95831493
0.95784735
0.95919867
0.9625478
0.96830199
0.97769493
0.99447453
1.0213182
1.0606378
1.1136093
1.1763499
1.2358311
1.2729402
1.274705
1.2436499
1.1936044
1.1405818
1.0935841
1.0572714
1.0340805
1.0193932
1.0143523
1.0268286
1.0643591
1.1279563
1.194379
1.2416094
0.95549988
0.95448693
0.95448254
0.956609
0.96111138
0.97038518
0.98748393
1.0164649
1.0605829
1.1220728
1.1983883
1.2749172
1.3260394
1.3301395
1.2868854
1.2187051
1.1493704
1.0927633
1.0531395
1.0280886
1.0152381
1.0116463
1.0220041
1.0575036
1.1249301
1.2088528
1.2650259
0.96200326
0.96166703
0.96194845
0.96444126
0.96971892
0.98023354
0.99927085
1.0303143
1.0759392
1.1378342
1.2130739
1.2876229
1.3379303
1.342489
1.301098
1.23238
1.1603471
1.1000525
1.0568993
1.0300388
1.0182797
1.0150173
1.0229409
1.0575148
1.1241926
1.2172719
1.2769178
0.98261547
0.98266338
0.98285106
0.98543731
0.99145148
1.0027639
1.0234056
1.0552741
1.0994579
1.1559052
1.2201264
1.2805635
1.3189732
1.3221572
1.2884047
1.2319294
1.1684627
1.1117822
1.0676916
1.0401385
1.0271705
1.0254305
1.0351454
1.0666553
1.1311392
1.2227142
1.277948
1.0092518
1.0095742
1.0092882
1.0115425
1.0176238
1.0297956
1.051206
1.0823349
1.1229721
1.17153
1.2223162
1.264535
1.2885975
1.288558
1.2649816
1.2212423
1.1705093
1.1222404
1.0837543
1.0584156
1.04496
1.0434509
1.0536026
1.0827592
1.1440919
1.2246349
1.2652337
1.0330427
1.0337311
1.0336662
1.0359909
1.0418828
1.0535578
1.073082
1.1003943
1.1354885
1.1763791
1.2175971
1.2494895
1.2651539
1.262271
1.2427512
1.2117383
1.1746956
1.1363719
1.1031311
1.0793572
1.0684276
1.0666419
1.0764609
1.1054634
1.1529139
1.2150822
1.2424058
1.0486801
1.0492892
1.0486345
1.0497871
1.054218
1.0644104
1.0820541
1.1070677
1.139386
1.1767927
1.2140213
1.2424655
1.2558813
1.2527941
1.2364684
1.211305
1.1815377
1.150628
1.1225798
1.101534
1.090213
1.088586
1.0951803
1.1134442
1.1500918
1.1993348
1.2196901
1.0509056
1.0514304
1.0505359
1.0510387
1.0551251
1.0651957
1.0826119
1.1074402
1.1395022
1.1766662
1.2144305
1.2447688
1.2604741
1.2591034
1.2440033
1.220331
1.1929327
1.1646258
1.1387771
1.1181774
1.1050847
1.1001147
1.1003739
1.1104002
1.1394911
1.1824511
1.205493
1.0468201
1.0471485
1.0462235
1.0465182
1.0508013
1.0617225
1.0803167
1.1070163
1.1414686
1.1811021
1.2212782
1.2542209
1.2727487
1.2743278
1.2612979
1.2367024
1.20617
1.1744844
1.1461001
1.1234364
1.1073698
1.0974394
1.092879
1.1001765
1.1287157
1.1709166
1.2032006
1.0438676
1.043703
1.0427745
1.0434661
1.0487856
1.0610401
1.0811911
1.1096596
1.145617
1.1868581
1.228936
1.2644138
1.2857347
1.2892701
1.2761519
1.250785
1.2171178
1.180822
1.146913
1.1198738
1.1015244
1.0898132
1.0843508
1.0948309
1.1233662
1.1699328
1.2090688
1.0470601
1.0462336
1.0452658
1.0459666
1.0515481
1.0642189
1.0846222
1.1133978
1.1497225
1.1915529
1.2341463
1.2702734
1.292718
1.297362
1.284746
1.2589107
1.2243015
1.1860638
1.1493562
1.1183466
1.0962405
1.0843731
1.0809244
1.0926743
1.1239442
1.1717731
1.2135303
1.0550183
1.0534814
1.0527809
1.0540433
1.060383
1.0730041
1.0930557
1.1206325
1.1548637
1.1936086
1.2328389
1.2667636
1.2891629
1.2962364
1.2874497
1.2649849
1.2322602
1.1941788
1.1565419
1.1248042
1.1014122
1.087704
1.0840323
1.0948375
1.1214135
1.1633093
1.2027423
1.0692521
1.066953
1.0663266
1.0682008
1.0749395
1.0878556
1.1074589
1.133263
1.1639463
1.1967329
1.2277936
1.253439
1.2708538
1.2788493
1.2774608
1.2661742
1.2440288
1.2125366
1.1757356
1.1401896
1.1119356
1.0944126
1.0887207
1.0999025
1.1234723
1.1523311
1.1755133
1.0953384
1.0922713
1.0904596
1.0909561
1.0964577
1.1079093
1.1250769
1.1469953
1.1721385
1.1975075
1.2196204
1.2362681
1.2471258
1.2529803
1.2556112
1.2537264
1.2458816
1.2289363
1.202034
1.1696234
1.1357202
1.1098244
1.0977718
1.1034512
1.1225801
1.1415766
1.1506572
1.1340361
1.1295821
1.125267
1.1228894
1.1249779
1.1323559
1.1442556
1.1595655
1.1764806
1.1927625
1.2060697
1.2153815
1.2216383
1.2258662
1.2298571
1.234024
1.2369055
1.2347496
1.2235554
1.201508
1.1715349
1.140671
1.118713
1.1111956
1.1158975
1.1267041
1.1308101
1.1734357
1.1694388
1.1623325
1.1561174
1.1533046
1.1550014
1.160362
1.1682239
1.1771448
1.1857016
1.1928061
1.1980555
1.2022539
1.2071042
1.2136017
1.2213393
1.2284581
1.2320135
1.2297894
1.2193044
1.2026437
1.1816963
1.1577293
1.1335219
1.1158227
1.1087371
1.1027819
1.1931249
1.1904856
1.1826456
1.1745342
1.1693457
1.1678314
1.1696485
1.1740512
1.1804297
1.18844
1.1969271
1.2040615
1.2086182