/*--------------------------------*- C++ -*----------------------------------*\
| =========                 |                                                 |
| \\      /  F ield         | OpenFOAM: The Open Source CFD Toolbox           |
|  \\    /   O peration     | Version:  2406                                  |
|   \\  /    A nd           | Website:  www.openfoam.com                      |
|    \\/     M anipulation  |                                                 |
\*---------------------------------------------------------------------------*/
FoamFile
{
    version     2.0;
    format      ascii;
    arch        "LSB;label=32;scalar=64";
    class       volScalarField;
    location    "31";
    object      T;
}
// * * * * * * * * * * * * * * * * * * * * * * * * * * * * * * * * * * * * * //

dimensions      [0 0 0 1 0 0 0];

internalField   nonuniform List<scalar> 
62344
(
1.0034978
1.0021468
1.0002244
0.99855499
0.99766071
0.99697634
0.99609566
0.99529951
0.99519848
0.99500308
0.99492895
0.99539241
0.99595509
0.99670035
0.99714867
0.99745309
0.99651445
0.99651723
0.99610054
0.99650906
0.99645044
0.99719838
0.99733428
0.9982614
0.99836315
0.99854669
0.99904936
1.0002663
1.0004565
1.0007066
1.000334
1.0018428
0.99965085
1.0002415
1.0016252
0.99836827
0.99628177
0.99949051
1.0020434
1.000292
0.99488502
0.9923747
0.99598736
1.0016926
1.0036035
0.99724878
0.98720136
0.98214797
0.98446462
0.98875392
0.98971493
0.98805372
0.98502952
0.98199246
0.9809473
1.0034843
1.0021311
1.0000963
0.99841631
0.99745958
0.99686495
0.99609146
0.99536832
0.9951952
0.99510144
0.99495252
0.99532794
0.99595277
0.99674141
0.99713262
0.99712622
0.99620389
0.99693444
0.996078
0.9958979
0.99625138
0.99705512
0.99749278
0.99830442
0.99849752
0.99872227
0.99938358
1.0004601
1.0008032
1.0010693
1.0006791
1.0019455
0.9997209
1.0001877
1.0011458
0.99880673
0.99821716
1.0003615
1.0007778
0.99765964
0.99564608
0.99670947
0.99834228
1.0003281
0.99982043
0.99548006
0.98830886
0.98348367
0.98486806
0.990006
0.99309772
0.98898013
0.98170998
0.97431268
0.97150931
1.0033923
1.0020279
0.99999575
0.99846349
0.99756732
0.99675352
0.9960896
0.99534267
0.99505478
0.99497289
0.99474484
0.99518662
0.99593844
0.99655024
0.99687974
0.99649084
0.9955779
0.99646283
0.99602206
0.99585169
0.99649931
0.99672254
0.9971493
0.99806166
0.99821769
0.99863462
0.9993138
1.0003985
1.0008976
1.000971
1.0009783
1.001872
0.99966777
1.000452
1.0016957
0.99916916
0.99815985
1.0009839
1.0002207
0.99588317
0.99570349
0.99988531
1.0016118
0.99874348
0.99526764
0.99315775
0.99226694
0.99095833
0.99025826
0.99096283
0.99147537
0.98904639
0.98329501
0.97700789
0.9723238
1.0032654
1.0019021
1.0000189
0.99865222
0.99779041
0.99675255
0.99603714
0.99516208
0.99487616
0.99451556
0.99440325
0.99508612
0.99569483
0.99629445
0.99660653
0.99609277
0.99555089
0.99574599
0.99564102
0.99552745
0.99642926
0.99649107
0.99659777
0.99784742
0.99790697
0.99847523
0.99911457
0.99999671
1.0010052
1.0007129
1.001295
1.0016933
0.99966071
1.0007814
1.0017052
0.99934432
0.99836164
1.0006352
0.99981667
0.99493003
0.99499607
1.0005815
1.0033871
0.99850272
0.99189348
0.99011588
0.99414608
0.99835621
0.99818424
0.99399274
0.98849626
0.98472187
0.98325975
0.98212685
0.98079387
1.0031908
1.0018611
1.0001102
0.99872928
0.99782944
0.99678639
0.9960146
0.99505195
0.99467392
0.99423768
0.99433233
0.99492848
0.99546099
0.99622698
0.99651053
0.99594171
0.99603392
0.99573503
0.99573054
0.99546531
0.99607416
0.99645206
0.99633063
0.99763911
0.99775895
0.99846141
0.99913547
0.99975075
1.0010382
1.0005619
1.0016008
1.0013737
0.99960016
1.0010677
1.0018301
0.99970203
0.9986723
0.99977591
0.99892443
0.99544701
0.99557178
0.99995457
1.0031526
0.99924226
0.99179007
0.98924025
0.99356576
1.0003131
1.0022414
0.99683185
0.98788523
0.98132086
0.97949041
0.98206264
0.98516877
1.003205
1.0019065
1.0001345
0.99861689
0.99765467
0.9968746
0.99601011
0.99501566
0.99450622
0.99426142
0.99437156
0.99463576
0.99529715
0.99621416
0.99651194
0.9962456
0.99650682
0.99624804
0.99618348
0.99593154
0.99577216
0.9963924
0.99657661
0.99747848
0.99771304
0.99871438
0.99934922
0.99985132
1.0009855
1.0003074
1.0017322
1.0009659
0.99950467
1.001205
1.0015992
0.99981627
0.99923635
0.99896066
0.99726584
0.99640098
0.99722259
0.99944814
1.0010545
0.99906522
0.99408354
0.99182285
0.99436952
0.99859308
1.0015076
0.99769282
0.99051163
0.9831415
0.97972261
0.9811409
0.98520356
1.0032766
1.0019854
1.0000642
0.99842032
0.99748377
0.99697146
0.99592418
0.99495637
0.99445811
0.99435543
0.99428593
0.99449172
0.99527256
0.99621044
0.99658334
0.99669801
0.99658012
0.99653322
0.99632115
0.99636002
0.99580816
0.99623857
0.99691513
0.99743777
0.99771388
0.99894114
0.99951581
1.0000934
1.0009707
1.0000944
1.0016871
1.0005262
0.99956105
1.0014305
1.0012248
0.99969687
0.9999335
0.99879424
0.99573429
0.99619392
0.99892901
0.99958363
0.99826326
0.99655552
0.99600737
0.99611897
0.9973953
0.99746106
0.99730253
0.99543324
0.99247728
0.98879215
0.98539151
0.98508188
0.98625138
1.0033379
1.0020498
0.99994297
0.99830492
0.99746448
0.99701327
0.99582551
0.99493223
0.99461327
0.9945275
0.9942153
0.9946713
0.99539632
0.99633115
0.99669398
0.99689511
0.99638794
0.99657532
0.99609673
0.99632143
0.99604714
0.99608829
0.99680726
0.99733413
0.99766621
0.9989064
0.9993882
1.000151
1.0008667
1.0000388
1.0015724
1.0000884
0.99964592
1.0016909
1.0009926
0.99945373
1.0005373
0.99940834
0.99518517
0.99497545
0.99927283
1.0001593
0.99650219
0.99306751
0.99503765
0.99882136
1.0002618
0.99759446
0.9934856
0.98998377
0.99038762
0.99113304
0.99196249
0.99224554
0.99123135
1.0033624
1.0020598
0.99986123
0.99832741
0.9975889
0.99700013
0.99588969
0.99504949
0.99492878
0.99468295
0.994393
0.99481686
0.99549199
0.99641106
0.9966602
0.99664184
0.99598892
0.99642286
0.99578499
0.99581574
0.99615219
0.99592975
0.99624231
0.99699359
0.99755758
0.99865075
0.99893512
0.99994594
1.0005726
1.0000759
1.001461
0.99968976
0.99963533
1.0018053
1.0008982
0.99923508
1.0008525
1.0003389
0.99565812
0.99412424
0.99822954
1.0004721
0.99615055
0.99132508
0.9924642
0.99835149
1.0015555
0.99897562
0.99234431
0.98618189
0.9853331
0.98923023
0.99322626
0.99677835
0.99676024
1.0033534
1.0020055
0.99989319
0.9984528
0.99778282
0.99693934
0.99604799
0.99524519
0.99511704
0.99464704
0.99464883
0.99470649
0.99558607
0.99634743
0.99646179
0.99621241
0.9955452
0.99606056
0.99551755
0.99509057
0.99601184
0.99579018
0.99559288
0.99646175
0.99734624
0.99832586
0.99840344
0.99961
1.0000756
1.0000717
1.0013311
0.9993893
0.99969512
1.0018236
1.0007815
0.99915593
1.0008517
1.001069
0.99668897
0.99436143
0.99696148
0.999784
0.99674889
0.99184907
0.99144718
0.99602198
1.0010107
1.0002664
0.99374872
0.98642723
0.98330627
0.98594917
0.99166273
0.99690166
0.99941256
1.0032999
1.0019246
1.0000089
0.99866179
0.99795913
0.99695742
0.99620864
0.99541493
0.99502195
0.99443495
0.99457646
0.99453051
0.99563581
0.99621072
0.99624787
0.99587
0.99524504
0.99554728
0.9952409
0.99453473
0.99561575
0.99560404
0.99526526
0.99605036
0.99706354
0.9980603
0.99806325
0.99937851
0.99957296
1.0000386
1.0011788
0.99928731
0.99987669
1.0018154
1.0006843
0.99928936
1.0007042
1.0011694
0.99776607
0.99555292
0.99662876
0.99815309
0.99719386
0.99357945
0.99264241
0.99471026
0.99866734
0.99982268
0.9955211
0.98956786
0.98528161
0.98573045
0.98957548
0.99477128
0.99831725
1.0032464
1.0018954
1.0001321
0.99886175
0.99807461
0.9970456
0.99635902
0.99544762
0.99480213
0.99435507
0.99422227
0.99446182
0.99546669
0.99602786
0.99612123
0.99570305
0.99522869
0.99519085
0.99505808
0.99444059
0.99514881
0.99542443
0.99527671
0.99591559
0.99682406
0.99783025
0.99798881
0.99937261
0.99926119
1.0000076
1.001019
0.99936092
1.0001446
1.0016832
1.0005239
0.99957531
1.0006845
1.0006383
0.99838403
0.99708633
0.99730175
0.99680682
0.99637691
0.99555431
0.9949073
0.99558578
0.99646197
0.99724319
0.99574069
0.99322497
0.98997432
0.98863233
0.98996947
0.99253153
0.99550299
1.0032077
1.0019272
1.0002537
0.99902331
0.99815968
0.99717598
0.99647401
0.99538979
0.99470739
0.99447901
0.99390685
0.99448871
0.99522602
0.99594962
0.99611735
0.99565743
0.99547372
0.99516487
0.99506362
0.99482292
0.99491016
0.99534099
0.99548388
0.99599582
0.99666368
0.99757634
0.99811438
0.99959701
0.99925908
1.0000208
1.0008265
0.99943202
1.0003948
1.0014456
1.0001992
0.99979364
1.0007512
0.99980802
0.99812907
0.99845028
0.99843833
0.99626294
0.99446159
0.99567546
0.99717119
0.99742663
0.99602397
0.99391108
0.99345591
0.99427609
0.99404004
0.99307678
0.99254244
0.99213944
0.99229035
1.0031908
1.0019792
1.0003205
0.9990917
0.99820908
0.9973877
0.99653571
0.99532404
0.9948072
0.99459535
0.99388275
0.99454463
0.99502421
0.99598179
0.99622879
0.99571425
0.99587433
0.99552001
0.99529604
0.99548478
0.99505136
0.9954013
0.99572681
0.9961865
0.99657014
0.99738473
0.99828047
0.99990153
0.99947291
1.0001274
1.0006362
0.99948115
1.0005682
1.001163
0.99977621
0.99982786
1.0009042
0.99911028
0.99732447
0.9989975
0.99964197
0.9967077
0.99286756
0.99398753
0.9978556
0.99919164
0.99668929
0.99210747
0.98981615
0.99226417
0.995015
0.99673367
0.99605417
0.99361585
0.99066788
1.003191
1.0020432
1.0003135
0.99904374
0.99823319
0.99757836
0.99658197
0.99535289
0.9949853
0.99468079
0.99415441
0.99458461
0.99500853
0.9960167
0.99637278
0.99588904
0.99628268
0.99601348
0.99557957
0.99604901
0.99543946
0.9955176
0.99595015
0.99630423
0.99653551
0.99728447
0.99836588
1.000113
0.99969747
1.0002618
1.0004453
0.99956368
1.0007283
1.0009653
0.99939227
0.99976381
1.0011475
0.99884877
0.996466
0.99877363
1.0007905
0.99779767
0.99242364
0.99177378
0.99669588
1.0000989
0.99786221
0.99229297
0.98734326
0.98877604
0.99335342
0.99768009
0.99911684
0.99619381
0.99145922
1.003203
1.0020859
1.0002657
0.99893327
0.99824188
0.99773235
0.99660465
0.99548578
0.99513421
0.99467336
0.99450854
0.9946128
0.99514328
0.99602108
0.99645634
0.99613542
0.9965215
0.99636333
0.99577296
0.99627029
0.99582399
0.99571414
0.99606661
0.9963146
0.99654929
0.99728815
0.99844106
1.0001887
0.99985202
1.0003732
1.0002179
0.99960474
1.0008716
1.000895
0.9991627
0.99966057
1.0013723
0.99901917
0.99604592
0.99821073
1.0014451
0.99906626
0.99314157
0.99047974
0.99464396
0.99963415
0.99907938
0.99351442
0.98728727
0.98610681
0.99076217
0.99646916
1.000285
0.99898111
0.99408203
1.0032108
1.0021077
1.0002132
0.99882566
0.99822014
0.99780625
0.99660347
0.99561941
0.99522968
0.9946456
0.994726
0.99462976
0.99526106
0.99601581
0.99646931
0.99635587
0.99655696
0.99651567
0.99587864
0.99610028
0.99608077
0.99590341
0.99602153
0.99623552
0.99654643
0.99738943
0.99852597
1.000123
0.99994376
1.0004002
1.0000203
0.99960499
1.0009622
1.000987
0.9991666
0.99964385
1.0015303
0.99945398
0.99617109
0.99772713
1.0015919
1.0002731
0.9944752
0.9906321
0.99288005
0.99790334
0.99951621
0.9950764
0.98885273
0.98586772
0.98862472
0.99431039
0.99945737
1.0005735
0.9971616
1.0032177
1.0021151
1.0001886
0.99877889
0.99818991
0.99779772
0.9965946
0.99572412
0.99528438
0.99466994
0.9947626
0.99465131
0.99526567
0.99603914
0.99649176
0.99649573
0.99647008
0.99653709
0.99595074
0.99575244
0.99621613
0.99604318
0.9958689
0.99609581
0.99648445
0.99752456
0.99862671
1.0000094
0.9999913
1.0003509
0.99986053
0.99957167
1.0010073
1.0011599
0.99940715
0.99973972
1.0016236
0.99999464
0.99685334
0.99767347
1.0012249
1.0011547
0.99602324
0.99192115
0.99240033
0.99599607
0.99879835
0.99641999
0.99107643
0.9874432
0.98813554
0.99229783
0.99752734
1.0004803
0.99927961
1.0032194
1.0021223
1.0001904
0.99879451
0.99817361
0.99775388
0.99661695
0.99579612
0.9952979
0.99475522
0.99468968
0.99472127
0.99521697
0.99610773
0.99654305
0.99655733
0.99633471
0.99650272
0.99602788
0.99543128
0.99625748
0.99612823
0.99566207
0.99590543
0.99636377
0.99762767
0.99870514
0.99989038
1.0000404
1.0003013
0.99981345
0.99956778
1.0009874
1.0013545
0.99981986
0.99996747
1.0015963
1.0003943
0.99773644
0.99806585
1.0007234
1.0013727
0.99749163
0.99382467
0.99315669
0.99491212
0.99729643
0.99689511
0.99326674
0.9898964
0.98916605
0.99152544
0.99544593
0.9990615
0.99977419
1.0032223
1.0021359
1.0002173
0.99886372
0.99818581
0.99771874
0.9966715
0.99583126
0.99532369
0.99487141
0.99455994
0.99480687
0.99516293
0.99618215
0.99657835
0.99652894
0.9961991
0.99644652
0.99608322
0.99525016
0.99621553
0.99613304
0.99548697
0.99572629
0.99620699
0.99758653
0.99870516
0.99977508
1.0000774
1.0002391
0.99988762
0.99960747
1.0009274
1.00147
1.0002762
1.0003119
1.0014457
1.0005553
0.99864581
0.99879328
1.0004306
1.0008771
0.99849217
0.99575163
0.9946601
0.99479276
0.99576993
0.99592536
0.99479722
0.99234942
0.9910788
0.99195104
0.99407608
0.99676605
0.99860884
1.0032206
1.0021489
1.000262
0.99895823
0.99824105
0.99772007
0.99674411
0.99584068
0.99534939
0.99496186
0.99444212
0.99483688
0.99513171
0.99623335
0.99656859
0.99641855
0.99607801
0.9963435
0.99601952
0.99516278
0.99602922
0.99602053
0.9953448
0.99558701
0.99600252
0.99741874
0.99854291
0.99956315
1.0000412
1.0000741
0.99989404
0.99961444
1.0007664
1.0014097
1.0006335
1.0006494
1.0011472
1.0002956
0.99929311
0.99964712
1.0003182
0.99998851
0.99867952
0.99742008
0.99642313
0.99545028
0.99448371
0.99405521
0.99476868
0.99427058
0.99326499
0.99318021
0.99364955
0.99462914
0.99604809
1.0032251
1.0021506
1.0003107
0.99904392
0.998315
0.99774261
0.99680986
0.99580545
0.99536268
0.99500193
0.99437908
0.9947927
0.99512965
0.99620654
0.9965117
0.99623266
0.99594567
0.99614853
0.99578927
0.9950844
0.99568653
0.99579863
0.99520068
0.9955363
0.99576648
0.99709379
0.99821187
0.99924537
0.99992418
0.99979877
0.99983793
0.99953908
1.0004465
1.0011482
1.0007484
1.0008513
1.000757
0.99973396
0.99943598
1.0003326
1.0003914
0.99891882
0.99796069
0.99839406
0.99803264
0.9966924
0.99381431
0.99208775
0.99329447
0.99489159
0.99512646
0.9948081
0.99418827
0.99300265
0.99329476
1.003219
1.002143
1.0003521
0.99911421
0.9984111
0.99774384
0.99684544
0.9957352
0.99532938
0.9949425
0.99435556
0.99464459
0.99508782
0.99605611
0.99634638
0.99594819
0.99574859
0.99585783
0.99534106
0.99489369
0.99519414
0.99537085
0.9949976
0.9954425
0.99548038
0.9966006
0.99772636
0.99880414
0.99965107
0.99934402
0.99957324
0.99927555
1.0000011
1.0006065
1.0006093
1.0008895
1.0003526
0.99893032
0.99911211
1.0007164
1.0005393
0.99808173
0.99690779
0.998489
0.99928827
0.99801281
0.99383603
0.99057491
0.99126297
0.99413109
0.99612286
0.99633398
0.99514057
0.99248566
0.99125928
1.0032073
1.0021208
1.000367
0.9991509
0.99848182
0.99770402
0.99678728
0.99559587
0.99520218
0.99475199
0.9942625
0.99433127
0.99492745
0.99576398
0.99605242
0.99561484
0.99552651
0.99548099
0.99480426
0.99464621
0.99460025
0.99484332
0.99467836
0.99530266
0.99512251
0.99606914
0.99718884
0.99834751
0.99944133
0.9989124
0.99923119
0.99899464
0.99955834
1.0000324
1.0002203
1.0008289
1.0000228
0.99815476
0.99846953
1.0007971
1.0007484
0.99767626
0.99586231
0.997958
1.0000668
0.99921258
0.99457628
0.98984833
0.98948093
0.99265872
0.99607603
0.99747468
0.99604048
0.9927696
0.99024993
1.0031431
1.0020486
1.0002896
0.99907679
0.99843754
0.99754985
0.99661007
0.99532719
0.99492955
0.9944043
0.99400559
0.99384327
0.99463234
0.99535327
0.99567109
0.99527149
0.99525654
0.99514053
0.99423908
0.99433685
0.99402222
0.9942256
0.99430793
0.99504044
0.99472235
0.99547024
0.99656363
0.99775452
0.99910776
0.99856993
0.99889332
0.99868333
0.99914765
0.99946627
0.99976302
1.0005852
0.99979616
0.9975432
0.99775002
1.0005934
1.0009654
0.99754332
0.99501357
0.99721362
1.0004474
1.000281
0.99558675
0.989949
0.98832286
0.99132196
0.99579796
0.99846717
0.99745991
0.99330145
0.98985575
1.002825
1.0017796
1.0000045
0.99873899
0.99812093
0.99717952
0.99616315
0.99487681
0.99448771
0.9939249
0.9936201
0.9932562
0.99421789
0.99487329
0.99522734
0.99491031
0.99503384
0.99486937
0.99381972
0.99413256
0.9936483
0.99375494
0.99393911
0.99475421
0.99436893
0.99494499
0.99600257
0.99726313
0.99889566
0.99832197
0.99862424
0.99845743
0.99895614
0.99921498
0.99939471
1.0003242
0.99964171
0.99715464
0.99709588
1.0002175
1.0011657
0.99758846
0.99448584
0.99628806
1.0005179
1.0014421
0.99679253
0.99050524
0.98733708
0.99001445
0.99526336
0.99991492
0.99977545
0.99574874
0.99072251
1.002047
1.0012519
0.99963523
0.99825964
0.99763401
0.996729
0.99570767
0.99442862
0.99405054
0.99349114
0.99325718
0.99279479
0.9938207
0.99440354
0.99480099
0.99454205
0.99481967
0.99470842
0.99362975
0.99407711
0.99353552
0.99356567
0.99375827
0.99456001
0.99410819
0.9945734
0.99556685
0.99667953
0.99846164
0.99811225
0.99840514
0.99822309
0.99872882
0.99910936
0.99931518
1.0002015
0.99975812
0.99730635
0.99682797
0.99986965
1.0011201
0.99798595
0.99473629
0.99540882
1.000023
1.0019263
0.99849484
0.99237503
0.98800905
0.98890482
0.99371368
0.9991512
1.0009079
0.9984586
0.99385474
0.98905606
0.98744053
0.988539
0.9902174
0.99211545
0.99463808
0.99702974
0.99817538
0.99727446
0.99404256
0.98995008
0.98659182
0.98566317
0.98803304
0.99264797
0.99630924
0.99794428
0.99671731
0.99331567
0.99063472
0.99010499
0.99079943
0.98914378
0.98140898
0.97082285
0.97117944
0.97829803
0.99177951
0.99284329
0.99444552
0.99515057
0.99612143
0.99710389
0.99697767
0.99525311
0.99212394
0.98815584
0.98462509
0.98303545
0.98432309
0.98770162
0.99114441
0.99231415
0.99051275
0.98692533
0.98548339
0.98730739
0.99077376
0.99249658
0.99084239
0.98393862
0.97631004
0.97640529
0.97801671
1.00041
1.0020823
1.0012131
0.99978038
0.99893212
0.99807967
0.99704216
0.99521155
0.9925537
0.98959884
0.98763192
0.98746031
0.98910746
0.9908388
0.99126143
0.98870698
0.98353757
0.97905875
0.97897392
0.98285325
0.98574882
0.98589597
0.98382593
0.98251132
0.98226631
0.9838992
0.98024086
1.0056456
1.0048105
1.0011443
0.99908472
0.99840989
0.99827624
0.99798256
0.99724683
0.9966078
0.99626369
0.99592597
0.99568895
0.99569954
0.99487564
0.99262973
0.98841728
0.98307275
0.97978135
0.98006557
0.98205043
0.98114812
0.97625416
0.97302389
0.97622407
0.98158503
0.98552667
0.98146718
1.0000429
0.99733274
0.99437168
0.9935749
0.99412176
0.99537806
0.997058
0.99949706
1.0014886
1.0018148
1.0010743
0.99939706
0.99723363
0.99525433
0.99333193
0.99053751
0.98814988
0.98673029
0.98670421
0.9864893
0.9818104
0.97251799
0.96805431
0.97116781
0.97476068
0.9751677
0.97460749
0.99272702
0.98953796
0.98791973
0.98868726
0.99062763
0.99323688
0.99626945
0.99881413
1.0000799
0.99935107
0.99698399
0.99349115
0.99085986
0.98965797
0.98971384
0.9906212
0.99176063
0.99253096
0.99298101
0.99100141
0.98566804
0.97744377
0.97257622
0.97283507
0.96924556
0.96011407
0.96086745
0.99031304
0.9894713
0.99005918
0.99182361
0.99343087
0.99495548
0.9963494
0.99702382
0.99598715
0.99282686
0.98839112
0.98417482
0.98157273
0.98161558
0.98390492
0.98655531
0.98817284
0.98899846
0.98939783
0.98927854
0.98818113
0.98488852
0.98200843
0.97954873
0.97031536
0.95178705
0.95105538
0.99738993
0.99742083
0.99733128
0.99705699
0.99666777
0.99664945
0.99686102
0.99649821
0.99443387
0.99028443
0.98538088
0.98108976
0.97889091
0.97917089
0.98059574
0.98125137
0.98031963
0.97821752
0.97717364
0.97973991
0.98406266
0.98701352
0.987076
0.98534795
0.97451517
0.95604475
0.95280386
1.0044186
1.0042434
1.0023697
0.99987296
0.99797906
0.99725833
0.99730161
0.99679224
0.99440054
0.99092019
0.98751609
0.98500932
0.98379401
0.98366961
0.98309651
0.98080021
0.97605085
0.97041207
0.96850012
0.97114262
0.97719682
0.98006178
0.97932078
0.97880352
0.97476646
0.96669459
0.9647383
1.0034714
1.001557
0.99838729
0.99567454
0.9949258
0.99569233
0.99686493
0.99729428
0.99629728
0.99466818
0.9926503
0.99064257
0.98898832
0.98777322
0.98620355
0.98309637
0.97802685
0.9725442
0.97020953
0.97268442
0.97525519
0.97245024
0.9642513
0.96022291
0.96579154
0.97300933
0.97966043
0.99554107
0.99331668
0.98990649
0.98796713
0.988327
0.99027069
0.99335972
0.99583547
0.99683512
0.99639049
0.9947863
0.9922356
0.98947327
0.9870072
0.98486838
0.98290481
0.98048654
0.97868716
0.97867155
0.98065141
0.98041042
0.97145998
0.95483043
0.94723143
0.95554827
0.96906907
0.98132024
0.98819647
0.98568932
0.98323788
0.98313013
0.98547801
0.98912165
0.9923271
0.99367838
0.9932546
0.99131252
0.98836091
0.98471123
0.98134364
0.97928916
0.97872619
0.97933699
0.98096223
0.98269561
0.98426341
0.98630149
0.98443832
0.97447742
0.95761941
0.94984776
0.95714743
0.96438521
0.96433658
0.98704591
0.98569589
0.98475045
0.98575485
0.98817664
0.99065294
0.99178844
0.99135293
0.98916848
0.98522955
0.98017385
0.97461227
0.97011107
0.96851894
0.97019928
0.97469196
0.9789801
0.98062206
0.98020786
0.98054331
0.97892908
0.97350129
0.96533951
0.96299265
0.96829344
0.96677638
0.94593935
0.99381786
0.99310978
0.99140376
0.99118805
0.99162619
0.99153877
0.99033452
0.98792411
0.98433287
0.98005183
0.97452523
0.96907629
0.96550973
0.96533973
0.96838677
0.9724927
0.97448662
0.972669
0.96808242
0.96499987
0.96430242
0.96648022
0.96946288
0.97468365
0.98063348
0.97139542
0.94005345
1.0004107
0.99920019
0.99637426
0.99446187
0.99284014
0.9907994
0.98834369
0.9854158
0.98157956
0.97692127
0.97178616
0.96792146
0.96655061
0.96838761
0.97220966
0.97483271
0.97225851
0.96399474
0.95378884
0.94859145
0.95147528
0.95952707
0.96786078
0.97392416
0.97919758
0.96958878
0.94670112
0.99819683
0.99567694
0.99245523
0.99002192
0.98845291
0.98698634
0.98548212
0.98371415
0.98146213
0.9786882
0.97545493
0.97282919
0.97175568
0.97273843
0.97464994
0.97392398
0.96870469
0.95831986
0.94698061
0.94302219
0.94875416
0.95956342
0.96544695
0.96284112
0.95932169
0.95607326
0.95233092
0.98760786
0.98518485
0.98175117
0.97948556
0.97836719
0.97833475
0.97945924
0.98123284
0.98261213
0.9824534
0.98098712
0.97875622
0.97684927
0.97554502
0.9734964
0.96921215
0.96168556
0.95221898
0.94580577
0.94715485
0.95602151
0.96535484
0.96516256
0.95091861
0.93741023
0.93925901
0.94662313
0.97576295
0.9730218
0.96999103
0.96864411
0.96941078
0.97178662
0.97521363
0.9789339
0.98185899
0.98272708
0.9810495
0.97757854
0.97331722
0.96938908
0.96610892
0.96198757
0.95700105
0.95192578
0.9494921
0.95324558
0.96323696
0.97093431
0.96471127
0.94335519
0.92579464
0.92946086
0.93926414
0.96785848
0.96603381
0.96443652
0.96478872
0.96728481
0.97120075
0.97570754
0.97946064
0.98066961
0.9781069
0.97250058
0.96552426
0.95885552
0.95433545
0.95221358
0.95214562
0.95410251
0.95577157
0.95771754
0.96162931
0.96668772
0.9681653
0.95767614
0.93864434
0.92577635
0.92941938
0.94126463
0.97016707
0.96951186
0.9690434
0.97012668
0.97265587
0.97542603
0.97741187
0.97738005
0.97470335
0.96901339
0.96060358
0.95091741
0.9425754
0.93820305
0.93899039
0.94402697
0.95100889
0.95736033
0.96179073
0.96402247
0.96481013
0.95985887
0.94884574
0.935692
0.9285851
0.93486759
0.951267
0.98316806
0.98221987
0.98021832
0.97899572
0.97827784
0.9774322
0.97568193
0.97240431
0.9665989
0.95850695
0.94905959
0.93974694
0.93336847
0.93164413
0.93493628
0.94183863
0.95030374
0.95601581
0.95653541
0.95405117
0.95038795
0.9475856
0.9440317
0.93855263
0.9338524
0.9423252
0.96130363
0.99309107
0.99153069
0.98751358
0.98400913
0.98074826
0.9773105
0.97322211
0.96791298
0.9610865
0.95284866
0.94423206
0.93717093
0.93289437
0.93317977
0.93857642
0.94623192
0.95181981
0.95119051
0.9438042
0.93411764
0.92881672
0.93163879
0.9389628
0.94325969
0.94410634
0.95291856
0.96328548
0.98684461
0.9842579
0.98080472
0.97793683
0.97562393
0.97326801
0.9706535
0.96716068
0.96231486
0.95616513
0.94946364
0.94351717
0.94012536
0.94124006
0.94604617
0.95032173
0.94977209
0.94266349
0.92909732
0.91502153
0.91085944
0.91807546
0.93103962
0.94353382
0.95365998
0.96068263
0.95564225
0.96819285
0.96612294
0.96265847
0.96065672
0.9605812
0.96193004
0.96402868
0.96577197
0.96620685
0.96424094
0.96011112
0.95537544
0.95174261
0.95097579
0.95122847
0.94928347
0.94346682
0.93203425
0.91760866
0.90495414
0.9027975
0.91095754
0.92519182
0.94218245
0.95506076
0.95566667
0.93965077
0.9479324
0.94593679
0.94397392
0.94393064
0.94600841
0.94975207
0.95505503
0.96087874
0.96569953
0.96827073
0.9676815
0.96368657
0.95827484
0.9532985
0.94900613
0.94367466
0.93559295
0.92448255
0.91201577
0.90414858
0.90338917
0.91166226
0.9262181
0.94168178
0.94628161
0.93639265
0.91818448
0.93531079
0.93398689
0.93350994
0.93513162
0.93931649
0.94542776
0.95269394
0.95977405
0.96473692
0.96599907
0.96245738
0.95545585
0.94744334
0.94087018
0.93719195
0.93362715
0.92910734
0.92264873
0.91549986
0.9095332
0.90940251
0.91819176
0.93229678
0.93987011
0.93126275
0.90957953
0.8994314
0.93615037
0.93595869
0.93707245
0.93978356
0.94439415
0.95054156
0.95686456
0.96125243
0.96161288
0.95686071
0.94691252
0.93392775
0.92252499
0.91589414
0.91496146
0.91776461
0.92122658
0.92368014
0.92292314
0.91978202
0.92101725
0.92887668
0.93681769
0.9331873
0.91274762
0.88649659
0.8864755
0.95133124
0.951409
0.95196637
0.953529
0.95624937
0.95882319
0.95962503
0.95749393
0.95077598
0.94006062
0.92617608
0.91131293
0.89877882
0.89182045
0.89288369
0.89951529
0.91042683
0.9210827
0.92765228
0.9307548
0.9338969
0.9384932
0.93603801
0.9207152
0.8956663
0.87415051
0.87849657
0.97136551
0.97009604
0.96836613
0.96635593
0.96408725
0.9612382
0.95672837
0.94921878
0.93858825
0.92494363
0.90960524
0.89507405
0.88333287
0.87797261
0.88029206
0.88812944
0.90061695
0.91437624
0.92657346
0.93547824
0.94023288
0.94007192
0.92910917
0.90819289
0.88522097
0.87118303
0.87376797
0.9800794
0.9777772
0.9744098
0.9704513
0.96601454
0.96031097
0.95302411
0.94307996
0.93093501
0.91674696
0.90164461
0.88722733
0.87665324
0.87242195
0.87578245
0.88397726
0.89608056
0.90949456
0.92150903
0.92925658
0.93271544
0.92921755
0.91801996
0.900009
0.88251729
0.87396584
0.87304123
0.97246099
0.97027954
0.96787181
0.96495705
0.96163263
0.95705701
0.95080925
0.94182082
0.93003049
0.91538077
0.89965934
0.88511715
0.87477536
0.87095572
0.87511368
0.88383451
0.89590198
0.90705559
0.91360516
0.91477269
0.91251863
0.90896642
0.90407955
0.89611296
0.88612736
0.87961339
0.87638326
0.95704897
0.95482002
0.95345184
0.95280594
0.95229225
0.9510588
0.94830228
0.94219204
0.93179411
0.91746601
0.90111412
0.88597238
0.87550105
0.87226506
0.87680592
0.88572857
0.89636692
0.90316833
0.90297444
0.89531683
0.88785023
0.88566028
0.88937885
0.89277513
0.89140264
0.88631412
0.88326056
0.93457186
0.93413945
0.93452214
0.9362253
0.93895075
0.94202584
0.94308004
0.94069236
0.93331103
0.92062351
0.90453237
0.88907027
0.87827796
0.87516513
0.8795319
0.88764529
0.89472976
0.89584248
0.88886301
0.87575377
0.86506636
0.86496893
0.87472716
0.88799384
0.89532556
0.89326106
0.89214917
0.91115385
0.9119446
0.91386982
0.91704709
0.9222651
0.92811717
0.93286647
0.93433924
0.93095014
0.92140797
0.90708822
0.89231384
0.88217791
0.87978494
0.88413373
0.88961139
0.89110328
0.88514165
0.87246748
0.85761901
0.84791417
0.84921328
0.8618111
0.88078356
0.89525133
0.89869063
0.9013619
0.89179057
0.89316845
0.89548776
0.89928332
0.90486809
0.91196888
0.91828343
0.92226898
0.92196594
0.91604531
0.90507475
0.89346543
0.88630313
0.88575735
0.88895739
0.8899835
0.88510094
0.87296113
0.8575929
0.8438927
0.83581645
0.8376154
0.85045171
0.87127257
0.89114974
0.90150351
0.90826135
0.87542645
0.87733488
0.88053509
0.88481525
0.89119539
0.8985429
0.90506286
0.90898017
0.90895418
0.90452409
0.89655528
0.88945264
0.88739896
0.88976464
0.89250355
0.88985349
0.87863254
0.86242746
0.84539118
0.8321153
0.82553036
0.82852586
0.84153871
0.86225937
0.88533513
0.90201118
0.91249795
0.86300993
0.86536329
0.86983416
0.8754806
0.88275198
0.89021361
0.89623913
0.89890293
0.8975679
0.89207453
0.8846889
0.88020616
0.88161101
0.88654348
0.88994095
0.88571337
0.87188971
0.85368192
0.83624173
0.82337603
0.81864629
0.8225895
0.83502144
0.85567982
0.87952352
0.90152314
0.91490065
0.85665064
0.85911091
0.86445385
0.87107705
0.87874906
0.88626788
0.89123915
0.8925113
0.88955734
0.88209449
0.87317419
0.86832137
0.86973458
0.87546559
0.88026533
0.87716849
0.86452386
0.84665232
0.82968878
0.81771264
0.81388882
0.8189135
0.83219116
0.8526665
0.87671711
0.90133906
0.91530697
0.85397218
0.85631255
0.86215544
0.86926174
0.87736134
0.88478846
0.88897855
0.88920529
0.88461821
0.87522591
0.86394602
0.85620612
0.85500758
0.86022031
0.86601602
0.86476142
0.85515808
0.84061162
0.82554327
0.81508621
0.81197772
0.81797318
0.83239607
0.85208775
0.87664853
0.9007614
0.91212368
0.85165108
0.85404711
0.86043413
0.86829443
0.87664085
0.88340595
0.88651191
0.88537754
0.87915411
0.86820737
0.85522593
0.84539287
0.84211334
0.84568382
0.85127995
0.85251929
0.84655948
0.83525307
0.82283647
0.8140483
0.81237371
0.8189012
0.83333648
0.85407105
0.87658956
0.89761271
0.90597428
0.84939269
0.85153281
0.85772436
0.86551141
0.87359414
0.8795646
0.8816332
0.87938843
0.87229326
0.86100377
0.84807767
0.83817391
0.8344919
0.83700005
0.84183509
0.8433741
0.83928284
0.83069523
0.82089607
0.81405788
0.81336761
0.82100282
0.83557465
0.8537539
0.87347212
0.8916775
0.89857662
0.8470716
0.84892682
0.85464287
0.8620545
0.86937336
0.87429752
0.87542907
0.87239431
0.86498539
0.85435184
0.84296194
0.83480399
0.83235572
0.83439229
0.83762689
0.83799826
0.83388263
0.82638258
0.81839773
0.81374504
0.81446172
0.82229658
0.83516837
0.85075272
0.8683368
0.88504945
0.89317654
0.84491578
0.8465613
0.85170606
0.85854543
0.86499265
0.86884374
0.86927
0.86581549
0.85882126
0.84955224
0.8402139
0.8338968
0.8322922
0.83413522
0.83604793
0.83481102
0.82981947
0.82256834
0.81569236
0.81236339
0.81355512
0.82061984
0.83226246
0.84644452
0.86327351
0.87942819
0.89003697
0.84521845
0.84682477
0.85139351
0.85738892
0.8625796
0.86525432
0.86473694
0.86066641
0.85375735
0.84537646
0.8374877
0.83252971
0.83149329
0.8326939
0.83317479
0.83091093
0.8257954
0.81899354
0.81286656
0.80983802
0.81164995
0.81846019
0.82942825
0.84439326
0.86073933
0.87733188
0.88909142
0.8483108
0.8499428
0.85375724
0.85846572
0.86202359
0.86292346
0.86083823
0.8556232
0.84825812
0.84003566
0.83278851
0.82841563
0.82732432
0.82786401
0.8276712
0.82534605
0.82099816
0.81567468
0.81107695
0.80889468
0.81077468
0.81766213
0.82917567
0.84396761
0.85995703
0.87576119
0.88711294
0.8522895