/*--------------------------------*- C++ -*----------------------------------*\
| =========                 |                                                 |
| \\      /  F ield         | OpenFOAM: The Open Source CFD Toolbox           |
|  \\    /   O peration     | Version:  2406                                  |
|   \\  /    A nd           | Website:  www.openfoam.com                      |
|    \\/     M anipulation  |                                                 |
\*---------------------------------------------------------------------------*/
FoamFile
{
    version     2.0;
    format      ascii;
    arch        "LSB;label=32;scalar=64";
    class       volVectorField;
    location    "31";
    object      U_0;
}
// * * * * * * * * * * * * * * * * * * * * * * * * * * * * * * * * * * * * * //

dimensions      [0 1 -1 0 0 0 0];

internalField   nonuniform List<vector> 
62344
(
(0.086232058 -0.0013692573 -1.0177402e-21)
(0.08361608 -0.0027281711 -5.2881801e-22)
(0.089988856 -0.0030460951 -1.0944859e-21)
(0.087513674 -0.0031967982 5.7312742e-22)
(0.084911654 -0.0031185583 0)
(0.083075793 -0.0022036726 2.4660001e-21)
(0.08205814 -0.0014142217 -2.5714576e-21)
(0.081873645 -0.0011339179 1.334955e-21)
(0.081322403 -0.0010911113 0)
(0.080474814 -0.00042817125 0)
(0.079126212 -0.00046211987 6.0173257e-21)
(0.076135171 0.0007262373 -1.2907146e-20)
(0.072309188 0.0013936268 3.9230931e-22)
(0.068535298 0.0029789077 1.3981647e-20)
(0.065244349 0.004228819 -7.0521254e-21)
(0.063477358 0.0055374748 6.8716897e-21)
(0.062701608 0.0052518415 -7.6445742e-21)
(0.061642099 0.0062401484 0)
(0.060594578 0.0070973826 0)
(0.059974007 0.0061282026 -5.3507601e-22)
(0.059126207 0.007448867 -2.785507e-22)
(0.057799203 0.0074856506 2.9055305e-22)
(0.056798469 0.0076513959 6.048326e-22)
(0.055897369 0.007854259 -2.0140314e-20)
(0.056076199 0.0077449105 2.0924086e-20)
(0.056684513 0.0071692782 0)
(0.056656356 0.0076460227 0)
(0.056243433 0.0086569107 -1.8475158e-22)
(0.055739488 0.0087460767 -2.4587248e-20)
(0.057114289 0.0080394612 2.5733033e-20)
(0.057569121 0.0062318788 2.6871714e-20)
(0.057503044 0.0063153746 -2.7535264e-20)
(0.060917174 0.0032569496 -2.246461e-22)
(0.06144764 0.0021453809 3.0028296e-20)
(0.059012654 0.0039112371 -3.0701865e-20)
(0.062555286 -0.00057312368 -2.5222189e-22)
(0.066981543 -0.0072340822 -3.3897017e-20)
(0.064054781 -0.0053930348 6.9931269e-20)
(0.058478477 -0.00054944367 -7.2911598e-20)
(0.058221407 -0.0035745516 2.2654889e-22)
(0.064340055 -0.014213408 2.8333141e-22)
(0.069492248 -0.020300703 8.1052648e-20)
(0.066617633 -0.016995218 -4.2088612e-20)
(0.058607354 -0.011050717 0)
(0.054231963 -0.010572112 -4.5976255e-20)
(0.061715599 -0.019569096 9.4962192e-20)
(0.076166953 -0.032834007 -9.1921356e-22)
(0.083689206 -0.041597701 -1.0241155e-19)
(0.077865607 -0.041551548 5.2677118e-20)
(0.068861466 -0.036824859 0)
(0.067568648 -0.032035209 0)
(0.073844611 -0.03141756 5.894888e-20)
(0.082751153 -0.036533681 -6.2448549e-20)
(0.090051056 -0.046154656 -1.2485507e-22)
(0.090240415 -0.058599562 -6.6713883e-20)
(0.087590416 -0.0011508213 -5.371532e-22)
(0.08412481 -0.0024457939 5.5819649e-22)
(0.090310471 -0.0028410882 1.7339579e-21)
(0.087800978 -0.0029993165 -1.8091836e-21)
(0.085149768 -0.0024615065 0)
(0.083237668 -0.0019505921 2.602666e-21)
(0.082161638 -0.0011559384 -3.3922442e-21)
(0.082055154 -0.00099652291 -3.5216773e-21)
(0.081387526 -0.0009160048 3.6661827e-21)
(0.080545302 -0.000599934 0)
(0.079256474 -0.00045571788 0)
(0.076418483 9.1719101e-05 4.1296761e-22)
(0.072603507 0.00040543641 -4.2975958e-22)
(0.068763343 0.0016279017 6.2688429e-21)
(0.065447617 0.0022952502 -7.4449775e-21)
(0.063763748 0.0032722911 0)
(0.062932094 0.0024722423 0)
(0.061378439 0.0035707614 0)
(0.060740715 0.004266278 8.7033022e-21)
(0.060343787 0.0036649733 2.9040492e-22)
(0.059312966 0.0040752541 1.9472229e-23)
(0.058097879 0.00449596 -2.9778764e-20)
(0.056902264 0.0033977327 2.0104958e-20)
(0.055874575 0.0038888146 0)
(0.055969864 0.0035169338 2.2090067e-20)
(0.056529872 0.0036028727 4.0676901e-23)
(0.056155699 0.0039652702 -4.7908982e-20)
(0.055926046 0.0047544035 2.511925e-20)
(0.055381287 0.0046697511 -2.0270869e-22)
(0.056725302 0.0046350207 -2.7179072e-20)
(0.057264576 0.0041241036 2.8088402e-20)
(0.057120799 0.0046408661 2.2780852e-22)
(0.060356766 0.0022586329 -3.0124549e-20)
(0.061057333 0.0019491713 6.3216806e-20)
(0.059960959 0.0022671186 -3.2684974e-20)
(0.063823705 -0.00067844135 2.6662388e-22)
(0.066857906 -0.0030117469 0)
(0.063973739 -0.0011863423 0)
(0.061980002 -0.00062769761 1.5000888e-22)
(0.064855308 -0.0075338331 3.974107e-20)
(0.067557004 -0.015836667 -8.3206325e-20)
(0.066863739 -0.015357624 4.3257872e-20)
(0.065119626 -0.0098265177 4.4786675e-20)
(0.062959217 -0.0085893491 -9.3131784e-20)
(0.061767893 -0.015577044 4.8570596e-20)
(0.065515636 -0.026507723 0)
(0.07438424 -0.034121977 0)
(0.081530319 -0.033953051 0)
(0.079040518 -0.029346893 1.0901237e-22)
(0.068793215 -0.024867806 -1.1406217e-22)
(0.062198584 -0.024622618 0)
(0.068563542 -0.030330269 1.1026783e-25)
(0.083592701 -0.040244742 -1.2780018e-22)
(0.10053551 -0.050568707 1.9924916e-22)
(0.10999931 -0.061085328 -6.8438431e-23)
(0.087492738 -0.00089273272 5.6708652e-22)
(0.084046453 -0.0025160031 -5.8891443e-22)
(0.090217901 -0.0031525212 -6.1113863e-22)
(0.087664862 -0.0032028886 6.3556326e-22)
(0.085046501 -0.0024833357 -6.6160111e-22)
(0.083099944 -0.0019557521 6.8764764e-22)
(0.082041692 -0.0015184426 1.4305835e-21)
(0.082032472 -0.0014603773 0)
(0.081375137 -0.0011175224 2.3175616e-21)
(0.080520814 -0.00093310657 -3.6218048e-21)
(0.079153593 -0.00063628894 0)
(0.076391235 -0.0003433015 -4.3565084e-22)
(0.072433842 0.00067882926 1.7174061e-25)
(0.068536592 0.0021563262 1.4958231e-25)
(0.065211474 0.0032970968 7.8592763e-21)
(0.063704186 0.0038987182 -7.6662154e-21)
(0.062921134 0.0038472167 0)
(0.061285863 0.0049124635 0)
(0.060768737 0.0047730966 0)
(0.060328783 0.0054915501 0)
(0.059153371 0.0050508078 0)
(0.05838021 0.0062602453 1.0676013e-20)
(0.057438245 0.0050420055 -1.0761063e-20)
(0.05609536 0.0055687477 -3.5040069e-22)
(0.056133222 0.0050782345 3.6398797e-22)
(0.056489356 0.0052957329 0)
(0.056157469 0.0059277653 0)
(0.055972176 0.0060207425 2.0586897e-22)
(0.055470035 0.006150566 2.1398384e-22)
(0.056843042 0.0052538547 0)
(0.057405541 0.0050399045 0)
(0.057733626 0.0050521281 -3.091988e-20)
(0.061424526 0.0017191667 6.3957212e-20)
(0.061741815 0.0012891558 -3.3295725e-20)
(0.059963757 0.0024500736 -1.3520795e-22)
(0.063769475 0.00027078298 3.5927841e-20)
(0.067139076 -0.0021099301 -3.7494642e-20)
(0.063811742 -0.001388099 0)
(0.062812898 -0.0017237742 -2.1333057e-25)
(0.067969259 -0.0077559367 0)
(0.069140433 -0.013086742 4.3916324e-20)
(0.063283378 -0.011492658 -4.5463082e-20)
(0.060539832 -0.0068817125 -4.7332368e-20)
(0.064696066 -0.0073416679 4.9042062e-20)
(0.069773301 -0.015798971 1.2212511e-24)
(0.071456014 -0.026250817 0)
(0.070868889 -0.030430715 0)
(0.072327202 -0.02575202 -1.1240195e-22)
(0.074069645 -0.018845499 -5.9953303e-20)
(0.073479371 -0.016602195 6.1515999e-20)
(0.072156987 -0.023043807 0)
(0.074298021 -0.035298015 6.6487722e-20)
(0.083327714 -0.048484681 -6.9767302e-20)
(0.094615572 -0.05509422 7.0692708e-20)
(0.10589793 -0.05896316 -7.4364638e-20)
(0.087773456 -0.00067132518 -2.9951831e-22)
(0.084201801 -0.0022324991 -9.3066171e-22)
(0.090286173 -0.0028036081 1.9336572e-21)
(0.087694859 -0.0027627926 -1.344589e-21)
(0.085057566 -0.002322301 -2.0899157e-21)
(0.08321214 -0.0018487373 2.1820749e-21)
(0.082133365 -0.0016846447 -3.768585e-21)
(0.082011432 -0.0016721724 6.2766771e-21)
(0.081324056 -0.00096398129 -3.6714861e-21)
(0.080500803 -0.0010872194 8.4898352e-22)
(0.079284447 -0.0010621859 4.4156257e-22)
(0.076506088 -0.00080691063 7.3647274e-21)
(0.072573584 0.00044286118 -6.6911903e-21)
(0.068623086 0.0010863532 8.4782137e-21)
(0.065345603 0.0027444466 4.9205578e-24)
(0.06379959 0.0018019377 -1.7786554e-20)
(0.062782973 0.002800889 8.6920363e-21)
(0.061345947 0.0034676205 -2.9159549e-22)
(0.060731869 0.0030967798 9.6874454e-21)
(0.060497837 0.0042877901 -9.758341e-21)
(0.05916441 0.0034779208 0)
(0.058325138 0.0040757663 0)
(0.057608695 0.0037498452 -1.1048941e-20)
(0.056058834 0.0040204016 1.2190374e-20)
(0.055982557 0.0036114139 1.1938201e-20)
(0.056185226 0.004014108 -1.2803407e-20)
(0.055920101 0.0049079423 -1.3381389e-20)
(0.05578505 0.0050363249 1.3674616e-20)
(0.055423067 0.0057046585 0)
(0.056697718 0.004413098 0)
(0.057015866 0.0046254128 0)
(0.057878049 0.0043809162 0)
(0.061505154 0.0010758219 0)
(0.061178573 0.001846909 0)
(0.059956157 0.0032361172 1.4267509e-22)
(0.064410187 0.00052405757 -3.7919433e-20)
(0.068084792 -0.001177839 3.9570892e-20)
(0.065282974 -0.0006095505 1.6045018e-22)
(0.064870338 -0.0036526248 -3.3405864e-22)
(0.070848243 -0.0095531355 4.4262868e-20)
(0.07202515 -0.012096082 -4.605325e-20)
(0.063919954 -0.0096285044 4.8189622e-20)
(0.058616478 -0.0079727432 -4.9997358e-20)
(0.064490452 -0.010408783 5.1491747e-20)
(0.07460044 -0.017752851 -1.0810499e-19)
(0.077171685 -0.024428641 -3.0552876e-22)
(0.070093289 -0.024986215 -7.8259592e-22)
(0.062687439 -0.019905464 -4.1828096e-22)
(0.063498002 -0.014465466 3.2438514e-22)
(0.072251514 -0.014579911 1.02082e-21)
(0.08295365 -0.02352474 6.858022e-20)
(0.08893594 -0.03669502 0)
(0.090782219 -0.048131861 7.3149169e-20)
(0.09010475 -0.05196594 8.8732959e-23)
(0.092968266 -0.051484295 -7.783455e-20)
(0.088086381 -0.00060038187 6.3116489e-22)
(0.084333464 -0.0017562878 6.5590092e-22)
(0.090315128 -0.0021909025 6.8054874e-22)
(0.087682816 -0.0022863656 0)
(0.085016945 -0.0023317895 0)
(0.083091069 -0.0018846607 0)
(0.082034317 -0.0016046627 -3.9816894e-22)
(0.081919441 -0.0013277296 3.3091589e-21)
(0.081302446 -0.0008852527 -3.0143527e-21)
(0.080600084 -0.0010511647 -4.4773059e-22)
(0.079250857 -0.00096868532 -3.7296067e-21)
(0.076426889 -0.00045360231 3.8759519e-21)
(0.07262073 0.00035089971 -8.5956248e-21)
(0.068546691 0.0009416061 8.3955169e-21)
(0.065435567 0.0027966771 0)
(0.063928979 0.0018136599 0)
(0.062642178 0.0031995202 5.9144472e-22)
(0.061442176 0.0034118488 3.0779839e-22)
(0.060542553 0.0035573349 -1.0237247e-20)
(0.060358838 0.0042596581 1.0325798e-20)
(0.059386017 0.0043685198 0)
(0.05847568 0.0035199674 0)
(0.057716632 0.0039590875 -3.7515679e-22)
(0.056314173 0.0041840605 0)
(0.056123655 0.0034715661 -1.2801572e-20)
(0.056027357 0.0039063291 1.3505219e-20)
(0.055849975 0.0046001512 0)
(0.055784636 0.0046287078 0)
(0.055690002 0.0054643934 0)
(0.05705976 0.0041441089 0)
(0.057114775 0.0045652382 0)
(0.058482257 0.0039644056 0)
(0.061895299 0.00079393677 -1.3916087e-22)
(0.060821032 0.001931265 -1.4507951e-22)
(0.059629897 0.0030432092 0)
(0.063754463 0.00054417057 -1.5672357e-22)
(0.067654613 9.6438493e-06 2.0881223e-20)
(0.066897177 0.00067150114 -2.1736261e-20)
(0.06710416 -0.0041980218 1.7642251e-22)
(0.071401605 -0.0099990854 1.8329069e-22)
(0.072429156 -0.0089717932 0)
(0.066125881 -0.0058577311 1.9837786e-22)
(0.060167249 -0.0070633116 4.8553183e-25)
(0.064209278 -0.012937104 5.4418422e-20)
(0.075069513 -0.01914852 -7.5478255e-22)
(0.079952915 -0.021392049 -5.876121e-20)
(0.073183135 -0.018182476 -1.1980516e-22)
(0.061997533 -0.015138525 0)
(0.058536607 -0.015279262 -1.3002974e-22)
(0.068061947 -0.02044346 -1.3507286e-22)
(0.084117263 -0.029363561 7.0822421e-20)
(0.096566384 -0.037670561 -7.4592595e-20)
(0.099458381 -0.043935699 7.4701057e-23)
(0.094106387 -0.043646932 -3.4970758e-25)
(0.087084175 -0.042882111 -8.1104459e-23)
(0.088544133 -0.00053593484 0)
(0.084516282 -0.0011680745 0)
(0.090450108 -0.0016135798 -7.1774648e-22)
(0.087841481 -0.0018727936 0)
(0.085109426 -0.0023889641 1.5513632e-21)
(0.083065253 -0.0019219849 -1.2137044e-21)
(0.081995855 -0.0015507285 4.1985607e-22)
(0.081914879 -0.0011807271 0)
(0.081360467 -0.0012807559 4.537318e-22)
(0.080678876 -0.0012724105 0)
(0.079336811 -0.00099565628 -4.9128747e-22)
(0.076527028 -0.00071528916 -3.5847759e-21)
(0.072585542 -0.00043062221 8.5201834e-21)
(0.06845926 0.00067488249 -4.4271533e-21)
(0.065470303 0.0015528536 0)
(0.063970927 0.0017175075 0)
(0.062573462 0.0027321403 -1.6968622e-25)
(0.061434349 0.0028072678 -3.2471466e-22)
(0.060478433 0.0033907186 0)
(0.060233584 0.0030699484 0)
(0.059673316 0.0040721141 3.6432577e-22)
(0.058680194 0.0027070208 1.1780913e-20)
(0.057659607 0.0034404226 -2.5544507e-20)
(0.056565445 0.0038301096 1.3351177e-20)
(0.056279514 0.0030140663 1.3486809e-20)
(0.055779101 0.0035456522 -1.4242784e-20)
(0.055623801 0.0040128879 -1.4858317e-20)
(0.055508153 0.0039998476 1.5410669e-20)
(0.05544126 0.0047316187 -1.6041999e-20)
(0.056900635 0.0037265499 3.3446696e-20)
(0.05682106 0.0046352624 -1.7608366e-20)
(0.058681697 0.0037505866 1.4137432e-22)
(0.061984544 0.0010150478 2.937845e-22)
(0.060494629 0.0026575431 3.060373e-22)
(0.059737434 0.0033734826 0)
(0.06341403 0.00030189113 -2.0964926e-20)
(0.066757101 2.2034964e-05 4.4150101e-20)
(0.068515616 0.0012192963 -2.2850568e-20)
(0.070776601 -0.0038721358 -1.8496238e-22)
(0.072160095 -0.0093944224 -1.9247981e-22)
(0.071238141 -0.0072114635 0)
(0.068280078 -0.0036026752 -2.6942278e-20)
(0.065171675 -0.0061139638 5.8524347e-23)
(0.066785316 -0.014669896 2.8907444e-20)
(0.073114658 -0.020540967 0)
(0.076853345 -0.018266695 0)
(0.073804536 -0.011922468 -3.2541334e-20)
(0.066714768 -0.0094192319 3.3884849e-20)
(0.062460115 -0.014741824 1.5947424e-24)
(0.067413754 -0.024716071 7.278262e-20)
(0.079792649 -0.033620272 -1.5163497e-19)
(0.092357862 -0.037334039 1.5674551e-19)
(0.098781521 -0.037092919 -8.037084e-20)
(0.095470447 -0.032840748 -8.1800436e-23)
(0.087838204 -0.02926405 8.6017237e-23)
(0.08830253 -0.00046205238 3.5051983e-22)
(0.08433593 -0.00067954678 -3.6527419e-22)
(0.090344556 -0.0011927342 -1.5117068e-21)
(0.087841958 -0.0015697155 1.575956e-21)
(0.085082986 -0.0020481428 2.0464511e-21)
(0.082953963 -0.0015727178 -4.2580488e-21)
(0.081887573 -0.0011856657 1.3312608e-21)
(0.081868563 -0.0010729873 -4.5960642e-22)
(0.08135404 -0.0014236266 -4.7821009e-22)
(0.080623042 -0.0013419642 -3.9837101e-21)
(0.079399147 -0.001006828 4.1452903e-21)
(0.076729188 -0.00083475084 0)
(0.072750445 -0.00056810071 0)
(0.068536447 0.00083581986 -2.9228721e-22)
(0.065571491 0.00094992992 -3.0422409e-22)
(0.063851482 0.0020294822 5.0624447e-21)
(0.062679937 0.0022848979 -1.613906e-20)
(0.061468808 0.002470642 1.1646608e-20)
(0.060513642 0.0030546935 -1.139056e-20)
(0.060077791 0.0021098973 2.3640419e-20)
(0.05966696 0.003306975 -3.8180073e-22)
(0.058936692 0.0029596349 -2.5464236e-20)
(0.0577397 0.003068727 1.3759388e-20)
(0.056906107 0.0033394728 1.3892972e-20)
(0.056516203 0.0025565022 -1.4417596e-20)
(0.055665401 0.0033458857 0)
(0.055592933 0.0035563917 -1.5702782e-20)
(0.055417289 0.0037334375 1.6288089e-20)
(0.055519696 0.0041234325 2.6477667e-22)
(0.056883484 0.0030307433 2.7497948e-22)
(0.05672562 0.0042436806 4.2963743e-22)
(0.059051772 0.0027452112 -1.4921068e-22)
(0.062098901 0.0005813105 -3.0979922e-22)
(0.060204682 0.002735967 -1.6130749e-22)
(0.060123771 0.0030637978 0)
(0.06336867 -0.00026330976 0)
(0.065122057 -0.0005934285 -2.3259066e-20)
(0.06797479 0.00099949834 4.8477047e-20)
(0.073106457 -0.0022895611 -2.4786439e-20)
(0.073457343 -0.0067906943 -1.0131903e-22)
(0.069527542 -0.005863029 0)
(0.068161419 -0.0023960649 0)
(0.070293404 -0.0052395556 -2.9361743e-20)
(0.072438608 -0.014147234 3.0615993e-20)
(0.072602904 -0.020255208 -3.1577291e-20)
(0.071265371 -0.016138563 3.2830377e-20)
(0.070240499 -0.0089712656 1.3502315e-22)
(0.070729447 -0.006512715 -3.5840392e-20)
(0.07236293 -0.01330372 3.7159497e-20)
(0.07470608 -0.025298298 0)
(0.078707623 -0.034908598 -2.2768554e-25)
(0.083657248 -0.036686955 -4.1202086e-20)
(0.088888782 -0.03299132 8.6303491e-20)
(0.088313416 -0.024257127 -8.9655952e-20)
(0.085750671 -0.018060175 4.6291549e-20)
(0.088613789 -0.00036353185 0)
(0.08447222 -0.0004897074 7.6666559e-22)
(0.09051264 -0.0012267558 -2.5791548e-24)
(0.088027642 -0.0016682864 -8.298793e-22)
(0.085191756 -0.0017730692 7.0002278e-26)
(0.083034205 -0.0014384335 4.4911674e-22)
(0.081957373 -0.0014261055 -9.2907446e-22)
(0.081950864 -0.0016695473 2.425469e-21)
(0.081386197 -0.0017491761 0)
(0.080560356 -0.0015752424 0)
(0.079423441 -0.001503921 -3.8279832e-21)
(0.076904454 -0.001041648 4.5446206e-21)
(0.072874537 -0.0007956319 0)
(0.068732176 0.00067025127 3.0828541e-22)
(0.065680772 0.00071805242 3.2086006e-22)
(0.063879457 0.0019083265 0)
(0.062785169 0.0014557554 -5.5571748e-21)
(0.0614331 0.0020202814 -3.5988016e-22)
(0.060690182 0.0026294975 6.3805744e-21)
(0.060121134 0.0018585465 0)
(0.05937729 0.0022161705 1.3002865e-20)
(0.058997388 0.00353007 -2.7018444e-20)
(0.057905217 0.002727709 1.3825375e-20)
(0.057101443 0.0024255692 -1.4900719e-20)
(0.056562852 0.0020458889 1.5460873e-20)
(0.055590277 0.0031770572 0)
(0.055547604 0.0032823323 0)
(0.055234777 0.0038814531 0)
(0.055504836 0.004009121 -2.7957015e-22)
(0.05661006 0.002868596 -2.8990855e-22)
(0.056399248 0.004184246 -1.9437987e-20)
(0.059179767 0.00219884 2.0152355e-20)
(0.061819282 0.00070331197 1.6332052e-22)
(0.059820268 0.0031353438 0)
(0.060621882 0.0030759763 0)
(0.064009553 -0.00018585528 1.8363325e-22)
(0.0643283 -0.00085707091 0)
(0.066766709 0.00022099559 -1.9846935e-22)
(0.073910998 -0.0014914603 -2.6618269e-20)
(0.075702982 -0.0043001764 2.7498541e-20)
(0.069679072 -0.0045758885 2.8540631e-20)
(0.067172315 -0.0029375211 -2.968427e-20)
(0.072669772 -0.0054635499 3.0806232e-20)
(0.078143804 -0.01248338 -3.2271109e-20)
(0.075372128 -0.017636888 -3.3527477e-20)
(0.068000024 -0.014991331 -4.722255e-22)
(0.065059212 -0.0093380159 7.2358724e-20)
(0.069774307 -0.00727089 -3.7725372e-20)
(0.078797412 -0.012491148 0)
(0.08513044 -0.022774649 -4.060186e-20)
(0.084916589 -0.031738688 8.4248644e-20)
(0.081570937 -0.03408837 -4.3344697e-20)
(0.079065966 -0.029868232 0)
(0.077544459 -0.02127726 -9.3465441e-23)
(0.077906646 -0.013558428 4.9159871e-20)
(0.088995925 -0.0001797098 0)
(0.084690136 -0.00042830149 0)
(0.090732104 -0.0013317943 0)
(0.088189244 -0.0016866096 1.3098677e-21)
(0.08529164 -0.0012787935 -2.2789446e-21)
(0.083168409 -0.0011453049 1.8902995e-21)
(0.082111927 -0.0012975215 -2.4645031e-21)
(0.082056684 -0.0017048314 -5.1113001e-22)
(0.081501113 -0.0014257692 -5.3171287e-22)
(0.080749779 -0.0014015194 -4.9808676e-21)
(0.079519972 -0.001536926 4.0335761e-21)
(0.076993661 -0.0011088969 0)
(0.072971806 -0.00081973359 5.0022125e-21)
(0.068739235 0.00052606443 1.1214395e-23)
(0.065699479 0.00066424211 -1.1158714e-20)
(0.064005547 0.001538329 5.6292209e-21)
(0.062834703 0.00085421705 -3.6576951e-22)
(0.061336459 0.001810998 -3.8070606e-22)
(0.060833095 0.0020097117 1.0697963e-25)
(0.060335942 0.0020410071 2.0567384e-22)
(0.059130747 0.0016264395 2.1388016e-22)
(0.058878317 0.0035239103 2.2214303e-22)
(0.058301386 0.002521217 0)
(0.057464203 0.0015346938 0)
(0.056700885 0.00152578 -1.6364714e-20)
(0.055703412 0.0027249609 1.6978796e-20)
(0.055607271 0.0027173783 0)
(0.055208449 0.0036212909 0)
(0.055643905 0.0036143759 0)
(0.056465216 0.0025613066 1.528192e-22)
(0.056329723 0.0037539255 0)
(0.059455253 0.0014514404 2.1183375e-20)
(0.061571338 0.00048224803 -2.2056537e-20)
(0.059423988 0.0029527633 1.7906849e-22)
(0.060879804 0.0025660442 -2.394666e-20)
(0.064632639 -0.00025775841 2.4700036e-20)
(0.064029322 -0.00079858627 0)
(0.065194809 -0.00047112705 2.6480859e-20)
(0.072813304 -0.0016328987 -2.7950398e-20)
(0.07703452 -0.0025132386 1.1264584e-22)
(0.071538781 -0.0023676525 3.0481769e-20)
(0.067170009 -0.0034087273 -3.1225886e-20)
(0.072486464 -0.006604302 0)
(0.08061157 -0.011337639 3.3834204e-20)
(0.079202597 -0.0133216 -3.4933472e-20)
(0.069285731 -0.012370232 2.8509978e-22)
(0.062367205 -0.010472824 0)
(0.066474294 -0.010349568 3.9044936e-20)
(0.078877233 -0.014591126 -4.131121e-20)
(0.090731348 -0.02137128 4.2467778e-20)
(0.093038663 -0.027179643 -4.3887454e-20)
(0.086225339 -0.029021097 -4.6101057e-20)
(0.077027616 -0.026466306 9.6275001e-20)
(0.07013249 -0.020219949 4.7404831e-22)
(0.06919468 -0.015451525 -1.4174924e-22)
(0.089206983 -4.9604918e-05 -4.1119042e-22)
(0.08485199 -0.00052584679 -4.258646e-22)
(0.090904655 -0.0014727168 -8.8284069e-22)
(0.088290495 -0.001804411 2.9925942e-24)
(0.085403565 -0.0010968882 9.6111625e-22)
(0.083332099 -0.0011472294 1.9928086e-21)
(0.082302167 -0.00129364 -2.0785993e-21)
(0.082203563 -0.0016205857 5.3860043e-22)
(0.081621319 -0.0013798815 2.8001728e-21)
(0.080926157 -0.0015219185 -6.4213939e-21)
(0.079724078 -0.0013514233 3.0254314e-22)
(0.077168055 -0.0015093478 5.052832e-21)
(0.073042127 -0.00084742355 3.2902897e-22)
(0.068743259 0.00021720083 0)
(0.065729326 0.00038304384 3.5642301e-22)
(0.064116031 0.0010274479 -3.7066229e-22)
(0.062977688 0.00059262216 1.099769e-26)
(0.061358911 0.0017539732 8.02032e-22)
(0.060884628 0.0014574677 -4.163975e-22)
(0.060569841 0.0021997451 6.7137268e-21)
(0.059144494 0.0016614548 -1.4626695e-20)
(0.058790504 0.0026821313 7.4939776e-21)
(0.058752807 0.0022805861 0)
(0.057814415 0.0012985248 -8.1449782e-21)
(0.056691013 0.0015681614 8.1962624e-21)
(0.055560567 0.0023713333 -2.7572749e-22)
(0.055384129 0.0022858183 -2.8658853e-22)
(0.054885841 0.0034968737 0)
(0.055572082 0.0034581795 0)
(0.056265201 0.0027924912 -1.6112343e-22)
(0.056219387 0.0037432671 0)
(0.059555277 0.0013870093 0)
(0.061234872 0.00094188904 -2.3332078e-20)
(0.059094092 0.0032311048 -2.6802371e-22)
(0.061042727 0.0021823046 5.0460681e-20)
(0.065145773 -0.00013992708 -2.6489891e-20)
(0.064401152 -0.00012937729 0)
(0.064441802 -0.00077930381 1.103378e-22)
(0.071179954 -0.0024499401 -1.1465542e-22)
(0.076847173 -0.0020394856 -1.1865949e-22)
(0.074027728 -0.00016427065 -3.1836144e-20)
(0.069499567 -0.0026974723 3.29205e-20)
(0.072446105 -0.0078728244 0)
(0.080085236 -0.011024493 0)
(0.08128953 -0.0096868544 -1.4414806e-22)
(0.073440216 -0.0078907488 -1.5083403e-22)
(0.064422087 -0.0089854703 -4.0390173e-20)
(0.064674702 -0.012410075 4.1861069e-20)
(0.075656229 -0.017590404 4.2662517e-20)
(0.089310175 -0.02161677 -4.530785e-20)
(0.095835994 -0.022951516 -9.0182723e-23)
(0.091595893 -0.022028484 4.8336503e-20)
(0.080865216 -0.019822947 -4.9895997e-20)
(0.069965346 -0.016798365 0)
(0.066057954 -0.015943114 -5.4717952e-20)
(0.089223316 2.4342961e-05 6.4966705e-22)
(0.084901973 -0.00054839802 -2.2547952e-22)
(0.090973267 -0.0013425733 4.6706913e-22)
(0.08829624 -0.001573888 4.8577918e-22)
(0.085445338 -0.00096015666 2.0202269e-21)
(0.083436699 -0.00094624439 -3.6815908e-21)
(0.082381992 -0.001009906 2.1903251e-21)
(0.082260491 -0.0010791419 0)
(0.081696001 -0.001206417 2.6584565e-21)
(0.080981224 -0.0015310293 -2.1543245e-21)
(0.079894431 -0.0010756345 -6.3973379e-22)
(0.07741425 -0.0014807548 0)
(0.073211171 -0.00052852692 -6.9323659e-22)
(0.068927217 -0.00015103686 3.6087047e-22)
(0.065780483 0.00026657358 -3.7550542e-22)
(0.064116922 0.00063362364 4.3048399e-26)
(0.063024658 0.00068133392 -6.0949136e-21)
(0.06151058 0.0018558596 1.3071748e-20)
(0.060979144 0.0010849149 -7.0125785e-21)
(0.060689961 0.0020485837 0)
(0.059367122 0.0020814935 -2.3769107e-22)
(0.058899523 0.0015236006 0)
(0.059100982 0.0018656848 -2.5653831e-22)
(0.058227988 0.0015870674 0)
(0.056823125 0.0018646132 9.6388077e-26)
(0.055585447 0.0020016848 2.904412e-22)
(0.055175612 0.0016459974 3.017096e-22)
(0.054593045 0.0031136747 1.0040113e-20)
(0.05559905 0.0030065338 6.4403372e-24)
(0.056236638 0.0028359102 -1.0879695e-20)
(0.056313047 0.0033768002 2.2556847e-20)
(0.059695738 0.00099618157 -4.7150745e-20)
(0.060980979 0.0010986024 2.4669485e-20)
(0.058975828 0.003123417 -1.9874706e-22)
(0.061045863 0.0013150951 -2.0706504e-22)
(0.064993764 -0.00048202884 2.1508341e-22)
(0.064633027 0.00054606383 0)
(0.064265977 -0.00044505863 1.1604238e-22)
(0.069397966 -0.0033642047 1.2065577e-22)
(0.074811792 -0.0022024785 0)
(0.075028738 0.0013127124 -2.6105744e-22)
(0.072824753 -0.00087970192 0)
(0.073665767 -0.0076347711 1.4105077e-22)
(0.078131628 -0.010724228 -3.7594914e-20)
(0.080136044 -0.00730199 3.9181772e-20)
(0.076601386 -0.0039122276 0)
(0.069870055 -0.0050396604 -8.269249e-23)
(0.067336485 -0.012169576 0)
(0.07349578 -0.020317197 4.5420318e-20)
(0.084038189 -0.023590021 -4.7744332e-20)
(0.091977815 -0.021506036 9.5520266e-23)
(0.092185316 -0.016522826 0)
(0.08530338 -0.012654629 -5.1898139e-23)
(0.075093335 -0.011205287 0)
(0.069218221 -0.013982001 5.6789287e-23)
(0.089510819 4.4907716e-05 -2.2791472e-22)
(0.085082231 -0.0005099723 7.1200873e-22)
(0.09111596 -0.0011001208 -4.9233979e-22)
(0.088393298 -0.0012545764 1.0230554e-21)
(0.085527756 -0.0010680598 -1.6005565e-21)
(0.083528156 -0.00094325618 1.6853024e-25)
(0.082456398 -0.00087457868 -2.3010219e-21)
(0.08239889 -0.00089870826 2.3981219e-21)
(0.081860695 -0.0013224084 2.1764887e-21)
(0.08104734 -0.0013823599 -5.5070847e-21)
(0.079976202 -0.0012366628 3.3690711e-22)
(0.077588346 -0.0012453743 2.8047466e-21)
(0.073491665 -0.00043911412 -5.4856106e-21)
(0.069213215 -0.00061876703 5.6958282e-21)
(0.065910863 0.00031431265 3.9559582e-22)
(0.064249394 0.00023403152 -6.1682966e-21)
(0.063008653 0.00066340081 6.8467314e-21)
(0.061581128 0.0016832856 0)
(0.061017847 0.00074102807 7.6091542e-21)
(0.060668822 0.0013634407 -1.539353e-20)
(0.059705812 0.0022903628 -1.0839258e-23)
(0.059166883 0.00054210818 8.0523858e-21)
(0.059211214 0.001291478 9.2161523e-21)
(0.058447987 0.0019154056 -1.7782008e-20)
(0.056999271 0.0020781743 9.6820367e-21)
(0.055779636 0.0016011299 -1.53183e-22)
(0.05501042 0.0011207942 1.5891463e-22)
(0.054271722 0.0027018393 1.0407523e-20)
(0.055465564 0.0025350772 -1.1194476e-20)
(0.056101708 0.003009218 1.7951429e-22)
(0.056407692 0.0031602847 0)
(0.0596539 0.00086860135 1.241243e-20)
(0.060618076 0.001518867 5.6508317e-23)
(0.059071967 0.0032550953 -1.3256699e-20)
(0.061243649 0.00080200629 3.2739806e-22)
(0.064631001 -0.00078747449 -1.4532639e-20)
(0.064676607 0.0011129235 1.507973e-20)
(0.065053104 0.00022867884 -1.22829e-22)
(0.068747114 -0.0039858331 1.2722833e-22)
(0.072336449 -0.0028333146 0)
(0.074218086 0.0015072807 -3.532425e-20)
(0.07583257 0.00098911275 3.66067e-20)
(0.076843762 -0.0058951201 -7.4941985e-23)
(0.077092977 -0.010398024 -3.9420304e-20)
(0.076950048 -0.0068433081 4.0966984e-20)
(0.076064664 -0.0020524911 8.409563e-23)
(0.074730383 -0.0014127502 8.7242072e-23)
(0.074255922 -0.0095267041 4.6211132e-20)
(0.075686441 -0.020063343 -4.8332676e-20)
(0.07946715 -0.024446782 -1.9513599e-22)
(0.084497287 -0.021420597 0)
(0.086869387 -0.014301931 0)
(0.085362747 -0.0079705382 -1.7042007e-25)
(0.080327351 -0.0055192711 0)
(0.075939596 -0.0098700356 -5.9256574e-23)
(0.090047251 8.8252211e-05 -4.8090268e-22)
(0.085384648 -0.00027707135 -4.9824752e-22)
(0.091347567 -0.00067253378 2.0739943e-21)
(0.088632111 -0.00071610665 -1.0811624e-21)
(0.085714214 -0.0010855414 1.1213467e-21)
(0.083667438 -0.00089539118 -1.7535114e-21)
(0.082584859 -0.00071092133 -2.4210224e-21)
(0.08257104 -0.00090836203 2.5248201e-21)
(0.082061057 -0.0011220199 2.6232777e-21)
(0.081208073 -0.00088757092 -5.1167185e-21)
(0.080137215 -0.0014510562 2.4869189e-21)
(0.07774543 -0.00087781376 0)
(0.073772088 -0.00051534208 3.8453301e-22)
(0.069439557 -0.00078580265 0)
(0.066180164 0.0005969415 0)
(0.064494851 -4.485541e-05 6.7176158e-21)
(0.062897453 0.0007911027 -7.212112e-21)
(0.061633076 0.0014129296 -2.3442895e-22)
(0.061116172 0.00064946939 -1.4190379e-25)
(0.060543496 0.00068403348 0)
(0.059927618 0.0021678009 8.6865235e-21)
(0.059415719 0.00041141519 -8.2079246e-21)
(0.059111424 0.00095279022 8.5284487e-26)
(0.058456935 0.002015128 9.0822719e-21)
(0.057340675 0.0021083065 -1.9816747e-20)
(0.056271768 0.001135732 9.9744529e-21)
(0.055160365 0.00078887166 -1.0921726e-20)
(0.054184902 0.0022636085 1.5298742e-22)
(0.055396516 0.0019027409 1.1797693e-20)
(0.056030243 0.0028668396 1.1749671e-20)
(0.05659247 0.0027079228 -1.2359719e-20)
(0.059556241 0.00046312833 0)
(0.060177451 0.0016254625 -2.1242806e-22)
(0.059207391 0.0031163557 7.8101851e-26)
(0.061552824 0.00046116753 -1.1498479e-22)
(0.064018988 -0.0011170896 1.5433817e-20)
(0.064081363 0.0011218832 2.2279817e-23)
(0.065814859 0.00068333479 -1.6552809e-20)
(0.068897192 -0.0037621321 1.6921513e-20)
(0.070069048 -0.0036228598 -3.5841135e-20)
(0.07167772 0.00060147467 2.0786592e-22)
(0.076534616 0.0019313803 3.8705828e-20)
(0.080480795 -0.0031932385 -2.022256e-20)
(0.078436246 -0.0087311714 -8.1759345e-23)
(0.074290962 -0.0073176395 -2.1710117e-20)
(0.073215341 -0.0019686223 2.2558129e-20)
(0.076292289 -0.00017428113 0)
(0.081226217 -0.0065379864 -2.4385221e-20)
(0.082178152 -0.017097639 2.5426872e-20)
(0.07980213 -0.023404355 2.0570005e-22)
(0.078536568 -0.022105424 0)
(0.079003317 -0.015127899 -5.6654322e-20)
(0.080353279 -0.007151436 1.2306568e-22)
(0.081789508 -0.0033527632 6.1260159e-20)
(0.082225457 -0.0061753302 6.207118e-23)
(0.090540565 5.7276859e-05 9.3318323e-27)
(0.085673849 -6.233199e-05 -1.0529561e-21)
(0.091582611 -0.00030937529 0)
(0.088927596 -0.00032468342 5.6839943e-22)
(0.086015611 -0.0010917863 8.8745032e-22)
(0.083863066 -0.00087614656 9.2076027e-22)
(0.08278865 -0.00069313971 -3.8292437e-21)
(0.082781012 -0.0011067849 -3.2420927e-22)
(0.082267489 -0.00091804461 -3.4252598e-22)
(0.081480309 -0.00064356923 5.3898001e-21)
(0.080397629 -0.0016175474 -2.6203377e-21)
(0.077940883 -0.0008511529 -3.1161438e-21)
(0.074089262 -0.00085082231 2.4278343e-21)
(0.069587651 -0.00082916673 0)
(0.066410223 0.0005781759 0)
(0.06475001 -0.00040571022 -7.3075424e-21)
(0.063010882 0.0007613548 2.8301203e-25)
(0.061733546 0.00082081603 8.154873e-21)
(0.061281054 0.0006456968 -2.570068e-22)
(0.060489254 0.00014721635 8.5351854e-21)
(0.06000084 0.0014817156 -8.8748854e-21)
(0.059631112 0.00070923645 -2.8890232e-22)
(0.058911957 0.00075260778 -1.5044856e-22)
(0.058362462 0.0017097664 -1.0033925e-20)
(0.057636353 0.0016769969 1.0424606e-20)
(0.056751267 0.00065914359 1.698479e-22)
(0.055311488 0.00064830413 0)