/*--------------------------------*- C++ -*----------------------------------*\
| =========                 |                                                 |
| \\      /  F ield         | OpenFOAM: The Open Source CFD Toolbox           |
|  \\    /   O peration     | Version:  2406                                  |
|   \\  /    A nd           | Website:  www.openfoam.com                      |
|    \\/     M anipulation  |                                                 |
\*---------------------------------------------------------------------------*/
FoamFile
{
    version     2.0;
    format      ascii;
    arch        "LSB;label=32;scalar=64";
    class       volScalarField;
    location    "13";
    object      k;
}
// * * * * * * * * * * * * * * * * * * * * * * * * * * * * * * * * * * * * * //

dimensions      [0 2 -2 0 0 0 0];

internalField   nonuniform List<scalar> 
62344
(
4.5990068e-06
3.5170056e-06
2.6539361e-06
2.2663312e-06
2.0431886e-06
1.8724081e-06
1.7220544e-06
1.5833964e-06
1.448667e-06
1.3278478e-06
1.2231817e-06
1.1381654e-06
1.0758286e-06
1.0380303e-06
1.0150812e-06
9.9764944e-07
9.8911317e-07
9.7810371e-07
9.6868528e-07
9.4895676e-07
9.2677592e-07
9.1031386e-07
8.8927996e-07
8.7297971e-07
8.6142668e-07
8.5247283e-07
8.5374485e-07
8.6070034e-07
8.7399417e-07
8.9056166e-07
9.1927352e-07
9.6998725e-07
1.0432892e-06
1.107727e-06
1.214946e-06
1.3785907e-06
1.7257272e-06
2.0298963e-06
2.536331e-06
2.8990207e-06
3.8109602e-06
4.8311128e-06
7.0719947e-06
9.3364196e-06
1.3359517e-05
1.6726163e-05
2.1917618e-05
2.5684868e-05
3.3440301e-05
4.124736e-05
5.5810714e-05
6.7400621e-05
8.2533469e-05
9.1914704e-05
0.00011311317
4.6017321e-06
3.5310443e-06
2.6627015e-06
2.2726533e-06
2.0475096e-06
1.8784707e-06
1.7277881e-06
1.590464e-06
1.4581665e-06
1.3371573e-06
1.2317398e-06
1.1457057e-06
1.0825715e-06
1.0426189e-06
1.0165199e-06
1.0003393e-06
9.8800595e-07
9.8097026e-07
9.7478106e-07
9.5678634e-07
9.3548122e-07
9.1135921e-07
8.9152523e-07
8.7430162e-07
8.6318826e-07
8.4437381e-07
8.3728369e-07
8.5187417e-07
8.6342104e-07
8.7104917e-07
8.9204106e-07
9.3312842e-07
9.8045219e-07
1.0338169e-06
1.1272647e-06
1.2527074e-06
1.4992721e-06
1.7108903e-06
2.0462345e-06
2.2982128e-06
2.9353662e-06
3.6408645e-06
5.0307099e-06
6.3268143e-06
8.9526965e-06
1.1205671e-05
1.6541835e-05
2.0825194e-05
2.9816976e-05
3.6124814e-05
4.6963145e-05
5.4300658e-05
6.8087422e-05
7.614275e-05
9.6309142e-05
4.6074627e-06
3.5494057e-06
2.6704666e-06
2.2753075e-06
2.0523037e-06
1.8825266e-06
1.7345498e-06
1.5955032e-06
1.4618853e-06
1.3410441e-06
1.2325249e-06
1.1459611e-06
1.0822372e-06
1.0420288e-06
1.0148749e-06
9.9816633e-07
9.8405284e-07
9.8001961e-07
9.733358e-07
9.5096208e-07
9.4005871e-07
9.1732602e-07
8.8642511e-07
8.7404704e-07
8.6346514e-07
8.4726002e-07
8.3378169e-07
8.4512956e-07
8.6187921e-07
8.711068e-07
8.9247567e-07
9.335749e-07
9.8161179e-07
1.0308925e-06
1.1278177e-06
1.2368117e-06
1.4310645e-06
1.5936875e-06
1.8411886e-06
2.0524355e-06
2.5506825e-06
3.0280388e-06
3.921942e-06
4.6828054e-06
6.1600948e-06
7.7021765e-06
1.1325404e-05
1.440537e-05
2.0770966e-05
2.4815969e-05
3.3296694e-05
3.9061478e-05
5.0102543e-05
5.64371e-05
7.1969081e-05
4.6120738e-06
3.5697578e-06
2.680126e-06
2.2815646e-06
2.0618218e-06
1.8902634e-06
1.7425658e-06
1.6039277e-06
1.4704621e-06
1.350926e-06
1.2423337e-06
1.1528095e-06
1.088371e-06
1.0467865e-06
1.0166895e-06
1.0014316e-06
9.9137881e-07
9.8334607e-07
9.7752118e-07
9.6022157e-07
9.471781e-07
9.2859886e-07
8.978267e-07
8.8592363e-07
8.8044874e-07
8.6621716e-07
8.4616701e-07
8.4887614e-07
8.5537256e-07
8.7042903e-07
8.9276634e-07
9.3759407e-07
9.90592e-07
1.0331969e-06
1.1222221e-06
1.2257561e-06
1.3805231e-06
1.5056594e-06
1.7317669e-06
1.9457506e-06
2.4120343e-06
2.8053911e-06
3.5131893e-06
4.1229849e-06
5.2260123e-06
6.409147e-06
8.9726376e-06
1.098555e-05
1.4922965e-05
1.8059832e-05
2.5026107e-05
2.9613893e-05
3.8442462e-05
4.3976535e-05
5.5821068e-05
4.617806e-06
3.5832507e-06
2.6884044e-06
2.2880609e-06
2.0635576e-06
1.8940591e-06
1.7472297e-06
1.6105393e-06
1.4779814e-06
1.3548203e-06
1.2474985e-06
1.1590551e-06
1.0946901e-06
1.0506308e-06
1.0174168e-06
9.9906787e-07
9.8889773e-07
9.844546e-07
9.7965184e-07
9.6890754e-07
9.4804049e-07
9.2681096e-07
9.0436367e-07
8.8960271e-07
8.8125172e-07
8.7152681e-07
8.5123552e-07
8.5093323e-07
8.520556e-07
8.6110478e-07
8.8515341e-07
9.2309793e-07
9.6837007e-07
1.0071386e-06
1.0886698e-06
1.1883495e-06
1.325145e-06
1.4504921e-06
1.6900544e-06
1.9264647e-06
2.391592e-06
2.734259e-06
3.370448e-06
3.9114473e-06
4.9859386e-06
5.9073161e-06
7.7498129e-06
9.283077e-06
1.276918e-05
1.5440715e-05
2.09668e-05
2.4566333e-05
3.2180035e-05
3.7361779e-05
4.6372514e-05
4.6223796e-06
3.5992162e-06
2.698214e-06
2.2941715e-06
2.0665515e-06
1.8973895e-06
1.7516655e-06
1.6177933e-06
1.4880165e-06
1.3665063e-06
1.2567597e-06
1.1656822e-06
1.0996928e-06
1.0536887e-06
1.0244851e-06
1.0015876e-06
9.9442385e-07
9.9074843e-07
9.8327512e-07
9.7583393e-07
9.5277917e-07
9.3604049e-07
9.1282988e-07
8.9596352e-07
8.8139388e-07
8.6746268e-07
8.5894529e-07
8.5108375e-07
8.5244828e-07
8.5793298e-07
8.8007393e-07
9.1623149e-07
9.5487292e-07
9.9540966e-07
1.0864083e-06
1.1816235e-06
1.3119658e-06
1.4321241e-06
1.667542e-06
1.9085111e-06
2.3507905e-06
2.6321216e-06
3.1318312e-06
3.5541605e-06
4.3827267e-06
5.0734041e-06
6.3224798e-06
7.5450889e-06
1.0257965e-05
1.2170654e-05
1.6235212e-05
1.9382992e-05
2.6053791e-05
3.106531e-05
4.0977913e-05
4.6269519e-06
3.613997e-06
2.7070785e-06
2.2987011e-06
2.0717195e-06
1.9031826e-06
1.7574211e-06
1.6237689e-06
1.4928014e-06
1.3734844e-06
1.2635793e-06
1.1696105e-06
1.1033947e-06
1.0585869e-06
1.0229934e-06
1.0004599e-06
9.951822e-07
9.8976492e-07
9.8498047e-07
9.7972076e-07
9.5932461e-07
9.3933238e-07
9.2292012e-07
9.0158035e-07
8.8160891e-07
8.672803e-07
8.6322779e-07
8.5732394e-07
8.5225161e-07
8.5503993e-07
8.7291861e-07
9.0591845e-07
9.5079838e-07
9.9882145e-07
1.0974646e-06
1.1819091e-06
1.303973e-06
1.4175581e-06
1.6320845e-06
1.8294922e-06
2.1921322e-06
2.4314963e-06
2.8869157e-06
3.2513908e-06
3.9664789e-06
4.6948711e-06
5.4562347e-06
6.68294e-06
9.0840316e-06
1.0515479e-05
1.3658162e-05
1.6449938e-05
2.2646968e-05
2.7405869e-05
3.6018719e-05
4.629827e-06
3.6260478e-06
2.7145948e-06
2.3022449e-06
2.0730597e-06
1.9053029e-06
1.7636999e-06
1.6293261e-06
1.5003771e-06
1.379147e-06
1.2685604e-06
1.1750892e-06
1.106696e-06
1.0600761e-06
1.0280334e-06
1.0080438e-06
9.9790271e-07
9.9195242e-07
9.8647694e-07
9.8017341e-07
9.6623446e-07
9.4367453e-07
9.2864124e-07
9.0761449e-07
8.8410847e-07
8.7232889e-07
8.6685891e-07
8.6659458e-07
8.5998288e-07
8.6060521e-07
8.7759247e-07
9.0929757e-07
9.4913491e-07
1.0022949e-06
1.1055906e-06
1.1802804e-06
1.2877194e-06
1.3758816e-06
1.5393006e-06
1.7189411e-06
2.0155892e-06
2.2379256e-06
2.6834994e-06
3.0819596e-06
3.7354356e-06
4.336423e-06
5.2180087e-06
6.067457e-06
7.6366838e-06
8.8522635e-06
1.1499125e-05
1.3738873e-05
1.8568992e-05
2.2772817e-05
2.7702888e-05
4.6337602e-06
3.6405654e-06
2.7209575e-06
2.3054804e-06
2.0767288e-06
1.9081058e-06
1.7666131e-06
1.6347014e-06
1.5076535e-06
1.3863148e-06
1.2754742e-06
1.1812442e-06
1.1113357e-06
1.0607793e-06
1.0316847e-06
1.009307e-06
9.9716992e-07
9.9883714e-07
9.9168408e-07
9.8287544e-07
9.6933035e-07
9.5017985e-07
9.3044498e-07
9.0827617e-07
8.878827e-07
8.732937e-07
8.6824662e-07
8.7083031e-07
8.6617486e-07
8.6529078e-07
8.8174769e-07
9.1557665e-07
9.4581483e-07
9.9868594e-07
1.0855686e-06
1.1544013e-06
1.25001e-06
1.3426284e-06
1.4851862e-06
1.6907374e-06
1.9664475e-06
2.1808782e-06
2.6167349e-06
3.0561882e-06
3.6206436e-06
4.1815095e-06
5.2129445e-06
6.0788068e-06
7.0955758e-06
8.3273539e-06
1.0985116e-05
1.3134474e-05
1.7117728e-05
2.015138e-05
2.2832423e-05
4.6373585e-06
3.6546604e-06
2.7282385e-06
2.3103405e-06
2.0848197e-06
1.9139638e-06
1.7711499e-06
1.6420828e-06
1.5118038e-06
1.3913959e-06
1.2811133e-06
1.1861809e-06
1.1165352e-06
1.0687944e-06
1.0329644e-06
1.0085975e-06
9.963699e-07
9.9709733e-07
9.9309782e-07
9.8885437e-07
9.7765204e-07
9.6029562e-07
9.3995381e-07
9.14072e-07
8.9456068e-07
8.7695224e-07
8.7256999e-07
8.7202406e-07
8.7032087e-07
8.7387711e-07
8.8795447e-07
9.13263e-07
9.3511818e-07
9.8319963e-07
1.0480031e-06
1.1231455e-06
1.2202979e-06
1.3373315e-06
1.462817e-06
1.6957052e-06
1.9446544e-06
2.1537694e-06
2.5684469e-06
3.0899847e-06
3.4711028e-06
4.0741751e-06
5.1670394e-06
6.1903148e-06
6.9887974e-06
8.4473153e-06
1.0939133e-05
1.353855e-05
1.7069809e-05
1.9549184e-05
2.1326133e-05
4.64071e-06
3.6631124e-06
2.7344824e-06
2.3153677e-06
2.0875221e-06
1.9178249e-06
1.776411e-06
1.6462251e-06
1.5211886e-06
1.4004746e-06
1.2852952e-06
1.1911922e-06
1.1195467e-06
1.073173e-06
1.0344003e-06
1.0162652e-06
1.0004015e-06
9.9478399e-07
9.9289747e-07
9.8922836e-07
9.7934431e-07
9.5962349e-07
9.4446458e-07
9.2201359e-07
8.9777484e-07
8.7941154e-07
8.7374234e-07
8.6860567e-07
8.6653251e-07
8.7475678e-07
8.9113275e-07
9.0965047e-07
9.2523869e-07
9.6586552e-07
1.0230345e-06
1.1121932e-06
1.200269e-06
1.3479173e-06
1.4687562e-06
1.6877794e-06
1.9227274e-06
2.1348683e-06
2.5146429e-06
3.0027504e-06
3.3547022e-06
3.9585949e-06
5.0372459e-06
6.0957043e-06
6.9031809e-06
8.2781811e-06
1.0628282e-05
1.3501917e-05
1.682638e-05
1.8916594e-05
2.0820232e-05
4.6436158e-06
3.6706688e-06
2.7389797e-06
2.3190452e-06
2.0873588e-06
1.9186722e-06
1.7786485e-06
1.6487567e-06
1.5264131e-06
1.4092373e-06
1.2914363e-06
1.1955846e-06
1.1246306e-06
1.0754175e-06
1.0381389e-06
1.017494e-06
1.0003007e-06
9.9830862e-07
9.9617502e-07
9.9116279e-07
9.8183775e-07
9.5774524e-07
9.4476118e-07
9.2651094e-07
8.9840346e-07
8.793784e-07
8.7051254e-07
8.6788495e-07
8.6302224e-07
8.6932406e-07
8.8819432e-07
9.0747675e-07
9.2130173e-07
9.5721313e-07
1.0154324e-06
1.1027433e-06
1.1902171e-06
1.3357516e-06
1.4541688e-06
1.6623961e-06
1.8487803e-06
2.0998288e-06
2.4012948e-06
2.7720611e-06
3.1375127e-06
3.7381992e-06
4.6490751e-06
5.641775e-06
6.5054919e-06
7.5924288e-06
9.5199867e-06
1.2209013e-05
1.4962515e-05
1.6637575e-05
1.9090183e-05
4.6467719e-06
3.6815908e-06
2.7445025e-06
2.3226789e-06
2.0909725e-06
1.9201581e-06
1.7809396e-06
1.6538276e-06
1.5261268e-06
1.4113455e-06
1.2978415e-06
1.1989063e-06
1.1277584e-06
1.0765483e-06
1.0392865e-06
1.0127991e-06
9.9939426e-07
1.0017245e-06
9.9947444e-07
9.9703776e-07
9.8560914e-07
9.6726177e-07
9.5087129e-07
9.2845992e-07
9.015101e-07
8.8056088e-07
8.6830308e-07
8.7046763e-07
8.696253e-07
8.6977904e-07
8.8398826e-07
9.0414922e-07
9.2348621e-07
9.6082221e-07
1.0234112e-06
1.0893793e-06
1.1775878e-06
1.3019838e-06
1.4171464e-06
1.6035754e-06
1.7600723e-06
2.0029731e-06
2.3223419e-06
2.5507727e-06
2.95423e-06
3.4754235e-06
4.2251189e-06
4.8193575e-06
5.9828598e-06
6.8537397e-06
8.1672355e-06
1.000742e-05
1.2177703e-05
1.3506148e-05
1.5766862e-05
4.6493132e-06
3.6930715e-06
2.7518934e-06
2.3270451e-06
2.0965817e-06
1.9249199e-06
1.7854128e-06
1.659041e-06
1.5324127e-06
1.4138669e-06
1.3037058e-06
1.2049189e-06
1.129937e-06
1.0771089e-06
1.037893e-06
1.0151699e-06
1.0034443e-06
1.0012637e-06
1.0020924e-06
1.000598e-06
9.8705401e-07
9.751857e-07
9.5888293e-07
9.3438931e-07
9.1033492e-07
8.8788731e-07
8.7617377e-07
8.7503879e-07
8.7398124e-07
8.7714991e-07
8.8835668e-07
9.0713295e-07
9.2892919e-07
9.6524646e-07
1.0235807e-06
1.075165e-06
1.1572948e-06
1.2459014e-06
1.3629596e-06
1.5090652e-06
1.6662464e-06
1.8711962e-06
2.2129003e-06
2.4239139e-06
2.7716385e-06
3.2286704e-06
3.7022224e-06
4.3074887e-06
5.2593388e-06
6.082287e-06
6.9842179e-06
8.1935446e-06
9.7366691e-06
1.0768167e-05
1.2267038e-05
4.6515228e-06
3.7029877e-06
2.7587829e-06
2.3311481e-06
2.0994964e-06
1.929109e-06
1.7896369e-06
1.6635003e-06
1.5418198e-06
1.4235557e-06
1.3096389e-06
1.2111038e-06
1.1357966e-06
1.082522e-06
1.0398424e-06
1.0207314e-06
1.0076682e-06
9.9733908e-07
1.0029319e-06
1.000393e-06
9.9193101e-07
9.7651222e-07
9.6207029e-07
9.413248e-07
9.1593225e-07
8.9147693e-07
8.8471981e-07
8.7842983e-07
8.7380721e-07
8.7812294e-07
8.9131544e-07
9.1026807e-07
9.3107698e-07
9.6319552e-07
1.009519e-06
1.0629411e-06
1.1166638e-06
1.2188995e-06
1.3015984e-06
1.4526865e-06
1.5752165e-06
1.7939444e-06
2.0969982e-06
2.3109547e-06
2.679063e-06
3.1231168e-06
3.4489384e-06
4.1179264e-06
4.8169306e-06
5.7783173e-06
6.457055e-06
7.5441485e-06
8.5017866e-06
9.6903768e-06
1.0625025e-05
4.6532816e-06
3.7106142e-06
2.763387e-06
2.3339172e-06
2.0994874e-06
1.9292218e-06
1.7924503e-06
1.6672953e-06
1.5446089e-06
1.4312715e-06
1.3172189e-06
1.2152851e-06
1.1412416e-06
1.0891139e-06
1.0470031e-06
1.0231832e-06
1.0092415e-06
9.9887103e-07
1.0011713e-06
9.9859607e-07
9.9541962e-07
9.7591156e-07
9.6188239e-07
9.4423849e-07
9.1661019e-07
8.8990826e-07
8.8422215e-07
8.7933209e-07
8.6954562e-07
8.6985399e-07
8.8513256e-07
9.0772822e-07
9.3014559e-07
9.5833633e-07
9.9061403e-07
1.0449744e-06
1.0940446e-06
1.1858001e-06
1.272042e-06
1.4191523e-06
1.5280009e-06
1.7317752e-06
2.0223887e-06
2.245549e-06
2.6149298e-06
3.0388909e-06
3.3452835e-06
3.9787116e-06
4.593486e-06
5.6413027e-06
6.342115e-06
7.4325421e-06
8.1964153e-06
9.5742565e-06
1.031635e-05
4.6562155e-06
3.7210119e-06
2.7679433e-06
2.3358914e-06
2.0994767e-06
1.929017e-06
1.7938877e-06
1.6687066e-06
1.543619e-06
1.4297718e-06
1.3210343e-06
1.2177729e-06
1.1430277e-06
1.0897725e-06
1.0485721e-06
1.0209706e-06
1.0067503e-06
1.0036722e-06
9.9981064e-07
9.9769834e-07
9.972005e-07
9.7948608e-07
9.5876635e-07
9.3996935e-07
9.1486812e-07
8.8960341e-07
8.7573269e-07
8.739658e-07
8.6732046e-07
8.6275793e-07
8.7577844e-07
9.0094254e-07
9.2660459e-07
9.5492295e-07
9.8192268e-07
1.0281504e-06
1.0794604e-06
1.1706631e-06
1.253368e-06
1.3987079e-06
1.5050592e-06
1.6891334e-06
1.974918e-06
2.1957564e-06
2.5560849e-06
3.0027339e-06
3.3027449e-06
3.9219885e-06
4.4966051e-06
5.5232641e-06
6.3068629e-06
7.4640133e-06
8.2345407e-06
9.7002806e-06
1.0707631e-05
4.6579939e-06
3.7304239e-06
2.773687e-06
2.3383541e-06
2.1020673e-06
1.9320744e-06
1.7955382e-06
1.6699336e-06
1.5461906e-06
1.4269445e-06
1.3205803e-06
1.2202369e-06
1.1429466e-06
1.0845082e-06
1.0423159e-06
1.0162963e-06
1.0021999e-06
1.0008196e-06
1.0012787e-06
9.9745776e-07
9.9657142e-07
9.825815e-07
9.5716719e-07
9.3566562e-07
9.1190107e-07
8.8877973e-07
8.6805396e-07
8.6351886e-07
8.6167377e-07
8.5772459e-07
8.6633644e-07
8.8681945e-07
9.0886464e-07
9.3463978e-07
9.6178634e-07
9.998678e-07
1.0448115e-06
1.1229828e-06
1.2010449e-06
1.3427642e-06
1.4557247e-06
1.6070977e-06
1.8843429e-06
2.0937398e-06
2.4402135e-06
2.8879358e-06
3.1874163e-06
3.7915478e-06
4.3928505e-06
5.2384983e-06
6.2028728e-06
7.2656354e-06
8.0264561e-06
9.4421529e-06
1.0847813e-05
4.6611777e-06
3.7417088e-06
2.7807931e-06
2.342325e-06
2.1078806e-06
1.9379774e-06
1.7995682e-06
1.675101e-06
1.5546546e-06
1.4330465e-06
1.3231989e-06
1.223269e-06
1.1448076e-06
1.0844999e-06
1.0405684e-06
1.0168116e-06
1.0026755e-06
9.9407064e-07
1.0017484e-06
9.95796e-07
9.9447738e-07
9.8444922e-07
9.5895768e-07
9.3696814e-07
9.1177207e-07
8.8863725e-07
8.6756494e-07
8.5888077e-07
8.560161e-07
8.535556e-07
8.579786e-07
8.702837e-07
8.8498533e-07
9.0105835e-07
9.2224182e-07
9.4783569e-07
9.8838308e-07
1.0314371e-06
1.0992411e-06
1.1970674e-06
1.3159079e-06
1.4171158e-06
1.6540165e-06
1.8449901e-06
2.1919096e-06
2.5548461e-06
2.893953e-06
3.4743506e-06
4.0665508e-06
4.6333702e-06
5.6939774e-06
6.5164222e-06
7.4005588e-06
8.5145669e-06
9.9731719e-06
4.6613313e-06
3.7465442e-06
2.7855155e-06
2.3461235e-06
2.1126504e-06
1.9409124e-06
1.8027694e-06
1.6793391e-06
1.5595849e-06
1.4417892e-06
1.3290454e-06
1.2235115e-06
1.1463239e-06
1.0891699e-06
1.0439713e-06
1.0182392e-06
1.0048048e-06
9.8601053e-07
9.9538212e-07
9.8514264e-07
9.8159772e-07
9.7385605e-07
9.5096232e-07
9.3201011e-07
9.0698862e-07
8.8298055e-07
8.6643905e-07
8.5714408e-07
8.4842532e-07
8.4366515e-07
8.4739888e-07
8.5743877e-07
8.6938605e-07
8.826229e-07
9.0002309e-07
9.1675025e-07
9.4860292e-07
9.7982042e-07
1.0301452e-06
1.0797277e-06
1.1733349e-06
1.2367146e-06
1.3718873e-06
1.4930904e-06
1.7396662e-06
1.947258e-06
2.3194318e-06
2.6614608e-06
3.2253068e-06
3.5810247e-06
4.3673709e-06
4.8910304e-06
5.9604697e-06
6.5696439e-06
7.713426e-06
4.6645209e-06
3.7534019e-06
2.788054e-06
2.3476011e-06
2.1118539e-06
1.9378038e-06
1.8001574e-06
1.676452e-06
1.5537994e-06
1.440567e-06
1.3301566e-06
1.2206018e-06
1.1457878e-06
1.0911305e-06
1.0464431e-06
1.0154813e-06
1.0024561e-06
9.8016728e-07
9.8430058e-07
9.7365748e-07
9.6851982e-07
9.6124949e-07
9.4267615e-07
9.2703296e-07
9.0660234e-07
8.8790757e-07
8.7953783e-07
8.7612625e-07
8.6606598e-07
8.6082311e-07
8.6617983e-07
8.799202e-07
8.957542e-07
9.1045306e-07
9.2828964e-07
9.4298194e-07
9.6623269e-07
9.8956076e-07
1.030648e-06
1.0673695e-06
1.1403519e-06
1.1917279e-06
1.2965772e-06
1.3864891e-06
1.5726934e-06
1.7286267e-06
1.9785426e-06
2.2099621e-06
2.5547341e-06
2.7725835e-06
3.1535341e-06
3.4554752e-06
4.0765335e-06
4.4771075e-06
5.188459e-06
4.6603034e-06
3.7435892e-06
2.7823415e-06
2.3411997e-06
2.0998517e-06
1.9222301e-06
1.7819337e-06
1.6582424e-06
1.5368346e-06
1.428528e-06
1.3268476e-06
1.2253221e-06
1.154484e-06
1.1018049e-06
1.0589169e-06
1.0258653e-06
1.0112135e-06
9.9130011e-07
9.9299446e-07
9.8440538e-07
9.8081951e-07
9.7636098e-07
9.6274321e-07
9.5500492e-07
9.5210315e-07
9.5187284e-07
9.5925394e-07
9.7846068e-07
9.8463532e-07
9.8838531e-07
1.0020375e-06
1.030529e-06
1.0581524e-06
1.0849672e-06
1.1185503e-06
1.1424625e-06
1.1709016e-06
1.1937763e-06
1.2335618e-06
1.2670014e-06
1.330607e-06
1.37969e-06
1.4660292e-06
1.5324943e-06
1.6632045e-06
1.7716588e-06
1.9395658e-06
2.1106101e-06
2.3472589e-06
2.4962104e-06
2.7181628e-06
2.980542e-06
3.4126504e-06
3.7622969e-06
4.2653432e-06
4.652828e-06
3.7208801e-06
2.767692e-06
2.3231413e-06
2.0753188e-06
1.8963828e-06
1.7592454e-06
1.6469593e-06
1.5459364e-06
1.4610481e-06
1.3873686e-06
1.3194923e-06
1.2676522e-06
1.2289275e-06
1.1982899e-06
1.1732684e-06
1.1638196e-06
1.1519597e-06
1.1628584e-06
1.1629538e-06
1.1740257e-06
1.1847616e-06
1.1851658e-06
1.2069663e-06
1.2473337e-06
1.2806321e-06
1.3459151e-06
1.4251675e-06
1.4795e-06
1.523497e-06
1.5561207e-06
1.6361466e-06
1.6953547e-06
1.7694083e-06
1.8581896e-06
1.9212912e-06
1.9807379e-06
2.0182431e-06
2.0784099e-06
2.1410074e-06
2.2104803e-06
2.2793431e-06
2.3779159e-06
2.4523229e-06
2.5639062e-06
2.6270368e-06
2.7115369e-06
2.8043842e-06
2.9499652e-06
3.0450757e-06
3.1562569e-06
3.3846193e-06
3.6009556e-06
3.9303135e-06
4.2046488e-06
4.619963e-06
3.6661019e-06
2.8070205e-06
2.3687422e-06
2.1274002e-06
1.9482563e-06
1.8369656e-06
1.7681495e-06
1.7492782e-06
1.7522242e-06
1.7698648e-06
1.7959035e-06
1.8083837e-06
1.8237955e-06
1.8299655e-06
1.8418312e-06
1.8687843e-06
1.8879943e-06
1.9456802e-06
1.9701908e-06
2.0401881e-06
2.1036327e-06
2.1322638e-06
2.2426925e-06
2.3922915e-06
2.4853386e-06
2.6740619e-06
2.8913144e-06
3.0668263e-06
3.2212276e-06
3.3101391e-06
3.5246213e-06
3.6924668e-06
3.9194978e-06
4.1662701e-06
4.3367708e-06
4.5090352e-06
4.6245699e-06
4.7790034e-06
4.9653785e-06
5.1064689e-06
5.2210586e-06
5.369999e-06
5.5303686e-06
5.7152467e-06
5.8217427e-06
5.8756311e-06
5.9065933e-06
5.9816883e-06
5.9947015e-06
6.0109463e-06
6.1255026e-06
6.2340221e-06
6.4477625e-06
6.4367544e-06
4.8879595e-06
4.6721038e-06
4.1229128e-06
3.6611952e-06
3.4465898e-06
3.1814148e-06
3.1283991e-06
3.1501141e-06
3.2705989e-06
3.4320741e-06
3.623128e-06
3.7664353e-06
3.8840301e-06
4.0113595e-06
4.0932455e-06
4.1920019e-06
4.3646044e-06
4.4618159e-06
4.6862309e-06
4.7831617e-06
5.0135875e-06
5.2176102e-06
5.3234962e-06
5.6209946e-06
5.9495003e-06
6.1631591e-06
6.5692772e-06
7.0315459e-06
7.410939e-06
7.8105765e-06
8.0434565e-06
8.5404324e-06
8.9877976e-06
9.5347212e-06
1.0157438e-05
1.0586149e-05
1.1058149e-05
1.1438315e-05
1.1887885e-05
1.2423137e-05
1.2872759e-05
1.3169449e-05
1.34345e-05
1.3770472e-05
1.4075532e-05
1.4347869e-05
1.4499224e-05
1.455976e-05
1.4705972e-05
1.4627941e-05
1.4500042e-05
1.4532235e-05
1.4668782e-05
1.483395e-05
1.4766243e-05
1.0192874e-05
1.8084006e-05
1.8359662e-05
1.7746164e-05
1.7283868e-05
1.6038885e-05
1.5311984e-05
1.4733911e-05
1.4531344e-05
1.4012092e-05
1.3714815e-05
1.3191113e-05
1.2825938e-05
1.2783583e-05
1.278638e-05
1.2920846e-05
1.3326617e-05
1.3372138e-05
1.4038023e-05
1.419546e-05
1.4637599e-05
1.5332451e-05
1.5476261e-05
1.5981574e-05
1.6748411e-05
1.7042818e-05
1.7639416e-05
1.8492836e-05
1.9000555e-05
1.9685877e-05
2.0142053e-05
2.0899285e-05
2.1541341e-05
2.2182531e-05
2.3216441e-05
2.430346e-05
2.5053812e-05
2.573812e-05
2.6379192e-05
2.73188e-05
2.8091047e-05
2.8678735e-05
2.9233337e-05
2.9425306e-05
3.0022314e-05
3.0710297e-05
3.1347011e-05
3.2017251e-05
3.2724001e-05
3.3102269e-05
3.3241723e-05
3.3621663e-05
3.3893815e-05
3.4141874e-05
3.4265932e-05
7.5312064e-05
0.00011608595
0.00010441781
9.8339047e-05
9.749936e-05
9.590237e-05
9.1070328e-05
8.4913392e-05
7.8907584e-05
7.3165905e-05
6.7842461e-05
6.356348e-05
6.0401928e-05
5.8044348e-05
5.7133095e-05
5.6401749e-05
5.5950808e-05
5.7165081e-05
5.8209057e-05
6.0699243e-05
6.304739e-05
6.4706182e-05
6.6570657e-05
6.6424519e-05
6.4932834e-05
6.3681492e-05
6.1964942e-05
6.0763177e-05
6.0383691e-05
5.8749142e-05
5.6347341e-05
5.4809771e-05
5.5544199e-05
5.7988651e-05
6.0392827e-05
6.304913e-05
6.612999e-05
6.8627246e-05
7.0933953e-05
7.3227583e-05
7.5769583e-05
7.8489955e-05
7.988563e-05
7.9381959e-05
7.6920338e-05
7.4450134e-05
7.3976083e-05
7.5373718e-05
7.7251481e-05
7.9224202e-05
8.0494115e-05
7.9750775e-05
7.7785115e-05
7.5506137e-05
7.4015927e-05
7.3446664e-05
3.5904708e-05
1.5513528e-05
6.8140926e-06
4.5039763e-06
4.6332975e-06
5.7602039e-06
9.0070685e-06
1.1841662e-05
1.2855857e-05
1.2567856e-05
1.1784524e-05
1.2217346e-05
1.4379132e-05
1.9269468e-05
2.4253431e-05
2.669427e-05
2.6858972e-05
2.7565902e-05
3.1687973e-05
4.0307184e-05
4.6831934e-05
5.7002272e-05
6.2500778e-05
7.4257959e-05
9.1856e-05
0.00012578888
7.4134318e-05
3.7157992e-05
1.6987628e-05
7.6824547e-06
5.134002e-06
5.3087095e-06
6.543118e-06
9.8640411e-06
1.3259758e-05
1.4889483e-05
1.4961958e-05
1.4515951e-05
1.504642e-05
1.73047e-05
2.23045e-05
2.8592927e-05
3.3056685e-05
3.4284018e-05
3.4539454e-05
3.7264013e-05
4.4848599e-05
5.1686729e-05
6.4711222e-05
7.2249267e-05
8.4380091e-05
9.5570423e-05
0.00012722198
7.6413169e-05
3.7258704e-05
1.7966729e-05
8.3632619e-06
5.7770109e-06
6.0153691e-06
7.2076387e-06
1.0243914e-05
1.4859391e-05
1.7550806e-05
1.8015447e-05
1.7495479e-05
1.7705481e-05
1.9654448e-05
2.5044163e-05
3.583295e-05
4.2387816e-05
4.3809965e-05
4.3017133e-05
4.549712e-05
5.509751e-05
6.185973e-05
7.1897982e-05
8.4548185e-05
0.00010147102
0.00011235888
0.00013930951
7.901174e-05
3.6737062e-05
1.8265356e-05
8.8665223e-06
6.2427929e-06
6.4770321e-06
7.7463576e-06
1.0966612e-05
1.7780709e-05
2.1747472e-05
2.2605657e-05
2.2010129e-05
2.1915285e-05
2.3760176e-05
3.0006305e-05
4.4485345e-05
5.1321844e-05
5.1966936e-05
5.0013991e-05
5.2436674e-05
6.3957913e-05
7.2142131e-05
8.4946687e-05
9.649572e-05
0.00011387235
0.00013447707
0.00016215732
8.0329248e-05
3.586247e-05
1.8914053e-05
9.8256031e-06
7.0301588e-06
7.2741088e-06
8.8748368e-06
1.2734766e-05
2.1131999e-05
2.6252804e-05
2.7905142e-05
2.7459847e-05
2.7569799e-05
3.0020706e-05
3.7157629e-05
5.2589335e-05
6.3316613e-05
6.5193762e-05
6.3818674e-05
6.5890516e-05
7.6679898e-05
8.2929402e-05
9.594033e-05
0.00010824851
0.00012531268
0.00015005629
0.00018349475
7.991216e-05
3.5053016e-05
1.9864675e-05
1.1155005e-05
8.301787e-06
8.5648275e-06
1.0305456e-05
1.4270994e-05
2.365857e-05
3.0463684e-05
3.3147977e-05
3.3264284e-05
3.3434125e-05
3.5531567e-05
4.1991971e-05
5.8194996e-05
7.4464196e-05
7.8928407e-05
7.8853959e-05
8.2115192e-05
9.5123213e-05
0.00010514912
0.00012019689
0.0001299929
0.00015467333
0.00017125731
0.00019690905
7.8317777e-05
3.4382392e-05
2.1192848e-05
1.2557138e-05
9.5598218e-06
9.7457061e-06
1.1431912e-05
1.5837222e-05
2.7542762e-05
3.78667e-05
4.2381155e-05
4.2769846e-05
4.2533639e-05
4.4104833e-05
5.0553996e-05
6.9483163e-05
8.9380242e-05
9.3782995e-05
9.3001548e-05
9.6249637e-05
0.00010871111
0.00012786905
0.00014645064
0.0001567521
0.00018197607
0.00020725507
0.00021954742
7.7496247e-05
3.397814e-05
2.225126e-05
1.3951236e-05
1.0850854e-05
1.107661e-05
1.3296018e-05
1.9473313e-05
3.5478863e-05
4.7065136e-05
5.2277464e-05
5.2843709e-05
5.1764414e-05
5.3252493e-05
6.1407594e-05
8.6382306e-05
0.00011513221
0.0001236785
0.00012192127
0.00012115115
0.00012724246
0.00014747297
0.00017752393
0.00019556846
0.00021327344
0.00023772427
0.00025463407
7.8383366e-05
3.3627273e-05
2.2470142e-05
1.5489742e-05
1.3187339e-05
1.3863169e-05
1.7410746e-05
2.638684e-05
4.6551114e-05
5.9695506e-05
6.5689035e-05
6.5845581e-05
6.4708673e-05
6.6470462e-05
7.6164712e-05
0.00010329882
0.00013943467
0.00015868973
0.00016508371
0.00016535575
0.00016747606
0.00018260395
0.0002203799
0.0002584789
0.00027058255
0.00028345575
0.00028889776
7.9578279e-05
3.3048135e-05
2.2205032e-05
1.7012832e-05
1.5540377e-05
1.6683747e-05
2.1271896e-05
3.1945961e-05
5.4895495e-05
7.1269945e-05
7.9952438e-05
8.2229909e-05
8.3366068e-05
8.6651935e-05
9.607911e-05
0.00011913414
0.00015945807
0.00018659645
0.00020159346
0.00020937121
0.00021680935
0.00022844766
0.00025878038
0.00031558054
0.00035212589
0.00035964143
0.00034362955
7.9919975e-05
3.2214801e-05
2.1682345e-05
1.778361e-05
1.7304164e-05
1.8806168e-05
2.4172832e-05
3.616111e-05
6.1867667e-05
8.1023e-05
9.1523607e-05
9.5849695e-05
9.968981e-05
0.0001061784
0.00011960267
0.0001431643
0.00019076705
0.0002296797
0.00024930917
0.00025564546
0.00026435453
0.00027847156
0.0003046395
0.00035920931
0.00041689174
0.00045112551
0.00045498737
7.8856157e-05
3.1332656e-05
2.1181034e-05
1.8730002e-05
1.9126048e-05
2.1383699e-05
2.8108348e-05
4.3291623e-05
7.4475179e-05
9.6592616e-05
0.00010835055
0.0001134888
0.00011755875
0.00012596415
0.00014725876
0.00018920062
0.00025617207
0.00031244615
0.00033959775
0.0003442485
0.0003464425
0.00035095977
0.00036315986
0.00041600969
0.00048052902
0.00051807553
0.00058691433
7.7267903e-05
3.0668564e-05
2.1181905e-05
2.0125659e-05
2.1297398e-05
2.5076646e-05
3.4412861e-05
5.3661886e-05
8.936661e-05
0.00011650576
0.00013176052
0.00013922461
0.0001459202
0.00015753535
0.00018541435
0.00023719407
0.00031719504
0.00038531931
0.00043429134
0.00045838458
0.00047294458
0.00047136443
0.00047111936
0.00052798362
0.0005885183
0.00061021869
0.00069421248
7.617832e-05
3.0095756e-05
2.1721283e-05
2.1707625e-05
2.3526982e-05
2.8860099e-05
4.0686347e-05
6.2898164e-05
0.00010226918
0.00013457806
0.00015403778
0.00016493526
0.00017655089
0.00019575434
0.00023331296
0.00029291031
0.00037824246
0.00044603856
0.00050091587
0.000550041
0.00060312452
0.0006121997
0.00059686941
0.00063791661
0.00073055873
0.00074439453
0.00078151196
7.7940098e-05
2.9790307e-05
2.2254178e-05
2.3045275e-05
2.5780218e-05
3.2540135e-05
4.5503722e-05
6.9844962e-05
0.00011390252
0.00015342768
0.00017810455
0.00019262799
0.00020827745
0.00023591198
0.00029078993
0.00038126913
0.00047815148
0.00054445678
0.00058595599
0.00063188887
0.00070409148
0.00074656546
0.00073350112
0.00075174429
0.00084952384
0.00092630243
0.00091159953
8.5685716e-05
3.0232918e-05
2.258723e-05
2.4312648e-05
2.8566602e-05
3.7573709e-05
5.2784206e-05
8.1564531e-05
0.00013095644
0.00018146315
0.00021729523
0.00024000288
0.0002629213
0.00030246932
0.00038065539
0.00049975231
0.00060841835
0.0006790956
0.00072593157
0.00077362776
0.00083438969
0.00088723479
0.00090585423
0.00093327291
0.0010190659
0.0010994157
0.0010978728
9.5841769e-05
3.0721629e-05
2.3357985e-05
2.5424359e-05
3.0211298e-05
4.0096024e-05
5.5623709e-05
8.4930605e-05
0.00013710734
0.00019916341
0.00025147383
0.00029023616
0.00033104773
0.0003936471
0.00049108801
0.00062000398
0.0007343972
0.00081329205
0.00087582484
0.00095094639
0.0010261822
0.0010695602
0.0010987643
0.0011709619
0.0012583417
0.0012649994
0.0012456894
0.00010209967
3.1531123e-05
2.4547251e-05
2.6242158e-05
3.0943287e-05
4.1160627e-05
5.7542753e-05
8.7485951e-05
0.00014162189
0.00020893089
0.00026811771
0.00031708294
0.00037846676
0.00047259828
0.00059984668
0.00074659002
0.00087097848
0.00095467688
0.0010321415
0.0011416416
0.0012514951
0.0012900678
0.0013067819
0.0013838822
0.0014883564
0.0014495261
0.0013510781
0.00010123099
3.3360633e-05
2.6235649e-05
2.7829724e-05
3.3107323e-05
4.5473923e-05
6.5435001e-05
9.7933438e-05
0.00015123429
0.0002165566
0.00027792775
0.00033341987
0.00040914808
0.000524237
0.00067595519
0.00085064205
0.0010059977
0.0011060814
0.0011909907
0.0013209309
0.0014748221
0.0015284631
0.0015354112
0.0015794196
0.0016593762
0.0016320017
0.0015014297
0.00010088128
3.6098425e-05
2.9125153e-05
3.1204406e-05
3.7709178e-05
5.32726e-05
7.4659513e-05
0.00010774703
0.00016281096
0.00023251308
0.00030060251
0.00036340267
0.00044514275
0.00056906675
0.00074040619
0.00094456235
0.0011413014
0.0012795192
0.0013805015
0.0015233252
0.0017189116
0.0018271394
0.0018364286
0.0018160281
0.0018227628
0.0017903894
0.0016913016
0.00010160401
3.8971975e-05
3.3235041e-05
3.6036351e-05
4.4283106e-05
6.2164845e-05
8.5580211e-05
0.00012200084
0.00018114858
0.00025754428
0.00033447663
0.00040391994
0.00048961641
0.0006161145
0.00079609648
0.0010263324
0.0012602364
0.001434778
0.0015653328
0.0017219296
0.0019499623
0.0021592387
0.0022052625
0.0021428502
0.0020565663
0.0019752374
0.0018844914
0.00010001593
4.0460648e-05
3.8276238e-05
4.4164693e-05
5.8103664e-05
7.8410853e-05
0.00010299904
0.00014116286
0.00020209095
0.00027950328
0.00035806194
0.00043123347
0.00051975729
0.00064673237
0.0008229987
0.0010426841
0.0012792115
0.0014831822
0.0016495469
0.0018299408
0.0020928447
0.0023929626
0.0025242969
0.0024622877
0.0023404571
0.0022213863
0.0021190281
9.9646577e-05
4.4801907e-05
4.9930721e-05
6.7087464e-05
8.3224213e-05
0.00010109817
0.00012909918
0.00017372578
0.0002361315
0.00031437484
0.00039525276
0.0004696161
0.00055197572
0.00066451763
0.00081732425
0.0010068862
0.0012199902
0.0014254527
0.0016110752
0.001817248
0.002108797