/*--------------------------------*- C++ -*----------------------------------*\
| =========                 |                                                 |
| \\      /  F ield         | OpenFOAM: The Open Source CFD Toolbox           |
|  \\    /   O peration     | Version:  2406                                  |
|   \\  /    A nd           | Website:  www.openfoam.com                      |
|    \\/     M anipulation  |                                                 |
\*---------------------------------------------------------------------------*/
FoamFile
{
    version     2.0;
    format      ascii;
    arch        "LSB;label=32;scalar=64";
    class       volScalarField;
    location    "13";
    object      k_0;
}
// * * * * * * * * * * * * * * * * * * * * * * * * * * * * * * * * * * * * * //

dimensions      [0 2 -2 0 0 0 0];

internalField   nonuniform List<scalar> 
96472
(
3.2873916e-06
2.7666889e-06
2.0425618e-06
1.6912422e-06
1.5326242e-06
1.4402079e-06
1.3490552e-06
1.2370468e-06
1.1125357e-06
9.9604169e-07
9.0393954e-07
8.4250015e-07
8.0874895e-07
7.9347339e-07
7.8729806e-07
7.8108117e-07
7.7078276e-07
7.5430459e-07
7.2983986e-07
7.0095771e-07
6.7361403e-07
6.4940996e-07
6.2909287e-07
6.1374718e-07
6.0251741e-07
5.9459565e-07
5.8877764e-07
5.8539852e-07
5.8216263e-07
5.8062066e-07
5.7989907e-07
5.8061119e-07
5.8177063e-07
5.8474776e-07
5.8864222e-07
5.9510442e-07
6.0526636e-07
6.1831028e-07
6.4080786e-07
6.511027e-07
6.6439834e-07
6.7108111e-07
6.7650188e-07
6.8004886e-07
6.819129e-07
6.8893908e-07
7.0209789e-07
7.1939718e-07
7.429035e-07
7.6940961e-07
8.0113497e-07
8.411539e-07
8.7723054e-07
9.2520309e-07
1.0017452e-06
3.2840541e-06
2.7638739e-06
2.0449618e-06
1.6930014e-06
1.533335e-06
1.4410474e-06
1.3511763e-06
1.2407006e-06
1.1171762e-06
1.0005037e-06
9.0737321e-07
8.4444409e-07
8.0930899e-07
7.932965e-07
7.8672225e-07
7.8096492e-07
7.7048798e-07
7.5341183e-07
7.3009019e-07
7.0346112e-07
6.7658686e-07
6.5255286e-07
6.319114e-07
6.1597046e-07
6.0408041e-07
5.9577429e-07
5.8971039e-07
5.856691e-07
5.8291057e-07
5.8077505e-07
5.7961073e-07
5.7929671e-07
5.7944278e-07
5.7982493e-07
5.8044107e-07
5.816851e-07
5.8418821e-07
5.8787844e-07
5.9631004e-07
6.0589564e-07
6.2343551e-07
6.4480357e-07
6.6140055e-07
6.7514784e-07
6.8361206e-07
6.9570232e-07
7.0250179e-07
7.1845184e-07
7.2888362e-07
7.5383813e-07
7.6844628e-07
7.9779915e-07
8.3134339e-07
8.5891327e-07
9.2780269e-07
3.2841543e-06
2.7670759e-06
2.0492106e-06
1.6955569e-06
1.5347065e-06
1.4425606e-06
1.3539029e-06
1.244865e-06
1.1220821e-06
1.0050806e-06
9.1083797e-07
8.4644653e-07
8.100395e-07
7.9329439e-07
7.8661117e-07
7.8148252e-07
7.7215636e-07
7.561943e-07
7.3336777e-07
7.06732e-07
6.7958512e-07
6.5504571e-07
6.3408602e-07
6.1786531e-07
6.0538294e-07
5.9686473e-07
5.9024781e-07
5.8618e-07
5.8306191e-07
5.8108441e-07
5.7983399e-07
5.7973282e-07
5.799814e-07
5.8085201e-07
5.820144e-07
5.8438199e-07
5.8598986e-07
5.8929052e-07
5.9170306e-07
5.9702098e-07
6.017842e-07
6.1313036e-07
6.2311485e-07
6.452015e-07
6.6115522e-07
6.8532395e-07
6.9468274e-07
7.1416356e-07
7.2314041e-07
7.4154708e-07
7.6020337e-07
7.7436535e-07
8.0261424e-07
8.2024016e-07
8.6687883e-07
3.2855104e-06
2.7717236e-06
2.0536153e-06
1.6981519e-06
1.5361026e-06
1.4439856e-06
1.3565178e-06
1.2489268e-06
1.1269172e-06
1.0097308e-06
9.1446112e-07
8.4861265e-07
8.1094749e-07
7.9336589e-07
7.8645707e-07
7.816719e-07
7.7297944e-07
7.579384e-07
7.3621871e-07
7.10287e-07
6.8348493e-07
6.5891903e-07
6.3748718e-07
6.207196e-07
6.0776282e-07
5.985744e-07
5.9167687e-07
5.8697012e-07
5.834711e-07
5.8117792e-07
5.7955967e-07
5.791102e-07
5.7915129e-07
5.7960548e-07
5.8050537e-07
5.8280542e-07
5.8462348e-07
5.8878394e-07
5.9111412e-07
5.9654196e-07
5.9953604e-07
6.0672908e-07
6.1130514e-07
6.2276447e-07
6.3075799e-07
6.5145456e-07
6.641704e-07
6.8920161e-07
7.0894045e-07
7.235401e-07
7.4717533e-07
7.6009948e-07
7.8587329e-07
7.9977257e-07
8.3362921e-07
3.2868449e-06
2.7763678e-06
2.058112e-06
1.7008468e-06
1.53756e-06
1.4454824e-06
1.3591562e-06
1.2529618e-06
1.1317624e-06
1.0144024e-06
9.1812811e-07
8.5087718e-07
8.1189721e-07
7.9345087e-07
7.8636563e-07
7.8189715e-07
7.7395188e-07
7.5955176e-07
7.3848664e-07
7.1299636e-07
6.8623229e-07
6.616842e-07
6.4003106e-07
6.2290911e-07
6.0951894e-07
6.0016861e-07
5.9272931e-07
5.8798548e-07
5.8418442e-07
5.8185742e-07
5.7984297e-07
5.7915424e-07
5.7904174e-07
5.7934758e-07
5.7994899e-07
5.8169007e-07
5.8311273e-07
5.8668915e-07
5.8897347e-07
5.9450246e-07
5.9750293e-07
6.0460625e-07
6.0840584e-07
6.1672791e-07
6.2327271e-07
6.3124707e-07
6.454929e-07
6.5589347e-07
6.7761356e-07
6.9018329e-07
7.1689022e-07
7.305471e-07
7.5849142e-07
7.7288291e-07
8.0614097e-07
3.2885438e-06
2.7814553e-06
2.0626488e-06
1.703548e-06
1.5390546e-06
1.4469594e-06
1.3617517e-06
1.2569586e-06
1.1365894e-06
1.0191141e-06
9.2187937e-07
8.532436e-07
8.1295066e-07
7.9365468e-07
7.862479e-07
7.8204371e-07
7.7480254e-07
7.6135461e-07
7.4120841e-07
7.1643513e-07
6.8999626e-07
6.6520293e-07
6.4331382e-07
6.2563941e-07
6.116139e-07
6.0175241e-07
5.9396707e-07
5.8873326e-07
5.8458777e-07
5.821618e-07
5.7991771e-07
5.7884209e-07
5.7842979e-07
5.7862474e-07
5.7901803e-07
5.802371e-07
5.814303e-07
5.8434517e-07
5.8637521e-07
5.9078876e-07
5.9435424e-07
5.9945112e-07
6.0561215e-07
6.107628e-07
6.1976268e-07
6.2514132e-07
6.3633927e-07
6.4320828e-07
6.5831844e-07
6.676718e-07
6.8769077e-07
6.9950763e-07
7.2388627e-07
7.3781175e-07
7.6957929e-07
3.2898868e-06
2.7860589e-06
2.0671072e-06
1.7062943e-06
1.5405989e-06
1.4484725e-06
1.3643038e-06
1.260918e-06
1.1414219e-06
1.0239107e-06
9.2578732e-07
8.5576261e-07
8.1412893e-07
7.9389032e-07
7.8611958e-07
7.8211083e-07
7.7545463e-07
7.6288859e-07
7.4362652e-07
7.1937554e-07
6.9331038e-07
6.6842501e-07
6.4617236e-07
6.2819323e-07
6.1380188e-07
6.033629e-07
5.9551575e-07
5.8987474e-07
5.8550124e-07
5.8275569e-07
5.8062647e-07
5.7917531e-07
5.7844769e-07
5.7843761e-07
5.7863044e-07
5.7926518e-07
5.805197e-07
5.8211467e-07
5.8514032e-07
5.872946e-07
5.9186607e-07
5.949497e-07
6.0137634e-07
6.0537596e-07
6.1378855e-07
6.1870338e-07
6.2893836e-07
6.348832e-07
6.4729646e-07
6.5460593e-07
6.7013617e-07
6.7922099e-07
6.9828923e-07
7.091042e-07
7.3573642e-07
3.2917714e-06
2.791407e-06
2.0717557e-06
1.7091391e-06
1.5422414e-06
1.4500564e-06
1.3669085e-06
1.2648464e-06
1.1462732e-06
1.0287965e-06
9.2983548e-07
8.5845642e-07
8.1542457e-07
7.9414039e-07
7.8596177e-07
7.8214879e-07
7.7623817e-07
7.6450155e-07
7.4619022e-07
7.2254819e-07
6.9674281e-07
6.7176654e-07
6.4926419e-07
6.3060131e-07
6.1593995e-07
6.0493606e-07
5.9674675e-07
5.9076217e-07
5.863653e-07
5.8309914e-07
5.8088715e-07
5.7922114e-07
5.7828258e-07
5.780688e-07
5.7815905e-07
5.7849363e-07
5.7949135e-07
5.8066877e-07
5.8321635e-07
5.8510178e-07
5.8913504e-07
5.9179048e-07
5.9735276e-07
6.0082483e-07
6.0808479e-07
6.1244472e-07
6.2153763e-07
6.2682218e-07
6.3794256e-07
6.4426088e-07
6.5757716e-07
6.6473132e-07
6.8067752e-07
6.8934476e-07
7.1034826e-07
3.293193e-06
2.795837e-06
2.0761112e-06
1.7119556e-06
1.5439054e-06
1.4516174e-06
1.3694379e-06
1.2688083e-06
1.1512069e-06
1.0338123e-06
9.3397878e-07
8.6117236e-07
8.1670451e-07
7.9439487e-07
7.8582809e-07
7.8220983e-07
7.7697014e-07
7.6610236e-07
7.4847913e-07
7.2546869e-07
6.9982551e-07
6.7478715e-07
6.5218993e-07
6.3302223e-07
6.1791568e-07
6.0649912e-07
5.9815403e-07
5.9184397e-07
5.8732196e-07
5.8380604e-07
5.8149435e-07
5.7972585e-07
5.7849719e-07
5.7797334e-07
5.7801272e-07
5.7819823e-07
5.7887147e-07
5.7974795e-07
5.8176568e-07
5.8331427e-07
5.867116e-07
5.8899426e-07
5.9386506e-07
5.9689362e-07
6.032727e-07
6.0702955e-07
6.1501038e-07
6.1964725e-07
6.2936741e-07
6.3493028e-07
6.4621495e-07
6.5308401e-07
6.6619148e-07
6.74008e-07
6.9103155e-07
3.2956653e-06
2.8021823e-06
2.0811038e-06
1.7150021e-06
1.5456994e-06
1.4532647e-06
1.3720166e-06
1.2727658e-06
1.1561531e-06
1.0388388e-06
9.3816457e-07
8.6396329e-07
8.1810284e-07
7.9479367e-07
7.8574951e-07
7.8223911e-07
7.7744176e-07
7.6744205e-07
7.5051143e-07
7.2808217e-07
7.028529e-07
6.7772172e-07
6.5487681e-07
6.3544582e-07
6.1988943e-07
6.0799711e-07
5.9939662e-07
5.92838e-07
5.8803176e-07
5.8444643e-07
5.8197304e-07
5.8011433e-07
5.7865685e-07
5.7784571e-07
5.7769702e-07
5.777973e-07
5.7819133e-07
5.7890812e-07
5.8056034e-07
5.818756e-07
5.8477806e-07
5.8674101e-07
5.9095087e-07
5.9359298e-07
5.9911966e-07
6.0247397e-07
6.0941568e-07
6.1347898e-07
6.2194784e-07
6.2671803e-07
6.3694819e-07
6.4252207e-07
6.5430839e-07
6.6075646e-07
6.7517589e-07
3.2971062e-06
2.8063039e-06
2.0852211e-06
1.7178155e-06
1.5474405e-06
1.4549169e-06
1.3745622e-06
1.2766568e-06
1.1610435e-06
1.0438889e-06
9.4248246e-07
8.6696366e-07
8.19699e-07
7.9527303e-07
7.8569017e-07
7.821797e-07
7.7779097e-07
7.6850692e-07
7.5241566e-07
7.3059832e-07
7.0582528e-07
6.808099e-07
6.5776818e-07
6.3792587e-07
6.2201459e-07
6.0967674e-07
6.0060504e-07
5.9394019e-07
5.8900202e-07
5.8521043e-07
5.8246201e-07
5.8052299e-07
5.7906405e-07
5.7802121e-07
5.7763059e-07
5.7762898e-07
5.7783527e-07
5.7833918e-07
5.7958531e-07
5.8069836e-07
5.8310095e-07
5.8478115e-07
5.8840125e-07
5.9071009e-07
5.9561147e-07
5.985246e-07
6.0462646e-07
6.0818894e-07
6.1563991e-07
6.1991958e-07
6.288283e-07
6.3355208e-07
6.4417203e-07
6.4972302e-07
6.6200132e-07
3.300174e-06
2.8136583e-06
2.0905734e-06
1.7210544e-06
1.5494007e-06
1.4566648e-06
1.3771278e-06
1.2804959e-06
1.1658753e-06
1.0489587e-06
9.4691006e-07
8.701243e-07
8.2146152e-07
7.9585668e-07
7.8563023e-07
7.8202731e-07
7.7813033e-07
7.6954634e-07
7.5421937e-07
7.3313775e-07
7.087174e-07
6.8388662e-07
6.6076579e-07
6.4052225e-07
6.2410098e-07
6.1139006e-07
6.0194595e-07
5.9493486e-07
5.8981563e-07
5.8591097e-07
5.8300786e-07
5.8088664e-07
5.7936202e-07
5.7814705e-07
5.7754492e-07
5.7744344e-07
5.7754847e-07
5.7787609e-07
5.7884542e-07
5.7974502e-07
5.8177613e-07
5.8322817e-07
5.8633645e-07
5.8836905e-07
5.9263948e-07
5.951972e-07
6.0057546e-07
6.0373938e-07
6.1025523e-07
6.1406887e-07
6.2164303e-07
6.2649696e-07
6.3536084e-07
6.4014835e-07
6.5110105e-07
3.3016654e-06
2.817561e-06
2.0945361e-06
1.7238288e-06
1.551152e-06
1.458281e-06
1.3795839e-06
1.2843232e-06
1.1707408e-06
1.0540936e-06
9.5137064e-07
8.7330854e-07
8.232225e-07
7.9641832e-07
7.8556196e-07
7.8184175e-07
7.7834103e-07
7.7060586e-07
7.559859e-07
7.3566211e-07
7.1173832e-07
6.8698974e-07
6.6370885e-07
6.4321353e-07
6.2632264e-07
6.1307749e-07
6.0330599e-07
5.9600175e-07
5.9064353e-07
5.8661663e-07
5.8367109e-07
5.8140435e-07
5.797909e-07
5.7843639e-07
5.7759179e-07
5.773179e-07
5.7736119e-07
5.7755329e-07
5.7818263e-07
5.7894813e-07
5.8063821e-07
5.8186213e-07
5.8455374e-07
5.8633383e-07
5.9006832e-07
5.9233877e-07
5.9712469e-07
5.9983927e-07
6.0562934e-07
6.0892916e-07
6.1591222e-07
6.1976582e-07
6.2763911e-07
6.3231351e-07
6.4142969e-07
3.305304e-06
2.8257564e-06
2.1003485e-06
1.7273039e-06
1.5531993e-06
1.4600589e-06
1.3821371e-06
1.2881763e-06
1.1756452e-06
1.0592628e-06
9.5592776e-07
8.7659755e-07
8.2509204e-07
7.9707814e-07
7.8553017e-07
7.8169083e-07
7.7846338e-07
7.7145097e-07
7.576835e-07
7.3798857e-07
7.1464915e-07
6.9012523e-07
6.667183e-07
6.4589878e-07
6.2863725e-07
6.1490753e-07
6.0468757e-07
5.9716041e-07
5.9161948e-07
5.8734923e-07
5.8421182e-07
5.8179439e-07
5.8011066e-07
5.7870302e-07
5.777051e-07
5.7722841e-07
5.7715994e-07
5.7726014e-07
5.7769991e-07
5.7832579e-07
5.7970272e-07
5.8077372e-07
5.8311111e-07
5.8464223e-07
5.8792757e-07
5.8998237e-07
5.9412586e-07
5.9661488e-07
6.0176354e-07
6.0463579e-07
6.1084824e-07
6.1406641e-07
6.213136e-07
6.2545044e-07
6.3341642e-07
3.3069537e-06
2.8295835e-06
2.1041722e-06
1.7299908e-06
1.5549334e-06
1.4616329e-06
1.3845129e-06
1.2918853e-06
1.1804342e-06
1.0643851e-06
9.6049367e-07
8.7994361e-07
8.2703535e-07
7.9776777e-07
7.8551433e-07
7.8145242e-07
7.7858759e-07
7.7221367e-07
7.5934873e-07
7.404474e-07
7.1762415e-07
6.9344317e-07
6.700025e-07
6.4880647e-07
6.3105868e-07
6.1693547e-07
6.0622629e-07
5.9830692e-07
5.9254586e-07
5.8812452e-07
5.8480492e-07
5.8225846e-07
5.8041307e-07
5.7900158e-07
5.7790148e-07
5.772425e-07
5.7705337e-07
5.7709096e-07
5.7732743e-07
5.7776934e-07
5.7889978e-07
5.7981221e-07
5.8183375e-07
5.8320179e-07
5.8613393e-07
5.8789134e-07
5.9169589e-07
5.938156e-07
5.9843173e-07
6.0104731e-07
6.06295e-07
6.0932534e-07
6.159543e-07
6.1900924e-07
6.2644381e-07
3.3111116e-06
2.838272e-06
2.1102788e-06
1.7337326e-06
1.5571693e-06
1.4635408e-06
1.3871145e-06
1.295748e-06
1.1853773e-06
1.0696879e-06
9.6519176e-07
8.8342838e-07
8.2907861e-07
7.9849625e-07
7.8552686e-07
7.8123389e-07
7.7867178e-07
7.730712e-07
7.6110458e-07
7.4306568e-07
7.2074828e-07
6.9679002e-07
6.7332174e-07
6.5191953e-07
6.3368001e-07
6.1897386e-07
6.0783536e-07
5.9955461e-07
5.9351326e-07
5.889564e-07
5.85507e-07
5.828724e-07
5.8082111e-07
5.7931772e-07
5.7811224e-07
5.7728996e-07
5.769519e-07
5.7691759e-07
5.7702866e-07
5.77373e-07
5.7826906e-07
5.7907709e-07
5.8084392e-07
5.820454e-07
5.8457739e-07
5.8621336e-07
5.8955512e-07
5.9155184e-07
5.9565179e-07
5.9797647e-07
6.0275081e-07
6.0561004e-07
6.1086261e-07
6.1415362e-07
6.2060042e-07
3.3128488e-06
2.8419509e-06
2.1138933e-06
1.7363529e-06
1.5589e-06
1.4651234e-06
1.3894488e-06
1.29935e-06
1.1900842e-06
1.0747963e-06
9.6982797e-07
8.869337e-07
8.3115083e-07
7.9930896e-07
7.8555269e-07
7.8104627e-07
7.7866811e-07
7.7384763e-07
7.6290698e-07
7.4551205e-07
7.2387866e-07
7.0023805e-07
6.7669735e-07
6.5501829e-07
6.3641478e-07
6.2121837e-07
6.0960433e-07
6.0098295e-07
5.9462577e-07
5.8978583e-07
5.8611917e-07
5.8337797e-07
5.8123011e-07
5.7966407e-07
5.7838531e-07
5.7742245e-07
5.7691378e-07
5.7676185e-07
5.7683209e-07
5.7705428e-07
5.7772313e-07
5.7842315e-07
5.7992524e-07
5.8099148e-07
5.8330809e-07
5.8481714e-07
5.8782848e-07
5.8957361e-07
5.9329203e-07
5.9540095e-07
5.9955782e-07
6.0225055e-07
6.0665644e-07
6.1012229e-07
6.1526264e-07
3.3175875e-06
2.8507294e-06
2.1202428e-06
1.7403527e-06
1.5614188e-06
1.4672923e-06
1.3921941e-06
1.3032505e-06
1.1951531e-06
1.0802713e-06
9.7476289e-07
8.9060118e-07
8.3327847e-07
8.0019046e-07
7.8563246e-07
7.8090089e-07
7.7875711e-07
7.7460045e-07
7.6491993e-07
7.4827139e-07
7.2715281e-07
7.0380593e-07
6.8033423e-07
6.5843887e-07
6.3937992e-07
6.2370219e-07
6.1148021e-07
6.0241765e-07
5.9582533e-07
5.9082709e-07
5.8697839e-07
5.8399866e-07
5.8173132e-07
5.8002743e-07
5.7872297e-07
5.7767408e-07
5.7699204e-07
5.7673225e-07
5.7673432e-07
5.7684635e-07
5.7733285e-07
5.7792855e-07
5.7922584e-07
5.8014241e-07
5.8222263e-07
5.8354056e-07
5.8620858e-07
5.8790295e-07
5.9134759e-07
5.931875e-07
5.9702789e-07
5.9944467e-07
6.0398614e-07
6.0641781e-07
6.1098875e-07
3.3194129e-06
2.8537705e-06
2.1236621e-06
1.742911e-06
1.5631771e-06
1.4689424e-06
1.3945256e-06
1.3068167e-06
1.1998224e-06
1.0854451e-06
9.7954042e-07
8.9434883e-07
8.3553768e-07
8.0119447e-07
7.8580851e-07
7.8073841e-07
7.7881034e-07
7.7528268e-07
7.6671363e-07
7.5080956e-07
7.3027973e-07
7.0728117e-07
6.8381792e-07
6.6169054e-07
6.4219431e-07
6.261266e-07
6.1346927e-07
6.0386094e-07
5.9684672e-07
5.9161035e-07
5.8761862e-07
5.8458145e-07
5.8222505e-07
5.8039679e-07
5.7902001e-07
5.7788406e-07
5.7708103e-07
5.7671168e-07
5.7660705e-07
5.7667652e-07
5.7697965e-07
5.7747019e-07
5.7856761e-07
5.7944319e-07
5.8136139e-07
5.8276252e-07
5.8472667e-07
5.8661946e-07
5.8943213e-07
5.9108951e-07
5.9497967e-07
5.9714573e-07
6.0124388e-07
6.0298637e-07
6.0753237e-07
3.3265646e-06
2.8615476e-06
2.1301494e-06
1.747194e-06
1.5660674e-06
1.471383e-06
1.3974225e-06
1.3107901e-06
1.2050378e-06
1.0911204e-06
9.8472679e-07
8.98276e-07
8.3786248e-07
8.0229508e-07
7.8600852e-07
7.8060766e-07
7.7879633e-07
7.7591756e-07
7.6860802e-07
7.5356985e-07
7.3357215e-07
7.1082377e-07
6.8740791e-07
6.6523529e-07
6.4539261e-07
6.2866717e-07
6.1547948e-07
6.0551937e-07
5.9820166e-07
5.9270088e-07
5.8848045e-07
5.8524729e-07
5.8279877e-07
5.8084485e-07
5.7941976e-07
5.7819734e-07
5.7727894e-07
5.7672577e-07
5.7652578e-07
5.7653635e-07
5.7670326e-07
5.7709526e-07
5.7795777e-07
5.7869171e-07
5.8040415e-07
5.8174714e-07
5.8355406e-07
5.8544732e-07
5.8782951e-07
5.8978172e-07
5.9320869e-07
5.9545243e-07
5.9848483e-07
6.0080153e-07
6.0509698e-07
3.3284604e-06
2.8641085e-06
2.1333273e-06
1.7496045e-06
1.5678476e-06
1.4731792e-06
1.3997678e-06
1.314154e-06
1.209408e-06
1.0961533e-06
9.8958561e-07
9.022566e-07
8.4043525e-07
8.0360446e-07
7.8635486e-07
7.8055737e-07
7.7872319e-07
7.761482e-07
7.6970512e-07
7.5536636e-07
7.3606544e-07
7.1382082e-07
6.9050301e-07
6.6822897e-07
6.4832228e-07
6.3145904e-07
6.1785226e-07
6.0733351e-07
5.9959629e-07
5.9379721e-07
5.893817e-07
5.8599752e-07
5.8340489e-07
5.8131423e-07
5.7974169e-07
5.7848652e-07
5.7745333e-07
5.7673105e-07
5.7642883e-07
5.7634595e-07
5.7642691e-07
5.7677693e-07
5.7724754e-07
5.7806905e-07
5.8008663e-07
5.8129564e-07
5.8221902e-07
5.8384162e-07
5.8610176e-07
5.8854772e-07
5.9140689e-07
5.9323978e-07
5.9619954e-07
5.9864298e-07
6.0224473e-07
3.3384249e-06
2.8731258e-06
2.1400447e-06
1.7539612e-06
1.5709666e-06
1.476078e-06
1.40325e-06
1.3185758e-06
1.2149094e-06
1.1020064e-06
9.9500141e-07
9.0648613e-07
8.4314909e-07
8.0501268e-07
7.8685133e-07
7.8059364e-07
7.7875785e-07
7.762866e-07
7.7017503e-07
7.5665272e-07
7.382478e-07
7.1701724e-07
6.9500759e-07
6.7391667e-07
6.5460764e-07
6.379891e-07
6.2434046e-07
6.1364326e-07
6.0551267e-07
5.9931504e-07
5.945003e-07
5.9073603e-07
5.8768054e-07
5.8517043e-07
5.8318313e-07
5.8160437e-07
5.8022066e-07
5.7921033e-07
5.7844537e-07
5.7803065e-07
5.7794726e-07
5.7800485e-07
5.7816499e-07
5.7855285e-07
5.7986776e-07
5.8124765e-07
5.8203232e-07
5.8366374e-07
5.8563561e-07
5.8799918e-07
5.8992795e-07
5.9186605e-07
5.9425842e-07
5.9661946e-07
5.997525e-07
3.3405324e-06
2.8747185e-06
2.1431153e-06
1.7558734e-06
1.5713934e-06
1.4770683e-06
1.4079756e-06
1.3249238e-06
1.221828e-06
1.1086626e-06
1.0005135e-06
9.1093624e-07
8.4636226e-07
8.0795907e-07
7.9000253e-07
7.8420116e-07
7.8307488e-07
7.8132449e-07
7.7591248e-07
7.6320986e-07
7.4741263e-07
7.2918962e-07
7.1126536e-07
6.9493623e-07
6.8044234e-07
6.674112e-07
6.5583794e-07
6.4673844e-07
6.3888677e-07
6.3242863e-07
6.2726317e-07
6.2286248e-07
6.1887501e-07
6.1450531e-07
6.1159078e-07
6.0841399e-07
6.0537871e-07
6.0358255e-07
6.0113986e-07
5.9897532e-07
5.9825564e-07
5.9706306e-07
5.9548034e-07
5.9543565e-07
5.9569163e-07
5.9541026e-07
5.945036e-07
5.9445202e-07
5.9498881e-07
5.9573679e-07
5.9607289e-07
5.9704114e-07
5.9846636e-07
6.0049095e-07
6.0215901e-07
3.358737e-06
2.8903799e-06
2.1540417e-06
1.7630964e-06
1.5717097e-06
1.482108e-06
1.4419399e-06
1.3737365e-06
1.2760294e-06
1.1514853e-06
1.0304633e-06
9.3686919e-07
8.7243265e-07
8.4173523e-07
8.3692583e-07
8.4053445e-07
8.5045024e-07
8.5570622e-07
8.552945e-07
8.4682386e-07
8.3178043e-07
8.1930113e-07
8.1513733e-07
8.1606569e-07
8.2137418e-07
8.2804775e-07
8.3112011e-07
8.3487568e-07
8.3654809e-07
8.3730554e-07
8.3628997e-07
8.3372707e-07
8.2972765e-07
8.1979674e-07
8.1617448e-07
8.0775108e-07
7.9839618e-07
7.963937e-07
7.8980874e-07
7.7879636e-07
7.7720589e-07
7.7334492e-07
7.5891848e-07
7.5367428e-07
7.5467032e-07
7.5214991e-07
7.3955985e-07
7.2989712e-07
7.2478919e-07
7.1910233e-07
7.0464032e-07
6.9630952e-07
6.8752297e-07
6.8325718e-07
6.6998644e-07
3.3969697e-06
3.0357417e-06
2.2380927e-06
1.8230221e-06
1.6280186e-06
1.6198955e-06
1.7220658e-06
1.7491873e-06
1.7383003e-06
1.6037067e-06
1.3675236e-06
1.2648607e-06
1.2390947e-06
1.2479288e-06
1.2938002e-06
1.4101739e-06
1.4975763e-06
1.5349421e-06
1.5391331e-06
1.524583e-06
1.5032477e-06
1.4998316e-06
1.5052014e-06
1.5372762e-06
1.6292251e-06
1.7270286e-06
1.7906624e-06
1.8758283e-06
1.9292263e-06
1.9916853e-06
2.023042e-06
2.0625162e-06
2.0795418e-06
2.071824e-06
2.081557e-06
2.0718897e-06
2.05865e-06
2.0757633e-06
2.064896e-06
2.02928e-06
2.0431929e-06
2.0386627e-06
1.98063e-06
1.9688624e-06
2.006674e-06
2.009385e-06
1.9558873e-06
1.8912487e-06
1.8433759e-06
1.8192368e-06
1.7427768e-06
1.6677407e-06
1.6079028e-06
1.5717198e-06
1.4728918e-06
4.0221334e-06
6.7183118e-06
4.7203674e-06
3.7652019e-06
3.4421075e-06
3.7393778e-06
5.244351e-06
5.3215094e-06
5.5164233e-06
4.9869788e-06
4.5816432e-06
4.5200164e-06
4.5358793e-06
4.6789779e-06
5.0321745e-06
5.4309156e-06
5.6993188e-06
5.8283625e-06
5.8536215e-06
5.8386826e-06
5.8191509e-06
5.8144564e-06
5.835849e-06
5.959571e-06
6.2780084e-06
6.6493598e-06
6.866482e-06
7.2585959e-06
7.4574906e-06
7.8501661e-06
7.9771301e-06
8.2850008e-06
8.5186427e-06
8.4132755e-06
8.7994887e-06
8.6403694e-06
8.7001938e-06
9.1827022e-06
8.9926519e-06
8.8492467e-06
9.3198647e-06
9.4413254e-06
8.77743e-06
8.8092901e-06
9.6831404e-06
9.8037821e-06
9.3036277e-06
9.1203774e-06
8.7343423e-06
8.7964661e-06
8.4967109e-06
7.9353928e-06
7.9177896e-06
7.8000574e-06
7.4450705e-06
7.891509e-06
4.2288246e-05
3.939345e-05
4.0740022e-05
4.1253373e-05
3.9459649e-05
4.2647622e-05
4.5237226e-05
4.6516176e-05
4.8938306e-05
4.3005996e-05
4.026064e-05
3.6616592e-05
3.4746557e-05
3.3974996e-05
3.3984817e-05
3.4426747e-05
3.5229713e-05
3.6227093e-05
3.7259223e-05
3.8234108e-05
3.909256e-05
3.9801568e-05
4.038227e-05
4.0903135e-05
4.1400626e-05
4.1892942e-05
4.2384101e-05
4.2913004e-05
4.3393154e-05
4.3990612e-05
4.4381669e-05
4.506189e-05
4.5400869e-05
4.5639473e-05
4.629525e-05
4.6206235e-05
4.6371332e-05
4.6924903e-05
4.6675525e-05
4.6572584e-05
4.7351591e-05
4.6434583e-05
4.6184172e-05
4.5982384e-05
4.6944529e-05
4.645296e-05
4.6907184e-05
4.635773e-05
4.610815e-05
4.6921823e-05
4.5314497e-05
4.4883759e-05
4.5318209e-05
4.3415216e-05
4.4175461e-05
7.6918937e-06
1.5081256e-06
6.8153875e-07
6.0482247e-07
6.0223028e-07
6.0475536e-07
6.0775824e-07
6.1099062e-07
6.1494884e-07
6.1949115e-07
6.2519244e-07
6.3125356e-07
6.3829508e-07
6.4687234e-07
6.5690509e-07
6.6864976e-07
6.8234984e-07
6.986508e-07
7.185361e-07
7.4456712e-07
7.7973006e-07
8.1705358e-07
8.4556471e-07
8.8165247e-07
9.438055e-07
1.0085794e-06
4.2006905e-05
7.7510996e-06
1.5981144e-06
7.0611656e-07
6.1321954e-07
6.0712477e-07
6.0915116e-07
6.1244571e-07
6.1569066e-07
6.1980085e-07
6.2494033e-07
6.3036668e-07
6.371148e-07
6.4483722e-07
6.534057e-07
6.6312319e-07
6.7464139e-07
6.8846866e-07
7.0460089e-07
7.2402161e-07
7.4949861e-07
7.8425977e-07
8.2369666e-07
8.5533592e-07
8.8804329e-07
9.5062606e-07
1.0136405e-06
3.924478e-05
9.6835363e-06
1.9733624e-06
7.7930386e-07
6.2966059e-07
6.158184e-07
6.167901e-07
6.1948814e-07
6.2287783e-07
6.2684247e-07
6.3201757e-07
6.3803227e-07
6.4463369e-07
6.5214568e-07
6.6125853e-07
6.726019e-07
6.8515605e-07
6.995658e-07
7.160418e-07
7.3519005e-07
7.5913723e-07
7.9229304e-07
8.3311745e-07
8.6504351e-07
8.952893e-07
9.5749959e-07
1.0218428e-06
4.0177663e-05
1.0742854e-05
2.1878045e-06
8.1819945e-07
6.3580395e-07
6.1997147e-07
6.2059537e-07
6.2323459e-07
6.273658e-07
6.3198006e-07
6.3740928e-07
6.4384103e-07
6.5143341e-07
6.5979743e-07
6.6868283e-07
6.7931636e-07
6.9196812e-07
7.0690522e-07
7.2398033e-07
7.4377279e-07
7.6857697e-07
8.0258373e-07
8.4557401e-07
8.8202395e-07
9.1134383e-07
9.7223266e-07
1.0395934e-06
4.0621745e-05
9.4692536e-06
2.1409646e-06
8.2165566e-07
6.4060405e-07
6.2369881e-07
6.2476711e-07
6.2910456e-07
6.3467415e-07
6.3953216e-07
6.4530426e-07
6.5098577e-07
6.5871696e-07
6.6801753e-07
6.7890937e-07
6.9072129e-07
7.0348932e-07
7.1778821e-07
7.3462715e-07
7.5352705e-07
7.7562306e-07
8.0839581e-07
8.5118658e-07
8.9029643e-07
9.1911852e-07
9.7858598e-07
1.051018e-06
3.570995e-05
9.5212085e-06
2.1991068e-06
8.4571285e-07
6.5517668e-07
6.335374e-07
6.3537547e-07
6.4043692e-07
6.4605322e-07
6.5068078e-07
6.5676107e-07
6.6290003e-07
6.695542e-07
6.7782865e-07
6.8832041e-07
7.0082148e-07
7.15047e-07
7.3040544e-07
7.4811045e-07
7.6797032e-07
7.9081246e-07
8.2198597e-07
8.6387088e-07
9.0517746e-07
9.338739e-07
9.89345e-07
1.0683298e-06
3.2778546e-05
1.1094934e-05
2.595631e-06
9.4774219e-07
6.8305592e-07
6.4587444e-07
6.4577714e-07
6.4812017e-07
6.5356742e-07
6.5864048e-07
6.6518781e-07
6.7248261e-07
6.8090637e-07
6.8965887e-07
6.9941902e-07
7.1115298e-07
7.2537872e-07
7.4168709e-07
7.5896138e-07
7.7921667e-07
8.0123009e-07
8.308381e-07
8.7267442e-07
9.1600524e-07
9.4365968e-07
9.9419601e-07
1.0774936e-06
3.4304726e-05
1.1188751e-05
2.7229527e-06
9.8573919e-07
6.8947272e-07
6.5063159e-07
6.4956988e-07
6.5189797e-07
6.5756827e-07
6.6315124e-07
6.7033057e-07
6.7798308e-07
6.8758515e-07
6.9758939e-07
7.0910347e-07
7.2126619e-07
7.3494264e-07
7.5157619e-07
7.703926e-07
7.9155987e-07
8.1538952e-07
8.4527829e-07
8.8637016e-07
9.327738e-07
9.6194215e-07
1.0059904e-06
1.092143e-06
3.3081317e-05
9.7989502e-06
2.6654389e-06
9.8895116e-07
6.95844e-07
6.5578671e-07
6.5511634e-07
6.5842626e-07
6.6501756e-07
6.7114126e-07
6.7902117e-07
6.8730014e-07
6.9719224e-07
7.08142e-07
7.2075782e-07
7.3424731e-07
7.488661e-07
7.6494658e-07
7.836206e-07
8.0378477e-07
8.2689411e-07
8.5620317e-07
8.9718977e-07
9.4744523e-07
9.7915498e-07
1.0203258e-06
1.1033376e-06
2.6369817e-05
9.9653164e-06
2.7702645e-06
1.0341934e-06
7.1493279e-07
6.6809094e-07
6.700485e-07
6.7593722e-07
6.8450377e-07
6.9112113e-07
6.9956029e-07
7.0771537e-07
7.1691445e-07
7.2703155e-07
7.377739e-07
7.5044584e-07
7.6461894e-07
7.796531e-07
7.9763658e-07
8.1725206e-07
8.389943e-07
8.6704185e-07
9.0549225e-07
9.5786165e-07
9.9014543e-07
1.0327764e-06
1.1112119e-06
2.2941545e-05
1.1158954e-05
3.4014756e-06
1.256788e-06
7.7724526e-07
6.9848736e-07
6.964782e-07
6.9971041e-07
7.0764943e-07
7.1336909e-07
7.2095819e-07
7.2830157e-07
7.3699602e-07
7.4609847e-07
7.5591047e-07
7.6718771e-07
7.8105256e-07
7.9732163e-07
8.1556027e-07
8.3641501e-07
8.5753074e-07
8.8281934e-07
9.1843927e-07
9.7211946e-07
1.0069858e-06
1.0476437e-06
1.1227048e-06
2.4451153e-05
1.1088744e-05
3.8303142e-06
1.4137351e-06
8.1399138e-07
7.1682114e-07
7.0717421e-07
7.1021799e-07
7.1810825e-07
7.2392824e-07
7.3173681e-07
7.395614e-07
7.4778704e-07
7.5626597e-07
7.6680203e-07
7.7901121e-07
7.9325119e-07
8.1133294e-07
8.3027951e-07
8.5315916e-07
8.7531731e-07
9.0000075e-07
9.3039036e-07
9.8272499e-07
1.0190215e-06
1.0587043e-06
1.1305381e-06
2.273013e-05
1.0081461e-05
3.8753321e-06
1.4575067e-06
8.3590074e-07
7.2600175e-07
7.1489247e-07
7.1845324e-07
7.2607503e-07
7.3230111e-07
7.4017396e-07
7.4806035e-07
7.5679246e-07
7.6730465e-07
7.7920134e-07
7.9260655e-07
8.0764003e-07
8.2503579e-07
8.4472199e-07
8.6740512e-07
8.9170469e-07
9.1884387e-07
9.4721714e-07
9.9837892e-07
1.0342687e-06
1.0712487e-06
1.1381435e-06
1.7351788e-05
1.0008793e-05
4.0255328e-06
1.5714765e-06
8.8642361e-07
7.4387032e-07
7.3151298e-07
7.3774236e-07
7.4349922e-07
7.5072761e-07
7.5814706e-07
7.6551286e-07
7.7555107e-07
7.8682321e-07
7.9967862e-07
8.1325484e-07
8.2888639e-07
8.4560805e-07
8.648056e-07
8.8641241e-07
9.1008776e-07
9.3809394e-07
9.6346022e-07
1.0150243e-06
1.053166e-06
1.0895141e-06
1.1552319e-06
1.3681511e-05
9.9380394e-06
4.5374368e-06
1.8827781e-06
9.9934627e-07
7.8031901e-07
7.5622542e-07
7.6354191e-07
7.7196466e-07
7.7753006e-07
7.8372861e-07
7.9086522e-07
7.9994248e-07
8.0938619e-07
8.2118591e-07
8.3474422e-07
8.511112e-07
8.6798435e-07
8.8730793e-07
9.0817685e-07
9.3072799e-07
9.5851619e-07
9.8188115e-07
1.0315626e-06
1.0697507e-06
1.1072577e-06
1.1702716e-06
1.3824133e-05
9.6708967e-06
4.6934634e-06
1.9906939e-06
1.0372336e-06
7.9811694e-07
7.6971765e-07
7.7882303e-07
7.8816018e-07
7.9402848e-07
8.0157834e-07
8.0973702e-07
8.1830439e-07
8.2718245e-07
8.3885437e-07
8.5251952e-07
8.6859045e-07
8.8592056e-07
9.0480096e-07
9.2686592e-07
9.4832249e-07
9.7602591e-07
9.9794922e-07
1.0457211e-06
1.0854966e-06
1.1224654e-06
1.1878414e-06
1.4379072e-05
8.7696234e-06
4.534289e-06
1.9485309e-06
1.0318904e-06
8.0177399e-07
7.7417579e-07
7.8500169e-07
7.9492287e-07
8.0211222e-07
8.111775e-07
8.1928269e-07
8.2895599e-07
8.3990597e-07
8.5271917e-07
8.6686691e-07
8.8276101e-07
9.0132775e-07
9.2200448e-07
9.4582408e-07
9.6775163e-07
9.9710513e-07
1.018144e-06
1.0638259e-06
1.1032509e-06
1.1424956e-06
1.2049659e-06
9.5857921e-06
8.3921271e-06
4.3174158e-06
1.9042746e-06
1.0311753e-06
8.0657046e-07
7.7771365e-07
7.8965964e-07
8.0182182e-07
8.1027913e-07
8.1963278e-07
8.2914918e-07
8.4088344e-07
8.5406775e-07
8.6741463e-07
8.8142521e-07
8.9620037e-07
9.1370729e-07
9.328441e-07
9.5655878e-07
9.7863957e-07
1.0104045e-06
1.0315786e-06
1.0760094e-06
1.1158885e-06
1.1534066e-06
1.2159626e-06
4.8704186e-06
8.0388843e-06
4.3389658e-06
1.9203096e-06
1.0402949e-06
8.1490089e-07
7.8325531e-07
7.966575e-07
8.144075e-07
8.2650213e-07
8.3612104e-07
8.4620264e-07
8.5825678e-07
8.7159144e-07
8.8638623e-07
9.0189216e-07
9.1764077e-07
9.3609947e-07
9.544864e-07
9.777558e-07
9.971738e-07
1.0287968e-06
1.0493689e-06
1.0917241e-06
1.1320184e-06
1.1695359e-06
1.2297243e-06
3.3442932e-06
7.2918478e-06
4.4449911e-06
1.9610782e-06
1.0619431e-06
8.2950163e-07
7.9510017e-07
8.094522e-07
8.381393e-07
8.5366208e-07
8.6121981e-07
8.7051565e-07
8.8095497e-07
8.9328321e-07
9.0783116e-07
9.2310286e-07
9.3905789e-07
9.566791e-07
9.7503118e-07
9.9844939e-07
1.018309e-06
1.0499727e-06
1.0704023e-06
1.1109102e-06
1.1500279e-06
1.1850369e-06
1.2400295e-06
2.4561805e-06
6.3576024e-06
4.4719917e-06
2.0516636e-06
1.1179478e-06
8.5844106e-07
8.1555526e-07
8.2690959e-07
8.6398788e-07
8.8372943e-07
8.9169701e-07
9.0057848e-07
9.1050701e-07
9.2141535e-07
9.342943e-07
9.4700683e-07
9.610231e-07
9.7561458e-07
9.9123888e-07
1.0127374e-06
1.0311035e-06
1.0621368e-06
1.0817254e-06
1.1208564e-06
1.1580498e-06
1.1956574e-06
1.248829e-06
2.0800038e-06
5.5065812e-06
4.4458117e-06
2.1643079e-06
1.1921816e-06
8.8870863e-07
8.3522972e-07
8.4388671e-07
8.8480487e-07
9.1026658e-07
9.2011641e-07
9.2713809e-07
9.3571194e-07
9.4337404e-07
9.535464e-07
9.6481182e-07
9.7884287e-07
9.9403798e-07
1.0098456e-06
1.0322203e-06
1.0504068e-06
1.0819635e-06
1.1014471e-06
1.138899e-06
1.1753155e-06
1.2124466e-06
1.262967e-06
1.8960146e-06
4.8659699e-06
4.3680612e-06
2.2454775e-06
1.238301e-06
9.115803e-07
8.5025969e-07
8.5681863e-07
8.9714139e-07
9.2889136e-07
9.4118581e-07
9.4883492e-07
9.5781587e-07
9.6511837e-07
9.7381104e-07
9.8308653e-07