/*--------------------------------*- C++ -*----------------------------------*\
| =========                 |                                                 |
| \\      /  F ield         | OpenFOAM: The Open Source CFD Toolbox           |
|  \\    /   O peration     | Version:  2406                                  |
|   \\  /    A nd           | Website:  www.openfoam.com                      |
|    \\/     M anipulation  |                                                 |
\*---------------------------------------------------------------------------*/
FoamFile
{
    version     2.0;
    format      ascii;
    arch        "LSB;label=32;scalar=64";
    class       volScalarField;
    location    "13";
    object      omega_0;
}
// * * * * * * * * * * * * * * * * * * * * * * * * * * * * * * * * * * * * * //

dimensions      [0 0 -1 0 0 0 0];

internalField   nonuniform List<scalar> 
96472
(
3.7951265
2.897514
2.4080784
2.1135694
1.8995359
1.7227547
1.5711535
1.4429675
1.3383446
1.2557568
1.1918552
1.1420648
1.1016211
1.066323
1.0335787
1.0012856
0.96872908
0.93609425
0.90430779
0.87484037
0.84920569
0.82826413
0.81172667
0.79947099
0.79061865
0.7843662
0.77986833
0.7771453
0.77478688
0.77352386
0.77281314
0.77310859
0.77370378
0.77535781
0.77750148
0.78103595
0.7865683
0.79376168
0.80557837
0.8109529
0.81779881
0.82086392
0.82368768
0.82519638
0.8261954
0.82977844
0.83646154
0.84502507
0.85652219
0.86860078
0.88333801
0.90097742
0.91641355
0.9367211
0.96734176
3.7944113
2.9012459
2.4113952
2.1166874
1.9026833
1.7261051
1.5747341
1.4466046
1.3417653
1.2587771
1.1943992
1.1442201
1.1036148
1.068521
1.0359284
1.0038977
0.97166341
0.93941347
0.90794228
0.87865766
0.85277696
0.83144293
0.81433688
0.80143328
0.7919485
0.785322
0.7805836
0.77736373
0.77523055
0.77364322
0.77268639
0.77232177
0.77235011
0.7725169
0.77282269
0.77346359
0.77473567
0.77672521
0.78128105
0.78651764
0.79609404
0.80715221
0.81577345
0.82271454
0.82689926
0.83287625
0.83631444
0.8443442
0.8494086
0.8613985
0.86815296
0.88181224
0.89662713
0.90861271
0.93760032
3.796559
2.9052463
2.4148234
2.1200702
1.9064693
1.7303133
1.5790764
1.4506997
1.3453218
1.2616714
1.1967111
1.1461731
1.1055065
1.0705676
1.0382507
1.0064768
0.974435
0.94221352
0.91059116
0.88103118
0.85483024
0.83305432
0.81567841
0.80260421
0.79274489
0.78598693
0.78091957
0.77768348
0.77532471
0.77382106
0.77274755
0.77251973
0.77263505
0.77304204
0.77365138
0.77491258
0.7757663
0.77748662
0.77876968
0.7816457
0.78423846
0.79040715
0.79568603
0.80730094
0.8154368
0.82761642
0.83224593
0.84193113
0.84632572
0.85535156
0.86416239
0.87084014
0.88383203
0.8916988
0.91197286
3.7992908
2.9089717
2.4181341
2.1234393
1.910273
1.7345231
1.5834013
1.4547511
1.3488323
1.2645656
1.1990729
1.1481936
1.1074256
1.072561
1.0404542
1.0090255
0.97735924
0.94552006
0.91424715
0.88472551
0.85837524
0.83622972
0.81829711
0.80471831
0.79442275
0.78715666
0.78181898
0.77818127
0.7755106
0.77386834
0.77258345
0.77208962
0.77202783
0.77221977
0.77266737
0.77389553
0.77489451
0.7771576
0.77840565
0.78134186
0.7829658
0.78690039
0.78935983
0.79550975
0.79967773
0.81039934
0.8168098
0.82936286
0.83902938
0.84631512
0.85772435
0.86387128
0.87601321
0.88238031
0.89760027
3.8019078
2.9128474
2.4215259
2.1268579
1.9140801
1.7387293
1.587695
1.4587673
1.3523214
1.2674601
1.201447
1.1502405
1.1093452
1.0745617
1.0427025
1.0115679
0.98018788
0.94842537
0.91713251
0.88749987
0.86085983
0.83846748
0.82018704
0.80626807
0.79563319
0.78820565
0.78247148
0.77881621
0.77591722
0.7741774
0.77271326
0.77205862
0.77184386
0.77199013
0.77228502
0.7731901
0.77395961
0.77590656
0.77714189
0.7801472
0.78177238
0.78565418
0.78771742
0.79228649
0.79570324
0.80003602
0.80743238
0.8127384
0.82362453
0.82984223
0.84293634
0.84950128
0.86285734
0.86958638
0.88496019
3.804429
2.9170253
2.4249054
2.1302395
1.9178384
1.7428504
1.5919197
1.4627462
1.3558053
1.2703712
1.2038462
1.1523039
1.11127
1.0765739
1.0449076
1.0140784
0.9830087
0.95158478
0.92046267
0.89090026
0.86410093
0.84130157
0.82263284
0.80822991
0.79711878
0.78929128
0.78328897
0.77929517
0.77616455
0.77431126
0.7727406
0.77185808
0.77140853
0.77147551
0.77164541
0.77225389
0.77289696
0.774486
0.77558687
0.77805052
0.77985243
0.78273118
0.78604503
0.78890246
0.79377179
0.79666648
0.80265837
0.80625214
0.81409322
0.81882357
0.82885425
0.83464447
0.8464857
0.85312417
0.86804445
3.8064889
2.9213935
2.428293
2.1335573
1.9214786
1.7468561
1.5960402
1.4666811
1.3592889
1.273318
1.2063004
1.1543969
1.1132089
1.0785651
1.0470856
1.0165424
0.98572241
0.95459125
0.92361244
0.89400488
0.86707194
0.84396158
0.82483636
0.81007356
0.79865868
0.79038508
0.78428675
0.77996923
0.77672013
0.77460093
0.77306854
0.77201392
0.77134963
0.77125678
0.77133879
0.77165531
0.77227977
0.77317147
0.77475217
0.77593202
0.77844943
0.7801453
0.78366673
0.78585292
0.7904384
0.79309555
0.79861496
0.80178388
0.80836437
0.81215976
0.82016041
0.82473225
0.8342448
0.8395124
0.85231691
3.8083718
2.9264039
2.4318235
2.1368489
1.9250462
1.7507752
1.6001143
1.470584
1.3627931
1.2763134
1.2088108
1.1565455
1.115164
1.080511
1.0492015
1.0189561
0.98849981
0.95764644
0.92688541
0.89728969
0.8701756
0.84674865
0.82723526
0.81189435
0.80020339
0.79151669
0.78512036
0.78053268
0.7772496
0.77479433
0.77316322
0.77200123
0.77123573
0.77093742
0.77095589
0.77110403
0.77158563
0.77221752
0.7735948
0.77462607
0.77682475
0.77828196
0.78133893
0.78325035
0.78723644
0.78961129
0.79454605
0.79738491
0.80333754
0.80667024
0.81366158
0.81733612
0.82549662
0.8298336
0.8402093
3.8098664
2.9309941
2.4352873
2.1400723
1.9285204
1.7545838
1.6040878
1.4744641
1.366307
1.2793438
1.2113427
1.1586882
1.1170912
1.0824478
1.0513333
1.0213948
0.99130122
0.96074455
0.93008682
0.90051469
0.87317346
0.84942237
0.82960129
0.8137823
0.80168782
0.79266997
0.78608021
0.78122966
0.77781598
0.77522575
0.77345329
0.77221678
0.77130312
0.77080485
0.77076588
0.77084244
0.7711423
0.77159718
0.77267109
0.77351742
0.77536786
0.77661854
0.77929462
0.78096855
0.78449378
0.78655573
0.79092179
0.79343163
0.79867333
0.80164046
0.80762038
0.81123009
0.81803709
0.82204271
0.83067179
3.8117256
2.9365386
2.4390109
2.1433084
1.9319476
1.758334
1.6080267
1.4783293
1.3698415
1.2823956
1.2138979
1.1608378
1.1190274
1.0843969
1.0534505
1.0237955
0.9939769
0.96373098
0.9331982
0.90361256
0.87618147
0.85207316
0.83187299
0.81568781
0.80320972
0.7937994
0.78697528
0.78190172
0.77826341
0.7756066
0.77371137
0.77236117
0.77136435
0.77069211
0.77046328
0.77049194
0.77065686
0.77101847
0.77188007
0.77259206
0.77416742
0.7752456
0.77756257
0.77902569
0.78208629
0.78393859
0.78775935
0.78997627
0.79458037
0.79714477
0.80262741
0.80558514
0.81179257
0.81514186
0.82257296
3.8130906
2.9408115
2.4423797
2.146423
1.9352422
1.7619597
1.6118733
1.4821523
1.3733773
1.285476
1.2164929
1.1630256
1.1209746
1.0863065
1.055528
1.0261262
0.99658485
0.96656409
0.93623432
0.9066431
0.87914731
0.85479557
0.83425369
0.81762989
0.80481131
0.79504209
0.78786462
0.782644
0.7788716
0.77604975
0.77400772
0.77251896
0.77154142
0.77074983
0.77034169
0.77028543
0.77036279
0.77058598
0.77119509
0.77180308
0.77311333
0.77403471
0.77602131
0.77729785
0.78001235
0.78162633
0.78500142
0.78695896
0.79104119
0.79336431
0.79818516
0.80071029
0.80636986
0.8092917
0.81575053
3.8150648
2.9468224
2.4462638
2.1496114
1.9385327
1.7655412
1.6156896
1.4859584
1.3769215
1.288595
1.2191443
1.1652608
1.1229527
1.088208
1.0575344
1.0283329
0.99911728
0.9693267
0.93919372
0.90968858
0.88209027
0.85754322
0.8367239
0.81967255
0.80641426
0.79633052
0.78885146
0.78334909
0.77940316
0.77646922
0.77433898
0.77269589
0.77163678
0.77078214
0.77024398
0.77006079
0.77008895
0.7702197
0.77066626
0.77114785
0.77224874
0.77304389
0.77474245
0.7758634
0.7782234
0.77964228
0.78262501
0.78437396
0.78796529
0.79005401
0.79417722
0.79681076
0.80157721
0.80411735
0.80995112
3.8163268
2.9507843
2.4495375
2.1526054
1.9416589
1.7689644
1.6193697
1.4897032
1.3804459
1.2917211
1.221784
1.1674777
1.1248883
1.0900488
1.0594858
1.0305016
1.0015838
0.97212767
0.94218281
0.91279366
0.88516753
0.86036571
0.83920791
0.82180945
0.80812242
0.79763038
0.7898691
0.78411261
0.77996434
0.77691122
0.7747204
0.77300955
0.77180327
0.77090009
0.7702289
0.7698891
0.76986577
0.76993873
0.77019879
0.77058764
0.77147299
0.77214289
0.77361779
0.77459864
0.77665575
0.7779128
0.78056724
0.78207132
0.78527671
0.78709311
0.79092745
0.7930298
0.79729669
0.79981641
0.80468899
3.8184166
2.9572164
2.4536085
2.1557645
1.9448237
1.7724181
1.6230878
1.4934773
1.3840176
1.2948871
1.2244764
1.1697242
1.1268345
1.0918871
1.0614001
1.0326693
1.0040034
0.97483586
0.94517067
0.91583761
0.88822708
0.86324533
0.84175885
0.82397283
0.80991088
0.79903361
0.79091858
0.78494877
0.78062739
0.77739428
0.77503861
0.77326632
0.77193622
0.77099508
0.77026447
0.76978897
0.76965034
0.76967731
0.76982439
0.77012558
0.77082748
0.77141118
0.77268501
0.7735236
0.77532454
0.77646201
0.77875601
0.78013774
0.78299302
0.78457697
0.78800483
0.78976685
0.79371435
0.7959862
0.80021213
3.8196014
2.9609001
2.456786
2.1586245
1.947759
1.7756152
1.6265735
1.4970909
1.3874936
1.2980155
1.2271544
1.17196
1.1287645
1.0936825
1.0632837
1.0347476
1.0064329
0.97751968
0.9481477
0.91896889
0.89133594
0.86623897
0.8444697
0.82626731
0.81176769
0.80055316
0.79207281
0.78578865
0.78127405
0.77791451
0.77541672
0.77354181
0.77212171
0.77109795
0.77034655
0.76977899
0.76950464
0.76947056
0.76954559
0.76972557
0.77027138
0.77075829
0.77183907
0.77258432
0.77418697
0.77515527
0.77725951
0.77843371
0.78099444
0.78244242
0.78533896
0.78700335
0.79064623
0.79231809
0.79635034
3.8218002
2.9677217
2.4610296
2.1617797
1.9508033
1.7789322
1.6301791
1.5008178
1.3910802
1.3012538
1.2298964
1.1742455
1.1307221
1.0954771
1.0651667
1.0368341
1.0088525
0.9803088
0.95118606
0.9222206
0.8945628
0.86929262
0.84723564
0.82870753
0.8137666
0.80210194
0.79329223
0.78671403
0.78196686
0.77848193
0.77587904
0.7739032
0.77240379
0.77122659
0.77043286
0.76979866
0.76939926
0.769282
0.76930836
0.76943392
0.76981305
0.77023308
0.77116734
0.77181917
0.77319208
0.77408863
0.77592139
0.77702614
0.77929587
0.78058226
0.78322104
0.78479313
0.78770506
0.78948597
0.79301849
3.822877
2.9711322
2.4640882
2.1645223
1.9535387
1.7818915
1.633439
1.504257
1.3944586
1.3043528
1.2325817
1.1765074
1.1326555
1.0972763
1.0670107
1.0389227
1.0112229
0.983069
0.95423521
0.92539285
0.89781753
0.87243289
0.85006234
0.83116729
0.81585868
0.80379588
0.79463171
0.78778102
0.78277562
0.77908079
0.77632449
0.7742455
0.77269628
0.77143002
0.77057067
0.76987296
0.76938433
0.76915598
0.76913551
0.76919633
0.76943412
0.76978302
0.77055523
0.77112655
0.77236823
0.77318857
0.77482715
0.77578794
0.77784049
0.77900803
0.78130243
0.78279998
0.78521168
0.78710405
0.78992799
3.8252204
2.9783526
2.4685488
2.1676636
1.9564589
1.785049
1.6368991
1.5078883
1.3980588
1.3076588
1.235428
1.1788379
1.1346327
1.0990807
1.0688793
1.0410293
1.013673
0.98581005
0.95736152
0.92873183
0.90116906
0.87568256
0.8530901
0.83386728
0.81815231
0.80570377
0.79611313
0.78893785
0.78371903
0.77987553
0.77697839
0.77474
0.77308168
0.77174952
0.77079118
0.77006372
0.76950099
0.76914597
0.76904493
0.76907026
0.76921103
0.76947755
0.77009973
0.77058028
0.77168292
0.77238416
0.77383875
0.77473031
0.77662734
0.77765097
0.77977143
0.78107866
0.78357787
0.78491922
0.78744253
3.8260819
2.9814128
2.471502
2.1702952
1.9590024
1.7877431
1.6398749
1.511101
1.4012969
1.3107405
1.2381753
1.1812094
1.1366699
1.1009182
1.0707735
1.0430704
1.0160719
0.98858203
0.96038749
0.93201021
0.90454873
0.87902657
0.85621369
0.83667349
0.82057702
0.80780271
0.79789499
0.79034269
0.7847924
0.7807467
0.77772716
0.77543648
0.77366561
0.77227031
0.77117155
0.77038989
0.76976201
0.76929767
0.76910098
0.76907476
0.7691376
0.76931247
0.76979448
0.7702438
0.77122937
0.77194963
0.77300197
0.77395052
0.77553251
0.77642315
0.77851982
0.77969624
0.78197991
0.78292863
0.78542858
3.8287626
2.9892816
2.476258
2.1734901
1.9618535
1.7907108
1.6431508
1.5146386
1.4049318
1.3141634
1.2411771
1.1837014
1.1387799
1.1028426
1.0726811
1.0452095
1.0185283
0.99140767
0.96355682
0.93553664
0.90825983
0.88274581
0.85982253
0.84015423
0.8237997
0.81060212
0.80035328
0.79256379
0.78677617
0.78248633
0.77927804
0.77683037
0.77494116
0.77342826
0.7722386
0.77132532
0.77060132
0.77003625
0.76965884
0.7695024
0.76951294
0.76959649
0.76986438
0.77021102
0.77105308
0.77174974
0.77262566
0.7735406
0.77480194
0.77586082
0.77765955
0.77886879
0.78047778
0.78175041
0.78404074
3.8293209
2.9917394
2.4790797
2.1760457
1.9642602
1.7932348
1.6459399
1.5176453
1.4080151
1.3172871
1.2440828
1.1863781
1.1411128
1.1050588
1.0749307
1.0476089
1.0212885
0.99451559
0.96697969
0.93928603
0.91254556
0.88738891
0.86459442
0.84494824
0.82865312
0.8154598
0.80501257
0.79693879
0.79088061
0.78633995
0.78293941
0.78032566
0.77824753
0.77650589
0.77514763
0.77405602
0.77313565
0.7724118
0.77184968
0.77143182
0.7712651
0.77127318
0.77131972
0.77152359
0.77224107
0.7727924
0.77315119
0.77393875
0.77501308
0.77619128
0.77754986
0.77872022
0.78011959
0.78146691
0.78329018
3.8326861
3.0009164
2.4844285
2.1796529
1.967371
1.796358
1.6497185
1.5219815
1.4125714
1.3217144
1.2479667
1.1899611
1.1442491
1.1085273
1.0786175
1.0518288
1.0260943
0.99966752
0.9725208
0.94573748
0.92016544
0.89608182
0.87444472
0.85583956
0.84023326
0.82750852
0.81721381
0.80924767
0.80305918
0.79823769
0.79458114
0.79165725
0.78920772
0.78700488
0.78525512
0.78370559
0.78227365
0.78120963
0.78013493
0.77932594
0.77891344
0.77828705
0.77775654
0.77768602
0.77785093
0.77810325
0.77819786
0.77850615
0.77925
0.7801302
0.78077116
0.7817428
0.78271384
0.78397439
0.78519301
3.8331693
3.0029338
2.4879794
2.1837687
1.9712737
1.8014791
1.6580313
1.531266
1.4217887
1.3308014
1.2559722
1.1982988
1.1522182
1.1185809
1.0905224
1.066139
1.04269
1.0175376
0.99068733
0.96533336
0.9426385
0.92114909
0.90232499
0.88670396
0.87394825
0.86346359
0.8543089
0.84754829
0.84156958
0.83651588
0.83268887
0.82935174
0.82626731
0.82276585
0.8204591
0.81780104
0.81509477
0.81335487
0.81098122
0.80892355
0.80807121
0.80664097
0.80418069
0.80331362
0.80309715
0.80234397
0.80031192
0.79946933
0.79931705
0.79905751
0.7983071
0.79817647
0.79842972
0.79857469
0.79838447
3.8418315
3.032081
2.5057283
2.2040482
1.9903591
1.8283555
1.7041236
1.5809471
1.4694539
1.3724563
1.2906255
1.2322492
1.1871782
1.1612392
1.1428976
1.1307036
1.1170448
1.0971152
1.0709139
1.0457809
1.0266483
1.0097081
0.99773173
0.98978266
0.98420755
0.98013362
0.97513005
0.97357646
0.97052956
0.96751624
0.96444919
0.961214
0.95750383
0.95030681
0.9475418
0.9416235
0.93504515
0.93300356
0.92774503
0.92086529
0.9194467
0.91666759
0.90758526
0.90305242
0.90287985
0.90103752
0.89333296
0.88753597
0.88440069
0.88120908
0.87314421
0.86832146
0.86365481
0.86129465
0.8538148
3.916283
3.2672275
2.6374468
2.3443933
2.1206483
2.0031436
1.9524846
1.8338548
1.7083186
1.5682345
1.4530337
1.3957534
1.3781049
1.3815283
1.3999571
1.4409482
1.4672876
1.4756472
1.4716833
1.4456212
1.4198057
1.411685
1.4117372
1.417936
1.440237
1.4683999
1.4877711
1.5113853
1.5271565
1.5438348
1.5509061
1.5583144
1.5603656
1.554396
1.554473
1.5473257
1.5357
1.5391624
1.5330549
1.5140165
1.5165866
1.5137485
1.4881204
1.4808694
1.492708
1.4929219
1.4714714
1.4452125
1.4256793
1.4153287
1.3833266
1.3520755
1.327552
1.3120727
1.2705015
5.3575663
5.0510007
3.8184782
3.3948169
3.2201608
3.2978077
3.542843
3.4863856
3.4552756
3.2291671
3.0886221
3.079832
3.0881977
3.1540936
3.2796334
3.395867
3.4736144
3.5118295
3.5188711
3.5136976
3.5011635
3.4949093
3.4965653
3.515951
3.5671857
3.6229429
3.6568533
3.7152824
3.7429681
3.801794
3.8162182
3.8596666
3.8897318
3.8498232
3.9194941
3.8640129
3.8674987
3.9589241
3.9065581
3.8585435
3.957082
3.9797687
3.8033697
3.8121092
4.0162947
4.0430732
3.9138571
3.8721742
3.784922
3.8045771
3.7376046
3.6032647
3.6061372
3.5811706
3.4940749
11.394396
12.449773
12.385789
12.423836
12.454205
12.419403
12.529035
12.615444
12.676387
12.772339
12.610909
12.544202
12.447607
12.398284
12.379435
12.380985
12.398177
12.42854
12.466562
12.50523
12.540119
12.571708
12.602074
12.629184
12.652988
12.675194
12.695886
12.714683
12.733401
12.750834
12.772934
12.790296
12.816895
12.833414
12.847935
12.872741
12.877081
12.88685
12.908014
12.905261
12.905848
12.932215
12.905042
12.900852
12.896516
12.925213
12.911616
12.925231
12.910357
12.902532
12.926069
12.881742
12.865825
12.881959
12.825128
13.229067
3.5889288
1.2822682
0.86012644
0.80021417
0.78680474
0.78487428
0.7854895
0.7872623
0.78958911
0.79225647
0.79547133
0.79894003
0.80296179
0.80757307
0.81285092
0.81901944
0.82622009
0.83444842
0.84424652
0.85653749
0.87273927
0.88985477
0.9028215
0.91827608
0.94429339
0.96937599
13.922488
3.6539315
1.3184581
0.87310843
0.80689774
0.790759
0.78781015
0.78822595
0.7897435
0.79213201
0.79506516
0.79826042
0.80207277
0.80625021
0.81093532
0.8163501
0.82234718
0.82932192
0.83749692
0.84696419
0.85898439
0.874845
0.89272051
0.90702904
0.92123456
0.94716502
0.97113644
14.652768
4.3636299
1.4679591
0.9094241
0.81820756
0.79706827
0.79237725
0.79236032
0.79359957
0.79594178
0.79886361
0.80218403
0.80577578
0.8100998
0.81498567
0.8207396
0.82743274
0.83482802
0.84309332
0.85245506
0.86373746
0.87878019
0.89682734
0.91131696
0.92426206
0.95027021
0.97424464
15.551609
4.8164714
1.5623147
0.92784248
0.82238646
0.80014988
0.79468857
0.79458109
0.79596916
0.79869713
0.80178737
0.80533775
0.80949366
0.81389011
0.81886466
0.82452026
0.83091842
0.8385221
0.84698127
0.85669685
0.86797542
0.88327063
0.90206174
0.91831478
0.93079207
0.95633199
0.98110922
16.503209
4.4412984
1.5499858
0.92971667
0.82587763
0.80299145
0.79750792
0.7978073
0.79980114
0.802669
0.80592475
0.80918808
0.81346991
0.81833533
0.82382342
0.82994601
0.836577
0.84386313
0.85215362
0.86129237
0.87194555
0.88622449
0.90463788
0.92173898
0.93394992
0.95907533
0.98451712
17.364925
4.550044
1.5827507
0.9416591
0.83651664
0.81039889
0.80455694
0.80442556
0.80587166
0.80848399
0.81185801
0.81527135
0.81898546
0.82349693
0.82890567
0.83514894
0.84219997
0.84990328
0.85849477
0.86795162
0.87866257
0.89256918
0.91065771
0.92809803
0.94009468
0.96359443
0.99065573
18.354019
5.5762351
1.7836405
0.99208612
0.85420209
0.81991873
0.81104838
0.80906487
0.81006106
0.81256962
0.81614974
0.82003371
0.82450185
0.82919265
0.83455178
0.84055445
0.84745513
0.85517576
0.86367357
0.87312763
0.88344386
0.89675561
0.91427963
0.93294704
0.94437302
0.96608485
0.99440192
19.562248
5.7668742
1.8474709
1.0113092
0.85819699
0.82365447
0.81355064
0.81138196
0.81224429
0.81489683
0.81877965
0.82279826
0.82776089
0.83304348
0.83899382
0.84542543
0.85235595
0.86035186
0.86922023
0.87908407
0.8896302
0.90255631
0.91998528
0.93969595
0.95154565
0.97116213
1.0001997
20.767177
5.1955758
1.8249293
1.0132417
0.86253558
0.82771158
0.81737795
0.81536973
0.81621892
0.81907932
0.82334128
0.82772255
0.83289759
0.83854866
0.84473544
0.85143295
0.8586863
0.86652734
0.87523915
0.8847847
0.89513424
0.9075219
0.92434633
0.94469695
0.95777206
0.97565889
1.0051277
21.898108
5.4147568
1.8909924
1.0361777
0.87687363
0.83782641
0.82803022
0.82578231
0.82656501
0.82940616
0.83394551
0.8381543
0.84287635
0.84793891
0.85322191
0.85924643
0.86608921
0.8735499
0.88213746
0.89139102
0.9015005
0.91321556
0.92862401
0.94941744
0.96270076
0.97900617
1.0079297
23.222685
7.0189424
2.2737658
1.1472034
0.91646885
0.86161905
0.84515062
0.83898433
0.83893473
0.84050892
0.84428384
0.84804065
0.85242414
0.85682431
0.86176416
0.86733847
0.87378692
0.88128254
0.88965493
0.89911305
0.90903029
0.9203606
0.93432825
0.95519848
0.96950029
0.98388522
1.0119052
24.808657
7.2474884
2.4574357
1.2165435
0.93182141
0.8732006
0.85160695
0.84484058
0.84446743
0.84574779
0.84932765
0.85321097
0.85731282
0.86156975
0.86679565
0.8727771
0.87961006
0.88756683
0.89623906
0.90606426
0.91612363
0.92751945
0.93994554
0.96012545
0.97581839
0.98847926
1.0146187
26.388072
6.5429927
2.4533594
1.233346
0.94203842
0.87984486
0.85709203
0.84981021
0.84885799
0.8500037
0.8534678
0.85738729
0.86170076
0.866919
0.87265593
0.87911175
0.88630345
0.89428341
0.90315147
0.91301317
0.92326429
0.93490198
0.94635454
0.96550203
0.98201374
0.99374142
1.0176328
27.973152
6.7009221
2.5268235
1.2800986
0.96793827
0.89434746
0.87004974
0.86140911
0.8585591
0.85945947
0.8623503
0.86617899
0.87082547
0.87610484
0.88220782
0.8885576
0.89578039
0.90361169
0.91224231
0.92181819
0.93158244
0.94294117
0.95347866
0.97166308
0.98884943
1.0003368
1.0232447
29.721726
8.2343872
2.9191488
1.432364
1.0299095
0.92559589
0.89511698
0.87958745
0.8741553
0.87312752
0.87454693
0.87799245
0.88232726
0.88679235
0.8921198
0.89821755
0.90525994
0.91297768
0.92152938
0.93096836
0.94064127
0.95181316
0.96155307
0.97861907
0.99594658
1.0069252
1.0282334
31.714463
9.0939594
3.1207044
1.5005784
1.0519082
0.94013227
0.90601847
0.88874424
0.8826501
0.88132923
0.88264501
0.88628786
0.89052088
0.89470681
0.89992565
0.906
0.91287429
0.92053245
0.92872012
0.93804226
0.94756869
0.95876762
0.96807429
0.98400881
1.0021286
1.012726
1.0338086
33.852066
8.1874781
3.0068155
1.4808446
1.0492152
0.9425834
0.90827948
0.89213002
0.88625538
0.88532753
0.88686435
0.89050153
0.89482513
0.89994269
0.90592223
0.91225159
0.91934741
0.92714725
0.93552581
0.94515872
0.95488117
0.96665042
0.975915
0.99095936
1.0092864
1.0199668
1.0388318
35.943754
7.2847749
2.8517681
1.4633372
1.049144
0.94663459
0.91190545
0.89734734
0.89064766
0.88967242
0.89099212
0.89485806
0.90010929
0.90597451
0.91217701
0.91856056
0.92548262
0.93292289
0.94102108
0.95028648
0.95963221
0.97155097
0.98114855
0.99507168
1.0139626
1.0246277
1.0427451
38.150571
7.4513103
2.8730306
1.4737415
1.0551558
0.95543509
0.91947897
0.9082997
0.899122
0.89846968
0.89925451
0.90293411
0.90835163
0.91378281
0.92024306
0.92705084
0.93424242
0.94197872
0.94987091
0.95914904
0.96759912
0.97917842
0.98849458
1.0007858
1.0198326
1.030665
1.0476379
40.581692
8.2034944
2.9673995
1.5017071
1.0712445
0.97440372
0.93767413
0.92702077
0.9151003
0.91219688
0.91166441
0.91397684
0.91847449
0.92349127
0.92942762
0.93584879
0.94263417
0.94998039
0.95770051
0.96691812
0.97522685
0.98696986
0.99650623
1.0072695
1.0257785
1.0364102
1.0520392
43.17057
9.5303847
3.2315093
1.575173
1.1135673
0.99841168
0.9632071
0.94636303
0.93357467
0.92767134
0.92603975
0.92725527
0.93097989
0.93566151
0.94080454
0.94602824
0.95165505
0.9578326
0.9644271
0.97306638
0.98046238
0.99171733
1.0013036
1.0110814
1.0290284
1.0406369
1.055434
45.896505
10.386345
3.5385072
1.6932118
1.1636363
1.0203022
0.98362216
0.96264795
0.94965345
0.94104821
0.93884801
0.93906623
0.94153065
0.94500008
0.94906612
0.95352974
0.95883453
0.96518097
0.97163
0.98059987
0.98772254
0.99895011
1.0086861
1.0173412
1.0345318
1.0462262
1.060113
48.729973
10.811711
3.6958471
1.7690428
1.1948436
1.0380618
0.99752316
0.97482422
0.96165889
0.95147988
0.94835056
0.94825606
0.95037667
0.95355246
0.95707919
0.96089186
0.96568648
0.97139753
0.9771516
0.98572645
0.99253364
1.0033756
1.0137356
1.0218313
1.0383664
1.0504559
1.0641425
51.653859
11.018845
3.7468914
1.8005321
1.2083963
1.0492195
1.0041666
0.98125518
0.96755145
0.95659476
0.95262687
0.95234174
0.95417132
0.95771618
0.96196295
0.96684061
0.97255179
0.97906286
0.98542928
0.99378992
1.0005959
1.0100836
1.0205706
1.0277782
1.0427498
1.0550159
1.0684643
54.697917
11.192468
3.7636986
1.8134043
1.2145271
1.0549924
1.0068973
0.98465997
0.97048146
0.95998408
0.95539763
0.95496031
0.95715334
0.96131756
0.96606873
0.97126693
0.97698026
0.98386712
0.99041973
0.99918205
1.0068311
1.0159726
1.0271469
1.0344259
1.0485028
1.0606477
1.0737217
57.84232
11.388421
3.776657
1.8214248
1.2190808
1.0587179
1.0091207
0.9879376
0.97374944
0.96390752
0.95894422
0.9584887
0.96057185
0.96583589
0.97099232
0.97691138
0.98267854
0.98975051
0.99622035
1.0045764
1.0124246
1.0203698
1.0317646
1.0388056
1.052588
1.0639327
1.0771598
60.989234
11.636267
3.8091963
1.8314885
1.2248969
1.0640301
1.0135655
0.99516944
0.98110354
0.97304599
0.9670745
0.96617498
0.9674389
0.97139886
0.9758913
0.9814828
0.98691369
0.9939941
1.0004597
1.0090146
1.0175697
1.0250998
1.0366746
1.0435618
1.0570337
1.0673595
1.0807499
64.165173
12.035728
3.9001444
1.8622431
1.2402812
1.0753518
1.0256095
1.0106801
0.99765067
0.98775099
0.98029383
0.97759744
0.97790989
0.98015886
0.98419347
0.98903548
0.99406265
1.0004284
1.0059098
1.0133707
1.0216394
1.0284563
1.0399813
1.0472265
1.0605902
1.0713247
1.0840524
67.328385
12.843472
4.1822477
1.9713778
1.2910407
1.1042032
1.0509502
1.0293631
1.0168859
1.0032783
0.99412223
0.98893118
0.98811764
0.98894138
0.99182834
0.99595822
1.0003468
1.0063054
1.0115116
1.0187117
1.0267297
1.0330422
1.0437956
1.0506547
1.0630662
1.0728645
1.0857988
70.414015
13.636057
4.5795365
2.1525638
1.3649808
1.1342102
1.0700823
1.0437941
1.0303763
1.0154337
1.0051443
0.99842826
0.99671554
0.99679101
0.99872519
1.0022356
1.0060147
1.0113408
1.0159468
1.0223588
1.0299196
1.0357386
1.0462135
1.0531026
1.0653129
1.0744153
1.087177
73.405177
14.350522
4.8137613
2.2542987
1.405436
1.1517625
1.0799309
1.0514225
1.0362877
1.0212998
1.0101152
1.0025526
0.9999696
0.99974091
1.001248
1.0046278
1.008455
1.0137924
1.0186526
1.0249702
1.0325842
1.0381427
1.0481779
1.0546885
1.0665228
1.0751794
1.0871976
76.251036
14.819497
4.9102111
2.2864984
1.4174463
1.1578728
1.0823019
1.0530174
1.0369964
1.0224048
1.0108691
1.0033269
1.0002166
0.99996669
1.0013167
1.004637
1.0085308
1.0136853
1.018828
1.0250479
1.0331057
1.0389654
1.0488919
1.0555162
1.066838
1.0752105
1.0870115
78.918551
15.29883
4.9455051
2.2812812
1.4149429
1.1581518
1.0819175
1.0525456
1.0360638
1.0217408
1.0102207
1.0027585
0.9994713
0.9992857
1.0006448
1.0041515
1.0081276
1.013291
1.0185217
1.024641
1.032859
1.0387496
1.0486998
1.0553967
1.0667256
1.0751689
1.0866952
81.351977
15.681267
4.9617122
2.2572198
1.4019422
1.152737
1.0773385
1.0491283
1.031828
1.0186243
1.0076375
1.0006543
0.99736416
0.9972544
0.99880463
1.0027126
1.0069821
1.0124604
1.0179938
1.0242729
1.032557
1.038885
1.0490409
1.0560393
1.0668544
1.0749879
1.0861942
83.51782
16.076329
4.9862299
2.2410292
1.3924254
1.1456118
1.0707381
1.043705
1.0275413
1.0156404
1.0055078
0.99897985
0.99596784
0.99601696
0.99796001
1.0021667
1.0065945
1.0122588
1.0179744
1.0245373
1.0330145
1.0397386
1.0492137
1.0563051
1.0667675
1.074778
1.0857693
85.368067
16.566678
5.0292237
2.243145
1.3911406
1.1423957
1.0673713
1.0410627
1.0261974
1.0150661
1.0052916
0.9988534
0.99585514
0.99593531
0.99806378
1.0025254
1.0073442
1.0134409
1.0194283
1.0257686
1.0334937
1.0398684
1.0489397
1.0560326
1.0663316
1.0742806
1.0852728
86.865833
17.128846
5.1064631
2.2568589
1.39508
1.1427825
1.0671775
1.0410365
1.0268313
1.0162611
1.0068393
1.0004788
0.99752422
0.99778107
1.0002943
1.0047021
1.009141
1.0144669
1.0198992
1.0258304
1.0333176
1.0396321
1.0484976
1.0555674
1.0657401
1.0735999
1.0845843
87.971277
17.439545
5.2454375
2.289529
1.4067672
1.1460643
1.0692554
1.0435295
1.0318391
1.0221192
1.0128518
1.0053772
1.001521
1.0008312
1.0023607
1.0055665
1.0095068
1.0144661
1.0196926
1.0255099
1.0328367
1.0391567
1.0478432
1.0549646
1.0650792
1.0726432
1.0837636
88.660789
17.810014
5.5292283
2.3908793
1.4465277
1.1590478
1.0781228
1.0506507
1.038358
1.0265113
1.0163245
1.0075753
1.0029379
1.0015328
1.0025277
1.0054132
1.0092732
1.0141409
1.0193017
1.0250014
1.032137
1.0384131
1.0469434
1.0540733
1.0643339
1.0716228
1.082882
88.911916
18.072695
5.7639595
2.5070278
1.4925726
1.17616
1.0862866
1.0542248
1.0403678
1.0273019
1.0167163
1.0077087
1.002949
1.0014549
1.0022963
1.0050165
1.0087559
1.0135072
1.0185762
1.0241753
1.0311192
1.0373791
1.0457381
1.0529411
1.0634422
1.0706044
1.0820177
88.732985
18.263091
5.8705081
2.5463564
1.5075955
1.1818661
1.0883307
1.0547462
1.0404436
1.0270571
1.0162515
1.0070544
1.0022299
1.0007142
1.0014156
1.0040225
1.0077197
1.0122819
1.0172279
1.0228066
1.0296186
1.0360323
1.0443275
1.051913
1.0624007
1.0696804
1.0812503
88.134489
18.249462
5.8861277
2.5488659
1.5076929
1.1819013
1.0878976
1.0538479
1.0389698
1.0247916
1.0136109
1.0044311
0.99987262
0.99856566
0.99933832
1.0021338
1.005992
1.0107027
1.0158536
1.0216166
1.0285191
1.0349813
1.04333
1.0510982
1.061432
1.0690272
1.0806501
87.094536
18.025748
5.8017978
2.4973797
1.4835704
1.1727434
1.0827265
1.0489737
1.0333355
1.0194816
1.0092658
1.0012223
0.9974595
0.99665891
0.99788254
1.0008809
1.0048996
1.0095526
1.0148889
1.0206587
1.0277053
1.0342429
1.0426113
1.0505237
1.0607564
1.0688411
1.0803092
85.702591
17.705252
5.6683015
2.398038
1.4342756
1.1518974
1.0704701
1.0403985
1.0260541
1.0142535
1.0050431
0.99805547
0.99516907
0.99468581
0.99648468
0.99968656
1.0039793
1.008612
1.0140642
1.0199035
1.0269556
1.033681
1.0420318
1.0505765
1.0606994
1.0693526
1.08043
83.93142
17.378502
5.5239091
2.2994122
1.3852473
1.1303503
1.0581754
1.0319574
1.0192214
1.0086982
1.0003406
0.99408749
0.99204304
0.99193148
0.99418091
0.99805875
1.0023932
1.0077085
1.0130518
1.0194296
1.0263072
1.0334119
1.0420801
1.0507248
1.0608089
1.0693301
1.0804076
81.806325
17.042351
5.3912141
2.2131982
1.341508
1.1103007
1.0465313
1.0239796
1.0122838
1.002968
0.99479677
0.98945958
0.98792231
0.98826222
0.99116623
0.99545268
1.0003674
1.0059899
1.0120098
1.0186911
1.0258936
1.033248
1.0420752
1.0509494
1.0612836
1.0701205
1.0815443
79.473087
16.675952
5.2595125
2.1362197
1.3040471
1.0929561
1.0363692
1.0166737
1.0058614
0.99718508
0.98917004
0.98462306
0.9835788
0.98433703
0.98795267
0.99263756
0.99809359
1.0041631
1.0106767
1.0180324
1.0256768
1.0339179
1.0429814
1.0523808
1.0623045
1.0715067
1.0832498
76.85442
16.252275
5.1172501
2.0705801
1.2735126
1.0792132
1.0283921
1.010732
1.0006566
0.99209223
0.98435347
0.98054428
0.97990938
0.9812135
0.98541583
0.9905171
0.9964665
1.0029084
1.0100995
1.0177006
1.0259268
1.0342857
1.0435643
1.0528958
1.0628429
1.0722406
1.0842298
74.031633
15.807313
4.9909818
2.0170159
1.2502577
1.0692404
1.0231113