/*--------------------------------*- C++ -*----------------------------------*\
| =========                 |                                                 |
| \\      /  F ield         | OpenFOAM: The Open Source CFD Toolbox           |
|  \\    /   O peration     | Version:  2406                                  |
|   \\  /    A nd           | Website:  www.openfoam.com                      |
|    \\/     M anipulation  |                                                 |
\*---------------------------------------------------------------------------*/
FoamFile
{
    version     2.0;
    format      ascii;
    arch        "LSB;label=32;scalar=64";
    class       volScalarField;
    location    "13";
    object      p;
}
// * * * * * * * * * * * * * * * * * * * * * * * * * * * * * * * * * * * * * //

dimensions      [1 -1 -2 0 0 0 0];

internalField   nonuniform List<scalar> 
96472
(
1.0049811
1.0066946
1.0058715
1.0053955
1.0047599
1.0037544
1.0026379
1.0012042
0.99946772
0.99767706
0.99597257
0.99457293
0.99388845
0.99402436
0.99492844
0.99607144
0.99724775
0.99843271
0.99936382
0.99953187
0.99959098
0.99956633
0.99934924
0.99946736
0.99946976
0.99901783
0.99893272
0.99890893
0.99883869
0.9994443
1.0003231
1.0010994
1.0018712
1.0027388
1.0036897
1.0046086
1.0053449
1.006043
1.0066092
1.0071122
1.0075976
1.0080917
1.0084186
1.008872
1.0094242
1.0095044
1.0097713
1.0100936
1.0103177
1.0103072
1.0105475
1.0105488
1.0106837
1.0105709
1.0104391
1.004978
1.0067744
1.0059205
1.0054701
1.0048139
1.003791
1.0026954
1.0012686
0.99951974
0.99772479
0.99603864
0.99462222
0.99387308
0.99401868
0.99486754
0.99609094
0.99745399
0.99855379
0.99945707
0.9997953
0.99968916
0.99988218
0.99985347
0.99969649
0.99974261
0.99958247
0.99914104
0.99910531
0.99918161
0.99931739
0.99991799
1.0008304
1.0017905
1.0026694
1.0034678
1.004225
1.0049495
1.0056001
1.0061627
1.0066862
1.0072213
1.0076214
1.0082131
1.0085673
1.0088502
1.0093541
1.0095922
1.0098017
1.0100373
1.0101013
1.0102723
1.0105033
1.0104285
1.010498
1.0105283
1.0049911
1.0068368
1.0059893
1.0055477
1.0048598
1.0038337
1.0027729
1.0013599
0.99959855
0.99782134
0.99615905
0.99469643
0.9938965
0.99405081
0.99485275
0.99611569
0.99744266
0.9988241
0.99960245
1.0000073
1.0000346
0.99991442
1.0000872
1.0000537
0.99977733
0.99970264
0.99946206
0.99914218
0.99934393
0.99964342
0.99994697
1.0005035
1.0013211
1.0022646
1.0031544
1.0039364
1.0045946
1.0051941
1.0057675
1.006284
1.0067622
1.0073283
1.007668
1.0082118
1.0086034
1.0088839
1.0091618
1.0095725
1.0095946
1.010077
1.0101649
1.0100625
1.0102559
1.0103887
1.0103276
1.0050223
1.0069085
1.0060698
1.0056555
1.0049596
1.0039095
1.0028648
1.0014587
0.99969917
0.9979465
0.99631165
0.9947987
0.99397457
0.9940445
0.99493893
0.99622184
0.99747539
0.99885705
0.99979498
1.0000645
1.0003157
1.0002183
1.0001257
1.0002772
1.0001798
0.99980682
0.99969817
0.99945577
0.99922453
0.99954878
1.0000686
1.0005877
1.0011453
1.0018261
1.0026142
1.0033978
1.0041329
1.0048177
1.0053619
1.0058731
1.006343
1.0067866
1.007399
1.0077154
1.0082329
1.0085387
1.0089615
1.0090555
1.0095925
1.0095862
1.0095903
1.0101407
1.0101948
1.0101567
1.0103061
1.0050573
1.0069645
1.0061469
1.0057513
1.0050186
1.0040041
1.0029899
1.0016038
0.99983455
0.99811827
0.99647972
0.99499014
0.99410134
0.99410289
0.99498533
0.99629301
0.99774049
0.99887965
0.99990406
1.0002528
1.0003214
1.0005777
1.0005092
1.0003684
1.0004936
1.0002655
0.99979987
0.99968861
0.9995344
0.99945696
0.99977627
1.0003619
1.0010441
1.0017013
1.0023756
1.0030131
1.0036871
1.0042921
1.0048767
1.0053714
1.0059021
1.0064346
1.0068378
1.0074082
1.0077381
1.0082002
1.0084681
1.0089292
1.0089612
1.0092312
1.0098074
1.0096518
1.0098885
1.0096475
1.0102118
1.0050946
1.0070465
1.0062605
1.0058811
1.005147
1.0041024
1.0031464
1.001764
0.99999686
0.9982814
0.9966737
0.99516483
0.99422917
0.99424336
0.99505071
0.99635719
0.99784184
0.99915047
0.99998106
1.0005387
1.000529
1.000614
1.0008036
1.0006875
1.0004717
1.0004454
1.0000827
0.99968288
0.99973179
0.99977132
0.9998267
1.0001004
1.0006405
1.0013447
1.0020449
1.0027105
1.0033023
1.003889
1.0043995
1.0049712
1.0054398
1.0059493
1.0064165
1.006921
1.0073794
1.0077736
1.0081321
1.0083271
1.0088321
1.0091365
1.0090783
1.0093966
1.0093239
1.010351
1.0095519
1.0051359
1.0071087
1.0063416
1.0060049
1.0052528
1.0042321
1.0032759
1.0019487
1.0001824
0.99851473
0.99693836
0.99538592
0.9944097
0.9943855
0.99518651
0.99653986
0.99785251
0.99930748
1.0001934
1.0005721
1.0009013
1.0007736
1.0007441
1.0009352
1.0007379
1.0004253
1.0003607
0.99999013
0.99964313
0.99974418
0.99997593
1.0002312
1.0005378
1.0009594
1.0015189
1.0021437
1.0028036
1.0034276
1.0040158
1.0044733
1.0049918
1.0054369
1.0060131
1.0064224
1.0069073
1.0072746
1.0077063
1.0081582
1.0082906
1.0084999
1.0087741
1.009379
1.0093827
1.0092144
1.0097524
1.005176
1.0071887
1.0064484
1.0061515
1.0053876
1.0043808
1.003483
1.0021486
1.0003999
0.99875803
0.99719599
0.99566471
0.99463472
0.99452407
0.99536173
0.99671238
0.99812558
0.99931708
1.000365
1.0006582
1.0009232
1.0011052
1.0009982
1.0009104
1.0010487
1.0007869
1.0003821
1.000254
0.99995774
0.99970561
0.99978827
1.0000835
1.0004482
1.0008563
1.0012972
1.0018014
1.0023349
1.0029283
1.0034445
1.0039769
1.0044623
1.0050022
1.0054524
1.0060028
1.0064163
1.0069278
1.0072538
1.0075574
1.0078997
1.0082592
1.008957
1.0081261
1.0094109
1.0088236
1.0093682
1.0052088
1.0072568
1.0065527
1.0062884
1.0055255
1.0045334
1.0036583
1.002374
1.0006311
0.99903894
0.99750816
0.99598001
0.99491361
0.99474018
0.99552598
0.99682339
0.99838843
0.99956357
1.0004105
1.000978
1.0009608
1.0011791
1.0013465
1.001122
1.000978
1.0010039
1.0006081
1.0002186
1.000142
1.0000063
0.99985301
0.99987517
1.0001124
1.0005227
1.0010211
1.0014701
1.0019964
1.0024697
1.0030032
1.0035074
1.004
1.0044976
1.0049867
1.0054645
1.0060048
1.0063244
1.0068429
1.0071728
1.0075977
1.0079949
1.0075372
1.0089331
1.0081431
1.0092699
1.0091687
1.0052405
1.0073433
1.0066733
1.0064358
1.0056966
1.0047168
1.0038817
1.0026081
1.0008985
0.99931843
0.99781629
0.9962907
0.99517378
0.99502539
0.99571752
0.99704849
0.99844346
0.99984414
1.000604
1.0010956
1.0013432
1.00125
1.0012655
1.0014133
1.0011345
1.0008917
1.0008622
1.0004501
1.0000752
1.0000178
1.0000291
1.000031
1.000072
1.00025
1.0005578
1.0009934
1.0014857
1.0020342
1.0025638
1.0030204
1.0035239
1.0039809
1.0045045
1.0050122
1.0054144
1.0059814
1.0063477
1.0067515
1.0070544
1.0071567
1.0079588
1.0081234
1.0081953
1.0084156
1.008405
1.0052728
1.0074166
1.0067526
1.0065893
1.0058324
1.004903
1.0041148
1.0028866
1.0011849
0.99965016
0.99818872
0.99667206
0.99549984
0.99524848
0.99596601
0.99733757
0.99867202
0.9999059
1.0008652
1.0011067
1.0014917
1.0015457
1.001359
1.0013434
1.0014215
1.001133
1.0008521
1.0007449
1.0003998
1.000047
0.99992029
0.99995094
1.0000666
1.0002065
1.0003983
1.0006708
1.0010594
1.0015334
1.0019821
1.0025439
1.0030046
1.0034924
1.0039922
1.0044417
1.0050009
1.0054449
1.0058282
1.0062012
1.0066348
1.0070691
1.0076538
1.0067654
1.0082225
1.0082629
1.0081819
1.0052979
1.0074828
1.0068401
1.0067216
1.0060017
1.0050839
1.0043511
1.0031439
1.0014735
0.99997086
0.99856461
0.99703776
0.99586575
0.99552603
0.99622597
0.99750454
0.99904166
1.0000914
1.0009488
1.0013866
1.0014374
1.0016555
1.0017487
1.0014392
1.0013383
1.0013716
1.000998
1.0006975
1.0005635
1.0003349
1.0000391
0.99984574
0.9998088
0.99992943
1.0001626
1.0004269
1.000747
1.0011235
1.0016233
1.0020282
1.002527
1.0030325
1.0034545
1.0039824
1.0044803
1.0048952
1.0053404
1.0058883
1.0061657
1.0066212
1.006159
1.0078628
1.0074463
1.0071167
1.0083752
1.005323
1.007547
1.0069268
1.0068744
1.0061578
1.0052794
1.0045821
1.0034331
1.0017886
1.0003268
0.99894406
0.99744905
0.99622164
0.99586895
0.99647956
0.99770702
0.99918839
1.0004351
1.0010645
1.0016268
1.001731
1.0016805
1.0017348
1.0017498
1.0014233
1.001232
1.0012166
1.0008382
1.0005043
1.0003529
1.0002173
1.0000257
0.99983074
0.99975983
0.9998088
1.0000275
1.0003417
1.0007417
1.0011177
1.0015817
1.0020519
1.0024875
1.0029939
1.0035221
1.0039379
1.0043977
1.0049918
1.0052267
1.0056478
1.0059802
1.0066007
1.0068567
1.0064569
1.0076023
1.0073802
1.0053459
1.0076139
1.0070233
1.0070168
1.0063281
1.0054904
1.0048575
1.0037448
1.0021152
1.0006754
0.99935315
0.99786
0.9965875
0.99618646
0.99674712
0.9980533
0.99933841
1.000586
1.0013559
1.0016257
1.0020034
1.0019677
1.0017012
1.0017087
1.0016847
1.0013446
1.0011924
1.0011191
1.0008172
1.0004312
1.0001707
1.0000044
0.99987783
0.99978227
0.99974821
0.99980227
0.99997713
1.0002733
1.0006579
1.0011436
1.0015438
1.002033
1.0025393
1.0029567
1.0034418
1.0040475
1.0042515
1.0048563
1.0052614
1.0054586
1.0063002
1.005763
1.0063888
1.0075584
1.0066476
1.0053672
1.0076683
1.0071017
1.0071248
1.0064757
1.00567
1.0050918
1.0040137
1.0024381
1.0010478
0.99977203
0.99829022
0.99698424
0.99649365
0.99703735
0.9982859
0.99970437
1.0006998
1.0015391
1.0017883
1.0019654
1.002114
1.0020628
1.0017228
1.0016143
1.0016006
1.0012762
1.0010938
1.0009728
1.0007307
1.000343
0.99999469
0.99974114
0.99962956
0.99958786
0.99962683
0.99976017
0.99999122
1.0003507
1.000662
1.0011566
1.0015854
1.0020093
1.0024851
1.0030375
1.0033527
1.0039795
1.0042651
1.0047951
1.0052558
1.0052176
1.0055256
1.0070666
1.0055636
1.0067311
1.005386
1.0077129
1.0071476
1.0072516
1.0066075
1.0058497
1.0053367
1.0043379
1.0027851
1.0014163
1.0001656
0.99870964
0.99739325
0.9968248
0.997323
0.99843855
0.99994122
1.0010146
1.0015825
1.0021001
1.002132
1.0020998
1.0021604
1.0020183
1.0016523
1.0015051
1.0014673
1.0011775
1.0009074
1.0007331
1.0005242
1.000202
0.99984497
0.99952647
0.99939102
0.99936132
0.99943637
0.99965964
0.99990013
1.0002992
1.0006877
1.001113
1.0015792
1.0020948
1.0024936
1.0029771
1.0034078
1.0039581
1.0041935
1.0045955
1.0050091
1.0055737
1.0056918
1.0053507
1.0067012
1.0054054
1.00775
1.0071894
1.0073518
1.0067387
1.0060487
1.0055846
1.0046161
1.0030976
1.001784
1.0005792
0.99914923
0.99776518
0.99718072
0.9975852
0.99873034
1.0000317
1.0012405
1.0017959
1.0021642
1.0024345
1.0023659
1.0020901
1.0020429
1.0019104
1.001508
1.0014238
1.0013933
1.001171
1.0008415
1.0005054
1.0002518
0.9999306
0.99965615
0.99940172
0.99923793
0.999236
0.99932607
0.99956409
0.99989669
1.000249
1.0007238
1.0011793
1.0016235
1.0020185
1.0025903
1.0029397
1.0034023
1.0038265
1.0042646
1.0044118
1.0054138
1.0042328
1.0062723
1.0056332
1.0054232
1.0077755
1.0072335
1.0074418
1.0068404
1.0061939
1.0057965
1.0048933
1.0034358
1.0021609
1.0009859
0.99955719
0.99814765
0.9974846
0.99783013
0.99899736
1.0002868
1.0012984
1.0020582
1.0022017
1.0024654
1.0025669
1.0023684
1.0020213
1.0018764
1.0017548
1.0014789
1.0013869
1.0013403
1.0011299
1.0007591
1.000286
0.99993077
0.99959468
0.99936613
0.99916697
0.99908513
0.99912941
0.99931519
0.99955137
0.99992313
1.0003109
1.0007544
1.0011449
1.001711
1.0019922
1.0026303
1.0028772
1.0033662
1.003819
1.0042305
1.0041998
1.0049162
1.0053526
1.0049925
1.005447
1.0077982
1.0072706
1.0075406
1.006956
1.0063459
1.0060038
1.0051727
1.0037552
1.0024955
1.0013663
0.99994921
0.99852633
0.99777445
0.99809785
0.99909423
1.0005434
1.001504
1.002093
1.002467
1.0025315
1.0025231
1.0025459
1.0022862
1.0018697
1.0017502
1.0016593
1.0014618
1.0012889
1.0011451
1.0009015
1.000557
1.0000585
0.99963537
0.99926562
0.99904642
0.99892992
0.9989386
0.99902787
0.99925768
0.99954763
0.99989634
1.0003411
1.0008121
1.0011824
1.0017322
1.0020169
1.0025882
1.0030741
1.0031287
1.0039947
1.0035417
1.0051822
1.0040237
1.0050307
1.0054697
1.0078128
1.0072836
1.0076095
1.0070642
1.0064993
1.0062122
1.0054312
1.0040432
1.0028164
1.0017273
1.000328
0.99887944
0.99806856
0.9983315
0.99925856
1.0005983
1.0017449
1.0021672
1.0025984
1.0027794
1.0027031
1.0024943
1.0023717
1.002127
1.0017068
1.0016017
1.001607
1.0014716
1.0012354
1.0009356
1.0005966
1.0002236
0.99977474
0.99937164
0.99903876
0.9988368
0.99873347
0.99879534
0.99895183
0.99921209
0.99955184
0.99999152
1.0004169
1.0008203
1.0012814
1.001756
1.002088
1.0025456
1.0030037
1.0031128
1.0040313
1.0037499
1.0041856
1.0048021
1.0054997
1.0078227
1.0072908
1.0076672
1.0071416
1.0066169
1.0063786
1.0056536
1.0043127
1.0031055
1.0020504
1.0006784
0.99918685
0.99833307
0.99849285
0.99948383
1.0007005
1.0017733
1.0023993
1.0025745
1.0028605
1.0029485
1.0026845
1.0023437
1.0021668
1.0019054
1.0016431
1.0015847
1.0016201
1.0014997
1.00118
1.0007343
1.0002586
0.99982665
0.99942346
0.99905089
0.99877408
0.99865529
0.99863315
0.99874239
0.99895341
0.99933063
0.9996448
1.0000278
1.0005095
1.0008928
1.0013051
1.0018397
1.002027
1.0026635
1.0028139
1.0036262
1.0030143
1.0044639
1.003917
1.0055165
1.0078459
1.0073064
1.0077261
1.0072149
1.0067131
1.0065232
1.0058576
1.0045678
1.0033724
1.0023496
1.0010076
0.99948254
0.9985681
0.99867398
0.99954947
1.0008893
1.0018308
1.0024632
1.0027219
1.002864
1.002916
1.0028797
1.0025649
1.0021287
1.0019665
1.0018242
1.0016716
1.0015981
1.0015224
1.0013289
1.0009449
1.0004567
0.99994663
0.99945906
0.99906274
0.99877566
0.99856705
0.99852558
0.99857983
0.99876589
0.998977
0.99933612
0.99970971
1.0001239
1.000588
1.000948
1.0013999
1.0018337
1.0021345
1.0027943
1.0025725
1.0034824
1.0037097
1.0034911
1.0055541
1.0078609
1.0073092
1.0077691
1.0072728
1.0068055
1.0066626
1.0060397
1.0047809
1.0036044
1.0026087
1.0012944
0.99976102
0.99875534
0.99885114
0.99958743
1.000928
1.0020015
1.0024307
1.0028523
1.0030154
1.0029748
1.0028573
1.0026936
1.0023435
1.0019515
1.0017875
1.0017695
1.0017171
1.0015852
1.0013646
1.0010298
1.0006065
1.0000812
0.99959303
0.9991286
0.99876749
0.99852922
0.99842063
0.99841364
0.99849158
0.99873994
0.99908856
0.999477
0.99988273
1.0002282
1.0007385
1.0010288
1.0014928
1.0019049
1.0022138
1.0024211
1.0034583
1.002642
1.0038687
1.0055745
1.0078725
1.0072965
1.0078005
1.0073034
1.0068729
1.0067726
1.0061867
1.0049554
1.0037999
1.0028245
1.0015356
0.99998463
0.9989337
0.99892666
0.99970103
1.0008957
1.0020193
1.0025389
1.002805
1.003084
1.0031738
1.0029558
1.0026593
1.0024453
1.0020967
1.0018108
1.0017237
1.0017874
1.0017789
1.0015368
1.0011869
1.0006771
1.0001912
0.99968209
0.99921133
0.99880741
0.99851587
0.99833815
0.99826069
0.99838078
0.99860656
0.99883342
0.99917158
0.99956214
0.99997098
1.0003787
1.0007976
1.0011372
1.0016768
1.0017205
1.0026181
1.0025112
1.0027221
1.0035693
1.0056376
1.0078373
1.0073234
1.0078422
1.0073364
1.0069167
1.0068463
1.0063072
1.0051147
1.0039564
1.0030085
1.0017323
1.0001745
0.99908702
0.99899121
0.99972107
1.000956
1.0019767
1.0025988
1.0028454
1.0030571
1.0031749
1.0031064
1.0028044
1.0024265
1.0021642
1.0019536
1.0018081
1.0017833
1.0018018
1.0016753
1.0013297
1.000864
1.0003417
0.99983761
0.9993301
0.99888604
0.99856789
0.9983268
0.99826315
0.99832668
0.99839326
0.99864329
0.99900417
0.99934609
0.99973986
1.0000882
1.0005053
1.0009694
1.0012596
1.0016641
1.002294
1.0018535
1.0032378
1.0027254
1.0056338
1.007894
1.0072706
1.0078518
1.0073483
1.0069471
1.0068983
1.0063906
1.0052176
1.0040658
1.0031293
1.0018719
1.000325
0.99917724
0.99907032
0.99966299
1.0009476
1.0020084
1.0025269
1.0029096
1.0031061
1.0031424
1.0030956
1.0029178
1.0025416
1.002176
1.0019484
1.0018714
1.001841
1.0018076
1.001686
1.001412
1.0009932
1.0004404
0.99996244
0.99942025
0.99897243
0.99862936
0.99837503
0.99819755
0.99822494
0.99838573
0.99841727
0.99874315
0.99916276
0.99953916
0.99989321
1.0003069
1.0007108
1.0009582
1.0015639
1.0017374
1.002077
1.0027222
1.0025157
1.0056939
1.0078203
1.0072808
1.0078969
1.0073696
1.006961
1.0069427
1.0064492
1.0053156
1.0041213
1.0032318
1.0020008
1.0004397
0.99925395
0.99907845
0.99966718
1.0008357
1.0019703
1.0025353
1.0028444
1.0031122
1.0032358
1.0031355
1.0028955
1.0026162
1.0022741
1.0019803
1.0018267
1.0018432
1.0018795
1.0017805
1.0015115
1.0010953
1.0006346
1.0000727
0.99954159
0.99906418
0.99869124
0.99835336
0.99820665
0.99814886
0.99818476
0.99847742
0.998661
0.99892975
0.9992576
0.999671
1.0000886
1.0004534
1.0008819
1.0012709
1.0013227
1.0022518
1.0019768
1.002527
1.0028656
1.003127
1.0032944
1.0034995
1.0037198
1.0042504
1.0045076
1.0046655
1.0052618
1.005631
1.0058331
1.0063934
1.0068524
1.0072957
1.0077254
1.0079626
1.0084347
1.0090151
1.0088584
1.0095629
1.0095484
1.0098729
1.0101353
1.0100685
1.0104364
1.0103722
1.0105797
1.003253
1.0034026
1.0036894
1.0038069
1.0042501
1.0043499
1.0046514
1.0051975
1.0052711
1.0058276
1.0063245
1.0063644
1.0071007
1.0073195
1.0077315
1.0081831
1.0084525
1.0086866
1.0092761
1.0091605
1.0096831
1.0097694
1.009827
1.0102284
1.0100744
1.0103537
1.0103812
1.0035703
1.0038564
1.0040402
1.0042184
1.0042989
1.0047788
1.0050094
1.0051343
1.0058202
1.0058623
1.0062807
1.0069614
1.0068259
1.0076245
1.0077854
1.0080723
1.0085759
1.0086962
1.0089903
1.0093486
1.0093709
1.0096991
1.0098314
1.0098759
1.0100952
1.0100957
1.0101418
1.0041174
1.0040292
1.0042658
1.0045549
1.0046169
1.0048494
1.0052611
1.0055229
1.0057078
1.0062727
1.0064546
1.0066991
1.0073833
1.0073235
1.0079062
1.0082273
1.0082555
1.0088866
1.0088102
1.009211
1.0093554
1.0094539
1.0096925
1.0097484
1.0099009
1.0099427
1.0100833
1.0041872
1.0043561
1.0043961
1.0046314
1.0051159
1.0049777
1.0053555
1.0058288
1.0058481
1.0063432
1.0066575
1.0068418
1.0072398
1.0075543
1.0077923
1.0080548
1.0084727
1.0084285
1.0090162
1.0088575
1.0092655
1.0093606
1.0093989
1.0096675
1.0096875
1.0097538
1.0098547
1.0043706
1.0046183
1.0048329
1.0047711
1.0050989
1.0055497
1.0054277
1.0058146
1.00636
1.006165
1.0067767
1.007072
1.0070065
1.0077283
1.0076504
1.0080533
1.0082976
1.0084219
1.0086946
1.0089038
1.0089606
1.0091602
1.0094121
1.0092805
1.0095797
1.0095641
1.009698
1.0047442
1.0049195
1.0051234
1.005195
1.0051483
1.0056526
1.0058527
1.0057648
1.006383
1.0065547
1.0065334
1.007112
1.0072299
1.0073513
1.0078845
1.0078038
1.0081469
1.0084234
1.0083477
1.0088263
1.0087456
1.0090275
1.0090511
1.0093042
1.009249
1.0094488
1.0093796
1.0050389
1.0051352
1.0051528
1.0054542
1.0054778
1.0055301
1.0060646
1.0061226
1.0060944
1.0067295
1.0067722
1.0067484
1.0074718
1.0072162
1.0076222
1.0079745
1.0077772
1.0083724
1.008204
1.0085463
1.0086076
1.008806
1.00884
1.0091042
1.00903
1.0092263
1.0092181
1.005241
1.0050676
1.0053077
1.0056382
1.00571
1.0056543
1.0061544
1.0062538
1.0062645
1.0066529
1.006747
1.0069344
1.0071925
1.0072499
1.0075908
1.0076334
1.0079333
1.0078954
1.00824
1.008303
1.0084113
1.008603
1.0086462
1.0088168
1.0088771
1.0089204
1.0091085
1.0054204
1.0054023
1.0056048
1.005756
1.0058179
1.006079
1.0060615
1.0062623
1.0067126
1.0062923
1.0068773
1.0070274
1.0067728
1.0076108
1.0071335
1.0076384
1.0077824
1.0076608
1.0082567
1.0078091
1.0085373
1.0080728
1.0087624
1.0082957
1.0088693
1.0085382
1.0088913
1.0056327
1.0058571
1.0058727
1.0057643
1.0059521
1.0062114
1.0061491
1.0062712
1.0065225
1.0065335
1.0067359
1.0068842
1.0069875
1.0071023
1.0073118
1.0074368
1.0074973
1.0077308
1.0078065
1.0078397
1.0081857
1.0079661
1.0083811
1.0082274
1.0084978
1.0083618
1.0086207
1.0056097
1.0059996
1.0059294
1.0057949
1.0060241
1.0063198
1.0060405
1.0063354
1.0066053
1.0064192
1.0066108
1.0069182
1.0068566
1.0069681
1.007246
1.0072472
1.0073519
1.0075454
1.0075771
1.0077465
1.007817
1.0079077
1.0079956
1.0080694
1.0081973
1.0081055
1.0084147
1.005922
1.0057331
1.005995
1.006021
1.0058967
1.0063396
1.0062293
1.0061019
1.0066642
1.0063535
1.0066271
1.0068368
1.0065654
1.0072137
1.0067666
1.0072973
1.007215
1.0071726
1.0076638
1.0073047
1.0077597
1.0075937
1.0078583
1.0076856
1.008059
1.0077179
1.0082398
1.0059434
1.0059626
1.0061078
1.0060124
1.0062099
1.0061178
1.0062528
1.0063494
1.0062149
1.0066991
1.006324
1.0065697
1.0069622
1.0064925
1.0070598
1.0068689
1.0071744
1.0069591
1.0072918
1.0073623
1.007192
1.0077137
1.0072406
1.0078379
1.0074417
1.0078104
1.0076676
1.0059835
1.0060993
1.0061763
1.0060273
1.0060217
1.0063192
1.0060806
1.0061528
1.0064565
1.0062385
1.0063549
1.0065445
1.006534
1.0066397
1.006608
1.0068184
1.0068671
1.006872
1.0070664
1.0069564
1.0072228
1.0071471
1.0072364
1.0074403
1.0072605
1.0074923
1.0074349
1.0059987
1.0060962
1.0059442
1.0059252
1.0061383
1.0059774
1.0059769
1.0062039
1.0060686
1.0062664
1.0062321
1.0062184
1.0064755
1.0063298
1.0065916
1.0064671
1.0065756
1.006865
1.0065338
1.0069165
1.0069676
1.0068345
1.0070332
1.0071428
1.0069457
1.0072598
1.0072234
1.0058182
1.0059218
1.0057558
1.0059079
1.0059544
1.0056932
1.006053
1.0060094
1.0057635
1.0062921
1.0059673
1.0060543
1.0063021
1.0060737
1.0065599
1.0059695
1.006641
1.0064007
1.0064061
1.0067471
1.0064989
1.0068113
1.0065885
1.0070414
1.0065692
1.0071072
1.0068649
1.005683
1.0057234
1.0056567
1.0057504
1.0058085
1.0057009
1.005909
1.0057739
1.0057846
1.0060324
1.0058898
1.0059292
1.0059399
1.0060969
1.0061119
1.0059233
1.0064356
1.0060375
1.0063489
1.006368
1.0063135
1.006564
1.0063073
1.0068503
1.0062553
1.0068332
1.0065272
1.0056154
1.0058142
1.0055785
1.0055666
1.0058841
1.0054998
1.0056932
1.005834
1.0053851
1.006027
1.0056353
1.0056285
1.0060538
1.0055107
1.0061155
1.0057426
1.0060421
1.0059398
1.0060248
1.0062845
1.0058879
1.0064235
1.0060166
1.0065314
1.00603
1.0065358
1.006254
1.0056133
1.0056337
1.0053885
1.0055712
1.0055796
1.0053547
1.0055757
1.0054464
1.0054019
1.0056055
1.0054449
1.005609
1.0055383
1.0055437
1.005657
1.0057301
1.0056966
1.0055883
1.0060564
1.0057102
1.0058861
1.0059358
1.0060333
1.0060074
1.0058945
1.0061499
1.0060635
1.0053117
1.0054244
1.0052291
1.0052408
1.0054253
1.0050645
1.0053944
1.0053333
1.0049943
1.0054868
1.0051865
1.0053878
1.0054017
1.0050656
1.0057463
1.0052734
1.0055487
1.0054354
1.0055472
1.0057308
1.0054367
1.0057869
1.0055889
1.0058902
1.0054887
1.0058748
1.0056906
1.0050278
1.0052092
1.0051376
1.0048748
1.0051854
1.0049577
1.005013
1.0052925
1.0046719
1.0052637
1.0051258
1.004876
1.0054036
1.0047335
1.0055205
1.0050391
1.0051492
1.0055235
1.0048919
1.0057976
1.004884
1.0056932
1.00519
1.0055443
1.0052821
1.0054736
1.0053805
1.0048293
1.0050592
1.0048007
1.0046907
1.00503
1.0046699
1.0048941
1.0048649
1.0044961
1.005202
1.0046823
1.0047771
1.0050047
1.0046103
1.005314
1.0045132
1.0051241
1.0050429
1.0048472
1.0052598
1.0046679
1.0054455
1.0048158
1.0052537
1.0048436
1.0052531
1.0050321
1.0046217
1.0047983
1.0044905
1.0046524
1.0045533
1.0044719
1.004792
1.0043199
1.0046262
1.0046348
1.0043915
1.0048068
1.0043464
1.0048049
1.0046164
1.0043834
1.004905
1.0044758
1.0049661
1.0044172
1.0047953
1.004762
1.0047342
1.0048218
1.0045237
1.0048313
1.0046806
1.0043891
1.0044152
1.004398
1.0041815
1.0043294
1.0043893
1.0042405
1.0042104
1.0042108
1.0044067
1.0042708
1.0042414
1.0042313
1.0043388
1.0044976
1.0041738
1.0043678
1.0042349
1.0045474
1.0042869
1.0044234
1.0043325
1.0043
1.0045819
1.0042128
1.0044079
1.0042676
1.0041669
1.0040469
1.0040368
1.0040236
1.003906
1.0042129
1.0039162
1.0038496
1.0041184
1.0038099
1.0042461
1.0038573
1.0038924
1.004216
1.0038273
1.0043642
1.0036837
1.0042512
1.0040349
1.0039886
1.0042256
1.0037311
1.0042956
1.0039309
1.0041317
1.0038065
1.0039757
1.0038357
1.0037095
1.0038317
1.0038021
1.0035106
1.0038977
1.0035919
1.003699
1.0038721
1.0033693
1.0040411
1.0034737
1.0038114
1.0038181
1.0034492
1.0041666
1.003267
1.004153
1.0034598
1.0038392
1.0038341
1.003466
1.0040039
1.0033743
1.0039462
1.0034879
1.0037052
1.0034928
1.0034648
1.0035941
1.0034004
1.0033958
1.0034225
1.0034085
1.0035187
1.0032913
1.0033951
1.0034794
1.0034541
1.0035
1.0032512
1.0034239
1.0035823
1.0033517
1.0036137
1.0031067
1.0034535
1.0035251
1.003375
1.0035594
1.0030123
1.0034265
1.0033294
1.0034616
1.0032369
1.0031289
1.0033151
1.0031321
1.0030326
1.0032738
1.0030041
1.0033099
1.0030116
1.0030182
1.0033081
1.0029535
1.0034484
1.0028069
1.003222
1.0031244
1.0030356
1.003471
1.0026872
1.0033657
1.0027802
1.0033168
1.003057
1.003017
1.0030019
1.0028982
1.0029782
1.0029523
1.0028109
1.0030551
1.002836
1.0027817
1.0029414
1.0026961
1.0031243
1.0027279
1.0027984
1.0028669
1.0026501
1.0032282
1.002574
1.0030193
1.0025868
1.0027625
1.0030763
1.002574
1.0031644
1.002315
1.0030028
1.0025455
1.0029658
1.0026998
1.0025542
1.0024738
1.0025134
1.0026064
1.0028247
1.0026962
1.0024452
1.0024549
1.0024568
1.002826
1.0026289
1.0025402
1.0024607
1.0022968
1.0028914
1.0024341
1.0028369
1.0022486
1.0023959
1.0026417
1.0023565
1.0029649
1.0020581
1.0026442
1.0021535
1.0026592
1.0024318
1.0023143
1.0021692
1.002191
1.0023225
1.0025472
1.0023677
1.0023297
1.0020497
1.0023108
1.0023764
1.0023414
1.0024091
1.0020133
1.0023559
1.002181
1.0024009
1.0023602
1.0020953
1.0023113
1.002036
1.0023845
1.0021401
1.0022307
1.0020431
1.0021937
1.0021036
1.0021093
1.0019566
1.001948
1.0019974
1.0020816
1.0021102
1.0020616
1.0021047
1.0018835
1.0021177
1.0019217
1.00205
1.0020775
1.0018931
1.0022075
1.0017636
1.0021193
1.0018352
1.0020266
1.002062
1.00183
1.0020904
1.0015609
1.0021129
1.0016517
1.0021482
1.0016919
1.0017748
1.0015834
1.0016669
1.001892
1.0017861
1.0016966
1.0017752
1.0017908
1.0018658
1.0018619
1.0015922
1.0017235
1.00165
1.0018448
1.0019235
1.0015999
1.0017626
1.0014001
1.0018234
1.0017339
1.0017207
1.0017624
1.0012834
1.0017416
1.0013921
1.0018509
1.0015048
1.0014893
1.0013036
1.0013256
1.0017486
1.0014999
1.0013714
1.0014269
1.0016294
1.0017593
1.0015474
1.001416
1.0013547
1.0013843
1.0016787
1.001603
1.0014907
1.0014117
1.0011794
1.001506
1.0014685
1.0014929
1.0015028
1.0011209
1.0013768
1.0012117
1.0014432
1.0013324
1.0012277
1.0011105
1.0010699
1.0015343
1.0012941
1.0011491
1.0011808
1.0014296
1.0015264
1.0013357
1.0012305
1.001154
1.0011869
1.0013883
1.0013744
1.0012454
1.0012495
1.0010198
1.0012336
1.0012127
1.0012187
1.0012579
1.0009767
1.001168
1.0009532
1.0011578
1.0010059
1.001069
1.000929
1.0009071
1.0012295
1.0011087
1.0010474
1.0010672
1.0011853
1.0012168
1.0011291
1.00104
1.0010692
1.0010768
1.0011054
1.001162
1.0009748
1.0010526
1.000922
1.0010414
1.0010473
1.0009523
1.0010167
1.0007839
1.0009963
1.0007738
1.0009614
1.0007606
1.0008657
1.0007199
1.000711
1.0009817
1.000944
1.000922
1.0009527
1.0009913
1.0009704
1.000929
1.0008573
1.000891
1.000954
1.0009651
1.0009563
1.0008127
1.0007968
1.0007926
1.0008669
1.0009069
1.0008055
1.0007756
1.0006103
1.000725
1.0006697
1.0007897
1.0006896
1.0006503
1.0004968
1.0004761
1.0008537
1.0007987
1.0007681
1.0007744
1.0008349
1.0008336
1.0007702
1.0007094
1.0007185
1.0008007
1.0008138
1.0008027
1.0006816
1.000619
1.0006347
1.0006718
1.0007817
1.0006827
1.0006394
1.0004701
1.0004941
1.0005296
1.0006372
1.0006142
1.000509
1.0003347
1.0003065
1.0007387
1.00067
1.0006094
1.0006133
1.000694
1.0007325
1.0007048
1.0006061
1.0005518
1.0005915
1.000625
1.0006955
1.0006061
1.0005973
1.0004665
1.0005497
1.0005288
1.0005957
1.0005126
1.000433
1.0004132
1.0004327
1.000489
1.0004697
1.0003559
1.000258
1.0002302
1.0005977
1.0005652
1.0005166
1.0005072
1.0005769
1.0005685
1.0006176
1.0005129
1.0004822
1.0004989
1.0004609
1.0006165
1.0004432
1.000581
1.0003296
1.0005093
1.0003572
1.0005349
1.0003837
1.0004295
1.0003068
1.0003851
1.0003637
1.0003684
1.0002846
1.0002174
1.0001895
1.0004632
1.0004809
1.0005071
1.0004419
1.0004882
1.0004141
1.0004697
1.0004779
1.000424
1.0005204
1.0003595
1.0005398
1.0002809
1.0005411
1.0002257
1.000518
1.0002641
1.0004733
1.000338
1.0003353
1.0003565
1.000195
1.0004195
1.0001724
1.0003689
1.0001218
1.0002122
1.0004083
1.0004235
1.0004769
1.0004101
1.0003974
1.0004096
1.0003336
1.0005221
1.0003104
1.0005619
1.0002193
1.000534
1.0001957
1.0005114
1.0003174
1.0003711
1.0004355
1.0001662
1.000544
1.0000647
1.0005868
1.0000441
1.0004999
1.0000907
1.0003453
1.0001201
1.0002007
1.0004137
1.0004009
1.0004509
1.0004405
1.0003805
1.0004811
1.0002776
1.0005654
1.0002302
1.0006171
1.0002016
1.000519
1.0003014
1.0003343
1.0005575
1.0001022
1.0007316
0.9999209
1.0007393
0.9999838
1.0005929
1.000207
1.0003064
1.0003411
1.0001181
1.0003256
1.0001425
1.000492
1.0005052
1.0003787
1.0005288
1.0004109
1.0005358
1.0005129
1.0003493
1.0006122
1.0001787
1.0007541
1.000156
1.0007214
1.0002301
1.0004673
1.0005101
1.0001712
1.0008154
0.99992935
1.0008809
0.99991873
1.0007345
1.0001306
1.0004516
1.0002666
1.0002482
1.0002546
1.0006275
1.0005422
1.0005874
1.0003758
1.0006751
1.0005765
1.0005957
1.0006098
1.0004001
1.0005356
1.0005364
1.0005821
1.0006498
1.0004267
1.0005284
1.0004171
1.0005569
1.0005786
1.0004975
1.0005148
1.0003602
1.0004839
1.0004315
1.0005042
1.0004012
1.0003508
1.000297
1.0007483
1.0006003
1.0007345
1.0005134
1.0007065
1.0007616
1.0005758
1.0008354
1.0004056
1.0007719
1.0005574
1.0006885
1.0007985
1.0004225
1.0008553
1.0003252
1.0008725
1.0005224
1.0006595
1.0006913
1.0003251
1.000848
1.0002732
1.0008738
1.0003136
1.0006324
1.0003682
1.0008769
1.0006927
1.000824
1.0007518
1.0006803
1.0010124
1.0005386
1.0009439
1.000622
1.0007116
1.0008848
1.0006332
1.0009172
1.0006349
1.0008394
1.0005682
1.0009719
1.0004502
1.0011187
1.0003686
1.0010296
1.0004501
1.0008099
1.0006392
1.0006886
1.000693
1.0006021
1.0010043
1.0010409
1.0006544
1.0010618
1.0007758
1.001018
1.001117
1.0004862
1.0012361
1.0003472
1.0012988
1.0008088
1.0008395
1.0011028
1.0002732
1.0014544
1.000374
1.001436
1.0005474
1.0008955
1.0008192
1.0006962
1.0011436
1.0006465
1.0009909
1.0006038
1.0007977
1.0012324
1.0011438
1.0009997
1.0011266
1.0009594
1.0012775
1.0010936
1.0009513
1.0010822
1.0007315
1.0012607
1.0010608
1.0010165
1.0011145
1.0005522
1.0013402
1.0008719
1.001222
1.0010828
1.0005924
1.0011793
1.0007565
1.0013877
1.000881
1.0009867
1.000722
1.0009011
1.0014203
1.001472
1.001177
1.0015401
1.0010871
1.0013962
1.0014548
1.0009415
1.0016307
1.0007316
1.0014526
1.0012791
1.0009656
1.0016269
1.0005438
1.0016616
1.0008521
1.0013435
1.0013198
1.000751
1.0014824
1.0008118
1.0015187
1.0009312
1.0012262
1.0009113
1.0011696
1.0016507
1.0018561
1.0014754
1.0017734
1.0015177
1.0014155
1.0019093
1.0011295
1.0017877
1.0012036
1.0013818
1.0018353
1.0009116
1.001944
1.0008098
1.0016599
1.0013598
1.0012171
1.0017705
1.0007402
1.0018492
1.0009356
1.0016874
1.0011267
1.0013725
1.0012053
1.0013785
1.0019529
1.0020466
1.002239
1.0017574
1.002057
1.0016112
1.0018087
1.0021604
1.001419
1.0020208
1.0014461
1.0017901
1.0017728
1.0014813