/*--------------------------------*- C++ -*----------------------------------*\
| =========                 |                                                 |
| \\      /  F ield         | OpenFOAM: The Open Source CFD Toolbox           |
|  \\    /   O peration     | Version:  2406                                  |
|   \\  /    A nd           | Website:  www.openfoam.com                      |
|    \\/     M anipulation  |                                                 |
\*---------------------------------------------------------------------------*/
FoamFile
{
    version     2.0;
    format      ascii;
    arch        "LSB;label=32;scalar=64";
    class       surfaceScalarField;
    location    "13";
    object      phi;
}
// * * * * * * * * * * * * * * * * * * * * * * * * * * * * * * * * * * * * * //

dimensions      [1 0 -1 0 0 0 0];

oriented        oriented;

internalField   nonuniform List<scalar> 
192068
(
0.00091537532
-0.00011221235
9.9308071e-05
0.00093373564
-0.00033410497
0.00032526414
0.00093936894
-0.00039839881
0.00040152271
0.00093749279
-0.00048382899
0.00048644149
0.00092846283
-0.00053362373
0.00053803849
0.00091501449
-0.00055049171
0.00055494108
0.00089786778
-0.00056215931
0.00056628131
0.00088112168
-0.00056778323
0.00057444691
0.00086577406
-0.00056555305
0.00057572657
0.00085307735
-0.00055541008
0.00056779114
0.00084406048
-0.00054438282
0.00055843614
0.00083779272
-0.00053066782
0.00054752289
0.00083071326
-0.0005121274
0.00053117065
0.00082174324
-0.00049724612
0.00051654711
0.00081135454
-0.00049159419
0.00051463956
0.00079979466
-0.00050576546
0.00053211837
0.00078661512
-0.00053385844
0.00056816967
0.00077178079
-0.00057303219
0.00059911158
0.00075952127
-0.00059521468
0.00062804302
0.00074977197
-0.00060780531
0.00064190068
0.0007391009
-0.00060622576
0.0006336888
0.00072874239
-0.00058851437
0.00062858513
0.00071817443
-0.00057214781
0.00060387782
0.00070794888
-0.00054605704
0.00057078458
0.00069958524
-0.00050998423
0.00054288836
0.00069262739
-0.00048443476
0.00051328885
0.00068602301
-0.00045355287
0.00047072778
0.0006795589
-0.00041998848
0.00044262343
0.00067330798
-0.00039114615
0.00040615347
0.00066615785
-0.00036107933
0.00036689147
0.00066049905
-0.00032238477
0.00033218006
0.00065571861
-0.00028614488
0.00030160483
0.00065306952
-0.00024990077
0.00026467011
0.00065225454
-0.00021600765
0.0002247908
0.00065406253
-0.00017800245
0.00018114494
0.00065814049
-0.00014069348
0.00014088354
0.00066427883
-0.00010030635
0.00010056913
0.00067195389
-6.2676136e-05
6.322415e-05
0.00068070975
-2.5487966e-05
2.4912338e-05
0.00069070829
9.9468598e-06
-1.1481581e-05
0.00070214351
4.3343659e-05
-4.7194677e-05
0.00071587087
7.6506263e-05
-8.1360033e-05
0.00073222231
0.00010675074
-0.00011490447
0.0007492684
0.0001351155
-0.00014967648
0.00076999113
0.00016421972
-0.00017675996
0.00079275724
0.00019214285
-0.00020640484
0.00081733134
0.00021490048
-0.00023367642
0.00084101098
0.0002393086
-0.00026356192
0.00086927381
0.00026179077
-0.00027911072
0.00089633085
0.00028173928
-0.00030658376
0.00092363902
0.00029835183
-0.00032358603
0.00095468462
0.00031592033
-0.00034255579
0.00098253966
0.00033103319
-0.00035732441
0.0010184461
0.00034042414
-0.00036839126
0.00036254521
0.0010465781
-0.00039138739
0.00091716311
-0.00012253409
0.00093290498
-0.00033809876
0.0009384693
-0.00039479661
0.00093684317
-0.00047808742
0.00092817805
-0.00052801881
0.00091476337
-0.00054446865
0.00089798214
-0.00055596872
0.00088184419
-0.00056018906
0.00086690368
-0.00055679818
0.00085423781
-0.00054418984
0.00084527639
-0.00053022979
0.00083914043
-0.00051475088
0.00083290357
-0.0004941641
0.00082511115
-0.00047571119
0.00081530718
-0.00047089871
0.00080468774
-0.0004815526
0.00079228073
-0.0005043683
0.00077899441
-0.0005367087
0.00076727289
-0.0005628226
0.00075781301
-0.00057095302
0.00074801357
-0.00057357129
0.00073713904
-0.0005610907
0.00072663566
-0.00053764211
0.00071641813
-0.00051771687
0.0007071211
-0.00048989496
0.00069965963
-0.00045727127
0.00069309159
-0.00043061607
0.00068586604
-0.00040251076
0.00067927747
-0.00036762966
0.00067228086
-0.00034205327
0.00066580636
-0.00031342614
0.00066034654
-0.00027979244
0.00065681939
-0.00024203699
0.00065492088
-0.0002054526
0.00065619406
-0.00016945624
0.00065935557
-0.00013439031
0.00066643232
-9.8496247e-05
0.00067463427
-6.3328269e-05
0.00068547726
-2.8195036e-05
0.0006977429
6.2012107e-06
0.00071109109
3.9119225e-05
0.00072476225
6.9750639e-05
0.0007390564
9.7898848e-05
0.00075666592
0.00012823587
0.00077401403
0.00015058684
0.0007941964
0.00017760704
0.00081517117
0.00019910256
0.00084100082
0.00022316925
0.00086352605
0.00023972836
0.00089174782
0.00025893246
0.00091820582
0.0002772441
0.00094892328
0.00029002322
0.0009760024
0.00030598438
0.0010061693
0.00031159367
0.00033278689
0.0010395172
0.00091756424
-0.00013052346
0.00093195756
-0.00033876058
0.00093758217
-0.00038580424
0.00093652301
-0.0004726772
0.00092856268
-0.00052092407
0.00091550387
-0.00053865099
0.00089878638
-0.00055050945
0.00088275789
-0.00055274325
0.00086779496
-0.00054579192
0.00085480007
-0.00053112575
0.00084573572
-0.00051537872
0.00083988191
-0.00049935356
0.00083417585
-0.00047772673
0.0008267075
-0.00045579341
0.00081721548
-0.00044830785
0.0008068632
-0.00045576139
0.00079483498
-0.00048126974
0.0007822165
-0.00050305293
0.00077111245
-0.00052793947
0.00076154486
-0.00053865538
0.00075212608
-0.00053483802
0.00074149661
-0.0005333964
0.00073089201
-0.00051419897
0.00072080014
-0.00048799071
0.00071192705
-0.00046637928
0.00070388315
-0.00044034044
0.00069795221
-0.00040736348
0.00069157927
-0.00038400936
0.00068506705
-0.00035484752
0.00067871024
-0.00032302122
0.00067322601
-0.00029419309
0.0006684011
-0.00026697164
0.00066530787
-0.00023604341
0.00066386552
-0.0002021965
0.00066486448
-0.00016616615
0.00066817874
-0.00013064965
0.00067400641
-9.6056586e-05
0.00068229939
-6.2011468e-05
0.00069318197
-2.9690083e-05
0.00070536936
2.8237405e-06
0.00071902307
3.2196803e-05
0.00073412916
6.3026181e-05
0.00075057533
8.9619039e-05
0.00076702207
0.00011566556
0.00078590427
0.00014148683
0.00080540292
0.00016367756
0.00082584911
0.00018512815
0.0008468574
0.00020331656
0.00086959116
0.00022431412
0.00089540106
0.00023982527
0.00091894707
0.0002561485
0.00094489759
0.00026522764
0.00097276191
0.00028307748
0.0010008374
0.00028897277
0.00030534062
0.0010309396
0.00091672666
-0.00013714499
0.0009307393
-0.00033789518
0.00093682805
-0.00037689028
0.00093653978
-0.00046345726
0.0009292733
-0.00051128796
0.0009165094
-0.00052874565
0.00089975865
-0.00054292964
0.00088382203
-0.00054363644
0.00086872276
-0.00053544966
0.00085532814
-0.00051892481
0.00084613664
-0.00050161184
0.00084071973
-0.00048241125
0.00083567193
-0.00045920507
0.00082870147
-0.00043840582
0.00081970885
-0.00042511775
0.00080941378
-0.00043067468
0.00079837702
-0.00045109178
0.00078620028
-0.00047800467
0.00077584763
-0.00049405172
0.00076697348
-0.00050808421
0.00075730133
-0.00050465153
0.00074720736
-0.00049603179
0.00073680533
-0.00048640752
0.00072628514
-0.00046398475
0.00071757737
-0.0004345382
0.00070981866
-0.0004144371
0.00070306938
-0.00038773279
0.00069699759
-0.00035994094
0.00069079483
-0.0003391468
0.00068439347
-0.00031399705
0.00067907848
-0.00028277451
0.00067464064
-0.00025213054
0.00067179218
-0.00022264541
0.00067046032
-0.00019328702
0.00067152209
-0.00016160806
0.0006747028
-0.00012861116
0.00068032512
-9.4792058e-05
0.0006880872
-6.1793e-05
0.00069757798
-3.0608222e-05
0.00070923838
-6.9313926e-07
0.00072242736
2.8057522e-05
0.00073705261
5.4562649e-05
0.0007525817
8.1510713e-05
0.00077056414
0.00010514731
0.00078802337
0.0001283653
0.00080863013
0.00014882799
0.00082857703
0.00017145342
0.00085139598
0.00018780483
0.00087416934
0.00020772078
0.00089581275
0.00021780699
0.00092013804
0.00023611506
0.00094646824
0.0002471703
0.00097299879
0.00026152261
0.00099582107
0.0002625631
0.0002822718
0.0010257016
0.00091586399
-0.00014260172
0.00092963466
-0.00033419217
0.00093615306
-0.00036590174
0.00093653678
-0.00045391026
0.00092997641
-0.00050189284
0.00091747948
-0.00052029613
0.00090075116
-0.00053331169
0.00088484321
-0.00053359678
0.00086967638
-0.00052263964
0.00085588945
-0.00050486832
0.00084667846
-0.00048651774
0.00084168489
-0.00046570285
0.00083710353
-0.00044118854
0.00083072281
-0.00041829703
0.00082198661
-0.00040468489
0.0008121539
-0.00040756688
0.00080150796
-0.00041939833
0.00079022404
-0.00044672242
0.00078012219
-0.00046393965
0.0007718914
-0.00047054509
0.0007624935
-0.0004772471
0.00075242806
-0.00046563295
0.00074244288
-0.0004502854
0.00073220744
-0.00043748427
0.00072287072
-0.00041268501
0.00071518742
-0.00038607781
0.00070846029
-0.00036791597
0.00070170055
-0.00034341216
0.00069612724
-0.00031615951
0.00069029359
-0.00029605149
0.00068533212
-0.00027351755
0.00068122434
-0.00024594477
0.00067879322
-0.00021483968
0.00067806471
-0.00018340094
0.00067939883
-0.00015241075
0.00068290534
-0.00012193141
0.00068839292
-9.1471964e-05
0.00069601589
-6.1824835e-05
0.00070534903
-3.2318674e-05
0.00071696224
-3.9459371e-06
0.00072876841
2.3504561e-05
0.00074334812
4.958322e-05
0.00075730283
7.3022034e-05
0.00077435068
9.5681009e-05
0.00079120254
0.00011785014
0.00081132301
0.00013686696
0.00083043773
0.00015628354
0.00085220935
0.00017135579
0.00087291487
0.00018912829
0.00089674308
0.00020204807
0.00092203483
0.00021976596
0.00094421705
0.00022318992
0.00096608541
0.00023812087
0.00099599775
0.00024420398
0.00025812591
0.0010184624
0.00091479189
-0.000147052
0.000928537
-0.00032872459
0.00093551204
-0.00035366464
0.00093654861
-0.00044129259
0.00093064602
-0.00048834492
0.0009184336
-0.00050861437
0.00090168749
-0.00052393369
0.00088589836
-0.00052264514
0.00087063654
-0.00051096985
0.00085648679
-0.00049257182
0.00084727848
-0.00047184521
0.00084268465
-0.00044953594
0.00083869621
-0.00042463226
0.00083284019
-0.0003985243
0.00082433486
-0.00038542822
0.00081504727
-0.00038490542
0.00080460811
-0.00039798398
0.00079428134
-0.00041220111
0.00078491419
-0.00043213093
0.00077649535
-0.00043742781
0.00076787905
-0.00043976864
0.00075786422
-0.00044019689
0.00074759851
-0.00042537484
0.00073775075
-0.00040600633
0.00072833557
-0.00039166597
0.0007197908
-0.00036831373
0.00071350971
-0.00034288799
0.00070712289
-0.00032555365
0.00070102671
-0.00030282449
0.00069542528
-0.00027713593
0.00069071743
-0.00025504365
0.00068704633
-0.00023273989
0.00068476063
-0.00020785225
0.00068425308
-0.00017924004
0.00068549483
-0.00014896653
0.00068895022
-0.00011849585
0.00069398206
-8.8651944e-05
0.00070149587
-6.0308912e-05
0.00071060431
-3.2268379e-05
0.00072173072
-6.0219229e-06
0.00073413666
2.0003134e-05
0.00074720915
4.1901968e-05
0.00076203607
6.6716183e-05
0.00077726283
8.5190923e-05
0.00079472042
0.00010788698
0.00081208692
0.00012313543
0.00083175793
0.00014378561
0.00085150099
0.00015635727
0.000873858
0.00017535081
0.00089615267
0.00018428524
0.00091482166
0.00019565606
0.00094148073
0.00020851087
0.00096439533
0.00021784551
0.00098979879
0.00022605109
0.00023554693
0.0010143934
0.00091388305
-0.00015040655
0.00092751618
-0.0003221244
0.00093481301
-0.00033946704
0.0009364199
-0.00042871302
0.00093115267
-0.00047572021
0.00091917907
-0.00049642206
0.00090253977
-0.0005123388
0.00088690449
-0.00051012533
0.00087164555
-0.00049598035
0.00085726204
-0.00047635667
0.00084797818
-0.000455623
0.00084372269
-0.000433672
0.00084032845
-0.00040772417
0.0008347806
-0.00038166853
0.00082678096
-0.0003631569
0.00081760585
-0.00035943531
0.00080798699
-0.00037380372
0.0007980747
-0.00038805383
0.00078960628
-0.00039860036
0.0007813998
-0.00041159657
0.0007727619
-0.00040680422
0.00076309097
-0.00040638021
0.0007529979
-0.00040193002
0.00074271188
-0.00038243877
0.00073368863
-0.00036105482
0.00072527278
-0.0003458962
0.00071814764
-0.00032319448
0.00071211181
-0.00030129851
0.00070620318
-0.00028715368
0.00070072166
-0.00026696212
0.00069639578
-0.00024269795
0.0006930889
-0.00021800037
0.00069106969
-0.00019425617
0.00069063298
-0.00017032568
0.0006920036
-0.00014410899
0.00069549697
-0.0001164948
0.00070060059
-8.7537538e-05
0.00070790279
-6.0249655e-05
0.00071685805
-3.2702217e-05
0.00072734227
-9.2430159e-06
0.00073883589
1.5887686e-05
0.00075207492
3.6817398e-05
0.00076567323
5.9349028e-05
0.00078115009
7.7345664e-05
0.00079691173
9.7289846e-05
0.00081480937
0.0001130688
0.00083267323
0.00013038973
0.00085295417
0.00014362925
0.00087182139
0.00015731975
0.00089068179
0.00016649757
0.00091800036
0.00018504694
0.00093363851
0.00018661409
0.00096374375
0.00020268876
0.00097814706
0.00019891873
0.00021643261
0.0010059577
0.00091294899
-0.00015339219
0.0009265135
-0.00031397653
0.0009340792
-0.00032454725
0.00093622173
-0.00041407168
0.00093155007
-0.00046090669
0.00091988536
-0.00048300034
0.00090341645
-0.00049939328
0.00088794095
-0.0004972236
0.00087275051
-0.00048225036
0.00085811689
-0.00046101462
0.00084877219
-0.00043871763
0.00084491124
-0.00041535086
0.00084199259
-0.0003884724
0.00083693266
-0.00036405804
0.00082935366
-0.00034388017
0.00082027596
-0.00033885755
0.00081124947
-0.0003430748
0.0008019565
-0.00036330993
0.00079357315
-0.00037176297
0.00078629707
-0.00037858344
0.00077741859
-0.00038420841
0.00076797802
-0.00037535251
0.00075841184
-0.00036717808
0.00074821149
-0.00035996321
0.00073876394
-0.00033809277
0.00073072865
-0.00031691008
0.00072322608
-0.00030478439
0.00071649047
-0.00028445944
0.00071090659
-0.00026438126
0.00070565836
-0.00024973386
0.00070134059
-0.00023288693
0.00069822582
-0.00021117077
0.00069644577
-0.00018663769
0.00069628878
-0.00016082658
0.00069779599
-0.00013493393
0.00070111313
-0.00010981078
0.0007059558
-8.3984315e-05
0.00071282307
-5.9456359e-05
0.00072113166
-3.4654888e-05
0.00073145479
-1.1346651e-05
0.00074280375
1.17742e-05
0.00075554647
3.1606205e-05
0.00076880436
5.2122364e-05
0.00078347734
6.9001132e-05
0.00079947895
8.8518845e-05
0.00081557123
0.00010165275
0.00083386389
0.00011880995
0.00085077628
0.0001284952
0.00087089957
0.00014544437
0.00089337818
0.00015488862
0.00090976552
0.00016500223
0.00093316457
0.00016902383
0.00095031657
0.00018264753
0.00097732717
0.00018665781
0.00019686965
0.00099891656
0.0009119108
-0.00015619795
0.00092557101
-0.00030553264
0.00093329049
-0.00031090231
0.000935894
-0.0004010247
0.00093179954
-0.00044625564
0.00092042316
-0.00046949555
0.0009041616
-0.0004864519
0.00088892143
-0.00048243917
0.00087390101
-0.00046573322
0.00085911663
-0.00044394573
0.00084968488
-0.00042189252
0.00084619433
-0.00039770088
0.0008436541
-0.00037170007
0.00083910034
-0.00034391644
0.00083170301
-0.0003249595
0.00082321077
-0.00031962535
0.00081427172
-0.00032143573
0.00080587197
-0.00033186313
0.00079793337
-0.00034569303
0.00079060894
-0.00034523234
0.0007823449
-0.00035291782
0.00077304227
-0.00035222453
0.00076317063
-0.00034069412
0.00075366724
-0.00032906492
0.00074403187
-0.00031948655
0.00073515088
-0.00029914568
0.00072810254
-0.00028047258
0.00072141825
-0.00026851685
0.00071536993
-0.00025114142
0.00071033666
-0.00023191626
0.00070629499
-0.00021548245
0.000703392
-0.00019878512
0.00070198013
-0.00017879436
0.00070200864
-0.00015617026
0.00070368096
-0.00013090503
0.00070698129
-0.00010623186
0.00071172348
-8.0622993e-05
0.00071799804
-5.8052083e-05
0.00072643457
-3.330421e-05
0.00073587175
-1.325641e-05
0.00074679688
8.8918586e-06
0.00075858997
2.6635014e-05
0.0007717653
4.6563373e-05
0.00078592394
6.1775535e-05
0.00080057105
7.9152081e-05
0.00081646251
9.1316407e-05
0.00083305464
0.0001073805
0.0008518337
0.00011830903
0.00087045294
0.00013122736
0.00088777045
0.00013734488
0.00090499451
0.0001471088
0.00093139148
0.00016131127
0.00094661318
0.0001622699
0.00096942856
0.00016852576
0.00017874187
0.00098933718
0.00091091643
-0.00015831055
0.00092458232
-0.00029650405
0.00093248363
-0.00029571255
0.00093555254
-0.0003864784
0.00093199938
-0.00043120949
0.0009209475
-0.00045403239
0.00090495082
-0.00047131238
0.00088996888
-0.00046709021
0.00087512226
-0.00044941718
0.00086020136
-0.00042641613
0.00085068753
-0.00040326008
0.00084745619
-0.00037935409
0.00084548379
-0.00035378571
0.00084125629
-0.00032556119
0.00083414109
-0.00030594711
0.000825969
-0.00029589847
0.00081739623
-0.00030339839
0.00080937043
-0.00030764076
0.00080242911
-0.00031471388
0.0007947798
-0.00032238956
0.00078683324
-0.00031904527
0.00077773136
-0.00032319696
0.00076789536
-0.00032196832
0.00075821702
-0.00030524124
0.00074904373
-0.00029136646
0.00074011842
-0.00028061572
0.00073242416
-0.00026106746
0.00072602364
-0.0002450753
0.00071997062
-0.00023531525
0.00071478817
-0.00022106626
0.00071087701
-0.00020300272
0.00070831758
-0.00018410839
0.00070703534
-0.00016532226
0.00070706279
-0.00014638503
0.00070863203
-0.00012570086
0.00071188731
-0.00010321678
0.00071624088
-7.9568411e-05
0.0007227804
-5.6864642e-05
0.00073018592
-3.4729343e-05
0.0007395156
-1.4780224e-05
0.0007499045
5.6110141e-06
0.00076136612
2.1806514e-05
0.0007740184
4.0811176e-05
0.00078724434
5.4443919e-05
0.0008012633
7.049e-05
0.00081694227
8.2785368e-05
0.00083318023
9.6876288e-05
0.0008496173
0.00010507726
0.0008668888
0.00011813894
0.00088325256
0.00012449429
0.00091021756
0.00014101
0.00091721189
0.00013609198
0.00094453212
0.00015232531
0.00096232369
0.0001529651
0.00015890075
0.00098049325
0.00090965249
-0.00016068683
0.0009236612
-0.00028878326
0.00093162032
-0.00028110224
0.00093505013
-0.00037342753
0.00093201437
-0.00041633351
0.00092129445
-0.0004393095
0.00090562123
-0.00045578855
0.00089095255
-0.00044962865
0.00087638409
-0.00043082524
0.00086143696
-0.00040664061
0.00085180266
-0.00038289422
0.00084878751
-0.00035968328
0.00084728744
-0.00033434588
0.00084332688
-0.00030890253
0.00083675259
-0.00028651404
0.00082847256
-0.00027529702
0.00082049191
-0.00027670704
0.00081280867
-0.00028812056
0.00080602044
-0.00028866262
0.00079916986
-0.00029687436
0.00079092151
-0.00029824062
0.00078203361
-0.00029357399
0.00077290722
-0.00029168662
0.00076307764
-0.00028721931
0.00075375108
-0.00026892027
0.00074543087
-0.00025311885
0.00073726095
-0.00024387452
0.00073023866
-0.00022760707
0.00072437839
-0.00021354496
0.00071933153
-0.00020382544
0.00071547459
-0.00019237313
0.000713032
-0.00017648775
0.00071188656
-0.00015705651
0.00071204188
-0.00013748653
0.00071397008
-0.0001163533
0.0007170197
-9.6799194e-05
0.00072143791
-7.5692379e-05
0.00072702618
-5.628333e-05
0.00073448691
-3.481e-05
0.00074296962
-1.6552427e-05
0.00075283157
2.5072426e-06
0.00076403
1.8274916e-05
0.00077567847
3.4997231e-05
0.00078821095
4.740111e-05
0.00080239399
6.3512446e-05
0.00081640419
7.3118727e-05
0.00083144746
8.6078341e-05
0.00084807613
9.5269435e-05
0.00086441062
0.00010681918
0.00088512864
0.00011370275
0.00089559697
0.00012070906
0.00091940858
0.00012572058
0.00093735783
0.00013685845
0.0009519121
0.00013640426
0.00014705666
0.0009764899
0.00090859014
-0.00016307597
0.00092266779
-0.00028089146
0.00093071506
-0.00026708526
0.00093457238
-0.00036062253
0.00093206682
-0.00039939116
0.00092169356
-0.00042359351
0.00090638073
-0.00044052227
0.0008920089
-0.00043355465
0.00087775838
-0.00041313406
0.00086281854
-0.00038697595
0.00085298594
-0.00036294393
0.00085021735
-0.0003400541
0.00084905988
-0.0003146027
0.00084551503
-0.00028942604
0.0008391808
-0.00026826379
0.00083114015
-0.00025960666
0.00082321447
-0.0002539
0.00081628577
-0.00026186768
0.00080948879
-0.00026866495
0.00080313093
-0.00026582259
0.00079515278
-0.00027492341
0.00078651045
-0.00027335408
0.00077730953
-0.00026403428
0.00076816187
-0.00025943898
0.0007587019
-0.00025225762
0.00074974633
-0.00023490927
0.00074197201
-0.00022180502
0.00073466352
-0.00021374452
0.00072841444
-0.00020089381
0.00072337419
-0.00018725272
0.00071959332
-0.00017580228
0.00071735458
-0.00016358573
0.00071621696
-0.00014940051
0.00071668775
-0.00013210301
0.00071848981
-0.00011227892
0.00072154462
-9.247678e-05
0.00072569517
-7.2018044e-05
0.00073134552
-5.3219548e-05
0.00073817766
-3.3580071e-05
0.00074601268
-1.7909747e-05
0.00075563612
1.7872925e-07
0.0007657955
1.4314737e-05
0.00077689837
2.9865502e-05
0.00078942099
4.1968362e-05
0.00080194797
5.5388092e-05
0.0008154074
6.4558492e-05
0.00083094506
7.816632e-05
0.00084581587
8.4546642e-05
0.00086191793
9.5211629e-05
0.00087750277
0.00010046397
0.00089278677
0.00010714184
0.00091669879
0.00011930735
0.00092780361
0.00012018609
0.00094754651
0.00012061237
0.00013231178
0.00096582007
0.00090706935
-0.00016576368
0.00092180684
-0.00027380756
0.00092975547
-0.0002540591
0.00093393958
-0.00034675177
0.00093181435
-0.00038485786
0.00092184536
-0.00040660867
0.00090695975
-0.00042291122
0.00089297327
-0.00041295992
0.00087911565
-0.00039202156
0.00086422985
-0.00036518214
0.00085424433
-0.00034191734
0.00085168313
-0.00031860863
0.00085088092
-0.000295733
0.00084768549
-0.00026939645
0.00084137108
-0.00025036558
0.0008337917
-0.00023900493
0.00082588122
-0.00023934683
0.00081937969
-0.00023806865
0.00081356061
-0.00024398694
0.00080684798
-0.00024350537
0.00079938108
-0.00024384262
0.00079104446
-0.00024929747
0.00078162551
-0.00024859884
0.00077258877
-0.00023566524
0.00076356509
-0.000227361
0.0007542765
-0.00021997006
0.00074601007
-0.00020344851
0.00073889031
-0.00019230602
0.0007325482
-0.00018571557
0.00072734784
-0.00017653444
0.00072372709
-0.00016369652
0.00072148899
-0.00015027044
0.00072061028
-0.00013615666
0.00072110883
-0.00012194132
0.00072289812
-0.00010608353
0.00072587364
-8.9128376e-05
0.00073012225
-6.9993561e-05
0.00073539098
-5.2454652e-05
0.00074139589
-3.4976491e-05
0.00074927526
-1.8397518e-05
0.0007579438
-2.3222349e-06
0.00076740895
1.0453617e-05
0.0007783916
2.5739501e-05
0.00078953082
3.5874031e-05
0.00080163688
4.8565084e-05
0.0008154821
5.7788233e-05
0.00082854306
6.8352109e-05
0.00084284246
7.4680711e-05
0.00085838718
8.4313384e-05
0.00087147736
8.8781644e-05
0.00089580482
0.00010216279
0.00090366846
9.909164e-05
0.00091904573
0.00010433983
0.00094558351
0.00011612215
0.00011507606
0.00095585421
0.0009060309
-0.00016831524
0.00092080581
-0.0002667215
0.0009288112
-0.0002401646
0.00093335875
-0.00033501971
0.0009317721
-0.00036889794
0.00092219451
-0.00038903172
0.00090776412
-0.000404525
0.00089412418
-0.00039438852
0.00088065539
-0.00037208219
0.00086578055
-0.0003435978
0.00085565539
-0.00031856741
0.0008531514
-0.00029703828
0.00085273401
-0.00027567844
0.00084970497
-0.00025118646
0.00084378957
-0.00023221266
0.00083610891
-0.00021795661
0.00082863586
-0.00021909955
0.00082234569
-0.00022222901
0.00081716582
-0.00021833643
0.00081074594
-0.0002254752
0.00080324359
-0.00022301821
0.00079497742
-0.00022178541
0.00078620995
-0.00022447856
0.00077695903
-0.00022083159
0.0007678813
-0.0002064867
0.00075931531
-0.00019576072
0.00075054082
-0.00018815406
0.00074300113
-0.0001750079
0.00073655718
-0.00016532297
0.00073137587
-0.00015924831
0.00072754355
-0.00015251179
0.00072544325
-0.00014166835
0.00072469133
-0.00012786125
0.00072523601
-0.00011268191
0.00072705966
-9.7347435e-05
0.00073001265
-8.231842e-05
0.00073392508
-6.5950505e-05
0.00073857451
-5.0673977e-05
0.00074494288
-3.3400798e-05
0.00075171711
-1.9364684e-05
0.00075991019
-4.5287728e-06
0.00076912838
7.8849859e-06
0.00077897603
2.0889408e-05
0.00078936546
2.9878319e-05
0.00080167327
4.2387288e-05
0.00081360122
5.0351287e-05
0.00082630247
5.9519923e-05
0.00083982183
6.6138038e-05
0.00085463833
7.5741543e-05
0.00087120902
7.9781705e-05
0.00088390238
8.6362185e-05
0.00089530767
8.7634972e-05
0.00092381742
9.9231066e-05
0.00092930955
9.893927e-05
0.000101633
0.00094903827
0.00090415435
-0.00017166146
0.0009199874
-0.00026102163
0.00092778977
-0.00022622502
0.00093254809
-0.00032184204
0.0009313281
-0.00035270246
0.00092214749
-0.00037248586
0.00090819031
-0.00038668719
0.00089497032
-0.00037302099
0.00088200875
-0.00034941358
0.00086735101
-0.00031966512
0.00085712604
-0.00029506236
0.00085468936
-0.0002749865
0.00085459225
-0.0002538666
0.00085175351
-0.00023241695
0.00084620572
-0.00021359646
0.00083843628
-0.00020344648
0.00083115781
-0.00019623864
0.00082556216
-0.00020218138
0.00082014325
-0.00020098825
0.0008145223
-0.00020005905
0.00080714238
-0.00020595901
0.00079899902
-0.0002042925
0.00079046228
-0.00019770772
0.00078165031
-0.00019764168
0.00077249251
-0.00019180536
0.00076361975
-0.00017682944
0.00075513368
-0.00016818952
0.00074711045
-0.00016232084
0.0007403256
-0.00015319595
0.00073501579
-0.00014371008
0.00073127402
-0.00013612747
0.00072913344
-0.00012905153
0.00072857903
-0.00011879599
0.0007290574
-0.00010687892
0.00073090584
-9.2588421e-05
0.00073388639
-7.7714876e-05
0.00073771853
-6.2083455e-05
0.00074251486
-4.7608889e-05
0.00074801023
-3.2494991e-05
0.00075437569
-1.9876607e-05
0.00076207704
-5.5120924e-06
0.00077032341
4.8351424e-06
0.00077934384
1.6539608e-05
0.00078967531
2.5553373e-05
0.00080103651
3.7090693e-05
0.00081146469
4.2043373e-05
0.00082459124
5.3464953e-05
0.00083737816
5.7614089e-05
0.00085065852
6.5683279e-05
0.00086490523
7.0082179e-05
0.000877047
7.5219519e-05
0.00089518442
7.9183276e-05
0.00091339914
8.9735204e-05
0.00091815438
8.0436443e-05
9.2999984e-05
0.0009421991
0.00090324839
-0.00017460216
0.00091903529
-0.00025414204
0.00092677742
-0.00021099901
0.00093189712
-0.0003071225
0.00093116124
-0.00033364281
0.00092239251
-0.00035233827
0.00090896817
-0.00036570874
0.00089619957
-0.000350276
0.00088372472
-0.00032707713
0.00086911905
-0.00029673602
0.00085865211
-0.00027113285
0.00085629096
-0.00025273985
0.00085638484
-0.0002326705
0.00085381592
-0.00021216353
0.00084825849
-0.00019551127
0.00084088671
-0.00018699289
0.00083350063
-0.00018196815
0.00082849266
-0.00017944058
0.00082357359
-0.00018405789
0.00081796567
-0.00017739646
0.00081092251
-0.00018037017
0.00080321809
-0.00018514824
0.00079445084
-0.00018314098
0.00078588696
-0.00017457416
0.00077725002
-0.00016983906
0.00076779314
-0.00016448602
0.00075903031
-0.000151285
0.00075102919
-0.00014364621
0.00074408929
-0.00013919451
0.00073855017
-0.00013349646
0.00073467008
-0.00012523756
0.0007327171
-0.00011567281
0.0007320642
-0.00010671194
0.00073260881
-9.6833678e-05
0.00073446893
-8.55853e-05
0.00073729853
-7.3113302e-05
0.00074101347
-5.945741e-05
0.00074545165
-4.6051042e-05
0.00075051389
-3.2788335e-05
0.00075684019
-1.9818354e-05
0.00076339965
-8.1046817e-06
0.00077120929
2.3056076e-06
0.00078000733
1.3449294e-05
0.00078972278
2.1540188e-05
0.00079898995
3.0201991e-05
0.00081104418
3.7712713e-05
0.00082131629
4.4576748e-05
0.00083413191
5.1433878e-05
0.00084656137
5.6785975e-05
0.00085887428
5.96977e-05
0.00087234096
6.7161925e-05
0.00089367644
7.1892704e-05
0.00089288512
6.9881386e-05
0.00091975584
7.6293748e-05
8.2089495e-05
0.0009321923
0.00090104191
-0.00017852235
0.00091830218
-0.00024778037
0.000925733
-0.00019408033
0.00093102497
-0.0002919852
0.00093053459
-0.00031308325
0.00092219577
-0.00033118675
0.00090923325
-0.00034414953
0.00089682201
-0.00032769037
0.00088492963
-0.00030390466
0.00087072969
-0.00027187071
0.00086025578
-0.00024602521
0.000858004
-0.00022939787
0.00085825437
-0.00021219097
0.0008558693
-0.00019226541
0.00085037398
-0.00017846037
0.00084315859
-0.00016592076
0.00083597038
-0.00016712221
0.00083098021
-0.00016463263
0.00082711576
-0.00016096961
0.00082143893
-0.0001633501
0.00081465148
-0.00015961582
0.0008070639
-0.00015993712
0.0007987064
-0.00016447924
0.0007900084
-0.0001609579
0.00078132575
-0.00015014725
0.00077247859
-0.00014446528
0.00076324682
-0.00013783947
0.0007549243
-0.00012747543
0.00074777913
-0.00012054555
0.00074215117
-0.00011691877
0.00073823169
-0.0001133772
0.00073599005
-0.00010702744
0.00073549413
-9.7718031e-05
0.00073614828
-8.7278408e-05
0.00073800238
-7.6827598e-05
0.00074062949
-6.6512639e-05
0.00074426612
-5.4470725e-05
0.00074818965
-4.3601017e-05
0.00075343632
-3.0833722e-05
0.00075874879
-2.0312889e-05
0.0007653596
-8.8496214e-06
0.00077245944
3.781276e-07
0.00078045556
9.9962533e-06
0.00078868689
1.6787223e-05
0.00079898565
2.5860595e-05
0.00080805367
3.0601341e-05
0.00082021203
3.9655386e-05
0.00082973484
4.2102026e-05
0.0008419424
4.8774605e-05
0.00085557256
5.3662389e-05
0.00086847388
5.6862997e-05
0.00087938397
6.0770304e-05
0.00089165953
6.030087e-05
0.00091326383
7.0562612e-05
6.7586695e-05
0.00092064599
0.00090054524
-0.00018148975
0.00091754229
-0.00023976733
0.0009247185
-0.00017502313
0.00093027513
-0.00027317665
0.00093015174
-0.0002915006
0.00092221344
-0.00030884694
0.00090989883
-0.00032176772
0.00089802265
-0.00030268089
0.00088676596
-0.00027872431
0.00087265012
-0.00024650081
0.00086184997
-0.00022087669
0.0008595356
-0.00020598251
0.00086001671
-0.00019008265
0.00085772308
-0.00017378424
0.00085265762
-0.00016043824
0.00084516626
-0.00015029735
0.00083820186
-0.00014633095
0.00083368509
-0.00015016711
0.00082986222
-0.00014299501
0.00082484937
-0.00014459606
0.00081825386
-0.00014573651
0.00081065898
-0.0001435151
0.00080273544
-0.00014016363
0.00079431319
-0.00014183102
0.00078543828
-0.00013737666
0.00077675574
-0.00012494423
0.00076772379
-0.00011940177
0.00075895731
-0.00011504108
0.00075140449
-0.00010864026
0.00074553208
-0.00010224196
0.00074149619
-9.7718803e-05
0.00073920324
-9.4245865e-05
0.00073863944
-8.8567808e-05
0.00073922286
-8.051214e-05
0.00074092604
-7.1055568e-05
0.00074368926
-6.093206e-05
0.00074694401
-5.0654905e-05
0.00075109344
-3.9790867e-05
0.00075562656
-2.9224301e-05
0.0007607531
-1.9392546e-05
0.00076673971
-9.7418127e-06
0.00077296542
-1.73191e-06
0.00078010889
6.5724444e-06
0.00078826278
1.3174473e-05
0.00079703098
2.0928047e-05
0.00080669809
2.509074e-05
0.00081586384
3.2636089e-05
0.00082671398
3.6778709e-05
0.00083881776
4.1312735e-05
0.0008483242
4.4235122e-05
0.00086378616
5.0210592e-05
0.00086841281
4.8172423e-05
0.00089362632
5.870567e-05
0.00089688279
5.5005435e-05
5.8125682e-05
0.00091233813
0.00089803314
-0.00018600724
0.00091699379
-0.00023155403
0.00092365957
-0.00015322401