/*--------------------------------*- C++ -*----------------------------------*\
| =========                 |                                                 |
| \\      /  F ield         | OpenFOAM: The Open Source CFD Toolbox           |
|  \\    /   O peration     | Version:  2406                                  |
|   \\  /    A nd           | Website:  www.openfoam.com                      |
|    \\/     M anipulation  |                                                 |
\*---------------------------------------------------------------------------*/
FoamFile
{
    version     2.0;
    format      ascii;
    arch        "LSB;label=32;scalar=64";
    class       surfaceScalarField;
    location    "13";
    object      phi_0;
}
// * * * * * * * * * * * * * * * * * * * * * * * * * * * * * * * * * * * * * //

dimensions      [1 0 -1 0 0 0 0];

oriented        oriented;

internalField   nonuniform List<scalar> 
123996
(
0.0017263729
-5.6900118e-05
2.9999305e-06
0.0017577812
-8.0038794e-05
0.00011807466
0.001687081
-0.00017666345
0.00010037397
0.0015752413
-0.0003977955
0.00050155775
0.0015276578
-0.00060929738
0.00069165914
0.0015755615
-0.00061774261
0.00057244632
0.0016033144
-0.00064861689
0.00038522357
0.0016020366
-0.00050597906
0.00036073605
0.0016212874
-0.00045114434
0.00051297386
0.0016008294
-0.00045274445
0.00044223399
0.0015739751
-0.00041633884
0.00051732804
0.0015097618
-0.00048352986
0.00060320505
0.0014381962
-0.0004370316
0.00072399828
0.0013392416
-0.00047349932
0.00077678506
0.0012691111
-0.0005590016
0.00095169484
0.0012764654
-0.000694637
0.00088047181
0.001203919
-0.0006422897
0.00063333012
0.0011155493
-0.00057391336
0.00081682503
0.0010226669
-0.0009605409
0.0010112819
0.0010655186
-0.00086682332
0.0009447783
0.0012047996
-0.00076858751
0.0010157557
0.0011152597
-0.0011129452
0.00092886976
0.0011645175
-0.00082671547
0.00083089632
0.0012187546
-0.00069589501
0.00099258241
0.0010759683
-0.00084510459
0.00090262447
0.0011305362
-0.0009046086
0.0007871094
0.0010238413
-0.00067682829
0.0005338362
0.00068649827
-0.00049185078
0.00050907179
0.00075308738
-0.00056024441
0.00074152798
0.0010112718
-0.00048811428
0.00065081061
0.00088100528
-0.00042080897
0.000360589
0.00048843258
-0.00051443562
0.00038097312
0.00055935727
-0.00059397912
0.00065445919
0.0010458374
-0.00048676614
0.00066214564
0.0012291923
-0.0003512033
0.00032909706
0.00064223473
-0.00049733321
0.0002156001
-9.0979582e-05
-0.00088852384
0.00056388262
-0.00015068133
-0.00094941592
0.0011128946
0.00090044423
-0.00060283472
0.0011005124
0.001941207
-7.5055347e-05
0.00026269137
0.0018870141
0.00011724956
-0.00031480987
0.00097801133
-0.00024063709
-0.00040090781
-0.00010774704
-0.00090647136
0.00015943172
-0.00046969752
-0.001143395
0.00086995172
7.448766e-05
-0.00064626302
0.0011875586
0.001094412
-0.00010783207
0.00080939935
0.0020581501
0.00043327682
0.00016928745
0.0025380382
0.00063685814
-0.00023828886
0.0023006102
0.00044745795
-0.00053846069
0.0016179793
0.00019685336
-0.00048341293
0.00082555141
8.2320444e-06
-0.00024793313
0.00048280719
-9.9034776e-05
-2.5933213e-05
0.00071613766
-5.5379934e-05
9.0173793e-05
0.0012546392
0.00011458744
0.00018622694
0.00028421744
0.0018109513
0.00016824876
0.0016470323
-2.9036416e-05
0.0016707696
-6.5648382e-05
0.0016003324
-0.0002690838
0.0014995112
-0.00026561025
0.0014613725
-0.00041448259
0.0014964836
-0.00061767085
0.0015274874
-0.00064846269
0.0015222912
-0.00064983968
0.0015407977
-0.00056075026
0.0015241014
-0.00054230466
0.0014936793
-0.00054311501
0.0014554643
-0.00058185088
0.0013887947
-0.00049530505
0.0013040806
-0.00049621127
0.0012325544
-0.00036261062
0.0012481118
-0.0004132948
0.0011874774
-0.00061766915
0.0010380856
-0.00069741657
0.0010244234
-0.00098148732
0.0010643496
-0.00095096765
0.001081848
-0.00070067349
0.0011195919
-0.0010262875
0.0011454842
-0.0009068558
0.0011533662
-0.00061284259
0.0010212904
-0.0007289433
0.0011409497
-0.00076103105
0.001078488
-0.00066853235
0.00073337094
-0.00057726812
0.00077873333
-0.00053020562
0.00099502696
-0.00036300066
0.00085031081
-0.00037054224
0.00050110337
-0.00058272261
0.00056228258
-0.00060955039
0.00094577609
-0.00033394026
0.00092309652
-0.0002317287
0.00038690129
-0.00050878177
-3.2575552e-05
-0.00094995412
0.00011643474
-0.0010021289
0.00098172098
-0.00051815966
0.0014349106
-7.6056916e-05
0.00092370738
-0.00018971844
-2.5378344e-05
-0.00065052487
-0.00038034376
-0.00093592016
6.0201133e-05
-0.00078180222
0.0010879236
-0.00029321034
0.0019973556
0.00012756398
0.0022608089
0.00033122089
0.0020035801
0.00027252076
0.001577205
0.0001208328
0.0011315899
-2.6180365e-05
0.00081732508
-6.4649007e-05
0.0008839423
6.5050755e-05
0.0013425528
0.00030532146
0.0019195398
0.00056260569
0.00068595787
0.0024012647
0.0015653558
1.7341699e-05
0.0015801019
-0.0001108645
0.0015215063
-0.00027571774
0.0014231276
-0.00024540093
0.0013803951
-0.00039391666
0.0014241095
-0.00056075772
0.001453749
-0.00048298546
0.0014500379
-0.00049593579
0.0014601365
-0.00050744183
0.0014414319
-0.0005046367
0.0014091486
-0.00050107837
0.0013845058
-0.00052378796
0.0013129649
-0.00052566438
0.0012492503
-0.00059226526
0.0011730338
-0.00050848591
0.0011619303
-0.00040853306
0.0011163731
-0.00048960467
0.00094390245
-0.00070250096
0.00096857424
-0.0007953192
0.0010297933
-0.00091030364
0.00095092187
-0.00084953185
0.0010733196
-0.00080138826
0.0011380494
-0.0007896109
0.0010777881
-0.00070512287
0.00097993499
-0.00072021265
0.0011219063
-0.00054382613
0.0010845252
-0.00045451611
0.00073502148
-0.00057446975
0.00074500117
-0.00056193127
0.00089880379
-0.00032504489
0.00076792462
-0.00030405675
0.00050338759
-0.00055765014
0.00060213659
-0.00059599459
0.00089896096
-0.00032666378
0.00083544693
-0.00021038796
0.00032896748
-0.00053176928
6.9252534e-05
-0.00088125915
0.00029243724
-0.00083145221
0.0009111755
-0.0004148702
0.0010569738
-0.00020770362
0.00053336964
-0.00043899184
-6.5747333e-05
-0.00079237225
-0.00026353378
-0.0008219128
0.0002541055
-0.00050318455
0.0010518934
-0.00015728708
0.0015453949
1.4953634e-05
0.0015054142
-4.1203363e-05
0.0011683452
-0.00015027801
0.00087620027
-0.0002145825
0.00078298604
-0.00013503555
0.00095544145
2.7970786e-05
0.0014011971
0.00027715462
0.0018817487
0.00052919332
0.0022296938
0.00063958369
0.00065936006
0.0024233298
0.0014898317
2.4068824e-05
0.0015000657
-0.00014591541
0.001451504
-0.00019423062
0.0013530312
-0.00032365964
0.0013102497
-0.00048252111
0.0013640413
-0.00047214841
0.0013901868
-0.00039396688
0.0013870801
-0.00032677931
0.0013968148
-0.00035501012
0.0013795504
-0.00043373346
0.0013500401
-0.00037598769
0.001329456
-0.00033853654
0.0012518729
-0.00039404038
0.0011954513
-0.00050761351
0.0011232855
-0.00065626724
0.0011071869
-0.00058278958
0.0010612371
-0.00047739518
0.00091893094
-0.0006708408
0.00092557521
-0.00056498139
0.00099969024
-0.00070063107
0.00091988499
-0.0009215791
0.0010407424
-0.00065122772
0.0011155623
-0.00056911651
0.0010374603
-0.00078481683
0.00099182585
-0.00080905783
0.0011123062
-0.0004544724
0.0010759928
-0.00029085394
0.0007630402
-0.00050678234
0.00076261585
-0.00055832024
0.0008693538
-0.00031651708
0.00071626677
-0.0002455714
0.00051730172
-0.00044473394
0.00064464157
-0.00050079089
0.00083935073
-0.00034228376
0.00065413091
-0.0003284554
0.00021775348
-0.00060084933
0.00010929506
-0.00080713511
0.00037896681
-0.00064170793
0.00079627857
-0.00032332162
0.00078284878
-0.0003197831
0.0003734235
-0.00061215957
7.1295961e-05
-0.00083171774
7.8745372e-05
-0.00069895961
0.00039718613
-0.0003569553
0.00080194738
-0.00018938367
0.00099197517
-0.00021278658
0.00095454707
-0.00036516861
0.00080318287
-0.00044514735
0.00075593628
-0.00034742528
0.00088454998
-0.00010522285
0.0011985487
0.00012498744
0.0015812744
0.00036713163
0.0018102059
0.00048060355
0.0018314294
0.00044782983
0.00034870744
0.0017634511
0.0014119061
6.9370983e-06
0.0014266663
-7.5428326e-05
0.0013786692
-0.00012582058
0.0012823422
-0.00039332298
0.0012459581
-0.00051756862
0.0012987861
-0.00040809464
0.0013254505
-0.00037891765
0.0013230513
-0.00033267874
0.0013281118
-0.00028999217
0.0013205402
-0.00035344335
0.001295145
-0.00033995885
0.0012723502
-0.00025826363
0.0011969136
-0.00035117878
0.0011357649
-0.00039057889
0.0010679194
-0.00057688319
0.0010590536
-0.00058231014
0.00099409889
-0.00049190802
0.00089958844
-0.00064238681
0.00086182935
-0.00053844057
0.00091693563
-0.00054335266
0.00091788503
-0.00083522047
0.0010022499
-0.00063253573
0.0010219414
-0.00048386727
0.00096292374
-0.00074077578
0.00099550885
-0.0008338615
0.0010848397
-0.00049261767
0.001006648
-0.00027440957
0.0007473279
-0.00047705879
0.00077502805
-0.00051851718
0.00084239004
-0.00028739385
0.00065980454
-0.00018646095
0.00050899252
-0.00032251
0.00065372169
-0.0003761436
0.00077256643
-0.00033147743
0.00053784546
-0.00044948561
0.00019894855
-0.00071192446
0.000209138
-0.00075400588
0.00045844556
-0.00048384943
0.00064727364
-0.00025678101
0.00052114168
-0.00036369951
0.00024475692
-0.00066373002
0.00016702927
-0.00078264117
0.00026918639
-0.00059163571
0.00035335803
-0.00032492467
0.00042143908
-0.00022088773
0.00045661498
-0.0003115065
0.00052206565
-0.00043761026
0.00070143342
-0.00044887776
0.00092165231
-0.00028709269
0.0011730052
-4.0492053e-05
0.0014125126
0.00016890203
0.001518993
0.00030147932
0.0014741878
0.00028465799
0.0012611675
0.00014907923
2.4152486e-06
0.00097746552
0.0013431869
-7.8902748e-06
0.0013585304
-2.1361946e-05
0.0013063743
-0.00012155284
0.0012193685
-0.00038431295
0.0011922648
-0.00042580934
0.0012379478
-0.00037570548
0.0012632972
-0.00036556477
0.001262468
-0.00041002525
0.0012656707
-0.00034294955
0.001263414
-0.00030439946
0.0012424846
-0.00034088562
0.0012087715
-0.00030734659
0.0011441028
-0.00043021892
0.0010793353
-0.00037691106
0.0010285508
-0.00039039842
0.0010266027
-0.0003901856
0.00094360457
-0.00041404295
0.00087747877
-0.00051147102
0.00082709234
-0.00059176447
0.00083908594
-0.00053263465
0.00090308772
-0.00067648062
0.00097176105
-0.00065893365
0.00093677621
-0.00055741548
0.00090607741
-0.00060767218
0.0010066296
-0.00068746658
0.0010791135
-0.00052961748
0.00094087967
-0.00036483293
0.00073440785
-0.00048791074
0.00081100544
-0.00046390804
0.00085525546
-0.00024063214
0.00064368338
-0.00014599521
0.00050628395
-0.00023549534
0.00062098777
-0.00026903556
0.00067041751
-0.00028573889
0.00042947963
-0.00050699105
0.00020900259
-0.00077192267
0.00030999608
-0.00071859157
0.00049833359
-0.00041694818
0.0005148794
-0.00024936431
0.00033456191
-0.00038593113
0.00020090646
-0.00062706416
0.00030272133
-0.00068064075
0.00045318895
-0.00052061556
0.00042972034
-0.0003193123
0.00028566723
-0.00020272208
0.00019708174
-0.00023757037
0.00034658499
-0.00028739244
0.00070276597
-0.00026146404
0.0010621144
-0.00014998844
0.0013131616
-1.4257447e-06
0.0013895594
0.00010630315
0.0012800635
0.00012639217
0.0010242379
6.1984123e-05
0.00067420314
-8.5905041e-05
-0.00022707093
0.00033877872
0.0012788479
-6.824534e-06
0.0012895694
-2.0693255e-05
0.0012371671
-0.00014770718
0.0011610258
-0.00027229398
0.0011361217
-0.00031607233
0.0011770301
-0.00035736671
0.0011988663
-0.00033543506
0.0012009657
-0.00040508338
0.0012036925
-0.0003967957
0.0012004283
-0.00029875038
0.0011833104
-0.00033379427
0.0011392562
-0.00033163462
0.0010914443
-0.0004502104
0.0010336301
-0.00040031733
0.00099368131
-0.00028867032
0.00098795304
-0.00024367445
0.00090486226
-0.00032601792
0.00083455455
-0.00034592862
0.00079022479
-0.00057605589
0.00078105367
-0.00055705517
0.00085945119
-0.0005117621
0.00092372291
-0.00062175445
0.00087932516
-0.00065982475
0.00086151188
-0.0004938592
0.00098752297
-0.00044565568
0.0010517597
-0.00047526283
0.00088322408
-0.00044969193
0.00072363092
-0.0004972093
0.00082745485
-0.00038388907
0.00085799329
-0.00017027376
0.00063554575
-0.0001414225
0.00049681726
-0.00022017246
0.00057488573
-0.00022710786
0.00056837241
-0.00025191432
0.00035233512
-0.0004929644
0.00024486294
-0.00073441826
0.00039609056
-0.00064805651
0.00051235071
-0.00038982969
0.00039885274
-0.00027425418
0.00018634484
-0.00038595549
0.00016085515
-0.00055808322
0.00034899304
-0.00058659897
0.0005367007
-0.000468665
0.00051416924
-0.00029201517
0.0002852408
-0.00019088546
0.00014603572
-0.00018535748
0.00027078855
-0.00015887564
0.00063948106
-9.4113404e-05
0.0010287619
-3.0966832e-05
0.0012511474
3.1111424e-05
0.0012425537
2.384371e-05
0.0010408497
-3.7214955e-05
0.00070678826
-0.00013666091
0.0003374401
-0.00025534004
-0.00033212677
5.548963e-05
0.0012188734
-1.312077e-05
0.0012244129
-8.0719541e-05
0.0011759335
-0.00016713344
0.0011070115
-0.00016217724
0.0010816314
-0.0002676692
0.0011222579
-0.00032382498
0.0011402897
-0.00029785599
0.001143775
-0.00032755467
0.0011498138
-0.00039608341
0.0011420539
-0.00032413194
0.0011288773
-0.00033350913
0.0010815665
-0.00032077454
0.001044423
-0.00037056127
0.00099604863
-0.00035993089
0.00095558053
-0.00029330048
0.00094320346
-0.00022319995
0.00087547351
-0.00031535133
0.00078415434
-0.00031230425
0.00075504357
-0.00052480457
0.00074890965
-0.00055291772
0.00080676073
-0.00041414709
0.00087065032
-0.00052232228
0.00086687838
-0.0006901932
0.00084165635
-0.00046580528
0.00094220096
-0.00028702291
0.001016646
-0.00037498782
0.00085402546
-0.00048431359
0.00073001527
-0.00048318047
0.00083922662
-0.00029489381
0.00085040485
-0.00010965169
0.00062913597
-0.00016007269
0.00048223871
-0.00026170303
0.00052477521
-0.00023651312
0.00047327901
-0.00024753034
0.00028564673
-0.00045579266
0.00027202801
-0.00064097017
0.0004505475
-0.00055720185
0.0005283238
-0.00035595084
0.00036153526
-0.00029106834
0.00014309642
-0.00038676879
0.00014864439
-0.0005003852
0.00036523555
-0.00050592941
0.00059911798
-0.00042455559
0.00060155303
-0.00032538569
0.00037794266
-0.00024092921
0.00022114658
-0.00015489696
0.00026918575
-6.0873611e-05
0.00052059013
1.4899665e-05
0.00085577034
5.8051259e-05
0.0010613427
3.7880565e-05
0.0010597434
-3.0179658e-05
0.00086558928
-0.00015575701
0.00055360195
-0.0002787163
0.00024949788
-0.00036592405
-0.00036178003
5.8895918e-05
0.0011593149
-2.7502134e-05
0.0011632767
-0.00013711893
0.0011201763
-0.00014858058
0.0010520679
-0.00011915612
0.0010283219
-0.00027517462
0.001068511
-0.00029228721
0.0010850013
-0.0002743289
0.0010874675
-0.00024858695
0.0010963628
-0.00033811838
0.0010842359
-0.00032806726
0.0010749365
-0.00032513405
0.0010315204
-0.00030024118
0.0010021859
-0.00027654355
0.00095736496
-0.00026442507
0.00091369264
-0.00031211747
0.00089227698
-0.00026704019
0.00083893813
-0.00033235294
0.00073612
-0.00037703901
0.00072242687
-0.00047674765
0.00072182919
-0.0005286978
0.0007497171
-0.00041888114
0.00080383268
-0.00042701553
0.000855812
-0.00061272115
0.00082781087
-0.00048975774
0.00087432186
-0.00028046148
0.00095523303
-0.00032079493
0.00083555165
-0.00047598984
0.00074115554
-0.00044520381
0.00082908382
-0.00022266351
0.00081786447
-6.9545141e-05
0.00060752364
-0.00018182895
0.00046961576
-0.00031130858
0.00048530669
-0.00027189398
0.00040499694
-0.00025818486
0.00024585139
-0.00041980904
0.00029055013
-0.00054088742
0.00047776224
-0.00045317968
0.000532256
-0.00031034053
0.00033953556
-0.00030552653
0.00012281949
-0.00039184803
0.00011593458
-0.00043929353
0.00030953582
-0.00041147383
0.00053912787
-0.00037751686
0.00059906959
-0.0003640732
0.00047250257
-0.00031240711
0.00032466535
-0.00019302331
0.00031039376
-4.1854654e-05
0.00042622462
5.4026048e-05
0.00063442887
9.4569027e-05
0.00078034468
2.6867918e-05
0.00077298489
-8.4265183e-05
0.00063488588
-0.00025591912
0.00044339356
-0.00037621984
0.00028147646
-0.00041890899
-0.00037072363
0.00019860968
0.0011023925
-3.6560829e-05
0.0011073254
-0.00013854515
0.0010678819
-0.00011005721
0.00099937314
-0.00012740237
0.00097928693
-0.00029529682
0.0010182981
-0.00026847773
0.0010349748
-0.00025811978
0.0010349568
-0.00022010158
0.0010462279
-0.00026971198
0.0010330542
-0.00028912096
0.0010262093
-0.00029401704
0.00098886486
-0.00029197225
0.00096323936
-0.00024938575
0.00091599018
-0.0002177118
0.00087512156
-0.00030517703
0.00084653556
-0.00030372555
0.00079959305
-0.00029211318
0.00069902636
-0.00042003219
0.00069104306
-0.00041061293
0.00069626591
-0.00049113939
0.00070989056
-0.00046604095
0.00074518729
-0.00039025995
0.00083444093
-0.00046828442
0.00081323746
-0.0004918322
0.00081412977
-0.00037257295
0.00088709582
-0.00031559979
0.00082325672
-0.00041832025
0.0007562517
-0.00038424322
0.00081735545
-0.00018074556
0.00077923101
-4.5959461e-05
0.00058253289
-0.00017807997
0.00046414417
-0.00032046036
0.00046478251
-0.00029265996
0.00036006691
-0.00027669983
0.00022096024
-0.00039088173
0.00029881026
-0.00045938869
0.00048360131
-0.00036587369
0.00052412525
-0.00027794131
0.0003433072
-0.00032958488
0.00013796851
-0.00040560815
0.0001204399
-0.00039131152
0.000242313
-0.00033203307
0.00045108314
-0.00032210685
0.00057634682
-0.0003628707
0.00056891903
-0.00034971411
0.00046485027
-0.00024096836
0.00038659556
-7.5849011e-05
0.00038062046
2.9859202e-05
0.00043712054
7.0107341e-05
0.00049145144
-1.6602843e-06
0.0004666774
-0.00013736314
0.00039035683
-0.0002899809
0.00032699659
-0.00039237275
0.00028908268
-0.00041081839
-0.00036754985
0.00030121015
0.0010480567
-3.3146215e-05
0.0010547031
-8.9780935e-05
0.0010171648
-7.0514871e-05
0.00094920319
-0.00015475059
0.00093318043
-0.00029249525
0.00096902452
-0.00025889952
0.00098563686
-0.00024716976
0.00098425695
-0.00023065166
0.00099708246
-0.00023165438
0.00098528312
-0.00023543725
0.00097841705
-0.00023306944
0.00094394094
-0.00027548485
0.00092017125
-0.00027116573
0.00087100052
-0.00024166272
0.00083544075
-0.00027244188
0.00081091799
-0.00029052552
0.00075998874
-0.00021068598
0.00067386295
-0.00037656471
0.00065481075
-0.00029852653
0.00066370341
-0.00040467833
0.00067968625
-0.00047018505
0.0007012246
-0.00040254878
0.00079461591
-0.00032254062
0.00078135897
-0.00043808462
0.00076562205
-0.00045910506
0.00082794484
-0.00033159357
0.00080765862
-0.00032864073
0.00076102875
-0.00031679367
0.00080434659
-0.00017125925
0.00074170666
-4.6325609e-05
0.00055882274
-0.00014074631
0.00046405276
-0.00026538499
0.00045508098
-0.00026721558
0.00033647247
-0.000273124
0.0002100109
-0.00037105119
0.00029583235
-0.00039771501
0.00046449463
-0.00029697557
0.00048807464
-0.00025529419
0.0003426948
-0.00034827963
0.00016552529
-0.0004148648
0.00012735634
-0.00035334729
0.0001750314
-0.00026645588
0.00032634058
-0.00024989584
0.00049807024
-0.00031273504
0.00059033067
-0.00033120989
0.00056659952
-0.00026887026
0.0004738953
-0.00012816659
0.00037567109
-6.1191779e-06
0.00030691285
2.5866672e-05
0.00026155942
-3.0863417e-05
0.00022537478
-0.00015008537
0.00020945244
-0.00028387652
0.00023178339
-0.00035181269
0.00029355983
-0.00036208756
-0.00033206181
0.00037090565
0.00099754736
-1.4134623e-05
0.0010047963
-1.9835897e-05
0.00096768525
-4.2090523e-05
0.00090253972
-0.00018091919
0.00089002114
-0.00025249517
0.00092262164
-0.00024942284
0.00093912747
-0.00022817554
0.00093723619
-0.0002401282
0.00095102973
-0.00021183085
0.0009418682
-0.00019903178
0.00093358723
-0.00016105389
0.00090033695
-0.00024122044
0.0008783329
-0.00027474158
0.00083099871
-0.0002818542
0.00079797063
-0.00023815721
0.0007828627
-0.00023578618
0.00072488809
-0.00013949718
0.0006595644
-0.00027542523
0.00062246448
-0.00018461283
0.00062976737
-0.00028406369
0.00065038006
-0.00039718379
0.00067615708
-0.00042256508
0.00075014037
-0.00022745995
0.00074360244
-0.00034954211
0.00073546176
-0.00047284015
0.00079087134
-0.00032266058
0.00078748173
-0.00022917606
0.00075339484
-0.00025783414
0.00079078801
-0.00019321982
0.00071554396
-7.4999663e-05
0.00054553771
-0.00010105354
0.00046466522
-0.00018096883
0.00045086324
-0.00019439668
0.00032570462
-0.00024224452
0.00020944236
-0.00034159061
0.00028911662
-0.00035006204
0.0004297473
-0.00024999552
0.00044259328
-0.00024143426
0.00034189933
-0.00035533657
0.00022045723
-0.00041821975
0.00016874945
-0.00032594026
0.00015924006
-0.00021804428
0.00023401758
-0.00018101004
0.00041743446
-0.00022069445
0.00058118184
-0.00027547877
0.00063908151
-0.00025742211
0.0005775892
-0.00016675421
0.00043664542
-6.1491925e-05
0.0002771526
-1.7507067e-05
0.00015523736
-4.7171397e-05
9.837561e-05
-0.00013669581
9.7926324e-05
-0.00022774927
0.0001742878
-0.00028140878
0.00028995644
-0.00028564204
-0.00026687811
0.00039900139
0.00095019093
1.6066682e-05
0.00095652269
4.3679112e-05
0.00091987364
-1.8858523e-05
0.00085900011
-0.00017849563
0.00084770645
-0.00018868967
0.00087875984
-0.00022985524
0.00089410284
-0.00020493656
0.0008929063
-0.00023035859
0.00090615102
-0.00018919198
0.0009002587
-0.0001852813
0.00088903082
-0.00010572677
0.00085851605
-0.00019685569
0.00083640098
-0.00023329701
0.00079443659
-0.00028001225
0.00076224558
-0.00021244519
0.00075570369
-0.00015776774
0.00069177944
-0.00010903017
0.00064457751
-0.0001764973
0.00059411782
-0.00014205568
0.00059717275
-0.00018395714
0.00061549888
-0.0002838189
0.00065754381
-0.00041427179
0.00070711753
-0.00019752438
0.00070193372
-0.00027189827
0.00071458248
-0.00041331746
0.00076682107
-0.00028033268
0.0007575515
-0.00014625288
0.00072754275
-0.00021567778
0.00076817226
-0.00022821513
0.00069562176
-0.00012853677
0.00053710754
-8.2468334e-05
0.00046440933
-9.0577423e-05
0.00044329924
-0.00010903174
0.00032042213
-0.00019461127
0.00021121597
-0.00030509457
0.00027883451
-0.00031155777
0.0003868593
-0.00022239531
0.00038864646
-0.00023108446
0.00032715632
-0.00035353377
0.00026850542
-0.00041637338
0.00022240495
-0.00032296323
0.00017165944
-0.00018565354
0.00018443465
-0.00012962014
0.00032106077
-0.0001256624
0.00051778139
-0.00017717581
0.00064169512
-0.00020433362
0.00063700403
-0.00017163629
0.00050695763
-0.00011037748
0.00031518808
-5.8781997e-05
0.00014209825
-6.5193311e-05
5.8678647e-05
-0.00011650704
6.6776686e-05
-0.00017023243
0.00014838746
-0.00020749093
0.00027792606
-0.00020823407
-0.00019562945
0.00040722689
0.00090552935
4.5157917e-05
0.00091012743
8.1001488e-05
0.00087431754
-5.8488505e-06
0.00081887072
-0.00014232726
0.00080711195
-0.00012905175
0.00083768101
-0.00019682506
0.00085130983
-0.00017836413
0.00085158101
-0.00020306298
0.0008635213
-0.00015356461
0.00086146112
-0.00018293149
0.00084691412
-8.1172645e-05
0.00082012458
-0.00016153076
0.00079806634
-0.0001672674
0.0007620051
-0.00022463371
0.00073172001
-0.00018930608
0.00072665175
-8.5298657e-05
0.00066306592
-0.00012010599
0.00062190888
-0.00011564408
0.00056827394
-0.00018048255
0.00056904727
-0.00015038779
0.00057898285
-0.00019120754
0.00063878562
-0.00037675594
0.00066719543
-0.00021150045
0.00066071907
-0.00023283245
0.00069717123
-0.0003216364
0.00074862469
-0.00021936408
0.00072110496
-9.5917513e-05
0.00068952185
-0.00019706755
0.00073946112
-0.00026673513
0.00068297901
-0.0001917647
0.00053715656
-8.7099128e-05
0.00046232329
-2.7470957e-05
0.0004316823
-3.670708e-05
0.00031495879
-0.00014486559
0.00021360015
-0.00026702465
0.00026919169
-0.00027551443
0.00034649031
-0.0002039629
0.00033545518
-0.00022468091
0.00030191734
-0.00033798292
0.00030005416
-0.00040338695
0.00028296532
-0.0003355201
0.00021676431
-0.00019563551
0.00018435669
-9.288351e-05
0.00026257972
-5.52534e-05
0.00044714578
-6.5181316e-05
0.00061302778
-0.00011465929
0.00065655538
-0.0001353573
0.00056463998
-0.00013033364
0.00037458507
-0.00011178279
0.00017390105
-0.00010378724
6.7427994e-05
-0.00011992386
5.9316042e-05
-0.00013727439
0.00013493677
-0.00014567262
0.00026021265
-0.00013759296
-0.00013090782
0.00039408315
0.00086319938
6.2018841e-05
0.00086585684
8.7995124e-05
0.00083156904
-4.4936143e-06
0.00078130266
-0.00010034163
0.00076783149
-8.439926e-05
0.00079797259
-0.00015674312
0.00081032144
-0.00015324275
0.00081261096
-0.00016769668
0.00082130562
-0.00011170391
0.00082274906
-0.0001777418
0.00080564327
-8.6040554e-05
0.00078394653
-0.00014316642
0.00076222955
-0.0001136871
0.00073003163
-0.00013958754
0.00070319749
-0.00016877912
0.00069243974
-4.7214714e-05
0.00063629104
-0.0001535146
0.00059116269
-9.1780534e-05
0.00054202761
-0.00025198896
0.00054230851
-0.00018100534
0.0005397569
-0.00015602083
0.0006151179
-0.00032701407
0.00062803087
-0.00024251725
0.00062192355
-0.00023486153
0.00067510373
-0.0002395094
0.00072862712
-0.00015764595
0.00068013739
-7.8351982e-05
0.0006438604
-0.00019969509
0.00070514536
-0.00029761803
0.0006734267
-0.00024092033
0.00054256853
-0.00010182023
0.00045878211
7.1313115e-06
0.00041364882
6.3137229e-06
0.00030382156
-0.00011024196
0.00021213219
-0.00023504901
0.00025753535
-0.00023756602
0.00031013936
-0.0001840555
0.00028910814
-0.0002135907
0.00026807085
-0.00031329891
0.00029864426
-0.00037260242
0.00031604989
-0.00034212348
0.00025739258
-0.00023245832
0.00019937646
-9.7452785e-05
0.00023425905
-1.1403192e-05
0.00036968246
2.3935619e-05
0.0005461669
-6.9674547e-06
0.00063039271
-7.9272692e-05
0.00058411139
-0.00012423326
0.00041810542
-0.00015622248
0.00021537188
-0.00015662624
8.2136619e-05
-0.00015020984
6.3091593e-05
-0.00013152326
0.00012324583
-0.0001040267
0.0002336683
-7.8844779e-05
-6.2923763e-05
0.00035662109
0.00082263636
6.2470758e-05
0.00082376416
6.7079181e-05
0.00079133951
-1.0437719e-05
0.0007451696
-6.8043289e-05
0.00073020956
-6.5499188e-05
0.00076022672
-0.00012037277
0.00077216977
-0.00012950966
0.00077600026
-0.00013405689
0.00078089283
-7.7928023e-05
0.00078576017
-0.00015789928
0.0007667354
-0.00010718822
0.0007493746
-0.00013607622
0.00072982049
-9.1827715e-05
0.00069827619
-6.5923023e-05
0.00067679833
-0.0001528351
0.00065663237
-4.7478358e-05
0.0006109543
-0.00018147574
0.00055715794
-9.3649269e-05
0.00051893881
-0.00031204633
0.00051837993
-0.00023348908
0.00050438897
-0.00017278985
0.00058948285
-0.00027464448
0.0005933416
-0.00026896148
0.00059163432
-0.00026396888
0.00065014504
-0.00018715546
0.00070444578
-0.00010931476
0.00064120639
-8.4224514e-05
0.00060122067
-0.00020809437
0.00067048911
-0.00030119018
0.00066610856
-0.0002541657
0.00055147563
-0.00010553581
0.00045433136
2.4533619e-05
0.00039151393
1.8694581e-05
0.00028940683
-0.00010303231
0.00021136317
-0.00021644168
0.00024837551
-0.00020609835
0.00028525388
-0.00016264072
0.00025820277
-0.00019447444
0.00024004566
-0.0002724273
0.0002840027
-0.00032722725
0.00033164723
-0.00033462349
0.00029764809
-0.00027365151
0.00023240226
-0.000143173
0.00023673939
2.3225643e-06
0.00031947205
7.7272823e-05
0.00045897922
8.6421602e-05
0.00057331692
-2.986258e-06
0.0005655971
-0.000103772
0.00044352884
-0.00017724179
0.00026201737
-0.00020880193
0.00011318074
-0.00019625613
7.1653805e-05
-0.00014956277
0.00010924092
-9.2034185e-05
0.00020115536
-4.1065453e-05
-8.3476713e-06
0.00031129716
0.00078392987
4.5321607e-05
0.00078396747
2.7394291e-05
0.00075346221
-2.1580478e-05
0.00071023859
-5.1626097e-05
0.00069490114
-7.0549358e-05
0.00072404791
-9.4296596e-05
0.00073569628
-0.00010546173
0.00074051354
-0.00010672598
0.00074213996
-6.19321e-05
0.00074913626
-0.0001215204
0.00072908021
-0.0001275042
0.00071510988
-0.00012807219
0.00069856871
-9.5863387e-05
0.00066546684
-2.8617654e-05
0.00065009586
-0.00013863525
0.00062143444
-7.1716085e-05
0.00058625841
-0.00018894628
0.00052384832
-0.0001060705
0.0004966569
-0.00031018726
0.00049337289
-0.0002609049
0.00047251836
-0.00021523377
0.00055923554
-0.00022153017
0.00056030409
-0.00027653821
0.00056527143
-0.00029507702
0.00062192492
-0.00016190867
0.00067375297
-7.6138059e-05
0.00060342534
-9.9109788e-05
0.00056262888
-0.00021011694
0.00063712865
-0.00027213246
0.0006577389
-0.000226317
0.00055841456
-8.5885046e-05
0.00044507105
3.2070846e-05
0.00036570152
7.3741283e-06
0.0002698962
-0.00011962024
0.00020765123
-0.00021006179
0.00023776034
-0.0001810347
0.00026264198
-0.00014019729
0.00023500131
-0.00016947698
0.00021656258
-0.00022042057
0.00025718239
-0.0002672007
0.00031978953
-0.00030740466
0.00031640059
-0.00030401548
0.00026854537
-0.00020166093
0.00024808862
-2.5292461e-05
0.00028917905
0.00010003972
0.00037716161
0.00015005954
0.00047542729
7.992354e-05
0.00050938702
-5.0898234e-05
0.00043279928
-0.00018513193
0.00029093014
-0.00024983388
0.00015329229
-0.00024370827
9.2136154e-05
-0.00018200278
0.00010915002
-9.823463e-05
0.00017259361
-2.6082496e-05
2.612362e-05
0.00025678688
0.00074657626
1.5126898e-05
0.00074623015
-1.5910406e-05
0.00071763618
-3.6232081e-05
0.00067650934
-4.7236992e-05
0.00066176657
-9.2594271e-05
0.00068984818
-8.0441454e-05
0.00070132589
-8.4785527e-05
0.00070652793
-8.6934638e-05
0.00070625428
-6.3831169e-05
0.00071395209
-7.38824e-05
0.00069490574
-0.00013418227
0.00068249971
-0.00010854007
0.0006686094
-0.00010411946
0.00063293498
-3.0165735e-05
0.00062293628
-0.00012230294
0.00059023127
-0.00010219253
0.00056356878
-0.00016355365
0.00049368378
-0.00011765059
0.00047859488
-0.00025999343
0.00047118675
-0.000242169
0.00044780662
-0.00025345102
0.00052826605
-0.00016634676
0.00053123942
-0.00026100971
0.00054440593
-0.00030573378
0.00059504119
-0.0001475465
0.00064142537
-5.2515698e-05
0.00057171743
-0.00011497313
0.00053181886
-0.00020184132
0.00060838391
-0.00022359894
0.00065101596
-0.00017109911
0.00056422105
-4.6378469e-05
0.00043618503
4.212877e-05
0.00034259375
-9.6482607e-06
0.00025615129
-0.00014598755
0.00020832286
-0.00020962185
0.00023208613
-0.00015744351
0.00024887057
-0.00012082717
0.00022666093
-0.0001443858
0.00020463153
-0.00016497474
0.00023138022
-0.00019941523
0.00029456834
-0.00026536362
0.00032275625
-0.00031098149
0.00030588285
-0.0002506444
0.00027800546
-8.3144297e-05
0.00028195812
9.4064778e-05
0.00032187875
0.00017833471
0.00038350901
0.00013917722
0.00042314172
2.0153384e-06
0.00039308163
-0.00015065865
0.00029717946
-0.00026545839
0.0001883353
-0.00028144386
0.00012353275
-0.00021585157
0.00012318434
-0.00011610653
0.00015931545
-2.358457e-05
4.258248e-05
0.00021402209
0.00071118166
-1.9716006e-05
0.00071051625
-5.4126256e-05
0.00068373904
-5.029606e-05
0.00064412995
-5.4750868e-05