/*--------------------------------*- C++ -*----------------------------------*\
| =========                 |                                                 |
| \\      /  F ield         | OpenFOAM: The Open Source CFD Toolbox           |
|  \\    /   O peration     | Version:  2406                                  |
|   \\  /    A nd           | Website:  www.openfoam.com                      |
|    \\/     M anipulation  |                                                 |
\*---------------------------------------------------------------------------*/
FoamFile
{
    version     2.0;
    format      ascii;
    arch        "LSB;label=32;scalar=64";
    class       volScalarField;
    location    "13";
    object      rho;
}
// * * * * * * * * * * * * * * * * * * * * * * * * * * * * * * * * * * * * * //

dimensions      [1 -3 0 0 0 0 0];

internalField   nonuniform List<scalar> 
62344
(
1.0006638
0.99878305
0.99865633
1.0045092
1.0058081
1.0016405
0.99623897
0.99565449
0.99278802
0.99299248
0.99481643
0.99646284
0.99728707
0.99908568
1.001668
1.0003274
1.0059211
1.0068959
1.0085582
1.0095744
0.99884104
1.0013979
1.0042342
0.99654218
1.0004021
1.0005611
1.0041513
1.013798
1.0159185
1.0015664
1.0007567
1.0188632
1.0234003
1.0017596
0.98606656
1.0067127
1.0511107
1.0649709
1.0240892
0.97597522
0.97653584
1.0307045
1.0945516
1.1220027
1.0975561
1.0514287
1.0132134
1.0008288
1.021663
1.0608565
1.0962354
1.1052135
1.0854557
1.051803
1.0117389
1.0002786
0.99797098
0.99840501
1.0047929
1.00534
1.0018863
0.99579876
0.99467377
0.99376911
0.9932468
0.99460538
0.99682615
0.99872018
1.0015026
1.004505
1.0006836
1.0010172
1.0079334
1.0111828
1.0083209
1.0071422
1.0019627
1.0007611
0.99824147
1.0022386
0.99776623
0.9963626
1.0133744
1.0190073
1.0050103
1.0003425
1.0162649
1.0225465
1.0047952
0.99258832
1.0092311
1.0351014
1.0425777
1.0101525
0.98165301
1.0016846
1.0533767
1.0857524
1.0747267
1.0334828
1.0006514
1.0021721
1.0290294
1.0601232
1.0877693
1.1033694
1.0964444
1.0685109
1.0364216
1.0090123
0.99987143
0.99862752
0.99856947
1.0040868
1.007843
1.0035102
0.99811672
0.99404271
0.99194024
0.99162931
0.99158169
0.99330808
0.99539081
0.99880599
1.0023531
1.004629
1.0002112
1.0072353
1.0115274
1.0045961
1.0116613
1.0069749
0.99666902
0.99944849
1.0052193
0.99996254
0.99189116
1.0088664
1.018838
1.0106249
1.0059647
1.0156466
1.0167954
1.0043339
0.99936999
1.0175977
1.0353348
1.0299443
1.0025178
0.99111273
1.0150352
1.0503898
1.0668081
1.0476566
1.014915
0.99801523
1.0111725
1.0414726
1.0671979
1.0791147
1.0753663
1.0568357
1.0364494
1.0258329
1.0230901
0.99994047
0.99979185
0.99899596
1.0045561
1.0100146
1.004798
0.99929948
0.99491581
0.9916674
0.99122283
0.99159438
0.99294405
0.99473565
0.9976142
1.0000962
1.0054562
1.003689
1.0100748
1.0134486
1.005352
1.0088439
1.0085423
0.99696115
1.0004391
1.0054858
1.0022519
0.99355919
1.0054368
1.0137546
1.010643
1.01042
1.0169001
1.0125337
1.0018144
1.0069092
1.0269344
1.0376819
1.0259568
1.0037296
1.0014787
1.0227206
1.0429982
1.0465776
1.035668
1.0208529
1.0171507
1.0265664
1.0406026
1.0483319
1.0465925
1.0378719
1.0267325
1.0262774
1.0368057
1.0528534
1.000407
0.99990325
0.99947185
1.0059257
1.0104218
1.0054059
0.99866647
0.9958292
0.99380249
0.99233268
0.99331393
0.99445627
0.99715776
0.99994349
1.0012131
1.0029537
1.004859
1.010252
1.0135366
1.0106021
1.0055741
1.0049268
0.99988212
1.0009665
1.0004921
0.9989973
0.99643989
1.0061337
1.0090621
1.0061278
1.0109542
1.0187371
1.0126409
1.0028022
1.0115927
1.0318228
1.0363775
1.0226434
1.0092585
1.0127867
1.0269922
1.0338255
1.031228
1.0313859
1.0334803
1.0370213
1.0365962
1.027505
1.0175169
1.0107438
1.0090673
1.0181691
1.0360349
1.0605104
1.0857623
1.0007032
0.99963428
1.0001793
1.0070788
1.0095305
1.0052334
0.99815406
0.99617191
0.99542564
0.99396457
0.99473812
0.99511692
0.99828155
1.0010308
1.0025629
1.0005593
1.0045224
1.0080847
1.0105259
1.0139836
1.0046864
1.0008508
1.00209
1.002899
0.99562282
0.99206964
0.99745991
1.0085249
1.007084
1.0015949
1.0094583
1.0204984
1.0159309
1.0074412
1.0161396
1.0309158
1.0298897
1.0185394
1.0152479
1.0238858
1.0313219
1.0267413
1.0206876
1.0251742
1.0371064
1.0450379
1.0378475
1.0156441
0.99554307
0.98706151
0.99503989
1.0185924
1.0485411
1.0795963
1.1065573
1.0006411
0.99967918
1.0008588
1.0069407
1.0087247
1.0049932
0.99869357
0.99624489
0.99509556
0.99461841
0.99554725
0.9946936
0.99715896
0.99894648
1.0025479
0.99978316
1.0044439
1.0075355
1.0090887
1.0130932
1.0060922
0.99950656
1.0019061
1.0054872
0.99572432
0.98811258
0.99648557
1.0103508
1.0073164
0.99966199
1.0087209
1.0219882
1.019914
1.0141852
1.0214165
1.0286178
1.0215665
1.0135163
1.0191217
1.0316169
1.0346584
1.0237857
1.013341
1.0155823
1.0321734
1.0450793
1.0399432
1.0169877
0.99293315
0.98362167
0.9932661
1.0179913
1.050568
1.0807877
1.1027944
1.000456
1.0002232
1.0011912
1.0062683
1.0088039
1.0049869
0.99947381
0.99668851
0.99436129
0.99395718
0.99544715
0.99472628
0.99658686
0.99663654
1.0016049
1.0002717
1.0038692
1.0085809
1.0110415
1.010897
1.0090623
1.0019444
1.0001862
1.005722
0.99944183
0.98922345
0.99546638
1.009654
1.0070461
1.0000345
1.0092987
1.0229313
1.0226368
1.0205346
1.0277332
1.028333
1.0165076
1.0091392
1.0190869
1.0349737
1.037323
1.0234608
1.0077782
1.0075935
1.0244224
1.0389285
1.039249
1.0251897
1.0045793
0.99437702
1.0002348
1.0198205
1.0462374
1.0706706
1.0857539
1.0004081
1.0007064
1.0010067
1.0059959
1.0093951
1.0053008
0.99990026
0.99719281
0.99432451
0.99317458
0.99441899
0.9951872
0.99742893
0.99661752
1.0010866
1.0015803
1.0029904
1.0089155
1.013381
1.0094863
1.0118141
1.0064412
0.99911636
1.0025827
1.0027754
0.99320899
0.99473298
1.0058744
1.0044058
1.0005078
1.0102658
1.0228041
1.0235302
1.0247109
1.0329039
1.0299208
1.0149077
1.0068661
1.018012
1.0356875
1.0383962
1.0251478
1.0074671
1.0025606
1.0132283
1.0279586
1.0342656
1.0306152
1.0187029
1.0104828
1.0139256
1.0267615
1.0425574
1.0565368
1.0656507
1.0004783
1.0006203
1.0005303
1.0061413
1.0101589
1.0058377
1.0000001
0.99745175
0.99485259
0.99310226
0.99316705
0.99520699
0.99817391
0.99833862
1.0014662
1.0030836
1.0026717
1.0085101
1.0140226
1.0092939
1.0123336
1.010121
0.9999566
0.99848998
1.0035804
0.99673209
0.99414706
1.0008905
0.99976868
1.0000663
1.0109229
1.0215991
1.0222667
1.0262641
1.0356068
1.0316095
1.0155723
1.007266
1.017452
1.0344567
1.0384903
1.0292873
1.0121514
1.0012191
1.0021501
1.0131692
1.0245757
1.0310336
1.0303995
1.0272927
1.0291054
1.0334515
1.0372242
1.0404768
1.0433689
1.0005751
1.0000802
1.0001141
1.0064701
1.0106977
1.0063035
1.0000956
0.99757279
0.99560758
0.9937655
0.99235583
0.99486015
0.997725
0.99950658
1.0017512
1.0033966
1.0033373
1.0083819
1.0132707
1.0100573
1.0106401
1.0110466
1.0020528
0.99614587
1.0020123
0.99835203
0.99435845
0.99762774
0.99563679
0.99927171
1.0113208
1.0200386
1.0202047
1.0253219
1.035655
1.0318719
1.0167433
1.0093853
1.0175515
1.0321312
1.0376924
1.0334671
1.0201059
1.0043896
0.99555789
0.99916166
1.0118937
1.0256742
1.0357746
1.0401098
1.0406158
1.0391935
1.033644
1.0272836
1.0232459
1.000627
0.99946061
0.99992036
1.006881
1.0108197
1.0064578
1.0001239
0.99760194
0.99582011
0.99450905
0.99246717
0.99478846
0.99665265
0.99907148
1.0013528
1.0021576
1.0041384
1.0085474
1.0123156
1.0117556
1.0086641
1.0092465
1.0038818
0.99634827
0.9998693
0.99775203
0.99508507
0.99711761
0.99400544
0.99906023
1.0115426
1.0192299
1.0186718
1.0239559
1.0339474
1.0310658
1.0182282
1.0126361
1.0184857
1.0290527
1.0354298
1.0362655
1.0291781
1.0115962
0.9956062
0.99043661
0.99930191
1.0171173
1.0356947
1.0475384
1.0506166
1.0453537
1.0348261
1.0227243
1.0123298
1.0005961
0.99913984
0.999886
1.0071786
1.0105933
1.0063387
1.0002694
0.99771528
0.99550677
0.99481927
0.99328278
0.99519863
0.99591437
0.99779712
1.0004676
1.0001734
1.0042791
1.0083377
1.011599
1.0134984
1.00818
1.0064671
1.0043681
0.99858749
0.99875234
0.99606972
0.99560713
0.99828277
0.9943144
0.9992074
1.0115354
1.0187745
1.0185161
1.0235847
1.0326454
1.030101
1.0200105
1.0163441
1.0201647
1.0258826
1.0316601
1.0368605
1.0359703
1.0220455
1.001439
0.98866286
0.99056641
1.0074193
1.0310565
1.0507333
1.058037
1.0536581
1.0417739
1.0274126
1.0131213
1.0005162
0.99916861
1.0000469
1.0071501
1.0103247
1.0061662
1.0004329
0.99787707
0.99515258
0.99457395
0.99418056
0.99583546
0.99595039
0.99695469
0.99962815
0.99869123
1.0039051
1.0077007
1.0111522
1.0142836
1.0095664
1.0047891
1.0037694
1.0016134
0.99916235
0.99449875
0.99547061
0.99969843
0.99520335
0.9989526
1.0106199
1.0185215
1.0194772
1.0246022
1.0325674
1.0298329
1.021789
1.0199432
1.0220802
1.0229192
1.0261626
1.034569
1.0389383
1.0311359
1.0111329
0.99239067
0.98737623
0.99907491
1.0237455
1.0487487
1.0623342
1.0619473
1.0510004
1.036089
1.0206475
1.0004346
0.99953655
1.0003803
1.0070406
1.0101302
1.0060468
1.0005756
0.99805443
0.99504641
0.99404865
0.99468953
0.99629112
0.99656307
0.99716513
0.99929174
0.99827072
1.0035029
1.0070328
1.0108519
1.0137186
1.011968
1.0049319
1.0029601
1.0042763
1.0003667
0.9936399
0.99497034
1.000803
0.99593463
0.99746285
1.0082867
1.0175681
1.0208647
1.0267419
1.03365
1.0304343
1.0237499
1.0230182
1.0240949
1.020953
1.0202118
1.0289025
1.038047
1.0360861
1.0213592
1.000321
0.98928686
0.99419977
1.0153066
1.0420448
1.060653
1.0652952
1.057906
1.0447739
1.0296698
1.000385
1.0001472
1.0007309
1.0069547
1.010073
1.0060071
1.0006713
0.99815628
0.99517107
0.99344555
0.9946885
0.99627618
0.99708122
0.99813658
0.99945041
0.99875036
1.0033435
1.0068163
1.0110253
1.0121202
1.0141508
1.006369
1.0025165
1.0058119
1.0014225
0.99347406
0.99468301
1.00157
0.99623655
0.99487781
1.0043939
1.0158086
1.0219872
1.0290773
1.0353361
1.0318947
1.0259207
1.0256494
1.025657
1.0202715
1.0155689
1.021637
1.0330813
1.0362586
1.028321
1.0109131
0.99469502
0.99332477
1.0076355
1.0317412
1.0529283
1.0618699
1.0595019
1.0496249
1.0367581
1.0004019
1.000772
1.0010066
1.0069563
1.010125
1.0060563
1.0007539
0.99820433
0.99543651
0.99306483
0.99441555
0.99581331
0.99696745
0.99911843
0.99980609
0.99958631
1.003469
1.0071879
1.0116762
1.0103862
1.015526
1.0081914
1.0024234
1.0059772
1.0016073
0.99348509
0.99482139
1.0022927
0.99639523
0.99199478
0.99968497
1.0132899
1.0225676
1.0307941
1.0367378
1.0333519
1.0282438
1.0279882
1.0272317
1.0208795
1.0131667
1.0149074
1.0246445
1.0319699
1.0301209
1.0190745
1.0036151
0.99548737
1.0029156
1.0212162
1.0408031
1.0523671
1.0541812
1.0488668
1.0397499
1.000462
1.0012172
1.0012131
1.0069837
1.0102773
1.0062024
1.0008824
0.99825281
0.99577559
0.99303014
0.99413514
0.99516872
0.99625355
0.99960771
1.0000655
1.0003242
1.0035472
1.0078189
1.0127119
1.0093234
1.0159872
1.0097555
1.0026979
1.0050859
1.000767
0.99336575
0.99528172
1.0031281
0.9968774
0.98968732
0.99516016
1.0102251
1.0222986
1.0313634
1.0372375
1.0343542
1.030267
1.0297739
1.028722
1.0228293
1.0132978
1.0101038
1.0153768
1.0241298
1.0276588
1.0236908
1.0124217
1.002128
1.0014125
1.0121176
1.0274368
1.0390874
1.0438903
1.0428637
1.0382632
1.0005392
1.0014115
1.0013452
1.0070636
1.0104501
1.0064184
1.0010497
0.99832873
0.99611478
0.99332097
0.99400505
0.99464653
0.99536087
0.9994726
1.0001181
1.000782
1.0034089
1.0084305
1.0134452
1.0092122
1.0156687
1.0108099
1.0031519
1.0036649
0.99931013
0.99322348
0.99580156
1.0039594
0.99768179
0.98828951
0.991539
1.0072147
1.0214918
1.0310218
1.0366266
1.0347455
1.0316746
1.0307064
1.0300131
1.0255754
1.0159234
1.0082065
1.0078206
1.0144704
1.0223361
1.0246218
1.0194174
1.0106038
1.0050223
1.0070168
1.0159112
1.0256427
1.0318979
1.0341649
1.0338776
1.0006049
1.0013267
1.0013881
1.0071323
1.0106185
1.0066512
1.0012378
0.99844362
0.99635779
0.99381426
0.99405349
0.99438152
0.99471968
0.99890997
0.999978
1.0008946
1.0030462
1.008683
1.0137092
1.0100532
1.0148081
1.0112272
1.0038171
1.0021821
0.99778293
0.99324142
0.99609521
1.0044914
0.99848454
0.98785264
0.98925616
1.0048666
1.0210955
1.0301218
1.0350759
1.0341803
1.0324429
1.0306253
1.0306759
1.0286668
1.0202464
1.0095576
1.0033847
1.005469
1.014919
1.0231807
1.0244937
1.01968
1.0127637
1.0082682
1.0090186
1.0141597
1.0205552
1.0252732
1.0284107
1.0006514
1.0010324
1.0013017
1.0071452
1.0107328
1.0068551
1.0014422
0.99860453
0.99642081
0.99430527
0.99416951
0.99435109
0.99455692
0.99813913
0.99972141
1.0006068
1.0024862
1.0084234
1.0131934
1.0114161
1.0137215
1.011217
1.0047891
1.0012172
0.99658079
0.9934994
0.99624485
1.0046235
0.99886437
0.98796082
0.98780193
1.0034716
1.0211736
1.0296944
1.0326666
1.0330779
1.0324311
1.0299396
1.0306733
1.0313931
1.0253941
1.0137718
1.0024833
0.99894127
1.0066665
1.0194954
1.0276444
1.0284703
1.0229039
1.0149603
1.0079503
1.0062992
1.0106064
1.017007
1.0229323
1.0006553
1.0006094
1.0011282
1.0071165
1.0107885
1.0070468
1.0016491
0.9987888
0.99634257
0.99463922
0.99423049
0.99443771
0.99494272
0.99745066
0.99941641
1.0000758
1.0019457
1.0077043
1.0121252
1.0129381
1.0127169
1.011054
1.0060414
1.0009347
0.99608554
0.9943517
0.99623148
1.0043775
0.99877229
0.98824066
0.9871628
1.0028677
1.0217869
1.0298419
1.0304297
1.0318241
1.0322301
1.0289049
1.030115
1.0334429
1.0307024
1.0197669
1.0046164
0.99552494
0.99954389
1.0143598
1.0290243
1.035825
1.034113
1.0245903
1.0117627
1.0037667
1.0038733
1.0098402
1.0177051
1.0006341
1.0001504
1.0009019
1.0070716
1.0108164
1.0072156
1.0018373
0.99895605
0.99615699
0.99482413
0.99421525
0.99459661
0.99570642
0.99701632
0.99923009
0.99948058
1.0015767
1.0068428
1.0105201
1.0143162
1.0120097
1.0107207
1.0074434
1.0012868
0.99637699
0.99547873
0.99648736
1.0037056
0.99837423
0.98828947
0.98716586
1.0026063
1.0228137
1.030373
1.0290283
1.0304026
1.0319582
1.0278546
1.0287426
1.0342306
1.0352503
1.0260739
1.008842
0.9949552
0.99439389
1.0084643
1.0278672
1.0407895
1.0438998
1.0350704
1.0188995
1.0061809
1.0009979
1.0041033
1.012097
1.0006001
0.99973612
1.0006892
1.0070227
1.0108948
1.0073738
1.0020364
0.99914469
0.99600546
0.99497036
0.99423545
0.99485158
0.99668786
0.99685222
0.99924219
0.99900489
1.0014373
1.0061127
1.0090641
1.0155869
1.0117205
1.010725
1.0091553
1.0022485
0.99732005
0.99694681
0.99692412
1.0031229
0.99801628
0.98825894
0.9872661
1.0023566
1.0238511
1.0310843
1.0282589
1.0292288
1.0319376
1.0269667
1.0276838
1.0343532
1.0388183
1.0317018
1.0142771
0.99646549
0.99150344
1.0031372
1.0243914
1.043309
1.0513787
1.04423
1.0273523
1.0115294
1.0015178
1.0007441
1.0076503
1.0005957
0.99942738
1.0005404
1.0069929
1.0110305
1.0076244
1.0022879
0.99943192
0.99599829
0.99517701
0.99436544
0.99513524
0.99765494
0.99690933
0.99932656
0.9987158
1.0013885
1.0056082
1.0075494
1.0165854
1.0116563
1.0107676
1.0106002
1.0034784
0.99850725
0.99848977
0.99758881
1.0030468
0.99778181
0.98849272
0.98697457
1.0018966
1.0245329
1.0321699
1.0276747
1.0282439
1.0316001
1.0260241
1.0260152
1.0334691
1.0406085
1.0361367
1.0197246
0.99875723
0.98961769
0.99784643
1.0190854
1.0431245
1.0557128
1.0510011
1.035002
1.0171078
1.0036622
0.99927349
1.0040737
1.0007216
0.99935058
1.0005868
1.0071498
1.0113807
1.0081016
1.0027231
0.9999423
0.99625216
0.99561308
0.99464032
0.99547948
0.99849906
0.99710802
0.99961312
0.99863186
1.0013635
1.0053671
1.0067064
1.0173038
1.0121788
1.011235
1.0120232
1.0048955
0.99953056
0.99986079
0.99821436
1.0031695
0.99804744
0.98879219
0.98631451
1.0006501
1.0240432
1.0339013
1.0276439
1.0280175
1.0321317
1.0261146
1.0249139
1.0317398
1.0412743
1.0400647
1.0245578
1.0014689
0.98762298
0.99062487
1.0108817
1.0388054
1.0568663
1.0566599
1.0413913
1.0205108
1.0035054
0.99603249
0.99854556
1.0013008
0.9996702
1.0008653
1.007527
1.0119948
1.0088638
1.0035264
1.0006697
0.99681173
0.99617072
0.99518044
0.99586642
0.99910848
0.99738871
0.99979521
0.99870448
1.0012767
1.0051997
1.0056806
1.0175196
1.0124934
1.0115649
1.0130969
1.0063802
1.0006887
1.0011032
0.99867234
1.0034568
0.99877078
0.99007222
0.9860372
0.99869182
1.0207797
1.0330903
1.027338
1.0274691
1.0320312
1.0266223
1.0245299
1.0292841
1.0390212
1.0414143
1.0291496
1.0071408
0.98968714
0.98762166
1.0019869
1.0281417
1.0499633
1.0557959
1.046177
1.0264693
1.0076693
0.9964465
0.99355806
1.0010142
1.0097048
1.01716
1.0223027
1.0255039
1.0281136
1.0294627
1.0303315
1.0310441
1.0311211
1.0290514
1.0240368
1.0166954
1.0082794
1.0020871
1.0052539
1.0202346
1.0439533
1.0677343
1.0878563
1.1095936
1.1240792
1.1180502
1.0815838
1.031532
0.99803014
0.99608894
1.021358
1.0305359
1.0377749
1.0412009
1.0413889
1.0387856
1.034641
1.0303464
1.027392
1.0252669
1.0226166
1.0180325
1.0113574
1.0043321
1.0014546
1.0078442
1.0245376
1.0458663
1.0628125
1.0755281
1.0952405
1.1187379
1.1311994
1.1223639
1.0763779
1.0247944
1.0045109
1.0420514
1.0488545
1.0523207
1.0520425
1.0486886
1.0426153
1.0356583
1.0293614
1.0248752
1.0226088
1.0215699
1.0204143
1.0168551
1.0132438
1.0138813
1.0223147
1.0382809
1.0547907
1.0620938
1.0606078
1.0656563
1.0862164
1.1092509
1.1267306
1.1264363
1.094815
1.0576561
1.049069
1.0515822
1.0537304
1.0519668
1.0468933
1.0394572
1.03132
1.0244444
1.0204712
1.0202145
1.0227267
1.0273125
1.0309804
1.0337376
1.0387408
1.0467054
1.0575862
1.0673779
1.0670983
1.0556855
1.0454808
1.0517304
1.0652481
1.0951412
1.1386481
1.1718847
1.144891
1.0405309
1.0420956
1.0451597
1.043258
1.0383369
1.0311969
1.0237722
1.0182426
1.0159152
1.018171
1.0250967
1.0359921
1.0476033
1.0566594
1.0643421
1.0693716
1.0745442
1.0785031
1.0743287
1.0598263
1.0412448
1.0352085
1.0340366
1.0527842
1.1098107
1.1953194
1.2106975
1.029491
1.0326825
1.0374223
1.0359751
1.03178
1.0255776
1.0201713
1.0170499
1.0172302
1.0220334
1.0327395
1.0484531
1.0647871
1.0760928
1.0810633
1.0803209
1.0801705
1.0805733
1.0775135
1.0655213
1.0495326
1.0402879
1.0310681
1.0356516
1.0808186
1.1585182
1.2007865
1.0253994
1.0311685
1.0369689
1.036648
1.0339221
1.0294746
1.0256877
1.0241464
1.0268235
1.0349011
1.0487088
1.0668392
1.0835743
1.091045
1.0895852
1.0829126
1.0761171
1.0742763
1.0726872
1.0683233
1.0619205
1.0609005
1.0551922
1.0569454
1.0775168
1.1107209
1.1253382
1.0299744
1.0373529
1.0437465
1.0441116
1.0423787
1.0392068
1.0364693
1.0364425
1.0417793
1.0533168
1.0702364
1.0892648
1.103457
1.1060229
1.0995321
1.0867507
1.0745097
1.0686645
1.0688145
1.0706702
1.0762544
1.0859261
1.0929215
1.0989223
1.098905
1.0776677
1.0519539
1.0370807
1.0437737
1.0496546
1.0502804
1.04895
1.0462437
1.0446855
1.0471291
1.0559371
1.0707456
1.0898497
1.1083464
1.1200825
1.119523
1.1100908
1.0955942
1.0836477
1.0782521
1.0801653
1.0849835
1.093383
1.1112457
1.1297189
1.1345806
1.1234727
1.0715105
1.0243682
1.0355424
1.0409823
1.0465349
1.0478659
1.0480339
1.0475845
1.048753
1.053611
1.0641771
1.079526
1.0981214
1.1154657
1.1261802
1.1246763
1.1167272
1.1065995
1.0996659
1.1004183
1.1083461
1.1156267
1.1226176
1.1398495
1.1574998
1.1548127
1.1284264
1.0780993
1.0467097
1.0255528
1.0311545
1.0379317
1.0415329
1.0444458
1.0461074
1.0477887
1.0514442
1.0599299
1.0716939
1.0868463
1.1025045
1.114425
1.1173688
1.1152093
1.1117914
1.1120215
1.1213448
1.1373245
1.1512895
1.1604665
1.1720264
1.1765906
1.1548872
1.1195389
1.0884434
1.1028766
1.0227965
1.0290823
1.0379868
1.0438401
1.0474795
1.047704
1.0459457
1.0448094
1.0475269
1.0542085
1.0650931
1.078192
1.0914285
1.0997812
1.1040776
1.1074245
1.1139494
1.1291122
1.1501669
1.1688735
1.1836985
1.1956912
1.1930327
1.1553111
1.1120983
1.1067037
1.1665751
1.0363094
1.0462019
1.0578493
1.0639688
1.0654014
1.0614528
1.0535837
1.0461639
1.0424998
1.0434075
1.0494137
1.0598838
1.0723084
1.0829956
1.0893557
1.0947197
1.1032509
1.117588
1.1371962
1.1589121
1.1795082
1.1961933
1.1983618
1.1638061
1.1235888
1.1338579
1.2095295
1.0697184
1.0823342
1.0941074
1.0977942
1.0950339
1.0858345
1.0733764
1.0619166
1.0539651
1.0515166
1.0547668
1.062926
1.0731831
1.0806724
1.0835146
1.0839033
1.0852869
1.0920949
1.1064042
1.1262043
1.1489339
1.1721119
1.1869752
1.1753491
1.1538412
1.1743222
1.2256257
1.1112563
1.1256975
1.1358113
1.1359157
1.1292621
1.1172801
1.1028808
1.0900345
1.0816985
1.0806804
1.0871094
1.0974428
1.105398
1.1054644
1.0983346
1.0872613
1.0784333
1.0751771
1.0799068
1.0922882
1.1095767
1.1333127
1.1585652
1.1765281
1.1901784
1.2189456
1.2298017
1.1385
1.1517133
1.1598509
1.1597073
1.1526247
1.1413302
1.1283831
1.1193447
1.1172742
1.1249462
1.1418529
1.1609731
1.1693455
1.1618048
1.1418505
1.1166215
1.0950544
1.0828736
1.0788568
1.0789519
1.0840103
1.0992246
1.1264269
1.1674482
1.2141935
1.2537762
1.2366473
1.1423682
1.1531489
1.1614384
1.1619943
1.1571047
1.148985
1.1402576
1.136689
1.1422159
1.1598979
1.190307
1.2240667
1.2433244
1.2385337
1.213014
1.1774276
1.1460274
1.1242614
1.1078045
1.0933866
1.0815437
1.0817919
1.1082554
1.1582185
1.2211199
1.2623399
1.235766
1.1294372
1.1418086
1.1521668
1.1556133
1.1534762
1.1471976
1.1397574
1.1376388
1.1468279
1.1702961
1.2091577
1.2551516
1.2912149
1.3029011
1.290179
1.2600869
1.2278339
1.1979987
1.1673044
1.1344807
1.1048204
1.0921928
1.1110681
1.1595799
1.2140994
1.2449
1.2180476
1.1146948
1.1274467
1.1393441
1.1449955
1.1454457
1.1420316
1.137116
1.1362504
1.1450942
1.1679248
1.2078113
1.2577371
1.3026194
1.3274054
1.3330593
1.3235658
1.3062425
1.2828843
1.2472274
1.2009527
1.1558442
1.1328594
1.1421888
1.175603
1.2050463
1.2098921
1.1840639
1.1087112
1.1208332
1.1352275
1.1451087
1.148901
1.1495067
1.1471748
1.1472809
1.155482
1.1759918
1.2113223
1.2546158
1.2931147
1.318168
1.3317036
1.3355977
1.3375103
1.3341281
1.3147278
1.2767953
1.2315781
1.2016851
1.1951246
1.2015765
1.1963539
1.1722885
1.145319
1.1178499
1.1344371
1.1577017
1.1771128
1.1876906
1.1899331
1.1875031
1.1840986
1.185702
1.1978305
1.2219323
1.2516596
1.2763044
1.2908764
1.3003936
1.3087314
1.3196962
1.330698
1.3354919
1.3262793
1.305529
1.282578
1.260372
1.2324409
1.1911573
1.1436791
1.1168607
1.1534254
1.1803885
1.2179457
1.2444502
1.254374
1.2508507
1.2385131
1.2231457
1.2128026
1.2143632
1.2279115
1.2483105
1.2636808
1.2686077
1.2679892
1.2693694
1.281396
1.2977962
1.3161865
1.3320483
1.3410224
1.3389301
1.3163584
1.2656871
1.1971635
1.1344454
1.112319
1.2188881
1.2645063
1.314946
1.3371479
1.3360104
1.3178638
1.2892525
1.2620167
1.2447494
1.2420615
1.2531291
1.2709331
1.2817915
1.2790843
1.2682535
1.2586238
1.260836
1.2739797
1.2945648
1.319051
1.3418385
1.3529241
1.3383003
1.2874089
1.211879
1.1473155
1.1349062
1.3006058
1.3667131
1.4260675
1.441309
1.4283061
1.3950531
1.3505405
1.3119356
1.2896071
1.287986
1.3045419
1.3289781
1.3440774
1.3403708
1.3223184
1.3002005
1.2865941
1.2880492
1.3014468
1.3212533
1.3391432
1.345032
1.330369
1.2882526
1.2248566
1.1754955
1.1762428
1.3652504
1.4343
1.4859685
1.4932007
1.4740461
1.4383225
1.3937342
1.3555192
1.3338927
1.3328441
1.3497832
1.3756383
1.394648
1.3962073
1.3827976
1.3616511
1.3421569
1.3334712
1.3372574
1.3470953
1.3518519
1.3432101
1.3190318
1.2798018
1.2339368
1.2048263
1.2200909
1.3793785
1.4238885
1.4558455
1.4563604
1.4394104
1.4124514
1.3838772
1.3639849
1.356243
1.3624786
1.3808123
1.403763
1.4215838
1.4264829
1.4196243
1.4063984
1.3940876
1.388748
1.3900047
1.3908209
1.3812205
1.3566169
1.3196129
1.2789843
1.2433797
1.2286743
1.2520999
1.3427929
1.3724635
1.3993968
1.4074852
1.4014287
1.3899537
1.3790747
1.3744741
1.3782396
1.3909781
1.4100167
1.4295612
1.443249
1.4469666
1.4445073
1.4389661
1.4355811
1.4369712
1.4402962
1.4371618
1.4188117
1.3833886
1.3364206
1.2907693
1.2568519
1.2463445
1.2706065
1.3124612
1.3418169
1.3806822
1.4031765
1.4068374
1.4050398
1.4035612
1.4059573
1.4129998
1.4240406
1.4371522
1.4489201
1.4558344
1.4581584
1.4567183
1.4553447
1.4577791
1.4642428
1.470251
1.4669359
1.4469897
1.4095455
1.3608412
1.3122949
1.2755332
1.2618403
1.2795237
1.3091731
1.3547794
1.4119431
1.440634
1.4472488
1.4478774
1.4472272
1.4477766
1.4502857
1.4541558
1.4579545
1.4600094
1.4592593
1.4559686
1.4519517
1.4501953
1.452991
1.459917
1.4667282
1.4660235
1.4513435
1.420891
1.3788436
1.3339863
1.2978136
1.2813819
1.2903867
1.3463982
1.4145772
1.4780351
1.5023079
1.5066011
1.5057723
1.5031351
1.4998157
1.4954871
1.4894434
1.48124
1.4709466
1.4592795
1.4475559
1.4375751
1.4310449
1.4291068
1.4314887
1.4355755
1.4369688
1.4310942
1.4126045
1.385106
1.3531024
1.3240718
1.3075274
1.3092694
1.4175698
1.5056777
1.5669795
1.5836878
1.583406
1.5774132
1.5686274
1.5578114
1.5448696
1.5293459
1.5109246
1.4899814
1.4678841
1.4464213
1.4273082
1.4120328
1.4018234
1.3969922
1.3958751
1.3969471
1.3974269
1.3926063
1.3835355
1.3708575
1.3558966
1.3434265
1.3391071
1.5058933
1.6092059
1.6636935
1.6717862
1.6656035
1.6534193
1.6374619
1.6188698
1.5975723
1.57381
1.5474074
1.5185262
1.4879941
1.4573061
1.4283982
1.4031705
1.3831725
1.3695667
1.3627748
1.3623617
1.367455
1.3754904
1.3829984
1.3905038
1.3938139
1.3899323
1.380785
1.608508
1.7187231
1.7582843
1.7559021
1.7420334
1.7238442
1.7027558
1.6790142
1.652513
1.6232075
1.590707
1.5554996
1.5180209
1.4796426
1.4421798
1.407847
1.378931
1.3574491
1.3449966
1.3427879
1.3508732
1.3681722
1.390313
1.4152963
1.4366763
1.4449481
1.4332233
1.7430464
1.8289199
1.8439174
1.8315811
1.8117329
1.7893327
1.7651144
1.7388906
1.709817
1.6773452
1.6411821
1.6013035
1.5580344
1.5125606
1.4670793
1.4245864
1.3880004
1.3598551
1.3427086
1.3385448
1.3490081
1.3740862
1.4084979
1.4476295
1.4826432
1.4998855
1.483246
1.8916047
1.9330568
1.9261028
1.9049583
1.8803685
1.8557081
1.8308453
1.8041666
1.7740413
1.7397003
1.7004042
1.6558639
1.6063778
1.5535659
1.5005047
1.451201
1.4092193
1.3771797
1.3575058
1.3525508
1.3645236
1.3930633
1.4332514
1.479691
1.5231262
1.5441562
1.5295547
2.0284238
2.0432555
2.0258218
1.9987438
1.9711435
1.9437922
1.9158621
1.8863651
1.8538551
1.8165141
1.7730835
1.7230429
1.6670928
1.6076856
1.5481738
1.4929259
1.4461333
1.4108823
1.3890761
1.3823081
1.3921597
1.4199817
1.4618341
1.5102309
1.5569521
1.5872567
1.5872639
2.2028468
2.1955644
2.1634823
2.1280867
2.0942119
2.0611653
2.0278113
1.9925839
1.9544582
1.9117512
1.8624321
1.8058768
1.7436153
1.6785725
1.6146617
1.5560564
1.5062453
1.4678296
1.4424749
1.4318755
1.4372031
1.4584781
1.493639
1.5381523
1.5882705
1.6411764
1.6891395
2.454594
2.399144
2.3350845
2.2812684
2.2343974
2.1915337
2.1505744
2.1093249
2.0656243
2.0184573
1.9662972
1.907729
1.8433201
1.7757999
1.7080985
1.6446306
1.5896526
1.5461018
1.5157124
1.4998219
1.499013
1.5116477
1.5364858
1.5707009
1.6212052
1.6972978
1.8124884
2.6434915
2.5479621
2.4676217
2.4050497
2.3515643
2.3035609
2.2585938
2.2152648
2.1712799
2.1247988
2.0739157
2.0173931
1.9547527
1.8866599
1.8163076
1.7484604
1.6886852
1.6408409
1.6063793
1.5848092
1.5756431
1.5773588
1.5882605
1.6054627
1.6456418
1.7130118
1.8330175
2.6989703
2.6030959
2.5347148
2.4819641
2.4354504
2.3920389
2.3496857
2.3070721
2.2627422
2.2144509
2.1599247
2.0977653
2.0281636
1.952873
1.877337
1.8084216
1.7516804
1.7105269
1.6853362
1.6735472
1.6711945
1.6734038
1.6768966
1.6802519
1.7039794
1.7439027
1.8265284
2.7896216
2.6912144
2.6280315
2.5781159
2.5323546
2.4876468
2.4424467
2.3952254
2.3440803
2.2865314
2.2202269
2.1442031
2.0604021
1.9735999
1.8920243
1.8241428
1.7752933
1.7483349
1.7421694
1.7518997
1.7718179
1.7950089
1.8173021
1.8336669
1.8578493
1.8891268
1.9259325
3.0235682
2.8899547
2.8096516
2.7487755
2.6948951
2.6440874
2.5935952
2.5408398
2.4826015
2.4149544
2.3354572
2.2443679
2.1455259
2.0461718
1.9561272
1.8842011
1.8354925
1.8112033
1.8110811
1.8343447
1.8800684
1.9439769
2.0193191
2.0951178
2.1599828
2.2001362
2.2106364
3.3042899
3.1445258
3.0472817
2.9824609
2.934511
2.8934526
2.8551319
2.8159623
2.7703093
2.7064269
2.6121817
2.491803
2.3631999
2.245542
2.1487957
2.0743866
2.0211736
1.987127
1.972037
1.9808413
2.021284
2.1017873
2.2332107
2.3959333
2.5690049
2.6678651
2.6683965
4.054432
4.0443447
3.9964881
3.9129827
3.8446451
3.8131272
3.8231758
3.8866367
3.9730649
4.0071812
3.9826072
3.8599229
3.6241186
3.3238791
3.0315225
2.7717053
2.55764
2.3922539
2.2737046
2.1995924
2.1759063
2.2175656
2.3268586
2.5111316
2.7553796
2.9797858
3.0351993
5.0840993
4.9375596
4.6393992
4.3173389
4.0783961
4.0471503
4.1543898
4.4965344
5.2203616
6.1862001
7.0098668
7.0729409
6.2437946
5.1409181
4.1777197
3.5079318
3.0566579
2.7380771
2.5126853
2.3656175
2.2895427
2.27751
2.3465302
2.5164474
2.7956177
3.1330548
3.2768348
5.2390485
4.8625369
4.3944599
4.0617551
3.8783379
3.8411708
3.9260505
4.2461219
4.791212
5.5510645
6.1695988
6.1868831
5.4899385
4.5410356
3.7910909
3.2992058
2.976944
2.7482339
2.575386
2.4602254
2.3968567
2.3917287
2.4835436
2.6869874
3.0421833
3.4745181
3.5497791
5.431522
4.8558707
4.2540066
3.8679094
3.6743358
3.6203348
3.665319
3.7928051
3.9819871
4.1937496
4.3509565
4.3517539
4.1342113
3.7698924
3.3947213
3.0960718
2.8866307
2.7410208
2.6428787
2.5858474
2.589615
2.6147443
2.7822948
3.0965623
3.6145964
4.050636
3.7263616
5.5760877
5.0131703
4.3864241
3.921473
3.6247188
3.4668851
3.4060147
3.4076329
3.4394936
3.4752938
3.4995303
3.4978125
3.4642632
3.3901858
3.2681526
3.1072197
2.9365784
2.7952227
2.6999935
2.6599649
2.6944275
2.7613086
3.0457873
3.5506469
4.2697266
4.4182672
3.5402151
5.0008681
4.6667155
4.1935856
3.7743807
3.4656064
3.2644626
3.1512294
3.1047758
3.1042165
3.1359443
3.1653997
3.1870448
3.2002649
3.2035336
3.1798852
3.1139732
2.9947129
2.8437898
2.7101806
2.6311977
2.622094
2.6852134
2.9526729
3.4677775
4.1654301
4.0849373
3.1203612
3.8270713
3.6764978
3.4415581
3.2240157
3.0522206
2.9277096
2.8498726
2.8180462
2.8294196
2.8854499
2.9496787
3.0259949
3.0764397
3.1064172
3.1081552
3.058996
2.9534275
2.7956483
2.6228645
2.4819267
2.3954262
2.393412
2.5448138
2.8786765
3.373981
3.4637058
2.8057417
2.9458932
2.8469777
2.7300924
2.6371515
2.5698365
2.5263948
2.5076351
2.515454
2.5514922
2.6190954
2.7254355
2.834679
2.93132
2.9925217
3.0025205
2.9566266
2.842443
2.6806287
2.4935636
2.3170147
2.1834455
2.1217638
2.1648712
2.347611
2.6858388
2.9499088
2.6934592
2.5701417
2.4790087
2.3903048
2.3261083
2.2835854
2.2593643
2.2531506
2.2706855
2.3164878
2.3939049
2.4991553
2.6203099
2.7357933
2.816154
2.8339629
2.7814344
2.6684433
2.516116
2.3454313
2.1812198
2.0469543
1.9579969
1.9424152
2.0441692
2.2855944
2.6251814
2.6763384
2.4659361
2.3647619
2.2731042
2.207872
2.1631397
2.1348931
2.1255159