/*--------------------------------*- C++ -*----------------------------------*\
| =========                 |                                                 |
| \\      /  F ield         | OpenFOAM: The Open Source CFD Toolbox           |
|  \\    /   O peration     | Version:  2406                                  |
|   \\  /    A nd           | Website:  www.openfoam.com                      |
|    \\/     M anipulation  |                                                 |
\*---------------------------------------------------------------------------*/
FoamFile
{
    version     2.0;
    format      ascii;
    arch        "LSB;label=32;scalar=64";
    class       volScalarField;
    location    "13";
    object      rho_0;
}
// * * * * * * * * * * * * * * * * * * * * * * * * * * * * * * * * * * * * * //

dimensions      [1 -3 0 0 0 0 0];

internalField   nonuniform List<scalar> 
96472
(
1.0024578
1.0041248
1.0037179
1.0037084
1.0032365
1.0022543
1.0011137
0.99990536
0.9987138
0.99766214
0.99674482
0.99602872
0.99573481
0.99589601
0.99653808
0.99726918
0.99799661
0.99872102
0.99933164
0.99942288
0.99945116
0.99950011
0.99940337
0.99955128
0.99963292
0.99935102
0.99929312
0.99929948
0.99923951
0.99965092
1.0002979
1.0008743
1.001442
1.0020573
1.0027423
1.0034034
1.0039492
1.0044593
1.0048776
1.0052388
1.0055922
1.0059477
1.0061959
1.0064973
1.0069485
1.007019
1.0072262
1.0074204
1.007669
1.0076133
1.0077932
1.0077918
1.0078632
1.0078122
1.0076405
1.0024645
1.0041803
1.0037494
1.003765
1.0032823
1.0022904
1.001163
0.99995345
0.99874217
0.99767979
0.99677339
0.99604798
0.99571534
0.99589588
0.99650066
0.9972947
0.99815894
0.99885403
0.99942403
0.99963521
0.99954901
0.9997053
0.9997632
0.99971402
0.99979626
0.99974739
0.9994548
0.99942675
0.99950402
0.99958998
0.99999785
1.0006457
1.0013481
1.0019935
1.0025813
1.0031296
1.0036622
1.0041292
1.0045511
1.0049282
1.0053277
1.0056076
1.0060385
1.0063134
1.0065082
1.006874
1.0070648
1.0072446
1.0073848
1.0074733
1.0075979
1.0077659
1.0076926
1.0077421
1.0077725
1.002482
1.0042265
1.003802
1.0038224
1.0033246
1.0023324
1.0012285
1.0000241
0.99879521
0.99773753
0.99684519
0.99608932
0.99572366
0.99591704
0.9964972
0.99732408
0.99815131
0.9990484
0.9995347
0.99977553
0.99979961
0.99972287
0.9998975
0.99996113
0.99982141
0.99980193
0.99967935
0.99945479
0.99958951
0.99981901
1.0000443
1.0004291
1.0010055
1.0016791
1.0023322
1.002906
1.0033958
1.0038347
1.0042611
1.0046304
1.0049819
1.0053929
1.0056564
1.0060229
1.0063483
1.0065314
1.0067496
1.0070252
1.0070955
1.0074477
1.0074829
1.0074275
1.0075794
1.0076875
1.0076279
1.0025099
1.0042784
1.0038593
1.0039043
1.0034049
1.0024009
1.0013084
1.0001031
0.998861
0.99781403
0.99694025
0.99615586
0.99577688
0.99591058
0.99656348
0.99740751
0.99819859
0.99906844
0.99967778
0.99981848
0.9999818
0.99995432
0.99992824
1.0000993
1.0001183
0.99989306
0.99983333
0.99968914
0.9995138
0.99972569
1.0001079
1.0004921
1.0008991
1.0013818
1.0019488
1.0025129
1.0030564
1.003555
1.0039605
1.0043299
1.0046841
1.0049954
1.0054473
1.0056847
1.0060453
1.0062826
1.0065884
1.0066884
1.0070646
1.0070518
1.0070817
1.0075104
1.00753
1.0074567
1.0076343
1.00254
1.0043205
1.0039161
1.0039747
1.0034535
1.0024768
1.001412
1.0002141
0.99895564
0.99792708
0.99705006
0.9962834
0.99586083
0.99595693
0.99659627
0.99746566
0.99840142
0.99910705
0.99975586
0.99996836
0.99998132
1.0001913
1.00021
1.0001623
1.0003097
1.0002181
0.99990268
0.99983078
0.99974968
0.99968327
0.99989228
1.0003048
1.0008054
1.0012903
1.0017852
1.0022484
1.0027371
1.0031755
1.0036038
1.0039723
1.0043559
1.0047553
1.0050312
1.0054624
1.005695
1.0060491
1.0062204
1.0065738
1.0065901
1.0068423
1.007244
1.0071022
1.0072644
1.0072103
1.0074967
1.0025709
1.00438
1.0039982
1.0040717
1.0035544
1.0025594
1.0015351
1.0003359
0.9990661
0.99803098
0.99717644
0.99639887
0.995944
0.99605718
0.99664417
0.99752115
0.99847024
0.99931694
0.99982164
1.0001651
1.0001473
1.0002046
1.000389
1.0003921
1.0002862
1.0003154
1.0001138
0.99983012
0.99986267
0.99990791
0.99995101
1.0001384
1.0005141
1.0010182
1.0015264
1.002018
1.0024527
1.0028886
1.0032622
1.0036851
1.0040255
1.0043884
1.0047365
1.005099
1.0054382
1.0057205
1.0059914
1.0061384
1.0065192
1.0067372
1.006638
1.0069945
1.0068894
1.0076465
1.0070733
1.0026044
1.0044253
1.004058
1.0041619
1.0036343
1.0026608
1.0016414
1.0004754
0.99919857
0.9981913
0.99735441
0.99654697
0.99606641
0.99615471
0.99674838
0.99766373
0.99849671
0.99942442
0.99998469
1.0001808
1.0004016
1.0003316
1.0003387
1.0005418
1.0004893
1.0003076
1.000292
1.0000619
0.9998055
0.99986537
1.0000383
1.0002323
1.0004553
1.0007544
1.0011515
1.0016061
1.0020849
1.0025481
1.0029783
1.0033187
1.0036937
1.0040304
1.0044327
1.0047522
1.0050857
1.0053833
1.0056711
1.0060213
1.0060871
1.0062586
1.0065445
1.0068383
1.0069958
1.0067076
1.0072449
1.0026359
1.0044835
1.0041347
1.00427
1.0037371
1.0027767
1.001801
1.0006238
0.99934851
0.99835312
0.99752615
0.99673925
0.99622277
0.99625539
0.99687197
0.99778844
0.99871369
0.99944612
1.000103
1.0002605
1.0003981
1.0005579
1.0005358
1.0005155
1.0006844
1.0005746
1.0003016
1.0002271
1.0000451
0.99985695
0.99989789
1.0001044
1.0003724
1.0006795
1.0010024
1.0013711
1.0017527
1.0021877
1.002559
1.0029629
1.0033106
1.0037115
1.0040286
1.0044388
1.0047404
1.0051112
1.0053554
1.0055608
1.0058457
1.0061316
1.0065235
1.0060402
1.0068635
1.0066128
1.0069069
1.0026617
1.0045334
1.0042064
1.0043678
1.0038401
1.0028946
1.0019367
1.000791
0.99951203
0.998544
0.99773506
0.99695332
0.99641098
0.9964141
0.99699151
0.99787619
0.99889893
0.99964617
1.0001443
1.0004913
1.0004427
1.0005929
1.0007589
1.000677
1.0006185
1.000696
1.0004745
1.0001995
1.0001492
1.0000703
0.99996307
0.9999702
1.0001327
1.0004246
1.0007856
1.0011199
1.0015046
1.0018557
1.0022513
1.0026195
1.002978
1.0033428
1.0036982
1.0040521
1.0044301
1.0046802
1.0050464
1.0053187
1.0055998
1.0058637
1.0055527
1.0066522
1.0059613
1.006824
1.0067478
1.0026865
1.0045967
1.0042917
1.0044758
1.0039667
1.003036
1.0021078
1.000963
0.99969785
0.99873281
0.99794364
0.99716562
0.99659134
0.99661556
0.99713187
0.99805242
0.99894664
0.99984599
1.0003015
1.0005606
1.0007187
1.0006522
1.0006804
1.0008599
1.0007444
1.0006142
1.0006381
1.0003814
1.0001083
1.00006
1.0000735
1.0000854
1.0001169
1.0002429
1.0004569
1.000775
1.0011286
1.0015411
1.0019194
1.0022684
1.0026287
1.0029677
1.0033459
1.0037175
1.0040064
1.0044326
1.0046895
1.0049823
1.0052037
1.005289
1.0059582
1.0058382
1.0061327
1.0061979
1.0061709
1.002711
1.0046499
1.004345
1.0045844
1.0040674
1.0031758
1.0022834
1.0011676
0.99990015
0.99896088
0.9981974
0.99742795
0.99681913
0.99677319
0.99731379
0.99826182
0.9991363
0.99989548
1.0004882
1.0005811
1.0008
1.0008596
1.0007653
1.0007909
1.0009271
1.0008014
1.0006223
1.000572
1.0003522
1.000097
0.99999172
1.000008
1.0000949
1.0002054
1.0003533
1.0005514
1.0008308
1.0011745
1.0015075
1.0019185
1.0022527
1.002618
1.0029704
1.0033039
1.0037128
1.0040295
1.0043052
1.0046028
1.004896
1.0052475
1.0055379
1.0050979
1.0060244
1.0060496
1.0061016
1.0027301
1.0046998
1.0044036
1.0046792
1.0041933
1.0033131
1.0024605
1.0013542
1.0001012
0.99917919
0.9984511
0.99767722
0.99707398
0.99697534
0.99750122
0.99838271
0.9994038
1.0000525
1.000547
1.0007953
1.0007687
1.0009171
1.0010288
1.0008725
1.0008485
1.0009416
1.0007357
1.0005289
1.0004437
1.0002985
1.0000914
0.99994804
0.99990923
0.99999646
1.0001661
1.0003674
1.0006032
1.0008876
1.0012481
1.0015455
1.00191
1.0022781
1.0025829
1.0029762
1.0033228
1.0036343
1.0039673
1.0043493
1.0045457
1.0048721
1.0045645
1.005854
1.0054242
1.0052823
1.0061439
1.0027489
1.0047481
1.00446
1.0047885
1.0043045
1.0034598
1.0026362
1.0015697
1.000326
0.99942505
0.99870943
0.99795978
0.99732097
0.99722009
0.99768508
0.99854324
0.99950669
1.0003052
1.0006501
1.0009556
1.0009928
1.0009409
1.0009876
1.0010756
1.0009202
1.0008292
1.0008763
1.0006466
1.0004084
1.0002957
1.0002054
1.000075
0.99993972
0.99988787
0.99991891
1.0000773
1.000307
1.0006018
1.0008721
1.0012255
1.0015621
1.0018844
1.0022533
1.0026322
1.0029368
1.003284
1.0036816
1.0038686
1.0041644
1.0044085
1.0049594
1.0049485
1.0047658
1.0057153
1.0053685
1.0027656
1.0047985
1.0045256
1.0048882
1.0044299
1.0036168
1.0028415
1.0017941
1.0005544
0.9996635
0.99899055
0.99823918
0.99757839
0.99744274
0.99788055
0.99879611
0.99963453
1.0004114
1.0008702
1.0009562
1.0011687
1.001148
1.0009775
1.0010191
1.0010876
1.0009248
1.0008466
1.0008325
1.0006425
1.0003686
1.0001697
1.0000467
0.99995778
0.99989893
0.99988045
0.99992487
1.0000503
1.0002665
1.0005535
1.0009014
1.0011966
1.0015605
1.0019163
1.0022228
1.0025832
1.0030101
1.0031518
1.0035889
1.0038887
1.0040682
1.0045914
1.0042596
1.0048594
1.0054245
1.0049541
1.0027807
1.0048397
1.0045753
1.0049655
1.0045367
1.0037485
1.0030155
1.001993
1.0007849
0.99992219
0.99927598
0.9985327
0.99785862
0.99766032
0.99809205
0.99895779
0.99990843
1.0005122
1.000996
1.0010946
1.0011388
1.0012302
1.0012331
1.0010394
1.0010159
1.0010854
1.0009134
1.0008014
1.0007314
1.0005758
1.0003062
1.0000507
0.99986304
0.9997782
0.99975246
0.99978947
0.99989167
1.0000669
1.0003241
1.0005555
1.0009187
1.0012307
1.0015339
1.0018893
1.0022863
1.0024994
1.0029611
1.0031582
1.0035368
1.0038907
1.0038499
1.0041407
1.0052009
1.0040307
1.0050539
1.002794
1.004876
1.0046048
1.0050573
1.0046362
1.003885
1.003201
1.0022296
1.0010302
1.0001742
0.9995434
0.99881879
0.99814397
0.9978959
0.99829757
0.99907641
1.0000715
1.000753
1.0010383
1.001318
1.0012766
1.001223
1.0012712
1.001241
1.0010517
1.0009941
1.0010347
1.0008734
1.0006906
1.0005643
1.0004198
1.0002002
0.99994396
0.99971647
0.99961786
0.99959853
0.99965316
0.99982061
0.99999545
1.0002951
1.0005702
1.0008898
1.0012278
1.0016037
1.0018756
1.0022502
1.00252
1.0029456
1.0031108
1.0034031
1.0037167
1.0041786
1.004035
1.0041298
1.0049081
1.0028074
1.0049066
1.0046283
1.0051273
1.0047314
1.0040303
1.0033841
1.0024306
1.0012522
1.0004297
0.99982625
0.99912081
0.99840234
0.99814594
0.99848609
0.99929628
1.0001461
1.0009111
1.0012132
1.0013563
1.001486
1.0014207
1.0012263
1.0012304
1.0012206
1.001008
1.0009888
1.0010156
1.000888
1.0006586
1.0004111
1.0002218
0.99999609
0.9998048
0.99962856
0.99951349
0.99951569
0.99958029
0.99976225
0.99999907
1.0002631
1.0006068
1.0009341
1.0012538
1.0015502
1.0019386
1.0022167
1.0025157
1.002849
1.0031846
1.0032729
1.0039578
1.0031813
1.0046898
1.0040942
1.0028197
1.004931
1.0046566
1.0051953
1.0048074
1.0041386
1.003543
1.0026344
1.0014944
1.0006897
1.0001021
0.99939881
0.99867038
0.9983572
0.99866602
0.99948171
1.0003455
1.0009629
1.001401
1.0014013
1.0015
1.0015435
1.0014309
1.0012202
1.0011727
1.0011734
1.0010345
1.000998
1.0009894
1.0008577
1.0006017
1.0002592
0.99999639
0.99975219
0.99959122
0.99945743
0.99940079
0.99944295
0.99957643
0.99975492
1.0000234
1.000304
1.0006248
1.0009153
1.0013149
1.0015248
1.001965
1.0021721
1.0025168
1.0028167
1.0031707
1.0030529
1.0037795
1.0038356
1.0037287
1.002836
1.0049528
1.0046755
1.0052657
1.0048927
1.0042527
1.0036982
1.0028362
1.0017197
1.0009215
1.0003626
0.9996678
0.99893341
0.99856269
0.99886084
0.99955229
1.0005269
1.0011299
1.0014258
1.0016035
1.0015633
1.0015098
1.0015323
1.0014065
1.0011757
1.0011433
1.0011482
1.0010566
1.0009543
1.0008561
1.0006879
1.0004507
1.0000955
0.99978988
0.99952349
0.99936842
0.99929214
0.99929821
0.9993661
0.99953752
0.99975044
1.0000027
1.0003298
1.0006734
1.0009313
1.0013393
1.0015344
1.0019474
1.0023017
1.0023447
1.0029348
1.0027167
1.0037634
1.003004
1.0037543
1.0028506
1.0049714
1.0046828
1.0053169
1.004974
1.0043662
1.0038553
1.0030241
1.0019235
1.0011416
1.0006067
0.99992463
0.99917631
0.99876932
0.99902636
0.99968315
1.0005672
1.0013017
1.0015006
1.0016905
1.001745
1.0016531
1.0014935
1.0014421
1.00135
1.0011157
1.0010925
1.0011488
1.0010911
1.000933
1.0007192
1.0004699
1.0002061
0.9998861
0.99960424
0.99936799
0.9992213
0.99915441
0.99920173
0.99931644
0.99950539
0.99976069
1.0000758
1.0003816
1.0006833
1.0009987
1.0013521
1.0015936
1.0018984
1.002269
1.0023111
1.003034
1.0026949
1.0032204
1.0035026
1.0028711
1.0049834
1.0046777
1.0053592
1.0050304
1.0044531
1.0039762
1.0031823
1.002113
1.0013396
1.0008262
1.0001629
0.99938631
0.99895429
0.99914352
0.99984495
1.0006551
1.0013234
1.0016768
1.0016846
1.0017967
1.0018178
1.0016391
1.0014218
1.0013522
1.0012542
1.0011291
1.0011234
1.0011797
1.001117
1.0008975
1.0005808
1.0002316
0.9999231
0.9996329
0.99937088
0.9991793
0.99909758
0.9990868
0.99916663
0.99932462
0.99959523
0.99982101
1.0001046
1.0004477
1.0007337
1.0010128
1.00141
1.0015531
1.0019897
1.0021534
1.0026007
1.0023539
1.0032891
1.0028707
1.0028785
1.0050109
1.0046873
1.0054044
1.0050893
1.0045264
1.0040895
1.0033315
1.0022914
1.0015193
1.0010233
1.0003853
0.99958893
0.99911693
0.99927776
0.99988778
1.0007933
1.001383
1.0017189
1.0018079
1.0018117
1.0017876
1.0017622
1.001581
1.0013268
1.0012756
1.0012443
1.0011879
1.0011621
1.0011218
1.0009924
1.0007254
1.0003829
1.0000113
0.9996653
0.99938226
0.99917851
0.99903344
0.99900752
0.9990479
0.99918128
0.99933209
0.99960112
0.99986988
1.0001737
1.0005033
1.0007728
1.0010759
1.0014154
1.0016239
1.0020813
1.0019074
1.0026935
1.0026261
1.0026851
1.0029033
1.0050236
1.0046737
1.0054378
1.0051324
1.0045972
1.0041891
1.003459
1.0024388
1.0016762
1.0011972
1.0005789
0.99977588
0.99924585
0.99940145
0.99992485
1.0008211
1.0015129
1.0017124
1.0019045
1.0019327
1.0018465
1.0017427
1.0016546
1.0014795
1.0012627
1.0012053
1.0012482
1.0012522
1.0011798
1.0010239
1.0007906
1.0004847
1.0001118
0.99976429
0.99943357
0.99917627
0.99901094
0.99893346
0.99892505
0.99898719
0.99917422
0.99941785
0.99970797
1.000006
1.00025
1.000612
1.0008274
1.0011511
1.0014699
1.0016278
1.001907
1.0025067
1.001979
1.0029363
1.0029054
1.0050432
1.0046651
1.0054657
1.0051673
1.0046559
1.0042908
1.0035773
1.0025657
1.0018073
1.0013339
1.0007388
0.99992466
0.999371
0.9994544
1.0000167
1.0008158
1.0015336
1.0018178
1.0018881
1.0019891
1.0019968
1.0018312
1.0016339
1.0015384
1.0013722
1.0012383
1.0012226
1.0013054
1.0013295
1.0011714
1.0009243
1.0005608
1.0002091
0.99984668
0.99951166
0.99922195
0.99901669
0.99888965
0.99883586
0.99893279
0.99909037
0.99925066
0.99949369
0.99978383
1.0000848
1.0003624
1.0006656
1.0009178
1.001294
1.0013406
1.0020117
1.0017926
1.0021937
1.0025748
1.002965
1.0050181
1.0046629
1.0055094
1.0052147
1.0047301
1.0043884
1.0037118
1.0027218
1.0019398
1.001477
1.0008795
1.0000573
0.99948837
0.99952839
1.0000665
1.000919
1.0015753
1.0019192
1.0019861
1.0020273
1.0020336
1.0019703
1.0017761
1.0015551
1.0014397
1.0013658
1.0013247
1.0013478
1.0013889
1.0013199
1.0010841
1.0007552
1.0003803
1.0000209
0.99965515
0.9993364
0.9991163
0.99894296
0.99889449
0.99894347
0.99898723
0.99916976
0.99943396
0.99968865
0.99997158
1.0002148
1.0005084
1.0008499
1.0010404
1.001378
1.0017414
1.0014922
1.0025274
1.0020112
1.0030627
1.0051531
1.0046412
1.0055575
1.0053006
1.0048654
1.004629
1.0040302
1.0030155
1.0021539
1.0016328
1.0010229
1.0001979
0.99961144
0.99968914
1.0001831
1.0010964
1.0017894
1.0020389
1.0021909
1.002227
1.0021713
1.0020916
1.0019581
1.0017236
1.0015116
1.0014133
1.0014324
1.0014793
1.0015061
1.0014483
1.0012679
1.0009851
1.0005735
1.0002451
0.99985336
0.99952729
0.99929785
0.9991152
0.99896352
0.99899457
0.99916375
0.99909725
0.99935039
0.99969148
0.99997594
1.0002074
1.0005053
1.0007814
1.0009749
1.0014142
1.0014739
1.0018336
1.0021652
1.0020816
1.0033475
1.0055647
1.004858
1.0060077
1.0056546
1.0051314
1.0049714
1.0048466
1.0036578
1.0023059
1.0017834
1.0009869
1.0001641
0.99977119
0.9999317
1.0005861
1.0013375
1.0019383
1.0021785
1.0022945
1.0024868
1.002593
1.0024054
1.002106
1.0018594
1.0016232
1.0014682
1.0014606
1.0015829
1.0017001
1.0016826
1.0015053
1.0012121
1.0008881
1.0004609
1.0001423
0.99975918
0.99952879
0.99930052
0.9991711
0.99912987
0.99911968
0.99942793
0.99949469
0.99968207
0.99995129
1.0002266
1.0005312
1.0007541
1.0011061
1.0014006
1.0013936
1.0021024
1.0018616
1.0023076
1.0025356
1.0025296
1.0025203
1.00261
1.0027403
1.0031225
1.0033502
1.0034546
1.0038641
1.0041733
1.0043164
1.004716
1.0050562
1.0053839
1.0057141
1.00589
1.006188
1.0066585
1.006561
1.0070331
1.0070999
1.007272
1.0075265
1.0074161
1.0077015
1.007647
1.0077969
1.0027745
1.0026713
1.002801
1.0028429
1.0031459
1.0032472
1.0034253
1.0038292
1.0039015
1.00426
1.0046788
1.0046987
1.0052272
1.0054254
1.0056977
1.0060384
1.0062482
1.0063997
1.0068189
1.0067955
1.007104
1.0072747
1.0072126
1.007565
1.0073975
1.0076411
1.0075941
1.0030156
1.0030788
1.0030725
1.0031605
1.0032001
1.003528
1.0037194
1.0037836
1.0042685
1.004354
1.004595
1.0051414
1.0050536
1.0055969
1.005787
1.0059456
1.0063409
1.0064272
1.0066381
1.0068884
1.0069541
1.0071347
1.0073032
1.0072527
1.0074403
1.0074035
1.0074579
1.0034968
1.0032819
1.0032241
1.0033934
1.0034376
1.0035786
1.0038818
1.0040918
1.0042133
1.0046211
1.0047958
1.0049299
1.0054438
1.0054389
1.0058067
1.0061215
1.0060937
1.0065746
1.0065366
1.0067991
1.006937
1.0070053
1.0071636
1.0071915
1.0072826
1.0072952
1.007371
1.003592
1.0033814
1.0033299
1.0033959
1.0037817
1.003698
1.0039173
1.0043089
1.0043464
1.0046633
1.0049436
1.0050721
1.005359
1.0056002
1.0057883
1.0059558
1.0062943
1.0062571
1.0066582
1.0066142
1.0068432
1.0069906
1.0069578
1.0071815
1.0071021
1.0071843
1.0071936
1.0035643
1.0035726
1.0036594
1.0035598
1.0037432
1.00412
1.0040496
1.0042692
1.0047115
1.0046003
1.004974
1.0052675
1.0051971
1.0057189
1.0057195
1.0059648
1.0061872
1.0062565
1.0064792
1.0066036
1.0066966
1.0068035
1.0070267
1.0068771
1.0070931
1.0070225
1.0071071
1.0039103
1.0039067
1.003901
1.0039237
1.0038375
1.0041634
1.0043752
1.0042953
1.0047031
1.0048915
1.0048584
1.0052627
1.0053946
1.0054655
1.0058539
1.0058402
1.0060437
1.0062948
1.0062205
1.0065852
1.0065365
1.00674
1.006759
1.0069304
1.0068493
1.006984
1.0068774
1.0041592
1.0041555
1.003906
1.0040759
1.004091
1.0041114
1.0044585
1.004568
1.0045277
1.0049555
1.0050617
1.0050085
1.0055469
1.0054157
1.0056565
1.0059817
1.005804
1.0062506
1.0061482
1.0063697
1.0064582
1.0065785
1.0066244
1.0067902
1.0067203
1.0068286
1.0067939
1.0043952
1.0038901
1.0040047
1.0041684
1.0042562
1.0042014
1.0045341
1.0046558
1.0046521
1.0049248
1.0050245
1.0051476
1.0053589
1.0054059
1.0056639
1.0057092
1.0059154
1.005924
1.0061465
1.0062319
1.0062774
1.0064523
1.0064815
1.0065911
1.0066293
1.0066236
1.0067051
1.0043546
1.0041971
1.0042303
1.0042814
1.0043322
1.0045113
1.0045462
1.004624
1.0049844
1.004715
1.0050532
1.005274
1.005032
1.0056513
1.0053748
1.0056536
1.0058773
1.0056994
1.0061963
1.0058459
1.0063803
1.0060685
1.0065379
1.0062443
1.006591
1.00638
1.0065471
1.0045069
1.0046331
1.0045042
1.0043366
1.0044523
1.0046305
1.0045984
1.0046589
1.0048524
1.0048774
1.0050087
1.0051183
1.005211
1.0053037
1.0054561
1.0055728
1.0056023
1.0057926
1.0058513
1.0058642
1.0061283
1.0059708
1.0062565
1.0061824
1.0063098
1.0062441
1.0063705
1.0044911
1.004775
1.0045294
1.0043907
1.0044521
1.0047111
1.0045237
1.0046872
1.0049135
1.0047928
1.0049117
1.0051568
1.0051182
1.0051937
1.0054187
1.0054388
1.0054923
1.005669
1.0056801
1.0058089
1.0058648
1.0059222
1.0060004
1.0060354
1.0061259
1.006038
1.0062407
1.0048111
1.0044213
1.0045574
1.0045163
1.0043899
1.004685
1.0046649
1.004534
1.0049593
1.0047875
1.0048953
1.0051524
1.0049071
1.0053871
1.0051243
1.0054255
1.0054914
1.0053608
1.0057867
1.0055012
1.005835
1.0057202
1.0059177
1.0057706
1.0060433
1.0057694
1.0061317
1.0047351
1.0046505
1.0046794
1.004515
1.0046376
1.0045893
1.0046434
1.0047814
1.0046628
1.0049898
1.0048027
1.0048855
1.0052592
1.0048932
1.0052865
1.0052099
1.0053727
1.0053063
1.0054466
1.0056137
1.005393
1.0058371
1.0054754
1.0058978
1.0056229
1.0058355
1.0057401
1.004838
1.0048632
1.004771
1.0046049
1.0045396
1.0047311
1.0045979
1.0045985
1.0048485
1.0047183
1.0047665
1.0049374
1.0049172
1.0050112
1.0049969
1.0051309
1.0052111
1.0051785
1.0053546
1.0052632
1.0054542
1.0054315
1.0054502
1.005646
1.0054778
1.0056298
1.0055971
1.0049017
1.0049216
1.0046386
1.0045112
1.0046266
1.0045141
1.0044721
1.0046433
1.0045708
1.0046964
1.004698
1.0046721
1.0048815
1.0047873
1.0049589
1.0049169
1.0049382
1.0052107
1.0049606
1.0052126
1.0052952
1.0051924
1.0053226
1.0054275
1.0052695
1.0054771
1.0054568
1.0047261
1.0047098
1.0044501
1.0044426
1.004482
1.0042679
1.0044904
1.0045423
1.0043086
1.0046942
1.00455
1.0045322
1.0047786
1.0045849
1.0049646
1.0045621
1.0049685
1.0049328
1.0048158
1.0051442
1.004922
1.0052086
1.0049821
1.0053793
1.0049985
1.0053692
1.005211
1.0045063
1.0045425
1.0043487
1.0043297
1.004369
1.0042685
1.00442
1.0043624
1.0043242
1.0045432
1.0044641
1.0044801
1.0045059
1.0046049
1.0046771
1.0044968
1.0048683
1.004631
1.0047803
1.00489
1.0047651
1.005026
1.0047867
1.0052502
1.0047677
1.0051864
1.0049827
1.0045332
1.0046342
1.0043523
1.0042209
1.0044367
1.0041905
1.0042452
1.0044452
1.0040771
1.0045031
1.0043453
1.0042292
1.0046248
1.0042122
1.0046175
1.0044379
1.0045533
1.0045811
1.0045386
1.0048256
1.0044731
1.0048939
1.0045961
1.0049839
1.0046285
1.0049587
1.004788
1.0046282
1.0045527
1.0042328
1.0042414
1.0042644
1.0040603
1.0042089
1.0041644
1.0040796
1.0042587
1.0041526
1.0042565
1.0042489
1.0042248
1.0043296
1.0043662
1.0043999
1.0042663
1.0046119
1.0043969
1.0044887
1.0045592
1.0045845
1.0046325
1.0045002
1.0047081
1.0046344
1.0043884
1.0043306
1.0041388
1.004002
1.0041326
1.0038823
1.0040396
1.0040963
1.0038034
1.0041417
1.0039949
1.0040533
1.0041759
1.0038672
1.004366
1.004084
1.004211
1.0042224
1.0041886
1.0044366
1.0041343
1.0044432
1.0042776
1.0045203
1.0042047
1.0044852
1.0043816
1.0040807
1.0041326
1.0040837
1.00376
1.0039246
1.0038334
1.0037795
1.004057
1.0036221
1.0039419
1.0040013
1.0037101
1.0041564
1.0036784
1.0041625
1.0039926
1.0038786
1.0043144
1.0037582
1.0044415
1.003827
1.0042936
1.0040818
1.0042069
1.0041355
1.0041387
1.0041648
1.0038597
1.0040352
1.0038573
1.0036314
1.0038507
1.003627
1.0037068
1.003784
1.0034499
1.0039576
1.0036835
1.0036184
1.0039071
1.0035508
1.0040827
1.0035747
1.0038545
1.0039882
1.0036944
1.0041089
1.0035961
1.0041687
1.0037545
1.0040321
1.0037771
1.0039972
1.0038958
1.0037143
1.0039081
1.0036217
1.0036289
1.00358
1.0034296
1.0037071
1.0033846
1.0035192
1.0036458
1.0033854
1.0037177
1.0034228
1.0036608
1.0036749
1.0033767
1.0038184
1.0034993
1.0038252
1.0035034
1.0036506
1.0037607
1.0036184
1.0037822
1.0034869
1.0037343
1.0036253
1.0035996
1.0036531
1.0035936
1.0033368
1.0033631
1.0034282
1.0033159
1.0032936
1.0032815
1.0034242
1.0033654
1.0033148
1.0033289
1.0033806
1.0035339
1.0033069
1.0034023
1.003345
1.0035304
1.003415
1.0034101
1.0034364
1.0033181
1.0036256
1.0032892
1.0034271
1.0033122
1.0034555
1.0034367
1.003298
1.0032437
1.003087
1.0032656
1.003132
1.0029852
1.0032423
1.0030273
1.0032962
1.003127
1.0030058
1.0033544
1.0030375
1.0034351
1.0029911
1.0032514
1.0032709
1.0030947
1.0033845
1.002935
1.0033544
1.0031212
1.0032465
1.0030223
1.0031098
1.003192
1.0031857
1.0031378
1.0030938
1.0028012
1.0030419
1.0029048
1.0028604
1.0031033
1.0026828
1.0031566
1.0028639
1.0029333
1.0031286
1.0027064
1.0033275
1.0026774
1.0032055
1.0028911
1.0029294
1.0031523
1.00269
1.0032145
1.0026977
1.0031203
1.0027807
1.0029255
1.0028112
1.0029373
1.0030072
1.0027809
1.002706
1.002742
1.0027041
1.0028173
1.0026551
1.0026917
1.002804
1.0027658
1.0028256
1.0026598
1.0027336
1.0029156
1.0027043
1.002897
1.0025879
1.0027272
1.0028912
1.0026722
1.0028727
1.0024553
1.0027431
1.0026846
1.0027658
1.002432
1.0026588
1.0027659
1.0026161
1.0024376
1.0026217
1.0024392
1.0026119
1.0025011
1.0023916
1.0026985
1.0024009
1.0027532
1.0023757
1.0025416
1.0026515
1.0024096
1.002846
1.0022269
1.0026886
1.0023707
1.0026147
1.0025608
1.0023793
1.0024862
1.0023525
1.0024558
1.0022574
1.0023789
1.0025558
1.002398
1.0022644
1.0024268
1.0021986
1.0024713
1.0022772
1.00223
1.0024194
1.0021564
1.0026081
1.0021741
1.0024094
1.0022754
1.0022051
1.0025916
1.0020898
1.0025872
1.0020069
1.002417
1.0021875
1.0023256
1.0022845
1.002103
1.0021056
1.0019821
1.0022173
1.002389
1.0022861
1.0020545
1.0020558
1.0020385
1.0022649
1.0021832
1.0020602
1.0021054
1.0019187
1.0023762
1.0020693
1.002281
1.0020221
1.0019503
1.0023027
1.001937
1.0024562
1.0018123
1.0021652
1.001922
1.0021339
1.0020907
1.0019113
1.0018651
1.0017904
1.0020062
1.002217
1.0020345
1.0019739
1.0017737
1.0018941
1.0020044
1.0019066
1.0020304
1.0017344
1.001969
1.0019078
1.0019713
1.0020456
1.0017883
1.0020006
1.0017917
1.0020068
1.0018627
1.0018766
1.0018045
1.0018601
1.0018316
1.0017786
1.0016954
1.0016752
1.001597
1.0018388
1.0019224
1.0017961
1.0018239
1.0016373
1.0017707
1.0016756
1.001686
1.001801
1.0016109
1.0018921
1.0015833
1.0017739
1.0016667
1.001691
1.0018685
1.0015828
1.001853
1.0014043
1.0017991
1.0015265
1.0017943
1.001569
1.0015142
1.0014523
1.001465
1.0014715
1.0016465
1.0015753
1.0015883
1.0015928
1.0016143
1.0016281
1.001399
1.0014623
1.0014679
1.0015674
1.0017223
1.0014347
1.0015498
1.0013093
1.0015563
1.0016236
1.0014955
1.0016242
1.0011915
1.0015372
1.0013239
1.0015853
1.0014179
1.0013205
1.0012426
1.0012256
1.0012668
1.0014048
1.0013262
1.001327
1.0014453
1.0015542
1.0013946
1.0012542
1.0012161
1.0012331
1.0014756
1.001473
1.0013414
1.0013083
1.0011252
1.0013606
1.0014079
1.001354
1.0014025
1.0010931
1.0012664
1.0011997
1.0013065
1.0012757
1.0011417
1.0010876
1.0010517
1.000988
1.0012047
1.0011651
1.0011414
1.0012948
1.0013779
1.0012212
1.0011122
1.0010702
1.0010926
1.0012668
1.0012897
1.0011584
1.0011582
1.001025
1.0011562
1.0012268
1.0011478
1.0012199
1.000964
1.0011268
1.0009954
1.0011256
1.0010328
1.0010279
1.0009432
1.0009219
1.0006516
1.0009953
1.0010628
1.0010474
1.0011212
1.001146
1.0010668
1.0009737
1.0009843
1.0010271
1.0010589
1.0011269
1.0009676
1.0010009
1.000951
1.0010154
1.0010983
1.0009707
1.0010362
1.0008223
1.0009884
1.0008593
1.0009856
1.0008636
1.0008781
1.0007826
1.0007661
1.000363
1.0008063
1.000955
1.0009605
1.0009754
1.0009513
1.0009126
1.0008489
1.0008659
1.0009356
1.0009552
1.0009604
1.0008534
1.0008288
1.0008498
1.0009035
1.0009668
1.0008749
1.0008525
1.0007164
1.0007928
1.0007783
1.0008543
1.0007951
1.0007347
1.0006166
1.0006041
1.0001856
1.0006456
1.0008384
1.0008311
1.0008535
1.0008437
1.0008
1.0007491
1.0007486
1.0008107
1.0008351
1.0008343
1.0007715
1.000715
1.000744
1.0007594
1.0008491
1.0007812
1.0007466
1.0006375
1.0006381
1.0006709
1.0007292
1.0007158
1.0006278
1.0005083
1.0004982
1.0000158
1.0005153
1.0007199
1.0007233
1.0007509
1.0007636
1.0007451
1.000683
1.0006302
1.0006672
1.0006814
1.000756
1.0006946
1.0007041
1.0006218
1.000664
1.0006666
1.0006924
1.0006688
1.000593
1.0005941
1.000585
1.0006268
1.0005994
1.0005305
1.0004575
1.0004459
0.99990768
1.0004134
1.000653
1.0006583
1.000674
1.0006464
1.0006632
1.0006213
1.0005727
1.0006224
1.0005592
1.0007001
1.0005652
1.0006798
1.0005228
1.0006265
1.0005565
1.0006336
1.000588
1.0005655
1.0005327
1.0005183
1.0005554
1.0005005
1.0004967
1.0004036
1.0004115
0.99970548
1.0003323
1.0006332
1.0006164
1.0006002
1.0005517
1.0005474
1.0006019
1.000526
1.0006337
1.0004851
1.0006352
1.0004458
1.0006367
1.0004522
1.0006076
1.0005006
1.0005496
1.000568
1.0004519
1.000583
1.0003592
1.0005952
1.0003578
1.0005375
1.0003346
1.0004104
0.99974832
1.0002715
1.0005781
1.0005928
1.0005199
1.0005516
1.000439
1.0006151
1.000441
1.0006344
1.0004046
1.0005873
1.0004259
1.0005486
1.0005556
1.0004439
1.000641
1.0003157
1.0006852
1.0002886
1.0006774
1.0003178
1.0005738
1.0003579
1.000457
1.0003662
1.0003824
0.99958114
1.0002308
1.0005284
1.000598
1.0004858
1.0005882
1.0003939
1.0006193
1.0003922
1.0006279
1.0004286
1.0005224
1.0005446
1.0003764
1.0007288
1.0002543
1.0007993
1.0002077
1.0007176
1.0003347
1.0005513
1.0005288
1.0003486
1.0005849
1.0002563
1.0005126
1.0003262
0.99959028
1.0002735
1.0004781
1.0005963
1.0005509
1.0005421
1.0006267
1.0004045
1.0006832
1.0003256
1.0007378
1.0003894
1.0006617
1.0005173
1.0004391
1.0007285
1.0002578
1.0008919
1.0001771
1.0008329
1.0002612
1.0006466
1.0004503
1.0004405
1.0005102
1.0003449
1.0004402
0.99986689
1.0002573
1.0006187
1.0005044
1.0006587
1.0006462
1.0005888
1.000661
1.0004859
1.0005822
1.0006033
1.0006262
1.0006962
1.0005475
1.0006005
1.0005521
1.0006019
1.0006703
1.000567
1.00062
1.0004722
1.0005764
1.0005209
1.0005808
1.0005014
1.0004737
1.0004296
0.99962826
1.0002682
1.000692
1.0006133
1.0006568
1.0007768
1.000566
1.0008007
1.0005066
1.0007103
1.0006567
1.0006411
1.0008368
1.0005098
1.0008289
1.0004953
1.0007517
1.0006847
1.0005736
1.0008143
1.0003601
1.0008609
1.0003543
1.0008237
1.000439
1.0006568
1.000485
0.99975
1.0003157
1.0007074
1.000787
1.0006455
1.0009355
1.0005964
1.0008107
1.0007044
1.0006325
1.0008966
1.0006464
1.0009013
1.0006655
1.0008386
1.0005955
1.0009334
1.000536
1.0009902
1.0005197
1.0008491
1.0006027
1.000684
1.0007399
1.0006391
1.0007381
1.0006149
0.99996542
1.0005381
1.0006076
1.00092
1.0008025
1.0008067
1.0010683
1.0004808
1.0010643
1.0005072
1.0010023
1.0009513
1.0006591
1.0011409
1.0003241
1.0012597
1.000541
1.0011417
1.0007444
1.0006884
1.0008944
1.0005823
1.0010875
1.0006312
1.0009166
1.0006151
1.0007498
0.99979224
1.0005756
1.0008336
1.0010229
1.00087
1.0010486
1.0010062
1.0008349
1.0010085
1.0007227
1.0010595
1.0010197
1.0008939
1.0010825
1.0006111
1.0011294
1.000911
1.0009886
1.0010945
1.0005852
1.0010677
1.0007422
1.0011623
1.0008718
1.0008818
1.0007444
1.0008197
1.0000394
1.0007857
1.0009463
1.0012886
1.0010167
1.0010778
1.0013033
1.0008144
1.0013662
1.0008048
1.0011147
1.0012594
1.0008072
1.0014642
1.0006394
1.0013278
1.0009563
1.0010248
1.0013121
1.000683
1.0013221
1.0007804
1.0012622
1.0008968
1.0010727
1.000884
1.00101
1.0002975
1.0010066
1.0011894
1.0014175
1.0013221
1.0010889
1.0015637
1.0010175
1.0014003
1.0011767
1.0010393
1.0016101
1.0008414
1.0015698
1.0009112
1.0012429
1.001346
1.0009409
1.0015968
1.0007036
1.0015045
1.0009211
1.001347
1.0010758
1.00115
1.0010723
1.0011475
1.0002855
1.0010587
1.0017432
1.0014432
1.0015885
1.0013799
1.0013467
1.0017864
1.0012168
1.0015692
1.0012888
1.0013553
1.001559
1.0012212
1.0015554
1.0010891