/*--------------------------------*- C++ -*----------------------------------*\
| =========                 |                                                 |
| \\      /  F ield         | OpenFOAM: The Open Source CFD Toolbox           |
|  \\    /   O peration     | Version:  2406                                  |
|   \\  /    A nd           | Website:  www.openfoam.com                      |
|    \\/     M anipulation  |                                                 |
\*---------------------------------------------------------------------------*/
FoamFile
{
    version     2.0;
    format      ascii;
    arch        "LSB;label=32;scalar=64";
    class       volScalarField;
    location    "13";
    object      T;
}
// * * * * * * * * * * * * * * * * * * * * * * * * * * * * * * * * * * * * * //

dimensions      [0 0 0 1 0 0 0];

internalField   nonuniform List<scalar> 
96472
(
1.0025211
1.0025689
1.0021547
1.001681
1.0015119
1.0014841
1.0015039
1.0012839
1.0007464
1.0000135
0.99923247
0.99855513
0.99816551
0.99813883
0.99840718
0.99882667
0.99929175
0.99973495
1.0000757
1.0001639
1.0001785
1.0001374
1.0000006
0.99995376
0.99990227
0.99973047
0.99967077
0.99965809
0.99962894
0.99978851
1.0000364
1.0002609
1.0004736
1.000712
1.0009656
1.0012187
1.0014181
1.001613
1.0017609
1.0019045
1.0020325
1.002177
1.0022555
1.002374
1.0025038
1.0025221
1.0025652
1.002649
1.0027013
1.002692
1.0027473
1.00277
1.002809
1.0028024
1.0027762
1.0025113
1.0025953
1.0021728
1.0017027
1.0015217
1.0014866
1.0015153
1.0013022
1.0007686
1.0000422
0.99927054
0.99858414
0.9981695
0.99813916
0.99838093
0.99881867
0.99932653
0.99974757
1.0000776
1.0002213
1.0001946
1.0002157
1.0001497
1.0000303
0.99997447
0.99988903
0.9997348
0.99970901
0.99973065
0.99976877
0.99992975
1.0001868
1.0004558
1.0007064
1.0009231
1.0011317
1.0013212
1.0014989
1.0016427
1.0017912
1.0019295
1.0020403
1.0021898
1.0023008
1.0023509
1.0024962
1.0025422
1.0026033
1.0026354
1.0026493
1.0026948
1.0027505
1.0027325
1.0027462
1.0027639
1.0025082
1.0026137
1.002195
1.0017233
1.0015282
1.0014875
1.0015261
1.0013226
1.0007976
1.0000833
0.9993202
0.99861688
0.99818314
0.99814763
0.99837403
0.99881797
0.99931204
0.99981788
1.0001192
1.0002823
1.0003034
1.0002342
1.0002212
1.0001435
0.9999974
0.99992573
0.99983345
0.99972566
0.99977286
0.99986449
0.99995033
1.0001044
1.0003267
1.0005908
1.0008361
1.0010557
1.0012302
1.0013979
1.0015442
1.0016891
1.0018061
1.0019679
1.0020467
1.0021972
1.0022982
1.0023723
1.0024388
1.0025352
1.0025362
1.0026541
1.0026776
1.0026289
1.0026971
1.0027246
1.0027046
1.0025122
1.0026345
1.0022185
1.0017542
1.0015512
1.0015003
1.0015409
1.0013449
1.0008313
1.0001302
0.99937603
0.99865647
0.99821292
0.9981447
0.99839559
0.99883921
0.99931459
0.99981483
1.0001677
1.0002956
1.0003809
1.0003308
1.000243
1.0002127
1.0001245
0.999967
0.99990227
0.99982156
0.99974271
0.99983136
0.99997973
1.0001314
1.0002854
1.0004742
1.0006877
1.000905
1.0011032
1.0012937
1.001436
1.0015764
1.0016974
1.0018163
1.0019804
1.0020634
1.0021994
1.0022784
1.002396
1.0024036
1.002548
1.002515
1.0025299
1.0026707
1.0026822
1.0026505
1.0027095
1.0025177
1.0026514
1.0022417
1.0017808
1.0015626
1.0015172
1.0015649
1.00138
1.0008755
1.000191
0.99943668
0.99872068
0.99825589
0.99816295
0.99840495
0.99884967
0.99937929
0.99981505
1.0001914
1.0003512
1.0003834
1.0004346
1.0003653
1.0002499
1.0002166
1.0001052
0.99993683
0.99988687
0.99984015
0.99981562
0.99989987
1.000064
1.0002571
1.0004449
1.0006314
1.0008061
1.000986
1.0011481
1.0013044
1.0014351
1.0015768
1.0017216
1.001829
1.0019778
1.0020706
1.002188
1.0022606
1.0023724
1.002374
1.0024342
1.0026043
1.0025194
1.0025915
1.0025268
1.0026743
1.0025247
1.0026755
1.0022747
1.0018177
1.0015956
1.0015375
1.0015975
1.0014198
1.0009254
1.0002475
0.99950412
0.99878037
0.99829971
0.99820358
0.99842111
0.9988592
0.99939202
0.99988343
1.0002089
1.0004284
1.0004506
1.0004476
1.0004501
1.0003522
1.0002185
1.0001553
1.0000249
0.99988963
0.99989096
0.99990647
0.99992396
0.99999791
1.0001449
1.0003397
1.0005355
1.0007188
1.0008814
1.0010386
1.0011779
1.0013259
1.0014546
1.0015829
1.0017197
1.00184
1.0019751
1.002064
1.0021739
1.0022107
1.0023555
1.0024113
1.0023878
1.0024796
1.0024478
1.0027279
1.0024881
1.0025331
1.0026936
1.0022988
1.0018518
1.0016212
1.0015665
1.0016242
1.0014672
1.0009833
1.000326
0.99959316
0.99885401
0.99835995
0.99824391
0.99845953
0.9989047
0.9993851
0.99991194
1.0002632
1.0004315
1.0005555
1.000502
1.0004407
1.0004271
1.0003083
1.0001596
1.000105
0.99998468
0.99987076
0.99989419
0.999964
1.000039
1.000126
1.000239
1.0003934
1.0005608
1.0007445
1.0009108
1.0010741
1.0011868
1.0013311
1.0014453
1.0016073
1.0017071
1.0018434
1.0019311
1.002053
1.002172
1.0021968
1.0022395
1.0023443
1.0024671
1.0024901
1.0023883
1.002563
1.0025415
1.0027167
1.0023298
1.0018931
1.0016564
1.001601
1.0016729
1.0015193
1.001049
1.000406
0.99968067
0.99894576
0.99843415
0.9982848
0.99850651
0.99894334
0.99945477
0.99990418
1.0003016
1.0004574
1.0005574
1.0005992
1.0005272
1.0004284
1.0003997
1.0002719
1.0001139
1.000057
0.99996787
0.99989032
0.9999103
0.99999198
1.0000966
1.0002124
1.000338
1.0004722
1.0006188
1.0007742
1.0009143
1.0010521
1.0011859
1.0013261
1.0014525
1.0015933
1.0017123
1.0018353
1.0019321
1.0019992
1.0021019
1.0021941
1.0023767
1.0021376
1.0024933
1.0023333
1.0024601
1.0025485
1.0027354
1.0023609
1.0019307
1.0016917
1.0016361
1.0017128
1.0015801
1.0011211
1.0004983
0.99978376
0.99904695
0.99852161
0.99834825
0.9985514
0.99896606
0.99951345
0.99996603
1.0003066
1.0005451
1.0005742
1.0006199
1.0006279
1.0005022
1.0003849
1.0003316
1.0001856
1.0000491
1.0000149
0.99997798
0.99993732
0.99994096
1.0000051
1.0001164
1.0002576
1.0003785
1.0005262
1.0006486
1.0007973
1.0009232
1.0010607
1.0011878
1.0013266
1.0014477
1.0015985
1.0016734
1.0018208
1.0019031
1.0020161
1.0021109
1.001987
1.0023967
1.0021407
1.0024577
1.0024174
1.0025557
1.0027589
1.0023978
1.0019721
1.0017367
1.0016807
1.0017679
1.0016433
1.0012024
1.0005898
0.99988672
0.99914785
0.99860542
0.99842946
0.99860393
0.99902445
0.99951592
1.0000312
1.0003556
1.0005689
1.000685
1.0006476
1.0006082
1.0005891
1.0004431
1.0003066
1.000258
1.0001224
1.0000003
0.99997685
0.99998441
0.99998895
1.0000017
1.0000467
1.0001299
1.0002455
1.000381
1.0005276
1.0006711
1.0007897
1.0009296
1.0010466
1.0011935
1.0013237
1.0014364
1.0015859
1.001688
1.0017816
1.0018708
1.0018926
1.00214
1.0021238
1.0021969
1.0022228
1.0022124
1.0025633
1.0027777
1.0024232
1.0020152
1.0017723
1.0017261
1.001826
1.0017199
1.00129
1.0006966
1.000008
0.99926973
0.99870783
0.9984934
0.99867261
0.99909739
0.99957384
1.0000357
1.0004184
1.0005694
1.00072
1.0007363
1.0006492
1.0005746
1.0005288
1.0003871
1.0002575
1.000204
1.0000989
0.99999245
0.99995318
0.99996155
0.99999759
1.0000361
1.0000913
1.0001604
1.0002658
1.0003874
1.0005107
1.0006576
1.0007858
1.000914
1.0010515
1.0011673
1.0013266
1.0014369
1.001545
1.0016393
1.0017667
1.0018825
1.0020178
1.0017905
1.0021927
1.0021797
1.0021865
1.002569
1.0027942
1.0024512
1.0020527
1.0018185
1.0017712
1.0018848
1.0017889
1.0013767
1.0007991
1.0001295
0.99938737
0.99882058
0.99857541
0.99874371
0.99913521
0.99966674
1.0000805
1.0004307
1.0006476
1.0007064
1.0007661
1.0007652
1.0006173
1.0005099
1.0004546
1.0003057
1.0001897
1.0001395
1.0000746
0.99999331
0.99993809
0.9999255
0.99995656
1.0000202
1.0000905
1.0001784
1.0002766
1.0004129
1.0005151
1.0006543
1.0007859
1.0009039
1.0010449
1.0011801
1.0012883
1.0014193
1.0015584
1.001645
1.0017536
1.0016211
1.0021171
1.0019628
1.0018766
1.0022355
1.0025753
1.00281
1.0024801
1.0020975
1.0018606
1.0018219
1.0019438
1.0018693
1.0014723
1.0009123
1.0002524
0.99951986
0.99892938
0.99867557
0.9988134
0.99918851
0.99969467
1.0001656
1.0004568
1.0007053
1.0007941
1.0007791
1.0007617
1.0007116
1.0005479
1.0004198
1.0003693
1.0002373
1.0001263
1.0000761
1.000041
0.9999908
0.99993874
0.99991536
0.99992427
0.9999781
1.000063
1.0001674
1.000268
1.0003932
1.0005209
1.0006333
1.000778
1.0009165
1.0010313
1.0011563
1.0013239
1.0013856
1.0015106
1.0015794
1.0017764
1.001793
1.0016969
1.002057
1.0019405
1.0025812
1.0028262
1.0025117
1.0021375
1.0019075
1.0018767
1.0020148
1.0019533
1.0015689
1.0010221
1.000384
0.9996523
0.99904136
0.99876809
0.9988873
0.99928184
0.99973061
1.0001944
1.0005302
1.0006963
1.0008642
1.0008664
1.0007647
1.0007039
1.0006281
1.0004658
1.0003655
1.0003157
1.0002199
1.0001049
1.0000279
0.99998167
0.99994826
0.99992195
0.99991141
0.99991999
0.99996328
1.0000378
1.0001439
1.000271
1.0003791
1.0005083
1.0006496
1.0007591
1.000895
1.0010603
1.0011254
1.0012961
1.0014119
1.0014442
1.0016661
1.0015105
1.0017232
1.0019976
1.0017569
1.0025874
1.002839
1.00254
1.0021703
1.0019487
1.0019235
1.0020746
1.0020279
1.001666
1.0011396
1.0005175
0.99979024
0.99916213
0.99885983
0.99896791
0.99933996
0.99982713
1.000219
1.0005682
1.0007395
1.0008496
1.0009053
1.0008751
1.0007228
1.0006135
1.0005423
1.0003978
1.000307
1.0002576
1.0001886
1.0000821
0.99998389
0.99991193
0.99987661
0.99986279
0.99986995
0.99990289
0.99996113
1.000057
1.000137
1.0002727
1.0003825
1.000502
1.000631
1.0007855
1.0008672
1.0010605
1.0011348
1.0012764
1.0013895
1.001377
1.0014666
1.0019004
1.0014304
1.0018058
1.0025929
1.0028485
1.0025581
1.0022071
1.0019853
1.0019718
1.0021386
1.0021171
1.0017673
1.0012543
1.0006442
0.99992451
0.99928542
0.99895925
0.99904732
0.9993798
0.99988274
1.0002988
1.0005711
1.0008195
1.0008998
1.0009055
1.0009021
1.0008146
1.0006384
1.0005189
1.0004557
1.0003383
1.0002412
1.0001849
1.0001284
1.0000438
0.99994533
0.99985385
0.99981115
0.9997957
0.99981246
0.99986705
0.99992867
1.0000363
1.0001384
1.0002525
1.0003839
1.0005234
1.0006323
1.0007747
1.0008956
1.0010537
1.0011063
1.0012047
1.0013311
1.001496
1.0014743
1.001434
1.0017819
1.0025992
1.0028562
1.002578
1.002238
1.0020232
1.0020266
1.0022042
1.0021943
1.0018598
1.00137
1.0007766
1.0000642
0.99939871
0.99906503
0.9991196
0.99946083
0.99990159
1.0003491
1.0006253
1.0008258
1.0009797
1.000988
1.000891
1.0008243
1.0007188
1.0005336
1.0004475
1.0004012
1.0003204
1.0002213
1.0001238
1.0000536
0.99996728
0.99989191
0.99981768
0.99976509
0.99975964
0.99977653
0.99983762
0.99992235
1.0000178
1.0001455
1.0002707
1.0003899
1.0005057
1.0006614
1.0007709
1.0008855
1.0010056
1.0011325
1.00116
1.0014334
1.0011007
1.0016905
1.0014724
1.0026051
1.0028588
1.002596
1.0022649
1.0020508
1.0020658
1.002259
1.0022715
1.0019591
1.0014873
1.0009068
1.0001944
0.99951686
0.9991558
0.99918781
0.99953043
0.99996974
1.0003569
1.0006868
1.0008323
1.0009814
1.0010428
1.0009789
1.0008304
1.0007136
1.0006115
1.0004732
1.0004
1.0003636
1.0003012
1.0001986
1.0000673
0.99996831
0.99987271
0.99980608
0.99974594
0.99971656
0.99972422
0.99976868
0.99982772
0.99992639
1.0000293
1.0001508
1.0002576
1.0004176
1.0004958
1.0006758
1.0007446
1.000881
1.0009994
1.0011219
1.0010874
1.0013295
1.0013934
1.0013258
1.002613
1.0028623
1.0026168
1.0022967
1.0020861
1.0021098
1.0023162
1.0023514
1.0020539
1.0015926
1.001029
1.0003199
0.99963418
0.99924393
0.99926273
0.99955326
1.0000332
1.0004099
1.000685
1.0009019
1.0010004
1.0010314
1.0010292
1.000915
1.0007253
1.0006134
1.0005287
1.0004291
1.0003513
1.0003012
1.0002333
1.000143
1.0000071
0.99988878
0.99978036
0.99971298
0.99967514
0.99966861
0.99968762
0.99974507
0.99982064
0.9999123
1.0000352
1.0001641
1.0002655
1.000424
1.000503
1.0006607
1.0008011
1.0008105
1.0010483
1.0009333
1.0013734
1.0010446
1.0013514
1.0026215
1.0028605
1.0026262
1.0023167
1.0021154
1.0021521
1.0023703
1.0024239
1.00214
1.001695
1.0011473
1.0004417
0.99974458
0.99933275
0.99932711
0.99959951
1.0000419
1.0004675
1.0007012
1.000927
1.0010659
1.0010884
1.0010199
1.0009425
1.000808
1.000613
1.0005166
1.000473
1.0004088
1.0003322
1.000245
1.0001504
1.0000506
0.99992715
0.99981326
0.999714
0.99964935
0.99961294
0.99962378
0.99966164
0.99972792
0.99981859
0.99993705
1.0000513
1.0001667
1.0002927
1.0004325
1.0005215
1.0006433
1.0007795
1.0008069
1.0010797
1.000955
1.0011247
1.0012721
1.0026318
1.002861
1.002642
1.0023367
1.0021405
1.0021852
1.0024173
1.0024902
1.002223
1.0017872
1.0012518
1.0005541
0.99984235
0.99941338
0.99937217
0.99965949
1.0000679
1.0004659
1.0007584
1.0009125
1.0010798
1.0011547
1.001082
1.0009453
1.0008238
1.00068
1.0005396
1.00047
1.0004497
1.0004061
1.0003161
1.0001926
1.0000595
0.99994035
0.99982435
0.99971574
0.99963309
0.99959207
0.99957882
0.99960496
0.99965828
0.99975773
0.99983982
0.99994357
1.000075
1.0001856
1.0003002
1.0004512
1.0005005
1.0006765
1.0007368
1.0009395
1.0007902
1.0011812
1.0010186
1.0026418
1.0028599
1.0026514
1.0023542
1.0021596
1.0022131
1.0024531
1.0025485
1.0023016
1.0018761
1.0013541
1.0006619
0.99993859
0.99948578
0.99942544
0.99967324
1.0001164
1.000479
1.0007638
1.0009493
1.0010774
1.0011417
1.0011376
1.0010184
1.0008264
1.0007028
1.000596
1.0005025
1.0004466
1.0004088
1.0003541
1.0002484
1.0001167
0.99997428
0.9998358
0.99971937
0.99963356
0.99956769
0.99954916
0.99956028
0.99960477
0.99965613
0.99975564
0.99985545
0.99996764
1.0000968
1.0002035
1.0003249
1.0004493
1.0005322
1.000723
1.0006516
1.0009324
1.0009408
1.0009323
1.002655
1.0028639
1.0026706
1.0023668
1.0021783
1.0022387
1.0024966
1.0026051
1.0023679
1.0019516
1.0014386
1.0007556
1.0000298
0.99954539
0.99947607
0.99968228
1.0001185
1.000518
1.0007454
1.0009729
1.0011138
1.0011596
1.0011317
1.0010562
1.0008969
1.0007073
1.0005877
1.0005297
1.0004819
1.0004266
1.0003599
1.0002658
1.0001496
1.0000061
0.99986785
0.99973399
0.99962791
0.99955347
0.99951645
0.99950944
0.99952342
0.99959216
0.99968632
0.99978744
0.99989386
0.99999005
1.0001415
1.000223
1.0003473
1.0004696
1.0005493
1.0006341
1.0008918
1.0006609
1.0010474
1.0026737
1.0028576
1.0026692
1.002374
1.0021779
1.00225
1.0025067
1.0026358
1.0024178
1.0020173
1.0015187
1.0008375
1.0001036
0.99960117
0.999495
0.99970831
1.0000972
1.0005024
1.0007593
1.0009389
1.001114
1.0012061
1.0011572
1.001046
1.0009221
1.0007493
1.0005945
1.0005088
1.0004875
1.0004653
1.0003931
1.000293
1.0001509
1.0000184
0.99987432
0.9997401
0.99962425
0.99953385
0.99947836
0.99945506
0.99948214
0.9995351
0.99960012
0.99969272
0.99979086
0.99990418
1.0000242
1.0001464
1.0002399
1.0003872
1.0004046
1.0006692
1.0006049
1.0007214
1.0009245
1.0026771
1.00285
1.0027006
1.0023748
1.0021664
1.0022224
1.002485
1.0026236
1.0024227
1.0020424
1.0015603
1.0008928
1.0001624
0.99963625
0.9994916
0.99967154
1.0000579
1.0004266
1.0007072
1.0008913
1.0010533
1.0011585
1.0011604
1.0010602
1.0008924
1.000741
1.000605
1.000499
1.0004435
1.0004178
1.0003713
1.0002703
1.0001417
0.99999858
0.9998557
0.99971386
0.99958973
0.99948864
0.99941934
0.99940255
0.99940378
0.99942487
0.99949133
0.99958385
0.999671
0.99978249
0.9998874
1.0000089
1.0001422
1.0002155
1.0003437
1.000509
1.0003916
1.0008031
1.0006337
1.002576
1.0027728
1.0026711
1.0023381
1.0020941
1.00212
1.0022993
1.0023902
1.0022326
1.0019383
1.0015249
1.0008889
1.0001733
0.99960282
0.99941187
0.99949825
0.99986698
1.0002498
1.0005131
1.0007485
1.0009105
1.0009966
1.001023
1.0009827
1.000848
1.0006855
1.000545
1.0004467
1.0003733
1.0003133
1.0002519
1.0001656
1.0000374
0.99990198
0.99975289
0.99960591
0.99948444
0.99936783
0.99929353
0.999262
0.99925322
0.99924438
0.9993374
0.99940837
0.99948372
0.99957504
0.99969932
0.99981849
0.99993773
0.99999414
1.0001792
1.0002323
1.0003402
1.0005023
1.0004652
1.0023517
1.0022893
1.0024656
1.0019356
1.0017634
1.0018692
1.0020033
1.0016354
1.001689
1.0018421
1.0014767
1.0010537
1.0003213
0.9995231
0.99917398
0.99910475
0.9995161
1.0000525
1.0003911
1.0005779
1.000649
1.0006698
1.0007583
1.0008136
1.000778
1.0006723
1.0005312
1.0003773
1.0002657
1.0001888
1.0001141
1.0000305
0.99991299
0.99977952
0.99965059
0.99944042
0.99934344
0.99920024
0.99908681
0.99906577
0.99904792
0.99908802
0.99906883
0.9991834
0.99926175
0.99931893
0.9994569
0.99956723
0.99971073
0.99979725
0.99986792
0.99995641
1.0001832
1.0000847
1.0002943
1.0003327
1.0006397
1.0008213
1.0009154
1.0009834
1.0011326
1.001211
1.0012437
1.0014026
1.0015111
1.0015496
1.0016909
1.001812
1.0019296
1.0020454
1.0021066
1.0022269
1.0023917
1.0023326
1.0025076
1.0024964
1.0025679
1.0026563
1.0026365
1.0027428
1.0027164
1.0028089
1.0005033
1.0007516
1.000922
1.0009912
1.001123
1.0011565
1.0012377
1.0013977
1.001417
1.0015587
1.001701
1.0016912
1.0018835
1.0019388
1.002041
1.0021639
1.0022385
1.0022992
1.0024565
1.0024174
1.0025375
1.0025662
1.0025685
1.0027056
1.0026571
1.0027361
1.0027495
1.0005866
1.0008038
1.0009952
1.0011012
1.0011265
1.0012654
1.0013423
1.0013749
1.0015668
1.0015755
1.0016696
1.0018652
1.0018118
1.0020193
1.0020625
1.0021228
1.0022632
1.0022919
1.0023713
1.002465
1.002461
1.0025328
1.0025809
1.0025963
1.0026807
1.002674
1.002707
1.0006549
1.0007846
1.0010569
1.0012007
1.0012317
1.0012902
1.0014073
1.0014784
1.0015187
1.0016704
1.0017204
1.0017736
1.0019662
1.0019401
1.0020815
1.0021743
1.0021603
1.0023365
1.0023082
1.0024088
1.0024463
1.0024618
1.0025324
1.0025636
1.0026297
1.0026451
1.0027033
1.0006216
1.0010248
1.0011161
1.0012256
1.0013879
1.0013441
1.0014324
1.001566
1.0015605
1.001677
1.001766
1.0018025
1.0019051
1.0019848
1.002043
1.0021047
1.0022213
1.0021979
1.0023538
1.0023038
1.0023916
1.0024223
1.0024216
1.0025264
1.0025527
1.0025993
1.0026422
1.0008372
1.0010767
1.0012321
1.0012607
1.0013443
1.0014849
1.0014479
1.0015364
1.0016962
1.0016334
1.0017847
1.0018757
1.0018346
1.0020235
1.0019962
1.0020867
1.0021576
1.002179
1.0022535
1.0022989
1.0023076
1.0023446
1.0024188
1.002387
1.0025147
1.0025286
1.0025959
1.0008867
1.0010299
1.0012418
1.001359
1.0013389
1.0014807
1.0015547
1.0015149
1.0016761
1.0017306
1.001712
1.0018659
1.0018958
1.0019117
1.0020506
1.0020226
1.0021001
1.0021784
1.0021385
1.0022649
1.0022318
1.0022975
1.0023045
1.0023865
1.002397
1.0024716
1.0024875
1.0009187
1.0010206
1.0012755
1.0014087
1.0014516
1.0014611
1.0016068
1.0016317
1.0016078
1.0017739
1.0017923
1.001757
1.0019535
1.0018721
1.0019579
1.0020635
1.0019817
1.0021515
1.0020941
1.0021748
1.0021887
1.0022289
1.002239
1.0023154
1.0023202
1.0023928
1.002438
1.0008877
1.0012241
1.0013372
1.001482
1.0015308
1.0014994
1.0016314
1.0016644
1.0016553
1.0017558
1.0017795
1.0018153
1.0018764
1.0018801
1.0019637
1.0019611
1.0020344
1.0020186
1.0021016
1.002116
1.002129
1.0021788
1.0021797
1.0022244
1.0022676
1.0022915
1.0023969
1.0011033
1.0012626
1.0014163
1.0015167
1.001527
1.0015984
1.0016043
1.001638
1.0017777
1.0016602
1.001798
1.001858
1.0017549
1.0019835
1.0018442
1.0019503
1.0020059
1.0019372
1.0021157
1.0019738
1.0021762
1.0020355
1.0022169
1.0020866
1.0022645
1.0021836
1.002325
1.0011728
1.0012624
1.0014206
1.0014819
1.0015372
1.0016244
1.001613
1.0016389
1.0017154
1.0017202
1.0017638
1.0018028
1.0018232
1.0018411
1.0018883
1.0019113
1.0019149
1.0019717
1.0019888
1.0019894
1.0020854
1.0020139
1.0021241
1.0020834
1.0021689
1.002142
1.0022529
1.0011704
1.0012536
1.0014616
1.0014834
1.0015748
1.0016716
1.0015978
1.0016636
1.0017444
1.0016879
1.0017289
1.0018171
1.0017871
1.0018012
1.0018718
1.0018594
1.0018706
1.0019222
1.0019211
1.0019643
1.0019811
1.0019988
1.0020229
1.0020346
1.0020926
1.0020627
1.0021943
1.0011615
1.0013603
1.0014833
1.0015746
1.0015623
1.0016764
1.001657
1.0015945
1.0017502
1.0016656
1.0017104
1.0017878
1.0016834
1.001858
1.0017261
1.0018435
1.0018357
1.0017871
1.0019374
1.0018223
1.0019487
1.0018947
1.0019746
1.0019106
1.0020486
1.0019396
1.0021345
1.0012658
1.0013585
1.0014947
1.001553
1.0016214
1.0016045
1.0016251
1.0016588
1.0016026
1.0017298
1.0016309
1.001669
1.0017967
1.0016396
1.0017905
1.0017329
1.0017995
1.0017464
1.0018091
1.0018509
1.0017674
1.0019289
1.001783
1.0019471
1.0018596
1.0019558
1.0019576
1.0012171
1.0012876
1.0014481
1.0015095
1.0015324
1.0016327
1.0015733
1.0015772
1.0016676
1.0016004
1.0016196
1.0016711
1.001657
1.0016827
1.0016622
1.0017109
1.0017217
1.0017086
1.0017612
1.0017208
1.0017881
1.0017663
1.0017768
1.0018348
1.0017982
1.0018563
1.0018736
1.00115
1.0012525
1.0013691
1.00146
1.001573
1.0015524
1.0015434
1.0016132
1.0015719
1.0016159
1.0016036
1.0015816
1.0016526
1.001602
1.0016623
1.0016281
1.0016316
1.0017252
1.0016147
1.0017106
1.0017259
1.0016703
1.0017165
1.0017448
1.0017003
1.0017828
1.0017979
1.0011551
1.0012729
1.0013817
1.0014976
1.0015674
1.0014922
1.0015799
1.0015867
1.0014857
1.0016244
1.0015424
1.0015248
1.0016048
1.0015161
1.0016564
1.0014828
1.0016402
1.0016035
1.0015611
1.0016716
1.0015787
1.0016755
1.001588
1.0017201
1.0015866
1.0017361
1.0016822
1.0012376
1.0012546
1.0013807
1.0014626
1.0015283
1.0014884
1.0015406
1.0015096
1.0014837
1.0015511
1.0015085
1.0014935
1.0014891
1.0015169
1.0015282
1.0014551
1.0015921
1.0014939
1.0015494
1.0015775
1.0015279
1.0016102
1.0015102
1.0016652
1.0014911
1.001657
1.0015794
1.001143
1.0012441
1.0013309
1.0013743
1.0015165
1.0014145
1.0014453
1.0015137
1.0013581
1.0015252
1.0014368
1.0013846
1.0015264
1.0013486
1.0015077
1.0014172
1.0014716
1.0014652
1.0014527
1.0015603
1.0014172
1.0015713
1.0014428
1.0015793
1.0014395
1.0015781
1.0015053
1.0010326
1.0011789
1.0012294
1.00136
1.0014156
1.0013506
1.0014104
1.0013895
1.0013534
1.0014094
1.0013624
1.0013885
1.0013738
1.0013547
1.001381
1.0013959
1.0013884
1.0013393
1.0014689
1.0013811
1.0014201
1.0014323
1.0014475
1.0014382
1.0013993
1.0014802
1.0014516
1.0010004
1.0011363
1.0011933
1.0012772
1.0013694
1.0012813
1.0013491
1.0013661
1.0012438
1.0013729
1.001304
1.0013215
1.0013516
1.0012212
1.001411
1.0012863
1.0013356
1.0013273
1.0013212
1.0014076
1.0012956
1.0014018
1.0013412
1.0014168
1.0012969
1.0014141
1.0013605
1.001034
1.0010969
1.0011767
1.0011773
1.0012832
1.001254
1.0012317
1.0013409
1.0011517
1.0012785
1.0012879
1.0011615
1.0013343
1.0011286
1.0013215
1.0012323
1.0011895
1.0013536
1.0011276
1.0014054
1.0011492
1.0013427
1.001247
1.0012975
1.0012599
1.0012885
1.0012853
1.0010458
1.0010643
1.0010666
1.0010968
1.0012324
1.0011519
1.0011901
1.0012137
1.001075
1.0012715
1.00115
1.0011242
1.0012242
1.001075
1.0012831
1.0010701
1.0011864
1.0012232
1.0011149
1.0012714
1.0010787
1.0013004
1.0011378
1.0012393
1.0011401
1.0012456
1.0011951
1.0009658
1.0009793
1.0009424
1.0010591
1.001092
1.0010557
1.0011693
1.0010369
1.0010906
1.0011267
1.0010275
1.0011487
1.0010199
1.001116
1.0011037
1.0009916
1.0011549
1.0010309
1.0011626
1.0010309
1.0011029
1.0011289
1.0010928
1.0011418
1.0010343
1.0011464
1.0011
1.0008475
1.000827
1.0009007
1.0009147
1.0009963
1.0010377
1.0010005
1.0009882
1.0009763
1.0010318
1.0009941
1.0009724
1.0009695
1.0009839
1.0010421
1.0009408
1.0009865
1.0009568
1.0010394
1.0009855
1.0009961
1.0009982
1.0009577
1.0010733
1.0009428
1.0010238
1.0009778
1.0007623
1.0007101
1.000772
1.0008735
1.0008776
1.0009729
1.0009209
1.0008607
1.0009575
1.0008597
1.0009642
1.0008849
1.0008368
1.0009673
1.0008322
1.00099
1.0008065
1.0009239
1.0009242
1.0008621
1.0009763
1.0007983
1.0009728
1.0008746
1.0009229
1.0008501
1.0008894
1.0006954
1.0006239
1.0007102
1.0008161
1.0007619
1.000881
1.0008268
1.0008107
1.0008968
1.0007211
1.0009035
1.0007739
1.000804
1.0008668
1.0006991
1.0009403
1.0006781
1.0008967
1.0007667
1.0007975
1.000881
1.0007026
1.0009094
1.0007034
1.0008712
1.0007516
1.0008085
1.0007403
1.0005832
1.000663
1.0006943
1.000724
1.000754
1.0007459
1.0007835
1.0007155
1.0007214
1.0007518
1.000733
1.0007405
1.0006731
1.0006944
1.0007643
1.000678
1.0007518
1.0006346
1.0006937
1.0007687
1.00068
1.0007697
1.0005975
1.0007149
1.000706
1.0007374
1.0008509
1.0005484
1.0005849
1.0006289
1.0006154
1.0007104
1.0006388
1.0007099
1.0006547
1.0006054
1.000719
1.0005877
1.000724
1.00056
1.0006256
1.0006607
1.0005668
1.000737
1.0004946
1.0006811
1.0005579
1.0006625
1.000638
1.0005778
1.0006089
1.0005758
1.0006119
1.000768
1.0004921
1.0005132
1.0005365
1.0005421
1.0006242
1.000545
1.0006542
1.0005697
1.0005442
1.0006071
1.0004963
1.0006671
1.0004854
1.0005744
1.0005119
1.0004869
1.0006364
1.0004438
1.0006409
1.0004146
1.0005819
1.000494
1.0005579
1.0005291
1.0004744
1.0004698
1.0006105
1.000443
1.0004521
1.0004823
1.0004516
1.0004774
1.0004796
1.0005722
1.0005339
1.0004783
1.0004847
1.0003989
1.000574
1.0004389
1.000524
1.0004061
1.0003786
1.000514
1.0003713
1.0005815
1.0003264
1.0004738
1.0003741
1.000475
1.0004493
1.000403
1.0003784
1.0004785
1.0003507
1.0003843
1.0003749
1.0004195
1.0003655
1.0004273
1.0004681
1.0004287
1.0004671
1.0003384
1.0004215
1.0003825
1.0004045
1.0004211
1.0003164
1.0003957
1.0003122
1.0004027
1.000344
1.0003617
1.0003315
1.0003652
1.0003549
1.0003394
1.0003178
1.0003082
1.0004704
1.0002712
1.0002629
1.0002789
1.0003588
1.0003135
1.0003795
1.0003424
1.0003446
1.0003825
1.000298
1.0003977
1.0002642
1.0003322
1.0002817
1.000288
1.0003514
1.0002395
1.0003462
1.000171
1.0003359
1.000227
1.0003447
1.000256
1.0002358
1.0002216
1.0002234
1.0004937
1.000201
1.0001365
1.0002047
1.0002711
1.0003095
1.0003253
1.0002378
1.000261
1.0002557
1.000286
1.0003335
1.0002108
1.0002473
1.0001454
1.0002401
1.0002623
1.0002116
1.0002627
1.0000939
1.0002379
1.0001562
1.0002654
1.0002041
1.000164
1.0001446
1.0001331
1.0005648
1.0001465
1.0000548
1.0001186
1.0002271
1.0002956
1.0002412
1.0001869
1.0001695
1.0001708
1.0002561
1.0002449
1.0001819
1.0001565
1.0000766
1.000163
1.0001795
1.0001555
1.0001772
1.0000551
1.0001301
1.0001065
1.0001543
1.0001483
1.0000947
1.0000843
1.0000643
1.0006145
1.0001352
1.0000105
1.0000645
1.0001763
1.0002388
1.000182
1.0001406
1.0001189
1.0001225
1.0001829
1.0001828
1.0001201
1.0001102
1.0000463
1.0000929
1.0001153
1.0000831
1.0001123
1.0000121
1.0000796
1.0000315
1.0000857
1.0000547
1.0000557
1.0000308
1.0000185
1.0006486
1.0001518
1.0000062
1.0000457
1.0001181
1.0001531
1.0001275
1.0000919
1.0000925
1.0001033
1.0001062
1.0001231
1.0000501
1.0000538
1.000023
1.0000427
1.0000692
1.0000151
1.0000452
0.99996213
1.0000323
0.99998442
1.0000358
0.99999169
1.0000002
0.99997232
0.99996041
1.0006812
1.0001773
0.99999516
1.0000253
1.0000699
1.0000838
1.0000706
1.0000453
1.0000461
1.0000681
1.0000679
1.0000603
1.0000074
0.99998721
0.99998692
0.99999932
1.0000198
0.99997998
0.99997282
0.99991972
0.99995578
0.99995599
0.99998789
0.99997085
0.99994604
0.99991007
0.99990389
1.0007192
1.000196
0.9999687
0.99998091
1.0000232
1.0000449
1.0000287
1.000009
1.0000027
1.0000235
1.0000233
1.000013
0.99997574
0.99994282
0.99994515
0.99994478
0.99997704
0.99994582
0.99993524
0.99989032
0.99989615
0.99991702
0.999946
0.99994342
0.99991448
0.99986867
0.99986313
1.0007658
1.0002011
0.99993611
0.99993045
0.99997866
1.0000113
1.0000096
0.99998529
0.99996018
0.99996947
0.99996829
0.99998938
0.99995517
0.99994854
0.99990527
0.99991515
0.99991083
0.99991998
0.99990964
0.99988186
0.99988435
0.99988504
0.99990433
0.99989862
0.99986813
0.99985232
0.99984058
1.0007238
1.0001953
0.99992177
0.99989657
0.99994156
0.99995996
0.99997665
0.99996104
0.9999389
0.99995217
0.99992041
0.99996862
0.99990689
0.99994426
0.99987146
0.99990481
0.99987177
0.9999002
0.99988049
0.99987593
0.99986586
0.99986609
0.99988228
0.9998688
0.9998638
0.999846
0.99984384
1.0007945
1.0001869
0.99992606
0.99987974
0.99991241
0.99991883
0.99992914
0.99995213
0.99992066
0.99995884
0.99989536
0.99994825
0.99986738
0.99993564
0.99985451
0.99991259
0.99986449
0.99988572
0.99988876
0.99984943
0.99989787
0.99981587
0.9999106
0.99982253
0.99989477
0.99982681
0.99985453
1.0006997
1.00019
0.99992927
0.99988405
0.99989125
0.99992983
0.99989742
0.99996941
0.99989765
0.99997106
0.99987341
0.99994303
0.99986969
0.99991684
0.99991009
0.99986433
0.99993452
0.99980492
0.99995016
0.99979251
0.99995103
0.99980593
0.99991658
0.99982829
0.99987518
0.99983999
0.99984692
1.0008694
1.0002121
0.99994063
0.99991116
0.99990103
0.99996392
0.99989806
0.99998699
0.99989122
0.99998314
0.99988895
0.99992932
0.99992196
0.99985962
0.99998801
0.99979911
1.0000148
0.99977048
0.99998284
0.9998124
0.99992203
0.99989344
0.99984348
0.99992573
0.99980909
0.99990851
0.99983777
1.0009368
1.0002729
0.99994502
0.99993744
0.99994217
0.99996486
1.0000009
0.9999149
1.0000161
0.99986317
1.0000295
0.99986928
0.99998801
0.99990666
0.99988947
0.99998649
0.99980556
1.0000557
0.99976603
1.0000466
0.9997978
0.99998146
0.9998788
0.99990452
0.99991698
0.99986499
0.99989171
1.0008062
1.0003009
1.0000226
0.99991472
1.0000055
1.0000122
1.0000003
1.0000216
0.99994745
0.99997649
0.99997348
0.99997689
0.9999943
0.99993414
0.99994579
0.99993001
0.99994517
0.99997935
0.99994089
0.99996236
0.99991258
0.99995054
0.99994024
0.99996097
0.99994232
0.9999253
0.99991222
1.0011617
1.0003592
1.0000704
0.99997408
1.0000162
1.0000803
1.0000015
1.0000909
0.99996491
1.0000397
1.0000044
0.99999568
1.0000638
0.99993098
1.0000589
0.99992204
1.0000397
1.0000041
0.99997877
1.0000691
0.99989465
1.0000991
0.99990063
1.0000955
0.9999314
1.0000164
0.99994231
1.0011659
1.0004323
1.0000981
1.0000527
1.0000151
1.0001435
1.0000095
1.0001
1.0000401
1.0000116
1.0000965
0.99999306
1.0000818
0.99998833
1.0000555
0.99996543
1.0001077
0.99995216
1.0001488
0.99995126
1.000111
0.99999492
1.0000497
1.0000508
1.0000215
1.0000411
0.99999896
1.0010456
1.000575
1.0000816
1.0001314
1.0000934
1.0001153
1.0002137
0.99997304
1.0002057
0.99995682
1.0001618
1.0001123
1.0000124
1.0001845
0.99986376
1.0002398
0.99994297
1.0002097
1.0000326
1.0000499
1.0001091
1.0000146
1.0002004
1.0000307
1.0001351
1.0000069
1.0000647
1.0014406
1.0006397
1.0001856
1.0001634
1.0001214
1.0002018
1.0001823
1.000109
1.0001634
1.0000479
1.0001653
1.0001459
1.0000841
1.0001575
0.99996841
1.0001803
1.0000923
1.000132
1.0001715
0.99997236
1.0001772
1.0000461
1.0002286
1.0001036
1.0001114
1.0000488
1.0000964
1.0013792
1.0007678
1.0002435
1.0002789
1.0001742
1.0002164
1.000296
1.0000996
1.0003093
1.0000648
1.0001895
1.0002238
1.0000473
1.0002973
0.99996784
1.0002515
1.0000905
1.0001407
1.0002395
1.000006
1.0002561
1.0000508
1.0002537
1.0001066
1.000181
1.0001079
1.0001839
1.0013528
1.0008952
1.0003595
1.0003443
1.0003155
1.0002347
1.0004195
1.0001869
1.0003408
1.0002239
1.000177
1.0003808
1.0000682
1.0003677
1.0000818
1.00024
1.0002548
1.0001174
1.0003655
1.0000203
1.0003518
1.0001081