-0.5 	1.0061139
-0.48412699 	1.0143887
-0.46825397 	1.0166668
-0.45238095 	1.0180558
-0.43650794 	1.0189783
-0.42063492 	1.019547
-0.40476191 	1.0199319
-0.3888889 	1.0202839
-0.37301588 	1.0205153
-0.35714287 	1.0205215
-0.34126985 	1.0204983
-0.32539684 	1.0203708
-0.30952379 	1.0202871
-0.29365078 	1.0201241
-0.27777776 	1.0198705
-0.26190475 	1.0196356
-0.24603173 	1.0193015
-0.23015872 	1.0189819
-0.2142857 	1.0185845
-0.19841269 	1.0182086
-0.18253967 	1.0178182
-0.16666666 	1.0174408
-0.15079364 	1.0170682
-0.13492063 	1.0166998
-0.11904758 	1.0163419
-0.10317457 	1.0160112
-0.087301552 	1.015739
-0.071428537 	1.0155011
-0.055555522 	1.0153009
-0.039682507 	1.0151536
-0.023809493 	1.0150764
-0.0079364777 	1.0151607
0.0079365373 	1.015363
0.023809552 	1.0157203
0.039682567 	1.0161524
0.055555582 	1.0165691
0.071428597 	1.0168111
0.087301612 	1.0168177
0.10317463 	1.0168006
0.11904764 	1.0166734
0.13492066 	1.0162564
0.15079367 	1.015522
0.16666669 	1.0145005
0.1825397 	1.0133978
0.19841272 	1.0123105
0.21428573 	1.0113112
0.23015875 	1.0104332
0.24603176 	1.0095626
0.26190484 	1.0085477
0.27777785 	1.0072577
0.29365087 	1.0058282
0.30952388 	1.0047554
0.3253969 	1.0047533
0.34126991 	1.0058616
0.35714292 	1.0073953
0.37301594 	1.0083599
0.38888895 	1.0079712
0.40476197 	1.005814
0.42063499 	1.0018931
0.436508 	0.99837041
0.45238101 	0.99805533
0.46825403 	0.99563496
0.48412704 	0.99153786
0.5 	0.97696864
