-0.5 	1.0061139
-0.48412699 	0.99587556
-0.46825397 	0.99179264
-0.45238095 	0.98891086
-0.43650794 	0.98640935
-0.42063492 	0.98429713
-0.40476191 	0.98247441
-0.3888889 	0.98065855
-0.37301588 	0.97906074
-0.35714287 	0.97754296
-0.34126985 	0.97631852
-0.32539684 	0.97496716
-0.30952379 	0.97397363
-0.29365078 	0.97289417
-0.27777776 	0.97205225
-0.26190475 	0.97120747
-0.24603173 	0.9705114
-0.23015872 	0.96987081
-0.2142857 	0.96930382
-0.19841269 	0.96883006
-0.18253967 	0.9684275
-0.16666666 	0.9681357
-0.15079364 	0.96790233
-0.13492063 	0.96778074
-0.11904758 	0.96779064
-0.10317457 	0.96789438
-0.087301552 	0.96818307
-0.071428537 	0.96849921
-0.055555522 	0.96908778
-0.039682507 	0.96971072
-0.023809493 	0.97049136
-0.0079364777 	0.97140968
0.0079365373 	0.97259153
0.023809552 	0.97395958
0.039682567 	0.97539185
0.055555582 	0.97686555
0.071428597 	0.9781335
0.087301612 	0.97908045
0.10317463 	0.97987015
0.11904764 	0.98075482
0.13492066 	0.98128504
0.15079367 	0.98150471
0.16666669 	0.98175247
0.1825397 	0.98198337
0.19841272 	0.98207262
0.21428573 	0.98201339
0.23015875 	0.98187808
0.24603176 	0.98163743
0.26190484 	0.9812065
0.27777785 	0.9805971
0.29365087 	0.9799241
0.30952388 	0.97955311
0.3253969 	0.97971371
0.34126991 	0.979528
0.35714292 	0.97753332
0.37301594 	0.97496484
0.38888895 	0.97480151
0.40476197 	0.97515265
0.42063499 	0.97436812
0.436508 	0.97248988
0.45238101 	0.96638603
0.46825403 	0.95868807
0.48412704 	0.95594405
0.5 	0.97696864
