/*--------------------------------*- C++ -*----------------------------------*\
| =========                 |                                                 |
| \\      /  F ield         | OpenFOAM: The Open Source CFD Toolbox           |
|  \\    /   O peration     | Version:  2406                                  |
|   \\  /    A nd           | Website:  www.openfoam.com                      |
|    \\/     M anipulation  |                                                 |
\*---------------------------------------------------------------------------*/
FoamFile
{
    version     2.0;
    format      ascii;
    arch        "LSB;label=32;scalar=64";
    class       volScalarField;
    location    "140";
    object      rho_0;
}
// * * * * * * * * * * * * * * * * * * * * * * * * * * * * * * * * * * * * * //

dimensions      [1 -3 0 0 0 0 0];

internalField   nonuniform List<scalar> 
20580
(
1.0016238
1.0053203
1.0040209
1.0026281
1.0011126
1.0006838
1.0026912
1.0028197
1.0017624
1.0017939
1.0022772
1.0020965
1.0018483
1.0013701
1.0024686
1.0018703
1.0007957
1.0044379
1.0020623
0.99940373
1.0039917
1.0042353
1.0005512
1.0002211
1.0079079
1.0046107
0.99730112
1.0010695
0.99952283
0.99304661
1.0061267
1.0018726
1.005361
1.0039285
1.0030512
1.0015656
1.0007499
1.0028182
1.0029969
1.0018009
1.0016315
1.0023863
1.0022383
1.0013039
1.0018268
1.0026684
1.0013081
1.0016887
1.0051182
0.99987013
1.0001283
1.0058442
1.0026912
1.0005457
1.0023447
1.0086054
1.0030857
0.99235101
0.99822654
1.0058347
0.99749457
0.99648201
1.0020256
1.004357
1.0026517
1.0030858
1.0022868
1.0016737
1.0026028
1.0026651
1.0019608
1.0016388
1.0023049
1.002468
1.0010823
1.0023887
1.0026822
1.0008948
1.0023889
1.0053409
0.99844925
1.0008673
1.0066698
1.0011329
1.0002493
1.0028749
1.0075799
1.0022386
0.99039792
0.99588965
1.0105102
1.0049855
0.99063252
1.001927
1.0027529
1.0009336
1.0026092
1.0028361
1.0030086
1.0023457
1.0020764
1.0021645
1.0018631
1.002194
1.0023977
1.0013359
1.00263
1.0026035
1.0010206
1.0027828
1.0046978
0.99828167
1.0019314
1.0060996
0.99922563
1.0002939
1.002421
1.004528
1.0020871
0.99277275
0.99529699
1.0110381
1.012654
0.99274485
1.0017267
1.0013489
0.99988832
1.0019146
1.0030301
1.0038867
1.002248
1.0016237
1.0022219
1.0021949
1.0021887
1.0020661
1.0019715
1.0025854
1.0025475
1.0014466
1.0029704
1.0031279
0.99904572
1.003451
1.0048952
0.99726875
1.0013693
1.0025022
1.0001308
1.0017325
0.99837319
0.99722208
1.007202
1.0147028
1.0010468
1.001558
1.0008007
1.0002551
1.0012274
1.0028417
1.003703
1.0022062
1.0016924
1.0021888
1.002461
1.0022696
1.0017172
1.0024211
1.0025105
1.0021664
1.0020124
1.0031916
1.0011225
1.000371
1.0046756
1.0031654
0.99662105
1.0031531
1.0037754
0.99649636
1.0004913
1.0047235
1.0011977
1.0014608
1.0086014
1.0084373
1.0015174
1.0011534
1.0017222
1.0007185
1.002306
1.0026247
1.0021543
1.0021603
1.0022807
1.0025834
1.0023722
1.0014871
1.0026921
1.0024085
1.0016299
1.0024107
1.003303
0.99961603
1.0018685
1.0054546
1.0014664
0.99679515
1.0049074
1.0058466
0.99503138
0.9984227
1.0092729
1.0059758
0.99614134
0.99727071
1.0074213
1.0015506
1.0022865
1.0033713
1.0009122
1.001843
1.0012922
1.0019741
1.002468
1.0022917
1.0025386
1.0022412
1.0015802
1.0027229
1.0022578
1.001152
1.0025743
1.0034211
0.99887896
1.0031906
1.0051579
1.00048
0.99783484
1.0057289
1.0075936
0.99607514
0.99660392
1.0100785
1.0103432
0.9946615
0.98707922
0.99795524
1.0016404
1.0038362
1.0042045
1.0019426
1.0017822
1.0005534
1.0017379
1.002433
1.0021119
1.0024393
1.001952
1.0018931
1.0027426
1.0020066
1.0011661
1.0026675
1.0032974
0.99909021
1.0041201
1.0038425
0.99969914
1.0000276
1.0051655
1.0072041
0.99910626
0.99627529
1.0069431
1.0115711
0.99814705
0.98465647
0.98858536
1.0019155
1.0050051
1.0036925
1.0031654
1.0019871
1.0009254
1.0017918
1.0022104
1.002007
1.0023269
1.0017703
1.0021703
1.0024718
1.0017081
1.0014885
1.0024003
1.0027803
0.99988955
1.0047787
1.0021728
0.99892013
1.002744
1.003512
1.0036733
1.0023051
0.9984705
1.0020322
1.0073444
1.0034133
0.99138618
0.9878954
1.0020873
1.0052825
1.0022229
1.0039334
1.0023545
1.002228
1.0022072
1.0020154
1.0021164
1.0022219
1.0017855
1.002394
1.0018736
1.0016806
1.0019435
1.002143
1.0018726
1.0011699
1.0050002
1.0005522
0.99885236
1.00552
1.0020151
0.99845533
1.0037229
1.0030188
0.9982907
0.99914844
1.0047529
1.0029897
0.99647457
1.0019433
1.0046421
1.0007886
1.0039857
1.0027506
1.0036447
1.0028667
1.0022286
1.0024919
1.0021126
1.0019977
1.0024841
1.0015572
1.0017232
1.0026444
1.0020978
1.0010969
1.0025014
1.0046154
0.99925472
0.99901311
1.0076318
1.0015621
0.99398607
1.0026459
1.008143
0.99824615
0.99205822
1.0002484
1.0109423
1.0092133
1.0015824
1.0034217
1.0002649
1.0031497
1.0028566
1.0042648
1.0033551
1.0027704
1.0028509
1.0018593
1.0024162
1.0025842
1.0017895
1.0018619
1.0033189
1.0022644
1.0007134
1.0035043
1.0040226
0.99904856
0.99914043
1.0084925
1.0020678
0.9919733
1.0004011
1.0110056
1.0017402
0.99008323
0.99392921
1.0107389
1.0171826
1.001614
1.001995
1.0009533
1.0016921
1.0026582
1.0036957
1.003176
1.003023
1.0028709
1.0016505
1.0027626
1.0027305
1.0021548
1.0021354
1.0033771
1.002397
1.0006251
1.004025
1.0027822
0.99998914
1.0002696
1.0076464
1.0028181
0.99343449
0.99925442
1.0099526
1.0056848
0.99320017
0.99202048
1.0039196
1.0155007
1.0018521
1.0012257
1.0024846
1.0005804
1.0024642
1.0023513
1.0025616
1.0028107
1.0025079
1.0019848
1.0027266
1.0028052
1.0022989
1.0023419
1.0029796
1.0025829
1.0008709
1.004169
1.0011629
1.0011258
1.0020474
1.0049489
1.0027734
0.99765767
1.0002593
1.005798
1.0064893
0.99943377
0.99544571
0.99826848
1.0056434
1.0019392
1.001595
1.0038405
1.0006469
1.0023244
1.0011952
1.0019291
1.0025009
1.0021476
1.00281
1.0024207
1.0026548
1.0024026
1.0026642
1.002345
1.0027943
1.0014847
1.0040848
0.99970375
1.0024511
1.0040847
1.0014901
1.0010117
1.0027502
1.002919
1.0010744
1.0023547
1.0047386
1.0024538
0.9978265
0.99554238
1.0017388
1.0025357
1.0039723
1.0015595
1.0022877
1.0009517
1.0015556
1.0022964
1.0019538
1.0033522
1.0021699
1.0021479
1.0024537
1.0028087
1.0016654
1.0025929
1.0023483
1.003871
0.99866349
1.0036278
1.0060682
0.99899811
0.99814608
1.0064176
1.0066846
0.99825836
0.99562167
1.005435
1.0096569
1.0021505
0.99209513
1.0015313
1.0037736
1.0027594
1.0028809
1.0024306
1.0017451
1.0018948
1.0021978
1.0020773
1.0031251
1.002316
1.0016213
1.0023604
1.002797
1.001145
1.0020603
1.0029908
1.0036594
0.99855454
1.0037673
1.0071027
0.99805327
0.99578197
1.0073025
1.0100122
0.9977434
0.99113416
1.0016211
1.0126964
1.0083589
0.99508976
1.0016293
1.0047954
1.0012251
1.0041525
1.0026585
1.0030078
1.0027242
1.002215
1.0025543
1.0024465
1.0026263
1.001476
1.00239
1.0029401
1.0011225
1.0017351
1.0032483
1.0033721
0.99942754
1.0029762
1.0066778
0.99867948
0.99541103
1.0055134
1.0106022
0.9988055
0.991361
0.99736761
1.0095365
1.0109473
1.0007823
1.0015488
1.0051797
1.0004906
1.0046098
1.0028774
1.00406
1.0034474
1.0024714
1.0030355
1.0020159
1.0028795
1.0018285
1.0026749
1.0029084
1.0017166
1.0017581
1.0031918
1.0026316
1.0009184
1.0024754
1.0046101
1.000563
0.99746389
1.0032726
1.007211
1.0007878
0.9951816
0.99741557
1.0033233
1.0071897
1.0039346
1.0015015
1.0040966
1.0009621
1.0036488
1.0028707
1.0039031
1.003454
1.0024987
1.0029451
1.0020541
1.0027286
1.0024534
1.0028103
1.0024448
1.0024574
1.0019311
1.002929
1.0015257
1.0029371
1.0024246
1.0013257
1.0024275
1.0013734
1.0022368
1.001287
1.0010971
1.001033
1.0015895
0.99925274
0.99931223
1.0025023
1.0016629
1.0027945
1.0022717
1.0019397
1.0026907
1.0026606
1.0027314
1.0026733
1.0026152
1.0026266
1.0025142
1.0029857
1.0025967
1.0019314
1.0031572
1.002422
1.0028477
1.0004539
1.0049591
1.0030425
0.99847698
1.0029514
1.0061703
1.002933
0.99694275
0.99890062
1.0068512
1.008057
0.99986005
0.99353228
0.99855358
1.0020676
1.0017907
1.0042811
1.0011609
1.002892
1.0017563
1.0022928
1.0035139
1.0029827
1.0034371
1.002409
1.0037534
1.0027858
1.0018767
1.0037464
1.0033626
1.0036327
0.99996033
1.0062671
1.0043218
0.99741672
1.00197
1.0096045
1.0053635
0.99612546
0.99592831
1.0082919
1.0138404
1.0041304
0.9931158
0.99492749
1.0078212
1.0072029
1.0038694
0.99816502
0.9911745
0.98766026
0.99069539
0.99896799
1.0075071
1.0110046
1.0073533
0.999417
0.99510196
0.9992247
1.0084756
1.0139624
1.0086612
0.99432218
0.98215426
0.98097898
0.99164618
1.0095288
1.0226804
1.0092371
1.0052489
1.0021382
1.0016062
1.0035791
1.0058734
1.0060694
1.0034841
0.99684555
0.98903036
0.98452745
0.98712687
0.99717498
1.0110352
1.0197795
1.0170118
1.0047845
0.99248892
0.98858534
0.99326317
1.0021219
1.0084032
1.0061587
0.98775025
0.9895343
0.99760121
1.0084389
1.0173598
1.020505
1.0153463
1.0047197
0.99356701
0.98838637
0.99088392
0.99777077
1.0039538
1.0055388
1.0007533
0.99214791
0.98778566
0.99353509
1.007578
1.0206032
1.0225341
1.0106711
0.99164099
0.98837917
0.99404424
0.99947555
1.0034163
1.004304
1.0006233
0.99489379
0.99215919
0.99746722
1.0091553
1.0201556
1.0228193
1.0155872
0.9995071
0.98272294
0.97404344
0.97740504
0.99178954
1.0104315
1.0226292
1.0194727
1.0058594
0.99234785
1.0181703
1.0147679
1.0063902
0.99571909
0.98517516
0.97741185
0.97733917
0.98567018
0.99951308
1.0135422
1.0226612
1.0210029
1.0097387
0.99710969
0.99053483
0.99286655
1.0007441
1.0075942
1.0068081
0.99883776
0.98596339
0.97906664
0.98390558
1.0197861
1.012457
1.0040449
0.99667357
0.9938704
0.9965617
1.0009769
1.0045749
1.0040379
0.99953083
0.99238133
0.98396138
0.98040929
0.98597633
1.0023276
1.0231321
1.0363115
1.0327262
1.0139872
0.98796948
0.96881466
0.96355246
0.97278263
0.98545613
0.98439382
0.98951469
1.0017534
1.0179685
1.0310436
1.0349286
1.0277037
1.0115077
0.9924851
0.9759046
0.96831342
0.96982087
0.98240741
1.0008756
1.0200367
1.0306166
1.026186
1.0111855
0.99538967
0.98721578
0.98867258
0.99578194
0.97302276
0.97961776
0.99113235
1.0029134
1.0141372
1.0225684
1.0224325
1.0148213
1.0047802
0.99622586
0.99578893
1.0009822
1.0063747
1.008099
1.0046979
0.99764815
0.98923584
0.98110897
0.97867319
0.9862613
1.0048625
1.0280758
1.0427643
1.0126
1.0123355
1.0074375
0.9991937
0.98946337
0.98093643
0.97563811
0.97444015
0.98087365
0.99678948
1.0202492
1.0430726
1.0522326
1.0438682
1.0195802
0.99177162
0.96877004
0.95537799
0.95501104
0.96959133
0.99643539
1.0297514
1.0537748
1.0549074
1.039891
1.0171107
0.99507815
0.9780141
0.96701428
0.96212667
0.96387657
0.97441664
0.99272904
1.0158704
1.0389597
1.0500414
1.0415299
1.022375
1.0006036
0.98564566
0.98142251
0.98160969
0.98710737
0.99562727
1.0057457
1.0156418
1.0300214
1.0210803
1.0126543
1.0043179
0.99689813
0.99445602
0.99830376
1.0032504
1.0062114
1.004458
1.0002007
0.99728318
0.99538326
0.99429474
0.99389433
0.99828326
1.0106581
1.0286439
1.0401214
1.0387356
1.0242761
1.0005151
0.97927898
0.97893793
0.97797373
0.98331638
0.99837772
1.0212765
1.0474161
1.0643036
1.0637258
1.0438781
1.0154454
0.98907769
0.97106264
0.96025865
0.95361549
0.95732339
0.97407063
1.0069151
1.0508184
1.0860835
1.0877772
1.0596347
1.0166206
0.97701781
0.95499082
0.95879843
0.97091521
0.99355208
1.0269713
1.0655097
1.0921668
1.0907724
1.0646048
1.0262298
0.99248243
0.97151922
0.96008977
0.956592
0.95909468
0.97123402
0.99555789
1.0319898
1.0709703
1.0860578
1.0722404
1.037603
0.99894517
0.97346251
0.97945918
0.98894316
1.0044989
1.0233216
1.0431568
1.0576488
1.0577968
1.0467371
1.0283292
1.0097769
0.99681361
0.99238071
0.99414532
0.99588084
0.99679056
1.0000087
1.0100274
1.0251253
1.0386645
1.0374128
1.0284341
1.0175113
1.028746
1.0268391
1.0195812
1.0122786
1.0068054
1.0061784
1.0071227
1.0074631
1.0068728
1.0082349
1.015642
1.028493
1.0438416
1.0550503
1.0518538
1.0353224
1.0142615
0.998286
0.99008546
0.98985795
0.99185682
0.99584242
1.0061844
1.0918533
1.0734693
1.0412597
1.0111655
0.98934525
0.97997335
0.97632233
0.97522058
0.97735048
0.98530848
1.0066259
1.0421005
1.0845653
1.1141036
1.1083635
1.0718339
1.0277282
0.99192589
0.97325937
0.96460626
0.96220293
0.96829997
0.98532731
1.1347638
1.1033778
1.0540021
1.0094796
0.98215428
0.97057178
0.96733469
0.96699572
0.96673672
0.9739975
0.99767809
1.0444297
1.1035687
1.1488586
1.1453381
1.0975059
1.037983
0.99277123
0.96999863
0.95990397
0.95643744
0.95885116
0.97570482
1.1567783
1.1177849
1.0611321
1.0120146
0.98413584
0.973699
0.97292269
0.97459821
0.97237724
0.9763679
0.99696457
1.0446732
1.1088985
1.1608175
1.1617659
1.1113156
1.0463666
0.99771565
0.97433587
0.96409877
0.96295432
0.96329894
0.97646563
1.166826
1.1240409
1.0660334
1.0168407
0.99050838
0.98336902
0.98525787
0.9873342
0.98323895
0.98495159
1.0034421
1.0496072
1.1154538
1.1677933
1.1707308
1.1193422
1.0513561
1.0005008
0.97943586
0.97397141
0.97549473
0.97452148
0.98459356
1.1821594
1.135446
1.0746049
1.0228036
0.99480835
0.98821698
0.99299815
0.99833237
0.99494187
0.99617413
1.0136335
1.0595837
1.1267395
1.1832169
1.1830661
1.1240906
1.0521105
1.0031803
0.98432208
0.98305509
0.98760131
0.98379173
0.99186345
1.2077417
1.1527905
1.0837296
1.0260656
0.99598707
0.99094249
0.99771468
1.0042358
1.0023453
1.0045883
1.0245939
1.0759995
1.1509149
1.2087642
1.1977194
1.1258389
1.0473574
0.99951081
0.98601203
0.98888353
0.99415837
0.99184394
1.0033003
1.2450888
1.1789865
1.0951684
1.028139
0.99568768
0.99265093
1.0028752
1.0103927
1.008526
1.0131214
1.03954
1.0999811
1.1836234
1.2394625
1.2095795
1.1205718
1.0379608
0.99319992
0.98285468
0.98843623
0.99585409
1.0006488
1.0239436
1.2689264
1.2004729
1.1090837
1.035935
0.99889838
0.99556042
1.0089391
1.0185692
1.0199523
1.0270954
1.0575531
1.1288834
1.2189393
1.2667316
1.2126063
1.1101367
1.0256757
0.98780551
0.98429437
0.99469528
1.0001956
1.012986
1.0511343
1.255093
1.206219
1.1267661
1.0576932
1.014871
1.0105802
1.0260678
1.0393521
1.0445533
1.0564702
1.0895212
1.1574196
1.2370754
1.2678856
1.1990769
1.0976425
1.0201359
0.98899547
0.99183501
1.0061347
1.0136391
1.0366142
1.0969041
1.1915064
1.1797268
1.1368233
1.0874583
1.0553093
1.0531286
1.076278
1.0991451
1.1039038
1.1055148
1.1149544
1.1513152
1.2078553
1.2312908
1.1741289
1.0890455
1.0262276
1.005488
1.0176172
1.0367443
1.0471517
1.076495
1.1442682
1.2040431
1.1938475
1.158457
1.1284557
1.1213877
1.1464503
1.1945959
1.2111681
1.179936
1.1328854
1.1010226
1.1068847
1.1421778
1.1628856
1.1354944
1.0842959
1.0545093
1.0618156
1.0882775
1.0935444
1.0886265
1.1050023
1.156527
1.3889108
1.3636023
1.3063961
1.2343972
1.198481
1.2255066
1.2698226
1.2655717
1.1932803
1.1095362
1.0577192
1.0487578
1.0734558
1.094246
1.1033476
1.1093067
1.1389413
1.1805601
1.1859427
1.1374523
1.0928875
1.0874223
1.1123446
1.4183097
1.4018363
1.3915851
1.3390086
1.2366589
1.1798162
1.2002341
1.2174528
1.1736356
1.1031222
1.0535228
1.0446052
1.0675486
1.0895371
1.1264048
1.1805387
1.2551906
1.280144
1.2091198
1.1088186
1.0496697
1.0415934
1.0562056
1.4017045
1.3628651
1.3254835
1.286751
1.2292424
1.1430462
1.1213251
1.1567866
1.1772572
1.1656047
1.1399227
1.1311859
1.1384761
1.1412451
1.1549484
1.196592
1.2571872
1.2512208
1.1568143
1.0672663
1.0296492
1.0324347
1.0443618
1.3299967
1.3224836
1.2985943
1.2784201
1.2376871
1.1586713
1.115162
1.1476871
1.2063378
1.2500053
1.2602599
1.2332495
1.1863848
1.1398608
1.114439
1.1247704
1.1660466
1.1748119
1.1366867
1.0975214
1.0863728
1.0917578
1.0847946
1.2160308
1.2465846
1.3021137
1.333659
1.3100878
1.2155506
1.16429
1.1675111
1.1959386
1.2346655
1.256618
1.234889
1.1727586
1.1119364
1.0806166
1.0824667
1.1138741
1.1482536
1.1805104
1.2033883
1.1900386
1.1416792
1.0973732
1.2062386
1.2139349
1.2777833
1.3443996
1.3309854
1.2507625
1.1869389
1.1574946
1.1443266
1.1483514
1.1732134
1.191836
1.185458
1.1549034
1.1316917
1.1247806
1.134593
1.1622242
1.2080634
1.2483604
1.2186864
1.1361935
1.0773932
1.2724042
1.2409464
1.2468847
1.2607453
1.2558368
1.2313477
1.1990135
1.1641863
1.1402847
1.1330823
1.1432428
1.178318
1.2215903
1.2413706
1.2178263
1.176695
1.1426834
1.1307412
1.1521908
1.1872608
1.1843539
1.1501648
1.1151058
1.3145172
1.2632623
1.2225408
1.1958951
1.1778767
1.1835745
1.2045983
1.2208628
1.2159951
1.1985058
1.1809644
1.1838659
1.208176
1.2402054
1.2421152
1.1950281
1.1321411
1.1005767
1.1026081
1.1276761
1.1613105
1.1952054
1.2066734
1.2805476
1.2673684
1.2385497
1.2065293
1.1851561
1.1834588
1.206419
1.2432731
1.2648993
1.2474562
1.205269
1.1712682
1.1604615
1.1739329
1.2022277
1.2075839
1.1778211
1.1384128
1.1176084
1.1244624
1.159852
1.2098987
1.2269526
1.2577516
1.2521751
1.2561785
1.2549324
1.2393957
1.221536
1.2121123
1.2178504
1.2358346
1.2461592
1.2370492
1.2019772
1.1649062
1.1485106
1.1586766
1.1942455
1.2264992
1.2298162
1.1952745
1.1487193
1.1257761
1.1387534
1.1607592
1.2736336
1.255942
1.2537309
1.2624532
1.2688254
1.2634775
1.2436021
1.2187351
1.2042551
1.2072044
1.2209408
1.2306036
1.2260806
1.205784
1.1848149
1.1792098
1.1953112
1.2181411
1.2220044
1.1955183
1.1601272
1.1406015
1.1396465
1.3019453
1.2802417
1.2560338
1.2441055
1.2486395
1.2571816
1.2598519
1.247784
1.2269882
1.2111484
1.2106606
1.2276014
1.2497413
1.2577274
1.2401784
1.2073608
1.1819787
1.176745
1.1820538
1.1865346
1.1782356
1.1690888
1.1693388
1.294003
1.289078
1.2725121
1.253084
1.2408349
1.2432001
1.2559681
1.2676286
1.2702045
1.2596428
1.2424756
1.2317004
1.2343088
1.244156
1.2466184
1.2310074
1.2044885
1.1836595
1.1763577
1.1780372
1.1811364
1.1810233
1.1831128
1.2729258
1.2774344
1.2843815
1.2844283
1.2767726
1.2665431
1.2626473
1.2688328
1.279747
1.2840891
1.2749466
1.2546836
1.2344502
1.2239657
1.223012
1.2248583
1.2221522
1.2167571
1.2137315
1.212996
1.2098435
1.200781
1.1870828
1.2804552
1.2770424
1.2852445
1.2961683
1.3011147
1.2961411
1.2831716
1.271266
1.2672732
1.2703221
1.2743182
1.2708533
1.2585837
1.2447047
1.2354078
1.2322561
1.2329738
1.2339172
1.2339672
1.2326493
1.2279587
1.2161262
1.1943578
1.2987098
1.2916957
1.2851602
1.2850541
1.290638
1.2951387
1.2943822
1.2872287
1.2781591
1.2729756
1.2730003
1.2760517
1.2769028
1.2729993
1.2667527
1.2606064
1.2542977
1.2461609
1.2359696
1.2255287
1.2171198
1.2104284
1.1988659
1.2945523
1.295297
1.2902394
1.2842871
1.2829741
1.2880332
1.2967438
1.303509
1.3046759
1.3008801
1.2949267
1.2891149
1.2838903
1.2782984
1.2722119
1.2668624
1.2619961
1.2554298
1.2455476
1.233895
1.2243058
1.2197221
1.2160071
1.2942636
1.2996742
1.3007376
1.3008183
1.299895
1.3001928
1.3024633
1.3063292
1.3088592
1.307878
1.3040251
1.298185
1.2914125
1.2840723
1.2765247
1.2697967
1.265226
1.2625141
1.2597919
1.2552958
1.2495666
1.2448043
1.240099
1.3510417
1.3541314
1.3454119
1.3314479
1.3202539
1.31345
1.309038
1.3059103
1.3033523
1.3012365
1.2994873
1.2986752
1.2986877
1.2985039
1.2965212
1.2918136
1.2851584
1.2785828
1.2731541
1.2681771
1.262426
1.2558334
1.2475847
1.4269048
1.4238729
1.4119153
1.3896592
1.3612775
1.3358151
1.3195593
1.3124548
1.3108935
1.3115629
1.3118619
1.3112667
1.3099765
1.3083922
1.305966
1.3015089
1.2947489
1.2867621
1.2793579
1.273374
1.2681177
1.2623776
1.2546114
1.4347228
1.4387088
1.4391071
1.4341883
1.4210574
1.3984775
1.3711519
1.347471
1.3328539
1.3261363
1.3231101
1.3203171
1.3159849
1.310793
1.3057336
1.3013515
1.2972064
1.2929957
1.2889826
1.2856334
1.2825909
1.2785945
1.2717681
1.4306063
1.4364463
1.4396795
1.441994
1.4427147
1.4389172
1.4261872
1.4036623
1.3768555
1.3529876
1.336304
1.3261675
1.3202127
1.3162163
1.3135628
1.3120138
1.3107836
1.3086009
1.3047273
1.2994174
1.293498
1.2872276
1.2795448
1.4285121
1.435775
1.4377329
1.438194
1.4384606
1.4387835
1.4377437
1.4320133
1.418547
1.398249
1.3757793
1.3563637
1.3425969
1.3337891
1.328026
1.3238147
1.3201051
1.3160643
1.31094
1.3047623
1.298343
1.2925401
1.2866427
1.4207566
1.4296401
1.4339722
1.4365002
1.4376684
1.4378353
1.4373684
1.4359446
1.4322927
1.4239672
1.4099157
1.3918952
1.3734956
1.3576476
1.3452462
1.3357571
1.3284792
1.3229067
1.3185207
1.3146972
1.3109612
1.307063
1.3021093
1.4183737
1.4262694
1.4296146
1.4320195
1.4335491
1.4342112
1.4341335
1.4333874
1.4316139
1.4281803
1.4217792
1.4110146
1.3966719
1.3810395
1.3665175
1.3544569
1.3451587
1.3382729
1.3332586
1.3291723
1.3249864
1.319945
1.3131913
1.4146381
1.4225721
1.4254464
1.4273283
1.4288283
1.4298627
1.430351
1.4302508
1.4293894
1.4273877
1.4237405
1.4179153
1.4089215
1.397647
1.3856665
1.3745063
1.3648739
1.3568717
1.3501973
1.3444413
1.3388584
1.3328174
1.3251361
1.4095164
1.417726
1.4207927
1.4228552
1.4245438
1.4258624
1.4264882
1.4263154
1.425337
1.423666
1.4212911
1.4180222
1.4138623
1.4082918
1.4011714
1.3932776
1.3851891
1.3772632
1.3696907
1.3627266
1.3564435
1.3505781
1.3436319
1.4051405
1.4129876
1.4156482
1.4172506
1.4183619
1.4192676
1.4197627
1.4198274
1.419191
1.418205
1.4168832
1.4152125
1.4127252
1.4093143
1.405435
1.4011757
1.3967766
1.3922045
1.3874197
1.3823005
1.3771035
1.3719342
1.3659929
1.3998366
1.407155
1.4094186
1.4106633
1.411139
1.4112444
1.4109117
1.4102876
1.4092521
1.4080279
1.4067616
1.4055233
1.4041405
1.4022896
1.3998153
1.3970251
1.3941657
1.3913432
1.3884355
1.3855191
1.3825095
1.3795805
1.3766871
1.3950654
1.4012141
1.4023991
1.4024569
1.4019403
1.4006876
1.3990806
1.3970332
1.3947859
1.3922313
1.3895045
1.386802
1.3842816
1.3819696
1.3797791
1.3778349
1.3762134
1.3748132
1.3733866
1.371711
1.3700818
1.3689662
1.3691431
1.3896515
1.3945089
1.3944225
1.3932951
1.391438
1.3887627
1.3851217
1.3808251
1.3759044
1.370628
1.3649609
1.359341
1.3540759
1.3492842
1.3448694
1.3408321
1.3374022
1.3347324
1.3326945
1.3311225
1.3301123
1.330134
1.3316577
1.3838923
1.3873409
1.3858002
1.3830366
1.3793224
1.3746929
1.3688246
1.3618526
1.3539748
1.3454156
1.3363139
1.3269649
1.3177855
1.3089781
1.3005524
1.2924832
1.2850387
1.278561
1.2731756
1.2688599
1.2656408
1.2636285
1.2629934
1.3773416
1.3792797
1.3763979
1.3718738
1.3661059
1.3589962
1.3506003
1.3408255
1.329965
1.3182458
1.3058329
1.2928753
1.2796695
1.2665325
1.2536932
1.2411393
1.2292603
1.2182132
1.2082728
1.1995163
1.1920493
1.1859262
1.1809401
1.3706496
1.3707256
1.3659718
1.3594991
1.3514067
1.3418215
1.3308986
1.3186638
1.305194
1.2906705
1.2752182
1.259004
1.2422445
1.2253191
1.2085993
1.1922867
1.1765667
1.1615668
1.1473721
1.1341367
1.1221585
1.111927
1.10375
1.3634427
1.361654
1.3546175
1.3459317
1.3355715
1.3237199
1.3106004
1.2961862
1.2803742
1.2633005
1.2452913
1.226527
1.2072017
1.1875285
1.1679436
1.1488388
1.1303178
1.1123898
1.0950004
1.078357
1.062918
1.0488895
1.0382743
1.3571771
1.351992
1.3424356
1.3313986
1.3189508
1.3051922
1.2902815
1.2739788
1.2561519
1.2369456
1.2168092
1.1961677
1.1751122
1.153822
1.1326027
1.1117778
1.0914772
1.0717461
1.0526587
1.0342267
1.0173725
1.0067837
1.0036992
1.3504263
1.3417178
1.3299122
1.3167852
1.3023555
1.2868216
1.2701352
1.2521166
1.2326257
1.2117951
1.1903534
1.1685009
1.1463318
1.1240965
1.1020171
1.0804307
1.0593714
1.0390417
1.0198264
1.0058238
1.0015337
1.0008245
1.0008205
1.3437051
1.3312714
1.3170212
1.3017386
1.2856624
1.2687256
1.2507151
1.2312374
1.2101415
1.1881427
1.1660004
1.1435841
1.1208767
1.0981089
1.0757069
1.0539361
1.0328572
1.0136998
1.0029253
1.0010906
1.0011862
1.0011066
1.0009133
1.3370738
1.3202936
1.303444
1.2864941
1.2692694
1.2512642
1.2321821
1.2116697
1.1896745
1.1669977
1.1441374
1.1210672
1.0980229
1.0750477
1.0526416
1.0315897
1.0129684
1.0029714
1.0012264
1.0011903
1.0014491
1.0014197
1.0010488
1.3287792
1.3088304
1.2905031
1.2723696
1.2538419
1.2346313
1.2146392
1.1931991
1.1704546
1.1473069
1.1240401
1.1011984
1.0784141
1.055361
1.0335034
1.0144967
1.0039233
1.0020896
1.0015741
1.0014234
1.0015087
1.0015761
1.001172
1.3211874
1.2975482
1.2770762
1.257518
1.2381238
1.2186285
1.1983334
1.1763226
1.1531868
1.1295446
1.1061959
1.0836853
1.0609046
1.0385197
1.018497
1.005504
1.0023785
1.0018477
1.0013782
1.0015852
1.0020327
1.0021549
1.0017069
1.3126625
1.2856328
1.2637128
1.243296
1.223405
1.2036676
1.1829482
1.1607371
1.1373986
1.1134145
1.0902279
1.0677639
1.0452783
1.0241377
1.0082299
1.0027693
1.0027473
1.0024691
1.0020266
1.0018851
1.0022456
1.0024257
1.0019649
1.3027774
1.2737928
1.2512957
1.230171
1.2096863
1.1894551
1.1682729
1.1457342
1.1220787
1.0983284
1.0757383
1.0536539
1.0319718
1.013369
1.0039226
1.0028456
1.003052
1.0025607
1.0018598
1.0017899
1.0023776
1.00274
1.0022608
1.2936582
1.2621662
1.2386965
1.2169514
1.1961678
1.1755443
1.1542062
1.1319373
1.1084707
1.0850646
1.0627048
1.0407854
1.0205086
1.0066729
1.0025781
1.0025526
1.0028015
1.002611
1.0021291
1.0021509
1.0026134
1.0030949
1.002828
1.2836679
1.2506023
1.2267811
1.2044508
1.1831492
1.1625051
1.1416195
1.1193612
1.0955999
1.0722724
1.0501744
1.0290962
1.0116711
1.0034856
1.0025056
1.0029238
1.0032316
1.0027256
1.0020788
1.0021322
1.0028167
1.003428
1.0029903
1.2743301
1.23925
1.2148727
1.1923206
1.1708649
1.149958
1.1291184
1.1075377
1.0843208
1.0609781
1.0387019
1.0185979
1.0060953
1.0030388
1.00295
1.0030054
1.0029916
1.0025808
1.0021814
1.0020791
1.0026537
1.0034752
1.0034637
1.2642864
1.2281855
1.2037127
1.1810794
1.1594161
1.1385655
1.1181537
1.0965938
1.0732777
1.0501566
1.0281737
1.0105798
1.0034577
1.0026986
1.0029402
1.0034597
1.003475
1.0029135
1.0021722
1.0018987
1.002512
1.0033949
1.0033995
1.2548739
1.2173936
1.1929184
1.1708445
1.1493972
1.1281258
1.1071603
1.0855814
1.0628893
1.0400631
1.0191107
1.0061098
1.0032108
1.0033777
1.0032867
1.0033794
1.0032582
1.0028622
1.0021691
1.0017847
1.002388
1.0034839
1.0038292
1.2457421
1.2076245
1.1828933
1.1607493
1.1396979
1.1187666
1.0979205
1.0758224
1.0528739
1.0309751
1.0125874
1.0043073
1.0032773
1.0032114
1.0035709
1.0036735
1.0033891
1.0029894
1.0022624
1.0019908
1.0025295
1.0034122
1.0036463
1.2369212
1.1985105
1.1743541
1.1522928
1.1310723
1.1097962
1.0889138
1.0672651
1.0441856
1.0231911
1.0088529
1.0042292
1.0041574
1.0039486
1.0037574
1.0037456
1.0035137
1.0032813
1.0025368
1.0021192
1.0025413
1.0033809
1.0036044
1.2291839
1.1903487
1.1668941
1.145194
1.123942
1.1024887
1.0810845
1.0596924
1.0376564
1.018673
1.0078255
1.0045377
1.0049077
1.0052068
1.0047397
1.0042145
1.0036652
1.0036683
1.0032785
1.0027815
1.0027891
1.0033298
1.0036521
1.2230105
1.1836605
1.1606456
1.1395566
1.1186436
1.0975126
1.0760566
1.0547901
1.0341751
1.0172206
1.0084297
1.0062201
1.0063931
1.0067926
1.0064803
1.005784
1.0049929
1.0047842
1.0045862
1.0043704
1.0041581
1.0041688
1.0041185
1.2179256
1.1785524
1.1558359
1.135514
1.1153461
1.0948565
1.074106
1.0535288
1.0339688
1.0183564
1.0106765
1.0088598
1.0088298
1.009136
1.0091015
1.0087493
1.0083802
1.008192
1.0079526
1.0078141
1.0078386
1.0078057
1.0072142
1.2139387
1.1750472
1.1527646
1.1330287
1.1136742
1.0942297
1.0743366
1.0542192
1.0355231
1.0214471
1.0144807
1.0126294
1.0126086
1.0131492
1.0135509
1.0138469
1.0141929
1.0144316
1.0144146
1.0144783
1.0149578
1.0152909
1.0149135
1.2117457
1.1735372
1.1511242
1.1317024
1.1130398
1.0946196
1.0761497
1.0574636
1.0399777
1.0267552
1.0199442
1.0180536
1.0180062
1.0187697
1.019774
1.0211206
1.0225606
1.0236858
1.0244576
1.0253491
1.0267659
1.0280298
1.0284066
1.207719
1.1730039
1.1511141
1.1321404
1.1141563
1.0967006
1.0796463
1.0629109
1.0471945
1.034518
1.0269952
1.0246032
1.024849
1.0262432
1.0278383
1.0299469
1.032598
1.0352384
1.0375256
1.0397675
1.0423725
1.0448898
1.0465953
1.1961387
1.1721524
1.1527514
1.1354149
1.1187565
1.1023261
1.0862863
1.0710284
1.0570611
1.0452491
1.0368467
1.0326773
1.0319618
1.0333036
1.035676
1.0388536
1.0430145
1.0477056
1.0520735
1.0558239
1.0594331
1.0632864
1.067047
1.1852601
1.1729946
1.1560605
1.1406291
1.125923
1.11131
1.0967501
1.0827394
1.0699053
1.0587432
1.0497177
1.0434004
1.0401866
1.0397841
1.0416187
1.0449885
1.0495993
1.0553079
1.0615223
1.0674237
1.0727571
1.0779411
1.0831301
1.2229913
1.1892038
1.1690676
1.153071
1.1387232
1.1251118
1.1118516
1.0989527
1.0867014
1.0754925
1.0657005
1.0577471
1.0520784
1.0489548
1.0483751
1.0499394
1.0530768
1.0573659
1.0625263
1.0681748
1.0739461
1.0798091
1.0860929
1.2684159
1.2324148
1.2057666
1.1853861
1.1680753
1.1526004
1.1383442
1.1248972
1.1120478
1.0998908
1.0886967
1.0788441
1.0706896
1.0644953
1.0604345
1.0585034
1.0584993
1.0600561
1.0629909
1.0669571
1.0716304
1.0769199
1.0824186
1.2737253
1.2634626
1.2481034
1.231715
1.2152851
1.199013
1.183081
1.1676638
1.1528899
1.1388567
1.1256411
1.1133739
1.1021882
1.0922867
1.0839132
1.0773344
1.0727092
1.0699996
1.0690654
1.069795
1.0718246
1.0744347
1.0774544
1.2705805
1.2680546
1.2627635
1.2566664
1.2496389
1.241095
1.23098
1.2194714
1.2068818
1.1936566
1.1801486
1.1665986
1.1531926
1.1401603
1.1278852
1.1167064
1.1069352
1.0987343
1.092132
1.0871248
1.0837112
1.0818186
1.0801939
1.263198
1.2632275
1.2596192
1.2559514
1.2523578
1.2488121
1.2451829
1.2411089
1.2364795
1.2310763
1.2245608
1.2167285
1.2077428
1.1978194
1.1871863
1.1760539
1.1646629
1.1533796
1.1425341
1.1324041
1.1232484
1.115244
1.1073838
1.2455224
1.2459119
1.2421538
1.2397137
1.238259
1.2371145
1.2360505
1.2348389
1.2333525
1.2312655
1.2287496
1.225972
1.2229423
1.2196959
1.2160895
1.2118436
1.2067283
1.2009906
1.1945472
1.1874118
1.1796333
1.1712371
1.1619978
1.2176055
1.2167136
1.2091887
1.2044182
1.2018699
1.2009225
1.2010621
1.2018955
1.2031818
1.2047796
1.2062919
1.2074631
1.2081421
1.2081673
1.2075933
1.2066681
1.2052582
1.2033158
1.2010288
1.198564
1.196018
1.1936812
1.1914313
1.1954414
1.1828017
1.1702592
1.1615707
1.1554369
1.1509285
1.147722
1.1457709
1.1451239
1.1454084
1.1463971
1.1481624
1.1505724
1.1532867
1.1559153
1.1586037
1.1613998
1.1643745
1.1671126
1.1696344
1.1714616
1.1733023
1.1791725
1.1780613
1.1521584
1.1358232
1.1245566
1.1159434
1.1085182
1.1016749
1.0952194
1.0897155
1.0854213
1.0820685
1.079434
1.0775064
1.0762282
1.0759025
1.0768628
1.0788006
1.0816964
1.0853419
1.0893308
1.0939927
1.0990786
1.1064504
1.1609473
1.1272805
1.1106578
1.0991905
1.0896668
1.0808377
1.0722254
1.0637653
1.0557415
1.0485374
1.0423713
1.0373111
1.0330594
1.029363
1.0264833
1.0246671
1.0238351
1.0237719
1.0242173
1.0251125
1.0267686
1.0289361
1.0325231
1.1471374
1.1127469
1.0978468
1.0874105
1.0782394
1.0692808
1.0603511
1.0516366
1.0435469
1.0364197
1.0302666
1.0247229
1.0198044
1.0157293
1.0122132
1.0099977
1.0083798
1.0069342
1.0059977
1.0052784
1.0055035
1.0057795
1.0067683
1.1363125
1.1043542
1.0916208
1.0822312
1.073836
1.065482