/*--------------------------------*- C++ -*----------------------------------*\
| =========                 |                                                 |
| \\      /  F ield         | OpenFOAM: The Open Source CFD Toolbox           |
|  \\    /   O peration     | Version:  2406                                  |
|   \\  /    A nd           | Website:  www.openfoam.com                      |
|    \\/     M anipulation  |                                                 |
\*---------------------------------------------------------------------------*/
FoamFile
{
    version     2.0;
    format      ascii;
    arch        "LSB;label=32;scalar=64";
    class       volVectorField;
    location    "140";
    object      U_0;
}
// * * * * * * * * * * * * * * * * * * * * * * * * * * * * * * * * * * * * * //

dimensions      [0 1 -1 0 0 0 0];

internalField   nonuniform List<vector> 
20580
(
(0.094876103 -5.5327706e-05 6.319265e-22)
(0.095441931 0.00095620155 -9.2347688e-20)
(0.10269726 -0.00037086569 -7.2640748e-22)
(0.10115111 0.00096729024 2.3452884e-20)
(0.10150478 -0.00071851947 8.7159335e-23)
(0.10066896 0.00020052549 -1.8161805e-20)
(0.10091204 -0.00021045696 -6.7020627e-20)
(0.10022705 0.00032744215 -8.2728033e-21)
(0.10002551 -0.00046866143 -3.0444528e-21)
(0.099588501 -0.00058718654 0)
(0.099814454 -0.0012810566 4.2670848e-21)
(0.099332491 -0.0008775786 6.1702279e-21)
(0.099435307 -0.0025977875 -9.912042e-21)
(0.099666453 -0.0040007245 -5.273354e-21)
(0.099046383 -0.0039543525 -7.0653239e-21)
(0.099366318 -0.0058237135 2.1625452e-20)
(0.099909078 -0.0092323685 -4.2073504e-20)
(0.09837812 -0.0061086306 2.8317687e-21)
(0.099509876 -0.0098724121 7.6492985e-20)
(0.10192903 -0.016093811 1.6143928e-21)
(0.10047858 -0.014005167 -5.5704824e-22)
(0.10047139 -0.015703895 -2.886409e-21)
(0.10383214 -0.022814664 -8.312874e-21)
(0.10518246 -0.025096562 -8.5195578e-20)
(0.10284687 -0.023266037 7.5311946e-20)
(0.10583838 -0.025435852 -5.000716e-20)
(0.11139825 -0.034445721 1.0806572e-20)
(0.11153666 -0.045372906 -8.3748047e-21)
(0.11640726 -0.048523773 4.8875768e-21)
(0.12538733 -0.046336542 -7.3683089e-20)
(0.12319073 -0.049170174 -7.0476932e-20)
(0.093782164 0.0011522368 0)
(0.094116769 0.00037205386 1.7172552e-19)
(0.10063855 0.00060948768 -9.021117e-20)
(0.10050662 0.00033323097 2.7198376e-20)
(0.10018505 0.00070725135 -6.2603567e-20)
(0.10019166 0.0003916055 -3.6050851e-22)
(0.10030511 0.00037122997 1.081701e-20)
(0.10026681 0.0001252019 -5.4125411e-21)
(0.1002233 -0.00040236059 3.3042533e-21)
(0.10026406 -0.0012464997 -8.1223583e-21)
(0.10011627 -0.00095858044 1.8631377e-21)
(0.10000764 -0.0010015284 7.0843402e-21)
(0.10042433 -0.0026126733 -1.540341e-20)
(0.10028016 -0.0033230411 -1.7168537e-22)
(0.10001703 -0.0035706285 5.3120325e-21)
(0.10084954 -0.0054858011 1.8680312e-22)
(0.10059099 -0.0078093648 1.9159121e-20)
(0.099458647 -0.0056065545 2.1026465e-20)
(0.10210398 -0.010715128 0)
(0.10269555 -0.014168618 2.3913098e-20)
(0.1005439 -0.011727226 0)
(0.10254667 -0.015444279 -4.8625022e-20)
(0.10554185 -0.021578249 7.3451434e-21)
(0.10470402 -0.021745167 1.1943705e-21)
(0.10276269 -0.021851434 2.94561e-22)
(0.10809135 -0.02683355 -5.1869154e-21)
(0.11625065 -0.03464989 -3.7063979e-20)
(0.11496616 -0.042810928 -7.4208579e-20)
(0.1133251 -0.044383029 -9.5908209e-20)
(0.12146238 -0.038658443 4.2240354e-20)
(0.12834469 -0.042433573 8.4473511e-20)
(0.093162701 0.0028412268 0)
(0.093523161 -0.0004392138 0)
(0.099156644 0.0013065996 3.9273089e-19)
(0.099336624 -0.00042838018 7.8827486e-20)
(0.099071904 0.0022109321 -8.0424151e-20)
(0.099505063 0.00058083201 -4.2529421e-22)
(0.09980313 0.00084935828 -4.382346e-20)
(0.10007037 -0.00013898519 -3.1353935e-20)
(0.10016743 -1.2616813e-05 0)
(0.10027861 -0.0012874362 7.3128055e-21)
(0.1001781 -0.00046738533 -3.5155849e-21)
(0.10052276 -0.0012136457 -6.2696546e-21)
(0.10108271 -0.0023211626 0)
(0.10097448 -0.0026717211 6.8126946e-22)
(0.10100892 -0.0031304506 -6.7668351e-22)
(0.10216587 -0.0051944319 3.4913105e-22)
(0.10154168 -0.0062207618 3.6502103e-21)
(0.10110249 -0.0058614105 -2.6021715e-21)
(0.10429417 -0.011378629 4.0894741e-20)
(0.1037694 -0.012031878 0)
(0.10197541 -0.010493606 0)
(0.10501266 -0.015769614 6.562025e-20)
(0.10726098 -0.020468324 -8.2406053e-21)
(0.10575547 -0.019617421 1.2231112e-20)
(0.10427979 -0.022571331 -1.0067029e-21)
(0.10956121 -0.029267721 1.6470674e-20)
(0.11867599 -0.03376442 1.3270847e-21)
(0.11759197 -0.037685153 -2.3295951e-20)
(0.11180828 -0.040276498 2.3053375e-20)
(0.11788099 -0.036793002 7.1495646e-20)
(0.1320882 -0.038226395 1.6600373e-20)
(0.092664877 0.0037400936 0)
(0.093003288 -0.0010024045 2.1090855e-22)
(0.098033376 0.0010806924 6.5956171e-21)
(0.097958937 -0.0011674358 2.3044237e-21)
(0.097753763 0.0026102126 -1.0930761e-19)
(0.098546925 0.000378535 9.9154885e-20)
(0.099039292 0.00091474137 -2.7537388e-20)
(0.099611344 -0.00040065405 0)
(0.099883681 0.00025553989 -8.5253958e-23)
(0.10005106 -0.00079195813 -1.3097431e-20)
(0.10004636 -0.0002109826 -4.7536883e-21)
(0.10065768 -0.0014665721 9.2046806e-21)
(0.10123312 -0.0018916591 -6.4302464e-23)
(0.10124019 -0.0018743622 -3.2170184e-21)
(0.10166261 -0.002798741 2.4285269e-21)
(0.10297262 -0.0047628775 -5.1942678e-23)
(0.10231567 -0.0046180706 1.7332973e-20)
(0.10281051 -0.0064834667 -2.0754945e-22)
(0.10588734 -0.011590559 -1.5122997e-22)
(0.10467331 -0.0097965415 7.1007199e-21)
(0.10402029 -0.0099340975 3.341274e-21)
(0.10776587 -0.016399454 5.789187e-20)
(0.1088229 -0.01946397 2.9587096e-21)
(0.10775983 -0.017481076 -1.094896e-20)
(0.10768436 -0.022665038 0)
(0.11103453 -0.031323322 1.1481172e-20)
(0.11852081 -0.032611005 4.4307883e-20)
(0.11944309 -0.031060722 2.606151e-20)
(0.11232952 -0.034516699 -5.6544807e-20)
(0.11452517 -0.037786956 4.0236582e-20)
(0.13067012 -0.039221312 9.7521042e-20)
(0.092459916 0.0032686507 0)
(0.09283164 -0.00087616506 1.7641561e-19)
(0.097561143 0.00021052105 -1.3182996e-19)
(0.096945728 -0.001413144 -1.9226716e-19)
(0.096751133 0.0017115071 1.63761e-23)
(0.097583429 -7.4596568e-05 5.7223938e-20)
(0.098071657 0.00048606858 0)
(0.098747997 -0.00039473169 1.5292435e-20)
(0.099220938 0.00019957577 -2.2647913e-21)
(0.099577301 -0.00012054757 -3.181083e-20)
(0.09983351 -0.00027051544 4.3268486e-21)
(0.10057532 -0.0016054792 -1.039734e-22)
(0.10102179 -0.0015326864 -2.058513e-20)
(0.10120072 -0.0011691725 -7.9603364e-22)
(0.10191347 -0.0028731526 6.2455871e-21)
(0.10310501 -0.0044000025 -1.4076447e-20)
(0.10274091 -0.0033843146 1.4255894e-20)
(0.10407013 -0.0069751949 8.5959993e-20)
(0.10651034 -0.011083439 4.0995426e-20)
(0.10506249 -0.0078409998 0)
(0.10600838 -0.0099536576 7.1989092e-21)
(0.1100726 -0.016644756 3.7028524e-21)
(0.10984861 -0.018015581 -3.4039715e-20)
(0.1098547 -0.015543368 -1.8269666e-21)
(0.11214665 -0.021159908 0)
(0.11336806 -0.030623959 2.7545262e-20)
(0.11743849 -0.0300823 6.713767e-20)
(0.12003203 -0.024777941 -6.7440872e-20)
(0.11590246 -0.028320803 -9.4052144e-20)
(0.11382565 -0.038108222 2.1850408e-20)
(0.12528197 -0.043252817 -6.5264634e-20)
(0.092580213 0.002046839 -4.9540682e-20)
(0.09256145 -0.00015576756 4.9072359e-22)
(0.09723886 -0.00086185001 -6.2636514e-24)
(0.096249483 -0.0010544492 7.9620299e-20)
(0.095986772 7.4381495e-05 -7.698956e-20)
(0.096585036 -0.00050348228 -4.5716487e-22)
(0.097054283 -0.0002386086 6.8992441e-21)
(0.097644614 -0.00013282635 -2.1242956e-25)
(0.09819397 -0.00022174472 -1.7477949e-21)
(0.098669822 0.00034967445 3.6363145e-20)
(0.099228472 -0.0005138591 6.3616075e-21)
(0.099996572 -0.0013839729 -1.309938e-20)
(0.10043345 -0.0014191807 -1.3471649e-20)
(0.10096685 -0.0010217829 -1.7524354e-21)
(0.10194584 -0.0030956052 1.5086443e-20)
(0.10282265 -0.004259699 6.2947338e-22)
(0.10296417 -0.002757368 1.2162386e-20)
(0.10498242 -0.0071783238 8.2120361e-20)
(0.10643037 -0.0099489093 2.9234545e-21)
(0.10512211 -0.0063900456 0)
(0.10769538 -0.010326285 9.3046991e-21)
(0.11166085 -0.016207913 -2.4288965e-20)
(0.11009532 -0.016105346 6.1359265e-20)
(0.11118477 -0.014232594 0)
(0.11648355 -0.018788151 7.5149941e-20)
(0.11641131 -0.02756684 -4.7629206e-20)
(0.11572242 -0.027260853 -6.2782221e-20)
(0.11965005 -0.019930366 -2.1259666e-19)
(0.12185707 -0.022443297 5.248678e-20)
(0.11897173 -0.035680532 5.6572148e-20)
(0.12065374 -0.046248701 -3.9877825e-20)
(0.093972921 0.0002009308 -1.3901926e-21)
(0.09241008 0.0011310543 1.133468e-19)
(0.096873418 -0.0015828807 1.8388625e-23)
(0.095634814 -0.00012518063 -5.1183925e-20)
(0.095279831 -0.0014292117 -5.9739194e-20)
(0.095627196 -0.00046108733 2.1660473e-19)
(0.095933629 -0.00071888944 -2.610657e-20)
(0.096402134 0.00023717603 -1.3293536e-23)
(0.096856939 -0.00070580903 1.5210106e-22)
(0.097311453 0.00040574974 -4.7524087e-21)
(0.098015727 -0.00059968336 4.268333e-22)
(0.098759808 -0.0010078865 -2.6077059e-22)
(0.09927023 -0.0013481891 5.3644805e-21)
(0.10020147 -0.0013103022 2.8415284e-23)
(0.1014911 -0.0032058847 -1.6923969e-20)
(0.10209395 -0.004144925 1.4862747e-21)
(0.10283304 -0.0029089652 1.6083718e-22)
(0.10536834 -0.007260876 -1.0972949e-19)
(0.10573321 -0.0081749938 0)
(0.10493519 -0.0055582102 1.2416877e-20)
(0.10874876 -0.010809676 -1.0000624e-20)
(0.11223604 -0.014667723 1.7953596e-20)
(0.1097669 -0.013695576 -1.1177851e-20)
(0.11127874 -0.014073381 1.570511e-20)
(0.11892152 -0.016816297 -1.1944506e-20)
(0.11937 -0.022727232 9.8145275e-21)
(0.1150575 -0.023945844 -4.2405666e-20)
(0.11895083 -0.019178931 -2.6096978e-21)
(0.12741659 -0.019834236 6.5535712e-20)
(0.12905495 -0.031405102 -2.1089205e-19)
(0.12358642 -0.044243223 1.2012066e-20)
(0.098971635 -0.00047388634 9.2343312e-20)
(0.092457123 0.0022047684 0)
(0.096611554 -0.0019329502 -4.5006979e-19)
(0.09490068 0.00078128681 -1.5056665e-19)
(0.094383375 -0.0020257601 8.173605e-20)
(0.094447972 -5.1583224e-05 5.1175663e-23)
(0.094602082 -0.00069110278 -1.7813312e-20)
(0.094950883 0.00036792293 -9.9516682e-23)
(0.095251947 -0.00094980591 -7.5972707e-21)
(0.095565894 -5.3945298e-05 6.9443297e-21)
(0.096275399 -0.00052730063 1.7811446e-20)
(0.096948453 -0.00092049524 -2.1135208e-22)
(0.09743208 -0.0011467667 9.030456e-22)
(0.098643459 -0.0017520561 -1.331138e-20)
(0.10012808 -0.0029181673 1.5287752e-20)
(0.10065676 -0.0037653907 -6.1754138e-21)
(0.10210759 -0.0035354837 -5.9619567e-21)
(0.10490321 -0.0070847944 -1.5096245e-20)
(0.10457933 -0.0060134947 5.4289073e-22)
(0.10474078 -0.0052258886 6.3580983e-22)
(0.10908482 -0.011484287 7.6590927e-21)
(0.11169113 -0.012613823 7.3856294e-22)
(0.10917969 -0.010797172 0)
(0.11063207 -0.014612121 7.5710381e-21)
(0.11898495 -0.016650321 4.7465688e-20)
(0.1208954 -0.017531104 5.4382859e-20)
(0.11493021 -0.019971849 -1.7161422e-20)
(0.11701555 -0.021159228 1.0823989e-19)
(0.12906763 -0.021148225 -4.4164289e-20)
(0.13761806 -0.026910668 1.8962587e-19)
(0.13268945 -0.037060727 1.3848702e-19)
(0.10867658 -0.00071146004 -4.1363275e-20)
(0.09405949 0.0028247586 -4.2986566e-23)
(0.097125027 -0.0015883448 -6.8621559e-21)
(0.095081543 0.0013530533 -2.7393889e-19)
(0.093914946 -0.0013840086 -3.3721566e-22)
(0.093327601 0.00054188693 9.0400161e-23)
(0.093129979 -0.0002229924 1.1865717e-20)
(0.093193358 0.00019138496 -3.5570501e-24)
(0.093247483 -0.00057570214 -9.5157214e-21)
(0.093447362 -0.00064395769 -6.301583e-21)
(0.094076256 -0.00053930735 2.8539366e-20)
(0.094631279 -0.00094103923 0)
(0.095084158 -0.00082504302 4.0078084e-23)
(0.096343134 -0.0022470049 1.5137193e-21)
(0.097857357 -0.0023928082 -1.1398713e-20)
(0.098255116 -0.003066324 -4.0341053e-21)
(0.10019564 -0.0041019353 -5.4108194e-21)
(0.10309689 -0.0064462648 -2.350229e-20)
(0.10276867 -0.0040026753 -4.2588849e-20)
(0.1043704 -0.0053843972 5.8148424e-20)
(0.10856594 -0.011759025 2.8309634e-20)
(0.11023353 -0.010252415 -1.7679626e-21)
(0.1090905 -0.0077243455 -9.0059931e-21)
(0.11051638 -0.01516033 4.7504251e-21)
(0.11741555 -0.018308637 8.6469214e-21)
(0.12098472 -0.014203178 3.6947592e-20)
(0.11678662 -0.016331745 9.5506252e-20)
(0.11623828 -0.023440251 -3.9729433e-20)
(0.12678588 -0.025968085 1.5264583e-19)
(0.13867883 -0.024843728 8.7094748e-20)
(0.14008797 -0.026612388 7.1942775e-20)
(0.1181667 0.00043133573 -9.4128016e-20)
(0.09882962 0.0018008046 -2.0912069e-22)
(0.099785922 -0.00093976066 -4.2060502e-19)
(0.096903494 0.00098414931 3.4289915e-19)
(0.0946057 -5.6309772e-05 5.6489783e-22)
(0.093397891 0.00086998982 0)
(0.092704141 0.00020039527 -1.8646768e-20)
(0.092300721 -0.00035588913 -2.8168804e-20)
(0.091978653 0.00010082298 -1.5868632e-21)
(0.091794991 -0.00094956129 -7.6936642e-21)
(0.09205657 -0.00072293066 -1.8089011e-23)
(0.092333808 -0.00073021523 1.2107494e-22)
(0.092672866 -0.00044498749 0)
(0.093686353 -0.0024373868 1.3774527e-20)
(0.094929934 -0.0019282768 1.3034473e-20)
(0.095378133 -0.0021157224 9.2019095e-22)
(0.097389556 -0.0043150876 3.9859746e-20)
(0.099821076 -0.0055153371 -5.2485424e-20)
(0.099933898 -0.002611729 -2.4291311e-20)
(0.10314174 -0.0057457776 6.7651836e-20)
(0.10685613 -0.011296772 1.9405562e-20)
(0.10749727 -0.0082348418 -9.360029e-20)
(0.10882124 -0.0053040186 4.568933e-20)
(0.11117447 -0.014410984 1.3699659e-19)
(0.11475495 -0.019482481 9.2848086e-20)
(0.11894669 -0.012744699 -2.9288006e-22)
(0.11947844 -0.012751194 2.2241012e-22)
(0.11848932 -0.023262413 -7.0166185e-20)
(0.12364479 -0.030933734 2.3328148e-20)
(0.13377637 -0.026174549 1.8617576e-19)
(0.14038893 -0.019344679 1.2367569e-19)
(0.11893909 0.0012002885 3.5824351e-21)
(0.10363877 0.00029322924 5.4868743e-23)
(0.10403469 -6.8860941e-05 -1.9371907e-19)
(0.10089271 -4.8066845e-05 3.0753431e-23)
(0.097528502 0.0012321799 -8.8785544e-22)
(0.095146118 0.00065516759 -4.5006756e-19)
(0.093764123 0.00037982754 -3.7510702e-20)
(0.092765816 -0.00086614225 -2.3878335e-24)
(0.092284477 0.00062297157 -1.4899651e-20)
(0.091974686 -0.00076261186 9.1314622e-21)
(0.091925495 -0.00092710955 2.8980423e-21)
(0.091867567 -0.00044038083 -5.9036837e-21)
(0.092140392 -0.00027380509 0)
(0.092657823 -0.0021591829 -3.0087869e-23)
(0.093213611 -0.001467434 3.8204197e-20)
(0.093644888 -0.00095683245 -5.6863483e-23)
(0.095176119 -0.0038751401 -1.2495351e-21)
(0.096428495 -0.0044464384 -2.6786506e-22)
(0.096768237 -0.0019587445 6.9947519e-22)
(0.10103505 -0.0060440199 -7.5939728e-22)
(0.10396386 -0.010039494 2.8767479e-21)
(0.10357981 -0.0069182629 -8.9263895e-20)
(0.10758511 -0.0044385809 8.5146284e-21)
(0.11201595 -0.012768587 3.5577305e-21)
(0.11214808 -0.019051577 1.2629608e-21)
(0.11471804 -0.013092567 1.0066421e-20)
(0.1201827 -0.010284432 -4.3663639e-20)
(0.12262175 -0.019972645 1.9499699e-19)
(0.12264553 -0.030869521 -9.007805e-21)
(0.12614522 -0.02776291 -1.7346333e-19)
(0.13332487 -0.017028416 -3.2253114e-20)
(0.11498542 0.0031724196 -1.7823598e-20)
(0.10675362 -0.0016162662 0)
(0.10847301 0.00010839351 1.1850518e-19)
(0.10587154 -0.0014590471 1.6416348e-19)
(0.10280175 0.0014805342 8.7595547e-20)
(0.1000411 -0.00028110534 -7.9146001e-20)
(0.097891533 1.1467601e-05 -4.2918209e-22)
(0.095831094 -0.0010515319 -2.4490852e-23)
(0.094748555 0.00056210891 1.8618129e-20)
(0.093990068 -0.00027905514 1.4502684e-20)
(0.093316655 -0.00085793608 -9.4373972e-21)
(0.09285383 -0.00014109708 -4.638948e-24)
(0.093104135 -0.00056582877 -7.7758901e-21)
(0.093228408 -0.0015565213 0)
(0.093269557 -0.0013169704 4.0709156e-20)
(0.093927409 -0.00044762469 4.7079237e-21)
(0.09525221 -0.0033116854 -3.3703012e-20)
(0.095314571 -0.0032190944 -5.9369858e-20)
(0.095610275 -0.0019754739 -3.0061592e-22)
(0.099988057 -0.0062548503 -3.8208046e-20)
(0.10146644 -0.0077213828 -7.162443e-21)
(0.099699354 -0.0056300347 9.5838988e-22)
(0.10530251 -0.0050003375 -1.3383896e-20)
(0.11208036 -0.010651055 -1.0304598e-19)
(0.11018745 -0.015920557 5.6267657e-20)
(0.10970881 -0.013487389 5.0279891e-20)
(0.11802394 -0.0098898621 -1.4926861e-20)
(0.12558641 -0.015486851 -1.2430729e-21)
(0.12418192 -0.024629698 2.9781892e-19)
(0.12057458 -0.026789252 3.3790288e-20)
(0.12406922 -0.019095554 -9.9183322e-20)
(0.10513573 0.0032818686 5.7428406e-20)
(0.10570631 -0.0021057462 1.9072631e-19)
(0.10925211 -2.8056033e-05 -4.592166e-22)
(0.10786869 -0.0021757454 4.3602627e-21)
(0.10668688 0.0008069006 1.8139399e-22)
(0.10595998 -0.0012372568 -2.1639015e-20)
(0.10458921 -0.00057269789 1.5287165e-20)
(0.10265081 -0.00068806235 1.1977956e-23)
(0.10123926 -0.00016890304 3.6789865e-22)
(0.10009236 3.7289002e-05 -1.5726143e-20)
(0.098637138 -0.00067829639 2.1053487e-22)
(0.097337149 -6.9318933e-05 2.1639845e-21)
(0.096842732 -0.0010669713 -3.8462095e-23)
(0.09621488 -0.00089981695 -7.5478501e-22)
(0.095474032 -0.001198109 0)
(0.095842302 -0.00052759517 0)
(0.096762854 -0.002708136 1.7130701e-20)
(0.096021017 -0.001879061 -2.0779294e-21)
(0.096520406 -0.0025720924 -5.0214631e-20)
(0.10045569 -0.0066124694 -4.6908579e-21)
(0.10093416 -0.0050505801 2.4335318e-20)
(0.098347826 -0.004451595 -1.1723637e-21)
(0.10364338 -0.0070597042 0)
(0.11127292 -0.0091615204 0)
(0.10896738 -0.0105674 0)
(0.10579892 -0.011790045 -1.0817729e-20)
(0.11379375 -0.011444735 -2.68543e-21)
(0.12459083 -0.012248534 9.1337104e-21)
(0.12553673 -0.015285414 -2.2572222e-20)
(0.1186324 -0.019434679 2.8631303e-20)
(0.11702369 -0.019934222 1.7036545e-21)
(0.098673819 0.0036939795 4.7567649e-20)
(0.10045803 -0.0023448406 2.9141514e-21)
(0.10705715 -0.00095843283 2.0427263e-21)
(0.10661393 -0.0022847432 -4.3643779e-19)
(0.10646451 -0.0004414969 0)
(0.10682385 -0.0015759859 -3.5378187e-22)
(0.10685264 -0.00089779482 -3.2512012e-20)
(0.10646535 0.00020592142 -4.0821162e-21)
(0.10621532 -0.00085033311 -2.2290596e-22)
(0.10606802 0.00011540607 -8.0923119e-21)
(0.10526597 -0.00030575942 5.1337424e-21)
(0.10433709 -0.00032560338 0)
(0.10374272 -0.0013195027 -2.5204083e-20)
(0.10260238 -0.00040366923 -1.3100314e-20)
(0.10125715 -0.0010330523 1.5051469e-20)
(0.10102173 -0.0012207556 1.8726175e-21)
(0.1011342 -0.0022649016 -8.0141827e-22)
(0.099833932 -0.00076924907 1.3379693e-21)
(0.10026849 -0.003015609 -7.0738608e-20)
(0.1028283 -0.0065374309 -2.7781554e-21)
(0.10250538 -0.0023892057 -1.6093469e-21)
(0.10027876 -0.0032141839 6.4373821e-20)
(0.10421411 -0.0093709707 -3.4463151e-21)
(0.11084245 -0.0087592073 0)
(0.10954699 -0.0050843717 -1.387455e-20)
(0.10566051 -0.0083899189 3.7426836e-20)
(0.11068844 -0.013549767 5.6259805e-20)
(0.12083864 -0.011872517 -5.9325973e-20)
(0.12520927 -0.0081846069 3.3136454e-20)
(0.12020097 -0.0090797794 -6.4380398e-20)
(0.11612063 -0.01631246 -6.2912562e-20)
(0.097966065 0.001625552 -7.397857e-20)
(0.098206562 -0.00091249211 -4.6371994e-20)
(0.10358639 -0.0016727841 -2.3115305e-21)
(0.10332226 -0.0013839528 1.8872213e-19)
(0.10388459 -0.0013865961 6.9577997e-20)
(0.10499733 -0.0011720801 5.4007377e-22)
(0.10553869 -0.00072186015 9.5594134e-20)
(0.1059137 0.00095162692 -1.0440477e-20)
(0.10607758 -0.00099746536 3.4728716e-22)
(0.10625257 -0.00024802527 2.518736e-22)
(0.10619032 9.5759533e-05 7.9800291e-21)
(0.10617667 -0.0007360984 1.8171163e-22)
(0.10634869 -0.0013194957 2.4754081e-22)
(0.10620572 -3.1078706e-05 1.5260819e-22)
(0.10579357 -0.00099599914 3.4871996e-20)
(0.10613826 -0.0019796455 1.434837e-22)
(0.10634613 -0.0021306066 2.2194346e-20)
(0.10547969 -0.00036181777 6.4041725e-23)
(0.10636674 -0.0034463775 -2.4431384e-21)
(0.10741383 -0.0062343942 0)
(0.1067299 -0.00058470102 -8.4599801e-20)
(0.10605158 -0.0020478588 -1.8061023e-21)
(0.10808277 -0.010624432 2.8407366e-20)
(0.11178205 -0.0088548495 -1.9310917e-21)
(0.11189566 -0.0010924624 -3.8867747e-20)
(0.1101436 -0.0042758088 -1.8004993e-19)
(0.11181958 -0.014064524 2.471229e-20)
(0.11790111 -0.013975433 -1.1844024e-21)
(0.12301298 -0.0059763674 -1.8658758e-21)
(0.1233867 -0.0017811642 2.717902e-20)
(0.12120331 -0.009996452 -8.3495447e-21)
(0.10613842 0.0007102783 4.0248428e-20)
(0.099768214 -4.5117077e-05 9.5074762e-23)
(0.10361134 -0.00276118 -1.4903721e-19)
(0.10243897 8.5851051e-05 -1.3978813e-21)
(0.10253997 -0.0015047505 5.620463e-22)
(0.10307756 -0.00025596178 -6.0069699e-20)
(0.10328051 -0.00018334933 0)
(0.10395169 0.00082123399 -2.3354507e-23)
(0.10428412 -0.00060812695 -2.144704e-24)
(0.10457131 -0.00074863658 9.9339703e-20)
(0.10487393 0.00038734904 -4.8990854e-23)
(0.10522526 -0.00087807056 -7.8491008e-24)
(0.10540225 -0.001082089 4.2341944e-21)
(0.10572636 0.00016364497 1.8127745e-20)
(0.10600438 -0.00083505371 -4.4580572e-20)
(0.10661539 -0.0025920183 -5.8221999e-22)
(0.10696825 -0.0020718489 -3.979209e-22)
(0.10720678 -0.00019658384 8.081003e-23)
(0.10926737 -0.0033912811 0)
(0.10953287 -0.0053709628 -5.0431776e-20)
(0.10934011 0.00014466334 -8.6948914e-20)
(0.11169652 -0.0010852179 -5.0194676e-20)
(0.11321945 -0.010082794 4.4550794e-20)
(0.11320003 -0.0089737519 1.1079101e-21)
(0.11427105 6.5530099e-05 -5.6767929e-20)
(0.11695086 -0.0014524639 5.252447e-20)
(0.11778624 -0.012096263 -1.1599123e-20)
(0.1178022 -0.016087861 3.5496416e-20)
(0.12044211 -0.0078152258 -8.6991299e-20)
(0.12555433 -0.0010561782 -2.8565355e-20)
(0.1290479 -0.0053568543 3.0907362e-21)
(0.10069077 -0.0020489364 9.9594591e-20)
(0.10078125 0.0018306381 -3.8191995e-23)
(0.10454999 -0.0028706799 2.6973913e-21)
(0.10336231 0.0012603573 4.056613e-19)
(0.10345683 -0.0010250423 1.3654619e-22)
(0.10367823 0.00068042542 6.0826979e-20)
(0.1036985 0.00026728647 0)
(0.10409409 -0.00027227214 0)
(0.10428325 -0.00012423969 8.3662264e-22)
(0.10407474 -0.00085828744 0)
(0.10427636 0.00034166348 -1.4953304e-21)
(0.10459583 -0.00071098802 4.5988555e-20)
(0.10442567 -0.00084357662 0)
(0.10480774 -6.9851061e-05 1.3925271e-20)
(0.10548887 -0.00079046 -3.9759963e-20)
(0.10605619 -0.002553908 -2.6503138e-20)
(0.10601222 -0.0019348989 -6.1472175e-22)
(0.10684055 -0.0007203287 -3.4565234e-21)
(0.10953829 -0.0032140148 2.9472416e-20)
(0.10883308 -0.003996388 -3.1604044e-20)
(0.10877366 -0.00050150846 6.2180699e-20)
(0.11382461 -0.0012408307 4.2547472e-23)
(0.11591447 -0.0078974068 -4.4997245e-20)
(0.1129388 -0.007838275 -2.8607564e-20)
(0.11418954 -0.0012065578 1.318188e-20)
(0.12134507 -0.0012830146 5.5085801e-20)
(0.12463621 -0.0091136874 -6.3897168e-20)
(0.1206299 -0.014858776 -1.5586944e-20)
(0.11879203 -0.010949017 1.1907031e-19)
(0.12532264 -0.0054032244 1.5550392e-19)
(0.13400174 -0.0054971352 1.5170107e-20)
(0.098890004 -0.00088168551 -1.0540086e-19)
(0.099068061 0.0016518309 1.19769e-22)
(0.10372428 -0.0023885865 -4.8161922e-19)
(0.10287061 0.0015901277 -4.4789778e-19)
(0.10327793 3.7318971e-05 -7.0642368e-20)
(0.10364423 0.0012184689 9.6980667e-22)
(0.10403146 0.00046236588 -1.2818475e-22)
(0.1043519 -0.0013457225 -1.3257151e-20)
(0.10449539 6.9453346e-05 -6.4737184e-20)
(0.10422846 -0.00039637591 2.2521183e-20)
(0.10440606 -0.00011270719 -1.2614661e-20)
(0.10475901 -0.00037212424 -1.3008548e-22)
(0.1043871 -0.00025855804 1.2462219e-21)
(0.10471992 -0.00034028258 7.7037251e-21)
(0.10553739 -0.0007061761 -1.5943051e-20)
(0.10595647 -0.0018655504 -2.5771482e-20)
(0.10545108 -0.0012174484 2.4305665e-20)
(0.10636943 -0.00138077 -9.1079357e-21)
(0.10918804 -0.0028436606 2.4115798e-23)
(0.10789098 -0.0016000767 3.1341893e-21)
(0.10736404 -0.0013219343 6.9753021e-21)
(0.11344396 -0.0023556181 2.2883547e-20)
(0.11633753 -0.0046368361 -5.7919863e-20)
(0.11174634 -0.0047796558 -1.0933608e-22)
(0.11195559 -0.0030914457 2.8530649e-20)
(0.12110269 -0.0035158867 -1.0641986e-20)
(0.12747515 -0.0067684728 -3.3406725e-22)
(0.12326669 -0.0092198497 1.0726813e-19)
(0.11822255 -0.010638079 2.3936468e-20)
(0.12291424 -0.009746786 4.2930346e-20)
(0.13353051 -0.0089442877 1.584677e-19)
(0.10262721 -0.00022660443 -1.4104719e-19)
(0.099849242 0.0017185646 -4.6780243e-23)
(0.10330754 -0.001619001 -1.1643753e-23)
(0.10206604 0.00043287695 -3.01622e-21)
(0.10236726 0.00042819794 3.9951655e-20)
(0.10269365 0.00058573935 -2.8179951e-19)
(0.10316998 2.8795535e-05 -5.3751751e-20)
(0.10329664 -0.0016471909 2.8017668e-21)
(0.10335776 -0.00015343013 -2.5575593e-20)
(0.10335772 0.00011882842 -6.0607842e-24)
(0.10356867 -0.00047053769 -2.1816258e-20)
(0.10396886 -0.00040043882 2.0393673e-20)
(0.10377472 -5.7950886e-05 9.0868739e-22)
(0.10418009 -0.00097472007 -2.4975375e-21)
(0.10504521 -0.00080526906 -1.2673763e-22)
(0.10539208 -0.0011341726 8.1548322e-21)
(0.1049208 -0.00049522018 -8.295681e-21)
(0.10591838 -0.0022185012 0)
(0.10842271 -0.0025629224 -6.2455867e-22)
(0.10740188 0.00063814774 2.2524184e-22)
(0.1068344 -0.0024540048 1.1301854e-19)
(0.11226242 -0.0046782444 -2.570877e-20)
(0.11559844 -0.0021481937 2.571106e-20)
(0.11152756 -0.00064942668 -3.2907445e-20)
(0.11067057 -0.0043524231 -2.4161615e-20)
(0.11894114 -0.0074042103 -2.2258778e-20)
(0.12621228 -0.0060716078 2.1445284e-21)
(0.12441154 -0.0026755878 -4.4340553e-20)
(0.1193345 -0.00574431 1.9537857e-19)
(0.12075205 -0.011060763 -3.4073771e-20)
(0.12931888 -0.012314193 -1.4770247e-19)
(0.10489153 0.0031986991 8.2592733e-21)
(0.10307404 -0.0010735719 4.7312042e-20)
(0.10547867 -0.0010065799 -2.2416205e-20)
(0.10349473 -0.00080255228 -1.6564527e-19)
(0.10332386 0.00045051639 1.9626346e-22)
(0.10324302 -0.00055059206 -1.716221e-22)
(0.10349221 -0.00047363085 -1.0061553e-22)
(0.1032079 -0.00081460845 -6.6148262e-21)
(0.10297921 -0.00027232133 1.2800972e-20)
(0.10293092 0.0003295843 -1.0626809e-20)
(0.10311647 -0.0008532752 1.8419974e-21)
(0.10333528 -0.00029417714 -1.6909249e-22)
(0.10320145 0.00045559519 -6.4662947e-21)
(0.10357292 -0.0011513477 5.5345473e-23)
(0.10440395 -0.00085323947 -8.2670347e-20)
(0.10466344 -0.00039172566 2.9895284e-21)
(0.10465141 0.00054317172 -1.8471132e-23)
(0.10563619 -0.0020446925 1.8887061e-22)
(0.10733783 -0.0017885628 -8.5486089e-20)
(0.10737054 0.0026904716 8.1558139e-21)
(0.10754946 -0.0023613159 -2.5586881e-21)
(0.11113205 -0.0063288921 6.0344555e-20)
(0.11421881 -0.00034002468 1.6165173e-21)
(0.11275294 0.0035349562 -4.6920914e-20)
(0.1122591 -0.0031265038 4.390618e-21)
(0.11751251 -0.0099712961 -1.7104778e-20)
(0.123108 -0.0054218719 -2.9745297e-19)
(0.12400126 0.002378773 2.5451088e-20)
(0.12242312 0.0018744636 -3.3024214e-20)
(0.12252829 -0.0073339757 -1.336117e-19)
(0.12636845 -0.012529396 2.4657868e-20)
(0.10362192 0.0039024417 -2.2369828e-19)
(0.10324326 -0.00047358536 2.8158901e-21)
(0.10666653 -0.0017776956 3.181137e-21)
(0.10530613 -0.0023098287 -3.9185259e-21)
(0.10570242 -0.00011709242 1.1907885e-22)
(0.10581529 -0.0016753194 -2.7050576e-22)
(0.10586264 -0.00095544246 -9.8731278e-23)
(0.10545109 0.00046759946 8.4591348e-23)
(0.10511245 -1.9287037e-05 -5.2975146e-24)
(0.10503513 -0.00015146712 1.8791951e-23)
(0.10496545 -6.2710523e-05 -6.2223552e-23)
(0.10476958 -0.0011289589 -8.7303528e-20)
(0.10487701 0.00030324907 -1.0674059e-20)
(0.10522235 -0.00082892905 -4.329218e-23)
(0.10554614 -0.00064810293 -8.1601354e-23)
(0.10557901 0.00018725664 -3.0757003e-23)
(0.10602529 0.00099621582 8.4678294e-22)
(0.10694487 -0.0018381976 -9.1635184e-23)
(0.10747923 -0.0015430441 9.5393978e-20)
(0.10857711 0.0032209443 1.1655896e-20)
(0.11023647 -0.0017517461 -1.3775388e-19)
(0.11130535 -0.0070182076 -2.1726283e-22)
(0.11271082 -0.00027002246 -2.0631369e-22)
(0.11417458 0.0052287249 2.1684632e-23)
(0.11625872 -0.0010734222 8.6947592e-20)
(0.11836814 -0.010022256 -1.8307715e-20)
(0.11985181 -0.0060598513 5.4476051e-21)
(0.12192196 0.0035316661 -8.4890154e-21)
(0.125472 0.0061245756 -2.1184703e-20)
(0.12778657 -0.0022245234 1.6678528e-19)
(0.12759512 -0.0097582307 -4.8475737e-20)
(0.11317664 0.0054128597 -2.5067301e-21)
(0.099986802 -0.0026208248 -2.0123071e-19)
(0.10464874 -0.00074153873 -3.0824514e-19)
(0.10431512 -0.0019803526 5.1389736e-19)
(0.10529286 -0.00017019922 -9.9673626e-20)
(0.10662129 -0.0015780737 1.1344998e-19)
(0.10720017 -0.00068083539 -1.3826742e-19)
(0.10780804 0.0014833939 -4.3068831e-23)
(0.10801571 0.00034289855 -1.4036625e-20)
(0.1081245 -0.00047483115 4.1836888e-20)
(0.10882514 -0.00057608515 -3.7736429e-20)
(0.10863525 -0.00010871926 1.7606744e-22)
(0.1088073 0.0010234765 -3.2632924e-20)
(0.10948201 -0.00063355551 8.8275622e-20)
(0.1097911 -0.00054783516 -4.7969984e-22)
(0.10983877 0.00057069856 -6.2957041e-20)
(0.11078583 0.001361975 -1.4839928e-22)
(0.11186271 -0.0007854357 6.0735384e-20)
(0.11123637 -0.001070607 -7.7276686e-22)
(0.11301252 0.0028551368 3.4133865e-20)
(0.11642711 -0.00038939474 9.9770969e-20)
(0.11569154 -0.0050362418 2.9422774e-22)
(0.11466514 -0.00076971231 4.0389446e-23)
(0.11800454 0.0045415702 -6.4712065e-20)
(0.12327221 0.00090380211 2.6655519e-21)
(0.12397376 -0.0060910989 5.7964757e-20)
(0.12074413 -0.0053785419 1.7961311e-19)
(0.12175002 0.0024806584 0)
(0.12908521 0.0059762335 -2.9351991e-20)
(0.13535967 0.0018433312 1.2082117e-19)
(0.13433888 -0.0045026405 8.5115217e-20)
(0.10637514 0.0011819468 6.2012863e-20)
(0.067250547 0.00028769922 0)
(0.10829416 -0.0035256839 6.7944048e-22)
(0.11828286 -0.00049928728 5.5508375e-20)
(0.10577419 -9.7006004e-05 -1.6837967e-20)
(0.1212063 -0.00048965946 2.0070709e-21)
(0.10974271 -8.7872962e-05 -9.4159987e-20)
(0.12339138 0.00032067867 1.1919033e-20)
(0.11340479 0.00025189442 -1.5302951e-21)
(0.1231159 -0.00048507308 1.5888689e-20)
(0.11756934 0.0011280707 -7.6626232e-22)
(0.12113977 -0.0020277881 8.5369333e-21)
(0.12589372 0.00030735008 3.7894389e-21)
(0.11857475 0.00038628627 3.2886299e-20)
(0.12525597 -0.00034280724 -4.80245e-21)
(0.12318686 -7.3730167e-05 -1.1749869e-21)
(0.12696814 3.353384e-05 1.7694074e-20)
(0.12722175 -0.00024488086 2.1791723e-20)
(0.12572617 -0.00032638797 -9.0459841e-21)
(0.12757908 0.00058494848 9.5872393e-22)
(0.13162974 -7.2107927e-05 2.0788814e-20)
(0.12897356 -0.001046558 -8.787837e-21)
(0.12644186 -0.00053140497 9.4716925e-22)
(0.13083206 0.00077438984 -2.8583997e-20)
(0.13738398 0.00013881842 8.4068859e-21)
(0.13761784 -0.0013370138 3.5401076e-20)
(0.13152884 -0.0016741932 2.822534e-20)
(0.13114809 -0.000149453 9.7016099e-21)
(0.13993826 0.00070827223 -1.4148856e-20)
(0.1502464 7.2812348e-05 -1.6777493e-20)
(0.1498384 -0.0012570405 5.0847128e-21)
(0.14539958 -0.0019458376 -5.0842588e-21)
(0.13121415 -0.0053049318 4.1450465e-21)
(0.12945289 -0.0076959456 -6.739004e-20)