/*--------------------------------*- C++ -*----------------------------------*\
| =========                 |                                                 |
| \\      /  F ield         | OpenFOAM: The Open Source CFD Toolbox           |
|  \\    /   O peration     | Version:  2406                                  |
|   \\  /    A nd           | Website:  www.openfoam.com                      |
|    \\/     M anipulation  |                                                 |
\*---------------------------------------------------------------------------*/
FoamFile
{
    version     2.0;
    format      ascii;
    arch        "LSB;label=32;scalar=64";
    class       volVectorField;
    location    "140";
    object      UMean;
}
// * * * * * * * * * * * * * * * * * * * * * * * * * * * * * * * * * * * * * //

dimensions      [0 1 -1 0 0 0 0];

internalField   nonuniform List<vector> 
20580
(
(0.087836158 0.0007518025 6.4454381e-22)
(0.089154811 3.7035558e-05 7.6465337e-22)
(0.096239022 -0.00022460581 9.0240555e-23)
(0.095731854 0.00020427672 -1.0911586e-22)
(0.095557387 0.00050762764 -7.3449698e-25)
(0.095774029 0.00055172718 -1.2627014e-23)
(0.095845181 0.00060146184 9.0481147e-23)
(0.095726719 0.00067685002 -3.2721474e-23)
(0.095526009 0.00070256718 -7.4572693e-23)
(0.095274212 0.00063167594 0)
(0.094986627 0.0004587678 -4.4696992e-23)
(0.094679261 0.00019110493 -7.440681e-22)
(0.094347507 -0.00019495627 -1.5164766e-22)
(0.094013103 -0.00072884906 1.6859441e-22)
(0.093693042 -0.0013951941 3.6892317e-22)
(0.09340573 -0.0023071296 4.4237587e-22)
(0.093152677 -0.0033760938 1.1829815e-21)
(0.092889858 -0.0045943133 -5.1807288e-23)
(0.09269468 -0.0060305701 1.0196541e-21)
(0.092576266 -0.007696488 -1.1108104e-22)
(0.092618895 -0.0096781621 1.3056417e-23)
(0.092675905 -0.01186187 9.5093793e-23)
(0.092917713 -0.014305534 -8.900669e-22)
(0.093719546 -0.017115486 2.5109645e-21)
(0.094945873 -0.020253595 -2.6538827e-21)
(0.096182157 -0.0236543 -2.4673278e-21)
(0.097160995 -0.027089378 4.7021465e-21)
(0.098090989 -0.030542234 6.8239993e-22)
(0.099757591 -0.03444285 -2.53271e-21)
(0.1017184 -0.038697312 3.2797708e-21)
(0.10442982 -0.043554488 1.3118735e-21)
(0.086884869 0.00067650789 0)
(0.087757955 0.00010574868 6.1926874e-22)
(0.094809879 -0.00024481423 2.9495397e-22)
(0.09471119 9.4387511e-05 1.7680093e-22)
(0.094808878 0.00040307521 -1.0403211e-22)
(0.095197308 0.00048266188 -5.7550917e-24)
(0.095423221 0.00054316632 -1.7596161e-23)
(0.095428021 0.00061578521 -2.155521e-24)
(0.095316647 0.00065290231 -4.6963204e-23)
(0.095159075 0.00060338283 -1.2695108e-22)
(0.094959181 0.00045568947 3.124171e-22)
(0.094748138 0.00021220681 -1.7397551e-22)
(0.094522859 -0.00013653386 -2.5461495e-22)
(0.094310054 -0.00062513548 -7.6871658e-24)
(0.094079594 -0.0012509334 -6.3238471e-22)
(0.09388105 -0.0020706987 -5.060844e-24)
(0.093735442 -0.0030621387 -3.8043499e-22)
(0.093628401 -0.0042427581 -8.0888504e-22)
(0.093568185 -0.0056152445 0)
(0.093563286 -0.0071867874 -1.0422564e-21)
(0.0936721 -0.0090036738 0)
(0.093883041 -0.0110543 -1.1179185e-21)
(0.094133639 -0.013287264 1.3318002e-21)
(0.094645654 -0.015732966 -2.4811823e-23)
(0.095648006 -0.018558099 -9.9019381e-22)
(0.097008583 -0.021830224 3.7376152e-22)
(0.098791495 -0.025310758 -4.5835529e-22)
(0.10053165 -0.028682151 6.1951733e-22)
(0.10206235 -0.032120228 1.5825184e-21)
(0.10363073 -0.035311786 -7.88934e-22)
(0.10557644 -0.03934414 -9.3158251e-22)
(0.086132893 0.00086543133 0)
(0.086811374 0.00037940932 0)
(0.093307791 -0.00019835622 7.0645927e-23)
(0.093343583 0.00010410426 -5.4191194e-22)
(0.09369453 0.00042281293 -9.3574365e-23)
(0.094272773 0.0004876492 -3.2771354e-24)
(0.094684181 0.00053353991 -3.6567861e-23)
(0.094832132 0.00059764961 -4.5756369e-23)
(0.094845641 0.00062477719 0)
(0.094800673 0.00056779822 -4.0945916e-22)
(0.094716866 0.00042269044 -1.456409e-22)
(0.094612411 0.00018986598 4.1006629e-22)
(0.094504566 -0.00014767378 0)
(0.094413303 -0.00060838597 1.2610661e-23)
(0.094314014 -0.0012091046 -3.1825633e-22)
(0.094204975 -0.00201546 2.9253692e-24)
(0.094144809 -0.0029581887 -3.0902676e-24)
(0.094160426 -0.0040543747 -2.4477242e-24)
(0.094240065 -0.0053504986 1.0487834e-21)
(0.094372977 -0.0068261569 0)
(0.094626269 -0.008544011 0)
(0.095010593 -0.010483596 1.3225044e-21)
(0.095390195 -0.01261164 -1.0103995e-21)
(0.095786493 -0.014922537 -1.2852372e-21)
(0.096529737 -0.017404523 -3.330809e-22)
(0.097781627 -0.020160749 2.4127251e-22)
(0.099531265 -0.02328543 1.9580255e-21)
(0.10154074 -0.026743916 3.6858573e-22)
(0.10389249 -0.030134974 -6.373074e-22)
(0.1060823 -0.033362192 -2.6511847e-22)
(0.10772176 -0.036424818 8.3020194e-22)
(0.085393437 0.0010181584 0)
(0.085901698 0.00058945029 6.7982734e-24)
(0.091921056 -0.00028697875 7.1679824e-23)
(0.09178683 4.5636758e-05 2.6664021e-23)
(0.092233288 0.0003550766 -1.3945257e-22)
(0.092958586 0.00040490603 -1.9167207e-24)
(0.093570329 0.00044907026 -2.2058718e-23)
(0.093914334 0.00051518941 0)
(0.094092956 0.00054604737 1.1397546e-23)
(0.09418448 0.00050683057 1.077636e-22)
(0.094217586 0.00037913517 -4.1708014e-22)
(0.09422605 0.00015983983 1.8914952e-22)
(0.094221703 -0.00016023807 -5.014142e-24)
(0.094224918 -0.00059848196 2.3691397e-22)
(0.094261603 -0.0011649999 5.921372e-22)
(0.094318553 -0.0019029687 -2.4939679e-25)
(0.0943911 -0.0028005925 -7.0567509e-22)
(0.094517326 -0.003835358 -6.34122e-24)
(0.094729072 -0.0050700855 -1.5728952e-23)
(0.095008269 -0.0064533988 -5.7007896e-23)
(0.095386245 -0.0080774958 9.4274827e-23)
(0.095890081 -0.0099268938 9.1038239e-22)
(0.096422997 -0.0119464 -1.4921931e-22)
(0.097003984 -0.014050168 -6.4371329e-22)
(0.097796091 -0.016231401 0)
(0.098705039 -0.018780444 2.5704408e-22)
(0.09992379 -0.021725436 -3.7083902e-22)
(0.10185818 -0.02471988 -6.3092702e-22)
(0.10409514 -0.02780344 -4.7176469e-22)
(0.10678955 -0.031033078 -4.0122663e-22)
(0.10906376 -0.034346084 2.2342321e-23)
(0.08492325 0.0011052688 0)
(0.085262313 0.00076986648 1.8922527e-22)
(0.090930804 -0.00033603625 -7.4305332e-22)
(0.090453224 3.1883526e-05 3.095776e-22)
(0.090760697 0.00033497515 3.4146526e-24)
(0.091470766 0.0003670017 -2.2916006e-23)
(0.092108119 0.00041041054 0)
(0.092623238 0.00047361767 4.0339449e-23)
(0.092986489 0.00050465516 5.0303715e-23)
(0.093244058 0.00046406212 1.7195506e-22)
(0.093421825 0.00034407369 -2.4979336e-22)
(0.093561602 0.00014081374 -2.8041947e-25)
(0.093666041 -0.00015365067 1.8429124e-22)
(0.093777169 -0.00056298974 -2.104199e-22)
(0.093928362 -0.0010949721 2.7109563e-22)
(0.094118121 -0.0017918788 3.1413131e-22)
(0.094341151 -0.0026217325 -6.1582317e-22)
(0.094613986 -0.0035975508 7.6881641e-22)
(0.094979724 -0.0047645619 -7.8158434e-22)
(0.095411287 -0.0060731642 0)
(0.095921686 -0.0075909131 1.0199862e-22)
(0.096573866 -0.0093224922 1.47971e-22)
(0.097342407 -0.011233467 8.5627899e-22)
(0.098158795 -0.013243512 -2.6877309e-22)
(0.099069642 -0.015265334 0)
(0.10018365 -0.017340692 7.8954137e-22)
(0.10134644 -0.019671361 -2.7724333e-22)
(0.10269526 -0.022547121 2.768735e-22)
(0.10451593 -0.025654239 -2.517114e-22)
(0.10675135 -0.028579581 1.4712944e-22)
(0.10971308 -0.032028907 -2.63169e-22)
(0.084736938 0.001295091 -1.7917351e-21)
(0.084720374 0.00090528427 9.7747688e-25)
(0.090177039 -0.00038582678 4.3132932e-24)
(0.089430971 -6.2664975e-05 -9.2679412e-23)
(0.089490044 0.00027119539 1.7180641e-22)
(0.090058099 0.00030789065 2.7997244e-25)
(0.09063974 0.00035603887 2.6578851e-23)
(0.091122221 0.00042413955 -3.7291609e-24)
(0.091534999 0.00045547193 7.4538863e-23)
(0.091896421 0.00042163793 -2.0387028e-22)
(0.09222005 0.00030819495 -2.4335156e-22)
(0.092513 0.0001174672 -1.7470995e-22)
(0.092772651 -0.00016194788 1.7146555e-22)
(0.093022788 -0.0005380842 -1.913267e-22)
(0.093306311 -0.0010210925 2.4781282e-22)
(0.093640308 -0.0016529489 -1.0057666e-23)
(0.09400128 -0.0024135764 -5.0582602e-22)
(0.094416142 -0.003328582 6.8108662e-22)
(0.094944927 -0.0044077558 -5.5022457e-23)
(0.095549112 -0.0056388243 0)
(0.096217641 -0.0070529895 1.1186129e-22)
(0.097067325 -0.0086608338 -1.9864709e-21)
(0.098086819 -0.010412298 -1.2920078e-21)
(0.099138914 -0.012328399 0)
(0.10032195 -0.014352237 1.3605685e-21)
(0.10154108 -0.01650763 -9.9377399e-22)
(0.10284525 -0.018663806 4.0913634e-22)
(0.10421349 -0.020675927 -3.8244839e-22)
(0.10584004 -0.022907421 2.1905096e-22)
(0.10751501 -0.025316796 1.5426156e-21)
(0.10983268 -0.028635928 -5.0291014e-22)
(0.085586263 0.0014125749 -8.3018055e-22)
(0.084520117 0.0011316894 2.3088665e-23)
(0.089523094 -0.0003538582 3.4989209e-23)
(0.088527996 -6.8899467e-05 1.1513896e-22)
(0.088361489 0.00027490694 7.7621241e-23)
(0.088786036 0.00031113008 9.541802e-23)
(0.089221383 0.00034281821 -1.1697209e-22)
(0.089595063 0.00039394063 -9.7931935e-25)
(0.089941714 0.00041195571 1.1374143e-23)
(0.090295802 0.00037617844 8.1992574e-23)
(0.090669061 0.00027682694 -1.0276463e-23)
(0.09105886 0.00010027597 -1.3139599e-23)
(0.091459952 -0.00016407962 -1.6073155e-22)
(0.09186288 -0.00051018335 -1.3939811e-25)
(0.092310322 -0.0009546075 -2.2961642e-22)
(0.092822167 -0.0015532668 -8.019271e-24)
(0.093328358 -0.0022704406 6.5740413e-24)
(0.093869816 -0.0031050721 -1.144727e-21)
(0.09452604 -0.0040966627 0)
(0.095276409 -0.0052302198 -5.8198234e-22)
(0.096101008 -0.0065200409 -1.2189008e-22)
(0.097098559 -0.0079793062 -7.2844777e-22)
(0.0982411 -0.0096373281 1.780759e-22)
(0.099446263 -0.011443399 2.4865293e-22)
(0.10075487 -0.013351565 1.5961178e-23)
(0.10224734 -0.015412955 -1.23163e-22)
(0.1040557 -0.017520948 1.6822699e-21)
(0.10592006 -0.019588653 -1.1964344e-22)
(0.10773732 -0.021587925 -8.4523952e-22)
(0.10956284 -0.023406453 -1.9071872e-22)
(0.11125057 -0.025683074 -7.3281124e-22)
(0.089353736 0.0019667771 3.5827468e-21)
(0.085082671 0.0012481833 0)
(0.089511594 -0.00045576814 2.9577718e-21)
(0.088147642 -0.00010376753 -1.8770755e-22)
(0.087633789 0.00022755453 -1.3771333e-22)
(0.087795376 0.00024369899 2.7247991e-24)
(0.087973097 0.00027137842 -5.9580308e-23)
(0.088161877 0.00032624967 -1.2002964e-23)
(0.088385718 0.00035199603 -6.0859289e-23)
(0.088648463 0.00032745813 2.2528973e-22)
(0.088968786 0.00024608121 2.0780857e-22)
(0.089346576 9.499886e-05 -7.8747489e-24)
(0.089784512 -0.00014524907 -1.4177438e-22)
(0.09027515 -0.00045016627 -3.5079436e-22)
(0.090828821 -0.00085136842 4.1685343e-22)
(0.091513611 -0.0014013275 4.2956725e-22)
(0.092222375 -0.0020916439 3.909124e-22)
(0.092920831 -0.0028578416 -4.9145376e-22)
(0.093717448 -0.0037708828 -6.22734e-24)
(0.09461611 -0.0048202043 1.4824515e-23)
(0.095564427 -0.006025565 1.1796723e-22)
(0.09658992 -0.007399676 -7.3620732e-24)
(0.097795192 -0.0089470453 0)
(0.099217135 -0.0105968 1.3567302e-22)
(0.10071881 -0.012252339 1.1579683e-22)
(0.10228384 -0.013991846 4.6291093e-22)
(0.10396672 -0.015948773 -2.8275551e-22)
(0.10589079 -0.018114585 -6.7262677e-22)
(0.10808461 -0.020211001 -1.0696669e-21)
(0.11061345 -0.022240047 4.2307717e-22)
(0.11266191 -0.024343069 6.5212867e-22)
(0.099762892 0.0023878243 5.4775616e-22)
(0.087295532 0.0014659006 8.5179729e-25)
(0.090579616 -0.00042768705 1.1886197e-21)
(0.088710638 -5.5346072e-05 -3.4688478e-22)
(0.087770076 0.0002487356 2.004036e-23)
(0.087611495 0.00022001466 3.4126692e-24)
(0.087480211 0.00024896731 5.2639214e-23)
(0.08735071 0.00029997054 -4.4926002e-25)
(0.087289966 0.0003174467 -4.7706239e-23)
(0.08732769 0.00029293504 -7.4363331e-23)
(0.087450714 0.00021153402 2.7806748e-22)
(0.087685163 7.0367182e-05 0)
(0.088032468 -0.00013925111 5.6653764e-24)
(0.088479679 -0.00043238727 2.9126882e-24)
(0.089032283 -0.00078187385 3.2907664e-22)
(0.089684472 -0.0012401833 -4.2064528e-22)
(0.090528253 -0.0018702018 -4.4079724e-23)
(0.091433526 -0.0025977897 4.313185e-22)
(0.092413632 -0.0034209231 4.4289251e-22)
(0.09350936 -0.0043746619 4.1675845e-22)
(0.09466012 -0.0054821818 3.897393e-22)
(0.095880599 -0.0067377634 2.3705659e-23)
(0.097221991 -0.0080879281 2.080149e-22)
(0.09876425 -0.0096009706 1.4901236e-22)
(0.10043167 -0.011241542 1.8608186e-22)
(0.10213936 -0.012905979 -2.8902571e-22)
(0.10389922 -0.014651905 -1.0261345e-23)
(0.10577134 -0.016516201 -1.8264472e-22)
(0.10787828 -0.018473055 1.2172468e-21)
(0.11011059 -0.020400199 1.3352086e-21)
(0.11286636 -0.022836515 -2.2638385e-21)
(0.11296466 0.0027057339 -5.4607295e-21)
(0.093501657 0.00078590973 7.2848979e-24)
(0.094440168 -0.00048842446 -2.2135806e-21)
(0.09155705 -0.00011582034 8.0548579e-22)
(0.089407931 0.00022931059 -1.712211e-25)
(0.088543548 0.0002140184 0)
(0.087968839 0.00022553956 5.3665538e-24)
(0.087526926 0.00026678189 -8.2683347e-23)
(0.087199548 0.00028972937 2.9677433e-23)
(0.086973033 0.0002713179 -8.0091791e-23)
(0.086839686 0.00021180679 3.6020152e-25)
(0.086814886 9.0269442e-05 3.4356894e-24)
(0.086914475 -9.8024204e-05 0)
(0.087147645 -0.00035563609 2.5641626e-22)
(0.087525604 -0.00067892867 -1.1607002e-22)
(0.088026586 -0.0010892456 -9.109501e-24)
(0.088750562 -0.001610301 3.4287794e-22)
(0.089643124 -0.0022709744 3.8278787e-22)
(0.090678381 -0.0030421933 2.8018672e-22)
(0.091900016 -0.0039240775 3.7948343e-22)
(0.093250689 -0.0049407415 4.2069694e-22)
(0.094703512 -0.0060342068 1.4643943e-22)
(0.096245923 -0.0071643904 2.2969358e-22)
(0.097898486 -0.0084524609 5.9544707e-22)
(0.099658229 -0.0099235566 -7.0128294e-22)
(0.1015982 -0.011465777 2.7098035e-22)
(0.10367799 -0.012945614 -5.6800886e-23)
(0.10575317 -0.014530867 -6.3182794e-22)
(0.10795483 -0.016320616 -8.7298978e-22)
(0.10992223 -0.018038889 2.8804094e-22)
(0.11246524 -0.020331024 1.7829857e-21)
(0.11461901 0.0019280678 7.080252e-22)
(0.099857109 0.00045092893 8.8238187e-24)
(0.10018024 -0.00049846773 -2.8138321e-22)
(0.096987841 -4.972492e-05 -4.8439421e-23)
(0.093836077 0.00024756848 2.7245448e-24)
(0.091655498 0.00025202919 -2.214865e-23)
(0.090129247 0.00026960121 -1.7404148e-23)
(0.089047113 0.00029320106 -2.9188362e-24)
(0.088293349 0.00028805625 2.6241291e-23)
(0.08773724 0.00024975865 8.8462494e-23)
(0.087316956 0.0001828951 -7.9657939e-23)
(0.087035674 7.7031825e-05 7.7298648e-23)
(0.086890996 -8.9663699e-05 0)
(0.086876909 -0.00031419399 1.4374529e-24)
(0.087014698 -0.00059886684 -2.0158214e-22)
(0.087288614 -0.00095459357 -2.163196e-24)
(0.087732534 -0.0014041062 -3.129665e-23)
(0.088383975 -0.0019501012 4.4943227e-24)
(0.089237575 -0.0026197523 6.0500443e-23)
(0.090368008 -0.0033864451 -4.4579262e-24)
(0.091762102 -0.004291325 -5.535365e-22)
(0.09331653 -0.0053020343 3.2364809e-22)
(0.095033918 -0.0063391899 2.2118624e-22)
(0.096857954 -0.0074732239 -6.4455333e-22)
(0.098745775 -0.0087725596 -3.8005026e-22)
(0.10069176 -0.010199971 3.770767e-22)
(0.10282498 -0.011600634 -3.4137108e-22)
(0.1051181 -0.01289916 -8.4999523e-22)
(0.10758333 -0.014298074 1.0729087e-21)
(0.10993855 -0.015627188 8.2489167e-22)
(0.11221285 -0.017331438 -1.0976172e-21)
(0.10948905 0.0018201206 9.5349856e-21)
(0.10258356 -0.00022163559 0)
(0.10473765 -0.00075613599 1.0962791e-22)
(0.1024607 -5.6269089e-05 -1.4292299e-21)
(0.099938297 0.00017361688 2.199683e-24)
(0.097667323 0.00014345107 2.6401833e-23)
(0.09540442 0.00020850183 7.9937749e-24)
(0.093366994 0.00028247504 1.3049241e-24)
(0.091722919 0.00031277419 -2.6160144e-23)
(0.090459188 0.00029477427 6.6793654e-23)
(0.089464643 0.00023092849 6.0955616e-23)
(0.08871763 0.00012702008 1.9252306e-25)
(0.088197239 -3.674564e-05 -1.5927854e-22)
(0.087898674 -0.00024002807 0)
(0.087747681 -0.00047953786 -1.5872518e-22)
(0.0877781 -0.00078546975 -1.3501028e-22)
(0.087950936 -0.0012192582 -2.6619537e-22)
(0.088296665 -0.0017236807 2.4923121e-22)
(0.088845494 -0.0022879806 -6.5701779e-24)
(0.089632729 -0.0029327775 -3.1988176e-22)
(0.090694289 -0.0037174688 -2.1017832e-22)
(0.092037332 -0.0046134258 -1.9524058e-23)
(0.093648169 -0.0056191014 -4.8594075e-22)
(0.095495937 -0.006707961 -3.1668704e-22)
(0.097492777 -0.0078856228 4.3836723e-22)
(0.099507211 -0.0091306603 -2.4591696e-22)
(0.10161261 -0.010428776 9.2445086e-22)
(0.10388896 -0.01171716 -7.0232176e-23)
(0.1064007 -0.013033344 -3.0583959e-22)
(0.10913917 -0.014343245 -7.4350979e-23)
(0.11199252 -0.015859283 -1.7396207e-22)
(0.098938086 0.0012635332 -3.4198381e-22)
(0.10021007 0.00016155015 1.1259927e-21)
(0.10458546 -0.00083780404 1.0170048e-22)
(0.10314954 -3.6374832e-05 1.1117646e-23)
(0.10224112 0.00014387823 8.8077338e-24)
(0.1015821 6.0006517e-05 -4.0447371e-22)
(0.10057045 0.00011757464 -6.5116309e-24)
(0.099135432 0.00017025912 1.6976764e-24)
(0.097513593 0.00020289957 -1.3382485e-23)
(0.095906255 0.00019185343 -7.3107587e-23)
(0.09440049 0.00015344416 4.3184018e-24)
(0.093058104 8.1480172e-05 -6.4679434e-23)
(0.091927776 -5.118435e-05 6.7518182e-25)
(0.091092806 -0.00023041805 1.6131244e-24)
(0.090440795 -0.00046427446 0)
(0.089975795 -0.00072744282 0)
(0.089765716 -0.0010805106 2.5331162e-22)
(0.089778669 -0.0015243117 3.8601934e-23)
(0.089999659 -0.0020331746 -2.1315432e-22)
(0.090420328 -0.0026213743 -9.6228309e-23)
(0.0910418 -0.0033174223 -1.2554939e-22)
(0.091905452 -0.004094621 -1.4765743e-22)
(0.09303361 -0.0049717015 0)
(0.094469231 -0.0059348292 0)
(0.096223238 -0.006971871 0)
(0.098146182 -0.0080362765 4.5017677e-22)
(0.10018008 -0.009185975 -4.9826616e-23)
(0.10229423 -0.010448504 8.5750807e-23)
(0.10461189 -0.011789356 3.2690242e-22)
(0.10695474 -0.012956153 -3.829108e-22)
(0.10999641 -0.014698823 4.5741123e-22)
(0.091950632 0.001632459 -1.1929442e-21)
(0.093548305 -2.7204375e-05 2.978427e-23)
(0.10102912 -0.0010431709 -2.939039e-23)
(0.10075587 -0.00019157889 1.6477678e-21)
(0.1009331 7.1690417e-05 0)
(0.10107646 3.2578648e-05 1.6850516e-24)
(0.10086545 0.00010092296 -3.0181128e-23)
(0.10044364 0.00014421822 -6.2517842e-24)
(0.099923092 0.0001705992 4.8948089e-24)
(0.099307922 0.00016030607 1.0945537e-22)
(0.098562897 0.00012375436 -7.5754461e-23)
(0.097693337 4.9316208e-05 0)
(0.09675401 -6.2435671e-05 3.7242099e-22)
(0.095839295 -0.00021125796 1.4469123e-22)
(0.095069596 -0.00040984335 1.7223045e-22)
(0.094396656 -0.00066349491 1.9891849e-23)
(0.093811285 -0.0009508793 1.4016049e-22)
(0.093454637 -0.0013093809 -4.1366402e-23)
(0.093302226 -0.001758882 -1.3944906e-22)
(0.093319043 -0.0022748688 -1.0771402e-22)
(0.093505654 -0.0028815767 1.3300602e-23)
(0.093923522 -0.0035866035 1.5578134e-22)
(0.094598471 -0.0043480804 -7.0972766e-24)
(0.095539224 -0.005164856 0)
(0.096757187 -0.0060742394 1.9012591e-22)
(0.098222684 -0.0070672292 -2.0355033e-22)
(0.099930572 -0.008035778 4.4688519e-22)
(0.10178839 -0.0089851889 -3.4082693e-22)
(0.10397179 -0.010045693 2.828356e-22)
(0.10598482 -0.010962082 3.7702249e-22)
(0.10855536 -0.012540562 2.4719116e-22)
(0.091904515 0.0014661192 2.313676e-21)
(0.09173259 0.00054521102 -4.8067407e-22)
(0.097144097 -0.00085056431 -1.6739572e-24)
(0.096600755 -0.00017894187 -1.1939426e-21)
(0.097138261 -7.9007127e-06 -1.5057e-23)
(0.09807771 -6.1246816e-05 6.9967721e-25)
(0.098633947 -8.1888109e-06 9.7737032e-23)
(0.098883431 2.1644948e-05 -3.6237675e-23)
(0.098904935 5.148847e-05 -1.3770581e-23)
(0.098828404 3.4125904e-05 1.834127e-24)
(0.098677931 -4.1283066e-06 8.0293233e-23)
(0.098472381 -7.8917461e-05 -6.0555248e-24)
(0.098240231 -0.00018455285 -3.3646053e-24)
(0.097991394 -0.00031905739 -9.1530802e-25)
(0.097744848 -0.00049543996 1.7848348e-22)
(0.097542358 -0.00069386989 1.9314092e-24)
(0.097358013 -0.00097892624 -8.1457168e-23)
(0.097239393 -0.0012854679 -4.9420106e-23)
(0.097230708 -0.0016431853 -7.1923015e-23)
(0.097324988 -0.0020518119 0)
(0.097504677 -0.0025171309 7.3012054e-23)
(0.097793836 -0.0030389641 6.9059325e-23)
(0.098252191 -0.0036163522 -1.9526889e-22)
(0.098914511 -0.0042346098 -1.3834542e-22)
(0.099782796 -0.0049492166 -1.2571212e-24)
(0.10084359 -0.0057948111 4.4477221e-22)
(0.10208512 -0.0067275142 -6.8787239e-23)
(0.10350587 -0.0075993338 -3.1638589e-23)
(0.1052305 -0.0085033069 -3.8939526e-22)
(0.1071023 -0.0092327881 -3.9488232e-22)
(0.10866519 -0.01040397 3.6085488e-22)
(0.10582946 0.0022104386 3.5652886e-21)
(0.09521844 0.00023824704 -1.5620884e-24)
(0.098227243 -0.0011541773 2.0724419e-21)
(0.096578043 -0.00011655698 -6.2147554e-23)
(0.096213006 0.00010865477 1.3423676e-23)
(0.096342583 1.462269e-05 -8.5082126e-23)
(0.096434772 6.8624176e-05 0)
(0.096560512 9.2658908e-05 -4.2608595e-24)
(0.096676646 0.00011060549 7.9379958e-25)
(0.096797092 8.6668837e-05 -1.4732931e-22)
(0.096924254 5.5659518e-05 4.8223049e-25)
(0.097047622 -8.8342363e-06 2.701962e-24)
(0.097165525 -0.00010594623 -1.3989459e-22)
(0.09728973 -0.00021582642 -6.6877504e-23)
(0.097437562 -0.00036398484 -1.3512916e-22)
(0.097620878 -0.00055579119 -1.7342656e-23)
(0.097870032 -0.00077237157 1.3689265e-24)
(0.098188683 -0.0010350804 9.3474218e-25)
(0.098618983 -0.0013663324 0)
(0.099177272 -0.0017516974 1.0979508e-22)
(0.099770923 -0.0021366858 -9.107562e-23)
(0.1004037 -0.0025694376 2.0654553e-22)
(0.1011294 -0.0030934271 4.3394435e-23)
(0.10196993 -0.0036674957 -1.2014381e-22)
(0.10295348 -0.0042695345 -4.8359303e-22)
(0.10402278 -0.004925202 -1.5052221e-23)
(0.10519143 -0.00566236 7.4356619e-22)
(0.10648987 -0.0063790875 -2.7613748e-22)
(0.10791832 -0.0070606467 -1.7835719e-22)
(0.10970998 -0.0077178494 -4.3123019e-22)
(0.11095102 -0.0085413797 -7.2807702e-23)
(0.099917237 0.00139813 3.6871498e-21)
(0.096403542 0.00023443229 4.6502898e-25)
(0.099528079 -0.0012596949 1.4443614e-23)
(0.097722003 -0.00010890111 2.567702e-21)
(0.09714449 -1.4832558e-05 -4.150815e-24)
(0.096917715 -0.00015682155 -2.7318447e-22)
(0.096596419 -8.2572114e-05 0)
(0.096295034 -7.382583e-05 0)
(0.096080792 -2.7736759e-05 -1.6086894e-23)
(0.095919877 -4.2857975e-05 0)
(0.095804635 -5.4408951e-05 -9.3049972e-23)
(0.095773943 -0.00010875341 1.4913294e-22)
(0.095821736 -0.00020210541 0)
(0.095936666 -0.00030958239 -1.9418719e-22)
(0.096128754 -0.00042524792 -8.9508742e-23)
(0.096428421 -0.00055275845 -8.3339822e-23)
(0.096819381 -0.00074807434 2.2831808e-23)
(0.097297845 -0.00098795461 -4.6362791e-23)
(0.097914561 -0.0012414151 8.1557633e-23)
(0.098719561 -0.0015571029 1.7096632e-22)
(0.099644203 -0.0019050554 1.6121332e-23)
(0.10063341 -0.0022585964 8.3654993e-24)
(0.10171964 -0.002684397 -1.6400476e-22)
(0.10290066 -0.0031929799 -3.909817e-23)
(0.10422875 -0.0037222053 3.3363835e-22)
(0.10565116 -0.004233853 -4.8904272e-22)
(0.10708464 -0.0047941677 -5.2076236e-22)
(0.10848516 -0.0054841417 2.8770056e-22)
(0.10993322 -0.0062234317 1.6226195e-22)
(0.11170547 -0.0070038363 -9.8846975e-23)
(0.11333196 -0.0076878507 1.009199e-21)
(0.093403678 0.0019940236 2.2946552e-21)
(0.093892016 0.00012577001 -5.2977352e-24)
(0.098415129 -0.0013581324 -2.533662e-21)
(0.096961852 2.8538105e-05 -3.4117012e-21)
(0.096780362 0.0001087967 1.7635624e-22)
(0.096713545 1.0038824e-05 2.5851548e-24)
(0.096478806 7.4969055e-05 -6.4256887e-24)
(0.096204306 5.2379764e-05 -1.3193399e-22)
(0.095962855 7.0751692e-05 3.4437449e-23)
(0.095754216 4.1389071e-05 6.0673395e-23)
(0.095564509 2.7085906e-05 8.895486e-24)
(0.09541527 -2.5726573e-05 -4.4877818e-24)
(0.095340795 -9.4251665e-05 1.019255e-22)
(0.09534936 -0.00018894431 -1.04906e-22)
(0.095441123 -0.00029346168 -6.2172424e-23)
(0.095664758 -0.00039079548 -3.3398507e-24)
(0.095948044 -0.00052393554 2.6176848e-23)
(0.096301448 -0.00071449397 5.9620029e-23)
(0.096813577 -0.00095748568 6.55227e-23)
(0.097503027 -0.0012153745 -1.3995892e-22)
(0.098337058 -0.0015213026 -1.3129568e-23)
(0.099306607 -0.0018628717 1.6552042e-22)
(0.10044563 -0.0022505048 2.2448071e-22)
(0.10170152 -0.0027250556 -2.5906759e-26)
(0.10307271 -0.0032393953 6.7836701e-23)
(0.10465098 -0.0037292062 1.3921778e-22)
(0.10642277 -0.0042186137 2.6598845e-23)
(0.10827604 -0.0047555582 -9.0828881e-22)
(0.11011361 -0.0052978632 -9.4534482e-22)
(0.11191236 -0.0059125639 1.4806527e-22)
(0.11387075 -0.0067114628 1.7303272e-21)
(0.096283767 0.0016449957 -3.4992218e-21)
(0.093847798 0.00063614435 -2.0085472e-24)
(0.09743402 -0.0014966397 9.5350044e-23)
(0.09592218 -0.00021513153 -7.5676783e-23)
(0.09592762 -0.00014397387 -7.2371248e-23)
(0.095990891 -0.00024450011 2.9434387e-22)
(0.095890172 -0.00012088774 -6.1606912e-23)
(0.095740577 -0.00016672857 9.5540089e-23)
(0.095594397 -0.00010175517 -4.7743781e-24)
(0.095464832 -0.00015854069 7.9797775e-24)
(0.095335528 -0.00015521583 7.883839e-23)
(0.095238372 -0.00020326123 -2.3810698e-22)
(0.09519442 -0.00025679041 3.4674983e-24)
(0.095216796 -0.00031719136 7.6815595e-23)
(0.095295852 -0.00040364595 7.575715e-25)
(0.095469759 -0.00046680869 3.8788892e-23)
(0.095723957 -0.00060631403 1.6035878e-23)
(0.096091995 -0.00076988292 0)
(0.096589333 -0.00093287868 -2.3241678e-25)
(0.097169719 -0.0011662739 -1.0481093e-24)
(0.097878759 -0.0014753312 -1.4399136e-22)
(0.098734955 -0.00179159 -1.1725694e-22)
(0.099754308 -0.0021133715 -3.6902773e-23)
(0.1009363 -0.0024426802 2.0686564e-22)
(0.10223474 -0.0028342186 1.9199512e-22)
(0.1036692 -0.0033066345 -2.3028007e-22)
(0.10527103 -0.0037866649 2.6997494e-22)
(0.10706943 -0.0042075749 7.4673264e-22)
(0.10902754 -0.0045691197 -1.7819448e-21)
(0.11100903 -0.0049350392 -1.2717453e-21)
(0.11315198 -0.00543412 -1.5502665e-21)
(0.09965695 0.0024475597 -2.4925771e-21)
(0.096684842 -0.00023440954 5.5466751e-22)
(0.099272501 -0.001734914 -1.8595702e-21)
(0.097324256 6.0362749e-05 7.0163196e-21)
(0.09705593 3.1875383e-05 -3.2384635e-24)
(0.096830986 -8.2842452e-05 5.4491064e-25)
(0.09657137 9.1187529e-06 1.5331553e-25)
(0.09631956 -7.2805243e-06 6.3583289e-23)
(0.096074009 5.5275989e-05 3.0237988e-23)
(0.095873521 3.395867e-05 -3.7071846e-23)
(0.095697798 4.3302635e-05 3.4100409e-23)
(0.095576029 2.2972189e-06 -4.9894847e-25)
(0.095516803 -3.3787802e-05 6.6580271e-24)
(0.095534358 -0.00011007509 2.1773626e-25)
(0.095613148 -0.00017467241 1.0065213e-23)
(0.095715221 -0.00022044355 1.0565409e-22)
(0.096022632 -0.00027286557 -2.2813161e-24)
(0.096400649 -0.00035212425 4.3481464e-24)
(0.096910786 -0.00046144367 -9.3767592e-23)
(0.097527357 -0.00058936282 -3.0483286e-22)
(0.098264077 -0.00076251108 -5.7589656e-23)
(0.099144059 -0.00094703491 8.7434621e-23)
(0.10016385 -0.0011611688 -9.9878296e-23)
(0.10132606 -0.001378582 6.3203643e-22)
(0.10259974 -0.001640878 3.1440708e-22)
(0.10403506 -0.0019591575 -3.1883195e-22)
(0.1056062 -0.0023198845 -1.8420441e-21)
(0.1073286 -0.00265259 7.146271e-22)
(0.10912754 -0.0029823219 -2.9457711e-22)
(0.11098508 -0.0032881153 9.5165202e-22)
(0.11273985 -0.0036153799 8.6792536e-22)
(0.10628579 0.0016905562 1.9562349e-21)
(0.10040749 0.0010457563 -4.3992293e-24)
(0.10246552 -0.0022384654 -1.4929591e-22)
(0.1004218 -0.00016183106 -7.430879e-23)
(0.10016762 -0.0001929505 7.7077098e-24)
(0.099725946 -0.00036820236 4.1848151e-24)
(0.09922719 -0.00017051083 -1.9711374e-25)
(0.098767572 -0.00031594704 -4.5374866e-24)
(0.098401771 -0.00013507804 4.4669691e-25)
(0.098074676 -0.00026550143 -4.5542855e-24)
(0.097788601 -0.00017251099 1.2421502e-24)
(0.09755998 -0.0002206969 2.7979473e-22)
(0.097421708 -0.0002100803 1.4718993e-23)
(0.097350534 -0.00022824749 -5.5222484e-25)
(0.097320411 -0.0002998905 -7.8940468e-24)
(0.097345698 -0.00030370376 -1.2079801e-23)
(0.097591849 -0.00036740265 5.1914491e-23)
(0.09791558 -0.00040784241 4.6334681e-23)
(0.098380953 -0.00044547576 2.4145749e-22)
(0.098968703 -0.00050705411 1.9981519e-22)
(0.099666308 -0.00062555086 4.0891923e-23)
(0.10048637 -0.00074664324 -3.2932977e-25)
(0.10144582 -0.00089588718 -2.070239e-22)
(0.1025247 -0.001043458 1.7490503e-23)
(0.10373672 -0.0012254793 2.3046427e-22)
(0.1051092 -0.0014428716 9.7492846e-22)
(0.10660291 -0.0017348519 -3.0712487e-22)
(0.10820181 -0.0019966739 -1.055889e-21)
(0.10983936 -0.0022580288 -4.0694542e-22)
(0.11173805 -0.0025136616 -1.3962484e-21)
(0.11331032 -0.002885257 1.4361706e-21)
(0.111853 0.0024602185 1.530735e-21)
(0.097870699 -0.00091983407 -1.5976842e-21)
(0.1016073 -0.0017350156 1.1504101e-21)
(0.10021641 0.00019102984 -3.4581797e-21)
(0.10074363 -0.00010081418 -2.3781756e-21)
(0.10108533 -7.1011372e-05 2.3750259e-22)
(0.10119629 2.6674664e-05 -5.169501e-22)
(0.10126732 -2.0777605e-05 8.5541934e-25)
(0.10131453 3.4761651e-05 -1.540635e-22)
(0.10133918 1.4994426e-05 -3.669625e-22)
(0.10135868 2.5129246e-05 -3.428057e-22)
(0.10139213 -1.195976e-05 4.9639446e-24)
(0.10146043 -2.3346071e-05 -2.5944374e-22)
(0.10156761 -9.6777464e-05 5.5887404e-22)
(0.10165395 -0.00013642848 7.4857208e-24)
(0.10180001 -2.4650783e-05 -2.27825e-22)
(0.10213992 -3.925335e-05 -2.7011943e-24)
(0.10249256 -5.0450668e-05 -5.9316919e-23)
(0.10297605 -8.8277613e-05 -1.0115319e-25)
(0.1035712 -0.00012625284 2.4002788e-22)
(0.1042194 -0.00016429757 -1.4068384e-22)
(0.10498572 -0.00019956398 -6.7441453e-24)
(0.10585274 -0.00025338944 -8.6704123e-23)
(0.10682728 -0.00029355757 -5.8895873e-22)
(0.10793019 -0.00034612998 1.519145e-22)
(0.10915385 -0.00042777328 -3.7057814e-22)
(0.11053481 -0.00057462533 3.7099702e-22)
(0.11207492 -0.00075259077 0)
(0.11366831 -0.00089820834 -2.7037044e-22)
(0.11535929 -0.0010831034 -9.6665668e-22)
(0.11686588 -0.0011353798 -3.5064139e-22)
(0.10231179 0.00077458983 -3.7042219e-21)
(0.060527456 0.00016376312 0)
(0.11245468 -0.0028656215 4.5775229e-23)
(0.11104455 5.1691994e-05 -4.7312752e-22)
(0.10692666 -0.00017558021 -3.5419308e-22)
(0.11481165 -0.00028850482 4.9042522e-24)
(0.11032071 -3.2181744e-05 -6.1073035e-22)
(0.11502015 -0.00029392259 -8.9179031e-24)
(0.11313805 2.1468882e-05 -1.6188109e-22)
(0.11458446 -0.00025224904 -5.6908745e-24)
(0.11477243 -1.4003329e-05 -1.5540489e-23)
(0.11449339 -0.00015480215 -8.148975e-23)
(0.11586692 -5.4433173e-05 9.4823313e-23)
(0.11481949 -6.6204658e-05 3.5373776e-22)
(0.11685689 -0.00020121664 -9.8977816e-25)
(0.11660774 -6.896585e-05 -2.2799035e-23)
(0.11746182 -9.3080269e-05 2.5409464e-22)
(0.11736557 -6.6558977e-05 -1.5405801e-22)
(0.11773096 -4.1731862e-05 -2.5827627e-22)
(0.11781888 -7.3951271e-05 1.0998116e-23)
(0.11845298 -0.0001559833 -4.7499604e-22)
(0.11891395 -0.00017711788 6.5141244e-23)
(0.1196808 -0.00026025324 1.3282746e-22)
(0.12045382 -0.00027022654 -4.0301135e-22)
(0.12116476 -0.00032765899 6.9175287e-22)