/*--------------------------------*- C++ -*----------------------------------*\
| =========                 |                                                 |
| \\      /  F ield         | OpenFOAM: The Open Source CFD Toolbox           |
|  \\    /   O peration     | Version:  2406                                  |
|   \\  /    A nd           | Website:  www.openfoam.com                      |
|    \\/     M anipulation  |                                                 |
\*---------------------------------------------------------------------------*/
FoamFile
{
    version     2.0;
    format      ascii;
    arch        "LSB;label=32;scalar=64";
    class       surfaceScalarField;
    location    "95";
    object      phi;
}
// * * * * * * * * * * * * * * * * * * * * * * * * * * * * * * * * * * * * * //

dimensions      [1 0 -1 0 0 0 0];

oriented        oriented;

internalField   nonuniform List<scalar> 
40800
(
0.00079875414
0.00095933857
-0.0012316314
0.00089750905
0.00097193235
-0.0010700408
0.00096768809
0.0010675969
-0.0011998927
0.0010311764
0.00090414697
-0.00092437618
0.0010889636
0.00093841631
-0.00093545376
0.0011411161
0.00083779384
-0.00089697403
0.0011878459
0.00081593835
-0.00090813865
0.0012348938
0.00078173869
-0.00085515487
0.0012729766
0.00077012804
-0.00083250117
0.0013094686
0.00068684661
-0.00070386403
0.0013486972
0.00067192358
-0.00069830882
0.0013895917
0.00073488164
-0.00079201582
0.001414856
0.00073909574
-0.00077939332
0.0014380334
0.00063316108
-0.0006951437
0.0014924433
0.00070562645
-0.00072061106
0.0015302373
0.00084204507
-0.00091879485
0.0015029194
0.00066794357
-0.00074807601
0.0016115126
0.00068000066
-0.00065801035
0.0016814819
0.0010433208
-0.0010803695
0.0016034943
0.00086815589
-0.00096560151
0.0016854282
0.00071222896
-0.00073503081
0.0018126736
0.0010535063
-0.0010557603
0.0018388065
0.0011482931
-0.0012163002
0.0017237868
0.00090542829
-0.00096170838
0.0018482531
0.00088021187
-0.00084253703
0.0021651621
0.0012148839
-0.0011535892
0.0021701377
0.0016090281
-0.0016515926
0.0021985321
0.0017649299
-0.0018614027
0.0024760784
0.0014757122
-0.0016603632
0.0024818654
0.0011996832
-0.0015302412
0.0014813739
0.0020498701
-0.0016446731
0.00079164438
0.00069072863
0.00088615315
0.0008740817
0.00095512453
0.00091486559
0.0010253454
0.00089735531
0.0010826957
0.00091369722
0.0011354856
0.00080153838
0.0011817613
0.00073199564
0.0012298721
0.00071125696
0.0012679124
0.00069938158
0.0013065879
0.00067561969
0.0013463723
0.00064515679
0.001384831
0.00068196289
0.001404992
0.00067168059
0.00143851
0.0005940893
0.0014954211
0.00067244077
0.0015096782
0.00074945935
0.0015012386
0.0006242593
0.0016450838
0.00073608403
0.0016548172
0.00095466385
0.0015799016
0.00074708029
0.0017319761
0.00074740908
0.001821841
0.0010700015
0.0017924698
0.0010630924
0.0017167339
0.00091521675
0.0018946609
0.0010390437
0.0022480612
0.0012674786
0.0022279025
0.0014337617
0.0020552425
0.0015263568
0.0022524735
0.0013373116
0.0025409633
0.001008934
0.0012369007
0.0024042711
0.00078675151
0.00048576174
0.00087323221
0.00078242783
0.00093806882
0.00078822922
0.0010113637
0.00087504433
0.0010695429
0.0008436975
0.0011226732
0.00075616071
0.0011700517
0.00066525397
0.0012199706
0.00066506045
0.0012591662
0.00062819319
0.0012988919
0.00065250554
0.0013407448
0.00062649735
0.0013760886
0.00064007722
0.0013933847
0.0005823232
0.0014361371
0.00059078704
0.0014908756
0.00064346096
0.0014913969
0.00064639101
0.0015074837
0.00059471679
0.00165914
0.00080528185
0.00162159
0.0008377179
0.0015742992
0.00063429349
0.0017779819
0.00079701144
0.0018173152
0.0010570724
0.0017745762
0.00094437396
0.0017599478
0.00088768389
0.001919563
0.0011944301
0.002235959
0.001333168
0.0022171794
0.0012063881
0.001947758
0.001173734
0.0020606918
0.0012199957
0.0025207454
0.0010351868
0.0010690207
0.0027553022
0.00078284461
0.00039133327
0.00086053675
0.00070239824
0.00092130364
0.00072342384
0.00099075769
0.00082587779
0.0010497883
0.00073057988
0.001102948
0.00070329152
0.0011534684
0.00062155287
0.0012039755
0.00062407584
0.0012455828
0.00056033316
0.0012857858
0.00060911958
0.0013305525
0.0006134928
0.0013613402
0.0005980051
0.0013831221
0.000503132
0.0014303383
0.00060115683
0.0014792603
0.00063272478
0.0014763348
0.00054885936
0.0015190235
0.00056851529
0.0016508828
0.0008534147
0.0015880937
0.00070910293
0.0015841241
0.00054382573
0.0018064114
0.00084645194
0.0017894355
0.0010023357
0.0017531133
0.00081130748
0.0018323696
0.00080115819
0.0019324241
0.0012131595
0.0021352904
0.0013601596
0.0021657222
0.0010005338
0.0019287934
0.0008194336
0.0019147597
0.0010957064
0.0023834011
0.0012720735
0.0011204633
0.0028857909
0.00078113518
0.00042694463
0.00085053556
0.00062538208
0.00090843153
0.00071758731
0.00096902961
0.0007351135
0.0010254401
0.00061008597
0.0010776502
0.00064995916
0.0011306979
0.00059660391
0.0011800103
0.0005719093
0.0012252979
0.00050144215
0.0012674114
0.00054539361
0.0013139774
0.00060750673
0.0013401123
0.00054198493
0.0013734585
0.00045258247
0.0014202529
0.00058900589
0.0014598194
0.00061685757
0.0014639171
0.00047777605
0.0015323181
0.0005601481
0.001622058
0.00084568652
0.0015584251
0.00059090264
0.0016051901
0.00049023383
0.0018133787
0.00086519428
0.0017462999
0.00092814462
0.0017260152
0.00068487511
0.0018979845
0.00069186047
0.0019576507
0.0010801227
0.0019984569
0.0012812145
0.0020769018
0.00087304969
0.0020037737
0.00058247682
0.001932062
0.00094199946
0.0022272469
0.0014777038
0.0014132692
0.0027555156
0.00078230133
0.00055504396
0.0008426015
0.00055132773
0.00089703574
0.00073404035
0.00094846536
0.00062222408
0.0010021849
0.00051225653
0.0010519393
0.00057634579
0.0011042628
0.00057109464
0.0011499722
0.00052263309
0.001198124
0.00045697861
0.001244345
0.00047378809
0.0012893749
0.00058605257
0.0013141889
0.00048213045
0.0013610878
0.00042927994
0.0014046024
0.00055408759
0.0014335918
0.00057038017
0.0014534004
0.00044412444
0.0015410683
0.00055562663
0.0015801895
0.00077378742
0.0015348242
0.00050073817
0.0016321329
0.00049106505
0.0018042566
0.00084930982
0.0016970349
0.00081534568
0.0017019583
0.000599913
0.0019483603
0.00061414089
0.0019876331
0.0008864218
0.0018796782
0.0010708929
0.0019582684
0.00083293454
0.002099155
0.00053214708
0.0021318815
0.00080818415
0.002166473
0.0014566024
0.001683035
0.0024497141
0.00078670669
0.0006786645
0.00083925302
0.00049832301
0.00088791294
0.00073467925
0.00093340015
0.00054231093
0.00098420231
0.0004656085
0.0010299784
0.00049759443
0.0010778913
0.00053596474
0.0011195923
0.0004682742
0.0011681637
0.0004344637
0.0012183392
0.00042943266
0.0012572366
0.00051996648
0.001286003
0.0004243389
0.0013435831
0.00043266596
0.0013821909
0.0005013094
0.0014051997
0.00050955768
0.001441874
0.00044471348
0.0015379893
0.00054208283
0.0015309422
0.00065277884
0.0015176411
0.00042622039
0.0016548998
0.00053930856
0.0017764721
0.00081824341
0.0016535439
0.00065257172
0.0016749655
0.00056043828
0.0019587056
0.00065565012
0.0019924587
0.00072579507
0.0018037546
0.00078726374
0.001870156
0.00081031759
0.0021697161
0.00066967655
0.0023661177
0.00076382424
0.0023095263
0.0011815257
0.0016049164
0.0022493975
0.00079801818
0.00071644159
0.00084682918
0.00046931069
0.00088781958
0.00069774667
0.00092717895
0.00051373796
0.00097281528
0.00048302966
0.0010129707
0.00044193165
0.0010545756
0.00048366435
0.0010941615
0.00040546252
0.0011418434
0.0004324597
0.0011919391
0.00042494955
0.0012224509
0.00041926112
0.0012581053
0.00037456676
0.0013190565
0.00045226815
0.0013534342
0.00043255392
0.0013752646
0.00043495907
0.0014252174
0.00045322763
0.0015195523
0.00052895445
0.0014801568
0.00050919321
0.0015071755
0.00036727109
0.0016633418
0.00059059733
0.0017236319
0.00075852183
0.0016235412
0.0004836251
0.0016625297
0.00053295355
0.001928525
0.00078509983
0.0019753464
0.00065644402
0.0017891788
0.00055042488
0.0017980856
0.00074753757
0.002151793
0.00090246409
0.0024582081
0.00084207667
0.0024553266
0.00086250442
0.0011322186
0.0022204925
0.00082974948
0.00064792161
0.00085924074
0.0004547318
0.00089338243
0.00061680692
0.00093061353
0.00051083262
0.0009695081
0.00052159734
0.0010050722
0.00041113203
0.0010394908
0.00041723121
0.001078836
0.00036171073
0.001123899
0.00043311286
0.0011679209
0.00043189219
0.0011924988
0.00031997166
0.001234604
0.00033684887
0.0012887004
0.00045063771
0.0013204089
0.00035850834
0.0013455859
0.00034103954
0.0014010356
0.00043927421
0.0014845522
0.00051598083
0.0014337185
0.0003671809
0.0015034283
0.00033759
0.0016530975
0.00062787045
0.0016523797
0.00066601088
0.0016104044
0.00034044478
0.0016792067
0.00049279116
0.0018628542
0.00089130852
0.0019329123
0.00068956261
0.00183001
0.00040269182
0.0018117525
0.00062757494
0.0020883554
0.0010836187
0.002390964
0.0010182641
0.0024605154
0.00068484627
0.00056330065
0.002244663
0.00090414515
0.00049457524
0.00088788448
0.00046846628
0.00091117119
0.00052648652
0.0009438488
0.0005193603
0.00097382702
0.00052390121
0.0010068758
0.00040525466
0.0010371144
0.00035854968
0.0010792365
0.000349159
0.0011205305
0.00041063845
0.0011548014
0.00039975254
0.0011784195
0.00024651588
0.0012221459
0.00031196724
0.0012607851
0.00041618443
0.001289793
0.00030787247
0.0013207193
0.00025714325
0.0013750707
0.00040585471
0.001436817
0.00048984724
0.0013954069
0.00025382997
0.0014992656
0.00032530676
0.0016224524
0.00062668872
0.0015690987
0.00057386979
0.0015934963
0.00023724103
0.0017226547
0.0004276749
0.0017958054
0.00089875329
0.0018402751
0.00077153348
0.0018580421
0.00034031356
0.0019201339
0.00049214063
0.0020382451
0.0010560592
0.0022192213
0.0011765414
0.0022972223
0.0006693574
0.00026282835
0.0022568548
0.00099754522
0.00028161466
0.00095467295
0.00049892629
0.00096103454
0.00047430972
0.00098280759
0.00052145407
0.00099694093
0.0004879727
0.0010210454
0.00041515772
0.0010480062
0.00032471488
0.0010897725
0.00036183308
0.0011251536
0.00036466805
0.0011508104
0.00032923137
0.0011799618
0.00021573463
0.0012227194
0.00028876304
0.0012473036
0.00035030697
0.0012738319
0.00027794312
0.0013128029
0.00022312011
0.0013593855
0.00036187795
0.001389853
0.00043927573
0.0013712423
0.00019852051
0.0014944829
0.00033324418
0.0015783948
0.0005653288
0.0014810888
0.00047259208
0.0015738765
0.00020481169
0.0017650983
0.00037109378
0.0017519332
0.00076904142
0.0017217796
0.00076598151
0.0018439879
0.00037932391
0.0020210824
0.00040475244
0.0020544301
0.00079382206
0.0020388753
0.0011049502
0.0020627912
0.00078695152
0.00025777923
0.0021650798
0.0010197395
8.0385454e-05
0.0010211333
0.00046887155
0.0010329854
0.00046178784
0.0010519399
0.00047581741
0.0010587468
0.00040452751
0.0010711054
0.00041278029
0.0010929173
0.00031980185
0.0011270706
0.00037751093
0.0011535263
0.00031158517
0.001170751
0.00026929994
0.0012001621
0.00023113395
0.0012347208
0.00026388179
0.0012481565
0.00027454917
0.001271773
0.00024935897
0.0013166718
0.00022690969
0.0013556765
0.00030246292
0.0013574541
0.00036322151
0.0013689145
0.00019833927
0.0014904273
0.00036839041
0.0015346699
0.00046988383
0.0014111874
0.00033708357
0.0015545372
0.00024813819
0.0017808165
0.00036653809
0.0017115912
0.0005508282
0.001612556
0.00059381687
0.0018047926
0.00046039865
0.0020535344
0.00039874797
0.0020865608
0.00051026502
0.001928139
0.00074096092
0.0018879477
0.00077015579
0.00051383681
0.0020455761
0.0009708006
-1.7100657e-05
0.0010314144
0.00036155124
0.0010636761
0.00046363663
0.0010982447
0.00038283992
0.0011260508
0.00027155393
0.0011495503
0.00036346701
0.0011772709
0.00031999543
0.0012042117
0.00035217627
0.0012248022
0.00025554379
0.0012368805
0.00022878843
0.0012595145
0.00027893911
0.0012786224
0.00025858487
0.0012798644
0.00021100988
0.001295956
0.0002245822
0.0013365937
0.00024906302
0.0013663544
0.00025033273
0.0013473232
0.00027726136
0.0013871641
0.00021162923
0.0014880732
0.0004060156
0.0015031051
0.00037266773
0.0013839952
0.00019057019
0.0015364028
0.00031859294
0.0017607
0.00043488229
0.0016658801
0.00034485914
0.0015310453
0.00031264436
0.0017280007
0.00049382833
0.0019971033
0.00048107919
0.0020576172
0.00037243806
0.0018728199
0.00030308054
0.0017674967
0.00051995159
0.00066517095
0.0019350565
0.00091267635
8.05765e-06
0.00099216565
0.00026166783
0.0010457733
0.00045394853
0.0010896011
0.00030070622
0.0011317103
0.00019317599
0.001166477
0.00028324596
0.0012063473
0.00029367712
0.0012376989
0.00026536093
0.0012682667
0.0001978144
0.0012931844
0.00018779797
0.0013199471
0.00029641033
0.0013370516
0.00025802038
0.0013387452
0.00015966162
0.0013534921
0.00021156525
0.0013855399
0.00028343917
0.001407666
0.00023266875
0.0013740497
0.00020073724
0.0014335435
0.00022469225
0.0014982116
0.00042661228
0.0014905685
0.00027629216
0.0014113219
7.7453265e-05
0.0015431373
0.00036491956
0.0017240957
0.00054113229
0.0016358187
0.00021097061
0.0015331977
6.2150259e-05
0.0016711931
0.00042388003
0.0019028808
0.00062424687
0.0019594099
0.00036350382
0.0018731229
7.390367e-05
0.0017642037
0.00015391392
0.00059312718
0.001891823
0.00091107422
0.00014268662
0.00096419368
0.00024122896
0.0010054968
0.0004407314
0.0010520353
0.00025097519
0.0011038618
0.00020112023
0.0011442416
0.00020718342
0.0011866331
0.00025086829
0.0012187141
0.00016698055
0.0012553145
0.00016088102
0.0012889176
0.0001652813
0.0013162979
0.00025697023
0.0013375723
0.00024061369
0.0013555645
0.00012306958
0.0013836103
0.00018657054
0.0014157421
0.0002978923
0.0014443449
0.00023114375
0.0014187632
0.00013611804
0.0014990679
0.00023595186
0.0015248511
0.00041511505
0.0015065395
0.00019523739
0.0014945952
8.9626502e-06
0.0016004894
0.00037078903
0.0016925293
0.0006095825
0.0016258816
0.00016860273
0.0016122846
-6.6286318e-05
0.0017135487
0.000279749
0.0018327681
0.00071547582
0.0018439081
0.00047288748
0.0018477685
5.8363077e-05
0.0018778839
-4.2389217e-05
0.00038249266
0.0019435966
0.0010257379
0.00034209526
0.0010023983
0.00030536561
0.0010199615
0.00041008435
0.0010514262
0.00025426817
0.0010858563
0.00027076607
0.0011140874
0.00017634395
0.0011456412
0.00021788563
0.0011757008
0.00011294879
0.0012132435
0.00014692382
0.0012515561
0.00015347288
0.0012805802
0.00019441208
0.0013036043
0.00020637219
0.0013337057
0.0001088088
0.0013708898
0.00014711476
0.001398081
0.00026675843
0.0014277558
0.00021473156
0.001419667
9.5547758e-05
0.0015163027
0.00023070085
0.0015080749
0.00035164785
0.0014903397
0.0001593347
0.0015567363
-1.0005272e-06
0.0016621611
0.00030761731
0.001656176
0.00057310753
0.0016023146
0.00021002446
0.0016925977
-5.0570887e-05
0.001838595
0.00017448251
0.0018207505
0.00061724725
0.0017646119
0.00058019585
0.0018096287
0.00018558808
0.0019951678
2.919966e-05
0.00018699308
0.0020973883
0.0010454743
0.00037924263
0.0010568024
0.0003275712
0.0010659756
0.00036109682
0.0010904825
0.00028295763
0.0011103354
0.00035174869
0.0011295698
0.00019060416
0.0011488572
0.00019546953
0.0011761075
0.00011551241
0.0012053053
0.00014134536
0.0012349928
0.00014872898
0.0012553557
0.00014407176
0.0012695943
0.00016132567
0.0013016841
0.00011232765
0.0013414067
0.00011900349
0.0013600005
0.00019861943
0.00138895
0.0001781437
0.0014013201
8.438314e-05
0.0014980872
0.00020784865
0.0014649229
0.00023689532
0.0014513804
0.00013947674
0.0015760723
5.2016056e-05
0.0016829277
0.00023819904
0.0015959567
0.00039657854
0.0015595807
0.00023705196
0.0017333603
4.2885776e-05
0.0019295821
0.00018612422
0.0018438803
0.00037969807
0.0017125023
0.00049775451
0.0017911648
0.0003453328
0.0020424287
0.00019720181
0.00020336719
0.0022310867
0.00097958104
0.00022919644
0.0010462902
0.0002721024
0.0010758645
0.00029571195
0.0011181125
0.00027480731
0.0011468881
0.00035046223
0.0011735248
0.00020205812
0.0011913676
0.0001550041
0.0012183043
0.00014978031
0.0012394828
0.00013016161
0.0012594747
0.00014835004
0.0012702063
0.00011033702
0.0012726231
0.00011640818
0.0012981536
0.00012420692
0.0013330151
0.00011906937
0.0013395281
0.00012590929
0.0013584309
0.00014362031
0.0013805364
9.5232433e-05
0.0014598307
0.00019541356
0.0014157963
0.00010916984
0.0014013958
0.0001021374
0.0015499532
0.00015840248
0.0016464595
0.00019659342
0.0015256846
0.00015761899
0.0014882493
0.00016708988
0.001714
0.0001962234
0.0019145972
0.00026816155
0.0018324583
0.00016649149
0.0016603716
0.00020629601
0.0017326084
0.00033754679
0.0020075159
0.00039919811
0.00031982255
0.0022247246
0.00094714728
-2.5621085e-05
0.0010128681
0.00017343544
0.0010528349
0.00024915886
0.0011030953
0.0002123972
0.0011386945
0.00022068952
0.0011751174
0.0001765254
0.0012040493
0.00011281674
0.0012387971
0.00015932113
0.0012677475
0.00011496151
0.0012911426
0.00013359487
0.0013066156
7.7122262e-05
0.0013093267
7.0836285e-05
0.0013288676
0.00012895751
0.0013540124
0.00013536024
0.0013533963
6.154384e-05
0.0013641143
0.00010634538
0.0013919786
0.00010413933
0.0014438178
0.00019363356
0.0014065209
9.1376893e-06
0.0013981822
4.3852253e-05
0.0015328449
0.00027251592
0.0016038997
0.0001863035
0.0014943529
-2.7695231e-05
0.0014574039
8.8267948e-06
0.0016839684
0.00032589439
0.0018328636
0.00034145256
0.0017788162
7.2233598e-05
0.001644998
-0.00011579363
0.0016838681
0.00012168876
0.001917402
0.00045997474
0.00045016003
0.0021112984
0.0010101343
-0.00027970144
0.0010433551
5.0986652e-05
0.0010641466
0.00026071295
0.0011007662
0.00012830921
0.0011249408
5.2102751e-05
0.001156962
0.00011535223
0.0011867238
6.8928592e-05
0.0012193901
0.0001232387
0.0012519573
0.00010709834
0.0012763467
0.00010111716
0.0012971644
5.611371e-05
0.0013102591
1.2033464e-05
0.0013378105
0.00011854978
0.0013622944
0.00013137757
0.0013711567
6.1251047e-06
0.0013817913
5.3887746e-05
0.0014190488
9.9444907e-05
0.0014393116
0.0001827512
0.0014234461
-4.9468275e-05
0.0014397533
-4.1611956e-06
0.0015264402
0.0003283818
0.0015671143
0.00018571489
0.001498981
-0.00012909402
0.0015072752
-0.00013338559
0.0016664208
0.00030563271
0.0017556767
0.0004208015
0.0016970724
3.5745065e-05
0.0016722631
-0.00027717841
0.0017326219
-0.00011950294
0.0018585411
0.00032746343
0.00047608367
0.001968248
0.001087912
-0.00041118812
0.0011007907
-1.6877177e-06
0.0011078373
0.00028126717
0.0011351212
5.9938066e-05
0.0011487726
-4.7843737e-05
0.0011706692
5.0115603e-05
0.001194136
3.8042707e-05
0.001220342
6.3880358e-05
0.0012501329
0.00010047702
0.0012712482
6.8878577e-05
0.0012899511
5.458977e-05
0.0013118469
-2.0464016e-05
0.0013386054
9.9661777e-05
0.0013569986
0.00010517051
0.0013788285
-2.0870996e-05
0.0013936728
1.1207259e-05
0.0014426677
7.9053925e-05
0.0014342676
0.00015378754
0.0014448055
-6.8156261e-05
0.0015039782
-3.8172377e-05
0.0015336225
0.0002599138
0.0015421883
0.00020352162
0.0015173299
-0.00014380629
0.0015986375
-0.00018447867
0.0017068864
0.00018043571
0.0016985765
0.00040025266
0.0016251919
5.9791217e-05
0.0016914683
-0.00026755719
0.0018365451
-0.00024201254
0.0018884398
0.00012474472
0.00035533509
0.001883575
0.0010960168
-0.00034279886
0.0010881295
1.7516245e-05
0.0011050693
0.00025754541
0.0011398463
3.4642872e-05
0.0011667534
-5.2140395e-05
0.0011948962
7.676928e-06
0.0012207281
3.0799289e-05
0.0012491572
1.9366479e-05
0.0012795322
6.3297253e-05
0.0013035152
3.1126688e-05
0.0013201401
4.3897732e-05
0.0013503541
-2.2729015e-05
0.0013738735
5.5190402e-05
0.0013856216
6.3858331e-05
0.0014191075
-1.4479546e-05
0.0014373936
-2.9500146e-06
0.0014922736
3.9914204e-05
0.0014612968
9.1812098e-05
0.0014970218
-4.6108825e-05
0.0015870114
-4.0721952e-05
0.0015824963
0.00012967248
0.0015516158
0.00015028788
0.0015704908
-8.8814225e-05
0.001704811
-0.00012957594
0.0017933423
5.5838071e-05
0.0016947957
0.00022878136
0.00161466
8.4969289e-05
0.0017422329
-0.00015098481
0.0019692559
-0.00017150241
0.0019935887
-1.5768372e-08
0.00016153416
0.0018839939
0.00087053395
0.00095352658
0.0011815613
0.00123864
0.0013172522
0.0013516541
0.0013930294
0.0014315173
0.0014644763
0.0014917619
0.0015083456
0.0015403715
0.0015632778
0.0015726314
0.0016170874
0.001637917
0.0016926513
0.0016477431
0.0016877322
0.0017925434
0.0017715956
0.0017110605
0.0017515619
0.0019077908
0.002000228
0.001860876
0.0017440949
0.0019054465
0.0021808631
0.0022418425
0.0020830408
-5.6082794e-05
0.0017900404
-4.3726051e-05
0.0016947704
9.8411946e-05
0.0017330287
0.00030031798
0.0018417694
0.00046259923
0.0019317219
0.00036418043
0.0019594805
0.00010157189
0.0019954282
-8.1842623e-05
0.0020136796
-5.3140733e-05
0.0020569906
0.0003029376
0.002200742
0.00095866982
0.0023218832
0.0014244296
0.0023148119
0.0013983925
0.0021383727
0.00091717726
0.0019453612
0.00047926617
0.0018220201
0.00043590506
0.0018599735
0.00088481656
0.0020873087
0.0014491966
0.0024487164
0.001643286
0.0027006158
0.0013635111
0.0027222026
0.00085211106
0.0025788738
0.00056249558
0.0023879352
0.0023675361
0.00077818984
0.00026619
0.0020447931
0.00054544677
0.0018936137
0.00074355634
0.0017876467
0.00074800241
0.0016889398
0.00053982534
0.0015875348
0.00025054975
0.0015377026
7.9276695e-06
0.0015766872
-3.5924436e-05
0.0017145738
0.00014952746
0.0019505858
0.00050974628
0.0022001601
0.00073560538
0.0022934701
0.00069449671
0.002283627
0.00044822478
0.0021709446
0.00032124669
0.0020642293
0.00052168189
0.0020684438
0.0010714655
0.0021470995
0.0017092258
0.0022230317
0.0019624501
0.0022630011
0.001607101
0.0022411677
0.00087562504
0.0021020967
0.00029301015
0.0020134409
0.00034906797
0.0021693401
0.0025870064
0.0010965861
0.00015939326
0.0022023929
0.00016538312
0.0020276864
6.1909378e-05
0.0018819152
4.018182e-05
0.0017482556
0.0001414297
0.0016599257
0.00037835957
0.0016240778
0.00074089123
0.0016562986
0.0010691436
0.0016905034
0.0011110176
0.0017545377
0.00081817923
0.0018133939
0.00033924448
0.001798698
-6.4521576e-05
0.0018212965
-0.00022976458
0.0018915618
4.4346058e-05
0.0021115016
0.00071576227
0.0024298449
0.0014092975
0.0026086905
0.0017157073
0.0025768634
0.0015877225
0.0023563678
0.001122157
0.0020925656
0.00061719701
0.0018495566
0.0005603481
0.0017074943
0.0010789765
0.0018948839
0.0023692834
0.001830759
-0.00046830765
0.0018414936
-0.00089705186
0.0017406435
-0.0010344893
0.0017398419
-0.00084342921
0.001815254
-0.00024250354
0.0019607838
0.00054753826
0.0020330563
0.0011439959
0.0020384613
0.0013607582
0.0019558314
0.0011700831
0.0017956773
0.00070604488
0.0016485133
0.00023623048
0.0015041429
7.7116563e-05
0.0014569647
0.00037134712
0.0015645317
0.00090503361
0.0018582632
0.0012813621
0.0022234079
0.0011999493
0.0024039455
0.00080391005
0.0023965087
0.00023887626
0.0023028035
6.2566233e-05
0.0022129821
0.00039143163
0.002222732
0.0012635453
0.0022153865
0.0022091775
0.0022372948
0.0022743091
0.0026016111
-0.00053270162
0.0014842228
-0.00065705983
0.0014314836
-0.00042412116
0.0014958654
-8.1019085e-05
0.0016660741
0.00019776732
0.0018425062
0.00043668481
0.0019033348
0.00037636502
0.0019351377
2.3564463e-05
0.001933424
-0.00025367472
0.0018800534
-0.00026674331
0.0018457535
8.9179834e-05
0.0018239147
0.00090128982
0.0017787793
0.0017290868
0.0017499918
0.0022350916
0.0017636122
0.0020000374
0.00184385
0.0011705391
0.0018793036
0.00011934533
0.0017948315
-0.00051645385
0.0017805901
-0.00045275981
0.0019678574
0.00041695806
0.0023854561
0.0015648745
0.002730083
0.0022615661
0.0027490711
0.002587887
0.0024009349
0.0005402087
0.0017701543
0.0010436888
0.0015637233
0.0013302406
0.0014407759
0.0013787635
0.0014494415
0.0010766468
0.0014869391
0.00038038947
0.0014508955
-0.00046175916
0.001451801
-0.0010942869
0.0015249883
-0.0012811105
0.0016750609
-0.00086123264
0.0019191244
3.7237003e-05
0.0021476279
0.0010813382
0.0022034978
0.0018158043
0.0021503003
0.0019930722
0.0020068857
0.0016806941
0.0018540623
0.00097029215
0.0017265962
0.00026220417
0.0015079818
7.7671137e-05
0.0013864999
0.00060784864
0.0015599632
0.0013793632
0.0020434312
0.0017534896
0.0024876117
0.0016276314
0.0026259303
0.0025578729
0.0011741873
0.0006330021
0.002100939
0.0011793073
0.0018823993
0.0014924707
0.0016986471
0.0013845875
0.0015185839
0.0008654429
0.0013687697
0.00018111525
0.0012096031
-0.00027542498
0.001135279
-0.00022511381
0.0012136779
0.00013786875
0.001401086
0.00045260084
0.001672272
0.00078796154
0.0019316008
0.00078374192
0.002016975
0.00054504157
0.0020300786
7.5264881e-05
0.0020232879
-0.00029189706
0.0019885427
-0.00017366077
0.0019895116
0.00035692576
0.0019339315
0.0014447273
0.0017413315
0.0024610191
0.0016399134
0.0029752304
0.0017125554
0.0026291942
0.0019748491
0.0016192547
0.0021386263
0.0020641105
0.00025483407
2.1908288e-05
0.002027616
-0.0003384098
0.0018583242
-0.00087005833
0.0017133225
-0.0011560849
0.0016279493
-0.0008994325
0.0016091727
-0.00017966864
0.0015608957
0.00088653444
0.0014479777
0.0017671042
0.0013658616
0.0022692576
0.0013475007
0.0024218772
0.0014174319
0.0019784302
0.0015506458
0.0009829083
0.0015978049
-0.00032545326
0.0015621605
-0.0014043204
0.0015938381
-0.0017978078
0.0017570739
-0.0012490613
0.0020476642
2.0469234e-05
0.0023162846
0.0015509654
0.0023162033
0.0027088522
0.0021304221
0.0033198222
0.0019249966
0.0031654851
0.0018515092
0.0020609155
0.0018117159
0.0016039272
0.00037191708
-0.0011901423
0.0016261201
-0.002132225
0.0015725903
-0.0025250405
0.0015270814
-0.0022734937
0.0015963367
-0.0015567394
0.0017415332
-0.00048161015
0.0018009845
0.00069506286
0.001750462
0.001805983
0.0017163001
0.0026511549
0.0016577346
0.0028846302
0.0015283523
0.0022941952
0.0014309238
0.0010727007
0.0013052696
-0.00022294198
0.0011372433
-0.00085616909
0.0011285793
-0.00073060191
0.0013785981
-0.00019773613
0.0017561715
0.00039409057
0.0021547262
0.00096486366
0.0023200781
0.0013602889
0.0022599724
0.0014655307
0.0021541195
0.0013973581
0.0020508424
0.0011149725
0.001965662
0.0017810252
0.00081868222
-0.00088051655
0.0012948677
-0.0012098754
0.0012854986
-0.0010162498
0.0012884168
-0.00058087203
0.0014346007
-0.00020535584
0.0016156733
8.6324708e-05
0.0016972456
0.00031618189
0.0016736227
0.00039866635
0.0016860621
0.0002650687
0.0017340155
4.1496164e-05
0.0017124583
-5.1084259e-05
0.0016484595
0.00012663947
0.001526118
0.00062567954
0.001268872
0.0013589682
0.0010663048
0.0018537573
0.0011260033
0.0020293531
0.001403611
0.001925532
0.0017676675
0.0013973395
0.0020551524
0.00053472048
0.0020595498
-0.00047790823
0.0019650025
-0.0011833026
0.0019739756
-0.0012039807
0.0020705996
0.0021771517
-0.00012650745
0.0012229136
0.0015320567
0.0021237745
0.001329011
0.0023387356
0.001158278
0.0020547493
0.0011911805
0.0015814921
0.0013343307
0.00098789607
0.0014410557
0.0001642485
0.0014492042
-0.0008680844
0.0014752774
-0.0020111819
0.0015464376
-0.0028647253
0.0016194915
-0.0028360665
0.0016953012
-0.0017393933
0.0017903348
0.00033829188
0.0017258465
0.0024481387
0.00147056
0.0039100123
0.0013096492
0.0043217714
0.0012967529
0.0038120274
0.0014438861
0.0024440026
0.001677848
0.00054117247
0.0017449766
-0.0013342435
0.0016452501
-0.002502387
0.0016832569
-0.0025591381
0.0018953596
0.0021847514
-0.0013990097
0.0017018661
0.0018186958
0.0030266432
0.0016126078
0.0039746904
0.0013402597
0.0042244665
0.0011999327
0.0035852517
0.0011632058
0.0020373381
0.0011676126
-1.9518876e-05
0.0011304602
-0.002017672
0.0011647593
-0.0032330029
0.0013088629
-0.0034964062
0.0014773813
-0.0028836553
0.0016312139
-0.0017575161
0.0017923053
-0.00039811192
0.0018135391
0.0012015235
0.001676425
0.0027598474
0.0015648353
0.0040003119
0.0015134846
0.0043939851
0.0014934341
0.0034651864
0.0015268014
0.0013109001
0.0015179078
-0.00090453987
0.0013590368
-0.0020184655
0.0013667224
-0.002014867
0.0016610739
0.002000642
-0.0011105177
0.0008559404
0.0018959807
0.0016277999
0.0017769286
0.0023280545
0.0015265506
0.0029085853
0.0013576868
0.0029729407
0.0012402916
0.0020795469
0.0011289672
0.00030448079
0.00095130577
-0.0013823239
0.00089851922
-0.0020972657
0.0010753293
-0.0019029702
0.0013056415
-0.0012591429
0.0015084761
-0.00062434404
0.0016950286
-5.5769018e-05
0.0017619185
0.00029004691
0.0016577517
0.00084540232
0.0015947416
0.0014183509
0.0016012356
0.0018466812
0.0016387207
0.0020329484
0.0016206663
0.0015274092
0.0015875685
0.00058177781
0.0013347631
-4.5191031e-05
0.0011847328
-8.3874788e-05
0.0014574562
0.0017954146
0.00025959932
-4.0040541e-06
0.0018861752
-0.00011170476
0.0018236607
-0.0002796583
0.0015940107
-0.00047238601
0.0014370711
-0.00052793523
0.0013323476
-0.00028958007
0.0012293087
0.00028457417
0.0010180001
0.00083972579
0.00086952374
0.0010128281
0.00097493486
0.00097315915
0.0011713605
0.00085369586
0.001376135
0.00067509802
0.0015665662
0.00043932009
0.0016613157
8.5356142e-05
0.0015971412
-0.00039489457
0.0015314028
-0.00084298614
0.0015627121
-0.001111947
0.0016511236
-0.0010784848
0.0016800954
-0.00026254099
0.0017122118
0.001155575
0.0015303269
0.002219163
0.001237305
0.0024610592
0.0013471218
0.0016359138
0.0020465872
-0.00088162767
0.0018268197
-0.0018999969
0.0018109757
-0.0028026304
0.001593569
-0.0036229569
0.0014414239
-0.003751823
0.0013632553
-0.0026715117
0.0012947691
-0.00031452576
0.0011372941
0.0023062497
0.00098668078
0.0038247961
0.0010407893
0.003956091
0.0011552159
0.0031783881
0.0012989548
0.0021994252
0.0014673869
0.0010868306
0.001571988
-3.5551684e-05
0.001520571
-0.0012935167
0.0014483126
-0.0026336244
0.001494175
-0.0035246956
0.0016050538
-0.0035153125
0.0016514798
-0.0020327301
0.0017324943
0.00045585824
0.0016624057
0.0030820765
0.0013803197
0.0043372207
0.0014094844
0.0016298534
0.0039818401
-0.0016672794
0.0017787971
-0.0032721005
0.0017696522
-0.0048252892
0.0015536219
-0.0057706776
0.0014038468
-0.0055981634
0.0013472173
-0.0038948538
0.0012946779
-0.00079699244
0.0011760423
0.0026987098
0.0010825865
0.005011982
0.0011229726
0.0057244433
0.0012009575
0.0050585214
0.0013027373
0.0035780173
0.001422526
0.0018441323
0.0015048625
-4.5349191e-05
0.0014579215
-0.0020308186
0.0013936353
-0.0038287205
0.0014461788
-0.0050089588
0.0015523132
-0.0049169976
0.0016171435
-0.0033058497
0.0017128488
-0.00026060826
0.0016876178
0.0028943204
0.0014636324
0.0049525296
0.0014979921
0.0016952032
0.0052715327
-0.0023004221
0.0017943368
-0.00434235
0.0017734279
-0.005946252
0.001541211
-0.0066473041
0.0013781595