/*--------------------------------*- C++ -*----------------------------------*\
| =========                 |                                                 |
| \\      /  F ield         | OpenFOAM: The Open Source CFD Toolbox           |
|  \\    /   O peration     | Version:  2406                                  |
|   \\  /    A nd           | Website:  www.openfoam.com                      |
|    \\/     M anipulation  |                                                 |
\*---------------------------------------------------------------------------*/
FoamFile
{
    version     2.0;
    format      ascii;
    arch        "LSB;label=32;scalar=64";
    class       volScalarField;
    location    "95";
    object      rho;
}
// * * * * * * * * * * * * * * * * * * * * * * * * * * * * * * * * * * * * * //

dimensions      [1 -3 0 0 0 0 0];

internalField   nonuniform List<scalar> 
20580
(
1.0010303
1.0043907
1.0006111
1.005261
1.0010723
1.0038122
1.0041484
1.0031976
1.0029578
1.0047383
1.0045522
1.003875
1.0046274
1.0056423
1.0049548
1.0042278
1.006335
1.0067735
1.0015575
1.0053698
1.0088654
1.0040083
1.002505
1.0082822
1.0123119
1.0023319
0.99815543
1.0051292
1.0003709
0.99685132
1.0184402
1.0011711
1.0045834
1.0007622
1.0053344
1.0008313
1.0039236
1.0039359
1.0029737
1.0031684
1.0049417
1.004447
1.003497
1.0050558
1.0058892
1.0045652
1.0045346
1.0080934
1.0049241
1.0008228
1.007889
1.0080403
1.0018354
1.0040207
1.0099898
1.0102474
0.9970554
0.99240476
1.0069121
1.010784
0.99885037
1.0018568
1.0014957
1.0042802
1.0018063
1.0042777
1.0016644
1.00373
1.0033728
1.0031371
1.003789
1.0045673
1.0042981
1.0035087
1.0053539
1.0057526
1.0042969
1.0045638
1.0089597
1.0035908
1.0009998
1.0095531
1.0067448
1.0000055
1.0050119
1.0101248
1.0091122
0.9965159
0.99056844
1.0075162
1.0203764
1.004589
0.98755431
1.0018609
1.0035141
1.0032382
1.0025944
1.0031559
1.00339
1.0027774
1.0035373
1.004451
1.0040214
1.0039393
1.0039665
1.0053652
1.0053591
1.0042032
1.0044657
1.0085298
1.0028242
1.0022253
1.0101268
1.0050429
0.99935866
1.0060683
1.0081521
1.0072728
1.000701
0.99421275
1.0065662
1.0243745
1.0140162
0.9855902
1.0022492
1.0024734
1.004246
1.0010168
1.0044894
1.0031217
1.0026353
1.0038688
1.0045556
1.003701
1.0036919
1.0044261
1.0051854
1.004693
1.0044154
1.0045824
1.006979
1.002411
1.0041374
1.0098039
1.0031064
1.000053
1.0078095
1.0056246
1.0039016
1.0060649
1.0026123
1.0056045
1.0188408
1.0205516
0.99620576
1.0024825
1.0017185
1.004261
1.0002899
1.0050049
1.0029167
1.0031577
1.0041386
1.0040802
1.0034933
1.0037515
1.0048496
1.0048961
1.0040539
1.0047252
1.0049051
1.0049559
1.0023577
1.0064726
1.0085665
1.0011994
1.0017421
1.0102269
1.0038909
0.99931209
1.0092245
1.0123381
1.005452
1.0065793
1.0159843
1.0110654
1.0024237
1.0015928
1.0032604
1.0007384
1.0044445
1.0027855
1.0040248
1.0042903
1.0034877
1.00348
1.003808
1.0051566
1.0046157
1.0037146
1.0050038
1.0054728
1.0032002
1.002706
1.0085245
1.0068374
0.99993729
1.0037033
1.0124714
1.0037059
0.99553991
1.0085481
1.0190563
1.0072056
0.99486736
1.0010391
1.0159338
1.0020209
1.0021811
1.0018417
1.0020278
1.0031189
1.002829
1.0047225
1.0041548
1.0031558
1.0036655
1.003873
1.0051745
1.0045011
1.0037351
1.0052499
1.0062221
1.002356
1.0035205
1.0094663
1.0050582
0.99982997
1.0053239
1.0132557
1.0049626
0.9948528
1.0051176
1.0197794
1.0101735
0.99000234
0.98648265
1.0080239
1.0014155
1.0032806
1.0008573
1.0035839
1.0017745
1.0030728
1.0047788
1.00378
1.0034142
1.0037289
1.0039903
1.0050414
1.0043748
1.0039605
1.0052979
1.0066183
1.0024987
1.0046619
1.0093258
1.0033638
1.0007811
1.0066311
1.0113764
1.0062207
0.99767961
1.0023052
1.0143126
1.0122947
0.99307539
0.98315013
0.99586683
1.0011702
1.0045559
1.0009646
1.0048147
1.001211
1.0034457
1.0040453
1.0034038
1.0039454
1.0035875
1.0041778
1.0047365
1.0042366
1.0044927
1.0050937
1.00633
1.0032998
1.0059752
1.0083232
1.0018928
1.0028494
1.0078552
1.0069965
1.005756
1.0031613
1.0022356
1.0058317
1.0096437
1.0020648
0.99185586
0.99243992
1.0012818
1.0055059
1.0021965
1.0051249
1.0016233
1.0038682
1.003013
1.0033023
1.0040681
1.003408
1.0043452
1.0044129
1.004182
1.0053011
1.0048278
1.0055628
1.0042516
1.0071194
1.0066095
1.0007177
1.0054679
1.0093009
1.0020281
1.0027078
1.0091471
1.0056354
0.99911737
1.0015332
1.009604
1.0078866
1.0008655
1.0015006
1.0053182
1.0036619
1.0042973
1.0026766
1.0041267
1.0023989
1.0036007
1.0037502
1.0035113
1.0043512
1.0041053
1.0042215
1.0059952
1.004625
1.0045069
1.0049774
1.0078222
1.0047527
1.0001196
1.0076078
1.0108739
0.99866063
0.99835809
1.0127486
1.0113545
0.99721993
0.99313362
1.0095119
1.021381
1.0155321
1.0016966
1.0040943
1.0043308
1.0028569
1.0038904
1.0039196
1.0025378
1.0039601
1.0033701
1.0039805
1.0043957
1.0038541
1.0043781
1.0062783
1.0045299
1.0034266
1.0054036
1.0079599
1.0034802
1.0006008
1.0088088
1.0118968
0.99788874
0.99583385
1.0124116
1.0161106
0.99985863
0.99078545
1.0023279
1.0238115
1.026155
1.0022622
1.0024626
1.0037365
1.0014133
1.0044653
1.0032522
1.0032557
1.0039605
1.0030569
1.0043753
1.0045942
1.0038431
1.0045278
1.006047
1.004612
1.0027734
1.0054807
1.0072566
1.0028745
1.0020678
1.0088523
1.0114274
0.99949272
0.99665994
1.0091417
1.0162204
1.0046199
0.99449878
0.99758456
1.01391
1.0241623
1.0027364
1.0013189
1.002442
1.0005886
1.0041925
1.002563
1.0042258
1.0036247
1.0030848
1.0043905
1.0045141
1.003909
1.0047833
1.0054643
1.0048853
1.0029743
1.0054713
1.0060212
1.0027693
1.0041944
1.007819
1.0087596
1.0024097
1.0006286
1.006351
1.0102057
1.007749
1.0012893
0.99996916
1.0022341
1.0102426
1.0028498
1.0012874
1.001485
1.0009039
1.0036076
1.0023335
1.0049696
1.003324
1.0037005
1.0041384
1.0041008
1.0041582
1.005122
1.0044944
1.0050864
1.0038639
1.0056199
1.0047477
1.0029729
1.0069735
1.0066297
1.0040281
1.0045155
1.006845
1.005806
1.0012432
1.0050908
1.0092492
1.0065751
0.9982003
0.99410668
1.0023101
1.0024325
1.0013665
1.0023277
1.0029315
1.0027337
1.0049281
1.0033902
1.0044002
1.0037786
1.0037211
1.0046108
1.0055241
1.0035541
1.0050861
1.004927
1.0058859
1.003723
1.0033016
1.0095062
1.0062045
0.99951556
1.0046498
1.012822
1.0074483
0.99542297
0.998119
1.0135707
1.0154606
1.0024995
0.98776042
1.0014275
1.0041426
1.0021268
1.0040536
1.0022725
1.0035832
1.0041511
1.0039334
1.0045912
1.0034389
1.0034942
1.0050088
1.0057696
1.0031153
1.0049564
1.0058301
1.0061785
1.0032319
1.0037948
1.0107661
1.0062926
0.99709234
1.0032797
1.0157657
1.0100116
0.99423772
0.99325907
1.0114292
1.0214896
1.0097226
0.99160357
1.0009323
1.0054956
1.0033386
1.0052696
1.0022073
1.0044349
1.0030509
1.0046623
1.0043528
1.0032206
1.0034046
1.0052229
1.0056447
1.0033996
1.0047633
1.0062207
1.0062904
1.0034459
1.0043995
1.0103151
1.0065595
0.99791357
1.0018015
1.0145312
1.0114778
0.9966855
0.99397587
1.0056425
1.0193041
1.0148858
1.0006838
1.0009427
1.005849
1.0040865
1.0053459
1.002645
1.0046533
1.0024174
1.004952
1.0040537
1.0033977
1.0035394
1.0050575
1.0052247
1.0041821
1.0045791
1.0059176
1.005876
1.0041103
1.0050858
1.0080899
1.0066859
1.0008023
1.00269
1.0098715
1.0095344
1.0007576
0.99916797
1.0032341
1.0093565
1.0121746
1.0072297
1.0013382
1.0046411
1.0036442
1.0040744
1.0029531
1.0040854
1.0027742
1.0044658
1.0036873
1.0037247
1.0039459
1.0046805
1.004692
1.0050972
1.0045606
1.0052081
1.0050346
1.0048814
1.0061791
1.0052932
1.0052388
1.0050856
1.0052357
1.0054688
1.0036242
1.0048508
1.0059989
1.005481
1.0002259
1.0019788
1.0073441
1.0021262
1.0026813
1.0023992
1.0021104
1.0034959
1.003136
1.0040818
1.0037005
1.0035752
1.0041076
1.0047675
1.0044852
1.0042705
1.0060307
1.0050276
1.004799
1.0040239
1.0055319
1.0075408
1.0030507
1.0030719
1.0090525
1.0092929
1.0033255
0.99820402
1.0053665
1.013907
1.0106984
0.99700552
0.99260039
1.003096
1.0029514
1.0019751
1.0015598
1.0014464
1.0045111
1.0029206
1.0057238
1.0035687
1.003716
1.0045898
1.0056639
1.004803
1.0041457
1.0069173
1.0057491
1.0049835
1.0036136
1.0056754
1.0090925
1.0024759
1.0014604
1.0103069
1.0132918
1.0043399
0.99576923
1.0026065
1.0182176
1.0170918
1.0002738
0.98897263
0.99820705
1.0168598
1.0153729
1.0096039
1.0007669
0.99114536
0.987044
0.99147853
1.0008541
1.010099
1.0135456
1.0073409
0.99831892
0.99806438
1.0103337
1.024766
1.0286248
1.0163323
0.99233475
0.97514604
0.97698905
0.99652265
1.0220424
1.0374063
1.0140845
1.0083142
1.0048081
1.0059171
1.0112149
1.0164048
1.0177476
1.0125554
0.99977983
0.98546827
0.97870891
0.98275046
0.99780876
1.0196383
1.0326982
1.0278619
1.0092036
0.99274958
0.99018997
1.0013761
1.0169653
1.0212353
1.0116102
0.98432136
0.98681762
0.99737528
1.013493
1.0279956
1.0349987
1.0281521
1.0134289
0.99819649
0.99082679
0.9940465
1.0024896
1.0095024
1.0098087
1.0021216
0.98881057
0.98285596
0.99271381
1.0165804
1.0408826
1.0461036
1.0263935
0.99195228
0.9887632
0.99632784
1.0030475
1.0074052
1.0078588
1.0032677
0.99541322
0.99238
1.0008274
1.0201912
1.0381292
1.0439796
1.0316048
1.0043779
0.97741398
0.96474806
0.97073417
0.99153304
1.0186522
1.040364
1.0398434
1.0182234
0.99447413
1.0353385
1.0297303
1.0147418
0.99642663
0.98140673
0.97119889
0.96991616
0.9810656
1.0016299
1.0261107
1.044658
1.0433165
1.0231217
1.0011771
0.99086875
0.99635487
1.0083639
1.0170777
1.0179395
1.0068367
0.98852211
0.9762047
0.98185302
1.0427665
1.0295815
1.0133617
0.99963359
0.99317964
0.99691909
1.0054729
1.012438
1.01259
1.0066817
0.99695809
0.98659579
0.97975928
0.98407615
1.0065024
1.0411601
1.0686869
1.0673614
1.0354885
0.99227545
0.95937464
0.9509908
0.96309948
0.99081346
0.98662437
0.99040726
1.0065953
1.0325732
1.0576343
1.0674218
1.0540729
1.0249725
0.99394091
0.9706165
0.95738582
0.95636722
0.97289309
1.0033148
1.0419582
1.0746986
1.071229
1.0404617
1.0047316
0.98405591
0.98507721
0.99338548
0.96345181
0.96865322
0.98518168
1.0089255
1.0380817
1.0619622
1.0668802
1.0500457
1.0249676
1.0017302
0.99047862
0.9958719
1.0042307
1.0119701
1.0137291
1.0126541
1.0112391
1.0062561
0.99815267
0.99777545
1.0132228
1.0433852
1.0711802
1.0052091
1.0136591
1.0174007
1.0144702
1.0063971
0.99862112
0.99452176
0.99156605
0.99380212
1.0047537
1.030997
1.0673021
1.0913608
1.0841021
1.0464724
1.0010488
0.97018867
0.9539627
0.94943036
0.96342892
0.99862955
1.0541936
1.1177088
1.0967819
1.0731103
1.0353595
1.0003211
0.97715808
0.96753433
0.96123284
0.95559977
0.96209427
0.98736072
1.0352674
1.0957625
1.1377186
1.1236366
1.0734988
1.0167588
0.97934869
0.96551168
0.96434227
0.97050239
0.99088086
1.0252125
1.0718914
1.1087774
1.0783721
1.0438143
1.013226
0.9908682
0.98122504
0.98271731
0.98816787
0.99744507
1.0099559
1.025441
1.0492904
1.0756185
1.0789472
1.0656795
1.0426263
1.0203634
1.0206668
1.0331234
1.0379868
1.0338628
1.023213
1.0163929
1.0336829
1.0263143
1.0246293
1.0283755
1.0373977
1.0524759
1.0685733
1.0752055
1.0683561
1.0452539
1.0190785
1.0032207
1.0005164
1.0035026
1.0065933
1.0154543
1.0383522
1.0799722
1.128115
1.1427579
1.1104341
1.0511157
0.99841743
0.97526733
0.97498387
0.9839031
1.0114518
1.0610321
1.1284614
1.1856342
1.1903947
1.138982
1.0678701
1.0095118
0.97894779
0.97222018
0.97469594
0.97226193
0.98169576
1.0138755
1.0823981
1.1729453
1.2348414
1.1973266
1.1000707
1.0125143
0.96075654
0.96141818
0.9719419
1.0033707
1.0678397
1.1592498
1.2444788
1.2585842
1.187728
1.0919505
1.0166375
0.98092737
0.97693655
0.98991677
0.9895165
0.99063525
1.007478
1.0640756
1.1570061
1.2440753
1.2392314
1.1500482
1.0524794
0.98359742
0.98791864
0.99504468
1.0251335
1.080305
1.1576181
1.2330186
1.2530284
1.1976824
1.1150547
1.0488022
1.01554
1.0148507
1.0280851
1.0300505
1.0294628
1.0320223
1.0608513
1.1229351
1.2057007
1.2298503
1.1767476
1.0954975
1.0326269
1.0347162
1.0389353
1.0580962
1.0960193
1.1489699
1.1997153
1.2166106
1.1821422
1.1271881
1.0821546
1.0586564
1.065811
1.0818797
1.0859316
1.0792887
1.0676377
1.0744222
1.1091859
1.1661808
1.2015291
1.1724215
1.1178079
1.0875319
1.0831324
1.0789967
1.0865923
1.1101177
1.1490604
1.1874914
1.1998808
1.1733553
1.135148
1.1092148
1.1007121
1.1168589
1.1360129
1.1415646
1.1286364
1.102002
1.0885505
1.1063827
1.1485146
1.1847049
1.1636469
1.1259957
1.1269751
1.1191659
1.107086
1.1104076
1.1300997
1.1660034
1.1977106
1.2096947
1.1891792
1.1571331
1.1358708
1.13337
1.15575
1.1743667
1.178914
1.162806
1.1283819
1.1084768
1.1183102
1.1550957
1.1903504
1.1687311
1.1363096
1.1449683
1.1358246
1.123721
1.1299704
1.1558686
1.1991952
1.2383589
1.2525411
1.2300713
1.1949651
1.1687772
1.1623814
1.178416
1.1919016
1.1953382
1.1821401
1.1517381
1.1347718
1.1461423
1.1853515
1.2147856
1.1883839
1.1537837
1.1447702
1.1387221
1.1326407
1.1478587
1.1848697
1.2479757
1.3082985
1.3286145
1.2945399
1.2438951
1.2064001
1.1893217
1.1927062
1.1954948
1.1940841
1.1880651
1.1708683
1.1650717
1.1899995
1.2351491
1.2549742
1.2204979
1.1767023
1.1351674
1.1283701
1.1236621
1.1509782
1.2160385
1.3194166
1.4213451
1.4450203
1.3802662
1.2933474
1.2272185
1.1923275
1.1816369
1.1811181
1.1790617
1.1791181
1.1845234
1.2131473
1.267981
1.3197005
1.3137567
1.2517682
1.1892674
1.12605
1.1167924
1.1138791
1.1486333
1.2495017
1.4066288
1.5560903
1.5694013
1.4455403
1.3125082
1.2213006
1.1798891
1.167825
1.1636329
1.1581071
1.167869
1.2124468
1.2910809
1.3849247
1.4246349
1.3569467
1.252159
1.174113
1.1495707
1.1386674
1.1341771
1.1790465
1.2956951
1.4770721
1.6293474
1.6102765
1.4602462
1.3155138
1.2233072
1.1833745
1.1644175
1.154132
1.1535063
1.1885697
1.2784469
1.4087704
1.5018284
1.4692663
1.3409572
1.2161364
1.1475417
1.2390026
1.2174156
1.2060705
1.2428605
1.33385
1.4687669
1.5568747
1.5308
1.4305155
1.3304994
1.2571487
1.2136071
1.1955349
1.1890017
1.2112279
1.2770292
1.3772646
1.477341
1.5054076
1.4132951
1.2844396
1.1882746
1.1389581
1.4282713
1.359058
1.2928654
1.2684412
1.301994
1.3626833
1.4032457
1.4042831
1.3865124
1.3565377
1.3303774
1.3129824
1.3092291
1.3099002
1.3258482
1.3504441
1.3805819
1.402026
1.3826619
1.3241371
1.25945
1.2082665
1.1796706
1.6132513
1.468875
1.3235357
1.2445237
1.2410954
1.2759306
1.306228
1.314416
1.3415336
1.3954649
1.4662297
1.5049742
1.4752017
1.4104516
1.348322
1.3005072
1.2733282
1.2652976
1.2673249
1.2824066
1.2962412
1.30334
1.2960586
1.5354473
1.4522253
1.3386281
1.2683122
1.2619082
1.2893779
1.3149845
1.3323445
1.3835092
1.4682386
1.5556265
1.5830916
1.5007784
1.3870403
1.2937864
1.234348
1.2049825
1.2045733
1.2330515
1.3112273
1.4015735
1.4456946
1.3992787
1.3701322
1.3520033
1.3285039
1.3315507
1.3742025
1.4268999
1.4423986
1.4376063
1.4392167
1.4500508
1.4592077
1.4498283
1.4103038
1.3533947
1.2948186
1.2579363
1.2455672
1.2545806
1.299394
1.3649317
1.4221457
1.4283719
1.3641766
1.3276979
1.3086975
1.3161077
1.376189
1.4678703
1.5363344
1.5268452
1.4674228
1.4067745
1.3601725
1.3318818
1.3226174
1.333824
1.3602231
1.3820251
1.3806996
1.3612179
1.3324462
1.3160165
1.3094746
1.3074454
1.296349
1.2895118
1.3891947
1.3558422
1.3501997
1.3836742
1.4337455
1.469405
1.4707523
1.4387128
1.3878095
1.3413851
1.315551
1.3116272
1.3374556
1.3864896
1.4338557
1.44261
1.4003778
1.3332824
1.2716198
1.2305069
1.2184248
1.2277656
1.2596801
1.4307163
1.3959255
1.3716802
1.3691048
1.3720948
1.3776567
1.3898737
1.4052113
1.4162836
1.411889
1.3931083
1.3716045
1.357138
1.3536797
1.3603885
1.3643291
1.3522408
1.3234803
1.2868156
1.2529461
1.2358878
1.2418293
1.2701438
1.3713867
1.3748785
1.3823217
1.3841684
1.3805736
1.3773533
1.3783524
1.3950496
1.4222237
1.4415945
1.4329552
1.3944403
1.3431462
1.3011613
1.2809694
1.2821732
1.3020051
1.3304408
1.3481818
1.3418482
1.3149685
1.2836459
1.2647978
1.3298049
1.3402292
1.3726552
1.4115073
1.43012
1.4240192
1.404623
1.3864735
1.3777985
1.3803243
1.3840992
1.3745426
1.3468206
1.3108057
1.2839576
1.2764807
1.2901356
1.3157872
1.3375628
1.3416807
1.3314706
1.3183885
1.3055407
1.3502482
1.3505958
1.3688687
1.3936442
1.4147866
1.4215143
1.4069117
1.376952
1.3477332
1.3320277
1.3316841
1.3434513
1.3562897
1.3571296
1.3415978
1.3175498
1.2952332
1.2809184
1.2723086
1.2771577
1.3006576
1.3373634
1.3732135
1.3643859
1.3633019
1.3622625
1.3625048
1.3652573
1.3740864
1.3839186
1.3834833
1.3691661
1.3471221
1.3299973
1.3256726
1.3329196
1.3422376
1.3436336
1.3317043
1.3100798
1.2859723
1.2669134
1.2633888
1.2798701
1.3102374
1.3349709
1.3322526
1.3459269
1.3564353
1.3587753
1.3551663
1.3540085
1.3608204
1.3733995
1.3814906
1.3764247
1.3582601
1.3330129
1.3117756
1.29937
1.2957161
1.3003961
1.3104716
1.322353
1.3321612
1.3349294
1.3260396
1.3036061
1.273951
1.3023607
1.3202208
1.3436276
1.3633075
1.3719088
1.3697
1.3623225
1.3572768
1.3563255
1.3573119
1.3544039
1.3446034
1.3284907
1.309595
1.2934602
1.2843606
1.2858086
1.2996955
1.3216254
1.3424516
1.348029
1.3285382
1.2844311
1.3006426
1.3117243
1.3294854
1.3504035
1.3666335
1.3727752
1.3678256
1.3549423
1.3407258
1.3301567
1.3249273
1.3245055
1.3255713
1.325769
1.3227508
1.3166689
1.3103467
1.3057963
1.3064972
1.311476
1.3139524
1.3074463
1.2835606
1.2943415
1.3075352
1.3165256
1.3252075
1.3346007
1.3435032
1.3485876
1.3490528
1.3443757
1.3362489
1.3280461
1.3208704
1.3170492
1.3162676
1.318352
1.3221993
1.3250784
1.3252213
1.3215512
1.3136484
1.3027827
1.2905511
1.2743481
1.2582979
1.2834486
1.3010696
1.3114251
1.3183211
1.3235063
1.3290414
1.3347384
1.3399686
1.3432872
1.3431619
1.3390726
1.3304569
1.3186767
1.3079093
1.3014709
1.302174
1.3088937
1.3177161
1.3228037
1.3187797
1.3082134
1.2907035
1.2228949
1.2506947
1.2789733
1.3015293
1.3174225
1.327317
1.3316495
1.3320232
1.3308954
1.3297065
1.3288797
1.328461
1.3268858
1.3225
1.3141345
1.3046625
1.2986039
1.2988756
1.3068267
1.3179126
1.324196
1.3214888
1.3084257
1.2094592
1.2300874
1.2555885
1.2790943
1.298252
1.3126356
1.3219648
1.3257973
1.3247088
1.3203382
1.3147007
1.3099503
1.3081341
1.3091758
1.311684
1.3134526
1.313665
1.3134789
1.3144591
1.3177866
1.3204803
1.3181412
1.3098749
1.196443
1.213576
1.2348433
1.2548466
1.2709788
1.2834065
1.2932856
1.301646
1.3085514
1.3135224
1.3157213
1.3149143
1.3116614
1.3083738
1.3071281
1.3081847
1.3103802
1.3119069
1.311612
1.310681
1.3104932
1.3106253
1.3085737
1.1746389
1.1897027
1.210693
1.233629
1.2535737
1.268722
1.279082
1.2861435
1.2920182
1.2980948
1.3043644
1.3095634
1.3116372
1.3101403
1.3059863
1.3018474
1.2994931
1.2989692
1.2989473
1.2986792
1.299161
1.3018512
1.3071562
1.1652059
1.1751324
1.1905274
1.2100299
1.2305102
1.2494698
1.2646002
1.2748754
1.2803775
1.2827186
1.2845494
1.2870033
1.2900548
1.2924774
1.2929372
1.2921332
1.2912151
1.2916624
1.2934866
1.2956277
1.2974355
1.2994007
1.3042138
1.161648
1.1700474
1.1810683
1.193804
1.2072784
1.221466
1.235605
1.2482459
1.2580583
1.2644239
1.2680911
1.2701647
1.2727368
1.2756667
1.2788397
1.2812439
1.2825021
1.283483
1.2843726
1.2855807
1.286246
1.2863236
1.2890321
1.1488196
1.1584366
1.1714189
1.1849283
1.197018
1.2075025
1.2168712
1.2258036
1.2342857
1.2416076
1.2474916
1.2515918
1.2548207
1.2573784
1.2602041
1.2623321
1.263996
1.2645408
1.2646659
1.2647021
1.2647345
1.2647447
1.2680834
1.1440817
1.1513939
1.1625885
1.1752655
1.1871486
1.1970263
1.2044909
1.2101595
1.2148556
1.2192271
1.2232008
1.2267554
1.2298945
1.2321429
1.2343106
1.2359487
1.2375515
1.2383983
1.2391445
1.2394628
1.2399107
1.2403851
1.24553
1.1469763
1.1526685
1.1596968
1.1674266
1.1748768
1.1813606
1.1867797
1.1912695
1.1950335
1.1983718
1.2013693
1.2042139
1.2065514
1.2083095
1.2093375
1.2099853
1.2104223
1.2104639
1.2103466
1.2098066
1.2087935
1.2072159
1.2120628
1.1420215
1.1479499
1.1546966
1.1610547
1.1662404
1.1704914
1.174278
1.1777452
1.1807043
1.1831219
1.1847232
1.1855388
1.185471
1.1848297
1.1835673
1.1816621
1.1795401
1.1771395
1.1743944
1.1711909
1.1672595
1.1620159
1.1646957
1.1366679
1.1433891
1.1503036
1.1566479
1.1614461
1.1647876
1.1670467
1.1684257
1.1690366
1.1686997
1.167026
1.1641658
1.1605143
1.1565311
1.1524764
1.1480966
1.143319
1.1379586
1.1316323
1.1246303
1.1170186
1.108842
1.108153
1.1374544
1.1431601
1.1484934
1.1528929
1.155751
1.1571295
1.1568454
1.1553294
1.1533611
1.150312
1.1457787
1.1400424
1.133759
1.1268717
1.1200276
1.1128836
1.1051797
1.0967349
1.0875078
1.0779444
1.0686856
1.0603126
1.0578
1.1367754
1.1408812
1.144729
1.1476363
1.1494684
1.1495305
1.1474166
1.1437726
1.138854
1.1325943
1.1252641
1.1169595
1.107856
1.0981937
1.0885136
1.0789014
1.0692193
1.0595655
1.0501481
1.0410836
1.032786
1.0252941
1.0219659
1.1360121
1.1399844
1.1424421
1.1440381
1.1447765
1.1423477
1.1373625
1.1307739
1.1219791
1.1122941
1.1027433
1.0926198
1.0818625
1.0709635
1.0603858
1.0506203
1.0412722
1.0324462
1.024428
1.0170354
1.0108623
1.0063145
1.0052738
1.1330356
1.138171
1.1397238
1.1402442
1.1380774
1.1323451
1.1247568
1.1155889
1.1042836
1.0929573
1.0826051
1.0718004
1.0607274
1.0501279
1.0401838
1.0314929
1.0233222
1.0160907
1.0101698
1.0058887
1.0040311
1.0031308
1.0029518
1.1327657
1.1363949
1.1371798
1.1354248
1.1295328
1.1209024
1.1114703
1.1007265
1.0885404
1.0767306
1.0661357
1.0553535
1.0445492
1.0345789
1.0256077
1.0181377
1.0114835
1.0068954
1.0045139
1.0034003
1.0026854
1.0023025
1.0021426
1.1322678
1.1346207
1.1339639
1.1290386
1.1198166
1.109315
1.0986263
1.0869424
1.0744257
1.0625484
1.0521313
1.041804
1.0316094
1.0226403
1.0151251
1.0095406
1.0056057
1.0041902
1.0037204
1.0030354
1.0024806
1.0025426
1.0028566
1.1315556
1.1326539
1.1295924
1.121264
1.1098459
1.0984486
1.086799
1.0741917
1.0616168
1.0503015
1.0405642
1.031027
1.0219244
1.0145173
1.0090226
1.0059529
1.0044347
1.0040017
1.0039144
1.0033361
1.0027641
1.002652
1.0025841
1.1300289
1.1298237
1.1234561
1.1127595
1.100242
1.0881473
1.075962
1.0631051
1.0507878
1.0401633
1.0310992
1.0225757
1.0151703
1.0097403
1.0061607
1.0044444
1.0033928
1.0031991
1.0034935
1.0033258
1.0034482
1.0035218
1.0033563
1.1292593
1.1260409
1.1164834
1.1039222
1.0906637
1.0784387
1.0663538
1.0536182
1.0417886
1.0318778
1.0233614
1.0160555
1.0108697
1.0079111
1.005976
1.0048127
1.0038321
1.0032172
1.0030991
1.0030341
1.0036969
1.0040112
1.0032675
1.1281151
1.1214107
1.1092752
1.0953574
1.081712
1.0693273
1.057802
1.0460922
1.0350882
1.0261932
1.018364
1.0117667
1.0083938
1.0069063
1.0056897
1.0050241
1.0039565
1.0034551
1.0033716
1.0031729
1.003882
1.0044285
1.0041439
1.125938
1.1157601
1.1025566
1.0879918
1.0739013
1.0612526
1.0497839
1.0390608
1.0293552
1.0216057
1.0156293
1.0110273
1.0084377
1.0070369
1.0060909
1.0057322
1.0047078
1.0040733
1.0034548
1.0028314
1.0035722
1.0037716
1.0036057
1.1218611
1.1093408
1.096335
1.081723
1.0675474
1.0550958
1.0436509
1.0334272
1.025212
1.0191205
1.0148292
1.0115534
1.009237
1.0077122
1.006507
1.0059664
1.0053469
1.0048544
1.0042425
1.0033177
1.0037954
1.0039066
1.0035801
1.1185838
1.103578
1.0904707
1.0757908
1.0614892
1.0493114
1.0382112
1.0286672
1.0225378
1.018821
1.0158298
1.013645
1.0120355
1.0106882
1.0092063
1.0078746
1.0065666
1.0056321
1.004978
1.0038167
1.0039044
1.0039268
1.0032118
1.1155934
1.0984802
1.0851397
1.0702756
1.0557153
1.0439676
1.0347194
1.0275864
1.0228325
1.0203551
1.0188672
1.017451
1.016194
1.0148897
1.0129222
1.0111418
1.0096881
1.0079508
1.0063365
1.0051593
1.0052264
1.0047423
1.0037533
1.1143611
1.0953779
1.0809906
1.0656806
1.0511157
1.0403811
1.0335446
1.0285767
1.0258475
1.0248929
1.0241481
1.0228693
1.0213705
1.0199494
1.017954
1.0159918
1.0145142
1.0128077
1.0113415
1.0096601
1.0085043
1.0072304
1.0055029
1.1129127
1.0940375
1.0788217
1.0634311
1.0493341
1.0391636
1.0334979
1.0309935
1.0303317
1.0303044
1.0301288
1.0293155
1.0277826
1.0265094
1.0251434
1.023239
1.0220268
1.0208536
1.0194048
1.0173148
1.015251
1.013151
1.0103424
1.1073305
1.0906351
1.0758145
1.0609856
1.0481746
1.0396335
1.0355728
1.0344563
1.0348557
1.0351739
1.0349564
1.0347844
1.0343431
1.0338494
1.0333643
1.0327267
1.0323998
1.0316253
1.0299673
1.0276008
1.0251738
1.0228688
1.0197788
1.0979543
1.0818152
1.0685176
1.0557815
1.0454599
1.0389777
1.036806
1.0366983
1.0377746
1.0386612
1.0392181
1.0399819
1.0405205
1.0409266
1.0415132
1.0421276
1.0423348
1.0415017
1.0401217
1.0389419
1.0373876
1.0353852
1.0334818
1.0995654
1.0787199
1.0651507
1.0532881
1.0438629
1.0386575
1.03729
1.0377668
1.0393127
1.0411246
1.0426858
1.0441379
1.0451211
1.0456499
1.0463312
1.0470472
1.0473867
1.0475502
1.0475883
1.0480066
1.0481464
1.0477653
1.0473702
1.1004787
1.0783072
1.0650267
1.0533692
1.0442256
1.0396529
1.0385863
1.0390771
1.0403439
1.0418527
1.043454
1.0448748
1.045791
1.0464832
1.0474286
1.0480595
1.0483987
1.0492375
1.0505823
1.0516005
1.052001
1.052218
1.0522199
1.095672
1.073733
1.0615266
1.0515145
1.0435164
1.0392272
1.0383759
1.0390779
1.0401733
1.0410729
1.042136
1.0431384
1.0438177
1.0445389
1.045395
1.0459328
1.0464641
1.0472202
1.0484071
1.0491162
1.0495179
1.0500652
1.050583
1.0919281
1.0703412
1.05887
1.0495747
1.0424581
1.038378
1.037322
1.0378507
1.0386399
1.0390665
1.0395372
1.0402375
1.0409704
1.0414885
1.0417972
1.042361
1.0434691
1.043988
1.0441752
1.0445749
1.0453531
1.0458053
1.0463005
1.0914176
1.0704023
1.0589818
1.0498841
1.0429052
1.038443
1.0366149
1.036386
1.0367204
1.0368839
1.0369246
1.0372358
1.0378129
1.0381208
1.0380388
1.0383619
1.0393258
1.039293
1.0384596
1.0384774
1.0391408
1.0391063
1.0391009
1.0896448
1.0717152
1.0608924
1.0521022
1.0449422
1.0397782
1.0367835
1.0353696
1.0347885
1.0346357
1.0344652
1.0344317
1.034549
1.0345347
1.03424
1.0340887
1.0341772
1.0334992
1.0323047
1.0318095
1.0318341
1.0313371
1.0308993
1.0860561
1.0743218
1.0638106
1.0552583
1.0480615
1.0423304
1.0382243
1.0356087
1.0341789
1.0333417
1.0328516
1.0324417
1.0319887
1.0314445
1.0307352
1.0299696
1.0291261
1.0280156
1.0268274
1.0258875
1.0251762
1.0242122
1.0233934
1.0960784
1.0815323
1.0698614
1.0607441
1.0531582
1.0466243
1.0413007
1.0374452
1.0349664
1.0332987
1.0320656
1.0311852
1.0303722
1.0294859
1.028442
1.0271258
1.0256156
1.0241408
1.0229248
1.0218114
1.0205453
1.0195538
1.017967
1.1064663
1.0944367
1.08202
1.0714796
1.0627186
1.0549496
1.0482256
1.0427833
1.0386298
1.0357614
1.0336403
1.0317588
1.0301435
1.0286245
1.0271691
1.0255483
1.023946
1.0224526
1.0209399
1.0195868
1.0180426
1.0166027
1.0150229
1.109805
1.1061417
1.0995631
1.0914241
1.0828173
1.0739954
1.0655146
1.0575134
1.0505092
1.0448928
1.0403679
1.0367157
1.0338323
1.0314107
1.0293198
1.0275145
1.0257075
1.0238735
1.0222149
1.0203962
1.01861
1.0167953
1.0147074
1.1064934
1.1059308
1.1029147
1.1004609
1.097457
1.0935727
1.0887669
1.0825875
1.0754414
1.0681576
1.061318
1.054599
1.0484991
1.0433931
1.0389832
1.0356185
1.0325881
1.0296436
1.0271716
1.024739
1.0224637
1.0202089
1.0173894
1.0897326
1.0883322
1.0879033
1.0890278
1.0899536
1.0907611
1.0902154
1.0884566
1.0868899
1.0844514
1.0816804
1.0782716
1.0734438
1.0683612
1.0630326
1.0578656
1.0528892
1.0480483
1.0433213
1.0392365
1.0355184
1.032223
1.0275208
1.0658695
1.0609292
1.0590084
1.060064
1.0622948
1.0664358
1.0703229
1.0733916
1.0765039
1.0783347
1.0789495
1.0791627
1.078042
1.0767391
1.0755629
1.0740213
1.0715454
1.0693912
1.0660643
1.0624433
1.0588052
1.0557348
1.0509667
1.0502146
1.0443233
1.0441758
1.0442547
1.0447241
1.0467961
1.0486318
1.0513589
1.0547027
1.0574594
1.0598157
1.0626592
1.0654197
1.0672759
1.0690478
1.0699688
1.070055
1.0709049
1.0694832
1.0689541
1.0677716
1.0674014
1.0656025
1.0420903
1.0396717
1.0401722
1.0402414
1.0403184
1.0411989
1.0416959
1.0428671
1.0446393
1.0453022
1.0461543
1.0477804
1.0498188
1.0522033
1.0541317
1.0558157
1.0571753
1.0603034
1.0611817
1.0627177
1.0633588
1.0651415
1.0665744
1.0384442
1.0373261
1.0371558
1.0371376
1.0368238
1.0368777
1.0370841
1.0372258
1.0376353
1.0379606
1.0383809
1.0395145
1.0409406
1.0428556
1.0444693
1.0453116
1.0464893
1.0492684
1.0514602
1.0534048
1.0546925
1.0565407
1.0599863
1.035278
1.0348992
1.0341039
1.0329286
1.0314269
1.0302664
1.0290711
1.0281252
1.0275975
1.0272029
1.0273263
1.0273333
1.0281469
1.0292974
1.0307563
1.0322601
1.0340159
1.0366099
1.0395846
1.0422337
1.0447892
1.0472422
1.0527028
1.0322588
1.0322458
1.0303866
1.0282129
1.0256154
1.023141
1.0210274
1.0190648
1.0175527
1.0160305
1.0146686
1.0137881
1.0135683
1.0136333
1.0138504
1.0141722
1.0152363
1.0170392
1.0194508
1.0220814
1.0250028
1.027925
1.031718
1.0292116
1.0287584
1.0260519
1.0235283
1.0210582
1.0184184
1.0156467
1.0130947
1.011025
1.0092276
1.0076705
1.0066047
1.0058863
1.005165
1.0046323
1.0041907
1.0039678
1.0044305
1.0051903
1.0061937
1.0070805
1.008191
1.0100143
1.0254886
1.02449
1.0213439
1.018909
1.0167281
1.0143468
1.0114822
1.0089771
1.0070691
1.0055661
1.0045743
1.0038071
1.0028353
1.0021139
1.0018084
1.0014738
1.0013435
1.0013546
1.0013974
1.001193
1.0011108
1.001546
1.0022491
1.0222543
1.0207428
1.0175856
1.0152373
1.0129734
1.0103173
1.0077812
1.0060794
1.0051508
1.0038177
1.0020045
1.001076
1.0013995
1.0018029
1.0011608
1.0002802
1.0001079
1.0002799
1.0002738
1.0005096
1.0007368
0.99999419
0.99919661
1.0194855
1.0179652
1.0156328
1.0126989
1.0095237
1.007339
1.0060694
1.0041096
1.0018351
1.0012246
1.0015745
1.0010266
1.0002096
1.0004682
1.0007157
0.99988437
0.99912785
0.99993317
1.0006105
0.99962925
0.99879543
0.99962181
1.0007453
1.0159208
1.0134268
1.011442
1.0094359
1.0064002
1.0034355
1.0022978
1.0021299
1.0010547
0.99983937
1.0005318
1.0014471
1.0000901
0.99837714
0.99927156
1.0010852
1.0004406
0.99824257
0.99800062
0.9996568
1.0002508
0.99910506
0.9981687
1.0111201
1.0070674
1.0045859
1.0042263
1.0035098
1.001169
0.99934819
1.000059
1.0014978
1.000951
0.99936525
0.99924685
0.999967
0.99955602
0.99886431
0.99938193
0.99980121
0.99864789
0.99769213
0.9990092
1.000456
0.99883533
0.9960958
1.0062811
1.0029721
1.0005285
1.0005728
1.0017287
1.0014097
0.99959249
0.9989617
1.0003379
1.0010378
0.99944978
0.99803101
0.99907329
1.0004849
0.99944218
0.99760805
0.99792732
0.99938889
0.99951046
0.99849455
0.99812231
0.99846152
0.99848505
1.0017291
1.0016241
1.0011787
1.0003491
1.0002484
1.000495
0.9998729
0.99887946
0.99920211
1.0003093
1.0000686
0.99846697
0.99796995
0.99911598
0.99948188
0.99807635
0.99751366
0.99904621
0.99992312
0.99814338
0.99674199
0.99834269
1.0008154
1.0002199
1.0010222
1.0014841
1.0005907
0.99936778
0.99926277
0.99988786
0.99982116
0.9990786
0.9988522
0.99937035
0.9993127
0.99824822
0.99770951
0.998534
0.99934036
0.99874043
0.99764551
0.99769479
0.99851623