/*--------------------------------*- C++ -*----------------------------------*\
| =========                 |                                                 |
| \\      /  F ield         | OpenFOAM: The Open Source CFD Toolbox           |
|  \\    /   O peration     | Version:  2406                                  |
|   \\  /    A nd           | Website:  www.openfoam.com                      |
|    \\/     M anipulation  |                                                 |
\*---------------------------------------------------------------------------*/
FoamFile
{
    version     2.0;
    format      ascii;
    arch        "LSB;label=32;scalar=64";
    class       volScalarField;
    location    "55140";
    object      k;
}
// * * * * * * * * * * * * * * * * * * * * * * * * * * * * * * * * * * * * * //

dimensions      [0 2 -2 0 0 0 0];

internalField   nonuniform List<scalar> 
94692
(
3.4764647e-06
2.3226841e-06
1.7146812e-06
1.3507491e-06
1.0893945e-06
9.0913612e-07
8.0976654e-07
7.3748625e-07
6.4443414e-07
5.5270855e-07
4.9940303e-07
4.8298089e-07
4.7151395e-07
4.4411064e-07
3.8168147e-07
3.3667471e-07
3.4235144e-07
3.4256186e-07
3.7451125e-07
3.927136e-07
4.5158961e-07
5.4701683e-07
6.6880171e-07
8.4582044e-07
1.0004309e-06
1.1672216e-06
1.2917193e-06
1.4029572e-06
1.4633003e-06
1.5195269e-06
1.5454116e-06
1.5846344e-06
1.6013782e-06
1.6346033e-06
1.6451001e-06
1.6725319e-06
1.6795834e-06
1.7046982e-06
1.707007e-06
1.728948e-06
1.7317943e-06
1.7554518e-06
1.7583194e-06
1.7812352e-06
1.7843886e-06
1.8068834e-06
1.8112364e-06
1.8288458e-06
1.8451748e-06
1.8457235e-06
1.8666317e-06
1.8744956e-06
1.8969614e-06
1.9076617e-06
1.9253594e-06
1.942335e-06
1.9634845e-06
1.9689473e-06
1.9919876e-06
2.0097643e-06
2.0263386e-06
2.0555793e-06
2.066207e-06
2.090148e-06
2.1004494e-06
2.1246547e-06
2.1321065e-06
2.1533741e-06
2.1567691e-06
2.1741218e-06
2.1749293e-06
2.1902276e-06
2.1913665e-06
2.2054961e-06
2.2067095e-06
2.2188478e-06
2.2207991e-06
2.220442e-06
2.2273853e-06
2.2276303e-06
2.2339205e-06
2.233443e-06
2.2402371e-06
2.2398325e-06
2.2475227e-06
2.2478358e-06
2.2535057e-06
2.2536032e-06
2.2505979e-06
2.2415481e-06
2.234627e-06
2.240069e-06
2.2503227e-06
2.2758059e-06
2.2988066e-06
2.3494391e-06
2.3860044e-06
2.4845268e-06
2.4892529e-06
3.476331e-06
2.3206378e-06
1.7188723e-06
1.3499805e-06
1.0840239e-06
9.0967214e-07
8.1614001e-07
7.3942388e-07
6.4144864e-07
5.4927262e-07
5.0041901e-07
4.8561837e-07
4.7349389e-07
4.4350405e-07
3.7840148e-07
3.367624e-07
3.4595339e-07
3.4870719e-07
3.8672234e-07
4.0694864e-07
4.7770085e-07
5.5712527e-07
7.1152194e-07
8.6131881e-07
1.0383524e-06
1.1768687e-06
1.3122383e-06
1.3978652e-06
1.4751633e-06
1.5162252e-06
1.559488e-06
1.5818668e-06
1.6144172e-06
1.6285508e-06
1.657656e-06
1.6678383e-06
1.6949294e-06
1.7015079e-06
1.7251616e-06
1.7291845e-06
1.7487805e-06
1.7694236e-06
1.7709866e-06
1.7966486e-06
1.8020188e-06
1.8268494e-06
1.8312717e-06
1.8526025e-06
1.8637297e-06
1.8704302e-06
1.8877693e-06
1.9002406e-06
1.9162434e-06
1.9272385e-06
1.9442075e-06
1.9530864e-06
1.9765097e-06
1.9836554e-06
2.005419e-06
2.0189869e-06
2.0371839e-06
2.0598318e-06
2.0689749e-06
2.0900457e-06
2.0970285e-06
2.117392e-06
2.1212293e-06
2.1380859e-06
2.1384899e-06
2.1546831e-06
2.155053e-06
2.1712393e-06
2.1715213e-06
2.1863443e-06
2.1959184e-06
2.1956508e-06
2.2093251e-06
2.2093835e-06
2.2228132e-06
2.2225512e-06
2.2309528e-06
2.2308132e-06
2.2383379e-06
2.2384534e-06
2.244544e-06
2.2440865e-06
2.249737e-06
2.2496626e-06
2.2524734e-06
2.2522747e-06
2.2526891e-06
2.2522648e-06
2.2541241e-06
2.2636143e-06
2.272655e-06
2.3054289e-06
2.3326333e-06
2.4051739e-06
2.4803235e-06
3.4774917e-06
2.3217536e-06
1.7188519e-06
1.3500246e-06
1.0841887e-06
9.1118402e-07
8.1883011e-07
7.4054862e-07
6.4087597e-07
5.4892564e-07
5.0300515e-07
4.8906331e-07
4.7407336e-07
4.3996691e-07
3.8038665e-07
3.3976017e-07
3.4880497e-07
3.5257615e-07
3.9028338e-07
4.1144022e-07
4.8457941e-07
5.8477574e-07
7.5374959e-07
9.1896151e-07
1.0935729e-06
1.2307741e-06
1.3469027e-06
1.4257501e-06
1.4867777e-06
1.5397856e-06
1.5660272e-06
1.6086879e-06
1.6216879e-06
1.6510109e-06
1.6591272e-06
1.6851508e-06
1.6993969e-06
1.7071058e-06
1.7302218e-06
1.7371231e-06
1.7582087e-06
1.7665996e-06
1.7841132e-06
1.8041676e-06
1.8086021e-06
1.8323982e-06
1.8380426e-06
1.8643781e-06
1.8700611e-06
1.8941988e-06
1.9016358e-06
1.9209796e-06
1.9283343e-06
1.9459988e-06
1.9579935e-06
1.9700722e-06
1.9923944e-06
1.9941742e-06
2.0137957e-06
2.0226761e-06
2.0443261e-06
2.0504596e-06
2.0717971e-06
2.0768797e-06
2.0968182e-06
2.0978424e-06
2.1125645e-06
2.1124952e-06
2.1256045e-06
2.1254785e-06
2.1382611e-06
2.1386414e-06
2.153405e-06
2.153422e-06
2.169823e-06
2.170371e-06
2.1852137e-06
2.1852642e-06
2.1989463e-06
2.1990659e-06
2.2108099e-06
2.2112962e-06
2.2213216e-06
2.2214781e-06
2.2297352e-06
2.2292283e-06
2.2367286e-06
2.2359924e-06
2.2433156e-06
2.2436538e-06
2.249268e-06
2.2496096e-06
2.2490694e-06
2.2528149e-06
2.2609683e-06
2.2698381e-06
2.2972421e-06
2.3222201e-06
2.3981139e-06
3.4756772e-06
2.3226944e-06
1.7219933e-06
1.3499069e-06
1.0809115e-06
9.127038e-07
8.2485607e-07
7.4046754e-07
6.3428895e-07
5.4523612e-07
5.061178e-07
4.9328411e-07
4.7412305e-07
4.3231022e-07
3.6938342e-07
3.4947112e-07
3.5186864e-07
3.7247337e-07
3.9044764e-07
4.2814204e-07
4.8939501e-07
6.4667982e-07
8.0230907e-07
9.9406209e-07
1.1449934e-06
1.2930212e-06
1.3770272e-06
1.4609434e-06
1.5036496e-06
1.5621152e-06
1.5864495e-06
1.6284363e-06
1.6411471e-06
1.6730676e-06
1.6801283e-06
1.7073457e-06
1.7121238e-06
1.7363684e-06
1.7413171e-06
1.7622356e-06
1.7716697e-06
1.7862221e-06
1.8095941e-06
1.8122168e-06
1.8322534e-06
1.8481242e-06
1.8512779e-06
1.8752749e-06
1.8807388e-06
1.9038024e-06
1.9123522e-06
1.9203291e-06
1.9434892e-06
1.9490612e-06
1.9708778e-06
1.97488e-06
1.9938494e-06
1.9951307e-06
2.0148639e-06
2.016974e-06
2.0276678e-06
2.0468416e-06
2.0500594e-06
2.0698157e-06
2.0726547e-06
2.0882653e-06
2.0982564e-06
2.09827e-06
2.1115517e-06
2.1114153e-06
2.1259226e-06
2.1262417e-06
2.142814e-06
2.1453696e-06
2.1584853e-06
2.1690958e-06
2.1696358e-06
2.182173e-06
2.1822238e-06
2.1945589e-06
2.1945831e-06
2.2058218e-06
2.2059174e-06
2.2152349e-06
2.215007e-06
2.222393e-06
2.2225169e-06
2.2289731e-06
2.2286755e-06
2.2365439e-06
2.2365075e-06
2.2456305e-06
2.2457108e-06
2.2545645e-06
2.2649368e-06
2.2798171e-06
2.3032971e-06
2.3273721e-06
2.380663e-06
3.4756579e-06
2.3257509e-06
1.7258821e-06
1.346874e-06
1.077439e-06
9.189802e-07
8.3188708e-07
7.3713823e-07
6.2540063e-07
5.4306981e-07
5.1094348e-07
4.9900473e-07
4.7721111e-07
4.318633e-07
3.6918337e-07
3.5239189e-07
3.5531462e-07
3.815866e-07
3.9692807e-07
4.5686618e-07
5.2695228e-07
7.0541156e-07
8.7862622e-07
1.074848e-06
1.2218216e-06
1.3498633e-06
1.430934e-06
1.5017312e-06
1.5389416e-06
1.5830868e-06
1.6039016e-06
1.6422526e-06
1.6536899e-06
1.686092e-06
1.6933014e-06
1.7203115e-06
1.7243637e-06
1.7446744e-06
1.7584106e-06
1.7613112e-06
1.7855819e-06
1.7906399e-06
1.8128624e-06
1.8159742e-06
1.8357467e-06
1.8381626e-06
1.8585781e-06
1.8619786e-06
1.8801951e-06
1.8916122e-06
1.8967498e-06
1.9218998e-06
1.9252496e-06
1.9481423e-06
1.9521015e-06
1.9726994e-06
1.9753867e-06
1.993487e-06
1.995682e-06
2.0151084e-06
2.0160967e-06
2.0268069e-06
2.0464502e-06
2.0524747e-06
2.0723036e-06
2.076575e-06
2.0941213e-06
2.0967719e-06
2.1131649e-06
2.1156788e-06
2.1315006e-06
2.1371782e-06
2.1461064e-06
2.1602201e-06
2.1611148e-06
2.175757e-06
2.1758991e-06
2.1895725e-06
2.1899117e-06
2.2002854e-06
2.2000348e-06
2.2094358e-06
2.2090828e-06
2.2164103e-06
2.2164283e-06
2.2216651e-06
2.2218642e-06
2.2255227e-06
2.2251945e-06
2.2299454e-06
2.2299417e-06
2.2399796e-06
2.2466583e-06
2.2476141e-06
2.2632853e-06
2.2798171e-06
2.2954948e-06
2.3265998e-06
2.3682602e-06
3.4749724e-06
2.3272876e-06
1.7271201e-06
1.3427122e-06
1.0760094e-06
9.2497545e-07
8.3596924e-07
7.324387e-07
6.1864397e-07
5.4240947e-07
5.1637113e-07
5.0379502e-07
4.7666095e-07
4.2171561e-07
3.6194282e-07
3.568356e-07
3.5410153e-07
3.8422522e-07
4.0270081e-07
4.7147116e-07
5.6631202e-07
7.7192232e-07
9.64284e-07
1.1570991e-06
1.3038163e-06
1.40744e-06
1.4943761e-06
1.5398618e-06
1.5860587e-06
1.6050274e-06
1.6336372e-06
1.6595846e-06
1.6699556e-06
1.7001665e-06
1.7081482e-06
1.7316466e-06
1.7356256e-06
1.7471843e-06
1.7671212e-06
1.7672565e-06
1.7883335e-06
1.7911512e-06
1.8109662e-06
1.8135922e-06
1.8329071e-06
1.8356609e-06
1.8554977e-06
1.8571557e-06
1.8787049e-06
1.8812744e-06
1.9030841e-06
1.9062696e-06
1.9190589e-06
1.9393332e-06
1.9465969e-06
1.9579057e-06
1.977986e-06
1.978735e-06
1.9989208e-06
1.9998951e-06
2.0207693e-06
2.0215384e-06
2.0359118e-06
2.0563575e-06
2.0618893e-06
2.0809327e-06
2.084818e-06
2.1022073e-06
2.1055097e-06
2.1223903e-06
2.1257141e-06
2.1424707e-06
2.1452553e-06
2.1612871e-06
2.1615174e-06
2.1772587e-06
2.1772204e-06
2.1922913e-06
2.1929106e-06
2.2016831e-06
2.2020515e-06
2.2106981e-06
2.2102563e-06
2.2172892e-06
2.2172967e-06
2.22319e-06
2.2231302e-06
2.2221858e-06
2.2274211e-06
2.2273115e-06
2.2345682e-06
2.2347845e-06
2.2502409e-06
2.2506244e-06
2.2632993e-06
2.2882117e-06
2.3017993e-06
2.3353626e-06
2.3663118e-06
3.4754855e-06
2.3302854e-06
1.7270054e-06
1.3380256e-06
1.0770009e-06
9.3390489e-07
8.3886521e-07
7.2449852e-07
6.1113007e-07
5.4547639e-07
5.2493473e-07
5.1165638e-07
4.8150564e-07
4.0999714e-07
3.5669309e-07
3.5789958e-07
3.5784964e-07
3.8653298e-07
4.1096946e-07
5.0104447e-07
6.4115261e-07
8.806524e-07
1.0745669e-06
1.2647408e-06
1.3828672e-06
1.4837241e-06
1.5456271e-06
1.5875197e-06
1.6262399e-06
1.6380756e-06
1.6669527e-06
1.6764253e-06
1.7027959e-06
1.7099168e-06
1.7333822e-06
1.7361863e-06
1.7558051e-06
1.7561329e-06
1.7752071e-06
1.7758579e-06
1.7882715e-06
1.8077193e-06
1.8083875e-06
1.828283e-06
1.829171e-06
1.8495452e-06
1.8507313e-06
1.8627245e-06
1.8847777e-06
1.8865408e-06
1.9084872e-06
1.9098418e-06
1.9302983e-06
1.9348998e-06
1.9567385e-06
1.9594956e-06
1.981361e-06
1.9830994e-06
2.0047173e-06
2.0060027e-06
2.0274505e-06
2.0289128e-06
2.0493289e-06
2.0536789e-06
2.0740461e-06
2.0775586e-06
2.0968909e-06
2.099615e-06
2.118369e-06
2.1207531e-06
2.1388685e-06
2.1410251e-06
2.1589171e-06
2.1601524e-06
2.1768716e-06
2.1776428e-06
2.1921047e-06
2.1925825e-06
2.2052614e-06
2.2055956e-06
2.2135585e-06
2.2140662e-06
2.2204453e-06
2.2207805e-06
2.2258534e-06
2.2251318e-06
2.2295276e-06
2.2288444e-06
2.2336746e-06
2.2328647e-06
2.2406578e-06
2.2404268e-06
2.2551989e-06
2.2557881e-06
2.2750756e-06
2.2936684e-06
2.3058367e-06
2.334036e-06
2.3736094e-06
3.4743984e-06
2.3338388e-06
1.724755e-06
1.3311022e-06
1.081165e-06
9.4503533e-07
8.377369e-07
7.1151538e-07
6.0363984e-07
5.5196676e-07
5.3709017e-07
5.1946304e-07
4.6706051e-07
4.0329863e-07
3.5546417e-07
3.5974716e-07
3.6290955e-07
3.982978e-07
4.3752657e-07
5.7428321e-07
7.7529352e-07
1.0260369e-06
1.2083407e-06
1.3774343e-06
1.4658555e-06
1.5517501e-06
1.5911818e-06
1.6366328e-06
1.6539268e-06
1.6762561e-06
1.6942341e-06
1.7011769e-06
1.7259623e-06
1.7316947e-06
1.7525938e-06
1.7543193e-06
1.7730128e-06
1.7733896e-06
1.7916153e-06
1.7919876e-06
1.8040435e-06
1.8206655e-06
1.8213572e-06
1.8405023e-06
1.8408558e-06
1.8608862e-06
1.8609079e-06
1.8815568e-06
1.8845524e-06
1.9037577e-06
1.9088266e-06
1.9258172e-06
1.9334386e-06
1.9538237e-06
1.9573508e-06
1.9762821e-06
1.9788246e-06
1.997421e-06
2.0000205e-06
2.0199776e-06
2.0224316e-06
2.0422479e-06
2.0463404e-06
2.0648016e-06
2.0696351e-06
2.0878632e-06
2.0922526e-06
2.1095806e-06
2.1136314e-06
2.1307603e-06
2.1347369e-06
2.1517929e-06
2.1562719e-06
2.1667166e-06
2.18409e-06
2.1884932e-06
2.2024687e-06
2.2044739e-06
2.214628e-06
2.2193554e-06
2.2198686e-06
2.2251605e-06
2.2254648e-06
2.2272323e-06
2.2277325e-06
2.2300595e-06
2.2300265e-06
2.2339478e-06
2.2336545e-06
2.2400307e-06
2.2399326e-06
2.2530109e-06
2.2537444e-06
2.2672475e-06
2.2766327e-06
2.3029937e-06
2.3134884e-06
2.3429547e-06
2.3820146e-06
3.4748002e-06
2.3385401e-06
1.7201469e-06
1.3264899e-06
1.0903556e-06
9.5505045e-07
8.30839e-07
6.9648057e-07
6.0143183e-07
5.6467691e-07
5.5111445e-07
5.2718103e-07
4.5505365e-07
3.8564763e-07
3.5603515e-07
3.702938e-07
3.7707509e-07
4.2663972e-07
5.1336962e-07
7.2744661e-07
9.6634492e-07
1.1954632e-06
1.3500757e-06
1.4857269e-06
1.5470255e-06
1.6133631e-06
1.6406171e-06
1.6805247e-06
1.6905231e-06
1.715171e-06
1.7222879e-06
1.7387475e-06
1.7498011e-06
1.7680799e-06
1.7735522e-06
1.7915821e-06
1.7920955e-06
1.8104868e-06
1.8112498e-06
1.8289696e-06
1.8305941e-06
1.8499801e-06
1.8511336e-06
1.8711968e-06
1.8717218e-06
1.8917196e-06
1.8928991e-06
1.9124129e-06
1.9146475e-06
1.9253701e-06
1.9461941e-06
1.9511712e-06
1.9680992e-06
1.9755254e-06
1.9933036e-06
1.9947142e-06
2.0107332e-06
2.0153345e-06
2.0258706e-06
2.043554e-06
2.0447691e-06
2.0629162e-06
2.0764491e-06
2.0832336e-06
2.1040727e-06
2.1100356e-06
2.1273198e-06
2.1329197e-06
2.1472443e-06
2.1568412e-06
2.1690157e-06
2.1809869e-06
2.1944222e-06
2.2058169e-06
2.2185541e-06
2.2250247e-06
2.2418706e-06
2.2567246e-06
2.2630009e-06
2.2742957e-06
2.2807409e-06
2.2806969e-06
2.2842608e-06
2.2839567e-06
2.2849877e-06
2.2849502e-06
2.2844312e-06
2.2823371e-06
2.2752199e-06
2.2781417e-06
2.2780764e-06
2.2857292e-06
2.2884193e-06
2.2892499e-06
2.3005699e-06
2.320473e-06
2.3277876e-06
2.3552069e-06
2.3852805e-06
3.4758841e-06
2.3384888e-06
1.7144531e-06
1.3249056e-06
1.1016556e-06
9.6015044e-07
8.165851e-07
6.8202687e-07
6.0631883e-07
5.8226281e-07
5.6494713e-07
5.2458827e-07
4.335851e-07
3.7462612e-07
3.617809e-07
3.7886244e-07
4.0401511e-07
4.9967268e-07
6.8350331e-07
9.4977951e-07
1.1758851e-06
1.3648583e-06
1.48381e-06
1.5846198e-06
1.6279496e-06
1.6777734e-06
1.6988364e-06
1.7301613e-06
1.7415096e-06
1.7600003e-06
1.7743656e-06
1.7797883e-06
1.800048e-06
1.8083618e-06
1.8246914e-06
1.8363483e-06
1.8397188e-06
1.859144e-06
1.8642705e-06
1.8743565e-06
1.8889658e-06
1.8971947e-06
1.9086176e-06
1.92493e-06
1.9293348e-06
1.9470344e-06
1.953311e-06
1.9682709e-06
1.9725964e-06
1.985694e-06
1.99776e-06
2.0132281e-06
2.0244762e-06
2.0348666e-06
2.0492596e-06
2.0546758e-06
2.0691301e-06
2.0761988e-06
2.0889419e-06
2.1027582e-06
2.1146545e-06
2.1295583e-06
2.1402099e-06
2.1573203e-06
2.1737351e-06
2.1843305e-06
2.1988912e-06
2.2121056e-06
2.2253395e-06
2.2403793e-06
2.2584523e-06
2.2718791e-06
2.2902034e-06
2.3079818e-06
2.3208652e-06
2.3341166e-06
2.3504747e-06
2.3673111e-06
2.3804775e-06
2.393142e-06
2.403977e-06
2.4097842e-06
2.4143702e-06
2.413803e-06
2.4122533e-06
2.4090121e-06
2.404245e-06
2.3988836e-06
2.3930356e-06
2.3869025e-06
2.3819647e-06
2.3715262e-06
2.3673777e-06
2.358082e-06
2.3708972e-06
2.3729725e-06
2.375548e-06
2.4041734e-06
2.4144195e-06
3.4789145e-06
2.3364659e-06
1.7097645e-06
1.3300413e-06
1.1140779e-06
9.565066e-07
7.9865488e-07
6.762883e-07
6.2268621e-07
6.0370468e-07
5.7504754e-07
5.0370864e-07
4.1751754e-07
3.7680022e-07
3.734852e-07
4.0120959e-07
4.6807232e-07
6.7578538e-07
9.3818761e-07
1.1995921e-06
1.3862543e-06
1.5329039e-06
1.6219823e-06
1.6955392e-06
1.7311849e-06
1.769743e-06
1.7909025e-06
1.8137774e-06
1.8323566e-06
1.8456146e-06
1.8636015e-06
1.8719862e-06
1.8907376e-06
1.9024041e-06
1.9205684e-06
1.9326721e-06
1.9454257e-06
1.961329e-06
1.9732328e-06
1.9862276e-06
2.0016095e-06
2.0137053e-06
2.0272791e-06
2.0408699e-06
2.0555794e-06
2.0659554e-06
2.0784626e-06
2.0926802e-06
2.1012687e-06
2.1167851e-06
2.1302941e-06
2.1492626e-06
2.1636427e-06
2.1760091e-06
2.1916591e-06
2.2031658e-06
2.2178215e-06
2.2310188e-06
2.2448846e-06
2.2638852e-06
2.2822003e-06
2.299977e-06
2.3196128e-06
2.3398195e-06
2.3600951e-06
2.3747573e-06
2.3928641e-06
2.4130225e-06
2.4294071e-06
2.4512877e-06
2.4765379e-06
2.4971615e-06
2.5166729e-06
2.5402595e-06
2.5556009e-06
2.5781567e-06
2.5983876e-06
2.6220705e-06
2.6439894e-06
2.6604311e-06
2.6748378e-06
2.6816073e-06
2.6864046e-06
2.6876523e-06
2.6909212e-06
2.6807163e-06
2.6760798e-06
2.6656137e-06
2.6568995e-06
2.6387756e-06
2.6259877e-06
2.6008182e-06
2.5839912e-06
2.5585893e-06
2.5471372e-06
2.5244136e-06
2.514394e-06
2.5193634e-06
2.5079812e-06
3.4801908e-06
2.3316236e-06
1.7065568e-06
1.3382757e-06
1.1202767e-06
9.4183865e-07
7.837451e-07
6.8459031e-07
6.4885451e-07
6.2264251e-07
5.6420489e-07
4.8182537e-07
4.2423569e-07
4.1581635e-07
4.0962126e-07
4.8453888e-07
6.778666e-07
9.7732851e-07
1.2498747e-06
1.473002e-06
1.621282e-06
1.733212e-06
1.8052038e-06
1.8608805e-06
1.897697e-06
1.9330934e-06
1.9560682e-06
1.9813624e-06
2.0015211e-06
2.0216487e-06
2.0400095e-06
2.0580738e-06
2.0765193e-06
2.0966355e-06
2.1183806e-06
2.1338325e-06
2.1571516e-06
2.1765272e-06
2.1971878e-06
2.2121854e-06
2.2364841e-06
2.2518776e-06
2.2716137e-06
2.2860405e-06
2.3064426e-06
2.3174525e-06
2.3332564e-06
2.348958e-06
2.3638673e-06
2.3879534e-06
2.4075256e-06
2.4358161e-06
2.4548426e-06
2.473628e-06
2.4943571e-06
2.5121901e-06
2.5322313e-06
2.5516336e-06
2.5705472e-06
2.5940983e-06
2.6185943e-06
2.6440377e-06
2.6721788e-06
2.704664e-06
2.7327569e-06
2.7514127e-06
2.779535e-06
2.8032716e-06
2.8207655e-06
2.8570604e-06
2.8832264e-06
2.9176932e-06
2.9397957e-06
2.9707792e-06
2.992285e-06
3.0169952e-06
3.0473934e-06
3.0765475e-06
3.1028131e-06
3.1269347e-06
3.1436097e-06
3.1548192e-06
3.1560803e-06
3.1584641e-06
3.1650029e-06
3.1465063e-06
3.1466995e-06
3.1247935e-06
3.1088684e-06
3.0810222e-06
3.0558121e-06
3.0237209e-06
2.9859944e-06
2.9526251e-06
2.9010437e-06
2.867163e-06
2.8182578e-06
2.7998403e-06
2.7295512e-06
3.4813276e-06
2.3293452e-06
1.7087647e-06
1.3484687e-06
1.1207275e-06
9.2679818e-07
7.9014455e-07
7.1505922e-07
6.7916702e-07
6.3491171e-07
5.5661618e-07
5.1689263e-07
5.1327505e-07
5.3151568e-07
5.9517725e-07
7.9217995e-07
1.0912911e-06
1.3937389e-06
1.6433588e-06
1.8241647e-06
1.9457325e-06
2.03478e-06
2.1020002e-06
2.1500643e-06
2.1952965e-06
2.2365531e-06
2.2624668e-06
2.2996788e-06
2.322707e-06
2.3579116e-06
2.3783726e-06
2.4142783e-06
2.4374602e-06
2.47094e-06
2.503956e-06
2.5253976e-06
2.5662695e-06
2.5929925e-06
2.6281768e-06
2.6483438e-06
2.6879015e-06
2.7102746e-06
2.7400064e-06
2.7610567e-06
2.7914612e-06
2.8067036e-06
2.8338895e-06
2.8537037e-06
2.8812167e-06
2.9185755e-06
2.9527545e-06
2.9968124e-06
3.0274807e-06
3.0547952e-06
3.0881803e-06
3.1152579e-06
3.1488724e-06
3.1759662e-06
3.2027942e-06
3.2361386e-06
3.2654726e-06
3.3055242e-06
3.3461842e-06
3.3949478e-06
3.4371914e-06
3.4585022e-06
3.4941647e-06
3.5230051e-06
3.5469844e-06
3.5930975e-06
3.6323031e-06
3.6741399e-06
3.7011124e-06
3.7378632e-06
3.7705056e-06
3.7990956e-06
3.8338991e-06
3.8705248e-06
3.8999091e-06
3.9290582e-06
3.9486076e-06
3.9641177e-06
3.9665742e-06
3.9714212e-06
3.9836177e-06
3.9455782e-06
3.9454465e-06
3.9067876e-06
3.8632045e-06
3.834032e-06
3.7787782e-06
3.7481924e-06
3.6804576e-06
3.6434069e-06
3.5606493e-06
3.5147922e-06
3.415545e-06
3.3746413e-06
3.2307106e-06
3.4797001e-06
2.3263693e-06
1.7093919e-06
1.3539779e-06
1.126298e-06
9.3758429e-07
8.345088e-07
7.821887e-07
7.1783186e-07
6.9217031e-07
6.7426834e-07
6.7588586e-07
7.0390165e-07
7.9980288e-07
1.0137053e-06
1.3411135e-06
1.6737851e-06
1.9416745e-06
2.161888e-06
2.3078369e-06
2.4130193e-06
2.4909787e-06
2.5599774e-06
2.6098979e-06
2.668455e-06
2.7208135e-06
2.75351e-06
2.8085568e-06
2.842074e-06
2.896478e-06
2.9253898e-06
2.9847964e-06
3.0219011e-06
3.0756255e-06
3.1274294e-06
3.1632966e-06
3.2298028e-06
3.2695504e-06
3.3257608e-06
3.3588987e-06
3.4242389e-06
3.4584872e-06
3.510743e-06
3.5433915e-06
3.5981043e-06
3.6250309e-06
3.6773993e-06
3.7073772e-06
3.7649296e-06
3.8172334e-06
3.8878399e-06
3.9498531e-06
4.0090954e-06
4.0495533e-06
4.1083645e-06
4.1586754e-06
4.2137128e-06
4.2554199e-06
4.3013762e-06
4.3553778e-06
4.3959745e-06
4.4605213e-06
4.5309545e-06
4.6032415e-06
4.6579334e-06
4.6940575e-06
4.7359004e-06
4.7716131e-06
4.8107904e-06
4.886916e-06
4.9420515e-06
4.9850432e-06
5.0220398e-06
5.0604501e-06
5.1092409e-06
5.1487723e-06
5.1939577e-06
5.2344122e-06
5.2698717e-06
5.3016483e-06
5.3318151e-06
5.3393874e-06
5.353395e-06
5.3861901e-06
5.305476e-06
5.3031478e-06
5.1972698e-06
5.1959099e-06
5.0757246e-06
5.0665865e-06
4.950915e-06
4.9036564e-06
4.785322e-06
4.7256505e-06
4.5944022e-06
4.5280684e-06
4.3776394e-06
4.3222567e-06
4.097059e-06
3.4786336e-06
2.3323252e-06
1.7261731e-06
1.3956856e-06
1.1960102e-06
1.0484427e-06
9.6837564e-07
9.2415928e-07
9.0789309e-07
9.1523794e-07
9.3480083e-07
9.8031382e-07
1.0922487e-06
1.3507529e-06
1.6761518e-06
2.035267e-06
2.3537741e-06
2.5802834e-06
2.767719e-06
2.886673e-06
2.9813262e-06
3.0570522e-06
3.1301751e-06
3.1898278e-06
3.263725e-06
3.3295908e-06
3.3782767e-06
3.4568204e-06
3.5129955e-06
3.5879294e-06
3.6313864e-06
3.7254435e-06
3.7850622e-06
3.8711741e-06
3.9475336e-06
4.0136801e-06
4.1157762e-06
4.1755831e-06
4.2669769e-06
4.32463e-06
4.4352675e-06
4.4886554e-06
4.5889361e-06
4.6418142e-06
4.7476027e-06
4.801192e-06
4.9060707e-06
4.964344e-06
5.081557e-06
5.1575952e-06
5.3045709e-06
5.389724e-06
5.5182634e-06
5.5863083e-06
5.7074682e-06
5.8009585e-06
5.9054206e-06
5.9841823e-06
6.0898423e-06
6.1855338e-06
6.2693989e-06
6.3886235e-06
6.5214331e-06
6.6440419e-06
6.7303932e-06
6.8135339e-06
6.8874449e-06
6.9595447e-06
7.0551582e-06
7.1970847e-06
7.2801049e-06
7.3508006e-06
7.4177284e-06
7.4818361e-06
7.586659e-06
7.6552223e-06
7.7429324e-06
7.8022186e-06
7.8596333e-06
7.9295011e-06
7.949851e-06
7.972134e-06
8.0232058e-06
7.8504664e-06
7.8468649e-06
7.6271321e-06
7.6229382e-06
7.485395e-06
7.2747946e-06
7.2615573e-06
7.0157049e-06
6.9933455e-06
6.7736213e-06
6.6788698e-06
6.4636359e-06
6.3625623e-06
6.1101521e-06
6.0428848e-06
5.6948596e-06
3.4753377e-06
2.3626191e-06
1.8257284e-06
1.5666769e-06
1.4151888e-06
1.2861531e-06
1.2176094e-06
1.2146913e-06
1.2313177e-06
1.272243e-06
1.3256548e-06
1.4269614e-06
1.6558563e-06
1.9915373e-06
2.3166723e-06
2.6447633e-06
2.9283988e-06
3.1150987e-06
3.2635046e-06
3.3636221e-06
3.452352e-06
3.5317852e-06
3.6131359e-06
3.6906355e-06
3.7803621e-06
3.8628983e-06
3.9370685e-06
4.0372316e-06
4.1238862e-06
4.2133661e-06
4.2726376e-06
4.4167433e-06
4.504012e-06
4.6301458e-06
4.7342204e-06
4.8507605e-06
4.988111e-06
5.083948e-06
5.2234586e-06
5.3219293e-06
5.4937768e-06
5.5804871e-06
5.7521485e-06
5.8424894e-06
6.025138e-06
6.1213341e-06
6.312895e-06
6.4187372e-06
6.6355722e-06
6.7603858e-06
7.0156254e-06
7.1454217e-06
7.3965487e-06
7.5186587e-06
7.7562496e-06
7.909823e-06
8.1229528e-06
8.2790468e-06
8.502803e-06
8.6825081e-06
8.8706721e-06
9.1008681e-06
9.3419986e-06
9.5616236e-06
9.7354239e-06
9.9300841e-06
1.0095386e-05
1.0276262e-05
1.0486013e-05
1.0747177e-05
1.0899637e-05
1.1062431e-05
1.1221962e-05
1.1369053e-05
1.1603139e-05
1.1732332e-05
1.1938626e-05
1.2034256e-05
1.2222236e-05
1.2318262e-05
1.2361914e-05
1.2456858e-05
1.2170567e-05
1.2165904e-05
1.1819038e-05
1.1814117e-05
1.1432037e-05
1.1426892e-05
1.1033924e-05
1.1017233e-05
1.0608616e-05
1.0588817e-05
1.0344154e-05
9.9665277e-06
9.8472041e-06
9.6985116e-06
9.2431881e-06
9.1355551e-06
8.5903465e-06
3.5296642e-06
2.5424197e-06
2.0748814e-06
1.8564221e-06
1.6967131e-06
1.5359514e-06
1.4662567e-06
1.4727894e-06
1.5050207e-06
1.5631196e-06
1.6364698e-06
1.7783393e-06
2.038155e-06
2.3377267e-06
2.5869936e-06
2.8462881e-06
3.0968065e-06
3.2571471e-06
3.3548863e-06
3.4445394e-06
3.530932e-06
3.6174868e-06
3.709218e-06
3.8077302e-06
3.9092325e-06
4.0070441e-06
4.1084513e-06
4.2180483e-06
4.3262465e-06
4.4245085e-06
4.4921707e-06
4.7115729e-06
4.7992841e-06
4.9626722e-06
5.102398e-06
5.2729999e-06
5.4349879e-06
5.5866378e-06
5.7640034e-06
5.9188586e-06
6.139953e-06
6.2723007e-06
6.5229131e-06
6.6601626e-06
6.9321053e-06
7.0826706e-06
7.3797112e-06
7.5475272e-06
7.883738e-06
8.0736991e-06
8.4523563e-06
8.6516037e-06
9.0413268e-06
9.2399837e-06
9.6271955e-06
9.8622883e-06
1.0233105e-05
1.0493379e-05
1.0876073e-05
1.1174123e-05
1.1523979e-05
1.1897926e-05
1.2271756e-05
1.2623887e-05
1.2950013e-05
1.3309605e-05
1.3652779e-05
1.4019836e-05
1.4401434e-05
1.4820813e-05
1.5145095e-05
1.5501263e-05
1.5826571e-05
1.6160039e-05
1.6543439e-05
1.6821198e-05
1.7169601e-05
1.7372972e-05
1.7813715e-05
1.7687675e-05
1.7693407e-05
1.752669e-05
1.752649e-05
1.7503156e-05
1.7329965e-05
1.7329262e-05
1.6978554e-05
1.6983172e-05
1.660314e-05
1.6595517e-05
1.6127033e-05
1.6120182e-05
1.5609495e-05
1.5586648e-05
1.5276019e-05
1.475588e-05
1.4695134e-05
1.4289846e-05
1.3809255e-05
3.5326327e-06
2.5532519e-06
2.0488505e-06
1.7774393e-06
1.5681416e-06
1.3890927e-06
1.3258253e-06
1.3418198e-06
1.3791818e-06
1.437592e-06
1.5247213e-06
1.6594254e-06
1.8389132e-06
2.0223022e-06
2.1480147e-06
2.3247889e-06
2.489548e-06
2.59929e-06
2.6818021e-06
2.7566667e-06
2.8303036e-06
2.9062554e-06
2.9896766e-06
3.0993607e-06
3.2206078e-06
3.3002484e-06
3.3947707e-06
3.4988031e-06
3.6059471e-06
3.7125094e-06
3.8252191e-06
3.9721079e-06
4.1068582e-06
4.252062e-06
4.4020002e-06
4.5638679e-06
4.7274116e-06
4.9053836e-06
5.0793283e-06
5.2725405e-06
5.4668e-06
5.6737136e-06
5.8896091e-06
6.1040306e-06
6.362865e-06
6.5996883e-06
6.8878287e-06
7.1530647e-06
7.4759059e-06
7.7693487e-06
8.1214762e-06
8.4342929e-06
8.8069089e-06
9.1361394e-06
9.530583e-06
9.8812619e-06
1.0295022e-05
1.0668967e-05
1.1110048e-05
1.1507942e-05
1.1969947e-05
1.2396515e-05
1.2824498e-05
1.3267217e-05
1.3714216e-05
1.4170931e-05
1.4633431e-05
1.5103656e-05
1.5577157e-05
1.6049486e-05
1.6509734e-05
1.6967461e-05
1.741881e-05
1.7857012e-05
1.8281419e-05
1.8667445e-05
1.9029918e-05
1.9335817e-05
1.960828e-05
1.9810871e-05
1.9984192e-05
2.013796e-05
2.0266227e-05
2.0363957e-05
2.0408407e-05
2.0400019e-05
2.0319067e-05
2.0316087e-05
2.0148804e-05
2.0152325e-05
1.9862468e-05
1.9866114e-05
1.9489841e-05
1.9478255e-05
1.9084863e-05
1.8934007e-05
1.8359469e-05
1.8151241e-05
1.7440063e-05
2.6021642e-06
1.3843459e-06
9.2886833e-07
7.2126373e-07
6.1380286e-07
5.6985366e-07
5.6501075e-07
5.7017405e-07
5.8363174e-07
6.1211836e-07
6.5315359e-07
7.0675553e-07
7.6641496e-07
8.1541488e-07
8.5709629e-07
9.0528871e-07
9.4515896e-07
9.7553551e-07
1.0023543e-06
1.0293792e-06
1.0568548e-06
1.0866764e-06
1.1203058e-06
1.1561802e-06
1.1895673e-06
1.2221933e-06
1.2584529e-06
1.2957495e-06
1.3343011e-06
1.3737551e-06
1.4190119e-06
1.4684751e-06
1.5199207e-06
1.5724892e-06
1.6293666e-06
1.692005e-06
1.7478529e-06
1.8217831e-06
1.8827479e-06
1.962528e-06
2.0311109e-06
2.1149698e-06
2.200669e-06
2.2767091e-06
2.3873423e-06
2.4735269e-06
2.5972479e-06
2.6933123e-06
2.830593e-06
2.9351924e-06
3.0843607e-06
3.1973439e-06
3.3595536e-06
3.4816604e-06
3.6573226e-06
3.7907727e-06
3.9808193e-06
4.1284059e-06
4.3320582e-06
4.4974413e-06
4.7081624e-06
4.9024241e-06
5.1023292e-06
5.3098411e-06
5.5211963e-06
5.738347e-06
5.9641251e-06
6.1999426e-06
6.4395035e-06
6.688602e-06
6.9413849e-06
7.1926419e-06
7.4704473e-06
7.699512e-06
7.9727681e-06
8.1762985e-06
8.483085e-06
8.5298164e-06
8.4749351e-06
8.4700667e-06
8.5253882e-06
8.8430446e-06
8.9640413e-06
9.0443575e-06
9.0658726e-06
8.9788435e-06
8.9540789e-06
9.06494e-06
9.1540101e-06
9.150129e-06
9.1485511e-06
9.1329974e-06
9.1274783e-06
9.1052547e-06
9.0813299e-06
9.0181103e-06
8.8704144e-06
8.3684319e-06
8.3690583e-06
7.4315829e-06
1.7250825e-05
1.4362261e-05
9.1295065e-06
6.0900921e-06
4.3496171e-06
3.3819754e-06
2.8447021e-06
2.5921514e-06
2.4754937e-06
2.4320882e-06
2.4218138e-06
2.4206438e-06
2.418369e-06
2.4268e-06
2.4382218e-06
2.4556809e-06
2.544535e-06
2.5468184e-06
6.8909754e-06
1.568251e-05
1.4087262e-05
9.5260306e-06
6.3899516e-06
4.5212425e-06
3.4961612e-06
2.9269809e-06
2.6518135e-06
2.5233032e-06
2.4808718e-06
2.4715319e-06
2.4775659e-06
2.4773631e-06
2.4861505e-06
2.4952698e-06
2.5119073e-06
2.5995326e-06
2.6107146e-06
5.6268493e-06
1.5679689e-05
1.4229338e-05
1.0368599e-05
6.9487636e-06
4.8662392e-06
3.721858e-06
3.0912517e-06
2.7786778e-06
2.6310524e-06
2.5797731e-06
2.5544429e-06
2.5591534e-06
2.5591639e-06
2.5738911e-06
2.5969646e-06
2.6152576e-06
2.6889848e-06
2.723016e-06
4.6413675e-06
1.2783152e-05
1.3451297e-05
1.0693564e-05
7.4249274e-06
5.1591273e-06
3.8973993e-06
3.199487e-06
2.8547161e-06
2.6986481e-06
2.6479887e-06
2.621981e-06
2.6375552e-06
2.6395374e-06
2.6720584e-06
2.7041385e-06
2.7287673e-06
2.8043891e-06
2.8483654e-06
3.9230742e-06
1.5457325e-05
1.3670847e-05
1.1002719e-05
7.7350433e-06
5.4043864e-06
4.0921009e-06
3.3585642e-06
2.9963894e-06
2.8242588e-06
2.761345e-06
2.7391599e-06
2.7524749e-06
2.7526532e-06
2.7759097e-06
2.7866516e-06
2.8167685e-06
2.8898967e-06
2.9755885e-06
3.2972565e-06
1.0777328e-05
1.4026468e-05
1.1668253e-05
8.2980327e-06
5.7698045e-06
4.2919962e-06
3.4954134e-06
3.1108596e-06
2.9332664e-06
2.8744579e-06
2.8641154e-06
2.8767308e-06
2.8766553e-06
2.896358e-06
2.8990195e-06
2.9491907e-06
3.0012221e-06
3.109939e-06
3.4611658e-06
9.7691799e-06
1.2046731e-05
1.1219346e-05
8.6698575e-06
6.1422035e-06
4.5848262e-06
3.7082639e-06
3.2716888e-06
3.0690732e-06
3.0085792e-06
3.0042437e-06
3.0173028e-06
3.0223181e-06
3.0585119e-06
3.0809938e-06
3.1450693e-06
3.1805257e-06
3.2999782e-06
2.8875186e-06
9.8291471e-06
1.4817319e-05
1.1652852e-05
8.9455828e-06
6.3777611e-06
4.7512729e-06
3.8317018e-06
3.3917739e-06
3.1831467e-06
3.1125343e-06
3.1030736e-06
3.1155957e-06
3.1206962e-06
3.1572156e-06
3.180286e-06
3.245405e-06
3.2684458e-06
3.3785827e-06
3.5201106e-06
7.4538934e-06
1.2883254e-05
1.2642252e-05
9.8761284e-06
6.820948e-06
5.0229457e-06
4.0190515e-06
3.5352753e-06
3.320932e-06
3.2579452e-06
3.2557247e-06
3.270202e-06
3.2756935e-06
3.3115131e-06
3.3261766e-06
3.3953671e-06
3.4130478e-06
3.4966684e-06
2.6706673e-06
7.734353e-06
8.2100954e-06
9.9638448e-06
9.4413522e-06
7.2275393e-06
5.2949492e-06
4.2074158e-06
3.6910163e-06
3.4646336e-06
3.3937478e-06
3.3827804e-06
3.3930412e-06
3.3935378e-06
3.4193947e-06
3.4288458e-06
3.5033753e-06
3.5246189e-06
3.6364493e-06
3.7799952e-06
6.0020662e-06
7.427494e-06
1.039721e-05
9.4419823e-06
7.4215294e-06
5.4813263e-06
4.3399082e-06
3.8053302e-06
3.5724272e-06
3.5085657e-06
3.5026478e-06
3.5202119e-06
3.5249352e-06
3.5555713e-06
3.5675735e-06
3.6472593e-06
3.6674172e-06
3.7351592e-06
2.1114353e-06
6.0017323e-06
5.9022032e-06
8.1295982e-06