/*--------------------------------*- C++ -*----------------------------------*\
| =========                 |                                                 |
| \\      /  F ield         | OpenFOAM: The Open Source CFD Toolbox           |
|  \\    /   O peration     | Version:  2406                                  |
|   \\  /    A nd           | Website:  www.openfoam.com                      |
|    \\/     M anipulation  |                                                 |
\*---------------------------------------------------------------------------*/
FoamFile
{
    version     2.0;
    format      ascii;
    arch        "LSB;label=32;scalar=64";
    class       volScalarField;
    location    "55140";
    object      nutMean;
}
// * * * * * * * * * * * * * * * * * * * * * * * * * * * * * * * * * * * * * //

dimensions      [0 2 -1 0 0 0 0];

internalField   nonuniform List<scalar> 
94692
(
8.3093759e-07
7.8440016e-07
7.4693617e-07
7.1663703e-07
6.9352246e-07
6.7323628e-07
6.5792469e-07
6.4315701e-07
6.3250634e-07
6.212192e-07
6.1348577e-07
6.0548115e-07
5.9926354e-07
5.9420826e-07
5.887683e-07
5.8547024e-07
5.8237322e-07
5.7884165e-07
5.7818959e-07
5.7528196e-07
5.7535328e-07
5.7394133e-07
5.7306718e-07
5.7100781e-07
5.7152287e-07
5.6788738e-07
5.6708608e-07
5.6338224e-07
5.6021529e-07
5.5661813e-07
5.5354573e-07
5.4980029e-07
5.4675831e-07
5.4321073e-07
5.40096e-07
5.3680446e-07
5.3363393e-07
5.3059738e-07
5.2733141e-07
5.2505452e-07
5.2152751e-07
5.1966025e-07
5.1588449e-07
5.1445024e-07
5.1029018e-07
5.095372e-07
5.0542567e-07
5.0455755e-07
5.0080701e-07
4.9976784e-07
4.9694347e-07
4.9472773e-07
4.9244412e-07
4.9032113e-07
4.8866338e-07
4.8582886e-07
4.848232e-07
4.824037e-07
4.8055693e-07
4.7872166e-07
4.7703614e-07
4.7506219e-07
4.7371257e-07
4.7155594e-07
4.7071802e-07
4.6866074e-07
4.6741675e-07
4.6570638e-07
4.6474709e-07
4.6309598e-07
4.6243083e-07
4.6105772e-07
4.6044006e-07
4.5936245e-07
4.5899536e-07
4.578538e-07
4.5779802e-07
4.5689787e-07
4.5696576e-07
4.56381e-07
4.5655824e-07
4.5611326e-07
4.5636195e-07
4.5594411e-07
4.5608982e-07
4.5564313e-07
4.5659742e-07
4.5569691e-07
4.5763004e-07
4.5950288e-07
4.6098326e-07
4.6349769e-07
4.6586358e-07
4.7025203e-07
4.7847298e-07
4.9491718e-07
5.2370658e-07
5.764497e-07
6.5896402e-07
8.309561e-07
7.8457258e-07
7.4691064e-07
7.171844e-07
6.9286052e-07
6.7402974e-07
6.5722053e-07
6.4347656e-07
6.3248935e-07
6.2147337e-07
6.1370608e-07
6.0528068e-07
5.9955055e-07
5.9375194e-07
5.8887099e-07
5.8564592e-07
5.8163475e-07
5.7984755e-07
5.7688336e-07
5.7604783e-07
5.7443356e-07
5.7378582e-07
5.7294681e-07
5.7155985e-07
5.7085986e-07
5.6804626e-07
5.6658875e-07
5.6185257e-07
5.6098842e-07
5.5549758e-07
5.5407897e-07
5.4887863e-07
5.4727069e-07
5.4238066e-07
5.4059198e-07
5.3612947e-07
5.340896e-07
5.3016944e-07
5.2781043e-07
5.2507838e-07
5.222417e-07
5.187736e-07
5.165634e-07
5.1403752e-07
5.1014458e-07
5.092399e-07
5.0513873e-07
5.0423885e-07
5.0029239e-07
4.9956498e-07
4.9637178e-07
4.9444974e-07
4.9188346e-07
4.9012903e-07
4.8787504e-07
4.8610908e-07
4.8407554e-07
4.8182412e-07
4.8054674e-07
4.7827697e-07
4.7703531e-07
4.7487142e-07
4.7342321e-07
4.7247721e-07
4.6990083e-07
4.6942576e-07
4.6712553e-07
4.6629403e-07
4.6444943e-07
4.6357753e-07
4.6249432e-07
4.6109922e-07
4.6057111e-07
4.5935443e-07
4.5914105e-07
4.5769113e-07
4.574754e-07
4.5687639e-07
4.5681078e-07
4.5633926e-07
4.5636833e-07
4.5599815e-07
4.5628435e-07
4.5625667e-07
4.5605138e-07
4.5674226e-07
4.5766195e-07
4.5847548e-07
4.603857e-07
4.6181669e-07
4.6370127e-07
4.6526885e-07
4.6736556e-07
4.703991e-07
4.7532616e-07
4.8607828e-07
5.0709488e-07
5.4399158e-07
6.2534906e-07
8.3100901e-07
7.8465079e-07
7.4702291e-07
7.1721634e-07
6.9339269e-07
6.7434981e-07
6.5728888e-07
6.4450597e-07
6.3201924e-07
6.2247944e-07
6.1379411e-07
6.0609573e-07
5.9948942e-07
5.948586e-07
5.8915986e-07
5.8639325e-07
5.8187654e-07
5.8054516e-07
5.7769588e-07
5.7661756e-07
5.7613895e-07
5.7373472e-07
5.7455124e-07
5.7139034e-07
5.716012e-07
5.6762787e-07
5.6649233e-07
5.6206043e-07
5.6003494e-07
5.5573495e-07
5.5299245e-07
5.4929199e-07
5.4590172e-07
5.4314424e-07
5.3859669e-07
5.3713446e-07
5.325651e-07
5.3107935e-07
5.279415e-07
5.2479879e-07
5.2227353e-07
5.1917321e-07
5.1694154e-07
5.1386774e-07
5.1139572e-07
5.0888489e-07
5.0635559e-07
5.0398308e-07
5.0144894e-07
4.9924427e-07
4.9666932e-07
4.9465493e-07
4.9210839e-07
4.9027814e-07
4.8770565e-07
4.8615622e-07
4.834742e-07
4.8237719e-07
4.80105e-07
4.7861033e-07
4.7657815e-07
4.7514904e-07
4.731865e-07
4.7182015e-07
4.7007782e-07
4.6874641e-07
4.67175e-07
4.6588367e-07
4.6489539e-07
4.6301834e-07
4.6293411e-07
4.6093406e-07
4.6102525e-07
4.5945107e-07
4.5949913e-07
4.581286e-07
4.5826543e-07
4.572486e-07
4.5753541e-07
4.5680869e-07
4.5727247e-07
4.5708128e-07
4.5748428e-07
4.5773477e-07
4.5847587e-07
4.5908898e-07
4.5973401e-07
4.6075969e-07
4.6194323e-07
4.6294278e-07
4.6399292e-07
4.6427735e-07
4.6580811e-07
4.6802043e-07
4.7180875e-07
4.8036172e-07
4.9740486e-07
5.232482e-07
5.8707485e-07
8.3107374e-07
7.8470033e-07
7.4710409e-07
7.1713779e-07
6.9383896e-07
6.7452858e-07
6.5768633e-07
6.4478799e-07
6.3222149e-07
6.2309907e-07
6.1361328e-07
6.0729672e-07
5.9974789e-07
5.9547151e-07
5.8995393e-07
5.8720438e-07
5.8308464e-07
5.8159797e-07
5.7862842e-07
5.7826994e-07
5.7640819e-07
5.7619264e-07
5.7468901e-07
5.7361548e-07
5.7203181e-07
5.6921252e-07
5.6578635e-07
5.6354119e-07
5.5860319e-07
5.5737735e-07
5.5189938e-07
5.5047665e-07
5.4521976e-07
5.436991e-07
5.3883885e-07
5.3724254e-07
5.3279969e-07
5.3112156e-07
5.2704331e-07
5.2544317e-07
5.2163371e-07
5.1955053e-07
5.1635432e-07
5.1366744e-07
5.1196299e-07
5.0838008e-07
5.066477e-07
5.0408084e-07
5.0118291e-07
4.9943707e-07
4.9651902e-07
4.9440324e-07
4.9207043e-07
4.9036895e-07
4.8793735e-07
4.8629887e-07
4.8399464e-07
4.8237233e-07
4.8058391e-07
4.7879077e-07
4.7704766e-07
4.7515311e-07
4.737719e-07
4.7139113e-07
4.7050135e-07
4.6839513e-07
4.6767408e-07
4.6555275e-07
4.6499676e-07
4.6318128e-07
4.6237816e-07
4.6176837e-07
4.6073893e-07
4.6031677e-07
4.5952632e-07
4.5944116e-07
4.584495e-07
4.589268e-07
4.583572e-07
4.5898744e-07
4.5893296e-07
4.5971459e-07
4.5989176e-07
4.6100911e-07
4.6119989e-07
4.6262452e-07
4.630472e-07
4.6460243e-07
4.6482165e-07
4.6662271e-07
4.6648461e-07
4.6814048e-07
4.6773521e-07
4.6908661e-07
4.7163278e-07
4.7780331e-07
4.9123795e-07
5.1416276e-07
5.6271236e-07
8.311397e-07
7.8476728e-07
7.4733036e-07
7.1728657e-07
6.9410015e-07
6.7410738e-07
6.5858423e-07
6.4458239e-07
6.3342991e-07
6.2283229e-07
6.1464342e-07
6.0747971e-07
6.0021166e-07
5.9557041e-07
5.9041055e-07
5.8745916e-07
5.8367905e-07
5.8200747e-07
5.7953295e-07
5.7871966e-07
5.7730974e-07
5.7706657e-07
5.752165e-07
5.7437072e-07
5.7069632e-07
5.6993125e-07
5.649591e-07
5.6343123e-07
5.5844473e-07
5.5654341e-07
5.5186631e-07
5.4929806e-07
5.4555553e-07
5.4211605e-07
5.3942695e-07
5.3563348e-07
5.3295728e-07
5.2931716e-07
5.2710872e-07
5.2327339e-07
5.2179298e-07
5.175463e-07
5.1630149e-07
5.1241763e-07
5.1104302e-07
5.0750972e-07
5.0603574e-07
5.032804e-07
5.0063393e-07
4.9910637e-07
4.9595826e-07
4.9515857e-07
4.9153986e-07
4.9078342e-07
4.8751976e-07
4.8676791e-07
4.8344933e-07
4.8291864e-07
4.7980116e-07
4.7933907e-07
4.7635732e-07
4.7604742e-07
4.7368797e-07
4.7228618e-07
4.706025e-07
4.6934894e-07
4.6786023e-07
4.6628963e-07
4.6527654e-07
4.6443939e-07
4.6315268e-07
4.6251444e-07
4.6150952e-07
4.6122007e-07
4.5969397e-07
4.6008488e-07
4.589458e-07
4.5947145e-07
4.5863213e-07
4.5929591e-07
4.5917063e-07
4.5983799e-07
4.6005004e-07
4.6070695e-07
4.6185798e-07
4.6231303e-07
4.6356931e-07
4.6380192e-07
4.6501895e-07
4.6461346e-07
4.6564971e-07
4.6475735e-07
4.6540577e-07
4.6541031e-07
4.6764448e-07
4.7323012e-07
4.8488695e-07
5.0631692e-07
5.4776428e-07
8.3120109e-07
7.8481902e-07
7.4728068e-07
7.17272e-07
6.9412315e-07
6.7423496e-07
6.5876936e-07
6.4422301e-07
6.3370413e-07
6.2277553e-07
6.15126e-07
6.0733422e-07
6.0112024e-07
5.9642628e-07
5.9098101e-07
5.8832067e-07
5.8436883e-07
5.8318495e-07
5.8047092e-07
5.8034888e-07
5.7838833e-07
5.7869808e-07
5.7609479e-07
5.7556457e-07
5.7157738e-07
5.6884303e-07
5.6571698e-07
5.6152394e-07
5.591905e-07
5.5357993e-07
5.5213712e-07
5.4699461e-07
5.4449329e-07
5.4082314e-07
5.3773708e-07
5.3480907e-07
5.3165969e-07
5.2865962e-07
5.2624464e-07
5.2242657e-07
5.2018106e-07
5.1751789e-07
5.1502971e-07
5.1220393e-07
5.1017173e-07
5.0706662e-07
5.0553973e-07
5.0251033e-07
5.008397e-07
4.9818803e-07
4.9634008e-07
4.9421535e-07
4.9167025e-07
4.9092428e-07
4.8763694e-07
4.869257e-07
4.8431835e-07
4.8286284e-07
4.8046566e-07
4.7933121e-07
4.7712826e-07
4.7606197e-07
4.7386909e-07
4.7313976e-07
4.7085175e-07
4.7024461e-07
4.6822713e-07
4.6760445e-07
4.6585773e-07
4.6495633e-07
4.6397848e-07
4.6306137e-07
4.621294e-07
4.6137665e-07
4.6032999e-07
4.6067124e-07
4.5950477e-07
4.5994939e-07
4.5911202e-07
4.5973402e-07
4.5922309e-07
4.6007305e-07
4.5974038e-07
4.6094978e-07
4.6126728e-07
4.619601e-07
4.6219321e-07
4.623334e-07
4.633266e-07
4.6260769e-07
4.6338887e-07
4.6147568e-07
4.6170656e-07
4.6169916e-07
4.6320217e-07
4.6714962e-07
4.7764296e-07
4.9730057e-07
5.349871e-07
8.3124918e-07
7.8491374e-07
7.4747057e-07
7.1747154e-07
6.9407171e-07
6.7470679e-07
6.5820952e-07
6.450577e-07
6.3333925e-07
6.2319333e-07
6.1552871e-07
6.071795e-07
6.0232712e-07
5.959067e-07
5.9287616e-07
5.8831492e-07
5.8641577e-07
5.8363579e-07
5.8275579e-07
5.8104737e-07
5.8007982e-07
5.7996055e-07
5.7679922e-07
5.762257e-07
5.7113022e-07
5.6986041e-07
5.6418063e-07
5.6213307e-07
5.5682955e-07
5.5444853e-07
5.5008379e-07
5.4682473e-07
5.4336574e-07
5.3986659e-07
5.3705607e-07
5.331607e-07
5.3133905e-07
5.2729837e-07
5.2545185e-07
5.218732e-07
5.1957114e-07
5.1759339e-07
5.1379864e-07
5.1249715e-07
5.0891705e-07
5.0705361e-07
5.0451223e-07
5.0244923e-07
5.0043265e-07
4.9763833e-07
4.9602457e-07
4.9343591e-07
4.9169902e-07
4.8985243e-07
4.879462e-07
4.860867e-07
4.8429141e-07
4.8245266e-07
4.8071548e-07
4.7887132e-07
4.7730284e-07
4.7550223e-07
4.7393452e-07
4.7192863e-07
4.7141586e-07
4.6909201e-07
4.6856247e-07
4.6641128e-07
4.6587379e-07
4.6389508e-07
4.6315907e-07
4.6214882e-07
4.610449e-07
4.6003076e-07
4.5953333e-07
4.5808923e-07
4.5815459e-07
4.5696632e-07
4.5697853e-07
4.5604051e-07
4.5604841e-07
4.5527081e-07
4.551756e-07
4.5448665e-07
4.5424737e-07
4.5357409e-07
4.5344603e-07
4.5240895e-07
4.5158092e-07
4.5078905e-07
4.496019e-07
4.4768898e-07
4.4741711e-07
4.4684337e-07
4.4826165e-07
4.5284949e-07
4.6275583e-07
4.8261983e-07
5.1978662e-07
8.3128873e-07
7.8500607e-07
7.4754345e-07
7.1772359e-07
6.9380332e-07
6.7476796e-07
6.5832397e-07
6.4525842e-07
6.3338783e-07
6.2385071e-07
6.1555892e-07
6.0799966e-07
6.0282117e-07
5.9633581e-07
5.9331816e-07
5.8952155e-07
5.8719127e-07
5.8551591e-07
5.8367399e-07
5.8347086e-07
5.8141231e-07
5.8116341e-07
5.7748253e-07
5.7605997e-07
5.7071792e-07
5.6888562e-07
5.6307431e-07
5.6104319e-07
5.5546441e-07
5.5363811e-07
5.4845531e-07
5.4620807e-07
5.4206802e-07
5.3908011e-07
5.3571826e-07
5.3210351e-07
5.2977101e-07
5.2640823e-07
5.235673e-07
5.211654e-07
5.1785981e-07
5.1630067e-07
5.1211393e-07
5.1118979e-07
5.0723369e-07
5.0611458e-07
5.0249499e-07
5.0141815e-07
4.9810742e-07
4.9685962e-07
4.9402248e-07
4.9249764e-07
4.8998451e-07
4.8864038e-07
4.8573981e-07
4.8476195e-07
4.821709e-07
4.8099735e-07
4.7856353e-07
4.7695729e-07
4.7520634e-07
4.7342836e-07
4.7171255e-07
4.7008884e-07
4.6858365e-07
4.6693899e-07
4.6539919e-07
4.6367969e-07
4.6190233e-07
4.6101221e-07
4.5888606e-07
4.5786188e-07
4.5608833e-07
4.5426684e-07
4.533786e-07
4.5126308e-07
4.5088139e-07
4.4887902e-07
4.4805732e-07
4.4634108e-07
4.4462062e-07
4.427992e-07
4.4057351e-07
4.3898165e-07
4.3651022e-07
4.33988e-07
4.2986413e-07
4.2589709e-07
4.2096566e-07
4.1688065e-07
4.1214517e-07
4.1027787e-07
4.0740827e-07
4.0850561e-07
4.107751e-07
4.1859071e-07
4.3270055e-07
4.5431321e-07
4.922964e-07
8.3134244e-07
7.8507365e-07
7.4759825e-07
7.1783503e-07
6.9426722e-07
6.7504121e-07
6.5850597e-07
6.4567375e-07
6.3382873e-07
6.2457967e-07
6.1584429e-07
6.0915154e-07
6.0286313e-07
5.9862691e-07
5.9414081e-07
5.9171683e-07
5.8859112e-07
5.8766152e-07
5.8570055e-07
5.8491921e-07
5.8312822e-07
5.8097729e-07
5.7780472e-07
5.7355246e-07
5.7020186e-07
5.6587284e-07
5.6124029e-07
5.5786276e-07
5.5278367e-07
5.5061977e-07
5.4555262e-07
5.4355788e-07
5.3884813e-07
5.3688239e-07
5.3234724e-07
5.3040492e-07
5.2610568e-07
5.2424465e-07
5.2026555e-07
5.1814562e-07
5.1507578e-07
5.1265536e-07
5.094134e-07
5.0715355e-07
5.03821e-07
5.0268704e-07
4.9894426e-07
4.9740699e-07
4.9421474e-07
4.9239566e-07
4.8991137e-07
4.876527e-07
4.8528349e-07
4.8301351e-07
4.8080613e-07
4.7854022e-07
4.763869e-07
4.741046e-07
4.7180381e-07
4.6952877e-07
4.6729075e-07
4.6515918e-07
4.6304524e-07
4.6092084e-07
4.5902956e-07
4.5620835e-07
4.5450448e-07
4.5150393e-07
4.4996786e-07
4.471035e-07
4.4504344e-07
4.4201951e-07
4.3917311e-07
4.3659844e-07
4.3368908e-07
4.3031805e-07
4.2459028e-07
4.216052e-07
4.1654174e-07
4.1065985e-07
4.0565577e-07
4.0052574e-07
3.9558308e-07
3.9057529e-07
3.8462368e-07
3.7921495e-07
3.7311397e-07
3.6740111e-07
3.6209254e-07
3.5621046e-07
3.5227894e-07
3.4821404e-07
3.4667547e-07
3.4703967e-07
3.5071629e-07
3.5863945e-07
3.7410342e-07
3.9670598e-07
4.4356934e-07
8.3138103e-07
7.8513499e-07
7.4769768e-07
7.1807509e-07
6.9394321e-07
6.7544672e-07
6.5871699e-07
6.4604865e-07
6.3400059e-07
6.2513767e-07
6.1630598e-07
6.0992921e-07
6.038966e-07
5.9976772e-07
5.9543859e-07
5.931693e-07
5.9017169e-07
5.8920808e-07
5.8673809e-07
5.8578953e-07
5.8190784e-07
5.7942938e-07
5.7426816e-07
5.7079909e-07
5.6542522e-07
5.6134094e-07
5.5708111e-07
5.5280655e-07
5.4882497e-07
5.4443301e-07
5.4108671e-07
5.3678709e-07
5.3390758e-07
5.2938603e-07
5.2686886e-07
5.226012e-07
5.2001406e-07
5.163374e-07
5.129449e-07
5.0981027e-07
5.0682898e-07
5.0301083e-07
5.0010205e-07
4.9690813e-07
4.9375148e-07
4.9107983e-07
4.8795016e-07
4.8516457e-07
4.8258686e-07
4.788217e-07
4.7616028e-07
4.7252669e-07
4.6938058e-07
4.6606303e-07
4.6286374e-07
4.6049169e-07
4.5715546e-07
4.5425614e-07
4.5075414e-07
4.4747189e-07
4.4370962e-07
4.3961046e-07
4.3542287e-07
4.3047133e-07
4.2567686e-07
4.2065604e-07
4.1648472e-07
4.1193432e-07
4.0760835e-07
4.0282792e-07
3.9793466e-07
3.9296456e-07
3.8781023e-07
3.8253064e-07
3.7689517e-07
3.7148561e-07
3.6571039e-07
3.596969e-07
3.5355681e-07
3.4680737e-07
3.4025782e-07
3.33397e-07
3.2638891e-07
3.1918666e-07
3.1190405e-07
3.0478814e-07
2.9790048e-07
2.9110897e-07
2.8479136e-07
2.7950196e-07
2.7501932e-07
2.7180359e-07
2.707234e-07
2.714391e-07
2.7530604e-07
2.8290006e-07
2.9701338e-07
3.1636289e-07
3.6088882e-07
8.3143138e-07
7.8520213e-07
7.4773877e-07
7.1827204e-07
6.9412622e-07
6.7544086e-07
6.5924276e-07
6.4596119e-07
6.348913e-07
6.2541322e-07
6.1738098e-07
6.1022963e-07
6.0500333e-07
6.0027105e-07
5.9660699e-07
5.9383766e-07
5.9037608e-07
5.8885807e-07
5.8468268e-07
5.821834e-07
5.7667717e-07
5.72531e-07
5.6629623e-07
5.6187024e-07
5.5588161e-07
5.5109244e-07
5.4603795e-07
5.4105229e-07
5.3626007e-07
5.3092038e-07
5.2689226e-07
5.208212e-07
5.1886829e-07
5.1196539e-07
5.0963758e-07
5.0329375e-07
5.0020202e-07
4.9393182e-07
4.893736e-07
4.8489535e-07
4.8007294e-07
4.7756654e-07
4.7312044e-07
4.6828783e-07
4.6349113e-07
4.5664242e-07
4.514196e-07
4.4387258e-07
4.381753e-07
4.3219834e-07
4.2770387e-07
4.2284725e-07
4.1879966e-07
4.1351034e-07
4.0957972e-07
4.0416174e-07
3.9820317e-07
3.9291391e-07
3.8772446e-07
3.8253276e-07
3.7729913e-07
3.7207788e-07
3.6679325e-07
3.6100211e-07
3.5581112e-07
3.4996588e-07
3.4440205e-07
3.3833689e-07
3.3215786e-07
3.2612596e-07
3.1965493e-07
3.1345667e-07
3.0723319e-07
3.0076136e-07
2.9425814e-07
2.877648e-07
2.8079069e-07
2.7406893e-07
2.6751456e-07
2.6049719e-07
2.5374923e-07
2.4661809e-07
2.3998036e-07
2.3327178e-07
2.2711092e-07
2.2073636e-07
2.1516593e-07
2.0961436e-07
2.0512042e-07
2.0085223e-07
1.981713e-07
1.9602242e-07
1.9572031e-07
1.9675148e-07
2.006636e-07
2.0657835e-07
2.1826608e-07
2.3237156e-07
2.6679987e-07
8.3148403e-07
7.8523535e-07
7.4783962e-07
7.1817758e-07
6.9465366e-07
6.7537073e-07
6.5979272e-07
6.4627736e-07
6.3519543e-07
6.2522337e-07
6.1716595e-07
6.0934305e-07
6.0332888e-07
5.9743462e-07
5.9231726e-07
5.8773644e-07
5.8286778e-07
5.7809651e-07
5.7167906e-07
5.6523955e-07
5.5739712e-07
5.5093016e-07
5.4195488e-07
5.3872746e-07
5.2794568e-07
5.2275928e-07
5.1194355e-07
5.0663572e-07
4.9752825e-07
4.9345311e-07
4.7930196e-07
4.7851073e-07
4.6343097e-07
4.6238882e-07
4.4837884e-07
4.395116e-07
4.3242815e-07
4.285019e-07
4.2257478e-07
4.1355866e-07
4.0733481e-07
3.9777933e-07
3.896687e-07
3.8317577e-07
3.7623676e-07
3.7004835e-07
3.6393816e-07
3.5754702e-07
3.512032e-07
3.4496784e-07
3.3853223e-07
3.3203916e-07
3.2622278e-07
3.1961597e-07
3.1341742e-07
3.0728244e-07
3.0136994e-07
2.9539515e-07
2.8954709e-07
2.837459e-07
2.7794223e-07
2.7206969e-07
2.6655288e-07
2.6071862e-07
2.5534162e-07
2.4953613e-07
2.4406201e-07
2.3830518e-07
2.3273271e-07
2.2728873e-07
2.2159826e-07
2.162476e-07
2.1093297e-07
2.0543851e-07
2.0013742e-07
1.9483339e-07
1.8952226e-07
1.8422702e-07
1.792605e-07
1.7407992e-07
1.6928352e-07
1.6428666e-07
1.5980803e-07
1.5555551e-07
1.5137744e-07
1.4757798e-07
1.4422339e-07
1.409745e-07
1.3865243e-07
1.3637683e-07
1.3542535e-07
1.3459888e-07
1.3548261e-07
1.3657026e-07
1.3998947e-07
1.4421923e-07
1.5241979e-07
1.6165062e-07
1.8415129e-07
8.3153313e-07
7.8527192e-07
7.4786847e-07
7.1795715e-07
6.9452096e-07
6.7436263e-07
6.5786096e-07
6.4310503e-07
6.3019865e-07
6.1773018e-07
6.0696739e-07
5.9596135e-07
5.8593967e-07
5.755421e-07
5.664383e-07
5.5364753e-07
5.5046467e-07
5.3188293e-07
5.2648211e-07
5.0604063e-07
5.023988e-07
4.8927148e-07
4.7515626e-07
4.537208e-07
4.3828889e-07
4.263482e-07
4.1440997e-07
4.0360038e-07
3.9261269e-07
3.8232763e-07
3.7153209e-07
3.6143355e-07
3.5252168e-07
3.4022402e-07
3.4580629e-07
3.2601902e-07
3.1602327e-07
3.06656e-07
2.9882938e-07
2.9086027e-07
2.8349572e-07
2.7638671e-07
2.6919583e-07
2.6248638e-07
2.5551143e-07
2.493642e-07
2.4287752e-07
2.3698296e-07
2.3094401e-07
2.2540639e-07
2.196678e-07
2.1428993e-07
2.0893496e-07
2.0389668e-07
1.9873025e-07
1.9401323e-07
1.8911919e-07
1.8463311e-07
1.8015182e-07
1.7577506e-07
1.715981e-07
1.6735654e-07
1.6354153e-07
1.5934909e-07
1.556005e-07
1.5167815e-07
1.4804395e-07
1.4427594e-07
1.4076008e-07
1.3734533e-07
1.3391182e-07
1.3057709e-07
1.2745959e-07
1.2415539e-07
1.2116477e-07
1.1801921e-07
1.1509955e-07
1.1216711e-07
1.0940978e-07
1.0680722e-07
1.0430359e-07
1.01901e-07
9.9681135e-08
9.7738945e-08
9.5897033e-08
9.4174878e-08
9.2893225e-08
9.177863e-08
9.1155378e-08
9.0891023e-08
9.1000493e-08
9.1682435e-08
9.3074077e-08
9.4461975e-08
9.7046192e-08
1.0020869e-07
1.0547659e-07
1.1194103e-07
1.2535346e-07
8.3153976e-07
7.8500997e-07
7.4680911e-07
7.1488759e-07
6.8782718e-07
6.6246374e-07
6.3950589e-07
6.1747647e-07
5.9482455e-07
5.7319325e-07
5.5504677e-07
5.3065113e-07
5.1318489e-07
4.9043367e-07
4.6006621e-07
4.4131244e-07
4.1895374e-07
4.1658826e-07
3.8204907e-07
3.7723224e-07
3.4744945e-07
3.3049806e-07
3.1539596e-07
3.0194893e-07
2.8899091e-07
2.7578832e-07
2.6459287e-07
2.5260142e-07
2.4242925e-07
2.3277908e-07
2.2388892e-07
2.1551013e-07
2.0743159e-07
1.9996179e-07
1.9302252e-07
1.8651418e-07
1.7997813e-07
1.7372082e-07
1.6775786e-07
1.6229308e-07
1.5706077e-07
1.5230499e-07
1.4757638e-07
1.4314078e-07
1.3881115e-07
1.3491639e-07
1.3086041e-07
1.272211e-07
1.2373093e-07
1.2040517e-07
1.1717551e-07
1.1392978e-07
1.109781e-07
1.0818715e-07
1.0556362e-07
1.0296621e-07
1.0053563e-07
9.816855e-08
9.5983857e-08
9.3811827e-08
9.1716007e-08
8.9545858e-08
8.7603456e-08
8.5481376e-08
8.3723378e-08
8.1812213e-08
8.0239922e-08
7.8484585e-08
7.6941227e-08
7.5332438e-08
7.3903356e-08
7.2390884e-08
7.1031763e-08
6.9603334e-08
6.8367331e-08
6.7186644e-08
6.6268976e-08
6.5159048e-08
6.4321556e-08
6.3496172e-08
6.2798764e-08
6.2028451e-08
6.1609754e-08
6.1395633e-08
6.1019874e-08
6.1000592e-08
6.1320157e-08
6.1976608e-08
6.2251149e-08
6.3158051e-08
6.424333e-08
6.586891e-08
6.7687358e-08
6.9756584e-08
7.2468844e-08
7.5481724e-08
7.9472134e-08
8.360644e-08
9.5886943e-08
8.3105056e-07
7.8019056e-07
7.3269016e-07
6.8530103e-07
6.3690569e-07
5.8591727e-07
5.5054198e-07
5.0221371e-07
4.5672391e-07
4.0715104e-07
3.7159743e-07
3.4184848e-07
3.1145713e-07
2.8998719e-07
2.7149374e-07
2.6617441e-07
2.3169104e-07
2.1344113e-07
1.9898895e-07
1.8523086e-07
1.7509194e-07
1.6393712e-07
1.5536644e-07
1.4647976e-07
1.381325e-07
1.2962369e-07
1.2449781e-07
1.1816284e-07
1.1385416e-07
1.0778594e-07
1.0443241e-07
9.9282492e-08
9.6312619e-08
9.1893643e-08
8.9233828e-08
8.5944607e-08
8.2441163e-08
7.9111234e-08
7.7529103e-08
7.4725847e-08
7.3212581e-08
7.0988016e-08
6.8364384e-08
6.707748e-08
6.5209382e-08
6.3390594e-08
6.1388771e-08
6.0512202e-08
5.9206057e-08
5.7558068e-08
5.6355504e-08
5.4801244e-08
5.4274593e-08
5.3179676e-08
5.1863698e-08
5.1365157e-08
5.0154456e-08
4.9632191e-08
4.8761378e-08
4.7707341e-08
4.6809753e-08
4.5957358e-08
4.5076145e-08
4.4733446e-08
4.3899358e-08
4.3588572e-08
4.2727761e-08
4.247646e-08
4.1727122e-08
4.1527779e-08
4.1032274e-08
4.0538238e-08
4.0186286e-08
3.996671e-08
4.0706477e-08
4.0866713e-08
4.0589574e-08
4.0627979e-08
4.0574884e-08
4.0588173e-08
4.0829452e-08
4.1097676e-08
4.1783197e-08
4.2009234e-08
4.383143e-08
4.4761097e-08
4.6110891e-08
4.7414948e-08
4.9011228e-08
5.1105776e-08
5.3329208e-08
5.6144249e-08
6.3530349e-08
6.8438464e-08
7.379059e-08
7.8415424e-08
8.2675119e-08
8.6641474e-08
9.2716927e-08
8.2135615e-07
7.2720666e-07
6.2862964e-07
5.2204721e-07
4.2339045e-07
3.4400116e-07
2.7867261e-07
2.3411225e-07
1.972527e-07
1.7558545e-07
1.4969023e-07
1.3262492e-07
1.1783642e-07
1.1894475e-07
9.9225228e-08
8.9623854e-08
9.2067665e-08
7.9236604e-08
7.429106e-08
6.8857484e-08
7.039922e-08
6.1210739e-08
6.3706944e-08
5.5885808e-08
5.4691667e-08
5.1336226e-08
5.3218558e-08
4.8490633e-08
4.9616849e-08
4.4476811e-08
4.7098432e-08
4.2133181e-08
4.43926e-08
4.009201e-08
4.2103842e-08
3.8748257e-08
3.7701808e-08
3.686283e-08
3.8844249e-08
3.5598992e-08
3.7336222e-08
3.4676638e-08
3.3775814e-08
3.546362e-08
3.3295894e-08
3.2577666e-08
3.2265235e-08
3.3658262e-08
3.1874351e-08
3.1255663e-08
3.1384493e-08
3.0765727e-08
3.2433503e-08
3.039199e-08
2.9961731e-08
3.1534514e-08
2.9558112e-08
3.1115866e-08
2.944431e-08
2.8847746e-08
2.8627715e-08
2.8440423e-08
2.7970172e-08
2.9481043e-08
2.7411428e-08
2.8882803e-08
2.6959146e-08
2.900858e-08
2.711808e-08
2.9274284e-08
2.7714604e-08
2.7883764e-08
2.8388963e-08
2.8668086e-08
3.1692748e-08
3.0305406e-08
3.0296614e-08
3.4062464e-08
3.166684e-08
3.204842e-08
3.327872e-08
3.4517576e-08
3.5403863e-08
3.711292e-08
4.830571e-08
4.143425e-08
4.2565359e-08
4.9082014e-08
5.3714711e-08
5.7252489e-08
6.205946e-08
6.6941894e-08
7.0335278e-08
7.6379546e-08
8.1297794e-08
8.7796652e-08
9.2779237e-08
9.9877872e-08
9.4708197e-08
7.0333628e-07
4.4027482e-07
2.6631396e-07
1.6892136e-07
1.1590875e-07
8.5604156e-08
6.7859594e-08
5.5856323e-08
4.8473891e-08
4.2547442e-08
3.9884582e-08
3.7139691e-08
3.6606746e-08
3.3640772e-08
3.3935053e-08
3.3479134e-08
3.1113047e-08
3.1666638e-08
3.0512524e-08
2.9949373e-08
2.8544763e-08
2.9041478e-08
2.7679184e-08
2.8220789e-08
2.7637992e-08
2.7403914e-08
2.6450607e-08
2.6666877e-08
2.5888593e-08
2.608948e-08
2.5240871e-08
2.5720441e-08
2.4861872e-08
2.5325589e-08
2.4432762e-08
2.4973826e-08
2.447344e-08
2.4513104e-08
2.3795117e-08
2.4334081e-08
2.3735995e-08
2.4227821e-08
2.4280856e-08
2.3434671e-08
2.4353159e-08
2.3942165e-08
2.4227203e-08
2.3192405e-08
2.4249841e-08
2.380029e-08
2.4128098e-08
2.3702192e-08
2.3273365e-08
2.3798816e-08
2.4089407e-08
2.2938445e-08
2.4274302e-08
2.3130297e-08
2.4546992e-08
2.4395188e-08
2.4510411e-08
2.4460107e-08
2.4442509e-08
2.3273711e-08
2.4909807e-08
2.3745059e-08
2.5544685e-08
2.4428888e-08
2.6500586e-08
2.5235882e-08
2.7731862e-08
2.8216437e-08
2.8808903e-08
2.9425825e-08
2.7527633e-08
3.1706423e-08
3.2401489e-08
3.067552e-08
3.1225252e-08
3.6393051e-08
3.7843858e-08
3.9937976e-08
4.0409434e-08
5.1229233e-08
3.9134593e-08
5.5756296e-08
5.2800288e-08
4.4581951e-08
6.6039521e-08
5.9118685e-08
7.6292376e-08
6.9259237e-08
6.6573021e-08
8.9239426e-08
7.5611318e-08
9.7694907e-08
8.421581e-08
8.7187235e-08
6.8320818e-08
2.2363177e-07
6.954814e-08
3.1453889e-08
2.1442943e-08
1.7805986e-08
1.6338924e-08
1.5688248e-08
1.5489931e-08
1.5669035e-08
1.5685143e-08
1.5975057e-08
1.6369191e-08
1.6672769e-08
1.6770042e-08
1.6938846e-08
1.7038706e-08
1.7096821e-08
1.7143469e-08
1.7144405e-08
1.717666e-08
1.7157456e-08
1.7234912e-08
1.7237476e-08
1.7324134e-08
1.7312923e-08
1.7352051e-08
1.7347817e-08
1.7389898e-08
1.7420679e-08
1.7420857e-08
1.7509757e-08
1.7522251e-08
1.7650225e-08
1.7627257e-08
1.7788662e-08
1.7718743e-08
1.7752852e-08
1.8103535e-08
1.7797422e-08
1.8231774e-08
1.7935613e-08
1.8397044e-08
1.8163617e-08
1.8215101e-08
1.8735481e-08
1.8478882e-08
1.8940939e-08
1.8607086e-08
1.9218225e-08
1.8947513e-08
1.9464257e-08
1.9202856e-08
1.9658674e-08
1.9566008e-08
2.0149463e-08
1.9813443e-08
2.0612976e-08
2.0292017e-08
2.1128103e-08
2.0967843e-08
2.1637328e-08
2.1533707e-08
2.1926635e-08
2.2134852e-08
2.2929807e-08
2.3160651e-08
2.4066853e-08
2.4360519e-08
2.5333846e-08
2.5681824e-08
2.6820423e-08
2.7612162e-08
2.8496158e-08
2.9484744e-08
3.0084381e-08
3.220436e-08
3.3411027e-08
3.4205618e-08
3.5649773e-08
3.836029e-08
4.0031109e-08
4.1805901e-08
4.3648266e-08
4.6987112e-08
4.6450933e-08
5.1354879e-08
5.2450768e-08
5.2573992e-08
5.8106899e-08
5.8137379e-08
6.2059244e-08
6.1343407e-08
6.1096995e-08
6.4137818e-08
6.07029e-08
6.1868803e-08
5.5966957e-08
5.1232104e-08
4.3184673e-08
2.5402879e-08
1.2912767e-08
9.1562225e-09
7.5663588e-09
6.7694843e-09
6.3257585e-09
6.0618101e-09
5.883124e-09
5.7760531e-09
5.7074698e-09
5.6679906e-09
5.6462554e-09
5.6333492e-09
5.6254228e-09
5.6274043e-09
5.6372147e-09
5.6531387e-09
5.6756997e-09
5.704965e-09
5.7423868e-09
5.7850003e-09
5.8340435e-09
5.8884536e-09
5.9480168e-09
6.0129771e-09
6.0830118e-09
6.1592332e-09
6.2401204e-09
6.3278973e-09
6.4201624e-09
6.5207881e-09
6.6255726e-09
6.7389706e-09
6.8557788e-09
6.9822353e-09
7.1133752e-09
7.2487055e-09
7.3993275e-09
7.5498829e-09
7.717246e-09
7.8865827e-09
8.0724915e-09
8.2656081e-09
8.4663362e-09
8.6889294e-09
8.9135628e-09
9.1622526e-09
9.4131743e-09
9.6928265e-09
9.9760482e-09
1.028981e-08
1.0609384e-08
1.0963816e-08
1.132782e-08
1.1730719e-08
1.2145413e-08
1.260539e-08
1.3080966e-08
1.3606653e-08
1.415396e-08
1.4753369e-08
1.538683e-08
1.6069217e-08
1.680231e-08
1.7596734e-08
1.8450331e-08
1.9371893e-08
2.036341e-08
2.1431017e-08
2.2577918e-08
2.3812518e-08
2.5136907e-08
2.6556789e-08
2.8075109e-08
2.9707705e-08
3.1448069e-08
3.3323379e-08
3.5265419e-08
3.7273966e-08
3.942235e-08
4.1700236e-08
4.4059405e-08
4.6389536e-08
4.8775697e-08
5.1060348e-08
5.3311386e-08
5.5359584e-08
5.710762e-08
5.8532213e-08
5.9386375e-08
5.9686522e-08
5.9339012e-08
5.820223e-08
5.5950332e-08
5.2152717e-08
4.6716937e-08
3.8405855e-08
2.8416682e-08
2.0747834e-08
1.1856301e-08
4.290102e-07
3.6344849e-06
1.984907e-07
9.2515549e-08
8.8240206e-08
1.2070473e-07
1.7733554e-07
2.5941551e-07
3.588056e-07
4.4995745e-07
5.0984748e-07
5.4388712e-07
5.6283596e-07
5.7784506e-07
5.9508173e-07
6.2135818e-07
6.6697782e-07
7.0379059e-07
9.334908e-09
2.958121e-07
2.2846796e-05
7.9403295e-07
1.6228444e-07
9.2483047e-08
1.0906969e-07
1.6699355e-07
2.4671145e-07
3.4887787e-07
4.5080769e-07
5.2383815e-07
5.668468e-07
5.9063082e-07
6.0812976e-07
6.2765363e-07
6.5474529e-07
7.0160117e-07
7.4810995e-07
1.9231372e-08
1.6287589e-07
1.0156157e-05
3.7129091e-06
3.5807666e-07
1.145422e-07
9.7288083e-08
1.5435581e-07
2.3457655e-07
3.3851566e-07
4.5124478e-07
5.4054722e-07
5.9535171e-07
6.2581872e-07
6.4653522e-07
6.6736469e-07
6.9676871e-07
7.409264e-07
7.990591e-07
1.5262395e-08
1.5202966e-07
9.986671e-06
7.9488466e-06
1.4607092e-06
2.5830096e-07
1.0749253e-07
1.3329809e-07
2.2053859e-07
3.2962361e-07
4.520627e-07
5.5808346e-07
6.2754701e-07
6.6612821e-07
6.9103251e-07
7.1286189e-07
7.4595617e-07
7.8552364e-07
8.5299912e-07
6.2244696e-08
2.3738146e-07
1.0430346e-06
1.1556892e-05
3.1391164e-06
5.6813486e-07
1.6611208e-07
1.1449426e-07
2.0096867e-07
3.1985301e-07
4.5300425e-07
5.7592918e-07
6.6220633e-07
7.1082663e-07
7.4147876e-07
7.6344901e-07
8.0106523e-07
8.3608237e-07
9.105772e-07
2.5323801e-08
2.3603603e-07
7.2872488e-06
9.2550376e-06
8.5386221e-06
1.3872196e-06
3.2729384e-07
1.3319568e-07
1.7641034e-07
3.0655506e-07
4.5221761e-07
5.9142272e-07
6.95925e-07
7.5662622e-07
7.9474932e-07
8.1724947e-07
8.5963224e-07
8.907916e-07
9.6908961e-07
1.2361169e-07
4.8603325e-07
6.6248478e-07
2.7441748e-05
5.7458309e-06
2.5673272e-06
6.2595717e-07
1.9752887e-07
1.5267616e-07
2.8622541e-07
4.4914493e-07
6.0480066e-07
7.2803255e-07
8.0199842e-07
8.4906799e-07
8.7271782e-07
9.1953034e-07
9.4798199e-07
1.0277368e-06
2.7102551e-08
8.6949275e-07
1.9699466e-05
7.0794472e-06
1.2335068e-05
4.0935653e-06
1.2147333e-06
3.2999076e-07
1.5482108e-07
2.6310032e-07
4.4045422e-07
6.137329e-07
7.5557452e-07
8.4409976e-07
9.01336e-07
9.2671943e-07
9.7746575e-07
1.0043785e-06
1.0834161e-06
1.7426275e-07
1.978121e-06
1.5691796e-06
2.3491511e-05
8.5057343e-06
5.062173e-06
1.7918604e-06
5.8216503e-07
1.8713913e-07
2.3589363e-07
4.2587957e-07
6.1810079e-07
7.7818368e-07
8.8106493e-07
9.4916368e-07
9.772018e-07
1.0314367e-06
1.0576854e-06
1.1350312e-06
3.4690647e-08
4.9440935e-06
1.839392e-05
3.3497276e-06
1.3827186e-05
8.2812396e-06
2.6930054e-06
7.8982468e-07
2.8324836e-07
2.1893824e-07
4.056604e-07
6.156187e-07
7.9334724e-07
9.10256e-07
9.8909899e-07
1.0208596e-06
1.0779479e-06
1.1045604e-06
1.1791912e-06
1.8485693e-07
2.1959455e-06
2.991366e-06
1.4004536e-05
6.7811642e-06
7.5527049e-06
4.453303e-06
1.2786731e-06
3.7804057e-07
2.0450608e-07
3.8335289e-07
6.084966e-07
8.0261307e-07
9.325057e-07
1.0215829e-06
1.056924e-06
1.1162883e-06
1.1439617e-06
1.2158088e-06
2.6626367e-08
9.2059905e-07
9.0741369e-06