/*--------------------------------*- C++ -*----------------------------------*\
| =========                 |                                                 |
| \\      /  F ield         | OpenFOAM: The Open Source CFD Toolbox           |
|  \\    /   O peration     | Version:  2406                                  |
|   \\  /    A nd           | Website:  www.openfoam.com                      |
|    \\/     M anipulation  |                                                 |
\*---------------------------------------------------------------------------*/
FoamFile
{
    version     2.0;
    format      ascii;
    arch        "LSB;label=32;scalar=64";
    class       volScalarField;
    location    "55140";
    object      p;
}
// * * * * * * * * * * * * * * * * * * * * * * * * * * * * * * * * * * * * * //

dimensions      [1 -1 -2 0 0 0 0];

internalField   nonuniform List<scalar> 
94692
(
1.0021878
1.0021992
1.0022067
1.0022173
1.002232
1.0022491
1.0022689
1.0022921
1.0023176
1.0023456
1.0023763
1.0024096
1.0024455
1.002484
1.0025251
1.0025689
1.0026154
1.0026645
1.0027162
1.0027706
1.0028276
1.0028874
1.0029499
1.003015
1.003083
1.0031538
1.0032274
1.0033041
1.0033836
1.0034662
1.0035517
1.0036403
1.003732
1.0038268
1.0039246
1.0040256
1.0041298
1.0042371
1.0043473
1.0044609
1.0045776
1.0046973
1.0048202
1.0049464
1.0050756
1.0052081
1.005344
1.0054828
1.0056245
1.0057696
1.005918
1.0060694
1.0062229
1.0063797
1.0065399
1.0067024
1.006867
1.0070339
1.0072036
1.0073751
1.0075484
1.0077227
1.0078982
1.0080748
1.008252
1.008429
1.0086049
1.0087819
1.0089581
1.009133
1.0093063
1.0094772
1.0096453
1.0098103
1.0099715
1.0101284
1.0102805
1.0104272
1.0105676
1.0107013
1.0108268
1.0109448
1.011053
1.0111508
1.0112368
1.01131
1.0113683
1.0114111
1.0114338
1.0114377
1.0114175
1.0113699
1.0112925
1.0111827
1.0110349
1.0108522
1.0106228
1.0103748
1.0100536
1.0021873
1.0021995
1.002207
1.0022175
1.0022323
1.0022493
1.0022691
1.0022923
1.0023177
1.0023457
1.0023763
1.0024095
1.0024453
1.0024837
1.0025247
1.0025684
1.0026147
1.0026637
1.0027152
1.0027695
1.0028264
1.002886
1.0029482
1.0030132
1.0030809
1.0031515
1.0032249
1.0033013
1.0033806
1.0034628
1.003548
1.0036363
1.0037276
1.003822
1.0039194
1.00402
1.0041238
1.0042306
1.0043403
1.0044534
1.0045698
1.0046889
1.0048113
1.004937
1.0050656
1.0051973
1.0053329
1.0054712
1.0056119
1.0057561
1.005904
1.0060553
1.0062078
1.0063633
1.0065229
1.0066849
1.0068488
1.0070145
1.007183
1.0073539
1.0075257
1.0076987
1.0078735
1.0080489
1.0082245
1.0084009
1.0085768
1.0087523
1.0089267
1.0090997
1.0092709
1.0094397
1.0096057
1.0097685
1.0099273
1.0100816
1.0102308
1.0103743
1.0105114
1.0106413
1.0107631
1.0108763
1.01098
1.0110731
1.0111546
1.0112232
1.0112775
1.011316
1.011337
1.0113382
1.0113188
1.0112728
1.0112055
1.0111117
1.0109813
1.0108187
1.0106047
1.0103577
1.0100227
1.002187
1.0021999
1.0022072
1.0022178
1.0022325
1.0022496
1.0022694
1.0022926
1.002318
1.002346
1.0023766
1.0024099
1.0024457
1.0024841
1.0025252
1.0025689
1.0026153
1.0026643
1.0027159
1.0027703
1.0028272
1.0028869
1.0029492
1.0030143
1.0030822
1.0031528
1.0032264
1.0033029
1.0033823
1.0034647
1.0035501
1.0036385
1.0037301
1.0038246
1.0039222
1.004023
1.004127
1.004234
1.0043441
1.0044575
1.004574
1.0046936
1.0048164
1.0049424
1.0050715
1.0052038
1.0053395
1.005478
1.0056195
1.0057647
1.0059131
1.0060642
1.0062175
1.0063742
1.0065343
1.0066965
1.0068606
1.0070271
1.0071967
1.0073681
1.0075405
1.0077144
1.0078897
1.0080655
1.0082417
1.008418
1.0085937
1.0087689
1.008943
1.0091155
1.0092859
1.0094537
1.0096181
1.0097788
1.009935
1.0100862
1.0102316
1.0103706
1.0105024
1.0106262
1.0107417
1.0108465
1.0109409
1.0110237
1.0110935
1.0111492
1.0111894
1.011213
1.0112178
1.0112025
1.0111651
1.011103
1.0110144
1.0108985
1.0107489
1.0105714
1.0103511
1.0101122
1.0098112
1.0021866
1.0022001
1.0022074
1.002218
1.0022327
1.0022497
1.0022695
1.0022927
1.0023181
1.002346
1.0023766
1.0024098
1.0024456
1.002484
1.002525
1.0025686
1.0026149
1.0026638
1.0027153
1.0027696
1.0028264
1.002886
1.0029482
1.0030131
1.0030808
1.0031513
1.0032247
1.003301
1.0033803
1.0034625
1.0035477
1.0036359
1.0037272
1.0038216
1.0039189
1.0040194
1.004123
1.0042297
1.0043397
1.0044528
1.0045689
1.0046882
1.0048107
1.0049362
1.0050651
1.0051971
1.0053322
1.00547
1.0056117
1.0057569
1.0059042
1.0060545
1.0062075
1.006365
1.0065241
1.0066848
1.0068483
1.0070155
1.0071848
1.0073543
1.0075261
1.0077
1.0078747
1.0080497
1.0082251
1.0084008
1.0085762
1.0087507
1.0089239
1.0090954
1.0092646
1.0094311
1.0095942
1.0097533
1.0099079
1.0100573
1.0102007
1.0103375
1.0104669
1.0105881
1.0107003
1.0108024
1.0108938
1.0109734
1.0110401
1.0110928
1.0111301
1.0111508
1.0111531
1.0111355
1.0110962
1.0110334
1.0109447
1.0108306
1.0106825
1.0105074
1.0102832
1.0100439
1.0097107
1.0021862
1.0022003
1.0022075
1.0022181
1.0022329
1.0022498
1.0022696
1.0022929
1.0023183
1.0023462
1.0023767
1.00241
1.0024457
1.0024841
1.0025251
1.0025688
1.0026151
1.0026639
1.0027155
1.0027698
1.0028266
1.0028862
1.0029484
1.0030134
1.0030811
1.0031517
1.0032251
1.0033015
1.0033808
1.0034631
1.0035483
1.0036365
1.0037279
1.0038223
1.0039196
1.0040202
1.0041239
1.0042306
1.0043407
1.0044539
1.0045701
1.0046895
1.0048121
1.0049377
1.0050667
1.005199
1.0053342
1.0054724
1.0056141
1.0057593
1.005907
1.0060572
1.0062107
1.0063679
1.0065271
1.0066886
1.0068528
1.0070198
1.0071888
1.0073589
1.0075311
1.007705
1.0078795
1.0080547
1.0082301
1.0084058
1.0085808
1.008755
1.0089279
1.0090989
1.0092675
1.0094332
1.0095954
1.0097534
1.0099067
1.0100544
1.0101959
1.0103304
1.0104572
1.0105754
1.0106842
1.0107825
1.0108694
1.0109439
1.011005
1.0110515
1.0110821
1.0110956
1.0110904
1.0110652
1.0110181
1.010948
1.0108519
1.0107309
1.0105771
1.0103997
1.0101758
1.0099434
1.0096225
1.0021858
1.0022005
1.0022076
1.0022182
1.002233
1.0022499
1.0022697
1.0022929
1.0023183
1.0023462
1.0023767
1.0024099
1.0024456
1.002484
1.0025249
1.0025685
1.0026148
1.0026636
1.0027151
1.0027693
1.0028261
1.0028855
1.0029476
1.0030125
1.0030801
1.0031506
1.0032239
1.0033001
1.0033793
1.0034615
1.0035466
1.0036347
1.0037259
1.0038201
1.0039173
1.0040177
1.004121
1.0042275
1.0043377
1.0044507
1.0045663
1.0046856
1.0048082
1.0049333
1.0050622
1.0051945
1.0053286
1.0054666
1.0056088
1.005754
1.0059007
1.0060495
1.0062042
1.0063615
1.0065197
1.0066804
1.0068446
1.0070117
1.0071802
1.0073496
1.0075214
1.0076949
1.007869
1.0080437
1.0082187
1.0083938
1.0085684
1.0087421
1.0089144
1.0090848
1.0092528
1.0094178
1.0095791
1.0097362
1.0098885
1.0100351
1.0101754
1.0103087
1.0104341
1.0105507
1.0106578
1.0107543
1.0108395
1.0109122
1.0109715
1.0110162
1.0110452
1.0110571
1.0110505
1.011024
1.0109759
1.0109051
1.0108085
1.0106877
1.0105339
1.0103574
1.0101328
1.0099019
1.009578
1.0021855
1.0022007
1.0022077
1.0022183
1.0022331
1.00225
1.0022697
1.002293
1.0023184
1.0023462
1.0023767
1.0024099
1.0024457
1.002484
1.0025249
1.0025685
1.0026147
1.0026635
1.0027151
1.0027692
1.002826
1.0028854
1.0029476
1.0030124
1.0030801
1.0031505
1.0032238
1.0033
1.0033792
1.0034614
1.0035465
1.0036346
1.0037258
1.00382
1.0039172
1.0040176
1.0041209
1.0042275
1.0043375
1.0044505
1.0045662
1.0046855
1.004808
1.0049332
1.005062
1.0051942
1.0053286
1.0054667
1.0056086
1.0057535
1.0059005
1.00605
1.0062042
1.0063611
1.0065196
1.0066807
1.0068448
1.0070115
1.0071799
1.0073496
1.0075214
1.0076946
1.0078686
1.0080433
1.0082182
1.0083932
1.0085676
1.008741
1.008913
1.0090831
1.0092506
1.0094151
1.009576
1.0097325
1.009884
1.0100298
1.0101692
1.0103013
1.0104255
1.0105407
1.0106463
1.0107411
1.0108243
1.0108948
1.0109517
1.0109937
1.0110197
1.0110286
1.0110187
1.0109889
1.0109376
1.0108639
1.0107647
1.0106419
1.0104869
1.0103108
1.0100877
1.0098612
1.0095433
1.0021851
1.0022008
1.0022077
1.0022184
1.0022332
1.00225
1.0022698
1.0022931
1.0023184
1.0023462
1.0023767
1.0024098
1.0024456
1.0024839
1.0025248
1.0025683
1.0026145
1.0026632
1.0027147
1.0027688
1.0028255
1.0028848
1.0029469
1.0030117
1.0030793
1.0031496
1.0032229
1.003299
1.0033782
1.0034602
1.0035452
1.0036332
1.0037243
1.0038184
1.0039154
1.0040157
1.0041189
1.0042252
1.0043351
1.004448
1.0045635
1.0046826
1.0048049
1.0049299
1.0050586
1.0051905
1.0053247
1.0054626
1.0056043
1.005749
1.0058958
1.006045
1.0061989
1.0063556
1.0065139
1.0066746
1.0068385
1.0070049
1.0071731
1.0073425
1.0075139
1.0076868
1.0078606
1.0080349
1.0082095
1.008384
1.0085581
1.0087312
1.0089028
1.0090725
1.0092396
1.0094037
1.009564
1.00972
1.0098709
1.0100161
1.0101549
1.0102863
1.0104097
1.0105242
1.0106289
1.0107228
1.0108051
1.0108747
1.0109307
1.0109719
1.0109973
1.0110056
1.0109952
1.0109652
1.0109137
1.0108401
1.0107409
1.0106186
1.0104641
1.0102894
1.0100673
1.0098436
1.0095278
1.0021848
1.0022009
1.0022078
1.0022184
1.0022332
1.0022501
1.0022698
1.0022931
1.0023184
1.0023462
1.0023767
1.0024098
1.0024455
1.0024839
1.0025247
1.0025682
1.0026144
1.0026631
1.0027146
1.0027686
1.0028252
1.0028845
1.0029466
1.0030115
1.003079
1.0031494
1.0032226
1.0032987
1.0033778
1.0034599
1.0035448
1.0036328
1.0037239
1.0038179
1.0039149
1.0040151
1.0041183
1.0042246
1.0043345
1.0044472
1.0045628
1.0046818
1.004804
1.004929
1.0050576
1.0051894
1.0053237
1.0054615
1.005603
1.0057476
1.0058945
1.0060438
1.0061975
1.006354
1.0065123
1.0066731
1.0068368
1.007003
1.0071711
1.0073405
1.0075118
1.0076845
1.0078581
1.0080323
1.0082068
1.0083812
1.0085551
1.008728
1.0088994
1.0090688
1.0092357
1.0093995
1.0095595
1.0097152
1.0098658
1.0100106
1.0101489
1.0102799
1.0104028
1.0105167
1.0106208
1.0107141
1.0107957
1.0108646
1.0109197
1.01096
1.0109843
1.0109917
1.0109801
1.0109489
1.0108965
1.0108222
1.0107225
1.0106003
1.010446
1.0102728
1.0100523
1.0098325
1.0095205
1.0021845
1.002201
1.0022078
1.0022185
1.0022332
1.0022501
1.0022698
1.0022931
1.0023184
1.0023462
1.0023766
1.0024098
1.0024455
1.0024837
1.0025246
1.002568
1.0026142
1.0026628
1.0027142
1.0027681
1.0028247
1.002884
1.0029461
1.0030109
1.0030784
1.0031487
1.0032219
1.0032979
1.003377
1.0034589
1.0035438
1.0036317
1.0037227
1.0038166
1.0039135
1.0040136
1.0041167
1.0042229
1.0043326
1.0044452
1.0045607
1.0046795
1.0048016
1.0049265
1.0050549
1.0051865
1.0053207
1.0054583
1.0055996
1.005744
1.0058907
1.0060399
1.0061933
1.0063496
1.0065077
1.0066683
1.0068318
1.0069978
1.0071656
1.0073347
1.0075058
1.0076783
1.0078516
1.0080255
1.0081997
1.0083739
1.0085475
1.0087201
1.0088913
1.0090604
1.009227
1.0093905
1.0095502
1.0097056
1.0098559
1.0100004
1.0101383
1.010269
1.0103915
1.010505
1.0106088
1.0107018
1.010783
1.0108515
1.0109064
1.0109465
1.0109707
1.0109782
1.0109666
1.0109358
1.0108836
1.0108098
1.0107106
1.0105894
1.010436
1.0102644
1.0100452
1.0098289
1.0095188
1.0021842
1.0022011
1.0022078
1.0022185
1.0022333
1.0022501
1.0022698
1.0022932
1.0023184
1.0023462
1.0023766
1.0024097
1.0024454
1.0024837
1.0025245
1.0025679
1.002614
1.0026626
1.0027139
1.0027678
1.0028245
1.0028838
1.0029459
1.0030106
1.0030782
1.0031484
1.0032216
1.0032976
1.0033766
1.0034585
1.0035434
1.0036312
1.0037221
1.003816
1.0039129
1.004013
1.004116
1.0042221
1.0043318
1.0044444
1.0045597
1.0046785
1.0048005
1.0049253
1.0050536
1.0051852
1.0053193
1.0054569
1.0055981
1.0057423
1.005889
1.0060382
1.0061914
1.0063476
1.0065056
1.0066662
1.0068295
1.0069953
1.007163
1.0073321
1.0075031
1.0076754
1.0078485
1.0080224
1.0081964
1.0083704
1.0085439
1.0087164
1.0088874
1.0090564
1.0092228
1.0093861
1.0095457
1.0097009
1.0098511
1.0099954
1.0101332
1.0102638
1.0103862
1.0104996
1.0106033
1.0106961
1.0107774
1.0108457
1.0109005
1.0109404
1.0109646
1.0109721
1.0109602
1.0109295
1.0108776
1.0108042
1.0107055
1.0105851
1.0104326
1.0102629
1.0100451
1.0098323
1.0095241
1.0021839
1.0022012
1.0022078
1.0022185
1.0022333
1.0022501
1.0022698
1.0022931
1.0023183
1.0023461
1.0023765
1.0024097
1.0024453
1.0024835
1.0025243
1.0025677
1.0026137
1.0026622
1.0027135
1.0027674
1.0028241
1.0028834
1.0029454
1.0030102
1.0030776
1.0031478
1.003221
1.0032969
1.0033759
1.0034577
1.0035425
1.0036303
1.0037212
1.003815
1.0039118
1.0040117
1.0041146
1.0042207
1.0043302
1.0044427
1.004558
1.0046766
1.0047985
1.0049232
1.0050514
1.0051828
1.0053168
1.0054542
1.0055953
1.0057393
1.0058859
1.0060349
1.0061879
1.0063439
1.0065017
1.0066622
1.0068253
1.0069909
1.0071584
1.0073273
1.007498
1.0076701
1.0078431
1.0080167
1.0081905
1.0083643
1.0085375
1.0087098
1.0088806
1.0090494
1.0092156
1.0093788
1.0095382
1.0096932
1.0098431
1.0099873
1.0101249
1.0102553
1.0103775
1.0104908
1.0105943
1.0106871
1.0107682
1.0108366
1.0108915
1.0109316
1.0109559
1.0109639
1.0109525
1.0109221
1.0108705
1.0107977
1.0106998
1.0105806
1.0104291
1.0102611
1.0100445
1.009835
1.0095272
1.0021837
1.0022013
1.0022079
1.0022186
1.0022333
1.0022501
1.0022698
1.0022931
1.0023183
1.0023461
1.0023765
1.0024097
1.0024453
1.0024835
1.0025242
1.0025676
1.0026135
1.002662
1.0027133
1.0027672
1.0028239
1.0028831
1.0029452
1.0030099
1.0030774
1.0031476
1.0032206
1.0032966
1.0033755
1.0034573
1.0035421
1.0036298
1.0037206
1.0038144
1.0039111
1.004011
1.0041139
1.0042199
1.0043294
1.0044418
1.004557
1.0046756
1.0047974
1.004922
1.0050501
1.0051815
1.0053154
1.0054528
1.0055937
1.0057376
1.0058841
1.0060331
1.006186
1.0063418
1.0064996
1.0066599
1.006823
1.0069884
1.0071558
1.0073246
1.0074952
1.0076672
1.00784
1.0080135
1.0081872
1.0083609
1.0085341
1.0087062
1.0088769
1.0090456
1.0092117
1.0093748
1.0095341
1.0096891
1.009839
1.0099831
1.0101208
1.0102513
1.0103736
1.010487
1.0105906
1.0106836
1.010765
1.0108333
1.0108885
1.0109288
1.0109535
1.0109617
1.0109505
1.0109211
1.0108706
1.0107986
1.0107015
1.0105834
1.0104331
1.0102672
1.0100516
1.0098453
1.0095375
1.0021835
1.0022013
1.0022078
1.0022185
1.0022333
1.0022501
1.0022697
1.0022931
1.0023183
1.002346
1.0023764
1.0024095
1.0024451
1.0024832
1.0025239
1.0025672
1.0026131
1.0026616
1.0027129
1.0027668
1.0028234
1.0028827
1.0029447
1.0030094
1.0030768
1.0031469
1.00322
1.0032959
1.0033748
1.0034565
1.0035412
1.0036289
1.0037196
1.0038133
1.00391
1.0040098
1.0041126
1.0042185
1.0043279
1.0044402
1.0045553
1.0046738
1.0047955
1.00492
1.005048
1.0051792
1.005313
1.0054503
1.005591
1.0057348
1.0058812
1.00603
1.0061827
1.0063384
1.006496
1.0066562
1.006819
1.0069843
1.0071515
1.0073201
1.0074905
1.0076623
1.0078349
1.0080082
1.0081818
1.0083553
1.0085282
1.0087002
1.0088707
1.0090392
1.0092052
1.0093681
1.0095273
1.0096821
1.0098319
1.0099759
1.0101134
1.0102437
1.0103659
1.0104793
1.0105829
1.0106759
1.0107573
1.0108263
1.0108814
1.010922
1.0109469
1.0109565
1.0109454
1.0109157
1.0108654
1.0107943
1.0106982
1.0105812
1.0104317
1.0102674
1.0100531
1.0098498
1.0095398
1.0021834
1.0022015
1.0022079
1.0022186
1.0022334
1.0022501
1.0022698
1.0022931
1.0023182
1.002346
1.0023764
1.0024094
1.002445
1.0024831
1.0025237
1.0025669
1.0026129
1.0026614
1.0027127
1.0027666
1.0028232
1.0028825
1.0029445
1.0030091
1.0030765
1.0031466
1.0032197
1.0032956
1.0033744
1.003456
1.0035407
1.0036283
1.003719
1.0038127
1.0039093
1.0040091
1.0041118
1.0042177
1.004327
1.0044393
1.0045543
1.0046727
1.0047943
1.0049188
1.0050467
1.0051778
1.0053116
1.0054487
1.0055894
1.0057331
1.0058794
1.0060282
1.0061807
1.0063363
1.0064938
1.0066539
1.0068166
1.0069818
1.0071488
1.0073174
1.0074877
1.0076594
1.0078319
1.0080051
1.0081786
1.008352
1.0085248
1.0086967
1.0088672
1.0090356
1.0092016
1.0093644
1.0095236
1.0096784
1.0098282
1.0099724
1.0101101
1.0102406
1.0103629
1.0104765
1.0105803
1.0106734
1.0107547
1.0108246
1.01088
1.0109209
1.0109463
1.0109552
1.0109457
1.0109179
1.0108688
1.0107983
1.0107031
1.0105875
1.0104394
1.010277
1.0100634
1.0098629
1.0095521
1.002183
1.0022013
1.0022078
1.0022185
1.0022332
1.00225
1.0022696
1.0022929
1.002318
1.0023458
1.0023761
1.0024091
1.0024446
1.0024826
1.0025233
1.0025665
1.0026124
1.0026609
1.0027122
1.0027661
1.0028227
1.002882
1.0029439
1.0030085
1.0030759
1.003146
1.0032189
1.0032948
1.0033735
1.0034551
1.0035398
1.0036273
1.003718
1.0038115
1.0039081
1.0040078
1.0041104
1.0042162
1.0043254
1.0044376
1.0045526
1.0046709
1.0047924
1.0049167
1.0050445
1.0051755
1.0053091
1.0054462
1.0055866
1.0057302
1.0058763
1.006025
1.0061773
1.0063327
1.0064901
1.00665
1.0068125
1.0069775
1.0071443
1.0073127
1.0074828
1.0076542
1.0078266
1.0079995
1.0081728
1.0083459
1.0085186
1.0086903
1.0088605
1.0090287
1.0091945
1.0093572
1.0095162
1.0096708
1.0098205
1.0099645
1.0101022
1.0102325
1.0103549
1.0104685
1.0105724
1.0106656
1.0107471
1.0108168
1.0108726
1.0109138
1.0109397
1.0109499
1.0109392
1.0109109
1.0108627
1.0107934
1.0106989
1.0105843
1.0104373
1.0102769
1.0100632
1.0098644
1.0095514
1.0021833
1.0022018
1.002208
1.0022186
1.0022334
1.0022501
1.0022697
1.002293
1.0023181
1.0023458
1.0023761
1.0024092
1.0024446
1.0024827
1.0025233
1.0025666
1.0026125
1.002661
1.0027123
1.0027663
1.0028228
1.0028821
1.002944
1.0030086
1.0030759
1.003146
1.0032189
1.0032948
1.0033735
1.0034551
1.0035397
1.0036272
1.0037178
1.0038114
1.0039078
1.0040075
1.0041101
1.0042159
1.004325
1.0044372
1.0045521
1.0046703
1.0047917
1.004916
1.0050437
1.0051747
1.0053082
1.0054451
1.0055855
1.005729
1.0058751
1.0060236
1.0061759
1.0063312
1.0064884
1.0066482
1.0068107
1.0069755
1.0071423
1.0073105
1.0074805
1.0076519
1.0078241
1.007997
1.0081702
1.0083433
1.0085159
1.0086875
1.0088577
1.0090259
1.0091917
1.0093544
1.0095134
1.0096682
1.0098179
1.0099621
1.0100998
1.0102301
1.0103525
1.0104662
1.0105704
1.010664
1.0107458
1.0108159
1.0108721
1.010914
1.0109397
1.0109489
1.0109436
1.010916
1.0108674
1.0107987
1.0107056
1.010592
1.0104463
1.0102879
1.0100763
1.0098809
1.0095647
1.0021825
1.0022013
1.0022078
1.0022185
1.0022332
1.00225
1.0022696
1.0022928
1.0023179
1.0023456
1.0023759
1.0024089
1.0024443
1.0024824
1.002523
1.0025663
1.0026123
1.0026608
1.0027121
1.002766
1.0028225
1.0028817
1.0029436
1.0030082
1.0030755
1.0031455
1.0032184
1.0032942
1.0033729
1.0034544
1.003539
1.0036264
1.003717
1.0038105
1.0039069
1.0040065
1.0041091
1.0042148
1.0043238
1.0044359
1.0045508
1.0046689
1.0047902
1.0049144
1.0050419
1.0051728
1.0053062
1.005443
1.0055833
1.0057267
1.0058726
1.006021
1.0061731
1.0063282
1.0064853
1.006645
1.0068072
1.0069718
1.0071384
1.0073065
1.0074763
1.0076474
1.0078195
1.0079922
1.0081651
1.008338
1.0085104
1.0086818
1.0088518
1.0090198
1.0091853
1.0093478
1.0095066
1.0096611
1.0098106
1.0099547
1.0100922
1.0102226
1.010345
1.0104587
1.0105628
1.0106563
1.0107381
1.0108082
1.0108645
1.0109064
1.0109337
1.010931
1.0109311
1.0109082
1.0108608
1.0107924
1.0106998
1.0105869
1.0104418
1.0102842
1.0100731
1.0098786
1.0095579
1.0021847
1.0022029
1.0022089
1.0022193
1.002234
1.0022506
1.0022702
1.0022934
1.0023185
1.0023462
1.0023765
1.0024096
1.0024451
1.0024832
1.0025239
1.0025672
1.0026132
1.0026618
1.0027131
1.002767
1.0028236
1.0028828
1.0029447
1.0030093
1.0030766
1.0031466
1.0032196
1.0032954
1.003374
1.0034556
1.0035402
1.0036276
1.0037182
1.0038117
1.0039082
1.0040078
1.0041104
1.004216
1.0043251
1.0044372
1.0045521
1.0046702
1.0047916
1.0049158
1.0050434
1.0051742
1.0053077
1.0054445
1.0055849
1.0057282
1.0058742
1.0060226
1.0061747
1.0063299
1.0064871
1.0066468
1.0068091
1.0069738
1.0071404
1.0073086
1.0074784
1.0076496
1.0078218
1.0079946
1.0081676
1.0083406
1.0085131
1.0086847
1.0088548
1.0090229
1.0091887
1.0093513
1.0095103
1.0096651
1.009815
1.0099591
1.0100972
1.0102276
1.0103503
1.0104643
1.0105687
1.0106626
1.0107448
1.0108154
1.0108722
1.0109146
1.0109418
1.0109555
1.0109463
1.0109204
1.0108732
1.0108062
1.0107148
1.0106035
1.0104595
1.0103042
1.0100958
1.0099032
1.0095813
1.0094177
1.0093925
1.009391
1.0093719
1.0093591
1.0093386
1.0093211
1.0093002
1.0092841
1.0092691
1.0092611
1.009261
1.0092704
1.0092981
1.009338
1.009412
1.0095033
1.009638
1.0098533
1.0083589
1.0083176
1.0083124
1.0082795
1.0082831
1.0082649
1.0082608
1.0082512
1.0082478
1.0082444
1.0082446
1.0082476
1.0082529
1.0082649
1.0082811
1.0083095
1.0083563
1.0084119
1.0085148
1.0078185
1.0077953
1.0077989
1.0077889
1.0077782
1.0077606
1.0077483
1.0077303
1.0077158
1.0076994
1.007685
1.0076718
1.0076611
1.0076544
1.0076538
1.007658
1.0076792
1.0076999
1.0077562
1.0068673
1.006841
1.0068468
1.0068232
1.0068323
1.0068198
1.006817
1.0068056
1.0067969
1.0067843
1.0067722
1.006758
1.0067442
1.0067283
1.0067169
1.0066988
1.0066999
1.006673
1.0067156
1.0060897
1.0060578
1.0060438
1.0060229
1.005998
1.0059678
1.0059421
1.0059096
1.0058801
1.0058463
1.0058135
1.0057772
1.005742
1.0057007
1.0056653
1.0056125
1.0055837
1.0055017
1.0054989
1.0048266
1.004799
1.0047918
1.0047783
1.0047636
1.0047486
1.0047305
1.0047095
1.0046871
1.0046601
1.0046317
1.0045965
1.0045604
1.0045114
1.004467
1.0043931
1.0043428
1.0042194
1.0041723
1.0034839
1.0034496
1.0034509
1.003416
1.0034255
1.003407
1.0033988
1.0033806
1.0033627
1.003338
1.0033108
1.003274
1.0032349
1.0031777
1.0031237
1.0030308
1.0029598
1.0028007
1.0027133
1.0021284
1.0021194
1.002107
1.0020999
1.0020792
1.0020568
1.0020364
1.0020078
1.0019799
1.0019442
1.0019068
1.0018582
1.001808
1.0017366
1.0016685
1.0015559
1.0014634
1.0012737
1.0011484
1.0007197
1.0006877
1.0006885
1.0006623
1.0006421
1.0006189
1.0005927
1.0005615
1.0005281
1.0004868
1.0004428
1.0003857
1.0003264
1.0002425
1.0001609
1.0000298
0.99991583
0.99969885
0.99953598
0.99877748
0.99876793
0.99876357
0.99875547
0.9987691
0.9987651
0.99876762
0.99876094
0.99875368
0.99873732
0.99871788
0.99868353
0.99864546
0.99857946
0.99851273
0.99839173
0.99828138
0.99806414
0.99788538
0.99754766
0.99754128
0.99750335
0.9975053
0.99747556
0.99745859
0.99743439
0.99740673
0.99737645
0.99733795
0.99729691
0.99724133
0.99718347
0.99709833
0.99701384
0.99687675
0.99674873
0.9965196
0.99631582
0.99603103
0.99601172
0.99601905
0.9960068
0.99599627
0.99598553
0.99596957
0.99595116
0.99592831
0.99589794
0.99586402
0.99581511
0.99576318
0.99568304
0.99560209
0.99546883
0.99533998
0.9951162
0.99490286
0.99430768
0.9943171
0.99433045
0.99433977
0.99435118
0.99436126
0.99436967
0.99437546
0.99437808
0.99437434
0.99436763
0.99434678
0.99432341
0.99427222
0.99421996
0.99411682
0.99401454
0.99382493
0.99363164
0.99371628
0.99370558
0.99370446
0.99368763
0.99367823
0.9936597
0.99364408
0.99362186
0.99359873
0.99356798
0.99353566
0.99348994
0.99344364
0.9933724
0.99330277
0.99318914
0.99307802
0.99289522
0.9927039
0.99264743
0.9926427
0.99264393
0.99264247
0.99264245
0.99264098
0.99264041
0.99263515
0.99262992
0.99261747
0.99260477
0.9925797
0.99255462
0.99250749
0.99246121
0.99237773
0.99229399
0.99215323
0.99199996
0.99204956
0.99204598
0.99204785
0.99204702
0.99204487
0.9920418
0.99203853
0.99203212
0.99202543
0.99201312
0.99200089
0.99197893
0.99195721
0.9919188
0.99188072
0.99181543
0.99174873
0.99164146
0.99152329
0.99158857
0.99158488
0.99158784
0.99158743
0.99158722
0.99158549
0.99158389
0.9915799
0.99157548
0.99156702
0.99155829
0.99154255
0.99152631
0.99149832
0.99146934
0.99142167
0.99137144
0.99129358
0.9912079
0.99124811
0.99124399
0.99124792
0.99124779
0.99124792
0.99124718
0.99124634
0.99124392
0.99124098
0.9912354
0.99122923
0.99121843
0.99120653
0.99118691
0.9911654
0.99113152
0.99109457
0.99103899
0.99097827
0.99101192
0.99100668
0.99101185
0.99101176
0.99101321
0.99101148
0.99101069
0.99100815
0.9910053
0.99100051
0.99099495
0.99098625
0.99097607
0.9909608
0.99094317
0.9909174
0.99088881
0.99084789
0.99080497
0.99084228
0.99083505
0.9908416
0.99084181
0.99084409
0.99084217
0.99084219
0.99083977
0.99083772
0.99083387
0.99082936
0.99082241
0.9908138
0.99080139
0.99078613
0.99076477
0.99073935
0.99070586
0.99066794
0.99069381
0.99068542
0.99069248
0.99069262
0.99069473
0.99069362
0.99069351
0.99069148
0.99068962
0.99068587
0.99068127
0.99067417
0.990665
0.99065219
0.99063589
0.99061282
0.9905882
0.99055738
0.99052249
0.99064319
0.99063465
0.99064257
0.99064258
0.99064504
0.99064384
0.99064378
0.99064146
0.99063908
0.9906344
0.99062832
0.99061912
0.99060713
0.99059104
0.99057073
0.99054389
0.99050263
0.99045678
0.99037708
0.99057856
0.99057067
0.99057767
0.99057769
0.99057903
0.99057511
0.99057376
0.99056962
0.99056541
0.99055849
0.99054982
0.99053727
0.99052016
0.99049552
0.99046084
0.99041004
0.99031654
0.99019946
0.98998614
0.99056859
0.99055238
0.99056835
0.99056475
0.99056716
0.99056614
0.99056697
0.9905654
0.99056442
0.99056204
0.99055965
0.99055561
0.99054933
0.99053757
0.99052564
0.99050174
0.99048223
0.99045535
0.99014444
0.99056617
0.99055553
0.9905681
0.99056521
0.99056984
0.99057
0.99057395
0.99057718
0.99058357
0.99059081
0.99060109
0.99061546
0.99063118
0.9906562
0.99073205
0.99075806
0.99093828
0.99106644
0.99143517
0.99051655
0.99051036
0.99052357
0.9905244
0.99053392
0.99053628
0.99054568
0.99055291
0.99056454
0.99057771
0.99059372
0.9906168
0.99064996
0.99066295
0.9907501
0.9907286
0.9910094
0.99046628
0.9915582
0.99027617
0.99026902
0.99027882
0.9902752
0.99027654
0.99027255
0.99026992
0.99026237
0.99025284
0.99023878
0.99021986
0.99019222
0.99017703
0.99010988
0.99005179
0.98985563
0.98997206
0.98911259
0.99009958
0.99028575
0.99026775
0.99028371
0.99028836
0.99029888
0.99030515
0.99031757
0.9903298
0.99034748
0.99036855
0.99039357
0.99041829
0.99045279
0.99048346
0.99050296
0.99038892
0.99024167
0.99059772
0.98992303
0.99024432
0.990234
0.99024908
0.99023526
0.9902409
0.99023403
0.99023606
0.99023217
0.99022926
0.9902257
0.99021855
0.99020048
0.99017279
0.99007869
0.98994467
0.98939124
0.98915235
0.99079758
0.99062437
0.99016962
0.99015647
0.9902121
0.99015891
0.99017105
0.99015401
0.9901492
0.99013568
0.99012952
0.99014853
0.99018779
0.99026616
0.99044107
0.99078343
0.99169315
0.99345051
0.9965383
0.99597268
0.99373817
0.99043663
0.99041683
0.99042259
0.99040741
0.99040872
0.99039926
0.99040317
0.99040172
0.99040741
0.99040444
0.9904026
0.99042198
0.99044174
0.99037481
0.99062138
0.98991292
0.99075411
0.99060809
0.99227751
0.99045781
0.99044686
0.99045409
0.99044479
0.99044388
0.99043384
0.99043055
0.99042048
0.99040475
0.99038681
0.99031739
0.9903011
0.99020195
0.9901062
0.99020753
0.98956485
0.9898628
0.98985518
0.99194376
0.99046271
0.99045058
0.9904571
0.99045167
0.99045028
0.99044438
0.99043401
0.99043201
0.99039586
0.99040257
0.99031028
0.99033957
0.99015067
0.99008492
0.98990409
0.98968779
0.9890832
0.98853365
0.99096998
0.9905262
0.9905115
0.99051864
0.99050868
0.99050748
0.99049927
0.99048721
0.99048398
0.99044342
0.99045244
0.99035262
0.9903976
0.99021972
0.99015025
0.98994783
0.98937104
0.98902116
0.98690355
0.98906254
0.99057762
0.99056411
0.99057315
0.9905634
0.99056495
0.99055474
0.99054289
0.99053837
0.99050391
0.99050768
0.99042488
0.9904333
0.99027573
0.99023525
0.99004231
0.98960531
0.98903079
0.98671068
0.98695758
0.99064007
0.99062605
0.99063641
0.99062562
0.99062453
0.99061812
0.99060432
0.99060445
0.99056884
0.99058
0.99050349
0.99052252
0.99040039
0.99038895
0.99023068
0.9899983
0.98944146
0.98786449
0.98636651
0.99071692
0.99070234
0.99071209
0.99070279
0.99070214
0.99069842
0.9906869
0.9906928
0.99066353
0.99068313
0.99062661
0.9906636
0.99055644
0.99058492
0.99047105
0.99047298
0.99017617
0.98936217
0.98771021
0.99079353
0.9907791
0.99078779
0.99077939
0.99077937
0.99077626
0.99076735
0.99077462
0.99075215
0.99077518
0.99073519
0.99077815
0.99070957
0.9907839
0.99069583
0.99085321
0.99065494
0.99031223
0.98911528
0.99086678
0.99085195
0.99086104
0.99085308
0.99085435
0.99085116
0.99084529
0.99085204
0.9908351
0.99085838
0.99082298
0.99087523
0.99082371
0.9909449
0.99087448
0.99105599
0.99096745
0.99085226
0.98995793
0.99093121
0.99091647
0.99092911
0.99092069
0.99092371
0.99091973
0.99091821
0.99092422
0.99091417
0.99093671
0.99091346
0.99096261
0.99092139
0.99102499
0.99091375
0.99111622
0.99120688
0.99110542
0.9905373
0.99098689
0.99097329
0.99098461
0.9909754
0.99098494
0.99098036
0.99098203
0.99098594
0.9909834
0.99100082
0.99099043
0.99102848
0.99100929
0.99108127
0.99107962
0.99113085
0.99120965
0.99115354
0.99083987
0.99103152
0.99102106
0.99102957
0.9910217
0.99103041
0.99102739
0.9910349
0.99103607
0.99104228
0.99105529
0.99106089
0.99108657
0.99109577
0.99113068
0.99116279
0.99113953
0.99116378
0.99113828
0.99100963
0.99106126
0.99104812
0.99106122
0.99106079
0.99106743
0.99106037
0.99107105
0.99107208
0.99108491
0.9910947
0.99111414
0.9911357
0.9911726
0.99119465
0.99128655
0.9912673
0.99128078
0.99101918
0.99104608
0.99107672
0.99106659
0.99108235
0.99107506
0.99108527
0.99107953
0.99109424
0.99109296
0.99111277
0.99112061
0.99114911
0.99117062
0.99121047
0.99126061
0.9913181
0.99142227
0.99147561
0.99098387
0.99108788
0.99108049
0.99106907
0.99108168
0.99107062
0.99108388
0.99107784
0.99109659
0.9910924
0.99112056
0.99112499
0.9911684
0.99119444
0.99126512
0.99134455
0.9914006
0.99159551
0.99168318
0.99109331
0.99127189
0.99106409
0.9910496
0.99106298
0.99105375
0.99106752
0.99106022
0.99107895
0.99107113
0.99109975
0.99109307
0.99113706
0.99114588
0.9912204
0.9912808
0.99147438
0.99158298
0.99200602
0.99130065
0.9914206
0.99102561
0.99101431
0.99103109
0.99102437
0.99103638
0.99102922
0.99104646
0.99103649
0.99106369
0.99105149
0.99109022
0.99109052
0.99113921
0.99119137
0.99115088
0.99132294
0.99189272
0.99145424
0.99159988
0.99097642
0.99096957
0.99098541
0.99098173
0.9909932
0.99098258
0.99100008
0.99098254
0.99100697
0.99097748
0.99101742
0.99097743
0.99106673
0.99103284
0.99129487
0.9909925
0.99139644
0.99119906
0.99151915
0.9909304
0.99092253
0.99093621
0.99093627
0.99095159
0.99093899
0.99095557
0.99093157
0.99095787
0.99090662
0.99094593
0.99082263
0.9909071
0.99055058
0.99085572
0.98966496
0.99048177
0.99038565
0.99098891
0.99089614
0.99089027
0.99090659
0.99089825
0.99090857
0.99090143
0.99091552
0.9908953
0.99091344
0.99086017
0.9908844
0.99077124
0.99074382
0.99046649
0.99027097
0.98953293
0.98747686
0.98927213
0.99041901
0.99085968
0.99085451
0.99087232
0.99086884
0.99088187
0.99088054
0.99089599
0.99089062
0.99090451
0.99087763
0.99086758
0.99079826
0.99069301
0.99048258
0.98985593
0.98959541
0.98635323
0.98721305
0.98884025
0.99082063
0.99081627
0.99083364
0.99083621
0.99085222
0.99085845
0.99087728
0.99088901
0.9909127
0.9909377