/*--------------------------------*- C++ -*----------------------------------*\
| =========                 |                                                 |
| \\      /  F ield         | OpenFOAM: The Open Source CFD Toolbox           |
|  \\    /   O peration     | Version:  2406                                  |
|   \\  /    A nd           | Website:  www.openfoam.com                      |
|    \\/     M anipulation  |                                                 |
\*---------------------------------------------------------------------------*/
FoamFile
{
    version     2.0;
    format      ascii;
    arch        "LSB;label=32;scalar=64";
    class       surfaceScalarField;
    location    "55140";
    object      phi;
}
// * * * * * * * * * * * * * * * * * * * * * * * * * * * * * * * * * * * * * //

dimensions      [1 0 -1 0 0 0 0];

oriented        oriented;

internalField   nonuniform List<scalar> 
188552
(
4.8111548e-05
-1.4226783e-07
1.7561898e-07
4.8074641e-05
-1.748622e-07
2.1203747e-07
4.8032703e-05
-2.145197e-07
2.5647598e-07
4.7985862e-05
-2.5303054e-07
3.0004499e-07
4.793447e-05
-2.9354712e-07
3.4486337e-07
4.7878668e-05
-3.3102382e-07
3.8695205e-07
4.7818113e-05
-3.6447452e-07
4.2494037e-07
4.7753133e-05
-3.9917829e-07
4.641327e-07
4.768375e-05
-4.328565e-07
5.0216202e-07
4.761002e-05
-4.6536299e-07
5.3919742e-07
4.7531843e-05
-4.9722002e-07
5.7528186e-07
4.7449346e-05
-5.2872717e-07
6.1129212e-07
4.7362442e-05
-5.6007918e-07
6.469014e-07
4.727117e-05
-5.9123482e-07
6.8258613e-07
4.7175366e-05
-6.2259321e-07
7.183286e-07
4.7075055e-05
-6.5411509e-07
7.5444313e-07
4.6970085e-05
-6.8615126e-07
7.9108494e-07
4.6860397e-05
-7.1876548e-07
8.2846862e-07
4.6745839e-05
-7.5214213e-07
8.6665643e-07
4.6626345e-05
-7.8654841e-07
9.0606269e-07
4.6501763e-05
-8.2200701e-07
9.4655669e-07
4.6371995e-05
-8.5872366e-07
9.8852608e-07
4.6236854e-05
-8.9693353e-07
1.0320343e-06
4.6096264e-05
-9.3672551e-07
1.0773655e-06
4.5950024e-05
-9.7821338e-07
1.1243978e-06
4.5798045e-05
-1.0213484e-06
1.1733727e-06
4.5640121e-05
-1.0661764e-06
1.2240429e-06
4.547614e-05
-1.112463e-06
1.2764706e-06
4.5305867e-05
-1.1600938e-06
1.330338e-06
4.5129092e-05
-1.2087789e-06
1.3856055e-06
4.4945478e-05
-1.2583237e-06
1.4418794e-06
4.475484e-05
-1.308367e-06
1.4990173e-06
4.4556888e-05
-1.3587253e-06
1.5566533e-06
4.4351464e-05
-1.4088166e-06
1.6142743e-06
4.4138307e-05
-1.457646e-06
1.6707622e-06
4.3917458e-05
-1.5061725e-06
1.7270291e-06
4.3689128e-05
-1.5557747e-06
1.7840837e-06
4.3453371e-05
-1.6024723e-06
1.8382449e-06
4.3209732e-05
-1.6440512e-06
1.8876716e-06
4.2958343e-05
-1.6872617e-06
1.9386676e-06
4.2699306e-05
-1.7333124e-06
1.9923236e-06
4.2431941e-05
-1.7776894e-06
2.0450756e-06
4.2155707e-05
-1.8234959e-06
2.0996994e-06
4.1870697e-05
-1.8739031e-06
2.1589336e-06
4.1576232e-05
-1.9242371e-06
2.2186737e-06
4.1271969e-05
-1.9776998e-06
2.281983e-06
4.0958535e-05
-2.0387526e-06
2.3521639e-06
4.0635534e-05
-2.0960803e-06
2.4191037e-06
4.0301497e-05
-2.1436573e-06
2.477686e-06
3.9956547e-05
-2.1947799e-06
2.5397662e-06
3.960293e-05
-2.2643741e-06
2.6179627e-06
3.9242156e-05
-2.3384114e-06
2.6991969e-06
3.887254e-05
-2.3958496e-06
2.7654424e-06
3.8493334e-05
-2.4491118e-06
2.8283285e-06
3.8106389e-05
-2.519138e-06
2.9060681e-06
3.7712689e-05
-2.5969385e-06
2.9906545e-06
3.731074e-05
-2.6614485e-06
3.0633889e-06
3.6898447e-05
-2.7101317e-06
3.1224426e-06
3.6475604e-05
-2.7618746e-06
3.184711e-06
3.6043983e-05
-2.825478e-06
3.2571164e-06
3.5604796e-05
-2.8824457e-06
3.3216233e-06
3.5156308e-05
-2.9247642e-06
3.3732627e-06
3.4697748e-05
-2.9615196e-06
3.4200783e-06
3.4231067e-05
-3.0009643e-06
3.4676591e-06
3.3758911e-05
-3.0398747e-06
3.512017e-06
3.3281903e-05
-3.0693011e-06
3.5463105e-06
3.279777e-05
-3.0899202e-06
3.574048e-06
3.2308175e-05
-3.1031743e-06
3.5927751e-06
3.1815125e-05
-3.1095058e-06
3.6025536e-06
3.1320411e-05
-3.1066208e-06
3.6013399e-06
3.0825865e-05
-3.0922475e-06
3.5867929e-06
3.0333026e-05
-3.0652811e-06
3.5581233e-06
2.9843744e-05
-3.0249765e-06
3.5142592e-06
2.9360115e-05
-2.9704414e-06
3.4540737e-06
2.8884504e-05
-2.9003304e-06
3.3759438e-06
2.8419422e-05
-2.8130238e-06
3.2781074e-06
2.7967716e-05
-2.7071294e-06
3.1588366e-06
2.7532447e-05
-2.5811418e-06
3.0164118e-06
2.7117216e-05
-2.433834e-06
2.8490704e-06
2.6725891e-05
-2.2635615e-06
2.6548936e-06
2.6360974e-05
-2.0675387e-06
2.4324495e-06
2.6027648e-05
-1.8476895e-06
2.181009e-06
2.5730649e-05
-1.6016075e-06
1.8985982e-06
2.5474848e-05
-1.3282286e-06
1.5840297e-06
2.5265527e-05
-1.0269852e-06
1.2363091e-06
2.5108014e-05
-6.9717395e-07
8.5468747e-07
2.5008608e-05
-3.3924731e-07
4.3864066e-07
2.4974368e-05
4.7777978e-08
-1.3557062e-08
2.5005435e-05
4.6220897e-07
-4.9328937e-07
2.5108919e-05
9.0486294e-07
-1.0083566e-06
2.5291187e-05
1.3795146e-06
-1.5617956e-06
2.5556216e-05
1.8658117e-06
-2.1308434e-06
2.5905566e-05
2.3767203e-06
-2.7260916e-06
2.6338216e-05
2.9146297e-06
-3.3472763e-06
2.6855573e-05
3.4738686e-06
-3.9912464e-06
2.7451322e-05
4.0389293e-06
-4.6346792e-06
2.8123299e-05
4.6318213e-06
-5.3038319e-06
2.886301e-05
5.1465313e-06
-5.8862555e-06
5.9986152e-06
2.9594723e-05
-6.7303327e-06
4.2889514e-05
-1.1188588e-07
4.2856483e-05
-1.418037e-07
4.2819034e-05
-1.770228e-07
4.2777375e-05
-2.1132297e-07
4.2731652e-05
-2.4783508e-07
4.2681911e-05
-2.8124929e-07
4.2627922e-05
-3.1050315e-07
4.2570073e-05
-3.4134592e-07
4.2508333e-05
-3.7112302e-07
4.2442749e-05
-3.9974536e-07
4.2373252e-05
-4.2775782e-07
4.229996e-05
-4.5542174e-07
4.2222773e-05
-4.8291328e-07
4.2141727e-05
-5.1016677e-07
4.2056676e-05
-5.3756086e-07
4.1967651e-05
-5.650898e-07
4.1874515e-05
-5.9301772e-07
4.1777207e-05
-6.2145403e-07
4.1675606e-05
-6.5054901e-07
4.1569639e-05
-6.8058009e-07
4.1459166e-05
-7.1154192e-07
4.1344116e-05
-7.4367327e-07
4.1224322e-05
-7.7713916e-07
4.10997e-05
-8.120867e-07
4.0970085e-05
-8.4861222e-07
4.0835404e-05
-8.8665779e-07
4.0695455e-05
-9.2624491e-07
4.0550109e-05
-9.6711554e-07
4.0399151e-05
-1.009139e-06
4.0242401e-05
-1.0520175e-06
4.0079571e-05
-1.0955066e-06
3.9910481e-05
-1.1392747e-06
3.9734947e-05
-1.1831934e-06
3.9552859e-05
-1.2267185e-06
3.9363917e-05
-1.2687175e-06
3.9168203e-05
-1.3104588e-06
3.8966014e-05
-1.3535893e-06
3.8757113e-05
-1.3935663e-06
3.8540901e-05
-1.4278411e-06
3.8317945e-05
-1.464301e-06
3.8088546e-05
-1.503921e-06
3.785178e-05
-1.5409169e-06
3.7607255e-05
-1.5789802e-06
3.7355057e-05
-1.6216992e-06
3.7094156e-05
-1.663345e-06
3.6824569e-05
-1.7081085e-06
3.6547734e-05
-1.7619239e-06
3.626241e-05
-1.8107503e-06
3.5966277e-05
-1.8475269e-06
3.5660741e-05
-1.8892353e-06
3.5349939e-05
-1.9535768e-06
3.5034472e-05
-2.0229407e-06
3.4709778e-05
-2.0711617e-06
3.4375403e-05
-2.1147348e-06
3.4035591e-05
-2.1793304e-06
3.3691096e-05
-2.2524397e-06
3.3337897e-05
-2.3082523e-06
3.2973132e-05
-2.3453621e-06
3.2599376e-05
-2.3881199e-06
3.2219641e-05
-2.445737e-06
3.1832276e-05
-2.4950823e-06
3.1435699e-05
-2.5281849e-06
3.1031594e-05
-2.557416e-06
3.062123e-05
-2.5905972e-06
3.0204769e-05
-2.6234157e-06
2.978301e-05
-2.647541e-06
2.9356593e-05
-2.6635033e-06
2.8926677e-05
-2.6732561e-06
2.8494451e-05
-2.6772798e-06
2.8061267e-05
-2.6734349e-06
2.7628481e-05
-2.6594607e-06
2.7197408e-05
-2.634207e-06
2.6769659e-05
-2.5972269e-06
2.6347212e-05
-2.5479921e-06
2.5932269e-05
-2.4853864e-06
2.5527176e-05
-2.4079291e-06
2.5134401e-05
-2.3143537e-06
2.4756672e-05
-2.203413e-06
2.4396888e-05
-2.0740496e-06
2.4058675e-05
-1.9253483e-06
2.3744972e-05
-1.7538384e-06
2.3458894e-05
-1.5616131e-06
2.3204301e-05
-1.3470166e-06
2.298512e-05
-1.1090481e-06
2.2805303e-05
-8.4716764e-07
2.2669065e-05
-5.6093575e-07
2.2580453e-05
-2.5063892e-07
2.2544524e-05
8.3703787e-08
2.25664e-05
4.4032751e-07
2.2652654e-05
8.1860598e-07
2.2812315e-05
1.219846e-06
2.3041372e-05
1.6367428e-06
2.3347417e-05
2.0706686e-06
2.3741007e-05
2.5210188e-06
2.422943e-05
2.9854404e-06
2.4813131e-05
3.4551935e-06
2.5502415e-05
3.9425293e-06
2.6265891e-05
4.3830199e-06
4.986359e-06
2.727813e-05
3.8233318e-05
-8.4439382e-08
3.8203808e-05
-1.1230963e-07
3.8170414e-05
-1.4362253e-07
3.8133254e-05
-1.7415241e-07
3.8092516e-05
-2.0713198e-07
3.8048275e-05
-2.3700988e-07
3.800023e-05
-2.6247801e-07
3.7948696e-05
-2.8981602e-07
3.7893691e-05
-3.1611763e-07
3.783528e-05
-3.4131172e-07
3.7773369e-05
-3.658821e-07
3.7708033e-05
-3.9008798e-07
3.763921e-05
-4.1411025e-07
3.7566951e-05
-4.3789938e-07
3.7491111e-05
-4.6175497e-07
3.7411701e-05
-4.8569942e-07
3.7328632e-05
-5.099605e-07
3.7241829e-05
-5.3466794e-07
3.7151198e-05
-5.5992037e-07
3.7056644e-05
-5.8603313e-07
3.6958057e-05
-6.1295151e-07
3.6855347e-05
-6.4096885e-07
3.6748393e-05
-6.7017293e-07
3.6637098e-05
-7.0078517e-07
3.6521335e-05
-7.328517e-07
3.6401018e-05
-7.6634637e-07
3.6275982e-05
-8.0122037e-07
3.6146089e-05
-8.3723428e-07
3.6011165e-05
-8.7421646e-07
3.5871031e-05
-9.118867e-07
3.5725481e-05
-9.4996286e-07
3.557435e-05
-9.8814979e-07
3.5417495e-05
-1.0263339e-06
3.5254799e-05
-1.0640158e-06
3.508607e-05
-1.1000016e-06
3.4911205e-05
-1.1356034e-06
3.4730192e-05
-1.1725777e-06
3.4543149e-05
-1.2065267e-06
3.4350057e-05
-1.2347478e-06
3.4150845e-05
-1.2650866e-06
3.3945545e-05
-1.2986224e-06
3.3733941e-05
-1.3293141e-06
3.3515522e-05
-1.360568e-06
3.3290104e-05
-1.3962813e-06
3.3057395e-05
-1.4306403e-06
3.2816882e-05
-1.4675948e-06
3.2568739e-05
-1.5137837e-06
3.2313394e-05
-1.5554026e-06
3.2050869e-05
-1.5850006e-06
3.1781526e-05
-1.6198885e-06
3.1506048e-05
-1.6780993e-06
3.1225126e-05
-1.7420158e-06
3.0938044e-05
-1.7840798e-06
3.0644084e-05
-1.8207732e-06
3.0343722e-05
-1.8789689e-06
3.0036572e-05
-1.9452861e-06
2.9721257e-05
-1.9929353e-06
2.939753e-05
-2.0216331e-06
2.9066401e-05
-2.0569902e-06
2.8728231e-05
-2.1075613e-06
2.8382744e-05
-2.1495946e-06
2.8030281e-05
-2.1757179e-06
2.7671985e-05
-2.1991211e-06
2.7308248e-05
-2.2268568e-06
2.6939548e-05
-2.2547165e-06
2.6566984e-05
-2.2749737e-06
2.6190877e-05
-2.2873956e-06
2.5811863e-05
-2.2942396e-06
2.5430861e-05
-2.2962766e-06
2.504918e-05
-2.2917508e-06
2.4668382e-05
-2.278662e-06
2.429003e-05
-2.2558522e-06
2.3915648e-05
-2.2228442e-06
2.354696e-05
-2.1793021e-06
2.318589e-05
-2.1243143e-06
2.2834636e-05
-2.0566743e-06
2.2495497e-05
-1.9752148e-06
2.2171041e-05
-1.8789556e-06
2.1863789e-05
-1.7667981e-06
2.1576451e-05
-1.6380105e-06
2.131343e-05
-1.4908196e-06
2.1077448e-05
-1.3256324e-06
2.087187e-05
-1.1414396e-06
2.070037e-05
-9.375491e-07
2.0566799e-05
-7.1359625e-07
2.0475089e-05
-4.692255e-07
2.0428929e-05
-2.0447971e-07
2.0431918e-05
8.0713373e-08
2.0486164e-05
3.8608057e-07
2.0594603e-05
7.1016475e-07
2.0761085e-05
1.0533629e-06
2.0987104e-05
1.4107142e-06
2.1275684e-05
1.7820788e-06
2.1630105e-05
2.1665871e-06
2.2053088e-05
2.5624414e-06
2.2545779e-05
2.9624861e-06
2.3112855e-05
3.3754238e-06
2.3733862e-05
3.7619961e-06
4.2357758e-06
2.448443e-05
3.4083388e-05
-5.9861929e-08
3.4057008e-05
-8.5939637e-08
3.4027183e-05
-1.1373357e-07
3.3994094e-05
-1.4104004e-07
3.3957826e-05
-1.7086247e-07
3.3918389e-05
-1.9755137e-07
3.3875554e-05
-2.1964777e-07
3.3829668e-05
-2.439497e-07
3.3780699e-05
-2.6714078e-07
3.3728686e-05
-2.8927806e-07
3.3673572e-05
-3.1078854e-07
3.3615457e-05
-3.3197108e-07
3.3554256e-05
-3.5291872e-07
3.349e-05
-3.7363348e-07
3.3422578e-05
-3.9434529e-07
3.3352006e-05
-4.1513372e-07
3.3278188e-05
-4.3613839e-07
3.3201045e-05
-4.5752745e-07
3.3120515e-05
-4.7938914e-07
3.3036499e-05
-5.0202085e-07
3.2948916e-05
-5.2536772e-07
3.2857656e-05
-5.4971296e-07
3.2762631e-05
-5.7513982e-07
3.2663726e-05
-6.0187152e-07
3.2560848e-05
-6.2997679e-07
3.2453896e-05
-6.5939434e-07
3.2342747e-05
-6.900795e-07
3.2227247e-05
-7.2174e-07
3.2107269e-05
-7.5423326e-07
3.1982646e-05
-7.8725903e-07
3.185321e-05
-8.2053179e-07
3.171878e-05
-8.5372303e-07
3.1579269e-05
-8.8681824e-07
3.1434626e-05
-9.1936657e-07
3.1284676e-05
-9.500607e-07
3.112929e-05
-9.8022143e-07
3.0968337e-05
-1.0116227e-06
3.0801776e-05
-1.0399654e-06
3.0629983e-05
-1.062952e-06
3.0452957e-05
-1.0880584e-06
3.0270398e-05
-1.1160663e-06
3.0082194e-05
-1.1411057e-06
2.9888131e-05
-1.1665103e-06
2.9687761e-05
-1.1959084e-06
2.9480907e-05
-1.2237915e-06
2.9267609e-05
-1.254294e-06
2.9047412e-05
-1.2935904e-06
2.882038e-05
-1.3283661e-06
2.858822e-05
-1.3528421e-06
2.8352373e-05
-1.384036e-06
2.8111246e-05
-1.4369748e-06
2.7863708e-05
-1.4944741e-06
2.7610127e-05
-1.5305014e-06
2.7352954e-05
-1.563599e-06
2.7089968e-05
-1.615985e-06
2.6817545e-05
-1.6728605e-06
2.6536017e-05
-1.7114072e-06
2.6249824e-05
-1.7354382e-06
2.5959004e-05
-1.7661723e-06
2.5659301e-05
-1.8078512e-06
2.535124e-05
-1.8415346e-06
2.503887e-05
-1.863344e-06
2.4723097e-05
-1.8833494e-06
2.4402391e-05
-1.9061466e-06
2.4076215e-05
-1.928542e-06
2.3746115e-05
-1.9448701e-06
2.3413495e-05
-1.9547754e-06
2.3079074e-05
-1.959815e-06
2.2743286e-05
-1.9604878e-06
2.2407047e-05
-1.9555085e-06
2.207166e-05
-1.943274e-06
2.1738621e-05
-1.9228098e-06
2.1409368e-05
-1.89359e-06
2.1085379e-05
-1.8553105e-06
2.0768283e-05
-1.8072173e-06
2.0459988e-05
-1.748378e-06
2.01626e-05
-1.677826e-06
1.9878363e-05
-1.5947181e-06
1.9609689e-05
-1.4981245e-06
1.935917e-05
-1.3874919e-06
1.9129678e-05
-1.2613291e-06
1.8923784e-05
-1.1197392e-06
1.8744485e-05
-9.6214024e-07
1.8594833e-05
-7.878972e-07
1.8477952e-05
-5.9671564e-07
1.8397069e-05
-3.8834115e-07
1.8355412e-05
-1.6282198e-07
1.8356642e-05
7.9483976e-08
1.8404393e-05
3.3832952e-07
1.8501985e-05
6.1257445e-07
1.8653122e-05
9.0222459e-07
1.8859254e-05
1.2045843e-06
1.9122682e-05
1.5186459e-06
1.9446212e-05
1.8430487e-06
1.9832594e-05
2.1760487e-06
2.0281897e-05
2.5131714e-06
2.0799817e-05
2.8574824e-06
2.1374822e-05
3.1869695e-06
3.5737893e-06
2.20368e-05
3.0383284e-05
-3.7743895e-08
3.0359777e-05
-6.2450056e-08
3.0333195e-05
-8.7147921e-08
3.0303669e-05
-1.1151178e-07
3.0271347e-05
-1.3856635e-07
3.023627e-05
-1.6247459e-07
3.0198156e-05
-1.8154829e-07
3.0157284e-05
-2.0307946e-07
3.0113671e-05
-2.2352507e-07
3.0067369e-05
-2.4295643e-07
3.0018291e-05
-2.6174127e-07
2.9966511e-05
-2.8019401e-07
2.9911974e-05
-2.9839642e-07
2.9854727e-05
-3.1637907e-07
2.9794649e-05
-3.3429835e-07
2.9731751e-05
-3.5225297e-07
2.9665963e-05
-3.7036074e-07
2.9597207e-05
-3.8878746e-07
2.9525429e-05
-4.0760934e-07
2.9450521e-05
-4.271213e-07
2.9372415e-05
-4.4725367e-07
2.929099e-05
-4.6829485e-07
2.9206184e-05
-4.903199e-07
2.9117883e-05
-5.1356819e-07
2.9026017e-05
-5.38107e-07
2.8930494e-05
-5.6388097e-07
2.8831205e-05
-5.9079543e-07
2.8728009e-05
-6.1855783e-07
2.8620802e-05
-6.4702286e-07
2.8509435e-05
-6.7589773e-07
2.8393782e-05
-7.0488161e-07
2.827371e-05
-7.3365764e-07
2.8149084e-05
-7.6218535e-07
2.8019766e-05
-7.9004151e-07
2.788569e-05
-8.1599497e-07
2.7746714e-05
-8.4125525e-07
2.7602628e-05
-8.6753546e-07
2.7453631e-05
-8.9097421e-07
2.7300147e-05
-9.0946364e-07
2.7141899e-05
-9.2980955e-07
2.6978596e-05
-9.5276047e-07
2.6810348e-05
-9.7286012e-07
2.6636816e-05
-9.9298259e-07
2.6457601e-05
-1.0166936e-06
2.6272923e-05
-1.0391145e-06
2.6082642e-05
-1.0640145e-06
2.5886383e-05
-1.097332e-06
2.5685255e-05
-1.1272353e-06
2.5480798e-05
-1.1483822e-06
2.5273228e-05
-1.1764646e-06
2.5060554e-05
-1.2242998e-06
2.4842405e-05
-1.2763217e-06
2.461967e-05
-1.3077643e-06
2.4392272e-05
-1.3362e-06
2.4157842e-05
-1.3815538e-06
2.3915368e-05
-1.4303821e-06
2.3666312e-05
-1.4623473e-06
2.3412397e-05
-1.4815215e-06
2.3152501e-05
-1.5062752e-06
2.2885163e-05
-1.5405068e-06
2.2612308e-05
-1.5686784e-06
2.233595e-05
-1.5869808e-06
2.2055884e-05
-1.603284e-06
2.1771347e-05
-1.6216049e-06
2.1482505e-05
-1.6396986e-06
2.1190679e-05
-1.6530407e-06
2.0896845e-05
-1.6609402e-06
2.0601501e-05
-1.6644662e-06
2.0305088e-05
-1.6640726e-06
2.0008472e-05
-1.6588888e-06
1.9712819e-05
-1.6476186e-06
1.9419451e-05
-1.6294388e-06
1.9129706e-05
-1.6038431e-06
1.884493e-05
-1.5705319e-06
1.8566652e-05
-1.5289383e-06
1.8296559e-05
-1.4782828e-06
1.8036527e-05
-1.4177949e-06
1.7788558e-05
-1.3467475e-06
1.7554818e-05
-1.2643853e-06
1.7337529e-05
-1.1702029e-06
1.713943e-05
-1.0632319e-06
1.6963029e-05
-9.4333785e-07
1.6811004e-05
-8.1011647e-07
1.6686105e-05
-6.6299811e-07
1.6591193e-05
-5.0180386e-07
1.6529154e-05
-3.2630092e-07
1.6502759e-05
-1.364274e-07
1.6514689e-05
6.7555271e-08
1.6567229e-05
2.8578809e-07
1.6662546e-05
5.1725827e-07
1.6803097e-05
7.6167675e-07
1.6990597e-05
1.0170808e-06
1.7226929e-05
1.2823133e-06
1.7513684e-05
1.5562885e-06
1.7852696e-05
1.8370305e-06
1.8243727e-05
2.1221285e-06
1.8690372e-05
2.4108282e-06
1.9186769e-05
2.6905571e-06
3.0086719e-06
1.9751867e-05
2.708541e-05
-1.7966181e-08
2.7064363e-05
-4.1393947e-08
2.704062e-05
-6.3355525e-08
2.7014329e-05
-8.5204576e-08
2.6985547e-05
-1.0977863e-07
2.6954266e-05
-1.3117187e-07
2.6920268e-05
-1.4755057e-07
2.6883861e-05
-1.6668894e-07
2.684501e-05
-1.8466703e-07
2.6803753e-05
-2.0168125e-07
2.6760036e-05
-2.180424e-07
2.6713947e-05
-2.3410433e-07
2.6665411e-05
-2.4986736e-07
2.6614463e-05
-2.6542028e-07
2.6561004e-05
-2.8085174e-07
2.650505e-05
-2.9630641e-07
2.6446525e-05
-3.1183247e-07
2.6385356e-05
-3.2762245e-07
2.6321503e-05
-3.4375326e-07
2.6254861e-05
-3.604848e-07
2.6185368e-05
-3.7775559e-07
2.6112899e-05
-3.9583207e-07
2.6037404e-05
-4.1481475e-07
2.5958773e-05
-4.3493289e-07
2.5876948e-05
-4.5628078e-07
2.5791839e-05
-4.7877483e-07
2.5703358e-05
-5.0231748e-07
2.5611378e-05
-5.2658485e-07
2.5515807e-05
-5.5144504e-07
2.5416515e-05
-5.7660431e-07
2.5313398e-05
-6.0176578e-07
2.5206343e-05
-6.2660631e-07
2.5095202e-05
-6.5103766e-07
2.4979824e-05
-6.7465749e-07
2.4860298e-05
-6.9647581e-07
2.4736507e-05
-7.174678e-07
2.4607945e-05
-7.3897087e-07
2.4474879e-05
-7.5790928e-07
2.4338142e-05
-7.7272242e-07
2.4197267e-05
-7.8893213e-07
2.4051495e-05
-8.0698864e-07
2.3901265e-05
-8.2262912e-07
2.3746572e-05
-8.3829215e-07
2.3586825e-05
-8.5694466e-07
2.3422715e-05
-8.7500629e-07
2.3254347e-05
-8.9564662e-07
2.3080463e-05
-9.2344852e-07
2.2902623e-05
-9.4939305e-07
2.2723996e-05
-9.6975372e-07
2.2543964e-05
-9.9643012e-07
2.2358017e-05
-1.0383534e-06
2.2164581e-05
-1.0828829e-06
2.1968186e-05
-1.1113693e-06
2.176897e-05
-1.1369825e-06
2.1562001e-05
-1.1745852e-06
2.1345539e-05
-1.2139176e-06
2.1123403e-05
-1.240209e-06
2.0898484e-05
-1.2566019e-06
2.066897e-05
-1.2767626e-06
2.0432239e-05
-1.3037688e-06
2.0190041e-05
-1.3264812e-06
1.9945029e-05
-1.3419634e-06
1.9697288e-05
-1.3555441e-06
1.944591e-05
-1.3702223e-06
1.91907e-05
-1.3844888e-06
1.8932665e-05
-1.3950021e-06
1.8672826e-05
-1.4010996e-06
1.8411807e-05
-1.4034428e-06
1.815007e-05
-1.402334e-06
1.7888305e-05
-1.3971207e-06
1.7627495e-05
-1.3868061e-06
1.7368781e-05
-1.3707219e-06
1.7113372e-05
-1.3484315e-06
1.6862478e-05
-1.3196347e-06
1.6617434e-05
-1.2838927e-06
1.6379711e-05
-1.2405589e-06
1.6150941e-05
-1.1890264e-06
1.5932884e-05
-1.128689e-06
1.5727447e-05
-1.0589491e-06
1.5536637e-05
-9.7939188e-07
1.5362671e-05
-8.8926775e-07
1.5207692e-05
-7.8835931e-07
1.5073999e-05
-6.7642256e-07
1.4963915e-05
-5.5291375e-07
1.4879853e-05
-4.1774097e-07
1.4824248e-05
-2.7069442e-07
1.4799516e-05
-1.1169416e-07
1.4808235e-05
5.8837226e-08
1.4852859e-05
2.4116495e-07
1.493565e-05
4.3446984e-07
1.5058928e-05
6.384009e-07
1.5224322e-05
8.5169361e-07
1.5433424e-05
1.07321e-06
1.5687582e-05
1.3021259e-06
1.5988251e-05
1.5363548e-06
1.6335545e-05
1.7748275e-06
1.6731453e-05
2.0149076e-06
1.7172453e-05
2.2495451e-06
2.5121294e-06
1.7668985e-05
2.4145069e-05
-2.2217959e-10
2.4126342e-05
-2.2663414e-08
2.4105181e-05
-4.2200925e-08
2.4081711e-05
-6.1732559e-08
2.405605e-05
-8.4137778e-08
2.4028217e-05
-1.0333252e-07
2.3997955e-05
-1.1730071e-07
2.3965517e-05
-1.3424884e-07
2.393091e-05
-1.5006148e-07
2.3894182e-05
-1.6493358e-07
2.3855252e-05
-1.7914095e-07
2.3814191e-05
-1.930439e-07
2.3770948e-05
-2.0663731e-07
2.3725569e-05
-2.2003075e-07
2.3677942e-05
-2.332548e-07
2.3628085e-05
-2.4646288e-07
2.3575937e-05
-2.596938e-07
2.3521434e-05
-2.7313399e-07
2.3464538e-05
-2.8685465e-07
2.3405137e-05
-3.0109169e-07
2.3343172e-05
-3.157813e-07
2.3278525e-05
-3.3119242e-07
2.3211158e-05
-3.4743406e-07
2.3140967e-05
-3.6474313e-07
2.3067914e-05
-3.8322038e-07
2.2991899e-05
-4.0277068e-07
2.2912855e-05
-4.232742e-07
2.2830662e-05
-4.4440404e-07
2.2745249e-05
-4.6602746e-07
2.2656486e-05
-4.8784822e-07
2.2564279e-05
-5.0955912e-07
2.246851e-05
-5.308427e-07
2.2369051e-05
-5.5157181e-07
2.2265803e-05
-5.7140256e-07
2.2158802e-05
-5.8948221e-07
2.2047948e-05
-6.0662249e-07
2.1932933e-05
-6.2395343e-07
2.1814004e-05
-6.3898677e-07
2.1691663e-05
-6.5037572e-07
2.1565463e-05
-6.6273101e-07
2.1434942e-05
-6.7646277e-07
2.1300475e-05
-6.8816649e-07
2.1162136e-05
-6.9995532e-07
2.1019727e-05
-7.145363e-07
2.0873931e-05
-7.2920894e-07
2.0724924e-05
-7.4664237e-07
2.0572239e-05
-7.7076229e-07
2.0417057e-05
-7.9420848e-07
2.0260911e-05
-8.1360299e-07
2.0102599e-05
-8.3811838e-07
1.9938994e-05
-8.747464e-07
1.9769328e-05
-9.1321491e-07
1.9596034e-05
-9.3807117e-07
1.9418556e-05
-9.5950328e-07
1.9233985e-05
-9.9001156e-07
1.9041866e-05
-1.0217954e-06
1.8844774e-05
-1.0431118e-06
1.8644398e-05
-1.0562236e-06
1.8439785e-05
-1.0721481e-06
1.8229803e-05
-1.0937795e-06
1.8015563e-05
-1.1122385e-06
1.7798527e-05
-1.1249229e-06
1.757885e-05
-1.1358673e-06
1.7356178e-05
-1.1475449e-06
1.713052e-05
-1.1588297e-06
1.690259e-05
-1.1670675e-06
1.6673109e-05
-1.171617e-06
1.6442619e-05
-1.1729472e-06
1.6211598e-05
-1.1713102e-06
1.5980714e-05
-1.1662321e-06
1.5750819e-05
-1.1569092e-06
1.5522903e-05
-1.1428013e-06
1.5298009e-05
-1.1235355e-06
1.5077229e-05
-1.0988509e-06
1.4861735e-05
-1.0683976e-06
1.465285e-05
-1.0316733e-06
1.4451997e-05
-9.8817413e-07
1.4260747e-05
-9.3743651e-07
1.4080747e-05
-8.7895053e-07
1.3913758e-05
-8.1240194e-07
1.3761713e-05
-7.3722485e-07
1.3626559e-05
-6.5320539e-07
1.3510346e-05
-5.6021009e-07
1.3415124e-05
-4.5769082e-07
1.3343046e-05
-3.4566365e-07
1.329625e-05
-2.2389723e-07
1.3276831e-05
-9.2275019e-08
1.3286983e-05
4.8686335e-08
1.3328547e-05
1.9960073e-07
1.3403195e-05
3.5982226e-07
1.3512635e-05
5.2896203e-07
1.3658264e-05
7.0606363e-07
1.3841421e-05
8.9005481e-07
1.4063224e-05
1.0803211e-06
1.4324685e-05
1.2748896e-06
1.4626162e-05
1.4733438e-06
1.4968698e-05
1.6723668e-06
1.5350878e-05
1.8673521e-06
2.0833022e-06
1.5779697e-05
2.152429e-05
1.561261e-08
2.1507498e-05
-5.8362518e-09
2.1488593e-05
-2.326142e-08
2.1467685e-05
-4.081182e-08
2.1444825e-05
-6.1270322e-08
2.1419994e-05
-7.8476604e-08
2.1392991e-05
-9.0295995e-08
2.1364088e-05
-1.0535909e-07
2.1333247e-05
-1.1921738e-07
2.1300508e-05
-1.3217538e-07
2.1265817e-05
-1.4446879e-07
2.1229255e-05
-1.5648007e-07
2.1190755e-05
-1.6814343e-07
2.1150349e-05
-1.7961263e-07
2.1107946e-05
-1.9086482e-07
2.1063568e-05
-2.0209132e-07
2.1017147e-05
-2.1327193e-07
2.0968636e-05
-2.2462791e-07
2.0918012e-05
-2.3622641e-07
2.0865169e-05
-2.4825372e-07
2.081005e-05
-2.6065668e-07
2.075254e-05
-2.7368901e-07
2.0692598e-05
-2.8748186e-07
2.0630126e-05
-3.0227049e-07
2.0565087e-05
-3.1817633e-07
2.0497379e-05
-3.3506827e-07
2.0426949e-05
-3.5284385e-07
2.0353679e-05
-3.7114072e-07
2.0277511e-05
-3.8985218e-07
2.0198317e-05
-4.0865411e-07
2.0116021e-05
-4.2726236e-07
2.0030506e-05
-4.4533181e-07
1.9941671e-05
-4.6272949e-07
1.9849439e-05
-4.7916342e-07
1.9753861e-05
-4.9390935e-07
1.9654871e-05
-5.0763636e-07
1.9552155e-05
-5.2123275e-07
1.9445855e-05
-5.3268976e-07
1.9336448e-05
-5.4096358e-07
1.9223588e-05
-5.4986977e-07
1.9106943e-05
-5.5981545e-07
1.8986977e-05
-5.6820168e-07
1.8864021e-05
-5.7700107e-07
1.8738111e-05
-5.8862503e-07
1.860999e-05
-6.0108749e-07
1.8479853e-05
-6.1650608e-07
1.8347053e-05
-6.3796204e-07
1.8212219e-05
-6.5937215e-07
1.8076452e-05
-6.7783288e-07
1.7938478e-05
-7.0014402e-07
1.7795182e-05
-7.3144919e-07
1.7645494e-05
-7.6352459e-07
1.7491695e-05
-7.8427044e-07
1.7333927e-05
-8.0173571e-07
1.7169869e-05
-8.2595229e-07
1.6999043e-05
-8.5096687e-07
1.682378e-05
-8.6784525e-07
1.6645901e-05
-8.7834361e-07
1.6464748e-05
-8.9099534e-07
1.6279112e-05
-9.0813754e-07
1.6089809e-05
-9.2293481e-07
1.5898103e-05
-9.3321161e-07
1.5704206e-05
-9.4197108e-07
1.550777e-05
-9.511044e-07
1.5308764e-05
-9.5982308e-07
1.5107782e-05
-9.6608173e-07
1.4905493e-05
-9.6932623e-07
1.4702411e-05
-9.6986076e-07
1.449898e-05
-9.6787706e-07
1.429578e-05
-9.6302738e-07
1.4093556e-05
-9.5468379e-07
1.3893155e-05
-9.4239584e-07
1.3695503e-05
-9.2588044e-07
1.3501554e-05
-9.0489877e-07
1.331233e-05
-8.7917174e-07
1.3128972e-05
-8.4831485e-07
1.2952701e-05
-8.11906e-07
1.27849e-05
-7.6963264e-07
1.2627003e-05
-7.2105514e-07
1.2480522e-05
-6.6591986e-07
1.2347104e-05
-6.0380917e-07
1.2228408e-05
-5.3450811e-07
1.2126167e-05
-4.579694e-07
1.2042087e-05
-3.7360869e-07
1.1977993e-05
-2.8157042e-07
1.1935686e-05
-1.8158845e-07
1.1916951e-05
-7.353873e-08
1.1923769e-05
4.1871452e-08
1.1957827e-05
1.6554305e-07
1.2020767e-05
2.9688445e-07
1.211423e-05
4.3550126e-07
1.2239558e-05
5.8074275e-07
1.2397879e-05
7.3173391e-07
1.259023e-05
8.8796672e-07
1.2817351e-05
1.0477625e-06
1.3079728e-05
1.2109615e-06
1.3377581e-05
1.3745053e-06
1.3710399e-05
1.5345257e-06
1.7117504e-06
1.408194e-05
1.9187669e-05
2.9788744e-08
1.9172721e-05
9.1370609e-09
1.9155862e-05
-6.4170799e-09
1.913719e-05
-2.2135358e-08
1.9116804e-05
-4.0900077e-08
1.9094708e-05
-5.636795e-08
1.9070668e-05
-6.6266013e-08
1.904491e-05
-7.9597499e-08
1.9017436e-05
-9.1747736e-08
1.8988289e-05
-1.0300901e-07
1.89574e-05
-1.1360664e-07
1.8924834e-05
-1.2391249e-07
1.8890549e-05
-1.3386963e-07
1.8854581e-05
-1.4363205e-07
1.8816826e-05
-1.531375e-07
1.877732e-05
-1.625952e-07
1.8736026e-05
-1.7198713e-07
1.8692929e-05
-1.8154368e-07
1.864802e-05
-1.9131502e-07
1.8601174e-05
-2.0141387e-07
1.8552313e-05
-2.1178817e-07
1.8501321e-05
-2.2270242e-07
1.8448159e-05
-2.3430853e-07
1.8392731e-05
-2.4684533e-07
1.8334999e-05
-2.604359e-07
1.8274856e-05
-2.7493572e-07
1.8212249e-05
-2.9023566e-07
1.8147057e-05
-3.0595847e-07
1.8079231e-05
-3.2202194e-07
1.8008635e-05
-3.3806453e-07
1.7935222e-05
-3.5384762e-07
1.7858888e-05
-3.6900351e-07
1.7779558e-05
-3.8339149e-07
1.7697169e-05
-3.9676705e-07
1.761174e-05
-4.0848601e-07
1.7523217e-05
-4.1912127e-07
1.7431338e-05
-4.2935037e-07
1.7336215e-05
-4.375731e-07
1.7238295e-05
-4.4303806e-07
1.7137386e-05
-4.4896052e-07
1.703345e-05
-4.5587207e-07
1.692709e-05
-4.6184765e-07
1.6818764e-05
-4.6867591e-07
1.6708632e-05
-4.7849458e-07
1.6597253e-05
-4.8970516e-07
1.6484601e-05
-5.038566e-07
1.6369917e-05
-5.2327572e-07
1.6253258e-05
-5.4271155e-07
1.6134946e-05
-5.5951474e-07
1.6013673e-05
-5.7887325e-07
1.5887086e-05
-6.0485916e-07
1.5754494e-05
-6.3093144e-07
1.5617686e-05
-6.4745701e-07
1.5476909e-05
-6.6095868e-07
1.533079e-05
-6.7982949e-07
1.5179277e-05
-6.9945156e-07
1.5024139e-05
-7.1269979e-07
1.4866664e-05
-7.208677e-07
1.4706422e-05
-7.3075009e-07
1.4542618e-05
-7.44327e-07
1.4375819e-05
-7.5613293e-07
1.4206883e-05
-7.6427191e-07
1.4035987e-05
-7.710738e-07
1.3862973e-05
-7.7808543e-07
1.3687881e-05
-7.8472901e-07
1.3511182e-05
-7.8937858e-07
1.3333403e-05
-7.9154458e-07
1.3155016e-05
-7.9146928e-07
1.2976434e-05
-7.8929153e-07
1.2798169e-05
-7.8475752e-07
1.2620874e-05
-7.7738656e-07
1.2445281e-05
-7.6679821e-07
1.2272177e-05
-7.5277368e-07
1.2102403e-05
-7.3512185e-07
1.1936865e-05
-7.1363182e-07
1.1776551e-05
-6.8799992e-07
1.1622514e-05
-6.5787047e-07
1.1475926e-05
-6.2304252e-07
1.1338034e-05
-5.831643e-07
1.1210147e-05
-5.3803184e-07
1.109364e-05
-4.8730529e-07
1.0989979e-05
-4.3084654e-07
1.0900708e-05
-3.686984e-07
1.0827265e-05
-3.0016421e-07
1.0771243e-05
-2.2554941e-07
1.0734154e-05
-1.4449777e-07
1.0717529e-05
-5.6913158e-08
1.0723186e-05
3.6215756e-08
1.0752465e-05
1.3626334e-07
1.0806633e-05
2.4271624e-07
1.0886973e-05
3.5516108e-07
1.0994634e-05
4.7308077e-07
1.1130585e-05
5.9578559e-07
1.1295792e-05
7.2275839e-07
1.1490772e-05
8.527789e-07
1.1716151e-05
9.8557676e-07
1.1971739e-05
1.1189141e-06
1.225781e-05
1.248445e-06
1.3935201e-06
1.2576034e-05
1.710498e-05
4.2415205e-08
1.7091567e-05
2.260275e-08
1.7076499e-05
8.6674902e-09
1.7059839e-05
-5.4647992e-09
1.7041657e-05
-2.2712506e-08
1.7021936e-05
-3.6620239e-08
1.7000487e-05
-4.481523e-08
1.6977543e-05
-5.6662256e-08
1.6953074e-05
-6.7280911e-08
1.6927123e-05
-7.7038516e-08
1.6899639e-05
-8.614216e-08
1.6870701e-05
-9.497091e-08
1.6840249e-05
-1.0342453e-07
1.6808315e-05
-1.1168411e-07
1.6774822e-05
-1.1965943e-07
1.6739842e-05
-1.2762035e-07
1.6703397e-05
-1.3554326e-07
1.66655e-05
-1.4365188e-07
1.6626096e-05
-1.5190863e-07
1.658501e-05
-1.6033262e-07
1.6542151e-05
-1.6892411e-07
1.6497412e-05
-1.7796829e-07
1.6450763e-05
-1.8765079e-07
1.6402094e-05
-1.9817691e-07
1.6351356e-05
-2.096914e-07
1.6298422e-05
-2.2200855e-07
1.6243243e-05
-2.3505468e-07
1.6185682e-05
-2.4840361e-07
1.6125693e-05
-2.6202564e-07
1.606316e-05
-2.755342e-07
1.5998041e-05
-2.8872551e-07
1.5930258e-05
-3.0122374e-07
1.5859744e-05
-3.1287114e-07
1.578644e-05
-3.2345566e-07
1.5710345e-05
-3.3239425e-07
1.5631414e-05
-3.4019518e-07
1.5549457e-05
-3.4738869e-07
1.5464661e-05
-3.5277943e-07
1.5377558e-05
-3.5593038e-07
1.5288195e-05
-3.5959756e-07
1.5196738e-05
-3.644103e-07
1.5103849e-05
-3.6896164e-07
1.5009996e-05
-3.7482288e-07
1.4915183e-05
-3.8368221e-07
1.481966e-05
-3.9418019e-07
1.472306e-05
-4.0725769e-07
1.4624319e-05
-4.2453367e-07
1.4523175e-05
-4.4156552e-07
1.4419741e-05
-4.5607643e-07
1.4312959e-05
-4.7209272e-07
1.4200926e-05
-4.9282414e-07
1.4083214e-05
-5.1321807e-07
1.3961634e-05
-5.258729e-07
1.3836713e-05
-5.360384e-07
1.3707404e-05
-5.5051857e-07
1.3573632e-05
-5.6567711e-07
1.343686e-05
-5.7592321e-07
1.3298226e-05
-5.8223307e-07
1.3157381e-05
-5.8990359e-07
1.3013571e-05
-6.005107e-07
1.2867187e-05
-6.0974732e-07
1.2718982e-05
-6.1606322e-07
1.256914e-05
-6.2123205e-07
1.2417538e-05
-6.2647848e-07
1.2264208e-05
-6.3139762e-07
1.2109551e-05
-6.347185e-07
1.1954024e-05
-6.3601579e-07
1.179805e-05
-6.3549005e-07
1.1642005e-05
-6.3324365e-07
1.1486326e-05
-6.2907492e-07
1.1331584e-05
-6.2264225e-07
1.117842e-05
-6.1362961e-07
1.1027512e-05
-6.0186323e-07
1.0879581e-05
-5.8718647e-07
1.0735405e-05
-5.6945442e-07