/*--------------------------------*- C++ -*----------------------------------*\
| =========                 |                                                 |
| \\      /  F ield         | OpenFOAM: The Open Source CFD Toolbox           |
|  \\    /   O peration     | Version:  2406                                  |
|   \\  /    A nd           | Website:  www.openfoam.com                      |
|    \\/     M anipulation  |                                                 |
\*---------------------------------------------------------------------------*/
FoamFile
{
    version     2.0;
    format      ascii;
    arch        "LSB;label=32;scalar=64";
    class       volScalarField;
    location    "55140";
    object      pPrime2Mean;
}
// * * * * * * * * * * * * * * * * * * * * * * * * * * * * * * * * * * * * * //

dimensions      [2 -2 -4 0 0 0 0];

internalField   nonuniform List<scalar> 
94692
(
7.3767389e-08
7.4733807e-08
7.579479e-08
7.6735468e-08
7.8046021e-08
7.976535e-08
8.184368e-08
8.4328886e-08
8.7292048e-08
9.0846284e-08
9.5025004e-08
9.9963312e-08
1.0575245e-07
1.1256234e-07
1.2047611e-07
1.2967932e-07
1.4036864e-07
1.5270092e-07
1.6693885e-07
1.8331091e-07
2.020144e-07
2.2338356e-07
2.4767779e-07
2.7522835e-07
3.0633833e-07
3.4139381e-07
3.8074899e-07
4.2489354e-07
4.7427868e-07
5.2937489e-07
5.9062696e-07
6.5864306e-07
7.3390303e-07
8.170728e-07
9.0867214e-07
1.0093419e-06
1.1198022e-06
1.240657e-06
1.3726155e-06
1.5163369e-06
1.6725703e-06
1.8419789e-06
2.025315e-06
2.2232424e-06
2.4365658e-06
2.6659747e-06
2.9121825e-06
3.1758491e-06
3.457637e-06
3.7581424e-06
4.0779718e-06
4.4175975e-06
4.7775387e-06
5.1581396e-06
5.559721e-06
5.9826605e-06
6.4268995e-06
6.8925004e-06
7.3792894e-06
7.8870886e-06
8.4154418e-06
8.9638234e-06
9.5313934e-06
1.0117332e-05
1.0720517e-05
1.1339503e-05
1.1972841e-05
1.2618706e-05
1.3275073e-05
1.3939551e-05
1.4609659e-05
1.5282513e-05
1.5955213e-05
1.6624471e-05
1.7286772e-05
1.7938448e-05
1.8575597e-05
1.9194017e-05
1.9789534e-05
2.0357641e-05
2.0894039e-05
2.1394173e-05
2.1854003e-05
2.2269884e-05
2.2638178e-05
2.2954852e-05
2.3215871e-05
2.3418623e-05
2.3564331e-05
2.3648653e-05
2.3672051e-05
2.3634647e-05
2.353665e-05
2.3377915e-05
2.3151514e-05
2.285363e-05
2.2488032e-05
2.2066894e-05
2.1590226e-05
7.3645208e-08
7.4734448e-08
7.583878e-08
7.6737799e-08
7.8047044e-08
7.9768026e-08
8.1841397e-08
8.4345323e-08
8.7308756e-08
9.0860636e-08
9.5033855e-08
9.9967657e-08
1.0577856e-07
1.1255493e-07
1.204978e-07
1.2971805e-07
1.4039765e-07
1.5274815e-07
1.6697741e-07
1.8334564e-07
2.0206896e-07
2.2346315e-07
2.4774396e-07
2.752886e-07
3.0641751e-07
3.4145857e-07
3.8086242e-07
4.2502712e-07
4.7442313e-07
5.295417e-07
5.9083311e-07
6.5884265e-07
7.341256e-07
8.1731389e-07
9.0892772e-07
1.0096385e-06
1.1201027e-06
1.2409802e-06
1.373002e-06
1.5167166e-06
1.6729993e-06
1.8424136e-06
2.025768e-06
2.223728e-06
2.4370291e-06
2.6664598e-06
2.9126351e-06
3.1762902e-06
3.4580709e-06
3.7585499e-06
4.0783188e-06
4.417821e-06
4.7776366e-06
5.1581264e-06
5.5595405e-06
5.9822088e-06
6.4261047e-06
6.8913178e-06
7.3776388e-06
7.8849247e-06
8.4126187e-06
8.9601668e-06
9.5266549e-06
1.0111349e-05
1.0713007e-05
1.1330269e-05
1.1961563e-05
1.2605017e-05
1.3258499e-05
1.3919694e-05
1.4585913e-05
1.5254292e-05
1.5921866e-05
1.6585209e-05
1.7240781e-05
1.7884648e-05
1.8512806e-05
1.912102e-05
1.9704931e-05
2.0260417e-05
2.0782872e-05
2.1267422e-05
2.1709204e-05
2.2103766e-05
2.2447323e-05
2.2737283e-05
2.2970118e-05
2.3143211e-05
2.3255416e-05
2.3303977e-05
2.3288796e-05
2.320992e-05
2.3068658e-05
2.2865729e-05
2.259866e-05
2.2270081e-05
2.1894406e-05
2.1494574e-05
2.1091479e-05
7.354177e-08
7.4768806e-08
7.5864127e-08
7.6751365e-08
7.8059472e-08
7.9785731e-08
8.1856677e-08
8.4338145e-08
8.7324746e-08
9.0846119e-08
9.5050771e-08
9.9983841e-08
1.0576924e-07
1.1256808e-07
1.2048638e-07
1.2970277e-07
1.403816e-07
1.5272821e-07
1.6694539e-07
1.833116e-07
2.0202332e-07
2.2337884e-07
2.4766652e-07
2.7519671e-07
3.0627111e-07
3.4128361e-07
3.8065473e-07
4.2474633e-07
4.7408987e-07
5.2911874e-07
5.9034447e-07
6.5827359e-07
7.3345992e-07
8.1651922e-07
9.0800084e-07
1.0085618e-06
1.1188074e-06
1.2394974e-06
1.3712622e-06
1.5147007e-06
1.6706974e-06
1.8397616e-06
2.0227369e-06
2.2202602e-06
2.4331202e-06
2.662015e-06
2.9076364e-06
3.1706832e-06
3.4517482e-06
3.751473e-06
4.0704308e-06
4.4090435e-06
4.767848e-06
5.1472111e-06
5.5475054e-06
5.9688743e-06
6.4113685e-06
6.8750786e-06
7.3597662e-06
7.8652764e-06
8.3910353e-06
8.9364568e-06
9.5007473e-06
1.0083025e-05
1.0682034e-05
1.129645e-05
1.1924562e-05
1.2564615e-05
1.3214408e-05
1.3871565e-05
1.4533421e-05
1.5197094e-05
1.5859503e-05
1.6517162e-05
1.7166495e-05
1.7803556e-05
1.8424295e-05
1.9024293e-05
1.9599252e-05
2.0144787e-05
2.0656158e-05
2.1128672e-05
2.1557517e-05
2.1938254e-05
2.2267053e-05
2.2540808e-05
2.2756641e-05
2.2911732e-05
2.3004225e-05
2.3032284e-05
2.2995855e-05
2.2895347e-05
2.2733263e-05
2.2511901e-05
2.2231514e-05
2.1896432e-05
2.1523732e-05
2.1134121e-05
2.0752633e-05
7.3448084e-08
7.4829956e-08
7.5880221e-08
7.6753307e-08
7.8037708e-08
7.9787003e-08
8.1852582e-08
8.4329856e-08
8.7311206e-08
9.0858932e-08
9.5033641e-08
9.99834e-08
1.057595e-07
1.1254912e-07
1.2045951e-07
1.2969274e-07
1.4035604e-07
1.5268867e-07
1.6687975e-07
1.8322653e-07
2.0190955e-07
2.2326573e-07
2.4751722e-07
2.7500239e-07
3.0607778e-07
3.4103795e-07
3.8034417e-07
4.243857e-07
4.7364449e-07
5.2860689e-07
5.8972011e-07
6.5755604e-07
7.3259776e-07
8.1552389e-07
9.0686533e-07
1.0072187e-06
1.1172595e-06
1.2377278e-06
1.3692017e-06
1.5124159e-06
1.6680654e-06
1.8367813e-06
2.0193425e-06
2.2164271e-06
2.428796e-06
2.6571941e-06
2.9022266e-06
3.1646213e-06
3.4450156e-06
3.7439353e-06
4.0620446e-06
4.3998216e-06
4.7576788e-06
5.1360429e-06
5.5351394e-06
5.9553009e-06
6.3964784e-06
6.8587707e-06
7.341938e-06
7.8458046e-06
8.3698097e-06
8.9134011e-06
9.4756826e-06
1.005578e-05
1.0652532e-05
1.1264474e-05
1.188999e-05
1.252719e-05
1.3173966e-05
1.3827885e-05
1.448624e-05
1.514615e-05
1.5804458e-05
1.6457728e-05
1.7102273e-05
1.7734131e-05
1.8349221e-05
1.8943165e-05
1.9511462e-05
2.0049698e-05
2.0553053e-05
2.1016855e-05
2.1436385e-05
2.1807265e-05
2.2125577e-05
2.2388005e-05
2.2591941e-05
2.273433e-05
2.2813604e-05
2.2827805e-05
2.2777266e-05
2.2662872e-05
2.2488095e-05
2.2255846e-05
2.196796e-05
2.1630084e-05
2.1260463e-05
2.0879872e-05
2.0516495e-05
7.3360068e-08
7.4842984e-08
7.5904745e-08
7.6744409e-08
7.8052291e-08
7.9806501e-08
8.1867619e-08
8.43417e-08
8.7320269e-08
9.0863815e-08
9.5037647e-08
9.9951917e-08
1.0575359e-07
1.1253903e-07
1.2047534e-07
1.2967315e-07
1.4032744e-07
1.5265054e-07
1.66828e-07
1.8319456e-07
2.0185406e-07
2.2319464e-07
2.473874e-07
2.7487544e-07
3.0588973e-07
3.40809e-07
3.80065e-07
4.2405584e-07
4.7328149e-07
5.2817398e-07
5.8920468e-07
6.5695073e-07
7.3188289e-07
8.1468784e-07
9.0589015e-07
1.0060843e-06
1.115937e-06
1.2362089e-06
1.367465e-06
1.5104361e-06
1.6657732e-06
1.8341721e-06
2.0163902e-06
2.213132e-06
2.4250757e-06
2.6530118e-06
2.8975533e-06
3.1593986e-06
3.43916e-06
3.7374571e-06
4.0549011e-06
4.3918382e-06
4.7488644e-06
5.1263176e-06
5.5244831e-06
5.9435601e-06
6.3836162e-06
6.8447294e-06
7.3265983e-06
7.8290604e-06
8.3515769e-06
8.89356e-06
9.4541538e-06
1.0032469e-05
1.0627248e-05
1.123713e-05
1.1860443e-05
1.2495334e-05
1.3139592e-05
1.3790813e-05
1.4446351e-05
1.5103234e-05
1.575829e-05
1.6408006e-05
1.7048785e-05
1.7676604e-05
1.828731e-05
1.8876531e-05
1.943976e-05
1.9972452e-05
2.0469861e-05
2.0927345e-05
2.1340079e-05
2.1703819e-05
2.2014484e-05
2.2268779e-05
2.2464099e-05
2.2597573e-05
2.2667519e-05
2.2672311e-05
2.2612289e-05
2.2488792e-05
2.2305894e-05
2.2066866e-05
2.1774416e-05
2.1435066e-05
2.106805e-05
2.0695424e-05
2.0348016e-05
7.3243428e-08
7.4882095e-08
7.5947586e-08
7.6754638e-08
7.8040692e-08
7.9785049e-08
8.1871944e-08
8.4319171e-08
8.731615e-08
9.0856009e-08
9.5025093e-08
9.9964075e-08
1.0572605e-07
1.1251292e-07
1.2043376e-07
1.2965296e-07
1.4027214e-07
1.5260252e-07
1.6675996e-07
1.8310809e-07
2.0173994e-07
2.230581e-07
2.4724551e-07
2.7470043e-07
3.0569686e-07
3.4056945e-07
3.7976726e-07
4.2372653e-07
4.7284388e-07
5.2768319e-07
5.8861525e-07
6.5625535e-07
7.3109234e-07
8.1379047e-07
9.0483639e-07
1.0048837e-06
1.114552e-06
1.234621e-06
1.3656199e-06
1.5083623e-06
1.6634204e-06
1.8315152e-06
2.0133833e-06
2.2096812e-06
2.4212493e-06
2.6486956e-06
2.892733e-06
3.154063e-06
3.4332154e-06
3.7308589e-06
4.0475535e-06
4.3837615e-06
4.7399476e-06
5.1165164e-06
5.5137007e-06
5.9317598e-06
6.3707105e-06
6.8306223e-06
7.3112133e-06
7.8123149e-06
8.3334075e-06
8.8738979e-06
9.4328633e-06
1.0009527e-05
1.0602519e-05
1.1210512e-05
1.1831797e-05
1.2464609e-05
1.3106679e-05
1.3755564e-05
1.4408647e-05
1.5062917e-05
1.5715252e-05
1.6362111e-05
1.6999866e-05
1.7624477e-05
1.8231793e-05
1.8817414e-05
1.9376888e-05
1.9905534e-05
2.0398689e-05
2.0851591e-05
2.1259639e-05
2.1618472e-05
2.1924077e-05
2.2173081e-05
2.2362822e-05
2.2490659e-05
2.2554689e-05
2.2553658e-05
2.2487809e-05
2.2358786e-05
2.2170947e-05
2.192798e-05
2.163325e-05
2.129423e-05
2.0930664e-05
2.0565459e-05
2.022973e-05
7.3160425e-08
7.4919659e-08
7.5978292e-08
7.6737252e-08
7.8045638e-08
7.978596e-08
8.1868609e-08
8.4312864e-08
8.7305432e-08
9.0844458e-08
9.5007507e-08
9.9941048e-08
1.0572699e-07
1.1249937e-07
1.2042433e-07
1.2960645e-07
1.4024407e-07
1.5256304e-07
1.667028e-07
1.8303835e-07
2.0168039e-07
2.2297696e-07
2.4713723e-07
2.745287e-07
3.0552034e-07
3.4035295e-07
3.7950254e-07
4.2340671e-07
4.7245902e-07
5.272269e-07
5.8811057e-07
6.5565702e-07
7.3038763e-07
8.1296924e-07
9.0387919e-07
1.0038017e-06
1.1132946e-06
1.2331446e-06
1.3639511e-06
1.506459e-06
1.6612503e-06
1.8290826e-06
2.0106156e-06
2.2065899e-06
2.4177271e-06
2.6448046e-06
2.8883641e-06
3.1491415e-06
3.4278019e-06
3.7248375e-06
4.0408681e-06
4.3763902e-06
4.7318489e-06
5.1075517e-06
5.5038745e-06
5.921021e-06
6.3589713e-06
6.8177849e-06
7.2972571e-06
7.7971614e-06
8.31697e-06
8.8560723e-06
9.4136441e-06
9.9887487e-06
1.0580189e-05
1.1186498e-05
1.1806115e-05
1.2437053e-05
1.3077186e-05
1.372414e-05
1.4375144e-05
1.5027296e-05
1.5677402e-05
1.6321946e-05
1.6957294e-05
1.7579372e-05
1.8184083e-05
1.8767004e-05
1.9323652e-05
1.9849339e-05
2.033946e-05
2.0789208e-05
2.1194052e-05
2.1549557e-05
2.1851791e-05
2.2097372e-05
2.2283661e-05
2.2408023e-05
2.2468551e-05
2.2464092e-05
2.239497e-05
2.226288e-05
2.2072481e-05
2.1827753e-05
2.1532437e-05
2.1194729e-05
2.083469e-05
2.0475836e-05
2.0148624e-05
7.3092723e-08
7.4958379e-08
7.5973865e-08
7.6736472e-08
7.8044371e-08
7.977993e-08
8.1858396e-08
8.4323019e-08
8.7316072e-08
9.0851855e-08
9.5012979e-08
9.9940487e-08
1.0571897e-07
1.1248474e-07
1.2040412e-07
1.2957718e-07
1.4020294e-07
1.5251357e-07
1.6665714e-07
1.8298281e-07
2.0156789e-07
2.2287542e-07
2.4700361e-07
2.7439345e-07
3.0531747e-07
3.4010341e-07
3.7923543e-07
4.2308141e-07
4.7210027e-07
5.2678595e-07
5.8755465e-07
6.5504076e-07
7.2966394e-07
8.1215446e-07
9.0292958e-07
1.0027254e-06
1.1119988e-06
1.2317213e-06
1.3623045e-06
1.5045778e-06
1.65913e-06
1.826697e-06
2.0078938e-06
2.2035452e-06
2.4142903e-06
2.6409428e-06
2.884064e-06
3.1443934e-06
3.4224663e-06
3.7189366e-06
4.0343806e-06
4.3691949e-06
4.723936e-06
5.0988951e-06
5.494354e-06
5.9105993e-06
6.3476301e-06
6.8054318e-06
7.2838156e-06
7.7825694e-06
8.3011731e-06
8.8390047e-06
9.3952818e-06
9.9690469e-06
1.055903e-05
1.116384e-05
1.1781869e-05
1.2411189e-05
1.3049664e-05
1.3694866e-05
1.4344118e-05
1.4994472e-05
1.5642666e-05
1.628531e-05
1.6918687e-05
1.7538798e-05
1.8141499e-05
1.872238e-05
1.9276989e-05
1.9800625e-05
2.0288639e-05
2.0736274e-05
2.1139035e-05
2.1492545e-05
2.1792784e-05
2.2036488e-05
2.2220952e-05
2.2343569e-05
2.2402355e-05
2.2396377e-05
2.232585e-05
2.2192521e-05
2.2001202e-05
2.1756025e-05
2.1461106e-05
2.112537e-05
2.0768918e-05
2.0415745e-05
2.0095018e-05
7.3013497e-08
7.498806e-08
7.5985798e-08
7.6754324e-08
7.8038769e-08
7.9798077e-08
8.1874648e-08
8.4313224e-08
8.7296385e-08
9.0858007e-08
9.5013313e-08
9.9937465e-08
1.0570913e-07
1.1246879e-07
1.2038341e-07
1.2954854e-07
1.4018566e-07
1.5246279e-07
1.66593e-07
1.8290296e-07
2.0149953e-07
2.2275721e-07
2.4688836e-07
2.7421963e-07
3.051429e-07
3.3992009e-07
3.7897703e-07
4.2276802e-07
4.717265e-07
5.2638173e-07
5.8707788e-07
6.5447515e-07
7.2899876e-07
8.1141709e-07
9.020681e-07
1.001724e-06
1.1108709e-06
1.2304237e-06
1.3608052e-06
1.5028706e-06
1.6572115e-06
1.8244794e-06
2.0054155e-06
2.2007719e-06
2.4112017e-06
2.637469e-06
2.880156e-06
3.140071e-06
3.4176435e-06
3.7136113e-06
4.0284654e-06
4.3626878e-06
4.7167745e-06
5.0910463e-06
5.4857296e-06
5.9011804e-06
6.337324e-06
6.7942213e-06
7.2716755e-06
7.7694099e-06
8.2869366e-06
8.823636e-06
9.378724e-06
9.9512053e-06
1.0539945e-05
1.114342e-05
1.1760093e-05
1.2387987e-05
1.3025041e-05
1.3668756e-05
1.4316471e-05
1.4965285e-05
1.5611974e-05
1.6253067e-05
1.6884909e-05
1.750348e-05
1.8104626e-05
1.8684008e-05
1.9237102e-05
1.9759297e-05
2.0245875e-05
2.0692177e-05
2.109372e-05
2.1446052e-05
2.1745283e-05
2.1988104e-05
2.2171801e-05
2.2293806e-05
2.2352144e-05
2.2345833e-05
2.2275208e-05
2.214183e-05
2.1950703e-05
2.1705979e-05
2.1412179e-05
2.1078668e-05
2.0725474e-05
2.0377141e-05
2.0061205e-05
7.2974093e-08
7.5036943e-08
7.5998451e-08
7.6745899e-08
7.8028281e-08
7.9784442e-08
8.1855477e-08
8.4322201e-08
8.730089e-08
9.0828809e-08
9.4984458e-08
9.9930371e-08
1.0569496e-07
1.124487e-07
1.2035847e-07
1.2954505e-07
1.4015249e-07
1.5243542e-07
1.6655191e-07
1.828513e-07
2.0139731e-07
2.2266318e-07
2.4676912e-07
2.7410585e-07
3.0498969e-07
3.3970058e-07
3.7874305e-07
4.2248792e-07
4.7138783e-07
5.2597879e-07
5.8663032e-07
6.5394949e-07
7.2837625e-07
8.1068932e-07
9.0124382e-07
1.0007448e-06
1.1097649e-06
1.2291602e-06
1.3593697e-06
1.5012683e-06
1.655367e-06
1.8223959e-06
2.0030824e-06
2.1981294e-06
2.4082163e-06
2.634151e-06
2.8764736e-06
3.1359487e-06
3.4130795e-06
3.7085315e-06
4.0228669e-06
4.356524e-06
4.7100053e-06
5.0835915e-06
5.4776044e-06
5.8922712e-06
6.3276149e-06
6.7836657e-06
7.2602311e-06
7.7570156e-06
8.273542e-06
8.8092631e-06
9.3631841e-06
9.9346042e-06
1.0522173e-05
1.1124462e-05
1.1739885e-05
1.2366526e-05
1.3002309e-05
1.3644702e-05
1.4291161e-05
1.4938649e-05
1.5584041e-05
1.6223872e-05
1.6854399e-05
1.747176e-05
1.807173e-05
1.8649976e-05
1.9202055e-05
1.9723249e-05
2.0208979e-05
2.0654528e-05
2.1055409e-05
2.1407248e-05
2.1706246e-05
2.1948984e-05
2.2132707e-05
2.2254952e-05
2.2313729e-05
2.2308077e-05
2.2238204e-05
2.210563e-05
2.1915488e-05
2.1671796e-05
2.1379471e-05
2.1048311e-05
2.0698182e-05
2.0353974e-05
2.0041606e-05
7.290034e-08
7.5033052e-08
7.5998899e-08
7.6737757e-08
7.8046045e-08
7.9795252e-08
8.1864918e-08
8.42987e-08
8.7301696e-08
9.0829178e-08
9.4981439e-08
9.9922519e-08
1.0568051e-07
1.1242908e-07
1.2033419e-07
1.2951419e-07
1.4011198e-07
1.5238929e-07
1.664896e-07
1.827739e-07
2.0133396e-07
2.2258221e-07
2.4665621e-07
2.7397531e-07
3.0482865e-07
3.3950481e-07
3.7851122e-07
4.2220753e-07
4.710898e-07
5.2562316e-07
5.862074e-07
6.5345706e-07
7.2782873e-07
8.1001501e-07
9.0049324e-07
9.9987259e-07
1.1087505e-06
1.2280365e-06
1.3580766e-06
1.4997907e-06
1.6537114e-06
1.8205088e-06
2.0009677e-06
2.1957098e-06
2.4055551e-06
2.631166e-06
2.8731258e-06
3.1322068e-06
3.4089468e-06
3.7039628e-06
4.0177994e-06
4.3509153e-06
4.7038581e-06
5.076854e-06
5.4702361e-06
5.8842403e-06
6.3188606e-06
6.7741591e-06
7.2498798e-06
7.7458153e-06
8.2614872e-06
8.796234e-06
9.3492618e-06
9.9196378e-06
1.0506159e-05
1.1107403e-05
1.1721731e-05
1.2347284e-05
1.2981919e-05
1.3623202e-05
1.4268522e-05
1.4914906e-05
1.5559211e-05
1.6197979e-05
1.6827552e-05
1.7443901e-05
1.8043003e-05
1.8620424e-05
1.9171778e-05
1.9692378e-05
2.0177592e-05
2.0622773e-05
2.1023484e-05
2.1375296e-05
2.1674488e-05
2.1917665e-05
2.2101909e-05
2.2224898e-05
2.22847e-05
2.2280373e-05
2.2211764e-05
2.208053e-05
2.1891751e-05
2.1649543e-05
2.1358905e-05
2.1030101e-05
2.0682616e-05
2.0341762e-05
2.0031885e-05
7.2846003e-08
7.5075036e-08
7.6023422e-08
7.6752649e-08
7.8029209e-08
7.9804242e-08
8.1869009e-08
8.4302475e-08
8.7301488e-08
9.0826775e-08
9.4973815e-08
9.9912227e-08
1.0566411e-07
1.124098e-07
1.2030812e-07
1.2948141e-07
1.4009191e-07
1.5236507e-07
1.6645447e-07
1.8272988e-07
2.0126919e-07
2.2250355e-07
2.4655423e-07
2.7384913e-07
3.0467397e-07
3.3931753e-07
3.7831436e-07
4.2197418e-07
4.7080464e-07
5.252858e-07
5.8581013e-07
6.5298607e-07
7.2730886e-07
8.0940823e-07
8.9978979e-07
9.9905015e-07
1.1078002e-06
1.2269427e-06
1.3568561e-06
1.498396e-06
1.6521227e-06
1.8187751e-06
1.9989622e-06
2.1934766e-06
2.4030343e-06
2.6283324e-06
2.8699908e-06
3.1287008e-06
3.4050802e-06
3.6997032e-06
4.0131016e-06
4.3457547e-06
4.6981196e-06
5.0705792e-06
5.4633835e-06
5.8767673e-06
6.3107374e-06
6.7653281e-06
7.2403186e-06
7.7354778e-06
8.2503321e-06
8.7842277e-06
9.3363602e-06
9.9058384e-06
1.0491449e-05
1.1091719e-05
1.1705078e-05
1.2329678e-05
1.2963277e-05
1.3603583e-05
1.4247925e-05
1.4893373e-05
1.553675e-05
1.6174635e-05
1.6803375e-05
1.7418956e-05
1.8017361e-05
1.8594219e-05
1.9145077e-05
1.9665305e-05
2.0150296e-05
2.0595415e-05
2.0996264e-05
2.1348405e-05
2.1648169e-05
2.1892117e-05
2.2077269e-05
2.220141e-05
2.2262708e-05
2.2260115e-05
2.2193035e-05
2.2063473e-05
2.1876454e-05
2.1635865e-05
2.1347037e-05
2.1020475e-05
2.067529e-05
2.0337148e-05
2.0028895e-05
7.279859e-08
7.5086132e-08
7.6014047e-08
7.6744825e-08
7.8041908e-08
7.9783733e-08
8.1845959e-08
8.4306071e-08
8.7301184e-08
9.0824074e-08
9.4970329e-08
9.9902309e-08
1.0564882e-07
1.12417e-07
1.2031649e-07
1.2948403e-07
1.4006402e-07
1.5232306e-07
1.664213e-07
1.8269292e-07
2.0121692e-07
2.2243561e-07
2.464661e-07
2.737388e-07
3.0454123e-07
3.3918549e-07
3.781209e-07
4.2176369e-07
4.7055714e-07
5.2498927e-07
5.8545674e-07
6.5256918e-07
7.2681859e-07
8.0883736e-07
8.9915554e-07
9.9832109e-07
1.1069818e-06
1.2260077e-06
1.3557736e-06
1.4971566e-06
1.650705e-06
1.8171621e-06
1.9971712e-06
2.19145e-06
2.4007866e-06
2.6258132e-06
2.867156e-06
3.125613e-06
3.4016288e-06
3.6958522e-06
4.0088369e-06
4.3410837e-06
4.6929904e-06
5.0649403e-06
5.4572186e-06
5.87001e-06
6.3034026e-06
6.7573604e-06
7.2316815e-06
7.7261491e-06
8.2402387e-06
8.7733828e-06
9.3247568e-06
9.8934216e-06
1.047818e-05
1.10776e-05
1.1690092e-05
1.2313802e-05
1.2946596e-05
1.3586012e-05
1.4229533e-05
1.487416e-05
1.5516776e-05
1.6153896e-05
1.6781967e-05
1.7396939e-05
1.7994853e-05
1.8571256e-05
1.9121853e-05
1.9641896e-05
2.0126901e-05
2.057215e-05
2.0973271e-05
2.1325973e-05
2.1626541e-05
2.1871441e-05
2.2057684e-05
2.2183172e-05
2.2246332e-05
2.224553e-05
2.2180114e-05
2.2052402e-05
2.1867376e-05
2.162849e-05
2.1341539e-05
2.1017075e-05
2.0673857e-05
2.0337767e-05
2.0030259e-05
7.2744691e-08
7.5119857e-08
7.6028495e-08
7.6751616e-08
7.8043149e-08
7.9788914e-08
8.1848616e-08
8.4306714e-08
8.7269985e-08
9.0819496e-08
9.4962887e-08
9.9890404e-08
1.0563127e-07
1.123965e-07
1.2029072e-07
1.2945385e-07
1.4002626e-07
1.5229905e-07
1.6637089e-07
1.8262467e-07
2.0113686e-07
2.2237042e-07
2.4638169e-07
2.7363153e-07
3.0441199e-07
3.3902899e-07
3.7796097e-07
4.2154719e-07
4.7029468e-07
5.2468206e-07
5.8512488e-07
6.5220892e-07
7.263628e-07
8.083386e-07
8.9857517e-07
9.9764578e-07
1.1062029e-06
1.2251065e-06
1.354766e-06
1.4960034e-06
1.6493961e-06
1.8156731e-06
1.9954822e-06
2.1896194e-06
2.3986807e-06
2.6234726e-06
2.8645476e-06
3.1226963e-06
3.3984087e-06
3.6922893e-06
4.0049177e-06
4.3367794e-06
4.6882809e-06
5.0597565e-06
5.4515257e-06
5.863817e-06
6.2966716e-06
6.750029e-06
7.2237482e-06
7.7176288e-06
8.2310141e-06
8.7634725e-06
9.3141387e-06
9.8820577e-06
1.0466073e-05
1.1064715e-05
1.1676475e-05
1.2299396e-05
1.2931407e-05
1.3570081e-05
1.4212853e-05
1.4856763e-05
1.5498708e-05
1.6135217e-05
1.67627e-05
1.737724e-05
1.7974728e-05
1.8550876e-05
1.9101277e-05
1.9621323e-05
2.0106421e-05
2.0551949e-05
2.095357e-05
2.1306911e-05
2.1608381e-05
2.1854416e-05
2.2041867e-05
2.2168946e-05
2.2234171e-05
2.2235096e-05
2.2171446e-05
2.204572e-05
2.1862675e-05
2.1625625e-05
2.1340516e-05
2.1018064e-05
2.0676525e-05
2.0341805e-05
2.0034204e-05
7.2701863e-08
7.5152083e-08
7.6043605e-08
7.6740415e-08
7.8030035e-08
7.9791974e-08
8.1851804e-08
8.4307262e-08
8.7266581e-08
9.0815306e-08
9.4956887e-08
9.9881579e-08
1.0561928e-07
1.1238127e-07
1.2027001e-07
1.294265e-07
1.4001449e-07
1.5226808e-07
1.6634625e-07
1.8259776e-07
2.0109395e-07
2.222873e-07
2.4631162e-07
2.7354296e-07
3.0430184e-07
3.3889432e-07
3.7779846e-07
4.2137985e-07
4.7009529e-07
5.244446e-07
5.848354e-07
6.5187102e-07
7.2596437e-07
8.0787456e-07
8.9803665e-07
9.9705063e-07
1.1055085e-06
1.2243091e-06
1.3538555e-06
1.4949934e-06
1.648238e-06
1.8143535e-06
1.9939896e-06
2.1879252e-06
2.3968112e-06
2.6213765e-06
2.8622297e-06
3.1201007e-06
3.3955136e-06
3.6891106e-06
4.0014275e-06
4.3328717e-06
4.6840115e-06
5.055099e-06
5.446416e-06
5.8582471e-06
6.2905866e-06
6.7434391e-06
7.2166669e-06
7.7099008e-06
8.2227449e-06
8.7545871e-06
9.3045839e-06
9.8718823e-06
1.0455227e-05
1.1053188e-05
1.1664257e-05
1.2286485e-05
1.291779e-05
1.3555842e-05
1.4197954e-05
1.4841264e-05
1.5482617e-05
1.6118614e-05
1.6745674e-05
1.7359792e-05
1.7957033e-05
1.8532966e-05
1.908326e-05
1.9603371e-05
2.0088683e-05
2.05346e-05
2.093679e-05
2.1290888e-05
2.159332e-05
2.1840501e-05
2.202924e-05
2.2157872e-05
2.2225142e-05
2.2227858e-05
2.2165944e-05
2.2042234e-05
2.1861119e-05
2.1625849e-05
2.1342636e-05
2.1022026e-05
2.0681944e-05
2.0348174e-05
2.0039773e-05
7.2669788e-08
7.5151875e-08
7.6025932e-08
7.6747432e-08
7.8034986e-08
7.9793288e-08
8.1852285e-08
8.4307403e-08
8.7264131e-08
9.0809913e-08
9.4947865e-08
9.9869337e-08
1.0560369e-07
1.1236373e-07
1.2027018e-07
1.2939919e-07
1.399894e-07
1.5224833e-07
1.6630222e-07
1.8253707e-07
2.0102446e-07
2.2223155e-07
2.4620978e-07
2.7345715e-07
3.0419538e-07
3.3876489e-07
3.7764631e-07
4.2119443e-07
4.6987576e-07
5.2418605e-07
5.8453735e-07
6.5152457e-07
7.2559148e-07
8.0743567e-07
8.9752961e-07
9.9646562e-07
1.1048393e-06
1.223574e-06
1.3530033e-06
1.4940249e-06
1.6471389e-06
1.8131055e-06
1.9926095e-06
2.1863648e-06
2.3950618e-06
2.6194463e-06
2.8600623e-06
3.1176911e-06
3.3928624e-06
3.6861588e-06
3.9981574e-06
4.329301e-06
4.6800724e-06
5.0507978e-06
5.4417063e-06
5.8531367e-06
6.2850011e-06
6.7374022e-06
7.2101155e-06
7.7028475e-06
8.2151203e-06
8.7464424e-06
9.29587e-06
9.8625414e-06
1.0445292e-05
1.1042637e-05
1.1653095e-05
1.2274706e-05
1.2905489e-05
1.3542897e-05
1.4184442e-05
1.4827213e-05
1.5468057e-05
1.6103641e-05
1.6730302e-05
1.7344139e-05
1.7941138e-05
1.8516932e-05
1.9067274e-05
1.9587524e-05
2.0073106e-05
2.0519473e-05
2.0922223e-05
2.1277163e-05
2.1580595e-05
2.182893e-05
2.2018982e-05
2.2149203e-05
2.221851e-05
2.2222834e-05
2.2162724e-05
2.2041046e-05
2.1861809e-05
2.1628338e-05
2.1346926e-05
2.1028059e-05
2.0689238e-05
2.0355866e-05
2.0045939e-05
7.2673732e-08
7.515357e-08
7.603366e-08
7.6754314e-08
7.8044721e-08
7.9801058e-08
8.1856435e-08
8.4308392e-08
8.7262854e-08
9.0806626e-08
9.494263e-08
9.9862036e-08
1.0561856e-07
1.1235083e-07
1.2026042e-07
1.294077e-07
1.3998534e-07
1.5222619e-07
1.6628838e-07
1.8252221e-07
2.0099915e-07
2.2216496e-07
2.4615937e-07
2.7339089e-07
3.0411136e-07
3.386621e-07
3.7751967e-07
4.210465e-07
4.6969232e-07
5.2400104e-07
5.8431548e-07
6.5125894e-07
7.2527579e-07
8.0706251e-07
8.9709183e-07
9.9599505e-07
1.1042516e-06
1.222898e-06
1.3522321e-06
1.4931725e-06
1.6461953e-06
1.8120302e-06
1.9913825e-06
2.1849846e-06
2.3935019e-06
2.617722e-06
2.8581356e-06
3.1155567e-06
3.3904517e-06
3.6835191e-06
3.9952236e-06
4.3260906e-06
4.6765679e-06
5.0469366e-06
5.4374933e-06
5.848514e-06
6.2799977e-06
6.7319869e-06
7.2041777e-06
7.6964791e-06
8.2082412e-06
8.7390802e-06
9.287942e-06
9.8541048e-06
1.0436268e-05
1.1033141e-05
1.164298e-05
1.2264081e-05
1.2894264e-05
1.3531206e-05
1.4172218e-05
1.4814554e-05
1.5454945e-05
1.6090205e-05
1.671648e-05
1.7330117e-05
1.7926888e-05
1.8502716e-05
1.9053e-05
1.9573463e-05
2.0059416e-05
2.0506259e-05
2.090955e-05
2.126539e-05
2.1569766e-05
2.1819311e-05
2.2010662e-05
2.2142405e-05
2.221375e-05
2.2219598e-05
2.2161242e-05
2.2041554e-05
2.1864184e-05
2.1632476e-05
2.1352841e-05
2.1035641e-05
2.0697952e-05
2.0364669e-05
2.0053063e-05
7.2629204e-08
7.5183068e-08
7.6044531e-08
7.6761087e-08
7.8045994e-08
7.9772051e-08
8.1853921e-08
8.4304748e-08
8.7257698e-08
9.0799729e-08
9.4960532e-08
9.9850646e-08
1.0560423e-07
1.1236019e-07
1.202393e-07
1.293824e-07
1.3995548e-07
1.5219052e-07
1.6625263e-07
1.8247143e-07
2.0093905e-07
2.2212374e-07
2.4610861e-07
2.7329161e-07
3.0402566e-07
3.3856017e-07
3.7739893e-07
4.208967e-07
4.6951931e-07
5.2379677e-07
5.840755e-07
6.509789e-07
7.2494989e-07
8.0672162e-07
8.966945e-07
9.9549693e-07
1.1037163e-06
1.2222826e-06
1.3515254e-06
1.4923682e-06
1.6452763e-06
1.8110185e-06
1.9902395e-06
2.1836901e-06
2.3920554e-06
2.6161053e-06
2.856327e-06
3.1135691e-06
3.3882395e-06
3.681061e-06
3.9925442e-06
4.3231261e-06
4.673298e-06
5.0433385e-06
5.4335929e-06
5.8442566e-06
6.2753787e-06
6.7269533e-06
7.1987574e-06
7.6905945e-06
8.2019182e-06
8.73229e-06
9.2806854e-06
9.8463394e-06
1.0427997e-05
1.1024415e-05
1.1633682e-05
1.225436e-05
1.2883949e-05
1.3520462e-05
1.4160971e-05
1.480293e-05
1.5442904e-05
1.6077865e-05
1.6703846e-05
1.731731e-05
1.7913884e-05
1.8489747e-05
1.9040101e-05
1.9560734e-05
2.0047031e-05
2.0494436e-05
2.0898322e-05
2.1255031e-05
2.1560438e-05
2.1811142e-05
2.2003876e-05
2.2136993e-05
2.2210399e-05
2.2217836e-05
2.2161243e-05
2.2043524e-05
2.1867991e-05
2.1638124e-05
2.1360218e-05
2.1044614e-05
2.0708163e-05
2.0374669e-05
2.0060342e-05
7.2582625e-08
7.5197069e-08
7.6042099e-08
7.6755136e-08
7.8057072e-08
7.9782772e-08
8.1861013e-08
8.4312373e-08
8.7264053e-08
9.0804692e-08
9.4964205e-08
9.9853034e-08
1.0561175e-07
1.1236123e-07
1.2023616e-07
1.2937962e-07
1.3995763e-07
1.5220363e-07
1.6626202e-07
1.824823e-07
2.0094433e-07
2.2212215e-07
2.4606599e-07
2.7327276e-07
3.0399597e-07
3.3851825e-07
3.7734277e-07
4.2083015e-07
4.6946471e-07
5.2371733e-07
5.839417e-07
6.5085791e-07
7.247961e-07
8.0654363e-07
8.9647897e-07
9.9526574e-07
1.103425e-06
1.2219455e-06
1.3511292e-06
1.4919387e-06
1.6447416e-06
1.8104325e-06
1.9895698e-06
2.1829234e-06
2.39117e-06
2.6151404e-06
2.8552304e-06
3.1123693e-06
3.3869226e-06
3.6795417e-06
3.9908449e-06
4.3212717e-06
4.6712673e-06
5.0411214e-06
5.4311337e-06
5.8415888e-06
6.2724361e-06
6.7237175e-06
7.1953031e-06
7.6868605e-06
8.1978632e-06
8.7279247e-06
9.2759962e-06
9.8413407e-06
1.0422653e-05
1.1018746e-05
1.1627706e-05
1.2248041e-05
1.2877278e-05
1.351344e-05
1.4153641e-05
1.479533e-05
1.5435061e-05
1.6069718e-05
1.669557e-05
1.7308903e-05
1.7905377e-05
1.8481235e-05
1.9031699e-05
1.9552465e-05
2.0039065e-05
2.0486827e-05
2.0891242e-05
2.124855e-05
2.155464e-05
2.1806221e-05
2.1999955e-05
2.2134385e-05
2.2209095e-05
2.2217319e-05
2.2162113e-05
2.2045455e-05
2.1871217e-05
2.1642682e-05
2.1366055e-05
2.105165e-05
2.0716205e-05
2.0381754e-05
2.0065119e-05
1.990619e-05
1.9905772e-05
1.9901112e-05
1.9897234e-05
1.9894861e-05
1.9892743e-05
1.9892206e-05
1.9894008e-05
1.9899604e-05
1.9910764e-05
1.9930014e-05
1.9960858e-05
2.0007395e-05
2.0075644e-05
2.0172161e-05
2.0306075e-05
2.0482408e-05
2.0724974e-05
2.1028062e-05
1.9692026e-05
1.9685675e-05
1.9769595e-05
1.9679743e-05
1.9678142e-05
1.9677273e-05
1.967833e-05
1.9681678e-05
1.968844e-05
1.9699747e-05
1.9717361e-05
1.9743343e-05
1.9780433e-05
1.9832574e-05
1.9903365e-05
2.0000057e-05
2.0123326e-05
2.0297042e-05
2.050146e-05
1.9368916e-05
1.9367529e-05
1.9378996e-05
1.9354702e-05
1.9349489e-05
1.9345474e-05
1.9342573e-05
1.9341386e-05
1.9342831e-05
1.9347818e-05
1.9357593e-05
1.937397e-05
1.9398984e-05
1.9435758e-05
1.9487071e-05
1.9559216e-05
1.9656706e-05
1.9797846e-05
1.9958481e-05
1.8972373e-05
1.8972005e-05
1.8965346e-05
1.8954522e-05
1.894698e-05
1.8940298e-05
1.8933681e-05
1.8928441e-05
1.8925387e-05
1.8925146e-05
1.8928854e-05
1.8938154e-05
1.8954646e-05
1.8981241e-05
1.9021117e-05
1.9077997e-05
1.9160358e-05
1.927983e-05
1.9409449e-05
1.8457853e-05
1.844967e-05
1.8443258e-05
1.8440808e-05
1.8438295e-05
1.8436741e-05
1.8434385e-05
1.8432747e-05
1.8432537e-05
1.8434142e-05
1.8438846e-05
1.8447557e-05
1.8462258e-05
1.8484815e-05
1.8519007e-05
1.8566255e-05
1.863635e-05
1.8738338e-05
1.8841024e-05
1.7898829e-05
1.789659e-05
1.7894943e-05
1.7891536e-05
1.788851e-05
1.788883e-05
1.7887753e-05
1.7886849e-05
1.7887466e-05
1.7889793e-05
1.7894966e-05
1.7903715e-05
1.7918206e-05
1.7939132e-05
1.7971046e-05
1.8013709e-05
1.8076865e-05
1.8169798e-05
1.8255745e-05
1.7423974e-05
1.7409304e-05
1.7399003e-05
1.7378028e-05
1.73719e-05
1.7365288e-05
1.7357933e-05
1.7351502e-05
1.7346366e-05
1.7343486e-05
1.7343839e-05
1.7348108e-05
1.7358673e-05
1.7375624e-05
1.7404482e-05
1.7443802e-05
1.7502637e-05
1.7592684e-05
1.76704e-05
1.6750111e-05
1.6758231e-05
1.6753104e-05
1.6751602e-05
1.6749983e-05
1.6748415e-05
1.6748336e-05
1.6746851e-05
1.6746852e-05
1.6748599e-05
1.6753426e-05
1.6761623e-05
1.677593e-05
1.6795955e-05
1.6827611e-05
1.6869684e-05
1.6929838e-05
1.7023679e-05
1.7100943e-05
1.6229307e-05
1.6213327e-05
1.6204028e-05
1.6198441e-05
1.6195061e-05
1.6195399e-05
1.6192454e-05
1.6190428e-05
1.6189614e-05
1.6190564e-05
1.6194925e-05
1.6203039e-05
1.6218004e-05
1.6239283e-05
1.6273065e-05
1.6318863e-05
1.6382456e-05
1.6484215e-05
1.6567816e-05
1.5634817e-05
1.5664774e-05
1.5638792e-05
1.5631839e-05
1.5633245e-05
1.5630985e-05
1.5632752e-05
1.5634487e-05
1.5636771e-05
1.5641056e-05
1.5649081e-05
1.5661047e-05
1.5680526e-05
1.5707018e-05
1.5746884e-05
1.580097e-05
1.5873005e-05
1.5988592e-05
1.6087887e-05
1.5381319e-05
1.5386287e-05
1.5329931e-05
1.5322923e-05
1.5299424e-05
1.5280417e-05
1.5262019e-05
1.5245945e-05
1.5231903e-05
1.5220983e-05
1.5215589e-05
1.5216419e-05
1.5227584e-05
1.5249091e-05
1.528727e-05
1.5344975e-05
1.5423605e-05
1.5553675e-05
1.5675495e-05
1.4580961e-05
1.4564207e-05
1.4590177e-05
1.458577e-05
1.4579663e-05
1.4582671e-05