/*--------------------------------*- C++ -*----------------------------------*\
| =========                 |                                                 |
| \\      /  F ield         | OpenFOAM: The Open Source CFD Toolbox           |
|  \\    /   O peration     | Version:  2406                                  |
|   \\  /    A nd           | Website:  www.openfoam.com                      |
|    \\/     M anipulation  |                                                 |
\*---------------------------------------------------------------------------*/
FoamFile
{
    version     2.0;
    format      ascii;
    arch        "LSB;label=32;scalar=64";
    class       volScalarField;
    location    "55140";
    object      rho;
}
// * * * * * * * * * * * * * * * * * * * * * * * * * * * * * * * * * * * * * //

dimensions      [1 -3 0 0 0 0 0];

internalField   nonuniform List<scalar> 
94692
(
1.0015847
1.001597
1.0016025
1.0016103
1.0016203
1.001633
1.0016465
1.0016631
1.0016809
1.0017015
1.0017231
1.0017474
1.0017729
1.001801
1.0018302
1.0018618
1.0018948
1.0019299
1.0019665
1.0020052
1.0020452
1.0020873
1.0021306
1.0021758
1.0022219
1.0022697
1.0023182
1.0023679
1.0024181
1.0024692
1.0025203
1.0025719
1.0026238
1.0026761
1.0027287
1.0027822
1.0028368
1.002893
1.0029514
1.0030127
1.0030775
1.0031466
1.0032206
1.0033
1.003385
1.0034761
1.0035728
1.003675
1.0037823
1.003894
1.004009
1.0041267
1.0042464
1.0043675
1.0044893
1.0046115
1.0047341
1.0048572
1.0049809
1.0051051
1.00523
1.005356
1.0054831
1.0056114
1.0057409
1.0058712
1.0060022
1.0061351
1.0062689
1.0064033
1.0065381
1.0066727
1.0068069
1.0069404
1.0070728
1.0072036
1.0073323
1.0074586
1.0075819
1.0077014
1.0078167
1.0079278
1.0080331
1.0081321
1.0082239
1.0083075
1.008382
1.0084467
1.0085
1.0085419
1.0085694
1.0085804
1.0085726
1.0085437
1.0084902
1.0084145
1.0083052
1.0081974
1.0080011
1.0015837
1.0015964
1.0016021
1.0016096
1.00162
1.0016322
1.0016462
1.0016626
1.0016808
1.0017011
1.0017229
1.001747
1.0017726
1.0018004
1.0018297
1.001861
1.001894
1.0019288
1.0019653
1.0020036
1.0020435
1.0020851
1.0021282
1.0021729
1.0022187
1.0022658
1.0023138
1.0023627
1.0024122
1.0024623
1.0025127
1.0025635
1.0026145
1.002666
1.0027179
1.0027709
1.0028251
1.0028813
1.0029398
1.0030016
1.0030672
1.0031373
1.0032124
1.0032931
1.0033795
1.0034717
1.0035695
1.0036725
1.0037801
1.0038917
1.0040062
1.004123
1.0042413
1.0043608
1.004481
1.0046015
1.0047224
1.004844
1.0049662
1.0050892
1.0052131
1.005338
1.0054642
1.0055916
1.0057202
1.0058502
1.0059812
1.0061131
1.0062457
1.0063788
1.0065121
1.0066452
1.0067779
1.0069098
1.0070405
1.0071695
1.0072963
1.0074205
1.0075416
1.0076589
1.0077719
1.0078799
1.0079824
1.0080785
1.0081674
1.0082481
1.0083194
1.0083808
1.0084323
1.0084725
1.0085026
1.0085135
1.0085183
1.0085071
1.0084735
1.0084224
1.0083357
1.008233
1.0080459
1.0015839
1.0015976
1.0016032
1.0016107
1.0016211
1.0016332
1.0016472
1.0016636
1.0016817
1.001702
1.0017239
1.0017479
1.0017736
1.0018013
1.0018307
1.0018619
1.0018949
1.0019297
1.0019663
1.0020045
1.0020445
1.0020859
1.0021289
1.0021733
1.0022189
1.0022656
1.0023132
1.0023616
1.0024105
1.0024598
1.0025095
1.0025595
1.0026099
1.0026607
1.0027124
1.0027653
1.0028199
1.0028768
1.0029367
1.0030002
1.003068
1.0031407
1.0032187
1.0033024
1.0033919
1.003487
1.0035875
1.0036928
1.0038022
1.0039149
1.0040301
1.004147
1.0042652
1.0043843
1.004504
1.0046241
1.0047449
1.0048666
1.0049891
1.0051126
1.0052372
1.0053631
1.0054903
1.0056187
1.0057482
1.0058789
1.0060103
1.0061426
1.0062756
1.0064088
1.0065421
1.0066749
1.0068068
1.0069375
1.0070665
1.0071933
1.0073174
1.0074382
1.0075553
1.007668
1.0077759
1.0078774
1.0079727
1.0080607
1.0081406
1.0082114
1.0082722
1.0083224
1.0083611
1.008387
1.0083996
1.008396
1.0083768
1.0083409
1.0082843
1.0082125
1.008114
1.0080099
1.0078521
1.0015831
1.0015972
1.0016028
1.0016102
1.0016207
1.0016328
1.0016469
1.0016632
1.0016814
1.0017017
1.0017236
1.0017476
1.0017733
1.001801
1.0018303
1.0018615
1.0018945
1.0019292
1.0019656
1.0020037
1.0020434
1.0020845
1.0021272
1.0021711
1.0022161
1.0022621
1.0023088
1.002356
1.0024037
1.0024517
1.0025
1.0025486
1.0025977
1.0026476
1.0026985
1.0027511
1.0028059
1.0028636
1.0029248
1.0029902
1.0030604
1.0031358
1.0032167
1.0033035
1.0033958
1.0034935
1.003596
1.0037027
1.0038127
1.0039253
1.0040396
1.0041554
1.0042721
1.0043894
1.0045072
1.0046258
1.0047454
1.0048659
1.0049873
1.0051101
1.0052344
1.00536
1.0054869
1.0056151
1.0057445
1.0058752
1.0060068
1.0061391
1.0062719
1.0064048
1.0065375
1.0066697
1.0068009
1.0069307
1.0070587
1.0071843
1.0073071
1.0074265
1.0075419
1.0076527
1.0077585
1.0078581
1.0079513
1.0080371
1.0081148
1.0081834
1.008242
1.0082901
1.0083273
1.0083523
1.0083649
1.0083624
1.0083451
1.0083124
1.0082581
1.0081882
1.0080854
1.0079786
1.0077852
1.0015835
1.0015984
1.0016038
1.0016112
1.0016216
1.0016337
1.0016477
1.0016642
1.0016822
1.0017024
1.0017243
1.0017483
1.001774
1.0018017
1.001831
1.0018622
1.0018951
1.0019297
1.0019661
1.002004
1.0020436
1.0020845
1.0021268
1.0021702
1.0022145
1.0022596
1.0023052
1.0023512
1.0023976
1.0024442
1.0024911
1.0025385
1.0025867
1.002636
1.002687
1.0027401
1.0027963
1.002856
1.0029199
1.0029886
1.0030625
1.0031419
1.003227
1.0033177
1.0034137
1.0035144
1.0036191
1.0037273
1.003838
1.0039504
1.004064
1.0041786
1.0042939
1.00441
1.0045267
1.0046446
1.0047636
1.0048839
1.0050055
1.0051287
1.0052535
1.0053797
1.0055073
1.0056363
1.0057665
1.0058978
1.0060299
1.0061627
1.0062958
1.006429
1.0065618
1.0066938
1.0068248
1.006954
1.0070812
1.0072058
1.0073273
1.007445
1.0075584
1.0076669
1.00777
1.0078665
1.0079561
1.0080379
1.008111
1.0081746
1.0082278
1.0082701
1.0083008
1.008319
1.008324
1.0083145
1.0082891
1.0082488
1.0081878
1.0081136
1.0080086
1.0079051
1.0077201
1.0015826
1.0015979
1.0016033
1.0016107
1.0016212
1.0016333
1.0016474
1.0016638
1.001682
1.0017023
1.0017242
1.0017481
1.0017739
1.0018015
1.0018308
1.0018619
1.0018949
1.0019294
1.0019656
1.0020033
1.0020425
1.0020829
1.0021246
1.002167
1.0022103
1.0022539
1.002298
1.0023423
1.0023869
1.0024318
1.0024772
1.0025235
1.002571
1.0026203
1.0026719
1.0027265
1.0027849
1.0028476
1.0029151
1.0029879
1.0030661
1.00315
1.0032392
1.0033336
1.0034325
1.0035353
1.0036412
1.0037496
1.0038595
1.0039703
1.004082
1.0041947
1.0043081
1.0044222
1.0045374
1.0046542
1.0047725
1.0048923
1.0050136
1.0051368
1.0052618
1.0053883
1.0055162
1.0056456
1.0057761
1.0059078
1.0060404
1.0061734
1.0063068
1.00644
1.0065729
1.0067048
1.0068355
1.0069645
1.0070912
1.0072152
1.0073359
1.0074528
1.0075653
1.0076727
1.0077745
1.0078697
1.0079578
1.0080381
1.0081097
1.0081718
1.0082234
1.0082642
1.0082936
1.0083106
1.0083145
1.0083043
1.0082782
1.0082377
1.0081762
1.0081018
1.007995
1.007891
1.0077005
1.0015831
1.001599
1.0016041
1.0016116
1.001622
1.0016341
1.0016481
1.0016646
1.0016826
1.0017029
1.0017247
1.0017488
1.0017744
1.0018021
1.0018314
1.0018625
1.0018952
1.0019296
1.0019656
1.002003
1.0020418
1.0020815
1.0021222
1.0021635
1.0022053
1.0022472
1.0022896
1.0023321
1.0023751
1.0024187
1.0024633
1.0025093
1.0025574
1.002608
1.0026619
1.0027196
1.0027818
1.002849
1.0029215
1.0029994
1.0030827
1.0031714
1.0032647
1.0033624
1.0034637
1.0035677
1.0036737
1.0037813
1.0038897
1.0039988
1.0041085
1.0042192
1.0043309
1.0044438
1.0045582
1.0046746
1.0047929
1.004913
1.0050349
1.0051588
1.0052845
1.005412
1.0055408
1.0056711
1.0058026
1.0059351
1.0060684
1.0062021
1.0063361
1.0064698
1.006603
1.0067352
1.006866
1.0069949
1.0071215
1.0072451
1.0073654
1.0074816
1.0075932
1.0076996
1.0078001
1.0078939
1.0079804
1.0080587
1.0081282
1.0081878
1.0082368
1.0082747
1.0083006
1.0083142
1.0083142
1.0083003
1.0082703
1.0082262
1.0081614
1.0080851
1.0079769
1.0078742
1.0076863
1.0015822
1.0015985
1.0016036
1.0016111
1.0016216
1.0016338
1.0016479
1.0016643
1.0016825
1.0017028
1.0017248
1.0017488
1.0017745
1.0018023
1.0018315
1.0018625
1.0018952
1.0019294
1.0019652
1.0020022
1.0020403
1.0020791
1.0021186
1.0021583
1.0021983
1.0022385
1.0022791
1.00232
1.002362
1.002405
1.0024498
1.0024968
1.0025468
1.0026002
1.0026576
1.0027197
1.0027869
1.0028593
1.0029372
1.0030202
1.0031083
1.0032008
1.0032971
1.0033966
1.0034985
1.003602
1.0037067
1.0038121
1.0039181
1.0040246
1.0041321
1.0042408
1.0043512
1.0044632
1.0045772
1.0046936
1.0048122
1.0049328
1.0050554
1.0051801
1.0053066
1.0054349
1.0055646
1.0056957
1.0058279
1.0059612
1.0060952
1.0062295
1.006364
1.0064982
1.0066317
1.0067642
1.0068951
1.0070241
1.0071506
1.0072742
1.0073942
1.0075101
1.0076213
1.0077271
1.0078269
1.0079199
1.0080056
1.008083
1.0081515
1.0082101
1.0082582
1.0082952
1.0083201
1.0083326
1.0083316
1.0083167
1.0082855
1.0082403
1.0081742
1.008097
1.0079871
1.0078841
1.0076944
1.0015826
1.0015995
1.0016044
1.0016119
1.0016222
1.0016344
1.0016484
1.001665
1.0016831
1.0017034
1.0017254
1.0017495
1.0017753
1.0018031
1.0018324
1.0018636
1.0018963
1.0019306
1.0019663
1.0020029
1.0020405
1.0020781
1.0021162
1.0021543
1.0021928
1.0022314
1.0022708
1.0023112
1.0023531
1.002397
1.0024435
1.0024931
1.0025465
1.0026042
1.0026666
1.002734
1.0028068
1.0028848
1.0029678
1.0030554
1.0031472
1.0032423
1.00334
1.0034397
1.0035408
1.0036426
1.003745
1.003848
1.0039517
1.0040562
1.0041621
1.00427
1.0043799
1.004492
1.0046066
1.0047237
1.0048432
1.0049649
1.0050887
1.0052146
1.0053423
1.0054717
1.0056026
1.0057348
1.0058682
1.0060025
1.0061373
1.0062725
1.0064077
1.0065425
1.0066766
1.0068095
1.0069409
1.0070701
1.0071968
1.0073204
1.0074404
1.0075561
1.0076671
1.0077725
1.0078719
1.0079644
1.0080493
1.0081259
1.0081935
1.008251
1.0082978
1.0083335
1.0083566
1.0083673
1.0083642
1.0083472
1.0083138
1.0082665
1.0081982
1.0081196
1.0080078
1.007905
1.0077145
1.0015819
1.001599
1.001604
1.0016116
1.001622
1.0016343
1.0016485
1.0016652
1.0016834
1.0017041
1.0017263
1.0017508
1.0017769
1.0018053
1.0018351
1.001867
1.0019005
1.0019353
1.0019714
1.0020078
1.0020445
1.0020809
1.0021175
1.002154
1.0021912
1.0022289
1.002268
1.0023088
1.002352
1.002398
1.0024475
1.0025009
1.0025589
1.0026217
1.0026895
1.0027624
1.0028405
1.0029232
1.0030103
1.0031009
1.0031945
1.0032904
1.0033877
1.0034861
1.0035851
1.0036844
1.0037843
1.003885
1.0039868
1.00409
1.0041953
1.004303
1.0044133
1.0045261
1.0046417
1.0047599
1.0048806
1.0050035
1.0051285
1.0052556
1.0053845
1.0055151
1.0056471
1.0057803
1.0059146
1.0060498
1.0061855
1.0063214
1.0064573
1.0065927
1.0067273
1.0068606
1.0069922
1.0071217
1.0072485
1.0073722
1.0074921
1.0076077
1.0077185
1.0078237
1.0079227
1.0080148
1.0080993
1.0081753
1.0082424
1.0082993
1.0083456
1.0083809
1.0084033
1.0084134
1.0084096
1.0083916
1.0083572
1.0083088
1.0082391
1.0081594
1.0080457
1.0079425
1.0077492
1.0015822
1.0015998
1.0016045
1.0016122
1.0016226
1.0016352
1.0016496
1.0016668
1.0016856
1.001707
1.0017301
1.0017557
1.0017832
1.0018131
1.0018446
1.0018782
1.0019132
1.001949
1.0019852
1.0020208
1.0020562
1.002091
1.0021261
1.0021614
1.0021978
1.0022354
1.0022753
1.0023176
1.0023633
1.0024126
1.0024662
1.0025244
1.0025876
1.0026558
1.002729
1.0028069
1.0028893
1.0029756
1.0030651
1.0031572
1.0032511
1.0033462
1.0034421
1.0035383
1.003635
1.0037321
1.0038301
1.0039294
1.0040305
1.0041336
1.0042393
1.0043479
1.0044594
1.0045736
1.0046906
1.0048103
1.0049326
1.0050569
1.0051834
1.0053118
1.005442
1.0055739
1.0057071
1.0058415
1.0059768
1.006113
1.0062496
1.0063863
1.0065229
1.006659
1.0067941
1.0069279
1.00706
1.0071897
1.0073168
1.0074406
1.0075606
1.0076762
1.0077869
1.007892
1.0079908
1.0080827
1.0081669
1.0082426
1.0083093
1.0083657
1.0084117
1.0084466
1.008468
1.0084772
1.0084725
1.0084537
1.0084179
1.0083683
1.0082971
1.0082164
1.0081009
1.0079974
1.0078012
1.0015816
1.0015996
1.0016045
1.0016126
1.0016238
1.0016374
1.0016531
1.001672
1.0016927
1.0017164
1.0017419
1.0017702
1.0018005
1.0018333
1.0018676
1.0019033
1.0019395
1.001975
1.0020099
1.0020436
1.002077
1.0021099
1.0021435
1.002178
1.0022142
1.0022526
1.0022941
1.0023391
1.0023883
1.0024419
1.0025003
1.0025637
1.0026322
1.0027055
1.0027832
1.0028651
1.0029505
1.0030387
1.0031292
1.0032211
1.003314
1.0034073
1.0035011
1.0035952
1.0036899
1.0037855
1.0038826
1.0039817
1.0040831
1.0041871
1.0042941
1.0044042
1.0045173
1.0046332
1.0047519
1.0048732
1.0049969
1.0051228
1.0052506
1.0053803
1.0055118
1.0056448
1.0057791
1.0059145
1.0060509
1.0061879
1.0063253
1.0064627
1.0065999
1.0067365
1.0068721
1.0070062
1.0071385
1.0072685
1.0073956
1.0075195
1.0076394
1.0077549
1.0078654
1.0079702
1.0080688
1.0081603
1.0082442
1.0083195
1.0083859
1.0084419
1.0084875
1.0085223
1.0085435
1.0085523
1.008547
1.0085275
1.0084912
1.0084409
1.0083686
1.008287
1.0081698
1.0080661
1.0078655
1.001582
1.0016007
1.0016065
1.0016164
1.0016299
1.0016466
1.001666
1.0016889
1.0017135
1.0017411
1.0017706
1.0018028
1.0018367
1.0018726
1.0019087
1.0019448
1.0019795
1.0020126
1.0020446
1.0020756
1.0021064
1.0021375
1.0021699
1.002204
1.0022411
1.0022812
1.0023256
1.0023742
1.0024279
1.0024865
1.0025502
1.0026189
1.0026923
1.00277
1.0028513
1.0029358
1.0030228
1.0031115
1.0032016
1.0032923
1.0033836
1.0034751
1.0035671
1.0036598
1.0037538
1.0038493
1.0039469
1.0040471
1.0041501
1.004256
1.004365
1.0044772
1.0045924
1.0047103
1.0048309
1.004954
1.0050795
1.0052069
1.0053363
1.0054675
1.0056003
1.0057346
1.0058702
1.0060067
1.0061441
1.0062821
1.0064204
1.0065586
1.0066965
1.0068337
1.0069698
1.0071044
1.007237
1.0073673
1.0074946
1.0076186
1.0077386
1.0078541
1.0079646
1.0080694
1.0081678
1.0082592
1.008343
1.008418
1.0084841
1.0085398
1.0085856
1.0086201
1.0086406
1.0086493
1.0086439
1.0086241
1.008587
1.0085362
1.0084629
1.008381
1.0082622
1.0081583
1.0079544
1.0015825
1.001604
1.0016142
1.0016298
1.0016491
1.0016726
1.0016987
1.0017266
1.0017556
1.0017874
1.0018205
1.0018557
1.0018915
1.0019278
1.0019625
1.0019957
1.0020267
1.002056
1.0020843
1.0021121
1.0021406
1.0021701
1.0022021
1.002237
1.0022759
1.002319
1.0023673
1.0024205
1.0024793
1.002543
1.0026119
1.0026852
1.0027627
1.0028436
1.0029272
1.0030128
1.0031001
1.0031883
1.0032773
1.0033666
1.0034564
1.0035468
1.0036381
1.0037308
1.0038254
1.0039221
1.0040216
1.004124
1.0042294
1.0043379
1.0044495
1.0045642
1.0046818
1.0048019
1.0049246
1.0050497
1.005177
1.0053062
1.0054372
1.00557
1.0057044
1.0058401
1.005977
1.0061149
1.0062535
1.0063925
1.0065318
1.006671
1.0068097
1.0069477
1.0070844
1.0072195
1.0073526
1.0074832
1.0076109
1.007735
1.0078552
1.0079707
1.0080812
1.0081859
1.0082842
1.0083753
1.0084588
1.0085337
1.0085996
1.0086549
1.0087002
1.0087353
1.0087554
1.0087631
1.008757
1.0087367
1.0086993
1.0086478
1.0085738
1.0084912
1.0083715
1.0082674
1.0080585
1.0015878
1.0016192
1.0016409
1.0016674
1.001695
1.0017237
1.0017536
1.0017856
1.0018177
1.0018515
1.0018855
1.0019203
1.0019543
1.0019874
1.0020179
1.0020465
1.002073
1.0020983
1.0021232
1.0021484
1.0021753
1.0022044
1.0022372
1.002274
1.0023159
1.0023629
1.0024157
1.0024739
1.0025376
1.0026062
1.0026795
1.0027565
1.0028368
1.0029197
1.0030044
1.0030903
1.0031772
1.0032646
1.0033527
1.0034413
1.0035308
1.0036214
1.0037136
1.0038077
1.0039044
1.0040037
1.0041061
1.0042115
1.0043201
1.0044316
1.0045462
1.0046637
1.004784
1.0049068
1.0050319
1.0051594
1.005289
1.0054204
1.0055536
1.0056885
1.0058249
1.0059626
1.0061013
1.006241
1.0063814
1.0065222
1.0066631
1.0068038
1.0069439
1.0070832
1.0072212
1.0073575
1.0074917
1.0076233
1.0077518
1.0078768
1.0079978
1.008114
1.0082251
1.0083302
1.0084289
1.0085204
1.0086039
1.0086791
1.008745
1.0088004
1.0088461
1.0088801
1.0089007
1.0089093
1.0089033
1.0088828
1.0088448
1.0087933
1.0087189
1.0086364
1.0085157
1.0084113
1.0082013
1.0016117
1.0016637
1.0016984
1.0017317
1.0017635
1.0017941
1.0018239
1.0018549
1.0018854
1.0019171
1.0019484
1.0019797
1.0020096
1.0020382
1.0020643
1.0020888
1.0021118
1.002134
1.0021567
1.0021806
1.0022072
1.002237
1.0022715
1.0023109
1.0023563
1.0024075
1.0024647
1.0025274
1.0025954
1.0026679
1.0027444
1.002824
1.0029062
1.0029901
1.0030752
1.0031611
1.0032478
1.003335
1.0034231
1.0035121
1.0036025
1.0036945
1.0037887
1.0038854
1.003985
1.0040875
1.0041932
1.0043019
1.0044139
1.0045286
1.0046463
1.0047668
1.00489
1.0050154
1.0051434
1.0052734
1.0054057
1.0055397
1.0056754
1.0058128
1.0059517
1.0060918
1.006233
1.006375
1.0065176
1.0066606
1.0068037
1.0069464
1.0070886
1.0072298
1.0073696
1.0075077
1.0076435
1.0077767
1.0079067
1.0080331
1.0081553
1.0082727
1.0083848
1.0084909
1.0085905
1.0086826
1.0087668
1.0088426
1.0089094
1.0089656
1.009012
1.0090476
1.0090672
1.009075
1.0090695
1.009049
1.0090116
1.0089591
1.0088852
1.0088017
1.0086799
1.0085746
1.0083615
1.0016833
1.0017449
1.0017811
1.0018115
1.0018387
1.001864
1.0018886
1.0019147
1.0019409
1.0019686
1.0019962
1.0020239
1.0020504
1.0020759
1.0020993
1.0021214
1.0021425
1.0021635
1.0021854
1.0022092
1.0022364
1.0022676
1.0023041
1.0023463
1.0023949
1.0024496
1.0025104
1.0025766
1.0026479
1.0027233
1.0028021
1.0028834
1.0029668
1.0030515
1.0031372
1.0032235
1.0033107
1.0033986
1.0034877
1.0035781
1.0036704
1.0037648
1.0038617
1.0039614
1.0040643
1.0041701
1.0042792
1.0043912
1.0045064
1.0046243
1.0047451
1.0048686
1.0049948
1.0051233
1.0052541
1.0053871
1.0055223
1.0056592
1.0057979
1.0059381
1.0060799
1.0062228
1.0063668
1.0065116
1.006657
1.0068028
1.0069485
1.0070939
1.0072387
1.0073824
1.0075247
1.0076651
1.0078033
1.0079387
1.0080708
1.0081992
1.0083233
1.0084425
1.0085562
1.008664
1.0087653
1.0088592
1.0089451
1.0090224
1.0090908
1.0091483
1.0091957
1.0092304
1.0092539
1.0092627
1.0092567
1.0092364
1.0091992
1.0091467
1.0090724
1.0089889
1.0088669
1.0087605
1.0085464
1.0018006
1.0018468
1.0018648
1.00188
1.0018954
1.001912
1.0019301
1.0019513
1.001974
1.001999
1.0020245
1.0020506
1.002076
1.0021007
1.0021235
1.0021454
1.0021663
1.0021873
1.0022095
1.0022339
1.0022619
1.0022943
1.0023324
1.0023764
1.0024271
1.0024839
1.002547
1.0026155
1.0026888
1.002766
1.0028464
1.0029291
1.0030136
1.0030993
1.0031859
1.0032733
1.0033616
1.0034509
1.0035417
1.0036341
1.0037286
1.0038255
1.0039251
1.0040277
1.0041334
1.0042422
1.0043541
1.0044692
1.0045871
1.0047079
1.0048315
1.0049579
1.0050867
1.0052181
1.0053516
1.0054875
1.0056254
1.0057652
1.0059066
1.0060497
1.0061942
1.00634
1.0064868
1.0066344
1.0067826
1.006931
1.0070793
1.0072272
1.0073744
1.0075205
1.0076651
1.0078077
1.007948
1.0080853
1.0082193
1.0083494
1.0084752
1.0085958
1.0087109
1.0088198
1.0089221
1.0090168
1.0091032
1.0091809
1.0092489
1.0093063
1.0093545
1.0093775
1.0094039
1.0094143
1.009407
1.0093845
1.0093449
1.0092892
1.0092116
1.0091246
1.0089969
1.0088832
1.0086579
1.0019312
1.0019255
1.001915
1.0019141
1.0019207
1.0019318
1.0019471
1.0019664
1.0019881
1.0020125
1.0020383
1.0020649
1.0020912
1.0021168
1.002141
1.002164
1.002186
1.002208
1.0022309
1.0022558
1.0022842
1.002317
1.0023552
1.0023996
1.0024505
1.0025078
1.0025713
1.0026404
1.0027145
1.0027926
1.002874
1.0029578
1.0030436
1.0031306
1.0032188
1.0033078
1.0033978
1.0034889
1.0035816
1.0036759
1.0037725
1.0038715
1.0039733
1.004078
1.0041858
1.0042968
1.0044108
1.0045281
1.0046482
1.0047713
1.0048972
1.0050258
1.005157
1.0052907
1.0054266
1.0055648
1.0057051
1.0058473
1.0059911
1.0061367
1.0062836
1.0064318
1.0065809
1.0067308
1.0068812
1.0070317
1.0071821
1.0073321
1.0074811
1.007629
1.0077752
1.0079192
1.0080608
1.0081993
1.0083343
1.0084651
1.0085914
1.0087125
1.0088276
1.0089362
1.0090377
1.0091313
1.0092161
1.009292
1.0093579
1.0094128
1.0094555
1.0094867
1.0095019
1.0095053
1.0094925
1.0094646
1.0094179
1.0093554
1.0092692
1.0091729
1.0090266
1.0088943
1.0086411
1.0085869
1.0086185
1.0085293
1.0083613
1.0082003
1.0080554
1.0079419
1.0078466
1.0077741
1.007716
1.0076753
1.007651
1.0076398
1.007651
1.0076692
1.0077267
1.0077915
1.0079319
1.0080304
1.0077617
1.007778
1.0076944
1.0075208
1.0073797
1.0072375
1.0071358
1.007051
1.0069908
1.0069441
1.0069121
1.0068915
1.006878
1.006876
1.0068748
1.0068917
1.006922
1.00698
1.0070033
1.0072162
1.0074113
1.0074198
1.0073027
1.0071592
1.0070195
1.006909
1.0068148
1.0067433
1.006684
1.0066388
1.006604
1.0065777
1.0065608
1.0065486
1.0065459
1.0065622
1.0065827
1.0065898
1.007024
1.0068165
1.0067584
1.0066352
1.006521
1.0063897
1.00629
1.0062036
1.0061401
1.0060873
1.0060475
1.0060153
1.0059905
1.0059693
1.0059532
1.0059342
1.0059415
1.005917
1.0059367
1.0063739
1.0063884
1.0063299
1.00621
1.0060641
1.0059151
1.0057904
1.0056806
1.0055947
1.0055201
1.0054598
1.0054066
1.0053625
1.0053188
1.005284
1.0052352
1.0052223
1.0051462
1.0051444
1.0052891
1.0053364
1.0054039
1.0053609
1.0052478
1.0051189
1.0050003
1.0048998
1.0048193
1.0047507
1.0046948
1.0046432
1.0046001
1.0045512
1.0045119
1.0044464
1.0044206
1.0043073
1.0042805
1.0039022
1.0047987
1.0045871
1.0044207
1.0043379
1.0042156
1.0041101
1.0040127
1.003937
1.0038718
1.0038188
1.0037679
1.003725
1.0036715
1.0036281
1.0035487
1.0035107
1.0033674
1.0033166
1.0031914
1.0035363
1.0038368
1.0036938
1.0035166
1.0033705
1.0032469
1.003135
1.0030466
1.0029685
1.0029046
1.0028418
1.0027886
1.0027223
1.002668
1.002572
1.0025187
1.0023494
1.0022729
1.0018275
1.0021852
1.0024293
1.0026409
1.0025933
1.0024667
1.0023372
1.0022196
1.0021216
1.002035
1.0019621
1.0018892
1.001826
1.0017471
1.0016805
1.0015678
1.0014964
1.0013036
1.0011979
1.0003366
1.0008751
1.0009086
1.0011448
1.0012032
1.0011193
1.0010216
1.0009277
1.0008552
1.0007934
1.0007457
1.0006965
1.0006562
1.0005969
1.0005479
1.000448
1.0003836
1.0001943
1.0000792
0.99945087
0.99933141
1.000238
1.0003938
1.0004114
1.0003372
1.0002141
1.0000946
0.99999399
0.99990646
0.99983432
0.99976191
0.99970029
0.99962102
0.999554
0.99943824
0.99935666
0.99915634
0.99901891
0.9971036
0.99788539
0.99894727
0.99931025
0.99939915
0.99936138
0.99925773
0.9991467
0.9990483
0.99896405
0.99889448
0.99882481
0.99876552
0.99868803
0.9986217
0.99850711
0.99842184
0.99822401
0.99807558
0.99616476
0.99658061
0.99738057
0.99794668
0.99813611
0.99814133
0.99806893
0.99798129
0.99790682
0.99784784
0.99780516
0.99776352
0.99773307
0.99768474
0.99764713
0.99756206
0.997502
0.99733487
0.99720425
0.99594237
0.99624887
0.99669558
0.9974528
0.99777057
0.99779771
0.99771314
0.99759708
0.99749368
0.99740539
0.99733514
0.99726702
0.9972121
0.99714194
0.99708479
0.99698663
0.99691257
0.9967472
0.99661363
0.99510978
0.99539446
0.9958289
0.99654815
0.99698014
0.99707887
0.99702491
0.99692656
0.99683952
0.99676738
0.9967154
0.99666665
0.99663164
0.99658393
0.99654709
0.9964764
0.99642133
0.99629402
0.99618925
0.9946894
0.99495452
0.99541518
0.99606651
0.99655967
0.99671015
0.996671
0.99657557
0.9964874
0.99641623
0.99636563
0.99632123
0.99629037
0.99625178
0.99622182
0.99616821
0.9961229
0.99602763
0.99594554
0.99439637
0.99464209
0.99511944
0.99573946
0.99625693
0.99644709
0.99642486
0.99633524
0.99625049
0.99618444
0.99613895
0.99610267
0.9960786
0.99605122
0.9960293
0.99599218
0.99595664
0.99588694
0.99582075
0.99421734
0.99444682
0.99492142
0.99552524
0.9960656
0.99627939
0.99626778
0.99618315
0.99610192
0.996042
0.99600231
0.99597447
0.99595732
0.99594016
0.99592601
0.99590198
0.995874
0.99582049
0.99576697
0.99411919
0.99433797
0.9948101
0.99541158
0.99595105
0.99617996
0.99617443
0.99609283
0.99601678
0.99596334
0.99593079
0.99591119
0.99590126
0.99589285
0.99588553
0.9958701
0.99584629
0.99580463
0.99576867
0.99408148
0.99429649
0.99477028
0.99537969
0.9959111
0.99613709
0.99613072
0.99605111
0.99598034
0.9959344
0.99590958
0.9958984
0.99589581
0.99589556
0.99589467
0.99588622
0.99586938
0.99584774
0.99584099
0.99406978
0.9942899
0.99477891
0.99539255
0.99590973
0.99612048
0.99610694
0.99602868
0.99596456
0.99592735
0.99591171
0.99590994
0.99591646
0.99592567
0.99593332
0.99593508
0.99593291
0.99594167
0.99596358
0.99409205
0.99432234
0.99482848
0.99546236
0.99595319
0.99613721
0.99611124
0.99603383
0.99597731
0.99594995
0.99594511
0.99595476
0.99597328
0.99599486
0.99601496
0.99603389
0.99605396
0.9960943
0.99608338
0.99412591
0.99436974
0.99489659
0.99553919
0.99600009
0.99615525
0.99611585
0.99604039
0.99599421
0.99597961
0.99598994
0.99601618
0.99605286
0.99609355
0.99613561
0.99618187
0.99622856
0.99624925
0.99608228
0.99419452
0.99445614
0.99501103
0.99566486
0.99609175
0.99621107
0.9961593
0.99608981
0.9960578
0.99606029
0.99608998
0.99613668
0.99619393
0.99625551
0.99631884
0.9963747
0.9964098
0.9962573
0.9959486
0.99416799
0.9944579
0.99503425
0.99568745
0.99608001
0.9961644
0.99610168
0.99603977
0.99602307
0.99604373
0.99609311
0.99615861
0.99623323
0.99630493
0.99637629
0.99635675
0.99631626
0.99562424
0.99537159
0.99427396
0.99459427
0.99520671
0.9958625
0.99621161
0.99626512
0.99620153
0.99615712
0.99616582
0.99621412
0.99629141
0.99637996
0.99647235
0.99654198
0.99657721
0.99644329
0.9962061
0.99462828
0.99507807
0.99417874
0.99453389
0.99517725
0.99582197
0.9961305
0.99615156
0.99608315
0.99604845
0.99606849
0.99612377
0.99619812
0.99627781
0.99634252
0.99637856
0.99624951
0.99593434
0.99534558
0.99349943
0.99427563
0.99438345
0.99479239
0.99549756
0.99608179
0.99636708
0.99638219
0.99634079
0.99634807
0.99641689
0.99652392
0.99665403
0.99678717
0.99688208
0.99692663
0.99662115
0.9964209
0.99568958
0.9948646
0.99428787
0.99439111
0.99487572
0.9956252
0.99619196
0.99641203
0.99638651
0.99632967
0.99632148
0.99635543
0.99639494
0.99640601
0.99635394
0.99615783
0.99587125
0.99511535
0.99444838
0.99235283
0.99193839
0.99176447
0.99442988
0.99492643
0.99568252
0.99628056
0.99652397
0.99650495
0.9964599
0.99645784
0.99651425
0.99658323
0.99664771
0.99669605
0.99664294
0.99676275
0.99675775
0.99730899
0.99733207
0.99512836
0.99245855
0.994693
0.99519979
0.9959479
0.9965785
0.99681971
0.99680316
0.99675184
0.99674449
0.99678085
0.99684173
0.99687145
0.99690117
0.99673597
0.99659055
0.99592196
0.99522392
0.99408868
0.99201309
0.99159695
0.99479003
0.99531511
0.9961107
0.99677539
0.99702619
0.99701159
0.99694952
0.99693333
0.996949
0.99700257
0.99699293
0.99701023
0.99679745
0.99661073
0.99587163
0.99497712
0.99398951
0.9920782
0.99135097
0.99488685
0.99543162
0.99627568
0.99697687
0.99724525
0.99723622
0.99717078
0.99715271
0.99715911
0.99721588
0.99720478
0.99724077
0.99705486
0.99686369
0.99622672
0.99513705
0.99396884
0.99211169
0.99106691
0.99500448
0.99556823
0.99646876
0.99721288
0.9975013
0.99749612
0.99742449
0.99739991
0.99739482
0.99744316
0.99742839
0.99745792
0.99730073
0.9970945
0.99649529
0.99523654
0.99369152
0.99200966
0.99085188
0.99510861
0.99569512
0.99665917
0.99745378
0.99776825
0.99776679
0.99768985
0.99765669
0.99764108
0.99767577
0.99765485
0.99767442
0.99754625
0.99735432
0.9968156
0.99551429
0.99361174
0.9920623
0.99086186
0.99519632
0.99580509
0.99684034
0.99769132
0.99803589
0.99803763
0.99795544
0.99791142
0.99788573
0.99790277
0.99787447
0.99787558
0.99776299
0.99757882
0.9971154
0.99583528
0.99371979
0.99211969
0.991042
0.99525807
0.99588806
0.9969986
0.99791014
0.99828871
0.99829228
0.99820416
0.99814554
0.99810739
0.99809991
0.99805936
0.9980261
0.99790634
0.99771312
0.99733212
0.9961236
0.99391596
0.99218337
0.99130125
0.99528841
0.99593483
0.99712169
0.99809491
0.99851
0.99851494
0.99842005
0.99834394
0.9982901
0.9982515
0.99819209
0.99811175
0.99796711
0.99774697
0.99744785
0.99635794
0.99418554
0.99226949
0.99148891
0.99528148
0.99593839
0.99719745
0.99823157
0.99868435
0.99869093
0.99858936
0.99849345
0.9984217
0.99834718
0.99826396
0.9981287
0.99795263
0.99769242
0.99746992
0.99653185
0.99447058
0.99236277
0.99160257
0.99523436
0.99589538
0.99721737
0.99830875
0.99880023
0.99881025
0.99870214
0.99858521
0.99849377
0.99838081
0.99827048
0.99807784
0.9978709
0.99757331
0.99743037
0.99665077
0.99471566
0.9924515
0.9916439
0.99514483
0.99579908
0.99717314
0.99831656
0.99884573
0.99886189
0.99874933
0.99861213
0.99850112
0.99835094
0.99821038
0.99796335
0.99773082
0.99741244
0.99733953
0.99672224
0.99491005
0.99250568
0.99160235
0.99501384
0.99565031
0.99706196
0.9982498
0.99881609
0.9988413
0.99872686
0.99857212
0.99844382
0.99826077
0.99808944
0.99779309
0.99753779
0.99721784
0.99721084
0.99675181
0.99505256
0.99249413
0.99147238
0.99484106
0.99544922
0.99687986
0.99810128
0.99870572
0.99874439
0.99863198
0.99846444
0.99832303
0.99811346
0.99791249
0.99757205
0.99728938
0.99697534
0.99703661
0.99674319
0.99512878
0.99239956
0.99126109
0.99463276
0.99520423
0.99663184
0.99787441
0.9985156
0.9985733
0.99846735
0.99829229
0.99814267
0.99791469
0.99768596
0.99730633
0.99698624
0.99666647
0.99678562
0.996692
0.99513489
0.99222419
0.99099035
0.99439273
0.99491976
0.99632352
0.99757497
0.99825057
0.99833214
0.99823712
0.99806121
0.99790816
0.99767066
0.99741925
0.99700425
0.99663971
0.99628989
0.99643721
0.99657937
0.99507323
0.99197695
0.99067448
0.99413066
0.99460896
0.99596929
0.99721623
0.99792112
0.99803038
0.99795031
0.99777976
0.99762848
0.99739091
0.99712338
0.99668221
0.99627391
0.99587065
0.99598286
0.99636885
0.99490603
0.99167686
0.99033702
0.99385287
0.99428053
0.99558064
0.99680804
0.99753691
0.99767718
0.99761567
0.99745685
0.99731296
0.99708525
0.9968133
0.9963645
0.99592596
0.99547081
0.99548865
0.99603508
0.99461208
0.99135882
0.99000612
0.99355923
0.9939375
0.99516646
0.99636262
0.99710718
0.99727898
0.99723931
0.99709875
0.99696851
0.99676032
0.99649948
0.99606755
0.99562242
0.99515044
0.99503675
0.99555371
0.99426804
0.99108601
0.98971517
0.99325164
0.99358268
0.9947361
0.99589177
0.99664329
0.99684455
0.99682743
0.99670961
0.99659937
0.99642124
0.99618954
0.99580518
0.9953862
0.99497135
0.99472488
0.99498444
0.99392599
0.99092149
0.98949001
0.99291655
0.99320269
0.9942799
0.99539098
0.99614314
0.99636959
0.99637504
0.99628346
0.99619886
0.99605951
0.99587412
0.99556202
0.9952176
0.9949241
0.99466513
0.99448062
0.99364223
0.99086063
0.98930017
0.99254782
0.99278828
0.99379174
0.99485613
0.99560341
0.99584773
0.99587319
0.99580737
0.99575322
0.99565625
0.99553446
0.99530686
0.99508456
0.99494338
0.99480512
0.99416608
0.99342106
0.99085848
0.98913454
0.99213523
0.9923269
0.99325883
0.99427471
0.99501118
0.99526558
0.99530636
0.99526294
0.99523959
0.99518319
0.99513119
0.99498798
0.99490645
0.99494331