/*--------------------------------*- C++ -*----------------------------------*\
| =========                 |                                                 |
| \\      /  F ield         | OpenFOAM: The Open Source CFD Toolbox           |
|  \\    /   O peration     | Version:  2406                                  |
|   \\  /    A nd           | Website:  www.openfoam.com                      |
|    \\/     M anipulation  |                                                 |
\*---------------------------------------------------------------------------*/
FoamFile
{
    version     2.0;
    format      ascii;
    arch        "LSB;label=32;scalar=64";
    class       volScalarField;
    location    "55140";
    object      TMean;
}
// * * * * * * * * * * * * * * * * * * * * * * * * * * * * * * * * * * * * * //

dimensions      [0 0 0 1 0 0 0];

internalField   nonuniform List<scalar> 
94692
(
1.0005372
1.0005386
1.0005402
1.0005416
1.0005434
1.0005454
1.0005479
1.0005506
1.0005536
1.0005569
1.0005606
1.0005645
1.0005689
1.0005735
1.0005785
1.0005838
1.0005895
1.0005954
1.0006017
1.0006084
1.0006154
1.0006228
1.0006306
1.0006388
1.0006473
1.0006563
1.0006656
1.0006754
1.0006857
1.0006963
1.0007073
1.000719
1.000731
1.0007436
1.0007566
1.0007702
1.0007843
1.000799
1.0008143
1.0008302
1.0008467
1.0008638
1.0008816
1.0009001
1.0009192
1.0009391
1.0009598
1.0009813
1.0010038
1.0010269
1.0010509
1.001076
1.0011019
1.0011289
1.0011569
1.001186
1.0012163
1.0012478
1.0012805
1.0013146
1.0013499
1.0013864
1.0014246
1.0014641
1.0015052
1.0015478
1.001592
1.001638
1.0016857
1.0017351
1.0017863
1.0018394
1.0018944
1.0019513
1.0020102
1.0020709
1.0021334
1.0021978
1.0022639
1.0023318
1.0024012
1.0024719
1.0025435
1.0026159
1.0026882
1.0027609
1.0028322
1.0029021
1.0029706
1.0030354
1.0030944
1.0031457
1.0031861
1.0032112
1.0032143
1.0031872
1.0031181
1.0029944
1.0027934
1.000537
1.0005386
1.0005402
1.0005416
1.0005434
1.0005455
1.0005479
1.0005506
1.0005536
1.0005569
1.0005605
1.0005646
1.0005688
1.0005735
1.0005785
1.0005837
1.0005894
1.0005954
1.0006017
1.0006083
1.0006153
1.0006227
1.0006305
1.0006387
1.0006471
1.0006561
1.0006654
1.0006752
1.0006854
1.000696
1.0007072
1.0007187
1.0007307
1.0007432
1.0007563
1.0007698
1.0007839
1.0007985
1.0008139
1.0008297
1.0008462
1.0008633
1.000881
1.0008994
1.0009185
1.0009384
1.000959
1.0009806
1.0010028
1.001026
1.00105
1.0010749
1.001101
1.0011279
1.0011559
1.0011849
1.0012152
1.0012466
1.0012793
1.0013133
1.0013486
1.0013852
1.0014232
1.0014627
1.0015038
1.0015464
1.0015906
1.0016366
1.0016842
1.0017337
1.0017849
1.001838
1.0018929
1.0019499
1.0020087
1.0020693
1.0021318
1.002196
1.002262
1.0023296
1.0023987
1.0024688
1.0025399
1.0026114
1.0026831
1.0027546
1.0028247
1.0028931
1.0029584
1.0030189
1.0030731
1.0031191
1.0031533
1.0031727
1.00317
1.0031388
1.0030654
1.0029399
1.0027242
1.0005368
1.0005385
1.0005402
1.0005416
1.0005433
1.0005455
1.0005478
1.0005505
1.0005536
1.0005568
1.0005605
1.0005645
1.0005688
1.0005735
1.0005784
1.0005837
1.0005893
1.0005953
1.0006016
1.0006082
1.0006152
1.0006227
1.0006304
1.0006386
1.0006471
1.000656
1.0006654
1.0006752
1.0006854
1.000696
1.0007071
1.0007187
1.0007307
1.0007432
1.0007563
1.0007698
1.0007839
1.0007985
1.0008138
1.0008296
1.0008462
1.0008631
1.0008809
1.0008993
1.0009185
1.0009383
1.000959
1.0009805
1.0010028
1.0010259
1.0010499
1.0010749
1.0011009
1.0011278
1.0011558
1.001185
1.0012152
1.0012467
1.0012794
1.0013133
1.0013485
1.0013852
1.0014232
1.0014627
1.0015038
1.0015464
1.0015907
1.0016366
1.0016843
1.0017337
1.001785
1.0018379
1.0018929
1.0019498
1.0020084
1.002069
1.0021313
1.0021955
1.0022612
1.0023284
1.0023972
1.0024669
1.0025375
1.0026085
1.0026794
1.0027497
1.0028186
1.0028853
1.0029481
1.0030057
1.0030565
1.0030982
1.0031276
1.0031408
1.0031321
1.0030953
1.0030165
1.0028939
1.0026708
1.0005366
1.0005384
1.0005401
1.0005415
1.0005432
1.0005454
1.0005477
1.0005505
1.0005535
1.0005568
1.0005605
1.0005645
1.0005687
1.0005734
1.0005784
1.0005836
1.0005892
1.0005952
1.0006015
1.0006081
1.0006151
1.0006225
1.0006303
1.0006385
1.000647
1.0006558
1.0006652
1.000675
1.0006851
1.0006958
1.0007069
1.0007184
1.0007304
1.0007429
1.000756
1.0007695
1.0007835
1.0007983
1.0008135
1.0008292
1.0008457
1.0008628
1.0008805
1.0008989
1.0009179
1.0009378
1.0009585
1.00098
1.0010022
1.0010253
1.0010493
1.0010743
1.0011002
1.0011271
1.0011551
1.0011842
1.0012144
1.0012459
1.0012785
1.0013124
1.0013477
1.0013842
1.0014223
1.0014618
1.0015029
1.0015455
1.0015897
1.0016356
1.0016832
1.0017326
1.0017838
1.0018369
1.0018918
1.0019486
1.0020073
1.0020678
1.0021301
1.0021941
1.0022597
1.0023268
1.0023954
1.0024647
1.0025349
1.0026055
1.0026757
1.0027452
1.002813
1.0028782
1.0029394
1.0029947
1.0030429
1.0030813
1.0031071
1.0031164
1.0031031
1.0030623
1.0029791
1.002856
1.0026346
1.0005364
1.0005383
1.00054
1.0005414
1.0005432
1.0005453
1.0005476
1.0005503
1.0005534
1.0005567
1.0005604
1.0005644
1.0005686
1.0005733
1.0005782
1.0005835
1.0005891
1.0005951
1.0006014
1.000608
1.000615
1.0006224
1.0006301
1.0006383
1.0006468
1.0006557
1.0006651
1.0006748
1.000685
1.0006957
1.0007067
1.0007182
1.0007302
1.0007427
1.0007558
1.0007693
1.0007834
1.000798
1.0008132
1.000829
1.0008455
1.0008624
1.0008801
1.0008985
1.0009176
1.0009374
1.0009581
1.0009795
1.0010018
1.0010248
1.0010489
1.0010738
1.0010998
1.0011267
1.0011546
1.0011836
1.0012139
1.0012454
1.001278
1.0013119
1.0013471
1.0013836
1.0014217
1.0014611
1.0015022
1.0015447
1.0015889
1.0016348
1.0016824
1.0017317
1.0017829
1.001836
1.0018907
1.0019474
1.0020061
1.0020664
1.0021286
1.0021925
1.0022579
1.0023248
1.0023931
1.0024621
1.0025318
1.0026018
1.0026714
1.00274
1.0028068
1.0028707
1.0029305
1.0029841
1.0030302
1.0030665
1.0030896
1.0030963
1.00308
1.0030365
1.002951
1.0028274
1.0026083
1.0005362
1.0005382
1.0005399
1.0005413
1.0005431
1.0005452
1.0005476
1.0005504
1.0005533
1.0005567
1.0005603
1.0005643
1.0005685
1.0005731
1.0005781
1.0005833
1.000589
1.0005949
1.0006013
1.0006078
1.0006148
1.0006222
1.0006299
1.0006381
1.0006466
1.0006556
1.0006649
1.0006746
1.0006848
1.0006954
1.0007065
1.000718
1.00073
1.0007425
1.0007554
1.0007689
1.000783
1.0007976
1.0008128
1.0008286
1.000845
1.000862
1.0008797
1.000898
1.000917
1.000937
1.0009575
1.000979
1.0010012
1.0010242
1.0010482
1.0010731
1.0010991
1.0011259
1.0011538
1.0011829
1.0012131
1.0012445
1.0012771
1.001311
1.0013461
1.0013826
1.0014206
1.00146
1.0015009
1.0015435
1.0015876
1.0016334
1.0016809
1.0017302
1.0017813
1.0018343
1.001889
1.0019454
1.0020039
1.0020641
1.002126
1.0021897
1.0022549
1.0023215
1.0023893
1.0024579
1.0025272
1.0025965
1.0026655
1.0027333
1.0027991
1.0028618
1.0029201
1.0029724
1.0030168
1.0030512
1.0030723
1.003077
1.0030587
1.0030137
1.0029275
1.0028043
1.0025883
1.0005359
1.000538
1.0005398
1.0005412
1.000543
1.0005452
1.0005475
1.0005502
1.0005532
1.0005564
1.0005601
1.0005641
1.0005683
1.000573
1.000578
1.0005832
1.0005888
1.0005948
1.0006011
1.0006076
1.0006147
1.000622
1.0006298
1.0006379
1.0006465
1.0006554
1.0006647
1.0006744
1.0006845
1.0006951
1.0007063
1.0007177
1.0007297
1.0007422
1.0007552
1.0007687
1.0007827
1.0007973
1.0008124
1.0008281
1.0008445
1.0008615
1.0008791
1.0008974
1.0009165
1.0009363
1.000957
1.0009783
1.0010005
1.0010235
1.0010475
1.0010724
1.0010982
1.001125
1.001153
1.001182
1.0012121
1.0012434
1.0012759
1.0013097
1.0013448
1.0013812
1.0014191
1.0014584
1.0014992
1.0015416
1.0015855
1.0016312
1.0016786
1.0017277
1.0017786
1.0018312
1.0018857
1.0019421
1.002
1.0020599
1.0021215
1.0021848
1.0022495
1.0023155
1.0023828
1.0024508
1.0025193
1.0025878
1.0026558
1.0027225
1.0027872
1.0028486
1.0029056
1.0029565
1.0029993
1.0030324
1.0030515
1.0030552
1.003036
1.0029904
1.0029043
1.0027822
1.0025712
1.0005357
1.0005379
1.0005397
1.0005411
1.0005429
1.000545
1.0005474
1.0005501
1.000553
1.0005564
1.0005599
1.000564
1.0005682
1.0005728
1.0005778
1.000583
1.0005886
1.0005946
1.0006008
1.0006075
1.0006144
1.0006218
1.0006296
1.0006377
1.0006463
1.0006552
1.0006645
1.0006742
1.0006843
1.0006949
1.0007059
1.0007173
1.0007293
1.0007417
1.0007547
1.0007682
1.0007822
1.0007966
1.0008118
1.0008275
1.0008437
1.0008607
1.0008782
1.0008965
1.0009156
1.0009353
1.0009558
1.0009771
1.0009991
1.0010222
1.001046
1.0010708
1.0010965
1.0011232
1.0011511
1.00118
1.0012099
1.001241
1.0012734
1.001307
1.0013418
1.0013781
1.0014157
1.0014547
1.0014953
1.0015374
1.0015811
1.0016264
1.0016734
1.0017222
1.0017726
1.0018249
1.0018789
1.0019347
1.0019921
1.0020515
1.0021124
1.0021749
1.0022389
1.002304
1.0023704
1.0024375
1.0025048
1.0025723
1.0026391
1.0027044
1.0027678
1.0028279
1.0028834
1.0029329
1.0029742
1.0030061
1.0030232
1.003026
1.0030063
1.0029609
1.0028761
1.002756
1.0025515
1.0005355
1.0005378
1.0005396
1.000541
1.0005428
1.0005449
1.0005472
1.00055
1.0005529
1.0005561
1.0005598
1.0005638
1.000568
1.0005727
1.0005775
1.0005828
1.0005885
1.0005943
1.0006006
1.0006072
1.0006142
1.0006216
1.0006293
1.0006375
1.0006458
1.0006547
1.0006639
1.0006737
1.0006837
1.0006942
1.0007051
1.0007165
1.0007284
1.0007407
1.0007537
1.0007669
1.0007808
1.0007953
1.0008102
1.0008257
1.0008418
1.0008586
1.000876
1.0008942
1.000913
1.0009326
1.0009528
1.000974
1.0009958
1.0010185
1.0010422
1.0010667
1.0010921
1.0011186
1.0011461
1.0011746
1.0012042
1.001235
1.0012669
1.0013001
1.0013346
1.0013704
1.0014075
1.0014461
1.0014862
1.0015277
1.0015708
1.0016155
1.001662
1.0017101
1.0017599
1.0018113
1.0018645
1.0019195
1.0019763
1.0020346
1.0020947
1.0021561
1.002219
1.0022831
1.0023482
1.002414
1.0024801
1.0025461
1.0026115
1.0026755
1.0027374
1.002796
1.0028501
1.0028983
1.0029385
1.0029694
1.0029855
1.0029875
1.0029676
1.0029226
1.0028396
1.0027214
1.0025244
1.0005353
1.0005377
1.0005394
1.0005409
1.0005427
1.0005448
1.0005471
1.0005498
1.0005528
1.000556
1.0005597
1.0005635
1.0005678
1.0005724
1.0005773
1.0005826
1.000588
1.000594
1.0006002
1.0006067
1.0006136
1.0006209
1.0006285
1.0006365
1.0006448
1.0006535
1.0006626
1.0006721
1.0006818
1.0006921
1.0007028
1.000714
1.0007256
1.0007376
1.0007502
1.0007632
1.0007767
1.0007908
1.0008054
1.0008206
1.0008363
1.0008527
1.0008696
1.0008874
1.0009058
1.0009249
1.0009447
1.0009653
1.0009868
1.0010089
1.0010321
1.001056
1.001081
1.0011069
1.0011337
1.0011616
1.0011907
1.0012209
1.0012523
1.0012848
1.0013186
1.0013537
1.0013902
1.0014281
1.0014674
1.0015081
1.0015504
1.0015943
1.0016398
1.001687
1.0017358
1.0017864
1.0018386
1.0018924
1.0019481
1.0020053
1.0020643
1.0021245
1.0021862
1.0022491
1.0023128
1.0023774
1.0024422
1.0025069
1.0025711
1.0026338
1.0026945
1.0027518
1.0028048
1.0028519
1.0028912
1.0029211
1.0029367
1.0029379
1.0029182
1.0028738
1.0027924
1.002676
1.0024865
1.0005351
1.0005375
1.0005394
1.0005408
1.0005425
1.0005446
1.000547
1.0005496
1.0005525
1.0005558
1.0005594
1.0005632
1.0005673
1.0005718
1.0005765
1.0005816
1.000587
1.0005926
1.0005986
1.0006047
1.0006113
1.0006182
1.0006254
1.0006329
1.0006407
1.0006488
1.0006574
1.0006663
1.0006756
1.0006853
1.0006954
1.0007058
1.0007168
1.0007282
1.0007402
1.0007524
1.0007653
1.0007786
1.0007926
1.000807
1.0008221
1.0008378
1.0008541
1.0008712
1.0008888
1.0009072
1.0009263
1.0009461
1.0009669
1.0009885
1.0010108
1.001034
1.0010582
1.0010833
1.0011093
1.0011366
1.0011648
1.0011941
1.0012245
1.0012562
1.0012892
1.0013234
1.0013591
1.001396
1.0014343
1.0014742
1.0015156
1.0015585
1.0016032
1.0016494
1.0016973
1.0017466
1.001798
1.0018509
1.0019054
1.0019616
1.0020194
1.0020787
1.0021392
1.002201
1.0022638
1.0023271
1.0023909
1.0024545
1.0025175
1.002579
1.0026386
1.0026949
1.0027468
1.002793
1.0028314
1.0028602
1.0028761
1.0028764
1.0028566
1.0028126
1.0027327
1.0026175
1.0024341
1.0005349
1.0005374
1.0005393
1.0005407
1.0005424
1.0005443
1.0005467
1.0005492
1.0005519
1.000555
1.0005583
1.0005617
1.0005654
1.0005693
1.0005734
1.0005781
1.0005827
1.0005875
1.0005927
1.0005977
1.0006031
1.0006089
1.000615
1.0006215
1.0006283
1.0006355
1.000643
1.0006509
1.0006591
1.0006678
1.0006768
1.0006863
1.0006963
1.0007066
1.0007175
1.0007289
1.0007408
1.0007532
1.0007663
1.0007797
1.0007939
1.0008088
1.0008241
1.0008403
1.0008571
1.0008746
1.0008928
1.0009119
1.0009317
1.0009524
1.0009739
1.0009964
1.0010196
1.001044
1.0010693
1.0010956
1.0011231
1.0011516
1.0011813
1.0012122
1.0012443
1.0012778
1.0013126
1.0013487
1.0013862
1.0014253
1.0014658
1.001508
1.0015517
1.001597
1.001644
1.0016927
1.0017429
1.0017949
1.0018486
1.0019037
1.0019606
1.0020188
1.0020784
1.0021392
1.0022008
1.0022631
1.0023257
1.0023882
1.0024501
1.0025106
1.0025689
1.0026242
1.002675
1.0027199
1.0027576
1.002785
1.0028013
1.0028003
1.0027805
1.0027366
1.0026577
1.002543
1.0023648
1.0005347
1.0005373
1.0005391
1.0005404
1.0005419
1.0005437
1.0005455
1.0005475
1.0005497
1.0005517
1.0005537
1.0005557
1.0005577
1.0005599
1.0005623
1.0005649
1.0005678
1.0005709
1.0005744
1.000578
1.0005818
1.0005861
1.0005907
1.0005956
1.000601
1.0006067
1.0006128
1.0006193
1.0006263
1.0006339
1.0006419
1.0006504
1.0006593
1.0006688
1.0006786
1.0006891
1.0007
1.0007116
1.0007237
1.0007365
1.0007498
1.0007638
1.0007785
1.0007939
1.0008099
1.0008267
1.0008442
1.0008625
1.0008816
1.0009016
1.0009224
1.0009441
1.0009668
1.0009904
1.001015
1.0010407
1.0010674
1.0010952
1.0011243
1.0011545
1.0011859
1.0012186
1.0012526
1.0012881
1.0013249
1.0013631
1.0014028
1.0014441
1.001487
1.0015314
1.0015775
1.0016252
1.0016746
1.0017255
1.0017782
1.0018323
1.0018881
1.0019453
1.0020035
1.0020631
1.0021236
1.0021846
1.0022459
1.002307
1.0023675
1.0024266
1.0024835
1.0025373
1.0025867
1.0026301
1.0026664
1.002692
1.0027079
1.0027054
1.002685
1.0026405
1.0025621
1.0024472
1.0022729
1.0005345
1.0005372
1.0005386
1.0005395
1.0005399
1.0005401
1.0005399
1.0005393
1.0005386
1.0005376
1.0005364
1.000536
1.0005352
1.0005346
1.0005338
1.0005341
1.0005349
1.0005361
1.0005375
1.0005387
1.000541
1.0005438
1.0005471
1.0005508
1.0005551
1.0005597
1.0005648
1.0005704
1.000577
1.0005849
1.0005921
1.0005997
1.0006077
1.0006164
1.0006255
1.0006353
1.0006457
1.0006565
1.0006682
1.0006804
1.0006932
1.0007068
1.000721
1.0007358
1.0007514
1.0007677
1.0007847
1.0008026
1.0008211
1.0008406
1.0008608
1.000882
1.0009041
1.0009271
1.000951
1.000976
1.001002
1.0010292
1.0010575
1.0010869
1.0011175
1.0011493
1.0011826
1.0012171
1.0012529
1.0012903
1.0013289
1.0013692
1.0014109
1.0014543
1.0014992
1.0015457
1.0015937
1.0016433
1.0016945
1.0017474
1.0018015
1.001857
1.0019139
1.0019716
1.0020303
1.0020896
1.0021489
1.0022081
1.0022665
1.0023236
1.0023783
1.0024299
1.002477
1.0025183
1.0025521
1.002576
1.0025888
1.0025853
1.0025631
1.002517
1.0024376
1.0023212
1.0021493
1.000534
1.0005363
1.0005358
1.0005334
1.00053
1.000525
1.0005196
1.0005132
1.0005072
1.0005017
1.0004968
1.0004928
1.0004896
1.0004868
1.0004846
1.000483
1.000482
1.0004818
1.0004823
1.0004838
1.0004855
1.0004876
1.0004903
1.0004936
1.0004974
1.0005018
1.0005067
1.0005123
1.0005183
1.000525
1.0005322
1.0005399
1.000548
1.0005567
1.0005659
1.0005756
1.0005859
1.0005967
1.0006082
1.0006201
1.0006328
1.0006461
1.0006598
1.0006743
1.0006894
1.0007053
1.0007219
1.0007391
1.0007571
1.0007759
1.0007955
1.0008159
1.0008372
1.0008594
1.0008826
1.0009066
1.0009316
1.0009578
1.000985
1.0010133
1.0010427
1.0010734
1.0011052
1.0011384
1.0011728
1.0012086
1.0012459
1.0012845
1.0013245
1.0013661
1.0014091
1.0014537
1.0014998
1.0015475
1.0015964
1.001647
1.0016989
1.0017521
1.0018063
1.0018616
1.0019178
1.0019742
1.0020308
1.0020872
1.0021425
1.0021966
1.0022483
1.0022966
1.0023405
1.0023787
1.0024087
1.0024303
1.002438
1.0024324
1.002407
1.0023575
1.0022754
1.0021555
1.0019822
1.0005321
1.0005297
1.0005214
1.0005085
1.0004952
1.0004811
1.0004687
1.000458
1.0004487
1.0004408
1.0004341
1.0004293
1.0004253
1.0004223
1.0004205
1.0004194
1.0004191
1.0004198
1.000421
1.0004228
1.0004253
1.0004283
1.000432
1.0004361
1.0004405
1.0004456
1.000451
1.0004569
1.0004633
1.0004701
1.0004774
1.0004852
1.0004934
1.0005022
1.0005113
1.0005209
1.0005311
1.0005417
1.0005527
1.0005645
1.0005765
1.0005893
1.0006025
1.0006165
1.0006309
1.000646
1.0006617
1.0006781
1.0006952
1.0007129
1.0007315
1.0007507
1.0007708
1.0007917
1.0008134
1.000836
1.0008596
1.0008841
1.0009096
1.0009362
1.0009639
1.0009925
1.0010225
1.0010535
1.0010858
1.0011194
1.0011543
1.0011903
1.0012279
1.0012669
1.0013072
1.001349
1.0013922
1.0014368
1.0014828
1.00153
1.0015787
1.0016285
1.0016792
1.0017309
1.0017832
1.001836
1.0018886
1.001941
1.0019924
1.0020423
1.0020897
1.002134
1.0021735
1.0022076
1.0022323
1.0022525
1.0022516
1.0022437
1.0022135
1.0021591
1.0020724
1.0019474
1.0017665
1.0005217
1.0004986
1.0004706
1.0004437
1.0004219
1.0004051
1.0003927
1.0003826
1.000375
1.0003698
1.0003662
1.000364
1.0003628
1.0003628
1.0003634
1.0003646
1.0003664
1.0003688
1.0003716
1.0003749
1.0003786
1.0003827
1.0003872
1.000392
1.0003971
1.0004026
1.0004084
1.0004146
1.0004211
1.0004281
1.0004353
1.0004429
1.0004508
1.0004592
1.0004679
1.0004771
1.0004866
1.0004966
1.0005071
1.0005179
1.0005293
1.000541
1.0005532
1.000566
1.0005794
1.0005932
1.0006078
1.0006227
1.0006383
1.0006547
1.0006716
1.0006892
1.0007075
1.0007265
1.0007464
1.000767
1.0007885
1.0008108
1.0008341
1.0008582
1.0008834
1.0009095
1.0009368
1.000965
1.0009945
1.001025
1.0010568
1.0010898
1.001124
1.0011595
1.001196
1.0012342
1.0012735
1.0013142
1.0013561
1.0013993
1.0014435
1.0014887
1.001535
1.0015821
1.0016298
1.0016776
1.0017255
1.0017729
1.0018195
1.0018643
1.0019069
1.0019462
1.0019809
1.0020103
1.0020305
1.0020451
1.0020423
1.0020293
1.0019946
1.0019361
1.0018449
1.0017172
1.001521
1.0004679
1.0004124
1.0003747
1.0003511
1.0003366
1.0003285
1.0003242
1.0003222
1.0003212
1.0003215
1.0003225
1.0003238
1.0003255
1.0003277
1.0003302
1.000333
1.0003362
1.0003397
1.0003434
1.0003474
1.0003517
1.000356
1.0003608
1.0003657
1.0003707
1.0003761
1.0003817
1.0003876
1.0003938
1.0004003
1.000407
1.0004141
1.0004214
1.0004291
1.0004372
1.0004454
1.0004541
1.0004631
1.0004726
1.0004824
1.0004926
1.0005033
1.0005143
1.0005258
1.0005378
1.0005502
1.000563
1.0005765
1.0005905
1.000605
1.0006201
1.0006357
1.0006521
1.000669
1.0006868
1.0007052
1.0007243
1.0007441
1.0007648
1.0007864
1.0008088
1.0008321
1.0008562
1.0008814
1.0009075
1.0009346
1.0009629
1.0009922
1.0010226
1.0010542
1.0010869
1.0011207
1.0011558
1.001192
1.0012293
1.0012678
1.0013071
1.0013475
1.0013888
1.0014309
1.0014734
1.0015162
1.0015589
1.0016014
1.001643
1.0016831
1.0017211
1.0017561
1.0017871
1.0018138
1.001831
1.0018456
1.0018413
1.001827
1.0017922
1.0017352
1.0016462
1.0015281
1.0013332
1.0003317
1.000307
1.0002967
1.000296
1.0002972
1.0002988
1.0003005
1.0003023
1.0003042
1.0003064
1.0003087
1.000311
1.0003136
1.0003161
1.0003189
1.000322
1.0003253
1.0003288
1.0003326
1.0003366
1.0003407
1.000345
1.0003493
1.0003539
1.0003587
1.0003637
1.000369
1.0003744
1.0003801
1.000386
1.0003922
1.0003987
1.0004054
1.0004125
1.0004198
1.0004274
1.0004353
1.0004436
1.0004521
1.0004611
1.0004704
1.00048
1.00049
1.0005006
1.0005114
1.0005227
1.0005344
1.0005465
1.0005593
1.0005724
1.0005861
1.0006002
1.000615
1.0006303
1.0006463
1.0006628
1.0006801
1.000698
1.0007167
1.000736
1.0007561
1.0007771
1.0007989
1.0008215
1.000845
1.0008694
1.0008949
1.0009212
1.0009485
1.0009769
1.0010063
1.0010368
1.0010682
1.0011009
1.0011345
1.0011692
1.0012048
1.0012413
1.0012786
1.0013167
1.0013555
1.0013945
1.0014336
1.0014726
1.001511
1.0015483
1.0015845
1.0016191
1.0016513
1.0016807
1.0017032
1.0017144
1.0017176
1.0017072
1.0016781
1.0016337
1.0015625
1.0014915
1.0013252
1.001142
1.0011565
1.0012979
1.0015219
1.0017438
1.0019168
1.0020449
1.0021396
1.0022103
1.0022633
1.0023015
1.0023279
1.0023459
1.0023605
1.0023764
1.0023975
1.0024268
1.0024688
1.0025435
1.0010184
1.0009863
1.0010757
1.0012666
1.0014958
1.0016799
1.001816
1.0019164
1.0019913
1.0020471
1.0020875
1.0021148
1.0021318
1.0021432
1.0021533
1.0021655
1.0021831
1.0022024
1.0022602
1.0007551
1.0007574
1.0008271
1.0009829
1.0011963
1.0013938
1.0015386
1.0016439
1.0017217
1.0017791
1.0018208
1.0018476
1.0018632
1.0018711
1.0018757
1.0018791
1.0018874
1.0018899
1.001925
1.0007035
1.0004695
1.0005233
1.0006343
1.0008252
1.0010407
1.0012016
1.0013151
1.0013975
1.0014576
1.0015014
1.0015288
1.0015437
1.0015491
1.0015491
1.0015454
1.0015443
1.0015357
1.0015466
1.0003541
1.0001802
1.00022
1.0002697
1.0003977
1.00062
1.0008043
1.00093
1.0010187
1.001083
1.00113
1.0011589
1.0011742
1.0011776
1.0011738
1.0011638
1.0011526
1.0011339
1.00112
1.0004452
0.99986001
0.99982373
0.99987077
0.99995982
1.0001476
1.0003569
1.0004994
1.0005946
1.0006617
1.0007108
1.0007406
1.0007553
1.0007565
1.0007487
1.0007327
1.0007111
1.0006832
1.0006461
1.0002244
0.99912407
0.99943096
0.99944629
0.99949142
0.99964369
0.9998556
1.000018
1.0001225
1.0001931
1.000244
1.0002745
1.0002892
1.0002879
1.0002766
1.0002554
1.0002238
1.0001877
1.0001299
0.99936396
0.99935202
0.99891394
0.9988984
0.99897589
0.99909885
0.99930559
0.99948891
0.99960656
0.99968191
0.99973515
0.99976695
0.99978158
0.99977878
0.99976453
0.99973914
0.99969892
0.99965564
0.99957957
0.99990545
0.99874903
0.99853114
0.99842088
0.99842149
0.99852932
0.9987232
0.9989219
0.99905624
0.99913887
0.99919507
0.99922872
0.99924401
0.99924056
0.9992242
0.99919582
0.99914858
0.99909957
0.99900825
0.99798163
0.99843946
0.99795541
0.99785008
0.99788122
0.99795623
0.99812993
0.99834432
0.99849702
0.99858776
0.99864661
0.99868158
0.99869722
0.99869328
0.99867523
0.99864468
0.99859204
0.99853885
0.9984355
0.99886398
0.99873957
0.99775252
0.99744046
0.99737123
0.99741525
0.99755079
0.99776395
0.99794047
0.9980441
0.99810739
0.99814454
0.99816143
0.9981581
0.99813969
0.99810849
0.99805276
0.99799765
0.99788601
0.99926463
0.99825717
0.997519
0.99704019
0.99687546
0.99688159
0.99698497
0.99718292
0.99738481
0.99750997
0.99758344
0.99762739
0.99764942
0.99765062
0.99763584
0.99760789
0.99755348
0.99750063
0.99738597
0.99842036
0.99803944
0.99759474
0.99684119
0.99651697
0.99645704
0.99652479
0.9966949
0.99690802
0.99705254
0.9971346
0.99718346
0.99720918
0.9972142
0.99720292
0.99717877
0.99712748
0.99707938
0.99696568
0.99812451
0.9978995
0.99746182
0.99673283
0.99629083
0.99616948
0.99620334
0.99634374
0.99655412
0.99671252
0.99679992
0.9968503
0.99687706
0.99688337
0.99687376
0.99685223
0.99680445
0.99676218
0.99665198
0.99805901
0.99779526
0.9973074
0.99669466
0.99617051
0.99597846
0.99597838
0.99609409
0.99629558
0.99646541
0.99656039
0.99661401
0.99664268
0.99665198
0.99664612
0.99662839
0.99658743
0.99655071
0.99645106
0.99802159
0.99774656
0.99722846
0.99665362
0.99611082
0.99587309
0.99584731
0.9959499
0.99614366
0.99631783
0.99641564
0.99646972
0.99650073
0.99651251
0.9965111
0.99649911
0.99646884
0.99643889
0.9963541
0.99800202
0.99776829
0.99725449
0.9966631
0.99612482
0.99584957
0.9958003
0.99588556
0.99606827
0.99624456
0.99634835
0.99640694
0.99643857
0.99645315
0.99645669
0.9964496
0.99642676
0.99639871
0.9963379
0.99800791
0.99781636
0.99731302
0.99669301
0.99616282
0.99587977
0.9958181
0.99590355
0.99608744
0.99625915
0.99635673
0.99640719
0.99643281
0.99644899
0.99645807
0.9964567
0.99643998
0.99641854
0.99637509
0.99802608
0.99786661
0.9973754
0.9967308
0.99620664
0.99593436
0.99587178
0.99596003
0.99614192
0.9963037
0.99639436
0.99644274
0.99646987
0.99648647
0.99649401
0.9964943
0.99648198
0.9964644
0.9964415
0.99805812
0.99792019
0.99743222
0.99676807
0.99626051
0.99599989
0.99594471
0.99604348
0.99622725
0.99637542
0.99645622
0.99649913
0.99652543
0.99654108
0.99654854
0.99654947
0.99653949
0.99652847
0.99652385
0.99809629
0.99796783
0.99746662
0.996794
0.99631085
0.9960698
0.99602915
0.99614554
0.99632768
0.99646005
0.99652941
0.9965673
0.99659119
0.99660509
0.99661173
0.99661174
0.99660489
0.99660334
0.99661231
0.99813432
0.9980094
0.99748583
0.99682034
0.99635208
0.99613918
0.99611939
0.99625681
0.99643156
0.99654578
0.99660377
0.99663693
0.99665773
0.99666931
0.99667493
0.99667405
0.99667283
0.99668163
0.9966988
0.99817382
0.99804551
0.99747235
0.99681137
0.99638692
0.99620645
0.99621485
0.99637143
0.99653311
0.99662789
0.99667574
0.99670415
0.99672119
0.99673015
0.99673386
0.99673407
0.99674116
0.99675951
0.99678195
0.9982103
0.99806916
0.99745151
0.99679673
0.99641512
0.99627199
0.99631342
0.99648281
0.99662611
0.99670202
0.99674118
0.99676427
0.99677699
0.99678373
0.99678634
0.99679409
0.99681295
0.99683647
0.99685104
0.9982448
0.99808708
0.99742787
0.99680548
0.99644402
0.99633445
0.99641428
0.99658655
0.99670855
0.99676856
0.99680073
0.99681908
0.9968289
0.99683404
0.99684035
0.99685457
0.99687373
0.99688429
0.99692889
0.99827382
0.99808923
0.99739965
0.99679418
0.99647448
0.99639882
0.99651316
0.99667739
0.99677678
0.99682401
0.99684893
0.99686133
0.99686694
0.9968723
0.99688441
0.99690046
0.99692195
0.99694315
0.99726203
0.99831352
0.99808798
0.99736271
0.99677595
0.99651227
0.99647172
0.99661556
0.99676348
0.99684126
0.99687789
0.99689643
0.99690661
0.99691715
0.99693288
0.99694309
0.99696255
0.99699825
0.99716469
0.99827373
0.99833495
0.99806759
0.99732209
0.99676473
0.99655037
0.99654455
0.99670221
0.99683173
0.99689311
0.99692226
0.99693764
0.99694806
0.99695434
0.99695312
0.99695661
0.99697197
0.99711984
0.99765009
0.99980311
0.99842738
0.99806699
0.99725613
0.99675618
0.99658275
0.99664445
0.99681675
0.99691489
0.99695589
0.99697782
0.99699094
0.99699913
0.9970037
0.99701679
0.99705813
0.99719158
0.99770542
0.99894632
1.000703
0.99823538
0.99804874
0.99732267
0.99681554
0.99663546
0.99668507
0.99683875
0.99693474
0.99698332
0.99701105
0.99703498
0.9970618
0.99707561
0.99710011
0.99716752
0.99737714
0.99795265
0.99954269
1.0010252
0.99882876
0.99815148
0.99738591
0.99685634
0.99664137
0.99667991
0.99683454
0.99693702
0.99698881
0.99701755
0.9970404
0.99706036
0.99708108
0.9970895
0.99714966
0.9973259
0.99792858
0.99969318
1.0009822
0.99832488
0.99815819
0.99742313
0.99689531
0.99666456
0.9966789
0.99683353
0.99693701
0.99698635
0.99701424
0.99703715
0.99705947
0.99708131
0.99708973
0.9971259
0.99732597
0.99799501
0.99984901
1.0009261
0.99826082
0.9981841
0.99746956
0.99693852
0.99670479
0.99671961
0.99686044
0.99696276
0.99701066
0.99703155
0.99705165
0.99707289
0.99709362
0.99710058
0.99712649
0.99735449
0.99813234
1.0000258
1.0008893
0.99822969
0.99813832
0.99751412
0.99698794
0.99672265
0.99673175
0.99686476
0.99696743
0.9970173
0.99704239
0.997062
0.99708262
0.9971014
0.9971076
0.99714432
0.99736706
0.99828948
1.0001645
1.000852
0.99833899
0.99815968
0.99755319
0.99702192
0.99675523
0.9967376
0.9968624
0.99696369
0.99701517
0.99704049
0.99706039
0.99708085
0.99709913
0.99710419
0.99713918
0.99735713
0.99846028
1.0002843
1.0008308
0.99813858
0.99811399
0.99758977
0.99706316
0.99676301
0.99674554
0.9968609
0.99695911
0.99700829
0.99703488
0.99705507
0.99707571
0.99709478
0.99710043
0.99713616
0.99739745
0.99864027
1.0003784
1.0008218
0.99871096
0.99815679
0.99760318
0.99705699
0.99678118
0.99672695
0.99682999
0.99693936
0.99698994
0.99702045
0.99704506
0.99706779
0.99708894
0.99709716
0.99713489
0.9973632
0.99881128
1.0004546
1.0008246
0.99826863
0.99820112
0.99763674
0.99710471
0.99675024
0.99672689
0.9968381
0.99693691
0.9969907
0.99702123
0.99704512
0.99706803
0.99708844
0.9970989
0.9971351
0.99749388
0.99899617
1.0005139
1.000835
0.99820821
0.99820778
0.99765909
0.99711975
0.9968192
0.99675435
0.99686003
0.99696755
0.99701229
0.99703943
0.99706036
0.99708019
0.99709834
0.99710833
0.99713907
0.99749064
0.99918608
1.0005555
1.0008481
0.99820988
0.99817515
0.997697
0.99717926
0.99685654
0.99677819
0.9968684
0.99697192
0.99702729
0.99705321
0.99707282
0.9970944
0.99710931
0.99711954
0.99715574
0.99761378
0.99937634
1.0005874
1.0008612
0.99824765
0.99816398
0.99771905
0.99718918
0.99684375
0.99678352
0.99687188
0.99697406
0.99703092
0.99705866
0.99707967
0.99710055
0.99711761
0.99712908
0.99715989
0.9976965
0.99955771
1.000614
1.0008736
0.99826486
0.99815433
0.99773692
0.99721897
0.99689606
0.99679733
0.99687445
0.99697636
0.99703486
0.99706452
0.99708578
0.9971069
0.99712556
0.99713751
0.99717764
0.99784293
0.9997277
1.00064
1.0008854
0.99838721
0.99817304
0.99777243
0.99726952
0.99690227
0.99680862
0.99687873
0.99698111
0.99704017
0.99707049
0.99709318
0.99711437
0.99713286
0.99714756
0.99717928
0.99799133
0.99987755
1.0006676
1.0008974
0.99817334
0.99815055
0.9977821
0.99727904
0.99695343
0.99682784
0.99688519
0.99698596
0.99704701
0.99707854
0.99710155
0.99712318
0.99714179
0.99715757
0.99719932
0.99816734
1.0000048
1.0006957
1.0009097
0.99866568
0.99819047
0.99780006
0.99730065
0.99693538
0.99681874
0.99687525
0.9969782
0.99704365
0.99707756
0.99710271
0.99712643
0.9971469
0.99716386
0.99720299
0.99835327
1.0001171
1.0007246
1.0009222
0.99828096
0.99822901
0.99781138
0.9973229
0.99696908
0.9968317
0.99687903
0.99698289
0.9970475
0.99708226
0.99710832
0.99713255
0.99715103
0.99717319
0.99723551
0.99854048
1.0002148
1.0007547
1.000936
0.99821912
0.99823348
0.99784793
0.99737871
0.99701577
0.9968686
0.99691163
0.99700968
0.99707229
0.99710404
0.99712771
0.99714957
0.99716577
0.99718692
0.99728746
0.99872718
1.0002899
1.0007839
1.0009507
0.99822317
0.99822471
0.9978677
0.99739621
0.99703749
0.99689193
0.99691922
0.99702007
0.99708561
0.99711958
0.99714428
0.9971654
0.99718094
0.99720402
0.99737173
0.99891309
1.0003487
1.0008118
1.0009658
0.99823893
0.99819884
0.99788561
0.99742511
0.99706066
0.99690663
0.99692863
0.99702426
0.9970917
0.99712736
0.99715302
0.99717474
0.99719126
0.99721714
0.99746394
0.99909589
1.0003905
1.0008357
1.000981
0.99832968
0.99820561
0.99790265
0.99745493
0.99708199
0.99691923
0.99692957
0.99703041
0.99709789
0.99713532
0.99716206
0.99718379
0.99720066
0.99723374
0.99758068
0.99926502
1.0004242
1.0008553
1.0009959
0.9981604
0.99817846
0.99792528
0.99747982
0.99711
0.99693893
0.99694097
0.99703269
0.99710355
0.99714173
0.99716827
0.99719061
0.99720953
0.99724534
0.99773529
0.99942016
1.0004573
1.000872
1.0010103
0.99859965
0.99821664
0.99793851
0.99749755
0.99711198
0.99692944
0.99693416
0.9970274
0.99710055
0.99714221
0.99717061