/*--------------------------------*- C++ -*----------------------------------*\
| =========                 |                                                 |
| \\      /  F ield         | OpenFOAM: The Open Source CFD Toolbox           |
|  \\    /   O peration     | Version:  2406                                  |
|   \\  /    A nd           | Website:  www.openfoam.com                      |
|    \\/     M anipulation  |                                                 |
\*---------------------------------------------------------------------------*/
FoamFile
{
    version     2.0;
    format      ascii;
    arch        "LSB;label=32;scalar=64";
    class       volScalarField;
    location    "45";
    object      nut;
}
// * * * * * * * * * * * * * * * * * * * * * * * * * * * * * * * * * * * * * //

dimensions      [0 2 -1 0 0 0 0];

internalField   nonuniform List<scalar> 
20580
(
8.8351142e-07
8.540496e-07
8.3497446e-07
8.3102274e-07
8.2512317e-07
8.1273788e-07
7.9922727e-07
7.8950605e-07
7.848232e-07
7.8304901e-07
7.8163009e-07
7.7886842e-07
7.7675773e-07
7.7405291e-07
7.7337148e-07
7.6941305e-07
7.693971e-07
7.6699137e-07
7.6547831e-07
7.6465784e-07
7.650044e-07
7.6803704e-07
7.6942353e-07
7.7595523e-07
7.873613e-07
7.9800504e-07
8.1433098e-07
8.282419e-07
8.4664176e-07
8.7396156e-07
9.171471e-07
8.8623066e-07
8.6769799e-07
8.3910589e-07
8.3282332e-07
8.2774061e-07
8.1493558e-07
8.019827e-07
7.9220626e-07
7.8661807e-07
7.8401492e-07
7.8273158e-07
7.7876429e-07
7.7829035e-07
7.7503306e-07
7.7421356e-07
7.7032318e-07
7.6952162e-07
7.6736557e-07
7.6461854e-07
7.6475147e-07
7.6374172e-07
7.676314e-07
7.7048317e-07
7.737559e-07
7.8549676e-07
7.9521326e-07
8.0948977e-07
8.2713713e-07
8.4112829e-07
8.6150289e-07
9.0345967e-07
8.8582167e-07
8.8215868e-07
8.4933397e-07
8.3769235e-07
8.2965435e-07
8.1693099e-07
8.0299406e-07
7.9233197e-07
7.8777009e-07
7.8361489e-07
7.8443135e-07
7.8026742e-07
7.7926385e-07
7.7614421e-07
7.746794e-07
7.7236777e-07
7.6934274e-07
7.6979269e-07
7.6526019e-07
7.6522629e-07
7.6332929e-07
7.6592966e-07
7.7024523e-07
7.706719e-07
7.8175008e-07
7.9190606e-07
8.0561193e-07
8.2289773e-07
8.3775235e-07
8.5275986e-07
8.8966296e-07
8.8677534e-07
8.8559473e-07
8.5606313e-07
8.4138341e-07
8.3150361e-07
8.183261e-07
8.0327088e-07
7.9211987e-07
7.8761206e-07
7.8419822e-07
7.8450939e-07
7.8229199e-07
7.7976717e-07
7.7863911e-07
7.7569539e-07
7.7408596e-07
7.7001091e-07
7.6950191e-07
7.6748549e-07
7.6480438e-07
7.642641e-07
7.6432626e-07
7.7048035e-07
7.6859181e-07
7.7808516e-07
7.8750661e-07
7.9874834e-07
8.1266312e-07
8.3247873e-07
8.4406321e-07
8.762897e-07
8.8767969e-07
8.8847292e-07
8.6444424e-07
8.4804008e-07
8.3625768e-07
8.2187035e-07
8.0570092e-07
7.9339529e-07
7.8881902e-07
7.8650269e-07
7.852295e-07
7.8434705e-07
7.8120281e-07
7.7944511e-07
7.775689e-07
7.7484927e-07
7.7207282e-07
7.6897815e-07
7.6955219e-07
7.6357495e-07
7.6494608e-07
7.6324699e-07
7.7010968e-07
7.6879845e-07
7.7508372e-07
7.845768e-07
7.9398799e-07
8.0497561e-07
8.2183453e-07
8.3224559e-07
8.589925e-07
8.8809585e-07
8.9278372e-07
8.6925853e-07
8.6177761e-07
8.509469e-07
8.3245387e-07
8.1435254e-07
7.9978031e-07
7.9232179e-07
7.8914762e-07
7.8644566e-07
7.8472893e-07
7.8219651e-07
7.7899838e-07
7.7740389e-07
7.7405643e-07
7.7460279e-07
7.6865673e-07
7.7245378e-07
7.6547272e-07
7.6669946e-07
7.6462185e-07
7.6826982e-07
7.6975922e-07
7.7252091e-07
7.8245959e-07
7.9043573e-07
8.0078391e-07
8.169529e-07
8.271857e-07
8.4578738e-07
8.878643e-07
8.9393162e-07
8.6901919e-07
8.6372351e-07
8.5873949e-07
8.4699108e-07
8.2812022e-07
8.1257087e-07
8.0237249e-07
7.9656337e-07
7.9252661e-07
7.885275e-07
7.8625753e-07
7.8025613e-07
7.796051e-07
7.7429069e-07
7.757456e-07
7.6915841e-07
7.7153307e-07
7.6777666e-07
7.6838456e-07
7.6855047e-07
7.6850191e-07
7.7271075e-07
7.7267435e-07
7.8012104e-07
7.8746895e-07
7.9716498e-07
8.1143643e-07
8.2190524e-07
8.4047822e-07
8.8823802e-07
8.9273573e-07
8.6834015e-07
8.628945e-07
8.5833158e-07
8.4745613e-07
8.3185248e-07
8.207929e-07
8.1516515e-07
8.1216071e-07
8.1000684e-07
8.035642e-07
8.01067e-07
7.9084029e-07
7.8892331e-07
7.8099761e-07
7.7866148e-07
7.7341142e-07
7.7090126e-07
7.6973164e-07
7.6730453e-07
7.7094144e-07
7.6812333e-07
7.7297253e-07
7.7481384e-07
7.786631e-07
7.849002e-07
7.9356467e-07
8.0512446e-07
8.1484548e-07
8.3346891e-07
8.8774187e-07
9.2721555e-07
8.8655406e-07
8.7170649e-07
8.6285312e-07
8.489557e-07
8.3486931e-07
8.2275253e-07
8.2052893e-07
8.1982833e-07
8.2056226e-07
8.1830816e-07
8.1441771e-07
8.089049e-07
8.0400738e-07
7.9875213e-07
7.9122051e-07
7.8741731e-07
7.7864514e-07
7.741341e-07
7.700478e-07
7.6990089e-07
7.6975201e-07
7.7031984e-07
7.7587963e-07
7.7826442e-07
7.8363168e-07
7.9177153e-07
8.0091535e-07
8.1061635e-07
8.237399e-07
8.8078414e-07
9.8613343e-07
9.445072e-07
9.1772479e-07
8.9279613e-07
8.6030096e-07
8.3879326e-07
8.2367395e-07
8.2065358e-07
8.1980663e-07
8.196421e-07
8.1982326e-07
8.1485046e-07
8.1239486e-07
8.0747986e-07
8.0516796e-07
7.9978744e-07
7.9857183e-07
7.9148568e-07
7.8696413e-07
7.8266962e-07
7.7687941e-07
7.7321694e-07
7.726468e-07
7.7365392e-07
7.7871031e-07
7.83004e-07
7.9134405e-07
7.9908381e-07
8.0853716e-07
8.1906375e-07
8.5926023e-07
9.1585352e-07
9.2021654e-07
9.1547125e-07
9.0396884e-07
8.7648427e-07
8.4647091e-07
8.270567e-07
8.2222397e-07
8.2124427e-07
8.2022272e-07
8.213445e-07
8.1600278e-07
8.1389349e-07
8.09543e-07
8.0675457e-07
8.0323122e-07
8.0054037e-07
7.9679843e-07
7.9254499e-07
7.9099175e-07
7.8682457e-07
7.8499039e-07
7.8295213e-07
7.7899241e-07
7.8043393e-07
7.8377795e-07
7.9109663e-07
7.9849517e-07
8.0574551e-07
8.1709809e-07
8.7189387e-07
8.7284746e-07
8.801058e-07
8.8482443e-07
8.8059773e-07
8.707208e-07
8.57744e-07
8.436521e-07
8.3987265e-07
8.4176849e-07
8.4197344e-07
8.4195533e-07
8.3582933e-07
8.2918796e-07
8.2127009e-07
8.1472265e-07
8.0931992e-07
8.0494921e-07
7.9959547e-07
7.9602812e-07
7.9304032e-07
7.9089595e-07
7.8805746e-07
7.9118694e-07
7.8960647e-07
7.9149274e-07
7.914559e-07
7.9477365e-07
8.0058932e-07
8.0641542e-07
8.1497891e-07
8.7266406e-07
9.4945205e-07
9.0720774e-07
8.8629883e-07
8.71959e-07
8.6264734e-07
8.5945212e-07
8.6823253e-07
8.8658161e-07
9.0707865e-07
9.2067328e-07
9.2574937e-07
9.2123917e-07
9.0688849e-07
8.8427208e-07
8.6284391e-07
8.4180388e-07
8.2632618e-07
8.1154061e-07
8.0391732e-07
7.9749777e-07
7.9396408e-07
7.9097841e-07
7.9291292e-07
7.9374203e-07
7.960043e-07
7.9937334e-07
8.029233e-07
8.0656333e-07
8.120099e-07
8.1620781e-07
8.760756e-07
9.5915205e-07
9.2947126e-07
9.0963646e-07
8.857668e-07
8.6327095e-07
8.5045938e-07
8.5850097e-07
8.778676e-07
9.0339e-07
9.2473333e-07
9.4078763e-07
9.4727645e-07
9.440417e-07
9.2556968e-07
9.0345597e-07
8.7989431e-07
8.6078324e-07
8.3776581e-07
8.2218796e-07
8.0918567e-07
8.0140715e-07
7.9636717e-07
7.9588756e-07
7.9579891e-07
7.9890826e-07
8.0210911e-07
8.0741444e-07
8.1143385e-07
8.1787476e-07
8.2189572e-07
8.8228239e-07
9.1067563e-07
9.0753139e-07
9.0699651e-07
8.9322754e-07
8.7214697e-07
8.4890298e-07
8.3419241e-07
8.3513513e-07
8.4546925e-07
8.5961379e-07
8.7476707e-07
8.8244987e-07
8.9148893e-07
8.9226686e-07
8.8409311e-07
8.6546074e-07
8.5264713e-07
8.3889189e-07
8.2857272e-07
8.171719e-07
8.1114063e-07
8.0508502e-07
8.0273935e-07
8.0094683e-07
8.0381383e-07
8.0750473e-07
8.1243177e-07
8.1766912e-07
8.2486227e-07
8.2883313e-07
8.8147119e-07
8.942747e-07
8.7512743e-07
8.8062123e-07
8.7867676e-07
8.7031043e-07
8.5478325e-07
8.3862396e-07
8.283438e-07
8.2633033e-07
8.2587302e-07
8.2840005e-07
8.2616553e-07
8.2715056e-07
8.2126722e-07
8.1920391e-07
8.1823544e-07
8.2113288e-07
8.1821548e-07
8.1761152e-07
8.2130389e-07
8.2963423e-07
8.3009584e-07
8.2559698e-07
8.2022391e-07
8.2149936e-07
8.2557424e-07
8.2947825e-07
8.3369842e-07
8.3939107e-07
8.4282821e-07
8.8003966e-07
9.0137711e-07
8.7430071e-07
8.6281543e-07
8.5565858e-07
8.5172415e-07
8.4402909e-07
8.4045543e-07
8.453057e-07
8.5842308e-07
8.6274729e-07
8.6562725e-07
8.5694599e-07
8.4324019e-07
8.2956138e-07
8.1820571e-07
8.0875844e-07
7.9982452e-07
7.9757798e-07
8.0214753e-07
8.1296778e-07
8.2255674e-07
8.3607166e-07
8.4591177e-07
8.625607e-07
8.7230727e-07
8.845156e-07
8.8896441e-07
8.9928671e-07
9.0305129e-07
9.0961731e-07
8.7467899e-07
9.2894436e-07
8.9421279e-07
8.7709574e-07
8.6506789e-07
8.4676307e-07
8.2871534e-07
8.2666599e-07
8.4170804e-07
8.6436905e-07
8.8964547e-07
9.0434521e-07
9.0425343e-07
8.9123887e-07
8.7599267e-07
8.517217e-07
8.3290991e-07
8.1502964e-07
8.002722e-07
7.9200391e-07
7.9959017e-07
8.1195623e-07
8.2332856e-07
8.3715788e-07
8.5369356e-07
8.6885757e-07
8.8179766e-07
9.0277088e-07
9.1941668e-07
9.335941e-07
9.4538741e-07
8.6554633e-07
8.7443833e-07
8.6932129e-07
8.6736e-07
8.6441389e-07
8.5152443e-07
8.3234891e-07
8.161068e-07
8.1822741e-07
8.3124651e-07
8.4881683e-07
8.6472807e-07
8.7119515e-07
8.6749967e-07
8.6080879e-07
8.4547987e-07
8.3186755e-07
8.1662862e-07
8.0557799e-07
7.9825619e-07
7.9320917e-07
7.9348586e-07
7.964888e-07
8.0261508e-07
8.1456386e-07
8.2869184e-07
8.4214724e-07
8.5378861e-07
8.7414471e-07
8.8678465e-07
9.1542002e-07
8.6748255e-07
8.5973859e-07
8.5582946e-07
8.6130966e-07
8.6986132e-07
8.7116154e-07
8.606654e-07
8.5192962e-07
8.475427e-07
8.5395949e-07
8.6230243e-07
8.6696164e-07
8.7350542e-07
8.7220066e-07
8.6434746e-07
8.5008804e-07
8.392821e-07
8.2938408e-07
8.2202795e-07
8.1569256e-07
8.150981e-07
8.1787747e-07
8.2206279e-07
8.199051e-07
8.0876775e-07
8.1320051e-07
8.1984086e-07
8.3075241e-07
8.4112124e-07
8.4507786e-07
8.475845e-07
8.5937062e-07
9.3094848e-07
9.7098865e-07
1.0103285e-06
1.0592271e-06
1.102795e-06
1.135415e-06
1.1728634e-06
1.1887244e-06
1.2553974e-06
1.2374489e-06
1.2465308e-06
1.2646791e-06
1.2278537e-06
1.1907222e-06
1.1727983e-06
1.1518204e-06
1.148016e-06
1.1611842e-06
1.1770758e-06
1.2254455e-06
1.2603748e-06
1.2543039e-06
1.2044979e-06
1.0963113e-06
1.0729118e-06
1.0929309e-06
1.1306331e-06
1.1291363e-06
1.1202569e-06
1.0554789e-06
1.0603617e-06
1.8385429e-06
1.9688195e-06
2.1473396e-06
2.1191276e-06
2.1898448e-06
2.1146788e-06
2.3188615e-06
2.165437e-06
2.5915977e-06
2.4377126e-06
2.2657046e-06
2.8096233e-06
2.6461192e-06
2.410434e-06
1.9325731e-06
2.0815841e-06
2.2835786e-06
2.2536781e-06
2.468364e-06
2.8068021e-06
2.9835634e-06
2.9708321e-06
2.7348373e-06
2.3739481e-06
2.3136333e-06
1.7876093e-06
2.6425132e-06
2.6486509e-06
2.6032864e-06
2.4091657e-06
1.0604445e-06
2.1754128e-06
2.802964e-06
2.1979571e-06
1.8561489e-06
2.0578696e-06
1.7589133e-06
2.0144264e-06
1.6487111e-06
2.2292721e-06
1.5293191e-06
2.6490047e-06
1.4978994e-06
2.342191e-06
2.2452347e-06
2.2507642e-06
2.1304106e-06
2.0128527e-06
2.0083919e-06
1.9751749e-06
2.0032051e-06
2.0712255e-06
2.1745903e-06
1.7789013e-06
1.9498463e-06
2.0692926e-06
2.4836085e-06
2.0798961e-06
2.3010151e-06
1.9498292e-06
2.2037967e-06
2.6311752e-06
2.2944283e-06
1.1855391e-06
8.7205117e-07
9.2462229e-07
9.6326879e-07
9.25481e-07
8.600313e-07
8.4148723e-07
8.3275936e-07
8.2829409e-07
8.2748961e-07
8.2859058e-07
8.2853018e-07
8.3177501e-07
8.4135356e-07
8.5084914e-07
8.6177588e-07
8.7305305e-07
8.9070801e-07
9.0361027e-07
9.1852499e-07
9.3376225e-07
1.8090666e-06
2.5277489e-06
1.273058e-06
8.9304957e-07
9.2757494e-07
9.8110164e-07
9.6242345e-07
8.8588255e-07
8.593295e-07
8.4842006e-07
8.447206e-07
8.4241991e-07
8.4319013e-07
8.4327227e-07
8.4358191e-07
8.4970637e-07
8.6838981e-07
8.7379353e-07
8.8024536e-07
8.9621263e-07
9.2177527e-07
9.3923461e-07
9.5107169e-07
1.7302785e-06
2.4083763e-06
1.2923625e-06
9.0108318e-07
9.3232961e-07
9.9241373e-07
9.8495891e-07
9.1025227e-07
8.7771066e-07
8.6438407e-07
8.5678874e-07
8.5405289e-07
8.5788579e-07
8.5747555e-07
8.5742139e-07
8.6131743e-07
8.7822565e-07
8.9588916e-07
8.9996672e-07
9.0928949e-07
9.2826365e-07
9.5898482e-07
9.7294241e-07
1.7627662e-06
2.0641595e-06
1.3630037e-06
9.2266211e-07
8.9129919e-07
1.00281e-06
1.0051222e-06
9.484452e-07
8.9889436e-07
8.7771891e-07
8.6784823e-07
8.6716493e-07
8.7423598e-07
8.7983573e-07
8.7948194e-07
8.8069905e-07
8.9051179e-07
9.1050066e-07
9.2055585e-07
9.2704976e-07
9.4210994e-07
9.7802391e-07
1.0014387e-06
1.3258199e-06
1.7119006e-06
1.1262363e-06
6.5808658e-07
9.5777435e-07
1.0196661e-06
1.0388798e-06
1.0120594e-06
9.4144011e-07
9.0900212e-07
8.9207044e-07
8.8784403e-07
8.8991838e-07
8.9488366e-07
8.9761895e-07
8.9886498e-07
9.0377776e-07
9.233819e-07
9.3856704e-07
9.4708406e-07
9.5932445e-07
9.8818223e-07
1.0154603e-06
1.379765e-06
1.9989044e-06
1.7359415e-06
1.0725251e-06
9.9742918e-07
1.0415597e-06
1.0651206e-06
1.0533444e-06
9.8557152e-07
9.3863504e-07
9.1402381e-07
9.1081617e-07
9.1180487e-07
9.2020026e-07
9.1851113e-07
9.1649128e-07
9.1853054e-07
9.3405826e-07
9.6162753e-07
9.7191492e-07
9.8097819e-07
1.0015449e-06
1.0395988e-06
1.0989349e-06
2.0744492e-06
1.8057866e-06
1.1997962e-06
1.0119149e-06
1.0470579e-06
1.073421e-06
1.0735885e-06
1.0224478e-06
9.7122693e-07
9.3634726e-07
9.2733402e-07
9.2685553e-07
9.3853705e-07
9.446212e-07
9.4304274e-07
9.43722e-07
9.5254956e-07
9.7856015e-07
9.9543545e-07
1.0022765e-06
1.0136225e-06
1.0387193e-06
7.6733556e-07
2.0343684e-06
1.818897e-06
1.2323084e-06
7.7237888e-07
8.6197008e-07
1.0859789e-06
1.0899334e-06
1.0494968e-06
9.9447478e-07
9.5934629e-07
9.4827353e-07
9.4724614e-07
9.5498421e-07
9.6454003e-07
9.6642306e-07
9.6758686e-07
9.7269546e-07
9.9338435e-07
1.0168667e-06
1.0278559e-06
1.0375812e-06
1.052722e-06
5.5012984e-07
1.8925939e-06
1.8490175e-06
1.0132169e-06
5.9596997e-07
8.406912e-07
1.1022383e-06
1.1112706e-06
1.0810075e-06
1.0258685e-06
9.8536012e-07
9.6439103e-07
9.6063743e-07
9.6454285e-07
9.788798e-07
9.8706618e-07
9.9034183e-07
9.9324736e-07
1.0045828e-06
1.0347115e-06
1.0513586e-06
1.0569265e-06
1.0670574e-06
4.5218399e-07
1.6649306e-06
1.3301148e-06
7.5788069e-07
6.2709094e-07
1.0416311e-06
1.1134405e-06
1.1267787e-06
1.1130124e-06
1.0566094e-06
1.0152478e-06
9.9132676e-07
9.8475063e-07
9.8533223e-07
1.0016145e-06
1.0085585e-06
1.0084654e-06
1.0090179e-06
1.0179481e-06
1.0493122e-06
1.0718559e-06
1.0817114e-06
1.0886447e-06
4.2962307e-07
1.4091431e-06
1.4483765e-06
1.2068205e-06
1.0442845e-06
7.66277e-07
9.9956632e-07
1.1363821e-06
1.1345961e-06
1.0806335e-06
1.0401457e-06
1.0201225e-06
1.0173258e-06
1.0175617e-06
1.0290274e-06
1.0323362e-06
1.0294285e-06
1.0289229e-06
1.0366489e-06
1.0635151e-06
1.0974884e-06
1.1128528e-06
1.1203609e-06
4.3438189e-07
1.21168e-06
1.656136e-06
8.3409249e-07
7.5871737e-07
1.0468949e-06
1.1165477e-06
1.1498044e-06
1.1539088e-06
1.1121164e-06
1.0692638e-06
1.047397e-06
1.0426092e-06
1.0432866e-06
1.0489497e-06
1.055104e-06
1.0552514e-06
1.0546906e-06
1.0595278e-06
1.0777345e-06
1.1084672e-06
1.1281936e-06
1.1356574e-06
4.6164627e-07
1.064055e-06
1.5126494e-06
8.2796439e-07
4.9303365e-07
5.8015581e-07
9.3806486e-07
1.157408e-06
1.167326e-06
1.1328376e-06
1.0931925e-06
1.0651208e-06
1.0589793e-06
1.0600342e-06
1.0695467e-06
1.0800385e-06
1.0783392e-06
1.0749361e-06
1.0754688e-06
1.0872835e-06
1.1214791e-06
1.1487083e-06
1.157348e-06
5.0841513e-07
9.3757944e-07
1.3864038e-06
1.2444608e-06
5.4698833e-07
3.9832894e-07
5.1130668e-07
8.887932e-07
1.1823136e-06
1.1543154e-06
1.1109248e-06
1.0811947e-06
1.0729356e-06
1.0749162e-06
1.0817808e-06
1.0915789e-06
1.0912862e-06
1.0892017e-06
1.0924169e-06
1.10797e-06
1.1418602e-06
1.170585e-06
1.1787119e-06
5.715138e-07
8.6751558e-07
1.3086275e-06
1.2219772e-06
7.8188659e-07
5.2979059e-07
5.8607788e-07
8.999883e-07
1.1984766e-06
1.1685251e-06
1.1236339e-06
1.0975006e-06
1.0893584e-06
1.0897709e-06
1.0937864e-06
1.1022204e-06
1.1045908e-06
1.1066231e-06
1.1136261e-06
1.1287705e-06
1.1612798e-06
1.1856292e-06
1.1892082e-06
6.4979633e-07
8.4380032e-07
1.2410924e-06
1.0445149e-06
9.4759305e-07
9.9575508e-07
1.1066139e-06
1.1950247e-06
1.2111556e-06
1.1850019e-06
1.1372329e-06
1.1141584e-06
1.1083695e-06
1.1115575e-06
1.1163911e-06
1.12308e-06
1.1204759e-06
1.119031e-06
1.1258708e-06
1.1421674e-06
1.1744711e-06
1.2013407e-06
1.2034751e-06
7.4055001e-07
8.4073502e-07
1.2146512e-06
1.2054435e-06
1.0538016e-06
9.7775292e-07
1.1063639e-06
1.2024879e-06
1.2270891e-06
1.1951719e-06
1.1474739e-06
1.1263127e-06
1.1257191e-06
1.1331599e-06
1.139364e-06
1.1418211e-06
1.1358113e-06
1.1333629e-06
1.1399367e-06
1.1626125e-06
1.1979019e-06
1.2211052e-06
1.2233726e-06
7.9043826e-07
8.5549273e-07
1.2036826e-06
1.2084961e-06
1.0628836e-06
8.0795033e-07
9.2390268e-07
1.2081861e-06
1.2298067e-06
1.1971288e-06
1.1516665e-06
1.1383322e-06
1.1428759e-06
1.1524899e-06
1.1544692e-06
1.1478027e-06
1.1395519e-06
1.1425494e-06
1.1583554e-06
1.1829078e-06
1.2196941e-06
1.2404305e-06
1.2394565e-06
9.5230059e-07
8.8110719e-07
1.1826406e-06
1.2029078e-06
1.0684783e-06
7.4729234e-07
8.2279413e-07
1.2113369e-06
1.2327325e-06
1.1932654e-06
1.1540012e-06
1.1452863e-06
1.1499735e-06
1.1604018e-06
1.1603332e-06
1.1522196e-06
1.1438951e-06
1.14714e-06
1.1670634e-06
1.1953546e-06
1.2367191e-06
1.2483791e-06
1.244254e-06
9.4638869e-07
9.0594122e-07
1.1676897e-06
1.1834917e-06
1.0653896e-06
7.0362914e-07
7.6799627e-07
1.1615911e-06
1.2357028e-06
1.181536e-06
1.1527648e-06
1.149419e-06
1.1647051e-06
1.1721259e-06
1.1687768e-06
1.1528767e-06
1.1452763e-06
1.1518573e-06
1.1767649e-06
1.2138829e-06
1.2471987e-06
1.2510232e-06
1.2513235e-06
1.0554293e-06
9.4814112e-07
1.1532241e-06
1.1593113e-06
9.7034049e-07
5.2687657e-07
6.2567103e-07
1.02435e-06
1.2357668e-06
1.1741208e-06
1.1549001e-06
1.1584583e-06
1.1812031e-06
1.1858753e-06
1.1766564e-06
1.1562633e-06
1.1514247e-06
1.1593495e-06
1.1956626e-06
1.2449287e-06
1.2575681e-06
1.2555971e-06
1.2594526e-06
1.2594475e-06
9.8409114e-07
1.1390873e-06
1.1343373e-06
6.9111278e-07
4.2733589e-07
5.8469638e-07
1.1286995e-06
1.2309719e-06
1.1675513e-06
1.1591315e-06
1.1762348e-06
1.1991852e-06
1.2004097e-06
1.180805e-06
1.1615732e-06
1.1573597e-06
1.178536e-06
1.2424488e-06
1.2665638e-06
1.2668251e-06
1.2628422e-06
1.2720704e-06
1.260237e-06
1.0290314e-06
1.1253394e-06
1.1093738e-06
6.7965774e-07
4.756176e-07
7.2472939e-07
1.2486405e-06
1.2160546e-06
1.1681815e-06
1.1622422e-06
1.1895725e-06
1.2092337e-06
1.2076593e-06
1.1809352e-06
1.1683153e-06
1.1726138e-06
1.2291335e-06
1.2772882e-06
1.2855226e-06
1.2768265e-06
1.2733385e-06
1.2990086e-06
1.5266409e-06
1.1038457e-06
1.1129686e-06
1.0861838e-06
6.7875147e-07
7.2625998e-07
1.1949521e-06
1.2601286e-06
1.2003182e-06
1.1732745e-06
1.1736805e-06
1.209893e-06
1.2208903e-06
1.2090083e-06
1.1866785e-06
1.1804122e-06
1.213842e-06
1.279558e-06
1.2989687e-06
1.2959389e-06
1.2894959e-06
1.2981192e-06
1.3534628e-06
1.5471962e-06
1.1452446e-06
1.1024931e-06
9.4512525e-07
9.2253431e-07
1.1113104e-06
1.2124281e-06
1.2613759e-06
1.1963269e-06
1.1810014e-06
1.1939193e-06
1.2223692e-06
1.2239124e-06
1.2048116e-06
1.1942701e-06
1.2086078e-06
1.2700759e-06
1.3012005e-06
1.309836e-06
1.3105044e-06
1.3195991e-06
1.3830156e-06
1.4704573e-06
1.8178078e-06
1.1872935e-06
1.0959161e-06
1.0591807e-06
1.054291e-06
1.1395733e-06
1.2322381e-06
1.2430013e-06
1.2008685e-06
1.1919159e-06
1.220193e-06
1.2319283e-06
1.2239712e-06
1.2107256e-06
1.2109422e-06
1.2521695e-06
1.3006157e-06
1.3224564e-06
1.3355696e-06
1.3493572e-06
1.3873867e-06
1.4384124e-06
1.5456577e-06
1.807833e-06
1.2149649e-06
1.0837966e-06
8.0200506e-07
6.4609767e-07
1.1747924e-06
1.2570053e-06
1.2348411e-06
1.2106405e-06
1.2234066e-06
1.2408789e-06
1.2410691e-06
1.2270209e-06
1.2213668e-06
1.2430205e-06
1.301021e-06
1.3274147e-06
1.3401917e-06
1.3533483e-06
1.3798256e-06
1.4464365e-06
1.5570343e-06
1.6276539e-06
1.5752703e-06
1.2447895e-06
1.0059556e-06
9.4006623e-07
7.5393455e-07
9.8031687e-07
1.2696918e-06
1.2415716e-06
1.2309484e-06
1.2455282e-06
1.2511568e-06
1.2467511e-06
1.2388206e-06
1.2516755e-06
1.3128658e-06
1.3365192e-06
1.3435392e-06
1.352232e-06
1.3857337e-06
1.4708941e-06
1.5717752e-06
1.6452507e-06
1.6772262e-06
1.9203274e-06
1.3094849e-06
8.0304581e-07
5.5589438e-07
7.8316579e-07
1.1743946e-06
1.2733462e-06
1.2576257e-06
1.2623947e-06
1.2732037e-06
1.2730375e-06
1.2670823e-06
1.2709433e-06
1.3224624e-06
1.3471903e-06
1.3491344e-06
1.3624229e-06
1.3986141e-06
1.5045067e-06
1.575012e-06
1.6384325e-06
1.6920634e-06
1.7911428e-06
1.5028688e-06
1.2930517e-06
5.8532458e-07
5.4409154e-07
9.7708103e-07
1.2660943e-06
1.2783888e-06
1.2725074e-06
1.284009e-06
1.290686e-06
1.290869e-06
1.2916655e-06
1.3252453e-06
1.3538579e-06
1.3617438e-06
1.3870323e-06
1.445337e-06
1.5305068e-06
1.5771955e-06
1.6370557e-06
1.7238812e-06
1.8536572e-06
2.1157912e-06
2.150898e-06
1.062746e-06
1.0542846e-06
1.1172514e-06
1.2288615e-06
1.2988817e-06
1.3052347e-06
1.3063786e-06
1.3155703e-06
1.3178862e-06
1.3191581e-06
1.3354843e-06
1.3655225e-06
1.3896668e-06
1.4287748e-06
1.4968943e-06
1.5479831e-06
1.5948307e-06
1.6592486e-06
1.7763889e-06
1.9768946e-06
2.3992164e-06
3.3665031e-06
1.7191831e-06
1.3374366e-06
7.1696871e-07
9.8582039e-07
1.2718613e-06
1.3217802e-06
1.3238481e-06
1.3252568e-06
1.3334613e-06
1.3329861e-06
1.341036e-06
1.368782e-06
1.4108304e-06
1.4565775e-06
1.5167448e-06
1.5477127e-06
1.6198157e-06
1.7289662e-06
1.8855441e-06
2.215066e-06
2.9469916e-06
4.593609e-06
7.8474674e-06
2.1554394e-06
8.7151314e-07
1.0238946e-06
8.2204079e-07
1.2316787e-06
1.3559425e-06
1.3569209e-06
1.3599309e-06
1.3727812e-06
1.3857372e-06
1.4217409e-06
1.4738318e-06
1.5208273e-06
1.5497975e-06
1.571988e-06
1.6754628e-06
1.8463266e-06
2.1530397e-06
2.8327426e-06
4.3788047e-06
7.5263351e-06
1.2809916e-05
1.9597888e-05
1.3341236e-06
1.3338157e-06
4.7571938e-07
6.593674e-07
1.323902e-06
1.3744588e-06
1.3829421e-06
1.3909903e-06
1.4042862e-06
1.4300589e-06
1.4783476e-06
1.5255947e-06
1.5561734e-06
1.5947906e-06
1.7250686e-06
2.1468494e-06
3.285783e-06
6.0796488e-06
1.1718628e-05
2.0727718e-05
3.1955613e-05
4.3918879e-05
6.4552508e-05
1.5764726e-06
1.019242e-06
6.181676e-07
8.4061341e-07
1.3957944e-06
1.4167009e-06
1.430836e-06
1.4543592e-06
1.4819717e-06
1.541021e-06
1.6518956e-06
1.9312868e-06
2.684166e-06
4.6174074e-06
9.0503863e-06
1.7801198e-05
3.1729267e-05
4.9683221e-05
6.951553e-05
9.6411458e-05
0.00014048862
0.00020975032
0.00026857425
1.6129746e-06
1.2646788e-06
7.618412e-07
1.2804622e-06
1.4201194e-06
1.4403262e-06
1.453151e-06
1.4820168e-06
1.5314382e-06
1.6416929e-06
1.8999786e-06
2.6416586e-06
4.780903e-06
1.0240684e-05
2.191981e-05
4.1790994e-05
6.8432067e-05
0.0001003819
0.00014569322
0.00022966499
0.00029929283
0.00032578237
0.00033253788
1.5744175e-06
1.3490732e-06
6.4159419e-07
8.9801793e-07
1.4376727e-06
1.4616678e-06
1.4830328e-06
1.513858e-06
1.5648607e-06
1.7192105e-06
2.1457733e-06
3.3183441e-06
6.7123046e-06
1.5302387e-05
3.2974692e-05
5.9987468e-05
9.2307026e-05
0.00015440378
0.00025808714
0.0003210694
0.00034743757
0.00036719376
0.00036718727
1.7236213e-06
1.3824323e-06
9.1804058e-07
1.2565208e-06
1.4399804e-06
1.4738046e-06
1.5159119e-06
1.5633276e-06
1.6310247e-06
1.7858313e-06
2.3854496e-06
4.3368598e-06
1.0197031e-05
2.4271721e-05
4.87141e-05
8.4338516e-05
0.00015834335
0.00026977507
0.00033500567
0.00036550716
0.00039485724
0.00040369535
0.00039963615
1.7705677e-06
1.5388381e-06
9.3168096e-07
1.3161667e-06
1.4391457e-06
1.4708791e-06
1.5205028e-06
1.5963718e-06
1.7361319e-06
1.9980894e-06
2.7923925e-06
5.7084971e-06
1.4913726e-05
3.6348266e-05
7.2386547e-05
0.00013678882
0.00024714522
0.00033406021
0.00037624273
0.00041221958
0.00043525635
0.00044310256
0.0004524449
1.8773465e-06
1.8302499e-06
8.7193127e-07
1.0641543e-06
1.4368993e-06
1.4706248e-06
1.5194342e-06
1.5992201e-06
1.791597e-06
2.3262813e-06
4.0283368e-06
9.7469363e-06
2.6470661e-05
6.0549604e-05
0.00011227541
0.0001987561
0.00031272325
0.00037024132
0.00041033482
0.00044895562
0.00047025269
0.00048780803
0.00050391315
2.018514e-06
2.1377298e-06
1.2337778e-06
1.2978048e-06
1.4267418e-06
1.4683568e-06
1.5202616e-06
1.6008397e-06
1.795434e-06
2.4112549e-06
4.7440564e-06
1.3265254e-05
3.7129469e-05
8.0102182e-05
0.00014231728
0.00024996284
0.00034610045
0.00039384952
0.00043793266
0.0004757131
0.00050160527
0.0005242197
0.00053904879
2.1292915e-06
2.533618e-06
1.2610362e-06
1.2877106e-06
1.4098069e-06
1.4523351e-06
1.5117303e-06
1.5991817e-06
1.791753e-06
2.3970111e-06
4.7179888e-06
1.3323089e-05
3.773435e-05
8.1919873e-05
0.00014781205
0.00026435758
0.00035896339
0.00040927765
0.00045737785
0.00049854251
0.00052884545
0.00055233819
0.00056031947
2.2797926e-06
2.8983194e-06
1.2924443e-06
1.2735545e-06
1.3873808e-06
1.4264506e-06
1.4799699e-06
1.5644966e-06
1.7430312e-06
2.3115898e-06
4.4604118e-06
1.2597608e-05
3.6244597e-05
7.9617993e-05
0.00014527816
0.00026527075
0.00036276137
0.00041387596
0.00046562637
0.00051041586
0.00054555043
0.0005709351
0.00053188722
2.4547371e-06
3.1916513e-06
1.3390788e-06
1.2460417e-06
1.3543848e-06
1.4030475e-06
1.451319e-06
1.5193428e-06
1.656571e-06
2.0618673e-06
3.6195592e-06
9.9427841e-06
3.0528038e-05
7.1915451e-05
0.00013627314
0.00025455343
0.00035753451
0.00040930292
0.00045830354
0.00050380767
0.00054174475
0.00056915758
0.00057357052
2.5371047e-06
3.7467738e-06
1.4246086e-06
1.2295307e-06
1.3222559e-06
1.3758177e-06
1.4218197e-06
1.4767378e-06
1.5804311e-06
1.8356261e-06
2.7393844e-06
6.3825927e-06
1.9997265e-05
5.3456948e-05
0.00011147974
0.00022403646
0.00034052286
0.00039882601
0.00044691687
0.00049311838
0.00053214839
0.00056174994
0.00057289425
2.6348353e-06
4.3331801e-06
1.5773974e-06
1.2307363e-06
1.2949722e-06
1.3485476e-06
1.3942081e-06
1.439847e-06
1.5154473e-06
1.6710849e-06
2.1669579e-06
4.0776776e-06
1.1661012e-05
3.4746481e-05
7.9456043e-05
0.00016269242
0.00029846998
0.00037758125
0.00042835455
0.00047684576
0.00051928873
0.00055387798
0.00057171235
2.7553736e-06
4.7658347e-06
1.9045996e-06
1.246415e-06
1.2757621e-06
1.3213323e-06
1.3722439e-06
1.4171052e-06
1.4781502e-06
1.5725521e-06
1.8377989e-06
2.7697441e-06
6.4937528e-06
1.9723531e-05
5.166383e-05
0.00010606684
0.00021155181
0.00033438493
0.0003954046
0.00044596827
0.00049446812
0.00053650121
0.00056198816
2.7897731e-06
5.2019798e-06
2.1262841e-06
1.2853967e-06
1.2741333e-06
1.3105194e-06
1.3562496e-06
1.3956317e-06
1.4489103e-06
1.5183833e-06
1.6650718e-06
2.0979463e-06
3.7459372e-06
1.0057358e-05
2.9307445e-05
6.8265821e-05
0.00012589075
0.00024128993
0.00035007908
0.00040337436
0.00045211571
0.00050158493
0.00054137095
2.8994064e-06
5.4657396e-06
2.4911826e-06
1.3692144e-06
1.2785764e-06
1.3115122e-06
1.3475867e-06
1.3871416e-06
1.4250504e-06
1.4773617e-06
1.5684158e-06
1.7776456e-06
2.4748185e-06
5.1191255e-06
1.4436415e-05
3.8883294e-05
8.0020278e-05
0.00013759371
0.00025091362
0.00035079501
0.00040004917
0.00044915502
0.00050096205
3.1001167e-06
5.6871697e-06
2.8877516e-06
1.5553635e-06
1.2983757e-06
1.31974e-06
1.3474123e-06
1.3913565e-06
1.4215563e-06
1.456245e-06
1.5093125e-06
1.6209831e-06
1.9165064e-06
2.9563374e-06
6.743699e-06
1.8777324e-05
4.5824035e-05
8.4376958e-05
0.00013858939
0.0002420089
0.0003410049
0.0003925174
0.0004488139
3.358747e-06
5.8249225e-06
3.0967817e-06
1.6776308e-06
1.3284476e-06
1.3307211e-06
1.3509638e-06
1.3936159e-06
1.4281839e-06
1.4569657e-06
1.4892295e-06
1.5567908e-06
1.6829133e-06
2.0916604e-06
3.4822819e-06
8.2728813e-06
2.1827111e-05
4.8448187e-05
8.2698575e-05
0.00013113536
0.0002216501
0.00032937589
0.00039156395
3.75899e-06
5.9305818e-06
3.4668561e-06
1.9058638e-06
1.389981e-06
1.3492864e-06
1.3627741e-06
1.3961177e-06
1.4393658e-06
1.4662315e-06
1.4964706e-06
1.5364886e-06
1.610114e-06
1.769026e-06
2.2816868e-06
3.9690016e-06
9.3333717e-06
2.2860142e-05
4.7215879e-05
7.8170273e-05
0.00011695953
0.00019714486
0.00029142459
4.2482033e-06
5.8388102e-06
3.7917096e-06
2.2547997e-06
1.5343031e-06
1.3972001e-06
1.3880141e-06
1.4051892e-06
1.4479599e-06
1.4758364e-06
1.5038401e-06
1.5330336e-06
1.583012e-06
1.6571677e-06
1.8534455e-06
2.4309837e-06
4.2748613e-06
9.6073259e-06
2.1980898e-05
4.3253093e-05
7.104473e-05
0.00010029502
0.00018146482
4.8698224e-06
5.7886974e-06
3.9235046e-06
2.4171381e-06
1.6320132e-06
1.4352963e-06
1.4229496e-06
1.4311217e-06
1.4633208e-06
1.490506e-06
1.5115164e-06
1.5359881e-06
1.5761701e-06
1.6301596e-06
1.7137677e-06
1.9241219e-06
2.5251337e-06
4.3263641e-06
9.1640536e-06
1.9752717e-05
3.7987113e-05
6.1477655e-05
0.00011060601
3.9847728e-06
5.5161723e-06
4.164137e-06
2.6825147e-06
1.7912137e-06
1.4971381e-06
1.4529512e-06
1.4663669e-06
1.4892917e-06
1.5313032e-06
1.5404469e-06
1.5500427e-06
1.5803033e-06
1.6284055e-06
1.6877659e-06
1.7823596e-06
1.9852495e-06
2.5565759e-06
4.1784017e-06
8.2771864e-06
1.7016904e-05
3.2251923e-05
6.667722e-05
3.3388258e-06
5.1979488e-06
4.9344805e-06
3.3672377e-06
2.2179304e-06
1.6629359e-06
1.5114222e-06
1.4972581e-06
1.5103787e-06
1.5493476e-06
1.5801562e-06
1.5829492e-06
1.5951429e-06
1.6316126e-06
1.683912e-06
1.7559465e-06
1.8490523e-06
2.0353e-06
2.5366197e-06
3.8853697e-06
7.1998911e-06
1.4278041e-05
3.5111966e-05
2.6570906e-06
4.8133767e-06
5.3474592e-06
3.7184251e-06
2.6175003e-06
1.9443267e-06
1.6596435e-06
1.5651336e-06
1.5525189e-06
1.575426e-06
1.6069228e-06
1.6175026e-06
1.6267591e-06
1.6458233e-06
1.6872466e-06
1.7541921e-06
1.8364013e-06
1.9202049e-06
2.0719077e-06
2.487807e-06
3.5769965e-06
6.1978734e-06
1.5329609e-05
2.2205533e-06
4.0010461e-06
5.2801836e-06
4.2604639e-06
2.9291608e-06
2.1448353e-06
1.8025074e-06
1.6858479e-06
1.6590562e-06
1.6591696e-06
1.6755578e-06
1.7156328e-06
1.7178709e-06
1.7106489e-06
1.722509e-06
1.7713185e-06
1.8500058e-06
1.9191948e-06
2.0037506e-06
2.1324955e-06
2.4901141e-06
3.3936908e-06
6.4355279e-06
1.9717641e-06
3.6864689e-06
4.926933e-06
4.6911784e-06
3.3381759e-06
2.4516595e-06
1.9598339e-06
1.7735911e-06
1.7324032e-06
1.7378341e-06
1.7493307e-06
1.7779369e-06
1.8334604e-06
1.8552559e-06
1.8498541e-06
1.8512096e-06
1.9046352e-06
1.9450028e-06
2.0040871e-06
2.0921019e-06
2.2279233e-06
2.5739962e-06
3.5255734e-06
1.4446772e-06
3.9361251e-06
4.9523745e-06
5.0061496e-06
4.1668354e-06
3.0492619e-06
2.1895481e-06
1.8802823e-06
1.7783559e-06
1.7667092e-06
1.7742311e-06
1.7972521e-06
1.8634981e-06
1.9170987e-06
1.9235904e-06
1.9297253e-06
1.9795059e-06
2.0486019e-06
2.0694947e-06
2.1083895e-06
2.1947373e-06
2.371166e-06
2.7657187e-06
1.737779e-06
4.0790628e-06