/*--------------------------------*- C++ -*----------------------------------*\
| =========                 |                                                 |
| \\      /  F ield         | OpenFOAM: The Open Source CFD Toolbox           |
|  \\    /   O peration     | Version:  2406                                  |
|   \\  /    A nd           | Website:  www.openfoam.com                      |
|    \\/     M anipulation  |                                                 |
\*---------------------------------------------------------------------------*/
FoamFile
{
    version     2.0;
    format      ascii;
    arch        "LSB;label=32;scalar=64";
    class       volScalarField;
    location    "45";
    object      omega_0;
}
// * * * * * * * * * * * * * * * * * * * * * * * * * * * * * * * * * * * * * //

dimensions      [0 0 -1 0 0 0 0];

internalField   nonuniform List<scalar> 
20580
(
3.5312104
2.687928
2.1862447
1.8529464
1.6134566
1.4305715
1.2921753
1.1829961
1.0959103
1.0240491
0.96313522
0.91063641
0.86519573
0.82552674
0.79115277
0.76059997
0.7342331
0.71068271
0.68989236
0.67207259
0.65680006
0.64259043
0.62946052
0.61989472
0.61088121
0.60740487
0.60245245
0.60173747
0.60268469
0.60809884
0.61670361
3.549141
2.6969564
2.1938521
1.8629673
1.624886
1.4387348
1.2993845
1.1889903
1.1009552
1.0285505
0.96718707
0.91462722
0.86924576
0.82969822
0.79474097
0.76401659
0.73738373
0.71328543
0.69243555
0.67463323
0.65873147
0.64649734
0.63295284
0.62380653
0.61397916
0.61026827
0.60711
0.60496048
0.60384847
0.60690634
0.61447707
3.5536744
2.7018138
2.1974765
1.8678504
1.6309891
1.4472739
1.3066618
1.194784
1.1062424
1.0327436
0.97153531
0.91864789
0.8730532
0.83273804
0.79813679
0.76657999
0.74098968
0.71533176
0.69564357
0.67722225
0.66013109
0.64833949
0.63508821
0.62583896
0.61577777
0.61100537
0.60789223
0.60655764
0.60527268
0.60627053
0.61199822
3.5527979
2.698322
2.1988837
1.8690332
1.6322953
1.4511226
1.3104814
1.1995694
1.1110338
1.0379607
0.97682997
0.92274524
0.87799968
0.83634429
0.80212166
0.76979857
0.74408212
0.71846075
0.6980062
0.68031602
0.66163698
0.65050059
0.63696601
0.6275551
0.61733236
0.61149227
0.60788885
0.6058279
0.60487444
0.60499428
0.60952626
3.5541972
2.6915437
2.2004856
1.8715241
1.6348624
1.453715
1.3142369
1.2044105
1.1163119
1.0430004
0.98220517
0.92739685
0.88278837
0.84099428
0.80639807
0.77420705
0.74705662
0.72290367
0.70036188
0.68338275
0.66357948
0.65233708
0.63927154
0.62876174
0.6193134
0.61247297
0.60836567
0.60545176
0.60371156
0.60312988
0.60554255
3.5586711
2.692575
2.1997171
1.8767983
1.6414446
1.4595323
1.3211411
1.2096975
1.120957
1.0467212
0.98605118
0.93168697
0.88598239
0.8452849
0.8093328
0.77859849
0.74979734
0.72739631
0.70392427
0.68650687
0.66761096
0.65476035
0.64277512
0.63021705
0.62182871
0.61416252
0.6094383
0.60623022
0.6044391
0.60294228
0.60346925
3.5616274
2.6937808
2.1919341
1.8742308
1.6407686
1.4611905
1.3232911
1.2122605
1.124632
1.0518685
0.99000016
0.9362409
0.88918858
0.84948187
0.81211331
0.782377
0.75295013
0.73009422
0.70789652
0.68895894
0.67167399
0.65755901
0.64575874
0.63286428
0.62412672
0.61585815
0.60961504
0.60600665
0.6048669
0.6034877
0.60311812
3.5678529
2.6978934
2.1923014
1.8645606
1.6311143
1.4553086
1.3205836
1.212738
1.1270261
1.0568179
0.99509493
0.94237192
0.89434886
0.8547935
0.81650442
0.7864705
0.75726236
0.73264501
0.7114811
0.69111708
0.67539115
0.65986783
0.6477489
0.63547974
0.62649103
0.61766046
0.61000442
0.60525316
0.60331157
0.60300648
0.60317823
3.6580915
2.7476501
2.2157031
1.8725772
1.6329593
1.4525783
1.3167059
1.2111348
1.1268137
1.0569911
0.99669151
0.94457723
0.8974476
0.85702945
0.82016954
0.78884956
0.76071373
0.73580068
0.7146344
0.69401809
0.67829614
0.66329945
0.64950514
0.63896402
0.628767
0.62083584
0.61264284
0.60582345
0.60274227
0.60090583
0.60107083
3.8046111
2.9019278
2.3100629
1.9300398
1.6611059
1.4639451
1.3199557
1.2102478
1.1234458
1.0521904
0.9918709
0.94013949
0.89420271
0.85415498
0.81942746
0.78810393
0.76143258
0.73680176
0.71631237
0.69592735
0.68034415
0.66523755
0.65231083
0.640933
0.63218144
0.62265608
0.61686837
0.60943084
0.60489092
0.60120675
0.60014135
3.6404564
2.8997695
2.3637699
2.0014357
1.7237045
1.5010839
1.3363711
1.2171715
1.1258213
1.0521352
0.99046354
0.93737517
0.89188075
0.85109156
0.81701128
0.78571983
0.75964007
0.73603947
0.71516358
0.69643223
0.68052384
0.66585514
0.65297113
0.64259997
0.63318337
0.62482111
0.61821464
0.6129092
0.60787212
0.60457907
0.60196309
3.6426398
2.8622958
2.3547225
2.0002489
1.7419672
1.5434475
1.379544
1.2472899
1.147788
1.0700637
1.0065627
0.95121066
0.90321705
0.85966908
0.82264821
0.78944145
0.76139563
0.73703759
0.71495466
0.69622971
0.68018992
0.66521496
0.65232636
0.64286814
0.63321641
0.6253312
0.61811441
0.61312948
0.6081032
0.60447686
0.60280694
3.7866992
2.9027753
2.3659705
2.0014237
1.739848
1.5476544
1.4053276
1.2999661
1.2148388
1.1433347
1.0804981
1.0224977
0.96750915
0.91251722
0.86180229
0.8161366
0.77868683
0.74770319
0.72112449
0.69944691
0.68198833
0.66586466
0.65235675
0.6421445
0.63235034
0.62436662
0.61784056
0.61230794
0.60802263
0.60298451
0.60140179
3.7310711
2.8974859
2.3687008
2.0151931
1.7468029
1.545374
1.4015326
1.2995836
1.2269928
1.1685049
1.116699
1.0678958
1.0217175
0.97279159
0.92331215
0.87209917
0.82435189
0.78090587
0.74431955
0.71389031
0.69076906
0.67100647
0.65538919
0.64288849
0.63312544
0.62322955
0.61722248
0.6108634
0.60735423
0.60175559
0.59906201
3.6078888
2.7966555
2.3235289
2.0019489
1.7448519
1.5484156
1.3995663
1.2896798
1.2096223
1.1456052
1.0935896
1.0453483
1.0024974
0.96182906
0.91893969
0.87533444
0.83709052
0.80041043
0.7663929
0.73449734
0.70751818
0.683546
0.66486685
0.64847632
0.63669489
0.62574641
0.61878225
0.61187021
0.607663
0.60258826
0.59966582
3.6025826
2.7604528
2.2667936
1.9521365
1.7182961
1.5399307
1.4021107
1.2925265
1.2086505
1.138083
1.0798622
1.027495
0.9804895
0.93503752
0.89615029
0.8577344
0.82486086
0.79510305
0.7685474
0.74639673
0.72804215
0.70956558
0.68996583
0.66794889
0.65049828
0.63782301
0.62798412
0.62047635
0.61276351
0.60832739
0.60247708
3.6287546
2.7750096
2.2675395
1.9290219
1.6847299
1.5116754
1.3858505
1.2878611
1.215512
1.1538441
1.0980161
1.0459748
0.99420691
0.94367876
0.8996706
0.8586679
0.82111488
0.79149003
0.76528478
0.74596765
0.72872804
0.71951685
0.70880772
0.69947372
0.68463019
0.6763692
0.66491893
0.65838689
0.64517269
0.63883645
0.62453917
3.7002191
2.8562033
2.3078753
1.9522319
1.7002461
1.509555
1.3670511
1.2676563
1.2025923
1.1484434
1.1004935
1.0552525
1.0046949
0.95741389
0.91413556
0.87147259
0.83021138
0.79741252
0.76801209
0.74490337
0.72586999
0.71623499
0.71029395
0.70126893
0.69040098
0.68279146
0.67878245
0.67699175
0.67407157
0.67179046
0.66617632
3.5969365
2.856454
2.339289
1.9941417
1.7366032
1.5349412
1.3817854
1.2662177
1.1795653
1.1135979
1.0593095
1.0160476
0.97258205
0.93278104
0.89554656
0.86002089
0.82554139
0.79527425
0.7698999
0.7477349
0.72848692
0.71317254
0.7044881
0.69626151
0.68674803
0.67793349
0.67266774
0.66946587
0.66751378
0.66655565
0.6651528
3.5947077
2.8584117
2.3592206
2.0248246
1.7803746
1.5891533
1.4318037
1.3107887
1.2131418
1.13805
1.0751653
1.020519
0.97834714
0.93693043
0.89818712
0.86122371
0.82978176
0.80160919
0.77947787
0.75827348
0.74022492
0.73257055
0.72356649
0.71018991
0.69249368
0.67878825
0.6747114
0.67470884
0.67395349
0.67281212
0.66730993
3.6923021
3.0783205
2.476093
2.1824734
1.9432161
1.7672252
1.6090568
1.5026041
1.403232
1.3465413
1.289442
1.2362319
1.1920137
1.1164482
1.0476683
0.99971986
0.97071129
0.94589783
0.92572258
0.90925026
0.90677069
0.91034795
0.90491906
0.87378437
0.80148809
0.77277248
0.77534765
0.78155835
0.77960483
0.77317056
0.74665165
4.3461026
5.1709759
4.0362632
3.7034614
3.396724
3.219404
2.9991408
2.9489869
2.7413674
2.9304443
2.7105413
2.763073
2.7688524
2.4214935
2.2919581
2.3097756
2.3046144
2.279594
2.2538049
2.2146398
2.2233494
2.3131275
2.2929044
2.0480197
1.6958259
1.6621611
1.8036213
1.9025495
1.8764314
1.7851539
1.5984334
12.990658
14.134053
12.377705
11.416168
11.043246
10.326857
9.9758957
9.4053646
9.2155515
8.7639918
8.8292815
8.2512195
8.4600864
7.8515641
7.54932
7.2743195
7.0414235
6.8368192
6.6688793
6.5452701
6.4333202
6.3623765
6.3089503
6.2539525
6.0520794
5.890357
5.7816714
5.7406641
5.6255169
5.5758982
5.4656618
5.6847353
1.8386069
0.77592103
0.66908372
0.66457235
0.66433582
0.62824325
0.60223269
0.59757633
0.59699746
0.59922904
0.60219897
0.60208427
0.59975231
0.59967204
0.6012186
0.60359093
0.60555694
0.6078056
0.61109172
0.61489005
0.61775103
0.6197466
6.3013115
1.9366224
0.8010267
0.66951551
0.66223391
0.66282767
0.6358722
0.60380215
0.59716622
0.595769
0.59785879
0.60174074
0.6024508
0.60030389
0.598988
0.60035934
0.60527872
0.60769357
0.60845086
0.61138392
0.61858433
0.62418294
0.62542229
6.9047229
1.8424356
0.8066672
0.66589118
0.65682661
0.65878266
0.64049757
0.60703167
0.59848774
0.59627005
0.59650867
0.5995638
0.60256957
0.60218232
0.60070797
0.60181108
0.60662349
0.61105469
0.61150175
0.61324272
0.61838013
0.62900777
0.63293073
7.507617
1.9885304
0.84081732
0.67106608
0.65729199
0.65930534
0.64782267
0.6137424
0.60119873
0.59673074
0.59596114
0.59829238
0.60332587
0.60491411
0.60378283
0.60429597
0.60790497
0.61442243
0.61689806
0.61720418
0.62043653
0.63226881
0.64211573
8.2930629
2.8880822
1.0376554
0.70086147
0.66328844
0.66345051
0.6589395
0.62853748
0.60808636
0.60031064
0.59824818
0.59971305
0.60536565
0.6078055
0.60744926
0.60745687
0.60919762
0.61608958
0.62124814
0.62307062
0.62582342
0.63442153
0.64709558
9.273428
3.1878034
1.1976454
0.75241536
0.67184875
0.66794467
0.66393509
0.6418615
0.61643389
0.60499041
0.60204544
0.60319043
0.60829314
0.61270213
0.61209607
0.61036856
0.61092463
0.61690381
0.62611942
0.62972929
0.63248637
0.63778132
0.65079717
10.152588
2.8767574
1.1756019
0.75748159
0.67234323
0.66684767
0.66320965
0.6466364
0.62214215
0.60980159
0.60563406
0.60581176
0.60983287
0.61573382
0.61669952
0.61527976
0.61504657
0.61890677
0.6291452
0.63515956
0.63727166
0.64056161
0.64934719
11.116
2.8445705
1.1771756
0.76320221
0.67498553
0.66719427
0.66459214
0.65164954
0.62705938
0.6135355
0.60780061
0.60721116
0.61014125
0.61810777
0.62150409
0.62156667
0.62155789
0.62364021
0.6317113
0.64029331
0.64417547
0.64601001
0.650531
12.239865
3.0146083
1.2084407
0.77417148
0.68157409
0.67114936
0.66917652
0.65888171
0.63374874
0.61969258
0.61245999
0.60998659
0.61122879
0.61810379
0.62411369
0.62680246
0.62767747
0.62857868
0.63348254
0.64449653
0.64992017
0.65108356
0.65370371
13.446951
3.3501592
1.2576643
0.78824522
0.69186746
0.67493172
0.67241939
0.66376858
0.64107855
0.62664925
0.61963131
0.61580249
0.61529688
0.6203825
0.62827481
0.63093023
0.63098576
0.6313615
0.63482979
0.64678068
0.6577306
0.65958688
0.66022154
14.625512
3.7379527
1.3202491
0.80246041
0.69856493
0.6765963
0.67338501
0.66603362
0.64705217
0.63171513
0.62429552
0.62151384
0.62220156
0.6267309
0.63378809
0.63538285
0.63424293
0.63383256
0.63689912
0.64820996
0.6595955
0.66472982
0.66689001
15.765489
4.0225323
1.3986865
0.81683841
0.70209266
0.67707365
0.67379184
0.66741478
0.65096924
0.63623726
0.62965744
0.62767058
0.62887609
0.63228022
0.63784288
0.63977543
0.63911845
0.63882628
0.64093025
0.64857811
0.66104623
0.66783817
0.6707208
16.896453
4.1884274
1.4681562
0.83410555
0.70624096
0.67824513
0.67477889
0.66905051
0.65432168
0.64020412
0.63324369
0.63064056
0.63143555
0.63458069
0.64183097
0.64483748
0.64397031
0.64278744
0.64338561
0.64912191
0.66313345
0.67338776
0.6757765
17.988611
4.3865231
1.533483
0.85480397
0.71110119
0.6809891
0.67785182
0.67273275
0.65868791
0.64302892
0.63500539
0.63117331
0.63202409
0.63548702
0.64307467
0.64737326
0.64725869
0.6460771
0.64694223
0.65223657
0.66630168
0.67629933
0.67830681
18.981434
4.6141411
1.5958279
0.87579359
0.71727427
0.68527909
0.68185085
0.67604614
0.66087388
0.64381996
0.63512778
0.63283483
0.63370167
0.63694416
0.64364875
0.64726185
0.64719406
0.64724678
0.65021503
0.65709743
0.66978937
0.67858917
0.67931568
19.763268
4.816901
1.640827
0.89093894
0.72193967
0.6893414
0.68532914
0.67817771
0.66191796
0.64370254
0.63508623
0.63302428
0.6354249
0.63942261
0.64591182
0.64848961
0.6472894
0.64742979
0.65079626
0.65825799
0.67220692
0.68113882
0.68135859
20.259458
4.9435862
1.661392
0.89509384
0.72111753
0.68952052
0.68742655
0.68014254
0.66237489
0.64314096
0.6338638
0.63246947
0.6361775
0.64221141
0.64881659
0.6492107
0.64692105
0.6469846
0.65155878
0.66040933
0.67421752
0.6824669
0.68193387
20.403279
4.9216266
1.6433482
0.89205906
0.71955514
0.68926436
0.6878889
0.67922991
0.66063546
0.64086503
0.632463
0.63198195
0.63868808
0.64604152
0.650013
0.6486661
0.64562796
0.64597956
0.65245753
0.66233243
0.67612635
0.68216584
0.68101074
20.324056
4.9411745
1.6174788
0.8706561
0.71369793
0.68887315
0.68769424
0.67651447
0.65429897
0.6353866
0.62962095
0.63179761
0.64041692
0.64800307
0.64986989
0.64619261
0.64263558
0.64446233
0.65310552
0.66494534
0.67894942
0.68129396
0.67939297
19.873515
4.9547425
1.6175313
0.86374779
0.70727625
0.68771724
0.68818688
0.67381683
0.64920649
0.63064621
0.62647067
0.63129716
0.6421607
0.64872075
0.64900648
0.64327209
0.64039673
0.64276324
0.65417527
0.67059224
0.67880185
0.67880775
0.67667366
19.277173
4.6948605
1.5419859
0.83969503
0.70097754
0.68701505
0.68810037
0.67172362
0.64311962
0.62514128
0.62251785
0.63177234
0.64478161
0.64905982
0.64672348
0.63848639
0.63653491
0.64294438
0.65877963
0.6746474
0.67745421
0.67457413
0.67434063
18.52529
4.6544743
1.5011946
0.81963499
0.69696538
0.68702116
0.68616734
0.66605242
0.63538064
0.62131509
0.62040595
0.63308488
0.64645257
0.6486991
0.64359583
0.63546217
0.63549022
0.64627944
0.66808507
0.67579543
0.67514948
0.67185212
0.67538189
17.476326
4.394139
1.4216437
0.7947605
0.69451249
0.68732079
0.68340367
0.6582741
0.62894278
0.61927401
0.62031856
0.63800479
0.64758975
0.64771205
0.63861255
0.6343828
0.63726414
0.65672588
0.67306723
0.67570871
0.67273267
0.67232009
0.68111164
16.484239
4.1611529
1.3175836
0.76738013
0.69247554
0.68837795
0.68018291
0.64539174
0.62378898
0.61829692
0.62463614
0.6435787
0.64796257
0.64454881
0.63593122
0.63505637
0.64450822
0.66777792
0.67510727
0.67487143
0.6728807
0.67549734
0.69347812
15.272688
4.0537955
1.2475851
0.74877757
0.69131907
0.68795713
0.67073824
0.63529128
0.62121124
0.61940377
0.63415026
0.64550992
0.64662312
0.63875217
0.63588122
0.6394888
0.66052009
0.67254344
0.67580303
0.67484186
0.67480525
0.68515476
0.72022716
14.100115
3.7131562
1.1801628
0.735167
0.68932754
0.68225813
0.65857957
0.62802529
0.62067407
0.62241586
0.63956906
0.64456834
0.64194806
0.63771546
0.63834089
0.65177973
0.66724206
0.67393793
0.67619349
0.67682166
0.68518769
0.71364522
0.7406461
12.773595
3.462261
1.0903442
0.72300824
0.68578271
0.67520086
0.64361739
0.62551216
0.62174501
0.63157045
0.6417328
0.64333947
0.63989607
0.63887764
0.64570641
0.66314689
0.67104726
0.67484123
0.67774426
0.68606955
0.70781501
0.73518366
0.74748379
11.699382
2.9831687
1.0022835
0.71466053
0.67872793
0.66137496
0.63452992
0.62693113
0.62672089
0.63793529
0.64242424
0.64326319
0.64179805
0.6444766
0.66042768
0.66913407
0.67188424
0.67379621
0.6821262
0.7012135
0.73088713
0.74621479
0.7656253
10.565449
2.7461491
0.9267983
0.70805944
0.67491346
0.65262112
0.63111995
0.62819722
0.63456215
0.64378458
0.64565594
0.64523355
0.64603156
0.65500816
0.6670441
0.67014668
0.67265088
0.68054337
0.70100872
0.73258107
0.74935744
0.76874843
0.79264435
9.7242245
2.4096816
0.87686145
0.70141383
0.66911674
0.64319182
0.63240364
0.63319606
0.64302477
0.6474261
0.64814329
0.64822375
0.65344585
0.66642563
0.67197006
0.67490803
0.68392513
0.70629353
0.7348141
0.7516956
0.76927199
0.79297348
0.83334392
8.7840989
2.2295621
0.83478621
0.69637174
0.66283133
0.6441936
0.63916493
0.64303563
0.65024206
0.65157661
0.65159227
0.65613605
0.6675351
0.675407
0.6795596
0.6898649
0.71564874
0.73747155
0.75342954
0.77130108
0.79865101
0.84456791
0.92996062
8.1209078
1.996886
0.81005068
0.69335444
0.66123707
0.64729208
0.64385292
0.6491095
0.65366041
0.6539246
0.65622103
0.66458532
0.67719578
0.68611652
0.69725773
0.72415802
0.74209603
0.75746763
0.77986658
0.81248476
0.86955901
0.98391262
1.2281476
7.2696158
1.7882457
0.78085047
0.68857007
0.65987842
0.65125965
0.65217191
0.65902773
0.66279986
0.66631476
0.67456086
0.68674178
0.69851603
0.71250768
0.7333789
0.74992131
0.76829781
0.79650981
0.84369329
0.92966047
1.1032873
1.4655417
2.2269086
6.6900688
1.597409
0.75873776
0.67993464
0.65711669
0.65356312
0.66021452
0.66766655
0.67060895
0.67681007
0.68864884
0.70207005
0.71556219
0.73589758
0.76313272
0.78988265
0.83596911
0.93173912
1.121793
1.4895089
2.1826013
3.3714562
4.5820933
6.0947791
1.3940166
0.72792829
0.67468917
0.66186038
0.66357042
0.67315593
0.68052961
0.6895579
0.70470188
0.72328732
0.73881443
0.7596031
0.8019027
0.87519427
1.0044532
1.2583769
1.7241319
2.5135336
3.50897
4.3832344
4.9330894
5.3628891
5.9397221
1.3728661
0.7237325
0.67587048
0.66570666
0.66854299
0.68018179
0.68733857
0.69836032
0.71874719
0.74331302
0.76516265
0.80122979
0.88437591
1.0449568
1.3503268
1.9097848
2.7983304
3.7836253
4.280604
4.5843533
4.8098949
4.8843134
6.0880779
1.3733575
0.72043422
0.6742127
0.66729791
0.67180086
0.68770382
0.6971099
0.70720495
0.7276423
0.75870026
0.79645034
0.85523876
0.97431367
1.2241933
1.7545496
2.7599337
3.6708634
4.0566532
4.2345051
4.3167823
4.1860475
4.0488243
6.2335477
1.3917872
0.71948272
0.6710183
0.66494585
0.67076217
0.6909215
0.70445068
0.71923622
0.74037239
0.77355607
0.82060987
0.90413774
1.101817
1.6009463
2.5834138
3.5171971
3.8702097
3.9770322
3.9555288
3.7186464
3.463182
3.2576913
6.3874728
1.4680537
0.72021648
0.67088681
0.66254183
0.66699032
0.68782124
0.70427454
0.72520892
0.75327995
0.79655035
0.86302878
0.99442775
1.3416272
2.1465299
3.2392432
3.6888159
3.7997928
3.731199
3.4708166
3.170606
2.8874485
2.6548764
6.5491402
1.5453306
0.72008079
0.6668133
0.6585053
0.66545139
0.68624137
0.7020541
0.72361396
0.75500938
0.81173117
0.91613999
1.154726
1.7116369
2.6854164
3.4533103
3.6388266
3.6217294
3.3971894
3.0707099
2.7531355
2.4793071
2.2609181
6.7022076
1.6529899
0.72228263
0.66059584
0.65135449
0.66132667
0.68340932
0.69987617
0.72102662
0.75217549
0.81082547
0.93071725
1.2338758
1.9292141
2.9567251
3.4555268
3.5400531
3.4247034
3.1278026
2.7790969
2.4632006
2.2108747
2.0219301
6.8178267
1.7535575
0.72780744
0.65436938
0.64330583
0.65137939
0.67427329
0.69275095
0.71444332
0.74788709
0.80678548
0.92589925
1.2300168
1.9413236
2.9822668
3.4181034
3.4402781
3.2636786
2.9315052
2.57429
2.2679005
2.0363593
1.8760929
6.9615258
1.8613184
0.73612412
0.64469544
0.63254286
0.63862378
0.66110924
0.68165873
0.7026164
0.73680401
0.79586938
0.91230268
1.2024491
1.8987907
2.9335154
3.344473
3.3535461
3.1589364
2.8155637
2.4552727
2.1486186
1.9206648
1.773443
7.0701703
2.0288119
0.75160218
0.63445915
0.62147957
0.62738803
0.64875392
0.66717586
0.68756631
0.71795801
0.77257342
0.87311815
1.1228965
1.7721753
2.8076374
3.2832601
3.3053042
3.1263021
2.8000231
2.434665
2.1157203
1.8772761
1.7247851
7.0871841
2.1766313
0.77333494
0.63107717
0.61128101
0.61469394
0.63413713
0.65280241
0.67122593
0.69654892
0.74379815
0.82273126
0.99243899
1.4941548
2.5325231
3.20391
3.282072
3.1310624
2.8157171
2.4491606
2.1234916
1.8761093
1.7034951
7.0666922
2.3828354
0.81729746
0.63234759
0.60171006
0.60397094
0.6185074
0.63894439
0.65741079
0.67760579
0.71520074
0.77795428
0.88708031
1.1954431
1.9974271
3.0034606
3.2370087
3.1430534
2.8634063
2.5034414
2.168494
1.9045366
1.7129813
7.0101383
2.5891659
0.90251408
0.63911048
0.59867331
0.59688521
0.6064861
0.62587222
0.64390784
0.66102975
0.68910498
0.73770141
0.80836706
0.9817728
1.4593712
2.436449
3.105697
3.1464125
2.9727407
2.6420097
2.2805922
1.9830181
1.7626007
6.914462
2.7275466
0.95861811
0.65091815
0.59927274
0.59310404
0.59817862
0.61502046
0.631633
0.64720409
0.66836423
0.70455711
0.75258286
0.84765597
1.0925375
1.6833106
2.7020079
3.080792
3.0249283
2.8243827
2.4795602
2.1314675
1.8546916
6.8110099
2.9428038
1.0741799
0.67622813
0.60278689
0.59321559
0.59500776
0.60623271
0.62223291
0.63656632
0.65326073
0.68157802
0.71781383
0.77056776
0.8908564
1.1854015
1.8284239
2.7566421
2.972716
2.8896897
2.6910772
2.3587973
2.0256139
6.6922447
3.1088206
1.2057678
0.72229884
0.61351698
0.59482733
0.59520332
0.6007002
0.61382901
0.62690825
0.63984446
0.66160688
0.6925033
0.72521777
0.78625292
0.92370178
1.2329132
1.8707663
2.6800353
2.834266
2.7560103
2.590789
2.2968145
6.5566115
3.2054161
1.2792794
0.75079592
0.62294412
0.59758787
0.59597639
0.59942404
0.60965917
0.6213998
0.63105362
0.64625457
0.67305125
0.69838722
0.73500512
0.79995809
0.93923419
1.234317
1.8311299
2.5473515
2.6960538
2.6464703
2.530299
6.4053567
3.4159006
1.4335219
0.80948152
0.64050468
0.60272101
0.5978216
0.59998153
0.60773616
0.61855017
0.62666678
0.63679222
0.65683686
0.68195377
0.70648932
0.74497241
0.81064105
0.93971588
1.2048243
1.7225177
2.3811355
2.564784
2.6056391
6.2354832
3.5364234
1.5948675
0.89833918
0.67802716
0.61644101
0.60185202
0.60172334
0.60721971
0.61676363
0.62387045
0.63062928
0.64237311
0.66454868
0.68311324
0.70877381
0.74678335
0.80766468
0.92061809
1.1493381
1.5653269
2.2025502
2.4905354
6.0712434
3.5267227
1.6589008
0.93930322
0.69974193
0.62748719
0.60825575
0.60627813
0.60866871
0.61661306
0.62372215
0.6292882
0.63616786
0.65157765
0.66758803
0.68372582
0.70784985
0.74329867
0.79626951
0.89174269
1.0741793
1.4291261
2.0036797
5.9234688
3.5485422
1.8040184
1.0161285
0.73433323
0.64162595
0.61471831
0.61198044
0.61314139
0.61807102
0.62535912
0.63015861
0.63601907
0.64616871
0.66110533
0.67247388
0.68844121
0.71142901
0.74220761
0.78493666
0.86197076
1.0176472
1.4287211
5.820025
3.5566019
2.0425419
1.207545
0.83192596
0.68306845
0.62942819
0.61749461
0.61696965
0.62001458
0.62781797
0.63250548
0.63673352
0.64426537
0.65812616
0.66804894
0.680716
0.69631642
0.71815268
0.74373165
0.7772037
0.84275047
1.0443446
5.7131719
3.3806972
2.0968984
1.2961224
0.90039186
0.72756152
0.6579503
0.63074723
0.62358531
0.62465653
0.63016875
0.63562675
0.63932224
0.64494584
0.65760002
0.66727547
0.67923875
0.69173061
0.71031094
0.73078823
0.75111224
0.7805437
0.86056383
5.6532801
3.3178257
2.1799879
1.3908844
0.96165935
0.76206902
0.67900495
0.65155447
0.64228619
0.63998527
0.64115888
0.64598935
0.6506042
0.65268425
0.6612028
0.67040821
0.68151925
0.69271314
0.71069284
0.73013027
0.74817732
0.76718889
0.80437746
5.7227976
3.5971046
2.481929
1.6648566
1.1222322
0.8373512
0.71378828
0.66785506
0.65461472
0.6537045
0.65474341
0.65977441
0.66509612
0.67197306
0.67691904
0.68594201
0.69469201
0.70126715
0.71626683
0.73527932
0.75129667
0.76788058
0.79741426
6.1025368
3.70677
2.6358685
1.9555402
1.4102293
1.0384189
0.80343463
0.69771013
0.66518683
0.65840953
0.65878578
0.66290073
0.668364
0.67827378
0.68593424
0.69560667
0.70507073
0.71349776
0.72501421
0.74418272
0.76225777
0.77571696
0.80969684
6.2707773
3.3232391
2.6004187
2.0349002
1.5081198
1.1644507
0.93220268
0.76912999
0.69166144
0.67043012
0.6671062
0.66922639
0.67393354
0.68373915
0.69296193
0.70172582
0.7145243
0.72803459
0.74208848
0.76128214
0.78329953
0.79626061
0.8231086
6.2708281
2.3626145
2.4127804
2.0117744
1.4964376
1.1749064
1.0010275
0.87506766
0.77542436
0.72217332
0.70136569
0.6957589
0.695952
0.70139334
0.71118199
0.71875103
0.73640403
0.74791548
0.76472983
0.77873843
0.80026568
0.81162548
0.83931565
6.2147054
1.8143199
1.8866618
1.8356547
1.4226058
1.1564618
1.0093385
0.92230368
0.86001654
0.81444931
0.78340817
0.7657126
0.75436695
0.74849626
0.75016331
0.75224735
0.75919462
0.76503317
0.77695793
0.78600976
0.80430225
0.81489505
0.8406606
6.1117975
1.5967682
1.3934107
1.3628818
1.1834769
1.0768371
0.9901465
0.92028468
0.87273943
0.83475652
0.80731352
0.78862562
0.77596772
0.76780351
0.76697493
0.76743001
0.77003316
0.77370022
0.78229805
0.78955415
0.80482764
0.81494691
0.84216405
5.9306011
1.7174308
1.2565365
1.1025008
0.9849111
0.93603396
0.90904686
0.87850053
0.85086298
0.81911684
0.798408
0.78234219
0.77272347
0.76693212
0.76700187
0.76830916
0.77191831
0.77566257
0.7845457
0.7914117
0.80616102
0.81539527
0.8396252
6.1781102
2.4021207
1.3219768
1.0731074
0.94988796
0.90036695
0.87404955
0.85242188
0.83305288
0.80790209
0.79260371
0.77930188
0.77214135
0.76805878
0.76856389
0.77071007
0.77628583
0.78042176
0.79006596
0.79608763
0.80975411
0.81955842
0.82205579
6.4898205
2.4230909
1.4548976
1.1280707
0.98102503
0.92417893
0.8953758
0.87491264
0.85668677
0.83504072
0.82042794
0.80838688
0.80232552
0.79993145
0.80079586
0.80384329
0.81182863
0.81753213
0.82685789
0.83125803
0.84108311
0.8470081
0.85629795
6.4745455
2.4109215
1.4978766
1.216187
1.1003078
1.0695357
1.0457373
1.0285219
1.0092987
0.99264326
0.97584978
0.95978571
0.94826919
0.93814089
0.93176799
0.92531901
0.92470746
0.92055029
0.91972058
0.91457438
0.91444525
0.90893978
0.90761239
6.5713089
2.6309726
1.6050165
1.3650906
1.3063252
1.2613507
1.2068611
1.1585327
1.1206575
1.0885724
1.0628083
1.0370617
1.0175749
0.99717102
0.98294382
0.96654093
0.95732487
0.94483384
0.93920575
0.92801657
0.92454599
0.91411107
0.92626294
6.7954911
2.835681
1.8976134
1.6823722
1.5164609
1.3405768
1.2207566
1.142966
1.0897636
1.0464109
1.0175327
0.99055358
0.97182327
0.95207818
0.93951651
0.92339346
0.91427581
0.90116853
0.8954085
0.88360804
0.87844912
0.86474569
0.87035342
7.0114858
2.9635327
2.1534136
1.8680789
1.5929238
1.3224205
1.1318144
1.0007069
0.92086478
0.86675564
0.83502534
0.81141128
0.79694073
0.78438224
0.77679376
0.76847376
0.76398759
0.75723992
0.7539287
0.74759101
0.74471724
0.73691961
0.74646991
7.0886778
3.4913477
2.6940916
2.1149863
1.641379
1.2850801
1.0427531
0.89967748
0.81182449
0.75573798
0.72146381
0.69922816
0.68633463
0.67699832
0.67231299
0.66797609
0.66555989
0.6625374
0.66132208
0.65920044
0.65836544
0.65672073
0.6659436
7.1597145
5.1007022
3.5842805
2.5776135
1.8200617
1.3275064
1.0295123
0.85723443
0.74984893
0.68738062
0.65220785
0.63195729
0.62056977
0.61134898
0.60639628
0.60178785
0.59947936
0.5979489
0.59788094
0.59801012
0.59884893
0.59922899
0.60713989
7.652893
5.4451992
3.7351757
2.6342254
1.8281222
1.3043973
0.98092214
0.78804356
0.68515945
0.63250437
0.60250705
0.58303152
0.56870071
0.55867419
0.55262464
0.54913717
0.54833732
0.54849843
0.54976034
0.55085402
0.55371034
0.55452503
0.5620245
8.9266934
5.1357397
3.2624111
2.181034
1.4747927
1.052995
0.81273222
0.68727442
0.62401264
0.5869359
0.56043937
0.54019247
0.52721997
0.52035343
0.51626088
0.51411731
0.5141361
0.5147599
0.51640859
0.51812825
0.52170387
0.52552327
0.54082417
9.9362163
4.4884011
2.4896782
1.5373724
1.0531008
0.80724563
0.67930275
0.61362322
0.57426248
0.54428367
0.52249053
0.50818073
0.50185913
0.49828554
0.49506931
0.49340297
0.49359861
0.49444751
0.49688704
0.50057477
0.5085534
0.5192483
0.52995925
10.448883
4.3308253
2.0718423
1.1954902
0.84141061
0.68360068
0.60818125
0.56653742
0.53322085
0.51032324
0.49705058
0.49013763
0.48722156
0.48338525
0.48011737
0.47925752
0.47960029
0.4817004
0.48909556
0.49487736
0.50758931
0.51559894
0.51927687
10.820095
4.2027975
1.7882659
1.0066997
0.73361872
0.62117532
0.57029553
0.53451327
0.505643
0.49148899
0.483663
0.47974128
0.47633771
0.47166102
0.46982652
0.47026373
0.47262144
0.47815448
0.48754077
0.49283992
0.50535801
0.50636106
0.50890796
11.050686
4.022728
1.5788097
0.89437229
0.67584921
0.58987653
0.548872
0.51423699
0.49213032
0.48258811
0.47602296
0.47212674
0.46710188
0.46304664
0.46273984
0.4645579
0.47011488
0.47627828
0.4847587
0.49011075
0.49907593
0.49954392
0.52582035
11.189197
3.8563837
1.4282552
0.825352
0.64453211
0.57481587
0.53691355
0.50409982
0.48724495
0.47843208
0.47192173
0.46676323
0.46111176
0.45913117
0.46004109
0.4632597
0.46950048
0.4745978
0.48170294
0.48681139
0.49520042
0.49871686
0.55231018
11.246857
3.6989408
1.3286186
0.78648108
0.62962018
0.56919472
0.53187947
0.50090583
0.48634677
0.47672094
0.47037868
0.46403671
0.45896432
0.45783031
0.45898593
0.46213025
0.4676553
0.47186205
0.47997044
0.48574129
0.49470515
0.50216707
0.55639432
11.232982
3.5406585
1.2587611
0.76479731
0.62458291
0.56913771
0.53177476
0.50109368
0.48668151
0.47672935
0.47047865
0.46355287
0.45831349
0.45708407
0.45778752
0.46065998
0.46579542
0.47037327
0.47750651
0.48351796
0.4937111
0.50524372
0.54058185
11.161418
3.4016895
1.213302
0.75579756
0.62720964
0.57641049
0.53808434
0.50509598
0.48802869
0.47809271
0.47241772
0.4646178
0.45872234
0.45720913
0.45730194
0.45958442
0.46388278
0.46790618
0.47423873
0.48041161
0.4889499
0.50007414
0.52268277
11.052595
3.2308696
1.1787788
0.75531836
0.63611642
0.58779042
0.54948354
0.51071284
0.4895086
0.47997572
0.47431056
0.46675232
0.45959611
0.45647427
0.45571283
0.45677647
0.46045985
0.46454008
0.46964122
0.47572245
0.48234549
0.49163624
0.50632159
10.903895
3.0634942
1.1556069
0.75952884
0.64730228
0.60033901
0.56235387
0.51954213
0.49267887
0.48134202
0.47557889
0.46867992
0.46075017
0.45566688
0.4533157
0.45355807
0.456381
0.4598683
0.46407782
0.4685309
0.47298059
0.48133998
0.49271099
10.736149
2.84642
1.1314619
0.76663118
0.65815381
0.61081724
0.5747053
0.53203205
0.49644558
0.48237649
0.47559267
0.4690257
0.46146222
0.45488912
0.4499162
0.44923666
0.45035909
0.45326443
0.45665343
0.46007857
0.46392873
0.47029615
0.4778079
10.544328
2.5807058
1.0988803
0.77113421
0.66791354
0.62143439
0.58654997
0.54718357
0.5034256
0.48344276
0.47488608
0.46887719
0.46196131
0.4549808
0.44766186
0.44493401
0.44472764
0.44614323
0.44910746
0.45228618
0.45551089
0.45856561
0.46159966
10.348781
2.2892402
1.0737499
0.78061711
0.67935341
0.63203894
0.59848644
0.56374294
0.51896796
0.48713655
0.47458572
0.46792788
0.46185595
0.45442649
0.44722156
0.44121787
0.43821112
0.43798782
0.43910127
0.44116622
0.4436394
0.44649947
0.45059591
10.149221
2.0470879
1.0668217
0.79809434
0.69598072
0.64653863
0.6127486
0.58114398
0.54151429