/*--------------------------------*- C++ -*----------------------------------*\
| =========                 |                                                 |
| \\      /  F ield         | OpenFOAM: The Open Source CFD Toolbox           |
|  \\    /   O peration     | Version:  2406                                  |
|   \\  /    A nd           | Website:  www.openfoam.com                      |
|    \\/     M anipulation  |                                                 |
\*---------------------------------------------------------------------------*/
FoamFile
{
    version     2.0;
    format      ascii;
    arch        "LSB;label=32;scalar=64";
    class       volScalarField;
    location    "45";
    object      p;
}
// * * * * * * * * * * * * * * * * * * * * * * * * * * * * * * * * * * * * * //

dimensions      [1 -1 -2 0 0 0 0];

internalField   nonuniform List<scalar> 
20580
(
1.0018649
1.0065084
1.0010695
1.0031854
1.004591
1.0033985
1.0057259
1.0050012
1.0060647
1.0069028
1.0062655
1.0067769
1.0073573
1.0080206
1.008621
1.0080246
1.0090208
1.0090817
1.0062464
1.0104429
1.0088164
1.0053762
1.0082463
1.0105166
1.0057962
1.0047697
1.0088561
1.0083659
1.008452
1.011394
1.0044151
1.0015614
1.0067666
1.000357
1.0028864
1.0047321
1.0034726
1.0057536
1.0051267
1.0064417
1.0065232
1.0066053
1.0069644
1.0074214
1.0084597
1.008244
1.008054
1.0095922
1.0076666
1.0065328
1.0111744
1.0067674
1.0047708
1.008745
1.009185
1.0036327
1.0041448
1.0112643
1.0101001
1.0059396
1.0091929
1.0098576
1.0022319
1.0063045
1.0015987
1.0030866
1.0051453
1.0046229
1.0054814
1.0057065
1.0067875
1.0058602
1.007119
1.0074766
1.0076049
1.0086628
1.0078709
1.0074602
1.0096006
1.0067406
1.0071607
1.0114886
1.0057894
1.0057894
1.0098797
1.0083082
1.0034653
1.0046117
1.0120974
1.0121178
1.0047001
1.0039165
1.0109459
1.0035911
1.0052931
1.0041864
1.003887
1.005437
1.0060943
1.0050983
1.0062888
1.006694
1.0055338
1.0073652
1.0077254
1.0076406
1.0086712
1.0077462
1.0071355
1.0094619
1.0065463
1.0084175
1.0109753
1.0055304
1.0077788
1.0113106
1.0087025
1.0059801
1.0063805
1.010964
1.0115961
1.0059958
1.0024421
1.0092247
1.005088
1.0040205
1.0067324
1.0052129
1.0052671
1.0068773
1.0048701
1.0063853
1.0060902
1.0059202
1.0071878
1.007355
1.0074163
1.008242
1.0076173
1.0075405
1.0092552
1.0069078
1.0097074
1.0096797
1.0051735
1.0090607
1.010584
1.0082819
1.0088606
1.0090421
1.0090636
1.0084114
1.00579
1.0030382
1.0078305
1.0061007
1.0031136
1.007919
1.0064097
1.0047837
1.0064241
1.0049938
1.0059474
1.0052242
1.0067411
1.0068182
1.0065069
1.0070983
1.0076278
1.007258
1.0082838
1.0089279
1.0074508
1.0107556
1.0085035
1.0060128
1.0106418
1.0089332
1.0062415
1.0099267
1.0110407
1.0074276
1.0066727
1.0055311
1.003887
1.004368
1.0061182
1.0031848
1.0071187
1.0066697
1.004233
1.0049595
1.0053995
1.0053872
1.0047093
1.0073416
1.0065737
1.0060266
1.0072105
1.0071088
1.007065
1.0089958
1.0080568
1.0073608
1.0108083
1.0067867
1.0069006
1.0118936
1.008178
1.0051215
1.0101295
1.0116781
1.0053419
1.0062124
1.0084066
1.0088552
1.0038759
1.0050363
1.0040859
1.0047722
1.0058489
1.0038703
1.0035125
1.0058326
1.0049941
1.0050761
1.00715
1.006586
1.006307
1.0076312
1.0071997
1.0074159
1.009201
1.007087
1.0071878
1.010065
1.0056344
1.008078
1.0122277
1.0073008
1.0049111
1.0090647
1.0112484
1.00374
1.0042555
1.0102574
1.0148642
1.0102848
1.0033874
1.0052232
1.0020634
1.0042561
1.0040112
1.0030686
1.0059558
1.0049824
1.0060974
1.0062861
1.0066775
1.006936
1.008003
1.0073911
1.0080056
1.008904
1.0067014
1.0079766
1.0098916
1.005295
1.0086924
1.0104247
1.0062435
1.0053023
1.007966
1.0101399
1.006336
1.0032632
1.0080652
1.0138079
1.0138609
1.0019234
1.0062436
1.0006042
1.0024999
1.0046092
1.0039059
1.0055218
1.0053594
1.0071237
1.0055521
1.0065495
1.0074864
1.0079223
1.0074684
1.0083409
1.008366
1.0068454
1.0090976
1.009642
1.006238
1.0091915
1.0082794
1.0068081
1.0071072
1.0075952
1.0068993
1.0091684
1.0063582
1.0064192
1.0087202
1.0101555
1.0012706
1.006694
1.0011494
1.0015596
1.0052816
1.0054983
1.0048393
1.0057867
1.0073789
1.0054785
1.0063772
1.0074632
1.0072544
1.0072356
1.0080643
1.0076499
1.0073689
1.0098578
1.0082933
1.0076972
1.0106394
1.0069155
1.0073214
1.0100379
1.0089573
1.0054179
1.008524
1.0099284
1.007458
1.0062873
1.0070623
1.0017599
1.0060748
1.0030738
1.002124
1.0056242
1.0067721
1.0043859
1.006004
1.0065968
1.0060509
1.006259
1.0070692
1.0065398
1.0070023
1.0075706
1.0072923
1.0077786
1.0099168
1.0065229
1.0080437
1.0112134
1.0058193
1.0072473
1.0123809
1.0101419
1.0071592
1.0079816
1.0110833
1.0082254
1.0046333
1.004282
1.0033064
1.0047755
1.0052979
1.0039123
1.0054443
1.0068299
1.0043892
1.0059739
1.0053493
1.0067803
1.0063572
1.0067788
1.0062405
1.0071244
1.0073991
1.0075297
1.0079172
1.0090522
1.0053189
1.0079153
1.0107639
1.0057094
1.0069834
1.0121387
1.0085306
1.0071721
1.0089177
1.0115674
1.0095475
1.0040468
1.0013501
1.0050872
1.0036695
1.0067027
1.0060682
1.0047957
1.0054846
1.0049074
1.0057412
1.0045438
1.0069601
1.0067887
1.006832
1.0065134
1.0075349
1.0075516
1.0080277
1.007997
1.0080013
1.0055512
1.0085733
1.01015
1.0065654
1.0072342
1.0107384
1.0077196
1.0057808
1.008647
1.011123
1.0115496
1.006748
1.0025988
1.0062705
1.0030678
1.0063313
1.0074948
1.0040107
1.0037787
1.0056047
1.0054036
1.0046817
1.0064792
1.0070317
1.0069088
1.0069198
1.0077566
1.0076387
1.00814
1.0081982
1.0077141
1.0069725
1.0094409
1.0094224
1.0071703
1.0083721
1.0092511
1.007957
1.0061169
1.007174
1.0080749
1.0103965
1.0094081
1.0073626
1.00617
1.0033409
1.0048367
1.0073929
1.0035575
1.002761
1.0060295
1.0050713
1.005664
1.0057948
1.0068746
1.0067448
1.0072254
1.0075773
1.0075098
1.0075676
1.0084294
1.007677
1.0080657
1.0095839
1.0082352
1.0075299
1.0092398
1.0075287
1.0069743
1.0083868
1.0071501
1.0054595
1.0071082
1.0089509
1.0113387
1.0047382
1.0043209
1.0033347
1.0056669
1.0037769
1.0030259
1.005929
1.0049491
1.0066738
1.00543
1.0066359
1.0064956
1.0071466
1.0071279
1.0072062
1.0070874
1.0082901
1.0076122
1.0085699
1.0087871
1.0066017
1.0084422
1.0101513
1.0065826
1.0061056
1.0106803
1.0090696
1.0058472
1.0052894
1.0070678
1.0123399
1.002702
1.005591
1.0023936
1.0028983
1.0044869
1.0046886
1.0052205
1.0051516
1.0068303
1.0057624
1.0064129
1.0064166
1.0069099
1.0067524
1.0071654
1.007122
1.0077446
1.0073496
1.0089157
1.0079145
1.0052236
1.0088561
1.0109748
1.0061345
1.006256
1.0112868
1.0107923
1.0075564
1.0048007
1.0056013
1.0106077
1.0011076
1.00643
1.0023653
1.0009272
1.0051725
1.0064815
1.0045121
1.0054697
1.0061448
1.0065875
1.0061744
1.0065232
1.0067788
1.0065311
1.0074202
1.007792
1.0075198
1.0066741
1.0089227
1.0079883
1.0055953
1.0082956
1.0105807
1.006411
1.0069334
1.0101967
1.0116868
1.0090475
1.0055041
1.0058919
1.008847
1.0010994
1.006226
1.0030344
1.0009696
1.0054719
1.0070347
1.0041567
1.0057166
1.0052566
1.0071604
1.0061768
1.0067589
1.0071495
1.0066993
1.0076554
1.0084456
1.0076749
1.0064299
1.0086225
1.0086082
1.0074298
1.0082921
1.0091444
1.0077774
1.0075455
1.008663
1.0109402
1.0090748
1.0066445
1.0077945
1.0084225
1.00264
1.0052439
1.0038478
1.0027373
1.0051645
1.0061439
1.0044936
1.0057218
1.0049993
1.0069589
1.0062354
1.0068828
1.0071001
1.0070583
1.0077969
1.0083305
1.0078922
1.0073956
1.0081785
1.0085665
1.0087737
1.0087388
1.0079141
1.0089252
1.0083529
1.0080786
1.0083807
1.0076435
1.007616
1.0091904
1.0080765
1.0048559
1.0038435
1.0042716
1.0057274
1.0045274
1.0042363
1.0052464
1.0054844
1.0055203
1.0060571
1.0062318
1.006743
1.0069784
1.0071259
1.0074282
1.0073346
1.0076565
1.0085415
1.0076843
1.0074908
1.0091991
1.0084312
1.0069336
1.0089536
1.0094127
1.0084435
1.0059213
1.0067357
1.0093277
1.0104767
1.0073813
1.0061276
1.003162
1.0046094
1.0084667
1.0038636
1.0027247
1.0057855
1.004985
1.0062741
1.0052211
1.006397
1.0065356
1.0062634
1.007406
1.0073761
1.0062549
1.0070689
1.0091825
1.0076199
1.0061944
1.0090801
1.0079531
1.0065404
1.007297
1.0102981
1.0096183
1.0046072
1.0055394
1.0098765
1.0118177
1.007733
1.0047603
1.0064265
1.0083091
1.0090896
1.0102434
1.0120774
1.0117649
1.0089484
1.0058726
1.0040614
1.0060363
1.0095082
1.0082652
1.006792
1.0079524
1.0028274
1.0010972
1.0096079
1.0136481
1.0119403
1.0102008
1.0052638
1.0007216
1.0069901
1.0082586
1.0076535
1.0066032
1.0057597
1.0056975
1.0055029
1.0052341
1.0062473
1.0099888
1.0145734
1.0141528
1.0091697
1.0052805
1.002825
1.0016741
1.0053146
1.0095856
1.0084593
1.0066827
1.0076879
1.005585
1.0056368
1.0142024
1.0124118
1.0087889
1.0039922
1.0016746
1.0022594
1.0042859
1.0066286
1.0097478
1.0119158
1.0102611
1.0067459
1.0051678
1.0054709
1.0057926
1.0084857
1.0126998
1.0112657
1.0047034
1.0001704
1.0018662
1.0040357
1.0076058
1.0104928
1.0086005
1.0066242
1.0061932
1.0080093
1.0102264
1.0109682
1.0105852
1.0097627
1.0064528
1.0007748
0.99792972
1.0010846
1.0070625
1.0111728
1.0133086
1.0133299
1.0099905
1.0045923
1.0022213
1.0039927
1.0055233
1.005913
1.0012397
1.0020088
1.0050812
1.009725
1.0136193
1.0147247
1.0135055
1.0111515
1.0082089
1.0042125
1.001095
1.0022662
1.0063178
1.0094328
1.0097595
1.008084
1.0064794
1.0046408
1.0031764
1.0054263
1.0104279
1.0117053
1.0078268
1.0018737
1.0046365
1.0070269
1.0087895
1.0082825
1.0069621
1.0056766
1.0051553
1.0053044
1.0065196
1.0096461
1.0135648
1.0145098
1.0108982
1.0052882
1.0011115
0.99964939
0.99995764
1.0021834
1.0069139
1.011322
1.012029
1.0095402
1.0129577
1.012014
1.0093937
1.0056506
1.0013824
0.99875759
0.99840431
1.0003224
1.0037603
1.0080702
1.0120923
1.0141847
1.0131486
1.0097656
1.0058445
1.0030132
1.0020794
1.0030267
1.0052912
1.0069103
1.0067452
1.0055214
1.0041463
1.0142175
1.0120335
1.0087805
1.0054417
1.0034085
1.0033437
1.0045381
1.0058697
1.0068364
1.0069531
1.0062119
1.0050999
1.0040212
1.003773
1.00506
1.0074299
1.0100119
1.011757
1.0111937
1.0080703
1.0040245
1.00052
0.99816345
1.0033712
1.0028633
1.0036933
1.0060735
1.0096947
1.0133237
1.0150954
1.0141332
1.010796
1.0059199
1.0015306
0.99863698
0.99751299
0.99860392
1.001913
1.0067865
1.011526
1.0138514
1.0128109
1.0094532
1.0053448
1.0019998
1.0001571
0.99743646
0.9990915
1.0020919
1.0061419
1.0106303
1.0139517
1.0151666
1.0136715
1.0100625
1.006216
1.0033803
1.0015272
1.0006804
1.0011181
1.0027998
1.0050868
1.0067005
1.0070042
1.0065138
1.0058601
1.0051198
1.0049689
1.0057857
1.0051022
1.0053767
1.0051914
1.0053617
1.0055444
1.005453
1.0051978
1.0046945
1.0048629
1.0060172
1.0078245
1.0093545
1.0101543
1.009554
1.007665
1.0049324
1.0019147
0.99965458
0.99885496
0.99937348
1.0012663
1.0045532
1.0086399
1.014705
1.0124918
1.0087557
1.0044805
1.0005491
0.99776706
0.99685141
0.99772708
1.0002386
1.0040335
1.0085623
1.0127664
1.0152428
1.0150039
1.012044
1.0072551
1.0021904
0.99816336
0.99609307
0.99671358
0.99959418
1.0032924
1.0066363
1.0162657
1.0137615
1.0097115
1.0050606
1.0007962
0.99793586
0.99710797
0.99780091
0.99971512
1.0026151
1.0058766
1.0087891
1.0109773
1.0120676
1.0116368
1.0094925
1.0059895
1.0023884
1.0001315
0.9997924
1.0011308
1.0029949
1.0038079
1.011477
1.0096131
1.0073957
1.0054182
1.0039782
1.003517
1.0036466
1.0039072
1.0036904
1.0030365
1.0026683
1.0029708
1.003962
1.0050929
1.0063529
1.0072341
1.0074281
1.0070144
1.0066976
1.0065129
1.0060579
1.0048726
1.0028944
1.0030999
1.0032737
1.0041293
1.0056833
1.0076179
1.0094104
1.0104398
1.0102199
1.0085287
1.0056491
1.0024776
0.99985788
0.99840125
0.99876429
1.0003558
1.0028892
1.0058785
1.0088195
1.0110045
1.0119694
1.0113433
1.0090379
1.0047219
0.99728138
0.99868354
1.0015046
1.005375
1.0094933
1.0129778
1.0149158
1.0146305
1.0121519
1.0082352
1.0039643
1.0001784
0.99754199
0.99662234
0.99740891
0.99975338
1.0033168
1.0075975
1.011306
1.0135474
1.0135589
1.0110756
1.0066161
0.99610898
0.99790837
1.0010149
1.0050817
1.0093037
1.0127053
1.0145823
1.0146461
1.0128286
1.0095803
1.0057692
1.002215
0.9992892
0.99761638
0.99758419
0.9990738
1.0021338
1.0061529
1.0098085
1.0119662
1.0120136
1.0101427
1.0069182
0.9996666
1.00078
1.0026955
1.0050997
1.00766
1.0100392
1.0116416
1.0122728
1.0115998
1.0095244
1.0066856
1.0037916
1.0014568
0.99996862
0.99972927
1.0007819
1.0029602
1.0058323
1.0084667
1.0099265
1.0100855
1.0091243
1.0072664
1.0043013
1.0048989
1.0055897
1.0063311
1.0068334
1.0073307
1.0079371
1.0086209
1.008977
1.0084845
1.0069399
1.0047559
1.0026534
1.0013926
1.0014209
1.0026607
1.0047169
1.0068671
1.008377
1.0089796
1.0089369
1.0085088
1.0079227
1.0065586
1.0065154
1.0065022
1.0062766
1.0057636
1.0054587
1.0057842
1.0067853
1.0079751
1.0085912
1.0080537
1.0065204
1.0047682
1.0036076
1.0034842
1.0041777
1.0050919
1.0058016
1.0063438
1.0069737
1.0077751
1.0085578
1.0089536
1.0060285
1.0060038
1.0056695
1.005355
1.0051835
1.0054337
1.0062836
1.0079272
1.0096922
1.0106543
1.0103727
1.0089793
1.0071426
1.0057377
1.0051452
1.0050537
1.0048697
1.0044174
1.0041331
1.0046421
1.0061598
1.0079553
1.0088851
1.0045851
1.0049046
1.0054031
1.0062176
1.007325
1.0084912
1.0095786
1.0104896
1.0108766
1.0104583
1.0091603
1.0073755
1.0057079
1.0046589
1.0045116
1.0050919
1.0056622
1.0056668
1.0053985
1.0056326
1.0068155
1.0084311
1.0093926
1.0035334
1.0041699
1.0051571
1.0072832
1.0099895
1.0123051
1.0133996
1.0125029
1.0103431
1.0079893
1.005776
1.0039927
1.0028473
1.0025378
1.0034316
1.005305
1.0071571
1.0079432
1.007839
1.0080164
1.009221
1.0108726
1.01159
0.9996563
1.0015672
1.0042467
1.0078016
1.0117135
1.0150382
1.0163261
1.0148604
1.0115918
1.0080157
1.0051961
1.0032024
1.0018167
1.0012795
1.00225
1.0048587
1.0081475
1.0107796
1.0120545
1.0119676
1.0114279
1.0109266
1.0093695
0.99547066
0.9994123
1.0049215
1.0108859
1.015555
1.0177968
1.0177307
1.0160128
1.0130766
1.0094705
1.0056452
1.0023707
1.0004001
1.0002568
1.0024282
1.0068131
1.0121084
1.0157027
1.0160261
1.0134008
1.0092772
1.004873
1.0010113
0.99877589
1.0020127
1.0076638
1.013753
1.0175159
1.0183881
1.0169666
1.0144446
1.0111744
1.0068526
1.002351
0.99920084
0.99833343
1.0002029
1.0048091
1.0111532
1.0174804
1.0208535
1.0184991
1.0112664
1.0025996
0.9971014
0.99680549
1.0090754
1.0082828
1.0088911
1.0108414
1.0132284
1.0145969
1.0143147
1.0119894
1.007872
1.0036474
1.0005941
0.99869314
0.99924777
1.0030313
1.0091103
1.0155818
1.0203938
1.0215308
1.0168851
1.0073031
0.99861012
0.99635047
1.0013065
1.0175036
1.0136156
1.0090313
1.0058557
1.0054123
1.0070966
1.0088346
1.0092383
1.0077099
1.0051043
1.0035413
1.0045871
1.0077501
1.0115663
1.0150654
1.0162824
1.0139346
1.0092417
1.0054085
1.0042765
1.0049871
1.0062886
1.0074548
1.0168469
1.0162063
1.0131619
1.0081452
1.0024743
0.99871684
0.99912327
1.0024704
1.0073452
1.0119902
1.0154697
1.0174141
1.0184438
1.0162605
1.0104254
1.0038606
1.0003976
1.0011795
1.0052417
1.0096302
1.0112492
1.010299
1.0091719
1.0130903
1.0133143
1.0125291
1.0094422
1.0043968
0.99925951
0.99732673
1.0003549
1.007684
1.0166552
1.0225114
1.0220832
1.0161509
1.0081573
1.0026099
1.0002001
1.0003761
1.0034568
1.008819
1.0147962
1.017727
1.0157364
1.0103474
1.0043605
1.0062911
1.0066732
1.0071383
1.0084106
1.0105426
1.0110201
1.0102216
1.0098874
1.0104832
1.0114106
1.0113518
1.0093482
1.006812
1.0056596
1.0069139
1.0082404
1.0070342
1.0072792
1.0126325
1.0188682
1.0207971
1.014911
0.99363377
0.99925802
1.0072833
1.0146553
1.0189625
1.0198071
1.0180694
1.013632
1.0067654
1.0010267
1.000633
1.0047991
1.0108454
1.0148163
1.0143942
1.0107901
1.0074435
1.0064668
1.0074732
1.0106901
1.0141478
1.0157935
1.0140093
1.0054004
1.0046175
1.0080582
1.0135082
1.0170918
1.0165838
1.0122769
1.0074044
1.0048914
1.0045741
1.0047121
1.0055235
1.0073154
1.0097554
1.0124739
1.0155284
1.0155529
1.0123385
1.0078204
1.0034054
1.0025782
1.0082326
1.0169545
1.0204725
1.0152911
1.0077023
1.0006886
0.99867013
1.0023248
1.0082422
1.0118564
1.011267
1.0079419
1.0044008
1.0031298
1.0049904
1.0097324
1.015349
1.0180284
1.0154283
1.010306
1.0069212
1.0061995
1.006917
1.0101969
1.0132878
1.0097167
1.0115682
1.0094055
1.0030066
0.99667203
0.9959297
1.0007321
1.0073489
1.0123871
1.0145065
1.0143947
1.0110742
1.0056575
1.0020966
1.0057798
1.013051
1.0163523
1.0146707
1.0118186
1.0089415
1.0077252
1.0075553
1.0097344
0.9973061
1.0022456
1.0085739
1.0109818
1.0071393
1.0004235
0.99771454
1.0011525
1.0087848
1.0151717
1.0174692
1.0153
1.0094637
1.0020766
0.99855045
1.0016813
1.0079618
1.0135805
1.0186688
1.0197563
1.0175187
1.0148219
1.0130576
0.99858444
0.99735404
1.0003932
1.0072795
1.012922
1.0127434
1.0077776
1.0032104
1.0022268
1.0044786
1.007568
1.0099795
1.0114165
1.0108577
1.008633
1.0051846
1.0015612
1.0004905
1.0033212
1.0090684
1.0137155
1.0157464
1.016511
1.0052413
1.0017116
0.99903433
1.0003243
1.0066171
1.0136395
1.0164955
1.0125641
1.0044702
0.99673078
0.99394185
0.99679543
1.0032737
1.0095427
1.0130824
1.0134455
1.0111575
1.0072004
1.0048412
1.0055669
1.0066025
1.0066596
1.006486
1.0041739
1.0053898
1.0058548
1.0047527
1.0017351
0.99939231
1.0004051
1.0044971
1.0074554
1.0065699
1.0022713
0.99806818
0.99704734
0.99845481
1.0007292
1.0046093
1.0084102
1.011744
1.0126002
1.0110538
1.0087561
1.005716
1.0026658
1.005418
1.0032311
1.0012991
1.0009724
1.0008375
0.99884653
0.99548903
0.99453785
0.99831277
1.0047599
1.0093547
1.0091636
1.005469
1.0013228
0.99834223
0.99747307
0.99837695
1.0020504
1.0042613
1.0036184
1.0035565
1.0053735
1.0057858
0.99916342
1.0001462
0.99908998
0.99806131
0.99897564
1.0007436
1.0008051
0.99828829
0.99559044
0.99554709
0.99893177
1.0032491
1.005949
1.0066077
1.0059672
1.0033039
1.0005807
0.99885071
0.9974426
0.99547242
0.99541547
0.99863813
1.0029296
0.99791889
0.99800152
0.99825925
0.99773806
0.9978102
0.99946358
1.001866
1.0024846
1.0008055
0.99818133
0.99648102
0.99645334
0.99848763
1.0000868
1.0002334
0.99971877
0.99891305
0.99761808
0.99767093
0.99853984
0.99897669
0.99986711
1.0011045
0.99862278
0.99842775
0.99758714
0.99627028
0.99537069
0.99573961
0.998263
1.0013609
1.0035316
1.0036863
1.0014586
0.99920543
0.99737464
0.99505509
0.99226671
0.99054172
0.99098582
0.99257743
0.99574542
1.0000939
1.0028842
1.0020143
0.99863617
0.99497022
0.99612926
0.99780719
0.99935103
1.0000207
0.99971987
0.99931249
0.99907166
0.99917353
0.99802086
0.99562384
0.99325194
0.99187384
0.9913745
0.99152486
0.99189202
0.99325438
0.99532739
0.99625412
0.9967579
0.99667274
0.99421941
0.99076264
0.99853301
0.99760869
0.9979664
0.99831478
0.99770802
0.99711013
0.99565388
0.9935356
0.99265693
0.99213653
0.9917411
0.99134384
0.99150169
0.99318739
0.99615365
0.99815634
0.99933653
0.99843738
0.99574044
0.99177709
0.98809075
0.98609641
0.98596295
0.99700022
0.99643878
0.99691416
0.99600284
0.99452226
0.99464187
0.99341629
0.99181278
0.99222456
0.99281349
0.99477278
0.99669703
0.99693486
0.99719503
0.99669084
0.99580104
0.99409774
0.99111809
0.9878508
0.98514133
0.98392138
0.9850019
0.98799569
0.99368971
0.99387492
0.99507055
0.99522568
0.99579882
0.99765716
0.99770922
0.99754722
0.99784379
0.99656995
0.99718453
0.99725883
0.99557299
0.99325021
0.98901983
0.98565433
0.98376398
0.98306998
0.98364537
0.98513754
0.9877436
0.99038962
0.99201862
0.99865783
0.99799334
0.99682206
0.99557612
0.99599873
0.99574989
0.99522706
0.99563839
0.99456627
0.99287301
0.99226276
0.99108709
0.9911915
0.99103424
0.98950959
0.98836636
0.98793466
0.98834697
0.99007914
0.99162668
0.99260659
0.99188823
0.98887894
0.99676876
0.99723917
0.99528144
0.9948241
0.99559284
0.99440395
0.99506011
0.99590367
0.99447011
0.9944233
0.99360385
0.99185619
0.99238475
0.99206014
0.9927254
0.99305821
0.99218382
0.99101617
0.98988187
0.98846737
0.98699202
0.98459507
0.9806618
0.99647918
0.99663428
0.99583857
0.99644649
0.99636457
0.99509716
0.99627943
0.99639005
0.99544579
0.99665654
0.99538745
0.99430764
0.99394061
0.99128214
0.99149836
0.99092481
0.98969405
0.98803104
0.98517233
0.98335646
0.98172866
0.98162494
0.98114967
0.99720996
0.99691416
0.99774663
0.99856052
0.99667035
0.99563586
0.99589413
0.99429159
0.99383242
0.99442428
0.99319193
0.99371265
0.99298916
0.99067963
0.99092562
0.98996806
0.98972345
0.98972916
0.98832352
0.98758531
0.98582367
0.98493557
0.98502359
0.99683783
0.99558904
0.99704775
0.99755965
0.99594802
0.9973027
0.99815593
0.99629816
0.99649844
0.99582881
0.99524257
0.99704683
0.99528592
0.9938686
0.9930122
0.99151703
0.99145793
0.99036463
0.98981861
0.98932848
0.98810965
0.98592592
0.9846325
0.9999059
0.99845181
0.99877926
0.99803703
0.99719543
0.99916192
0.99850638
0.99625832
0.99645258
0.99487498
0.9946045
0.99577912
0.99406127
0.99495087
0.99334266
0.9922143
0.99267988
0.99061609
0.98999099
0.98887272
0.98808945
0.98639853
0.98446549
0.9990062
0.99872609
0.99863219
0.99717886
0.99775384
0.99927322
0.99755183
0.99653018
0.99731916
0.9964803
0.99665931
0.99555364
0.99408436
0.99613952
0.99459956
0.99383965
0.99320408
0.99128551
0.99174565
0.99011435
0.98934248
0.9883612
0.98711653
0.99884847
1.0001413
0.99989986
0.99807565
0.99841143
0.99872423
0.99760294
0.99867778
0.99898272
0.9977557
0.99878035
0.99724565
0.99615561
0.99729379
0.99564422
0.99588981
0.99384081
0.99224388
0.99292742
0.99170623
0.9921026
0.99034804
0.99002754
1.0002069
1.0012186
1.0003901
0.99942957
1.0000252
0.99945194
0.99872603
0.99963231
0.99908532
0.99828928
0.99917142
0.99779853
0.99686129
0.9968949
0.99521922
0.99606539
0.99505007
0.99417244
0.99474717
0.99367274
0.99423763
0.99190763
0.99051611
1.0006768
1.0006033
0.99965946
1.0006282
1.0014312
1.0001935
1.0000278
0.99955989
0.99870584
0.99943401
0.99902319
0.99809224
0.99778639
0.9964683
0.99655176
0.99768794
0.99642623
0.99623132
0.99596319
0.99521839
0.99452341
0.99253602
0.99037282
1.002222
1.0013721
0.99956532
1.0008088
1.0022195
1.0011346
1.0008231
1.0001069
0.99873596
1.000028
0.99982512
0.99959532
0.99981205
0.99857056
0.99941013
0.99944121
0.99769915
0.99805043
0.99668852
0.99592634
0.99415202
0.99403277
0.99462156
1.0042681
1.0026118
1.0005387
1.0009815
1.0021952
1.0016849
1.001401
1.0008621
1.0000937
1.0010099
1.000694
1.0007667
1.0005357
0.99897065
1.000015
0.99893645
0.99775841
0.99802187
0.99664955
0.997732
0.99603205
0.99634387
0.99651185
1.0030693
1.0019881
1.0012549
1.001739
1.0022541
1.0019106
1.0023877
1.0024916
1.0012474
1.0014973
1.0011626
1.0014028
1.0012849
0.9982733
0.99968434
1.0008033
0.9993324
0.99895364
0.99814353
1.0000401
0.99889917
0.99886314
0.99764152
1.0033496
1.0020977
1.002167
1.0027487
1.0034165
1.0028302
1.0019522
1.0024534
1.0015746
1.0016551
1.002341
1.0008417
1.0012618
1.0007207
1.0007504
1.0024903
0.99942992
1.0004968
0.99929152
0.99965828
0.99982881
0.99866776
0.9980273
1.0037158
1.0028871
1.0024182
1.0029436
1.0026816
1.0031586
1.0031676
1.0021252
1.0018974
1.0016077
1.0032772
1.003161
1.0006884
1.0018346
1.0014873
1.0019238
1.0002988
1.0019384
1.0012672
1.0006074
1.000615
0.99907981
0.99876559
1.0040161
1.0035526
1.0030692
1.003335
1.0038635
1.003469
1.0034741
1.0024723
1.0026083
1.0030543
1.0028755
1.0043686
1.0017819
1.0013001
1.0029286
1.0020859
1.001895
1.0019565
1.0009588
1.0011024
1.0004241
1.0006368
0.99967509
1.004158
1.0047465
1.0043407
1.0037398
1.0035039
1.0036932
1.0038366
1.0033368
1.0029554
1.0039921
1.0031386
1.0029215
1.0030904
1.0021446
1.0041161
1.0024712
1.0017514
1.0024729
1.0020445
1.0021986
1.0000577
1.0015392
1.0016536
1.0040445
1.0051926
1.0053053
1.0039679
1.002958
1.0042265
1.0056558
1.0048101
1.0027625
1.0031623
1.0049661
1.0045105
1.0034688
1.0022294
1.0035402
1.004191
1.0024781
1.002286
1.0021818
1.0029799
1.0021119
1.0023965
1.0023867
1.0058319
1.0051323
1.0045269
1.0042699
1.0049508
1.0056431
1.0052738
1.0044554
1.0029316
1.0027145
1.0048988
1.0054265
1.0037461
1.0020745
1.0027934
1.0050513
1.003828
1.0020862
1.0020886
1.0033987
1.0034774
1.0019991
1.0016582
1.0051747
1.0053335
1.0056716
1.0057978
1.0047184
1.0043268
1.004977
1.0056309
1.0057078
1.0040051
1.0033955
1.0046111
1.0049539
1.0036331
1.0025021
1.0041597
1.0050898
1.0033523
1.002298
1.0032679
1.0034215
1.0024664
1.0018345
1.0069179
1.0057936
1.0048679
1.0049723
1.0059666
1.0064314
1.0060083
1.0047392
1.0051277
1.0060845
1.0045442
1.0038419
1.0055037
1.0053584
1.0033433
1.0035065
1.0053243
1.0040335
1.0023404
1.0034225
1.0047174
1.0034847
1.0014608
1.0053572
1.0062555
1.0072144
1.0065394
1.0052506
1.0055591
1.0064223
1.0059935
1.0052462
1.0058653
1.005021
1.004049
1.0054094
1.0060255
1.0049974
1.0034524
1.0043039
1.0051035
1.0034424
1.0031625
1.0041453
1.0044662
1.0022781
1.0065186
1.0057987
1.0063006
1.0066406
1.0061033
1.0054465
1.0057989
1.0063389
1.005198
1.0053108
1.0070049
1.0059006
1.0041198
1.0050334
1.0061494
1.0048563
1.0029778
1.0041984
1.0059168
1.0051973
1.0027456
1.0030784
1.0047399
1.0058821
1.0066879
1.0069227
1.0060536
1.005109
1.0062064
1.0076445
1.007114
1.00518
1.0043288
1.0058149
1.0068885
1.0058772
1.0046979
1.0045143
1.0052623
1.0061109
1.0055431
1.0033481
1.0031668
1.0047714
1.0050638
1.0033027
1.0060987
1.0057864
1.0064369
1.0073213
1.006049
1.0045129
1.0053697
1.0070646
1.0067124
1.0052832
1.0057212
1.0065272
1.0052459
1.004496
1.0057282
1.0058501
1.0041418
1.0048068
1.0061059
1.0045215
1.0026739
1.0039729
1.0060618
1.0061073
1.0050441
1.0052859
1.0063853
1.0068492
1.0055679
1.0047926
1.0060977
1.0070896
1.0054915
1.0044364
1.0061303
1.0069009
1.0050622
1.004098
1.0055048
1.0057355
1.0045374
1.0039253
1.0047217
1.0052702
1.0046643
1.0041177
1.0066903
1.0061394
1.0054329
1.0051363
1.0061722
1.0070033
1.0060621
1.0048349
1.0056358
1.0069909
1.0063509
1.0049142
1.0044236
1.0049271
1.0056534
1.0057384
1.0047837
1.0039608
1.0044707
1.0052522
1.0053118
1.0045485
1.0030887
1.0078862
1.0055689
1.0053207
1.0066776
1.0073513
1.0060206
1.0045826
1.0055632
1.0075175
1.0070212
1.0042265
1.0032172
1.0053948
1.0069715
1.0058275
1.003889
1.0035849
1.0049948
1.0066344
1.0055234
1.0023944
1.0032061
1.0068311
1.0073638
1.0059795
1.0038383
1.0053036
1.0085648
1.0086185
1.0051102
1.0030281
1.0052417
1.0074291
1.0059181
1.0039821
1.0053527
1.0068114
1.0048313
1.003412
1.0055201
1.0065362
1.0043548
1.0035962
1.0044736
1.0044061
1.0046745
1.0053145
1.0070911
1.006712
1.0049674
1.0049912
1.0066495
1.0067203
1.0047764
1.0041032
1.0058544
1.0068713
1.0052213
1.0039777
1.0054042
1.0065178
1.0048466
1.0034437
1.0044553
1.005115
1.0046991
1.0048986
1.0047146
1.0033216
1.0052084
1.0061909
1.0068294
1.0056208
1.0041373
1.0049384
1.0069124
1.0069392
1.0049427
1.0039731
1.0053731
1.0063357
1.0049541
1.0038407
1.0049782
1.005806
1.0043872
1.0035152
1.0047737
1.0056349
1.0045968
1.0031689
1.0028624
1.0053815
1.0053894
1.0060367
1.006185
1.0054142
1.0048797
1.0054079
1.0061373
1.0055398
1.0043246
1.0045601
1.005946
1.0058741
1.0040654
1.0035109
1.0052383
1.006367
1.0047898
1.0030407
1.0035649
1.0048857
1.004547
1.0031092
1.006077
1.0054408
1.0053377
1.0057761
1.0058658
1.005253
1.0047766
1.0051742
1.0058289
1.0055246
1.0045595
1.0043871
1.0052639
1.0056736
1.0047901
1.0040157
1.0044068
1.004867
1.0042568
1.003436
1.0036532
1.0042262
1.0040539
1.0060578
1.0059699
1.0057186
1.0053392
1.0051423
1.0053739
1.0056636
1.0055574
1.0052933
1.0051741
1.0050991
1.0048652
1.0045706
1.0047872
1.0051091
1.0046531
1.0039708
1.0039275
1.0041508
1.0041156
1.0038743
1.0038843
1.0038831
1.0061417
1.0063005
1.0063179
1.0055678
1.005009
1.005296
1.0055911
1.0056382
1.0057077
1.0054502
1.0050757
1.0051369
1.0048099
1.004376
1.004431
1.0046297
1.0047284
1.0046804
1.0042333
1.0037587
1.003443
1.0034808
1.0038584
1.0065459
1.0065272
1.0059578
1.0052491
1.0052567
1.0057933
1.0060235
1.0059993
1.0058586
1.0053319
1.0052926
1.0052273
1.0047198
1.0046738
1.0048894
1.0048921
1.0047077
1.0042948
1.003889
1.0040912
1.0042396
1.0036239
1.0030539
1.0062143
1.0066566
1.0066132
1.0061848
1.0059184
1.0059036
1.0057373
1.005616
1.0060014
1.0061178
1.005816
1.0053876
1.0049682
1.0048907
1.0044817
1.0046643
1.0053428
1.0050576
1.0042649
1.0035753
1.0031613
1.0037475
1.0042441
1.0071062
1.0071842
1.0063302
1.0055992
1.0058997
1.0064775
1.0063582
1.0061527
1.0061704
1.0057369
1.0057615
1.0060771
1.0053321
1.0047993
1.0044771
1.0051554
1.0054789
1.0047783
1.0040106
1.0040086
1.0043274
1.0043165
1.003248
1.0066167
1.0068071
1.0074253
1.0073541
1.0064144
1.0055621
1.0054028
1.0063459
1.0075397
1.0070304
1.0059461
1.0053474
1.0048819
1.005086
1.0054687
1.0051841
1.0051576
1.0052604
1.005032
1.0040321
1.0034999
1.0042545
1.0049064
1.0087495
1.0071128
1.0056079
1.0056211
1.006678
1.0074844
1.0074027
1.0064664
1.0057835
1.0061315
1.0065559
1.0071173
1.0060378
1.0044799
1.004938
1.0055628
1.0051505
1.0049872
1.0051014
1.0053612
1.0049509
1.0041439
1.0031562
1.0067114
1.007666
1.0078496
1.0073368
1.0064932
1.005745
1.0059161
1.0069338
1.0074966
1.0075975
1.0068062
1.0057467
1.0055306
1.0049676
1.0051622
1.0063304
1.0062573
1.0058524
1.004938
1.004351
1.0045939
1.0048193
1.0045363
1.0080516
1.0072906
1.0074265
1.0068171
1.0061213
1.0062268
1.0068478
1.0074381
1.0074245
1.006728
1.0065384
1.0066428
1.0062931
1.0058026
1.0056878
1.0057703
1.0058453
1.0057444
1.0053308
1.0045443
1.0047283
1.0056546
1.005825
1.009349
1.0073058
1.0061938
1.0059657
1.0059804
1.0062985
1.0073058
1.0080229
1.0075684
1.006653
1.0066351
1.0072236
1.0066756
1.005149
1.0050331
1.0064289
1.0063757
1.005548
1.005858
1.0060365
1.005342
1.0038299
1.0034703
1.0093418
1.0072635
1.0056496
1.0057646
1.0065018
1.0064237
1.006066
1.0068335
1.0083036
1.0086899
1.0073455
1.0057408
1.0053453
1.0055628
1.0057062
1.0063685
1.0069205
1.0059617
1.0049241
1.0049907
1.0054651
1.0053633
1.0046903
1.0082917
1.007741
1.0056729
1.0046684
1.0053759
1.0068722
1.0076383
1.007574
1.0073926
1.0072171
1.0068575
1.0061667
1.0054347
1.0050311
1.0054471
1.0059386
1.0069277
1.0077747
1.006269
1.0038604
1.0033301
1.0045675
1.0063477
1.0051179
1.0073605
1.0081301
1.0067193
1.0049305
1.0046428
1.0057081
1.0070355
1.0076083
1.0070445
1.0059455
1.0056329
1.0061223
1.0065541
1.0062923
1.0057676
1.0049391
1.0055718
1.0060269
1.0046122
1.0037365
1.0049118
1.0063799
1.0036966
1.0053754
1.0076332
1.0079004
1.0065737
1.0056675
1.0058019
1.005589
1.0048955
1.0048241
1.0051919
1.006292
1.0074408
1.0073549
1.0061271
1.0052066
1.0042279
1.00327
1.0045234
1.0057439
1.0060252
1.0058802
1.0049206
1.0053652
1.0052124
1.0061993
1.006041
1.0049682
1.0047218
1.0057976
1.0062217
1.005112
1.0043481
1.0048137
1.0058951
1.0063508
1.0057649
1.0052835
1.0052797