/*--------------------------------*- C++ -*----------------------------------*\
| =========                 |                                                 |
| \\      /  F ield         | OpenFOAM: The Open Source CFD Toolbox           |
|  \\    /   O peration     | Version:  2406                                  |
|   \\  /    A nd           | Website:  www.openfoam.com                      |
|    \\/     M anipulation  |                                                 |
\*---------------------------------------------------------------------------*/
FoamFile
{
    version     2.0;
    format      ascii;
    arch        "LSB;label=32;scalar=64";
    class       surfaceScalarField;
    location    "45";
    object      phi_0;
}
// * * * * * * * * * * * * * * * * * * * * * * * * * * * * * * * * * * * * * //

dimensions      [1 0 -1 0 0 0 0];

oriented        oriented;

internalField   nonuniform List<scalar> 
40800
(
0.0008242399
0.0010195535
-0.00092870601
0.00087738203
0.0011064238
-0.0013460319
0.0009423403
0.0011001022
-0.00089795759
0.00098895099
0.00099237159
-0.0010647116
0.0010410854
0.00088093031
-0.00088271076
0.001095848
0.00088817748
-0.00086955899
0.0011357749
0.00084666264
-0.00094276358
0.0011819832
0.0007877259
-0.00077703573
0.0012228932
0.00075044959
-0.00079198305
0.0012581891
0.00075599893
-0.00081153416
0.001294488
0.00071710796
-0.00071953703
0.0013305331
0.00067787498
-0.00071412435
0.0013639608
0.00068539452
-0.0007698044
0.0013901424
0.00069129734
-0.00074051144
0.0014362819
0.00065498457
-0.00064211537
0.0014802825
0.00072323852
-0.0007650617
0.0014922996
0.00068698452
-0.00076563695
0.0015622772
0.00070315713
-0.00072341017
0.0016100527
0.00084554568
-0.00088916416
0.0016029998
0.00072403326
-0.00079311924
0.0016985596
0.00079430712
-0.00079630242
0.00177062
0.00098989134
-0.0010091578
0.0017742043
0.00094949223
-0.0010237497
0.0018295403
0.00095359923
-0.00098582836
0.0019886317
0.0011257441
-0.0011515861
0.0020423263
0.0012753611
-0.0013511472
0.0020680014
0.0013086439
-0.0014293572
0.002191449
0.0012651301
-0.0014172005
0.0022754197
0.0013241672
-0.0014703775
0.0023670518
0.0015006374
-0.0016027344
0.0016344355
0.0025998636
-0.0016807377
0.00082346927
0.0011069291
0.00088595944
0.00084054939
0.00095032626
0.0012844997
0.00099409991
0.00090207702
0.0010458021
0.00089131424
0.0010956366
0.00089813794
0.0011340084
0.00074530768
0.0011803934
0.00078654371
0.0012197166
0.00072024153
0.0012537079
0.00068780684
0.0012899436
0.00070418671
0.0013243582
0.00066122012
0.0013562791
0.00062514571
0.0013814219
0.00062541289
0.0014334534
0.00066277285
0.0014661143
0.00067348356
0.0014809261
0.00061255017
0.0015647844
0.00068602226
0.0015828285
0.00078803977
0.0016011029
0.00069653227
0.0017164396
0.00080630663
0.0017511515
0.00094870675
0.0017618706
0.00089623512
0.001838878
0.00093835976
0.0019917616
0.0010794915
0.0020300946
0.0011493401
0.0020184778
0.0011717812
0.00215478
0.0011808799
0.002290183
0.0012159208
0.0023349032
0.0013290621
0.0015279391
0.0024810875
0.00081825661
0.0011285342
0.00089159558
0.00062546796
0.0009539802
0.001322264
0.0010009278
0.00083819365
0.0010536356
0.00087742082
0.0010963696
0.00085649958
0.0011355137
0.00066765474
0.0011793827
0.00075743018
0.0012161331
0.00068678861
0.0012505591
0.00062830696
0.0012854125
0.00066087282
0.001318545
0.00063629032
0.0013490706
0.00061040418
0.0013750145
0.0005682961
0.001424779
0.00063443455
0.0014497221
0.00062350479
0.0014750012
0.00057896751
0.0015626987
0.0006856927
0.0015611158
0.0007153953
0.001605509
0.00068129538
0.0017256903
0.00083900101
0.001731111
0.00089072772
0.0017580999
0.00084134565
0.0018446285
0.00093843907
0.0019701619
0.001041383
0.0020045849
0.0010033778
0.0019888853
0.0010206137
0.0021216238
0.0011190511
0.002296536
0.001205838
0.0023511902
0.0012240088
0.0013594517
0.0024040676
0.00080944292
0.001052538
0.00089252957
0.00052048753
0.00095057798
0.0011639106
0.0010029868
0.00081523251
0.0010558814
0.00082096638
0.0010950992
0.00075404451
0.0011387458
0.00063164791
0.001178156
0.00069026017
0.0012129464
0.00064145339
0.0012482275
0.00059047843
0.0012801659
0.00059410091
0.0013136173
0.00059459643
0.0013416144
0.00060201425
0.0013706544
0.00053460799
0.0014140797
0.00058278145
0.0014364395
0.00057575452
0.0014746729
0.00056472939
0.0015525924
0.00068401828
0.001541897
0.00062640491
0.0016095484
0.00062226162
0.0017150963
0.00080117819
0.0017032082
0.0007733238
0.0017579002
0.0007340115
0.0018457096
0.00090786748
0.0019270167
0.00099343236
0.0019756637
0.00089820014
0.0019836799
0.00090025132
0.0021067871
0.0010364856
0.0022773302
0.0011776618
0.0023690785
0.0011738372
0.0012464358
0.0023682856
0.00080170985
0.00087258869
0.00089081394
0.00053994186
0.00094417548
0.00087410601
0.0010022522
0.00078067959
0.0010526676
0.0007322856
0.0010924167
0.00062167234
0.0011403866
0.00063123825
0.0011761253
0.00060043556
0.0012116062
0.00058722876
0.0012470082
0.00057248408
0.0012760578
0.00053215561
0.0013098814
0.000536936
0.0013338916
0.00056086766
0.0013661338
0.00052158239
0.0014040531
0.0005424315
0.0014264424
0.00052835225
0.0014753754
0.00054600284
0.0015330417
0.00065324222
0.001523561
0.00054892408
0.0016108387
0.00059157982
0.0016870598
0.00075422288
0.0016669114
0.00066365219
0.0017582459
0.00063730298
0.0018337819
0.0008110632
0.0018718427
0.00089112858
0.0019453475
0.00084088341
0.0019903663
0.0008537604
0.0021005808
0.00099126503
0.0022272749
0.001083381
0.0023434641
0.0010563757
0.0010878471
0.0023606329
0.00079821837
0.00062188903
0.00088766269
0.00064434382
0.00093692761
0.00058002925
0.00099670769
0.00071321782
0.0010443115
0.00062617073
0.0010886699
0.00050911959
0.0011374987
0.00063243004
0.0011719858
0.0005330697
0.0012095078
0.00053334137
0.0012444158
0.00055598491
0.0012727361
0.00048929637
0.0013062347
0.00049427315
0.0013271727
0.00049759946
0.0013621227
0.00050564061
0.0013965156
0.00052663206
0.0014190049
0.00049334732
0.0014733221
0.00051397679
0.0015085139
0.00058680783
0.001513004
0.00048688327
0.0016124353
0.00057446498
0.0016526098
0.00067464626
0.0016358835
0.00058437324
0.0017588667
0.00061042561
0.0018218334
0.00073765589
0.0018310404
0.00079131052
0.0019206935
0.0007999961
0.0020072231
0.00082922245
0.0020914809
0.0009981043
0.0021648864
0.0010329087
0.0022700869
0.0009606588
0.00090159387
0.0023540124
0.00080111911
0.00037768719
0.00088364889
0.00076127838
0.00092880767
0.00040980195
0.00098569488
0.00064697157
0.0010312379
0.00052446435
0.0010822813
0.00046382533
0.0011285761
0.00061106402
0.0011652046
0.00049940831
0.0012051891
0.00049603478
0.0012378882
0.00052373515
0.0012679966
0.00046725347
0.0013001844
0.00048855475
0.0013212484
0.00043885314
0.001358226
0.00048646687
0.0013885231
0.00051091787
0.0014113288
0.00046388824
0.0014667041
0.00047479836
0.0014834754
0.00050323371
0.0015076551
0.00042209352
0.0016064553
0.00055980842
0.0016234941
0.00059722561
0.0016227128
0.00054168781
0.0017597561
0.00062976067
0.0018123304
0.0007105805
0.0018077037
0.00070063287
0.0018961952
0.00074617372
0.0020317207
0.00077503832
0.0020818648
0.00091084554
0.0021149959
0.00097503085
0.0021835927
0.00094451196
0.00086408912
0.0023031047
0.000813198
0.00021800969
0.00088422757
0.00080935122
0.00092705576
0.00042257514
0.00097506446
0.00058431732
0.0010189188
0.00045681973
0.0010735118
0.00048843175
0.0011159453
0.00054909435
0.0011557878
0.00047830372
0.0011969165
0.0004778032
0.0012274825
0.00046800972
0.0012618822
0.00044959457
0.0012903603
0.00047986348
0.0013152362
0.00041663868
0.0013510389
0.00046019483
0.0013758415
0.00046510411
0.0014002596
0.00042169423
0.0014554554
0.0004463161
0.0014605206
0.00044557798
0.0015084948
0.00039724435
0.0015938036
0.00054592327
0.0016007268
0.00052490769
0.0016185432
0.00048104556
0.0017520443
0.00062686076
0.0017889394
0.00065478572
0.0017935869
0.00061189819
0.0018684163
0.00071394001
0.0020312049
0.00076407296
0.0020681657
0.00073911663
0.0020862848
0.00079599376
0.0021293236
0.00085533896
0.0008970471
0.002249015
0.00084198697
0.00017715397
0.00089169248
0.00074105118
0.00093528233
0.00057473568
0.00097571842
0.00051649724
0.0010194428
0.00043614546
0.001069632
0.00054511181
0.0011050973
0.00045411793
0.00114603
0.00045245076
0.0011837921
0.00045847035
0.0012123908
0.00040846567
0.0012497429
0.00041944789
0.0012749843
0.00044056049
0.0013048011
0.00041427912
0.0013370122
0.00043153879
0.0013579379
0.00040441376
0.0013866779
0.0003769723
0.001440923
0.00041891703
0.0014427526
0.00040652858
0.0015114094
0.00041672871
0.0015724515
0.0005296042
0.0015758571
0.00044489566
0.0016209402
0.00045333308
0.0017310615
0.00062941812
0.0017543593
0.00058717659
0.0017905322
0.00053031541
0.0018487811
0.00064087697
0.001979148
0.00075815799
0.0020323757
0.00064777372
0.0020566726
0.00061145595
0.0020965989
0.0006816227
0.00080433786
0.0022110765
0.0009028234
0.00025998223
0.00091177389
0.00057282757
0.00095224973
0.00073223039
0.00098682352
0.00048009785
0.0010299773
0.00044724659
0.0010706211
0.00057216624
0.001100713
0.00037317657
0.0011380534
0.0004152224
0.0011683611
0.00042407991
0.0011953356
0.00036071862
0.0012311422
0.00039859112
0.0012538446
0.00037603782
0.0012857073
0.00039564746
0.0013137206
0.00039524337
0.0013339709
0.00033872828
0.0013686938
0.00032936224
0.0014211782
0.00038885643
0.0014275302
0.00035803337
0.0015076282
0.0004278184
0.0015425734
0.00050697997
0.0015573509
0.00040038418
0.0016306679
0.000445457
0.001700517
0.00060325866
0.0017164754
0.0005328611
0.0017805634
0.00048176581
0.0018427428
0.00053395507
0.0019116125
0.00067050377
0.0019782885
0.00063251879
0.0020328577
0.00056100622
0.0020813328
0.00060019258
0.00072725225
0.0021666872
0.00097391394
0.00042122587
0.00095361439
0.00036527954
0.00098469233
0.00078966222
0.0010160067
0.00047793584
0.0010533709
0.00046521254
0.0010773896
0.00052285484
0.0011047724
0.00033240831
0.0011376084
0.00037336168
0.0011621203
0.00037068449
0.0011893793
0.00033023985
0.0012192373
0.00037953285
0.0012410681
0.00031454525
0.0012708388
0.00035510839
0.0012924551
0.0003497194
0.0013131665
0.00029776906
0.00135221
0.0003089199
0.0013958088
0.00036274892
0.0014101161
0.00029821733
0.0014924516
0.00039323324
0.001506262
0.00043247019
0.0015382641
0.00035884592
0.0016301953
0.0003907449
0.001666292
0.00052620288
0.0016850996
0.00048448059
0.0017643569
0.00047133798
0.0018412279
0.00051801901
0.0018659819
0.00055993305
0.0019218117
0.00057102265
0.0020104128
0.00052932477
0.0020816493
0.00054940126
0.00067223396
0.0021460779
0.00099137014
0.00054569974
0.00099330104
0.00018150799
0.001019613
0.00070849203
0.0010521962
0.00046187449
0.0010839451
0.00046565876
0.0010951395
0.00040058447
0.0011197538
0.00033420445
0.0011440213
0.00034673213
0.0011636807
0.0003104934
0.0011928606
0.00031460794
0.0012156693
0.00033832149
0.0012396065
0.00027886457
0.0012656851
0.00031063948
0.0012836434
0.00031237746
0.0013075274
0.00028592405
0.0013470772
0.00030850362
0.0013753659
0.00032646475
0.0013974894
0.00024009415
0.0014697216
0.00033537583
0.0014700146
0.00031739898
0.0015108159
0.00030440157
0.0016173862
0.00034887045
0.0016295561
0.00042250353
0.0016530146
0.00040738551
0.0017475517
0.00041264901
0.0018243008
0.00049816569
0.0018374727
0.0004968365
0.0018722738
0.00049436298
0.0019755095
0.00048456271
0.0020777098
0.0004811081
0.00054727874
0.0021466627
0.00096291481
0.00054078828
0.0010025481
9.1353443e-05
0.0010300021
0.00051941124
0.001069746
0.0004189501
0.0011032214
0.00042204963
0.0011192746
0.00025756087
0.0011475856
0.00035972057
0.0011651315
0.00033417312
0.0011827136
0.00026876489
0.0012112298
0.00029904877
0.0012286794
0.0002887747
0.001254459
0.00027629877
0.0012764502
0.00028470918
0.0012902814
0.00029248822
0.0013140637
0.00029162161
0.0013480122
0.0003017026
0.001360596
0.00028070168
0.0013941968
0.00020430299
0.0014487011
0.00029587275
0.0014488548
0.00023194056
0.0014921488
0.00027431689
0.0015969176
0.00034432664
0.0015931008
0.00031630352
0.0016140763
0.00031293944
0.00172629
0.00037241252
0.0017912549
0.00041645886
0.001807955
0.00042864331
0.0018364061
0.00044791054
0.0019341208
0.00049423546
0.0020461954
0.00048051919
0.00045909503
0.0021236441
0.00090813097
0.00038963579
0.0009836069
0.00011305532
0.0010205362
0.00032524558
0.0010664093
0.00036914022
0.0011001242
0.00033396624
0.0011311023
0.00016507624
0.0011690703
0.00035604059
0.0011928393
0.00031093389
0.0012180241
0.0002454339
0.001246715
0.0002713785
0.0012644344
0.00023625065
0.0012915719
0.00027815554
0.0013115871
0.00027341995
0.0013219001
0.00028258552
0.0013401207
0.00029016992
0.0013622575
0.00027207643
0.0013611084
0.00023691896
0.001406281
0.00020847732
0.0014380437
0.00029484954
0.0014479448
0.00019381289
0.0014874718
0.00027120398
0.0015719104
0.00033170917
0.0015683794
0.00026199312
0.0015936256
0.00025277328
0.0016952735
0.00037293008
0.0017535481
0.00035110486
0.0017757792
0.00032757279
0.0018151392
0.00036875691
0.001895308
0.00048016286
0.0019913039
0.00050203207
0.0004516777
0.0020682609
0.00087821746
0.00014285491
0.0009562129
0.00024855562
0.00099703882
0.00026393624
0.001046736
0.00030970306
0.0010833038
0.00022708221
0.0011305072
0.00015628639
0.0011715343
0.00030737084
0.0012043632
0.00025826146
0.0012416349
0.000241879
0.0012740561
0.0002315589
0.0012997325
0.00018484015
0.0013300876
0.00024784866
0.0013524598
0.00025929801
0.0013618462
0.00027305183
0.0013745187
0.00027398309
0.0013891696
0.00021855128
0.0013812113
0.000203875
0.0014327307
0.00022821934
0.0014382724
0.00028501747
0.0014641113
0.00017914472
0.0014934855
0.00026078167
0.0015521048
0.00030058312
0.0015551328
0.00022093198
0.0015969537
0.00023010922
0.0016620387
0.00034099007
0.0017116928
0.00033581099
0.0017422656
0.00025042043
0.0018031563
0.0002723223
0.001861616
0.00038371706
0.0019279688
0.00044160395
0.00043032805
0.0019926339
0.00088438746
-0.00011943813
0.00095122767
0.00040114547
0.00098300363
0.00032302928
0.0010263319
0.00023306388
0.0010632576
0.000141195
0.0011181136
0.00022587141
0.001158622
0.00022158663
0.0011984059
0.00018455725
0.0012393264
0.00023246741
0.0012723781
0.0001856724
0.001304477
0.00016614098
0.0013359805
0.00020456537
0.0013619904
0.00022559532
0.0013750099
0.00024919039
0.0013864216
0.00024022832
0.0014065587
0.00017903021
0.0014039963
0.000175383
0.001457615
0.00023956302
0.0014402953
0.0002432615
0.0014823506
0.00016402392
0.0015020166
0.00022374686
0.0015380303
0.00027575458
0.0015527424
0.00018602408
0.0016095253
0.00022516436
0.0016493073
0.00029725452
0.0016728918
0.00032197275
0.0017140486
0.00022841618
0.0017910818
0.00022240556
0.0018328531
0.00027789798
0.0018787427
0.00033171807
0.0003616819
0.0019151063
0.00090130636
-0.00026017012
0.00095690891
0.00044960856
0.00098194596
0.00041246879
0.0010195721
0.00017840634
0.0010557059
0.00010176286
0.0011029676
0.00031555825
0.0011370494
0.00012650301
0.0011803616
0.00011324344
0.0012207332
0.0001943548
0.0012572029
0.00014034634
0.0012917702
0.00016628792
0.0013234048
0.00017050751
0.0013467962
0.00017749786
0.0013594576
0.00021773375
0.0013688597
0.00020030115
0.0013977083
0.00016087069
0.0014072165
0.00014535669
0.0014624857
0.00022984241
0.0014383732
0.00018089386
0.001496986
0.00014521264
0.0015200224
0.00016919909
0.0015347243
0.00022563098
0.0015658945
0.00018701397
0.0016245821
0.00021735994
0.0016568323
0.00027134645
0.0016512358
0.0002591645
0.0017055416
0.00021442557
0.0017893307
0.00020686295
0.0018234813
0.0002044099
0.0018594433
0.00023646407
0.00027149265
0.0018699201
0.00095831362
-0.00024267529
0.00097935709
0.00034753144
0.00099505702
0.00045511423
0.0010288847
0.00015722012
0.00106631
0.00010298267
0.0010982972
0.00031264087
0.0011254995
7.1511026e-05
0.0011624824
7.3739166e-05
0.0011912952
0.00013995224
0.0012259087
0.00010246388
0.0012583619
0.00014797569
0.0012871706
0.00013478372
0.0013201971
0.00012104749
0.0013345986
0.0001931641
0.0013473319
0.00016046136
0.001377913
0.00015638328
0.0013956983
0.00013089845
0.0014412187
0.00019100304
0.0014217074
0.00010790821
0.0014887885
0.00014039306
0.001520803
0.000129185
0.0015296306
0.00013135726
0.0015777429
0.00017302745
0.0016456478
0.00018343789
0.0016675901
0.00022796145
0.0016511797
0.00017543053
0.0017071429
0.00019389868
0.0017857448
0.00019886044
0.001828305
0.00017521459
0.0018626505
0.00018103104
0.00018611184
0.0018602489
0.0010133293
-9.5941956e-05
0.0010077596
0.00013005472
0.0010175354
0.00039240813
0.0010512007
0.00013491764
0.001085077
0.00012797778
0.0011009038
0.0002000988
0.0011263627
6.5475325e-05
0.001154406
7.2234791e-05
0.0011713947
8.432012e-05
0.0012016767
6.7576916e-05
0.001224785
0.0001177474
0.0012555655
9.8286118e-05
0.0012765155
9.6765558e-05
0.0012883798
0.00019878709
0.0013090862
0.00012507675
0.0013434092
0.00014760206
0.0013703638
0.00011272217
0.0014075754
0.00013724463
0.0014070099
4.9503504e-05
0.0014721458
0.00015079427
0.001505887
0.00011404796
0.0015208064
6.0908539e-05
0.0015619681
0.00012171769
0.0016393139
0.00015804818
0.0016509586
0.00015440132
0.0016572223
9.8461259e-05
0.0017119614
0.0001571543
0.0017820332
0.00018640794
0.0018375991
0.00017570868
0.0018694765
0.00016326443
0.00012629386
0.0018649315
0.0010139552
4.7657485e-05
0.0010350375
-0.00011923763
0.0010403433
0.00026581437
0.0010755027
9.7620009e-05
0.0011052413
0.00014745071
0.0011131941
4.2431996e-05
0.0011386441
9.7279423e-05
0.0011599331
9.3391179e-05
0.0011686369
5.5982765e-05
0.0011964623
2.1107757e-05
0.001214186
6.8545839e-05
0.0012359556
6.968764e-05
0.001281695
5.4148298e-05
0.0012768142
0.00024013146
0.0012948545
0.00010641075
0.0013169378
0.0001281738
0.0013461232
9.0919154e-05
0.0013718196
0.00010916857
0.0013951235
2.1176428e-05
0.0014422346
0.00014965001
0.0014717341
8.7766035e-05
0.0015052185
2.309704e-05
0.0015501643
5.9210604e-05
0.0016296733
0.00013960779
0.0016233814
0.00010318234
0.0016455149
5.9201484e-05
0.0016865325
9.5987253e-05
0.001749578
0.00014509256
0.0018169399
0.0001578139
0.0018459159
0.00011905468
7.3355145e-05
0.0018526282
0.0010495969
0.00011179771
0.0010547449
-0.0002452047
0.0010615552
0.00016132196
0.0010996664
4.9874065e-05
0.0011233133
0.00014165528
0.0011350874
-8.3827203e-05
0.0011633111
0.0001160398
0.0011807718
0.00010501991
0.0011887739
5.3520344e-05
0.0012162448
-2.0388181e-05
0.0012305846
1.9800195e-05
0.0012633233
2.3911402e-05
0.0012748513
3.2181008e-05
0.0012711261
0.00026006693
0.0013033822
8.4939554e-05
0.0013163514
8.6034161e-05
0.0013511538
6.1880251e-05
0.0013644715
8.6582219e-05
0.0014079423
1.5540286e-07
0.0014343795
0.00010999311
0.0014644379
4.5555205e-05
0.0015019235
-7.4372482e-06
0.0015466954
1.0581577e-05
0.0015859178
0.00011760398
0.0015925287
8.860618e-05
0.0016432814
4.995752e-05
0.0016917665
3.5003839e-05
0.0017357604
9.6325356e-05
0.0017886797
0.00013604532
0.0018049339
6.6398232e-05
2.3424653e-05
0.0018384925
0.0010567519
4.169994e-05
0.0010374784
-0.00013047542
0.0010520605
0.00016520252
0.0010988175
1.1270958e-05
0.0011218842
8.3774912e-05
0.0011504953
-9.580856e-05
0.0011797795
8.1252033e-05
0.0012049677
5.9936729e-05
0.0012170263
5.1901312e-05
0.0012505207
-6.0608653e-05
0.0012650288
2.3396488e-06
0.0012811956
-6.6348121e-06
0.0013475659
-3.8855742e-05
0.0013015508
0.00028396328
0.0013231957
7.4051564e-05
0.0013349409
3.59779e-05
0.0013778305
1.831829e-05
0.0013822701
3.82546e-05
0.0014468801
-1.214286e-05
0.0014506196
5.3307259e-05
0.001475962
8.7910475e-06
0.0015298315
-3.960514e-05
0.0015803942
-3.8574617e-05
0.0016386005
2.0837601e-05
0.0016005536
0.00013647829
0.0016283211
7.5796615e-05
0.0016953508
-7.9398392e-06
0.0017599348
1.3462361e-05
0.001774908
8.9628953e-05
0.0018059803
1.5199007e-05
3.8664524e-05
0.0018424634
0.0008315123
0.0009193024
0.0012005882
0.0012053148
0.0012225833
0.0012782113
0.0013025043
0.0013079728
0.0013493702
0.0012983674
0.0013266015
0.0013222882
0.0012956605
0.0015223669
0.0016065478
0.0016321528
0.0016753035
0.0016582884
0.0017190139
0.0017118391
0.0017113034
0.0017098551
0.0016859117
0.0016548835
0.0017846446
0.0018770076
0.0019156352
0.0019130196
0.0018980969
0.0018811039
0.0020164359
0.00012441179
0.0019443104
0.00014789164
0.0018365724
0.00019702789
0.0018132806
0.00026331785
0.0018154888
0.00029929041
0.001815679
0.00032079153
0.0018174528
0.00039665139
0.0018349437
0.00049721447
0.0018676299
0.00059828462
0.0019121633
0.00065281572
0.0019506399
0.00058953533
0.0019754191
0.00054347899
0.002010977
0.00066155639
0.0020746016
0.00075402842
0.00214306
0.00085825242
0.0022124641
0.0011035045
0.0022759388
0.0011247936
0.0022808179
0.0010055607
0.0022528218
0.0010545741
0.0022575059
0.0011475082
0.0022902004
0.001206135
0.0023377051
0.0013448163
0.0024111329
0.0024930566
0.0014096855
3.2793375e-05
0.0017832009
4.2930116e-06
0.0017818452
7.0389585e-05
0.001759789
0.0001631024
0.0017992191
0.00025129993
0.0018223469
0.00032713908
0.0018384737
0.00041587608
0.0018396262
0.00049524681
0.0018426923
0.00054059926
0.0018561725
0.00053926076
0.0018741892
0.00053486688
0.0018937209
0.0006057964
0.0019334251
0.0007171421
0.0019965644
0.00078974149
0.0020674982
0.00089423694
0.002130071
0.00097283783
0.0021627261
0.00088491888
0.0021639869
0.00085211572
0.0021797181
0.00099494371
0.0022394519
0.0011336202
0.002308641
0.0012370897
0.0023610148
0.0013878764
0.002393551
0.0024066873
0.0013820059
-9.4794404e-05
0.0017806406
1.0515375e-05
0.0016474601
0.00010789835
0.0016678275
0.00021169956
0.0017144045
0.00024959907
0.0017585128
0.00026054372
0.0017751003
0.00029949429
0.0017751693
0.00034566631
0.0017772537
0.00035360358
0.0017960839
0.00038471693
0.0018354499
0.00052452672
0.00188596
0.00069406422
0.0019335419
0.00078982733
0.0019700422
0.00082165643
0.0019961782
0.00083342141
0.0020124783
0.00079991281
0.0020229271
0.00076321894
0.0020490427
0.00085353839
0.0021066334
0.0010225154
0.0021887006
0.0011231135
0.0022758685
0.0011725042
0.0023363311
0.0012743811
0.002362043
0.0023487229
0.0012692885
6.1842281e-05
0.0018283622
0.00020172154
0.0016207648
0.0003220159
0.0016209017
0.00034356726
0.0016296333
0.00027323014
0.0016468739
0.00020591273
0.0016483914
0.00019957654
0.0016602468
0.00024102857
0.0016874263
0.00029325227
0.0017336448
0.00039816027
0.001796409
0.00056424136
0.001865661
0.00066199085
0.0019150266
0.00067304116
0.0019383307
0.00066994312
0.0019446857
0.00067839539
0.001952618
0.00071090624
0.001975008
0.00080157768
0.0020206801
0.00095901365
0.002071084
0.0011183362
0.0021193718
0.0011356577
0.0021667493
0.0010713818
0.0022033735
0.0010712936
0.0022350468
0.0022602641
0.0011025085
0.00022353087
0.0017362864
0.00027905918
0.0016409996
0.00026573218
0.0016262202
0.00022727933
0.0016094033
0.00021263489
0.0016176142
0.00023950804
0.0016189112
0.00028352773
0.0016285155
0.0003385728
0.001649017
0.00042915036
0.0016864105
0.00054879801
0.0017335427
0.00059816842
0.0017777824
0.00052442528
0.0018117365
0.00044122614
0.0018413248
0.00045145378
0.0018741469
0.00055413572
0.0019172669
0.00070166372
0.0019683303
0.00082563651
0.0020130531
0.00095213745
0.002045586
0.0010599202
0.0020671655
0.001056726
0.0020811025
0.00098624015
0.0020911255
0.00099404787
0.0021195207
0.0021649146
0.0010632293
5.1047867e-05
0.0015808166
-1.0763427e-05
0.0015927147
-1.1242126e-05
0.001587939
2.7857113e-05
0.0015980117
0.00012460388
0.0016213951
0.00023010515
0.0016362132
0.00032793115
0.0016484859
0.00042005184
0.0016556505
0.00051203864
0.0016651101
0.00056024454
0.0016750288
0.00051755849
0.0016857093
0.00042159875
0.0017045255
0.00039012196
0.0017370269
0.00046371988
0.0017873579
0.00058904267
0.0018501106
0.0007007059
0.0019125434
0.00077202778
0.00196257
0.00083181286
0.0019961342
0.00086418281
0.0020140682
0.00085225339
0.0020309385
0.00088503937
0.0020575647
0.0010065888
0.0020959035
0.0021287452
0.0011437452
-0.00013292445
0.0015552516
-0.00012990525
0.0014992706
-6.323163e-05
0.0015082916
2.7877283e-05
0.001541267
0.00013895197
0.0015807728
0.00021171229
0.0016112026
0.00025457414
0.001628323
0.00027618365
0.0016321939
0.00029097737
0.0016342547
0.00030330347
0.001641331
0.00032336213
0.0016576367
0.00038345377
0.0016827263
0.00049938593
0.0017097558
0.00062885428
0.0017398858
0.0007147974
0.0017792582
0.00073533855
0.0018233305
0.00071210991
0.0018652509
0.00068044718
0.0019027292
0.00066394831
0.0019369256
0.00069441518
0.0019782883
0.00079583699
0.0020273966
0.0009536138
0.0020798765
0.0021147064
0.0011299162
3.3785852e-05
0.001568336
0.00011944998
0.001472836
0.00021240759
0.0014671233
0.00028325808
0.0014872828
0.00029137451
0.0015082394
0.00023078231
0.0015287593
0.00013028477
0.0015413013
5.592093e-05
0.0015550943
4.3998671e-05
0.0015769105
9.4169375e-05
0.0016074043
0.0001949402
0.001646194
0.00034058585
0.00168632
0.00051155875
0.0017163848
0.00065897083
0.0017341136
0.0007324565
0.0017474624
0.00072623
0.0017643685
0.0006744214
0.0017851809
0.00062368988
0.0018103662
0.00062072212
0.0018437426
0.00067407585
0.0018914867
0.00076686067
0.0019502826
0.00088722438
0.0020147735
0.0020621096
0.0010085993
0.00012668972
0.0015769258
0.00023991481
0.0014791953
0.00032077294
0.0014567259
0.00034285171
0.0014568447
0.00030091091
0.0014592499
0.00020798064
0.0014630391
0.00012794496
0.0014679482
8.8635977e-05
0.001482723
0.00010129635
0.0015114708
0.00016804911
0.0015563864
0.00024473394
0.0016061216
0.0003220197
0.0016516148
0.00040443088
0.0016864946
0.00047790765
0.0017089606
0.00052276047
0.0017237206
0.00053753984
0.0017370703
0.00055115992
0.0017516904
0.00059489825
0.0017676555
0.00067126904
0.0017879805
0.00075420644
0.0018197135
0.00082922474
0.0018648332
0.00088045501
0.001922596
0.0019732219
0.00089581866
4.5782574e-05
0.0015504452
5.6681514e-05
0.0014705918
6.1797728e-05
0.0014449578
6.4186526e-05
0.0014461166
6.9408795e-05
0.0014520583
0.00011168444
0.0014564518
0.00018278612
0.0014562808
0.00027408406
0.0014614573
0.00035821829
0.0014766615
0.00039540494
0.0015043664
0.00037445419
0.001543046
0.00033553353
0.0015838737
0.00030818243
0.0016204168
0.00028829292
0.0016484279
0.00027272823
0.0016712842
0.0002865211
0.001696586
0.00035957983
0.0017264508
0.00048885798
0.0017554132
0.00064037936
0.0017775366
0.0007757521
0.0017959368
0.00086507593
0.0018179699
0.00088530424
0.0018514844
0.0018893816
0.0008512469
-8.0242112e-05
0.0014873049
-0.00016160863
0.0014326543
-0.00019831796
0.0014171556
-0.00019345623
0.001429995
-0.00012828902
0.001448634
5.4477935e-06
0.0014619586
0.00018205733
0.0014680498
0.00035523047
0.0014692405
0.00047343997
0.0014712737
0.00049848113
0.0014804282
0.00044538838
0.0014992663
0.00035470935
0.0015252209
0.00026031777
0.0015529
0.000191249
0.0015822251
0.00017118585
0.0016145531
0.00020488961
0.0016507624
0.00028183206
0.0016893015
0.00038544651
0.001726218
0.00050265474
0.0017560716
0.00062774848
0.0017807578
0.00073263555
0.001800686
0.00078345789
0.0018196606
0.0018383421
0.00077922453
-7.3183253e-05
0.0014267925
-0.00013841612
0.0013888928
-0.0001787574
0.001378245
-0.00018051101
0.0013985821
-0.00012635809
0.001427018
-1.8867959e-05
0.0014498606
0.0001150454
0.0014646138
0.00023416936
0.0014706495
0.00031246764
0.0014719553
0.0003389578
0.0014744047
0.00031862704
0.0014834121
0.00028129585
0.0014987762
0.00025162837
0.0015176919
0.00024353662
0.0015399533
0.00025003882
0.0015670657
0.00027477209
0.0016008534
0.00030939946
0.0016389026
0.00034602844
0.0016770086
0.00039373857
0.0017110118
0.00044553995
0.0017390344
0.0004807203
0.0017615564
0.00050966797
0.001785037
0.0018091804
0.00055952068
3.6455046e-05
0.0014013996
6.1332844e-05
0.0013707383
7.1632549e-05
0.0013559645
7.0502134e-05
0.0013700962
7.0366077e-05
0.0013958678
6.3214594e-05
0.0014195983
4.7912759e-05
0.0014380003
3.5382419e-05
0.0014503049
3.9094668e-05
0.0014592603
5.0295517e-05
0.0014666666
7.2736529e-05
0.0014761735
0.00011651808
0.0014899996
0.00018754783
0.0015068548
0.00026741843
0.0015237269
0.00033736375
0.0015431783
0.00037713178
0.0015668437
0.00038302803
0.0015966438
0.00036358108
0.0016286274
0.00032450423
0.001659593
0.00028522719
0.0016895593
0.00026384962
0.0017179742
0.00026509685
0.0017471742
0.0017764358
0.00031128128
0.0001207294
0.001393474
0.00022032157
0.0013710501
0.00028093682
0.0013538504
0.00029052526
0.0013594201
0.00025121352
0.0013757507
0.00015964092
0.0013915189
4.1129143e-05
0.0014063257
-7.5000404e-05
0.0014191014
-0.00015545259
0.0014324047
-0.00017603426
0.0014475634
-0.00013892375
0.0014652804
-4.7916687e-05
0.0014849789
6.7796793e-05
0.0015027174
0.00019891439
0.0015192614
0.00030854724
0.0015350897
0.00037454167
0.0015528652
0.00038624599
0.0015745821
0.000352085
0.0016007389
0.00028883354
0.0016272728
0.00021232048
0.0016529557
0.00014586689
0.0016804628
0.00011391278
0.0017114791
0.0017432093
0.00012859769
0.00012590539
0.0013883146
0.00022223769
0.0013753373
0.00028287197
0.0013582606
0.00030080297
0.0013585806
0.00026555529
0.0013690004
0.00017720778
0.0013797797
5.4753578e-05
0.0013901749
-7.7175657e-05
0.0014000926
-0.00018563864
0.0014122966
-0.000242961
0.0014293023
-0.00023776388
0.0014512381
-0.00016550504
0.0014761639
-4.7404972e-05
0.001499672
7.8363123e-05
0.0015188472
0.0001885453
0.0015333373
0.00026172577
0.0015478204
0.00028330479
0.001563465
0.00026099036
0.0015820323
0.00021255181
0.0016036038
0.00014837281
0.0016267083
8.9138347e-05
0.0016489353
3.7554072e-05
0.0016763928
0.0017096746
2.4750485e-05
4.8723356e-05
0.0013751971
9.1319648e-05
0.001373131
0.0001293293
0.0013608132
0.00015090446
0.0013633615
0.0001469446
0.0013729974
0.00010856626
0.0013821629
3.6743824e-05
0.0013893059
-5.0927336e-05
0.0013964524
-0.0001293146
0.0014080916
-0.0001793462
0.0014253786
-0.00019489703
0.001447662
-0.00017597452
0.0014728294
-0.00012791493
0.0014971908
-6.7055308e-05
0.0015165819
-7.0335202e-06
0.0015318535
4.5410344e-05
0.0015455012
7.7052013e-05
0.0015598133
8.5009203e-05
0.0015754327
7.566397e-05
0.0015921086
5.2034031e-05
0.0016087352
1.7031837e-05
0.0016276577
-1.1479475e-05
0.0016532728
0.0016841389
-3.8725889e-05
-9.6942258e-06
0.0013684095
-2.3869465e-05
0.0013758185