/*--------------------------------*- C++ -*----------------------------------*\
| =========                 |                                                 |
| \\      /  F ield         | OpenFOAM: The Open Source CFD Toolbox           |
|  \\    /   O peration     | Version:  2406                                  |
|   \\  /    A nd           | Website:  www.openfoam.com                      |
|    \\/     M anipulation  |                                                 |
\*---------------------------------------------------------------------------*/
FoamFile
{
    version     2.0;
    format      ascii;
    arch        "LSB;label=32;scalar=64";
    class       volScalarField;
    location    "600";
    object      k;
}
// * * * * * * * * * * * * * * * * * * * * * * * * * * * * * * * * * * * * * //

dimensions      [0 2 -2 0 0 0 0];

internalField   nonuniform List<scalar> 
132739
(
3.3130743e-06
2.6578985e-06
2.2057266e-06
1.8853464e-06
1.6491085e-06
1.4682759e-06
1.325489e-06
1.2098906e-06
1.1143956e-06
1.0341909e-06
9.6589101e-07
9.070436e-07
8.5582727e-07
8.1086069e-07
7.710768e-07
7.356384e-07
7.0387927e-07
6.7526282e-07
6.4935195e-07
6.257872e-07
6.0427023e-07
5.8455146e-07
5.6642057e-07
5.4969915e-07
5.3423485e-07
5.1989701e-07
5.0657277e-07
4.941644e-07
4.8258668e-07
4.717652e-07
4.6163461e-07
4.5213738e-07
4.4322272e-07
4.3484558e-07
4.2696596e-07
4.1954821e-07
4.1256048e-07
4.0597426e-07
3.9976394e-07
3.939065e-07
3.8838115e-07
3.8316919e-07
3.7825358e-07
3.7361888e-07
3.6925097e-07
3.6513696e-07
3.6126489e-07
3.5762373e-07
3.5420323e-07
3.5099345e-07
3.4798556e-07
3.4517356e-07
3.4253197e-07
3.4003113e-07
3.376415e-07
3.3535597e-07
3.3311285e-07
3.3084594e-07
3.2858822e-07
3.2650188e-07
3.243412e-07
3.2238449e-07
3.2045366e-07
3.187036e-07
3.1721085e-07
3.160406e-07
3.1515151e-07
3.1452561e-07
3.1432209e-07
3.1425757e-07
3.1420634e-07
3.1416061e-07
3.141223e-07
3.1410027e-07
3.1408714e-07
3.1413911e-07
3.1428666e-07
3.1456131e-07
3.1499495e-07
3.1562172e-07
3.1648321e-07
3.1760992e-07
3.1901457e-07
3.2079876e-07
3.2310962e-07
3.2615438e-07
3.3019174e-07
3.3548494e-07
3.4223742e-07
3.5053989e-07
3.6036998e-07
3.7166303e-07
3.8443892e-07
3.9892992e-07
4.1563559e-07
4.3528474e-07
4.5871528e-07
4.8684941e-07
5.203501e-07
5.590986e-07
6.0470416e-07
6.5694983e-07
7.2022364e-07
7.8700995e-07
3.3131656e-06
2.658322e-06
2.2063018e-06
1.8859827e-06
1.6497627e-06
1.4689279e-06
1.3261298e-06
1.2105167e-06
1.1150061e-06
1.0347868e-06
9.6647384e-07
9.0761531e-07
8.5639005e-07
8.1141671e-07
7.7162827e-07
7.3618742e-07
7.0442784e-07
6.7581279e-07
6.4990505e-07
6.2634496e-07
6.0483399e-07
5.8512235e-07
5.6699951e-07
5.5028681e-07
5.3483168e-07
5.2050317e-07
5.071882e-07
4.9478877e-07
4.8321945e-07
4.7240556e-07
4.6228157e-07
4.5278972e-07
4.4387901e-07
4.3550423e-07
4.2762522e-07
4.2020624e-07
4.1321534e-07
4.0662398e-07
4.0040653e-07
3.9454e-07
3.8900369e-07
3.8377892e-07
3.7884881e-07
3.74198e-07
3.6981247e-07
3.6567944e-07
3.6178712e-07
3.5812456e-07
3.5468165e-07
3.5144844e-07
3.4841674e-07
3.4557636e-07
3.4286082e-07
3.4024102e-07
3.3771226e-07
3.3526659e-07
3.3298505e-07
3.3090016e-07
3.2899183e-07
3.2725961e-07
3.2565856e-07
3.2416978e-07
3.2274429e-07
3.2142055e-07
3.2021203e-07
3.191237e-07
3.1821458e-07
3.1745454e-07
3.1697123e-07
3.1668844e-07
3.1648894e-07
3.1623333e-07
3.1597256e-07
3.1575537e-07
3.1567187e-07
3.1571921e-07
3.1588803e-07
3.1620176e-07
3.1668459e-07
3.1752579e-07
3.1875061e-07
3.2041379e-07
3.2261034e-07
3.2516909e-07
3.2799715e-07
3.3107737e-07
3.3445828e-07
3.3827894e-07
3.4278621e-07
3.4831869e-07
3.5525377e-07
3.6393524e-07
3.7461809e-07
3.8747386e-07
4.0265262e-07
4.203862e-07
4.4102979e-07
4.6514581e-07
4.9355407e-07
5.2620979e-07
5.6297232e-07
6.0480466e-07
6.5149164e-07
7.1413959e-07
3.3132785e-06
2.658748e-06
2.2068641e-06
1.8865929e-06
1.6503801e-06
1.4695341e-06
1.3267166e-06
1.2110806e-06
1.1155459e-06
1.035302e-06
9.6696454e-07
9.080816e-07
8.5683198e-07
8.1183422e-07
7.7202118e-07
7.3655541e-07
7.0477046e-07
6.7612948e-07
6.5019515e-07
6.266077e-07
6.0506857e-07
5.8532791e-07
5.6717515e-07
5.5043161e-07
5.3494474e-07
5.205836e-07
5.0723516e-07
4.9480145e-07
4.831971e-07
4.7234752e-07
4.6218723e-07
4.526586e-07
4.4371072e-07
4.3529851e-07
4.273819e-07
4.1992526e-07
4.1289676e-07
4.0626793e-07
4.0001326e-07
3.9410983e-07
3.8853698e-07
3.8327605e-07
3.7831012e-07
3.7362378e-07
3.6920296e-07
3.6503475e-07
3.6110722e-07
3.5740928e-07
3.539305e-07
3.5066109e-07
3.4759129e-07
3.4471096e-07
3.4201633e-07
3.3950268e-07
3.3716259e-07
3.3499191e-07
3.3297348e-07
3.3109211e-07
3.2933466e-07
3.2770146e-07
3.2616579e-07
3.2470225e-07
3.2328243e-07
3.2196252e-07
3.2075415e-07
3.1965827e-07
3.1870192e-07
3.1780193e-07
3.16902e-07
3.1601543e-07
3.1516859e-07
3.1438187e-07
3.1364415e-07
3.1309046e-07
3.1268972e-07
3.1239293e-07
3.1218382e-07
3.121e-07
3.1219872e-07
3.1253463e-07
3.131604e-07
3.1412479e-07
3.1549214e-07
3.1739224e-07
3.1998401e-07
3.2361231e-07
3.2814381e-07
3.3347037e-07
3.3947429e-07
3.4607021e-07
3.5326536e-07
3.6120118e-07
3.7015062e-07
3.8047779e-07
3.925804e-07
4.0685142e-07
4.2366077e-07
4.4337137e-07
4.6651756e-07
4.9360321e-07
5.2465111e-07
5.6052365e-07
5.9801993e-07
6.5056892e-07
3.3134125e-06
2.659179e-06
2.207423e-06
1.8871958e-06
1.6509889e-06
1.470132e-06
1.3272967e-06
1.2116409e-06
1.1160864e-06
1.035824e-06
9.6746962e-07
9.0857164e-07
8.5730893e-07
8.1230003e-07
7.7247776e-07
7.3700458e-07
7.0521403e-07
6.7656915e-07
6.5063256e-07
6.2704445e-07
6.0550616e-07
5.8576778e-07
5.6761869e-07
5.5088014e-07
5.3539953e-07
5.2104584e-07
5.0770598e-07
4.952819e-07
4.8368819e-07
4.7285018e-07
4.6270231e-07
4.5318688e-07
4.4425288e-07
4.3585515e-07
4.2795353e-07
4.205123e-07
4.1349953e-07
4.0688666e-07
4.0064809e-07
3.9476078e-07
3.8920396e-07
3.8395887e-07
3.7900847e-07
3.7433727e-07
3.6993109e-07
3.6577696e-07
3.6186287e-07
3.5817758e-07
3.5471061e-07
3.5145203e-07
3.4839225e-07
3.4552194e-07
3.4283064e-07
3.4030905e-07
3.3794894e-07
3.3574012e-07
3.336801e-07
3.3176026e-07
3.2996999e-07
3.2830076e-07
3.2674839e-07
3.2529608e-07
3.2395265e-07
3.2269958e-07
3.215146e-07
3.2038396e-07
3.1930561e-07
3.1828865e-07
3.1733022e-07
3.1641929e-07
3.15553e-07
3.1473402e-07
3.1397096e-07
3.1327184e-07
3.1266349e-07
3.1211147e-07
3.1188934e-07
3.1169825e-07
3.1166079e-07
3.1182371e-07
3.1224879e-07
3.1299302e-07
3.1410589e-07
3.1562564e-07
3.1754478e-07
3.1998676e-07
3.2313078e-07
3.2716999e-07
3.3226352e-07
3.3849568e-07
3.4586163e-07
3.5429218e-07
3.6371082e-07
3.7410274e-07
3.8556683e-07
3.983306e-07
4.1272829e-07
4.2914674e-07
4.4803047e-07
4.6996379e-07
4.9534085e-07
5.2534643e-07
5.5687544e-07
5.9982401e-07
3.313565e-06
2.659613e-06
2.207977e-06
1.88779e-06
1.6515868e-06
1.4707176e-06
1.3278634e-06
1.2121863e-06
1.1166102e-06
1.0363264e-06
9.6795159e-07
9.0903401e-07
8.5775258e-07
8.1272573e-07
7.7288616e-07
7.3739625e-07
7.055894e-07
6.7692854e-07
6.509762e-07
6.2737248e-07
6.0581863e-07
5.8606472e-07
5.6790005e-07
5.5114583e-07
5.3564943e-07
5.2127982e-07
5.0792387e-07
4.9548353e-07
4.8387336e-07
4.7301869e-07
4.6285397e-07
4.5332148e-07
4.4437023e-07
4.3595503e-07
4.2803576e-07
4.2057667e-07
4.1354586e-07
4.0691479e-07
4.0065785e-07
3.9475198e-07
3.8917641e-07
3.8391234e-07
3.789427e-07
3.74252e-07
3.6982604e-07
3.6565174e-07
3.61717e-07
3.5801059e-07
3.5452194e-07
3.5124102e-07
3.4815813e-07
3.4526373e-07
3.425498e-07
3.4000853e-07
3.3763122e-07
3.3540905e-07
3.3333259e-07
3.3139e-07
3.2957057e-07
3.2786679e-07
3.2627139e-07
3.2476992e-07
3.2335911e-07
3.2203179e-07
3.2077736e-07
3.1958604e-07
3.1845702e-07
3.1737995e-07
3.1634002e-07
3.1533188e-07
3.1435955e-07
3.1342774e-07
3.125415e-07
3.1170893e-07
3.1094268e-07
3.1026065e-07
3.0972486e-07
3.0926701e-07
3.0895159e-07
3.0881834e-07
3.0891277e-07
3.0928506e-07
3.0998257e-07
3.111194e-07
3.1277509e-07
3.1500579e-07
3.1786277e-07
3.2141582e-07
3.2577115e-07
3.3107115e-07
3.3747102e-07
3.4510033e-07
3.5402824e-07
3.6425428e-07
3.7573365e-07
3.8842854e-07
4.0236511e-07
4.1766403e-07
4.3454423e-07
4.5337926e-07
4.7455998e-07
4.992155e-07
5.2595256e-07
5.6124968e-07
3.3137354e-06
2.6600501e-06
2.2085268e-06
1.8883765e-06
1.6521755e-06
1.4712937e-06
1.3284209e-06
1.2127233e-06
1.1171267e-06
1.0368235e-06
9.6843065e-07
9.0949651e-07
8.5820005e-07
8.1315968e-07
7.7330802e-07
7.3780737e-07
7.0599104e-07
6.7732191e-07
6.5136243e-07
6.2775261e-07
6.0619365e-07
5.8643555e-07
5.6826755e-07
5.5151078e-07
5.3601257e-07
5.2164182e-07
5.0828537e-07
4.958451e-07
4.8423554e-07
4.7338194e-07
4.6321871e-07
4.5368806e-07
4.4473895e-07
4.3632616e-07
4.2840949e-07
4.2095316e-07
4.1392522e-07
4.0729706e-07
4.0104299e-07
3.9513991e-07
3.89567e-07
3.8430539e-07
3.7933797e-07
3.7464915e-07
3.7022467e-07
3.6605141e-07
3.6211722e-07
3.584108e-07
3.549215e-07
3.5163921e-07
3.4855422e-07
3.4565705e-07
3.4293866e-07
3.4039003e-07
3.3800214e-07
3.3576562e-07
3.3367262e-07
3.317138e-07
3.2987984e-07
3.2816214e-07
3.2655339e-07
3.2504054e-07
3.2361883e-07
3.2227789e-07
3.2100315e-07
3.1978311e-07
3.1861136e-07
3.1748696e-07
3.1640158e-07
3.1534894e-07
3.143276e-07
3.1333865e-07
3.1238609e-07
3.1147786e-07
3.1062545e-07
3.0984376e-07
3.0915013e-07
3.0856745e-07
3.0812341e-07
3.0785084e-07
3.0778844e-07
3.079813e-07
3.0847592e-07
3.0928502e-07
3.1045817e-07
3.1207176e-07
3.1421853e-07
3.1699735e-07
3.205094e-07
3.2486256e-07
3.3018001e-07
3.3660393e-07
3.4428484e-07
3.5335611e-07
3.6390477e-07
3.7595475e-07
3.894773e-07
4.0442182e-07
4.207578e-07
4.3853109e-07
4.5786519e-07
4.7933282e-07
5.0253455e-07
5.3249529e-07
3.3139215e-06
2.660489e-06
2.2090715e-06
1.8889545e-06
1.6527542e-06
1.471859e-06
1.3289672e-06
1.2132489e-06
1.1176316e-06
1.0373085e-06
9.6889678e-07
9.0994499e-07
8.58632e-07
8.1357616e-07
7.7370999e-07
7.3819566e-07
7.0636641e-07
6.7768499e-07
6.5171376e-07
6.2809267e-07
6.0652285e-07
5.8675421e-07
5.6857595e-07
5.5180918e-07
5.3630117e-07
5.219208e-07
5.0855488e-07
4.9610527e-07
4.8448646e-07
4.7362367e-07
4.6345129e-07
4.5391152e-07
4.4495331e-07
4.3653144e-07
4.2860569e-07
4.2114026e-07
4.1410319e-07
4.0746585e-07
4.0120252e-07
3.9529009e-07
3.8970771e-07
3.8443647e-07
3.7945922e-07
3.7476035e-07
3.7032554e-07
3.6614165e-07
3.6219645e-07
3.5847857e-07
3.5497731e-07
3.5168248e-07
3.4858432e-07
3.4567327e-07
3.4294037e-07
3.4037698e-07
3.3797433e-07
3.3572319e-07
3.3361497e-07
3.3163928e-07
3.2978564e-07
3.2804484e-07
3.2640854e-07
3.2486451e-07
3.2340545e-07
3.2202253e-07
3.2070452e-07
3.1944143e-07
3.182271e-07
3.1705514e-07
3.1591548e-07
3.1480136e-07
3.1371098e-07
3.126453e-07
3.116074e-07
3.1060343e-07
3.0964296e-07
3.0873884e-07
3.0790725e-07
3.0716805e-07
3.0654564e-07
3.06069e-07
3.057722e-07
3.0569233e-07
3.0587609e-07
3.0639157e-07
3.0729897e-07
3.0865422e-07
3.1051288e-07
3.1293478e-07
3.159879e-07
3.1975071e-07
3.2431468e-07
3.2978883e-07
3.3630439e-07
3.440142e-07
3.5308118e-07
3.6365414e-07
3.758405e-07
3.8968465e-07
4.0517051e-07
4.2223669e-07
4.4082303e-07
4.610506e-07
4.8242672e-07
5.0916093e-07
3.3141209e-06
2.6609281e-06
2.2096097e-06
1.889523e-06
1.6533222e-06
1.4724131e-06
1.3295024e-06
1.2137636e-06
1.1181262e-06
1.0377838e-06
9.6935411e-07
9.1038573e-07
8.5905754e-07
8.1398779e-07
7.7410892e-07
7.3858305e-07
7.067433e-07
6.7805233e-07
6.5207245e-07
6.2844352e-07
6.068666e-07
5.8709156e-07
5.6890752e-07
5.5213555e-07
5.3662287e-07
5.2223831e-07
5.0886864e-07
4.9641566e-07
4.8479381e-07
4.7392829e-07
4.6375342e-07
4.5421138e-07
4.4525109e-07
4.3682726e-07
4.2889965e-07
4.2143243e-07
4.1439358e-07
4.0775444e-07
4.0148925e-07
3.9557487e-07
3.8999036e-07
3.8471682e-07
3.7973704e-07
3.7503535e-07
3.7059739e-07
3.6640995e-07
3.6246076e-07
3.587384e-07
3.5523212e-07
3.519317e-07
3.4882728e-07
3.4590932e-07
3.4316868e-07
3.4059636e-07
3.3818328e-07
3.3592002e-07
3.3379779e-07
3.3180672e-07
3.2993701e-07
3.2817947e-07
3.2652544e-07
3.2496354e-07
3.2348534e-07
3.2208138e-07
3.2073982e-07
3.1944978e-07
3.1820282e-07
3.1699275e-07
3.1581197e-07
3.1465405e-07
3.1351591e-07
3.1239724e-07
3.1130023e-07
3.102301e-07
3.0919533e-07
3.0820765e-07
3.0728215e-07
3.064377e-07
3.0569752e-07
3.0508948e-07
3.0464603e-07
3.0440478e-07
3.0440512e-07
3.0467546e-07
3.0526154e-07
3.0622239e-07
3.0762646e-07
3.0954757e-07
3.1206188e-07
3.1524611e-07
3.1917714e-07
3.2393413e-07
3.2960363e-07
3.3628692e-07
3.4410718e-07
3.5321014e-07
3.6375453e-07
3.7588857e-07
3.8972757e-07
4.0532538e-07
4.2266623e-07
4.4182828e-07
4.6203143e-07
4.8719244e-07
3.3143275e-06
2.6613634e-06
2.2101391e-06
1.8900805e-06
1.6538781e-06
1.472955e-06
1.3300254e-06
1.2142665e-06
1.1186091e-06
1.0382477e-06
9.6980025e-07
9.1081534e-07
8.5947183e-07
8.1438789e-07
7.7449589e-07
7.3895781e-07
7.0710669e-07
6.784051e-07
6.5241525e-07
6.2877692e-07
6.0719113e-07
5.8740767e-07
5.6921561e-07
5.5243597e-07
5.3691594e-07
5.225243e-07
5.0914778e-07
4.9668815e-07
4.8505983e-07
4.7418799e-07
4.6400694e-07
4.5445882e-07
4.4549254e-07
4.3706278e-07
4.291293e-07
4.2165624e-07
4.1461155e-07
4.0796654e-07
4.0169545e-07
3.9577509e-07
3.9018451e-07
3.8490477e-07
3.7991864e-07
3.7521038e-07
3.7076559e-07
3.6657101e-07
3.6261433e-07
3.5888409e-07
3.5536948e-07
3.5206019e-07
3.4894637e-07
3.4601839e-07
3.4326703e-07
3.4068327e-07
3.3825809e-07
3.3598212e-07
3.3384639e-07
3.3184095e-07
3.2995563e-07
3.281807e-07
3.2650692e-07
3.2492308e-07
3.2341983e-07
3.2198767e-07
3.2061549e-07
3.1929288e-07
3.1801131e-07
3.1676366e-07
3.1554171e-07
3.1433848e-07
3.1315013e-07
3.1197558e-07
3.1081613e-07
3.0967596e-07
3.0856235e-07
3.0748576e-07
3.0645988e-07
3.0550194e-07
3.0463323e-07
3.0387904e-07
3.0326908e-07
3.028364e-07
3.0262032e-07
3.0266788e-07
3.0302748e-07
3.0374933e-07
3.0488559e-07
3.0649166e-07
3.08628e-07
3.1136116e-07
3.1476362e-07
3.1891194e-07
3.238852e-07
3.2976522e-07
3.3663985e-07
3.4460937e-07
3.5379323e-07
3.6433003e-07
3.7637053e-07
3.9006193e-07
4.0548695e-07
4.2288458e-07
4.4142032e-07
4.6502273e-07
3.3145476e-06
2.6617993e-06
2.2106621e-06
1.8906282e-06
1.6544228e-06
1.4734851e-06
1.3305367e-06
1.2147578e-06
1.1190808e-06
1.0387009e-06
9.7023614e-07
9.1123527e-07
8.5987709e-07
8.147797e-07
7.7487537e-07
7.3932598e-07
7.0746448e-07
6.7875337e-07
6.5275476e-07
6.2910838e-07
6.0751516e-07
5.8772485e-07
5.6952647e-07
5.52741e-07
5.3721556e-07
5.2281889e-07
5.0943767e-07
4.9697365e-07
4.8534121e-07
4.7446549e-07
4.6428075e-07
4.5472911e-07
4.4575945e-07
4.3732642e-07
4.2938973e-07
4.2191351e-07
4.1486566e-07
4.0821747e-07
4.0194315e-07
3.9601947e-07
3.9042545e-07
3.851421e-07
3.8015214e-07
3.7543979e-07
3.7099064e-07
3.6679134e-07
3.6282956e-07
3.590938e-07
3.5557318e-07
3.5225738e-07
3.4913649e-07
3.4620086e-07
3.434412e-07
3.4084837e-07
3.384132e-07
3.3612623e-07
3.3397829e-07
3.3195949e-07
3.3005976e-07
3.2826936e-07
3.2657886e-07
3.2497736e-07
3.2345505e-07
3.2200211e-07
3.2060744e-07
3.1926034e-07
3.1795149e-07
3.1667305e-07
3.1541711e-07
3.1417688e-07
3.1294808e-07
3.1172897e-07
3.1052021e-07
3.0932519e-07
3.0815031e-07
3.0700508e-07
3.0590206e-07
3.0485759e-07
3.0389182e-07
3.0302887e-07
3.022967e-07
3.0172755e-07
3.0135633e-07
3.0121458e-07
3.013436e-07
3.0179244e-07
3.0261587e-07
3.0387249e-07
3.0562334e-07
3.0793121e-07
3.1086092e-07
3.1447977e-07
3.1885758e-07
3.2406632e-07
3.3017975e-07
3.3727402e-07
3.4543181e-07
3.5474808e-07
3.6533328e-07
3.7732564e-07
3.9082374e-07
4.0615358e-07
4.2258236e-07
4.439053e-07
3.314771e-06
2.6622291e-06
2.2111748e-06
1.8911637e-06
1.6549548e-06
1.4740026e-06
1.3310356e-06
1.2152372e-06
1.1195412e-06
1.0391433e-06
9.7066168e-07
9.1164526e-07
8.6027276e-07
8.1516219e-07
7.7524571e-07
7.3968512e-07
7.0781326e-07
6.7909254e-07
6.53085e-07
6.2943028e-07
6.0782926e-07
5.8803162e-07
5.6982635e-07
5.5303436e-07
5.3750274e-07
5.2310018e-07
5.0971334e-07
4.9724392e-07
4.8560628e-07
4.7472554e-07
4.6453593e-07
4.5497955e-07
4.4600523e-07
4.3756763e-07
4.2962643e-07
4.2214571e-07
4.1509338e-07
4.0844071e-07
4.0216185e-07
3.9623357e-07
3.9063487e-07
3.8534668e-07
3.8035172e-07
3.7563416e-07
3.7117953e-07
3.6697447e-07
3.6300659e-07
3.5926436e-07
3.5573686e-07
3.5241373e-07
3.4928501e-07
3.4634103e-07
3.435724e-07
3.4096994e-07
3.3852443e-07
3.3622641e-07
3.3406663e-07
3.3203517e-07
3.3012191e-07
3.2831688e-07
3.2661027e-07
3.2499125e-07
3.2344957e-07
3.2197516e-07
3.2055709e-07
3.1918473e-07
3.178486e-07
3.1654042e-07
3.1525217e-07
3.1397682e-07
3.127095e-07
3.1144781e-07
3.1019175e-07
3.0894394e-07
3.0770991e-07
3.0649829e-07
3.0532056e-07
3.0419181e-07
3.0313089e-07
3.0216026e-07
3.0130603e-07
3.0059778e-07
3.0006938e-07
2.9975756e-07
2.9970341e-07
2.9995148e-07
3.0054897e-07
3.0154577e-07
3.0299489e-07
3.0495268e-07
3.0747874e-07
3.1063575e-07
3.1448871e-07
3.1910434e-07
3.2455094e-07
3.3089736e-07
3.3821269e-07
3.4656846e-07
3.5603966e-07
3.6672228e-07
3.7868029e-07
3.9220149e-07
4.0667127e-07
4.254386e-07
3.3149983e-06
2.6626535e-06
2.2116776e-06
1.8916877e-06
1.6554748e-06
1.4745082e-06
1.331523e-06
1.2157056e-06
1.119991e-06
1.0395755e-06
9.7107762e-07
9.1204618e-07
8.6065987e-07
8.1553662e-07
7.756085e-07
7.4003722e-07
7.0815553e-07
6.7942575e-07
6.5340983e-07
6.2974738e-07
6.0813919e-07
5.8833489e-07
5.7012341e-07
5.5332564e-07
5.3778862e-07
5.2338101e-07
5.0998941e-07
4.975155e-07
4.858736e-07
4.7498879e-07
4.6479529e-07
4.5523516e-07
4.4625721e-07
4.3781604e-07
4.2987135e-07
4.2238717e-07
4.153314e-07
4.0867525e-07
4.0239287e-07
3.9646098e-07
3.9085856e-07
3.855665e-07
3.8056747e-07
3.7584562e-07
3.7138644e-07
3.6717651e-07
3.6320343e-07
3.5945562e-07
3.5592213e-07
3.5259256e-07
3.4945691e-07
3.4650549e-07
3.4372888e-07
3.411178e-07
3.3866298e-07
3.3635492e-07
3.3418423e-07
3.32141e-07
3.302151e-07
3.2839646e-07
3.2667515e-07
3.250404e-07
3.2348179e-07
3.2198902e-07
3.205512e-07
3.191576e-07
3.177984e-07
3.164649e-07
3.1514894e-07
3.138434e-07
3.1254314e-07
3.1124532e-07
3.0994941e-07
3.0865745e-07
3.0737429e-07
3.0610772e-07
3.0486841e-07
3.0367056e-07
3.0253192e-07
3.0147379e-07
3.0052109e-07
2.9970218e-07
2.9904807e-07
2.985891e-07
2.9836254e-07
2.9841102e-07
2.9878117e-07
2.9952234e-07
3.0068602e-07
3.0232542e-07
3.0449502e-07
3.07251e-07
3.1065132e-07
3.1475562e-07
3.1962483e-07
3.2532122e-07
3.3190798e-07
3.3944873e-07
3.4800577e-07
3.5764982e-07
3.684216e-07
3.8053506e-07
3.9347038e-07
4.1000629e-07
3.3152295e-06
2.6630729e-06
2.2121715e-06
1.8922011e-06
1.6559838e-06
1.4750028e-06
1.3319998e-06
1.2161637e-06
1.120431e-06
1.0399984e-06
9.7148471e-07
9.1243863e-07
8.6103888e-07
8.1590329e-07
7.7596384e-07
7.4038213e-07
7.0849083e-07
6.7975216e-07
6.5372803e-07
6.3005794e-07
6.0844263e-07
5.8863168e-07
5.7041398e-07
5.5361036e-07
5.3806782e-07
5.2365499e-07
5.1025844e-07
4.977798e-07
4.8613338e-07
4.7524422e-07
4.6504652e-07
4.5548229e-07
4.4650035e-07
4.3805528e-07
4.3010672e-07
4.2261872e-07
4.1555912e-07
4.0889911e-07
4.0261284e-07
3.9667699e-07
3.9107049e-07
3.8577424e-07
3.8077084e-07
3.7604441e-07
3.7158039e-07
3.6736537e-07
3.6338686e-07
3.5963329e-07
3.5609365e-07
3.5275751e-07
3.4961486e-07
3.4665596e-07
3.4387134e-07
3.412517e-07
3.3878769e-07
3.364698e-07
3.3428859e-07
3.3223412e-07
3.3029624e-07
3.2846479e-07
3.2672963e-07
3.2508001e-07
3.2350528e-07
3.2199497e-07
3.205382e-07
3.1912421e-07
3.1774302e-07
3.1638569e-07
3.1504394e-07
3.1371051e-07
3.1237992e-07
3.1104887e-07
3.0971634e-07
3.0838378e-07
3.0705537e-07
3.0573821e-07
3.0444216e-07
3.0318043e-07
3.0196999e-07
3.0083069e-07
2.9978599e-07
2.9886283e-07
2.9809078e-07
2.9750098e-07
2.9712951e-07
2.9701622e-07
2.9720378e-07
2.9773697e-07
2.9866275e-07
3.0003014e-07
3.0189002e-07
3.0429472e-07
3.0729782e-07
3.1095394e-07
3.1531844e-07
3.2044741e-07
3.2639762e-07
3.3322638e-07
3.409912e-07
3.4975158e-07
3.5954421e-07
3.7053235e-07
3.8227519e-07
3.9707219e-07
3.3154665e-06
2.6634885e-06
2.2126572e-06
1.8927046e-06
1.6564822e-06
1.4754869e-06
1.3324662e-06
1.2166119e-06
1.1208615e-06
1.0404123e-06
9.7188317e-07
9.1282292e-07
8.6141016e-07
8.1626263e-07
7.7631223e-07
7.4072048e-07
7.0881993e-07
6.8007275e-07
6.5404075e-07
6.3036337e-07
6.087413e-07
5.8892406e-07
5.7070049e-07
5.5389139e-07
5.3834371e-07
5.2392605e-07
5.1052494e-07
4.9804199e-07
4.8639147e-07
4.7549837e-07
4.6529689e-07
4.5572902e-07
4.4674353e-07
4.3829499e-07
4.3034301e-07
4.2285161e-07
4.1578861e-07
4.091252e-07
4.0283546e-07
3.9689607e-07
3.9128591e-07
3.8598587e-07
3.8097849e-07
3.7624788e-07
3.7177942e-07
3.6755966e-07
3.6357611e-07
3.5981715e-07
3.5627174e-07
3.5292943e-07
3.4978019e-07
3.4681424e-07
3.4402208e-07
3.4139435e-07
3.389217e-07
3.3659457e-07
3.3440342e-07
3.3233833e-07
3.3038913e-07
3.2854558e-07
3.2679744e-07
3.2513394e-07
3.2354437e-07
3.220181e-07
3.2054422e-07
3.1911197e-07
3.1771121e-07
3.1633275e-07
3.1496815e-07
3.1361002e-07
3.1225268e-07
3.1089249e-07
3.0952799e-07
3.0816019e-07
3.0679273e-07
3.0543206e-07
3.0408739e-07
3.0277114e-07
3.0149941e-07
3.0029118e-07
2.9916868e-07
2.9815771e-07
2.9728613e-07
2.9658189e-07
2.9607882e-07
2.9581495e-07
2.9583147e-07
2.9617178e-07
2.9688078e-07
2.9800484e-07
2.9959137e-07
3.016885e-07
3.043453e-07
3.0761154e-07
3.1153752e-07
3.1617373e-07
3.2157108e-07
3.2778055e-07
3.3485468e-07
3.4284534e-07
3.5178953e-07
3.6182247e-07
3.7256833e-07
3.8598795e-07
3.3157037e-06
2.6638973e-06
2.213133e-06
1.8931972e-06
1.6569696e-06
1.4759603e-06
1.3329224e-06
1.2170503e-06
1.1212828e-06
1.0408175e-06
9.7227335e-07
9.1319935e-07
8.6177397e-07
8.166149e-07
7.7665391e-07
7.4105242e-07
7.0914293e-07
6.803875e-07
6.5434787e-07
6.3066342e-07
6.0903478e-07
5.8921142e-07
5.7098214e-07
5.5416767e-07
5.3861496e-07
5.2419255e-07
5.1078693e-07
4.9829971e-07
4.8664509e-07
4.7574808e-07
4.6554282e-07
4.5597129e-07
4.4698223e-07
4.3853018e-07
4.3057473e-07
4.2307989e-07
4.1601343e-07
4.0934655e-07
4.030533e-07
3.9711032e-07
3.9149647e-07
3.8619259e-07
3.811812e-07
3.7644635e-07
3.7197342e-07
3.6774891e-07
3.637603e-07
3.5999594e-07
3.5644479e-07
3.5309635e-07
3.4994056e-07
3.4696764e-07
3.4416804e-07
3.4153238e-07
3.3905124e-07
3.3671506e-07
3.3451426e-07
3.324389e-07
3.3047878e-07
3.2862361e-07
3.2686305e-07
3.2518632e-07
3.2358259e-07
3.2204112e-07
3.20551e-07
3.1910141e-07
3.1768213e-07
3.162838e-07
3.1489788e-07
3.1351686e-07
3.1213484e-07
3.1074789e-07
3.0935419e-07
3.0795432e-07
3.065514e-07
3.0515133e-07
3.0376273e-07
3.0239724e-07
3.0107022e-07
2.9979975e-07
2.9860688e-07
2.9751637e-07
2.9655488e-07
2.9574964e-07
2.9513311e-07
2.9474141e-07
2.9461326e-07
2.9478936e-07
2.9531184e-07
2.9622418e-07
2.9757094e-07
2.9939738e-07
3.0174928e-07
3.0467264e-07
3.0821376e-07
3.124189e-07
3.173342e-07
3.230048e-07
3.2947787e-07
3.3679843e-07
3.45002e-07
3.5420527e-07
3.6408162e-07
3.7634256e-07
3.3159459e-06
2.6643021e-06
2.2136008e-06
1.89368e-06
1.6574468e-06
1.4764234e-06
1.3333687e-06
1.2174793e-06
1.1216951e-06
1.0412141e-06
9.7265551e-07
9.1356822e-07
8.6213067e-07
8.1696044e-07
7.7698923e-07
7.4137838e-07
7.0946026e-07
6.806969e-07
6.5464994e-07
6.309587e-07
6.0932376e-07
5.8949454e-07
5.7125978e-07
5.5444021e-07
5.388827e-07
5.2445577e-07
5.1104591e-07
4.9855465e-07
4.8689619e-07
4.7599549e-07
4.6578667e-07
4.5621171e-07
4.472193e-07
4.3876396e-07
4.3080527e-07
4.2330721e-07
4.1623754e-07
4.0956739e-07
4.0327083e-07
3.9732446e-07
3.917071e-07
3.8639957e-07
3.8138435e-07
3.7664544e-07
3.7216819e-07
3.6793908e-07
3.6394556e-07
3.6017595e-07
3.566192e-07
3.5326478e-07
3.5010261e-07
3.4712287e-07
3.44316e-07
3.4167258e-07
3.3918315e-07
3.3683815e-07
3.3462793e-07
3.3254253e-07
3.3057176e-07
3.2870528e-07
3.2693265e-07
3.2524308e-07
3.2362569e-07
3.2206967e-07
3.2056405e-07
3.1909802e-07
3.1766127e-07
3.1624433e-07
3.1483853e-07
3.1343629e-07
3.1203155e-07
3.1062012e-07
3.091999e-07
3.0777112e-07
3.0633649e-07
3.0490143e-07
3.0347407e-07
3.0206535e-07
3.0068989e-07
2.9936523e-07
2.9811138e-07
2.9695203e-07
2.9591272e-07
2.9501886e-07
2.9430126e-07
2.9379448e-07
2.9353573e-07
2.9356409e-07
2.9391989e-07
2.9464451e-07
2.9577983e-07
2.9736824e-07
2.9945246e-07
3.0207524e-07
3.0527935e-07
3.0910717e-07
3.1360114e-07
3.1880195e-07
3.2475216e-07
3.3149068e-07
3.3904984e-07
3.4753153e-07
3.5664791e-07
3.6790347e-07
3.3161852e-06
2.6646987e-06
2.2140582e-06
1.894152e-06
1.6579133e-06
1.4768763e-06
1.3338052e-06
1.2178991e-06
1.1220987e-06
1.0416026e-06
9.7303003e-07
9.1392988e-07
8.6248055e-07
8.1729955e-07
7.7731849e-07
7.416986e-07
7.0977219e-07
6.8100117e-07
6.5494714e-07
6.3124935e-07
6.0960833e-07
5.8977346e-07
5.7153343e-07
5.5470892e-07
5.3914679e-07
5.247155e-07
5.1130151e-07
4.9880633e-07
4.8714413e-07
4.7623984e-07
4.6602757e-07
4.5644924e-07
4.4745354e-07
4.3899498e-07
4.310331e-07
4.2353185e-07
4.1645899e-07
4.0978562e-07
4.0348577e-07
3.9753603e-07
3.9191517e-07
3.8660398e-07
3.8158491e-07
3.7684193e-07
3.7236034e-07
3.681266e-07
3.6412815e-07
3.6035325e-07
3.5679085e-07
3.534304e-07
3.5026179e-07
3.4727518e-07
3.4446098e-07
3.4180972e-07
3.3931194e-07
3.3695803e-07
3.3473832e-07
3.3264282e-07
3.306613e-07
3.287834e-07
3.2699862e-07
3.2529614e-07
3.2366502e-07
3.2209437e-07
3.2057322e-07
3.1909074e-07
3.1763659e-07
3.162012e-07
3.1477583e-07
3.1335285e-07
3.1192606e-07
3.1049111e-07
3.0904566e-07
3.0758965e-07
3.0612545e-07
3.0465805e-07
3.0319515e-07
3.0174728e-07
3.0032819e-07
2.9895478e-07
2.9764644e-07
2.9642571e-07
2.9531724e-07
2.9434555e-07
2.9354017e-07
2.9293416e-07
2.9256296e-07
2.9246371e-07
2.9267477e-07
2.9323546e-07
2.9418551e-07
2.955649e-07
2.9741369e-07
2.9977186e-07
3.0267937e-07
3.0617554e-07
3.1029964e-07
3.1508864e-07
3.2058159e-07
3.2681274e-07
3.338113e-07
3.4166627e-07
3.5012208e-07
3.6050359e-07
3.3164286e-06
2.665091e-06
2.2145076e-06
1.8946145e-06
1.6583699e-06
1.4773195e-06
1.3342325e-06
1.2183101e-06
1.122494e-06
1.0419833e-06
9.7339716e-07
9.1428461e-07
8.6282394e-07
8.1763257e-07
7.7764201e-07
7.4201341e-07
7.10079e-07
6.8130063e-07
6.5523981e-07
6.3153575e-07
6.098889e-07
5.900486e-07
5.7180351e-07
5.5497428e-07
5.3940771e-07
5.2497225e-07
5.1155431e-07
4.9905538e-07
4.8738959e-07
4.7648187e-07
4.6626627e-07
4.5668471e-07
4.4768587e-07
4.392242e-07
4.3125924e-07
4.2375492e-07
4.1667897e-07
4.1000247e-07
4.0369941e-07
3.9774635e-07
3.9212206e-07
3.8680724e-07
3.8178433e-07
3.7703726e-07
3.7255131e-07
3.6831289e-07
3.6430942e-07
3.6052916e-07
3.56961e-07
3.5359438e-07
3.5041916e-07
3.4742547e-07
3.4460371e-07
3.4194435e-07
3.394379e-07
3.3707472e-07
3.3484508e-07
3.32739e-07
3.307462e-07
3.2885628e-07
3.2705868e-07
3.2534254e-07
3.2369689e-07
3.221108e-07
3.2057328e-07
3.1907352e-07
3.1760115e-07
3.1614657e-07
3.1470101e-07
3.132568e-07
3.118077e-07
3.1034922e-07
3.088789e-07
3.0739644e-07
3.0590399e-07
3.0440624e-07
3.0291059e-07
3.0142691e-07
2.9996854e-07
2.985518e-07
2.9719521e-07
2.9592064e-07
2.9475178e-07
2.9371201e-07
2.9282958e-07
2.921362e-07
2.9166595e-07
2.9145453e-07
2.9153867e-07
2.9195588e-07
2.9274387e-07
2.9394047e-07
2.9558336e-07
2.9770999e-07
3.0035773e-07
3.0356324e-07
3.0736311e-07
3.117914e-07
3.1688399e-07
3.2267142e-07
3.291806e-07
3.3648989e-07
3.4437108e-07
3.539945e-07
3.3166687e-06
2.665475e-06
2.2149468e-06
1.8950664e-06
1.6588162e-06
1.4777528e-06
1.3346504e-06
1.2187123e-06
1.1228811e-06
1.0423563e-06
9.7375716e-07
9.1463266e-07
8.6316108e-07
8.1795973e-07
7.7796006e-07
7.423231e-07
7.1038103e-07
6.8159559e-07
6.5552824e-07
6.3181813e-07
6.1016567e-07
5.9032016e-07
5.7207021e-07
5.5523643e-07
5.3966558e-07
5.2522609e-07
5.1180433e-07
4.9930176e-07
4.876325e-07
4.7672143e-07
4.6650259e-07
4.5691787e-07
4.4791592e-07
4.3945118e-07
4.3148317e-07
4.2397579e-07
4.1689675e-07
4.1021708e-07
4.0391077e-07
3.9795434e-07
3.9232652e-07
3.8700797e-07
3.8198109e-07
3.7722977e-07
3.7273925e-07
3.6849592e-07
3.6448716e-07
3.607012e-07
3.5712692e-07
3.5375371e-07
3.5057139e-07
3.4757009e-07
3.4474012e-07
3.4207193e-07
3.3955599e-07
3.3718261e-07
3.3494201e-07
3.3282415e-07
3.3081873e-07
3.289153e-07
3.2710323e-07
3.2537165e-07
3.2370956e-07
3.2210597e-07
3.2054993e-07
3.1903066e-07
3.175378e-07
3.1606177e-07
3.1459384e-07
3.1312636e-07
3.1165311e-07
3.1016957e-07
3.086732e-07
3.071636e-07
3.0564272e-07
3.0411507e-07
3.0258774e-07
3.0107035e-07
2.9957568e-07
2.9811947e-07
2.9671973e-07
2.9539746e-07
2.9417558e-07
2.9307662e-07
2.9212783e-07
2.9135967e-07
2.9080472e-07
2.9049713e-07
2.9047211e-07
2.9076554e-07
2.9141332e-07
2.9245135e-07
2.9391517e-07
2.9584001e-07
2.9826095e-07
3.0121249e-07
3.0472886e-07
3.0884165e-07
3.1358407e-07
3.189836e-07
3.2506513e-07
3.3189828e-07
3.3927788e-07
3.4824345e-07
3.3169085e-06
2.6658526e-06
2.2153769e-06
1.8955084e-06
1.6592526e-06
1.4781767e-06
1.3350594e-06
1.2191061e-06
1.1232604e-06
1.042722e-06
9.7411034e-07
9.1497439e-07
8.6349234e-07
8.1828142e-07
7.7827299e-07
7.4262802e-07
7.1067857e-07
6.8188634e-07
6.5581272e-07
6.320968e-07
6.1043896e-07
5.9058842e-07
5.7233378e-07
5.5549561e-07
5.3992064e-07
5.2547725e-07
5.120518e-07
4.9954569e-07
4.8787303e-07
4.7695868e-07
4.6673666e-07
4.5714882e-07
4.4814378e-07
4.3967599e-07
4.3170491e-07
4.2419443e-07
4.1711222e-07
4.1042931e-07
4.0411964e-07
3.9815968e-07
3.9252814e-07
3.8720562e-07
3.8217448e-07
3.7741858e-07
3.7292309e-07
3.6867438e-07
3.646598e-07
3.6086753e-07
3.572864e-07
3.5390579e-07
3.5071544e-07
3.4770544e-07
3.4486604e-07
3.4218764e-07
3.3966063e-07
3.3727525e-07
3.3502167e-07
3.3288979e-07
3.3086925e-07
3.2894955e-07
3.2712e-07
3.2536972e-07
3.2368769e-07
3.2206295e-07
3.2048458e-07
3.1894186e-07
3.1742455e-07
3.1592314e-07
3.14429e-07
3.1293461e-07
3.1143383e-07
3.0992223e-07
3.0839729e-07
3.0685856e-07
3.0530796e-07
3.0374985e-07
3.0219113e-07
3.0064122e-07
2.9911243e-07
2.9761998e-07
2.9618147e-07
2.9481717e-07
2.9354927e-07
2.9239936e-07
2.913937e-07
2.9056154e-07
2.8993427e-07
2.8954476e-07
2.8942679e-07
2.8961476e-07
2.9014269e-07
2.9104548e-07
2.9235541e-07
2.941065e-07
2.9633182e-07
2.9906363e-07
3.0233401e-07
3.0617255e-07
3.1061002e-07
3.1567163e-07
3.2138026e-07
3.2779863e-07
3.3474069e-07
3.4313473e-07
3.3171452e-06
2.6662222e-06
2.2157973e-06
1.8959403e-06
1.6596791e-06
1.4785912e-06
1.3354596e-06
1.2194918e-06
1.1236322e-06
1.0430807e-06
9.7445708e-07
9.1531013e-07
8.6381803e-07
8.1859794e-07
7.7858111e-07
7.4292844e-07