/*--------------------------------*- C++ -*----------------------------------*\
| =========                 |                                                 |
| \\      /  F ield         | OpenFOAM: The Open Source CFD Toolbox           |
|  \\    /   O peration     | Version:  2406                                  |
|   \\  /    A nd           | Website:  www.openfoam.com                      |
|    \\/     M anipulation  |                                                 |
\*---------------------------------------------------------------------------*/
FoamFile
{
    version     2.0;
    format      ascii;
    arch        "LSB;label=32;scalar=64";
    class       volScalarField;
    location    "600";
    object      omega;
}
// * * * * * * * * * * * * * * * * * * * * * * * * * * * * * * * * * * * * * //

dimensions      [0 0 -1 0 0 0 0];

internalField   nonuniform List<scalar> 
132739
(
3.8317557
3.1275736
2.6347576
2.2808216
2.0166498
1.8122786
1.6494073
1.5164723
1.4058569
1.3123436
1.2322347
1.1628336
1.1021248
1.0485713
1.0009793
0.95840745
0.92010331
0.88545801
0.85397352
0.82523857
0.79891049
0.7747015
0.75236816
0.73170317
0.71252887
0.69469226
0.67806073
0.66251897
0.64796607
0.63431354
0.62148335
0.60940651
0.59802182
0.58727476
0.57711668
0.567504
0.55839758
0.54976223
0.54156612
0.5337805
0.52637926
0.51933873
0.51263728
0.50625519
0.50017437
0.49437826
0.48885152
0.48358001
0.47855063
0.47375098
0.46916979
0.46479785
0.4606149
0.45659875
0.45272777
0.44899387
0.44535709
0.44177588
0.43826654
0.43491994
0.43159016
0.42843713
0.4253542
0.4224292
0.41970422
0.41721455
0.41493311
0.41284434
0.41103653
0.40935036
0.40771446
0.40611704
0.40455845
0.40304294
0.40157862
0.40017806
0.39885745
0.39763549
0.39653018
0.3955675
0.39473933
0.3941315
0.39360254
0.39304094
0.39323753
0.39391081
0.39500269
0.3967127
0.39913579
0.40229329
0.40614702
0.4106368
0.4157399
0.4215257
0.42816749
0.43590635
0.44498182
0.45561605
0.46787407
0.48151078
0.49687115
0.51367973
0.53309377
0.55200342
3.831946
3.1281077
2.6354513
2.2815806
2.0174287
1.8130556
1.6501723
1.517221
1.4065879
1.3130572
1.2329322
1.1635164
1.1027949
1.0492305
1.0016295
0.95905049
0.92074095
0.88609188
0.85460516
0.82586938
0.79954172
0.77533425
0.75300338
0.73234162
0.71317117
0.6953388
0.67871177
0.66317455
0.6486261
0.63497773
0.62215127
0.61007757
0.59869528
0.58794976
0.57779223
0.56817905
0.55907101
0.55043285
0.54223276
0.53444198
0.52703445
0.51998653
0.51327668
0.50688524
0.50079419
0.49498706
0.48944863
0.48416484
0.47912269
0.4743098
0.46971532
0.46532757
0.46110218
0.45701746
0.45306643
0.44924054
0.44558366
0.44211091
0.43880685
0.43566783
0.4326644
0.42978268
0.42699212
0.42431297
0.42175078
0.41930685
0.41701006
0.41485683
0.41293064
0.4111348
0.40937346
0.40764254
0.40595798
0.40433802
0.40279994
0.4013611
0.40004058
0.39885982
0.39784413
0.39702043
0.3964169
0.39605145
0.3960985
0.39616207
0.39642653
0.39688041
0.3975234
0.39841614
0.39967469
0.40145568
0.40392598
0.40722436
0.41143353
0.41658439
0.4226883
0.42978266
0.43794123
0.44729628
0.45803684
0.46998362
0.48291441
0.49698429
0.51213036
0.53103001
3.8321439
3.1286311
2.636119
2.2823008
2.0181581
1.8137743
1.6508715
1.5178968
1.407239
1.3136834
1.2335338
1.1640941
1.1033492
1.0497618
1.0021383
0.95953721
0.92120571
0.88653478
0.85502621
0.82626848
0.79991872
0.77568893
0.75333547
0.73265081
0.71345712
0.69560117
0.67895021
0.66338873
0.64881571
0.63514249
0.62229093
0.61019194
0.59878423
0.58801322
0.57783022
0.56819163
0.55905832
0.55039509
0.5421702
0.53435495
0.52692332
0.51985167
0.51311849
0.50670407
0.50059041
0.49476096
0.48920044
0.48389473
0.47883065
0.47399594
0.46937882
0.46496773
0.46075528
0.45673384
0.4528945
0.44923054
0.4457279
0.44237397
0.43915779
0.43607643
0.43311135
0.43024519
0.42745934
0.42478426
0.42222447
0.41977845
0.4174598
0.41521827
0.41301946
0.41087072
0.40878826
0.40677931
0.40484903
0.40300399
0.40125211
0.39960235
0.39806578
0.39665507
0.39539251
0.39427864
0.39342599
0.3928634
0.39248259
0.39237568
0.39262687
0.39335828
0.39463697
0.39634166
0.39838825
0.40072101
0.40333428
0.40628777
0.40969896
0.41371711
0.41849261
0.42415859
0.43082234
0.43857077
0.44753145
0.4577803
0.46920704
0.48189939
0.49482028
0.5116897
3.832349
3.1291475
2.6367724
2.2830034
2.018869
1.8144748
1.6515536
1.5185576
1.4078781
1.3143015
1.2341322
1.1646743
1.1039129
1.0503108
1.0026741
0.96006135
0.92171976
0.8870402
0.85552436
0.82676068
0.80040622
0.7761729
0.75381704
0.73313104
0.71393702
0.69608171
0.6794323
0.66387321
0.64930339
0.63563412
0.62278721
0.61069352
0.59929168
0.58852709
0.57835095
0.56871962
0.55959391
0.55093856
0.54272176
0.53491474
0.52749141
0.52042806
0.5137031
0.50729678
0.50119102
0.49536924
0.48981612
0.48451744
0.47946
0.47463144
0.4700201
0.46561489
0.46140447
0.45737851
0.45352769
0.44984185
0.44631565
0.44294037
0.4397065
0.43660593
0.43363328
0.43077613
0.42803719
0.4254033
0.4228595
0.42039608
0.41801026
0.41570577
0.41347953
0.41132393
0.40923608
0.40721655
0.4052684
0.40339762
0.40161238
0.39992212
0.39833778
0.39687254
0.39554341
0.39436923
0.39337896
0.3925823
0.3920787
0.39178029
0.39167404
0.39188399
0.39248476
0.3935647
0.39519172
0.3973918
0.40014333
0.40339188
0.40708028
0.41118167
0.4157209
0.42077703
0.4264687
0.43292676
0.44029165
0.44872545
0.45831489
0.46931757
0.48065999
0.49524212
3.83256
3.1296556
2.6374108
2.283688
2.0195603
1.8151552
1.6522153
1.5191975
1.4084954
1.3148967
1.234706
1.1652276
1.1044468
1.0508262
1.003172
0.96054253
0.92218492
0.88748995
0.85595923
0.82718112
0.80081259
0.77656553
0.75419618
0.73349689
0.71428977
0.69642149
0.67975921
0.66418734
0.64960479
0.63592285
0.62306331
0.61095701
0.59954258
0.58876541
0.5785767
0.56893282
0.55979457
0.5511267
0.54289741
0.5350779
0.52764209
0.52056626
0.51382879
0.50740995
0.50129166
0.49545727
0.48989143
0.48457992
0.4795095
0.47466778
0.47004303
0.46562405
0.46140095
0.45736431
0.45350452
0.44981221
0.44627795
0.44289117
0.4396423
0.43652388
0.43352879
0.43064598
0.42787121
0.42519807
0.42261839
0.42012472
0.41771493
0.41538149
0.41311451
0.41090973
0.40876835
0.40669199
0.40468249
0.4027435
0.40088092
0.39910252
0.39741792
0.3958389
0.39438018
0.39305827
0.39189678
0.39090404
0.39015857
0.38963601
0.38943178
0.38957081
0.39006842
0.39095068
0.39226109
0.39405882
0.3964054
0.39934439
0.40288495
0.40699978
0.41163986
0.41676002
0.42234474
0.4284196
0.43505238
0.44235946
0.45047005
0.45970682
0.46958245
0.48206243
3.832777
3.1301562
2.6380353
2.2843558
2.020234
1.8158179
1.6528598
1.5198212
1.4090978
1.3154782
1.2352679
1.1657713
1.1049735
1.0513374
1.0036689
0.96102648
0.92265709
0.88795144
0.85641108
0.8276243
0.80124801
0.77699402
0.75461852
0.73391382
0.71470195
0.69682955
0.68016373
0.66458886
0.65000381
0.63631982
0.62345864
0.61135107
0.59993571
0.58915789
0.57896881
0.56932477
0.56018655
0.55151887
0.54328985
0.53547069
0.52803527
0.52095982
0.5142227
0.50780413
0.50168599
0.4958516
0.49028559
0.48497371
0.47990267
0.47506004
0.47043409
0.46601365
0.46178823
0.45774771
0.45388231
0.45018235
0.44663936
0.44324426
0.4399883
0.43686338
0.43386237
0.43097506
0.42819631
0.4255179
0.42292936
0.42042227
0.41799134
0.41563456
0.41334578
0.4111202
0.40895588
0.40685242
0.40481111
0.40283549
0.40093109
0.39910518
0.3973669
0.39572761
0.39420158
0.39280572
0.39156027
0.39048788
0.38961295
0.38894297
0.38850267
0.38833062
0.38847253
0.3889752
0.38988389
0.39124405
0.39310504
0.39552089
0.39854374
0.40221095
0.4065322
0.411484
0.41701774
0.4230759
0.42961452
0.43662105
0.44412871
0.4523023
0.46102219
0.47190465
3.8329985
3.1306488
2.6386457
2.285007
2.02089
1.8164627
1.6534864
1.5204271
1.4096825
1.3160424
1.2358123
1.166297
1.1054818
1.0518293
1.0041454
0.96148858
0.92310562
0.88838717
0.85683471
0.82803643
0.8016492
0.77738476
0.75499923
0.7342849
0.71506375
0.69718237
0.68050788
0.66492459
0.65033135
0.63663937
0.62377037
0.61165516
0.60023231
0.58944715
0.57925085
0.56959971
0.5604545
0.55177992
0.54354407
0.53571815
0.52827601
0.52119387
0.51445006
0.5080248
0.50189993
0.49605878
0.49048592
0.48516707
0.48008892
0.47523899
0.47060553
0.46617734
0.46194398
0.45789556
0.45402245
0.45031508
0.44676453
0.44336113
0.44009543
0.43695903
0.4339442
0.43104125
0.42824358
0.42554391
0.42293373
0.42040552
0.4179541
0.41557435
0.41325915
0.41100341
0.40880506
0.40666364
0.40457995
0.40255657
0.40059797
0.39871048
0.39690227
0.39518349
0.39356682
0.3920673
0.39070271
0.38949198
0.38845934
0.38764399
0.38707749
0.38678718
0.38679892
0.38713951
0.38783852
0.38892897
0.39044814
0.39243903
0.39495138
0.39803985
0.401757
0.40614142
0.41120613
0.41693085
0.42326807
0.43015023
0.43752299
0.44538363
0.45356927
0.46348662
3.8332236
3.1311329
2.6392418
2.2856412
2.0215282
1.8170895
1.6540954
1.5210159
1.4102508
1.3165907
1.2363418
1.1668088
1.1059771
1.0523094
1.0046116
0.96194174
0.92354687
0.88881745
0.8572549
0.82844733
0.80205156
0.77777926
0.75538652
0.73466555
0.7154383
0.69755132
0.68087168
0.66528365
0.65068605
0.63699005
0.62411734
0.6119987
0.60057266
0.58978452
0.57958544
0.56993169
0.560784
0.55210704
0.54386889
0.53604073
0.52859636
0.52151199
0.51476594
0.50833836
0.50221111
0.49636745
0.49079195
0.48547029
0.48038915
0.47553603
0.47089912
0.46646725
0.46222986
0.45817686
0.45429846
0.45058497
0.44702737
0.44361632
0.44034279
0.43719836
0.43417519
0.43126404
0.42845769
0.4257485
0.42312763
0.42058703
0.41812027
0.41572234
0.41338757
0.4111111
0.40889009
0.40672339
0.40461131
0.40255593
0.40056115
0.39863271
0.39677823
0.39500741
0.39333234
0.39176759
0.39033023
0.38903967
0.3879165
0.38697811
0.38624868
0.38575831
0.38554119
0.38563311
0.38606956
0.38688435
0.38810907
0.38977389
0.39190983
0.39455165
0.39774018
0.4015211
0.40593935
0.41102748
0.41679722
0.42322701
0.43027088
0.4379011
0.44582297
0.45537902
3.8334487
3.1316064
2.6398223
2.2862577
2.022148
1.8176979
1.6546863
1.5215871
1.4108019
1.3171224
1.236855
1.1673047
1.1064568
1.052774
1.0050621
0.96237927
0.92397224
0.88923146
0.85765828
0.82884075
0.8024356
0.77815448
0.75575339
0.73502453
0.71578978
0.69789567
0.68120922
0.66561469
0.65101085
0.63730885
0.62443039
0.61230618
0.60087478
0.59008145
0.57987733
0.57021867
0.5610662
0.55238455
0.54414182
0.53630912
0.52886028
0.52177148
0.51502101
0.50858901
0.50245729
0.49660911
0.49102902
0.48570267
0.4806167
0.47575859
0.47111652
0.46667927
0.46243625
0.45837738
0.45449288
0.4507731
0.44720895
0.44379103
0.44051009
0.43735745
0.43432491
0.43140336
0.42858505
0.42586233
0.42322682
0.42067075
0.41818764
0.41577194
0.41341765
0.41111958
0.40887449
0.40668077
0.40453827
0.40244846
0.40041462
0.39844181
0.3965369
0.39470876
0.39296848
0.3913293
0.38980691
0.38841841
0.38718476
0.38613396
0.38529201
0.38468457
0.38433743
0.38427717
0.38453186
0.38513136
0.38610682
0.38748925
0.38930849
0.39159288
0.39437054
0.39767167
0.40153077
0.40598522
0.41107152
0.41681581
0.42321626
0.4303107
0.43776546
0.44696531
3.8336779
3.1320721
2.6403888
2.2868575
2.02275
1.8182883
1.6552594
1.5221409
1.4113363
1.3176379
1.2373527
1.1677858
1.1069224
1.0532253
1.0055002
0.96280507
0.92438671
0.88963547
0.8580526
0.8292261
0.80281264
0.77852382
0.75611558
0.73538008
0.71613915
0.69823929
0.68154746
0.6659479
0.65133936
0.63763296
0.62475035
0.61262225
0.60118716
0.59039033
0.58018288
0.57052104
0.5613655
0.55268089
0.54443526
0.53659974
0.52914809
0.5220565
0.51530322
0.50886837
0.50273375
0.49688259
0.4912994
0.48596985
0.48088052
0.47601889
0.47137311
0.46693196
0.46268481
0.45862149
0.45473217
0.45100715
0.44743723
0.44401305
0.44072544
0.4375657
0.43452554
0.43159607
0.42876926
0.42603728
0.42339177
0.42082479
0.41832942
0.4158997
0.41352981
0.41121468
0.40895081
0.40673623
0.40457039
0.40245436
0.40039092
0.3983846
0.3964417
0.39457059
0.39278181
0.39108803
0.38950407
0.38804675
0.38673477
0.38558763
0.38462771
0.38388059
0.38337421
0.38313775
0.38320061
0.3835918
0.38433972
0.38547216
0.38701598
0.3889967
0.391438
0.39436185
0.39779003
0.40174609
0.4062565
0.41135293
0.41704937
0.42343019
0.43019457
0.43872331
3.8339051
3.1325264
2.6409397
2.2874399
2.0233341
1.818861
1.6558152
1.5226781
1.4118547
1.3181381
1.2378357
1.1682526
1.1073743
1.0536633
1.0059253
0.96321823
0.9247888
0.89002726
0.85843482
0.8295994
0.80317761
0.77888098
0.75646543
0.73572306
0.71647566
0.69856969
0.68187209
0.66626705
0.65165332
0.63794197
0.62505465
0.61292205
0.60148264
0.59068167
0.58047023
0.57080453
0.56164526
0.55295701
0.54470783
0.53686883
0.52941376
0.52231877
0.51556209
0.50912385
0.5029858
0.49713116
0.49154443
0.48621124
0.48111819
0.4762527
0.47160292
0.46715761
0.46290609
0.45883818
0.45494402
0.45121393
0.44763864
0.4442088
0.44091523
0.43774909
0.43470188
0.43176476
0.42892945
0.426188
0.42353214
0.420954
0.41844652
0.41600354
0.41361913
0.4112881
0.40900661
0.40677228
0.40458419
0.40244298
0.40035092
0.39831208
0.39633214
0.39441883
0.39258197
0.39083338
0.38918693
0.38765809
0.38626521
0.38503082
0.38397743
0.38312848
0.38250814
0.38214137
0.38205392
0.38227227
0.38282323
0.38373364
0.3850296
0.38673594
0.38887581
0.39146999
0.39453657
0.39809176
0.40215052
0.40673212
0.4118428
0.41756327
0.42363754
0.4313229
3.8341312
3.1329703
2.6414759
2.2880059
2.0239014
1.819417
1.6563549
1.5231996
1.412358
1.3186238
1.2383048
1.1687062
1.1078135
1.0540891
1.0063388
0.96362033
0.92518035
0.89040905
0.85880757
0.82996377
0.80353419
0.77923033
0.75680805
0.7360594
0.71680615
0.69889471
0.68219199
0.66658216
0.65196392
0.63824834
0.62535701
0.61322062
0.60177763
0.59097324
0.58075855
0.57108973
0.56192746
0.55323631
0.54498431
0.53714255
0.52968476
0.52258707
0.51582771
0.50938675
0.50324596
0.49738853
0.49179894
0.48646281
0.48136672
0.47649807
0.47184499
0.46739624
0.46314112
0.45906941
0.4551712
0.45143682
0.44785692
0.44442216
0.44112337
0.43795165
0.43489844
0.43195495
0.42911279
0.42636392
0.42370007
0.4211133
0.41859637
0.41614285
0.41374675
0.41140279
0.40910696
0.40685663
0.40465056
0.40248902
0.4003739
0.39830881
0.39629896
0.39435158
0.39247593
0.39068319
0.38898666
0.38740121
0.38594373
0.38463324
0.38349032
0.38253768
0.38179961
0.38130133
0.38106845
0.38112649
0.38150046
0.38221486
0.38329346
0.38475902
0.38663283
0.38893449
0.39168154
0.39488898
0.39856888
0.40273289
0.40738089
0.41257128
0.41808338
0.42499021
3.8343559
3.1334041
2.6419979
2.2885563
2.0244527
1.8199573
1.6568792
1.5237063
1.4128471
1.3190959
1.2387608
1.1691472
1.1082406
1.0545033
1.0067411
0.9640116
0.92556142
0.89078068
0.85917043
0.83031849
0.80388135
0.77957043
0.75714156
0.73638676
0.71712774
0.69921089
0.68250309
0.66688847
0.65226571
0.63854586
0.62565049
0.61351024
0.60206359
0.59125572
0.58103769
0.57136568
0.56220033
0.55350619
0.54525131
0.53740672
0.52994617
0.52284575
0.51608368
0.50964002
0.50349651
0.49763634
0.49204397
0.48670501
0.481606
0.47673436
0.4720782
0.46762626
0.46336781
0.45929262
0.45539076
0.45165255
0.44806861
0.44462962
0.44132637
0.43814995
0.43509167
0.43214275
0.42929469
0.4265393
0.42386837
0.42127394
0.41874865
0.41628591
0.41387964
0.41152448
0.40921618
0.40695183
0.40472987
0.40255022
0.40041438
0.39832551
0.39628837
0.39430965
0.39239814
0.39056428
0.38882057
0.38718117
0.38566227
0.38428339
0.3830647
0.38202755
0.38119439
0.3805883
0.3802329
0.38015211
0.38036982
0.38090943
0.38179356
0.38304374
0.38468
0.38672067
0.38918216
0.39207864
0.39542226
0.39922232
0.40347923
0.40823556
0.41329934
0.41957898
3.8345808
3.1338288
2.6425068
2.2890919
2.0249888
1.8204825
1.6573888
1.5241989
1.4133225
1.3195549
1.2392043
1.1695762
1.1086561
1.0549065
1.0071328
0.9643927
0.92593275
0.89114298
0.85952438
0.8306647
0.80422037
0.77990278
0.75746771
0.73670713
0.71744274
0.69952087
0.68280838
0.66718937
0.6525625
0.63883877
0.62593976
0.6137961
0.60234619
0.59153525
0.58131431
0.57163952
0.56247151
0.55377484
0.5455175
0.53767053
0.53020764
0.52310495
0.51634062
0.50989472
0.50374897
0.49788654
0.49229188
0.48695059
0.48184921
0.47697513
0.47231647
0.46786195
0.46360083
0.45952286
0.45561811
0.45187686
0.44828973
0.44484739
0.44154063
0.4383605
0.43529826
0.43234514
0.42949258
0.4267323
0.42405606
0.42145592
0.41892438
0.4164547
0.41404068
0.41167685
0.4093588
0.40708338
0.40484875
0.40265452
0.40050183
0.39839345
0.39633374
0.39432892
0.3923873
0.39051882
0.38873532
0.38705042
0.38547939
0.38403999
0.38275123
0.38163378
0.38070953
0.38000118
0.37953173
0.37932419
0.37940125
0.37978485
0.38049618
0.38155532
0.38298101
0.38479022
0.38699819
0.38961795
0.39266136
0.3961366
0.40004597
0.40442439
0.40910426
0.41487348
3.8348024
3.1342428
2.6430017
2.2896124
2.0255097
1.8209928
1.657884
1.5246776
1.4137846
1.3200011
1.2396355
1.1699936
1.1090606
1.055299
1.0075142
0.96476401
0.92629468
0.89149624
0.85986963
0.83100252
0.80455132
0.78022736
0.75778636
0.73702026
0.71775073
0.69982406
0.68310708
0.66748388
0.65285308
0.63912568
0.62622321
0.61407629
0.60262333
0.59180946
0.58158577
0.57190837
0.56273788
0.55403885
0.54577925
0.53793011
0.53046513
0.52336039
0.51659407
0.51014622
0.50399853
0.49813416
0.49253758
0.48719436
0.48209105
0.47721501
0.47255437
0.46809784
0.46383468
0.45975462
0.4558477
0.45210424
0.44851482
0.44507011
0.44176092
0.43857825
0.43551333
0.43255737
0.42970175
0.42693813
0.42425824
0.42165406
0.41911803
0.41664334
0.41422366
0.41185339
0.40952793
0.4072439
0.40499919
0.40279307
0.40062635
0.39850141
0.39642223
0.39439452
0.39242616
0.39052657
0.38870695
0.3869804
0.38536155
0.38386778
0.3825175
0.38133043
0.3803274
0.37953005
0.37896021
0.37863981
0.37859056
0.37883362
0.37938922
0.38027644
0.38151304
0.3831151
0.38509686
0.38747012
0.39024589
0.39343125
0.39702956
0.40107093
0.40540716
0.41073516
3.8350239
3.1346482
2.6434841
2.2901189
2.0260162
1.8214888
1.6583654
1.5251429
1.414234
1.3204352
1.2400552
1.1703998
1.1094544
1.0556813
1.007886
0.96512609
0.9266478
0.8918411
0.86020687
0.83133272
0.80487501
0.78054502
0.75809844
0.73732717
0.71805284
0.70012171
0.68340061
0.66777356
0.65313919
0.63940845
0.62650288
0.61435306
0.60289739
0.59208101
0.58185491
0.5721753
0.56300273
0.55430174
0.54604029
0.53818942
0.53072279
0.52361649
0.51684868
0.51039937
0.50425029
0.49838458
0.49278668
0.48744218
0.48233761
0.47746037
0.47279854
0.46834085
0.46407655
0.45999537
0.45608735
0.45234281
0.44875231
0.44530655
0.44199632
0.43881263
0.43574665
0.43278959
0.42993281
0.42716789
0.42448653
0.42188066
0.41934268
0.41686555
0.41444295
0.41206908
0.40973918
0.40744963
0.40519804
0.4029834
0.40080614
0.39866828
0.39657344
0.39452682
0.39253587
0.39060966
0.3887588
0.38699584
0.38533482
0.38379208
0.38238523
0.38113335
0.3800567
0.37917629
0.37851352
0.3780896
0.37792534
0.37804097
0.37845581
0.37918807
0.3802546
0.38167056
0.38344954
0.38560243
0.38813953
0.39106665
0.39438727
0.39812771
0.40215567
0.40708971
3.8352407
3.1350425
2.6439528
2.2906109
2.0265082
1.8219708
1.6588332
1.5255953
1.4146711
1.3208575
1.2404637
1.1707954
1.1098381
1.056054
1.0082487
0.96547945
0.92699263
0.89217808
0.86053661
0.83165581
0.80519195
0.78085629
0.75840448
0.73762838
0.71834958
0.70041433
0.68368941
0.66805885
0.65342121
0.63968747
0.62677912
0.61462674
0.6031687
0.59235014
0.58212204
0.57244053
0.56326625
0.5545637
0.54630083
0.53844866
0.53098087
0.5238735
0.51710472
0.51065456
0.5045047
0.49863831
0.49303982
0.48769482
0.48258985
0.4777123
0.47305027
0.46859248
0.4643282
0.46024715
0.45633938
0.45259522
0.44900524
0.44556012
0.4422507
0.43906796
0.43600306
0.43304717
0.43019164
0.42742798
0.42474786
0.42214316
0.41960618
0.41712977
0.41470738
0.4123331
0.41000211
0.40771044
0.40545542
0.40323568
0.4010513
0.39890391
0.3967967
0.39473458
0.39272436
0.39077473
0.38889591
0.38709986
0.38540016
0.38381261
0.38235426
0.38104357
0.37990012
0.3789442
0.37819644
0.37767742
0.37740759
0.37740635
0.37769228
0.37828286
0.37919433
0.3804412
0.3820365
0.38399039
0.38631268
0.38900838
0.39208077
0.39555261
0.39930544
0.40388678
3.8354571
3.1354285
2.6444097
2.2910897
2.0269868
1.8224395
1.6592882
1.5260355
1.4150964
1.3212687
1.2408615
1.1711809
1.1102122
1.0564177
1.0086028
0.96582473
0.92732983
0.89250787
0.8608596
0.83197256
0.80550297
0.78116206
0.75870542
0.7379249
0.71864205
0.70070309
0.68397477
0.66834111
0.65370065
0.63996433
0.62705366
0.61489918
0.60343925
0.592619
0.58238941
0.5727066
0.56353112
0.55482757
0.5465639
0.53871108
0.5312428
0.5241351
0.51736614
0.51091595
0.50476622
0.49890011
0.49330206
0.48795768
0.48285351
0.47797695
0.47331611
0.46885974
0.46459711
0.46051795
0.45661235
0.45287063
0.44928338
0.44584132
0.44253529
0.43935626
0.43629539
0.43334383
0.43049288
0.42773403
0.42505887
0.42245923
0.4199273
0.41745578
0.41503794
0.4126677
0.41033983
0.40805034
0.40579611
0.40357541
0.40138796
0.39923497
0.39711928
0.39504522
0.39301924
0.3910496
0.38914601
0.38732009
0.38558492
0.38395562
0.38244869
0.38108209
0.37987499
0.3788473
0.37801919
0.3774108
0.37704188
0.37693139
0.37709767
0.37755732
0.37832601
0.3794178
0.38084527
0.3826181
0.38474556
0.38723202
0.39008073
0.39331142
0.39681792
0.40108332
3.8356687
3.1358039
2.6448535
2.2915547
2.0274516
1.8228949
1.6597305
1.5264636
1.4155104
1.3216691
1.2412493
1.1715569
1.1105774
1.056773
1.0089489
0.96616261
0.92766013
0.89283125
0.86117666
0.83228385
0.80580901
0.78146331
0.75900232
0.73821785
0.71893142
0.70098923
0.68425801
0.66862175
0.65397898
0.64024063
0.62732817
0.61517216
0.60371094
0.59288962
0.58265918
0.57297574
0.56379985
0.555096
0.54683227
0.53897964
0.53151178
0.52440472
0.51763663
0.51118755
0.50503915
0.49917464
0.49357846
0.48823623
0.48313453
0.47826076
0.47360309
0.46915026
0.4648916
0.46081685
0.45691612
0.4531798
0.44959847
0.44616289
0.44286391
0.43969253
0.43663987
0.43369709
0.43085543
0.42810632
0.42544127
0.422852
0.42033056
0.41786947
0.41546175
0.41310109
0.41078196
0.40849986
0.40625134
0.40403455
0.40184861
0.39969428
0.3975739
0.39549145
0.39345284
0.39146592
0.38954005
0.38768641
0.3859177
0.38424853
0.382695
0.38127473
0.38000643
0.37890967
0.37800411
0.3773102
0.3768465
0.37663203
0.3766834
0.37701977
0.37765567
0.37860345
0.37987503
0.38148015
0.38342819
0.38572323
0.38836851
0.39138089
0.39466519
0.39864587
3.8358776
3.1361701
2.6452854
2.2920069
2.0279036
1.8233379
1.6601609
1.5268803
1.4159136
1.3220594
1.2416275
1.171924
1.1109343
1.0571206
1.009288
0.966494
0.9279845
0.89314926
0.86148891
0.8325909
0.80611137
0.78176145
0.7592967
0.73850886
0.71921946
0.70127467
0.68454118
0.66890298
0.65425859
0.64051891
0.62760542
0.61544866
0.60398695
0.59316543
0.58293506
0.57325193
0.56407663
0.55537366
0.54711094
0.53925967
0.5317935
0.52468847
0.51792273
0.51147636
0.50533105
0.49947002
0.49387777
0.48853994
0.48344314
0.47857484
0.47392321
0.46947708
0.46522578
0.46115913
0.45726729
0.45354067
0.44996991
0.4465458
0.44325922
0.44010117
0.43706274
0.43413507
0.43130934
0.42857687
0.42592904
0.42335742
0.42085384
0.41841054
0.41602026
0.41367633
0.41137285
0.40910487
0.40686855
0.40466119
0.40248197
0.40033093
0.39820997
0.39612265
0.3940744
0.39207262
0.39012638
0.38824653
0.38644542
0.38473709
0.38313727
0.38166336
0.38033374
0.37916807
0.37818591
0.37740466
0.37686097
0.37647045
0.37650103
0.37670357
0.37720144
0.37800594
0.37912898
0.38057861
0.3823616
0.38448044
0.38693821
0.38975003
0.39283155
0.39655215
3.8360821
3.1365264
2.645705
2.2924462
2.0283429
1.8237685
1.6605796
1.5272861
1.4163066
1.3224402
1.241997
1.1722831
1.1112838
1.0574615
1.0096211
0.96682001
0.92830418
0.89346325
0.86179783
0.83289531
0.80641179
0.78205837
0.75959058
0.73880015
0.71950856
0.70156197
0.68482707
0.66918782
0.65454272
0.64080269
0.62788918
0.61573273
0.60427168
0.59345114
0.5832221
0.57354064
0.56436736
0.55566677
0.54740686
0.53955858
0.53209592
0.52499484
0.51823358
0.51179224
0.50565257
0.49979781
0.49421254
0.48888242
0.48379415
0.47893523
0.47429393
0.46985913
0.46562024
0.46156714
0.45769006
0.45397946
0.45042605
0.44702063
0.44375412
0.44061749
0.4376018
0.43469809
0.43189742
0.42919094
0.42656983
0.42402538
0.42154912
0.41913294
0.41676915
0.41445064
0.41217103
0.40992484
0.4077077
0.40551644
0.40334932
0.40120601
0.39908851
0.39699968
0.39494439
0.39292962
0.39096424
0.38905874
0.38722523
0.38547731
0.38383046
0.38230185
0.38090983
0.3796737
0.37861365
0.37774608
0.37710254
0.37666774
0.37650853
0.37662545
0.3769991
0.37766749
0.37864511
0.37994398
0.38156917
0.38352124
0.38580245
0.38842613
0.39131881
0.39479656
3.8362835
3.1368739
2.6461135
2.2928737
2.0287704
1.8241879
1.6609877
1.527682
1.4166903
1.3228125
1.2423587
1.1726352
1.1116272
1.057797
1.0099496
0.96714225
0.92862089
0.89377512
0.86210548
0.83319933
0.80671274
0.78235677
0.75988693
0.73909492
0.71980221
0.70185494
0.68511979
0.66948071
0.65483621
0.64109719
0.62818511
0.61603051
0.60457174
0.59375391
0.58352804
0.57385022
0.56468108
0.55598513
0.54773039
0.53988791
0.53243144
0.525337
0.51858342
0.51215065
0.50602047
0.50017618
0.49460242
0.48928497
0.48421061
0.47936694
0.47474231
0.4703257
0.46610662
0.46207504
0.45822125
0.45453579
0.45100939
0.44763287
0.44439711
0.44129302
0.43831152
0.43544349
0.43267978
0.43001122
0.42742868
0.42492307
0.42248548
0.42010731
0.41778036
0.41549697
0.41325018
0.41103393
0.40884327
0.40667445
0.40452516
0.40239469
0.40028384
0.39819612
0.39613571
0.39410914
0.392125
0.39019373
0.38832721
0.38653848
0.38484281
0.38325728
0.38180031
0.38049104
0.37934966
0.37839454
0.37764853
0.37712647
0.37683906
0.37680231
0.37707025
0.37761742
0.37845891
0.37960813
0.38107809
0.38287014
0.38498488
0.38743178
0.39014792
0.39339472
3.8364806
3.1372122
2.6465108
2.2932894
2.0291864
1.8245965
1.6613857
1.5280686
1.4170658
1.3231774
1.242714
1.1729817
1.1119659
1.0581288
1.0102754
0.96746283
0.92893701
0.89408748
0.86241476
0.83350616
0.80701773
0.7826605
0.76018996
0.73939779
0.72010546
0.7021591
0.68542537
0.66978823
0.65514619
0.64141016
0.62850161
0.6163511
0.604897
0.59408445
0.58386447
0.57419323
0.56503135
0.55634342
0.54809749
0.54026469
0.53281881
0.52573606
0.51899464
0.51257556
0.5064605
0.50063286
0.49507737
0.48977994
0.48472744
0.47990761
0.47530891
0.47092043
0.4667318
0.46273305
0.45891453
0.45526679
0.45178052
0.44844648
0.44525543
0.44219807
0.4392651
0.43644708
0.43373448
0.43111771
0.42858717
0.42613324
0.42374646
0.42141764
0.41913796
0.41689915
0.41469364
0.41251477
0.41035698
0.40821599
0.40608898
0.40397474
0.4018738
0.39978861
0.39772331
0.39568536
0.3936824
0.39172468
0.38982406
0.38799308
0.38624685
0.38460234
0.38307792
0.38169291
0.3804673
0.37942094
0.37857345
0.37794427
0.37754999
0.37739793
0.37751855
0.37792379
0.37862251
0.37962386
0.38093849
0.38256984
0.38452231
0.38680032
0.38935043
0.3923763
3.8366749
3.1375425
2.646898
2.2936947
2.0295922
1.8249954
1.6617749
1.5284473
1.4174343
1.3235365
1.2430645
1.1733246
1.1123022
1.0584594
1.0106013
0.96778481
0.92925593
0.89440413
0.86272989
0.83382049
0.80733195
0.7829753
0.76050599
0.73971572
0.72042594
0.70248278
0.68575292
0.67012031
0.65548351
0.64175342
0.62885156
0.6167085
0.60526266
0.59445923
0.58424928
0.57458904
0.5654392
0.55676442
0.54853285
0.54071569
0.53328685
0.52622263
0.5195015
0.51310363
0.50701213
0.50121031
0.49568303
0.49041628
0.48539707
0.48061328
0.47605352
0.47170697
0.46756327
0.46361247
0.45984488
0.45625093
0.45282118
0.44954616
0.44641634
0.44342208
0.44055366
0.43780116
0.43515452
0.43260359
0.43013815
0.42774798
0.42542297
0.42315331
0.42092953
0.41874276
0.41658484
0.41444854
0.41232781
0.4102179
0.40811559
0.40601931
0.40392929
0.4018477
0.39977867
0.39772846
0.39570486
0.3937198
0.39178425
0.38991008
0.38811224
0.38640762
0.38481454
0.3833524
0.38204122
0.38090131
0.37995233
0.37921332
0.37870247
0.37843496
0.37842592
0.37869072
0.37924252
0.38009174
0.38124825
0.38271646
0.38449993
0.38660351
0.38898676
0.39178657
3.8368658
3.1378649
2.6472755
2.2940899
2.0299885
1.8253856
1.6621564
1.5288195
1.4177975
1.3238915
1.2434124
1.1736663
1.1126389
1.0587922
1.010931
0.96811255
0.9295826
0.89473064
0.86305711
0.83414928
0.80766316
0.78330977
0.76084455
0.74005921
0.72077522
0.7028387
0.68611639
0.67049224
0.65586485
0.64214518
0.62925479
0.61712431
0.60569224
0.59490383
0.58471024
0.57506779
0.56593729
0.5572835
0.54907471
0.54128223
0.53388014
0.52684488
0.52015503
0.51379117
0.5077352
0.50197234
0.49648697
0.49126548
0.48629507
0.48156369
0.47705994
0.47277291
0.46869215
0.46480754
0.46110921
0.45758732
0.45423209
0.45103365
0.44798198
0.44506691
0.44227812
0.43960508
0.43703708
0.43456333
0.43217295
0.42985508
0.427599
0.4253943
0.42323096
0.4210996
0.4189916
0.41689933
0.41481639
0.41273773
0.41065986
0.40858103
0.40650131
0.4044227
0.4023493
0.40028716
0.39824439
0.39623075
0.39426024
0.39234331
0.39049455
0.38873086
0.3870705
0.38553282
0.38413793
0.38290624
0.38185776
0.38101149
0.38038535
0.37999628
0.3798597
0.37999008
0.38040077
0.38110251
0.38210476
0.38341206
0.38502873
0.38695729
0.38917464
0.3917377
3.8370539
3.1381801
2.6476442
2.2944762
2.0303764
1.8257685
1.6625319
1.5291871
1.4181577
1.3242453
1.2437609
1.1740108
1.1129805
1.0591321
1.0112704
0.96845265
0.92992451
0.89507547
0.86340595
0.83450322
0.8080233
0.78367719
0.76122038
0.74044458
0.72117129
0.70324669
0.68653753
0.67092787
0.65631634
0.64261398
0.62974243
0.61763244
0.60622258
0.59545824
0.58529069
0.57567639
0.56657628
0.55795529
0.54978183
0.54202741
0.53466624
0.52767492
0.52103221
0.51471873
0.5087168
0.50301032
0.49758385
0.49242643
0.48752426
0.48286498
0.47843686
0.47422881
0.47023017
0.46643053
0.46281959
0.45938704
0.45612252
0.45301555
0.45005547
0.44723144
0.44453248
0.44194739
0.43946484
0.43707341
0.43476166
0.4325182
0.43033181
0.42819167
0.42608739
0.42400927
0.42194846
0.41989715
0.41784877
0.41579819
0.41374184
0.41167795
0.40960655
0.40752965
0.40545129
0.40337757
0.40131644
0.39927793
0.3972742
0.39531562
0.39341995
0.39160231
0.38988051
0.38827376
0.3868022
0.38548626
0.38434606
0.38340068
0.38266788
0.38216442
0.38190633
0.38190871
0.38218535
0.38274718
0.3836031
0.38475701
0.38621351
0.3879717
0.39002956
0.39234873
3.8372389
3.1384884
2.6480047
2.2948544