/*--------------------------------*- C++ -*----------------------------------*\
| =========                 |                                                 |
| \\      /  F ield         | OpenFOAM: The Open Source CFD Toolbox           |
|  \\    /   O peration     | Version:  2406                                  |
|   \\  /    A nd           | Website:  www.openfoam.com                      |
|    \\/     M anipulation  |                                                 |
\*---------------------------------------------------------------------------*/
FoamFile
{
    version     2.0;
    format      ascii;
    arch        "LSB;label=32;scalar=64";
    class       surfaceScalarField;
    location    "600";
    object      phi;
}
// * * * * * * * * * * * * * * * * * * * * * * * * * * * * * * * * * * * * * //

dimensions      [1 0 -1 0 0 0 0];

oriented        oriented;

internalField   nonuniform List<scalar> 
264541
(
1.8050276e-05
-1.9214464e-07
2.0304947e-07
1.803492e-05
-2.5878965e-07
2.741447e-07
1.8015972e-05
-3.4606025e-07
3.6500867e-07
1.7993285e-05
-4.2912385e-07
4.5181117e-07
1.7967234e-05
-5.0903617e-07
5.3508799e-07
1.793796e-05
-5.8734975e-07
6.1662369e-07
1.7905499e-05
-6.6321345e-07
6.9567518e-07
1.7869922e-05
-7.3677154e-07
7.7234813e-07
1.7831289e-05
-8.0848715e-07
8.4712031e-07
1.7789638e-05
-8.786602e-07
9.2031153e-07
1.7744999e-05
-9.4756985e-07
9.9220913e-07
1.7697396e-05
-1.0154908e-06
1.0630941e-06
1.7646841e-05
-1.0826608e-06
1.1332155e-06
1.7593343e-05
-1.1492881e-06
1.2027865e-06
1.7536901e-05
-1.2155516e-06
1.2719938e-06
1.747751e-05
-1.2816043e-06
1.3409955e-06
1.7415159e-05
-1.3475752e-06
1.4099267e-06
1.7349833e-05
-1.4135705e-06
1.4788955e-06
1.7281516e-05
-1.4796744e-06
1.5479918e-06
1.7210186e-05
-1.5459554e-06
1.6172849e-06
1.7135823e-05
-1.612462e-06
1.6868258e-06
1.70584e-05
-1.6792255e-06
1.756648e-06
1.6977895e-05
-1.7462613e-06
1.8267662e-06
1.6894283e-05
-1.8135708e-06
1.8971827e-06
1.680754e-05
-1.8811387e-06
1.9678824e-06
1.6717642e-05
-1.9489359e-06
2.0388338e-06
1.6624568e-05
-2.0169192e-06
2.1099935e-06
1.6528297e-05
-2.0850314e-06
2.1813018e-06
1.6428812e-05
-2.1532018e-06
2.2526873e-06
1.6326097e-05
-2.2213499e-06
2.3240642e-06
1.6220142e-05
-2.2893771e-06
2.3953321e-06
1.611094e-05
-2.357178e-06
2.4663796e-06
1.5998492e-05
-2.4246342e-06
2.5370827e-06
1.5882801e-05
-2.491612e-06
2.6073031e-06
1.5763879e-05
-2.5579658e-06
2.6768874e-06
1.5641746e-05
-2.6235322e-06
2.7456651e-06
1.5516429e-05
-2.6881325e-06
2.8134496e-06
1.5387964e-05
-2.7515724e-06
2.8800375e-06
1.5256396e-05
-2.8136364e-06
2.9452048e-06
1.5121778e-05
-2.8740917e-06
3.0087093e-06
1.4984176e-05
-2.9326895e-06
3.0702913e-06
1.4843666e-05
-2.9891628e-06
3.1296731e-06
1.4700333e-05
-3.0432277e-06
3.186561e-06
1.4554273e-05
-3.0945879e-06
3.2406473e-06
1.4405599e-05
-3.1429326e-06
3.2916078e-06
1.4254429e-05
-3.1879415e-06
3.3391109e-06
1.4100899e-05
-3.2292827e-06
3.3828125e-06
1.3945158e-05
-3.2666171e-06
3.4223586e-06
1.3787368e-05
-3.2995978e-06
3.4573882e-06
1.3627706e-05
-3.3278699e-06
3.4875309e-06
1.3466335e-05
-3.3510268e-06
3.5123978e-06
1.3303411e-05
-3.3687076e-06
3.5316317e-06
1.313928e-05
-3.3809424e-06
3.5450739e-06
1.2974177e-05
-3.3871217e-06
3.5522248e-06
1.2808401e-05
-3.3868576e-06
3.5526333e-06
1.2642268e-05
-3.3796503e-06
3.5457831e-06
1.2475765e-05
-3.365105e-06
3.531608e-06
1.2309308e-05
-3.3435437e-06
3.5100013e-06
1.2143333e-05
-3.3141192e-06
3.480094e-06
1.1977568e-05
-3.2757082e-06
3.4414732e-06
1.1814007e-05
-3.2308812e-06
3.3944421e-06
1.16516e-05
-3.1751448e-06
3.3375522e-06
1.1491079e-05
-3.1156179e-06
3.2761386e-06
1.1333124e-05
-3.0424559e-06
3.2004109e-06
1.117894e-05
-2.9598144e-06
3.1139984e-06
1.1028244e-05
-2.8678284e-06
3.0185243e-06
1.087877e-05
-2.7699767e-06
2.9194504e-06
1.073411e-05
-2.659821e-06
2.8044818e-06
1.059344e-05
-2.5383847e-06
2.6790541e-06
1.045788e-05
-2.4098856e-06
2.545446e-06
1.0328139e-05
-2.2729731e-06
2.402714e-06
1.020455e-05
-2.1270751e-06
2.2506645e-06
1.0087507e-05
-1.972375e-06
2.089418e-06
9.9774651e-06
-1.8091855e-06
1.919227e-06
9.8749235e-06
-1.637867e-06
1.7404086e-06
9.7803935e-06
-1.4587854e-06
1.5533152e-06
9.6943819e-06
-1.2723497e-06
1.3583613e-06
9.6173837e-06
-1.0790395e-06
1.1560377e-06
9.5498801e-06
-8.7940857e-07
9.4691223e-07
9.4923484e-06
-6.7407353e-07
7.316052e-07
9.4453079e-06
-4.6374581e-07
5.1078621e-07
9.409175e-06
-2.4904166e-07
2.8517456e-07
9.3849889e-06
-3.1295444e-08
5.5481586e-08
9.3742534e-06
1.8866499e-07
-1.7792952e-07
9.3775307e-06
4.1058414e-07
-4.1386138e-07
9.3949654e-06
6.3437089e-07
-6.518056e-07
9.426361e-06
8.5979347e-07
-8.911891e-07
9.4713578e-06
1.0864082e-06
-1.1314049e-06
9.5296027e-06
1.3135835e-06
-1.3718285e-06
9.6009002e-06
1.5405628e-06
-1.6118603e-06
9.6852661e-06
1.7665337e-06
-1.8508995e-06
9.7828814e-06
1.9906849e-06
-2.0883003e-06
9.8939926e-06
2.2122313e-06
-2.3233425e-06
1.0018811e-05
2.4304255e-06
-2.5552434e-06
1.0157423e-05
2.6445684e-06
-2.7831809e-06
1.0309797e-05
2.8539613e-06
-3.0063351e-06
1.0475729e-05
3.057885e-06
-3.2238175e-06
1.0655037e-05
3.2555823e-06
-3.4348897e-06
1.0847136e-05
3.4463481e-06
-3.6384472e-06
1.1051892e-05
3.62975e-06
-3.8345061e-06
1.1267441e-05
3.8044243e-06
-4.0199735e-06
1.1493343e-05
3.9746942e-06
-4.2005955e-06
1.1726102e-05
4.1193851e-06
-4.3521446e-06
4.3355274e-06
1.1946816e-05
-4.5562414e-06
1.7389081e-05
-1.8154616e-07
1.7374311e-05
-2.4402e-07
1.735608e-05
-3.2782912e-07
1.7334253e-05
-4.0729715e-07
1.7309214e-05
-4.8399772e-07
1.7281091e-05
-5.5922657e-07
1.7249916e-05
-6.3203824e-07
1.721576e-05
-7.0261536e-07
1.717868e-05
-7.7140752e-07
1.7138714e-05
-8.3869476e-07
1.7095893e-05
-9.0474857e-07
1.7050239e-05
-9.6983653e-07
1.7001765e-05
-1.0341874e-06
1.695048e-05
-1.0980025e-06
1.6896383e-05
-1.1614544e-06
1.6839469e-05
-1.2246908e-06
1.6779729e-05
-1.2878353e-06
1.671715e-05
-1.3509911e-06
1.6651714e-05
-1.414239e-06
1.6583404e-05
-1.477645e-06
1.6512197e-05
-1.5412549e-06
1.6438071e-05
-1.6050996e-06
1.6361004e-05
-1.6691942e-06
1.6280971e-05
-1.7335384e-06
1.6197951e-05
-1.798118e-06
1.6111919e-05
-1.8629047e-06
1.6022857e-05
-1.9278568e-06
1.5930745e-05
-1.9929192e-06
1.5835566e-05
-2.0580232e-06
1.5737307e-05
-2.1230912e-06
1.563596e-05
-2.1880298e-06
1.5531518e-05
-2.252736e-06
1.542398e-05
-2.3170965e-06
1.5313352e-05
-2.3809839e-06
1.5199645e-05
-2.4442588e-06
1.5082879e-05
-2.5067665e-06
1.4963082e-05
-2.5683348e-06
1.4840288e-05
-2.6287787e-06
1.4714543e-05
-2.6878912e-06
1.4585901e-05
-2.7454498e-06
1.4454427e-05
-2.8012157e-06
1.4320197e-05
-2.8549325e-06
1.4183296e-05
-2.906327e-06
1.404382e-05
-2.9551116e-06
1.3901876e-05
-3.0009886e-06
1.3757584e-05
-3.0436498e-06
1.3611079e-05
-3.0827776e-06
1.3462508e-05
-3.1180458e-06
1.3312033e-05
-3.1491227e-06
1.315983e-05
-3.1756675e-06
1.3006094e-05
-3.1972909e-06
1.2850983e-05
-3.2135966e-06
1.2694706e-05
-3.2246654e-06
1.2537524e-05
-3.2299393e-06
1.237973e-05
-3.229064e-06
1.222177e-05
-3.2216903e-06
1.2063923e-05
-3.2072582e-06
1.1906202e-05
-3.1858221e-06
1.1748935e-05
-3.1568522e-06
1.1592849e-05
-3.119622e-06
1.1437555e-05
-3.0755873e-06
1.1284363e-05
-3.0219529e-06
1.1131789e-05
-2.9630442e-06
1.0982095e-05
-2.8927613e-06
1.0835495e-05
-2.813215e-06
1.0692325e-05
-2.7246578e-06
1.0551702e-05
-2.6293545e-06
1.0416043e-05
-2.5241616e-06
1.0285708e-05
-2.40805e-06
1.0160123e-05
-2.2843007e-06
1.0039746e-05
-2.1525954e-06
9.9251541e-06
-2.0124837e-06
9.8168783e-06
-1.8640992e-06
9.7154117e-06
-1.707719e-06
9.6212328e-06
-1.5436881e-06
9.5348167e-06
-1.3723693e-06
9.4566394e-06
-1.1941724e-06
9.3871725e-06
-1.0095726e-06
9.3268813e-06
-8.1911743e-07
9.2762048e-06
-6.2339702e-07
9.2355411e-06
-4.2308209e-07
9.2053077e-06
-2.1880825e-07
9.1852113e-06
-1.1199066e-08
9.174625e-06
1.9925122e-07
9.1738687e-06
4.1134051e-07
9.1838455e-06
6.2439407e-07
9.2057296e-06
8.3790937e-07
9.2407008e-06
1.0514369e-06
9.2897191e-06
1.2645652e-06
9.3533898e-06
1.4768921e-06
9.4319459e-06
1.6879777e-06
9.5253128e-06
1.897318e-06
9.6332149e-06
2.1043292e-06
9.7552747e-06
2.3083657e-06
9.8910738e-06
2.5087694e-06
1.0040182e-05
2.7048529e-06
1.020215e-05
2.8959172e-06
1.037657e-05
3.0811621e-06
1.0563001e-05
3.2599177e-06
1.0761223e-05
3.4315279e-06
1.0970751e-05
3.5948964e-06
1.1192206e-05
3.7532392e-06
1.1422647e-05
3.8889442e-06
4.072531e-06
1.1685643e-05
1.675217e-05
-1.7122203e-07
1.6737957e-05
-2.2980508e-07
1.6720394e-05
-3.1026588e-07
1.6699363e-05
-3.8626626e-07
1.6675252e-05
-4.5988544e-07
1.6648169e-05
-5.3214382e-07
1.6618145e-05
-6.0201403e-07
1.6585248e-05
-6.6971789e-07
1.6549531e-05
-7.3569114e-07
1.6511031e-05
-8.0019475e-07
1.6469777e-05
-8.6349369e-07
1.6425789e-05
-9.25849e-07
1.6379082e-05
-9.8748031e-07
1.6329662e-05
-1.0485821e-06
1.6277531e-05
-1.1093228e-06
1.6222683e-05
-1.169843e-06
1.616511e-05
-1.2302626e-06
1.6104801e-05
-1.2906815e-06
1.6041738e-05
-1.3511767e-06
1.5975906e-05
-1.4118128e-06
1.5907285e-05
-1.4726334e-06
1.5835853e-05
-1.5336679e-06
1.576159e-05
-1.5949308e-06
1.5684473e-05
-1.6564217e-06
1.5604482e-05
-1.718127e-06
1.5521596e-05
-1.7800188e-06
1.5435797e-05
-1.8420574e-06
1.5347067e-05
-1.9041891e-06
1.5255391e-05
-1.9663473e-06
1.5160757e-05
-2.0284573e-06
1.5063157e-05
-2.0904299e-06
1.4962587e-05
-2.1521661e-06
1.4859048e-05
-2.2135572e-06
1.4752546e-05
-2.2744819e-06
1.4643094e-05
-2.334807e-06
1.4530713e-05
-2.3943853e-06
1.441543e-05
-2.4530518e-06
1.4297282e-05
-2.5106303e-06
1.4176314e-05
-2.5669234e-06
1.4052581e-05
-2.6217175e-06
1.392615e-05
-2.674784e-06
1.3797094e-05
-2.7258767e-06
1.3665499e-05
-2.7747323e-06
1.3531461e-05
-2.8210732e-06
1.3395085e-05
-2.8646128e-06
1.3256493e-05
-2.9050575e-06
1.3115816e-05
-2.9421006e-06
1.2973201e-05
-2.9754309e-06
1.2828808e-05
-3.0047297e-06
1.2682812e-05
-3.0296712e-06
1.2535433e-05
-3.0499121e-06
1.2386943e-05
-3.0651065e-06
1.2237469e-05
-3.075191e-06
1.2087221e-05
-3.0796911e-06
1.1936436e-05
-3.0782795e-06
1.1785262e-05
-3.0705162e-06
1.1634105e-05
-3.0561013e-06
1.1483208e-05
-3.0349248e-06
1.1332959e-05
-3.0066037e-06
1.1183846e-05
-2.970509e-06
1.1035841e-05
-2.927582e-06
1.0889824e-05
-2.8759363e-06
1.0745093e-05
-2.8183133e-06
1.0603259e-05
-2.7509265e-06
1.0464542e-05
-2.6744983e-06
1.0329309e-05
-2.5894244e-06
1.0196945e-05
-2.4969906e-06
1.0068522e-05
-2.3957387e-06
9.9452837e-06
-2.284812e-06
9.8271038e-06
-2.1661207e-06
9.714235e-06
-2.0397266e-06
9.6071316e-06
-1.9053802e-06
9.5062531e-06
-1.7632207e-06
9.4120565e-06
-1.6135224e-06
9.3249818e-06
-1.4566134e-06
9.2454663e-06
-1.2928539e-06
9.1739446e-06
-1.1226508e-06
9.1108407e-06
-9.4646864e-07
9.056553e-06
-7.6482977e-07
9.0114625e-06
-5.7830648e-07
8.975921e-06
-3.8754063e-07
8.9502401e-06
-1.9312737e-07
8.9351423e-06
3.8987661e-09
8.9312481e-06
2.0314537e-07
8.9385355e-06
4.0405315e-07
8.9567882e-06
6.0614129e-07
8.9858083e-06
8.0888924e-07
9.0255737e-06
1.0116716e-06
9.0763258e-06
1.213813e-06
9.1385677e-06
1.4146502e-06
9.2129702e-06
1.6135752e-06
9.3002231e-06
1.8100652e-06
9.4008841e-06
2.0036681e-06
9.5152886e-06
2.1939613e-06
9.6435148e-06
2.3805432e-06
9.7853857e-06
2.5629821e-06
9.9404955e-06
2.7408073e-06
1.0108246e-05
2.9134121e-06
1.0287978e-05
3.0801856e-06
1.0478956e-05
3.24055e-06
1.0680614e-05
3.3932384e-06
1.0892657e-05
3.5411958e-06
1.1111355e-05
3.6702467e-06
3.8309253e-06
1.1352961e-05
1.6138651e-05
-1.6115819e-07
1.6124982e-05
-2.161362e-07
1.6108067e-05
-2.9335117e-07
1.6087817e-05
-3.66016e-07
1.6064619e-05
-4.3668741e-07
1.6038569e-05
-5.0609434e-07
1.6009695e-05
-5.7313972e-07
1.5978063e-05
-6.3808642e-07
1.5943727e-05
-7.0135473e-07
1.5906719e-05
-7.6318735e-07
1.586707e-05
-8.2384429e-07
1.5824798e-05
-8.8357716e-07
1.5779917e-05
-9.4260004e-07
1.5732436e-05
-1.0011005e-06
1.5682353e-05
-1.0592405e-06
1.5629666e-05
-1.1171561e-06
1.5574367e-05
-1.1749634e-06
1.5516444e-05
-1.2327581e-06
1.5455882e-05
-1.2906148e-06
1.5392664e-05
-1.3485951e-06
1.5326772e-05
-1.4067417e-06
1.5258186e-05
-1.4650817e-06
1.5186886e-05
-1.5236304e-06
1.511285e-05
-1.5823865e-06
1.5036059e-05
-1.641336e-06
1.4956494e-05
-1.7004535e-06
1.4874135e-05
-1.7596987e-06
1.4788967e-05
-1.819021e-06
1.4700976e-05
-1.8783566e-06
1.4610151e-05
-1.9376322e-06
1.4516484e-05
-1.996763e-06
1.4419972e-05
-2.0556538e-06
1.4320615e-05
-2.1142003e-06
1.4218421e-05
-2.1722881e-06
1.4113403e-05
-2.2297891e-06
1.4005581e-05
-2.2865635e-06
1.3894984e-05
-2.3424547e-06
1.3781648e-05
-2.3972936e-06
1.3665618e-05
-2.4508936e-06
1.3546949e-05
-2.503049e-06
1.3425706e-05
-2.5535409e-06
1.3301964e-05
-2.6021343e-06
1.3175806e-05
-2.6485741e-06
1.3047326e-05
-2.6925936e-06
1.2916631e-05
-2.7339181e-06
1.2783841e-05
-2.7722672e-06
1.2649086e-05
-2.8073458e-06
1.2512508e-05
-2.8388527e-06
1.2374265e-05
-2.8664868e-06
1.2234532e-05
-2.8899387e-06
1.2093504e-05
-2.908884e-06
1.1951387e-05
-2.9229887e-06
1.1808334e-05
-2.9321388e-06
1.1664586e-05
-2.9359426e-06
1.1520397e-05
-2.9340904e-06
1.1376066e-05
-2.9261855e-06
1.1231939e-05
-2.9119747e-06
1.1088224e-05
-2.8912091e-06
1.0945228e-05
-2.8636082e-06
1.0803411e-05
-2.8286915e-06
1.0662848e-05
-2.7870189e-06
1.0524205e-05
-2.7372935e-06
1.0386995e-05
-2.6811039e-06
1.0252297e-05
-2.6162285e-06
1.0120564e-05
-2.5427646e-06
9.9922646e-06
-2.4611255e-06
9.8674127e-06
-2.3721386e-06
9.7466808e-06
-2.2750069e-06
9.630803e-06
-2.1689341e-06
9.5198217e-06
-2.0551394e-06
9.4140597e-06
-1.9339647e-06
9.313979e-06
-1.8052995e-06
9.2200295e-06
-1.6692713e-06
9.132646e-06
-1.526139e-06
9.0522474e-06
-1.3762148e-06
8.9792482e-06
-1.2198547e-06
8.9140602e-06
-1.0574628e-06
8.8570847e-06
-8.8949314e-07
8.8087102e-06
-7.1645531e-07
8.7693009e-06
-5.388972e-07
8.739191e-06
-3.5743066e-07
8.7186984e-06
-1.7263485e-07
8.7077768e-06
1.4820426e-08
8.7063855e-06
2.0453661e-07
8.7147763e-06
3.9566239e-07
8.7333235e-06
5.8759403e-07
8.7624022e-06
7.7981058e-07
8.8022849e-06
9.7178886e-07
8.8531138e-06
1.1629841e-06
8.9149493e-06
1.3528147e-06
8.9878548e-06
1.5406696e-06
9.0719846e-06
1.7259354e-06
9.1676126e-06
1.9080402e-06
9.275094e-06
2.0864798e-06
9.3948043e-06
2.260833e-06
9.5270423e-06
2.4307441e-06
9.6719357e-06
2.5959139e-06
9.8293421e-06
2.7560057e-06
9.9989049e-06
2.9106228e-06
1.017996e-05
3.0594952e-06
1.0371797e-05
3.201401e-06
1.0573958e-05
3.3390346e-06
1.0783634e-05
3.4605715e-06
3.6087197e-06
1.1005839e-05
1.5547651e-05
-1.5133077e-07
1.5534503e-05
-2.0298715e-07
1.5518207e-05
-2.7705536e-07
1.5498706e-05
-3.4651435e-07
1.5476381e-05
-4.1436217e-07
1.5451313e-05
-4.8102662e-07
1.5423529e-05
-5.4535523e-07
1.5393092e-05
-6.0764904e-07
1.5360051e-05
-6.6831385e-07
1.532444e-05
-7.2757561e-07
1.5286284e-05
-7.856883e-07
1.5245604e-05
-8.4289757e-07
1.5202414e-05
-8.994099e-07
1.515672e-05
-9.5540618e-07
1.5108524e-05
-1.0110439e-06
1.5057822e-05
-1.066454e-06
1.5004606e-05
-1.1217481e-06
1.4948867e-05
-1.1770191e-06
1.489059e-05
-1.2323379e-06
1.482976e-05
-1.2877647e-06
1.4766359e-05
-1.3433405e-06
1.4700369e-05
-1.3990914e-06
1.463177e-05
-1.4550316e-06
1.4560543e-05
-1.5111599e-06
1.4486671e-05
-1.5674635e-06
1.4410134e-05
-1.6239168e-06
1.4330916e-05
-1.680481e-06
1.4249003e-05
-1.7371073e-06
1.4164381e-05
-1.7937345e-06
1.407704e-05
-1.8502918e-06
1.3986976e-05
-1.9066984e-06
1.3894183e-05
-1.9628616e-06
1.3798666e-05
-2.0186833e-06
1.3700432e-05
-2.0740534e-06
1.3599493e-05
-2.1288505e-06
1.3495871e-05
-2.1829418e-06
1.3389595e-05
-2.2361787e-06
1.3280703e-05
-2.2884008e-06
1.3169238e-05
-2.3394286e-06
1.3055255e-05
-2.3890667e-06
1.293882e-05
-2.4371051e-06
1.2820002e-05
-2.483317e-06
1.2698887e-05
-2.5274588e-06
1.257557e-05
-2.5692767e-06
1.2450156e-05
-2.6085042e-06
1.2322759e-05
-2.6448704e-06
1.2193508e-05
-2.6780942e-06
1.2062544e-05
-2.7078887e-06
1.1930023e-05
-2.7339658e-06
1.1796114e-05
-2.7560294e-06
1.1661008e-05
-2.7737784e-06
1.1524923e-05
-2.7869034e-06
1.1388034e-05
-2.7952504e-06
1.1250565e-05
-2.798473e-06
1.111275e-05
-2.7962754e-06
1.0974836e-05
-2.7882722e-06
1.0837107e-05
-2.7742453e-06
1.0699819e-05
-2.7539214e-06
1.0563286e-05
-2.7270753e-06
1.0427903e-05
-2.693308e-06
1.0293827e-05
-2.6529433e-06
1.0161605e-05
-2.6050715e-06
1.0031144e-05
-2.5506422e-06
9.9032187e-06
-2.4883036e-06
9.7782996e-06
-2.4178454e-06
9.6567555e-06
-2.3395814e-06
9.5386176e-06
-2.2540007e-06
9.4243875e-06
-2.1607768e-06
9.3147874e-06
-2.0593341e-06
9.2100723e-06
-1.9504244e-06
9.1105396e-06
-1.834432e-06
9.0165838e-06
-1.7113437e-06
8.9286067e-06
-1.5812942e-06
8.8470069e-06
-1.4445392e-06
8.772176e-06
-1.3013839e-06
8.7044947e-06
-1.1521734e-06
8.6443345e-06
-9.973026e-07
8.592052e-06
-8.3721063e-07
8.5479814e-06
-6.7238471e-07
8.5124361e-06
-5.0335188e-07
8.4856994e-06
-3.3069398e-07
8.4680562e-06
-1.5499172e-07
8.4599273e-06
2.2949332e-08
8.4617092e-06
2.0275469e-07
8.4735252e-06
3.8384642e-07
8.495396e-06
5.6572319e-07
8.5273267e-06
7.4787983e-07
8.5693464e-06
9.2976924e-07
8.6215038e-06
1.1108268e-06
8.6838425e-06
1.290476e-06
8.7563801e-06
1.468132e-06
8.8391076e-06
1.6432079e-06
8.9320228e-06
1.8151251e-06
9.0351766e-06
1.983326e-06
9.1487075e-06
2.147302e-06
9.2728412e-06
2.3066104e-06
9.4078566e-06
2.4608986e-06
9.5539716e-06
2.6098906e-06
9.7112937e-06
2.7533007e-06
9.8797048e-06
2.8910842e-06
1.0058828e-05
3.022278e-06
1.0248507e-05
3.149356e-06
1.0447096e-05
3.2619822e-06
3.3991083e-06
1.0656707e-05
1.4978343e-05
-1.4173026e-07
1.4965704e-05
-1.9034869e-07
1.4950005e-05
-2.613564e-07
1.4931229e-05
-3.2773879e-07
1.490975e-05
-3.9288374e-07
1.4885636e-05
-4.5691219e-07
1.485891e-05
-5.1862964e-07
1.4829636e-05
-5.7837512e-07
1.479786e-05
-6.3653781e-07
1.4763613e-05
-6.9332899e-07
1.4726923e-05
-7.4899764e-07
1.4687808e-05
-8.0378288e-07
1.4646282e-05
-8.5788352e-07
1.4602351e-05
-9.1147529e-07
1.4556016e-05
-9.6470986e-07
1.4507276e-05
-1.0177137e-06
1.4456123e-05
-1.070595e-06
1.4402547e-05
-1.1234427e-06
1.4346535e-05
-1.176326e-06
1.4288072e-05
-1.2293018e-06
1.4227141e-05
-1.2824099e-06
1.4163726e-05
-1.3356765e-06
1.4097808e-05
-1.3891133e-06
1.4029368e-05
-1.4427203e-06
1.395839e-05
-1.4964852e-06
1.3884856e-05
-1.5503824e-06
1.3808749e-05
-1.6043749e-06
1.3730058e-05
-1.6584156e-06
1.364877e-05
-1.7124463e-06
1.3564876e-05
-1.766398e-06
1.347837e-05
-1.8201928e-06
1.338925e-05
-1.873742e-06
1.3297519e-05
-1.9269523e-06
1.3203186e-05
-1.9797195e-06
1.3106262e-05
-2.0319272e-06
1.3006771e-05
-2.0834505e-06
1.2904741e-05
-2.1341484e-06
1.2800207e-05
-2.1838671e-06
1.2693215e-05
-2.2324365e-06
1.2583818e-05
-2.2796697e-06
1.247208e-05
-2.3253673e-06
1.2358073e-05
-2.3693104e-06
1.2241881e-05
-2.4112662e-06
1.2123594e-05
-2.4509899e-06
1.2003316e-05
-2.4882266e-06
1.1881161e-05
-2.5227147e-06
1.1757253e-05
-2.5541868e-06
1.1631733e-05
-2.5823687e-06
1.1504752e-05
-2.6069842e-06
1.1376475e-05
-2.6277527e-06
1.1247087e-05
-2.6443904e-06
1.1116787e-05
-2.6566039e-06
1.0985754e-05
-2.6642172e-06
1.0854202e-05
-2.6669213e-06
1.0722365e-05
-2.6644378e-06
1.0590502e-05
-2.6564096e-06
1.0458896e-05
-2.642639e-06
1.0327817e-05
-2.6228427e-06
1.0197555e-05
-2.5968129e-06
1.0068466e-05
-2.5642194e-06
9.9407534e-06
-2.5252304e-06
9.8148708e-06
-2.4791889e-06
9.6908624e-06
-2.4266338e-06
9.5692801e-06
-2.3667212e-06
9.4505874e-06
-2.2991528e-06
9.3351616e-06
-2.2241556e-06
9.2232313e-06
-2.1420705e-06
9.1152153e-06
-2.0527608e-06
9.0116888e-06
-1.9558075e-06
8.9129472e-06
-1.8516828e-06
8.8192812e-06
-1.740766e-06
8.7310665e-06
-1.6231289e-06
8.6486902e-06
-1.4989179e-06
8.5725315e-06
-1.3683805e-06
8.5029609e-06
-1.2318133e-06
8.4403415e-06
-1.0895541e-06
8.3850262e-06
-9.4198729e-07
8.3373535e-06
-7.8953799e-07
8.2976445e-06
-6.3267569e-07
8.2662001e-06
-4.7190751e-07
8.2433057e-06
-3.0779963e-07
8.2292022e-06
-1.4088824e-07
8.2239532e-06
2.8198345e-08
8.2276389e-06
1.9906903e-07
8.2404239e-06
3.7106138e-07
8.2625208e-06
5.4362626e-07
8.29415e-06
7.1625056e-07
8.3354961e-06
8.8842314e-07
8.3866891e-06
1.0596337e-06
8.4477979e-06
1.2293672e-06
8.5188236e-06
1.3971062e-06
8.5997015e-06
1.56233e-06
8.6903094e-06
1.7245172e-06
8.7904882e-06
1.8831471e-06
8.9000809e-06
2.0377093e-06
9.0189741e-06
2.1877172e-06
9.1471456e-06
2.3327272e-06
9.2846602e-06
2.4723759e-06
9.4316435e-06
2.6063174e-06
9.5882151e-06
2.7345126e-06
9.7543428e-06
2.8561503e-06
9.9301358e-06
2.973563e-06
1.0114758e-05
3.07736e-06
3.20381e-06
1.0310056e-05
1.4429926e-05
-1.3234126e-07
1.4417785e-05
-1.7820613e-07
1.4402657e-05
-2.4622862e-07
1.438458e-05
-3.0966137e-07
1.4363914e-05
-3.722179e-07
1.4340714e-05
-4.3371152e-07
1.4315003e-05
-4.929184e-07
1.4286841e-05
-5.5021354e-07
1.4256274e-05
-6.0597006e-07
1.422333e-05
-6.603847e-07
1.4188035e-05
-7.1370279e-07
1.4150408e-05
-7.6615645e-07
1.4110463e-05
-8.1793791e-07
1.4068205e-05
-8.6921694e-07
1.4023636e-05
-9.2014081e-07
1.3976753e-05
-9.7083138e-07
1.3927551e-05
-1.021393e-06
1.3876021e-05
-1.0719118e-06
1.3822149e-05
-1.1224542e-06
1.3765922e-05
-1.1730751e-06
1.3707325e-05
-1.2238126e-06
1.3646341e-05
-1.2746925e-06
1.3582953e-05
-1.3257255e-06
1.3517144e-05
-1.3769114e-06
1.3448898e-05
-1.4282392e-06
1.3378199e-05
-1.4796834e-06
1.3305033e-05
-1.5312089e-06
1.3229388e-05
-1.58277e-06
1.3151251e-05
-1.63431e-06
1.3070616e-05
-1.6857629e-06
1.2987477e-05
-1.7370538e-06
1.2901834e-05
-1.7880985e-06
1.2813689e-05
-1.8388071e-06
1.272305e-05
-1.8890811e-06
1.2629933e-05
-1.9388102e-06
1.2534358e-05
-1.9878756e-06
1.2436355e-05
-2.0361446e-06
1.2335958e-05
-2.0834702e-06
1.2233211e-05
-2.1296901e-06
1.2128169e-05
-2.1746277e-06
1.2020894e-05
-2.2180923e-06
1.1911456e-05
-2.2598722e-06
1.1799937e-05
-2.2997466e-06
1.1686427e-05
-2.33748e-06
1.1571027e-05
-2.3728267e-06
1.1453849e-05
-2.4055367e-06
1.1335015e-05
-2.435353e-06
1.1214661e-05
-2.4620142e-06
1.1092934e-05
-2.4852574e-06
1.0969996e-05
-2.5048148e-06
1.0846025e-05
-2.5204196e-06
1.0721217e-05
-2.5317961e-06
1.0595755e-05
-2.5387552e-06
1.0469849e-05
-2.541015e-06
1.0343723e-05
-2.5383122e-06
1.0217629e-05
-2.5303149e-06
1.0091821e-05
-2.5168313e-06
9.9665658e-06
-2.4975875e-06
9.8421429e-06
-2.47239e-06
9.718883e-06
-2.4409595e-06
9.5970165e-06
-2.403364e-06
9.4769444e-06
-2.3591169e-06
9.3588199e-06
-2.3085092e-06
9.2430992e-06
-2.2510006e-06
9.1302283e-06
-2.1862819e-06
9.0205713e-06
-2.1144985e-06
8.9143764e-06
-2.0358756e-06
8.8119965e-06
-1.9503808e-06
8.7139357e-06
-1.8577467e-06
8.6205332e-06
-1.7582804e-06
8.5320889e-06
-1.6523217e-06
8.4489523e-06
-1.5399924e-06
8.3714835e-06
-1.4214492e-06
8.3000358e-06
-1.2969328e-06
8.2349539e-06
-1.1667314e-06
8.1765731e-06
-1.0311733e-06
8.1252164e-06
-8.906306e-07
8.0811874e-06
-7.4550902e-07
8.0447727e-06
-5.9626098e-07
8.0162423e-06
-4.4337715e-07
7.9958312e-06
-2.8738847e-07
7.9837752e-06
-1.2883233e-07
7.9803299e-06
3.1643654e-08
7.985741e-06
1.9365795e-07
8.000145e-06
3.566573e-07
8.0236095e-06
5.2016178e-07
8.0561728e-06
6.8368724e-07
8.0978678e-06
8.4672812e-07
8.1487294e-06
1.0087721e-06
8.2087905e-06
1.1693061e-06
8.278075e-06
1.3278217e-06
8.3565818e-06
1.4838232e-06
8.4442657e-06
1.6368333e-06
8.5410251e-06
1.7863878e-06
8.6466997e-06
1.9320347e-06
8.7610825e-06
2.0733345e-06
8.8839497e-06
2.2098599e-06
9.0151007e-06
2.3412249e-06
9.1543894e-06
2.4670286e-06
9.3017657e-06
2.5871363e-06
9.4571816e-06
2.7007344e-06
9.6208257e-06
2.809919e-06
9.7920975e-06
2.9060883e-06
3.022498e-06
9.9734095e-06
1.390163e-05
-1.2316137e-07
1.3889964e-05
-1.6654113e-07
1.3875387e-05
-2.3165127e-07
1.3857983e-05
-2.9225812e-07
1.3838101e-05
-3.5233552e-07
1.3815781e-05
-4.1139187e-07
1.3791047e-05
-4.6818454e-07
1.3763958e-05
-5.2312491e-07
1.3734556e-05
-5.7656771e-07
1.3702869e-05
-6.2869815e-07
1.3668923e-05
-6.7975676e-07
1.3632737e-05
-7.2996959e-07
1.3594321e-05
-7.7952218e-07
1.3553683e-05
-8.2857945e-07
1.3510825e-05
-8.7728311e-07
1.3465745e-05
-9.2575139e-07
1.3418438e-05
-9.7408534e-07
1.3368893e-05
-1.0223669e-06
1.33171e-05
-1.0706616e-06
1.3263046e-05
-1.1190208e-06
1.3206716e-05
-1.167483e-06
1.3148095e-05
-1.2160714e-06
1.3087167e-05
-1.2647973e-06
1.3023915e-05
-1.3136601e-06
1.2958325e-05
-1.3626491e-06
1.2890382e-05
-1.4117404e-06
1.2820073e-05
-1.4608993e-06
1.2747385e-05
-1.510082e-06
1.2672308e-05
-1.5592338e-06
1.2594837e-05
-1.6082911e-06
1.2514965e-05
-1.6571819e-06
1.2432692e-05
-1.7058257e-06
1.2348022e-05
-1.7541376e-06
1.2260964e-05
-1.802023e-06
1.2171532e-05
-1.8493779e-06
1.2079747e-05
-1.8960902e-06
1.1985637e-05
-1.9420347e-06
1.1889237e-05
-1.9870708e-06
1.1790592e-05
-2.0310449e-06
1.1689754e-05
-2.0737894e-06
1.1586782e-05
-2.1151211e-06
1.1481749e-05
-2.1548389e-06
1.1374733e-05
-2.1927303e-06
1.1265822e-05
-2.2285696e-06
1.1155116e-05
-2.2621206e-06
1.1042724e-05
-2.2931444e-06
1.0928764e-05
-2.3213929e-06
1.0813368e-05
-2.3466183e-06
1.0696682e-05
-2.3685711e-06
1.0578862e-05
-2.3869952e-06
1.0460081e-05
-2.4016382e-06
1.0340526e-05
-2.4122408e-06
1.0220377e-05
-2.4186072e-06
1.0099839e-05
-2.4204768e-06
9.9791299e-06
-2.4176028e-06
9.8584927e-06
-2.4096777e-06
9.7381767e-06
-2.3965153e-06
9.6184479e-06
-2.3778587e-06
9.4995777e-06
-2.3535199e-06
9.3818761e-06
-2.3232579e-06
9.2655866e-06
-2.2870745e-06
9.151068e-06
-2.2445983e-06
9.0385256e-06
-2.1959668e-06
8.928343e-06
-2.1408179e-06
8.8209317e-06
-2.0788706e-06
8.7166421e-06
-2.0102089e-06
8.6157618e-06
-1.9349953e-06
8.5186313e-06
-1.8532504e-06
8.4256925e-06
-1.7648079e-06
8.3372865e-06
-1.6698743e-06
8.253711e-06
-1.5687462e-06
8.1752974e-06
-1.4615788e-06
8.1023862e-06
-1.348538e-06
8.0353112e-06
-1.2298579e-06
7.9743981e-06
-1.1058183e-06
7.919964e-06
-9.7673926e-07
7.8723136e-06
-8.4298018e-07
7.8317339e-06
-7.0492939e-07
7.7984954e-06
-5.6302245e-07
7.7728546e-06
-4.1773638e-07
7.7550386e-06
-2.6957249e-07
7.7452491e-06
-1.1904287e-07
7.7436005e-06
3.3292218e-08
7.7501935e-06
1.8706494e-07
7.7651527e-06
3.4169807e-07
7.7886085e-06
4.9670599e-07
7.8206805e-06
6.5161516e-07
7.8614601e-06
8.0594856e-07
7.9110039e-06
9.5922835e-07
7.9693306e-06
1.1109794e-06
8.03642e-06
1.2607322e-06
8.1122237e-06
1.4080195e-06
8.196671e-06
1.5523861e-06
8.2896636e-06
1.6933951e-06
8.3910699e-06
1.8306285e-06
8.5007142e-06
1.9636901e-06
8.6183748e-06
2.0921994e-06
8.7437911e-06
2.2158086e-06
8.8766808e-06
2.334139e-06
9.0167905e-06
2.4470265e-06
9.1638472e-06
2.5536778e-06
9.3179081e-06
2.6558581e-06
9.4782224e-06
2.7457741e-06
2.8534454e-06
9.6472751e-06
1.3392708e-05
-1.141869e-07
1.3381492e-05
-1.5532405e-07
1.3367442e-05
-2.1760076e-07
1.3350686e-05
-2.755018e-07
1.3331557e-05
-3.3320627e-07
1.3310083e-05
-3.8991783e-07
1.3286289e-05
-4.4439063e-07
1.3260231e-05
-4.97067e-07
1.3231949e-05
-5.4828561e-07
1.3201471e-05
-5.9821965e-07
1.316882e-05
-6.471059e-07
1.3134015e-05
-6.9516415e-07
1.3097067e-05
-7.425741e-07
1.3057982e-05
-7.8949506e-07
1.3016764e-05
-8.3606512e-07
1.2973411e-05
-8.8239769e-07
1.2927916e-05
-9.2859055e-07
1.2880272e-05
-9.7472304e-07
1.2830469e-05
-1.0208578e-06
1.2778493e-05
-1.0670453e-06
1.2724332e-05
-1.1133218e-06
1.2667971e-05
-1.1597102e-06
1.2609394e-05
-1.2062209e-06
1.2548588e-05
-1.2528534e-06
1.2485537e-05
-1.2995982e-06
1.2420228e-05
-1.3464313e-06
1.2352648e-05
-1.3933195e-06
1.2282787e-05
-1.4402209e-06
1.2210635e-05
-1.4870823e-06
1.2136187e-05
-1.5338424e-06
1.2059437e-05
-1.5804326e-06
1.1980388e-05
-1.626776e-06
1.1899041e-05
-1.6727908e-06
1.1815406e-05
-1.718388e-06
1.1729497e-05
-1.7634694e-06
1.1641336e-05
-1.8079293e-06
1.155095e-05
-1.8516487e-06
1.1458374e-05
-1.8944945e-06
1.1363651e-05
-1.9363217e-06
1.1266832e-05
-1.9769702e-06
1.1167977e-05
-2.0162659e-06
1.1067155e-05
-2.0540175e-06
1.0964445e-05
-2.0900202e-06
1.0859932e-05
-2.124056e-06
1.0753711e-05
-2.1559003e-06
1.064589e-05
-2.1853234e-06
1.0536585e-05
-2.2120874e-06
1.0425923e-05
-2.2359565e-06
1.0314046e-05
-2.2566939e-06
1.0201106e-05
-2.274055e-06
1.0087268e-05
-2.2878009e-06
9.9727145e-06
-2.297687e-06
9.8576246e-06
-2.3035174e-06
9.7421963e-06
-2.3050485e-06
9.6266422e-06
-2.3020487e-06
9.5111969e-06
-2.2942324e-06
9.3960992e-06
-2.2814176e-06
9.2816055e-06
-2.263365e-06
9.1679776e-06
-2.239892e-06
9.0555074e-06
-2.2107876e-06
8.9444454e-06
-2.1760125e-06
8.8351206e-06
-2.1352736e-06
8.7277699e-06
-2.0886161e-06
8.6227401e-06
-2.0357881e-06
8.520414e-06
-1.9765446e-06
8.4211333e-06
-1.9109281e-06
8.3251931e-06
-1.8390552e-06
8.2329111e-06
-1.7609684e-06
8.1446799e-06
-1.6765768e-06
8.0608371e-06
-1.5860315e-06
7.9816814e-06
-1.4895905e-06
7.9075269e-06
-1.3874243e-06
7.8386939e-06
-1.2797051e-06
7.7754967e-06
-1.1666606e-06
7.7182401e-06
-1.0485617e-06
7.667219e-06
-9.2571819e-07
7.622715e-06
-7.9847622e-07
7.5849915e-06
-6.6720594e-07
7.5542939e-06
-5.3232481e-07
7.5308509e-06
-3.9429339e-07
7.514867e-06
-2.5358859e-07
7.5065286e-06
-1.1070451e-07
7.5060128e-06
3.3808039e-08
7.513489e-06
1.7958869e-07
7.5290673e-06
3.2611976e-07
7.5528198e-06
4.7295345e-07
7.5847896e-06
6.196454e-07
7.6250009e-06
7.6573723e-07
7.6734616e-06
9.1076764e-07
7.7301631e-06
1.0542778e-06
7.7950815e-06
1.1958138e-06
7.8681655e-06
1.3349355e-06
7.9493397e-06
1.4712119e-06
8.0385049e-06
1.6042298e-06
8.1355382e-06
1.7335952e-06
8.2402915e-06
1.8589368e-06
8.352581e-06
1.9799099e-06
8.472186e-06
2.0962035e-06
8.5988347e-06
2.2074903e-06
8.7322492e-06
2.3136121e-06
8.8720527e-06
2.4138743e-06
9.0181343e-06
2.5097765e-06
9.1696286e-06
2.5942798e-06
2.6946158e-06
9.3284583e-06
1.2902455e-05
-1.0541616e-07
1.2891643e-05
-1.4451219e-07
1.2878098e-05
-2.0405642e-07
1.2861967e-05
-2.5937032e-07
1.2843564e-05
-3.1480385e-07
1.2822908e-05
-3.6926129e-07
1.280002e-05
-4.2150362e-07
1.2774957e-05
-4.7200406e-07
1.2747755e-05
-5.2108336e-07
1.2718441e-05
-5.6890573e-07
1.2687039e-05
-6.1570363e-07
1.2653565e-05
-6.6169046e-07
1.2618032e-05
-7.0704129e-07
1.2580447e-05
-7.5190937e-07
1.254081e-05
-7.9642891e-07
1.2499123e-05
-8.4070989e-07
1.2455378e-05
-8.8484589e-07
1.2409568e-05
-9.2891367e-07
1.2361685e-05
-9.7297446e-07
1.2311716e-05
-1.017076e-06
1.2259648e-05
-1.0612543e-06
1.2205468e-05
-1.1055301e-06
1.2149162e-05
-1.1499148e-06
1.2090715e-05
-1.194407e-06
1.2030114e-05
-1.2389975e-06
1.1967347e-05
-1.2836639e-06
1.1902401e-05
-1.3283738e-06
1.1835267e-05
-1.3730866e-06
1.1765936e-05
-1.4177517e-06
1.1694403e-05
-1.4623092e-06