/*--------------------------------*- C++ -*----------------------------------*\
| =========                 |                                                 |
| \\      /  F ield         | OpenFOAM: The Open Source CFD Toolbox           |
|  \\    /   O peration     | Version:  2406                                  |
|   \\  /    A nd           | Website:  www.openfoam.com                      |
|    \\/     M anipulation  |                                                 |
\*---------------------------------------------------------------------------*/
FoamFile
{
    version     2.0;
    format      ascii;
    arch        "LSB;label=32;scalar=64";
    class       volScalarField;
    location    "600";
    object      rho;
}
// * * * * * * * * * * * * * * * * * * * * * * * * * * * * * * * * * * * * * //

dimensions      [1 -3 0 0 0 0 0];

internalField   nonuniform List<scalar> 
132739
(
1.0022749
1.0022906
1.002309
1.0023264
1.002348
1.0023738
1.0024023
1.0024338
1.0024685
1.0025061
1.0025466
1.00259
1.0026363
1.0026853
1.0027372
1.0027918
1.0028492
1.0029093
1.0029721
1.0030376
1.0031059
1.0031767
1.0032503
1.0033265
1.0034053
1.0034867
1.0035707
1.0036574
1.0037466
1.0038384
1.0039327
1.0040293
1.0041285
1.0042301
1.0043339
1.0044402
1.0045486
1.0046592
1.0047719
1.0048866
1.0050029
1.0051211
1.0052409
1.0053621
1.0054847
1.0056086
1.0057337
1.0058596
1.0059865
1.006114
1.0062422
1.0063708
1.0064996
1.0066285
1.0067575
1.0068864
1.0070148
1.0071432
1.0072708
1.0073981
1.0075242
1.0076492
1.007773
1.0078953
1.0080156
1.0081342
1.0082515
1.0083665
1.0084792
1.0085897
1.0086971
1.0088018
1.0089036
1.0090021
1.0090972
1.0091883
1.0092753
1.0093576
1.0094348
1.0095042
1.0095711
1.009631
1.0096827
1.009731
1.0097746
1.0098125
1.0098439
1.0098684
1.0098857
1.0098949
1.0098951
1.0098859
1.009867
1.0098375
1.0097975
1.0097465
1.0096843
1.0096099
1.0095229
1.0094222
1.0093107
1.0091854
1.0090584
1.0089208
1.0022753
1.0022915
1.0023101
1.0023274
1.002349
1.0023747
1.0024033
1.0024348
1.0024694
1.002507
1.0025475
1.0025909
1.0026371
1.0026861
1.0027379
1.0027925
1.0028498
1.0029098
1.0029726
1.003038
1.0031062
1.003177
1.0032504
1.0033266
1.0034053
1.0034866
1.0035705
1.003657
1.0037461
1.0038376
1.0039317
1.0040283
1.0041273
1.0042288
1.0043324
1.0044384
1.0045466
1.0046567
1.0047689
1.0048829
1.0049988
1.0051162
1.0052354
1.0053561
1.005478
1.0056011
1.0057254
1.0058504
1.0059765
1.0061032
1.0062307
1.0063584
1.0064864
1.0066145
1.0067427
1.0068706
1.006998
1.0071249
1.0072512
1.0073766
1.007501
1.0076243
1.0077465
1.0078674
1.0079864
1.0081033
1.0082187
1.0083319
1.0084426
1.008551
1.008657
1.00876
1.0088599
1.008956
1.0090484
1.0091366
1.0092197
1.0092972
1.0093693
1.0094369
1.009499
1.0095563
1.009607
1.009654
1.0096959
1.0097329
1.0097648
1.0097902
1.0098098
1.0098229
1.009829
1.0098275
1.0098176
1.0097991
1.0097718
1.0097351
1.0096886
1.0096318
1.0095647
1.009486
1.0093966
1.0092927
1.0091792
1.0090513
1.0022757
1.0022923
1.0023112
1.0023284
1.0023501
1.0023759
1.0024045
1.0024361
1.0024708
1.0025085
1.002549
1.0025925
1.0026388
1.0026879
1.0027399
1.0027946
1.002852
1.0029122
1.0029751
1.0030406
1.003109
1.0031799
1.0032536
1.0033299
1.0034088
1.0034904
1.0035746
1.0036613
1.0037506
1.0038424
1.0039368
1.0040335
1.0041327
1.0042342
1.0043381
1.0044442
1.0045525
1.0046627
1.004775
1.0048891
1.005005
1.0051227
1.0052419
1.0053628
1.0054848
1.005608
1.0057323
1.0058574
1.0059836
1.0061102
1.0062374
1.0063649
1.0064926
1.0066204
1.0067482
1.0068757
1.0070028
1.0071292
1.007255
1.0073799
1.0075038
1.0076264
1.0077475
1.0078672
1.0079849
1.0081006
1.0082143
1.0083258
1.0084346
1.0085407
1.0086438
1.008744
1.0088409
1.0089341
1.0090235
1.0091087
1.0091896
1.009265
1.0093354
1.0093989
1.0094584
1.0095103
1.0095576
1.0096003
1.0096379
1.0096701
1.009696
1.0097158
1.0097288
1.0097348
1.0097338
1.0097269
1.009713
1.0096919
1.0096633
1.0096266
1.0095811
1.0095273
1.0094627
1.0093871
1.0093022
1.009207
1.0091006
1.0089958
1.002276
1.0022931
1.0023121
1.0023293
1.002351
1.0023768
1.0024054
1.0024369
1.0024716
1.0025092
1.0025499
1.0025934
1.0026397
1.0026888
1.0027407
1.0027954
1.0028528
1.002913
1.0029759
1.0030415
1.0031098
1.0031808
1.0032545
1.0033308
1.0034097
1.0034913
1.0035755
1.0036622
1.0037515
1.0038433
1.0039376
1.0040343
1.0041334
1.0042349
1.0043387
1.0044447
1.0045528
1.004663
1.0047751
1.0048892
1.0050049
1.0051225
1.0052417
1.0053622
1.005484
1.005607
1.0057311
1.0058563
1.0059819
1.0061083
1.0062351
1.0063621
1.0064897
1.006617
1.0067442
1.0068709
1.0069973
1.007123
1.0072478
1.0073716
1.0074943
1.0076157
1.0077356
1.0078539
1.0079704
1.0080846
1.0081965
1.008306
1.0084129
1.0085167
1.0086176
1.0087154
1.0088096
1.0089002
1.008987
1.0090695
1.0091475
1.0092203
1.0092876
1.00935
1.0094058
1.0094558
1.0095012
1.009542
1.009578
1.009609
1.0096337
1.0096522
1.009664
1.0096687
1.0096665
1.0096559
1.0096388
1.0096151
1.0095843
1.0095462
1.0095006
1.009446
1.0093835
1.0093121
1.0092317
1.0091418
1.0090422
1.0089369
1.0022762
1.0022939
1.002313
1.0023301
1.0023519
1.0023777
1.0024063
1.0024379
1.0024726
1.0025103
1.0025509
1.0025944
1.0026407
1.0026898
1.0027418
1.0027965
1.002854
1.0029143
1.0029773
1.003043
1.0031114
1.0031825
1.0032562
1.0033326
1.0034117
1.0034933
1.0035776
1.0036644
1.0037538
1.0038456
1.00394
1.0040367
1.0041359
1.0042375
1.0043413
1.0044472
1.0045554
1.0046655
1.0047777
1.0048917
1.0050077
1.0051252
1.0052442
1.0053645
1.0054864
1.0056095
1.0057334
1.0058583
1.0059839
1.0061102
1.0062367
1.0063637
1.0064907
1.0066175
1.0067443
1.0068707
1.0069966
1.0071218
1.007246
1.0073692
1.0074911
1.0076115
1.0077304
1.0078475
1.0079625
1.0080753
1.0081857
1.0082935
1.0083987
1.0085007
1.0085996
1.0086954
1.0087874
1.0088758
1.0089602
1.0090405
1.0091159
1.0091862
1.0092506
1.0093093
1.0093615
1.0094085
1.0094497
1.0094892
1.0095242
1.0095535
1.0095764
1.0095934
1.0096038
1.0096076
1.009604
1.0095935
1.0095755
1.0095501
1.009518
1.0094789
1.0094335
1.0093812
1.0093213
1.0092535
1.0091774
1.0090922
1.0089994
1.0088993
1.0022763
1.0022947
1.0023138
1.002331
1.0023528
1.0023787
1.0024073
1.002439
1.0024738
1.0025115
1.0025521
1.0025957
1.002642
1.0026912
1.0027432
1.0027979
1.0028555
1.0029157
1.0029787
1.0030444
1.0031127
1.0031838
1.0032575
1.0033339
1.0034129
1.0034945
1.0035786
1.0036653
1.0037546
1.0038464
1.0039407
1.0040375
1.0041365
1.004238
1.0043417
1.0044476
1.0045557
1.0046659
1.004778
1.0048919
1.0050077
1.0051251
1.0052441
1.0053645
1.0054862
1.0056092
1.005733
1.0058578
1.0059834
1.0061094
1.0062358
1.0063624
1.0064891
1.0066156
1.006742
1.0068678
1.0069932
1.0071176
1.0072412
1.0073636
1.0074846
1.0076041
1.0077218
1.0078378
1.0079515
1.008063
1.0081719
1.0082782
1.0083816
1.0084819
1.0085789
1.0086726
1.0087625
1.0088486
1.0089307
1.0090083
1.0090816
1.0091494
1.0092115
1.0092678
1.0093174
1.0093645
1.0094047
1.0094415
1.0094736
1.0095001
1.0095212
1.0095367
1.0095458
1.0095485
1.0095447
1.0095342
1.0095166
1.0094919
1.0094602
1.0094213
1.0093749
1.0093214
1.009261
1.0091949
1.009122
1.0090403
1.0089521
1.0088577
1.0022764
1.0022954
1.0023147
1.0023318
1.0023536
1.0023795
1.0024082
1.0024399
1.0024746
1.0025124
1.002553
1.0025966
1.002643
1.0026921
1.0027442
1.0027989
1.0028564
1.0029166
1.0029796
1.0030453
1.0031137
1.0031848
1.0032585
1.0033349
1.0034138
1.0034954
1.0035796
1.0036664
1.0037558
1.0038476
1.003942
1.0040387
1.0041379
1.0042393
1.0043432
1.0044491
1.0045572
1.0046674
1.0047796
1.0048935
1.0050094
1.0051268
1.0052456
1.0053659
1.0054875
1.0056103
1.0057341
1.0058586
1.005984
1.0061098
1.0062359
1.0063622
1.0064886
1.0066149
1.0067408
1.0068662
1.006991
1.007115
1.0072379
1.0073595
1.0074796
1.0075982
1.007715
1.0078299
1.0079425
1.0080527
1.0081602
1.0082651
1.0083671
1.0084657
1.0085612
1.0086531
1.0087413
1.0088256
1.0089058
1.0089815
1.0090527
1.0091186
1.0091779
1.0092322
1.0092815
1.0093251
1.0093663
1.0094011
1.0094313
1.0094557
1.0094745
1.0094874
1.0094948
1.0094962
1.0094911
1.0094797
1.0094619
1.0094376
1.0094065
1.0093687
1.0093242
1.0092727
1.0092146
1.0091474
1.0090761
1.008997
1.0089136
1.0088245
1.0022765
1.0022961
1.0023155
1.0023325
1.0023544
1.0023803
1.002409
1.0024406
1.0024754
1.0025132
1.0025538
1.0025974
1.0026437
1.002693
1.002745
1.0027997
1.0028573
1.0029175
1.0029805
1.0030462
1.0031145
1.0031856
1.0032592
1.0033356
1.0034146
1.0034962
1.0035804
1.0036672
1.0037566
1.0038484
1.0039428
1.0040395
1.0041387
1.0042402
1.004344
1.0044499
1.004558
1.0046682
1.0047802
1.0048942
1.0050099
1.0051271
1.0052459
1.0053661
1.0054875
1.0056102
1.0057338
1.0058581
1.0059832
1.0061088
1.0062348
1.0063608
1.006487
1.0066129
1.0067384
1.0068635
1.0069877
1.0071112
1.0072334
1.0073543
1.0074738
1.0075914
1.0077073
1.0078211
1.0079326
1.0080417
1.0081481
1.0082517
1.0083521
1.0084494
1.0085433
1.0086335
1.00872
1.0088025
1.0088808
1.0089544
1.0090237
1.0090873
1.0091447
1.0091966
1.0092441
1.009286
1.0093252
1.0093591
1.0093878
1.0094108
1.0094287
1.0094408
1.0094469
1.0094471
1.0094419
1.0094301
1.009412
1.0093877
1.0093571
1.0093199
1.0092762
1.0092258
1.0091692
1.0091057
1.0090358
1.0089585
1.0088766
1.0087912
1.0022765
1.0022968
1.0023161
1.0023331
1.0023551
1.002381
1.0024097
1.0024413
1.0024761
1.0025138
1.0025545
1.0025981
1.0026445
1.0026937
1.0027457
1.0028005
1.0028581
1.0029183
1.0029813
1.003047
1.0031154
1.0031865
1.0032602
1.0033366
1.0034155
1.0034972
1.0035814
1.0036682
1.0037576
1.0038494
1.0039438
1.0040405
1.0041397
1.0042412
1.0043449
1.0044509
1.0045589
1.004669
1.0047809
1.0048948
1.0050103
1.0051275
1.0052463
1.0053664
1.0054877
1.0056102
1.0057337
1.0058579
1.005983
1.0061083
1.0062342
1.0063599
1.0064858
1.0066113
1.0067364
1.0068611
1.0069848
1.0071077
1.0072293
1.0073495
1.0074682
1.0075852
1.0077003
1.0078132
1.0079237
1.0080317
1.008137
1.0082393
1.0083385
1.0084343
1.0085268
1.0086156
1.0087006
1.0087815
1.0088582
1.0089303
1.0089978
1.0090593
1.0091148
1.0091648
1.0092103
1.0092515
1.0092885
1.009321
1.0093481
1.0093697
1.0093861
1.0093967
1.0094021
1.0094014
1.0093949
1.009383
1.0093647
1.0093406
1.00931
1.0092733
1.0092306
1.0091817
1.0091268
1.0090646
1.0089982
1.008923
1.0088421
1.0087579
1.0022765
1.0022974
1.0023168
1.0023338
1.0023558
1.0023818
1.0024105
1.0024422
1.002477
1.0025147
1.0025554
1.002599
1.0026454
1.0026946
1.0027466
1.0028014
1.002859
1.0029193
1.0029823
1.0030479
1.0031163
1.0031874
1.0032611
1.0033375
1.0034165
1.0034981
1.0035823
1.0036691
1.0037585
1.0038503
1.0039446
1.0040413
1.0041404
1.0042419
1.0043455
1.0044514
1.0045594
1.0046694
1.0047813
1.004895
1.0050106
1.0051276
1.0052463
1.0053663
1.0054876
1.00561
1.0057333
1.0058574
1.0059822
1.0061073
1.0062329
1.0063583
1.0064839
1.0066091
1.0067339
1.0068581
1.0069814
1.0071038
1.0072248
1.0073445
1.0074626
1.0075788
1.0076931
1.0078051
1.0079148
1.0080218
1.0081259
1.0082271
1.0083251
1.0084197
1.0085108
1.0085982
1.0086818
1.0087612
1.0088363
1.0089071
1.0089727
1.0090315
1.0090856
1.0091339
1.0091787
1.0092173
1.0092526
1.0092835
1.0093093
1.0093301
1.0093457
1.0093558
1.0093603
1.0093593
1.0093526
1.0093401
1.009322
1.0092977
1.0092686
1.0092328
1.0091907
1.0091429
1.0090894
1.009029
1.0089645
1.0088922
1.0088162
1.0087365
1.0022765
1.002298
1.0023175
1.0023344
1.0023564
1.0023824
1.0024111
1.0024429
1.0024777
1.0025155
1.0025562
1.0025998
1.0026462
1.0026955
1.0027475
1.0028023
1.0028598
1.0029201
1.0029831
1.0030488
1.0031172
1.0031883
1.003262
1.0033384
1.0034174
1.003499
1.0035832
1.00367
1.0037593
1.0038511
1.0039454
1.004042
1.0041411
1.0042424
1.0043461
1.0044519
1.0045598
1.0046697
1.0047816
1.0048953
1.0050109
1.0051279
1.0052465
1.0053664
1.0054876
1.0056098
1.005733
1.0058569
1.0059814
1.0061064
1.0062316
1.006357
1.0064822
1.0066071
1.0067316
1.0068553
1.0069782
1.0071001
1.0072206
1.0073398
1.0074573
1.0075728
1.0076863
1.0077975
1.0079063
1.0080124
1.0081156
1.008216
1.0083129
1.0084064
1.0084963
1.0085824
1.0086646
1.0087427
1.0088164
1.0088855
1.0089498
1.0090067
1.0090593
1.0091068
1.0091506
1.0091883
1.0092227
1.0092525
1.0092769
1.0092964
1.0093106
1.0093193
1.0093228
1.0093208
1.0093132
1.0093001
1.0092824
1.0092583
1.0092281
1.0091925
1.0091517
1.0091046
1.009052
1.0089934
1.0089303
1.0088616
1.0087849
1.0087116
1.0022764
1.0022985
1.0023181
1.0023349
1.0023571
1.0023831
1.0024118
1.0024435
1.0024783
1.0025162
1.0025569
1.0026005
1.0026469
1.0026962
1.0027483
1.0028031
1.0028607
1.002921
1.002984
1.0030497
1.0031181
1.0031892
1.0032629
1.0033393
1.0034183
1.0034999
1.0035841
1.0036708
1.0037602
1.0038519
1.0039462
1.0040428
1.0041419
1.0042431
1.0043468
1.0044525
1.0045603
1.0046703
1.0047821
1.0048957
1.0050111
1.005128
1.0052465
1.0053663
1.0054873
1.0056094
1.0057324
1.0058561
1.0059805
1.0061053
1.0062303
1.0063552
1.0064802
1.0066049
1.006729
1.0068524
1.0069749
1.0070963
1.0072164
1.007335
1.0074518
1.0075668
1.0076796
1.0077901
1.0078982
1.0080034
1.0081058
1.0082051
1.0083009
1.0083934
1.0084821
1.0085671
1.0086482
1.008725
1.0087975
1.0088656
1.0089286
1.0089847
1.0090363
1.0090822
1.0091247
1.0091619
1.0091951
1.0092236
1.0092468
1.009265
1.0092782
1.0092861
1.0092884
1.0092859
1.0092781
1.0092647
1.0092456
1.0092218
1.0091935
1.0091584
1.0091183
1.0090722
1.0090214
1.0089641
1.0089039
1.0088378
1.0087656
1.0086914
1.0022764
1.002299
1.0023186
1.0023355
1.0023576
1.0023837
1.0024124
1.0024442
1.0024791
1.0025169
1.0025577
1.0026013
1.0026477
1.002697
1.0027491
1.0028039
1.0028615
1.0029218
1.0029848
1.0030505
1.0031189
1.00319
1.0032638
1.0033402
1.0034192
1.0035008
1.0035851
1.0036717
1.0037611
1.0038528
1.0039471
1.0040437
1.0041427
1.004244
1.0043475
1.0044532
1.004561
1.0046708
1.0047825
1.0048961
1.0050113
1.0051282
1.0052465
1.0053662
1.0054871
1.0056091
1.0057319
1.0058555
1.0059798
1.0061043
1.0062292
1.0063539
1.0064786
1.0066029
1.0067267
1.0068498
1.0069719
1.0070929
1.0072125
1.0073306
1.0074469
1.0075612
1.0076733
1.0077831
1.0078903
1.0079948
1.0080962
1.0081945
1.0082895
1.008381
1.0084688
1.0085528
1.0086327
1.0087084
1.0087798
1.0088467
1.0089086
1.0089634
1.0090136
1.0090602
1.0091004
1.0091377
1.0091696
1.0091971
1.0092194
1.0092365
1.0092486
1.0092556
1.0092573
1.0092538
1.0092449
1.0092313
1.009212
1.0091882
1.0091586
1.0091239
1.0090856
1.0090407
1.0089914
1.0089362
1.0088755
1.0088113
1.0087415
1.0086704
1.0022763
1.0022995
1.0023192
1.002336
1.0023582
1.0023843
1.002413
1.0024448
1.0024797
1.0025176
1.0025584
1.002602
1.0026485
1.0026978
1.0027499
1.0028047
1.0028623
1.0029226
1.0029857
1.0030514
1.0031198
1.0031909
1.0032647
1.0033411
1.0034201
1.0035017
1.0035859
1.0036727
1.003762
1.0038537
1.003948
1.0040445
1.0041435
1.0042448
1.0043482
1.0044539
1.0045616
1.0046714
1.004783
1.0048965
1.0050115
1.0051283
1.0052465
1.005366
1.0054869
1.0056087
1.0057313
1.0058547
1.0059789
1.006103
1.0062277
1.0063523
1.0064767
1.0066007
1.0067242
1.0068469
1.0069687
1.0070893
1.0072084
1.007326
1.0074418
1.0075556
1.0076672
1.0077764
1.0078829
1.0079867
1.0080873
1.0081848
1.0082789
1.0083695
1.0084563
1.0085393
1.0086182
1.0086928
1.0087631
1.0088288
1.0088894
1.0089432
1.0089925
1.0090381
1.0090776
1.0091136
1.0091449
1.0091711
1.0091922
1.0092086
1.0092197
1.0092259
1.0092273
1.009223
1.0092149
1.009201
1.0091816
1.0091569
1.0091273
1.0090931
1.0090546
1.0090096
1.0089618
1.0089086
1.0088507
1.0087872
1.0087204
1.0086532
1.0022762
1.0023
1.0023197
1.0023365
1.0023588
1.0023849
1.0024137
1.0024455
1.0024804
1.0025183
1.0025591
1.0026027
1.0026492
1.0026985
1.0027507
1.0028055
1.0028631
1.0029235
1.0029865
1.0030523
1.0031207
1.0031918
1.0032656
1.003342
1.003421
1.0035026
1.0035868
1.0036736
1.0037628
1.0038546
1.0039488
1.0040454
1.0041443
1.0042456
1.0043489
1.0044546
1.0045622
1.0046719
1.0047834
1.0048968
1.0050118
1.0051285
1.0052467
1.0053661
1.0054867
1.0056085
1.0057309
1.0058542
1.0059781
1.0061022
1.0062266
1.0063509
1.0064751
1.0065989
1.0067221
1.0068445
1.0069658
1.0070861
1.0072049
1.007322
1.0074373
1.0075505
1.0076615
1.00777
1.0078758
1.0079789
1.0080788
1.0081755
1.0082688
1.0083585
1.0084444
1.0085265
1.0086044
1.0086781
1.0087474
1.008812
1.0088713
1.0089246
1.0089723
1.0090179
1.0090556
1.0090909
1.0091215
1.009147
1.0091675
1.0091832
1.0091936
1.0091991
1.0091997
1.0091948
1.0091855
1.009171
1.0091521
1.0091276
1.0090978
1.0090631
1.0090261
1.0089815
1.0089339
1.0088803
1.0088237
1.0087622
1.0086985
1.0086333
1.002276
1.0023005
1.0023202
1.002337
1.0023593
1.0023854
1.0024142
1.0024461
1.002481
1.0025189
1.0025597
1.0026034
1.00265
1.0026993
1.0027514
1.0028063
1.002864
1.0029243
1.0029874
1.0030532
1.0031216
1.0031928
1.0032665
1.0033429
1.0034219
1.0035035
1.0035877
1.0036745
1.0037638
1.0038555
1.0039497
1.0040462
1.0041452
1.0042464
1.0043497
1.0044553
1.0045629
1.0046725
1.004784
1.0048973
1.0050123
1.0051287
1.0052469
1.0053661
1.0054867
1.0056082
1.0057306
1.0058536
1.0059773
1.0061012
1.0062254
1.0063495
1.0064734
1.006597
1.0067198
1.0068419
1.0069629
1.0070826
1.0072009
1.0073177
1.0074324
1.0075451
1.0076555
1.0077634
1.0078687
1.007971
1.0080702
1.0081662
1.0082587
1.0083476
1.0084327
1.008514
1.008591
1.0086638
1.0087322
1.0087958
1.0088543
1.0089069
1.0089529
1.0089978
1.0090354
1.0090698
1.0090999
1.0091245
1.0091443
1.0091593
1.0091691
1.0091741
1.0091744
1.0091692
1.0091599
1.0091444
1.0091249
1.0090998
1.0090708
1.0090366
1.0089995
1.0089562
1.0089096
1.0088588
1.0088029
1.0087426
1.0086804
1.0086176
1.0022759
1.0023009
1.0023206
1.0023375
1.0023598
1.002386
1.0024148
1.0024467
1.0024817
1.0025196
1.0025604
1.0026042
1.0026507
1.0027001
1.0027522
1.0028072
1.0028648
1.0029252
1.0029883
1.0030541
1.0031225
1.0031936
1.0032674
1.0033438
1.0034228
1.0035044
1.0035887
1.0036754
1.0037647
1.0038564
1.0039506
1.0040471
1.0041461
1.0042472
1.0043506
1.0044561
1.0045637
1.0046732
1.0047847
1.0048978
1.0050128
1.0051291
1.0052471
1.0053663
1.0054867
1.0056082
1.0057303
1.0058532
1.0059767
1.0061004
1.0062244
1.0063483
1.006472
1.0065952
1.0067178
1.0068395
1.0069602
1.0070796
1.0071974
1.0073136
1.007428
1.0075401
1.00765
1.0077573
1.0078619
1.0079636
1.0080621
1.0081574
1.0082492
1.0083374
1.0084217
1.0085022
1.0085784
1.0086503
1.0087178
1.0087804
1.0088376
1.0088893
1.0089355
1.008978
1.0090161
1.0090494
1.0090788
1.0091028
1.0091221
1.0091367
1.0091462
1.0091506
1.0091501
1.0091444
1.009135
1.0091198
1.009101
1.0090762
1.0090473
1.0090133
1.0089767
1.0089337
1.0088868
1.008837
1.0087821
1.0087227
1.008662
1.0086009
1.0022757
1.0023014
1.0023211
1.002338
1.0023604
1.0023866
1.0024154
1.0024473
1.0024823
1.0025203
1.0025612
1.0026049
1.0026515
1.0027009
1.002753
1.0028079
1.0028656
1.002926
1.0029891
1.0030549
1.0031234
1.0031945
1.0032683
1.0033447
1.0034238
1.0035054
1.0035896
1.0036764
1.0037656
1.0038573
1.0039515
1.0040481
1.0041469
1.0042481
1.0043514
1.0044569
1.0045645
1.0046739
1.0047854
1.0048985
1.0050134
1.0051297
1.0052476
1.0053666
1.0054868
1.0056081
1.0057301
1.0058528
1.0059761
1.0060996
1.0062234
1.0063469
1.0064704
1.0065933
1.0067155
1.006837
1.0069572
1.0070762
1.0071936
1.0073094
1.0074233
1.0075349
1.0076442
1.007751
1.007855
1.0079561
1.0080539
1.0081486
1.0082398
1.0083272
1.0084107
1.0084903
1.0085657
1.0086367
1.0087032
1.0087652
1.0088223
1.0088743
1.0089184
1.0089615
1.008998
1.0090306
1.0090591
1.0090823
1.0091008
1.0091145
1.0091233
1.0091276
1.0091275
1.0091221
1.0091126
1.0090972
1.0090784
1.0090536
1.0090251
1.0089914
1.0089552
1.0089127
1.0088675
1.0088182
1.0087651
1.0087065
1.0086478
1.0085876
1.0022755
1.0023018
1.0023215
1.0023384
1.0023609
1.0023871
1.002416
1.002448
1.002483
1.002521
1.0025619
1.0026057
1.0026523
1.0027017
1.0027539
1.0028088
1.0028665
1.0029269
1.0029901
1.0030559
1.0031244
1.0031955
1.0032693
1.0033458
1.0034248
1.0035064
1.0035907
1.0036774
1.0037667
1.0038584
1.0039526
1.0040491
1.0041479
1.004249
1.0043524
1.0044578
1.0045653
1.0046748
1.0047861
1.0048992
1.005014
1.0051302
1.005248
1.0053669
1.005487
1.0056081
1.0057299
1.0058525
1.0059756
1.0060989
1.0062223
1.0063457
1.0064689
1.0065915
1.0067134
1.0068344
1.0069544
1.007073
1.00719
1.0073054
1.0074187
1.0075299
1.0076387
1.007745
1.0078484
1.0079488
1.0080462
1.0081401
1.0082306
1.0083171
1.0084
1.0084787
1.0085533
1.0086235
1.0086891
1.0087501
1.0088065
1.0088575
1.0089016
1.0089437
1.0089797
1.0090119
1.0090397
1.0090625
1.0090804
1.0090942
1.0091029
1.0091069
1.0091062
1.0091008
1.0090911
1.009076
1.0090573
1.009033
1.0090047
1.0089715
1.0089356
1.0088936
1.0088489
1.0088001
1.0087482
1.0086913
1.0086324
1.0085733
1.0022754
1.0023022
1.0023219
1.0023389
1.0023614
1.0023877
1.0024166
1.0024486
1.0024837
1.0025217
1.0025626
1.0026064
1.0026531
1.0027025
1.0027548
1.0028097
1.0028675
1.0029279
1.0029911
1.0030569
1.0031254
1.0031966
1.0032704
1.0033468
1.0034259
1.0035075
1.0035918
1.0036785
1.0037678
1.0038594
1.0039536
1.00405
1.0041489
1.0042499
1.0043533
1.0044587
1.0045662
1.0046756
1.0047868
1.0048998
1.0050145
1.0051308
1.0052483
1.0053672
1.0054872
1.005608
1.0057298
1.0058522
1.005975
1.0060981
1.0062213
1.0063444
1.0064673
1.0065895
1.0067112
1.0068318
1.0069514
1.0070697
1.0071863
1.0073012
1.0074141
1.0075247
1.0076329
1.0077385
1.0078413
1.0079411
1.0080377
1.008131
1.0082206
1.0083066
1.0083886
1.0084665
1.0085402
1.0086095
1.0086743
1.0087345
1.0087901
1.0088404
1.0088848
1.0089254
1.0089611
1.0089926
1.0090201
1.0090423
1.0090597
1.0090729
1.0090806
1.0090842
1.0090835
1.0090781
1.0090685
1.0090538
1.0090353
1.0090113
1.0089839
1.0089513
1.0089162
1.0088753
1.0088324
1.008784
1.0087344
1.0086776
1.0086215
1.0085632
1.0022751
1.0023026
1.0023224
1.0023393
1.0023619
1.0023882
1.0024172
1.0024492
1.0024843
1.0025224
1.0025634
1.0026072
1.0026539
1.0027034
1.0027557
1.0028106
1.0028684
1.0029289
1.0029921
1.0030579
1.0031265
1.0031976
1.0032715
1.003348
1.0034271
1.0035087
1.0035929
1.0036796
1.0037689
1.0038606
1.0039547
1.0040512
1.00415
1.004251
1.0043543
1.0044596
1.004567
1.0046764
1.0047876
1.0049006
1.0050152
1.0051313
1.0052488
1.0053674
1.0054874
1.005608
1.0057297
1.0058518
1.0059745
1.0060973
1.0062203
1.0063432
1.0064658
1.0065878
1.0067091
1.0068295
1.0069487
1.0070665
1.0071827
1.0072971
1.0074094
1.0075195
1.0076272
1.0077323
1.0078344
1.0079336
1.0080295
1.0081221
1.0082111
1.0082963
1.0083777
1.0084548
1.0085277
1.0085963
1.0086602
1.0087195
1.0087743
1.008824
1.0088687
1.0089073
1.0089427
1.008974
1.0090001
1.0090218
1.0090386
1.0090514
1.0090586
1.0090624
1.0090614
1.0090561
1.0090467
1.0090326
1.0090146
1.0089912
1.0089645
1.0089327
1.0088982
1.0088584
1.0088164
1.0087683
1.0087201
1.0086651
1.0086106
1.0085529
1.002275
1.002303
1.0023227
1.0023397
1.0023624
1.0023888
1.0024178
1.0024498
1.002485
1.0025231
1.0025641
1.0026081
1.0026548
1.0027043
1.0027566
1.0028117
1.0028695
1.00293
1.0029932
1.0030591
1.0031276
1.0031988
1.0032727
1.0033492
1.0034283
1.0035099
1.0035942
1.0036808
1.0037701
1.0038618
1.0039559
1.0040524
1.0041512
1.0042522
1.0043554
1.0044607
1.0045681
1.0046774
1.0047885
1.0049014
1.0050159
1.0051319
1.0052493
1.0053678
1.0054877
1.0056082
1.0057297
1.0058516
1.005974
1.0060967
1.0062193
1.006342
1.0064642
1.0065859
1.0067068
1.0068267
1.0069454
1.0070627
1.0071784
1.0072922
1.0074041
1.0075136
1.0076206
1.007725
1.0078265
1.0079251
1.0080203
1.0081122
1.0082004
1.008285
1.0083655
1.0084419
1.008514
1.0085819
1.0086451
1.008704
1.0087577
1.0088069
1.0088512
1.0088904
1.0089241
1.0089551
1.0089812
1.0090027
1.009019
1.0090311
1.0090378
1.0090414
1.0090392
1.009034
1.0090241
1.0090104
1.0089921
1.0089695
1.0089435
1.008913
1.0088794
1.0088406
1.0088002
1.0087532
1.008707
1.0086526
1.0086004
1.008546
1.0022748
1.0023034
1.0023231
1.0023402
1.0023629
1.0023893
1.0024184
1.0024505
1.0024857
1.0025239
1.0025649
1.0026089
1.0026556
1.0027052
1.0027576
1.0028127
1.0028705
1.0029311
1.0029943
1.0030602
1.0031288
1.0032001
1.0032739
1.0033505
1.0034295
1.0035112
1.0035955
1.0036822
1.0037715
1.0038631
1.0039572
1.0040537
1.0041524
1.0042534
1.0043566
1.0044619
1.0045692
1.0046785
1.0047895
1.0049023
1.0050167
1.0051326
1.0052499
1.0053683
1.0054879
1.0056082
1.0057296
1.0058512
1.0059735
1.0060959
1.0062183
1.0063405
1.0064624
1.0065837
1.0067043
1.0068237
1.006942
1.0070589
1.007174
1.0072874
1.0073985
1.0075075
1.0076141
1.0077179
1.0078189
1.0079169
1.0080115
1.0081028
1.0081903
1.0082741
1.0083538
1.0084295
1.0085009
1.008568
1.0086305
1.0086886
1.0087419
1.0087905
1.008834
1.0088733
1.0089071
1.0089371
1.0089632
1.0089848
1.0090013
1.0090137
1.0090203
1.0090233
1.0090218
1.0090164
1.0090063
1.0089924
1.0089741
1.0089517
1.0089257
1.0088954
1.0088622
1.0088245
1.008785
1.0087395
1.0086953
1.0086417
1.0085931
1.0085396
1.0022746
1.0023038
1.0023235
1.0023406
1.0023635
1.0023899
1.002419
1.0024512
1.0024864
1.0025247
1.0025658
1.0026098
1.0026566
1.0027062
1.0027587
1.0028138
1.0028717
1.0029322
1.0029955
1.0030615
1.0031301
1.0032014
1.0032753
1.0033519
1.0034309
1.0035127
1.0035969
1.0036837
1.0037729
1.0038646
1.0039587
1.0040551
1.0041538
1.0042548
1.0043579
1.0044632
1.0045704
1.0046796
1.0047905
1.0049032
1.0050175
1.0051333
1.0052504
1.0053687
1.0054881
1.0056083
1.0057294
1.0058509
1.0059729
1.006095
1.0062171
1.006339
1.0064606
1.0065815
1.0067016
1.0068206
1.0069385
1.0070549
1.0071694
1.0072822
1.0073928
1.0075013
1.0076072
1.0077104
1.0078108
1.007908
1.008002
1.0080925
1.0081794
1.0082625
1.0083418
1.0084169
1.0084879
1.0085544
1.0086165
1.0086741
1.008727
1.0087752
1.0088184
1.0088577
1.008891
1.0089206
1.008947
1.0089686
1.0089856
1.0089987
1.0090057
1.0090093
1.0090081
1.0090027
1.0089929
1.0089792
1.008961
1.0089394
1.0089137
1.008884
1.0088512
1.0088138
1.0087748
1.0087302
1.0086864
1.0086341
1.0085881
1.0085345
1.0022744
1.0023041
1.0023239
1.002341
1.002364
1.0023905
1.0024196
1.0024519
1.0024872
1.0025255
1.0025667
1.0026108
1.0026576
1.0027073
1.0027598
1.002815
1.0028729
1.0029335
1.0029969
1.0030629
1.0031315
1.0032029
1.0032768
1.0033534
1.0034325
1.0035142
1.0035985
1.0036853
1.0037744
1.0038662
1.0039602
1.0040567
1.0041553
1.0042563
1.0043593
1.0044645
1.0045717
1.0046808
1.0047917
1.0049043
1.0050184
1.0051341
1.005251
1.0053692
1.0054884
1.0056084
1.0057292
1.0058505
1.0059722
1.006094
1.0062158
1.0063374
1.0064585
1.006579
1.0066986
1.0068172
1.0069344
1.0070501
1.0071641
1.0072763
1.0073864
1.0074942
1.0075996
1.0077023
1.0078021
1.0078988
1.0079922
1.0080823
1.0081687
1.0082513
1.0083301
1.0084047
1.0084752
1.0085416
1.0086034
1.0086609
1.0087139
1.0087621
1.0088055
1.008845
1.008879
1.0089088
1.0089355
1.0089574
1.0089745
1.0089873
1.0089953
1.0089992
1.0089986
1.0089937
1.0089848
1.0089714
1.0089542
1.0089332
1.0089082
1.0088792
1.0088468
1.0088103
1.0087723
1.0087285
1.0086859
1.0086343
1.0085904
1.0085355
1.0022742
1.0023045
1.0023243
1.0023415
1.0023645
1.0023911
1.0024203
1.0024526
1.002488
1.0025264
1.0025676
1.0026117
1.0026587
1.0027084
1.0027609
1.0028162
1.0028742
1.0029349
1.0029983
1.0030643
1.003133
1.0032044
1.0032783
1.003355
1.0034341
1.0035159
1.0036001
1.0036869
1.0037761
1.0038678
1.0039618
1.0040583
1.0041569
1.0042578
1.0043608
1.004466
1.004573
1.004682
1.0047928
1.0049053
1.0050193
1.0051348
1.0052516
1.0053696
1.0054885
1.0056084
1.0057289
1.0058499
1.0059712
1.0060928
1.0062143
1.0063354
1.006456
1.0065761
1.0066951
1.0068131
1.0069297
1.0070449
1.0071585
1.0072701
1.0073798
1.0074871
1.0075918
1.0076941
1.0077932
1.0078895
1.0079823
1.0080721
1.008158
1.0082404
1.0083189
1.0083936
1.008464
1.0085306
1.0085925
1.0086505
1.0087039
1.0087527
1.0087969
1.0088371
1.0088722
1.0089022
1.0089299
1.0089527
1.0089708
1.0089845
1.0089934
1.008998
1.0089982
1.008994
1.0089855
1.0089731
1.0089563
1.0089357
1.0089116
1.0088833
1.0088523
1.0088164
1.0087797
1.0087363
1.008696
1.0086441
1.0086051
1.0085468
1.002274
1.0023048
1.0023246
1.0023419
1.002365
1.0023917
1.002421
1.0024534
1.0024888
1.0025273
1.0025686
1.0026128
1.0026598
1.0027096
1.0027622
1.0028175
1.0028755
1.0029363
1.0029997
1.0030659
1.0031346
1.0032061
1.00328
1.0033567
1.0034359
1.0035177
1.0036019
1.0036888
1.0037779
1.0038697
1.0039636
1.0040601
1.0041586
1.0042595
1.0043625
1.0044675
1.0045746
1.0046834
1.0047941
1.0049065
1.0050203
1.0051356
1.0052523
1.00537
1.0054886
1.0056083
1.0057284
1.0058492
1.00597
1.0060912
1.0062123
1.0063329
1.0064531
1.0065725
1.006691
1.0068084
1.0069246
1.0070393
1.0071523
1.0072635
1.0073725
1.0074793
1.0075837
1.0076852
1.0077841
1.00788
1.0079726
1.0080622
1.0081482
1.0082308
1.0083095
1.0083847
1.0084557
1.008523
1.0085858
1.0086448
1.0086992
1.0087494
1.0087949
1.0088364
1.008873
1.0089051
1.0089332
1.0089581
1.0089781
1.0089932
1.0090038
1.0090095
1.0090108
1.0090075
1.0090002
1.008988
1.0089728
1.0089526
1.0089295
1.0089018
1.0088719
1.0088364
1.0088014
1.0087586
1.0087213
1.0086696
1.0086356
1.0085725
1.0022739
1.0023052
1.002325
1.0023424
1.0023656
1.0023923
1.0024217
1.0024542
1.0024897
1.0025282
1.0025696
1.0026139
1.0026609
1.0027109
1.0027635
1.0028189
1.002877
1.0029378
1.0030013
1.0030675
1.0031363
1.0032078
1.0032819
1.0033585
1.0034378
1.0035196
1.0036038
1.0036907
1.0037799
1.0038716
1.0039656
1.004062
1.0041605
1.0042613
1.0043642
1.0044691
1.0045761
1.0046848
1.0047953
1.0049075
1.0050212
1.0051362
1.0052527
1.0053702
1.0054886
1.0056079
1.0057277
1.005848
1.0059685
1.0060892
1.0062097
1.0063298
1.0064493
1.0065682
1.0066861
1.006803
1.0069187
1.0070329
1.0071454
1.007256
1.0073647
1.0074711
1.0075751
1.0076766
1.0077753
1.0078714
1.0079643
1.0080543
1.0081409
1.0082243
1.0083039
1.0083804
1.0084525
1.0085213
1.0085857
1.0086464
1.0087026
1.0087548
1.0088026
1.0088461
1.0088851
1.0089197
1.0089495
1.0089765
1.0089983
1.0090155
1.0090278
1.0090357
1.009039
1.0090371
1.0090319
1.0090217
1.0090079
1.0089889
1.0089676
1.0089402
1.0089124
1.0088771
1.0088444
1.0088013
1.0087671
1.0087143
1.0086858
1.0086176
1.0022737
1.0023055
1.0023254
1.0023428
1.0023661
1.0023929
1.0024224
1.002455
1.0024906
1.0025292
1.0025707
1.002615
1.0026622
1.0027122
1.0027649
1.0028204
1.0028786
1.0029395
1.003003
1.0030693
1.0031381
1.0032097
1.0032838
1.0033605
1.0034397
1.0035216
1.0036059