/*--------------------------------*- C++ -*----------------------------------*\
| =========                 |                                                 |
| \\      /  F ield         | OpenFOAM: The Open Source CFD Toolbox           |
|  \\    /   O peration     | Version:  2406                                  |
|   \\  /    A nd           | Website:  www.openfoam.com                      |
|    \\/     M anipulation  |                                                 |
\*---------------------------------------------------------------------------*/
FoamFile
{
    version     2.0;
    format      ascii;
    arch        "LSB;label=32;scalar=64";
    class       volScalarField;
    location    "600";
    object      T;
}
// * * * * * * * * * * * * * * * * * * * * * * * * * * * * * * * * * * * * * //

dimensions      [0 0 0 1 0 0 0];

internalField   nonuniform List<scalar> 
132739
(
1.0009125
1.0009153
1.0009194
1.0009244
1.0009307
1.0009383
1.0009471
1.000957
1.000968
1.0009801
1.0009933
1.0010075
1.0010227
1.0010389
1.0010561
1.0010742
1.0010932
1.0011132
1.001134
1.0011558
1.0011784
1.0012018
1.0012262
1.0012514
1.0012774
1.0013043
1.0013319
1.0013604
1.0013898
1.0014201
1.0014513
1.0014835
1.0015166
1.0015504
1.0015849
1.0016202
1.0016559
1.0016918
1.0017277
1.001763
1.001799
1.0018353
1.0018719
1.001909
1.001946
1.0019828
1.0020201
1.0020574
1.002094
1.0021309
1.0021674
1.0022035
1.0022396
1.0022761
1.0023128
1.0023495
1.002386
1.0024223
1.002458
1.0024931
1.002527
1.0025601
1.0025916
1.0026232
1.0026539
1.0026848
1.0027142
1.0027427
1.0027711
1.0027977
1.0028244
1.0028487
1.0028727
1.002894
1.0029135
1.0029308
1.0029462
1.0029595
1.0029705
1.002979
1.0029861
1.0029906
1.0029931
1.0029946
1.0029958
1.0029976
1.0029934
1.0029879
1.0029754
1.0029536
1.002923
1.002884
1.0028347
1.0027831
1.0027291
1.0026696
1.0026019
1.0025251
1.0024398
1.0023478
1.0022502
1.0021526
1.0020498
1.0019541
1.0009127
1.0009155
1.0009197
1.0009246
1.0009309
1.0009386
1.0009473
1.0009572
1.0009682
1.0009803
1.0009934
1.0010076
1.0010228
1.0010389
1.001056
1.0010741
1.0010931
1.0011131
1.001134
1.0011557
1.0011783
1.0012018
1.0012262
1.0012514
1.0012774
1.0013043
1.0013319
1.0013605
1.0013899
1.0014202
1.0014515
1.0014836
1.0015166
1.0015505
1.0015851
1.0016202
1.0016559
1.0016916
1.0017274
1.0017639
1.0018008
1.0018378
1.001875
1.001912
1.0019486
1.0019852
1.0020223
1.0020601
1.0020982
1.0021361
1.0021738
1.0022111
1.0022482
1.002285
1.0023215
1.0023576
1.0023934
1.0024287
1.0024635
1.0024977
1.0025315
1.0025644
1.002597
1.0026283
1.0026589
1.0026887
1.0027179
1.0027459
1.0027729
1.0027991
1.0028222
1.0028438
1.0028641
1.002883
1.0029003
1.0029158
1.0029292
1.0029402
1.002949
1.0029561
1.0029613
1.002965
1.0029676
1.0029696
1.0029716
1.0029762
1.0029752
1.0029693
1.0029554
1.0029321
1.0029024
1.0028671
1.0028276
1.002782
1.0027297
1.0026704
1.0026036
1.0025288
1.002446
1.0023555
1.0022578
1.002156
1.0020525
1.0019551
1.0009128
1.0009157
1.0009199
1.0009249
1.0009312
1.0009388
1.0009475
1.0009574
1.0009684
1.0009805
1.0009936
1.0010078
1.0010229
1.0010391
1.0010562
1.0010743
1.0010934
1.0011133
1.0011343
1.0011561
1.0011788
1.0012025
1.0012271
1.0012524
1.0012786
1.0013056
1.0013335
1.0013621
1.0013917
1.0014221
1.0014534
1.0014857
1.0015188
1.0015525
1.0015868
1.0016213
1.0016559
1.0016912
1.001727
1.0017633
1.0018
1.0018369
1.0018739
1.0019109
1.0019478
1.0019849
1.0020222
1.0020598
1.0020972
1.0021344
1.0021714
1.0022083
1.0022451
1.0022816
1.0023178
1.0023537
1.0023891
1.002424
1.0024582
1.0024918
1.0025248
1.0025569
1.0025885
1.0026191
1.0026489
1.0026778
1.002706
1.002733
1.0027587
1.0027833
1.0028066
1.0028284
1.0028486
1.0028672
1.002884
1.0028989
1.0029117
1.0029221
1.0029301
1.0029356
1.0029403
1.0029431
1.0029511
1.0029505
1.0029497
1.0029482
1.0029431
1.0029333
1.0029119
1.0028845
1.0028551
1.0028257
1.0027946
1.0027579
1.0027118
1.0026552
1.0025882
1.0025107
1.0024267
1.0023373
1.002241
1.0021383
1.0020317
1.0019199
1.000913
1.0009159
1.0009201
1.000925
1.0009313
1.0009389
1.0009477
1.0009575
1.0009685
1.0009806
1.0009937
1.0010078
1.0010229
1.0010391
1.0010563
1.0010744
1.0010935
1.0011135
1.0011344
1.0011562
1.0011789
1.0012025
1.0012269
1.0012522
1.0012783
1.0013053
1.0013332
1.0013619
1.0013915
1.001422
1.0014534
1.0014857
1.0015187
1.0015522
1.0015862
1.0016206
1.0016554
1.0016907
1.0017266
1.0017629
1.0017995
1.0018363
1.0018733
1.0019107
1.0019481
1.0019857
1.0020232
1.0020596
1.0020964
1.0021334
1.0021702
1.0022069
1.0022436
1.0022798
1.0023159
1.0023515
1.0023867
1.0024214
1.0024553
1.0024885
1.0025211
1.0025529
1.0025841
1.0026142
1.0026435
1.0026718
1.0026992
1.0027255
1.0027506
1.0027744
1.0027968
1.0028178
1.0028371
1.0028547
1.0028705
1.0028843
1.0028959
1.0029052
1.0029122
1.0029173
1.0029209
1.0029247
1.0029317
1.0029323
1.0029366
1.0029259
1.0029141
1.0028994
1.0028787
1.0028522
1.0028224
1.002791
1.0027599
1.0027266
1.0026872
1.0026381
1.0025781
1.0025085
1.0024285
1.0023386
1.0022424
1.0021387
1.0020322
1.0019201
1.0009131
1.000916
1.0009202
1.0009252
1.0009315
1.000939
1.0009478
1.0009576
1.0009686
1.0009806
1.0009937
1.0010078
1.0010229
1.0010391
1.0010563
1.0010744
1.0010935
1.0011134
1.0011343
1.0011561
1.0011788
1.0012023
1.0012267
1.0012519
1.001278
1.001305
1.0013329
1.0013617
1.0013913
1.0014219
1.0014533
1.0014856
1.0015185
1.001552
1.0015859
1.0016201
1.0016549
1.0016902
1.0017261
1.0017624
1.001799
1.0018358
1.0018728
1.00191
1.0019474
1.0019847
1.0020219
1.0020588
1.0020957
1.0021326
1.0021693
1.0022058
1.0022422
1.0022784
1.0023143
1.0023497
1.0023847
1.0024191
1.0024527
1.0024857
1.002518
1.0025494
1.0025801
1.0026098
1.0026386
1.0026664
1.0026931
1.0027188
1.0027432
1.0027662
1.0027879
1.0028081
1.0028265
1.0028433
1.0028581
1.002871
1.0028815
1.0028896
1.0028954
1.0028996
1.002903
1.0029068
1.0029131
1.0029265
1.0029267
1.0029158
1.0029003
1.0028789
1.0028533
1.0028251
1.0027939
1.0027608
1.0027267
1.0026914
1.0026532
1.0026084
1.002554
1.0024889
1.0024134
1.0023293
1.0022379
1.0021406
1.0020416
1.0019236
1.0009131
1.0009161
1.0009203
1.0009253
1.0009316
1.0009392
1.0009479
1.0009578
1.0009687
1.0009807
1.0009938
1.0010078
1.0010229
1.0010391
1.0010563
1.0010744
1.0010934
1.0011133
1.0011341
1.0011559
1.0011786
1.0012021
1.0012265
1.0012517
1.0012779
1.0013049
1.0013328
1.0013616
1.0013913
1.0014218
1.0014534
1.0014855
1.0015183
1.0015516
1.0015854
1.0016197
1.0016545
1.0016898
1.0017257
1.0017619
1.0017985
1.0018352
1.0018721
1.0019093
1.0019466
1.0019838
1.002021
1.002058
1.0020949
1.0021317
1.0021683
1.0022048
1.0022411
1.0022771
1.0023128
1.002348
1.0023828
1.0024169
1.0024504
1.0024831
1.002515
1.0025461
1.0025764
1.0026057
1.002634
1.0026614
1.0026876
1.0027126
1.0027364
1.0027588
1.0027798
1.0027992
1.0028169
1.0028328
1.0028467
1.0028586
1.0028682
1.0028753
1.0028801
1.0028853
1.0028875
1.0029103
1.0028965
1.0028923
1.0028873
1.0028768
1.0028652
1.0028473
1.0028251
1.0027992
1.0027697
1.0027368
1.0027009
1.0026625
1.0026212
1.0025753
1.0025219
1.002459
1.0023865
1.0023058
1.0022218
1.0021252
1.0020273
1.0019264
1.0009132
1.0009162
1.0009205
1.0009254
1.0009317
1.0009393
1.000948
1.0009578
1.0009687
1.0009807
1.0009937
1.0010078
1.0010229
1.0010391
1.0010563
1.0010744
1.0010935
1.0011135
1.0011344
1.0011563
1.001179
1.0012025
1.0012268
1.0012519
1.001278
1.0013052
1.0013333
1.0013623
1.001392
1.0014225
1.0014536
1.0014854
1.001518
1.0015512
1.001585
1.0016192
1.001654
1.0016894
1.0017252
1.0017613
1.0017978
1.0018345
1.0018714
1.0019085
1.0019457
1.0019829
1.0020201
1.002057
1.002094
1.0021307
1.0021673
1.0022037
1.0022399
1.0022757
1.0023113
1.0023463
1.0023809
1.0024148
1.002448
1.0024804
1.0025121
1.0025428
1.0025728
1.0026017
1.0026296
1.0026564
1.0026822
1.0027067
1.0027299
1.0027517
1.0027721
1.0027909
1.002808
1.0028231
1.0028363
1.0028474
1.0028561
1.0028623
1.0028669
1.0028746
1.0028725
1.0029131
1.002883
1.0028862
1.0028679
1.0028517
1.0028353
1.0028158
1.0027944
1.0027707
1.0027438
1.0027132
1.0026781
1.0026387
1.0025952
1.0025474
1.0024945
1.0024345
1.0023671
1.0022912
1.0022079
1.0021224
1.0020318
1.001923
1.0009132
1.0009163
1.0009205
1.0009255
1.0009318
1.0009393
1.000948
1.0009578
1.0009687
1.0009807
1.0009938
1.0010079
1.001023
1.0010391
1.0010563
1.0010744
1.0010935
1.0011135
1.0011344
1.0011562
1.0011789
1.0012024
1.0012266
1.0012516
1.0012777
1.001305
1.0013332
1.0013621
1.0013918
1.0014222
1.0014532
1.001485
1.0015175
1.0015506
1.0015843
1.0016186
1.0016534
1.0016887
1.0017245
1.0017606
1.001797
1.0018337
1.0018705
1.0019075
1.0019447
1.0019819
1.002019
1.0020559
1.0020929
1.0021296
1.0021661
1.0022024
1.0022385
1.0022743
1.0023096
1.0023446
1.0023789
1.0024126
1.0024455
1.0024777
1.0025091
1.0025396
1.0025692
1.0025978
1.0026253
1.0026517
1.002677
1.0027011
1.0027238
1.0027451
1.002765
1.0027832
1.0027996
1.0028142
1.0028267
1.0028369
1.0028447
1.0028509
1.0028616
1.0028617
1.0028737
1.0028737
1.0028677
1.0028615
1.0028471
1.0028326
1.0028151
1.0027943
1.0027713
1.0027464
1.0027196
1.0026893
1.0026546
1.0026147
1.0025698
1.0025205
1.002467
1.0024085
1.0023436
1.0022717
1.002194
1.0021086
1.00202
1.0019256
1.0009132
1.0009164
1.0009206
1.0009255
1.0009318
1.0009393
1.000948
1.0009578
1.0009687
1.0009807
1.0009937
1.0010078
1.0010229
1.001039
1.0010561
1.0010741
1.0010931
1.0011131
1.001134
1.0011558
1.0011785
1.0012021
1.0012264
1.0012513
1.0012774
1.0013048
1.001333
1.0013618
1.0013914
1.0014217
1.0014526
1.0014843
1.0015167
1.0015498
1.0015835
1.0016177
1.0016525
1.0016878
1.0017235
1.0017596
1.001796
1.0018326
1.0018695
1.0019064
1.0019435
1.0019806
1.0020177
1.0020547
1.0020916
1.0021283
1.0021648
1.002201
1.002237
1.0022727
1.0023079
1.0023426
1.0023767
1.0024102
1.002443
1.0024749
1.002506
1.0025363
1.0025655
1.0025938
1.002621
1.0026471
1.002672
1.0026956
1.002718
1.0027388
1.0027582
1.002776
1.0027919
1.0028059
1.0028178
1.0028273
1.0028349
1.0028398
1.0028471
1.002863
1.0028578
1.0028581
1.0028551
1.0028468
1.0028319
1.0028176
1.0027992
1.0027777
1.0027538
1.0027271
1.0026979
1.0026662
1.0026306
1.0025905
1.0025448
1.002494
1.0024387
1.0023788
1.0023151
1.0022434
1.0021618
1.0020789
1.001994
1.0019054
1.0009132
1.0009164
1.0009207
1.0009256
1.0009318
1.0009393
1.000948
1.0009577
1.0009686
1.0009806
1.0009936
1.0010077
1.0010227
1.0010388
1.0010559
1.0010739
1.0010929
1.0011129
1.0011337
1.0011555
1.0011782
1.0012018
1.0012262
1.0012513
1.0012775
1.0013046
1.0013326
1.0013613
1.0013907
1.0014209
1.0014518
1.0014834
1.0015158
1.0015488
1.0015824
1.0016166
1.0016514
1.0016866
1.0017223
1.0017583
1.0017947
1.0018313
1.0018681
1.0019051
1.0019421
1.0019792
1.0020163
1.0020532
1.0020901
1.0021268
1.0021632
1.0021994
1.0022353
1.0022708
1.0023059
1.0023405
1.0023744
1.0024077
1.0024403
1.002472
1.0025029
1.0025329
1.0025619
1.0025899
1.0026168
1.0026426
1.0026671
1.0026904
1.0027124
1.0027329
1.0027519
1.0027692
1.0027846
1.0027981
1.0028095
1.0028186
1.0028251
1.0028293
1.0028314
1.0028379
1.0028402
1.0028389
1.0028393
1.0028345
1.0028252
1.0028129
1.0027938
1.0027705
1.0027444
1.0027162
1.0026856
1.002652
1.0026147
1.0025728
1.002527
1.0024762
1.0024205
1.0023604
1.0022959
1.0022269
1.0021566
1.0020776
1.0019946
1.0019058
1.0009132
1.0009165
1.0009207
1.0009256
1.0009318
1.0009393
1.0009479
1.0009577
1.0009686
1.0009805
1.0009935
1.0010076
1.0010226
1.0010387
1.0010557
1.0010737
1.0010926
1.0011125
1.0011333
1.0011551
1.0011777
1.0012012
1.0012257
1.001251
1.0012771
1.0013041
1.0013318
1.0013604
1.0013898
1.0014199
1.0014508
1.0014824
1.0015147
1.0015476
1.0015811
1.0016153
1.0016499
1.0016852
1.0017208
1.0017568
1.0017932
1.0018297
1.0018666
1.0019035
1.0019405
1.0019776
1.0020146
1.0020515
1.0020884
1.002125
1.0021614
1.0021975
1.0022334
1.0022688
1.0023037
1.0023381
1.0023719
1.0024051
1.0024374
1.002469
1.0024997
1.0025294
1.0025582
1.002586
1.0026126
1.0026381
1.0026624
1.0026855
1.0027072
1.0027274
1.002746
1.0027629
1.002778
1.002791
1.0028019
1.0028104
1.0028164
1.0028202
1.0028231
1.0028258
1.0028323
1.0028308
1.0028318
1.0028246
1.0028136
1.0027993
1.0027792
1.0027556
1.00273
1.0027022
1.0026718
1.0026375
1.0025994
1.0025565
1.0025092
1.002458
1.0024032
1.0023438
1.0022803
1.0022073
1.0021343
1.0020587
1.0019795
1.0018941
1.0009132
1.0009165
1.0009207
1.0009256
1.0009318
1.0009393
1.0009479
1.0009577
1.0009685
1.0009805
1.0009935
1.0010075
1.0010225
1.0010385
1.0010554
1.0010734
1.0010923
1.0011121
1.0011329
1.0011546
1.0011771
1.0012006
1.001225
1.0012502
1.0012763
1.0013032
1.0013309
1.0013594
1.0013888
1.0014188
1.0014497
1.0014812
1.0015134
1.0015462
1.0015797
1.0016138
1.0016484
1.0016835
1.0017191
1.0017551
1.0017914
1.001828
1.0018647
1.0019016
1.0019386
1.0019757
1.0020127
1.0020496
1.0020864
1.002123
1.0021593
1.0021954
1.0022311
1.0022664
1.0023013
1.0023356
1.0023692
1.0024022
1.0024344
1.0024658
1.0024963
1.0025259
1.0025545
1.0025821
1.0026085
1.0026338
1.0026579
1.0026807
1.0027021
1.002722
1.0027404
1.002757
1.0027717
1.0027844
1.0027949
1.0028029
1.0028085
1.0028124
1.0028205
1.002819
1.0028289
1.0028262
1.0028204
1.0028085
1.0027971
1.002782
1.0027619
1.0027386
1.0027129
1.0026856
1.0026555
1.0026215
1.002583
1.00254
1.0024934
1.002442
1.002387
1.0023277
1.0022656
1.0022013
1.002133
1.0020585
1.0019798
1.001895
1.0009131
1.0009165
1.0009208
1.0009256
1.0009318
1.0009393
1.0009479
1.0009576
1.0009685
1.0009803
1.0009933
1.0010072
1.0010222
1.0010382
1.0010551
1.001073
1.0010919
1.0011116
1.0011324
1.001154
1.0011765
1.0012
1.0012243
1.0012494
1.0012754
1.0013023
1.00133
1.0013584
1.0013877
1.0014176
1.0014484
1.0014798
1.001512
1.0015448
1.0015782
1.0016122
1.0016467
1.0016818
1.0017173
1.0017532
1.0017894
1.001826
1.0018627
1.0018996
1.0019366
1.0019736
1.0020105
1.0020474
1.0020842
1.0021207
1.002157
1.002193
1.0022287
1.0022639
1.0022986
1.0023328
1.0023663
1.0023992
1.0024313
1.0024625
1.0024929
1.0025223
1.0025508
1.0025781
1.0026044
1.0026295
1.0026533
1.0026759
1.0026972
1.0027169
1.0027351
1.0027515
1.0027659
1.0027782
1.0027883
1.0027959
1.0028012
1.0028054
1.0028138
1.0028134
1.0028129
1.0028049
1.0028029
1.0027906
1.0027805
1.0027662
1.0027477
1.0027253
1.0026996
1.002671
1.0026396
1.0026051
1.0025664
1.0025242
1.0024781
1.0024283
1.0023755
1.0023178
1.002255
1.0021853
1.0021107
1.0020372
1.0019637
1.0018842
1.000913
1.0009165
1.0009208
1.0009256
1.0009318
1.0009393
1.0009478
1.0009575
1.0009683
1.0009801
1.0009931
1.001007
1.0010219
1.0010378
1.0010547
1.0010726
1.0010914
1.0011111
1.0011318
1.0011534
1.0011759
1.0011992
1.0012235
1.0012486
1.0012745
1.0013013
1.0013289
1.0013573
1.0013865
1.0014163
1.001447
1.0014784
1.0015104
1.0015431
1.0015764
1.0016104
1.0016448
1.0016798
1.0017152
1.0017511
1.0017873
1.0018238
1.0018605
1.0018973
1.0019343
1.0019712
1.0020081
1.0020449
1.0020817
1.0021181
1.0021544
1.0021903
1.0022259
1.0022611
1.0022957
1.0023298
1.0023633
1.002396
1.002428
1.0024591
1.0024894
1.0025186
1.0025469
1.0025742
1.0026003
1.0026252
1.002649
1.0026715
1.0026926
1.0027122
1.0027301
1.0027463
1.0027605
1.0027725
1.0027822
1.0027895
1.0027946
1.0027987
1.002807
1.0028056
1.0028067
1.0028011
1.0027938
1.0027806
1.0027686
1.0027528
1.002734
1.0027118
1.0026865
1.0026575
1.0026261
1.0025914
1.0025534
1.0025114
1.0024642
1.0024111
1.0023562
1.0022984
1.0022394
1.0021747
1.0021078
1.0020379
1.0019652
1.0018858
1.000913
1.0009165
1.0009207
1.0009256
1.0009317
1.0009392
1.0009477
1.0009574
1.0009681
1.0009799
1.0009928
1.0010067
1.0010216
1.0010374
1.0010543
1.0010721
1.0010908
1.0011105
1.0011311
1.0011527
1.0011751
1.0011984
1.0012226
1.0012476
1.0012735
1.0013002
1.0013277
1.001356
1.0013851
1.0014149
1.0014455
1.0014767
1.0015087
1.0015413
1.0015745
1.0016084
1.0016427
1.0016777
1.001713
1.0017488
1.0017849
1.0018214
1.001858
1.0018948
1.0019317
1.0019686
1.0020055
1.0020423
1.002079
1.0021153
1.0021515
1.0021874
1.0022229
1.002258
1.0022926
1.0023266
1.00236
1.0023926
1.0024245
1.0024556
1.0024857
1.0025149
1.0025431
1.0025702
1.0025962
1.0026211
1.0026448
1.0026672
1.0026882
1.0027077
1.0027256
1.0027416
1.0027555
1.0027672
1.0027766
1.0027836
1.0027884
1.0027922
1.0027995
1.0027997
1.0028019
1.0028004
1.0027921
1.0027776
1.0027625
1.0027443
1.0027239
1.0027011
1.0026756
1.0026469
1.0026157
1.00258
1.00254
1.0024977
1.0024534
1.0024047
1.0023546
1.0022991
1.0022386
1.0021743
1.0021079
1.0020376
1.0019657
1.0018865
1.0009129
1.0009165
1.0009207
1.0009255
1.0009317
1.0009391
1.0009476
1.0009572
1.0009679
1.0009797
1.0009925
1.0010063
1.0010212
1.001037
1.0010538
1.0010716
1.0010903
1.0011099
1.0011305
1.0011519
1.0011743
1.0011975
1.0012216
1.0012466
1.0012724
1.001299
1.0013264
1.0013546
1.0013836
1.0014134
1.0014438
1.001475
1.0015068
1.0015393
1.0015724
1.0016062
1.0016405
1.0016753
1.0017106
1.0017463
1.0017824
1.0018187
1.0018554
1.0018921
1.001929
1.0019658
1.0020026
1.0020393
1.0020759
1.0021123
1.0021484
1.0021842
1.0022197
1.0022547
1.0022892
1.0023232
1.0023565
1.002389
1.0024208
1.0024518
1.0024819
1.002511
1.0025391
1.0025661
1.0025921
1.002617
1.0026407
1.0026631
1.0026841
1.0027035
1.0027212
1.0027371
1.0027508
1.0027622
1.0027713
1.0027779
1.0027819
1.0027845
1.002786
1.0027887
1.0027925
1.00279
1.0027824
1.0027698
1.0027551
1.0027369
1.0027166
1.0026936
1.0026676
1.0026382
1.0026069
1.002572
1.002537
1.0024976
1.0024532
1.0024052
1.0023539
1.0022986
1.0022397
1.0021763
1.0021105
1.0020388
1.0019687
1.0018892
1.0009128
1.0009164
1.0009207
1.0009255
1.0009316
1.0009389
1.0009474
1.000957
1.0009676
1.0009794
1.0009922
1.001006
1.0010207
1.0010365
1.0010533
1.001071
1.0010896
1.0011092
1.0011297
1.0011511
1.0011734
1.0011965
1.0012206
1.0012454
1.0012712
1.0012977
1.001325
1.0013532
1.0013821
1.0014117
1.001442
1.0014731
1.0015048
1.0015372
1.0015702
1.0016038
1.001638
1.0016727
1.0017079
1.0017436
1.0017796
1.0018159
1.0018524
1.0018891
1.0019259
1.0019627
1.0019995
1.0020361
1.0020726
1.002109
1.002145
1.0021808
1.0022162
1.0022512
1.0022856
1.0023195
1.0023527
1.0023853
1.002417
1.0024479
1.0024779
1.0025069
1.002535
1.0025621
1.0025881
1.002613
1.0026368
1.0026592
1.0026802
1.0026995
1.0027171
1.0027328
1.0027464
1.0027577
1.0027664
1.0027724
1.0027761
1.0027784
1.0027805
1.0027854
1.0027832
1.0027828
1.0027755
1.0027638
1.0027495
1.0027318
1.002712
1.0026899
1.0026655
1.0026376
1.0026069
1.0025726
1.0025351
1.0024949
1.0024515
1.0024045
1.0023552
1.0022998
1.0022414
1.0021793
1.0021134
1.0020425
1.0019724
1.0018943
1.0009127
1.0009164
1.0009206
1.0009254
1.0009315
1.0009388
1.0009472
1.0009567
1.0009674
1.0009791
1.0009918
1.0010055
1.0010203
1.001036
1.0010527
1.0010703
1.0010889
1.0011084
1.0011288
1.0011502
1.0011724
1.0011955
1.0012194
1.0012442
1.0012698
1.0012963
1.0013235
1.0013516
1.0013803
1.0014099
1.0014401
1.0014711
1.0015027
1.001535
1.0015678
1.0016013
1.0016354
1.00167
1.0017051
1.0017406
1.0017765
1.0018127
1.0018492
1.0018859
1.0019226
1.0019593
1.001996
1.0020326
1.0020691
1.0021053
1.0021413
1.002177
1.0022124
1.0022473
1.0022817
1.0023155
1.0023487
1.0023812
1.0024129
1.0024437
1.0024737
1.0025027
1.0025308
1.0025579
1.0025841
1.0026091
1.002633
1.0026555
1.0026764
1.0026957
1.0027132
1.0027288
1.0027423
1.0027535
1.0027621
1.0027682
1.0027723
1.0027755
1.0027812
1.0027802
1.0027779
1.0027759
1.0027683
1.0027587
1.002746
1.0027291
1.002709
1.0026866
1.0026625
1.0026351
1.0026052
1.0025716
1.0025356
1.0024948
1.0024522
1.0024057
1.0023568
1.0023031
1.002246
1.0021848
1.0021202
1.0020501
1.0019811
1.0019031
1.0009126
1.0009163
1.0009205
1.0009253
1.0009313
1.0009386
1.000947
1.0009565
1.0009671
1.0009787
1.0009914
1.0010051
1.0010198
1.0010354
1.001052
1.0010696
1.0010881
1.0011076
1.0011279
1.0011492
1.0011713
1.0011943
1.0012182
1.0012429
1.0012684
1.0012948
1.0013219
1.0013498
1.0013785
1.0014079
1.0014381
1.0014689
1.0015004
1.0015325
1.0015653
1.0015987
1.0016326
1.0016671
1.001702
1.0017374
1.0017732
1.0018093
1.0018457
1.0018823
1.0019189
1.0019556
1.0019922
1.0020287
1.0020651
1.0021013
1.0021373
1.0021729
1.0022083
1.0022431
1.0022775
1.0023112
1.0023444
1.0023768
1.0024085
1.0024393
1.0024693
1.0024984
1.0025265
1.0025538
1.0025801
1.0026053
1.0026294
1.002652
1.002673
1.0026923
1.0027097
1.0027253
1.002739
1.0027504
1.0027595
1.0027664
1.002771
1.0027745
1.0027806
1.0027772
1.002786
1.002777
1.0027653
1.0027557
1.0027431
1.0027275
1.0027085
1.0026869
1.002663
1.0026364
1.0026071
1.0025741
1.0025386
1.0024989
1.0024568
1.002411
1.0023627
1.0023099
1.002254
1.0021938
1.0021307
1.002062
1.0019941
1.0019163
1.0009125
1.0009162
1.0009204
1.0009252
1.0009312
1.0009384
1.0009468
1.0009562
1.0009668
1.0009783
1.000991
1.0010046
1.0010192
1.0010348
1.0010514
1.0010689
1.0010873
1.0011067
1.0011269
1.0011481
1.0011702
1.0011931
1.0012168
1.0012415
1.0012669
1.0012931
1.0013202
1.0013479
1.0013765
1.0014058
1.0014358
1.0014665
1.0014979
1.0015299
1.0015626
1.0015958
1.0016296
1.0016639
1.0016988
1.001734
1.0017697
1.0018057
1.0018419
1.0018783
1.0019148
1.0019514
1.001988
1.0020245
1.0020608
1.0020969
1.0021329
1.0021685
1.0022038
1.0022386
1.0022729
1.0023067
1.0023398
1.0023722
1.0024039
1.0024347
1.0024646
1.0024938
1.0025221
1.0025496
1.0025761
1.0026017
1.0026261
1.002649
1.0026703
1.0026897
1.0027074
1.0027233
1.0027373
1.0027492
1.0027589
1.0027665
1.0027718
1.0027756
1.0027816
1.0027807
1.00278
1.0027758
1.0027668
1.0027579
1.0027452
1.0027297
1.0027112
1.0026907
1.0026679
1.0026422
1.0026139
1.002582
1.0025473
1.0025086
1.002467
1.0024218
1.0023742
1.0023223
1.0022678
1.0022084
1.0021473
1.0020797
1.0020143
1.0019362
1.0009124
1.0009162
1.0009204
1.000925
1.000931
1.0009382
1.0009465
1.0009559
1.0009664
1.0009779
1.0009905
1.001004
1.0010186
1.0010341
1.0010506
1.001068
1.0010864
1.0011057
1.0011259
1.0011469
1.0011689
1.0011917
1.0012154
1.0012399
1.0012652
1.0012913
1.0013183
1.0013459
1.0013744
1.0014035
1.0014334
1.001464
1.0014952
1.0015271
1.0015596
1.0015927
1.0016264
1.0016606
1.0016953
1.0017304
1.001766
1.0018018
1.0018379
1.0018741
1.0019106
1.0019469
1.0019834
1.0020198
1.0020561
1.0020922
1.0021281
1.0021636
1.0021989
1.0022337
1.002268
1.0023018
1.0023349
1.0023673
1.002399
1.0024298
1.0024599
1.0024892
1.0025179
1.0025459
1.0025729
1.0025989
1.0026239
1.0026475
1.0026693
1.0026891
1.0027072
1.0027233
1.0027373
1.0027492
1.0027589
1.0027667
1.0027723
1.002776
1.0027784
1.0027824
1.0027779
1.0027774
1.0027687
1.0027613
1.0027498
1.002736
1.0027189
1.0026999
1.002678
1.0026534
1.0026261
1.0025954
1.0025618
1.0025241
1.0024836
1.0024391
1.0023923
1.0023413
1.002288
1.0022298
1.0021705
1.0021047
1.0020417
1.0019631
1.0009122
1.0009161
1.0009203
1.0009249
1.0009309
1.000938
1.0009463
1.0009556
1.000966
1.0009775
1.00099
1.0010035
1.0010179
1.0010334
1.0010498
1.0010671
1.0010854
1.0011046
1.0011247
1.0011457
1.0011676
1.0011903
1.0012138
1.0012382
1.0012634
1.0012894
1.0013162
1.0013437
1.0013721
1.0014011
1.0014308
1.0014612
1.0014923
1.0015241
1.0015564
1.0015894
1.0016229
1.001657
1.0016916
1.0017266
1.001762
1.0017977
1.0018336
1.0018697
1.001906
1.0019423
1.0019786
1.0020149
1.0020511
1.0020871
1.0021228
1.0021584
1.0021936
1.0022284
1.0022628
1.0022965
1.0023297
1.0023621
1.0023938
1.0024249
1.0024552
1.0024851
1.0025145
1.0025433
1.0025711
1.0025979
1.0026234
1.0026473
1.0026693
1.0026897
1.0027085
1.0027252
1.00274
1.0027527
1.0027632
1.0027717
1.0027775
1.0027825
1.0027883
1.0027843
1.0027867
1.002784
1.0027767
1.0027711
1.002761
1.0027486
1.0027328
1.0027152
1.002694
1.0026705
1.0026439
1.0026144
1.0025817
1.0025455
1.0025062
1.0024631
1.0024173
1.0023675
1.0023157
1.0022589
1.0022017
1.0021375
1.0020772
1.0019994
1.0009121
1.000916
1.0009201
1.0009248
1.0009307
1.0009378
1.000946
1.0009552
1.0009656
1.000977
1.0009894
1.0010028
1.0010172
1.0010326
1.0010489
1.0010662
1.0010844
1.0011035
1.0011235
1.0011443
1.0011661
1.0011887
1.0012121
1.0012364
1.0012615
1.0012873
1.001314
1.0013414
1.0013696
1.0013984
1.001428
1.0014583
1.0014892
1.0015208
1.0015531
1.0015859
1.0016193
1.0016532
1.0016876
1.0017225
1.0017577
1.0017933
1.0018291
1.0018651
1.0019012
1.0019374
1.0019736
1.0020097
1.0020458
1.0020817
1.0021174
1.0021529
1.0021881
1.0022228
1.0022572
1.002291
1.0023242
1.0023567
1.0023888
1.0024204
1.0024518
1.0024828
1.0025133
1.0025429
1.0025711
1.0025983
1.0026236
1.0026472
1.0026693
1.0026899
1.002709
1.0027266
1.0027424
1.0027563
1.0027682
1.0027779
1.0027855
1.002791
1.0027942
1.0027954
1.0027965
1.0027974
1.0027926
1.0027884
1.0027799
1.002769
1.0027546
1.0027379
1.0027183
1.0026958
1.0026701
1.0026416
1.0026099
1.002575
1.0025369
1.0024953
1.0024507
1.0024025
1.0023521
1.0022972
1.002242
1.0021794
1.0021224
1.0020446
1.000912
1.0009159
1.00092
1.0009246
1.0009305
1.0009375
1.0009456
1.0009548
1.0009651
1.0009765
1.0009888
1.0010021
1.0010164
1.0010317
1.001048
1.0010651
1.0010832
1.0011022
1.0011221
1.0011429
1.0011645
1.001187
1.0012103
1.0012344
1.0012593
1.0012851
1.0013116
1.0013388
1.0013668
1.0013956
1.001425
1.0014551
1.0014859
1.0015174
1.0015494
1.0015821
1.0016154
1.0016492
1.0016834
1.0017182
1.0017533
1.0017887
1.0018243
1.0018602
1.0018962
1.0019322
1.0019683
1.0020043
1.0020403
1.0020762
1.0021118
1.0021473
1.0021824
1.0022172
1.0022516
1.0022855
1.0023189
1.0023519
1.0023848
1.0024177
1.0024506
1.0024826
1.0025133
1.0025428
1.0025712
1.0025983
1.0026245
1.0026494
1.002673
1.0026948
1.0027148
1.0027331
1.0027497
1.0027645
1.0027775
1.0027887
1.002798
1.0028054
1.0028107
1.0028141
1.0028159
1.0028184
1.0028154
1.0028126
1.002806
1.0027969
1.0027841
1.002769
1.0027508
1.0027295
1.0027052
1.0026779
1.0026474
1.002614
1.0025773
1.0025374
1.0024944
1.0024477
1.0023989
1.0023458
1.0022922
1.0022318
1.0021776
1.0020995
1.0009119
1.0009158
1.0009199
1.0009244
1.0009302
1.0009372
1.0009453
1.0009544
1.0009646
1.0009759
1.0009881
1.0010014
1.0010156
1.0010308
1.0010469
1.001064
1.001082
1.0011008
1.0011206
1.0011413
1.0011628
1.0011851
1.0012083
1.0012323
1.0012571
1.0012827
1.001309
1.0013361
1.0013639
1.0013925
1.0014218
1.0014518
1.0014824
1.0015137
1.0015456
1.0015781
1.0016112
1.0016449
1.001679
1.0017136
1.0017485
1.0017838
1.0018193
1.001855
1.0018909
1.0019267
1.0019628
1.0019987
1.0020347
1.0020705
1.0021062
1.0021416
1.0021768
1.0022117
1.0022462
1.0022804
1.0023145
1.0023486
1.0023829
1.0024171
1.0024507
1.0024834
1.002515
1.0025452
1.0025743
1.0026023
1.002629
1.0026546
1.0026788
1.0027015
1.0027228
1.0027425
1.0027607
1.0027772
1.002792
1.0028052
1.0028166
1.0028261
1.0028338
1.0028396
1.002843
1.0028448
1.0028463
1.0028445
1.0028394
1.0028317
1.0028209
1.0028074
1.0027909
1.0027713
1.0027487
1.0027228
1.002694
1.0026622
1.0026273
1.0025891
1.002548
1.0025033
1.0024565
1.0024054
1.0023538
1.0022955
1.0022439
1.0021651
1.0009117
1.0009157
1.0009197
1.0009242
1.00093
1.0009369
1.0009449
1.000954
1.0009641
1.0009752
1.0009874
1.0010006
1.0010147
1.0010298
1.0010458
1.0010627
1.0010806
1.0010994
1.001119
1.0011395
1.0011609
1.0011831
1.0012061
1.00123
1.0012546
1.00128
1.0013062
1.0013331
1.0013608
1.0013892
1.0014183
1.0014481
1.0014786
1.0015097
1.0015415
1.0015739
1.0016068
1.0016403
1.0016743
1.0017087
1.0017435
1.0017786
1.0018139
1.0018495
1.0018853
1.0019211
1.001957
1.001993
1.0020289
1.0020647
1.0021005
1.002136
1.0021714
1.0022065
1.0022415
1.0022766
1.002312
1.0023476
1.0023828
1.0024177
1.0024517
1.0024847
1.0025168
1.002548
1.0025782
1.0026074
1.0026354
1.0026624
1.002688
1.0027124
1.0027355
1.0027571
1.0027772
1.0027959
1.0028128
1.0028282
1.0028418
1.0028536
1.0028634
1.0028715
1.0028773
1.0028805
1.0028839
1.002883
1.0028798
1.0028737
1.0028646
1.0028527
1.0028378
1.0028198
1.0027988
1.0027747
1.0027476
1.0027175
1.0026846
1.0026485
1.0026099
1.0025677
1.0025238
1.0024755
1.0024273
1.0023717
1.0023244
1.0022445
1.0009116
1.0009156
1.0009196
1.000924
1.0009297
1.0009366
1.0009445
1.0009534
1.0009635
1.0009745
1.0009866
1.0009997
1.0010137
1.0010287
1.0010446
1.0010614
1.0010791
1.0010978
1.0011173
1.0011377
1.0011589
1.0011809
1.0012038
1.0012275
1.0012519
1.0012772
1.0013031
1.0013299
1.0013574
1.0013856
1.0014145
1.0014442
1.0014745
1.0015055
1.0015371
1.0015693
1.0016021
1.0016354
1.0016692
1.0017035
1.0017381
1.0017731
1.0018083
1.0018438
1.0018795
1.0019153
1.0019511
1.0019871
1.002023
1.002059
1.0020949
1.0021306
1.0021664
1.0022022
1.0022383
1.002275
1.0023115
1.002348
1.0023839
1.0024192
1.0024538
1.0024878
1.0025211
1.0025536
1.0025853
1.0026161
1.0026459
1.0026747
1.0027023
1.0027288
1.0027538
1.0027776
1.0027999
1.0028208
1.0028399
1.0028574
1.0028731
1.002887
1.0028988
1.0029087
1.0029166
1.0029218
1.0029263
1.002927
1.0029251
1.0029202
1.0029126
1.0029021
1.0028888
1.0028726
1.0028537
1.0028316
1.002807
1.0027792
1.0027489
1.0027155
1.0026799
1.0026408
1.0026005
1.0025555
1.0025113
1.0024592
1.0024162
1.0023359
1.0009115
1.0009155
1.0009194
1.0009238
1.0009294
1.0009362
1.000944
1.0009529
1.0009628
1.0009738
1.0009857
1.0009987
1.0010126
1.0010275
1.0010432
1.0010599
1.0010775
1.001096
1.0011154
1.0011356
1.0011566
1.0011785
1.0012012
1.0012247
1.001249
1.0012741
1.0012999
1.0013265
1.0013537
1.0013818
1.0014105
1.00144
1.0014701
1.0015009
1.0015324
1.0015644
1.001597
1.0016302
1.0016638
1.001698
1.0017325
1.0017673
1.0018025
1.0018379
1.0018735
1.0019093
1.0019452
1.0019812
1.0020173
1.0020534
1.0020897
1.002126
1.0021626
1.0021999
1.0022374
1.0022751
1.0023125
1.0023497
1.0023864
1.0024227
1.0024587
1.0024942
1.0025292
1.0025635
1.0025971
1.0026299
1.0026618
1.0026927
1.0027224
1.0027509
1.0027781
1.0028041
1.0028283
1.0028512
1.0028722
1.0028917
1.0029092
1.0029248
1.0029383
1.0029496
1.0029588
1.0029651
1.0029706
1.0029724
1.0029718
1.0029682
1.0029618
1.0029528
1.0029412
1.0029266
1.0029099
1.0028901
1.002868
1.0028426
1.0028152
1.0027842
1.0027521
1.0027159
1.0026795
1.0026378
1.0025981
1.0025493
1.0025109
1.0024359
1.0009114
1.0009153
1.0009192
1.0009235
1.0009291
1.0009358
1.0009435
1.0009523
1.0009621
1.000973
1.0009848
1.0009976
1.0010114
1.0010261
1.0010418
1.0010583
1.0010758
1.0010941
1.0011133
1.0011334
1.0011542
1.0011759
1.0011985
1.0012217
1.0012458
1.0012707
1.0012963
1.0013227