/*--------------------------------*- C++ -*----------------------------------*\
| =========                 |                                                 |
| \\      /  F ield         | OpenFOAM: The Open Source CFD Toolbox           |
|  \\    /   O peration     | Version:  2406                                  |
|   \\  /    A nd           | Website:  www.openfoam.com                      |
|    \\/     M anipulation  |                                                 |
\*---------------------------------------------------------------------------*/
FoamFile
{
    version     2.0;
    format      ascii;
    arch        "LSB;label=32;scalar=64";
    class       surfaceScalarField;
    location    "180";
    object      phi;
}
// * * * * * * * * * * * * * * * * * * * * * * * * * * * * * * * * * * * * * //

dimensions      [1 0 -1 0 0 0 0];

oriented        oriented;

internalField   nonuniform List<scalar> 
40800
(
0.0008056653
0.0010675972
-0.00092778467
0.00089306124
0.0010132366
-0.0012797073
0.0009731051
0.0010466161
-0.0010581189
0.0010273972
0.00097269527
-0.0010662528
0.0010884847
0.00083365151
-0.0007819539
0.0011415966
0.00084740381
-0.00084125359
0.0011993256
0.00079763924
-0.00078227253
0.0012339828
0.00077758128
-0.00095176657
0.0012813879
0.00079002611
-0.00082167314
0.0013171081
0.00080906557
-0.00088222303
0.0013489112
0.00082833312
-0.00082466345
0.0013789175
0.00072889625
-0.00078474809
0.0014272679
0.00083883537
-0.00084877489
0.0014535579
0.00085343684
-0.0009160531
0.0014820753
0.00078858022
-0.00084170903
0.0015558314
0.00088100147
-0.0009079445
0.0015861194
0.0010210673
-0.0010881929
0.00158125
0.0007908258
-0.00085543013
0.0017337679
0.00098139112
-0.00097606714
0.0017723546
0.0012177746
-0.0013099634
0.0017587792
0.0010381038
-0.0011727914
0.0018816841
0.0010877293
-0.0011526017
0.0020443476
0.0013721726
-0.0014489994
0.0020505305
0.0013740453
-0.0015331031
0.0020202466
0.0012414802
-0.0013499532
0.0022827103
0.0013050726
-0.0013299323
0.0024427866
0.0015888536
-0.0016284398
0.0024680385
0.0019198589
-0.002003321
0.0027478805
0.0019376491
-0.0020698294
0.0029723032
0.001676451
-0.0019909015
0.001757028
0.0027258835
-0.0020641547
0.00080143469
0.0012407355
0.00088385277
0.00075362986
0.00096239617
0.00099272208
0.001021778
0.00084280403
0.0010880143
0.00089042957
0.0011416773
0.00083578826
0.0011988481
0.0008257315
0.0012356031
0.00064284388
0.001286662
0.00076920633
0.0013261098
0.00075586452
0.0013558146
0.00078060164
0.0013964905
0.00071024755
0.0014403622
0.00079716298
0.001461243
0.00078339989
0.0014972662
0.00074250054
0.0015720928
0.00083357241
0.0015672564
0.00090100046
0.0016028895
0.00075565001
0.001754169
0.00099982043
0.0017342769
0.0010991409
0.0017478058
0.00092865449
0.0019032042
0.0010683985
0.002007349
0.0012861364
0.0019914594
0.0012332967
0.0019894772
0.0012248337
0.0023065976
0.0013800339
0.0025288554
0.0015616906
0.0024346206
0.0017561664
0.0025170436
0.0018012554
0.0028442291
0.0015090204
0.0014638325
0.0029121451
0.00079953127
0.0013356545
0.00087615054
0.00055468889
0.0009483025
0.0009201771
0.0010126498
0.00071411375
0.0010818738
0.00088826136
0.0011386003
0.00078432728
0.0011931661
0.0008150592
0.0012395402
0.00059303065
0.0012911897
0.00075830687
0.0013336546
0.00072790313
0.0013634544
0.00069114679
0.001413734
0.00071989484
0.001452727
0.00074248893
0.0014733202
0.00070070278
0.0015163055
0.00070822364
0.0015866351
0.00078329659
0.0015640557
0.0007741807
0.0016389742
0.00075781402
0.0017690077
0.0010149824
0.0017087848
0.00095889619
0.001761667
0.00084673689
0.0019259731
0.0010748545
0.0019756809
0.0012216495
0.0019786661
0.0011015255
0.0020017337
0.0012157001
0.0022970632
0.0014801554
0.0025448647
0.0015322278
0.0024269037
0.0015163644
0.0023490216
0.0015932297
0.0026745628
0.0015031822
0.0013482457
0.0030122971
0.00079438153
0.0012729862
0.00087204664
0.00044762509
0.00093516078
0.00084087283
0.0010003471
0.00062576416
0.0010688946
0.00080511043
0.001129864
0.00068427871
0.0011820955
0.00072212517
0.0012414152
0.00061490082
0.0012908984
0.00072187419
0.0013336786
0.00069507052
0.0013704527
0.00060749364
0.0014251759
0.00071744539
0.0014605712
0.00068666738
0.0014866174
0.00062424457
0.0015352143
0.00067702869
0.0015979487
0.00074151163
0.001576888
0.00066812843
0.0016797043
0.00077604499
0.001772808
0.001004602
0.0017014375
0.00082517997
0.0017987383
0.00080738696
0.0019503007
0.0010885582
0.0019433836
0.0011529297
0.0019941029
0.00097987368
0.0020488457
0.0011529314
0.0022492977
0.0015048809
0.0024858715
0.0014699581
0.0024190795
0.0012548515
0.0022673126
0.0013122479
0.002510084
0.0015135335
0.0014550632
0.0029926519
0.00079284214
0.0010538922
0.00087307204
0.00046069745
0.00092618507
0.0007466114
0.00098851132
0.00057865551
0.0010499223
0.00066350454
0.0011137036
0.00055576494
0.0011681813
0.00056915435
0.0012384745
0.00064907177
0.0012855028
0.00063300451
0.0013267824
0.00062768322
0.0013731331
0.00057617709
0.0014245758
0.00068027553
0.0014587388
0.00063477706
0.0014941276
0.00056867341
0.0015473226
0.00065707376
0.0016010709
0.00071659265
0.0015978267
0.0005806263
0.0017142031
0.0007704308
0.0017650695
0.00095726611
0.0017123187
0.00071549982
0.0018479078
0.00080227487
0.0019708138
0.001090074
0.0019139141
0.0010771545
0.0020187952
0.00089232528
0.0021252343
0.0010402051
0.0022008012
0.001405345
0.0023579199
0.001373398
0.0023944498
0.0010266218
0.0023066826
0.0010405434
0.0024105843
0.0014354027
0.0016457184
0.0028421385
0.0007951026
0.00074322451
0.00087601208
0.00056554854
0.0009222462
0.00064457526
0.000979528
0.00057284525
0.0010304365
0.00049691467
0.0010939802
0.00044796588
0.0011538209
0.00042022624
0.0012251205
0.00063223861
0.0012727079
0.00052748172
0.0013163433
0.00053834683
0.0013698923
0.00058199155
0.0014149604
0.00061882237
0.0014484274
0.00058539567
0.0014938484
0.00053791677
0.0015479807
0.00063378944
0.0015878702
0.00068734743
0.0016126919
0.00054022191
0.0017311947
0.00075396495
0.0017416734
0.00085779835
0.0017282109
0.00063804371
0.0018919804
0.00080380839
0.0019796461
0.0010370755
0.0018882754
0.00097909426
0.0020457189
0.00085722684
0.0022061608
0.00093373426
0.0021794867
0.0012157214
0.0022117912
0.0012315365
0.0023468707
0.00090265396
0.0024133895
0.00085202173
0.0024402841
0.0012652626
0.0017046792
0.0026480648
0.0008012627
0.0004328937
0.00087445916
0.00066463622
0.00091729869
0.00056346881
0.00096926736
0.00060554705
0.0010134954
0.00036719364
0.0010732689
0.00039529933
0.0011368872
0.00033287315
0.0012009622
0.00055293599
0.0012514923
0.00045951843
0.0013007427
0.00047931018
0.001356182
0.00056358757
0.0013989852
0.00055806117
0.0014336923
0.00053371025
0.0014878093
0.00052592897
0.0015407792
0.0005976618
0.0015665989
0.00063866306
0.001621022
0.000545756
0.0017272706
0.00073540609
0.0017060636
0.00072709688
0.0017404399
0.00058185568
0.0019112572
0.00082043021
0.0019688724
0.00093324161
0.0018682101
0.00083590129
0.0020466199
0.00085821847
0.0022617527
0.00088786684
0.0021887941
0.00099406083
0.0021224266
0.0010539963
0.0023053825
0.00091644691
0.0025293816
0.00080852007
0.0025966413
0.0010530013
0.0015206398
0.0025795768
0.00081334294
0.00023742928
0.00087023511
0.00067717735
0.00091248061
0.00050389272
0.00095732516
0.00063153829
0.0010013196
0.00033122047
0.0010543386
0.00039397186
0.0011166389
0.00033117016
0.0011713032
0.00043824084
0.0012252321
0.00043617874
0.001277085
0.00047016519
0.0013287509
0.00051037068
0.0013714275
0.00049522567
0.0014102422
0.00048480694
0.0014701106
0.00052746112
0.0015217685
0.00054548671
0.0015407281
0.00056321691
0.0016198166
0.0005575994
0.001701608
0.00069729862
0.0016658014
0.00057730561
0.0017494555
0.00054309273
0.0018969843
0.00083530019
0.0019308124
0.00081449137
0.0018557363
0.0006623259
0.0020195097
0.00086316668
0.0022571799
0.00093081771
0.0021889548
0.00081211413
0.0020740823
0.00086572675
0.0022568151
0.00099403187
0.0025847319
0.00093654679
0.0027454221
0.00093515951
0.0011351129
0.0026503672
0.00083737256
0.00024271579
0.00087431472
0.00059569454
0.00091892476
0.00046132565
0.00095627712
0.00060243941
0.00099918007
0.00037832156
0.0010431239
0.00042182331
0.0010981521
0.00038452203
0.0011423994
0.00032916085
0.001196912
0.00042827278
0.0012459563
0.00047049677
0.0012920789
0.00045306329
0.0013334536
0.00043603223
0.0013757182
0.00043241458
0.001433748
0.0005175959
0.0014843785
0.00048493477
0.001503442
0.00047333683
0.0015986591
0.00055142899
0.0016547273
0.00063601353
0.001628499
0.00045919595
0.0017556927
0.000531156
0.0018574601
0.000810378
0.001871564
0.0006846498
0.0018613755
0.00050102586
0.0019915259
0.00083948319
0.0021937228
0.00099955341
0.0021838696
0.00070974952
0.0020974287
0.00068869549
0.0022161887
0.0010134539
0.0025395822
0.0011627378
0.0027472542
0.00095882661
0.00081723144
0.0027104002
0.00089291735
0.00043247129
0.00090028863
0.00045829934
0.00094245135
0.00044829051
0.0009718004
0.00052359161
0.0010110914
0.00044886059
0.0010458411
0.0004306976
0.0010880651
0.00042743922
0.0011232143
0.0002613651
0.0011683978
0.00039188096
0.0012083655
0.00042634259
0.0012491437
0.00040967713
0.0012868974
0.00038499116
0.001331157
0.00037607644
0.0013799687
0.00048331359
0.0014278841
0.00042438465
0.0014530674
0.00037925632
0.0015518532
0.00051836517
0.0015862936
0.00056997107
0.0015875222
0.00037677821
0.001744964
0.00052877891
0.0017943018
0.0007555544
0.0017925471
0.00058364164
0.0018752803
0.00039361465
0.001977834
0.00075554535
0.0020825818
0.001009388
0.0021453062
0.00069123824
0.0021617441
0.00054820443
0.0022358612
0.00090918431
0.0024369709
0.0012785514
0.0026200025
0.0010857971
0.00067423471
0.0026718251
0.0009828103
0.00067824542
0.00097112839
0.00029327373
0.0010060236
0.00047236843
0.0010271716
0.00042073826
0.0010529983
0.00049219276
0.0010673593
0.00039950534
0.001083029
0.00041799634
0.0011067593
0.00025044123
0.0011369769
0.00032824522
0.0011666961
0.00035503195
0.0012010832
0.0003871241
0.0012323896
0.00034616937
0.0012774733
0.00033513149
0.0013127198
0.00041979725
0.0013559704
0.00037034454
0.0013912879
0.00030212181
0.0014829709
0.0004607847
0.0014968954
0.00047096834
0.0015326693
0.00032394212
0.0017070583
0.00051335237
0.0017104977
0.00065349785
0.0017007095
0.00051318727
0.0018738685
0.00036621967
0.0019767993
0.00064033151
0.0019687427
0.00091358626
0.0020517933
0.00071388338
0.0021914698
0.00047762241
0.002302956
0.00071767624
0.0023460141
0.0011282741
0.0024214564
0.0011387038
0.00072972751
0.0025156693
0.0010266995
0.00083554893
0.0010481681
0.00013887084
0.0010834388
0.0004888462
0.0011056008
0.00030932456
0.001121865
0.00046548532
0.0011162084
0.00033845548
0.0011004872
0.00035616229
0.0011012384
0.00029690399
0.0011054435
0.00029519411
0.0011230885
0.00032442183
0.0011496827
0.00037270529
0.0011765998
0.00031199968
0.0012210566
0.00032172095
0.0012442999
0.00034685605
0.0012819775
0.00033338871
0.0013283247
0.00026791201
0.001402329
0.00039040884
0.0014009534
0.00035009272
0.0014663945
0.00030755596
0.0016332476
0.0005016668
0.0016055105
0.00050149151
0.0015965021
0.00042358352
0.0018379693
0.00041089772
0.0019506441
0.00054557737
0.0018640594
0.00070238543
0.0019307782
0.00066761991
0.0021686658
0.00050269269
0.0023351501
0.00056027156
0.0023038296
0.00077052701
0.0022609292
0.00095186092
0.00079153221
0.0023367365
0.0010355109
0.00082409231
0.0010861107
8.1397566e-05
0.0011206508
0.00046647112
0.0011463053
0.00023606621
0.0011608947
0.00036692986
0.0011530507
0.00025390882
0.0011241184
0.00027340053
0.0011095081
0.00035884075
0.0010999721
0.00030598591
0.0011106018
0.00034745167
0.0011289914
0.00033096254
0.0011573779
0.00028768697
0.0012003326
0.00031809454
0.001219444
0.00027918083
0.0012521764
0.00029872052
0.0013077325
0.00026492887
0.0013616254
0.00033352722
0.0013573195
0.00025969935
0.0014386853
0.0003120339
0.0015690034
0.00050245581
0.0015269586
0.00035245186
0.0015154864
0.00032665809
0.0017672715
0.00049881241
0.0018847795
0.00050146731
0.0017675297
0.00044102455
0.001798738
0.00051931551
0.0020755906
0.00057859364
0.002270954
0.00049609883
0.0022466538
0.00045911633
0.0021262063
0.00055656073
0.00070572309
0.0021760005
0.0010397975
0.00061691317
0.001095473
0.0001399464
0.0011252285
0.00041519842
0.0011524436
0.00024738427
0.0011592125
0.00026093026
0.0011544157
0.0001986344
0.0011313403
0.00022026073
0.0011178155
0.00039054694
0.001111973
0.00033248261
0.0011207128
0.00036863209
0.0011364595
0.00027786911
0.0011679335
0.00027313352
0.0012056782
0.0003101489
0.0012275222
0.00022222115
0.0012570277
0.00026482749
0.0013166181
0.00027293464
0.0013540385
0.00028985935
0.0013612686
0.00019058082
0.0014536173
0.00031361374
0.001532715
0.00047536872
0.0015068305
0.00021966249
0.0015129089
0.00024461194
0.0017195376
0.00056773327
0.0018195972
0.00050978949
0.0017192381
0.00022890985
0.0017319599
0.00032579
0.001958016
0.00062147453
0.0021470606
0.00054462617
0.0021570203
0.00030532876
0.0020615971
0.00021605395
0.0004766525
0.0020740851
0.0010511896
0.00030150086
0.0010896926
0.00026522787
0.001113697
0.00035010858
0.0011407341
0.00032061386
0.0011420885
0.00021522654
0.0011408238
0.00023219249
0.0011326085
0.00023630773
0.0011335182
0.00037411328
0.0011457933
0.00033775773
0.0011577071
0.00034190945
0.0011798009
0.0002437947
0.0012172438
0.0002526236
0.0012504349
0.00029312802
0.001282047
0.00018674772
0.001311788
0.00022443722
0.0013710722
0.00027613111
0.0013944667
0.00025861361
0.0014181647
0.00014319962
0.0015110303
0.00029798366
0.0015311957
0.00042284696
0.0015364183
0.00012821932
0.0015801342
0.00016291627
0.0017123306
0.00056453537
0.0017672267
0.0005216075
0.0017267996
0.00011162272
0.0017710415
0.00016401873
0.001904545
0.00056692947
0.0020317689
0.00065435321
0.002056911
0.00030761754
0.0020600964
8.9340881e-05
0.0002466261
0.0020852021
0.0010487958
5.7367927e-05
0.0010536322
0.00041047784
0.0010702299
0.00026383828
0.0010935377
0.00039212153
0.0011022925
0.0002312696
0.0011189589
0.00032429243
0.0011409954
0.00028725668
0.0011613708
0.00030730192
0.0011921995
0.00031911289
0.0012130276
0.00029230554
0.0012471043
0.00021045649
0.0012934873
0.00021667976
0.0013262131
0.00024849594
0.0013713267
0.00015585651
0.0014081871
0.00017111454
0.0014672562
0.00026178677
0.0014816997
0.00023633787
0.001526064
0.0001287588
0.0016164004
0.00026709578
0.0015842371
0.00034938167
0.0016161183
0.00011498406
0.0017139337
0.00011780397
0.0017763985
0.00048068649
0.0017503255
0.00049119819
0.001769839
0.00011076334
0.0018850693
8.6954188e-05
0.0019600053
0.0004307248
0.0019710499
0.00067407898
0.0019913581
0.00042561788
0.0020863766
0.00013991506
0.00016562247
0.0022094975
0.0010100081
-2.7931029e-05
0.00099938632
0.00047492381
0.0010212713
0.00020115549
0.0010493415
0.00041147852
0.0010805244
0.00026475662
0.0011163653
0.00039923546
0.0011566126
0.00034678165
0.0011922106
0.00022908465
0.001236632
0.00026804516
0.0012656873
0.00026548543
0.0013131987
0.0001668636
0.0013668932
0.00016566493
0.0013991057
0.00017353879
0.0014522552
0.00012549582
0.001496535
0.00012437744
0.0015508951
0.00022133838
0.0015586039
0.00018588046
0.0016224783
0.00013853411
0.0017087556
0.00023195185
0.0016469816
0.00023129077
0.001704827
0.00013576581
0.0018536784
0.00013743573
0.001871264
0.00033861497
0.0017827327
0.0003777494
0.001850692
0.00017144433
0.0020360074
0.0001192775
0.0021032116
0.00031370177
0.0020056424
0.00051368624
0.0020014698
0.00047955794
0.0021484664
0.0003088083
0.00022499202
0.0023453674
0.00095873454
2.1521302e-05
0.00097844026
0.00037338675
0.0010149596
0.00017634849
0.0010476909
0.0003546105
0.0010898258
0.00028317001
0.0011323236
0.00038846491
0.0011831408
0.00035521944
0.0012342425
0.00015972021
0.0012935275
0.00020372671
0.0013249406
0.00026254231
0.0013745429
0.00012828097
0.0014242247
0.00011733294
0.0014494234
9.0398963e-05
0.001498256
0.0001020866
0.0015386838
0.00010170788
0.0015751063
0.00015675173
0.0015746934
0.0001081101
0.001641149
0.00015193242
0.0017112973
0.00019880776
0.0016401917
9.134357e-05
0.001704108
0.0001507607
0.001875809
0.00020859817
0.0018742475
0.00020236442
0.0017593023
0.00018473806
0.0018526912
0.00020305502
0.0020846729
0.00023323601
0.0021632456
0.00026462514
0.0020421711
0.0002420026
0.0020040032
0.00035725419
0.0021669877
0.00040364804
0.00036571961
0.0023936075
0.00094763577
0.00020133392
0.00098850087
0.00017088046
0.0010329235
0.00019943938
0.0010685646
0.00022117851
0.0011206419
0.00024862279
0.0011723765
0.00025265447
0.0012303083
0.00025905691
0.0013022252
0.00011784748
0.0013526272
0.00014646159
0.0013744014
0.00024697903
0.0014199904
0.00010640779
0.0014521352
7.7256764e-05
0.0014641742
2.8339873e-05
0.0015001906
9.6013753e-05
0.0015300047
9.7804219e-05
0.0015484917
8.6343149e-05
0.0015505535
4.0624731e-05
0.0016105979
0.0001533501
0.0016577672
0.00017099954
0.0016049304
-2.0423045e-05
0.0016646912
0.00015588564
0.0018172536
0.00029691698
0.0018110189
0.00011247763
0.0017103759
-9.365962e-06
0.0018030447
0.00017428354
0.0020325738
0.00036515429
0.002092858
0.00025628566
0.0020148722
4.8589946e-05
0.0019689864
8.9233468e-05
0.0021068165
0.00033576089
0.00043737481
0.0023116293
0.00096481004
0.00043389251
0.0010165526
-2.9095877e-05
0.0010692628
0.00019644453
0.001120763
5.3284676e-05
0.0011815238
0.00015756919
0.0012322152
6.631054e-05
0.0012807961
0.00011716254
0.0013368316
0.00011805437
0.0013848896
9.0421201e-05
0.0013839943
0.00020419
0.0014202818
0.00010468767
0.0014347677
5.5866048e-05
0.0014386218
3.1067638e-06
0.001458742
0.00011020853
0.0014715664
9.6000448e-05
0.0014729749
3.723883e-05
0.001481614
-3.7337981e-06
0.0015297819
0.0001434396
0.0015501164
0.00013543632
0.0015429576
-9.5979398e-05
0.001598658
0.0001117639
0.0016997088
0.000355002
0.0016986435
6.8482772e-05
0.0016540628
-0.00013820146
0.0017426703
6.9137232e-05
0.0019100504
0.00042634252
0.001941571
0.00026155949
0.0019119523
-2.8797952e-05
0.0019259278
-0.00013106399
0.0020235732
0.00014495169
0.00038258779
0.0021573459
0.00098790444
0.00052573993
0.0010565029
-0.00018487037
0.0011114626
0.00016275357
0.0011574225
-2.7746464e-05
0.0012039521
7.2403931e-05
0.0012451125
-5.0310915e-05
0.0012845866
-4.7843711e-06
0.0013335367
0.00011018564
0.0013548348
5.9671609e-05
0.0013600552
0.0001583364
0.0013944361
0.00011013778
0.0014007366
5.3331523e-05
0.0014131584
-1.7487814e-06
0.0014287381
0.00010674849
0.0014398963
8.5197236e-05
0.0014444752
8.0946946e-06
0.0014724496
-3.2167502e-05
0.0015121301
0.00010716588
0.0015044984
0.00010822847
0.0015476787
-0.00011594035
0.0016135877
5.6292585e-05
0.001640106
0.0003126559
0.0016392248
7.5528939e-05
0.0016596216
-0.00017395731
0.0017793507
-9.0814695e-06
0.0018497959
0.0003327484
0.0018324564
0.00028778886
0.0018285851
-3.7033801e-05
0.0019328588
-0.00019733957
0.0020269908
-1.9249746e-05
0.00023722259
0.0020701755
0.00098997767
0.0003556751
0.0010614868
-0.0001960611
0.0011051503
0.00012099676
0.0011488762
-3.0429748e-05
0.0011852219
2.5348195e-05
0.0012264512
-5.6933183e-05
0.0012652829
-4.2282202e-05
0.0013020792
7.3778942e-05
0.0013577362
6.8020915e-07
0.0013445034
0.00017566554
0.0013841917
6.2020064e-05
0.0013997926
3.2979969e-05
0.0014317533
6.2636906e-07
0.0014515066
6.1970375e-05
0.0014683443
6.1576986e-05
0.0014818448
3.2113289e-06
0.0015319831
-3.2135995e-05
0.0015671533
5.4137512e-05
0.0015403213
6.9318389e-05
0.0016272209
-7.9204036e-05
0.0017053586
1.320361e-05
0.0016756211
0.00017014117
0.0016626744
7.9845908e-05
0.0017415709
-0.00011368967
0.0018869626
-3.82817e-05
0.0018946855
0.00014789062
0.0018136816
0.00020636102
0.0018365725
-7.7229979e-06
0.0020111795
-0.00012299744
0.0021286707
-5.9070332e-05
8.293681e-05
0.0021030979
0.001055986
0.0010321181
0.0010829785
0.0011437771
0.0011861922
0.0012384316
0.0012945043
0.0013065341
0.0013190817
0.00155656
0.0015648393
0.001579899
0.0016294428
0.0016466066
0.0016876293
0.0017101485
0.0017663679
0.0018000502
0.0017509762
0.0018524528
0.0019380358
0.0018801236
0.0018445599
0.0019539024
0.0021086667
0.0021037499
0.0019675408
0.0019888271
0.0022021144
0.0023710915
0.0023379165
-6.8264776e-05
0.0020594881
-9.5398928e-05
0.0019056833
-3.0407902e-05
0.0019467057
0.00014029768
0.0021045857
0.00036390716
0.002275284
0.00045699334
0.0023312515
0.00036319435
0.0022831336
0.00018630126
0.0021996438
0.00018919878
0.0021567804
0.00041520343
0.0022367236
0.00084053587
0.0023567186
0.00125058
0.0024229897
0.0013417351
0.0024103836
0.0010726537
0.002353997
0.00066854115
0.0022797497
0.00050445257
0.0022963458
0.00072111714
0.0024521756
0.0011868349
0.0027312348
0.0015361394
0.0029773198
0.0015768471
0.0030366331
0.0013649709
0.0029392797
0.0011126071
0.0027773868
0.0027001319
0.001068233
0.00018838897
0.0021496466
0.00041220268
0.0019760037
0.00058527112
0.0019239242
0.00060344644
0.0019277087
0.00045969139
0.0019484946
0.0002260244
0.001957435
4.289906e-05
0.001965979
-2.2897301e-05
0.0020138293
0.00016031337
0.0021540613
0.00051390146
0.0023515999
0.00083438645
0.0024811398
0.00095452226
0.0025013491
0.00085335596
0.0024253351
0.00066187187
0.0023240429
0.00062246449
0.0022955029
0.00088740129
0.0023502713
0.0013423929
0.0024465133
0.0016415397
0.0025756131
0.0015571274
0.0026537218
0.0012036828
0.0026142506
0.00077885394
0.0025460321
0.00063165927
0.0026049977
0.002831543
0.0010329834
0.00026150151
0.0023279143
0.0003632477
0.0021238901
0.00032965418
0.0019924346
0.00028328008
0.0019019236
0.00026346338
0.0018807801
0.00030342778
0.0018759233
0.00045427498
0.0018968653
0.0006619049
0.0019279901
0.00078812105
0.0020154727
0.00074279165
0.0021114068
0.00054459843
0.0021636461
0.00026552496
0.0022030205
0.00012399524
0.0022670912
0.00027526639
0.002381579
0.00071345317
0.0025559369
0.0012550566
0.0026834768
0.0016012185
0.0026831858
0.001606385
0.0025780572
0.0013061296
0.0024288434
0.00089155422
0.0022785343
0.00072442195
0.0022153724
0.00096072815
0.0023764119
0.0027276853
0.0014530761
-0.00020147283
0.0021033454
-0.00044622022
0.0019704629
-0.00053784423
0.0019306501
-0.00040295772
0.0019707401
-4.9147478e-05
0.0020817771
0.00047661645
0.0021633244
0.00093217004
0.0021740437
0.0011620224
0.0021033742
0.0010711055
0.0019960874
0.00073154516
0.0019088843
0.00036499202
0.0018481351
0.00020227791
0.001854501
0.00030971291
0.0019627179
0.00067969611
0.0021952647
0.0010656724
0.0024783777
0.0012155343
0.0026388893
0.0010608099
0.0026514378
0.00073677342
0.002574565
0.00052825834
0.0024827771
0.0006856784
0.0024423836
0.0011925658
0.0024395169
0.0017843784
0.0024924623
0.0026093405
0.0021464532
-0.0003430668
0.0017552538
-0.00050197998
0.0017080562
-0.0004099237
0.0017452726
-0.00015520314
0.0018788447
0.00016169952
0.0020566712
0.00045571871
0.0021518555
0.00053519544
0.0021800313
0.00036625215
0.0021379836
0.00011234637
0.0020557283
4.1647487e-05
0.0019909022
0.00020354789
0.0019764665
0.00064104168
0.0019783887
0.0012283295
0.0020154119
0.0016346285
0.0020864625
0.0015972284
0.0021868738
0.0011307551
0.002242178
0.00048493847
0.0022254138
5.442981e-05
0.0022422918
7.7125685e-05
0.0023700421
0.00062045736
0.0026046993
0.0014351738
0.0028058695
0.0020431037
0.002866796
0.0027780898
0.002245179
0.00030774399
0.0018586512
0.00061220401
0.0017500948
0.00082786169
0.0016851406
0.00092233239
0.0017137215
0.00077885334
0.0017789678
0.00040162051
0.001802834
-9.1633813e-05
0.0018280703
-0.00053990355
0.00185342
-0.00071417714
0.0019258663
-0.00046076611
0.002063825
0.0001289505
0.0022236179
0.00088264651
0.0023079624
0.0014435138
0.0023054193
0.0016349338
0.0022317353
0.0014538039
0.0021415852
0.00098905537
0.0020613314
0.00052578192
0.0019475175
0.00036053404
0.0019046733
0.00064307163
0.0020624253
0.0011898999
0.0023919885
0.0015873895
0.0027046763
0.0016437082
0.0028238728
0.0027765927
0.0013948716
0.00050495062
0.0021087541
0.00090403188
0.0019803108
0.0010975585
0.0018412658
0.0010250032
0.0017209326
0.00068504549
0.0016482421
0.00026428334
0.0015804936
-3.8643963e-05
0.0015649363
-8.6188816e-05
0.0016035169
8.3647379e-05
0.0017160243
0.00031110764
0.0018970635
0.00060319333
0.0020964836
0.00068067826
0.0021920188
0.00059205689
0.0022423525
0.00032939982
0.0022499917
0.00010859769
0.0022245638
0.00015515403
0.0022098728
0.00054923154
0.0021655077
0.0011963963
0.0020915968
0.0018994919
0.0020737781
0.0022670428
0.0021497402
0.0020805292
0.0023182294
0.0014367321
0.0024236254
0.0024004492
0.0006403558
-7.0823661e-06
0.0020530998
-0.000234881
0.0019611047
-0.00053539768
0.0018605106
-0.00065445906
0.0017987456
-0.00046255603
0.0017963021
-6.2632178e-06
0.0017901975
0.00063223931
0.0017538854
0.0012319044
0.0017160044
0.0016031108
0.0016952858
0.0017186231
0.0017307328
0.0014086212
0.001806021
0.00074006253
0.0018379771
-5.9318719e-05
0.0018550174
-0.00068300409
0.0019149155
-0.00089445167
0.0020498215
-0.00050187132
0.0022638203
0.00037001988
0.0024481566
0.0013487661
0.0024644535
0.0021182811
0.0023891007
0.002447424
0.0022706701
0.0022985849
0.0022141342
0.0015872895
0.0021665075
0.0020332989
0.00066662501
-0.00081690538
0.0017201799
-0.0014074641
0.0017181744
-0.0016358565
0.0017088148
-0.0014596632
0.001773085
-0.00096403047
0.0018944734
-0.0002237573
0.0019807379
0.00059781354
0.001997271
0.0013173227
0.001975777
0.0017660724
0.0019100525
0.0018166321
0.001798946
0.0014047841
0.0017124518
0.00072233449
0.0016254385
9.8877587e-05
0.0015439066
-0.00019758561
0.0015837856
-8.2931474e-05
0.0017624784
0.00025620141
0.0020349509
0.00065139162
0.0023133676
0.00095428222
0.0024469779
0.0011428138
0.0024623682
0.0011070966
0.0024154509
0.00098474443
0.0023270663
0.0008120414
0.0022588071
0.0021387334
0.00084792691
-0.00036801972
0.0014935697
-0.00049997288
0.0015023005
-0.00038753969
0.001516031
-0.00020118427
0.0016235774
-2.4397009e-06
0.0017768278
0.00015879998
0.0018873156
0.00028144354
0.0019258721
0.00021595429
0.0019515325
-4.3058479e-05
0.0019610045
-0.0002856678
0.0019147579
-0.00026495282
0.0018596438
4.9851385e-05
0.0017933083
0.00061312863
0.0016666372
0.0012588069
0.0016011163
0.0017342987
0.0016405009
0.0019019191
0.0017821095
0.0017520625
0.0020130693
0.0012002698
0.0021834262
0.00039912596
0.0022044723
-0.00031400176
0.0022127321
-0.00074214838
0.0022575302
-0.00053330981
0.0023453792
0.0024346264
0.00025370505
0.00090850909
0.0016722126
0.0016474334
0.0015768385
0.0019146347
0.0014658344
0.0018006122
0.0014679736
0.0014642647
0.0015555314
0.00087162517
0.0016457399
5.8315698e-05
0.0016903256
-0.00086253024
0.001734371
-0.0016584924
0.0017865069
-0.0020261322
0.0018291688
-0.0017566921
0.001901289
-0.0008813183
0.0019832814
0.00044336556
0.0019632351
0.0017127044
0.0018783013
0.0027242041
0.0018098053
0.0031658147
0.0017793171
0.0028032404
0.0018234913
0.0017737552
0.0019085583
0.00042151522
0.0019043023
-0.00070438344
0.0018998963
-0.0012930028
0.0019955038
-0.0010961994
0.0021933895
0.0024280882
-0.00029115685
0.00097307546
0.0018508691
0.0018075403
0.0017661465
0.0024661373
0.0016209542
0.0027435984
0.0015244767
0.0023835509
0.0014832638
0.0013854156
0.0014613774
1.12437e-05
0.0014313406
-0.0012151012
0.0014689456
-0.0018103931
0.0015770357
-0.0017733903
0.001704619
-0.0013234986
0.0018315148
-0.00064778147
0.0019650634
5.3674843e-05
0.0019991976
0.00086584452
0.0019768606
0.0015950216
0.0019558248
0.0021133024
0.0019334762
0.00225978
0.0018912602
0.0017754226
0.0018682641
0.00086332281
0.0017727082
2.6095613e-05
0.001667136
-0.00030348478
0.0017264145
-0.00014844798
0.0019765931
0.0022494249
0.00028493658
0.00034891483
0.0018858793
0.00061225177
0.0018446982
0.00075841889
0.0017198139
0.00080383031
0.0016241442
0.00074109087
0.0015574666
0.00053653215
0.0014869684
0.0003022829
0.0013809001
0.00012849836
0.0013442777
2.1496704e-05
0.0014146598
7.5026905e-05
0.0015489605
0.00021757203
0.0016950186
0.0002928861
0.0018533516
0.00035426311
0.0019248331
0.00026846781
0.0019122565
0.0001015939
0.0019180375
-7.7308594e-05
0.0019507838
-0.00016244281
0.0019629674
2.9996015e-05
0.0019575545
0.00051944253
0.0018942865
0.0011001871
0.0017251476
0.0015047836
0.0016559098
0.0016177928
0.0017990257
0.0020253391
0.0016104083
-0.00040902055
0.0018395263
-0.00094869557
0.0018223605
-0.0014956438
0.0017090311
-0.0018674253
0.0016305087
-0.0017940187
0.00159568
-0.0011126619
0.0015716513
0.0001300244
0.0014897603
0.0014756375
0.0014253423
0.0023359274
0.0014287233
0.0024721803
0.0014880732
0.0021353168
0.0015823552
0.0015645907
0.0017179604
0.00082861555
0.0018011508
-2.9873355e-05
0.0018027303
-0.00096183064
0.0018165984
-0.0017794502
0.0018746977
-0.0021765651
0.0019374796
-0.0017908531
0.0019806318
-0.00059492687
0.0020061249
0.0010275294
0.0018968118
0.002519707
0.0017628349
0.0033095546
0.0017782567
0.0019050071
0.0032041474
-0.0013318374
0.0017495365
-0.0024980502
0.0017602326
-0.0033368805
0.0016522713
-0.003569521
0.0015999503
-0.0030965999
0.0016039493
-0.0019183749
0.0016176018
-0.00020016461
0.0015713177
0.0016116341
0.0015218954
0.0030600217
0.0015182387
0.0037686091
0.0015318178
0.0036495478
0.0015605036
0.002816765
0.0016345977
0.001479122
0.001713997
-9.5813511e-05
0.0017115997
-0.0015887252
0.0017108015
-0.0026539652
0.0017756557
-0.0030816492
0.0018726953
-0.0026247391
0.0019455046
-0.0014123684
0.002034452
0.00032829421
0.0019870781
0.0020359131
0.0018567507
0.0034243245
0.0018548514
0.0019327359
0.0040216258
-0.0018569095
0.0016880696
-0.0032059593
0.0017006713
-0.003715873
0.0016028943
-0.0034849276
0.0015656502
-0.0027082854
0.0015777744
-0.0016334264
0.0015976529
-0.00032803564
0.0015616835
0.0010727775
0.0015298092
0.0023361464
0.0015493587
0.003374419
0.0015742397
0.0037904387
0.0015974081
0.0033468577
0.0016335281
0.0019878497
0.0016778152
2.875255e-05
0.0016475075
-0.0017557255
0.0016307576
-0.0027456863
0.0017086909
-0.002909753
0.0018277428
-0.0023787313
0.0019005512
-0.0014369731
0.0019999856
-0.00017990187
0.0019717569
0.0012326357
0.0018724171
0.0024681181
0.0018648644
0.0019717004
0.0033378209
-0.0016577521
0.0016784274
-0.0026724056
0.001692904
-0.0028677876
0.0015822925
-0.0024495212
0.0015389131
-0.0017483599
0.0015423008