/*--------------------------------*- C++ -*----------------------------------*\
| =========                 |                                                 |
| \\      /  F ield         | OpenFOAM: The Open Source CFD Toolbox           |
|  \\    /   O peration     | Version:  2406                                  |
|   \\  /    A nd           | Website:  www.openfoam.com                      |
|    \\/     M anipulation  |                                                 |
\*---------------------------------------------------------------------------*/
FoamFile
{
    version     2.0;
    format      ascii;
    arch        "LSB;label=32;scalar=64";
    class       volScalarField;
    location    "180";
    object      pMean;
}
// * * * * * * * * * * * * * * * * * * * * * * * * * * * * * * * * * * * * * //

dimensions      [1 -1 -2 0 0 0 0];

internalField   nonuniform List<scalar> 
20580
(
1.0039353
1.0050209
1.0039935
1.0041219
1.0042361
1.0042614
1.0042818
1.0043153
1.0043557
1.0043989
1.0044398
1.0044775
1.0045113
1.0045425
1.0045696
1.0045902
1.0046007
1.0046106
1.0046106
1.0045951
1.0045674
1.0045289
1.0044619
1.0043547
1.0042239
1.0040776
1.0038885
1.0036396
1.0033535
1.0030375
1.0027205
1.003917
1.0050215
1.0039995
1.0041229
1.0042369
1.0042616
1.0042819
1.0043149
1.0043545
1.0043961
1.0044358
1.0044722
1.0045039
1.0045321
1.0045564
1.0045755
1.0045848
1.0045914
1.0045858
1.0045645
1.0045369
1.004486
1.0044154
1.0043269
1.004216
1.0040872
1.0039068
1.0036605
1.0033842
1.0030344
1.0026532
1.0039028
1.0050243
1.0040011
1.0041229
1.0042367
1.0042609
1.0042809
1.0043136
1.0043524
1.0043925
1.0044309
1.0044655
1.0044944
1.0045198
1.0045412
1.0045568
1.0045622
1.0045654
1.0045541
1.0045271
1.0044954
1.004438
1.004362
1.0042713
1.0041522
1.0040184
1.0038458
1.0036222
1.0033811
1.0030601
1.0026898
1.0038868
1.0050254
1.0040004
1.0041223
1.0042355
1.00426
1.0042797
1.0043121
1.0043501
1.004389
1.0044264
1.0044591
1.0044858
1.0045087
1.0045268
1.0045383
1.0045409
1.0045399
1.0045224
1.004489
1.004454
1.0043948
1.0043116
1.0042079
1.0040746
1.0039197
1.0037491
1.0035521
1.003341
1.0030885
1.0027586
1.0038775
1.0050301
1.0040013
1.0041251
1.0042361
1.0042599
1.0042793
1.0043112
1.0043482
1.0043858
1.0044222
1.0044533
1.0044782
1.0044992
1.0045138
1.0045209
1.00452
1.0045151
1.0044919
1.0044541
1.0044143
1.0043519
1.0042651
1.0041632
1.0040264
1.0038537
1.0036681
1.0034658
1.003255
1.00304
1.0027849
1.00387
1.005035
1.0040002
1.0041269
1.004237
1.0042595
1.0042785
1.0043097
1.004346
1.0043828
1.0044184
1.0044478
1.0044713
1.0044904
1.0045021
1.0045059
1.0045032
1.0044924
1.0044652
1.0044251
1.0043805
1.0043119
1.0042189
1.0041217
1.0040053
1.0038475
1.0036459
1.0034102
1.0031585
1.0029004
1.0026666
1.0038623
1.0050368
1.0039951
1.0041264
1.0042371
1.0042588
1.0042775
1.004308
1.0043437
1.0043801
1.0044149
1.0044432
1.0044653
1.0044828
1.0044915
1.0044935
1.0044908
1.0044754
1.0044453
1.0044028
1.0043523
1.0042783
1.0041853
1.0040918
1.0039738
1.0038268
1.003654
1.0034382
1.0031769
1.0028684
1.0025496
1.0038508
1.0050371
1.0039884
1.0041241
1.0042372
1.0042585
1.0042768
1.004307
1.0043417
1.0043775
1.0044116
1.004439
1.0044597
1.0044751
1.0044822
1.0044833
1.0044796
1.0044613
1.0044282
1.004384
1.0043284
1.004253
1.0041623
1.0040645
1.0039316
1.0037739
1.0036123
1.0034488
1.0032518
1.0030031
1.0026762
1.0038469
1.0050364
1.0039799
1.0041236
1.0042378
1.0042582
1.0042764
1.004306
1.0043398
1.0043748
1.0044086
1.0044353
1.0044545
1.0044681
1.0044739
1.004473
1.0044678
1.0044479
1.0044131
1.0043672
1.004305
1.0042281
1.0041345
1.0040296
1.0038954
1.0037282
1.0035513
1.0033894
1.0032217
1.0030164
1.0027801
1.0038457
1.0050395
1.0039724
1.0041244
1.0042393
1.0042571
1.0042754
1.0043043
1.0043377
1.0043719
1.0044058
1.0044323
1.00445
1.0044623
1.0044668
1.0044632
1.0044559
1.0044341
1.0043995
1.0043519
1.0042869
1.0042059
1.0041042
1.0039869
1.0038597
1.0037113
1.0035229
1.0033155
1.0031145
1.0028912
1.0026864
1.0038416
1.005035
1.0039681
1.0041259
1.0042401
1.004256
1.0042742
1.0043028
1.0043358
1.004369
1.0044038
1.0044299
1.0044462
1.0044572
1.0044614
1.0044568
1.0044475
1.0044243
1.0043894
1.004341
1.0042743
1.0041966
1.004099
1.0039732
1.0038388
1.0037015
1.0035333
1.0033178
1.0030796
1.0028195
1.0025655
1.0038309
1.0050321
1.0039672
1.004125
1.0042389
1.004256
1.0042744
1.0043019
1.0043332
1.0043656
1.0044016
1.0044279
1.0044428
1.0044523
1.004456
1.0044511
1.0044407
1.0044177
1.0043825
1.0043327
1.004265
1.0041935
1.0041085
1.0039898
1.0038445
1.0036974
1.00355
1.003374
1.0031627
1.002926
1.0026746
1.0038152
1.0050287
1.0039659
1.0041266
1.0042369
1.004255
1.0042742
1.0043015
1.004332
1.0043636
1.0044002
1.0044263
1.0044402
1.0044491
1.0044535
1.0044488
1.0044352
1.0044121
1.0043782
1.0043278
1.0042593
1.004188
1.0041079
1.0039973
1.0038546
1.0036971
1.0035393
1.0033752
1.0032046
1.0030051
1.0028265
1.0038165
1.005023
1.0039618
1.0041308
1.004236
1.0042535
1.0042725
1.0042989
1.0043285
1.0043598
1.0043982
1.0044236
1.0044364
1.0044448
1.0044496
1.0044471
1.0044298
1.0044068
1.0043708
1.004318
1.0042507
1.0041786
1.0040931
1.0039804
1.0038454
1.0037033
1.0035471
1.0033587
1.0031608
1.0029336
1.0027584
1.0038077
1.0050212
1.0039607
1.0041358
1.0042364
1.0042535
1.0042728
1.0042991
1.0043267
1.0043559
1.0043973
1.004422
1.0044334
1.0044417
1.0044451
1.0044424
1.0044274
1.0044045
1.0043667
1.004311
1.0042406
1.0041632
1.0040726
1.0039597
1.0038272
1.0036844
1.0035292
1.0033453
1.0031361
1.0029074
1.0026857
1.0038023
1.0050231
1.003954
1.0041351
1.0042355
1.0042526
1.0042717
1.0042956
1.0043243
1.0043517
1.0043966
1.0044197
1.0044293
1.0044381
1.0044401
1.0044349
1.0044222
1.0044007
1.0043632
1.0043083
1.0042401
1.0041626
1.0040689
1.0039597
1.0038308
1.0036841
1.0035246
1.0033519
1.0031592
1.0029405
1.0026953
1.0037886
1.0050162
1.0039469
1.0041406
1.0042348
1.0042519
1.0042722
1.0042971
1.0043208
1.0043459
1.0043986
1.0044208
1.0044288
1.0044376
1.0044387
1.0044336
1.0044214
1.0044007
1.0043627
1.0043098
1.0042486
1.004172
1.0040795
1.0039812
1.0038651
1.003714
1.0035445
1.003389
1.003237
1.003068
1.0028252
1.0037824
1.0050168
1.0039379
1.0041411
1.0042308
1.0042478
1.0042702
1.004292
1.0043239
1.0043403
1.0043976
1.0044165
1.0044233
1.004434
1.004435
1.0044297
1.004417
1.0043969
1.0043615
1.0043118
1.0042586
1.0041912
1.0040988
1.0039961
1.0038914
1.0037658
1.0035988
1.0034108
1.0032294
1.0030569
1.0028723
1.0037889
1.0050003
1.0039356
1.0041565
1.0042327
1.0042489
1.004272
1.0042946
1.0043103
1.0043346
1.0044066
1.0044204
1.0044252
1.0044326
1.0044349
1.0044338
1.0044205
1.004399
1.0043624
1.0043106
1.0042558
1.004189
1.0040991
1.0039942
1.0038844
1.0037652
1.0036273
1.0034656
1.0032771
1.0030717
1.00287
1.003771
1.0050207
1.0039206
1.0041541
1.0042285
1.0042451
1.0042713
1.004289
1.0043299
1.0043166
1.0043999
1.0044132
1.0044189
1.0044309
1.0044286
1.0044279
1.0044155
1.0043931
1.0043587
1.0043085
1.0042515
1.0041827
1.0040919
1.0039866
1.0038732
1.0037462
1.0035961
1.0034279
1.0032469
1.0030594
1.0028599
1.0037619
1.0049936
1.0039212
1.0041726
1.0042277
1.004247
1.0042726
1.0042946
1.0042949
1.004326
1.0044202
1.004419
1.0044235
1.0044268
1.0044324
1.0044356
1.0044223
1.0044002
1.0043641
1.0043154
1.0042544
1.0041832
1.0040988
1.0040025
1.0038926
1.0037644
1.0036172
1.0034607
1.0032953
1.0031182
1.0029188
1.0037532
1.0050188
1.0038806
1.0041736
1.004219
1.0042405
1.0042706
1.0042848
1.0043494
1.0042617
1.004418
1.0044088
1.0044182
1.0044331
1.0044185
1.0044304
1.0044167
1.0043979
1.0043683
1.0043232
1.0042629
1.0041932
1.0041109
1.0040237
1.0039173
1.0037906
1.00364
1.0034856
1.0033202
1.0031588
1.0029559
1.0037354
1.0049799
1.0039075
1.0041887
1.0042058
1.0042402
1.0042594
1.0042845
1.0042612
1.0043264
1.004422
1.0044075
1.0044174
1.004414
1.0044289
1.0044371
1.0044228
1.0044031
1.0043725
1.004335
1.0042804
1.004217
1.0041445
1.0040645
1.0039632
1.0038465
1.0037234
1.0036001
1.0034454
1.0032634
1.0030545
1.0028537
1.002788
1.0026996
1.0026622
1.0026612
1.0026375
1.0025945
1.0024899
1.0024796
1.0025215
1.0025284
1.0023939
1.00229
1.0023974
1.0024187
1.0023547
1.0022514
1.0023374
1.0023852
1.0023623
1.0022368
1.0022596
1.0023917
1.0025572
1.0024729
1.0024209
1.0023162
1.0023574
1.0024006
1.0023421
1.0022246
1.0021114
1.0022128
1.0022785
1.0021582
1.0019606
1.0019527
1.0020853
1.0020831
1.0019211
1.0017462
1.0018663
1.0020026
1.0018617
1.0015654
1.001638
1.00237
1.0021639
1.0020564
1.0019506
1.0020982
1.0021139
1.0020533
1.0018106
1.0017296
1.0018531
1.0019404
1.0017981
1.0015869
1.0015184
1.0016615
1.0017375
1.0015575
1.0012586
1.0012815
1.001527
1.0014273
1.0010529
1.0009961
1.0020804
1.0017692
1.0016319
1.0015359
1.0017646
1.001898
1.0018117
1.0014834
1.001295
1.0013757
1.001646
1.0015782
1.0013133
1.0009707
1.0011188
1.0014618
1.0013196
1.0008749
1.0006461
1.0010455
1.0011947
1.0008149
1.000381
1.0018019
1.001467
1.0012828
1.0011499
1.0013401
1.0015753
1.0015479
1.0011904
1.0008696
1.0008875
1.0012729
1.0014246
1.0010922
1.0005186
1.0005166
1.0010475
1.0011795
1.0006807
1.0000205
1.0002598
1.0009092
1.0007476
0.99998893
1.0015698
1.0011616
1.0009119
1.0007118
1.0009216
1.0013143
1.0013742
1.0009644
1.0004796
1.0003643
1.0008349
1.0012997
1.0010509
1.000274
0.99987202
1.0003189
1.0009798
1.0006965
0.99977167
0.99939458
1.0000703
1.0006091
0.99996664
1.0013893
1.0008709
1.0005067
1.0002713
1.0005281
1.0010736
1.001244
1.0008212
1.0001565
0.99988298
1.0002998
1.0010839
1.0010233
1.0001769
0.99937882
0.99964205
1.0006763
1.0008756
0.99991062
0.99874528
0.99899783
1.0003066
1.0002666
1.0013904
1.0006992
1.0002054
0.99992574
1.0002197
1.0009577
1.0013349
1.0008947
0.99995315
0.99947513
0.9998309
1.0009228
1.0012059
1.0003634
0.99910971
0.99895363
0.99996874
1.0010796
1.0004177
0.99875863
0.99808482
0.99914994
1.0004336
1.0014825
1.0005865
0.99987413
0.99956946
0.9999178
1.0009569
1.0015928
1.001197
0.99989935
0.99915349
0.99938187
1.00065
1.0014928
1.0008776
0.99913122
0.99838778
0.99917694
1.0010009
1.0010029
0.99927056
0.99759686
0.99807217
1.0000989
1.0019005
1.0007224
0.99972209
0.99933824
0.99969465
1.000988
1.0019246
1.0016239
1.0000267
0.99900172
0.99904101
1.0003694
1.0018788
1.001585
0.9995018
0.99816451
0.99852028
1.0004736
1.0016476
1.0002946
0.99776476
0.99714634
0.99886666
1.0024842
1.0010186
0.99968076
0.9991817
0.99955781
1.0011209
1.0024818
1.0022807
1.0003904
0.99895094
0.99871915
1.0001717
1.0023649
1.0025152
1.0003739
0.99820825
0.99784827
0.99972462
1.0022349
1.0016626
0.9985969
0.99664493
0.99758477
1.0035139
1.0015888
0.9997605
0.99906748
0.99950912
1.0014335
1.0033753
1.0033299
1.0011163
0.99907239
0.99847014
0.99992327
1.0027207
1.0037021
1.001661
0.99861599
0.99744518
0.9990508
1.0023028
1.0030767
1.0001775
0.99689903
0.99640924
1.0047559
1.0023723
0.99998839
0.99908334
0.99961422
1.001875
1.004437
1.0045383
1.0020939
0.99936641
0.99840603
0.9997749
1.0029114
1.0048554
1.0031122
0.9993693
0.9974256
0.9984841
1.0019192
1.0043396
1.0022028
0.99785493
0.99589519
1.0060265
1.0032416
1.000384
0.99928261
0.99986362
1.0023808
1.0054165
1.0058387
1.0031567
0.99987602
0.99855533
0.99974031
1.0030499
1.0057639
1.004477
1.0003555
0.99774774
0.99821302
1.0014451
1.0049718
1.0039326
0.99911124
0.99609311
1.007255
1.0041929
1.0008976
0.99959097
1.0002031
1.0029591
1.0063774
1.007099
1.0042104
1.0004786
0.99880856
0.99984719
1.003289
1.0065519
1.0056928
1.001366
0.99818623
0.99806891
1.0011518
1.0053736
1.0052598
1.0004762
0.99656275
1.0084579
1.0050359
1.0014261
0.99992231
1.0005398
1.0034721
1.0072496
1.0081827
1.0050802
1.0010088
0.99908061
1.0000283
1.0036234
1.0073366
1.0067642
1.0022415
0.99858254
0.99805984
1.0010494
1.0057405
1.0064313
1.001741
0.99716397
1.0094535
1.0058131
1.0018763
1.0002037
1.0008484
1.0039839
1.0081082
1.0091874
1.0058544
1.0014248
0.99925974
1.0001991
1.0040192
1.0080923
1.0076553
1.0029189
0.99886524
0.99810611
1.0011285
1.0061202
1.0073139
1.0026101
0.9976067
1.0106754
1.006511
1.0023979
1.0004635
1.0010938
1.0044127
1.008865
1.0100658
1.0064761
1.0017235
0.99938341
1.0003833
1.0044728
1.0087805
1.0083115
1.0032775
0.99901106
0.99821525
1.0014192
1.0066133
1.0078799
1.0029327
0.99774826
1.0114408
1.0069941
1.0027788
1.0006542
1.0013166
1.0048236
1.0095364
1.0107444
1.0068153
1.0018154
0.99943774
1.0006175
1.005043
1.0094388
1.0086292
1.003208
0.99894693
0.99838444
1.0019757
1.0073094
1.0081369
1.002654
0.99759733
1.011909
1.0072539
1.0029001
1.0007404
1.0014779
1.0051683
1.0100459
1.0110633
1.006732
1.001583
0.99934345
1.0008951
1.005752
1.0099949
1.0084288
1.0026001
0.9985946
0.99864728
1.0028701
1.0081089
1.0078265
1.0016745
0.99710654
1.0121393
1.007375
1.0028747
1.0007865
1.001594
1.0053846
1.0102628
1.0109119
1.0061946
1.0010769
0.99916767
1.0012319
1.0064697
1.0101639
1.0074921
1.0014458
0.99806949
0.99910785
1.004091
1.0087112
1.0066165
1.0000931
0.9964401
1.0118392
1.0071995
1.0025794
1.0006772
1.0015622
1.0054331
1.0101768
1.010277
1.0051996
1.000323
0.99892754
1.0016169
1.0070823
1.0097757
1.0058127
0.99993139
0.99754381
0.99987316
1.0054832
1.0086416
1.0043743
0.99820782
0.99607658
1.0108483
1.0064157
1.0018298
1.0002416
1.0012732
1.0052098
1.0096256
1.0090327
1.0037157
0.9993144
0.99860407
1.001944
1.0073551
1.008537
1.0034841
0.99833102
0.99728399
1.0009244
1.0065784
1.0072948
1.0013238
0.99652859
0.99669729
1.0090524
1.0046868
1.000493
0.99945789
1.000805
1.0047422
1.0084208
1.0069468
1.0016311
0.99808001
0.99834462
1.0023148
1.0071055
1.0062682
1.0007111
0.99685967
0.99753354
1.0022759
1.0067583
1.0043592
0.99820266
0.99561019
0.99839842
1.0063179
1.0020067
0.99845714
0.99808416
0.99992924
1.00372
1.0063596
1.0040709
0.99920884
0.9967945
0.99819325
1.0026112
1.0059454
1.0031378
0.99793901
0.99585102
0.99832397
1.0033748
1.0052586
1.000363
0.99584725
0.99599608
1.0006079
1.0022347
0.99834369
0.99560875
0.9960099
0.99830271
1.0015292
1.003004
1.0003388
0.99671748
0.99573679
0.99809351
1.002304
1.0034965
0.99951133
0.99576021
0.9956601
0.99932869
1.0032622
1.0019156
0.99674538
0.99484608
0.99747888
1.0020637
0.99907888
0.99606395
0.99418738
0.99478663
0.99701314
0.99933321
0.99964795
0.99713438
0.99495978
0.99515706
0.99790059
1.0009898
1.0001158
0.99643068
0.99459504
0.99609371
0.99984918
1.0014141
0.99778816
0.99470612
0.99519198
0.9989503
1.0013277
0.99661581
0.99414842
0.99257296
0.99345061
0.99552317
0.99712758
0.99688182
0.9949437
0.99393248
0.99487261
0.99744814
0.9990032
0.99702378
0.99461985
0.99434347
0.99663163
0.99924835
0.99839007
0.99508272
0.99418013
0.99627672
0.99921347
0.99890838
0.99363355
0.99132831
0.99036152
0.99111953
0.99290502
0.99406383
0.99376951
0.99276976
0.99275514
0.99418774
0.9963764
0.99660722
0.99475311
0.99368681
0.99448115
0.99682822
0.9976476
0.99548952
0.99397427
0.99455872
0.99701375
0.99786969
0.99575083
0.99287394
0.99125838
0.9905171
0.99119808
0.99232269
0.9928037
0.99238022
0.9920576
0.99251018
0.99390774
0.99524045
0.99473407
0.99363276
0.99356941
0.99493295
0.9963633
0.99571183
0.99416456
0.99395078
0.99531118
0.99670931
0.99580008
0.99422994
0.99342813
0.99205993
0.99139995
0.99186986
0.99255483
0.99255906
0.99223443
0.99223972
0.99276802
0.9937652
0.99438571
0.99382668
0.99337538
0.99377094
0.99492634
0.99528189
0.9942874
0.99375939
0.99424046
0.99531144
0.99525625
0.99429083
0.99392171
0.99413433
0.9930766
0.99265919
0.99282185
0.9931822
0.99290924
0.99262485
0.99281149
0.99331644
0.99399947
0.99407353
0.99371596
0.99364417
0.99421805
0.99492776
0.99465006
0.99400113
0.99398899
0.99469622
0.99507686
0.99444678
0.99401481
0.99410372
0.99507199
0.99421724
0.99393097
0.99391751
0.99402835
0.99375095
0.99347085
0.99356427
0.99385471
0.99419042
0.99400876
0.99383303
0.99393995
0.99425521
0.99435232
0.99398937
0.99381129
0.99399139
0.99432767
0.99411736
0.9937382
0.99370622
0.99413035
0.99564952
0.99496866
0.99476362
0.99472297
0.994637
0.99437323
0.99421846
0.99428927
0.99446676
0.99462454
0.99438937
0.99428826
0.99445995
0.9946529
0.99453444
0.99425509
0.99422504
0.99441111
0.99449771
0.99421685
0.99397224
0.99392493
0.99406931
0.99650112
0.99606308
0.99583163
0.99575821
0.99560153
0.99529027
0.99505572
0.99501941
0.99500018
0.9949354
0.99469474
0.99463594
0.99467235
0.99461803
0.99428511
0.99407336
0.99406922
0.99406941
0.99376583
0.9934722
0.99343417
0.9935675
0.99361562
0.99672516
0.99642756
0.99622828
0.99612391
0.99596823
0.99572861
0.99555405
0.99547012
0.99544773
0.99534305
0.99521023
0.99512248
0.9950852
0.99506
0.99498407
0.99489586
0.99481312
0.9948025
0.99477308
0.99464589
0.9944737
0.99422121
0.99403107
0.99719833
0.99694243
0.99678633
0.99669486
0.99655925
0.99634352
0.99611767
0.99597408
0.99592991
0.99582706
0.99561806
0.99542685
0.99535748
0.99526863
0.99507849
0.99481894
0.99464812
0.99455447
0.99440903
0.99418872
0.99403608
0.99392845
0.99379245
0.99742282
0.99721912
0.99708996
0.99701493
0.99691144
0.9967486
0.99656672
0.99641036
0.99633087
0.99623315
0.99607052
0.99587029
0.99575035
0.9956384
0.9954861
0.99527657
0.9950898
0.994948
0.99479407
0.99459969
0.9943988
0.99420425
0.99398489
0.9977388
0.99755339
0.99744156
0.99736953
0.99726396
0.99711542
0.99695619
0.99680829
0.99670406
0.99659526
0.9964507
0.99626416
0.99610278
0.99597366
0.99581012
0.99560796
0.99539251
0.99520728
0.99501586
0.9948091
0.99460303
0.99436665
0.99408892
0.99793979
0.99779315
0.99769428
0.99763626
0.99754717
0.99742027
0.99728491
0.99715899
0.99704673
0.99693135
0.99679508
0.99663408
0.99645824
0.99630405
0.99614582
0.99595912
0.99574258
0.99552297
0.99529692
0.99506792
0.99484688
0.99460332
0.9942665
0.99817755
0.99804545
0.99795992
0.9979052
0.99781781
0.99770618
0.99758281
0.99747085
0.99736192
0.99725151
0.99712435
0.9969801
0.99681589
0.99664409
0.99647591
0.99630078
0.99610188
0.99586711
0.99561003
0.99535805
0.99511431
0.99486193
0.99452008
0.99837139
0.99827039
0.9981863
0.99813447
0.99805539
0.99796199
0.99785408
0.9977516
0.99764767
0.99754566
0.99743467
0.99730273
0.99715239
0.99698105
0.99680195
0.99662236
0.99643568
0.99621282
0.99594796
0.99568054
0.99541697
0.99515003
0.99480728
0.99856438
0.99847579
0.99840808
0.99836209
0.99828733
0.99820671
0.99811142
0.99801275
0.99791257
0.99781462
0.9977152
0.99759599
0.99746005
0.99729842
0.99712306
0.99693954
0.99675219
0.99654122
0.99629029
0.9960202
0.99574059
0.99545863
0.99511519
0.99875051
0.9986708
0.99860383
0.99856034
0.9984916
0.99841955
0.99833796
0.99824726
0.9981536
0.99805993
0.99796866
0.99786221
0.99773901
0.99759126
0.9974262
0.99724761
0.99705935
0.99685285
0.99661597
0.99635347
0.99606735
0.99577434
0.9954372
0.99890931
0.99883782
0.99878674
0.99874628
0.99868417
0.99861863
0.99854583
0.99846394
0.99837687
0.99828981
0.99820332
0.99810609
0.99799127
0.99785604
0.9977037
0.9975357
0.99734948
0.99714506
0.99691573
0.99666492
0.99638367
0.99609123
0.9957617
0.99907112
0.99900415
0.99894936
0.99891081
0.99885419
0.99879648
0.99873091
0.99865759
0.9985772
0.99849883
0.99841819
0.99832571
0.99821817
0.99809488
0.99795522
0.99779637
0.99761635
0.99741756
0.99719574
0.99695521
0.99668463
0.99640151
0.99608744
0.99919125
0.99913371
0.99909362
0.99906021
0.99901077
0.99895815
0.99889705
0.9988299
0.99875636
0.99868252
0.99860684
0.99852086
0.99842276
0.9983111
0.99818193
0.99803243
0.99786284
0.99767396
0.99746145
0.99722842
0.99696835
0.99669403
0.99640147
0.99932898
0.99926959
0.99922309
0.99919115
0.99914318
0.99909489
0.99903937
0.99897971
0.99891415
0.99884494
0.99877432
0.99869753
0.99860906
0.99850675
0.99838567
0.99824552
0.99808702
0.99790926
0.99770665
0.99748191
0.99723299
0.99696811
0.99669905
0.99941607
0.99936362
0.99933385
0.99930355
0.9992623
0.9992168
0.99916641
0.99911266
0.99905264
0.99898845
0.99892298
0.99885328
0.99877258
0.99867774
0.99856506
0.99843448
0.99828631
0.99811965
0.99792926
0.99771681
0.99748126
0.99722903
0.99698202
0.99953398
0.99947844
0.99943752
0.99940853
0.99936738
0.99932489
0.99927739
0.99922633
0.99917032
0.99911052
0.9990488
0.99898365
0.99890913
0.99882243
0.99872013
0.99860098
0.99846369
0.99830851
0.99813182
0.99793347
0.99771161
0.99747272
0.99724483
0.9996015
0.99955416
0.9995257
0.99949836
0.99946109
0.99942007
0.99937386
0.99932415
0.99927082
0.99921441
0.99915528
0.99909281
0.99902327
0.99894409
0.99885102
0.99874187
0.99861532
0.9984714
0.99830819
0.99812423
0.99791668
0.99769177
0.99748096
0.99969728
0.99964391
0.99960709
0.99958059
0.99954239
0.99950404
0.99945942
0.9994113
0.99935926
0.99930459
0.99924694
0.99918547
0.99911864
0.99904425
0.99895798
0.9988567
0.99874008
0.99860717
0.99845644
0.99828647
0.99809438
0.99788572
0.99769252
0.99972852
0.99968689
0.99966237
0.99964079
0.99960863
0.99957249
0.99953064
0.99948426
0.99943345
0.99937951
0.99932249
0.99926201
0.99919714
0.99912654
0.99904638
0.99895299
0.99884516
0.99872306
0.99858268
0.9984256
0.99824796
0.99805493
0.99787768
0.99979395
0.99974704
0.9997136
0.99969135
0.99965869
0.99962471
0.99958456
0.99954027
0.99949143
0.99943901
0.99938273
0.99932324
0.99925998
0.99919238
0.99911758
0.99903186
0.99893281
0.99881981
0.99869081
0.99854489
0.99838107
0.99820176
0.9980376
0.99980067
0.99976431
0.99974131
0.99972354
0.9996957
0.99966366
0.99962592
0.99958269
0.99953495
0.99948331
0.99942795
0.99936911
0.99930699
0.99924148
0.9991706
0.99909162
0.99900112
0.9988972
0.99877814
0.99864372
0.99849282
0.99832632
0.99817283
0.99983714
0.99979203
0.99976596
0.99974598
0.99971799
0.99968779
0.99965153
0.99961027
0.99956384
0.99951323
0.99945868
0.9994011
0.99933971
0.99927573
0.9992075
0.99913355
0.99905023
0.99895481
0.99884528
0.99872155
0.99858306
0.99842858
0.9982844
0.99982503
0.99979153
0.99977119
0.9997557
0.99973063
0.99970246
0.99966756
0.99962758
0.99958163
0.99953128
0.99947721
0.99942008
0.99935978
0.999297
0.99923091
0.99916042
0.99908269
0.9989948
0.99889429
0.9987806
0.99865334
0.99850957
0.99837377
0.99983779
0.99979671
0.99977594
0.99975777
0.99973189
0.99970452
0.99967106
0.99963241
0.99958791
0.99953835
0.99948486
0.99942826
0.99936876
0.99930699
0.9992426
0.99917458
0.9991011
0.99901941
0.99892712
0.99882259
0.99870594
0.99857176
0.99844274
0.99981658
0.99978524
0.99976642
0.99975223
0.99972877
0.99970276
0.9996702
0.99963213
0.99958799
0.99953879
0.99948534
0.99942879
0.99936975
0.9993086
0.99924518
0.99917859
0.99910795
0.99903095
0.99894552
0.99884873
0.99874182
0.9986159
0.99849172
0.99981142
0.99977508
0.99975719
0.9997406
0.99971733
0.99969139
0.99965964
0.99962285
0.9995802
0.99953235
0.9994797
0.99942354
0.99936501
0.99930425
0.99924136
0.9991755
0.99910632
0.99903218
0.99895196
0.99886106
0.99876279
0.99864297
0.99852288
0.99978782
0.99975675
0.99974017
0.99972688
0.99970559
0.99968096
0.99964995
0.99961348
0.99957149
0.99952402
0.99947185
0.99941566
0.99935746
0.99929659
0.99923368
0.99916773
0.99909907
0.99902632
0.99894949
0.9988624
0.99877
0.99865496
0.99853955
0.99977232
0.99973971
0.99972308
0.99970795
0.99968648
0.99966244
0.99963244
0.99959743
0.99955689
0.99951121
0.99946038
0.99940549
0.99934769
0.9992869
0.99922349
0.99915709
0.9990884
0.99901588
0.99894056
0.99885499
0.99876528
0.99865517
0.9985453
0.99975548
0.99972288
0.99970701
0.99969313
0.99967314
0.99964957
0.99962005
0.99958559
0.9995455
0.99950009
0.99945017
0.99939583
0.99933806
0.99927683
0.99921271
0.99914554
0.99907645
0.99900296
0.99892724
0.99884111
0.99875275
0.99864755
0.99854282
0.99973916
0.99970339
0.99968859
0.99967271
0.99965241
0.99962917
0.99960086
0.99956811
0.99952982
0.99948637
0.99943815
0.99938494
0.99932763
0.99926652
0.99920192
0.99913383
0.99906367
0.99898871
0.99891071
0.99882396
0.99873599
0.99863501
0.99853345
0.99972036
0.9996884
0.99967192
0.99965789
0.99963852
0.99961577
0.99958815
0.999556
0.99951834
0.99947604
0.9994286
0.99937577
0.99931879
0.9992574
0.99919237
0.99912321
0.9990513
0.99897374
0.99889293
0.99880528
0.99871775
0.9986197
0.99852026
0.9997019
0.99966497
0.99965164
0.99963555
0.99961641
0.99959459
0.9995684
0.99953805
0.99950274
0.99946258
0.99941677
0.99936524
0.99930914
0.99924819
0.99918305
0.99911304
0.9990384
0.99895832
0.99887522
0.99878683
0.99869844
0.99860223
0.99850386
0.99968183
0.99964973
0.99963352
0.99961954
0.99960071
0.99957968
0.99955436
0.99952516
0.99949103
0.99945187
0.99940694
0.99935643
0.99930115
0.99924011
0.99917424
0.99910266
0.99902626
0.9989444
0.99885952
0.99877006
0.99868042
0.99858469
0.99848631
0.99965839
0.99962223
0.99960976
0.99959476
0.99957663
0.99955696
0.99953335
0.9995062
0.99947433
0.99943738
0.99939469
0.99934601
0.99929179
0.99923149
0.9991651
0.99909219
0.99901448
0.99893156
0.99884543
0.99875508
0.99866458
0.99856876
0.99846919
0.99963471
0.99960311
0.9995874
0.99957426
0.99955682
0.99953825
0.99951584
0.99949021
0.99945956
0.99942363
0.99938228
0.9993351
0.99928203
0.99922242
0.99915562
0.99908184
0.99900315
0.99891981
0.99883303
0.99874185
0.99865034
0.99855426
0.99845282
0.99960365
0.99957155
0.99955875
0.99954543
0.99952831
0.99951142
0.9994909
0.99946758
0.99943947
0.99940611
0.99936715
0.99932204
0.99927032
0.99921132
0.99914504
0.99907168
0.99899308
0.99890937
0.99882217
0.9987307
0.99863846
0.99854192
0.99843861
0.99958224
0.9995495
0.99953472
0.99952156
0.99950543
0.99948886
0.99946928
0.99944678
0.99941936
0.99938697
0.99934922
0.99930548
0.99925531
0.99919733
0.99913162
0.99905908
0.99898158
0.99889839
0.99881113
0.99871958
0.99862719
0.9985303
0.99842525
0.99954618
0.99951398
0.99950222
0.99948975
0.99947398
0.99945944
0.99944191
0.99942119
0.99939541
0.99936472
0.99932874
0.99928656
0.99923729
0.99918061
0.99911694
0.99904627
0.99896999
0.99888783
0.99880145
0.99871004
0.99861735
0.99852038
0.99841433
0.99951073
0.99948068
0.99946814
0.99945718
0.99944316
0.99942925
0.99941257
0.9993924
0.99936739
0.99933753
0.99930282
0.99926216
0.99921422
0.99915882
0.99909697
0.99902883
0.99895514
0.99887472
0.9987895
0.99869924
0.99860716
0.99850995
0.9984028
0.9994731
0.99944155
0.99943082
0.9994203
0.99940687
0.99939403
0.99937821
0.99935892
0.99933491
0.99930641
0.99927311
0.99923342
0.99918686
0.99913358
0.99907396
0.99900797
0.99893665
0.99885887
0.99877562
0.99868677
0.99859579
0.99849952
0.99839179
0.99942662
0.99939828
0.99938752
0.99937921
0.99936756
0.99935553
0.99934007
0.99932133
0.99929841
0.99927113
0.99923892
0.99919996
0.99915425
0.99910268
0.99904565
0.99898246
0.99891367
0.99883848
0.99875819
0.99867182
0.99858219
0.9984867
0.99837935
0.99938065
0.99934962
0.99934027
0.99933194
0.99932128
0.99930957
0.99929468
0.99927668
0.99925505
0.99922904
0.99919723
0.99915918
0.99911527
0.99906538
0.99901013
0.99894949
0.99888381
0.99881169
0.99873435
0.99865096
0.99856398
0.99847038
0.99836414
0.99932723
0.99929822
0.99928989
0.99928267
0.99927373
0.99926328
0.99924888
0.99923123
0.99920994
0.99918449
0.99915306
0.99911534
0.99907219
0.99902393
0.99897062
0.99891193
0.99884841
0.99877899
0.9987047
0.99862414
0.99853972
0.99844916
0.99834513
0.99926273
0.99923278
0.99922746
0.99922045
0.99921304
0.99920343
0.99918991
0.99917313
0.99915293
0.99912801
0.99909698
0.99906024
0.99901857
0.99897227
0.99892089
0.99886416
0.99880286
0.99873603
0.99866463
0.99858748
0.99850637
0.99841931
0.99831832
0.99919849
0.99917082
0.99916502
0.99915933
0.99915215
0.99914345
0.99913017
0.99911379
0.99909322
0.99906747
0.99903615
0.99899974
0.99895881
0.99891347
0.99886331
0.99880794
0.99874816
0.99868321
0.99861367
0.99853885
0.99846091
0.99837758
0.99827994
0.99910804
0.99908517
0.99908218
0.99907855
0.99907258
0.99906532
0.9990538
0.999039
0.99901885
0.99899321
0.99896253
0.99892691
0.99888642
0.99884155
0.99879235
0.99873832
0.99867975
0.99861621
0.99854854
0.99847559
0.99839982
0.99831951
0.99822548
0.99903323
0.9990085
0.99900593
0.99900255
0.9989968
0.99898938
0.99897748
0.99896256
0.99894149
0.99891487
0.99888362
0.99884784
0.9988073
0.99876195
0.99871226
0.99865829
0.9986001
0.99853687
0.99846983
0.99839818
0.9983236
0.99824467
0.99815266
0.99892931
0.99890795
0.99890653
0.99890451
0.99889971
0.99889302
0.99888152
0.99886652
0.99884536
0.99881857
0.99878713
0.998751
0.99871025
0.99866451
0.99861435
0.99855996
0.99850152
0.99843817
0.99837103
0.99829967
0.99822572
0.99814756
0.99805708
0.99884155
0.99881714
0.99881468
0.99881155
0.99880586
0.99879846
0.99878589
0.99876946
0.99874675
0.99871886
0.99868606
0.99864838
0.99860604
0.99855881
0.99850727
0.99845113
0.99839102
0.9983262
0.9982576
0.99818474
0.99810945
0.99803062
0.99794068
0.99873584
0.99871165
0.99871102
0.99870747
0.99870159
0.9986936
0.9986799
0.99866163
0.99863707
0.99860739
0.99857283
0.99853316
0.99848881
0.99843952
0.99838602
0.99832767
0.99826514
0.99819805
0.99812707
0.99805173
0.99797388
0.99789304
0.99780277
0.99864535
0.99861757
0.99861601
0.99861013
0.99860291
0.99859309
0.99857738
0.99855687
0.99853017
0.99849805
0.99846084
0.99841828
0.99837095
0.99831826
0.99826132
0.99819925
0.99813304
0.99806228
0.99798743
0.99790829
0.99782667
0.99774231
0.99764926
0.99854251
0.99851673
0.99851544
0.99850917
0.99850097
0.99849011
0.99847218
0.99844968
0.9984208
0.99838676
0.99834723
0.99830204
0.99825176
0.99819554
0.998135
0.99806886
0.99799829
0.99792307
0.99784358
0.99775961
0.99767298
0.99758411
0.99748667
0.99847135
0.99843844
0.9984379
0.9984277
0.99841806
0.99840387
0.99838295
0.99835716
0.99832512
0.99828803
0.99824535
0.99819667
0.99814274
0.99808262
0.99801795
0.99794737
0.99787196
0.99779183
0.99770695
0.99761744
0.99752464
0.99743021
0.99732672
0.99839381
0.99836689
0.9983635
0.99835363
0.99834212
0.99832633
0.99830297
0.9982749
0.99824027
0.9982006
0.99815495
0.99810307
0.9980456
0.99798172
0.99791295
0.99783807
0.9977581
0.9976732
0.99758328
0.9974885
0.99739016
0.99729032
0.99718146
0.99834105
0.99831251
0.99830979
0.99829897
0.99828631
0.99826886
0.99824372
0.99821402
0.99817737
0.99813546
0.99808708
0.99803234
0.99797185
0.99790447
0.99783195
0.99775303
0.99766866
0.99757912
0.99748427
0.99738439
0.99728047
0.99717515
0.99706131
0.99827912
0.99825366
0.99824968
0.99823974
0.99822647
0.99820872
0.99818301
0.99815305
0.99811568
0.99807269
0.99802296
0.99796677
0.99790444
0.997835
0.9977599
0.99767838
0.99759111