/*--------------------------------*- C++ -*----------------------------------*\
| =========                 |                                                 |
| \\      /  F ield         | OpenFOAM: The Open Source CFD Toolbox           |
|  \\    /   O peration     | Version:  2406                                  |
|   \\  /    A nd           | Website:  www.openfoam.com                      |
|    \\/     M anipulation  |                                                 |
\*---------------------------------------------------------------------------*/
FoamFile
{
    version     2.0;
    format      ascii;
    arch        "LSB;label=32;scalar=64";
    class       volScalarField;
    location    "125";
    object      k_0;
}
// * * * * * * * * * * * * * * * * * * * * * * * * * * * * * * * * * * * * * //

dimensions      [0 2 -2 0 0 0 0];

internalField   nonuniform List<scalar> 
20580
(
3.2030135e-06
2.5162793e-06
1.9607648e-06
1.5909007e-06
1.3514133e-06
1.1784692e-06
1.0494243e-06
9.473753e-07
8.6250019e-07
7.9325309e-07
7.3448779e-07
6.8778881e-07
6.4626307e-07
6.1112058e-07
5.8029036e-07
5.5683142e-07
5.3889393e-07
5.2874531e-07
5.2414328e-07
5.1963293e-07
5.191564e-07
5.166612e-07
5.2721627e-07
5.3766903e-07
5.8769065e-07
6.139175e-07
6.4330215e-07
6.3237789e-07
6.3558142e-07
6.7916041e-07
7.1796356e-07
3.2117162e-06
2.5304491e-06
1.9846055e-06
1.6342604e-06
1.3955545e-06
1.2127847e-06
1.0717756e-06
9.5984831e-07
8.7091941e-07
7.9972037e-07
7.4083528e-07
6.9384802e-07
6.5202759e-07
6.1656749e-07
5.849093e-07
5.5968751e-07
5.4289317e-07
5.3600986e-07
5.3107249e-07
5.2855514e-07
5.3057763e-07
5.3268748e-07
5.3604982e-07
5.5499485e-07
5.9564282e-07
6.7675463e-07
7.350998e-07
8.0719653e-07
8.3078426e-07
8.6665829e-07
8.2829715e-07
3.212604e-06
2.5269469e-06
1.9785464e-06
1.648052e-06
1.4227235e-06
1.2440015e-06
1.0971703e-06
9.776015e-07
8.8355371e-07
8.0877012e-07
7.4783943e-07
6.9906869e-07
6.5673449e-07
6.2022475e-07
5.8890961e-07
5.6316355e-07
5.423569e-07
5.3473955e-07
5.282731e-07
5.2311323e-07
5.2545227e-07
5.2992443e-07
5.321293e-07
5.4545504e-07
5.7756666e-07
6.6002319e-07
7.2674967e-07
8.0163454e-07
8.4400949e-07
9.5914667e-07
1.0310263e-06
3.2168697e-06
2.5179043e-06
1.95876e-06
1.6412656e-06
1.4215228e-06
1.2505186e-06
1.1139552e-06
9.9559921e-07
9.0069609e-07
8.2381111e-07
7.5976589e-07
7.075013e-07
6.6375386e-07
6.2535309e-07
5.9363342e-07
5.6641121e-07
5.4400462e-07
5.3326653e-07
5.2714255e-07
5.1858272e-07
5.1868293e-07
5.2276829e-07
5.2408736e-07
5.33448e-07
5.5929388e-07
6.1367467e-07
7.0669134e-07
7.9398348e-07
8.3467751e-07
9.2567001e-07
1.0128239e-06
3.2220503e-06
2.5222559e-06
1.9408652e-06
1.6170274e-06
1.4040006e-06
1.2445397e-06
1.1124751e-06
1.0041417e-06
9.1364503e-07
8.4131872e-07
7.7861212e-07
7.2464032e-07
6.797164e-07
6.3715944e-07
6.033647e-07
5.735958e-07
5.4904264e-07
5.3549108e-07
5.2763752e-07
5.18518e-07
5.1854384e-07
5.2225846e-07
5.2355901e-07
5.3244919e-07
5.5638898e-07
6.0856368e-07
6.694382e-07
7.929152e-07
8.5738206e-07
1.0165035e-06
1.0624022e-06
3.2299594e-06
2.5370963e-06
1.9380994e-06
1.6051214e-06
1.384558e-06
1.2308092e-06
1.1047646e-06
1.00138e-06
9.1744238e-07
8.5036206e-07
7.9572969e-07
7.4169018e-07
7.0096675e-07
6.5916188e-07
6.2378371e-07
5.9112472e-07
5.6438387e-07
5.459961e-07
5.3402233e-07
5.2338784e-07
5.2222523e-07
5.2344725e-07
5.2209964e-07
5.2765216e-07
5.4603962e-07
5.9064079e-07
6.4250537e-07
7.6997802e-07
8.521828e-07
1.0380303e-06
1.1156801e-06
3.2579098e-06
2.5406791e-06
1.9368704e-06
1.5967415e-06
1.3710119e-06
1.2103071e-06
1.0841234e-06
9.9087192e-07
9.1428772e-07
8.5166093e-07
7.9947698e-07
7.5214862e-07
7.1253988e-07
6.7742444e-07
6.4521765e-07
6.1368899e-07
5.9196403e-07
5.7422488e-07
5.5720937e-07
5.4506696e-07
5.3735627e-07
5.3230854e-07
5.2498934e-07
5.2506581e-07
5.3533195e-07
5.5062641e-07
5.8088489e-07
6.7632548e-07
7.8711553e-07
9.9358193e-07
1.1458488e-06
3.52285e-06
2.6914413e-06
1.992087e-06
1.6113091e-06
1.3733978e-06
1.2048251e-06
1.0736713e-06
9.762953e-07
9.021352e-07
8.4255818e-07
7.9242121e-07
7.4938534e-07
7.1149504e-07
6.8007383e-07
6.5143349e-07
6.2624799e-07
6.0829553e-07
5.9539088e-07
5.8312169e-07
5.7650687e-07
5.7230848e-07
5.6384077e-07
5.538162e-07
5.4525766e-07
5.4787333e-07
5.5438477e-07
5.6619006e-07
5.978114e-07
6.718013e-07
7.8740111e-07
1.0376753e-06
5.0919275e-06
3.9458578e-06
2.4722427e-06
1.8057541e-06
1.4662445e-06
1.2523506e-06
1.099864e-06
9.8825472e-07
9.0391018e-07
8.3855398e-07
7.8078297e-07
7.3542805e-07
6.9681943e-07
6.6631714e-07
6.3950312e-07
6.1826975e-07
6.0270553e-07
5.9207152e-07
5.8396595e-07
5.8271231e-07
5.8400231e-07
5.8448073e-07
5.8773171e-07
5.9930613e-07
6.0538984e-07
6.1170232e-07
6.1712227e-07
6.4339552e-07
7.0913017e-07
8.0170572e-07
9.1615973e-07
4.1554615e-06
3.8529595e-06
3.0629761e-06
2.4726448e-06
1.981492e-06
1.5621042e-06
1.291367e-06
1.1063165e-06
9.7434737e-07
8.8253259e-07
8.0873196e-07
7.5216602e-07
7.044047e-07
6.6849866e-07
6.3593782e-07
6.1131504e-07
5.9002637e-07
5.7465415e-07
5.6758041e-07
5.7005506e-07
5.7367013e-07
5.7961881e-07
5.949064e-07
6.1759813e-07
6.4669108e-07
6.8113195e-07
7.3181141e-07
7.9930067e-07
8.5488573e-07
9.7886191e-07
1.0172507e-06
3.1246142e-06
2.8873864e-06
2.8408869e-06
2.6625289e-06
2.4785772e-06
2.2349367e-06
1.9359005e-06
1.6394043e-06
1.3721038e-06
1.1762821e-06
1.0210506e-06
9.0853108e-07
8.2020243e-07
7.5420143e-07
6.9936814e-07
6.569215e-07
6.2289954e-07
5.9698734e-07
5.7966381e-07
5.7382043e-07
5.7284076e-07
5.7558131e-07
5.9034897e-07
6.1487616e-07
6.370928e-07
6.7229356e-07
7.2322825e-07
8.3283862e-07
9.1349771e-07
1.0765717e-06
1.1498247e-06
3.4514708e-06
2.9043755e-06
2.3575462e-06
2.2160739e-06
2.1380493e-06
2.0998691e-06
1.9681181e-06
1.8502225e-06
1.7546209e-06
1.6385131e-06
1.5227045e-06
1.4002604e-06
1.27706e-06
1.1617491e-06
1.0629428e-06
9.6107767e-07
8.8227857e-07
8.0413833e-07
7.3884035e-07
6.919907e-07
6.5822051e-07
6.2710388e-07
6.2565535e-07
6.3415478e-07
6.4006319e-07
6.4977705e-07
6.7724804e-07
7.3814662e-07
8.320677e-07
9.6802945e-07
1.1695486e-06
3.8383419e-06
3.2795468e-06
2.463251e-06
2.0567632e-06
1.8067054e-06
1.64404e-06
1.5692324e-06
1.5081155e-06
1.490994e-06
1.4609025e-06
1.425526e-06
1.3771131e-06
1.321037e-06
1.2711971e-06
1.2372035e-06
1.2097235e-06
1.1784561e-06
1.1603188e-06
1.1363206e-06
1.1005967e-06
1.0667651e-06
9.9355933e-07
9.4165161e-07
8.8466476e-07
8.1551524e-07
7.5939258e-07
7.360881e-07
7.6011851e-07
8.0374694e-07
8.5826403e-07
9.8139269e-07
3.3032654e-06
2.9439398e-06
2.4200724e-06
2.0904134e-06
1.8545636e-06
1.6604592e-06
1.5003168e-06
1.3635405e-06
1.258935e-06
1.1766471e-06
1.1090813e-06
1.0671898e-06
1.0349343e-06
1.0098586e-06
1.0063545e-06
1.0105834e-06
1.0182312e-06
1.0364481e-06
1.0697017e-06
1.0902322e-06
1.1110072e-06
1.1327515e-06
1.1590242e-06
1.2023963e-06
1.2293895e-06
1.2072425e-06
1.1847717e-06
1.1658706e-06
1.1746072e-06
1.1799519e-06
1.1547609e-06
3.7660555e-06
3.0761444e-06
2.3213862e-06
1.9808485e-06
1.7796478e-06
1.6240283e-06
1.4827992e-06
1.363461e-06
1.2595925e-06
1.1743712e-06
1.1017302e-06
1.0369927e-06
9.6672132e-07
9.2222429e-07
8.7237603e-07
8.4264346e-07
8.1425443e-07
7.9535147e-07
8.0256303e-07
8.2222304e-07
8.5240184e-07
9.1762367e-07
9.7187436e-07
1.078454e-06
1.163721e-06
1.2632156e-06
1.3262402e-06
1.4441892e-06
1.536337e-06
1.7284848e-06
1.7412456e-06
3.2883376e-06
2.8621204e-06
2.2149333e-06
1.8256368e-06
1.5798097e-06
1.4187149e-06
1.3069832e-06
1.2276575e-06
1.159182e-06
1.1046485e-06
1.0585158e-06
1.0101555e-06
9.5100579e-07
9.1553396e-07
8.7193062e-07
8.3603084e-07
8.0328312e-07
7.7743704e-07
7.6266055e-07
7.4886142e-07
7.5004136e-07
7.6331254e-07
7.8680911e-07
8.3395881e-07
8.9518475e-07
1.0269111e-06
1.1225054e-06
1.2761729e-06
1.424825e-06
1.6180408e-06
1.8481139e-06
3.4444086e-06
2.8979883e-06
2.2177259e-06
1.8029913e-06
1.5331543e-06
1.3457484e-06
1.2078841e-06
1.1037007e-06
1.0163723e-06
9.5215697e-07
9.0729606e-07
8.7170852e-07
8.3127466e-07
8.1215128e-07
7.9268943e-07
7.7151093e-07
7.5488761e-07
7.384655e-07
7.307293e-07
7.2093355e-07
7.2064621e-07
7.3149985e-07
7.4388839e-07
7.58073e-07
7.8772383e-07
8.3631356e-07
9.0090107e-07
9.4425725e-07
1.0472271e-06
1.1482936e-06
1.4493251e-06
3.2714611e-06
2.7013452e-06
2.1157076e-06
1.7336873e-06
1.4823919e-06
1.300071e-06
1.1611714e-06
1.0501644e-06
9.6047122e-07
8.9084755e-07
8.3382843e-07
7.8433125e-07
7.4487105e-07
7.1137748e-07
6.8606584e-07
6.6180259e-07
6.424037e-07
6.2732594e-07
6.2002758e-07
6.1783281e-07
6.214015e-07
6.3509897e-07
6.4701752e-07
6.5538618e-07
6.7270025e-07
7.0303599e-07
7.4625826e-07
7.6679857e-07
8.0473246e-07
8.3817916e-07
9.2894764e-07
3.1869597e-06
2.5395664e-06
2.0231257e-06
1.6968186e-06
1.4769411e-06
1.3034499e-06
1.1696197e-06
1.0576577e-06
9.7028034e-07
8.9913035e-07
8.4200609e-07
7.9057113e-07
7.502701e-07
7.1390485e-07
6.8368207e-07
6.5548737e-07
6.3261243e-07
6.10613e-07
5.9606977e-07
5.8480576e-07
5.8343023e-07
5.9207645e-07
6.0379611e-07
6.1350456e-07
6.3494105e-07
6.7301262e-07
7.1769359e-07
7.7852326e-07
8.1750334e-07
8.8318958e-07
9.3234915e-07
3.3027248e-06
2.8131349e-06
2.1684932e-06
1.818847e-06
1.5910359e-06
1.4207968e-06
1.2986838e-06
1.1937432e-06
1.1151628e-06
1.0494753e-06
9.9555909e-07
9.4759403e-07
9.0574996e-07
8.745715e-07
8.4065174e-07
8.1259259e-07
7.8473638e-07
7.6460567e-07
7.4844971e-07
7.4283304e-07
7.4490582e-07
7.6490691e-07
7.9018246e-07
8.1604647e-07
8.4145769e-07
9.0549538e-07
9.6512785e-07
1.0595833e-06
1.0927219e-06
1.2052287e-06
1.2101287e-06
3.4559964e-06
3.1851145e-06
2.6982278e-06
2.4110371e-06
2.1831159e-06
2.0330699e-06
1.9808377e-06
1.9438984e-06
1.9315296e-06
1.9160854e-06
1.9006354e-06
1.8960852e-06
1.8877465e-06
1.9060052e-06
1.8964022e-06
1.8918735e-06
1.8889265e-06
1.8942732e-06
1.9112905e-06
1.9405243e-06
1.9696252e-06
2.0558657e-06
2.1445906e-06
2.2264537e-06
2.2768959e-06
2.4163706e-06
2.5554804e-06
2.7271651e-06
2.7711201e-06
2.8586392e-06
2.7536272e-06
4.7833381e-06
1.2151949e-05
9.0082304e-06
8.5659906e-06
7.7823041e-06
7.3220117e-06
7.5740941e-06
7.6558664e-06
7.727972e-06
7.7606367e-06
7.7271548e-06
7.8878283e-06
7.8583805e-06
8.1120918e-06
8.0682578e-06
8.2214293e-06
8.3343e-06
8.4930849e-06
8.6149696e-06
8.7647229e-06
8.9615376e-06
9.2265052e-06
9.5772438e-06
9.7496941e-06
9.8372762e-06
9.9811764e-06
1.0216089e-05
1.0444671e-05
1.052576e-05
1.0431471e-05
1.0042023e-05
2.3720642e-05
9.8947039e-05
5.5798663e-05
5.8343721e-05
4.8391963e-05
4.3395936e-05
3.9441794e-05
3.7356694e-05
3.6327325e-05
3.5731775e-05
3.5636089e-05
3.5524926e-05
3.5600008e-05
3.5485815e-05
3.5534114e-05
3.5587923e-05
3.5690956e-05
3.5767921e-05
3.5869343e-05
3.5633191e-05
3.5797943e-05
3.5275875e-05
3.4902747e-05
3.4222253e-05
3.4247202e-05
3.3696436e-05
3.3062672e-05
3.1931699e-05
3.1508184e-05
3.1022751e-05
3.059688e-05
2.9505025e-05
1.0896438e-05
3.2291925e-06
1.4284274e-06
1.0640698e-06
1.0119571e-06
1.4666039e-06
2.0577574e-06
2.0410301e-06
1.4884891e-06
1.1603269e-06
1.3604611e-06
1.3887628e-06
1.2621318e-06
1.0910866e-06
1.1434538e-06
1.2918315e-06
1.3530085e-06
1.3317533e-06
1.2062515e-06
1.1846223e-06
1.0087582e-06
7.9241585e-07
2.9141227e-05
1.2434714e-05
4.239771e-06
1.8837618e-06
1.2547506e-06
1.0936459e-06
1.4869167e-06
2.3882744e-06
2.3868862e-06
1.9718336e-06
1.4064739e-06
1.6496291e-06
1.675562e-06
1.5777584e-06
1.3060086e-06
1.3050778e-06
1.492213e-06
1.6549283e-06
1.7405457e-06
1.6027301e-06
1.5732907e-06
1.4462588e-06
1.0871163e-06
2.8086201e-05
1.334546e-05
5.0225612e-06
2.4177764e-06
1.6150299e-06
1.2594341e-06
1.5889312e-06
2.68854e-06
2.9454217e-06
2.7334052e-06
1.8370378e-06
1.9268449e-06
1.9827816e-06
1.8980078e-06
1.6458668e-06
1.5224014e-06
1.6928618e-06
1.9517949e-06
2.0035023e-06
1.8899206e-06
1.8583296e-06
1.8251358e-06
1.6486851e-06
2.7985978e-05
1.4225428e-05
6.0566746e-06
3.2595459e-06
2.114688e-06
1.5444516e-06
1.873172e-06
3.2197935e-06
3.8844543e-06
4.0091751e-06
2.7453369e-06
2.4669008e-06
2.5890041e-06
2.57033e-06
2.434799e-06
2.0133258e-06
2.071731e-06
2.2567035e-06
2.3726501e-06
2.2777251e-06
2.1149818e-06
2.1261419e-06
2.0475723e-06
2.5608501e-05
1.5689866e-05
7.5242719e-06
4.3876858e-06
3.1424307e-06
2.1487371e-06
2.4765098e-06
4.0994432e-06
4.9295188e-06
5.2662696e-06
4.3134437e-06
3.1838976e-06
3.4631867e-06
3.4397948e-06
3.5009455e-06
3.1506859e-06
2.8146915e-06
2.9816015e-06
2.9625246e-06
2.9928726e-06
2.765128e-06
2.7065791e-06
2.6375729e-06
2.330479e-05
1.6387082e-05
9.7966912e-06
6.7145225e-06
4.5418247e-06
3.0293112e-06
3.2049237e-06
5.2075468e-06
6.1006542e-06
6.366969e-06
5.9133519e-06
4.3021359e-06
4.5721721e-06
4.553344e-06
4.2963323e-06
4.0757348e-06
3.5744778e-06
3.8378902e-06
4.1292301e-06
4.2598992e-06
4.2644988e-06
4.0269384e-06
4.0393691e-06
2.1096687e-05
1.7400541e-05
1.1480148e-05
8.7258598e-06
6.1621373e-06
4.3593731e-06
4.4209577e-06
7.0432211e-06
8.1472938e-06
8.2903777e-06
8.4007027e-06
6.677192e-06
6.4784862e-06
6.412912e-06
5.7084826e-06
5.1841864e-06
4.4393892e-06
4.4978939e-06
4.9374921e-06
5.1453356e-06
5.6274095e-06
5.7646388e-06
5.8521594e-06
2.0989322e-05
1.9212886e-05
1.4542127e-05
1.2272714e-05
9.0460756e-06
6.7207653e-06
6.2455254e-06
9.6899217e-06
1.2253868e-05
1.250197e-05
1.3578874e-05
1.1643998e-05
1.0052711e-05
1.0362056e-05
9.1523371e-06
7.3671364e-06
6.1354407e-06
5.7812998e-06
6.5217718e-06
6.8245268e-06
6.871131e-06
6.9294709e-06
7.0284282e-06
2.1283602e-05
2.0549695e-05
1.8587103e-05
1.7247526e-05
1.4207138e-05
1.0449087e-05
9.6459255e-06
1.5510411e-05
2.0393482e-05
2.0067892e-05
2.1178033e-05
2.0550617e-05
1.7321658e-05
1.9115865e-05
1.7780846e-05
1.2907333e-05
1.0041119e-05
8.6902227e-06
9.4645269e-06
1.0394334e-05
9.6941986e-06
8.9638957e-06
8.1986769e-06
1.9820084e-05
2.1707277e-05
2.265023e-05
2.3013509e-05
2.2364814e-05
1.9197004e-05
1.802376e-05
2.9537196e-05
3.758588e-05
3.4411078e-05
3.2298176e-05
3.187623e-05
2.795606e-05
3.0069586e-05
3.0684007e-05
2.5450956e-05
1.8258496e-05
1.477373e-05
1.5693799e-05
2.0465947e-05
1.8656105e-05
1.3873765e-05
1.1237816e-05
2.1123259e-05
2.3812878e-05
2.9721206e-05
3.4197411e-05
3.7937269e-05
3.8840695e-05
3.9565512e-05
6.2679059e-05
7.4077864e-05
6.279128e-05
5.5009807e-05
5.3467054e-05
4.6719568e-05
5.0030194e-05
5.805422e-05
5.2899776e-05
3.530122e-05
2.6975354e-05
2.4697729e-05
3.1522637e-05
3.2909674e-05
2.5365283e-05
1.9246306e-05
2.3319185e-05
2.7413603e-05
3.6737138e-05
4.4252877e-05
5.575778e-05
7.0309476e-05
8.6208686e-05
0.00012893713
0.00014484379
0.00012674759
0.00011072938
0.0001048066
8.94505e-05
9.9804476e-05
0.0001221536
0.00011128949
7.2457414e-05
5.1835854e-05
4.1733317e-05
4.727767e-05
5.9840064e-05
5.0043622e-05
3.3364962e-05
2.6899881e-05
3.3321332e-05
4.7492967e-05
5.6153288e-05
7.3801142e-05
0.00010985998
0.00017150097
0.00025142033
0.00025537644
0.0002197122
0.00018319098
0.00017497522
0.0001846794
0.00023899455
0.00027556665
0.00023456356
0.00014380973
9.8770405e-05
7.8803024e-05
8.1507368e-05
0.00010101569
9.5467145e-05
6.4827267e-05
3.3227662e-05
4.4729956e-05
6.8123596e-05
8.2435722e-05
0.00011947115
0.00020455007
0.00035383222
0.00046750114
0.00046111207
0.00038652679
0.00031343264
0.00031703062
0.00040027907
0.00060419569
0.00060965176
0.0004584853
0.00023927144
0.00017113072
0.00015933373
0.00016047483
0.00019499843
0.00017833732
0.00011845597
4.2474213e-05
5.7905863e-05
8.7622795e-05
0.00011376982
0.0001841428
0.00033874464
0.00058312032
0.00069953018
0.00068212493
0.00058083138
0.00051789937
0.00057775644
0.00087271399
0.001278108
0.0012780205
0.00086152946
0.00039164883
0.00028987154
0.00029140702
0.00033975638
0.00041956289
0.00034298205
0.00018401947
4.858025e-05
6.7713981e-05
0.00010412805
0.00013524562
0.00022370412
0.00042732599
0.00076328969
0.00090650283
0.0008801038
0.00074810628
0.00069019849
0.00079324264
0.0012864825
0.001894818
0.0019393213
0.0013502525
0.00066067351
0.0005206995
0.00056811341
0.00073930387
0.00083166909
0.00064067548
0.00031005877
6.2751037e-05
8.6162377e-05
0.00013546866
0.00017470381
0.00028750211
0.00054652835
0.00094200483
0.0010981414
0.0010623283
0.00090416602
0.00085132625
0.00099207973
0.0016476066
0.0024419238
0.0025421102
0.0018708024
0.0010669431
0.00090058356
0.0010615804
0.001367674
0.0014358683
0.0011367845
0.00054400797
7.0335507e-05
0.00010009437
0.00016402197
0.00022573165
0.00037711807
0.00069817332
0.0011126327
0.0012802539
0.0012471322
0.0011133675
0.0011039161
0.0012947526
0.0020937376
0.002932399
0.0030019032
0.0022549912
0.0013732367
0.0011914345
0.0014389418
0.0018569279
0.0019322234
0.0015677603
0.00078951682
6.8844751e-05
0.00010097285
0.00017474688
0.00028045001
0.00049845397
0.00089791429
0.0012893821
0.0014617751
0.0014487363
0.0013777313
0.0014174825
0.0017105359
0.0026548234
0.0033726489
0.0032925388
0.0024922373
0.0018113779
0.0017229632
0.0021925968
0.0026053025
0.0025663102
0.0020291716
0.0011051818
6.2235623e-05
9.7794496e-05
0.00017940369
0.00032664603
0.00060596612
0.0010595593
0.0014601297
0.0016554988
0.0016850129
0.0016925531
0.0017898488
0.0022218683
0.0031818224
0.0037083582
0.0035059456
0.0027787807
0.0024003519
0.0024895873
0.0031132371
0.0034492637
0.0032262539
0.0023404677
0.0015239399
6.0006629e-05
9.4704061e-05
0.00018553023
0.00037768621
0.00073121506
0.0012197016
0.0016371076
0.0018839141
0.0019800922
0.0020596947
0.0022554698
0.0028115924
0.0035785295
0.003928359
0.0037425235
0.0033148456
0.003154298
0.0034371731
0.0039871173
0.0041659491
0.0037047289
0.0025466475
0.0019144974
6.100862e-05
9.3511276e-05
0.00018988433
0.00041746527
0.00086687919
0.0014279727
0.0019084077
0.0022372513
0.0024317308
0.0025952378
0.0029286189
0.0034703142
0.0039612596
0.0041846756
0.0041579904
0.0040494422
0.0040815464
0.0044707833
0.0047617283
0.004659702
0.003947279
0.0028815603
0.002532114
6.4393997e-05
9.7910655e-05
0.00020307993
0.00047172384
0.0010125684
0.0016212943
0.0021774347
0.0026363832
0.0029717329
0.0032210955
0.0035720204
0.0039695429
0.0043197636
0.0045699061
0.0047294557
0.0048749267
0.0051511151
0.0055076269
0.0056163425
0.0052091753
0.0043457913
0.0037538525
0.0035956496
7.0437046e-05
0.00011623876
0.00025610181
0.00061289108
0.0012191755
0.0018333438
0.0024381323
0.0030145072
0.0034350551
0.0037052772
0.0040396878
0.0043742836
0.0047083378
0.0050530632
0.0053894033
0.0057367554
0.006184311
0.0064685063
0.0064258262
0.0059692994
0.0052401143
0.0047255476
0.0043725297
7.8009606e-05
0.00013859295
0.00031800631
0.00074312073
0.0013501695
0.0019403158
0.0025611215
0.0032184726
0.0037296594
0.0040802879
0.0044656389
0.0048272607
0.0052383896
0.0056793319
0.0060380409
0.0064009288
0.0067550506
0.0069396969
0.0068252578
0.0063465892
0.0056899807
0.0051614868
0.0046951261
9.0894626e-05
0.00015705458
0.00035467115
0.00077354001
0.0013247256
0.0018464673
0.0024630078
0.0031594147
0.003775519
0.0043165646
0.0048650474
0.0053465079
0.0058349665
0.0062314206
0.0064585125
0.0065980836
0.006646755
0.0067295078
0.0067246381
0.0063922529
0.0058975822
0.0053839505
0.0048436089
0.00010711995
0.00013809934
0.00024583066
0.00051830698
0.0010260824
0.0015805939
0.0022169823
0.0029358541
0.0036144523
0.0043010628
0.0050154659
0.0056439092
0.0061146642
0.0063421942
0.0063799429
0.0062992451
0.0062310817
0.0063515163
0.0064515327
0.0063836195
0.0060264983
0.0054071165
0.0047751718
0.0002322087
0.000212523
0.00023395454
0.00028726304
0.00041890271
0.00076977933
0.0014788344
0.0024514979
0.0032771327
0.0040115142
0.004689858
0.005368337
0.0058828633
0.0060817416
0.0061076229
0.0060497808
0.0060295416
0.0061332103
0.0062005362
0.0061037913
0.0056444638
0.0048998179
0.0041689622
0.00059093797
0.0005438728
0.00050901315
0.00043457639
0.00042538993
0.00049366906
0.00078498799
0.0015144753
0.0024619668
0.0032604095
0.003958777
0.0047019613
0.0053705252
0.0058048295
0.0059600075
0.0059273505
0.0059388412
0.0059407379
0.0057365968
0.0052136806
0.004528612
0.0039123668
0.0033795893
0.00069644619
0.00079310309
0.00078540053
0.00072606011
0.00057089531
0.00049635389
0.00064664502
0.0011970655
0.0020459479
0.0028089072
0.0035154004
0.0042413428
0.0048856255
0.0053566399
0.0056007399
0.0056218121
0.0055664325
0.0053475424
0.0048401987
0.0041415316
0.0035066007
0.0030413544
0.0025879362
0.0006831366
0.00092118472
0.00087418031
0.00074172932
0.00057824806
0.0005111352
0.00068263454
0.0012380159
0.0020476875
0.0027597392
0.0034148159
0.004039034
0.0045112189
0.0047698537
0.0048941315
0.0049423888
0.0048745805
0.0045722721
0.0040156108
0.0033457937
0.0027631187
0.0022875472
0.0017814761
0.00061711449
0.00094653517
0.00092317725
0.00076843268
0.00066266376
0.00065802619
0.00095976853
0.0015260948
0.0021700844
0.0027823681
0.0033459891
0.0038177069
0.0040906029
0.0041845568
0.0042118591
0.0042266894
0.0041508391
0.0038502998
0.0033056949
0.0026621887
0.0020841193
0.0015878987
0.0011558428
0.0005374112
0.00097158258
0.0010280543
0.00097053702
0.00095635815
0.0010902807
0.0014140445
0.0018338519
0.0022781084
0.0027267997
0.0031722734
0.0035155955
0.0036763528
0.0037013124
0.0036672656
0.0035832988
0.003398811
0.0030385251
0.0025011592
0.0019118439
0.0014473935
0.0011572662
0.0010099073
0.00048383446
0.00095945254
0.0011068299
0.0011835614
0.0012581033
0.0014266506
0.0016911598
0.001994044
0.0023069276
0.0026424365
0.0029790417
0.0032184752
0.0033261839
0.0033337988
0.0032495883
0.0030586668
0.002722522
0.0022448483
0.0017211748
0.0013456442
0.0011691306
0.0011066269
0.0010836605
0.00044863929
0.00094235648
0.0011179772
0.001246828
0.0013744305
0.0015659954
0.0018132408
0.0020744262
0.0023381343
0.0025847526
0.0027526521
0.002830942
0.0028328281
0.0027484731
0.002582243
0.0023181334
0.0019641513
0.0015853901
0.0012950522
0.0011698243
0.0011422823
0.0011718756
0.001278281
0.00038915454
0.00085890793
0.0010826973
0.0012390189
0.001374359
0.001552609
0.0017750266
0.0020044926
0.0022087518
0.0023790702
0.0024911327
0.0025222522
0.0024784122
0.002370736
0.0022123938
0.0019985907
0.0017277505
0.0014408567
0.0012401564
0.001166413
0.0011654058
0.0012034702
0.0012685593
0.00034808463
0.00076898949
0.00099937657
0.0011894443
0.0013464014
0.001510791
0.0016890615
0.001863933
0.0020193976
0.0021515808
0.0022470316
0.0022824329
0.0022481749
0.0021452387
0.0019864292
0.0017841705
0.0015528674
0.0013331475
0.0011910425
0.001150729
0.001171569
0.0012240245
0.0012790966
0.00031991145
0.00069680196
0.00091277927
0.001101877
0.0012666125
0.0014253925
0.0015848246
0.0017316523
0.0018546533
0.0019524682
0.0020237446
0.002058659
0.0020426574
0.0019666575
0.0018328231
0.0016566016
0.0014580069
0.0012741322
0.0011578708
0.001134169
0.0011654503
0.001226261
0.0012722012
0.00029886294
0.00063975934
0.0008366957
0.0010129889
0.0011667187
0.0013123204
0.0014572223
0.0015933076
0.0017082917
0.0017950404
0.0018518657
0.0018748577
0.0018579671
0.0017946046
0.0016846407
0.0015426022
0.0013872457
0.001246892
0.0011571867
0.001142851
0.0011732646
0.0012324118
0.0012742643
0.00028130122
0.00058836095
0.00076682178
0.00093283155
0.0010773788
0.0012094447
0.0013361545
0.0014562236
0.0015608667
0.0016420655
0.0016950962
0.001716256
0.001701387
0.0016464989
0.0015517806
0.0014330294
0.001312078
0.0012127625
0.001156225
0.001158046
0.0011929953
0.0012532113
0.001295038
0.00027040552
0.00054946485
0.00070518408
0.0008586468
0.00099530284
0.001118942
0.001233085
0.0013367152
0.0014245518
0.0014910111
0.0015338608
0.001552057
0.0015442793
0.0015066077
0.0014359084
0.0013430864
0.0012482898
0.0011765328
0.0011487821
0.0011625537
0.0012082273
0.0012748382
0.0013199049
0.0002657872
0.00052477226
0.00065715656
0.00079278837
0.00091525426
0.0010270149
0.0011303333
0.0012233345
0.001300912
0.0013579143
0.0013920607
0.0014045372
0.0013971644
0.0013696598
0.001319675
0.0012535723
0.001186466
0.001140299
0.0011366916
0.001165221
0.0012285267
0.0013100117
0.0013805564
0.00026208235
0.00050728128
0.00062009511
0.00073909662
0.00084631466
0.00094370897
0.0010337672
0.0011154838
0.0011850287
0.0012377258
0.0012701526
0.0012818293
0.0012745075
0.0012497519
0.0012092852
0.0011606139
0.0011174448
0.0011006565
0.001118471
0.0011733621
0.0012632186
0.0013704821
0.0014681044
0.00025874403
0.00049356428
0.00059104284
0.00069556941
0.00078997831
0.00087587154
0.00095446613
0.0010244326
0.0010828419
0.0011267326
0.0011540239
0.0011644118
0.0011591451
0.0011396834
0.0011093025
0.0010767178
0.001057525
0.0010678636
0.0011186429
0.0012066838
0.0013283079
0.0014574257
0.001568632
0.0002565141
0.00048527596
0.0005712294
0.00066083807
0.00074096182
0.0008146186
0.00088278936
0.0009435805
0.00099334262
0.0010289746
0.0010492963
0.0010554175
0.0010502328
0.001036348
0.0010187934
0.0010072587
0.0010166961
0.00106557
0.0011485322
0.0012756704
0.0014162722
0.0015489171
0.0016541934
0.00025391184
0.00047996678
0.00055882314
0.00063588868
0.00070200201
0.00076208031
0.00081822259
0.00086925225
0.00091171186
0.00094211869
0.00095858518
0.00096283474
0.00095807682
0.0009496605
0.0009462594
0.00096060123
0.0010109811
0.0010907752
0.0012148913
0.0013594647
0.0014965284
0.0016126581
0.0017021034
0.00024749505
0.00047288457
0.00054865644
0.00061773629
0.0006734739
0.00072208834
0.00076687213
0.00080741279
0.00084100647
0.00086475101
0.00087715539
0.00088073749
0.00087968371
0.00088178436
0.00090093679
0.00095418682
0.0010330062
0.0011529439
0.0012959243
0.0014339262
0.0015520553
0.0016435664
0.0017134889
0.00024353804
0.00046845484
0.00054213738
0.00060363751
0.00064939243
0.00068762732
0.00072253257
0.0007540099
0.00077938329
0.00079653074
0.00080584136
0.00081105693
0.00081943245
0.00084357715
0.00089884548
0.00097815579
0.0010964235
0.0012361783
0.0013720086
0.0014906072
0.001580914
0.0016415616
0.0016817993
0.00023449053
0.0004619543
0.00053527817
0.00059146903
0.0006287585
0.0006575244
0.00068350717
0.00070715579
0.00072627477
0.0007395582
0.00074927381
0.00076213547
0.00078996769
0.00084578188
0.00092578697
0.0010449914
0.0011838445
0.0013183283
0.0014360778
0.0015251261
0.0015804289
0.0016104777
0.0016192115
0.00022902549
0.00045718484
0.00053009105
0.00058180462
0.00061244287
0.00063329607
0.00065134789
0.00066786503
0.00068179016
0.00069374009
0.00070880115
0.00073760406
0.00079308093
0.00087322026
0.0009928119
0.0011319767
0.0012672295
0.0013853711
0.0014756681
0.0015306932
0.0015541734
0.0015431962
0.0015095555
0.00021676169
0.0004494448
0.00052277821
0.00057168504
0.00059747319
0.00061177806
0.00062264469
0.00063290968
0.0006434528
0.00065777757
0.00068533985
0.00073987935
0.00081972452
0.00094032415
0.0010801637
0.0012173233
0.0013373151
0.0014300634
0.0014877964
0.0015108495
0.0014958022
0.0014446421
0.0013632873
0.00021281901
0.00044513049
0.00051801478
0.00056237735
0.00058252942
0.00059104873
0.00059608939
0.00060240406
0.00061381685
0.00063765647
0.00068671829
0.00076317663
0.00088222432
0.0010225033
0.0011626024
0.0012864561
0.0013837235
0.0014473443
0.0014737176
0.0014641137
0.001415457
0.0013291247
0.0012059912
0.00019613326
0.00043415757
0.00050776338
0.00055108069
0.00056844373
0.00057292493
0.00057387935
0.00057808692
0.0005934565
0.00063195223
0.00070171818
0.00081267887
0.00095183913
0.0010959021
0.001226658
0.001332648
0.0014071546
0.0014427412
0.0014456712
0.0014095927
0.0013325815
0.0012157524
0.0010594122
0.00019471834
0.00042774619
0.00050056419
0.00054031457
0.00055382943
0.00055506889
0.00055393604
0.00055926678
0.00058269591
0.00063805261
0.00073467971
0.00086884742
0.0010161627
0.0011562948
0.0012752201
0.0013651046
0.0014184887
0.0014358188
0.0014183329
0.0013599578
0.0012588972
0.0011176816
0.00093975323
0.00017558995
0.0004114796
0.00048724805
0.00052929381
0.00054277267
0.0005416022
0.00053850069
0.00054581729
0.00057995734
0.00065497861
0.00077469882
0.00092049749
0.0010687701
0.0012020989
0.0013098952
0.0013861784
0.001422848
0.0014275401
0.0013946513
0.0013202733
0.0012031206
0.0010475032
0.00086058539
0.00017741809
0.0004025282
0.00047419599
0.00051366379
0.00052668936
0.00052578839
0.00052320261
0.00053320176
0.00057553091
0.00066403723
0.00079742497
0.00095017333
0.0010983674
0.0012269455
0.001327627
0.0013940991
0.0014214901
0.0014190019
0.001378493
0.0012976723
0.0011753104
0.0010158466
0.00082706306
0.0001535839
0.00037161408
0.00045558823
0.00049940831
0.00051317738
0.00051044092
0.00050715594
0.00051916507
0.00056669889
0.00066198716
0.00079862557
0.00095370141
0.0011025447
0.0012302582
0.0013291926
0.0013930308
0.0014179334
0.001413651
0.001373167
0.0012945575
0.0011761959
0.001023368
0.0008461575
0.00014228388
0.00035582891
0.00044250912
0.00048903638
0.00050487413
0.00050080709
0.00049303481
0.00050238338
0.00055147343
0.00065133855
0.00079061235
0.00094653137
0.0010958327
0.0012238279
0.00132299
0.0013873029
0.0014131504
0.0014113287
0.0013756545
0.0013041154
0.0011969954
0.0010605201
0.00090426538
0.00011273699
0.00030001138
0.00041242365
0.00047561732
0.00050011898
0.00049926125
0.00048724845
0.00048564639
0.00052531833
0.00062417414
0.00076521622
0.00092241209
0.0010730663
0.0012027167
0.0013041121
0.0013732876
0.0014057736
0.0014103952
0.0013860301
0.0013306905
0.0012443094
0.0011293058
0.00099218561
0.00010801574
0.00025187233
0.00036633515
0.00044526329
0.00048866844
0.00049675733
0.00048722481
0.00047554249
0.00049212348
0.00056988391
0.00070705745
0.00086534708
0.0010184873
0.0011529817
0.0012619483
0.0013423015
0.0013895622
0.0014055646
0.0013974395
0.001362121
0.0012994817
0.0012118756
0.0011035109
0.00010754072
0.00023302662
0.00033761829
0.00041081031
0.00046233442
0.00048776739
0.00048636663
0.00047425905
0.00046907083
0.00050578637
0.00061138704
0.00076894927
0.00093034387
0.0010738272
0.001193388
0.001287038
0.0013534278
0.0013886509
0.0013966647
0.0013838163
0.001346989
0.0012874723
0.0012078572
0.00011046474
0.00022058403
0.0003134322
0.00038759284
0.00044137394
0.0004743298
0.00048379638
0.00047653158
0.00046479184
0.00046718582
0.00051306507
0.00062968206
0.00079685955
0.00096162336
0.0011000689
0.0012091931
0.001291746
0.0013494193
0.0013796115
0.0013846158
0.0013733754
0.0013425895
0.0012923274
0.00010430307
0.00018273102
0.00026924694
0.0003556602