/*--------------------------------*- C++ -*----------------------------------*\
| =========                 |                                                 |
| \\      /  F ield         | OpenFOAM: The Open Source CFD Toolbox           |
|  \\    /   O peration     | Version:  2406                                  |
|   \\  /    A nd           | Website:  www.openfoam.com                      |
|    \\/     M anipulation  |                                                 |
\*---------------------------------------------------------------------------*/
FoamFile
{
    version     2.0;
    format      ascii;
    arch        "LSB;label=32;scalar=64";
    class       volScalarField;
    location    "125";
    object      omega_0;
}
// * * * * * * * * * * * * * * * * * * * * * * * * * * * * * * * * * * * * * //

dimensions      [0 0 -1 0 0 0 0];

internalField   nonuniform List<scalar> 
20580
(
3.584065
2.6590225
2.1433547
1.8085766
1.5737572
1.3955355
1.2562513
1.1453988
1.0538969
0.97803847
0.91494902
0.86135124
0.81663738
0.7764639
0.74305112
0.71456143
0.69053822
0.67249149
0.65911725
0.64579601
0.63466301
0.62398645
0.61575842
0.61491133
0.62386325
0.63126347
0.63468125
0.62131625
0.61732872
0.63162302
0.64399427
3.5865387
2.6486103
2.1398188
1.8087279
1.5751755
1.3969663
1.2577878
1.1468787
1.0559679
0.98033133
0.91814991
0.86490539
0.82016586
0.78060008
0.74701673
0.71725894
0.6955291
0.67785563
0.6663692
0.65330827
0.64558744
0.63807071
0.62849765
0.63216698
0.64335978
0.66583883
0.68726335
0.70029483
0.69841711
0.69972866
0.68213272
3.5885185
2.6290534
2.1266962
1.804525
1.5734635
1.3967099
1.2576508
1.1469037
1.0570471
0.98252411
0.92074461
0.86816411
0.82316974
0.78400305
0.75095501
0.72049583
0.69800796
0.67926026
0.66679407
0.65269549
0.64385249
0.63942768
0.62855486
0.62978239
0.63808344
0.6618516
0.68663439
0.70325438
0.71245432
0.74242101
0.75622552
3.5943503
2.6133231
2.0996635
1.7878358
1.5642282
1.3924428
1.2558038
1.1461845
1.0573759
0.98454417
0.9232262
0.87106579
0.82573518
0.78735547
0.75383237
0.72390001
0.69976795
0.68172599
0.66725256
0.65395161
0.6423008
0.6387602
0.62869192
0.62883739
0.63536147
0.65167932
0.68292116
0.71016349
0.71631677
0.73709201
0.75719999
3.6001802
2.6103134
2.0835232
1.763034
1.5400614
1.3764465
1.2481745
1.1432531
1.0566817
0.98507435
0.92506634
0.87426542
0.82887613
0.79142774
0.75696883
0.72813565
0.70157686
0.6844277
0.66738693
0.65605869
0.64362033
0.63964126
0.62975587
0.62981326
0.6361385
0.65152657
0.67354518
0.71700208
0.73485555
0.77457623
0.78131767
3.6075144
2.6147246
2.0778741
1.7521108
1.5243046
1.3607115
1.2341255
1.1350941
1.0533064
0.98386964
0.9255384
0.87626758
0.83156357
0.79628691
0.76045
0.73339407
0.70553529
0.68894866
0.66942954
0.65823386
0.64630641
0.64104816
0.63066763
0.62745342
0.63306803
0.64620955
0.66463049
0.71024026
0.73565867
0.79106766
0.80789204
3.6089544
2.6264225
2.0795945
1.7468664
1.515029
1.3467355
1.2190571
1.1202314
1.0448498
0.97925039
0.92425726
0.87513243
0.83387883
0.79815262
0.76454371
0.73759074
0.71206284
0.69495242
0.67554141
0.66312421
0.652097
0.64276653
0.63344034
0.62378701
0.62468917
0.62851726
0.63918427
0.67639922
0.71774911
0.78046073
0.82203819
3.7050161
2.6922652
2.1044204
1.7523777
1.5149763
1.3419249
1.2110998
1.1100233
1.0312885
0.96619178
0.91469525
0.86821278
0.83061958
0.79583132
0.7651768
0.73732013
0.71604417
0.69687269
0.681166
0.66763535
0.65974899
0.64749574
0.64010442
0.63117128
0.62647929
0.6265582
0.62854151
0.63917317
0.66925241
0.71080384
0.79165247
4.0289677
3.230105
2.2938165
1.82589
1.5487514
1.3587657
1.2199511
1.1132672
1.0299887
0.9600492
0.9049475
0.85446523
0.81727256
0.78181033
0.75448197
0.72879272
0.70997497
0.69204486
0.67857846
0.66741251
0.66000754
0.65045677
0.64597775
0.64595134
0.64425899
0.64484312
0.645674
0.65534365
0.68033345
0.71560507
0.75268316
3.8666145
3.256463
2.5564647
2.0697926
1.7245661
1.4655655
1.2866449
1.1538804
1.0537656
0.97471503
0.91316371
0.85949098
0.81742122
0.78035711
0.74788378
0.720545
0.69684493
0.67755616
0.66297263
0.65516346
0.6483945
0.64520767
0.64603676
0.65029797
0.65484736
0.6650493
0.68066775
0.70469194
0.72300194
0.76297142
0.77887134
3.5897033
2.9895386
2.5290238
2.1928539
1.9400826
1.7218216
1.5175821
1.3378987
1.1899491
1.072998
0.98409861
0.91392559
0.85639049
0.80967889
0.7692949
0.73568554
0.70686946
0.68323709
0.66476238
0.65301097
0.64276626
0.63486586
0.637367
0.64254845
0.64676275
0.65650318
0.67417739
0.7083665
0.738585
0.77825169
0.80797233
3.8524745
2.9459848
2.4147842
2.0922159
1.883372
1.7141056
1.5695251
1.4502488
1.3475969
1.2559381
1.1702453
1.0932688
1.0182135
0.95370997
0.89374197
0.83879955
0.7922883
0.74940165
0.71469098
0.68913093
0.66827918
0.64971986
0.64260741
0.64326274
0.64089948
0.63982581
0.64716299
0.66660519
0.69909912
0.74461611
0.80555595
3.8723953
3.0919091
2.4438028
2.059418
1.7910803
1.6093225
1.4709193
1.3676792
1.288662
1.2236447
1.1630765
1.1069757
1.0575654
1.013301
0.97561231
0.94082771
0.90963639
0.88273907
0.85338693
0.82747953
0.79782653
0.76305358
0.73555429
0.70732515
0.68460438
0.66541877
0.65616548
0.66451118
0.67721583
0.69336094
0.7342261
3.6839935
2.8833812
2.3937769
2.0576184
1.8069202
1.6127326
1.4603955
1.3320521
1.2306037
1.1462714
1.0813989
1.0274776
0.98405986
0.94537047
0.91568802
0.89276067
0.87448553
0.86041313
0.84822895
0.83806597
0.83054041
0.82213846
0.8174139
0.81725177
0.81164238
0.79585883
0.7777063
0.76247049
0.76253308
0.76310546
0.7625909
3.858172
2.9604949
2.3203638
1.9771604
1.7491157
1.5810953
1.4417628
1.3251762
1.2285691
1.1483849
1.0787261
1.0203457
0.96682069
0.9208739
0.8809011
0.84609079
0.81762683
0.79178126
0.77984708
0.76959122
0.76969261
0.77250895
0.77989831
0.79568784
0.80930031
0.82292736
0.8341399
0.8509326
0.86702816
0.89814923
0.89254174
3.7833045
2.9186088
2.3233502
1.948282
1.6888602
1.5021101
1.3650772
1.2634026
1.1820782
1.1164476
1.0583282
1.0068289
0.95840208
0.91893777
0.87928726
0.84672581
0.81648018
0.78934702
0.769728
0.75130427
0.73926872
0.73269547
0.73421252
0.73858106
0.75411965
0.77826167
0.80098903
0.82650149
0.85307928
0.8879444
0.92633865
3.8295794
2.9528884
2.333877
1.944693
1.6800141
1.4858516
1.3388519
1.2232925
1.1330048
1.0596515
1.00079
0.95161447
0.90967696
0.87840263
0.84570399
0.82167774
0.79763006
0.77651368
0.75889002
0.74236695
0.73087539
0.72474579
0.72071507
0.71878097
0.72202025
0.73270009
0.74377791
0.75283629
0.77391839
0.79679946
0.85751139
3.7263748
2.8060178
2.2709109
1.9139344
1.662159
1.4723371
1.3263992
1.2093033
1.1174692
1.0415402
0.97831838
0.92435553
0.87945307
0.84163162
0.80851742
0.77996653
0.75489363
0.73446804
0.7170251
0.70327741
0.69382681
0.69177096
0.68814013
0.68365823
0.68330584
0.69020514
0.6975755
0.70068116
0.70549642
0.71322014
0.73462315
3.6282314
2.7838311
2.2608392
1.9183715
1.6726204
1.4830535
1.3378333
1.2199805
1.1279682
1.0510688
0.98738881
0.93261704
0.8863458
0.84693377
0.8117448
0.78132402
0.75431275
0.73101346
0.71092451
0.69479346
0.68307784
0.67770844
0.67609906
0.673983
0.67601677
0.68521929
0.69847324
0.71375273
0.72151225
0.73764231
0.74813473
3.7530617
2.8961756
2.3309467
1.9859745
1.7408457
1.5517768
1.4094469
1.2929111
1.201071
1.1248962
1.0615729
1.0068524
0.95867906
0.91877094
0.8810357
0.84824697
0.81909583
0.79412619
0.77259645
0.75467712
0.74137665
0.7358509
0.73691007
0.73690234
0.74015892
0.75463508
0.77289138
0.80359607
0.81462981
0.84509804
0.84934003
3.8814823
3.1713584
2.5185234
2.1801004
1.9176859
1.7256352
1.6034967
1.5054989
1.4318999
1.3708018
1.320483
1.2791032
1.2438631
1.2152692
1.1830834
1.1502397
1.1254744
1.1060508
1.0922379
1.0767082
1.0639491
1.0652614
1.0713295
1.0704429
1.0683959
1.0813569
1.1024431
1.1331426
1.1420344
1.1599333
1.1434953
4.3388649
5.136881
4.1770682
3.6657019
3.3711083
3.1795848
3.09186
2.9991166
2.9238863
2.8445004
2.7753118
2.7190848
2.6659399
2.6315677
2.5804879
2.5428491
2.5071016
2.4823771
2.4699916
2.4540158
2.4373178
2.4460662
2.4555516
2.4341148
2.3995343
2.3863858
2.39969
2.4110251
2.3973237
2.3668436
2.2940064
13.082122
14.375763
12.497921
11.932225
11.12143
10.490104
9.9543418
9.4978476
9.1347497
8.8056927
8.5249457
8.2638964
8.0291004
7.8260394
7.6302974
7.4515179
7.2868037
7.1398672
7.0185053
6.8664199
6.7319126
6.62828
6.5424922
6.4137386
6.2789867
6.1788172
6.1300995
6.0549165
5.936118
5.8018276
5.7268668
5.9998311
2.4373594
1.2249863
0.9039863
0.78680132
0.75553261
0.85849749
0.96123363
0.94631826
0.83484085
0.77717018
0.84604317
0.86206714
0.84443678
0.80396684
0.82052358
0.86333647
0.87236591
0.86104658
0.81472813
0.80241658
0.73800617
0.67597086
6.6374366
2.6765129
1.360096
0.99095937
0.83520081
0.77617678
0.86236034
1.0128647
1.0078515
0.93217774
0.83338855
0.90637273
0.92417712
0.91154277
0.86020596
0.86214134
0.91225889
0.9440245
0.95612044
0.91396702
0.89986922
0.85600727
0.74648213
7.1674895
2.9364651
1.5127821
1.113219
0.91974323
0.81452657
0.88106898
1.061073
1.0984247
1.0759339
0.92000264
0.95483719
0.98964342
0.98177415
0.94657475
0.91491276
0.95745162
1.0045881
1.0115114
0.97702438
0.96444258
0.94962164
0.900771
7.7848108
3.2773382
1.7219789
1.2735569
1.0373229
0.88781923
0.93900414
1.1271211
1.2024008
1.2249468
1.0784674
1.0422429
1.0804975
1.0850373
1.089012
1.0252213
1.0380002
1.0662397
1.0844011
1.0675006
1.0221659
1.0149763
0.9757269
8.6806399
3.9125414
2.0902853
1.5212123
1.2542148
1.0403415
1.0621807
1.2488141
1.3137429
1.3340658
1.2250113
1.1313456
1.1966556
1.2101371
1.2355134
1.2182532
1.169095
1.1967601
1.1871381
1.1897441
1.1510216
1.1402408
1.109183
9.7260607
4.4739429
2.556537
1.9370952
1.5097035
1.2328108
1.1975023
1.3627541
1.4255361
1.4439695
1.404068
1.2613843
1.3191596
1.3327733
1.323842
1.3253406
1.2764921
1.3143487
1.3469763
1.3580185
1.361579
1.3282629
1.3217837
10.505744
5.0796368
2.982613
2.3047859
1.8014917
1.5035192
1.4115447
1.5543687
1.6201616
1.6279672
1.6522763
1.523416
1.5317086
1.5239471
1.4597602
1.4299505
1.3706929
1.3844347
1.4451443
1.4625959
1.5136494
1.5264316
1.5275754
10.966891
5.8786926
3.518056
2.7218487
2.2001659
1.8679814
1.7013497
1.8411708
1.9255416
1.9298651
2.0004787
1.9042319
1.8373605
1.8859302
1.7844597
1.6745654
1.5606643
1.5257729
1.5964394
1.6239004
1.6247249
1.6344117
1.6366507
11.861204
6.6852727
4.1907735
3.3669476
2.803267
2.3378852
2.1560351
2.3475811
2.3823227
2.3089841
2.3418179
2.3169107
2.2233129
2.3558775
2.3223748
2.1051693
1.9771641
1.8542594
1.9137311
1.9536458
1.8685427
1.8001594
1.7274666
13.327117
8.0308485
5.1014309
4.0685583
3.499341
3.1830008
2.9321955
3.1595178
3.1354034
2.8943692
2.7892753
2.7833721
2.6779781
2.7853894
2.7832669
2.5533399
2.3885068
2.2964335
2.3629967
2.615086
2.5148459
2.2463698
1.9900258
14.832697
9.4554663
6.012116
4.8311354
4.4456572
4.4075674
4.3189355
4.4953507
4.2779551
3.6912874
3.3591868
3.3054514
3.1520835
3.2454042
3.4672484
3.3151537
2.8684729
2.7231156
2.7082585
2.9734566
3.0199166
2.7208564
2.528806
15.917678
10.631024
6.9125814
5.6616079
5.4178842
5.6709222
6.1288102
6.1556598
5.8256118
4.9986232
4.4703386
4.2613071
4.0121822
4.1625751
4.6729196
4.5138094
3.7854648
3.4880684
3.2959153
3.5321151
3.9461917
3.6473607
3.1634416
16.421782
11.766678
7.7559049
6.46757
6.3232651
6.9362148
7.9329246
8.0014094
7.4843139
6.2096742
5.6239221
5.4519924
5.5698259
6.1874776
6.5643237
6.1783217
5.194684
4.4496558
4.0697153
4.1922724
4.5855171
4.4397798
3.7740211
16.526276
12.71873
8.4638095
7.2900301
7.2573497
8.3275206
9.5548058
9.6400639
8.9187949
7.1910674
6.5141874
6.6320136
7.5282279
8.793718
8.660687
7.5238191
5.8806165
5.3722114
5.3191815
5.2570737
5.7693297
5.6102089
4.8167676
16.601507
13.441703
8.9467476
7.9092763
8.0130164
9.5386904
10.758706
10.875359
9.9803941
7.9729784
7.200288
7.4856373
9.0369196
10.559113
10.302739
8.6067358
6.6765054
6.2804757
6.7767204
7.7432111
8.2758665
7.5520841
5.7976622
16.593498
13.937342
9.3683943
8.3877045
8.5636151
10.297839
11.593782
11.758201
10.816045
8.6293643
7.7555002
8.102167
9.9946595
11.653566
11.385886
9.471953
7.4517829
7.0830862
8.019225
9.4473712
9.8063293
8.9146938
6.5710824
16.920995
14.633336
9.8741454
8.8443841
8.9922987
10.738845
12.120405
12.316622
11.395428
9.1178444
8.1411509
8.5248912
10.594264
12.313375
12.049656
10.140268
8.1046658
7.7214732
8.8272576
10.325892
10.633832
9.8398292
7.4313171
16.945103
14.852442
10.321736
9.234774
9.3167948
10.93117
12.324978
12.532982
11.58956
9.3487171
8.4364624
8.8817379
11.027917
12.678484
12.348917
10.414453
8.5437823
8.2265511
9.4895346
10.907728
11.134458
10.384201
8.0412509
16.488236
14.751503
10.540695
9.516923
9.581298
11.050087
12.304901
12.512671
11.557042
9.4639851
8.7538335
9.2984791
11.435439
12.753873
12.254505
10.326011
8.9547483
8.8398809
10.147993
11.131828
11.207319
10.469173
8.3880895
15.841961
14.280888
10.612111
9.6914029
9.783465
11.145708
12.206947
12.2987
11.267106
9.5159496
9.0886165
9.7424933
11.685336
12.574543
11.836563
9.9834343
9.1842941
9.3693177
10.607999
11.248569
11.113215
10.09404
8.6496637
15.38426
13.595045
10.603187
9.8372852
9.9918834
11.205678
12.113051
12.010235
10.882965
9.5966811
9.458596
10.17528
11.599945
12.031655
11.172123
9.7981091
9.3723264
9.7988608
10.848618
11.238795
10.858686
9.62191
8.8901169
14.94103
12.758975
10.508437
9.9837122
10.203507
11.235707
12.003687
11.713206
10.518502
9.7780121
9.8254842
10.473529
11.157891
11.19827
10.469716
9.7739889
9.638172
10.174447
10.850271
10.985697
10.352547
9.4560347
9.3010729
14.291715
11.912485
10.252112
10.038807
10.314174
11.182674
11.734586
11.264893
10.207052
9.793435
9.8547828
10.324934
10.599852
10.436195
9.918718
9.6764012
9.8209645
10.342569
10.730341
10.511221
9.8300342
9.4899216
9.5837974
13.403732
11.160544
9.9758173
9.9936464
10.293758
10.925431
11.188649
10.639566
9.8818519
9.5934294
9.6722799
9.9893323
10.083552
9.8500996
9.5851897
9.5973392
9.8810997
10.330118
10.429289
9.9882229
9.538167
9.3385784
9.4129223
12.391758
10.550556
9.725878
9.8305645
10.019524
10.21145
10.234032
9.8486848
9.4754542
9.3422314
9.4739075
9.670366
9.6771373
9.4717911
9.3474655
9.4470805
9.7361442
9.9876614
9.8201462
9.4132687
9.1492097
9.0621346
9.1665278
11.7471
9.872606
9.0730974
9.1041481
9.1915102
9.2324428
9.2341808
9.0765035
8.9826599
9.0568927
9.2727795
9.4030022
9.3068392
9.1273241
9.0480131
9.0611909
9.1284189
9.1781981
9.1048287
8.9507784
8.8668768
8.8902439
8.9726125
11.176848
9.7951525
8.6859764
8.1233585
7.9777432
8.126658
8.2599277
8.241106
8.3025616
8.5226981
8.8556659
8.9662031
8.791622
8.5998965
8.4881197
8.4204628
8.3956434
8.4207626
8.4753046
8.5655988
8.6415886
8.6659498
8.6875719
14.060214
11.883825
10.145602
8.9038066
8.1282881
7.6782686
7.6342441
7.6743456
7.7090868
7.8165859
8.013347
8.1268339
8.0465196
7.9264141
7.8505217
7.8092431
7.7879193
7.8281769
7.9381908
8.0673447
8.1416315
8.1460514
8.1794285
20.301956
14.828108
11.479243
9.8346569
8.6329004
7.7794977
7.3973511
7.2643387
7.1613247
7.0660616
7.0611073
7.1515402
7.2447119
7.2904793
7.2816068
7.2479856
7.2649019
7.3293363
7.3625377
7.3268437
7.3181764
7.4148395
7.5739823
20.760459
11.246261
9.3697529
8.9138943
8.2469491
7.4505372
6.7848843
6.5911693
6.5066726
6.3754767
6.3336786
6.4063358
6.5171732
6.6120686
6.6581796
6.6642787
6.6997534
6.7175023
6.6485281
6.5549483
6.5569892
6.7417705
6.9018883
19.341939
8.7608676
7.7896395
7.6670278
7.1695209
6.4028117
5.9694147
5.9457843
5.905721
5.8180049
5.80297
5.8729574
5.9251841
5.9359332
5.9507099
6.0056906
6.080158
6.0891626
6.0320206
5.983074
6.0302898
6.1823778
6.277697
17.368273
7.486746
6.6969327
6.4931706
5.8371214
5.4545698
5.3258723
5.3194856
5.3003208
5.2957854
5.3276655
5.3646269
5.3630062
5.3388025
5.345404
5.4259141
5.5306109
5.5814828
5.5727502
5.562684
5.6221001
5.7279088
5.7707943
15.418181
6.4812949
5.7009149
5.517934
5.1191672
4.9171456
4.8388793
4.8007866
4.7791965
4.7965666
4.8609279
4.9104707
4.9179493
4.9079222
4.9242695
4.9869011
5.051221
5.0870281
5.0931715
5.106012
5.2179628
5.3548718
5.412126
13.862913
5.8664026
4.9240101
4.7302889
4.5634956
4.4771823
4.4244116
4.3780755
4.3585063
4.3872552
4.4541125
4.5120356
4.5437055
4.5620123
4.5957199
4.6374929
4.6565133
4.6612476
4.6885404
4.7961698
4.9639136
5.0646853
5.0834121
12.594247
5.2468061
4.3534023
4.156905
4.0749722
4.0595298
4.0675801
4.0632353
4.0613303
4.088349
4.1325952
4.1682318
4.1967645
4.2346781
4.2875257
4.3362793
4.3688463
4.4009187
4.4536959
4.5211223
4.5592312
4.5379978
4.4537406
11.434552
4.9801096
4.0178796
3.8037348
3.7312973
3.719478
3.736942
3.7528221
3.7696616
3.8025754
3.8399287
3.8622143
3.8753752
3.8987199
3.9448678
4.0051008
4.0630137
4.118373
4.183239
4.2413271
4.2338858
4.1372081
3.9566491
10.896672
4.7789035
3.7694537
3.5421914
3.4728228
3.4587471
3.4696209
3.4799414
3.4929558
3.5233416
3.5657365
3.6019041
3.6263541
3.6475307
3.6774841
3.7186272
3.7649025
3.8141945
3.8700062
3.9108148
3.8917145
3.7888465
3.6168862
10.511366
4.6076564
3.5631072
3.3089921
3.2359527
3.2235879
3.2369951
3.2494083
3.2587556
3.2781111
3.3121169
3.3530251
3.3898839
3.4212338
3.4524653
3.4884249
3.5271214
3.5639263
3.5969992
3.6101166
3.5834263
3.485557
3.3255029
10.200332
4.4881412
3.4095752
3.1188386
3.0252959
3.00341
3.0165959
3.0398911
3.0607762
3.0819537
3.1093466
3.1416461
3.1736278
3.2023477
3.2305842
3.2640467
3.3039668
3.3447182
3.3741097
3.3741073
3.3404609
3.2467012
3.0995278
9.9451181
4.3978994
3.2934724
2.9753547
2.8621767
2.8258442
2.8283252
2.8493778
2.8749171
2.9007607
2.9289068
2.9591377
2.9882085
3.012718
3.0336384
3.0578512
3.0928555
3.1365144
3.1726081
3.1784076
3.1519844
3.070705
2.9380294
9.8051973
4.3050501
3.1919155
2.8558454
2.7286495
2.6825778
2.6761436
2.6887783
2.7080115
2.7281391
2.7512085
2.7787097
2.8093306
2.838738
2.8643192
2.8888427
2.9196797
2.9593144
2.9954575
3.0057971
2.9884331
2.9260266
2.8114665
9.753218
4.2152037
3.1040015
2.7506145
2.6058972
2.5475715
2.5338087
2.5423337
2.5587898
2.5760245
2.5940748
2.6160487
2.6429955
2.673169
2.7036903
2.7338376
2.7675024
2.8073542
2.8442223
2.8578693
2.8458005
2.8005824
2.7069662
9.7118732
4.1179714
3.0226004
2.6615151
2.5015691
2.4286503
2.4039674
2.4060509
2.4201197
2.4380701
2.4567184
2.4770966
2.5003433
2.5262154
2.5539997
2.5840799
2.6198004
2.6633293
2.7058009
2.7284615
2.7226266
2.6886659
2.6106153
9.6870922
4.0061848
2.9401028
2.5816085
2.4136527
2.3308782
2.2967065
2.289861
2.29665
2.3093859
2.3250299
2.3435611
2.3653275
2.3899827
2.4170825
2.4479739
2.4871356
2.5371067
2.5885163
2.6195815
2.615994
2.5813743
2.5030184
9.674995
3.8940188
2.8538089
2.5010146
2.3287078
2.2385887
2.1977824
2.1855882
2.1870805
2.1944044
2.2048182
2.2186782
2.2376044
2.2618523
2.2916524
2.3288352
2.3778163
2.438114
2.4939112
2.5177424
2.5042649
2.4544142
2.3735915
9.6502469
3.7991777
2.7751718
2.4260088
2.2501037
2.1521557
2.1043418
2.0872388
2.085646
2.0909926
2.0995265
2.1113148
2.1279998
2.1516448
2.1852724
2.2326643
2.2943837
2.3581609
2.3987653
2.3985126
2.3652879
2.2993519
2.2257044
9.5702253
3.6939567
2.6954037
2.3571923
2.1826133
2.0794229
2.0248539
2.0015651
1.9953586
1.9970656
2.0036895
2.0148282
2.0321991
2.0595858
2.102663
2.1626886
2.2278918
2.274261
2.2836557
2.2596301
2.2035327
2.1349585
2.0749248
9.5280988
3.6088612
2.6232681
2.2899644
2.1160602
2.0100424
1.9514576
1.9243088
1.9144465
1.9130459
1.9181063
1.9303762
1.9531572
1.9920157
2.0490702
2.1133218
2.1599034
2.1735178
2.1539412
2.103757
2.0367151
1.9730303
1.9272014
9.3896204
3.5172315
2.5556917
2.2290022
2.0549596
1.945938
1.8840742
1.8544767
1.8430467
1.8410712
1.8473737
1.8650668
1.8991221
1.951373
2.0122879
2.0566517
2.0717965
2.0541883
2.0085736
1.9449099
1.8778586
1.8247781
1.7966567
9.319996
3.4538016
2.4971228
2.1735671
2.0009741
1.8905747
1.8260484
1.794383
1.7821742
1.7808649
1.7915962
1.8190175
1.864667
1.9197274
1.9595593
1.9734389
1.9592046
1.9194244
1.8620339
1.7977037
1.7374464
1.6923182
1.6724467
9.1252063
3.3807572
2.4459932
2.1272545
1.9557883
1.8434471
1.7750389
1.7411629
1.729198
1.7298271
1.7488444
1.787418
1.8373813
1.8741321
1.8870232
1.8739905
1.837886
1.7859723
1.726457
1.6671335
1.6146355
1.5755352
1.5575332
9.0776058
3.3350935
2.3974526
2.0786118
1.9077828
1.7955634
1.7268078
1.6936643
1.6835916
1.6898955
1.7188102
1.7634183
1.8008346
1.8147033
1.8041701
1.7702706
1.7211952
1.6647861
1.6075103
1.5544066
1.5089464
1.4749779
1.4570418
8.7877085
3.2824018
2.3644698
2.0475723
1.8761288
1.7599809
1.6879733
1.6547888
1.6464861
1.6589688
1.6945702
1.7342793
1.7515505
1.7468607
1.7172438
1.6714554
1.617499
1.5621584
1.5097412
1.4629688
1.4229604
1.3916427
1.3713134
8.7903873
3.2565865
2.3376568
2.0211092
1.8495537
1.7315962
1.6558133
1.6220355
1.6154842
1.6331614
1.6701164
1.6947671
1.6985718
1.6771071
1.6362873
1.5854211
1.5315864
1.4798932
1.4328801
1.3911285
1.3543367
1.323295
1.299077
8.4421177
3.2025465
2.3099733
1.9944349
1.8223841
1.7043696
1.6280017
1.5934381
1.5879136
1.6090099
1.6404881
1.6526485
1.6437317
1.6110431
1.5644681
1.5126272
1.4612273
1.4138945
1.3717478
1.3340325
1.2995992
1.2684038
1.2410115
8.5078277
3.1393907
2.2606349
1.9634229
1.7970042
1.6760106
1.5979024
1.5651779
1.5604133
1.5814863
1.6048313
1.6089235
1.5893952
1.5500795
1.5012359
1.4505797
1.4026262
1.3597698
1.3223502
1.2888558
1.2573803
1.2273123
1.1987879
8.0347078
3.0552718
2.2504496
1.9612695
1.7960826
1.6703288
1.5772834
1.5362308
1.5312566
1.5491794
1.5646655
1.5636339
1.5382705
1.4962765
1.4475771
1.399253
1.354937
1.3160551
1.2826592
1.2528407
1.2243219
1.1962786
1.1686742
7.8182825
3.0723436
2.2597536
1.9686264
1.8028926
1.6751124
1.5758588
1.5134171
1.4985061
1.5137039
1.5249026
1.5195701
1.4921988
1.4507357
1.4040348
1.358388
1.3170065
1.2810993
1.250665
1.2240502
1.1988457
1.173748
1.1486016
7.1847536
3.1604279
2.3004334
1.9957224
1.8260103
1.6937566
1.5855924
1.5110093
1.4703204
1.4732717
1.4866576
1.4819078
1.4542208
1.413415
1.3686463
1.325622
1.2870373
1.2537457
1.2255888
1.201562
1.1797372
1.1584722
1.1367983
7.1169514
3.7620366
2.4978361
2.0827977
1.8870752
1.7443654
1.6188881
1.5222797
1.4653624
1.4381772
1.4450691
1.4472239
1.4257117
1.3870618
1.3430238
1.3010025
1.264097
1.2328624
1.20676
1.1847691
1.1656521
1.1482661
1.1310961
7.1212934
3.9656777
2.7037564
2.2068545
1.9685843
1.8110076
1.6765131
1.5569156
1.4750457
1.4292802
1.4085955
1.4087676
1.3989695
1.3692798
1.3281196
1.2856177
1.2476951
1.2163346
1.1912972
1.1712715
1.154719
1.1405139
1.1270311
7.1553245
4.0507973
2.7612312
2.2797014
2.048188
1.8934965
1.7558538
1.621745
1.5101493
1.4390799
1.3998648
1.3774291
1.3666927
1.3486224
1.3167606
1.2775831
1.2392402
1.2061812
1.1795501
1.159289
1.1442503
1.1328014
1.1223968
6.929352
3.5787759
2.6781049
2.2791159
2.0927869
1.9788507
1.8714698
1.7459951
1.5997566
1.4836017
1.4143272
1.3754725
1.3487703
1.3278826
1.3042159
1.2730896
1.2387478
1.2053138
1.1762103
1.1528505
1.1358176
1.1245961
1.1160119
6.6834548
2.5550786
2.2829602
2.1780943
2.0774679
2.0031381
1.9460167
1.8727784
1.7622514
1.6149168
1.4808078
1.4024086
1.3559038
1.3253994
1.2991894
1.2727257
1.2412442
1.2086404
1.1786158
1.1535111
1.1341799
1.1209959
1.1113152
6.4290126
1.9554704
1.6396447
1.7716341
1.9211076
1.9553353
1.9425272
1.9146472
1.866372
1.7813927
1.6578629
1.5148045
1.4102599
1.3478983
1.3071293
1.2756608
1.2459541
1.2158648
1.1868936
1.1598932
1.137662
1.1230347
1.1138833
6.2934091
1.7928658
1.3043522
1.3256038
1.4842066
1.7103359
1.8430851
1.8822766
1.8709351
1.8434253
1.7893912
1.7022759
1.5815178
1.454792
1.3628546
1.303813
1.2617993
1.227446
1.196886
1.169591
1.147119
1.1319147
1.1233424
6.2821615
1.8547118
1.2272352
1.0818072
1.1208897
1.2460672
1.4665239
1.6826212
1.7859746
1.8141156
1.7993234
1.7712357
1.7209256
1.6437942
1.5385698
1.4266127
1.3335367
1.2710778
1.2246052
1.1884314
1.1598145
1.1408555
1.1336505
6.3669105
2.0138548
1.2251083
0.95290034
0.88114295
0.91530959
1.0139217
1.1870565
1.4188899
1.6122667
1.7071009
1.7365221
1.7252298
1.7021702
1.65967
1.5984093
1.5181015
1.42226
1.3312844
1.2553779
1.2018397
1.1651785
1.1216244
6.516972
2.0172687
1.2006387
0.84091917
0.71707387
0.69992931
0.73621854
0.82160221
0.95810745
1.1327118
1.3373719
1.5131575
1.6167277
1.655461
1.6521672
1.6347698
1.6026348
1.5588023
1.4999958
1.4285612
1.3468915
1.2653587
1.1949873
6.6281047
1.9634276
1.1053874
0.74486874
0.61000231
0.57006562
0.57838847
0.61788568
0.6907804
0.79351298
0.9256099
1.0761455
1.2468504
1.4079856
1.5217717
1.571748
1.5811784
1.5687872
1.5478648
1.5176512
1.4762939
1.4300143
1.3512523
6.7076773
1.8698432
1.0206094
0.68594353
0.55321707
0.50435949
0.49632062
0.51273888
0.5499391
0.60668988
0.68393725
0.78171012
0.89589348
1.0227112
1.1609294
1.3052244
1.4216484
1.4851775
1.5095545
1.5071133
1.4942518
1.4760018
1.4448915
6.7575351
1.8256997
0.98583287
0.6665482
0.53690625
0.4840954
0.46685978
0.46855816
0.48403117
0.5118251
0.55264307
0.60816364
0.67924729
0.7638872
0.85860958
0.96333956
1.0740706
1.1966063
1.3073464
1.38803
1.4288331
1.4421147
1.478765
6.7813054
1.7812436
0.97418796
0.66602842
0.53840912
0.48503465
0.46542265
0.46195994
0.46759336
0.47922703
0.49671912
0.52232812
0.55846328
0.60649809
0.6658254
0.73465204
0.81092788
0.89464903
0.98484151
1.0797602
1.1770688
1.2600749
1.3528859
6.7661786
1.7811154
0.98510485
0.6854828
0.5616693
0.50717204
0.4835261
0.47504468
0.47503874
0.48048333
0.48897601
0.49849176
0.51071596
0.53020353
0.55864166
0.59597219
0.64189611
0.6956422
0.75624664
0.82313486
0.89561949
0.97539274
1.0928691
6.8815698
1.8013185
1.0347246
0.75890675
0.64775946
0.59616932
0.56673518
0.54483812
0.52743729
0.51443365
0.50691355
0.50477823
0.50635894
0.50835234
0.51511789
0.52834038
0.54871569
0.57617013
0.61062618
0.65201068
0.70013571
0.75715298
0.8389724
6.6799741
2.0730062
1.20985
0.95860101
0.86623098
0.81150909
0.758618
0.70460968
0.6540651
0.60942782
0.57175488
0.54257165
0.52187479
0.51009332
0.50412857
0.50307278
0.50589499
0.51246063
0.52378907
0.54061007
0.56428269
0.59421225
0.64364079
6.6621776
2.3137312
1.5132477
1.2682944
1.1630193
1.0735441
0.97229994
0.86764244
0.7711859
0.68991235
0.62580693
0.57714946
0.54103365
0.51559431
0.49968568
0.48919765
0.47909458
0.47161631
0.46777881
0.46932558
0.47477034
0.48554105
0.50974733
6.3866751
3.1578331
1.9885778
1.6442659
1.4896649
1.3407577
1.1706258
0.99952844
0.8485927
0.72971423
0.6431207
0.5825673
0.54020009
0.51025553
0.48605393
0.4624801
0.44475961
0.4322779
0.42437077
0.42092796
0.42141659
0.42377567
0.43402059
6.5178539
3.3761201
2.3944711
2.0548963
1.8205471
1.5760616
1.3149541
1.0718714
0.87541452
0.73292678
0.63519092
0.56677346
0.51594262
0.47699532
0.44504557
0.42107352
0.40619713
0.39679655
0.39219589
0.39049321
0.3905999
0.39173175
0.39799194
6.7025656
3.3815501
2.6661065
2.3474048
2.0063835
1.6552886
1.3298111
1.0541752
0.84156456
0.69041683
0.58622511
0.51440714
0.46324528
0.42672679
0.40272872
0.38734911
0.37907699
0.37519944
0.37402944
0.37407313
0.37540129
0.3772304
0.38324013
6.968422
3.4801348
2.907888
2.4711719
2.0166362
1.5915732
1.2132862
0.92247022
0.72733106
0.60104331
0.51608227
0.45660173
0.4159125
0.38988223
0.37549715
0.36796927
0.36536143
0.36484463
0.36542705
0.36663634
0.36953093
0.37134608
0.37714126
7.2685891
4.2007094
3.1766052
2.4874366
1.8971678
1.3765384
1.0050849
0.76586775
0.61481281
0.51562443
0.44957732
0.40632494
0.3808521
0.3671916
0.3608514
0.35877344
0.35850268
0.35928068
0.36125016
0.36320722
0.36677985
0.3686186
0.37367118
7.7442733
4.7136494
3.2990407
2.4071454
1.669677
1.1502133
0.82710956
0.63384838
0.51475465
0.44071217
0.39696715
0.37224619
0.36053719
0.35527843
0.35330421
0.35343699
0.3536944
0.35524639
0.35740292
0.36011282
0.36317038
0.36456009
0.36910212
8.3215649
4.9246188
3.2643095
2.1672104
1.3942527
0.92877711
0.66842024
0.52098686
0.43553273
0.38940444
0.3664654
0.35478529
0.3505991
0.34831418
0.34807823
0.34853141
0.3491536
0.35088041
0.35330202
0.35632576
0.35828845
0.36012304
0.36598632
9.3129237
4.8922403
3.0250774
1.8157586
1.1051908
0.73548818
0.5440261
0.44205078
0.38990248
0.36528199
0.35385132
0.34762475
0.34548352
0.34378015
0.34271984
0.3430218
0.34355145
0.34470677
0.34743919
0.34932561
0.35169593
0.35486821
0.35870633
9.9558892
4.8076671
2.6960771
1.484156
0.88233515
0.60400129
0.46815256
0.40158679
0.37128533
0.35757346
0.35011883
0.34501687
0.34206209
0.33953704
0.33763943
0.33709863
0.33713177
0.33777416
0.33961492
0.3410201
0.34439269
0.34718076
0.34960605
10.484097
4.7984546
2.4337156
1.2454136
0.74153656
0.52892831
0.43090961
0.38591602
0.36569652
0.3557643
0.34920269
0.34396601
0.33977512
0.33577255
0.33345097
0.33218304
0.3315638
0.3316919
0.33231998
0.33322267
0.33614423
0.33774047
0.34082837
10.929244
4.7784451
2.1928402
1.0688561
0.64727137
0.48277113
0.41243875
0.38076681
0.36502651
0.35609244
0.34952879
0.34385674
0.3387283
0.33364885
0.33081697
0.32907835
0.32800904
0.3280207
0.3285102
0.32943603
0.33223175
0.33300781
0.33671588
11.283586
4.7091735
1.9711187
0.93225534
0.57798636
0.45168883
0.40409575
0.3806095
0.36649692
0.35840435
0.35217223
0.34602403
0.34020297
0.33439287
0.33089977
0.32882036
0.32791488
0.32805338
0.32884732
0.33000438
0.33244349
0.33287346
0.34270294
11.573728
4.6266302
1.7912436
0.83646298
0.53559211
0.43735284
0.40257345
0.38224449
0.36952769
0.36286321
0.35724573
0.35152847
0.34608195
0.34044733
0.33650502
0.33420353
0.33345994
0.33360244
0.33407217
0.33518662
0.33728043
0.33807799
0.35498332
11.799036
4.5355962
1.6361039
0.76852944
0.51248404
0.43303926
0.4027882
0.38423349
0.37448504
0.36998669
0.36601405
0.36183251
0.35744519
0.35282667
0.34942169
0.34701569
0.34582684
0.34472804
0.34471072
0.34534126
0.34717495
0.34801351
0.36826634
11.968688
4.4423835
1.5210411
0.72656676
0.5011326
0.43238671
0.40520625
0.39235148
0.38846567
0.38818837
0.38844131
0.38741936
0.38371535
0.377405
0.3703319
0.36445491
0.36034
0.35770642
0.35700051
0.35713887
0.35854925
0.35922463
0.37301267
12.073034
4.3401802
1.4266297
0.6941744
0.49356657
0.4373987
0.4199634
0.41784725
0.42397106
0.42701396
0.42664291
0.42227824
0.41491102
0.40572407
0.39623876
0.38751936
0.38007076
0.37400798
0.369754
0.36823061