/*--------------------------------*- C++ -*----------------------------------*\
| =========                 |                                                 |
| \\      /  F ield         | OpenFOAM: The Open Source CFD Toolbox           |
|  \\    /   O peration     | Version:  2406                                  |
|   \\  /    A nd           | Website:  www.openfoam.com                      |
|    \\/     M anipulation  |                                                 |
\*---------------------------------------------------------------------------*/
FoamFile
{
    version     2.0;
    format      ascii;
    arch        "LSB;label=32;scalar=64";
    class       volScalarField;
    location    "125";
    object      omega;
}
// * * * * * * * * * * * * * * * * * * * * * * * * * * * * * * * * * * * * * //

dimensions      [0 0 -1 0 0 0 0];

internalField   nonuniform List<scalar> 
20580
(
3.5846696
2.6591117
2.1427928
1.8086003
1.573934
1.3954039
1.2562371
1.1453971
1.0538644
0.97803538
0.91498302
0.86137267
0.81657185
0.77644165
0.74305266
0.71451044
0.69042414
0.67256762
0.6591263
0.64562691
0.63467886
0.62402752
0.6155648
0.61495375
0.62411311
0.63142481
0.63467329
0.6209007
0.61773712
0.63152352
0.64255779
3.5871838
2.6487349
2.1392342
1.8087529
1.5753219
1.3968238
1.2577418
1.1468574
1.0559072
0.98033374
0.91821732
0.86489071
0.82008811
0.78060395
0.74703929
0.71714863
0.69540243
0.67806794
0.66623625
0.65317622
0.64565934
0.63809681
0.62840368
0.63197819
0.64350468
0.66676897
0.68699687
0.6993132
0.69850669
0.70013069
0.68094366
3.588986
2.6292029
2.1264222
1.8045202
1.5734936
1.3966358
1.2576373
1.1468581
1.0569909
0.98253533
0.92082363
0.86812914
0.82308437
0.78402805
0.7509874
0.72035548
0.69791217
0.6795163
0.66661715
0.65249563
0.64408634
0.63943512
0.62838977
0.62958357
0.63838007
0.66242994
0.6864536
0.70236919
0.71205656
0.74330347
0.75690289
3.5944863
2.6134654
2.0998428
1.7877927
1.5641468
1.3924819
1.255822
1.1461289
1.0573282
0.98456201
0.9232995
0.87102391
0.82565989
0.78738509
0.75386083
0.72377527
0.69972493
0.68194265
0.66707548
0.65373551
0.6426299
0.63870867
0.62854429
0.62865101
0.63545954
0.6517024
0.68332143
0.70957418
0.71523905
0.73740788
0.75940698
3.5999327
2.6103562
2.0841155
1.7629691
1.5399016
1.3765683
1.248201
1.1432081
1.0566638
0.98509049
0.92508495
0.87422342
0.8288457
0.79146107
0.75698044
0.72806131
0.70160631
0.68455082
0.66720636
0.65591537
0.64393447
0.63948465
0.62968354
0.62979186
0.63596737
0.65105198
0.67382301
0.71684735
0.7335136
0.77470954
0.78324857
3.6070339
2.6146122
2.0785542
1.7520893
1.5241268
1.3608043
1.2341486
1.1350668
1.0533381
0.98389434
0.92548402
0.876223
0.83159446
0.79631034
0.76043584
0.73336918
0.70564711
0.68893747
0.66923406
0.65824059
0.6465187
0.64081667
0.63056378
0.62774031
0.63283337
0.64546912
0.66471169
0.71061825
0.73502121
0.79105055
0.80789989
3.6084812
2.6262104
2.0799513
1.7469343
1.5149371
1.3467589
1.2190489
1.1202285
1.0448968
0.97927296
0.92415676
0.87508614
0.83395665
0.7981449
0.76448246
0.73760271
0.71221952
0.69480387
0.67534679
0.66329161
0.65217953
0.64248251
0.63326425
0.62427885
0.62463687
0.62781505
0.6388086
0.67695254
0.71838851
0.78034357
0.82126594
3.7046742
2.6921006
2.1043658
1.7525007
1.515008
1.341878
1.2110379
1.1100596
1.0313338
0.96617414
0.91459658
0.86817319
0.83070347
0.79579209
0.7650769
0.73735661
0.71618177
0.69663303
0.68100453
0.66792767
0.65972441
0.64716351
0.63992339
0.63165241
0.62670255
0.62601847
0.62797331
0.6397765
0.67088152
0.71060996
0.79045965
4.0292224
3.2302631
2.2936531
1.8260215
1.5488479
1.3586608
1.2198514
1.1133166
1.03003
0.95999381
0.90488118
0.85443653
0.8173279
0.78176479
0.75438048
0.72881946
0.71004257
0.69179039
0.67848454
0.66774792
0.65988433
0.65013808
0.64588372
0.64626052
0.64457998
0.64451738
0.64512602
0.6559529
0.68157045
0.716376
0.7513648
3.8675888
3.2569764
2.5560139
2.069765
1.7246654
1.4653943
1.2865225
1.1539129
1.0538071
0.97466514
0.91312457
0.85946927
0.81742845
0.78032207
0.74781545
0.72053066
0.69686449
0.67735331
0.66298245
0.65543196
0.64815469
0.64503497
0.64612443
0.65034278
0.65485394
0.66520564
0.68034301
0.70512406
0.72300749
0.76404949
0.77878548
3.5903874
2.9900659
2.5288132
2.1925611
1.9401685
1.7217543
1.5175578
1.3379636
1.1900311
1.072966
0.98403929
0.91389094
0.85637019
0.80965392
0.76925322
0.73563323
0.7068703
0.68308337
0.66486451
0.65312862
0.64250262
0.63485182
0.63766982
0.64232229
0.64634052
0.65684434
0.67439975
0.70853006
0.73778397
0.77822385
0.80882831
3.8532956
2.946589
2.4151015
2.0919327
1.8832679
1.7141883
1.5696644
1.4502776
1.3475922
1.2559859
1.170264
1.0932996
1.0181871
0.95371441
0.89373573
0.83873586
0.79231609
0.74922332
0.71481248
0.68917499
0.66805298
0.64976801
0.64307734
0.64288751
0.64036595
0.63992007
0.64797684
0.66646216
0.69819323
0.74313385
0.80580597
3.8727983
3.0924301
2.4443767
2.059299
1.7908852
1.6093985
1.4710189
1.367613
1.2885527
1.2236821
1.1631706
1.1070985
1.0575132
1.0133289
0.97571534
0.9408089
0.90955977
0.88267701
0.85353062
0.82751024
0.79754189
0.76305043
0.7362197
0.70712209
0.68396109
0.66528047
0.65704611
0.66469247
0.67637631
0.69234762
0.73322751
3.6836686
2.8831915
2.3942687
2.0576486
1.806738
1.6127519
1.4604125
1.3319514
1.2305057
1.1462493
1.0814812
1.027538
0.98402448
0.94538871
0.91580005
0.89280438
0.87436141
0.86047691
0.84833346
0.83808932
0.83016256
0.82204178
0.81787386
0.81760542
0.8108678
0.79547911
0.77812283
0.76372292
0.76219594
0.76133215
0.76199602
3.8577497
2.9604235
2.3205942
1.9774246
1.7490508
1.5811113
1.4416842
1.3250764
1.2285378
1.1483488
1.0787822
1.0203342
0.96679927
0.92088445
0.88096109
0.84613578
0.81753123
0.79191764
0.77983692
0.76953003
0.76954037
0.77251765
0.77970539
0.79621673
0.80907505
0.82250038
0.83385022
0.85169991
0.86792762
0.89715325
0.89194793
3.7829393
2.9185101
2.3232592
1.9486174
1.6889664
1.5021099
1.3649383
1.2633944
1.1821415
1.1164402
1.0583487
1.0067716
0.95840978
0.91897115
0.87928677
0.84675254
0.81641845
0.78953176
0.76967548
0.75110864
0.73929583
0.73289948
0.73381281
0.73855401
0.75450047
0.77842656
0.80064361
0.82561744
0.85417803
0.8890003
0.92601107
3.8292425
2.9529593
2.3337361
1.9449643
1.6801995
1.4858298
1.3387443
1.2233559
1.1330958
1.0596752
1.0007621
0.95154254
0.90971636
0.87844911
0.8456166
0.82165337
0.79760345
0.77668814
0.75872479
0.74208341
0.73112673
0.72505339
0.72026951
0.71830305
0.72245356
0.73348634
0.74352454
0.75175183
0.77352153
0.79839088
0.85878907
3.7269179
2.8064523
2.2708624
1.9138739
1.6622368
1.4723148
1.3263906
1.2093868
1.1175346
1.0415856
0.97825107
0.92428015
0.87950714
0.84166937
0.80840769
0.77992358
0.75489312
0.73457173
0.71681246
0.70302236
0.69417139
0.69208493
0.68766322
0.68311045
0.6837142
0.69117194
0.69721071
0.69992749
0.70485674
0.71372538
0.73613199
3.6287789
2.7843216
2.2608992
1.9180508
1.6725727
1.4830209
1.3379064
1.2200301
1.1279976
1.0511413
0.98730612
0.93252926
0.8864
0.84697329
0.81163653
0.78126161
0.75433253
0.73108066
0.7107576
0.69457498
0.68333478
0.67806138
0.6757291
0.67344045
0.67630646
0.68595633
0.69857709
0.71275289
0.72087911
0.73784495
0.74884634
3.7538716
2.896867
2.3311758
1.985585
1.7407174
1.5517083
1.4095586
1.2929593
1.2010823
1.1250077
1.0614931
1.0067162
0.95872422
0.91886099
0.88091995
0.8481589
0.81910506
0.79424995
0.77246555
0.7543413
0.74159866
0.73640238
0.73682491
0.73602723
0.74040627
0.75510705
0.77373903
0.80280314
0.81311391
0.84533457
0.84948444
3.8819222
3.1723002
2.5188842
2.1795987
1.9174861
1.7255242
1.6036495
1.5055714
1.4319255
1.3710908
1.3204143
1.2788341
1.2439402
1.2154941
1.1829413
1.1501017
1.1254733
1.1064592
1.0919854
1.0758436
1.0644116
1.0668078
1.0713469
1.0685917
1.0681512
1.0826407
1.1041393
1.1326461
1.1391101
1.1589005
1.1435901
4.3449544
5.1386243
4.1780721
3.6630293
3.370312
3.1791747
3.0931161
2.9997054
2.9243349
2.8459971
2.7750465
2.7180703
2.6661735
2.6325145
2.5798465
2.5422057
2.5069739
2.4836939
2.4689712
2.4514411
2.4380936
2.4507181
2.4550887
2.4302011
2.3972565
2.3905641
2.4037873
2.4096623
2.392151
2.3624158
2.2928059
13.088093
14.379508
12.500182
11.92927
11.119699
10.489651
9.9558793
9.4990797
9.135247
8.8070144
8.5243189
8.2622643
8.0297257
7.8270316
7.6287781
7.4510562
7.2862423
7.141837
7.0174409
6.862051
6.7339025
6.6338873
6.5428028
6.4059463
6.2755118
6.1865178
6.138617
6.0508569
5.923003
5.7960717
5.733079
6.0107845
2.4425617
1.2269189
0.90530121
0.78757439
0.75549667
0.85814553
0.96093972
0.94647339
0.83577206
0.77894369
0.84762945
0.86187428
0.84244592
0.8017512
0.81856474
0.86244023
0.87401555
0.86290263
0.81535018
0.80173141
0.73665593
0.67537386
6.6270916
2.6733557
1.3585935
0.98912579
0.83323168
0.7746889
0.86005334
1.0104312
1.007761
0.93467923
0.83586179
0.90773931
0.92458099
0.91084323
0.85963896
0.8619561
0.9134757
0.94529363
0.95565592
0.91181813
0.89734355
0.85543434
0.74773936
7.1448667
2.9264978
1.5085433
1.1109753
0.91833207
0.81301948
0.88007886
1.0617252
1.0991781
1.0755228
0.91802945
0.95321281
0.98856087
0.98249252
0.94898212
0.91845856
0.96050152
1.0047621
1.0096621
0.97334866
0.96190584
0.94875397
0.90247953
7.8036483
3.2792857
1.7257544
1.2773898
1.0400599
0.89083585
0.94237306
1.1302067
1.2011883
1.2208653
1.0737913
1.0389863
1.0769382
1.0851994
1.091174
1.0279675
1.038773
1.0663765
1.0831049
1.0668784
1.0224698
1.016566
0.97743969
8.7298043
3.936816
2.0983274
1.5257515
1.2606369
1.0445725
1.0652822
1.2512069
1.3142503
1.3336794
1.2239369
1.1306507
1.1978486
1.2116897
1.2358527
1.2161999
1.1651538
1.1927257
1.1863569
1.1921088
1.1559811
1.1454471
1.111834
9.7295056
4.4796637
2.5634023
1.9406962
1.5077004
1.2298927
1.1939626
1.3587485
1.4245194
1.4462496
1.4098164
1.2687676
1.3259334
1.3362327
1.3217564
1.320302
1.2694588
1.3081445
1.3428538
1.3596716
1.366978
1.3351495
1.3256339
10.413993
5.0538083
2.9626854
2.2836417
1.7852176
1.4956445
1.4054075
1.5460159
1.6141565
1.6286902
1.6581201
1.5317203
1.5379121
1.5264172
1.4591027
1.42836
1.3681466
1.3832143
1.4454652
1.4642536
1.5154248
1.5263115
1.5241699
10.89964
5.8353164
3.500709
2.7178772
2.1946622
1.8591311
1.6934197
1.8355756
1.9258249
1.9309006
1.999741
1.9013633
1.8319485
1.8819325
1.7849702
1.6776392
1.5665875
1.5332801
1.6043766
1.6288608
1.6218244
1.6273277
1.625946
11.971556
6.7206413
4.2152024
3.390616
2.8202921
2.3473778
2.1665592
2.361242
2.3897419
2.3064074
2.3316109
2.3015972
2.2070734
2.3410859
2.3182348
2.1124796
1.9901478
1.8687269
1.9282624
1.96122
1.8656568
1.7916774
1.717604
13.475051
8.1069564
5.1353445
4.0837269
3.5192729
3.2231547
2.9682557
3.1876466
3.1431595
2.888402
2.7834487
2.7702976
2.6641709
2.7746733
2.7748295
2.5561415
2.395639
2.3083057
2.3757169
2.6257743
2.5157608
2.2424981
1.9830049
14.888149
9.4680698
6.0375467
4.8495918
4.4631615
4.4251703
4.3182437
4.4894339
4.2948429
3.7051051
3.3636491
3.301149
3.1402109
3.2441041
3.4641357
3.310905
2.8651315
2.7171042
2.7014463
2.9635741
3.021318
2.7367
2.5380922
15.838408
10.598291
6.9109125
5.6732129
5.4250266
5.6771951
6.1076267
6.1317229
5.8393323
5.0460562
4.5129884
4.2950322
4.0348251
4.1903793
4.7026803
4.5008799
3.7456241
3.4621097
3.2699193
3.5006486
3.9262168
3.6786098
3.1998153
16.166917
11.71207
7.6856742
6.4424408
6.3067157
6.9493758
7.9040758
7.9695877
7.4945471
6.247809
5.6441724
5.4984743
5.6319844
6.2629833
6.6448069
6.1676487
5.1243222
4.3930663
4.0408843
4.158241
4.5554954
4.4449579
3.8048803
16.218228
12.626708
8.3376342
7.2492222
7.24045
8.3331794
9.4922712
9.5718052
8.9099798
7.2232079
6.5043812
6.6275718
7.5604098
8.9341902
8.7574523
7.4763925
5.8236652
5.3445235
5.286052
5.2241687
5.7345032
5.598934
4.8261201
16.388203
13.3156
8.8273752
7.8677719
8.001605
9.5268087
10.675955
10.788346
9.9443252
7.9813015
7.1811771
7.4462059
9.0087016
10.654389
10.376219
8.5558598
6.6368217
6.2640355
6.748371
7.6748047
8.2021627
7.5346041
5.8071105
16.484333
13.802982
9.269395
8.3454014
8.5462819
10.274285
11.513823
11.669343
10.759053
8.617177
7.7295305
8.0585634
9.9364791
11.678723
11.413829
9.4323954
7.4263313
7.0667744
8.0014115
9.3796906
9.7278686
8.8768861
6.5743059
16.896778
14.513438
9.7987896
8.8048136
8.9667189
10.709786
12.051153
12.238112
11.32963
9.0972299
8.1155914
8.4845594
10.526182
12.289041
12.04707
10.111921
8.0835625
7.7024957
8.8095544
10.261437
10.559791
9.791113
7.4291979
16.950486
14.754462
10.268593
9.2050819
9.2923014
10.903892
12.258703
12.455942
11.524906
9.3282792
8.4117615
8.843243
10.961704
12.649983
12.339293
10.388238
8.5222476
8.204755
9.4677576
10.842985
11.063936
10.336543
8.0416296
16.458576
14.662472
10.488546
9.4982989
9.5669311
11.028492
12.230431
12.426102
11.50093
9.4504279
8.7269039
9.2539613
11.379302
12.772145
12.270974
10.297676
8.9297533
8.8214882
10.119362
11.061998
11.133265
10.432028
8.3934555
15.730812
14.222827
10.545096
9.6737614
9.7745705
11.129863
12.120712
12.208263
11.229532
9.5071781
9.0605772
9.6850219
11.681886
12.67923
11.882522
9.9544454
9.1656902
9.3549434
10.569793
11.166673
11.041694
10.08729
8.6432599
15.21398
13.568188
10.5426
9.8216713
9.9861248
11.194672
12.024015
11.92338
10.867011
9.5813492
9.4288949
10.137255
11.705488
12.202811
11.224644
9.7779951
9.3550942
9.7864249
10.796659
11.157486
10.805886
9.6275004
8.8736209
14.777855
12.757332
10.48876
9.9742642
10.185391
11.21376
11.916745
11.647132
10.505939
9.7511863
9.8265043
10.517345
11.307761
11.346467
10.52147
9.7712274
9.6168144
10.146911
10.78416
10.919325
10.330458
9.437942
9.2977172
14.204038
11.894258
10.253055
10.027298
10.287273
11.130089
11.63965
11.196033
10.189841
9.802202
9.8985021
10.383256
10.674732
10.504355
9.9546092
9.6845576
9.7941857
10.297269
10.652436
10.44952
9.8106297
9.4918082
9.6342003
13.393231
11.136999
9.9482611
9.956857
10.256536
10.891942
11.153449
10.62279
9.8911914
9.6139829
9.6848785
9.9820078
10.06908
9.8406945
9.5925864
9.5970902
9.858992
10.258965
10.356493
9.9635825
9.5589566
9.3794671
9.4478305
12.424099
10.538039
9.6839659
9.7888217
10.026309
10.284149
10.334844
9.9055959
9.4815702
9.3240441
9.4317309
9.6096645
9.6175015
9.4261034
9.3201135
9.4395305
9.7450455
10.007324
9.8308141
9.4282356
9.1573351
9.0494025
9.1318262
11.770157
9.8580516
9.06627
9.1294019
9.2394559
9.2927941
9.2958778
9.1253584
9.0000965
9.0293499
9.2157488
9.3325157
9.2412793
9.0806346
9.0273315
9.0898966
9.2115084
9.2655675
9.1417154
8.9315592
8.821904
8.8304538
8.9117027
11.187656
9.7737648
8.6648088
8.1170674
7.9731661
8.1146231
8.2446455
8.2370236
8.3096087
8.525278
8.8318045
8.9183187
8.7600453
8.5975695
8.5047552
8.445226
8.4273307
8.459086
8.5037731
8.5531889
8.5881855
8.5977859
8.6359558
14.03753
11.843787
10.097249
8.8466599
8.0760169
7.6303116
7.5876214
7.6351783
7.6930912
7.831363
8.0540525
8.161637
8.0570617
7.9220639
7.834816
7.784645
7.7637527
7.8166264
7.9427265
8.0805472
8.141901
8.1296718
8.1695606
20.255092
14.852741
11.508566
9.847612
8.6190647
7.750779
7.3703699
7.2497957
7.164485
7.090037
7.1021945
7.1952718
7.2649952
7.2755455
7.2438518
7.2067938
7.228511
7.3043888
7.3631958
7.3585881
7.3627162
7.4452294
7.5769193
20.688935
11.302442
9.3896574
8.9435325
8.2799127
7.4718223
6.7930727
6.5930901
6.5058387
6.3690069
6.3263771
6.4058018
6.5233904
6.6161366
6.6488406
6.6471044
6.687375
6.7165924
6.6581984
6.5728744
6.5802362
6.7624695
6.9103045
19.357488
8.7372818
7.7756105
7.6621404
7.1779949
6.4160061
5.9771412
5.9423726
5.890863
5.7983365
5.7862832
5.860058
5.9226376
5.9482275
5.9709872
6.0210585
6.0839758
6.0854518
6.0213826
5.9698354
6.019703
6.1787408
6.2812426
17.424456
7.4859466
6.6856795
6.4739212
5.824251
5.4489372
5.3243461
5.323275
5.3060077
5.2976283
5.3265805
5.3626951
5.3631095
5.3430243
5.3555071
5.439202
5.538701
5.5768578
5.5590283
5.5464309
5.6077259
5.7192992
5.7699704
15.410608
6.4904379
5.7112254
5.5190398
5.1109363
4.9086318
4.8359707
4.8051478
4.7895125
4.8083398
4.8669044
4.9073758
4.9087822
4.8978085
4.9175726
4.9859249
5.0561653
5.0940445
5.0982021
5.1078122
5.2175734
5.3511326
5.405731
13.836344
5.8734814
4.9315041
4.7421152
4.5712782
4.478179
4.4211091
4.3738253
4.3561483
4.3876152
4.4567631
4.5133302
4.5410729
4.5566066
4.5902751
4.6337079
4.6553047
4.6630746
4.6938502
4.8042688
4.9727123
5.0684238
5.0793935
12.598268
5.2422229
4.3518939
4.1596267
4.0809222
4.0648504
4.067799
4.0580793
4.0540789
4.082763
4.1311597
4.1713873
4.2023987
4.2397356
4.2894123
4.3341756
4.3632728
4.3936117
4.4474981
4.5190299
4.5617291
4.5450876
4.4610906
11.453378
4.9770437
4.0144036
3.7996174
3.7284945
3.7194165
3.7392013
3.7552216
3.7699469
3.8010416
3.8378112
3.8608369
3.8755342
3.9005324
3.9480329
4.0084835
4.0648335
4.1172324
4.1788631
4.2347592
4.2270081
4.1333549
3.9579471
10.899138
4.7792631
3.7699454
3.5402461
3.4693081
3.4552996
3.4677897
3.4809777
3.4961214
3.5270712
3.5681635
3.6019842
3.6240762
3.6437955
3.6737113
3.7160684
3.7647444
3.8162923
3.872998
3.912871
3.8921517
3.788054
3.6158326
10.50399
4.6093129
3.5640199
3.3107543
3.2375396
3.224058
3.2365524
3.2488022
3.2585282
3.2783707
3.3129345
3.3538973
3.3903103
3.4205622
3.4504686
3.4856691
3.5244371
3.5624094
3.5973486
3.6120054
3.5856736
3.4872389
3.3260994
10.200569
4.48636
3.4085562
3.1190665
3.0267186
3.0055095
3.018292
3.0403388
3.0595463
3.0795582
3.1066119
3.1394191
3.172671
3.2028767
3.2323493
3.2659785
3.3050025
3.3444611
3.372666
3.3721558
3.3386307
3.2455324
3.0991254
9.9502334
4.3962403
3.2921671
2.9737676
2.8606
2.8245654
2.8275726
2.8491574
2.8749966
2.9006219
2.9283033
2.958196
2.9871482
3.0120356
3.0337141
3.058591
3.093825
3.1369284
3.1720956
3.1770349
3.1502977
3.0695815
2.9381942
9.803094
4.3040285
3.1912588
2.8552322
2.7276892
2.6812719
2.6746347
2.6874412
2.7073513
2.728539
2.7524424
2.7801799
2.8103211
2.8388157
2.8633379
2.8870963
2.9176113
2.957405
2.9940696
3.0051063
2.9884409
2.9267353
2.8126598
9.7502005
4.2143047
3.1029688
2.7502226
2.6061496
2.548147
2.5343111
2.5424978
2.5585565
2.5754963
2.5934787
2.6156341
2.6428083
2.6730362
2.7033377
2.7330515
2.7662889
2.8060652
2.8433661
2.8578954
2.8465662
2.801589
2.7073047
9.7135222
4.1167436
3.0213676
2.6603322
2.5006329
2.4281206
2.4038118
2.4061451
2.4201722
2.4377839
2.4559659
2.4758987
2.4989563
2.5250257
2.5533238
2.5839807
2.6201152
2.6637911
2.7062865
2.7288202
2.7227331
2.6884219
2.6099721
9.6857175
4.0055641
2.9393119
2.5807151
2.412618
2.3297118
2.2955305
2.2888624
2.2960075
2.3092076
2.3251905
2.3437779
2.365355
2.3897553
2.4167723
2.4478045
2.4871325
2.5370526
2.5881492
2.6188239
2.614946
2.5804367
2.5027944
9.6717861
3.892709
2.8528635
2.5004922
2.3285498
2.2386113
2.1977604
2.1853199
2.186553
2.193837
2.2044309
2.2185899
2.2376921
2.2618781
2.291445
2.3283463
2.3770748
2.4371971
2.4929305
2.5169736
2.5038347
2.4546701
2.3746885
9.6510631
3.7980606
2.7740247
2.4248884
2.2492614
2.151702
2.1041598
2.0871514
2.0854576
2.0905687
2.0989036
2.1106522
2.1274125
2.1511826
2.1848011
2.2321061
2.293717
2.3575591
2.3984823
2.3986388
2.365925
2.3003321
2.2267221
9.5690767
3.6934409
2.6946457
2.3561799
2.1814988
2.0783491
2.0239622
2.0009711
1.9950124
1.9968877
2.0035359
2.0146321
2.0319581
2.0593071
2.1023332
2.162306
2.2275089
2.2740275
2.2836681
2.259866
2.2039733
2.1354149
2.0752398
9.5245646
3.6080664
2.6226627
2.2895662
2.1157323
2.0097376
1.9511317
1.9239928
1.9141768
1.9128342
1.9178891
1.9300957
1.9527737
1.9914955
2.0484458
2.112669
2.1593699
2.1732001
2.153854
2.1039066
2.0370143
1.9734149
1.9276221
9.389362
3.5164116
2.5549176
2.2283454
2.0544822
1.945554
1.8836874
1.8540148
1.8425187
1.8405025
1.8467977
1.8644947
1.8985355
1.9507782
2.0117391
2.0562843
2.0716304
2.0542182
2.0087709
1.9452223
1.8782566
1.8252562
1.797182
9.319895
3.4528249
2.4961795
2.172577
2.0000565
1.8897802
1.8253625
1.7938028
1.7816945
1.7804721
1.7912965
1.818748
1.8643996
1.9194478
1.9593434
1.9732808
1.9591213
1.919428
1.8621441
1.797907
1.7377301
1.6926848
1.6729127
9.1239277
3.3798765
2.4451663
2.1264966
1.9551236
1.8429115
1.7746445
1.7408847
1.7289968
1.7296612
1.74862
1.7870812
1.8369203
1.8736352
1.8865426
1.8736174
1.8376803
1.7859808
1.7266328
1.6674209
1.6149932
1.5759271
1.5579886
9.0767798
3.3342857
2.3967145
2.0779117
1.9071736
1.7950656
1.7263851
1.6932797
1.6832128
1.6894809
1.7183127
1.7628442
1.800267
1.8142346
1.8038923
1.7702191
1.7213648
1.6650782
1.6078327
1.5547034
1.5092015
1.4752393
1.4573409
8.787427
3.2814912
2.3636192
2.046739
1.8753703
1.759337
1.687434
1.6543166
1.6460451
1.6585565
1.694171
1.7339202
1.7512803
1.7467259
1.7172396
1.6715456
1.6176084
1.5622198
1.509733
1.4629086
1.4229323
1.391682
1.3714567
8.789685
3.2557166
2.3368004
2.0202902
1.848817
1.7309492
1.6552886
1.6216188
1.6151242
1.6328726
1.6698622
1.6945317
1.6983549
1.6769154
1.6361061
1.585246
1.5314153
1.479723
1.432727
1.3910518
1.3543723
1.3234292
1.2992819
8.4421162
3.2019491
2.3093234
1.9937315
1.8217148
1.7037838
1.6275095
1.5930583
1.587605
1.6087719
1.6402343
1.6523691
1.6434333
1.6107464
1.5642106
1.5124205
1.4610747
1.4137944
1.3716918
1.3340025
1.2996031
1.2684611
1.2410721
8.5078708
3.1389622
2.2598889
1.9625599
1.7961652
1.6753166
1.5974242
1.5648338
1.5601596
1.5813164
1.6046054
1.6086441
1.5890732
1.5497725
1.5009993
1.4504267
1.4025474
1.3597402
1.3223183
1.2887801
1.257258
1.2271644
1.1986386
8.0361384
3.0543987
2.2494551
1.9602875
1.7951548
1.6694744
1.5766456
1.5358915
1.531031
1.5490378
1.5644852
1.563409
1.5379987
1.4960034
1.4473444
1.3990742
1.3548024
1.3159309
1.2825179
1.2526773
1.2241448
1.1960898
1.1684782
7.8216203
3.0709563
2.258602
1.9675567
1.8018893
1.6742202
1.5751136
1.5129426
1.498308
1.513568
1.5246975
1.5193082
1.4919063
1.4504494
1.4037758
1.3581706
1.3168268
1.2809305
1.2504787
1.2238431
1.1986348
1.1735409
1.1483877
7.1867185
3.157828
2.2989097
1.9944351
1.8247884
1.6926563
1.5846941
1.510342
1.4699832
1.4731984
1.4864981
1.4816314
1.4538959
1.4131035
1.3683587
1.325359
1.2867943
1.2535243
1.2253888
1.2013782
1.1795549
1.1582694
1.1365488
7.1156841
3.7567928
2.4949648
2.0809428
1.885534
1.7429423
1.6176737
1.5214453
1.4647972
1.4379368
1.4449809
1.4470058
1.4253658
1.3866961
1.3426985
1.300716
1.2638312
1.2326089
1.2065216
1.184551
1.16545
1.1480621
1.1308618
7.1192718
3.9633446
2.7021781
2.2054155
1.9671875
1.8096334
1.6752379
1.5557887
1.4743105
1.428777
1.4083771
1.408638
1.3987022
1.3689027
1.3277306
1.2852738
1.2474071
1.2160954
1.1910904
1.1710747
1.1545094
1.1402795
1.1267805
7.1559218
4.0531427
2.761458
2.2792246
2.0470991
1.8920595
1.7542827
1.6202457
1.5090692
1.4383768
1.3993841
1.3771683
1.3665317
1.3483759
1.3163898
1.2771819
1.2388663
1.205862
1.1793019
1.1590908
1.1440656
1.1326009
1.1221695
6.9307424
3.5866273
2.6796134
2.279076
2.0922944
1.9778362
1.8699702
1.7441596
1.5979148
1.4824124
1.4135859
1.3749925
1.3484137
1.3276038
1.3038929
1.2726979
1.2383426
1.2049393
1.1758867
1.152592
1.1356127
1.124409
1.1158191
6.6851263
2.5622516
2.2884461
2.1797393
2.0775865
2.002777
1.9453076
1.8715035
1.7604818
1.6127962
1.4793697
1.4015031
1.3553247
1.3249625
1.2988029
1.2723395
1.2408439
1.2082386
1.1782571
1.1532098
1.1339203
1.1207687
1.1110929
6.4302182
1.9584348
1.6438114
1.7760452
1.9233602
1.9558468
1.9423487
1.9141911
1.8655418
1.7799134
1.6557288
1.5127461
1.4090365
1.3471147
1.3065671
1.2752188
1.2455469
1.2154908
1.1865178
1.1595168
1.1373292
1.1227473
1.1136206
6.2930387
1.7929691
1.3058093
1.3283551
1.4879448
1.7136359
1.8443704
1.8825158
1.8707329
1.8429195
1.788454
1.7007647
1.5794245
1.4528321
1.3616578
1.3029936
1.2611853
1.226966
1.1964725
1.1692095
1.1467618
1.1315677
1.1230107
6.2812962
1.8531917
1.2272502
1.0830739
1.1231363
1.2491466
1.470447
1.6852538
1.787053
1.8143389
1.799224
1.770759
1.7200618
1.6424191
1.5366093
1.4246982
1.3321671
1.2701145
1.2238929
1.1878904
1.1593857
1.1405108
1.1334318
6.3650088
2.0129823
1.2250499
0.95369416
0.88258461
0.91727263
1.0166081
1.1906704
1.4226998
1.6148731
1.7082761
1.7368522
1.7251748
1.7017919
1.6589924
1.5972792
1.5164253
1.4204388
1.3295701
1.2541594
1.2009637
1.1645538
1.1213525
6.5150723
2.0170888
1.2009449
0.84169351
0.71803494
0.70113353
0.73770518
0.82355524
0.96066576
1.135959
1.3408193
1.5159647
1.6180739
1.655987
1.6521465
1.6345906
1.6021727
1.5580026
1.4988742
1.4269812
1.3452125
1.2637471
1.1936029
6.6265058
1.9638495
1.1061386
0.7454352
0.61057098
0.57071726
0.57917108
0.61887105
0.6920902
0.79523191
0.92780167
1.07863
1.24988
1.4106213
1.5233163
1.5724916
1.5813125
1.5687434
1.5475725
1.5171631
1.4755146
1.4289511
1.3499618
6.7063273
1.8701391
1.021014
0.6862228
0.55345612
0.5046214
0.49665751
0.51318835
0.55056221
0.60754499
0.68509408
0.78319321
0.89771923
1.0248074
1.1635096
1.3076762
1.4235129
1.4861669
1.5099575
1.50715
1.4941471
1.4757699
1.4441922
6.7564532
1.8259204
0.98601938
0.66662693
0.53694607
0.48412773
0.46691577
0.46867702
0.48424958
0.51218436
0.55318403
0.6089322
0.68027593
0.7651641
0.86014412
0.96514126
1.0761463
1.1989344
1.3094157
1.3893862
1.4295968
1.4425114
1.4786322
6.7803715
1.7812619
0.97417538
0.66600899
0.5383725
0.4849957
0.46538548
0.46192917
0.46758993
0.47927493
0.49686656
0.5226125
0.55892447
0.60716841
0.66671982
0.73575562
0.81222913
0.89618962
0.98657709
1.0818408
1.1791506
1.261887
1.3542277
6.7654334
1.7808791
0.98489313
0.68523405
0.56139937
0.50691053
0.48329162
0.47484773
0.47488947
0.48040606
0.48893974
0.4985119
0.5108299
0.53044403
0.55903747
0.59654346
0.64264492
0.6965613
0.7573349
0.82440084
0.89705408
0.97691944
1.0945552
6.8808605
1.8006893
1.0340547
0.75811481
0.64686461
0.59524246
0.565849
0.5440742
0.52685129
0.51403285
0.50667836
0.5046785
0.50632538
0.50837864
0.51523755
0.52857406
0.54907515
0.57666294
0.61126294
0.65279783
0.70107588
0.75825135
0.84031136
6.6804246
2.0701551
1.2080675
0.95683279
0.86450546
0.80997572
0.75735708
0.70362488
0.65332898
0.60886819
0.57135103
0.54232542
0.52174156
0.51006865
0.50415694
0.50315679
0.50606582
0.51272599
0.5241632
0.54110215
0.56490681
0.59498098
0.64457387
6.6633441
2.3104885
1.5104981
1.2659827
1.1610715
1.0719781
0.97110711
0.86682018
0.77071116
0.68964044
0.62568274
0.57712774
0.54102998
0.51561203
0.49974205
0.48930172
0.47927908
0.47183746
0.46805208
0.46964442
0.4751577
0.48599853
0.51031136
6.3863983
3.1537578
1.9854722
1.6416866
1.4876274
1.3392527
1.1696824
0.99909964
0.84848461
0.72977084
0.64323293
0.58267981
0.54029908
0.5103717
0.48622864
0.46271024
0.44500617
0.43250474
0.42458348
0.42114128
0.42162958
0.42401326
0.43430828
6.5169273
3.374716
2.3920061
2.0524771
1.8189764
1.5754218
1.3148895
1.0720328
0.87570276
0.73325998
0.63550911
0.56707834
0.51627284
0.47733316
0.44537584
0.42131752
0.40640384
0.39696096
0.39231115
0.39060819
0.39069718
0.39184258
0.39809591
6.7008959
3.3803656
2.6641102
2.3460345
2.0061165
1.6556818
1.3305008
1.0549716
0.84231204
0.69112349
0.5868523
0.51490909
0.46361316
0.42700022
0.4029508
0.38751521
0.37917226
0.37527051
0.3740686
0.37411237
0.37542476
0.37726352
0.38324954
6.9663502
3.4769591
2.9060447
2.4710072
2.0172063
1.5929014
1.2149729
0.9238914
0.72835488
0.60172681
0.51659409
0.45701041
0.41620082
0.39006827
0.37560838
0.36802784
0.36538449
0.36486533
0.3654371
0.36662687
0.36950102
0.37132786
0.37715459
7.2652185
4.1953009
3.1755421
2.488257
1.8991995
1.3785919
1.0066102
0.76695846
0.61558643
0.51619048
0.44999245
0.40661991
0.38101509
0.36725941
0.36088624
0.35880162
0.35850893
0.35925681
0.36121342
0.36319982
0.36677907
0.36858477
0.3736409
7.7408641
4.7126048
3.2998878
2.4090344
1.6718125
1.1519544
0.8283827
0.63475621
0.51539244
0.44110849
0.39718218
0.37236501
0.3606171
0.35532428
0.35330429
0.35340977
0.35368281
0.35525221
0.35739348
0.36007949
0.36313859
0.36454921
0.36910268
8.3150684
4.9232932
3.2655282
2.1700627
1.3967063
0.93036019
0.66933669
0.52154216
0.43588626
0.38962404
0.36660082
0.35483045
0.35059317
0.34829834
0.34807797
0.34854865
0.34914904
0.35085178
0.35326986
0.35632506
0.35828095
0.36010138
0.36595464
9.3074734
4.8932267
3.0276897
1.8182203
1.1068656
0.73651306
0.54464866
0.44240803
0.39007063
0.36533507
0.35386731
0.34763849
0.34548287
0.34376418
0.34270213
0.34301887
0.34356128
0.34469522
0.34741294
0.34931573
0.35169748
0.35485563
0.35870044
9.9518847
4.8067163
2.6982623
1.4863104
0.88353992
0.60457813
0.46845351
0.40174569
0.37136705
0.35758486
0.35009104
0.34499112
0.34207507
0.33956652
0.33762586
0.33707266
0.33712553
0.33778842
0.3396134
0.34100067
0.34436767
0.34718608
0.34960591
10.480617
4.7964128
2.4351011
1.2470385
0.74248173
0.52935469
0.43104134
0.38593346
0.36569095
0.35577809
0.34921644
0.34394466
0.33974773
0.33576889
0.33345943
0.33216764
0.33154287
0.33168382
0.33231874
0.33321372
0.33612781
0.33772808
0.340802
10.926184
4.7781899
2.1941274
1.0698199
0.6478096
0.48303412
0.41253563
0.38076718
0.36499725
0.3560691
0.34952204
0.34384346
0.33870133
0.33363139
0.33081864
0.32906463
0.32797853
0.32799854
0.32850258
0.32942509
0.33220841
0.33298286
0.33667366
11.281409
4.7113462
1.9727871
0.93296737
0.57827764
0.4517965
0.40412121
0.38060378
0.36646688
0.35836437
0.35214089
0.34600272
0.34017795
0.33436542
0.33088031
0.32879824
0.32788125
0.32802351
0.32882753
0.32998069
0.33240859
0.33284251
0.34262938
11.572369
4.6292358
1.7929502
0.83708292
0.53577345
0.4373666
0.40254818
0.38221866
0.36949502
0.3628208
0.35720601
0.35149722
0.34604352
0.34039419
0.33645426
0.33417256
0.33343811
0.33356577
0.33402463
0.33514207
0.33724132
0.33804048
0.35491712
11.798235
4.5372554
1.6374693
0.76902615
0.51260747
0.43301844
0.40274662
0.38419477
0.37444216
0.36993024
0.36595013
0.36177891
0.35740227
0.35277673
0.34936234
0.34696541
0.34579573
0.34469665
0.34465973
0.34528431
0.34712982
0.34799213
0.36823304
11.96814
4.4428851
1.521913
0.72691769
0.50121372
0.43236917
0.40516185
0.39229045
0.38839688
0.38811713
0.38837092
0.38735225
0.38365161
0.37734598
0.37028073
0.36440021
0.36028639
0.35765646
0.35695768
0.35710394
0.35851995
0.35918761
0.37301437
12.073026
4.3406553
1.4273304
0.69441438
0.49357768
0.43735194
0.41989841
0.41777438
0.42389709
0.4269402
0.42658023
0.42220792
0.41481198
0.40563459
0.3961722
0.38746736
0.38002456
0.37395318
0.36970022
0.36819027
0.36861915