/*--------------------------------*- C++ -*----------------------------------*\
| =========                 |                                                 |
| \\      /  F ield         | OpenFOAM: The Open Source CFD Toolbox           |
|  \\    /   O peration     | Version:  2406                                  |
|   \\  /    A nd           | Website:  www.openfoam.com                      |
|    \\/     M anipulation  |                                                 |
\*---------------------------------------------------------------------------*/
FoamFile
{
    version     2.0;
    format      ascii;
    arch        "LSB;label=32;scalar=64";
    class       surfaceScalarField;
    location    "125";
    object      phi;
}
// * * * * * * * * * * * * * * * * * * * * * * * * * * * * * * * * * * * * * //

dimensions      [1 0 -1 0 0 0 0];

oriented        oriented;

internalField   nonuniform List<scalar> 
40800
(
0.00072539229
0.00088003201
-0.0011193363
0.00081564101
0.00090717086
-0.0010281587
0.00088898625
0.00093098495
-0.00079346063
0.00094161254
0.00085832088
-0.00094749467
0.00098653681
0.0007466384
-0.00085715147
0.0010358269
0.00071544349
-0.00069577152
0.0010753412
0.00064114466
-0.00066841844
0.0011118746
0.00058421821
-0.00059836903
0.0011497229
0.0005515234
-0.00056181983
0.0011853658
0.00057870028
-0.00060655897
0.0012057826
0.00056279903
-0.00061171193
0.0012210364
0.00042108853
-0.00044402636
0.0012588541
0.00041514407
-0.00040093881
0.0012821138
0.00048806849
-0.0004958743
0.0012831122
0.00042135265
-0.00044086657
0.0013031206
0.00029509134
-0.00028495108
0.0014000665
0.00053783086
-0.00051255929
0.001349627
0.00059340491
-0.00067269786
0.0013307142
0.00026770843
-0.00029948496
0.0014804566
0.00053744155
-0.00048317537
0.0014613208
0.00077969247
-0.00081977926
0.0013906473
0.0005181235
-0.00056592371
0.0014528365
0.00050430271
-0.00048775934
0.0016847005
0.00086919442
-0.00091390338
0.0017364535
0.0010892938
-0.0013033503
0.0015357153
0.00099489271
-0.0011858112
0.0015692203
0.00069331835
-0.00077290441
0.0017482561
0.00055205587
-0.00058685207
0.0016506918
0.00087829429
-0.00087613203
0.001656827
0.0014177944
-0.0012789385
0.0014647927
0.0024208271
-0.0014090636
0.00071418714
0.00063024814
0.00080186701
0.00077524653
0.00087731444
0.0010676578
0.00092868149
0.00076838296
0.00097605563
0.00065566381
0.0010259906
0.00072887031
0.0010659327
0.0006365598
0.0011033945
0.0005720479
0.001142861
0.00055338364
0.0011770405
0.000543517
0.0011939824
0.00049682409
0.0012167639
0.00041401943
0.0012592837
0.00043228189
0.0012756451
0.00045382876
0.0012728796
0.00040000309
0.0013209424
0.00034729544
0.0013988382
0.0005347693
0.0013138115
0.00047076017
0.00136651
0.00028733918
0.0015140496
0.00056789458
0.0014303233
0.00069320466
0.0014006467
0.00046896564
0.0015136997
0.00053018504
0.0016876867
0.00080824892
0.001674941
0.00078756688
0.0014341927
0.00067598701
0.0015039759
0.00067386888
0.0018973024
0.00070661823
0.0019622711
0.00091015802
0.0017067104
0.0014149526
0.0016003614
0.0018851335
0.00070630149
0.00043275254
0.00079224092
0.0006428639
0.00086106815
0.0011045933
0.00091205246
0.0007077108
0.00096324898
0.00060003099
0.0010127453
0.00070915683
0.0010534416
0.00061912211
0.0010927762
0.0005686148
0.0011327398
0.00054889126
0.0011651639
0.00050141986
0.0011827195
0.00042301109
0.0012127604
0.00041093896
0.0012546394
0.00045238261
0.0012672411
0.00040311244
0.0012676419
0.00036777656
0.0013319296
0.00041228251
0.0013827417
0.00050342431
0.0012904843
0.00033429637
0.0013954109
0.00032866046
0.0015239273
0.00059766827
0.0013998657
0.00056346948
0.0014193553
0.00040256402
0.0015628141
0.00060005475
0.0016452874
0.00075629475
0.0016184193
0.00053598311
0.0014264307
0.00040006298
0.0014817075
0.00066723999
0.0019463193
0.00093233778
0.0022069231
0.00096538783
0.0019585414
0.0011919276
0.0014630665
0.0016104586
0.00070129907
0.00034300521
0.00078523393
0.0005255901
0.00084374709
0.00098525972
0.00089432068
0.00068562212
0.00094836992
0.00058136999
0.00099555891
0.00064463187
0.0010381886
0.00058660532
0.0010801065
0.0005634581
0.001119595
0.0005407777
0.0011496192
0.0004544115
0.0011713383
0.00034920106
0.0012073958
0.00040189213
0.0012439293
0.00046403616
0.00125612
0.00035376006
0.0012659402
0.0003254851
0.0013330953
0.00044856161
0.0013569314
0.00045998534
0.0012824649
0.00021838286
0.0014152242
0.00036530527
0.001508542
0.00062139683
0.0013669342
0.00041937148
0.0014448803
0.00033342152
0.0015906668
0.00065641624
0.0015808257
0.00076930604
0.0015638707
0.00041093913
0.0015015102
0.00025707592
0.0015109188
0.00067448232
0.0018723755
0.0011298858
0.0022435361
0.0010497833
0.0021286301
0.00086345682
0.0010145547
0.0016333043
0.00070021516
0.0003715331
0.00078067965
0.00045174791
0.00082981779
0.00073810644
0.00087954847
0.00067015139
0.00093168469
0.00059173683
0.00097583305
0.00054752118
0.0010206472
0.00053817336
0.001065062
0.00053765821
0.0011030029
0.00052024244
0.001130965
0.00041213128
0.0011592757
0.00030331634
0.0011991433
0.0003805398
0.0012270821
0.00044408713
0.0012420627
0.00030476303
0.0012638567
0.00028141728
0.0013229758
0.00043561614
0.0013245423
0.00040712996
0.0012872913
0.0001375767
0.0014292399
0.00040377147
0.0014724388
0.00060912442
0.0013416996
0.00029850658
0.0014810711
0.00030255081
0.0016130712
0.00063685868
0.0015130082
0.00077724432
0.0015160148
0.00046847848
0.0016273871
0.00026978221
0.001657134
0.00067089092
0.0017884131
0.0012348174
0.0020777088
0.0011522746
0.0021449438
0.00060369459
0.00044523364
0.0017992707
0.00070346791
0.0004697942
0.00077904912
0.00043537041
0.00082268895
0.0004714761
0.00087101118
0.00062466245
0.00091821913
0.00059563002
0.00095942753
0.00045992971
0.0010040631
0.00046817892
0.0010481393
0.00049478846
0.001083217
0.00046787437
0.0011105679
0.00036664073
0.0011457218
0.00029612168
0.0011860373
0.00035310666
0.0012038215
0.00038725339
0.0012242707
0.00026187338
0.0012571129
0.00024272665
0.0013043185
0.00038406155
0.0012868495
0.00033507319
0.001299601
0.00010992416
0.0014334606
0.0004412679
0.0014221087
0.0005434049
0.0013281363
0.00021834991
0.0015075114
0.00031333913
0.0016272832
0.00059354933
0.0014650942
0.00067876908
0.0014873855
0.00056209806
0.0017446084
0.00043017643
0.001857408
0.00067000792
0.0017739784
0.0011343559
0.0018166026
0.0011898899
0.0019524832
0.00056755309
0.00017050577
0.0019625684
0.00071090585
0.00056283477
0.00077987912
0.00044959979
0.00082054844
0.00031174668
0.00086526968
0.000548708
0.00090679727
0.00055913413
0.00094582804
0.0004090098
0.00098892374
0.00040469494
0.0010300345
0.00043900568
0.0010618005
0.00039544206
0.001090581
0.00031572703
0.0011296098
0.0003136864
0.0011669644
0.00032797565
0.0011768251
0.00030775034
0.0012028696
0.00024079857
0.0012445524
0.00022380252
0.001278548
0.000313615
0.0012471726
0.00025216959
0.0013140877
0.0001445413
0.0014220041
0.00044950116
0.0013661507
0.00043781943
0.0013227873
0.00018245842
0.0015142565
0.00035861322
0.0016193905
0.0005474229
0.0014413071
0.00049016106
0.0014474429
0.00055991659
0.0017843411
0.00064597747
0.0019764494
0.00068358807
0.0018278912
0.00082325253
0.0016414451
0.00098819053
0.0017271652
0.00073025504
0.00024615805
0.002002276
0.00073098868
0.00059131693
0.00078852939
0.00045389042
0.00082581523
0.00031760298
0.00086404059
0.00046104754
0.00090006891
0.00048605769
0.0009365875
0.00038589568
0.00097681797
0.00036722862
0.0010127142
0.00036833888
0.0010408953
0.0003204309
0.0010722154
0.00028399698
0.0011106341
0.00032996437
0.0011424574
0.00030962054
0.0011493624
0.00022949998
0.0011786833
0.00023752712
0.0012232913
0.0002339958
0.0012449265
0.00023881223
0.0012131562
0.00017584066
0.0013209195
0.00021672283
0.0013898765
0.00042700451
0.0013106046
0.00031154696
0.0013246229
0.00016010283
0.0015000042
0.00044887474
0.0015718529
0.00049962805
0.0014403531
0.00027321364
0.0014310955
0.00043934277
0.0017373725
0.0007861194
0.0019551473
0.00071145985
0.0018215641
0.00050287524
0.0015341806
0.0005597299
0.0015511884
0.00075851917
0.00061733078
0.0019047556
0.00079694862
0.00054692077
0.00080553582
0.00045675942
0.00083883456
0.00046174786
0.00087010887
0.00039092396
0.00090180786
0.0003953055
0.00093743214
0.00037894621
0.00097403975
0.00035571014
0.0010034828
0.00029801196
0.0010287904
0.00024860438
0.0010613417
0.00027800311
0.0010941226
0.00032975404
0.0011175884
0.00029254901
0.0011261471
0.00016715403
0.0011548047
0.0002327468
0.0011947554
0.00025992074
0.0012072868
0.00018163742
0.0011860598
0.00012407589
0.0013084605
0.00028177431
0.0013380474
0.00039557497
0.00125639
0.00018429079
0.0013334757
0.00013178307
0.001468301
0.00052659768
0.0014877561
0.00047991686
0.001436569
0.00010056319
0.0014586732
0.00026024579
0.0016456943
0.00077682523
0.0018278948
0.00073725971
0.0017777651
0.00028396354
0.0015656387
0.00013141441
0.001482263
0.00053670135
0.0009243927
0.0017810238
0.00092030286
0.00043594877
0.00086311857
0.00045644823
0.00087889471
0.00064119654
0.00089735325
0.00037774768
0.00091872526
0.00031944638
0.00095042225
0.00038063403
0.00098095566
0.00035509711
0.0010050267
0.00025186252
0.0010301622
0.00019132077
0.0010627454
0.00027167834
0.001089923
0.00031188322
0.001105127
0.00026911554
0.0011198315
0.00013314691
0.00114573
0.00022176634
0.0011734099
0.00027692192
0.0011817018
0.00016197496
0.0011751561
0.00010005038
0.0012888671
0.00032286043
0.0012802906
0.00035631322
0.0012088167
8.2648315e-05
0.001351287
0.00012379745
0.0014284435
0.00051484067
0.0013719296
0.00048464186
0.0013985376
4.0931446e-05
0.0015116624
0.00011471022
0.0015724622
0.0006149774
0.0016252244
0.00074089774
0.0016377205
0.00021172626
0.001642189
-6.161185e-05
0.0015956068
0.00021020728
0.00092978402
0.0017346268
0.00097280853
0.0002528372
0.00093424681
0.00038537913
0.00094260781
0.00071941072
0.0009576297
0.00041491981
0.00096997663
0.00030223881
0.00098919106
0.00037351276
0.0010080337
0.00033577078
0.0010251152
0.00022864827
0.0010487935
0.00017291283
0.0010761832
0.00025629886
0.0010970717
0.00028464462
0.0011045763
0.00023754613
0.0011275437
0.00013349306
0.0011511626
0.00021299505
0.0011663259
0.0002682968
0.0011749011
0.0001716869
0.0011870038
9.9801274e-05
0.0012774268
0.00034403059
0.001233375
0.00028900415
0.0011861272
2.7117122e-05
0.0013726142
0.00014861919
0.0013953778
0.00043516768
0.001267096
0.0004188026
0.0013671751
0.00010847068
0.0015658665
0.00010466331
0.0015566168
0.00041297755
0.0014491723
0.00063457188
0.0014737424
0.00031921902
0.0016550877
2.0750743e-05
0.0018174566
9.3745657e-05
0.00065441975
0.0018022401
0.00096266104
7.1605766e-05
0.00097702031
0.0002475894
0.00099930456
0.00063033073
0.0010267154
0.00045547672
0.0010472945
0.00032825708
0.0010636642
0.00034051553
0.0010736518
0.00029465205
0.0010821595
0.00021924379
0.0010997566
0.00020230919
0.0011172523
0.00023374912
0.001129738
0.00024925626
0.0011303755
0.00019839045
0.0011583757
0.00016240493
0.0011763021
0.00020429001
0.0011786306
0.00023451569
0.0011839896
0.00018443722
0.0012160657
0.00012230738
0.0012736663
0.00033081663
0.0012084914
0.00019568725
0.0011942702
3.4381962e-05
0.001391782
0.00020084215
0.0013725678
0.00033504922
0.0012016035
0.00027531548
0.001338169
0.00020508417
0.0015920363
0.00021884923
0.001566138
0.00030818872
0.001342846
0.00039482669
0.0013558503
0.00041921626
0.0016077856
0.00024638156
0.001944902
0.00023395014
0.00037298359
0.0019480141
0.00089470417
-2.8098594e-05
0.00096593286
0.00012474327
0.0010000583
0.00043834231
0.0010388479
0.00045682434
0.0010752274
0.00035038561
0.001104513
0.00029241108
0.00112757
0.00023977366
0.0011486743
0.00021731258
0.0011721306
0.00025517206
0.0011877987
0.00021032091
0.0011961766
0.00020303067
0.0011958884
0.00015669467
0.001222971
0.0002020242
0.0012336787
0.00018739927
0.0012278583
0.00018053503
0.0012276367
0.00018535924
0.0012746787
0.000165153
0.001292465
0.00028146295
0.001226628
9.9410891e-05
0.0012388165
7.8302588e-05
0.001415582
0.00028817676
0.0013736451
0.0002403005
0.0012001091
7.987615e-05
0.0013311764
0.0002619487
0.0015907535
0.0004293933
0.0015707895
0.00029075885
0.0013576394
0.00013859245
0.0013038931
0.00035982884
0.0015691204
0.00054639111
0.0019004091
0.00049969647
0.00033184373
0.0019920719
0.00083117162
-2.4729547e-05
0.00091614645
9.5656759e-05
0.00096919504
0.00024318686
0.0010174583
0.00039184343
0.0010604616
0.0003468384
0.0010943046
0.00025116005
0.001123682
0.00019648587
0.0011553924
0.00023631169
0.0011852812
0.00029325514
0.0012095034
0.00019548791
0.0012240405
0.00014870984
0.0012376625
0.00011716146
0.0012682201
0.00022215475
0.0012817116
0.00016128797
0.0012841818
0.00011147071
0.0012886069
0.00016740937
0.0013457423
0.00020064339
0.0013322777
0.00021231488
0.0012904995
2.1946726e-05
0.0013248743
0.00011189558
0.0014537287
0.00039102974
0.0013981271
0.00017973236
0.001282154
-8.0825446e-05
0.001387424
0.00023867787
0.0015834377
0.00061147785
0.0015555281
0.0003249912
0.0014459546
1.9132346e-06
0.0013739903
0.00013125052
0.0015580655
0.00065833764
0.0017974325
0.00075709309
0.00040906167
0.0019397962
0.00083981661
6.9999947e-05
0.00090217934
0.00015536971
0.00093718598
0.00017689421
0.0009766509
0.00028982393
0.0010181415
0.00030957829
0.0010556119
0.00021017089
0.0010944521
0.00017122805
0.0011338716
0.00024808689
0.0011635314
0.00027832902
0.0011911281
0.00019037076
0.0012081011
0.0001026498
0.0012325031
9.2433445e-05
0.0012595254
0.00021246218
0.001273733
0.00014289139
0.0012875889
5.5060868e-05
0.0012985909
0.00013137191
0.0013613015
0.00020104925
0.0013326716
0.00014581751
0.0013281488
-2.3228861e-05
0.0013976467
0.00011670293
0.001464833
0.0004407169
0.0014017593
0.0001466864
0.0013842338
-0.00014847312
0.0015011079
0.0001624417
0.0015743647
0.0006335653
0.001524975
0.00039229692
0.0015010683
-2.1390334e-05
0.0015685669
-6.8567372e-05
0.0016221968
0.00046071645
0.0016967378
0.00081110081
0.00055118889
0.0017654789
0.00097228863
0.00023978177
0.00094590526
0.00031529266
0.0009590477
0.00025383992
0.0009823334
0.0001832837
0.0010075551
0.0002311639
0.0010345026
0.00018512741
0.0010681692
0.00018115627
0.001101138
0.00023307557
0.0011247183
0.0002146825
0.0011509676
0.00018054789
0.00116994
6.5176091e-05
0.0012023455
7.6447229e-05
0.0012240174
0.00017477564
0.0012381778
0.00012472608
0.0012634556
2.9252106e-05
0.0012763551
8.6081677e-05
0.0013322064
0.00017569465
0.0012930564
9.1690332e-05
0.0013230675
-3.5546215e-05
0.0014245759
0.00012354244
0.0014243844
0.00037979858
0.0013511925
0.00016061446
0.0014272381
-0.00011261991
0.0015908859
9.871555e-05
0.0015530065
0.00047809649
0.0014563756
0.00041386407
0.0014947171
-5.749785e-06
0.0017009579
-9.9705418e-05
0.0017445166
0.00018478049
0.001654597
0.00056416968
0.00055252479
0.0015988147
0.0009596679
0.00028307835
0.00095594924
0.00038965696
0.00097034391
0.00034709042
0.00099270187
9.2119307e-05
0.0010141705
0.00014186679
0.0010387523
0.00016745491
0.0010680629
0.00020163596
0.0010908465
0.00019222633
0.0011081889
0.00013700829
0.0011262857
0.00015843617
0.0011435561
5.3193339e-05
0.0011751398
7.1820658e-05
0.0011870974
0.00012403789
0.001196967
9.9023179e-05
0.00122824
3.6824667e-05
0.0012422443
5.0546333e-05
0.0012857633
0.00014137567
0.00124335
4.4038073e-05
0.001300768
-3.1919001e-06
0.0014149991
0.00013016083
0.0013644583
0.00023623147
0.0012864794
0.00014431563
0.0014318172
-2.9051372e-06
0.0016159142
0.00010745401
0.0015190597
0.00025676302
0.0013605244
0.00027548219
0.0014516312
7.8129958e-05
0.0017261071
3.3870431e-05
0.0018178343
7.0261076e-05
0.0016541539
0.00019872187
0.00032623174
0.0015053654
0.00088896383
0.00015566239
0.00094073293
0.00029782286
0.00096263216
0.00037881089
0.00099035531
7.6957313e-05
0.0010121201
0.00010278868
0.0010380186
0.00014431575
0.0010634947
0.00018571793
0.0010820351
0.00013014004
0.0011006604
7.1969994e-05
0.0011144029
0.00011735661
0.0011342693
7.2137977e-05
0.0011627425
8.3615566e-05
0.0011673957
6.8420706e-05
0.0011736508
6.7591547e-05
0.0012052009
6.965512e-05
0.0012196724
4.2259841e-05
0.0012449908
0.00010409779
0.0012067012
5.863515e-06
0.0012742973
6.2894578e-05
0.0013763759
0.00014921973
0.0013080068
6.9747426e-05
0.0012248404
4.7671652e-05
0.0013987253
0.00012794924
0.0015812874
0.00019824215
0.0014689849
7.715961e-05
0.0012779437
2.1729612e-05
0.001390109
0.00013581349
0.0016738725
0.00020558596
0.0018072826
0.00014636255
0.0016566998
3.0174284e-06
9.4888683e-06
0.00144074
0.00090991196
-5.9717403e-05
0.00095179036
0.00010214613
0.0009664816
0.00032872773
0.00099662565
0.00013696816
0.0010180403
0.00010583071
0.0010435311
0.00012194279
0.0010650944
0.00013643488
0.0010827609
7.0233694e-05
0.0011031422
3.5729399e-05
0.0011147053
5.9822356e-05
0.0011370781
0.0001008736
0.0011611957
0.00010300308
0.0011635182
1.7380719e-05
0.0011713349
3.5463211e-05
0.0012003559
0.00010740442
0.0012177079
5.297491e-05
0.0012275681
6.3623594e-05
0.0012076926
-2.4549535e-05
0.0012712907
0.00013371067
0.0013431541
0.00016854916
0.0012853658
-4.6327849e-05
0.0012199082
-8.4838163e-05
0.0013829137
0.00022763394
0.0015242056
0.00030101511
0.0014294575
2.6071353e-06
0.0012822062
-0.00021560865
0.0013603343
6.1030019e-05
0.0016077738
0.00041297587
0.0017144113
0.00028046349
0.0016370682
-2.0409784e-05
-0.00019117785
0.0014645881
0.00093134714
-0.00028649938
0.00097454586
-8.8689285e-05
0.00098746993
0.0002205059
0.0010189893
0.00018301259
0.0010359208
0.00013544336
0.0010600361
0.00010743855
0.0010769781
7.1674474e-05
0.0010939955
1.2712767e-05
0.0011140667
2.2551005e-05
0.0011266323
9.6548843e-07
0.0011496765
0.00010905667
0.0011675616
0.00011890556
0.0011723952
-8.2267206e-06
0.0011847304
8.6911028e-06
0.0012063835
0.00012803436
0.0012247257
6.7058051e-05
0.0012224916
3.264753e-05
0.0012296205
-4.2649837e-05
0.001277301
0.00016065187
0.001309096
0.00019294088
0.0012731744
-0.00010947353
0.0012607256
-0.00019071556
0.001376161
0.00021886787
0.0014556736
0.00039229381
0.0013717548
-1.3380129e-05
0.0013298664
-0.00032069874
0.0014201008
-4.2250768e-05
0.0015494371
0.0004587211
0.0016025802
0.00045625329
0.0015602527
3.5515325e-05
-0.00023182168
0.0015247985
0.0010283667
-0.00038859129
0.0010243426
-0.00015524737
0.001029389
0.00014133145
0.0010604807
0.00019685795
0.0010784081
0.00017044216
0.0010992194
0.00010090832
0.0011144297
1.1909052e-05
0.0011330276
-1.7052598e-05
0.001150721
6.6595534e-06
0.0011672446
-3.0539124e-05
0.0011878642
8.3374807e-05
0.0011985039
0.00011428562
0.001207967
-1.1499217e-05
0.0012265413
-8.4733118e-06
0.001237662
0.00011447229
0.0012565001
6.3676856e-05
0.0012463198
2.0569588e-05
0.0012795253
-4.8134773e-05
0.0013132869
0.000128294
0.0012983354
0.00019565229
0.0012849832
-0.00011063291
0.0013391235
-0.0002068684
0.0014250462
0.00013427687
0.0014119705
0.00036207678
0.0013295494
3.6388352e-05
0.0013879946
-0.00027453436
0.0015435661
-0.00013237646
0.0015670943
0.0003112348
0.0015070836
0.000480031
0.0014768995
0.00016014816
-0.00014435901
0.0015700006
0.0010518271
-0.00030999715
0.0010170363
-5.6517366e-05
0.0010314592
0.00013707695
0.0010670969
0.0001427855
0.0010889753
0.00014601664
0.0011196232
6.7451383e-05
0.0011445193
-1.282961e-05
0.0011726344
-1.7508822e-05
0.0011941064
2.0232426e-06
0.0012205049
-2.9579729e-05
0.0012430263
4.1368841e-05
0.0012515071
7.3475345e-05
0.0012683902
-4.3839521e-06
0.0012962843
-1.3482791e-05
0.00129969
6.5227134e-05
0.0013226549
4.0617905e-05
0.0013094038
1.4857621e-05
0.0013638752
-3.3825371e-05
0.0013902725
6.4436409e-05
0.001335935
0.0001256101
0.0013437267
-5.5106015e-05
0.0014443422
-0.00013345701
0.0015141641
4.3418752e-05
0.0014248098
0.00020650859
0.001341277
7.0436185e-05
0.0014651945
-0.00015480347
0.0016801971
-0.00011226084
0.0016609081
0.0001230584
0.0014906349
0.00028041058
0.0014524199
0.00016611796
-3.4038174e-05
0.001608051
0.0008218577
0.00090272692
0.0011213668
0.0011642541
0.0012470889
0.0012912098
0.0013359954
0.0013663543
0.0013886021
0.0014189945
0.0014380958
0.0014440702
0.0014674316
0.0015026381
0.0015034787
0.0015266184
0.0015112403
0.001574659
0.001596315
0.0015227095
0.0015376902
0.0016636329
0.0017339561
0.0016129702
0.0015030163
0.0016617032
0.0019159253
0.0019031621
0.0016811688
0.0015930912
0.0017684047
0.00030145721
0.0020282018
0.00047502364
0.0017814791
0.00044656066
0.0016213979
0.00031493312
0.001474166
0.00022711806
0.0014111986
0.00022607519
0.0013906873
0.00045042104
0.0014630379
0.00084464206
0.0015427935
0.0010299639
0.0016024675
0.00080932351
0.0015762197
0.00034613043
0.0015307218
-5.4783847e-06
0.0015912513
-7.5338694e-05
0.0016966872
0.00037071272
0.0019826792
0.0011573729
0.0022582036
0.001668686
0.0023248393
0.0015817576
0.002122018
0.00099932502
0.0017621929
0.00049225415
0.0014859267
0.00043526996
0.0013856306
0.00096677839
0.0015741919
0.0016059084
0.0019958007
0.0022890315
0.0018232599
-0.00012346194
0.0017466562
-0.00033373956
0.0015794073
-0.00045301364
0.0015423921
-0.00040512919
0.0015751703
-8.3641787e-05
0.0017079015
0.00044955213
0.0018083266
0.00095182918
0.0018270504
0.0011858427
0.0017297425
0.0010859655
0.0015302548
0.00068766226
0.0013135707
0.00024640433
0.0011637453
0.00012935033
0.001210779
0.00044376784
0.0014492138
0.00093848521
0.0018485801
0.0012106477
0.0021086131
0.0010652402
0.0021237196
0.00054111422
0.0019844186
0.00014011581
0.0018096949
0.00026528613
0.0018016958
0.00096822273
0.0019215652
0.0018862727
0.0020513116
0.0022920381
0.0020593243
0.0019840345
0.0019053482
-0.00032687323
0.0012923027
-0.0004581419
0.0012431186
-0.00034996083
0.0013220522
-0.0001069549
0.0015190386
0.00011611175
0.0017089515
0.0003363057
0.0017846269
0.00035315059
0.0018094578
0.00013305499
0.0017529311
-4.0070103e-06
0.0016199726
8.1236065e-05
0.0015218797
0.00045246122
0.0014660466
0.0010960335
0.0014845928
0.001610992
0.0015095305
0.0016651933
0.0015845368
0.001169056
0.0016058933
0.00038651714
0.0015047129
-0.00012352299
0.0014453198
-0.00017088071
0.0015689623
0.00050814372
0.0019982646
0.0014499194
0.002422646
0.0019843681
0.002504124
0.0019565145
0.0022932117
0.0019232025
0.0014992326
0.0003381542
0.0014565206
0.00074379576
0.0013003976
0.0010107629
0.0012424965
0.0010209808
0.001294961
0.00071455749
0.0013287876
9.8512153e-05
0.0012931399
-0.00055021443
0.0013011242
-0.00089738818
0.0013897403
-0.00080985926
0.001541457
-0.00020092559
0.0017793423
0.00068402747
0.0019237506
0.0013853897
0.0019261772
0.001605713
0.0018278626
0.0013366749
0.0016362793
0.00077557311
0.0014725802
0.00025859022
0.0012809558
0.00023618749
0.00113439
0.00080249573
0.0012806711
0.0015203153
0.0017341057
0.0017058157
0.0021613265
0.0013855611
0.0022638352
0.00077564198
0.0021167652
0.0018597305
0.00015355752
0.00069707041
0.0018857962
0.0012390144
0.0016472848
0.0014504172
0.0014623096
0.0012134528
0.0012797745
0.00058761122
0.0011205055
-1.0630942e-05
0.00098642124
-0.00034500945
0.00096552209
-0.00017104913
0.001076772
0.00024830855
0.0012945587
0.0006472325
0.0015927766
0.00085797727
0.0017466139
0.00068428006
0.0017503401
0.00016386481
0.0017172503
-0.00024942418
0.0016809875
-0.00030927216
0.0016969222
0.00015040873
0.0017275831
0.0012305648
0.0016375007
0.0023019006
0.0015510195
0.0027393416
0.0015394672
0.0022514587
0.0016808392
0.0011135284
0.0017067957
-0.0001218884
0.0015237453
0.0013917074
-0.00079959094
7.1215071e-05
0.0018603582
-0.00014476803
0.0016403012
-0.00053369255
0.0015156763
-0.00074884975
0.0014268752
-0.00055756352
0.0014040337
-1.3666111e-05
0.0013466283
0.00090852721
0.001273482
0.0016634005
0.001212767
0.0021008691
0.0011978137
0.002025918
0.0012714946
0.0012859996
0.0013011624
0.00014936779
0.001206267
-0.0009363815
0.0011619606
-0.0013819654
0.0013064229
-0.001006921
0.0016451696
9.5586439e-05
0.0020386668
0.0013881207
0.002172401
0.0022844762
0.002055172
0.0025539028
0.0018213019
0.0021909142
0.0016579987
0.0011610585
0.0015181494
4.4702608e-05
0.0011873418
0.00096898635
-0.0002705121
-0.00098147961
0.0014316162
-0.0018089705
0.0012856037
-0.0020699373
0.0013047016
-0.0018245511
0.0014276762
-0.0011048127
0.0016165314
-7.0635104e-05
0.0016551703
0.0010000248
0.0016095738
0.0018373232
0.0015770958
0.0022037856
0.0014636801
0.0019447862
0.0012952943
0.0011018598
0.0011439026
0.00014833589
0.00092300814
-0.00037566416
0.00077477478
-0.00021020396
0.00088657416
0.00036531212
0.0012673
0.00088511676
0.0017495783
0.0011829678
0.0020334896
0.0011333819
0.0020229102
0.00075114286
0.0019094006
0.00032966152
0.0017985597
8.6868424e-05
0.0017526688
0.0004034404
0.0016179523
0.0013392289
0.0013630841
-0.00067318459
0.0011220056
-0.00083954485
0.0010079718
-0.00057713854
0.0010471914
-0.00023723663
0.0012294767
7.14321e-05
0.0014351409
0.00031482379
0.0014991666
0.00038378427
0.0014786658
0.0001654791
0.0015042585
-0.00030683593
0.0015322704
-0.00056929772
0.0014885784
-0.00041436059
0.0014417203
0.00012569715
0.0013135062
0.0011534808
0.0010641417
0.0020788221
0.00093242591
0.0026338957
0.0010150947
0.0026084029
0.0012866562
0.0018228484
0.0015670643
0.00059969954
0.0016171979
-0.00074472283
0.0015208265
-0.0015471976
0.0015374664
-0.0013015713
0.0017494267
-4.2126422e-05
0.0020531373
0.0020947128
0.0017467768
0.0011098233
0.0014815856
0.001978467
0.00115952
0.0022209848
0.00096140827
0.0020867009
0.00096344014
0.001697703
0.0010866923
0.00093837092
0.0011326892
-0.00014742675
0.0011112088
-0.0013852087
0.0011456816
-0.0023673949
0.0012648856
-0.002583308
0.001396669
-0.0019142154
0.0015938656
-0.00047816429
0.0017134157
0.0012882771
0.0015965714
0.0027722677
0.0013759186
0.0036575429
0.0012158566
0.0037225365
0.0011743024
0.0027152129
0.0012375329
0.00094014031
0.0012184911
-0.00084313924
0.0010519583
-0.0016926759
0.0010786607
-0.0013094044
0.0014403854
-0.0001512851
0.0019350271
0.0022722213
0.001066248
0.0011690455
0.0018318307
0.0021303331
0.0015213696
0.0029504723
0.0012466537
0.0032573887
0.0010623976
0.0027364741
0.00095489743
0.0013013937
0.00082520075
-0.00043322621
0.00067845507
-0.0017054455
0.00070515363
-0.00206365
0.00092032139
-0.0016617638
0.0011923438
-0.00090981018
0.0014809898
-0.00020807161
0.0016772514
0.00045207704
0.0016701528
0.0011866651
0.0015499558
0.0018111694
0.0014761307
0.0020743582
0.0013956598
0.0019229881
0.0013307077
0.0011718543
0.0012189778
0.00043231012
0.00093470958
0.0002390514
0.00076581907
0.00054019125
0.001055368
0.00089665155
0.0015480201
0.002035458
0.0012396813
0.00032438875
0.0018774423
0.0004939926
0.001662514
0.00052467362
0.0014138218
0.0005121602
0.0012504202
0.00039025477
0.0011141369
0.00022888645
0.0009233459
0.00024472525
0.00066200133
0.00047602864
0.00055353061
0.00072134263
0.00068270847
0.00081420813
0.0009545781
0.00090554179
0.0012342689
0.00081646109
0.0014914858
0.00056670116
0.0015472389
-2.3564307e-05
0.0014355917
-0.00063564203
0.0013963865
-0.0010420993
0.0014276457
-0.00099606439
0.0014695392
-0.00026763041
0.0015021091
0.0011578629
0.0013090768
0.0024820819
0.00092733838
0.0030507462
0.00086818691
0.0029158184
0.0011798347
0.0016346997
0.0023272961
-0.00062665865
0.0018021018
-0.0014914487
0.0016544939
-0.0024125937
0.0014016882
-0.0031115173
0.0012711978
-0.0030526803
0.0012141964
-0.0018639504
0.0011333889
0.00033671161
0.00093686331
0.0024981849
0.00076512296
0.0037141132
0.00073299533
0.0038014096
0.00082441793
0.003235979
0.00099778807
0.0021406233
0.0012149576
0.00083459528
0.0013413702
-0.00063058974
0.00128005
-0.0022603408
0.0012419388
-0.0033222624
0.0013139619
-0.0033706682
0.0014318758
-0.0021896012
0.0015848046
0.00012246871
0.0016254798
0.0026073623
0.0013212862
0.0044518288
0.0010757599
0.0049198035
0.0011054918
0.0013123402
0.0040907695
-0.0018658565
0.0016831742
-0.0035229879
0.0015854106
-0.0046234872
0.0013265941
-0.004789766
0.0012358726
-0.0040067688
0.0012167936
-0.0023603386
0.0011875452
-0.00012967831
0.0010631859
0.0022260261
0.00093711224
0.0040952225
0.00090000958
0.0051014374
0.00089995604
0.0049311292
0.00094451728
0.0036613675
0.0010476758
0.0015393595
0.00114968
-0.00094905885
0.001114728
-0.0030611693
0.0010928862
-0.0040979559
0.0011945017
-0.0038855976
0.0013551927
-0.0026489243
0.0015462085
-0.00083863352
0.001660416
0.0013732093
0.0015087814
0.0034593992
0.0012611698
0.0048326282
0.001222077
0.0012726322
0.0049498749
-0.0025384274
0.0016177716
-0.0042927593
0.0015338255
-0.0047994662
0.0012630282
-0.00433168
0.0011869223
-0.0032201632
0.0011720092
-0.001774755
0.0011456152
-0.00026994849
0.0010512934
0.0012687007
0.00096547151
0.0027326563
0.00097093365
0.0039803088
0.00098550605
0.0046295303
0.001003793
0.0040927159
0.0010456876
0.0022025868
0.001101498
-0.00061252504
0.0010518991
-0.0028551592
0.0010292748
-0.0036229402
0.0011306802
-0.0032970013
0.0012751332
-0.0023220805
0.0014289395
-0.0010863785
0.0015734905
0.00029537574
0.0015078173
0.0018539977
0.0013127074
0.003214115
0.0012738618
0.0013267199
0.0041164951
-0.002162946
0.0016761182
-0.003363704
0.0015424536
-0.003539516
0.0012351007
-0.0029535182
0.0011379876
-0.002118216
0.0011017775
-0.0011842059
0.0010788912
-0.00026071426
0.0010049032
0.00059557377
0.00094771672
0.0014196982
0.00096953687
0.0022946416
0.00099826368
0.0030996373
0.0010360203
0.0032005087
0.0010789728
0.002104005
0.0011201864
-9.2021062e-05
0.0010833517
-0.0020041782
0.0010557148
-0.0026079964
0.0011299865
-0.0022703642
0.0012298211
-0.0015951664
0.0013376894
-0.00088356587
0.0014505683
-0.00016140649
0.001416117
0.00070704734
0.0012855488
0.0016735366
0.0012684221
0.0013564161
0.002496572
-0.0014199794
0.0017902956
-0.0020362651
0.0015999661
-0.0020355925
0.0012450078
-0.0016218948
0.0010970622
-0.0011046642
0.0010290997
-0.00062621053
0.001002259
-0.00023937926
0.00094503419
0.00012388182
0.00091070463
0.00049537526
0.00093859297
0.001010219
0.00098197181
0.0016476629
0.0010407438
0.0019889387
0.0011042608
0.0015292086
0.0011660279
0.00026662045
0.0011741452
-0.00097533938
0.0011602726
-0.0014572066
0.0011838584
-0.0014144547
0.0012167176
-0.0010282498
0.0012690778
-0.00066564602
0.0013412915
-0.00029001779
0.0013218919
0.00012286798
0.0012444869
0.00064124833
0.0012449622