/*--------------------------------*- C++ -*----------------------------------*\
| =========                 |                                                 |
| \\      /  F ield         | OpenFOAM: The Open Source CFD Toolbox           |
|  \\    /   O peration     | Version:  2406                                  |
|   \\  /    A nd           | Website:  www.openfoam.com                      |
|    \\/     M anipulation  |                                                 |
\*---------------------------------------------------------------------------*/
FoamFile
{
    version     2.0;
    format      ascii;
    arch        "LSB;label=32;scalar=64";
    class       volScalarField;
    location    "125";
    object      rho_0;
}
// * * * * * * * * * * * * * * * * * * * * * * * * * * * * * * * * * * * * * //

dimensions      [1 -3 0 0 0 0 0];

internalField   nonuniform List<scalar> 
20580
(
1.0003789
1.0015833
1.0033954
1.0007188
1.0029561
1.0015826
1.0016628
1.002265
1.0012089
1.0010675
1.0006501
1.0019251
1.0014521
1.0007336
1.0010147
1.0023418
1.0002335
0.99846165
1.0040154
1.0018522
0.99707703
1.0013206
1.0040746
0.99893138
0.99279078
1.0000426
1.0090686
1.0030299
1.001246
1.0127083
1.0067533
1.0004153
1.0014346
1.0031106
1.0004782
1.003289
1.0013332
1.0019387
1.0020868
1.0009356
1.000826
1.0009162
1.0022595
1.0009809
1.0003045
1.0016339
1.0023073
0.99832952
0.99951204
1.0054509
0.99950573
0.99699576
1.0038384
1.0026662
0.99643717
0.99198573
1.0033139
1.0178136
1.0085102
0.99271188
1.0001199
1.0142488
1.0008818
1.0018261
1.0022201
1.0009288
1.0029441
1.0012996
1.0020742
1.0016785
1.0008311
1.0006318
1.0012047
1.0022535
1.0006671
1.0001095
1.001847
1.0023669
0.99721979
1.0006861
1.0061414
0.99771087
0.99755301
1.0061957
1.0026366
0.99614118
0.99428911
1.0039291
1.0190019
1.0118773
0.9887246
0.98709263
1.0117849
1.0016236
1.0026433
1.0011886
1.0018527
1.0020696
1.001501
1.0020863
1.0011961
1.0010508
1.0005328
1.0014395
1.0019572
1.0004851
1.0003625
1.0016289
1.0022621
0.9972851
1.0019304
1.0054856
0.99674027
0.99881773
1.0073488
1.0024087
0.99831201
0.99895591
1.0032371
1.01284
1.0115223
0.99015844
0.97900641
1.000034
1.0023201
1.0036845
1.0005997
1.0026983
1.0010976
1.0017985
1.0018004
1.0007998
1.0013636
1.000725
1.0015933
1.0014412
1.0004394
1.000867
1.0013318
1.0017846
0.9985047
1.0029949
1.0036305
0.99661409
1.0007351
1.0070998
1.0002226
1.0010048
1.0055256
1.0025946
1.0026377
1.0066664
0.99625191
0.9816506
0.98787841
1.0027428
1.0045476
1.0007728
1.0031922
1.0004611
1.0021082
1.0011673
1.0007005
1.0013818
1.0011755
1.0015804
1.0008555
1.0005684
1.0014542
1.0010485
1.0010122
1.0002423
1.0037462
1.0013052
0.99693136
1.0028554
1.006073
0.99705812
1.0009546
1.0112867
1.0040705
0.99318481
0.99743581
1.0041633
0.99562133
0.98733463
1.0027232
1.0046655
1.0015433
1.0032053
1.0005394
1.002221
1.0006092
1.0009791
1.0011721
1.0016835
1.0014696
1.0004205
1.0008011
1.0020473
1.0007946
1.0001702
1.0017661
1.004106
0.99897474
0.99765413
1.0047319
1.0043787
0.99473557
0.99863728
1.0129403
1.0071451
0.98880402
0.98852934
1.0079149
1.0144185
1.0005715
1.0022547
1.0039593
1.0024581
1.0026162
1.0013369
1.0019472
1.000473
1.001405
1.0010048
1.0020347
1.0013495
1.0002421
1.0010918
1.0024248
1.0008121
0.99948172
1.0026729
1.0039684
0.99708465
0.99889869
1.0059917
1.002702
0.99395084
0.99678346
1.0101687
1.0088469
0.99020691
0.9850466
1.0053354
1.026553
1.0197391
1.0015443
1.0027776
1.0030178
1.0016674
1.0023659
1.0014426
1.000866
1.0016786
1.0009762
1.0020232
1.0012553
1.0003051
1.0013578
1.0022344
1.0011882
0.99917508
1.0029232
1.003101
0.99618226
1.0004884
1.0058699
1.0012723
0.99549552
0.99732519
1.0046495
1.00701
0.99607114
0.98904216
0.99924741
1.0237195
1.0306116
1.0010594
1.0017389
1.0028476
1.0009661
1.0031499
1.0010989
1.0016435
1.001652
1.0011033
1.0016346
1.0011638
1.0005765
1.0015818
1.0015325
1.0015651
0.99949763
1.0026401
1.001617
0.99661395
1.0022671
1.0045948
0.9990065
0.99931685
1.0008726
0.99941319
1.0012938
1.0025999
0.99822308
0.99789006
1.0080912
1.0227916
1.0008763
1.0012147
1.0021375
1.0007739
1.0034211
1.0011476
1.0023109
1.001372
1.00145
1.0010787
1.0010733
1.0011323
1.001771
1.0007858
1.0016334
1.0004069
1.0020748
1.0000654
0.99783624
1.004094
1.0032122
0.99600198
1.002664
1.0066379
0.99765738
0.99394945
1.0050121
1.0093443
1.0030491
0.99345994
0.99922661
1.0009982
1.0014545
1.0013598
1.001065
1.0028968
1.001533
1.0025423
1.0010911
1.001864
1.0006192
1.0009638
1.0018172
1.001921
1.0002361
1.0015308
1.0015478
1.001617
0.99891341
0.99922764
1.0056196
1.0019541
0.9935224
1.0040082
1.011904
0.99918963
0.98937659
1.0019432
1.0172616
1.0109041
0.99159785
0.9801371
1.0013726
1.0025562
1.0010643
1.0019126
1.0018898
1.0020833
1.0023073
1.0011482
1.0021207
1.0005084
1.0008574
1.0022554
1.00203
0.99993009
1.0013704
1.0024788
1.0015427
0.99839966
1.0008724
1.0063197
1.0009864
0.9928847
1.0031607
1.0139383
1.0018814
0.98924046
0.99697282
1.0170893
1.017538
0.99714924
0.97794937
1.0021211
1.0040375
1.0014405
1.0029583
1.001042
1.002457
1.0016612
1.001631
1.0019892
1.0007754
1.0008886
1.0021964
1.0019404
1.0000156
1.0010476
1.0028418
1.0015869
0.9984824
1.0023511
1.0057066
1.0003519
0.99441622
1.0017826
1.0107266
1.0032767
0.99275988
0.99571759
1.008356
1.0167551
1.0051897
0.9880607
1.0029131
1.0052103
1.0023997
1.0037275
1.0008064
1.0025235
1.0009971
1.0021962
1.001395
1.0012789
1.001108
1.0018602
1.0015277
1.0007299
1.0007314
1.0025712
1.0014134
0.99925909
1.0033647
1.0035001
0.99991875
0.99767374
1.0019109
1.0034333
1.0014695
0.99819708
0.99899397
0.99930342
1.0050257
1.0086301
1.0023945
1.0032001
1.0055104
1.0032094
1.0036634
1.0011851
1.0022593
1.0007866
1.0024208
1.0007535
1.0017861
1.0013923
1.001492
1.0008967
1.001775
1.000716
1.001871
1.0010086
1.000462
1.0040026
1.0008413
0.99864613
1.0021923
1.0035683
0.99698934
0.99638523
1.0038637
1.0048099
0.99697288
0.99136606
1.0017868
1.0115798
1.0024354
1.0042625
1.002969
1.0027689
1.0020584
1.0017531
1.001086
1.0019816
1.0005245
1.0019635
1.0016726
1.0011661
1.0003306
1.0025676
1.0010553
1.001094
1.0005869
1.0015076
1.0042811
0.99862916
0.9968918
1.0060559
1.006262
0.99399916
0.99111573
1.0064012
1.0124305
1.0012623
0.98555512
0.99100288
1.0106402
1.0013446
1.0022354
1.0020233
1.0013697
1.0028171
1.0012875
1.0016167
1.0010005
1.0007948
1.0017745
1.0018818
1.0008821
1.0000657
1.0028128
1.0014264
1.0005529
1.0001914
1.0020192
1.0042394
0.99755247
0.99586715
1.0070753
1.0089956
0.99473564
0.98899015
1.0048342
1.0176671
1.00687
0.98890774
0.98581599
1.0035832
1.0007082
1.0006854
1.0010192
1.0004476
1.0030326
1.0011959
1.0022557
1.0001697
1.0014299
1.0015035
1.0020201
1.0008125
1.000222
1.0026313
1.0016941
1.0004372
1.0000282
1.00211
1.0037472
0.99768947
0.99634416
1.0056408
1.0095465
0.99686535
0.99162253
1.0020226
1.0155622
1.0107202
0.99533446
0.98976495
0.99792911
1.0005954
1.0006919
1.0006517
1.0002906
1.0028189
1.0014423
1.0024769
1.0000345
1.0019207
1.0012777
1.0018538
1.0010747
1.0008069
1.002059
1.0018319
1.0007735
1.0002972
1.0020387
1.0023282
0.99917159
0.99840525
1.0031324
1.0057687
0.99969838
0.99622827
1.0013263
1.0071007
1.0077594
1.0018099
0.99678046
0.99752311
1.0012163
1.001955
1.001146
1.001276
1.0023275
1.0018311
1.0021171
1.000738
1.001939
1.0012191
1.0013304
1.0013383
1.0016479
1.0012835
1.0016722
1.0012283
1.0010417
1.0019405
1.0003732
1.0011481
1.0015496
1.0014563
0.99984753
1.0005344
1.0023998
1.0037684
0.99864194
0.9980137
1.0044885
1.0059231
1.0027425
1.0022438
1.0041962
1.0023088
1.003108
1.0018425
1.0023143
1.0015208
1.0021586
1.0017835
1.0014534
1.0011642
1.001703
1.0025803
1.0007015
1.0014453
1.0018028
1.0020446
1.0021833
0.99886518
1.0021999
1.0055141
1.0010889
0.99507367
0.99877624
1.0082258
1.0077046
0.99510733
0.98904805
1.0010164
1.0134872
1.0111876
1.0031368
1.0065337
1.003728
1.0049897
1.0019129
1.0028989
1.001519
1.0037442
1.0018429
1.0021164
1.0014711
1.0020644
1.0035006
1.0007898
1.0013755
1.002189
1.002988
1.0029181
0.99823153
1.0021593
1.0085609
1.0026904
0.99325655
0.99586133
1.0102372
1.0125494
0.99712834
0.98503765
0.99522527
1.0144965
1.0176796
1.0017856
0.99627088
0.99614708
1.004574
1.0162493
1.0233505
1.0234863
1.0127829
0.99486639
0.98217766
0.98294925
0.99415882
1.0074151
1.0157169
1.009096
0.99412836
0.98785494
1.0010031
1.0232552
1.034173
1.0240283
0.99382198
0.96741003
0.9851298
0.98900278
0.99666036
1.0050724
1.0118733
1.013082
1.0068036
1.0004484
1.002045
1.0119306
1.0220824
1.0239514
1.0137893
0.99270062
0.97406147
0.96936645
0.98211107
1.0097422
1.0368033
1.0435381
1.0236273
0.99392693
0.97766857
1.0129851
1.0136678
1.0071413
0.99572436
0.98365299
0.97559261
0.97630031
0.98780393
1.0086572
1.0308669
1.0435184
1.0349255
1.0112897
0.98921421
0.98282163
0.99050646
1.0044322
1.013828
1.0137138
1.0012856
0.98547888
0.98432419
0.99965489
1.0435656
1.0296723
1.0107348
0.99218322
0.98087568
0.98122052
0.98803719
0.99993458
1.0088046
1.0125187
1.0075836
0.99514196
0.98720056
0.99525753
1.019771
1.0452768
1.0522291
1.0333069
0.99559948
0.96361796
0.95484467
0.96847121
0.99890193
1.0105824
1.0021614
0.99871354
1.0029153
1.0172237
1.0347211
1.0434474
1.0337027
1.0104017
0.98493523
0.96614322
0.95983248
0.96757602
0.99382708
1.0301093
1.0625561
1.0667948
1.0373647
1.0002124
0.97847492
0.98146736
0.99431019
1.0126142
0.96683166
0.96864105
0.98388879
1.0108396
1.0423393
1.065057
1.0631413
1.0394294
1.0107435
0.98730464
0.98066819
0.98902105
0.99947045
1.0101538
1.0151478
1.017557
1.0099362
0.99573692
0.99105776
1.0062095
1.0377877
1.0653217
1.0665921
0.98248324
0.99436354
1.0060424
1.0122753
1.0139196
1.0139562
1.0078102
1.000158
0.996987
1.0054788
1.0316857
1.0643287
1.0740786
1.0527029
1.0135154
0.97766332
0.95772918
0.95200822
0.9634966
0.9977158
1.0508808
1.1063419
1.1106308
1.064265
1.0512984
1.0256323
0.99828634
0.97997175
0.97020047
0.96195658
0.960012
0.97329314
1.0063771
1.055614
1.1034111
1.1133395
1.0802867
1.0300029
0.98639465
0.96803159
0.97028443
0.97759974
0.99688047
1.0262721
1.0598559
1.0744877
1.0935138
1.067608
1.0337286
1.004538
0.98605552
0.97875733
0.9835926
0.98968494
1.0007418
1.0116668
1.0273144
1.048748
1.0633434
1.0526155
1.0330985
1.0185489
1.0209279
1.0429227
1.055168
1.0490096
1.0260475
1.0049347
0.99401903
1.0286377
1.0206514
1.0187081
1.0212098
1.0304525
1.0477697
1.068247
1.0723654
1.0586434
1.0300302
1.001548
0.98745978
0.98851947
0.98881294
0.99696558
1.0147076
1.0568677
1.1149427
1.1529707
1.1270807
1.0595376
0.99418597
0.96157938
0.97380181
0.97159398
0.97891804
1.0066538
1.0565733
1.1213243
1.1704731
1.160842
1.1052108
1.0391124
0.99108495
0.97327996
0.97362544
0.97441389
0.97832505
0.9968449
1.0419563
1.1179718
1.1872007
1.1796218
1.1095754
1.0284605
0.97918161
0.96804735
0.97135988
0.9824104
1.0112297
1.0618525
1.1275737
1.1805189
1.1770566
1.1283223
1.0653183
1.0168404
0.99378809
0.99904708
1.0156299
1.0166134
1.0223902
1.0378976
1.0762786
1.1322503
1.1568391
1.1318786
1.0783148
1.02878
1.0108939
1.0171941
1.0238047
1.03975
1.0636338
1.0957256
1.1224417
1.1285301
1.1114688
1.0824928
1.0568915
1.0481936
1.060087
1.0847029
1.0865601
1.0755688
1.0566339
1.0506757
1.0668866
1.0953919
1.0977299
1.0856842
1.0724145
1.0907162
1.0851813
1.0702237
1.0587724
1.0577654
1.0691407
1.0807485
1.0844344
1.077598
1.0711817
1.0781108
1.1010544
1.1394644
1.1749101
1.1690729
1.1311386
1.0780361
1.0420246
1.0363719
1.0505846
1.0597886
1.0677802
1.0804818
1.1758886
1.147604
1.1020717
1.0674397
1.0551448
1.0623628
1.0724491
1.0757144
1.064415
1.061253
1.0830808
1.1326745
1.1996545
1.2514672
1.2445945
1.1838231
1.1034829
1.0469175
1.0298306
1.0359479
1.0473453
1.0560147
1.0734622
1.2425266
1.1929974
1.1252278
1.0778606
1.0628719
1.0712406
1.0838967
1.0894448
1.0773575
1.07186
1.0940287
1.1554562
1.2397901
1.3081775
1.3034317
1.2271528
1.1319068
1.0651171
1.038974
1.0394315
1.0471822
1.0546603
1.0729994
1.2847311
1.2236571
1.1471953
1.0947838
1.0812044
1.0913729
1.1046678
1.1097695
1.0986999
1.0936831
1.1172394
1.1841428
1.2761683
1.3493286
1.3420801
1.2603502
1.1630493
1.0900471
1.0566747
1.0519462
1.0565926
1.0621122
1.0821626
1.3088435
1.2471354
1.1693011
1.1180936
1.1063154
1.1170994
1.129438
1.1343235
1.1252612
1.1233306
1.1504695
1.2201797
1.3114988
1.3803761
1.3678672
1.2841801
1.1883921
1.1152205
1.0790048
1.0692927
1.0707176
1.0777998
1.1005056
1.3159224
1.2607088
1.1914196
1.1473695
1.1411935
1.1536032
1.1641545
1.1676496
1.1591553
1.1608393
1.1957431
1.2665517
1.3496973
1.4013546
1.3762857
1.2940389
1.2046889
1.1382165
1.1071003
1.0924411
1.0921454
1.1025988
1.1295211
1.2935718
1.2548472
1.2094523
1.1843434
1.1884398
1.205812
1.2168584
1.2183709
1.2127237
1.2194547
1.2584619
1.3176353
1.3757068
1.3997729
1.3627427
1.2911827
1.2208767
1.1690835
1.1407142
1.1265401
1.1257286
1.1383657
1.1719363
1.2477943
1.2292405
1.2119425
1.217695
1.2454926
1.2792657
1.297832
1.3039389
1.3025661
1.3079091
1.3267756
1.3505848
1.3689472
1.3692698
1.3369857
1.2891841
1.2436676
1.2080461
1.1840666
1.1748903
1.1788148
1.1963689
1.2281547
1.1932071
1.1883672
1.1946157
1.2333926
1.3035483
1.382201
1.4328684
1.4437654
1.4255541
1.3950025
1.3662314
1.3449259
1.3308927
1.3182679
1.3015888
1.2855922
1.2704821
1.262949
1.2618277
1.2631249
1.264353
1.26405
1.268771
1.1644914
1.162171
1.177853
1.2434433
1.3616817
1.5062461
1.5990448
1.5927848
1.5144966
1.4253196
1.3572321
1.3123838
1.2899304
1.2754282
1.2723921
1.2913662
1.3258708
1.3661554
1.3915235
1.3759289
1.3323094
1.2854704
1.2507513
1.1984429
1.1922338
1.2112368
1.2868786
1.4214767
1.5744195
1.6594923
1.62519
1.5230748
1.4209646
1.3480126
1.3008664
1.2754452
1.2653923
1.2892414
1.348118
1.4289245
1.4903762
1.4850831
1.4148757
1.3251641
1.2511077
1.202501
1.3109493
1.2930217
1.3013534
1.3535014
1.4394537
1.5199148
1.5553256
1.5396645
1.4943081
1.4385551
1.3851844
1.3484941
1.3337355
1.3407297
1.3728533
1.4215514
1.4737793
1.4952236
1.4541285
1.3741588
1.2934168
1.2326141
1.1988951
1.4259553
1.3788131
1.3401867
1.3478332
1.3855698
1.4243289
1.4432223
1.4496096
1.4615551
1.4784955
1.4947341
1.4935592
1.4706717
1.4418708
1.4168461
1.3974856
1.3871199
1.3802556
1.3686317
1.3498815
1.3204213
1.2899134
1.2719918
1.4764058
1.4256538
1.3603762
1.3270186
1.3299461
1.3611636
1.3965222
1.4234144
1.4710331
1.5373431
1.596896
1.6058816
1.5398707
1.4526024
1.3765378
1.3239745
1.2969951
1.2985289
1.3252382
1.3755731
1.4163322
1.4159391
1.3758473
1.4312445
1.4411404
1.4289003
1.4038234
1.3934307
1.4037616
1.4366477
1.4707651
1.4984929
1.5273932
1.5516474
1.5487998
1.5019429
1.4325373
1.364552
1.3213623
1.3022993
1.3122123
1.3557789
1.4153856
1.4617894
1.4561222
1.3945609
1.424548
1.4393556
1.4665841
1.4937504
1.5039863
1.5029362
1.5015361
1.4920283
1.4756204
1.4553651
1.4430934
1.4397422
1.4421035
1.4408253
1.4297183
1.4080778
1.3887017
1.3707237
1.3677194
1.3727325
1.3805093
1.3739861
1.356863
1.4829817
1.478567
1.4742508
1.4787628
1.4808813
1.4763561
1.4739443
1.4684646
1.4545704
1.4315789
1.4141459
1.4117032
1.4280444
1.4606382
1.486915
1.4781678
1.4361682
1.3807633
1.3322301
1.3029595
1.2967655
1.3082167
1.3306843
1.5018074
1.4997119
1.4735917
1.4470426
1.4279885
1.4183819
1.4289333
1.4607516
1.4885505
1.4904275
1.4725277
1.4498088
1.4352667
1.4324531
1.437532
1.4358783
1.4157296
1.3782673
1.3377207
1.3070694
1.29543
1.305305
1.3298754
1.4489707
1.4733751
1.4791991
1.4688758
1.4512472
1.4383675
1.4431851
1.4658895
1.493087
1.5072211
1.4945173
1.4592963
1.4179034
1.3867128
1.3719293
1.3722801
1.3810666
1.3883259
1.3859605
1.3721578
1.3524603
1.3340128
1.3270544
1.42261
1.447729
1.4764554
1.4949233
1.4936882
1.4761757
1.456445
1.4457092
1.4453066
1.4516153
1.4569669
1.4502484
1.4268812
1.3953146
1.369471
1.3585019
1.3630007
1.3744724
1.3832153
1.382371
1.3749737
1.3689198
1.3661747
1.4377886
1.4482127
1.4565805
1.4688255
1.4780665
1.47567
1.4608956
1.4394159
1.4223859
1.4179968
1.4248679
1.4358477
1.4388306
1.4267093
1.4028563
1.37735
1.3571815
1.3442378
1.3371051
1.3408379
1.360077
1.39293
1.4237401
1.4476424
1.454726
1.4452858
1.4379259
1.4388102
1.4473001
1.4562039
1.4561099
1.4456423
1.4294543
1.4160094
1.4092268
1.4063736
1.4023647
1.3948932
1.3831749
1.3682649
1.3521672
1.3379381
1.3344754
1.347086
1.3717733
1.3938975
1.4154572
1.4409839
1.4445545
1.4383435
1.4330514
1.4324972
1.4388267
1.4482234
1.4522148
1.4443184
1.425871
1.4027216
1.3825831
1.3683614
1.3613996
1.3627507
1.3706552
1.3807934
1.38892
1.3907823
1.3844048
1.3708168
1.3546035
1.3862865
1.4149206
1.4349503
1.4476011
1.4494861
1.4445269
1.4367445
1.4301852
1.4254678
1.4215259
1.4155324
1.4058809
1.3937358
1.3810552
1.3682319
1.3577897
1.3541854
1.360287
1.3747037
1.3900776
1.3966681
1.3881546
1.3658371
1.3850931
1.4079467
1.4223077
1.4346115
1.442678
1.4436248
1.4371969
1.4254831
1.4123905
1.4015793
1.3943217
1.3911353
1.3905535
1.3911425
1.3891636
1.3821791
1.3715268
1.3617366
1.3591071
1.3638938
1.369753
1.3700896
1.3606012
1.3847835
1.4067213
1.4132943
1.4156638
1.4169588
1.4181315
1.4187326
1.4175221
1.414288
1.4087355
1.4011273
1.3922538
1.3844585
1.3792361
1.3769717
1.3761064
1.374549
1.3719263
1.3694448
1.3677583
1.3650137
1.3602377
1.3511275
1.3628351
1.3897582
1.4018361
1.4068591
1.4079255
1.4073546
1.4062918
1.4064794
1.4078011
1.4089946
1.4073787
1.4012448
1.3904458
1.3771851
1.3652382
1.3576923
1.35611
1.3599661
1.3671334
1.3735748
1.3740486
1.3666785
1.3523083
1.3481772
1.3733088
1.3885871
1.4000487
1.4075246
1.4107749
1.409646
1.4055958
1.4001508
1.3947259
1.3901077
1.3857946
1.381337
1.3757455
1.369167
1.3631069
1.3593142
1.3590078
1.3623703
1.3667996
1.3671025
1.3597568
1.3440721
1.3497686
1.3704013
1.3810516
1.3886607
1.3940772
1.3977162
1.399123
1.3977926
1.3935292
1.3870608
1.3795167
1.3726815
1.367725
1.3655122
1.3657831
1.3672957
1.3684804
1.3679619
1.3652485
1.3604444
1.3537559
1.3439868
1.3303816
1.3418639
1.3624812
1.3728683
1.3788318
1.3816662
1.3825686
1.3824933
1.3823224
1.3822005
1.3816425
1.379866
1.3763333
1.3710904
1.3653452
1.3611176
1.3594404
1.3595456
1.3593887
1.3562866
1.3493736
1.3395364
1.328073
1.315737
1.3305428
1.3497747
1.3619144
1.3713666
1.3776559
1.3805502
1.3802559
1.3778764
1.3746967
1.3719862
1.3702854
1.3690574
1.3670813
1.3634053
1.3580962
1.3526186
1.3486425
1.3461991
1.3433927
1.3380686
1.3288871
1.3158734
1.3002477
1.33093
1.3464485
1.3551897
1.36227
1.3677341
1.3714567
1.3732611
1.3728458
1.3699443
1.3651966
1.3601979
1.3558011
1.3532491
1.3514429
1.3494188
1.3464693
1.342875
1.3389068
1.3339346
1.3261831
1.3140405
1.2967864
1.2759688
1.3271408
1.3416036
1.3492199
1.3541086
1.3568812
1.3585053
1.3596476
1.3604413
1.3605695
1.359316
1.3564266
1.3523255
1.3481973
1.3446836
1.3421342
1.3392867
1.335075
1.3283849
1.3184493
1.304889
1.2875396
1.2665094
1.2434939
1.3173443
1.331972
1.3413535
1.3488489
1.3535044
1.3552603
1.355059
1.3538304
1.3523942
1.3507732
1.3485402
1.3453781
1.3413236
1.3367668
1.3319769
1.3265548
1.3192943
1.3089196
1.2949371
1.2775099
1.257259
1.2352355
1.2126941
1.3173138
1.3285296
1.3355563
1.3415527
1.3460211
1.3483227
1.3482838
1.3465849
1.343817
1.3407846
1.3376577
1.3342344
1.3303219
1.3254744
1.3193828
1.3113335
1.3005159
1.286585
1.2692995
1.2490054
1.2270553
1.2047023
1.1824959
1.3150316
1.3250577
1.3296385
1.3329139
1.3351314
1.3365731
1.3371103
1.3366966
1.3353787
1.3331276
1.3300946
1.3261197
1.320938
1.3141237
1.3048869
1.2927851
1.2777749
1.2599919
1.239705
1.2178265
1.1956553
1.174075
1.152214
1.3068395
1.3172834
1.3227518
1.3267412
1.3293691
1.3307887
1.3313529
1.3308053
1.3290365
1.3259162
1.3211829
1.3147938
1.3065188
1.2960284
1.2830361
1.2675989
1.2499982
1.2303835
1.2094033
1.1879767
1.1667466
1.1457808
1.1245805
1.3027999
1.312587
1.3178011
1.3215344
1.3237373
1.324476
1.3238781
1.3219187
1.3186607
1.3139245
1.3075317
1.2991965
1.2886283
1.2756606
1.2605041
1.2434477
1.2247084
1.2046165
1.1839269
1.1631024
1.142308
1.1218434
1.10057
1.2997917
1.3079905
1.3120137
1.3146002
1.3157985
1.3158188
1.314573
1.3121395
1.3083277
1.3028096
1.2951711
1.2849576
1.2719716
1.2566275
1.239402
1.2207818
1.2011615
1.1810515
1.1608361
1.1407672
1.1208605
1.101199
1.0808055
1.2950761
1.302492
1.3060522
1.3082096
1.3090795
1.3087728
1.3071989
1.3042798
1.2994623
1.2923276
1.2822492
1.2691387
1.2535765
1.2363346
1.2180537
1.1992832
1.1803802
1.161589
1.1429469
1.1244702
1.105852
1.0871127
1.0676198
1.2900201
1.2974022
1.300572
1.302326
1.3028127
1.3020065
1.2997996
1.2958333
1.2895384
1.2802881
1.2678328
1.2528263
1.236216
1.2188346
1.2012072
1.1835704
1.1660654
1.1486876
1.131257
1.1134535
1.0952079
1.0769245
1.0584769
1.2834162
1.2918673
1.2949604
1.2964441
1.2966706
1.2953804
1.2924822
1.2874695
1.2797566
1.2688055
1.2549228
1.2392164
1.2226693
1.2059781
1.1893745
1.1729036
1.1564644
1.1399667
1.1231742
1.1056856
1.0875229
1.0694734
1.0521159
1.2793213
1.2865759
1.2894433
1.2907677
1.2908213
1.2892039
1.2857054
1.2798013
1.2709627
1.2589501
1.2445352
1.2289142
1.2129167
1.1969686
1.1810898
1.1653151
1.1496128
1.1339788
1.1182835
1.1021239
1.085275
1.0682523
1.051688
1.2767623
1.2815774
1.2841996
1.28543
1.2854255
1.2836817
1.27986
1.2733301
1.2636679
1.2510068
1.2364929
1.2212568
1.2060273
1.191071
1.1762594
1.1615971
1.1469756
1.1323289
1.1175661
1.1023244
1.0865917
1.070857
1.0555583
1.270977
1.2762112
1.2787632
1.2800207
1.2799892
1.2783671
1.2746783
1.26821
1.2584551
1.2457096
1.2312795
1.2166222
1.202454
1.188693
1.1750532
1.1613079
1.1475048
1.1338219
1.1202151
1.1063183
1.0918972
1.0773591
1.0631344
1.2579114
1.2684076
1.2727256
1.2746465
1.2749867
1.2737062
1.2703691
1.2644059
1.2551324
1.2431069
1.2297989
1.2160945
1.2024903
1.1892104
1.1762444
1.163423
1.1506354
1.1379658
1.1254867
1.113058
1.1003792
1.0874951
1.0746773
1.2481777
1.2570542
1.2642466
1.2682874
1.2699459
1.2695823
1.2671258
1.262073
1.2539489
1.2430661
1.2302818
1.2170304
1.2040271
1.1915409
1.1795348
1.1678932
1.1564238
1.1449823
1.1335578
1.1221588
1.1107795
1.0994726
1.0882835
1.2503908
1.2513973
1.254907
1.259681
1.2630294
1.2643035
1.2633803
1.2601363
1.2539202
1.2444192
1.2326987
1.2201925
1.2078874
1.196072
1.1847961
1.1739655
1.1634964
1.1532423
1.1430751
1.1329602
1.1228924
1.1129341
1.1031072
1.2732445
1.2545652
1.2512136
1.2517432
1.2545857
1.2572827
1.2584223
1.2573529
1.2536695
1.2469678
1.2369201
1.2251048
1.2132491
1.2020614
1.1915424
1.1815568
1.1719365
1.1625628
1.1533528
1.144289
1.1354045
1.1266603
1.1180478
1.3121979
1.2669776
1.2542276
1.25052
1.2493223
1.2497544
1.2513171
1.2523234
1.2513902
1.2477395
1.2416102
1.231886
1.2206072
1.2094047
1.1990989
1.1897307
1.1809617
1.1725239
1.1642371
1.1560632
1.1480519
1.1402269
1.1325411
1.3189522
1.2887408
1.2691731
1.2576162
1.2517466
1.2489577
1.2473348
1.246714
1.2466819
1.2458416
1.2425572
1.2374267
1.2290498
1.2188114
1.2084388
1.198848
1.1901624
1.1822399
1.1747721
1.1675234
1.1603862
1.1533676
1.146408
1.3154587
1.3001682
1.2870666
1.2744096
1.2632202
1.2548849
1.2496912
1.246671
1.2444205
1.2428723
1.2411732
1.2382496
1.2339736
1.2274945
1.2190556
1.2097263
1.2006281
1.1923438
1.1849404
1.1782315
1.171869
1.1656551
1.1591763
1.3051682
1.2984626
1.2891393
1.2818943
1.2750547
1.2673311
1.259148
1.252232
1.2471938
1.2436511
1.2408723
1.238369
1.2353801
1.2315409
1.2264319
1.2197784
1.2120302
1.2038579
1.1960245
1.1889626
1.1826341
1.1767701
1.1708703
1.2883077
1.2848986
1.2798631
1.2771196
1.2744983
1.2716094
1.2682152
1.2630706
1.2564216
1.2498697
1.2444505
1.2402845
1.2368427
1.2334828
1.2296868
1.2252742
1.2202784
1.2143884
1.2077513
1.2007643
1.1940324
1.1878045
1.181642
1.2669464
1.2591852
1.257051
1.2598358
1.263792
1.2665471
1.2672025
1.2662698
1.2643446
1.2604207
1.2546817
1.2484484
1.2426644
1.237698
1.2333398
1.2292633
1.2251592
1.2206674
1.2157989
1.2105217
1.20497
1.1991572
1.1928299
1.2440998
1.232081
1.2312995
1.2362769
1.2436259
1.251083
1.2572331
1.2613072
1.2631945
1.2635428
1.2627159
1.2599493
1.2548781
1.2486589
1.2423423
1.2365955
1.2314629
1.2266222
1.2219099
1.2172081
1.2126229
1.2080941
1.2027001
1.222603
1.2091645
1.2079188
1.2122678
1.2195778
1.2282989
1.2374244
1.2459726
1.2530551
1.258112
1.2608864
1.2617613
1.2615076
1.2597582
1.2560614
1.2505751
1.2441901
1.2377965
1.2317107
1.2260168
1.2206497
1.2157167
1.2099125
1.2032594
1.1885821
1.1848921
1.1865207
1.1915032
1.1988641
1.2079496
1.218061
1.2284021
1.2381682
1.2464724
1.2527492
1.256774
1.2587445
1.2591382
1.2583805
1.2561419
1.2524533
1.2472343
1.2412133
1.2346767
1.2281759
1.2202791
1.1859831
1.1690856
1.1617347
1.1591703
1.159946
1.1634388
1.1694277
1.1775901
1.1875093
1.1987306
1.2105757
1.2221914
1.2325908
1.2411692
1.2475662
1.2517626
1.2538554
1.2539845
1.2531749
1.2513142
1.2483675
1.2442617
1.2374593
1.1702328
1.1501176
1.1392286
1.1326652
1.128991
1.1276874
1.1287592
1.1322887
1.1381164
1.1460871
1.1561098
1.1679192
1.1809271
1.1943341
1.2072745
1.2190557
1.2292058
1.2372163
1.2425928
1.2456005
1.2467942
1.2467765
1.2464526
1.156885
1.1330461
1.1195799
1.110602
1.1042414
1.0996067
1.0965578
1.0951735
1.0955223
1.0976027
1.1017837
1.1081637
1.1169947
1.128066
1.1408938
1.1549596
1.1696777
1.1844558
1.1985331
1.2111477
1.2217004
1.2302308
1.2401141
1.1450281
1.1180376
1.1046888
1.0952836
1.0881816
1.0820813
1.0766569
1.0719886
1.0683953
1.0662993
1.0655369
1.0661633
1.0684535
1.0722299
1.0780735
1.0860774
1.0962591
1.1086729
1.1229815
1.1386688
1.1550305
1.1715924
1.1899419
1.1377096
1.1117361
1.0994761
1.0896834
1.0811746
1.073281
1.0659171
1.0594138
1.0542942
1.0504447
1.0471076
1.044611
1.0429175
1.041848
1.0420801
1.0432075
1.045627
1.04964
1.0554896
1.0636033
1.0743663
1.0875098
1.1036641
1.133665
1.1111604
1.0990616
1.0888781
1.0789952
1.0695347
1.0604609
1.0523129
1.0455885
1.0405768
1.0363582
1.0332668
1.0307327
1.0278908
1.0256274
1.0238476
1.0229089
1.0222448
1.0216436
1.0223853
1.0246353
1.0289046
1.0364604
1.1321589
1.1143169
1.1018808
1.0901303
1.0784391
1.0663974
1.0548536
1.0451386
1.0379533
1.0324442
1.028089
1.02464
1.0217397
1.0189883
1.0165719
1.0141902
1.0120151
1.0105648
1.0089672
1.0078542
1.0075014
1.007336
1.0087554
1.1299416
1.1167707
1.1030629
1.0890344
1.074341
1.060051
1.0476925
1.0373076
1.029036
1.0237754
1.0206932
1.0177609
1.0145216
1.0113025
1.0090991
1.0077485
1.0061278
1.0051436
1.0036572
1.0027088
1.002645
1.0028003
1.0028453
1.1227997
1.1126273
1.0969819
1.0791184
1.0613175
1.0463373
1.0348578
1.0267446
1.0210336
1.0164804
1.0134137
1.0112333
1.00877
1.0060835
1.0038792
1.0037242
1.0032537
1.0021473
1.0018062
1.0014922
1.0014714
1.0016186
1.0023514
1.1108529
1.0964473
1.0764809
1.0576917
1.0427775
1.0313019
1.0227307
1.0167835
1.0133686
1.0113214
1.0088795
1.0060602
1.0036814
1.0021595
1.0021592
1.0027633
1.0021193
1.000711
1.0004164
1.001293
1.002439
1.0017045
1.0006762
1.0952029
1.0749666
1.0541439
1.0384271
1.028206
1.0209899
1.0151827
1.0110078
1.0082843
1.0062047
1.0041778
1.0028667
1.0024292
1.0016654
1.0008459
1.001062
1.0014804
1.00149
1.0011193
1.0007897
1.0010965
1.001487
1.0012694
1.0781905
1.0559599
1.0385511
1.0271689
1.0199153
1.0145501
1.0098516
1.0059849
1.00385
1.0035167
1.0032397
1.0018022
1.0004164
1.0003286
1.0010921
1.0017034
1.0014524
1.0010875
1.0003938
1.0002834
1.0009934
1.0019298
1.0017941
1.061232
1.0429671
1.0282511
1.0187802
1.0132749
1.0096467
1.0063862
1.003557
1.0017271
1.0012689
1.0016437
1.0014514
1.0005615
1.000235
1.0008043
1.0015453
1.001117
1.0003726
1.0000344
1.0009457
1.0016662
1.0006485
0.99965634
1.0465571
1.032393
1.0214228
1.0136685
1.0083896
1.005005
1.0032154
1.002462
1.0019182
1.0007449
0.9995301
1.0000609
1.0016543
1.0018316
1.0002828
0.99929984
1.000193
1.0016488
1.0012575
0.99980226
0.99960047
1.0007435
1.0015376
1.0375873
1.0248495
1.0143424
1.0085602
1.0062466
1.0046239
1.0021317
0.99995108
0.99975713
1.0010111
1.0014273
1.0003471
0.99959397
1.0003347
1.0011375
1.0004357
0.99944326
0.99989779
1.0008915
1.0007978
0.99986629
0.99952637
1.0001571
1.0300194
1.0204368
1.0122919
1.0064589
1.0032556
1.0022532
1.0018381
1.0008572
0.99972311
0.9996921
1.0006125
1.0008116
0.99981959
0.99924842
1.0000615
1.0005957
0.99987375
0.99941587
0.99998034
1.000384
0.99988727
0.99906792
0.99910612
1.0252531
1.0166181
1.0103675
1.0058729
1.0024483
1.0007064
1.0006299
1.0009777
1.0004116
0.9994057
0.9992569
0.99992101
1.0000572
0.99940966
0.99929203
0.99980551
0.99979982
0.9992741
0.99912819
0.99929955
0.99930513
0.99946092
0.99958977
1.0225944
1.0136601
1.0081295
1.0049927
1.0025282
1.0005692
0.99973429
0.99988417
1.0000166
0.99968253
0.999422
0.99953337
0.99941294
0.99877537
0.99855239
0.99928348
0.99979659
0.99920099
0.99838581
0.99844696
0.99900483
0.99930594
0.99913337
1.0208507
1.0117822
1.0063294
1.0037011
1.0020762
1.0007865
0.99994537
0.99969966
0.9996248
0.99924361
0.99884488
0.99893311
0.99929315
0.99921471
0.99868837
0.99859437
0.99902549
0.99905065
0.99842944
0.99803654
0.99849227
0.9990978
0.99899831
1.018958
1.0105103
1.0054843
1.0030493
1.0017667
1.0008473
1.0000055
0.99940316
0.99916362
0.99913734
0.99904347
0.99891732
0.9990975
0.99939914
0.99929983
0.99882406
0.99848376
0.99861339
0.99884764
0.99877786
0.99855538
0.99835019
0.99816617
1.0168094
1.0095646
1.0054768
1.0031763
1.0015526
1.0004102
0.99974917
0.99945778
0.99935436
0.99940229
0.99953902
0.99977772
0.99994024
0.99992083
0.99987166
0.9997498
0.99952478
0.99939114
0.99931132
0.99912341
0.99881006
0.99837962
0.99818655
1.0154734
1.0086446
1.0049609
1.0029062
1.0014041
1.0005095
1.0001521
1.0000682
1.0001996
1.0004249
1.0008553
1.0017164
1.0023403
1.0022966
1.0021268
1.0017993
1.0015112
1.0013879
1.0010907
1.0005597
0.99978006
0.99889618
0.99849459
1.0141479
1.0079266
1.0047077
1.0027491
1.0013627
1.0008001
1.0011291
1.0021579
1.0032305
1.0038535
1.0044937
1.005241
1.0057337
1.0062661
1.0064535
1.0060492
1.0056
1.0048342
1.0040924
1.0033429
1.0023316
1.0014615
1.0004235
1.0136635
1.0072134
1.003882
1.0025946
1.0023743
1.0034309
1.0052422
1.0068922
1.0080048
1.0086859
1.0093272
1.0103625
1.0114679
1.0119999
1.0119697
1.0113962
1.0106451
1.0101167
1.0095348
1.0086304
1.00715
1.00526
1.0034648
1.0120123
1.0067199
1.0050877
1.0050109
1.0060992
1.0079624
1.0101621
1.012305
1.0138611