/*--------------------------------*- C++ -*----------------------------------*\
| =========                 |                                                 |
| \\      /  F ield         | OpenFOAM: The Open Source CFD Toolbox           |
|  \\    /   O peration     | Version:  2406                                  |
|   \\  /    A nd           | Website:  www.openfoam.com                      |
|    \\/     M anipulation  |                                                 |
\*---------------------------------------------------------------------------*/
FoamFile
{
    version     2.0;
    format      ascii;
    arch        "LSB;label=32;scalar=64";
    class       volVectorField;
    location    "125";
    object      UMean;
}
// * * * * * * * * * * * * * * * * * * * * * * * * * * * * * * * * * * * * * //

dimensions      [0 1 -1 0 0 0 0];

internalField   nonuniform List<vector> 
20580
(
(0.087800897 0.00070719239 6.4996752e-22)
(0.089118724 3.1941196e-05 8.6352044e-22)
(0.096046742 -0.00021482502 8.0346479e-23)
(0.09551508 0.0002308278 -1.9466e-22)
(0.095304992 0.00055248518 -1.3502251e-24)
(0.095502232 0.00061947537 -4.3357968e-23)
(0.09553317 0.00070452053 2.2816561e-22)
(0.095377423 0.00082141451 -8.3323177e-23)
(0.095129085 0.00088537305 -1.2630536e-22)
(0.094822961 0.00085647734 0)
(0.094478319 0.00073496602 -7.5366492e-24)
(0.094108959 0.0005149535 -6.4622269e-22)
(0.093705087 0.0001824195 -1.997805e-22)
(0.093290432 -0.00030086452 2.5517121e-22)
(0.092891555 -0.00090842357 3.6402828e-22)
(0.092522779 -0.0017569763 3.4187039e-22)
(0.092179877 -0.0027574124 7.8149904e-22)
(0.091847711 -0.0039259831 1.7478783e-23)
(0.091583868 -0.0052916361 6.7125175e-22)
(0.091409898 -0.0068868171 -2.9812131e-22)
(0.091406573 -0.0088112109 5.9052569e-24)
(0.09140997 -0.010927064 -1.2534652e-22)
(0.091624046 -0.013312204 -7.3087089e-22)
(0.092388103 -0.016058623 2.1641085e-21)
(0.093558493 -0.019148364 -2.5151481e-21)
(0.094710082 -0.02249939 -2.0298073e-21)
(0.095591054 -0.025869837 3.5881531e-21)
(0.096425296 -0.029259823 5.5837204e-22)
(0.097923289 -0.033078901 -2.1564385e-21)
(0.09969636 -0.037224113 2.8712903e-21)
(0.10207459 -0.041995507 1.0933375e-21)
(0.086919891 0.00064325514 0)
(0.08777269 0.0001035572 5.5720565e-22)
(0.094699201 -0.00023364865 2.1876271e-22)
(0.094531528 0.00012015593 1.3984904e-22)
(0.094578769 0.00045180973 -5.9482004e-23)
(0.094934574 0.00055379395 -2.2730147e-23)
(0.095133418 0.00064393219 1.0679523e-22)
(0.095098941 0.00075937371 -5.0591257e-24)
(0.09494823 0.00083181876 -7.2140492e-23)
(0.09474159 0.00082434004 -1.6092219e-22)
(0.094492988 0.00072297428 3.8978564e-22)
(0.09422016 0.0005255738 -1.7852223e-22)
(0.093929042 0.00022513052 -3.0214721e-22)
(0.09363645 -0.00021349351 -2.1358666e-23)
(0.093322627 -0.00078865993 -6.4170528e-22)
(0.093027027 -0.0015441963 -2.5217248e-23)
(0.092784532 -0.0024739813 -3.7812695e-22)
(0.092581069 -0.0036032946 -7.9071608e-22)
(0.092427352 -0.0049082877 0)
(0.092342526 -0.0064103214 -1.0341922e-21)
(0.092390957 -0.0081682518 0)
(0.092541577 -0.010155201 -1.0773751e-21)
(0.092733852 -0.012325858 1.1730796e-21)
(0.093213402 -0.014720706 -1.481366e-23)
(0.09417892 -0.017507003 -9.3257791e-22)
(0.095483494 -0.02072633 5.9260332e-22)
(0.097187755 -0.02413619 -4.672154e-22)
(0.098843783 -0.027458544 3.9520196e-22)
(0.10026897 -0.030830937 1.4125403e-21)
(0.10176325 -0.033992616 -7.5678914e-22)
(0.10342609 -0.037879551 -6.4718552e-22)
(0.086291515 0.00083631967 0)
(0.086948734 0.00037388166 0)
(0.093320541 -0.00018858447 2.7339663e-22)
(0.093256891 0.00012480822 -5.8326258e-22)
(0.093534531 0.00046905978 -1.2872885e-23)
(0.094067535 0.00055561501 -1.3000129e-23)
(0.094445727 0.00063391917 -1.4369877e-22)
(0.094549819 0.00073592069 -6.5308911e-23)
(0.094531332 0.00079707352 0)
(0.094442354 0.0007808364 -5.2598872e-22)
(0.094309741 0.0006813043 -1.5842123e-22)
(0.094149635 0.00049321544 4.8738202e-22)
(0.093982822 0.00020097854 0)
(0.093819169 -0.00021521084 4.3624477e-23)
(0.093641316 -0.00076779227 -3.3559548e-22)
(0.093434533 -0.0015193173 -7.5446598e-23)
(0.093265581 -0.0024066451 4.39053e-23)
(0.093175987 -0.0034551414 4.2073048e-23)
(0.093133079 -0.0046870483 9.4126414e-22)
(0.093153736 -0.0060978969 0)
(0.09331004 -0.007756807 0)
(0.093599434 -0.0096307191 1.1783135e-21)
(0.093896564 -0.011699071 -1.0919654e-21)
(0.094235224 -0.013953497 -1.218726e-21)
(0.09493718 -0.016396144 -2.2151028e-22)
(0.096141841 -0.019109289 1.5043253e-22)
(0.097810978 -0.022174232 1.9258366e-21)
(0.099749742 -0.025588131 2.6969647e-22)
(0.10201884 -0.028921326 -6.2353669e-22)
(0.10414573 -0.032116278 -3.5836622e-22)
(0.10569368 -0.035075895 6.4383972e-22)
(0.085688151 0.0010105132 0)
(0.08617485 0.0005990205 -3.0320292e-24)
(0.092074815 -0.00027035885 6.8588307e-23)
(0.091838965 7.2113624e-05 3.6694036e-23)
(0.092195164 0.00040821987 7.4948802e-23)
(0.092859012 0.00047876464 -8.2852765e-23)
(0.093434383 0.00055039987 -1.7614645e-22)
(0.093713226 0.00065429022 0)
(0.093861808 0.00071909695 2.7457752e-23)
(0.093913583 0.00071675897 1.3690235e-22)
(0.093896989 0.00063372438 -4.8282694e-22)
(0.093847918 0.00045612961 2.1684574e-22)
(0.093784168 0.00017882132 -1.8771453e-23)
(0.093720536 -0.00021718709 2.580702e-22)
(0.09368028 -0.0007388686 6.2648509e-22)
(0.093651701 -0.0014293972 -3.898445e-23)
(0.093621452 -0.0022766639 -7.3777692e-22)
(0.093633617 -0.0032680539 -1.1142266e-23)
(0.093714823 -0.0044451434 -8.5924169e-24)
(0.093865273 -0.0057737831 -1.8281644e-24)
(0.094115668 -0.0073417109 1.4410137e-23)
(0.094486874 -0.0091225868 9.6853917e-22)
(0.094897302 -0.011078566 -6.6371762e-23)
(0.095384375 -0.013124018 -7.9020002e-22)
(0.096090023 -0.015258976 0)
(0.096931717 -0.017763807 1.7250138e-22)
(0.098098889 -0.020661944 -4.057496e-22)
(0.099966047 -0.02362594 -6.2000163e-22)
(0.10211184 -0.026659218 -5.7136905e-22)
(0.10473114 -0.029856745 -4.0973211e-22)
(0.10694377 -0.033068313 -1.8078587e-22)
(0.085425216 0.0011025205 0)
(0.085741486 0.00078456301 5.9269875e-23)
(0.091268195 -0.000316769 -9.9512804e-22)
(0.090696803 5.7176386e-05 3.5536901e-22)
(0.090908117 0.00038974363 7.8969956e-24)
(0.091540853 0.0004444981 -1.2129523e-22)
(0.092123796 0.00051351113 0)
(0.092563581 0.00061312103 9.3517087e-23)
(0.092872504 0.00067844643 1.0453712e-22)
(0.093075305 0.00067411838 2.5044687e-22)
(0.093200397 0.00059343265 -2.8544639e-22)
(0.093282241 0.00042975945 1.3224123e-24)
(0.093323492 0.0001775851 2.3014886e-22)
(0.093364415 -0.00019467244 -2.3039241e-22)
(0.093436749 -0.00068436281 3.0640138e-22)
(0.093546828 -0.0013378083 3.5437871e-22)
(0.093678523 -0.0021237222 -6.3466818e-22)
(0.093840778 -0.0030601228 7.1900805e-22)
(0.094081172 -0.0041742484 -8.7445089e-22)
(0.094384952 -0.0054344624 0)
(0.094759899 -0.0068975965 1.8311567e-23)
(0.095256142 -0.0085659689 5.734836e-23)
(0.095875301 -0.010422745 1.0092527e-21)
(0.096560104 -0.012373171 -1.6209877e-22)
(0.097350433 -0.014341907 0)
(0.098350363 -0.016355591 6.6273097e-22)
(0.099405551 -0.018653448 -3.1979925e-22)
(0.10069067 -0.021515446 5.4220519e-22)
(0.10245993 -0.024584115 -3.7693902e-22)
(0.10462859 -0.027476384 1.1999508e-22)
(0.10752139 -0.030842263 -2.5127007e-22)
(0.085494971 0.0013198872 -1.7348661e-21)
(0.085428607 0.00093229572 7.9426357e-25)
(0.090721636 -0.00035588052 3.8553646e-24)
(0.0899019 -2.4107432e-05 -8.0566488e-23)
(0.089867786 0.00033591455 5.6525625e-23)
(0.09035427 0.00039072332 2.1349345e-24)
(0.090856971 0.0004673943 6.5175222e-23)
(0.091232157 0.00056640184 -9.3710529e-24)
(0.091581548 0.00062988803 1.4851348e-22)
(0.091866795 0.0006275899 -2.9318448e-22)
(0.092113586 0.00055452054 -2.8926611e-22)
(0.092343636 0.0004009757 -2.4465618e-22)
(0.092533221 0.00015741815 2.2178578e-22)
(0.092709219 -0.00018309661 -2.1636296e-22)
(0.092908555 -0.00062930068 2.3080014e-22)
(0.093157205 -0.0012198167 1.1999765e-23)
(0.09343201 -0.0019429166 -5.8401051e-22)
(0.093744245 -0.0028179598 6.5092499e-22)
(0.094156849 -0.0038517057 -3.4271277e-25)
(0.094636581 -0.0050449718 0)
(0.0951702 -0.0064126178 2.4578752e-23)
(0.095867471 -0.0079642853 -1.9580097e-21)
(0.096716016 -0.0096596568 -1.2657906e-21)
(0.097610136 -0.011528954 0)
(0.098636039 -0.013501449 1.23161e-21)
(0.09971281 -0.015591588 -8.9748355e-22)
(0.1008904 -0.017673543 4.2450014e-22)
(0.10213561 -0.019656449 3.8575546e-22)
(0.10367788 -0.021876017 2.867136e-22)
(0.10528534 -0.024289411 1.2445185e-21)
(0.10756202 -0.027531704 -4.9134668e-22)
(0.086688895 0.0014671061 -8.3506591e-22)
(0.085437999 0.0011511088 -6.1078153e-23)
(0.09029274 -0.00032857092 3.1302122e-23)
(0.089231658 -2.329335e-05 -7.0179042e-23)
(0.088962645 0.00034557117 6.2532245e-23)
(0.08930643 0.0004017241 1.1340451e-22)
(0.089655678 0.00045308473 -2.1183428e-22)
(0.089900976 0.00053082626 -2.4557159e-24)
(0.090163399 0.00058216337 2.8798835e-23)
(0.090436076 0.00057659954 1.4346087e-22)
(0.090709973 0.00051435981 -3.1849249e-23)
(0.091009826 0.00037387298 -4.6572261e-23)
(0.091326184 0.00014512842 -2.0285225e-22)
(0.091651622 -0.00016969362 -1.8208851e-24)
(0.092007137 -0.00057933828 -2.4492785e-22)
(0.092426028 -0.0011401686 5.015344e-23)
(0.092839366 -0.0018226103 1.6599743e-24)
(0.09328287 -0.0026224638 -1.1819404e-21)
(0.093831526 -0.0035793583 0)
(0.094466445 -0.0046773003 -6.9536164e-22)
(0.095167269 -0.0059252076 -3.2132199e-23)
(0.096023008 -0.0073396115 -7.7511484e-22)
(0.09701828 -0.0089540969 1.0061855e-22)
(0.09806521 -0.010712522 1.2781681e-22)
(0.099206165 -0.012577481 2.4491903e-22)
(0.10052328 -0.014595629 -7.7894633e-23)
(0.10217071 -0.016637911 1.3461477e-21)
(0.10387497 -0.018644421 -9.7664017e-23)
(0.10553956 -0.020597725 -1.905687e-22)
(0.10723048 -0.022370618 -2.1964547e-22)
(0.10884944 -0.024630752 -6.1027387e-22)
(0.091259709 0.0020418472 3.4414265e-21)
(0.086196372 0.0012909093 0)
(0.090485548 -0.00041536332 2.9046977e-21)
(0.08909938 -5.5606364e-05 1.8393732e-23)
(0.088492181 0.00030070695 -1.5704119e-22)
(0.088570223 0.0003366677 1.4028114e-23)
(0.088654457 0.00037994943 -1.1018001e-22)
(0.088698948 0.00046320112 -3.0402942e-23)
(0.088809107 0.00052177025 -9.8766358e-23)
(0.088970188 0.00052296719 3.7440297e-22)
(0.089176822 0.00047308486 3.1054716e-22)
(0.089437937 0.0003531652 -2.9374892e-23)
(0.089767822 0.00014878836 -1.8094713e-22)
(0.090158297 -0.0001304312 -4.2189757e-22)
(0.09061417 -0.00049803937 4.3079349e-22)
(0.091196851 -0.0010142732 5.0526493e-22)
(0.091808093 -0.0016715058 5.462612e-22)
(0.092406698 -0.0024043756 -5.3918196e-22)
(0.093098448 -0.003287868 -8.2604581e-25)
(0.093888908 -0.004306952 8.6161487e-24)
(0.094715693 -0.0054749934 3.588856e-23)
(0.095614025 -0.0068089053 -8.2397777e-24)
(0.096688147 -0.0083226099 0)
(0.097967066 -0.0099241088 7.6555843e-23)
(0.099312412 -0.011533197 -1.0673981e-22)
(0.10071711 -0.013247543 7.8836879e-22)
(0.10224402 -0.015184816 -3.2188747e-22)
(0.10400913 -0.017294974 -7.9955914e-22)
(0.1060276 -0.019334237 -8.9950552e-22)
(0.10836353 -0.021322079 6.428212e-22)
(0.11025787 -0.023363636 5.2638603e-22)
(0.10186272 0.0024570845 5.7736191e-22)
(0.088677591 0.0014220414 -4.2341007e-25)
(0.091748178 -0.00038548252 1.1228074e-21)
(0.089820537 6.794235e-06 -1.5587488e-22)
(0.088782511 0.00032892144 3.7672021e-23)
(0.088536074 0.00031268201 1.845718e-23)
(0.088323794 0.00035329383 1.3781373e-22)
(0.088092076 0.00042839275 -1.1492539e-24)
(0.087915291 0.00047723739 -8.125851e-23)
(0.087827907 0.00047717113 -1.2077483e-22)
(0.087822545 0.00042515649 4.7723896e-22)
(0.087934346 0.00031332621 0)
(0.088153461 0.00013977336 3.4240556e-23)
(0.088475028 -0.00012330731 -5.0946765e-23)
(0.088916352 -0.00044863276 3.5803832e-22)
(0.089466412 -0.00087579586 -4.2210311e-22)
(0.09019899 -0.001476057 5.215101e-23)
(0.09099696 -0.0021791222 5.2139643e-22)
(0.091873151 -0.0029761086 5.2577619e-22)
(0.092859038 -0.0039040258 4.8152988e-22)
(0.093890851 -0.0049753391 5.0676012e-22)
(0.094989796 -0.0062047942 1.7137146e-23)
(0.096207236 -0.0075281011 1.2610953e-22)
(0.097618467 -0.0089977884 9.1426182e-23)
(0.099136882 -0.010576907 1.1737423e-22)
(0.10069228 -0.012217756 -4.6833244e-22)
(0.1023014 -0.01395116 1.262154e-22)
(0.10402586 -0.015782436 -1.7341957e-22)
(0.10597345 -0.017687421 8.2505009e-22)
(0.10804203 -0.019567854 6.9283669e-22)
(0.1105955 -0.021951496 -1.8091945e-21)
(0.11336723 0.0026398481 -5.448934e-21)
(0.094615858 0.00076072654 -2.5945779e-24)
(0.095590659 -0.00048678468 -2.3128223e-21)
(0.092743002 -7.5352112e-05 6.595985e-22)
(0.090543483 0.00029608734 -2.8664004e-24)
(0.089544679 0.00029682615 0)
(0.088853587 0.00032109793 4.8002958e-23)
(0.088301444 0.00038395302 -1.5494664e-22)
(0.087843187 0.00043037364 6.3137502e-23)
(0.087481768 0.00043163404 -1.4296999e-22)
(0.087210958 0.0003963419 1.7794852e-24)
(0.087061983 0.00030334313 1.447427e-23)
(0.087043392 0.0001451102 0)
(0.087163273 -8.2032645e-05 3.2872109e-22)
(0.087433705 -0.00037756017 -1.7480464e-22)
(0.087839794 -0.00075596435 2.7205236e-23)
(0.088465347 -0.001244525 4.0083378e-22)
(0.089257688 -0.0018753813 4.6755659e-22)
(0.090203324 -0.0026280011 4.3291232e-22)
(0.091325445 -0.0034778897 4.1269088e-22)
(0.092572375 -0.0044589888 4.6946139e-22)
(0.093922525 -0.0055234381 4.1846833e-22)
(0.095347133 -0.0066365608 3.8492928e-22)
(0.096871825 -0.0079030063 5.0067513e-22)
(0.098495588 -0.009337168 -7.3900181e-22)
(0.10029461 -0.010840902 1.9169123e-22)
(0.10222997 -0.012299695 -4.4708245e-23)
(0.10415394 -0.01387091 -4.7117695e-22)
(0.1061941 -0.015633638 -6.1141844e-22)
(0.10803778 -0.017318076 1.0888585e-22)
(0.11039548 -0.01954822 9.631983e-22)
(0.11385005 0.001900749 9.0371726e-22)
(0.099963194 0.00037287352 -3.7004267e-24)
(0.10070668 -0.00046764547 -4.4183477e-22)
(0.097773002 4.6521034e-07 -6.1913786e-23)
(0.094781265 0.00030646937 8.0054026e-24)
(0.092557818 0.00031069429 4.0098724e-22)
(0.090949197 0.00033778056 5.6070057e-23)
(0.089785031 0.00037757677 -7.5070831e-24)
(0.088891006 0.00039630484 4.6934309e-23)
(0.088196743 0.00038048574 1.5445079e-22)
(0.087630511 0.00034111658 -1.4530416e-22)
(0.087194705 0.00026145267 1.3342915e-22)
(0.086899118 0.00012755416 0)
(0.086746479 -7.2066159e-05 -3.1086153e-23)
(0.086747053 -0.00032960163 -3.7088169e-22)
(0.086910693 -0.00065929978 -2.1770883e-24)
(0.087267074 -0.0010776987 1.6831714e-23)
(0.08784124 -0.0015935242 -5.4190055e-25)
(0.088631325 -0.0022414934 7.273029e-24)
(0.089696174 -0.0029786846 -4.2535863e-24)
(0.091022857 -0.0038569307 -5.382978e-22)
(0.092510606 -0.0048395693 4.9648929e-22)
(0.094154608 -0.0058554979 1.1957934e-22)
(0.095886052 -0.0069641011 -3.9367195e-22)
(0.097670978 -0.0082395011 -3.3804849e-22)
(0.099508512 -0.0096453355 2.6260975e-22)
(0.1015216 -0.011012597 -4.7949462e-22)
(0.10368291 -0.012271964 -6.2146949e-22)
(0.10598986 -0.013638779 8.6040803e-22)
(0.10820708 -0.014957291 6.9667262e-22)
(0.11029844 -0.016621773 -8.486843e-22)
(0.10862919 0.0017780168 9.4947764e-21)
(0.10218535 -0.00020226455 0)
(0.1045405 -0.00075165019 2.025222e-22)
(0.10237139 -3.6506768e-05 -1.5076337e-21)
(0.10005596 0.00020998381 -2.4213149e-22)
(0.097912345 0.00017569648 1.0584031e-22)
(0.095723794 0.0002544613 2.5748469e-23)
(0.093697144 0.0003464125 3.4911935e-24)
(0.091988219 0.00039058103 -7.7043951e-23)
(0.090648012 0.00038541591 1.4230734e-22)
(0.08955662 0.00034274746 1.2918425e-22)
(0.088682539 0.00026078833 1.709339e-24)
(0.08802057 0.00012281126 -2.3571279e-22)
(0.087589362 -5.2984431e-05 0)
(0.08730211 -0.00025817754 -3.0537088e-22)
(0.087202898 -0.00053124767 -2.5318794e-22)
(0.087263845 -0.00092756659 -3.4374664e-22)
(0.087506267 -0.0014028075 3.6944712e-22)
(0.087965255 -0.0019408178 -6.5164982e-25)
(0.08867877 -0.002556238 -2.9754712e-22)
(0.089688347 -0.0033058213 -3.6511014e-22)
(0.091004861 -0.0041794685 -1.3796893e-23)
(0.092587644 -0.0051755897 -5.4285913e-22)
(0.094391932 -0.0062440116 -3.9263928e-22)
(0.096332257 -0.0074008429 4.6077367e-22)
(0.098290148 -0.0086360533 -3.014489e-22)
(0.10032767 -0.0099251731 9.5853332e-22)
(0.10251737 -0.011187104 -5.0927433e-23)
(0.10492581 -0.012454768 -1.5069698e-22)
(0.10756259 -0.013736147 -5.7620193e-23)
(0.11028722 -0.015196058 -1.1385725e-22)
(0.098550423 0.0012665121 -2.5905277e-22)
(0.09983873 0.00015409737 9.6437354e-22)
(0.10431541 -0.00082009164 9.145367e-23)
(0.10290313 -9.3074932e-06 1.8223351e-23)
(0.10200129 0.00018109362 1.7064474e-23)
(0.10132333 8.2531947e-05 -5.9038952e-22)
(0.10027826 0.00014614298 -1.3142707e-22)
(0.098797143 0.00020560862 4.5513198e-24)
(0.097125169 0.00025360732 -3.7081422e-23)
(0.095477393 0.0002519676 -1.4224063e-22)
(0.09391246 0.00023440743 1.5561909e-23)
(0.092500342 0.0001805325 -8.5951224e-23)
(0.09128841 7.8853966e-05 -2.4899999e-24)
(0.090353389 -7.9145174e-05 -2.669588e-23)
(0.089591631 -0.00028265506 0)
(0.089016053 -0.00052598536 0)
(0.088708876 -0.00084273993 3.0750327e-22)
(0.088644347 -0.0012570685 -8.2686641e-24)
(0.08878714 -0.0017439466 -2.559922e-22)
(0.089130905 -0.0023008274 -2.5626515e-23)
(0.089676265 -0.0029598943 -2.6256288e-22)
(0.090481537 -0.0037118165 -2.5589801e-22)
(0.091574159 -0.0045628673 0)
(0.092990655 -0.0054969483 0)
(0.094736452 -0.0065114751 0)
(0.096646015 -0.0075542578 3.8359188e-22)
(0.09865661 -0.0087041951 -3.5736052e-23)
(0.10073725 -0.0099657441 -5.8930354e-23)
(0.10301283 -0.011289912 2.3232944e-22)
(0.10530925 -0.012454439 -3.1047431e-22)
(0.1083185 -0.014124964 3.9933263e-22)
(0.092010962 0.0016410044 -1.1641502e-21)
(0.093616354 6.9710092e-06 2.0764659e-23)
(0.10095951 -0.0010150793 -2.6872583e-23)
(0.1006302 -0.00016623313 1.6824735e-21)
(0.10076821 9.971021e-05 0)
(0.10086397 4.4641509e-05 1.2567603e-23)
(0.10060865 0.00011724976 -8.517907e-23)
(0.10015473 0.00015989319 8.2144615e-23)
(0.099554916 0.00019866108 1.3732103e-23)
(0.098822316 0.00019362123 2.437541e-22)
(0.097933199 0.00016882275 -1.3490538e-22)
(0.096904931 0.00011042686 0)
(0.095803824 1.6998936e-05 6.5720967e-22)
(0.094738497 -0.00010608527 2.6522874e-22)
(0.09382155 -0.00028620008 2.8098869e-22)
(0.093012107 -0.00049738497 -2.3126331e-23)
(0.092292097 -0.000759428 2.4393941e-22)
(0.091834362 -0.0010808103 5.3712039e-24)
(0.091593198 -0.0015017701 -2.1395348e-22)
(0.091535558 -0.0019796567 -3.1825288e-23)
(0.091660275 -0.0025635445 8.5829359e-24)
(0.092036556 -0.0032430382 1.8229602e-22)
(0.092669802 -0.003971993 1.6661293e-23)
(0.093569071 -0.0047628067 0)
(0.094766776 -0.0056607791 1.3327611e-22)
(0.096232135 -0.0066420279 -1.5154024e-22)
(0.097944434 -0.0075765652 4.032443e-22)
(0.099793949 -0.0085071461 -2.1600245e-22)
(0.10197426 -0.0095695528 3.7330253e-23)
(0.10398152 -0.010504999 2.4952863e-22)
(0.10661739 -0.01205926 2.1272978e-22)
(0.091729959 0.001471653 2.0488887e-21)
(0.091614048 0.00054291794 -4.4037355e-22)
(0.097069886 -0.00084429039 -8.5076843e-25)
(0.096563659 -0.00015649298 -1.1547785e-21)
(0.097147859 2.5925685e-05 1.3303081e-22)
(0.098126817 -4.1803661e-05 2.2792303e-24)
(0.098582368 9.2626747e-06 2.1129912e-22)
(0.098763404 3.403676e-05 -1.2197155e-22)
(0.098708978 7.6184918e-05 -3.910069e-23)
(0.09855501 6.0434974e-05 6.1584992e-24)
(0.098321483 3.3178925e-05 1.6171648e-22)
(0.098021167 -2.8425481e-05 -3.1256244e-23)
(0.097669175 -0.00012354061 -2.8878618e-23)
(0.097272236 -0.00024434616 -8.9870826e-25)
(0.096852454 -0.00039679841 3.0714986e-22)
(0.096484914 -0.00057012511 -2.3067527e-24)
(0.096084811 -0.00082836359 -2.4769346e-22)
(0.09576864 -0.0011030615 1.4388323e-24)
(0.095563793 -0.0014288146 -1.3660117e-23)
(0.095478989 -0.0018008967 0)
(0.095494187 -0.0022341569 2.4217094e-22)
(0.095646399 -0.0027240445 3.4765171e-23)
(0.095992819 -0.0032586876 -1.1927064e-22)
(0.096561524 -0.003842517 -8.5036782e-23)
(0.097355652 -0.0045462807 1.0383861e-22)
(0.098358705 -0.0053821279 2.3802796e-22)
(0.099573519 -0.0062819704 -8.8661978e-23)
(0.10097967 -0.0071231769 -2.3584432e-23)
(0.10270405 -0.0080268098 -2.9044617e-22)
(0.10451432 -0.00877389 -1.9658527e-22)
(0.10618908 -0.0099822771 2.8210918e-22)
(0.10406957 0.0021702456 3.5364337e-21)
(0.094262617 0.00025157527 1.6999313e-24)
(0.097595311 -0.0011367191 1.9891497e-21)
(0.096043016 -8.3560395e-05 -7.007099e-23)
(0.09578426 0.00014077005 3.1694739e-23)
(0.096005677 1.3872254e-05 -1.3762568e-22)
(0.096165513 7.3823674e-05 0)
(0.096364315 0.00010198935 -1.1735442e-23)
(0.096522217 0.00012060509 2.2811403e-24)
(0.096651585 9.0979059e-05 -3.678617e-22)
(0.096734908 7.1386311e-05 2.0350122e-24)
(0.096788783 1.7374789e-05 1.3804421e-23)
(0.096813972 -7.1343472e-05 -3.1551068e-22)
(0.096831553 -0.00016766225 -2.4410923e-22)
(0.096873759 -0.00029747093 -2.3003644e-22)
(0.096941098 -0.0004736493 2.093479e-23)
(0.097055428 -0.0006692981 2.1481204e-24)
(0.097230375 -0.00090152336 1.5029603e-24)
(0.097492555 -0.0012044924 0)
(0.097869099 -0.0015635736 2.4052422e-22)
(0.098279733 -0.0019215976 1.644312e-22)
(0.098713063 -0.0023314596 5.718571e-23)
(0.099236387 -0.0028164088 3.5437177e-23)
(0.099883188 -0.0033577027 -8.0210553e-23)
(0.1006846 -0.0039409834 -2.0294209e-22)
(0.10158338 -0.0045778157 7.7154582e-23)
(0.10260409 -0.0052779432 5.3210773e-22)
(0.10378949 -0.0059480952 -1.881081e-22)
(0.10514478 -0.0066038389 -9.4897116e-23)
(0.10683023 -0.0072483385 -2.3598072e-22)
(0.10800794 -0.0081166781 -4.8346778e-23)
(0.097173131 0.0013863909 3.6364465e-21)
(0.094866472 0.0002946521 -8.0152758e-25)
(0.098245612 -0.0012431055 1.8635442e-23)
(0.096536627 -9.8297727e-05 2.2102096e-21)
(0.096173034 2.092505e-05 -5.9228666e-24)
(0.096096299 -0.0001500389 -4.740885e-22)
(0.095894577 -6.0248207e-05 0)
(0.095717184 -5.4253559e-05 0)
(0.095589264 3.3098029e-06 -8.4322519e-23)
(0.095499795 -2.18059e-05 0)
(0.095434992 -3.2969641e-05 -2.6657735e-22)
(0.095437138 -8.417489e-05 2.6275562e-22)
(0.09549131 -0.00017628903 0)
(0.095585797 -0.00026917418 -4.7637801e-22)
(0.095737935 -0.0003752211 -1.9912499e-22)
(0.09596268 -0.00048040271 -2.4327176e-22)
(0.09625346 -0.00066460849 -1.9160175e-23)
(0.096629094 -0.0008838224 7.232701e-24)
(0.097123219 -0.0011174128 1.6828979e-22)
(0.097788735 -0.0014127333 2.5705913e-22)
(0.098568789 -0.0017371022 -1.7606156e-22)
(0.099394527 -0.0020702722 2.771333e-24)
(0.1003049 -0.0024695109 -1.3133023e-22)
(0.10131787 -0.0029474662 3.3994768e-23)
(0.1024765 -0.003449556 2.3142277e-22)
(0.10370401 -0.0039309671 -5.2733793e-23)
(0.10492488 -0.0044626653 -4.0051101e-22)
(0.10613005 -0.0051242963 2.166356e-22)
(0.10742037 -0.0058360799 5.8702092e-23)
(0.10906286 -0.0065955425 -3.017769e-22)
(0.11053053 -0.0072736374 6.047225e-22)
(0.092902927 0.0020746236 2.3184699e-21)
(0.093184617 0.0002842333 4.7517086e-24)
(0.097470828 -0.0013062666 -2.7677498e-21)
(0.095960307 8.4059658e-05 -3.1459361e-21)
(0.095844464 0.00017231297 1.7860104e-22)
(0.095857256 3.85589e-05 1.4270496e-23)
(0.095706015 9.5937042e-05 -1.8511004e-23)
(0.09552949 6.6333464e-05 -2.602515e-22)
(0.095373415 9.1833435e-05 2.1933701e-22)
(0.095235309 5.0693284e-05 1.6102106e-22)
(0.095096213 4.8018508e-05 4.0131591e-23)
(0.094998156 1.4962054e-06 -2.3304456e-23)
(0.094954294 -7.1950277e-05 3.3688648e-22)
(0.094972688 -0.00015185737 -2.5314107e-22)
(0.095063732 -0.00025950594 -2.3435809e-22)
(0.095266513 -0.00034454423 -1.2889079e-22)
(0.095518344 -0.00046919727 -1.8795257e-22)
(0.095825676 -0.00064370196 -1.2195813e-22)
(0.096269587 -0.00086559604 7.8856853e-24)
(0.096872812 -0.0011082076 -1.8071942e-22)
(0.097610477 -0.0013985832 -1.1850856e-22)
(0.098458961 -0.0017197137 1.1900182e-22)
(0.099457537 -0.0020881116 1.1749914e-23)
(0.10056917 -0.0025410156 -8.0200142e-25)
(0.10180191 -0.0030335239 -2.8904876e-24)
(0.10324297 -0.003496415 2.5885705e-23)
(0.10485968 -0.0039599371 1.7994896e-23)
(0.10654839 -0.0044751204 -6.8694166e-22)
(0.10820745 -0.005004835 -7.7483178e-22)
(0.10985605 -0.0056112965 9.9817506e-23)
(0.11163517 -0.0064020707 1.2311966e-21)
(0.097715532 0.0016981426 -4.0874072e-21)
(0.094174253 0.00067550727 1.3452666e-24)
(0.097298159 -0.0014921645 8.3688985e-23)
(0.095631871 -0.00018867207 -8.5206574e-23)
(0.095556141 -6.2864177e-05 -6.5586543e-23)
(0.095552814 -0.00021045243 7.1415574e-22)
(0.095421443 -6.1422835e-05 6.3257719e-24)
(0.095277852 -0.000117352 1.1558558e-22)
(0.095156369 -2.4077584e-05 1.0591291e-23)
(0.095051878 -0.00011934702 2.5977116e-23)
(0.094937951 -0.00011341713 2.3125515e-22)
(0.094869783 -0.00015452914 -5.4210724e-22)
(0.094847268 -0.00022283338 3.4071126e-23)
(0.09488013 -0.00026972696 2.7225195e-22)
(0.09496262 -0.00035451865 1.1664476e-24)
(0.095119651 -0.00040737618 1.3748644e-22)
(0.095352816 -0.00054693622 1.4924657e-22)
(0.095689751 -0.00070315714 0)
(0.096143622 -0.00085774682 1.3384317e-24)
(0.096674262 -0.0010824328 7.3155031e-25)
(0.097320449 -0.001380949 2.0335434e-23)
(0.098099474 -0.0016793791 -2.1001093e-23)
(0.099028874 -0.0019890242 -7.8969616e-23)
(0.1001139 -0.0023150924 9.7731179e-23)
(0.10130509 -0.0027035448 1.3852277e-22)
(0.10261781 -0.0031586952 -1.5904731e-22)
(0.10409074 -0.0036128115 1.7476944e-22)
(0.10576522 -0.0040107283 5.3345418e-22)
(0.10759804 -0.0043589097 -1.4981428e-21)
(0.10945983 -0.0047157564 -1.0433488e-21)
(0.11144142 -0.0051955426 -1.3360547e-21)
(0.098912163 0.0024552116 -2.4573455e-21)
(0.096566713 -0.00019189461 5.2732907e-22)
(0.099187098 -0.0017287914 -1.9469529e-21)
(0.097157781 0.000108026 7.0025817e-21)
(0.096851458 7.4205337e-05 -1.0323072e-23)
(0.096575981 -7.4532983e-05 1.7098079e-24)
(0.096263861 4.4670324e-05 1.0797026e-24)
(0.095981637 2.6151253e-05 1.4912557e-22)
(0.095735108 8.0287216e-05 -7.4208084e-23)
(0.095538518 4.9976951e-05 -9.4468941e-23)
(0.095333596 7.6843057e-05 1.3093231e-22)
(0.095210771 3.7089843e-05 -3.2060574e-24)
(0.095140604 -1.3024064e-05 8.1044393e-23)
(0.095140618 -7.1108501e-05 -2.991756e-24)
(0.095204137 -0.00015320157 4.2129369e-22)
(0.095287871 -0.000190487 -9.3335868e-23)
(0.095562009 -0.00023084862 1.3701357e-24)
(0.095905772 -0.00029496379 -7.4934219e-25)
(0.096375252 -0.00039627077 8.7926177e-23)
(0.096946158 -0.00052245547 -7.7725857e-23)
(0.097632102 -0.00068902404 -2.2810111e-23)
(0.098453613 -0.00085618634 5.9145445e-23)
(0.099401591 -0.0010613289 -5.474289e-23)
(0.10048857 -0.0012734015 3.4418387e-22)
(0.10168529 -0.0015301047 2.106753e-22)
(0.10304596 -0.0018344756 -2.8736109e-22)
(0.10453376 -0.002179988 -1.1858973e-21)
(0.10616482 -0.0025042859 4.3714511e-22)
(0.10785877 -0.0028240512 -2.5346303e-22)
(0.10962438 -0.0031193625 8.5999539e-22)
(0.11127634 -0.0034164218 6.6873374e-22)
(0.10611411 0.0017570063 1.3897546e-21)
(0.099759403 0.0011279562 8.6759595e-25)
(0.10186921 -0.0022708227 -1.4301499e-22)
(0.099796485 -0.00016152815 -9.923552e-23)
(0.099595547 -0.00010388941 2.3709061e-24)
(0.099151222 -0.00037137821 1.9224145e-23)
(0.098657759 -9.9417804e-05 -9.460938e-25)
(0.098206046 -0.00029995123 -1.2920944e-23)
(0.097846582 -4.2501494e-05 1.2964588e-24)
(0.097510829 -0.00025215104 -1.519848e-23)
(0.097189948 -0.00013994914 4.2044167e-24)
(0.096947381 -0.00017129025 5.7117578e-22)
(0.096767915 -0.00020351511 -1.392828e-22)
(0.096666189 -0.00017521498 7.4911819e-24)
(0.096601186 -0.00026966716 3.4235602e-23)
(0.096580993 -0.00026472317 1.8647398e-23)
(0.096766426 -0.00033750241 -3.0388754e-23)
(0.097045911 -0.00037025832 -4.8411401e-24)
(0.097468402 -0.00040754369 -6.590666e-23)
(0.098004825 -0.0004663678 5.4239768e-24)
(0.098648249 -0.00058416275 3.1418623e-23)
(0.099410867 -0.00069009402 -1.2553531e-25)
(0.10030109 -0.00083619922 -1.1764762e-22)
(0.10131834 -0.00098949127 1.2545174e-23)
(0.10245986 -0.0011716611 1.3399719e-22)
(0.10375711 -0.0013710604 7.0493801e-22)
(0.10518232 -0.0016433154 -2.2609868e-22)
(0.10671199 -0.0018966639 -7.6981713e-22)
(0.10828596 -0.0021656611 -4.0260349e-22)
(0.11010826 -0.002414687 -1.0376755e-21)
(0.11163518 -0.0027739361 1.148998e-21)
(0.1119472 0.0024407005 1.5458144e-21)
(0.097267672 -0.00092980972 -1.4410602e-21)
(0.10095603 -0.0017112486 1.1738538e-21)
(0.099488228 0.00023613747 -3.5392913e-21)
(0.10001525 -6.9493932e-05 -2.7287791e-21)
(0.10032018 -7.2647624e-05 2.8220428e-22)
(0.10039921 4.9042554e-05 -5.673945e-22)
(0.1004054 6.8241675e-06 1.7107788e-24)
(0.10048144 5.23149e-05 -2.1115844e-22)
(0.10045239 2.838808e-05 -4.8843335e-22)
(0.10041582 4.6584802e-05 -5.4289581e-22)
(0.10040361 6.332375e-06 3.1146866e-23)
(0.10041326 -2.9027409e-05 -4.9231225e-22)
(0.10045502 -7.2453331e-05 7.804998e-22)
(0.10049985 -0.00015465687 -2.2689317e-23)
(0.10058798 -1.8003221e-05 8.1910243e-23)
(0.1008351 -3.4054479e-05 6.7855928e-25)
(0.10111409 -2.8484166e-05 1.1709261e-22)
(0.10153285 -6.138511e-05 1.6944653e-24)
(0.10206483 -0.00010050748 -4.0003699e-23)
(0.10265242 -0.00013758178 -4.4223749e-23)
(0.10335778 -0.00016924026 -3.5598424e-24)
(0.10416829 -0.00021588491 -5.1295124e-23)
(0.10508571 -0.00025837221 -1.4145551e-22)
(0.10612908 -0.00031279144 8.9009393e-23)
(0.10729156 -0.00038454101 -2.6613902e-22)
(0.10862058 -0.00052045444 1.9868483e-22)
(0.11010796 -0.0006815187 0)
(0.11163544 -0.0008141978 -8.4176681e-23)
(0.11324336 -0.0010044267 -5.135726e-22)
(0.11469023 -0.0010348989 -2.982441e-22)
(0.10203903 0.00077583878 -3.6979477e-21)
(0.060416875 0.00018777303 0)
(0.11201665 -0.0029325946 4.3177283e-23)
(0.11122388 4.3753633e-05 -4.5956807e-22)
(0.10606237 -6.782126e-05 -5.1554612e-22)
(0.1138349 -0.00033437916 1.5872761e-23)
(0.10987902 4.612486e-05 -8.7261553e-22)
(0.11321416 -0.00030874369 -7.1766875e-23)
(0.11247664 0.00013418177 -2.8796099e-22)
(0.1120494 -0.0003126255 -4.108839e-23)
(0.11434224 3.666195e-06 -3.512895e-23)
(0.11168912 -0.00011546329 -3.1810784e-22)
(0.11511001 -0.00010044485 2.321826e-22)
(0.1123886 -1.716509e-05 6.9416547e-22)
(0.11561422 -0.00021709363 2.5934789e-22)
(0.11470139 -6.6785149e-05 1.4028935e-23)
(0.11583311 -0.00011539064 1.2532326e-23)
(0.11561263 -7.4315483e-05 -3.215363e-23)
(0.11602363 -5.2714483e-05 -2.8723515e-23)
(0.11603159 -7.2127993e-05 4.2229784e-24)
(0.11662654 -0.00015968909 -2.5231867e-22)
(0.11703552 -0.00016761601 4.9087967e-23)
(0.11773889 -0.00025070433 9.6753312e-23)
(0.11844773 -0.00025718744 -2.6671796e-22)