/*--------------------------------*- C++ -*----------------------------------*\
| =========                 |                                                 |
| \\      /  F ield         | OpenFOAM: The Open Source CFD Toolbox           |
|  \\    /   O peration     | Version:  2406                                  |
|   \\  /    A nd           | Website:  www.openfoam.com                      |
|    \\/     M anipulation  |                                                 |
\*---------------------------------------------------------------------------*/
FoamFile
{
    version     2.0;
    format      ascii;
    arch        "LSB;label=32;scalar=64";
    class       volScalarField;
    location    "170";
    object      omega;
}
// * * * * * * * * * * * * * * * * * * * * * * * * * * * * * * * * * * * * * //

dimensions      [0 0 -1 0 0 0 0];

internalField   nonuniform List<scalar> 
20580
(
3.5671461
2.6908904
2.1762845
1.8242917
1.5758709
1.3917876
1.2492065
1.136953
1.0467081
0.97090332
0.90798609
0.85377186
0.8085556
0.7683533
0.73327459
0.70515008
0.67854057
0.66002928
0.6400548
0.62595827
0.61295329
0.59881535
0.588476
0.5835082
0.58221466
0.58278941
0.58345773
0.57168062
0.5670673
0.57882559
0.59572648
3.5811331
2.6905204
2.1878729
1.8406485
1.5896061
1.4006234
1.255235
1.1417782
1.0512166
0.97489699
0.91147164
0.85748083
0.81175903
0.77221947
0.73610994
0.70769771
0.68204075
0.6623065
0.64568133
0.62979453
0.61834371
0.60850205
0.59428566
0.59388132
0.59662781
0.60533857
0.615568
0.62499502
0.62054424
0.61907398
0.6119725
3.5872764
2.6860299
2.1881811
1.8551079
1.6087085
1.4188478
1.2688977
1.1517457
1.0586288
0.98112207
0.91643963
0.86244535
0.81558173
0.7758429
0.7402657
0.70950087
0.68499256
0.66264239
0.64727875
0.63062117
0.61701379
0.61064137
0.59545349
0.59323783
0.59522585
0.60531867
0.61651786
0.62777177
0.63355983
0.65509155
0.65793228
3.5958423
2.6759845
2.1819746
1.8561686
1.6209324
1.4388813
1.2932844
1.1734425
1.0762116
0.99555739
0.92874611
0.87290775
0.82476714
0.78180873
0.74779728
0.71298315
0.68875171
0.66452453
0.64857922
0.63267901
0.61630271
0.61080674
0.59724938
0.59217281
0.59404903
0.60348228
0.61855985
0.63153046
0.63580555
0.64786615
0.66679953
3.6130085
2.6739298
2.1636268
1.8483192
1.6214743
1.4494519
1.3111949
1.1958716
1.0998575
1.0177496
0.95009409
0.89012165
0.84040566
0.79351429
0.75745367
0.72052409
0.69281668
0.66925549
0.64970137
0.63538824
0.61754583
0.61174392
0.60055698
0.59361899
0.59629008
0.60522117
0.61790839
0.64442356
0.65501955
0.66860618
0.6740484
3.6256871
2.6780171
2.1441119
1.8238764
1.6098088
1.4447264
1.3114336
1.2016171
1.1088097
1.0295655
0.96166338
0.9018961
0.84950103
0.80322823
0.76299435
0.72780738
0.69585329
0.67473549
0.65195278
0.63782732
0.62066887
0.6131303
0.60373876
0.59339541
0.59639286
0.60371963
0.61468693
0.64406862
0.66301568
0.70152401
0.7062529
3.6400887
2.6826458
2.1318503
1.8014656
1.5791723
1.418325
1.2934999
1.1906514
1.1020558
1.0257589
0.95955633
0.90068738
0.84841567
0.80337246
0.76272837
0.72829227
0.69668061
0.67556251
0.65371446
0.63771507
0.62379873
0.61334623
0.60439464
0.59154207
0.59110839
0.59489131
0.60168794
0.62886679
0.65435916
0.69629071
0.72650838
3.6586863
2.6704013
2.1023289
1.7535951
1.5185152
1.3511573
1.2293164
1.1374238
1.0579468
0.98974609
0.92944638
0.87606086
0.82798911
0.78795161
0.75090766
0.72005469
0.69194626
0.67229711
0.65225021
0.6361666
0.62456301
0.61256006
0.60464507
0.59390843
0.58882411
0.58888629
0.58948507
0.59633226
0.61746876
0.6504966
0.71243429
3.6668917
2.6289037
2.0581293
1.7056145
1.4678031
1.2975969
1.1707542
1.0742332
0.99623563
0.93064662
0.8756417
0.82749993
0.78666902
0.75176297
0.72154473
0.69507447
0.67339033
0.65652127
0.6425246
0.63015654
0.62207801
0.61168574
0.60513908
0.60128844
0.59599889
0.5954258
0.59643518
0.60083332
0.61785831
0.63891427
0.67574917
3.665252
2.6529067
2.0836305
1.7280558
1.485553
1.3091705
1.17814
1.0764371
0.99523255
0.92721107
0.87039053
0.82192278
0.78031462
0.74596193
0.71439733
0.68808871
0.66528831
0.64624046
0.63226912
0.61943673
0.61318345
0.60680679
0.60537709
0.60607343
0.60791521
0.6125815
0.62084561
0.63377281
0.64730496
0.67290192
0.68855589
3.7122427
2.9214099
2.3484523
1.9631087
1.6851805
1.4771321
1.3162813
1.1878705
1.0861113
1.0004093
0.92810146
0.8684762
0.81630008
0.77342408
0.73343148
0.70153999
0.67325341
0.65046049
0.63296857
0.61975766
0.61106088
0.60145188
0.60173698
0.60481886
0.60727883
0.61181602
0.62278379
0.64467759
0.6644313
0.69355155
0.72164366
3.7227597
3.1906426
2.7673154
2.4455161
2.1770089
1.9558969
1.763385
1.5985745
1.4575713
1.3285801
1.2104441
1.1094178
1.0142669
0.93286249
0.85552408
0.78638074
0.72988538
0.68769106
0.65577649
0.63366712
0.61876358
0.60436834
0.59956121
0.60177237
0.60187823
0.60179453
0.6077627
0.62410978
0.64696532
0.68024583
0.72359127
3.612274
2.8958702
2.5934622
2.3733874
2.1771358
2.0104856
1.8664799
1.7378681
1.6214219
1.5144736
1.4120408
1.3103239
1.213933
1.1201892
1.0307274
0.95327063
0.88047329
0.81301232
0.75697245
0.71107092
0.67614836
0.64436634
0.62490364
0.6195503
0.61413198
0.60670122
0.60611849
0.61433626
0.62694762
0.64170195
0.6757952
3.5859362
2.7630857
2.3241862
2.0567686
1.8784011
1.7366052
1.6194056
1.5163157
1.4254131
1.3490568
1.2730355
1.1960869
1.124248
1.0514489
0.98686248
0.93265497
0.8790801
0.8336753
0.79949695
0.7726007
0.75313783
0.73634931
0.72055766
0.713201
0.70526799
0.69094996
0.67707968
0.67292695
0.67929402
0.68863935
0.69087326
3.6811597
2.8849572
2.3432751
1.9909857
1.7457715
1.5652584
1.4305296
1.3258717
1.2410268
1.1700205
1.1072734
1.0476122
0.99097411
0.93881068
0.88819824
0.84320948
0.80843204
0.77714462
0.75793206
0.74290019
0.73540606
0.73201292
0.73228953
0.73641549
0.74534467
0.75555176
0.76146883
0.77453281
0.78786588
0.81612077
0.81049198
3.8321319
3.0138635
2.3995802
2.0035548
1.7485037
1.5751034
1.4539876
1.3643541
1.2941272
1.2253439
1.1622076
1.1024335
1.0386707
0.97741207
0.91385544
0.85752199
0.80660716
0.76708903
0.73566365
0.71527342
0.69654466
0.69307554
0.69609843
0.70100011
0.71421803
0.73263638
0.74716543
0.76502295
0.78368899
0.80998084
0.84466856
3.6886098
2.8999873
2.3927962
2.0506169
1.8480852
1.7222906
1.622526
1.5293927
1.4311664
1.3309474
1.241208
1.1561059
1.0714077
0.99428228
0.92225415
0.85948484
0.80585581
0.76191873
0.72826933
0.70237555
0.68192928
0.67057571
0.66497744
0.66361302
0.66561478
0.67369506
0.6854723
0.69516263
0.71388029
0.72970961
0.77787628
3.565952
3.0034519
2.5764886
2.2677461
2.0158208
1.7926975
1.6057787
1.4459174
1.2971319
1.1926711
1.1051382
1.0236439
0.95119136
0.88889048
0.83857279
0.7958984
0.76168433
0.73099086
0.70905978
0.69097116
0.67510201
0.6668617
0.66095967
0.65469694
0.65093686
0.65289628
0.65776387
0.6593028
0.66094007
0.66465471
0.6781759
3.782368
3.1924667
2.6116555
2.1886398
1.8503539
1.5913217
1.4026694
1.2653158
1.1611724
1.0842199
1.0149448
0.95626923
0.90725514
0.86565288
0.83245958
0.80216568
0.77722752
0.75377688
0.73830406
0.72537837
0.7122207
0.70715699
0.70445299
0.69786846
0.69128001
0.68947765
0.69328762
0.69634518
0.69564277
0.69689039
0.69907199
3.7472745
2.8986025
2.4172096
2.101238
1.8590779
1.6843032
1.5362591
1.4203244
1.3349921
1.2241369
1.1269243
1.0552335
0.99394274
0.94552976
0.90786514
0.87257713
0.84190227
0.81438576
0.79440124
0.77884984
0.76501211
0.75900958
0.75868644
0.75823694
0.75691953
0.76287758
0.77362629
0.79017678
0.79573068
0.80148771
0.79753469
3.641846
3.0571944
2.6545409
2.3791715
2.1833679
2.0402213
1.8718738
1.7288133
1.6224282
1.4939474
1.379801
1.3044845
1.2422777
1.1987773
1.1645319
1.1266022
1.0886391
1.0488176
1.0273176
1.0118532
0.99819583
0.99707164
1.0041355
1.007468
1.0066945
1.016662
1.0362329
1.0628565
1.0760559
1.0830273
1.0621734
3.9956928
3.8833435
3.622137
3.4752613
3.2909975
3.2508716
3.0688002
3.1133373
2.9796316
2.8016873
2.7453369
2.7144491
2.6777466
2.6507147
2.6159512
2.5632882
2.4980777
2.4170936
2.3871863
2.3610956
2.3335677
2.3267677
2.3394176
2.3241385
2.2890834
2.2644936
2.2739904
2.2885666
2.2806231
2.2519409
2.1764503
12.901191
12.704299
12.327965
11.454962
11.014527
10.391499
10.10696
9.5683976
9.4682368
8.9878196
8.6308432
8.3559351
8.1048327
7.8963272
7.7230774
7.553133
7.3924705
7.2372098
7.1084801
6.966131
6.80608
6.6864405
6.5846181
6.4736659
6.3363005
6.2141797
6.145436
6.0806727
5.9811036
5.8517802
5.759225
6.0157323
2.3235942
1.1313031
0.83147248
0.72336933
0.69343037
0.77557042
0.8708803
0.85382239
0.74616907
0.70417005
0.75237069
0.75635068
0.73268793
0.70147484
0.73167815
0.75979674
0.75756973
0.73821552
0.70836333
0.69600037
0.64568119
0.61890437
6.6648378
2.5289167
1.2313897
0.8922258
0.75859007
0.70768637
0.77552808
0.91634322
0.91286917
0.83018167
0.74701571
0.7965828
0.81096838
0.7961421
0.74255922
0.75210731
0.79924653
0.80548761
0.8021753
0.77132987
0.76182168
0.72450088
0.65443438
7.2146876
2.8333058
1.3862171
0.98363204
0.81370199
0.73232411
0.7817203
0.93422803
0.99261755
0.9720041
0.8335727
0.84423987
0.8730635
0.86604396
0.82505603
0.79836049
0.8428805
0.87447354
0.87046338
0.82583505
0.81358877
0.79521818
0.73515371
7.8310494
3.0624112
1.5205422
1.087789
0.90038454
0.77803363
0.81461599
0.9770733
1.0478916
1.0436857
0.91039481
0.90034285
0.93738579
0.94618473
0.94293375
0.8935408
0.90753362
0.94495179
0.95863969
0.93672102
0.89323097
0.88477203
0.84611418
8.6436346
3.5758498
1.7957205
1.2906693
1.0482656
0.87432008
0.89020024
1.0504228
1.1476538
1.1671657
1.0601382
0.96282292
0.99979161
1.0086577
1.0151804
0.97527917
0.96298365
1.0022447
1.0200275
1.0223582
0.98915147
0.98450392
0.96841043
9.6806504
4.1110268
2.1479597
1.5469664
1.2158457
1.0033772
0.97484774
1.1240171
1.242675
1.2637533
1.2211301
1.0689245
1.1041464
1.1133273
1.1079105
1.0778031
1.0260555
1.0533429
1.0836808
1.0966412
1.0928891
1.069274
1.0655241
10.54718
4.6320053
2.4920043
1.8177845
1.4366956
1.1681349
1.0731978
1.1827447
1.3439655
1.4295072
1.4718442
1.3244663
1.3248217
1.3373765
1.2984949
1.2833592
1.1887559
1.1756932
1.2109041
1.2115557
1.228252
1.1984901
1.1779096
11.128006
5.197582
2.8770476
2.1128426
1.678385
1.4003776
1.2501063
1.3306505
1.5112258
1.573147
1.6766468
1.5804971
1.5016489
1.5368708
1.478849
1.4368204
1.4045689
1.368304
1.4419897
1.4512885
1.4427277
1.4160609
1.3525816
12.039577
5.9745721
3.400402
2.5499675
2.1180053
1.7296019
1.5038425
1.5908683
1.7601966
1.7847318
1.8487465
1.7999337
1.6552363
1.7085185
1.6957393
1.6330911
1.6158068
1.5576734
1.6046089
1.6874377
1.6455043
1.6562675
1.6186202
13.490997
7.0958991
4.0920606
3.1210042
2.6911217
2.2620014
1.951522
2.0596838
2.2251096
2.1677023
2.171902
2.169949
1.9835382
2.0064622
2.0048044
1.9032489
1.8520503
1.7761942
1.7931789
1.889506
1.8679321
1.8139925
1.8158808
15.005311
8.3601415
4.9628417
3.791959
3.3045502
3.0841733
2.6293483
2.6532235
2.7418909
2.6003072
2.5379157
2.5767539
2.4681226
2.5467015
2.7431278
2.6279693
2.3258667
2.1191927
2.0413196
2.1387449
2.1607012
2.0688469
2.0438407
16.108627
9.3939009
5.6856483
4.3976421
4.0143326
3.9620901
3.6323356
3.5503746
3.610765
3.399385
3.2720362
3.2948984
3.1846916
3.2890385
3.6057515
3.4687736
2.9810338
2.7863207
2.5329783
2.6242274
2.8540552
2.6987383
2.4286659
16.657078
10.418423
6.3214041
4.9693528
4.6849137
4.8751843
5.1133106
5.0681638
4.8325455
4.3147878
4.1124914
4.1904893
4.3518963
4.3953871
4.6038265
4.3623668
3.7869714
3.5893841
3.4101438
3.5628304
4.0844701
3.9707665
3.355084
16.681654
11.086428
6.7076544
5.4599094
5.2926192
5.7408565
6.3786111
6.4512689
6.0637426
5.1390726
4.7676837
4.8807116
5.476787
6.1048264
6.1185886
5.4495765
4.6010948
4.4270517
4.5284607
4.5129857
4.9191644
4.8209441
4.2894942
16.872211
11.711634
7.0932494
5.9193295
5.8226806
6.4811711
7.3846083
7.5448502
7.0583375
5.8113909
5.260556
5.4005058
6.3172054
7.5151786
7.4680355
6.4436326
5.2663935
5.0208132
5.3184886
5.9148176
6.2503723
5.8929825
4.958298
17.135969
12.050513
7.376498
6.2546286
6.2087455
7.072563
8.1875238
8.4125596
7.821433
6.3086968
5.6416279
5.8288158
7.0322256
8.4268641
8.427635
7.2923696
5.8102485
5.4902876
6.0277293
7.1371459
7.5090528
6.9502678
5.5595604
17.475488
12.446541
7.6772278
6.5361463
6.5228243
7.5620936
8.8198295
9.0565346
8.3428712
6.6266777
5.9096267
6.1641929
7.6222723
9.0211423
9.0332638
7.8646903
6.2662519
5.9029891
6.6435575
7.9814289
8.372337
7.8148067
6.1764021
17.580295
12.63782
7.8786698
6.744312
6.7758785
7.9724319
9.2791176
9.501913
8.6699619
6.8434518
6.1305771
6.4643837
8.1048402
9.4471957
9.4316407
8.1702689
6.5844524
6.2676869
7.19558
8.5615605
8.9106422
8.2963189
6.58504
17.228308
12.639602
8.0037187
6.9132886
6.9682365
8.2394848
9.6096024
9.8368173
8.9205619
7.0172869
6.3203214
6.7149198
8.4577519
9.7429949
9.6631366
8.3205751
6.8085891
6.5622307
7.643068
8.9372326
9.2210912
8.5090676
6.8282686
16.456106
12.438769
8.0474705
7.083466
7.1718464
8.4943914
9.7273727
9.881324
8.9683532
7.1420096
6.5232117
6.9941516
8.797015
9.9471673
9.6971577
8.2429815
7.0506095
6.9728375
8.1267047
9.0978618
9.2355969
8.5092318
7.0137549
15.429421
12.033456
8.0142311
7.2045944
7.3442312
8.6345168
9.6863982
9.7967452
8.8591689
7.2213955
6.7520468
7.3057232
9.1013025
10.033996
9.5719779
7.9974984
7.2221396
7.389891
8.555871
9.155997
9.1101637
8.2765227
7.159233
14.416191
11.604732
7.9782784
7.2952727
7.4847076
8.722356
9.5517574
9.5468743
8.6090117
7.2580496
7.001247
7.6491205
9.3240037
9.9931959
9.2085273
7.7655886
7.3228334
7.7830987
8.8012188
9.1346898
8.8809907
7.9281929
7.290105
13.604094
11.124166
7.9240238
7.3279299
7.5556736
8.663824
9.3394373
9.1862996
8.1954299
7.2728719
7.267166
8.0070594
9.3643508
9.6650988
8.6505771
7.6587503
7.4770309
8.0798197
8.7977201
8.9971589
8.5029752
7.660404
7.5207104
13.029876
10.543895
7.8550554
7.334619
7.56316
8.5243482
9.056957
8.7775958
7.8079886
7.2973692
7.4672459
8.3176308
9.0916546
9.0060144
8.1093366
7.6231271
7.6539651
8.2866381
8.6963472
8.6286702
8.0128922
7.6235078
7.8673314
12.488702
9.8814468
7.7087341
7.3232501
7.5428302
8.3342941
8.706973
8.3045173
7.5289584
7.3293519
7.5658129
8.2197864
8.5287123
8.27705
7.7429297
7.5581903
7.7687025
8.2831995
8.4927243
8.1645972
7.7427773
7.686264
8.0662608
11.741635
9.0871589
7.4077752
7.2453992
7.4892003
8.08898
8.2942946
7.845485
7.3747852
7.2675942
7.4889464
7.8485774
7.9244058
7.6763667
7.4823387
7.5232438
7.822853
8.1403445
8.122422
7.7745422
7.6025871
7.6064854
7.8470839
10.793375
8.2067206
7.0891162
7.1017657
7.320213
7.6104575
7.6766065
7.3503527
7.1163409
7.0723985
7.2705534
7.4338694
7.4191565
7.2745353
7.2599502
7.4250621
7.7327832
7.8728559
7.6787061
7.4391911
7.3177056
7.3291001
7.4408139
9.7904403
7.5125047
6.8124858
6.8442328
6.8457702
6.8300046
6.8548642
6.8091317
6.7941314
6.8499064
6.9872066
7.0429366
7.021512
6.9913649
7.0364339
7.1613668
7.307446
7.3092778
7.1769022
7.0434637
6.9914512
7.0433678
7.123917
9.0256883
6.9204539
6.3568681
6.3061312
6.2249973
6.1545556
6.1494594
6.2127844
6.3430672
6.4933086
6.5852569
6.6031861
6.6360784
6.6527087
6.6181095
6.5737802
6.5973765
6.6991569
6.737629
6.7108028
6.6938865
6.7519207
6.8769856
8.4904975
6.3163641
5.932849
5.843182
5.6752883
5.6042321
5.6453681
5.7681332
5.8809372
5.9677583
6.0284427
6.0816269
6.14294
6.1308026
6.0436827
5.9794766
6.0387065
6.2027032
6.3280768
6.3625136
6.3708911
6.4967243
6.6177852
7.9878515
5.8258632
5.4596762
5.3688526
5.2179994
5.1722529
5.2718837
5.3629168
5.3711038
5.3527181
5.382564
5.5171858
5.6337681
5.6385717
5.5859458
5.5724879
5.6932195
5.8222782
5.8808108
5.9055842
6.0029816
6.1822109
6.2194266
7.4531625
5.4012638
5.0418508
4.9238896
4.7715855
4.7079392
4.7617588
4.8400783
4.8467465
4.8157363
4.827048
4.9669059
5.1199422
5.2001321
5.2023792
5.2377107
5.359409
5.4175886
5.3877214
5.4004166
5.6004214
5.8096793
5.8301534
7.0098844
4.9914165
4.6533294
4.435074
4.2478343
4.2024598
4.308408
4.4165996
4.4321329
4.4070146
4.4549265
4.5964238
4.6992266
4.7424079
4.7815943
4.8956868
5.0021056
5.0070277
4.9574355
5.0049023
5.2396812
5.4229699
5.4461615
6.7443936
4.6207643
4.2096633
3.9789535
3.8385789
3.8124696
3.8885764
3.9750383
4.0254109
4.054085
4.1192974
4.2092163
4.2468984
4.2602507
4.3378461
4.5052437
4.6158226
4.6380185
4.6486589
4.7651671
4.8929332
4.9451216
4.9512675
6.6397961
4.2107868
3.7804465
3.6002442
3.5159274
3.5138365
3.5895294
3.6442866
3.6687599
3.7080108
3.8017088
3.893536
3.9292822
3.9453518
4.0225608
4.174912
4.3034716
4.3606504
4.3937661
4.4873829
4.5385511
4.5353402
4.5394146
6.722929
3.991727
3.4872058
3.3017119
3.2257861
3.232052
3.2872251
3.327823
3.3321619
3.3576777
3.4434161
3.5470486
3.606658
3.6342908
3.689969
3.78692
3.8686505
3.9184663
3.9715334
4.0628946
4.1274614
4.1119759
4.1018151
7.0035154
3.8713276
3.2570054
3.0467509
2.9618018
2.9648407
3.0183814
3.0687796
3.0819501
3.0957437
3.1485457
3.2291402
3.2966161
3.3423267
3.3945489
3.4651298
3.5197621
3.5424522
3.5638391
3.6186371
3.689572
3.7139695
3.7558409
7.2324591
3.7135065
3.0477765
2.8328908
2.7464376
2.7402291
2.7827698
2.8365135
2.8637875
2.8840635
2.9218604
2.9721458
3.014409
3.0503536
3.099202
3.1646946
3.2204329
3.243574
3.2500431
3.2735072
3.3165815
3.3401
3.4089579
7.349915
3.6152625
2.8846653
2.6639811
2.581315
2.5692625
2.5953505
2.6318852
2.6562362
2.6782381
2.7120632
2.7521591
2.7808299
2.8005698
2.8312401
2.8825055
2.9372015
2.9696161
2.9779744
2.9823735
2.989314
2.9878301
3.0328551
7.5142949
3.4928867
2.7384812
2.5102566
2.4287705
2.415241
2.4341847
2.4588223
2.4709635
2.483904
2.5115788
2.5479229
2.5773023
2.5950969
2.61376
2.6438577
2.6786704
2.6992605
2.6983166
2.6827107
2.6622823
2.6364894
2.6460773
7.4993627
3.3753633
2.6041525
2.3661172
2.2806983
2.2645878
2.2819375
2.3067826
2.3207176
2.3289626
2.3452366
2.370269
2.3939374
2.409374
2.4207443
2.4342996
2.4469553
2.4473938
2.4317864
2.4011066
2.3654519
2.3281163
2.3167524
7.5143625
3.3364811
2.5188785
2.2630506
2.1675655
2.1423265
2.1522468
2.1743923
2.1909439
2.2001173
2.20988
2.222538
2.233604
2.2387647
2.2394388
2.2385899
2.2359125
2.227587
2.209904
2.1817096
2.1484337
2.1143166
2.0952291
7.3693879
3.2789175
2.4493047
2.1820962
2.0800465
2.0467295
2.0463104
2.0574127
2.0685483
2.0755127
2.0818571
2.0888569
2.0939496
2.0935493
2.0882059
2.0792391
2.0695348
2.0594607
2.0470978
2.0298739
2.0082986
1.9817279
1.9616435
7.5733869
3.1167803
2.3347978
2.0873097
1.9890883
1.9539064
1.9489225
1.9544267
1.9610838
1.9646795
1.9673771
1.9707129
1.9737334
1.9744903
1.9719659
1.9665522
1.9600999
1.9536004
1.9465025
1.9368181
1.9230996
1.9029273
1.8854065
7.3127856
3.0191409
2.2326298
1.9861451
1.8943307
1.8623421
1.8580056
1.8637856
1.8720837
1.877215
1.8792256
1.8796004
1.8797948
1.8802768
1.8809012
1.8819933
1.8840182
1.8859864
1.8862369
1.8838757
1.8782697
1.8662362
1.8541566
6.9931233
3.0983354
2.2329533
1.9367221
1.8264446
1.7863793
1.7774272
1.7808537
1.7888634
1.7960041
1.8004383
1.8027775
1.8047142
1.8077334
1.8126203
1.8201705
1.8303241
1.8413039
1.8506234
1.8563473
1.8573432
1.8535706
1.8458451
6.5164785
3.3367829
2.2875109
1.929105
1.7828248
1.724455
1.7053287
1.7037397
1.7086552
1.716871
1.7245586
1.7318024
1.7397175
1.7496315
1.7619814
1.7768012
1.7933355
1.8098004
1.8241928
1.834996
1.841181
1.8407624
1.8374308
6.7658712
3.7530496
2.3743725
1.9266787
1.7542323
1.6750688
1.6427014
1.6344606
1.6375379
1.6463731
1.6579097
1.6703608
1.6843666
1.7007268
1.7193401
1.7395111
1.7599199
1.7791407
1.7962275
1.8103669
1.8206575
1.8254917
1.826619
6.9777421
3.5511988
2.3254213
1.8997539
1.7168461
1.6294191
1.5904081
1.5773098
1.5780878
1.5858397
1.5994581
1.6161701
1.6358457
1.6581978
1.6824657
1.706998
1.7304351
1.7518117
1.7708191
1.7870945
1.7991617
1.8066493
1.812245
7.2282196
2.9584837
2.1190325
1.7942417
1.6372621
1.5674536
1.5366268
1.5269245
1.5290517
1.5392809
1.5562354
1.5777341
1.6028779
1.6302477
1.6581834
1.684693
1.7085458
1.7294685
1.7478581
1.7633807
1.773805
1.7795769
1.7864594
7.4351957
2.6182498
1.8896236
1.648591
1.5438913
1.4983329
1.4820546
1.4819205
1.4913963
1.5088756
1.5321619
1.5594372
1.5886364
1.6176993
1.6450081
1.6692245
1.6898117
1.70722
1.7221678
1.7337448
1.7386095
1.7391184
1.743564
7.569252
2.4745488
1.7640517
1.5500754
1.4678168
1.4380338
1.4329894
1.443227
1.4632966
1.4901225
1.5209381
1.5530735
1.5840014
1.6116317
1.6350311
1.6538671
1.6684848
1.6797773
1.6881619
1.6914554
1.6878103
1.6773672
1.6768752
7.6474817
2.4049699
1.6910766
1.4844525
1.4118624
1.390957
1.394023
1.4133645
1.4428467
1.477933
1.5144197
1.5485895
1.5779261
1.6013202
1.6183223
1.6297947
1.6364743
1.6395012
1.6388987
1.6316549
1.6128518
1.5878189
1.581277
7.6587433
2.3574971
1.6431704
1.4398707
1.3733972
1.3583715
1.3684048
1.3943885
1.4291748
1.4674562
1.5048191
1.5375615
1.5629201
1.5795666
1.5884678
1.5910009
1.5886321
1.5820781
1.5692495
1.5455111
1.5105938
1.4702762
1.4595105
7.6429617
2.3226515
1.6097305
1.4096462
1.3486409
1.3384681
1.3543147
1.3848079
1.4212968
1.4581345
1.4912663
1.5177809
1.5354322
1.5435423
1.5433698
1.5360747
1.5231996
1.5040547
1.4754571
1.4370648
1.3876782
1.3220513
1.2733175
7.5897909
2.2911734
1.5863728
1.3914755
1.3365538
1.3315019
1.3525441
1.3845818
1.4191822
1.4514222
1.4774513
1.4942766
1.501305
1.4991476
1.4877023
1.4687358
1.4427788
1.4089029
1.3651238
1.3070342
1.2325372
1.1244936
1.0353246
7.5665065
2.2704936
1.5718955
1.3832485
1.3348793
1.3327326
1.3552878
1.3873165
1.4198261
1.4466009
1.4640296
1.4709848
1.4682463
1.4544168
1.4307424
1.398854
1.3589495
1.3087691
1.2400649
1.1488228
1.0360896
0.93394037
0.9002309
7.5290799
2.2547064
1.5651798
1.3829867
1.3375679
1.3380219
1.3626624
1.3936479
1.4217464
1.4419613
1.4507885
1.4504479
1.4380726
1.4140221
1.37947
1.3341405
1.2791401
1.2046902
1.1035355
0.98443547
0.8822462
0.83665168
0.82938927
7.5572838
2.2544876
1.5654474
1.3859111
1.3445149
1.3478945
1.3719935
1.3997251
1.422495
1.4353396
1.4383469
1.4306493
1.4107899
1.3784574
1.3324936
1.276398
1.2054851
1.1050032
0.98347326
0.86981798
0.80655871
0.78380529
0.7797093
7.5528183
2.2576669
1.5685168
1.3928591
1.3529949
1.3564371
1.3786168
1.4027125
1.4206501
1.4274188
1.4252943
1.411629
1.3861263
1.3466747
1.29192
1.2277204
1.1436616
1.030159
0.90975218
0.81702978
0.76875178
0.74791188
0.74011763
7.5749833
2.2674216
1.5737691
1.3980908
1.3580993
1.3603462
1.3801151
1.4013483
1.4139817
1.4165754
1.4097839
1.3926292
1.3640437
1.3203518
1.2613662
1.1926282
1.1045308
0.99411465
0.88473039
0.80222041
0.75132121
0.72544883
0.71278386
7.4994287
2.2786442
1.5777542
1.3998694
1.3588283
1.3597238
1.3772035
1.3936335
1.4002108
1.3991248
1.3888074
1.3702538
1.3421116
1.3000139
1.2416265
1.1732316
1.0917498
0.99320235
0.89367268
0.81281346
0.75436317
0.71539184
0.69573796
7.5104442
2.2852866
1.5775678
1.3980087
1.3552643
1.3531674
1.3641705
1.3727084
1.3750324
1.3710714
1.3590358
1.3402158
1.3149206
1.2802668
1.2321274
1.1709202
1.0992326
1.0207637
0.9401432
0.86008502
0.78757863
0.73027023
0.69051087
7.3086527
2.2844794
1.5742331
1.3899031
1.3429811
1.3369787
1.342107
1.3452051
1.3439525
1.3366793
1.3233879
1.3050668
1.2829143
1.2565044
1.2228286
1.1788212
1.1262737
1.0670632
1.0032327
0.93592669
0.86536558
0.79446205
0.72814396
7.084745
2.2857945
1.5632233
1.3631566
1.3112443
1.3040493
1.3107437
1.3150854
1.3137043
1.3056866
1.2920551
1.2744475
1.2543831
1.232656
1.2088168
1.1805966
1.1470935
1.1069137
1.0608376
1.0098634
0.95479734
0.89488114
0.82900839
6.7010344
2.3268096
1.568936
1.3394213
1.2589432
1.2412441
1.2480352
1.2602437
1.2677047
1.2678019
1.2608311
1.2482476
1.2321053
1.2141438
1.195331
1.1757332
1.1535251
1.1293926
1.1009029
1.0677471
1.0298338
0.98711898
0.93875599
6.2993996
2.3894177
1.5972349
1.3439542
1.2418815
1.1969706
1.1828173
1.1856348
1.1945433
1.2030365
1.2073938
1.2067674
1.2014523
1.192455
1.1809726
1.1678513
1.1532297
1.138856
1.1224995
1.1032516
1.0807423
1.0542919
1.0222029
5.4801387
2.6039906
1.7052003
1.3947094
1.2617202
1.199607
1.1685088
1.1517325
1.1442532
1.1432837
1.1463435
1.1505188
1.1540426
1.1557583
1.1552761
1.1525159
1.1476165
1.1397545
1.1324324
1.1231168
1.11134
1.0968456
1.0782198
5.1301683
2.9384224
2.0855182
1.6593825
1.4101607
1.2772573
1.2061078
1.1668537
1.1453099
1.1322094
1.1235821
1.1189669
1.1177946
1.1199543
1.1241052
1.1289934
1.133205
1.1347058
1.1331245
1.1321448
1.1297629
1.124805
1.1152314
5.1528515
3.1695176
2.3344468
2.0177986
1.8005602
1.6113003
1.4462975
1.3114732
1.2216494
1.1708013
1.1410333
1.1238553
1.1145898
1.1090744
1.1074909
1.1094191
1.1149573
1.1228671
1.1293593
1.1332005
1.1385111
1.1439532
1.1453656
5.4443605
3.1498682
2.2941125
2.0076963
1.8603459
1.7667929
1.6821303
1.5956154
1.4882907
1.3737541
1.2714222
1.1960579
1.1522175
1.1270776
1.1135091
1.108053
1.106454
1.1088599
1.1157598
1.1265448
1.1364236
1.1496852
1.1661717
5.4043897
2.8641176
1.926052
1.6931626
1.6705911
1.6763649
1.665296
1.6378228
1.6027798
1.5552381
1.4966162
1.4200255
1.33193
1.250696
1.1846977
1.1454344
1.1237078
1.1133843
1.1104244
1.1118382
1.1184506
1.1344598
1.1639185
5.7339626
2.9380483
1.8472507
1.509553
1.3775398
1.3662254
1.4294734
1.5051325
1.537884
1.5397734
1.5243732
1.5007777
1.4661178
1.4232043
1.3721082
1.3068502
1.2429741
1.1872284
1.1483015
1.1280185
1.1196368
1.1195255
1.1280048
6.1866093
3.0992452
1.9578508
1.5399781
1.3313196
1.2225653
1.1568232
1.1515679
1.2039985
1.2822429
1.360511
1.4065617
1.4243887
1.4187252
1.4043894
1.3815258
1.3523801
1.3190824
1.2776855
1.2307619
1.1868349
1.1520717
1.1257577
6.9418489
3.3028154
2.0762047
1.585309
1.3108944
1.1213685
0.98360026
0.90968329
0.88791652
0.901753
0.93991467
1.0154169
1.1069574
1.1972301
1.2689303
1.3070795
1.320731
1.3158855
1.3051814
1.2877018
1.2667023
1.2431188
1.2053497
7.4974132
3.2026886
1.9982892
1.4834849
1.1609567
0.92652554
0.80086479
0.73225067
0.69971751
0.69415489
0.70199026
0.72499053
0.76909067
0.82745598
0.89943821
0.98665327
1.0742511
1.1515604
1.2089367
1.2374824
1.2481772
1.2450492
1.245753
7.8870107
2.7681013
1.6191672
1.1329215
0.87094381
0.72378156
0.64153269
0.59632615
0.57513055
0.57165719
0.57655888
0.59173632
0.61908565
0.65504105
0.69914662
0.75126779
0.81034335
0.87349857
0.94264259
1.0160235
1.0878937
1.143015
1.2017269
8.0936908
2.3091355
1.2977568
0.89166933
0.69404046
0.5905998
0.53439174
0.50500203
0.4935524
0.49400497
0.50125598
0.51780361
0.5410352
0.56980198
0.60384483
0.64303693
0.6869978
0.73431725
0.7849013
0.83670682
0.89526921
0.94278926
1.0294166
8.1756422
2.0630678
1.1379583
0.77190138
0.6024686
0.51753578
0.47370231
0.45199567
0.44415954
0.44542273
0.45264055
0.46718133
0.48680293
0.51113085
0.53999487
0.57332397
0.61085913
0.6515451
0.69432079
0.73754915
0.78235341
0.82120559
0.89620791
8.1843588
1.9246397
1.0564168
0.71423636
0.56171496
0.48644793
0.44752903
0.42771517
0.41903972
0.41778979
0.42153379
0.43059981
0.44462497
0.4632582
0.48670642
0.51512834
0.54839836
0.58559251
0.62516905
0.6654808
0.70552302
0.74633452
0.813709
8.1308689
1.8575879
1.0224365
0.69600105
0.55300935
0.48169819
0.44400363
0.42376935
0.41324072
0.40847222
0.40759575
0.41012279
0.41646587
0.42722341
0.44282712
0.46400146
0.49128658
0.52434748
0.56161181
0.60120626
0.64239782
0.68627619
0.74595197
8.0251596
1.8324524
1.0222245
0.70337352
0.56533279
0.49607479
0.45758864
0.43451938
0.42036208
0.41197908
0.40764167
0.40584844
0.40613223
0.40871058
0.4148436
0.42584554
0.44291401
0.46705496
0.49823418
0.53508362
0.57556934
0.61906212
0.66948425
7.8790672
1.8336754
1.0594328
0.75624199
0.62745323
0.56014789
0.51560489
0.48254747
0.4572898
0.43841444
0.42480328
0.41579722
0.41060934
0.40856627
0.40859509
0.41056156
0.41580551
0.42657782
0.44452708
0.47055062
0.50413388
0.54267731
0.58562417
7.7150068
1.8647789
1.1826165
0.89360472
0.76152113
0.68300003
0.62631129
0.58134838
0.54341484
0.5106704
0.48266459
0.45925224
0.4404645
0.42665938
0.41816568
0.41391409
0.4130039
0.41408934
0.41840388
0.428779
0.44750051
0.47519831
0.50938789
7.5608826
1.9465108
1.3433337
1.0539569
0.91290775
0.82616895
0.759335
0.70125529
0.64912391
0.60271804
0.56222305
0.52769087
0.49883994
0.47472511
0.45469691
0.43894346
0.42734725
0.42039743
0.41769529
0.41774698
0.42206963
0.43378622
0.4549406
7.4284616
2.0303089
1.4932146
1.2304187
1.0941404
1.0024108
0.92109785
0.8421866
0.76706715
0.6988395
0.63978569
0.59045448
0.55021089
0.51760517
0.49104538
0.46936254
0.45166831
0.43740096
0.42627614
0.41942429
0.41711507
0.41691322
0.42063514
7.3037987
2.1864541
1.7161125
1.4877622
1.3553901
1.2427803
1.1283441
1.0085053
0.89148699
0.78604069
0.69810669
0.62848161
0.57490662
0.53317363
0.50042793
0.47447275
0.45383464
0.43734495
0.42480099
0.41514789
0.40887982
0.39923954
0.39909745
7.1927306
2.5308628
2.0930119
1.8600549
1.7013152
1.5354895
1.3512653
1.1547306
0.96855171
0.81582942
0.70177057
0.61825321
0.55553863
0.50774712
0.47113946
0.44311809
0.42249471
0.40664181
0.39590313
0.38673101
0.3813815
0.37540218
0.37506679
7.1422016
3.6051993
2.7056871
2.3440645
2.0832322
1.7989569
1.485006
1.18206
0.93241102
0.74411534
0.61038991
0.52079415
0.46365926
0.4280216
0.40564231
0.39183704
0.38281323
0.37635412
0.37280343
0.36961573
0.36842157
0.36777253
0.36758562
7.4718403
4.2301812
3.2268332
2.734766
2.2823046
1.8119024
1.3475952
0.95831957
0.69889177
0.55102368
0.47355142
0.43231267
0.40951638
0.39640526
0.38809946
0.3824861
0.37853871
0.3754414
0.37376646
0.37238162
0.37235662
0.37245418
0.3707187
8.4777947
4.7768421
3.5593815
2.8040761
2.072104
1.3708388
0.88748162
0.63642904
0.51733075
0.4607534
0.43310249
0.41797876
0.40787995
0.40091427
0.39645501
0.39387567
0.39281312
0.39248045
0.39291733
0.39454661
0.3967214
0.40060218
0.40145029
9.6692611
5.1194203
3.5652899
2.3698974
1.3900855
0.86104803
0.62400391
0.52192002
0.47705742
0.45460186
0.44171803
0.43470034
0.43053182
0.42906473
0.42887948
0.42936649
0.43130202
0.43456667
0.43890983
0.44396112
0.45070548
0.45840657
0.46015485
10.622575
5.4327623
3.1575844
1.6537283
0.95356373
0.67473068
0.56087989
0.51026072
0.48604929
0.47368396
0.46802454
0.46545884
0.46466699
0.46549987
0.46771665
0.47173176
0.47674314
0.48254386
0.4893511
0.49661957
0.50498262
0.51268412
0.51896752