/*--------------------------------*- C++ -*----------------------------------*\
| =========                 |                                                 |
| \\      /  F ield         | OpenFOAM: The Open Source CFD Toolbox           |
|  \\    /   O peration     | Version:  2406                                  |
|   \\  /    A nd           | Website:  www.openfoam.com                      |
|    \\/     M anipulation  |                                                 |
\*---------------------------------------------------------------------------*/
FoamFile
{
    version     2.0;
    format      ascii;
    arch        "LSB;label=32;scalar=64";
    class       surfaceScalarField;
    location    "170";
    object      phi_0;
}
// * * * * * * * * * * * * * * * * * * * * * * * * * * * * * * * * * * * * * //

dimensions      [1 0 -1 0 0 0 0];

oriented        oriented;

internalField   nonuniform List<scalar> 
40800
(
0.00077414181
0.0010658631
-0.0013681207
0.00086373809
0.0010253675
-0.0013169466
0.00093512269
0.00092227652
-0.00093110278
0.00099267376
0.00086140614
-0.00084358348
0.0010394753
0.00086848611
-0.0010034526
0.0010868663
0.00078095303
-0.0009103179
0.0011280456
0.00079397793
-0.0008867604
0.0011720711
0.00075466173
-0.00074933496
0.0011982389
0.00067443873
-0.00075656107
0.0012331514
0.00056658336
-0.00058921736
0.0012724948
0.00057759252
-0.00059824204
0.0012994651
0.00062756044
-0.00068300416
0.0013186275
0.00051951123
-0.00056557638
0.0013599245
0.00050404677
-0.00052010575
0.0013956359
0.00058664241
-0.00063689795
0.0013924003
0.00054770918
-0.00060648075
0.0014251796
0.00040339217
-0.00040690171
0.0015311658
0.00073642114
-0.00072422591
0.001467563
0.000728768
-0.00080932351
0.0014893327
0.00048754608
-0.00051290577
0.0016237215
0.00077684974
-0.00073411294
0.0016153954
0.00092277872
-0.00093848868
0.0015508696
0.00068110359
-0.00071031195
0.0016422994
0.00072364407
-0.00067760826
0.0019218507
0.0010756648
-0.0010729849
0.0019139139
0.0013349683
-0.0014679802
0.0018189547
0.0013248254
-0.0014641179
0.0019812102
0.0010301522
-0.0011521369
0.002007028
0.00088251333
-0.0010361953
0.0018361364
0.001220119
-0.0012485415
0.0016218139
0.0021874379
-0.0014678097
0.00076304094
0.00074158144
0.00085126426
0.00070977587
0.00092740108
0.0009244207
0.00098941032
0.000880054
0.0010346941
0.00072712445
0.001084243
0.00066154731
0.0011264958
0.00068262895
0.0011692297
0.00073384894
0.0011943725
0.00059203009
0.0012325461
0.00057425516
0.0012703502
0.00056983678
0.0012890565
0.00055234766
0.0013128286
0.00047942835
0.0013583727
0.000496592
0.0013851442
0.00053587801
0.0013727522
0.0004938792
0.0014490417
0.00045014039
0.0015204673
0.0007140724
0.0014352825
0.00061524232
0.0015255465
0.00051640236
0.0016429615
0.00080314984
0.0015805194
0.00085826741
0.0015641105
0.00069354452
0.0016919916
0.00081592463
0.0019412005
0.001033908
0.0018905997
0.0010839421
0.0016956721
0.0010559012
0.0018774399
0.00095223769
0.0021406564
0.0008584737
0.0020601688
0.0011497631
0.0016628831
0.0019611267
0.00075028368
0.00051747981
0.0008372922
0.00047597295
0.00091229405
0.00091170247
0.00097494463
0.00088135149
0.0010220658
0.00061677792
0.0010746161
0.00059486339
0.0011196013
0.00058632873
0.0011587187
0.00066440251
0.0011886958
0.00052965101
0.0012290775
0.00058679009
0.0012636158
0.00056158545
0.001277828
0.00048010716
0.0013063931
0.00045098724
0.0013513845
0.00050141683
0.0013713103
0.00048276774
0.0013592617
0.00044458842
0.0014608331
0.00052465764
0.0014918459
0.00066664411
0.0014100586
0.00048451632
0.0015518692
0.00055027581
0.0016403437
0.00081242993
0.0015551156
0.00075163517
0.0015967677
0.00067166261
0.0017153872
0.00092286697
0.0018975556
0.0010085121
0.0018460808
0.00081505537
0.0016195813
0.0007526901
0.0017859965
0.00090126509
0.0022307781
0.00093987424
0.00233018
0.0010412619
0.0014490751
0.0020532778
0.00073692564
0.00046370977
0.00082248859
0.00039646263
0.00089129082
0.00086251804
0.00095025458
0.00084366492
0.0010026429
0.00056098961
0.0010567944
0.00059030198
0.0011043362
0.00052837591
0.0011399703
0.0005573082
0.0011777427
0.00048970929
0.0012173109
0.00056627163
0.0012481271
0.00053669894
0.0012635395
0.00042035246
0.0012973991
0.00043139887
0.0013362947
0.00051172253
0.0013539195
0.00042853347
0.0013543862
0.00040251558
0.0014598221
0.0005833301
0.0014559054
0.0006036327
0.0014004508
0.00037424767
0.0015668588
0.00057394818
0.0016137084
0.00078451033
0.0015248894
0.00062154709
0.0016339763
0.00059850493
0.0017231122
0.00093773559
0.0018042779
0.0010152031
0.0017949448
0.00063370738
0.0016346376
0.0005244922
0.0017215245
0.00088236626
0.0021727119
0.0011160244
0.0024542453
0.00099282059
0.0010439693
0.0022510215
0.00072445262
0.00055052245
0.00080710751
0.00045896632
0.00086687378
0.00076838152
0.00092065567
0.0007403855
0.00097648446
0.00055972455
0.0010295471
0.00061932904
0.001077953
0.00051622322
0.0011126157
0.00044572323
0.0011567347
0.00046411463
0.0011942897
0.00052072491
0.0012222329
0.000503074
0.0012432567
0.00038214227
0.0012828693
0.0004150773
0.001312202
0.00050360883
0.0013315339
0.00039250507
0.0013496155
0.0003674068
0.0014412356
0.00059447928
0.0014146684
0.00052393561
0.001402997
0.00030256276
0.001568958
0.00060454743
0.0015705053
0.00073080761
0.0014931038
0.00048201232
0.001671368
0.00052246747
0.0017311312
0.00085128974
0.0016962264
0.00097138509
0.001745811
0.00059516525
0.0017424688
0.00043528723
0.0017477354
0.00086590876
0.0020336094
0.0012963633
0.0023671072
0.0010841063
0.00075745343
0.0023634356
0.00071348648
0.0006983499
0.0007907481
0.00059822717
0.00084172887
0.00064630248
0.00089029267
0.00059142677
0.0009469464
0.00058596349
0.00099548984
0.00063140245
0.0010424281
0.00052692393
0.0010791606
0.00037589854
0.0011257599
0.00044950146
0.0011620796
0.00047868148
0.0011874381
0.00046891781
0.0012154512
0.00035898031
0.0012599654
0.00040750768
0.0012794047
0.00045591785
0.0013036114
0.00037628408
0.001340885
0.00034082223
0.0014081949
0.00055625871
0.0013690008
0.00043323601
0.001411941
0.00027849242
0.0015579416
0.00061734918
0.0015155224
0.00064675702
0.0014675587
0.00039385177
0.0016963579
0.00047975833
0.0017381078
0.00072160368
0.0016078313
0.00082942065
0.0016970305
0.00064456184
0.0018737917
0.00049440772
0.0019040577
0.00082215177
0.0019278297
0.001320547
0.0021175232
0.0012607584
0.00066959566
0.0022836039
0.00070583684
0.00084674271
0.00077216301
0.00074976424
0.00081708678
0.00053129943
0.00086226851
0.00045497947
0.00091725403
0.00059760046
0.00095999288
0.00058132667
0.0010027201
0.00051944091
0.0010434099
0.00036539438
0.0010887167
0.00044295081
0.0011240083
0.00043814084
0.0011465501
0.00041558503
0.0011825156
0.00034813336
0.0012275569
0.00039916726
0.0012421786
0.00038676101
0.0012701295
0.00035858211
0.0013252617
0.00032667423
0.0013648884
0.00047698865
0.0013255918
0.00033821919
0.0014216776
0.00030878684
0.001529843
0.00060207551
0.0014582179
0.00051979871
0.0014491409
0.00036785923
0.0016919858
0.00051278777
0.0017232225
0.00059970502
0.0015440474
0.00061944457
0.0016470268
0.00067000447
0.0019622841
0.00064198166
0.0020783702
0.00076764544
0.0019543509
0.0010936158
0.001900592
0.001255835
0.00085007277
0.0020573441
0.00069496238
0.00092020498
0.00074892601
0.0008158771
0.00079243512
0.0004510058
0.00083647734
0.00036996036
0.00088735321
0.00056317738
0.00092571168
0.00046488773
0.00096454584
0.00047547038
0.0010093143
0.00039595185
0.0010503151
0.00042867847
0.001083181
0.00038963321
0.0011057572
0.00033707419
0.0011483639
0.00034749741
0.0011892783
0.00038133601
0.0012046922
0.00031706549
0.0012338734
0.00033201382
0.0013014475
0.00033278277
0.0013155405
0.00037646539
0.0012920244
0.00024805502
0.0014239768
0.00036277595
0.0014844107
0.00057174702
0.0014134602
0.00039095091
0.0014401026
0.00035657916
0.0016584756
0.00061974008
0.0016956217
0.00053367992
0.0015317656
0.0004125109
0.001593745
0.00062100449
0.0019415742
0.00080619225
0.0021256226
0.00074002795
0.001998625
0.0007272178
0.0017897504
0.00091939292
0.00094097316
0.0018488581
0.00068235854
0.00083909951
0.00072916236
0.00071388755
0.00077473957
0.00041515937
0.0008189141
0.00034762745
0.00086258754
0.00048596045
0.00090053698
0.00033036595
0.00093780865
0.00039817129
0.00098410092
0.00043185804
0.0010207895
0.00039976947
0.0010510174
0.00033275019
0.0010765209
0.00026667265
0.0011217162
0.00034142664
0.0011554339
0.00035054533
0.0011749569
0.00024515985
0.0012040519
0.00030177147
0.0012719381
0.0003451578
0.0012689159
0.00028430746
0.0012718908
0.00018714235
0.0014150204
0.00040378421
0.0014268954
0.00051769216
0.0013811391
0.00028189527
0.0014535026
0.00033495786
0.0016017308
0.0007175583
0.0016443339
0.00054613721
0.0015584983
0.00025523335
0.0015899948
0.00050736873
0.0018535207
0.00090196122
0.002050453
0.00075167505
0.0019882586
0.00043790809
0.001770652
0.00041466254
0.00077688073
0.0017340745
0.00068578337
0.00061060085
0.00072868994
0.00046770606
0.00077790861
0.00042252576
0.00082233288
0.00039116249
0.00085689914
0.00039040538
0.00089762759
0.00024624646
0.00093696034
0.00030892297
0.00098107396
0.00043971601
0.0010126019
0.00036175106
0.0010404822
0.0002882323
0.0010709473
0.00023693134
0.0011134458
0.00032703478
0.0011380412
0.00031331231
0.0011644688
0.00018497005
0.0011933697
0.00026672744
0.0012495652
0.00034111677
0.0012396097
0.00022248993
0.0012688485
0.00016415274
0.0013991563
0.00043064939
0.0013671499
0.00043937675
0.0013539206
0.00018523036
0.0014875823
0.00030861612
0.0015477553
0.00072245152
0.0015523076
0.00058945491
0.0015763302
0.00017910576
0.001648187
0.00037518764
0.0017557432
0.00085591031
0.0018782329
0.00080112465
0.0018894067
0.00030009506
0.0018295575
0.00010069073
0.00044096181
0.0017508882
0.00070774635
0.00034117138
0.00075298944
0.00018883231
0.00080245251
0.00044678761
0.00084388855
0.00046579714
0.0008718073
0.00029939793
0.00091386313
0.00024494091
0.00095309934
0.00024896118
0.00099055342
0.00039468729
0.0010195439
0.00031155774
0.001046189
0.00026731287
0.0010797854
0.00023183773
0.0011159514
0.00029413105
0.0011312891
0.00026368207
0.0011671568
0.0001617765
0.0011953353
0.00022267367
0.0012358521
0.00031344588
0.0012277821
0.00018947854
0.0012817432
0.00016918298
0.0013824336
0.00043098854
0.0013124211
0.00035283126
0.0013395596
0.00013892824
0.00152286
0.00028848563
0.0015068291
0.00061485056
0.001449431
0.00056226527
0.0015747065
0.0002172593
0.0017194667
0.00029092953
0.0017115539
0.00065755485
0.0016852123
0.00078521539
0.0017252721
0.00036943232
0.0018521557
7.6228536e-05
0.00020146688
0.0019079387
0.00078811885
0.00012612044
0.0008345981
-2.916224e-05
0.00087655476
0.00044888158
0.00091025612
0.00050971998
0.00093456117
0.00023954197
0.00097272386
0.00030854844
0.0010078259
0.00024928234
0.0010348552
0.00030727779
0.0010613213
0.00026490509
0.0010842903
0.00024947952
0.0011155152
0.00022239545
0.0011423636
0.00024473167
0.0011505044
0.00020433377
0.0011901156
0.00017806005
0.0012147618
0.00018610446
0.0012359678
0.00027086371
0.0012324027
0.000173402
0.0013057358
0.00020212643
0.0013658691
0.00038912844
0.0012764
0.00024751712
0.0013395966
0.00016093992
0.0015419536
0.00029402629
0.0014707441
0.00043820131
0.0013647025
0.00042516157
0.0015546979
0.00030764707
0.0017558559
0.00029264713
0.0017093551
0.00043169097
0.0015548227
0.00059838798
0.0016018219
0.0005007834
0.0018219984
0.00025942454
0.00026367343
0.0020712814
0.00086164057
-3.3168263e-07
0.00093356239
-0.00014618468
0.00097920348
0.00040195681
0.001010767
0.00047688986
0.0010411429
0.00022026762
0.0010753682
0.00036416085
0.0011068439
0.00028023057
0.0011265684
0.00021152475
0.001151092
0.00023509399
0.0011684809
0.00023245684
0.0011944541
0.00021717631
0.0012106777
0.00020568116
0.001214256
0.0001584814
0.0012478135
0.00020799724
0.0012666102
0.00017346212
0.0012666773
0.00021495432
0.0012658546
0.00016398073
0.0013424767
0.00025309563
0.0013599036
0.00032896615
0.0012772083
0.0001339689
0.0013520481
0.00020884532
0.001542675
0.00034955045
0.0014485732
0.0002677551
0.0013175886
0.00021218893
0.0015133983
0.00036446007
0.0017407733
0.00038538386
0.0017069736
0.00030054002
0.0015063469
0.00028163995
0.0015111573
0.00049397922
0.0017722706
0.00054456314
0.00048415464
0.0020884345
0.00088068671
4.8444489e-05
0.00096885745
-9.6781011e-05
0.0010260656
0.00031165088
0.0010711553
0.0003561823
0.0011190935
0.00022089213
0.0011569064
0.00034917629
0.0011901333
0.00028660797
0.0012139491
0.00013375838
0.0012421069
0.00020226765
0.0012618494
0.00021873897
0.0012871809
0.00023159473
0.0012977504
0.00017534693
0.0013021766
0.00012921128
0.0013251159
0.00022833706
0.0013411855
0.0001793533
0.0013281314
0.00015554276
0.0013327255
0.0001590199
0.0013967178
0.00029289032
0.0013763375
0.00026896072
0.0013244263
5.7075573e-05
0.0013911587
0.00024734832
0.0015373441
0.00044491313
0.0014494592
0.00015711429
0.0013448254
1.1145403e-05
0.0014978615
0.00035368676
0.0016990594
0.00053071257
0.0016810088
0.00026374857
0.0015660402
4.9535022e-05
0.0015220609
0.0002845766
0.0017311763
0.00068250415
0.00073302662
0.0020017578
0.0009036431
0.00018705988
0.00099609509
5.3367392e-05
0.0010493898
0.00019624256
0.0010929239
0.00018923418
0.0011441554
0.00023164314
0.0011781462
0.00025284897
0.0012079884
0.00025082638
0.0012372136
9.5424336e-05
0.0012647588
0.00014662586
0.0012858255
0.00019942716
0.0013091608
0.00024755467
0.001318627
0.00015179353
0.0013319976
0.00010689067
0.0013488359
0.00023679865
0.0013666156
0.00018949188
0.0013581375
0.00010916938
0.0013803757
0.00015012156
0.0014335169
0.00029402959
0.001394999
0.00020197394
0.0013966032
1.4056073e-05
0.0014648652
0.00026578453
0.0015360221
0.00051017436
0.0014680818
0.00011934045
0.0014455683
-9.2412947e-05
0.0015603097
0.00028732288
0.0016646638
0.00062714491
0.0016364769
0.00030086492
0.0016355287
-9.3306086e-06
0.0016724408
5.689108e-05
0.0017578775
0.00054971532
0.00078180202
0.0018961751
0.0009861616
0.00033381143
0.0010425228
0.00023019303
0.0010720885
0.00010407671
0.0011042678
4.6166689e-05
0.0011462653
0.00023740679
0.0011730316
0.00011655567
0.0011971344
0.00016522709
0.0012264989
0.00010139155
0.0012501907
9.8638413e-05
0.0012699028
0.00017723526
0.0012865306
0.00022745651
0.0012953461
0.00013472224
0.0013180377
9.5775518e-05
0.0013285242
0.00022172857
0.0013443548
0.00018754343
0.0013442393
9.1947734e-05
0.0013779351
0.00013799828
0.0014153178
0.00026429038
0.0013665061
0.00014656121
0.0014239419
1.3321519e-05
0.0015090991
0.00023840112
0.0014984602
0.00047685921
0.0014439623
0.00015500692
0.0015284966
-7.0257959e-05
0.0016545783
0.00020369202
0.0016340978
0.00056722155
0.0015830371
0.00038335243
0.0016502986
2.7182233e-05
0.0018194371
-1.3004589e-05
0.0018499467
0.00027289943
0.0005999673
0.0018319715
0.0010540022
0.0004136703
0.0010606703
0.00030766864
0.001079171
6.5572005e-05
0.0011012297
-5.7548885e-06
0.0011261573
0.00022562885
0.0011422948
2.5433085e-05
0.0011546551
7.8004492e-05
0.0011783095
0.00014466349
0.0011966071
9.2244114e-05
0.001212712
0.00016168526
0.001224076
0.00017360104
0.0012352532
0.00012163067
0.0012691774
0.00010301612
0.0012761169
0.00016716965
0.0012934837
0.00016373545
0.0013062681
9.2508998e-05
0.001350364
0.00012286638
0.0013718196
0.00020775498
0.0013239871
0.00010269055
0.0014233091
5.8604933e-05
0.0015171981
0.00020951534
0.0014393842
0.00033033981
0.001398744
0.00018675844
0.0015623288
2.9336569e-05
0.0017087605
0.00018055799
0.0016009108
0.00036425913
0.0015092424
0.00035840488
0.0016222246
0.00013723783
0.0018657068
8.2447829e-05
0.0019321448
0.0001303298
0.00028228022
0.001806703
0.0010754863
0.00033292531
0.0010403834
0.00023040211
0.0010525953
8.7599014e-05
0.0010662011
5.0891439e-05
0.0010678481
0.00019402855
0.001074471
1.9849724e-05
0.0010813703
4.4871108e-05
0.0011017817
0.00017458984
0.001126249
0.00010827463
0.0011417358
0.00015311233
0.0011537997
0.00012314086
0.0011710338
0.00011125713
0.0012120682
0.00012776033
0.0012188879
9.4871196e-05
0.0012397993
0.00012140871
0.0012648163
9.4818666e-05
0.0013150621
0.00012175224
0.001325399
0.00013302427
0.0012889697
5.6885763e-05
0.0014054795
0.00014675324
0.0014924631
0.00019202425
0.0013906375
0.00013323522
0.0013515724
0.00013477815
0.0015561627
0.00017008428
0.0017020228
0.00022491457
0.0015753564
0.0001388194
0.0014437265
0.00017203247
0.0015818044
0.0002273976
0.0018366465
0.00023039908
0.0019322992
0.00014793111
6.3813578e-05
0.0017789293
0.0010481845
0.0001632695
0.00097574682
6.8420968e-05
0.00098471341
0.00013711122
0.00099908212
0.00016480135
0.00099922172
0.00012917597
0.0010216671
7.4700521e-05
0.0010461816
5.7572315e-05
0.0010740532
0.00015316997
0.001101451
0.00011986054
0.0011191897
0.00014331468
0.0011381583
8.0915645e-05
0.0011625036
8.6380176e-05
0.0012032481
0.00014211508
0.0012136747
3.6383143e-05
0.0012339976
6.8204874e-05
0.0012648667
9.4025985e-05
0.0013119194
0.00013278694
0.0013161547
6.524981e-05
0.0013021141
2.6525392e-06
0.0014087335
0.00022906696
0.0014759242
0.0001809863
0.0013907172
-2.8294525e-05
0.0013591901
7.9744532e-06
0.0015611464
0.00029228172
0.0016724745
0.00027407513
0.0015752747
9.5214196e-06
0.0014549651
-9.8946012e-05
0.0015660191
0.00018458476
0.0017871937
0.00039617705
0.0018799122
0.00023365802
-3.8849156e-06
0.0017975092
0.00096618225
-3.8278174e-05
0.00093688033
-0.0001567218
0.00096598557
0.00016054273
0.00099264515
0.00026016877
0.001005968
4.2338702e-05
0.0010390657
0.00014800521
0.0010690044
0.00011416567
0.0010934832
9.3289752e-05
0.0011316506
0.00010664129
0.0011417752
0.00013506431
0.0011597567
2.8920686e-05
0.0011863039
4.5679349e-05
0.0012168587
0.00013227371
0.0012333282
-2.9366215e-06
0.0012554423
1.572787e-05
0.0012900574
8.3747393e-05
0.0013279315
0.00012358831
0.0013311601
1.8547426e-05
0.0013527805
-3.6018267e-05
0.001423161
0.00024973708
0.0014603951
0.00018041517
0.0014132189
-0.00012740823
0.0014206101
-0.00011678439
0.0015614718
0.00028728811
0.0016266061
0.00033290051
0.0015513989
-2.9470475e-05
0.0015303429
-0.00026362164
0.0016161189
3.4726109e-05
0.0017361243
0.00042523482
0.0017898713
0.00035595748
1.1887987e-05
0.00176965
0.00099595342
-0.00016014208
0.00099920935
-0.00027919336
0.0010277398
0.00015468496
0.0010520309
0.00028177132
0.0010764907
-8.0231489e-06
0.0011103008
0.0001718136
0.0011387602
0.00015616226
0.0011651037
2.9832538e-05
0.0011869633
9.7339068e-05
0.001193515
0.00012174559
0.0012119164
-6.7453083e-06
0.0012386213
1.8255118e-05
0.001253801
0.00011252098
0.0012705113
-1.4457425e-05
0.0012913784
-1.5421797e-05
0.0013215106
5.8630376e-05
0.0013430459
9.8979581e-05
0.0013422833
1.8864613e-06
0.0014007098
-5.2341028e-05
0.0014334189
0.00019811298
0.0014292119
0.00019107761
0.0014197962
-0.00014707812
0.0014830392
-0.00016357834
0.0015721817
0.00018542356
0.0015601128
0.00032488199
0.0014951204
-3.372483e-05
0.0015722926
-0.00026794368
0.0017007197
-9.0596838e-05
0.0017161024
0.00028676638
0.0016884316
0.00036128039
9.1317358e-05
0.0016987052
0.001009687
-0.00014456595
0.0010623916
-0.00023912685
0.0010904814
0.00010515344
0.0011136381
0.00019955285
0.0011478531
-8.0105337e-06
0.0011783637
0.00010934721
0.0011983689
0.00012516753
0.001221054
-7.2974442e-06
0.001257124
5.3809861e-05
0.0012439053
0.000126476
0.0012663242
-7.0789429e-06
0.00129081
1.022691e-05
0.0012939077
7.0171545e-05
0.001316415
-1.2523099e-05
0.0013396308
-2.0864605e-05
0.0013651165
2.2801409e-05
0.0013757919
5.646132e-05
0.0013732042
1.3769333e-06
0.0014588089
-4.2133953e-05
0.0014655769
9.830455e-05
0.0014185887
0.00013393631
0.0014448467
-8.8325687e-05
0.0015553577
-0.0001149888
0.0016141115
6.8522252e-05
0.0015245786
0.00019497523
0.0014736916
1.83621e-05
0.0016238622
-0.00015692288
0.0018012106
-9.5465534e-05
0.0017572458
0.00011056758
0.0016366407
0.00021151736
9.3889326e-05
0.0016448203
0.0010241178
0.0010519848
0.0011067015
0.0011784664
0.0012390751
0.0012620472
0.0012926368
0.0013105053
0.0013091162
0.0014193233
0.0014589109
0.0014918793
0.0014906285
0.0015130003
0.0015294802
0.0015461244
0.0015498005
0.0015437887
0.0016433273
0.0016424437
0.0015703639
0.0016176086
0.0017485826
0.0018024387
0.0016737824
0.0016072572
0.0017902381
0.002008493
0.0019695601
0.0017952185
0.0017619876
0.00023721464
0.0019433302
0.00049852396
0.0017915235
0.00067379569
0.0017018746
0.00063245387
0.001596098
0.00042033846
0.0014915655
0.00022241103
0.0014382968
0.00010268543
0.0015154892
0.00019044163
0.0016602421
0.00045363239
0.0018652494
0.00071237403
0.001992002
0.00072508756
0.0020013564
0.00048841805
0.001965682
0.00027852909
0.0018883908
0.00038478438
0.0018916352
0.00081875453
0.0020017807
0.0014088412
0.0021135166
0.0016947521
0.0021048326
0.0014484279
0.0020084554
0.00086657524
0.0018516942
0.00044078113
0.0017492525
0.00046449215
0.0018513532
0.00099009601
0.0021988728
0.0025917122
0.0016525768
0.0001163853
0.0020275425
9.5314544e-05
0.0018454937
1.2283995e-05
0.0017480752
3.0348804e-05
0.0016582522
0.00014871056
0.0016206903
0.00039555598
0.00161341
0.00074602305
0.0016659206
0.0010378706
0.0016917608
0.0010416941
0.0016821918
0.00072429177
0.0016101362
0.00028070289
0.0015270604
2.6334063e-05
0.0015549895
4.2187584e-05
0.0016840956
0.00046392935
0.0019845592
0.0010504377
0.0022648524
0.0013907599
0.0023579987
0.001310536
0.002233573
0.00092960598
0.0019728793
0.00054531022
0.0017721047
0.00059676557
0.0017097191
0.0011262986
0.0018346756
0.0017541808
0.0021200903
0.002412747
0.0019512549
-0.00033063439
0.0016447278
-0.00061483735
0.0015683333
-0.00066749383
0.0016073965
-0.0004510643
0.0017150789
3.949113e-06
0.0018563586
0.0005421763
0.0019243988
0.00089028996
0.0019314646
0.00091155978
0.0018444578
0.00070631525
0.0016780524
0.00041888123
0.0015170015
0.00027020548
0.0013895432
0.00039262579
0.0013964928
0.00082256844
0.0015312585
0.0011811634
0.0017946944
0.0011924374
0.0020044699
0.000856627
0.0020377769
0.00034112801
0.0019742703
9.0957624e-05
0.0019279179
0.00031608115
0.0019998387
0.0010144623
0.0021679496
0.0018156815
0.0022725575
0.0022117884
0.0022280226
0.0021073657
0.0020152569
-0.00021766852
0.0014024431
-0.00017335222
0.0013503305
5.9075471e-05
0.0013992396
0.00023523585
0.0015467114
0.00040669831
0.0016698556
0.00033098394
0.0016932512
7.042987e-05
0.0017213327
-0.00020260075
0.0017278166
-0.00033078822
0.0017189165
-0.00014345152
0.0017511234
0.00040522846
0.0017860459
0.0011634047
0.0018014442
0.0016827561
0.0017644381
0.0017465164
0.0017090109
0.0012544207
0.0016649945
0.00049830512
0.0015571014
8.7565709e-06
0.0014668156
2.7488465e-06
0.0015701282
0.00059885678
0.0019254699
0.0013477757
0.0023405694
0.0017303019
0.0024992848
0.0016515007
0.0024035402
0.0021447195
0.0012929033
0.00050761281
0.0017176548
0.00098397708
0.0015406465
0.0012498194
0.0014234066
0.0012084853
0.0013834427
0.00080418373
0.0013402689
0.00016053048
0.0012585618
-0.00045328179
0.0012633426
-0.00071042349
0.0013684404
-0.00055413878
0.001553577
-4.3044713e-05
0.0018001944
0.0005886848
0.0019701252
0.0010634935
0.0019995254
0.0011485738
0.0019538912
0.0008738246
0.0018230515
0.00051794131
0.0016977944
0.00030928086
0.0015897635
0.00047166995
0.0014489693
0.0011239201
0.001464713
0.0017390492
0.0016549628
0.0018708021
0.0019906345
0.0014060407
0.0021664669
0.00071305913
0.0021104181
0.0019823173
1.6134349e-05
0.00039953312
0.0019655493
0.00067082488
0.0017486476
0.00070143886
0.0016013831
0.00050444354
0.0014501866
0.00024329977
0.0013458843
7.777465e-05
0.0012363504
0.00016641538
0.0012004403
0.00051154666
0.0012406589
0.00085844519
0.0013510295
0.0011148467
0.0015384669
0.0010156548
0.0016697569
0.00054771276
0.0016639314
-0.00013093121
0.0016518325
-0.00060023442
0.0016809325
-0.00065448119
0.0017786302
-6.5032971e-05
0.0019480542
0.0010034281
0.0019905252
0.0020481017
0.0019002019
0.0026117356
0.0017694057
0.0024224911
0.0017394245
0.0015418465
0.0017390358
0.00033014326
0.0015912694
0.0014767065
-0.00042303584
-0.00034749739
0.0017565375
-0.00083029718
0.001577209
-0.0012140391
0.0015165246
-0.0012472958
0.0015140884
-0.00085842327
0.0015990373
-4.0253568e-05
0.0016192742
0.0009322887
0.0015718094
0.0017111761
0.001500577
0.0021454387
0.0014226317
0.0020557769
0.0013797004
0.0013774967
0.0013424267
0.00035811421
0.0012316771
-0.00055074811
0.001167999
-0.00095108069
0.0012697696
-0.00065936028
0.0015650037
0.00011230731
0.0019460067
0.00093526944
0.0021826466
0.0015656326
0.0021812027
0.0017820587
0.002062865
0.001640673
0.0018773757
0.0011818547
0.0017561493
0.00054396659
0.0015574847
0.0013127177
0.00042949236
-0.00092027382
0.0013258957
-0.0014241144
0.0012563779
-0.0014375701
0.0013000181
-0.0010611435
0.0014416823
-0.00054734195
0.0016130984
-4.5785156e-05
0.0016750025
0.00053698884
0.0016829457
0.0010123329
0.0016944748
0.0011615093
0.001650518
0.00099619108
0.0015160087
0.0006132875
0.0013901162
0.00029196826
0.0012248431
0.00031043633
0.001068401
0.00065573167
0.0010694527
0.0010720444
0.0012611623
0.0013501618
0.0016031428
0.0012753529
0.0018904982
0.00082456231
0.0019535684
0.00019264138
0.0019099179
-0.00031738963
0.0018690959
-0.00032860195
0.0018893183
0.00017549132
0.0019596277
0.0018288357
0.0012714574
0.00025172942
0.0013359426
0.00053866086
0.0011681487
0.00068376158
0.0011079484
0.00071139168
0.0011979753
0.0006338868
0.0013670399
0.00052942785
0.001451353
0.00013128813
0.0014575133
-0.00048009655
0.0014919536
-0.0011257636
0.0015476401
-0.0014249731
0.0015746753
-0.0010882786
0.001627087
-0.0001235142
0.0016205212
0.001146852
0.0014702026
0.0022408116
0.0013103418
0.0029218865
0.0012548226
0.0028981801
0.0013217862
0.002159945
0.0014984701
0.00086720097
0.0015619524
-0.00054670576
0.0015018107
-0.0014403674
0.0015122179
-0.0013719402
0.0017212393
-0.00047766895
0.0020420568
0.0022716144
0.00096565598
0.0011952524
0.0016702876
0.0021204818
0.0014182271
0.0026458448
0.0012041425
0.002666414
0.0011180526
0.0021003859
0.0011232329
0.0010168031
0.0011225247
-0.00025779175
0.0010960485
-0.0014134139
0.0011415162
-0.0021096247
0.0012706162
-0.0021505891
0.0014217324
-0.0015663797
0.0016200968
-0.00053402234
0.0017722453
0.0006658992
0.0017506694
0.0018140075
0.0016413918
0.0026567921
0.0015252548
0.0029329396
0.0014274772
0.0024569357
0.0013777833
0.0012287245
0.0013379072
-7.3923176e-05
0.0011818832
-0.00071320459
0.0011463151
-0.00055974832
0.0013969436
8.195143e-05
0.0017900373
0.0021683068
0.00073461353
0.00065854917
0.0018175894
0.0012608186
0.0016342567
0.0017541116
0.0014227626
0.0019656974
0.0012721389
0.001697603
0.0011569259
0.00094438435
0.0010243607
-4.4546225e-05
0.00087101969
-0.00069338947
0.00085602518
-0.00081155086
0.0010168487
-0.00054024887
0.0012427511
-0.00011576493
0.0014674884
0.00017571489
0.00165272
0.00035947228
0.001691087
0.00046547717
0.0016302097
0.00053414355
0.0016015317
0.00046948352
0.001583928
0.0005698254
0.0015500502
0.0006318655
0.0014925216
0.00082234621
0.0012898938
0.0011620863
0.0010683726
0.0014777595
0.0011388252
0.0015506891
0.0014506634
0.0018455494
0.0015061642
-5.9512091e-05
0.0017948607
-0.00035213946
0.0016665745
-0.00075254263
0.0014690267
-0.001116552
0.0013469994
-0.0011406903
0.0012752685
-0.00062174532
0.0011776404
0.00034283952
0.0010097405
0.0013525536
0.00090836586
0.0019255186
0.00093626583
0.0019776773
0.0010655501
0.0017183761
0.0012424251
0.0012880943
0.001445239
0.00065899493
0.0015330874
-0.00023792181
0.0014963469
-0.0012080934
0.0014810376
-0.0019133318
0.0015280067
-0.0019777889
0.0015857813
-0.0011040547
0.0016591527
0.00043355319
0.0016201661
0.002216421
0.0013516904
0.0033749083
0.0011944668
0.0035754372
0.001291639
0.0015247356
0.0029528231
-0.0010845922
0.0016811432
-0.0022141481
0.0016012665
-0.0031336089
0.0014096249
-0.0035398634
0.0013261091
-0.0032317005
0.0013107318
-0.0019580329
0.0013050819
6.1417184e-05
0.0012067705
0.0020535536
0.0011053304
0.0034713951
0.0010691416
0.0040072924
0.0010767177
0.0036916623
0.0011317535
0.0026384982
0.0012457594
0.0011240793
0.001328746
-0.00057555151
0.0013151665
-0.0021419184
0.0013188526
-0.0031409416
0.0014004234
-0.0032335883
0.0015121717
-0.0023048062
0.0016537892
-0.00060124897
0.0017393496
0.0015038526
0.0016049654
0.0032988101
0.001414088
0.0042995366
0.0013778202
0.0014301921
0.0041474981
-0.0019033475
0.0015642217
-0.0033902356
0.0015117459
-0.0040631825
0.0013248081
-0.0039190599
0.0012763838
-0.0030752879
0.0012927829
-0.0017808697
0.00130994
-0.00024967794
0.001254525
0.0013588126
0.0011941283
0.0027640649
0.0011818075
0.0037923573
0.0011754116
0.0040638617
0.0011673762
0.0034132848
0.0011933163
0.0018110122
0.001223605
-0.00036716143
0.0011842544
-0.0021765342
0.0011748029
-0.0030318642
0.0012732645
-0.002950919
0.0014287656
-0.0021951282
0.0015760723
-0.00095480764
0.0017067948
0.00048446434
0.0016583572
0.0019523556
0.0015125671
0.0031732095
0.0014724046
0.0015019698
0.0037379871
-0.0017757944
0.0015213475
-0.002868509
0.0014646609
-0.0030925416
0.0012665069
-0.0026713958
0.0012151335
-0.0019222416
0.0012270148
-0.0010660345
0.0012467879
-0.0002293603
0.0012144048
0.00058483633
0.0011843026
0.001443725
0.0012042057
0.002212115
0.0012236982
0.0027526928
0.001227032
0.0026979066
0.0012393181
0.0017864801
0.0012490282
0.00017098576
0.001181427
-0.0013059081
0.0011374839
-0.0019696129
0.0012146937
-0.0019230664
0.0013548635
-0.0014339259
0.0014823148
-0.00069362902
0.0016197968
3.327342e-05
0.001608757
0.00084340275
0.0014987529
0.0016206747
0.0014805929
0.0015492653
0.0021706289
-0.00085824654
0.0015480214
-0.0012811221
0.0014690429
-0.0013539977
0.0012534419
-0.0010875122
0.0011803064
-0.00070849409
0.0011726977
-0.00031823151
0.0011842339
-5.0031212e-05
0.0011513178
0.00013808304
0.0011305626
0.00034879199
0.0011637928
0.00060176481
0.0012046632
0.00095752489
0.0012384042
0.0011450752
0.0012679605
0.00096080349
0.0012921192
0.00035785889
0.0012433221
-0.0002737427
0.0012020934
-0.00057902414
0.0012491017
-0.00055196983
0.0013417648
-0.00044244976
0.0014221143
-0.00024838291
0.0015198535
-7.6129311e-05
0.0015158598
0.00014241293
0.0014469295
0.00038891106
0.0014447723
0.001542511