/*--------------------------------*- C++ -*----------------------------------*\
| =========                 |                                                 |
| \\      /  F ield         | OpenFOAM: The Open Source CFD Toolbox           |
|  \\    /   O peration     | Version:  2406                                  |
|   \\  /    A nd           | Website:  www.openfoam.com                      |
|    \\/     M anipulation  |                                                 |
\*---------------------------------------------------------------------------*/
FoamFile
{
    version     2.0;
    format      ascii;
    arch        "LSB;label=32;scalar=64";
    class       volScalarField;
    location    "170";
    object      pMean;
}
// * * * * * * * * * * * * * * * * * * * * * * * * * * * * * * * * * * * * * //

dimensions      [1 -1 -2 0 0 0 0];

internalField   nonuniform List<scalar> 
20580
(
1.0039377
1.0050291
1.0040264
1.0041665
1.0042892
1.0043254
1.0043572
1.0044026
1.0044533
1.0045078
1.0045598
1.0046087
1.0046544
1.0046983
1.0047377
1.0047706
1.0047956
1.0048195
1.0048316
1.0048339
1.0048227
1.0047981
1.0047485
1.0046637
1.0045515
1.0044195
1.0042533
1.0040318
1.003767
1.00348
1.0031998
1.0039197
1.005029
1.0040322
1.0041676
1.0042898
1.0043256
1.004357
1.0044019
1.0044521
1.0045051
1.0045558
1.004603
1.0046473
1.0046881
1.0047245
1.0047563
1.0047805
1.0047994
1.0048066
1.0048046
1.0047914
1.0047541
1.0047033
1.0046361
1.0045429
1.0044274
1.0042707
1.0040552
1.0037987
1.0034699
1.0031146
1.0039062
1.0050312
1.0040334
1.0041676
1.0042896
1.0043249
1.0043561
1.0044002
1.0044499
1.0045014
1.0045509
1.0045962
1.0046378
1.0046758
1.004709
1.0047377
1.0047583
1.0047725
1.0047752
1.0047679
1.0047488
1.0047055
1.0046501
1.0045794
1.0044769
1.0043567
1.0042076
1.0040166
1.0037979
1.0034921
1.0031421
1.0038911
1.0050316
1.0040323
1.0041668
1.0042887
1.0043241
1.0043552
1.0043984
1.0044477
1.0044977
1.0045461
1.0045898
1.0046291
1.0046645
1.0046944
1.0047191
1.0047367
1.0047465
1.0047441
1.0047298
1.0047065
1.0046623
1.0045995
1.0045134
1.004398
1.0042594
1.00411
1.0039444
1.0037592
1.0035217
1.0032066
1.0038825
1.0050354
1.0040329
1.0041691
1.0042896
1.0043239
1.004355
1.0043973
1.0044458
1.0044944
1.0045416
1.004584
1.0046214
1.0046545
1.0046813
1.0047016
1.004715
1.0047215
1.0047145
1.0046942
1.004666
1.0046198
1.004553
1.0044669
1.004349
1.004196
1.0040287
1.003852
1.0036679
1.0034724
1.003229
1.0038753
1.0050396
1.0040312
1.0041706
1.0042906
1.0043232
1.0043541
1.0043961
1.0044435
1.0044911
1.0045375
1.0045786
1.0046142
1.0046451
1.0046696
1.0046865
1.004697
1.0046988
1.0046886
1.0046641
1.0046313
1.0045805
1.0045072
1.0044232
1.0043261
1.0041926
1.0040089
1.0037908
1.0035619
1.0033291
1.0031088
1.0038676
1.0050407
1.0040256
1.00417
1.0042905
1.0043221
1.0043527
1.0043945
1.004441
1.0044881
1.0045338
1.004574
1.0046079
1.0046369
1.004659
1.0046742
1.0046834
1.0046819
1.0046693
1.0046403
1.0046023
1.0045479
1.0044744
1.0043918
1.0042918
1.0041722
1.0040192
1.0038162
1.0035729
1.0032922
1.0029964
1.0038558
1.0050406
1.004019
1.004168
1.0042903
1.0043214
1.0043515
1.0043935
1.0044388
1.0044851
1.0045302
1.0045696
1.0046018
1.0046288
1.0046495
1.0046638
1.0046713
1.0046678
1.004652
1.0046198
1.0045782
1.0045229
1.004451
1.0043637
1.0042465
1.0041162
1.0039769
1.0038252
1.0036428
1.0034219
1.0031277
1.0038511
1.0050394
1.0040104
1.004168
1.0042903
1.0043208
1.0043506
1.0043922
1.0044367
1.0044821
1.004527
1.0045655
1.0045961
1.0046215
1.0046407
1.0046533
1.004659
1.0046543
1.004636
1.0046015
1.0045547
1.0044967
1.0044206
1.0043285
1.0042093
1.0040659
1.0039123
1.003764
1.003608
1.0034268
1.0032248
1.0038485
1.0050424
1.0040028
1.0041694
1.0042916
1.0043196
1.0043494
1.0043902
1.0044342
1.004479
1.004524
1.0045619
1.004591
1.0046155
1.004633
1.0046428
1.0046467
1.0046403
1.004621
1.0045847
1.0045368
1.004473
1.0043867
1.0042855
1.0041745
1.0040447
1.0038771
1.0036878
1.0035014
1.0032969
1.0031172
1.0038442
1.0050369
1.0039979
1.0041713
1.0042923
1.0043184
1.0043482
1.0043882
1.0044321
1.0044762
1.0045218
1.0045588
1.0045866
1.0046103
1.0046268
1.0046355
1.0046383
1.0046301
1.0046089
1.0045727
1.0045242
1.0044623
1.0043772
1.0042707
1.0041561
1.0040338
1.0038821
1.0036877
1.0034693
1.0032263
1.0029895
1.0038335
1.0050343
1.0039969
1.0041709
1.0042914
1.0043185
1.0043484
1.0043866
1.0044291
1.0044725
1.0045192
1.0045561
1.0045825
1.004605
1.0046206
1.0046283
1.004631
1.0046228
1.0046
1.0045631
1.004515
1.0044581
1.0043834
1.0042853
1.0041624
1.0040285
1.0038941
1.0037412
1.0035567
1.0033398
1.0030994
1.0038184
1.0050308
1.003995
1.0041728
1.0042895
1.0043172
1.004348
1.004386
1.0044275
1.0044701
1.0045176
1.004554
1.0045794
1.0046015
1.0046174
1.0046247
1.0046247
1.0046159
1.004594
1.0045576
1.0045087
1.0044516
1.0043801
1.0042892
1.0041712
1.004028
1.00388
1.0037358
1.0035941
1.0034198
1.0032557
1.0038226
1.0050239
1.0039897
1.0041773
1.0042887
1.0043151
1.0043461
1.0043833
1.0044236
1.0044659
1.0045149
1.0045505
1.004575
1.0045963
1.0046129
1.0046221
1.0046183
1.004609
1.004585
1.0045471
1.0044981
1.0044403
1.0043643
1.0042697
1.0041581
1.0040317
1.0038858
1.0037143
1.0035416
1.0033402
1.0031817
1.0038152
1.0050213
1.0039879
1.0041824
1.0042889
1.0043143
1.0043457
1.0043835
1.0044218
1.0044619
1.0045135
1.0045482
1.0045714
1.004592
1.0046077
1.0046166
1.0046152
1.004605
1.0045797
1.0045399
1.0044853
1.0044221
1.0043437
1.0042476
1.004135
1.0040092
1.0038677
1.0036989
1.0035094
1.0033036
1.0031032
1.0038116
1.0050234
1.0039799
1.0041825
1.0042878
1.0043128
1.0043439
1.0043799
1.004419
1.004457
1.0045119
1.0045453
1.004567
1.0045875
1.004602
1.0046087
1.0046093
1.0045996
1.0045752
1.0045367
1.0044823
1.0044186
1.0043414
1.0042489
1.0041347
1.0040035
1.0038624
1.0037071
1.0035291
1.0033258
1.0031023
1.0037986
1.0050153
1.0039718
1.0041899
1.0042867
1.0043117
1.0043442
1.0043813
1.0044158
1.0044513
1.0045131
1.0045457
1.0045661
1.0045859
1.0045996
1.004607
1.0046079
1.0045983
1.0045741
1.004538
1.0044879
1.0044238
1.004351
1.0042707
1.0041654
1.0040274
1.0038806
1.0037476
1.0036099
1.0034505
1.0032241
1.0037926
1.0050164
1.0039616
1.0041916
1.0042822
1.0043076
1.0043419
1.0043758
1.0044182
1.004445
1.0045113
1.0045407
1.0045602
1.0045816
1.004595
1.0046027
1.0046027
1.0045933
1.0045722
1.0045397
1.004497
1.004441
1.0043694
1.004286
1.0041906
1.0040755
1.0039298
1.0037667
1.0036015
1.003438
1.0032659
1.0038006
1.0049962
1.0039588
1.0042092
1.004284
1.0043089
1.0043439
1.0043779
1.0044054
1.0044396
1.0045192
1.0045435
1.0045612
1.0045791
1.0045937
1.0046061
1.0046053
1.0045945
1.0045716
1.0045364
1.0044919
1.0044361
1.0043654
1.00428
1.0041806
1.004072
1.0039539
1.0038164
1.0036457
1.0034511
1.0032608
1.0037815
1.0050199
1.0039415
1.0042072
1.0042796
1.0043048
1.0043428
1.0043717
1.0044229
1.004422
1.0045124
1.0045354
1.004554
1.0045775
1.0045862
1.0045991
1.0045988
1.0045877
1.0045668
1.0045314
1.0044866
1.0044296
1.0043559
1.0042684
1.0041674
1.0040522
1.0039189
1.0037707
1.0036087
1.0034366
1.0032504
1.003774
1.004988
1.0039427
1.0042279
1.0042788
1.0043065
1.0043439
1.0043771
1.0043899
1.00443
1.0045309
1.0045401
1.0045576
1.004572
1.0045892
1.0046057
1.0046043
1.0045941
1.0045712
1.0045348
1.0044874
1.0044302
1.0043603
1.0042787
1.0041833
1.0040712
1.0039407
1.0037991
1.0036495
1.0034909
1.0033097
1.0037667
1.0050183
1.0038949
1.0042295
1.0042697
1.0042988
1.0043409
1.0043666
1.0044393
1.0043701
1.0045287
1.0045287
1.0045513
1.0045789
1.0045733
1.004599
1.0045967
1.0045908
1.0045741
1.0045393
1.0044938
1.0044408
1.0043715
1.0042953
1.0042034
1.0040965
1.0039635
1.0038205
1.0036663
1.0035239
1.003343
1.0037505
1.0049702
1.003929
1.0042454
1.0042562
1.0042984
1.004329
1.0043663
1.0043573
1.0044274
1.0045308
1.0045269
1.0045494
1.0045569
1.0045845
1.0046043
1.0046013
1.0045947
1.0045774
1.0045486
1.0045085
1.0044635
1.0044043
1.0043328
1.0042449
1.0041497
1.0040472
1.0039341
1.0037872
1.0036213
1.0034364
1.0032614
1.0031957
1.003108
1.0030693
1.0030732
1.0030555
1.0030198
1.0029211
1.0029107
1.002954
1.0029653
1.0028337
1.0027396
1.0028596
1.0028948
1.0028313
1.0027196
1.0028022
1.0028547
1.0028427
1.0027275
1.0027644
1.0029021
1.0029798
1.002896
1.0028504
1.0027518
1.0028063
1.0028585
1.0028061
1.002682
1.0025638
1.0026652
1.0027415
1.002627
1.002438
1.0024345
1.0025813
1.0025803
1.0024143
1.0022382
1.0023761
1.0025337
1.0023982
1.0020906
1.0021606
1.0028124
1.0026097
1.0025117
1.0024118
1.0025723
1.0025957
1.0025381
1.0022882
1.0022097
1.0023448
1.0024482
1.0023131
1.0020962
1.0020208
1.0021664
1.002253
1.0020758
1.0017844
1.001822
1.0020943
1.0019975
1.00161
1.0015453
1.0025671
1.0022544
1.0021193
1.0020188
1.0022533
1.0023924
1.0023126
1.0019844
1.0018058
1.0019047
1.0021935
1.0021363
1.0018559
1.0015024
1.001653
1.0020152
1.0018838
1.0014397
1.0012104
1.001625
1.0017909
1.0014026
1.0009681
1.0023404
1.0019921
1.0018038
1.0016606
1.0018599
1.0021061
1.0020921
1.0017297
1.0014125
1.0014379
1.0018437
1.0020051
1.0016597
1.0010768
1.0010906
1.0016546
1.0018111
1.0013013
1.0006141
1.0008516
1.0015242
1.0013732
1.0006115
1.0021289
1.0017068
1.0014575
1.0012565
1.0014919
1.0019083
1.0019865
1.0015597
1.0010604
1.0009366
1.0014212
1.0019005
1.0016572
1.0008656
1.0004776
1.0009616
1.0016576
1.0013796
1.0004093
1.0000192
1.0007144
1.0012934
1.0006563
1.0019775
1.0014457
1.001086
1.0008565
1.0011434
1.0017184
1.0019119
1.0014673
1.0007781
1.0004915
1.0009226
1.0017397
1.0016955
1.0008252
1.0000176
1.0002942
1.0013693
1.0015922
1.0005941
0.99940526
0.99968402
1.0010547
1.0010472
1.0020491
1.0013379
1.0008414
1.0005564
1.0008662
1.0016305
1.0020301
1.0015775
1.0006121
1.0001274
1.0005089
1.001651
1.0019657
1.0010947
0.99979577
0.99962383
1.0006679
1.0018257
1.0011639
0.99946074
0.99879694
0.99992472
1.0012912
1.0022312
1.0012995
1.0005644
1.0002401
1.0005941
1.0016636
1.0023282
1.0019245
1.0005993
0.99984519
1.0001054
1.0014296
1.0023297
1.0016905
0.99988172
0.99909898
0.99990894
1.0017962
1.0018268
1.0000461
0.99834374
0.99885185
1.0009615
1.0027267
1.0014993
1.0004664
1.0000608
1.0004231
1.0017551
1.0027339
1.0024304
1.0007952
0.99974387
0.99979263
1.0011714
1.0027468
1.002456
1.0003077
0.99892821
0.99929794
1.0013187
1.0025664
1.0011785
0.99857506
0.9979306
0.99971212
1.0033572
1.0018381
1.0004677
0.99995699
1.0003529
1.001971
1.0033923
1.0031888
1.0012463
0.99975309
0.99950601
1.0009933
1.0032587
1.0034304
1.0012367
0.99901952
0.99866832
1.0006206
1.0032322
1.0026652
0.99949667
0.99747873
0.99843073
1.0044412
1.0024549
1.0005881
0.99988781
1.0003615
1.0023579
1.00438
1.0043379
1.0020528
0.99992998
0.99929929
1.0007798
1.0036515
1.0046831
1.0025896
0.99947519
0.99829592
0.9999691
1.0033374
1.0041715
1.0011796
0.99780077
0.99728355
1.0057589
1.0033058
1.0008702
0.9999526
1.0005134
1.0028497
1.0055029
1.0056207
1.0030942
1.0002798
0.9992846
1.0006813
1.0038958
1.0059156
1.0041245
1.0002927
0.99831821
0.99942216
1.0029636
1.0054763
1.0032817
0.99882244
0.99681603
1.0071208
1.004256
1.0013274
1.0001986
1.0008002
1.0033882
1.0065208
1.0069681
1.004198
1.0008311
0.9994785
1.0006981
1.0040959
1.0069022
1.0055751
1.0013462
0.99868047
0.99917112
1.0024979
1.0061313
1.0050668
1.0001251
0.99705721
1.0084319
1.005281
1.0018996
1.0005515
1.0011725
1.0039921
1.0075108
1.0082607
1.0052812
1.0014651
0.99976788
1.0008484
1.0043917
1.0077538
1.0068609
1.0024124
0.99916098
0.99905425
1.0022237
1.0065505
1.0064308
1.0015235
0.99755873
1.00969
1.0061772
1.0024759
1.0009239
1.0015422
1.0045288
1.0084058
1.009367
1.0061752
1.0020209
1.0000693
1.0010638
1.0047667
1.0085782
1.0079706
1.0033227
0.99959238
0.99907775
1.0021491
1.0069419
1.0076217
1.0028099
0.99818546
1.0107048
1.0069845
1.002963
1.0012441
1.0018851
1.0050638
1.0092782
1.0103806
1.0069614
1.0024575
1.0002748
1.0012639
1.0051891
1.0093499
1.0088684
1.0040097
0.99989807
0.99915413
1.002263
1.0073446
1.0085123
1.0036835
0.99864441
1.0119038
1.0076897
1.0035029
1.0015269
1.0021502
1.0055032
1.0100346
1.0112546
1.0075817
1.0027633
1.0004131
1.0014653
1.0056589
1.0100364
1.0095081
1.0043603
1.0000508
0.99928205
1.0025767
1.0078534
1.0090707
1.0040002
0.99879583
1.0126535
1.0081728
1.003891
1.0017288
1.0023826
1.0059163
1.0106961
1.011916
1.0079107
1.0028521
1.0004708
1.0017065
1.0062309
1.0106734
1.0097875
1.0042689
0.99998135
0.99946006
1.0031491
1.0085444
1.0092925
1.0037016
0.99864402
1.0130897
1.0084161
1.0040173
1.0018275
1.0025551
1.0062596
1.0111903
1.0122099
1.0078104
1.0026202
1.0003912
1.0019995
1.0069399
1.0111975
1.0095342
1.003632
0.99963128
0.99974614
1.0040642
1.0093278
1.008925
1.0026961
0.99815087
1.0132724
1.008514
1.0039816
1.0018704
1.0026654
1.0064644
1.0113787
1.0120197
1.0072472
1.0021057
1.000216
1.0023398
1.0076452
1.0113108
1.0085259
1.0024503
0.9991067
1.0002246
1.0052966
1.0098786
1.0076424
1.0010944
0.99749396
1.0129182
1.0083089
1.0036725
1.0017593
1.0026303
1.0065025
1.0112571
1.0113409
1.006225
1.0013447
0.99997863
1.0027251
1.0082296
1.0108427
1.0067806
1.0009172
0.99859446
1.001012
1.00667
1.0097163
1.0053318
0.99921436
0.99718248
1.0119085
1.0075096
1.0029252
1.0013368
1.0023559
1.0062725
1.010672
1.0100524
1.0047257
1.0003418
0.99966639
1.0030479
1.0084436
1.0095192
1.0044163
0.99932803
0.99836619
1.0020803
1.0076969
1.0082577
1.0022699
0.99756511
0.9978639
1.0100683
1.0057284
1.0015599
1.0005497
1.001901
1.0057973
1.0094071
1.0079003
1.0026092
0.99910844
0.99941701
1.0034079
1.0081184
1.0071596
1.0016381
0.99788067
0.99864574
1.0034122
1.0077559
1.0052415
0.99918168
0.99669661
0.9995859
1.0072374
1.0029603
0.99944084
0.9991058
1.0009817
1.0047104
1.0072365
1.0049327
1.0001447
0.99780593
0.99925823
1.0036619
1.006846
1.0039669
0.99888028
0.9969068
0.99944032
1.0044048
1.0061098
1.0012378
0.99686333
0.9971245
1.0017308
1.0029835
0.99914189
0.99643684
0.99689463
0.99923214
1.0023613
1.0037161
1.001076
0.99759698
0.99672406
0.99912349
1.0032401
1.004259
1.0003287
0.99672689
0.99673562
1.0003719
1.004115
1.0026642
0.9976809
0.9959173
0.99857176
1.0029926
0.99976459
0.99681356
0.99500206
0.99562723
0.9978876
1.0000873
1.0002658
0.99782179
0.99579866
0.99610359
0.99885531
1.0017614
1.0007964
0.9972791
0.99557967
0.9971179
1.0007071
1.0021041
0.99863361
0.99570984
0.99625502
0.99987907
1.0021028
0.99723372
0.99483883
0.99330692
0.99421746
0.99629842
0.99777727
0.99745043
0.99562961
0.99473528
0.99574701
0.99827463
0.99964682
0.99772615
0.99547977
0.99530488
0.99753365
0.99996118
0.99908609
0.99600934
0.9951864
0.9971807
0.99994863
0.99966945
0.99399696
0.99169512
0.9907943
0.99156284
0.99334498
0.99438502
0.99414593
0.99331781
0.99342781
0.99489744
0.99699067
0.99715572
0.99546419
0.99450429
0.99533843
0.99756269
0.99828302
0.9963087
0.99488114
0.99543637
0.99771253
0.99854281
0.99667686
0.99318183
0.99154
0.99081254
0.99153666
0.99266415
0.99303751
0.99267416
0.99251245
0.99309452
0.99450012
0.99573049
0.99526324
0.99431237
0.99431921
0.99565585
0.99699193
0.99638891
0.9949919
0.99477487
0.99601551
0.99731591
0.99656389
0.9951462
0.99373258
0.99234624
0.99167507
0.99215973
0.99284507
0.99274117
0.99250592
0.99264227
0.99329432
0.99427091
0.99480284
0.99433219
0.9939899
0.99443959
0.99552759
0.99583466
0.99498372
0.99452021
0.99495616
0.99590273
0.99588379
0.99508027
0.99473519
0.99450686
0.99341491
0.99300428
0.99315461
0.99349306
0.99313288
0.99293743
0.99322264
0.9937914
0.9944381
0.99448224
0.99424229
0.9942347
0.99479984
0.99543627
0.99519352
0.99469002
0.9946932
0.99532156
0.99563598
0.99513148
0.99477518
0.99483161
0.99551529
0.99459855
0.99432414
0.99430648
0.99440619
0.99406359
0.99382685
0.99397278
0.99429523
0.99461225
0.99443389
0.99435005
0.99449307
0.99478502
0.99484735
0.99454824
0.99444011
0.99461148
0.99489331
0.99471951
0.99442379
0.99437115
0.99472767
0.99612602
0.99539821
0.99518863
0.99514367
0.99503382
0.99473183
0.99461712
0.994725
0.9949057
0.9950393
0.99481717
0.99479988
0.99500409
0.99516626
0.995017
0.99479949
0.99482101
0.99499133
0.99504324
0.99483154
0.99468197
0.99461002
0.99469023
0.9970392
0.99656231
0.99632196
0.9962327
0.99606048
0.99571471
0.99550029
0.99548079
0.9954553
0.99535754
0.99513627
0.99512404
0.99516815
0.9950863
0.99476691
0.9945977
0.99458553
0.99454408
0.99426299
0.99406338
0.99403191
0.99409149
0.99413982
0.99724719
0.99692823
0.99672308
0.99660207
0.99642478
0.9961689
0.99598921
0.99592548
0.99590874
0.99580411
0.99567516
0.99559692
0.99556478
0.99554802
0.99549145
0.99543897
0.99537239
0.99536842
0.99534023
0.99523988
0.99511627
0.9948884
0.99468288
0.99771385
0.99744367
0.99729224
0.99719265
0.997041
0.99680487
0.99656758
0.99642821
0.9963838
0.99627166
0.99606275
0.99587812
0.99581088
0.99570513
0.99550975
0.99527201
0.99512709
0.99503337
0.99487629
0.99466165
0.9945404
0.9944644
0.99434011
0.99792309
0.99770719
0.99757679
0.99749989
0.99738847
0.9972155
0.99702397
0.99686238
0.99677861
0.99667492
0.99651157
0.99631644
0.99620255
0.9960844
0.99592184
0.99571642
0.99554424
0.99541482
0.99526357
0.99507256
0.99488257
0.99470311
0.99448957
0.99822406
0.99803194
0.99791843
0.99784118
0.99772642
0.99757254
0.99740811
0.99725599
0.99714543
0.99702934
0.99688053
0.99669569
0.9965381
0.99641109
0.99624009
0.99603324
0.99581744
0.9956364
0.99544469
0.99523677
0.99503673
0.99481256
0.99453962
0.99840425
0.99825228
0.99815152
0.99809005
0.9979907
0.99785898
0.99772107
0.99759445
0.99748055
0.99736088
0.99721905
0.99705411
0.99687471
0.99672082
0.9965605
0.99636964
0.99614895
0.99592889
0.99569987
0.99546468
0.99524067
0.99500168
0.99466417
0.99861023
0.99847946
0.9983965
0.9983428
0.99824943
0.99813261
0.99800423
0.99788969
0.99778047
0.99766954
0.99753992
0.99739087
0.99722039
0.99704344
0.99687051
0.99669124
0.99648896
0.99625246
0.9959935
0.99573566
0.99548491
0.99522894
0.99487694
0.99878569
0.99868224
0.99859916
0.9985496
0.9984686
0.9983729
0.99826037
0.99815268
0.99804599
0.9979429
0.99783171
0.99769803
0.99754471
0.99736905
0.99718382
0.99699828
0.99680669
0.99657911
0.99630916
0.99603605
0.99576475
0.99549107
0.99513181
0.99895513
0.99886875
0.99879877
0.9987532
0.99867609
0.99859454
0.99849749
0.99839552
0.99829305
0.99819344
0.99809356
0.99797326
0.99783608
0.99767197
0.99749236
0.99730315
0.99711009
0.99689208
0.99663209
0.9963532
0.99606401
0.99577301
0.99541166
0.99911421
0.9990344
0.99896773
0.99892487
0.99885392
0.99878157
0.99870006
0.99860907
0.99851568
0.99842187
0.99833026
0.99822208
0.99809659
0.99794526
0.99777544
0.99759108
0.99739723
0.99718404
0.99693851
0.99666673
0.99637029
0.99606704
0.99571353
0.99924366
0.9991767
0.99912555
0.99908959
0.99902698
0.99896094
0.99888713
0.99880392
0.99871596
0.99862838
0.99854126
0.99844279
0.99832601
0.99818786
0.99803151
0.9978582
0.99766564
0.99745428
0.99721693
0.99695782
0.99666621
0.99636288
0.99601767
0.99937895
0.99931096
0.99925951
0.99922451
0.99916906
0.99911186
0.99904552
0.99897086
0.99888906
0.99881035
0.99872938
0.99863588
0.99852711
0.99840251
0.99826093
0.99809796
0.99791133
0.99770444
0.99747355
0.99722414
0.9969428
0.99664856
0.99632026
0.99946909
0.99941918
0.99937599
0.99934653
0.99929677
0.99924461
0.99918284
0.99911526
0.99904167
0.998969
0.99889428
0.99880756
0.99870751
0.9985934
0.9984611
0.99830674
0.99813032
0.99793315
0.99771128
0.99746898
0.9971986
0.99691403
0.99661074
0.99957127
0.99951147
0.99947114
0.99944337
0.99939766
0.99935116
0.99929572
0.99923613
0.99917076
0.99910231
0.99903237
0.99895502
0.9988644
0.99875884
0.99863349
0.9984882
0.99832368
0.99813907
0.99792844
0.99769518
0.99743674
0.99716196
0.99688438
0.99963969
0.99958896
0.99955719
0.99953002
0.99948962
0.99944557
0.99939531
0.99934099
0.99927986
0.99921474
0.99914873
0.99907839
0.99899621
0.99889894
0.99878272
0.99864766
0.99849408
0.99832089
0.99812239
0.99790078
0.99765514
0.99739272
0.99713839
0.99971025
0.99966022
0.99962491
0.99959907
0.99956014
0.99951925
0.99947252
0.99942184
0.99936563
0.99930539
0.99924324
0.99917762
0.99910183
0.99901288
0.99890696
0.99878295
0.99863965
0.99847746
0.99829267
0.99808561
0.99785456
0.99760684
0.99737312
0.99977336
0.99972161
0.99969166
0.99966538
0.99962842
0.99958769
0.9995412
0.99949079
0.99943642
0.99937871
0.99931829
0.99925451
0.99918331
0.99910177
0.99900517
0.99889138
0.99875917
0.99860882
0.99843857
0.99824731
0.99803206
0.99779975
0.99758347
0.9998126
0.99976776
0.99973575
0.99971276
0.99967611
0.99963877
0.9995941
0.9995455
0.99949246
0.99943663
0.99937768
0.99931476
0.99924625
0.99916973
0.99908043
0.99897503
0.99885343
0.99871483
0.99855793
0.99838151
0.99818254
0.9979675
0.99776867
0.99983801
0.99979143
0.99976687
0.99974614
0.99971432
0.99967835
0.99963604
0.99958873
0.99953662
0.99948124
0.99942266
0.99936034
0.99929346
0.99922068
0.99913788
0.99904105
0.99892907
0.99880232
0.99865655
0.99849396
0.99831043
0.99811225
0.9979296
0.99984685
0.99980853
0.99977984
0.99976113
0.99973053
0.99969782
0.99965779
0.99961298
0.99956295
0.99950913
0.99945118
0.99938995
0.99932492
0.99925559
0.99917892
0.99909091
0.99898892
0.99887235
0.99873906
0.99858846
0.99841986
0.99823655
0.99806728
0.99983784
0.99979816
0.99977862
0.99976238
0.99973642
0.99970554
0.99966812
0.99962444
0.99957564
0.99952266
0.99946572
0.99940528
0.99934164
0.99927476
0.99920261
0.99912227
0.99902997
0.99892361
0.99880141
0.9986635
0.99850891
0.99833967
0.99818134
0.99982202
0.99978678
0.99976443
0.99974897
0.99972383
0.99969583
0.99966067
0.9996197
0.99957278
0.99952138
0.99946565
0.9994069
0.9993444
0.99927956
0.99921064
0.99913609
0.99905194
0.99895525
0.99884388
0.9987182
0.99857687
0.99842157
0.99827249
0.99978525
0.99975417
0.99973779
0.99972611
0.99970381
0.99967806
0.99964455
0.99960522
0.99955914
0.99950844
0.99945369
0.99939586
0.9993349
0.99927163
0.99920541
0.99913492
0.99905715
0.99896911
0.99886802
0.9987538
0.99862457
0.99848177
0.9983412
0.99975673
0.99972365
0.99970661
0.99969375
0.99967119
0.99964689
0.9996154
0.99957793
0.99953387
0.99948441
0.99943072
0.9993739
0.9993143
0.99925247
0.99918839
0.99912085
0.99904805
0.99896725
0.99887554
0.9987719
0.99865416
0.99852266
0.99838997
0.99970099
0.99967789
0.99966345
0.9996553
0.9996356
0.9996131
0.99958297
0.99954659
0.99950337
0.99945456
0.99940111
0.99934454
0.9992857
0.99922488
0.99916207
0.99909642
0.99902709
0.99895185
0.99886799
0.99877345
0.99866654
0.99854492
0.99841895
0.99966438
0.99963615
0.99962296
0.99961237
0.99959302
0.99957068
0.99954158
0.99950678
0.99946551
0.99941842
0.99936607
0.99931006
0.99925171
0.99919132
0.99912916
0.99906458
0.99899724
0.99892565
0.99884796
0.9987608
0.99866399
0.99854983
0.99842988
0.99960971
0.99958769
0.99957618
0.99956951
0.99955244
0.99953159
0.99950335
0.99946895
0.99942847
0.99938187
0.99933013
0.99927413
0.99921593
0.9991552
0.99909297
0.99902847
0.998962
0.99889253
0.99881888
0.99873691
0.99864746
0.99853943
0.99842606
0.99956809
0.99954412
0.99953241
0.99952353
0.99950619
0.99948595
0.99945882
0.99942594
0.99938706
0.99934242
0.99929204
0.99923717
0.99917904
0.99911813
0.99905536
0.99899061
0.99892447
0.99885589
0.99878432
0.99870474
0.99861952
0.99851698
0.99841086
0.99952861
0.99950439
0.99949348
0.99948589
0.99947013
0.99945022
0.99942345
0.99939099
0.99935231
0.99930779
0.9992581
0.99920335
0.99914487
0.9990832
0.99901957
0.99895417
0.99888778
0.99881873
0.99874737
0.99866773
0.99858484
0.99848724
0.99838773
0.99949433
0.99946617
0.99945618
0.99944607
0.99942975
0.99941001
0.99938429
0.99935346
0.99931643
0.99927359
0.99922531
0.99917142
0.99911318
0.99905161
0.99898747
0.99892122
0.99885385
0.99878333
0.99870995
0.99862953
0.99854762
0.99845416
0.99835828
0.99946186
0.99943775
0.99942557
0.99941756
0.99940222
0.99938287
0.99935762
0.99932698
0.99929016
0.99924799
0.9992
0.99914611
0.99908804
0.99902617
0.99896155
0.99889418
0.99882502
0.99875153
0.99867507
0.99859302
0.99851122
0.99842011
0.99832636
0.99943529
0.99940502
0.99939556
0.99938513
0.99936992
0.9993515
0.99932761
0.99929868
0.99926406
0.99922382
0.99917723
0.9991245
0.9990673
0.99900584
0.99894125
0.99887293
0.99880092
0.99872412
0.99864487
0.99856094
0.99847775
0.99838699
0.99829404
0.99941117
0.99938535
0.99937263
0.99936434
0.9993495
0.99933183
0.99930873
0.99928082
0.99924719
0.99920781
0.99916199
0.99911037
0.99905424
0.9989929
0.99892781
0.99885776
0.99878338
0.99870374
0.99862163
0.99853551
0.99845006
0.99835836
0.99826465
0.99938495
0.99935472
0.99934567
0.999336
0.99932183
0.99930579
0.99928477
0.99925941
0.99922858
0.99919175
0.99914856
0.99909933
0.99904485
0.9989849
0.99891961
0.99884798
0.99877167
0.99869015
0.99860582
0.99851757
0.99842982
0.99833644
0.99824043
0.99936102
0.99933405
0.99932224
0.99931461
0.99930149
0.99928687
0.99926742
0.99924408
0.99921515
0.99918016
0.99913918
0.99909235
0.99903983
0.99898119
0.99891573
0.99884316
0.99876549
0.9986829
0.99859694
0.99850671
0.99841659
0.99832166
0.99822254
0.99932062
0.99929534
0.99928573
0.99927933
0.99926766
0.99925597
0.9992396
0.99921986
0.99919487
0.99916402
0.99912721
0.99908437
0.99903516
0.99897863
0.99891439
0.99884228
0.99876443
0.99868103
0.99859413
0.99850276
0.9984105
0.99831396
0.99821239
0.99930787
0.99927625
0.9992639
0.9992552
0.99924339
0.99923154
0.99921617
0.99919755
0.99917382
0.99914499
0.99911085
0.99907113
0.99902517
0.99897113
0.99890895
0.99883913
0.99876347
0.99868104
0.99859391
0.99850194
0.99840858
0.99831031
0.99820746
0.99925874
0.99923441
0.99922439
0.99921836
0.99920758
0.99919819
0.99918537
0.99916919
0.99914797
0.99912197
0.99909106
0.99905444
0.99901062
0.99895897
0.99889987
0.99883286
0.99875946
0.99867912
0.99859392
0.99850281
0.99840931
0.99831059
0.99820787
0.99923522
0.99920377
0.99919275
0.99918513
0.9991751
0.99916565
0.99915331
0.99913761
0.99911748
0.99909297
0.99906415
0.99902992
0.99898843
0.99893907
0.99888271
0.99881902
0.99874882
0.99867077
0.99858728
0.99849797
0.99840579
0.99830773
0.99820579
0.99919804
0.99916852
0.99915892
0.99915111
0.99914119
0.99913206
0.99912029
0.99910517
0.99908577
0.99906261
0.99903532
0.99900191
0.9989615
0.99891423
0.99886053
0.99879974
0.99873261
0.99865768
0.99857625
0.99848826
0.99839707
0.9983
0.99819825
0.99915898
0.99912988
0.99912066
0.99911402
0.99910476
0.99909553
0.99908301
0.99906767
0.99904878
0.99902635
0.99899969
0.99896665
0.99892699
0.99888145
0.99883035
0.99877242
0.99870797
0.998636
0.99855798
0.99847276
0.99838298
0.99828668
0.99818518
0.9991291
0.99909469
0.99908587
0.99907792
0.99906913
0.99905923
0.99904633
0.99903068
0.99901197
0.99898949
0.99896168
0.99892795
0.99888848
0.99884314
0.99879262
0.9987365
0.99867467
0.99860532
0.99853008
0.99844797
0.99836108
0.99826665
0.99816599
0.9990811
0.99905097
0.99904327
0.99903662
0.99902896
0.99902003
0.99900727
0.9989917
0.9989731
0.99895081
0.99892264
0.99888824
0.99884848
0.99880354
0.99875349
0.99869793
0.99863717
0.99856961
0.99849647
0.99841622
0.9983313
0.9982396
0.99814017
0.99903567
0.99900043
0.99899518
0.99898732
0.99898052
0.99897165
0.99895915
0.99894383
0.99892555
0.99890291
0.99887424
0.99883985
0.99880046
0.99875622
0.99870671
0.99865167
0.9985918
0.99852567
0.99845425
0.99837608
0.9982931
0.99820389
0.99810622
0.99897477
0.99894481
0.99893883
0.99893264
0.99892562
0.99891748
0.99890505
0.99889013
0.99887139
0.9988476
0.99881818
0.99878361
0.99874439
0.99870051
0.99865143
0.9985968
0.99853752
0.99847248
0.99840203
0.99832509
0.99824413
0.99815772
0.99806201
0.9988992
0.99886949
0.99886603
0.99886031
0.99885401
0.99884676
0.99883551
0.99882151
0.99880238
0.99877782
0.99874823
0.99871366
0.99867414
0.99863006
0.9985813
0.99852724
0.99846827
0.9984039
0.99833475
0.99825907
0.99817953
0.99809548
0.99800211
0.99881697
0.9987889
0.99878642
0.99878185
0.99877596
0.99876886
0.99875744
0.99874336
0.99872306
0.99869718
0.99866673
0.99863171
0.99859174
0.99854676
0.99849718
0.99844294
0.99838401
0.99831937
0.99825031
0.99817561
0.9980971
0.99801427
0.9979221
0.9987185
0.99869072
0.99868918
0.99868482
0.99867933
0.99867209
0.99866016
0.99864504
0.99862365
0.99859662
0.99856506
0.99852882
0.99848788
0.99844176
0.99839104
0.9983358
0.99827611
0.99821085
0.99814121
0.99806653
0.99798858
0.99790638
0.99781491
0.99862234
0.99859446
0.99859234
0.99858707
0.99858072
0.99857246
0.99855899
0.99854182
0.99851808
0.99848914
0.99845527
0.99841651
0.99837303
0.9983245
0.99827148
0.99821359
0.99815138
0.998084
0.99801237
0.99793579
0.99785625
0.99777298
0.99768105
0.99851909
0.99849073
0.9984892
0.99848267
0.9984753
0.99846541
0.99844976
0.99842952
0.99840275
0.99837081
0.9983339
0.99829185
0.99824504
0.99819313
0.99813687
0.99807551
0.99800971
0.99793901
0.99786407
0.99778421
0.99770136
0.99761527
0.99752106
0.99843552
0.998403
0.99839984
0.99839015
0.99838056
0.99836781
0.99834887
0.99832492
0.99829448
0.99825861
0.99821742
0.99817072
0.99811907
0.99806192
0.99800043
0.99793367
0.99786254
0.99778659
0.99770626
0.99762126
0.99753357
0.99744291
0.99734308
0.99834449
0.99831399
0.99831073
0.99830014
0.99828883
0.99827399
0.99825171
0.99822456
0.99819081
0.99815166
0.99810658
0.99805561
0.99799944
0.99793711
0.99787031
0.99779756
0.99772015
0.99763783
0.99755092
0.99745921
0.99736462
0.99726759
0.99716069
0.99829139
0.99825471
0.99825082
0.99823584
0.99822194
0.9982027
0.99817622
0.99814454
0.99810614
0.99806219
0.99801211
0.99795592
0.99789433
0.99782611
0.99775305
0.99767381
0.99758942
0.99750005
0.99740576
0.99730666
0.99720413
0.99709982
0.99698503
0.99824113
0.99820937
0.9982033
0.99818838
0.99817232
0.99815097
0.99812153
0.99808689
0.99804502
0.99799736
0.99794313
0.99788259
0.99781607
0.99774241
0.99766353
0.99757814
0.99748732
0.99739108
0.99728936
0.99718243
0.99707171
0.99695927
0.9968366
0.99821789
0.99818284
0.99817661
0.99815934
0.99814132
0.99811677
0.99808438
0.9980467
0.99800145
0.99795018
0.99789194
0.99782706
0.99775616
0.99767778
0.9975938
0.99750284
0.99740607
0.99730382
0.99719587
0.99708234
0.99696445
0.99684523
0.99671671
0.99819935
0.99816519
0.99815861
0.99814149
0.99812285
0.99809771
0.99806442
0.99802556
0.99797876
0.99792561
0.99786523
0.9977978
0.99772359
0.99764145
0.9975534
0.99745844
0.99735702
0.99724939
0.99713594
0.99701684
0.9968929
0.99676723