/*--------------------------------*- C++ -*----------------------------------*\
| =========                 |                                                 |
| \\      /  F ield         | OpenFOAM: The Open Source CFD Toolbox           |
|  \\    /   O peration     | Version:  2406                                  |
|   \\  /    A nd           | Website:  www.openfoam.com                      |
|    \\/     M anipulation  |                                                 |
\*---------------------------------------------------------------------------*/
FoamFile
{
    version     2.0;
    format      ascii;
    arch        "LSB;label=32;scalar=64";
    class       volScalarField;
    location    "80";
    object      omega_0;
}
// * * * * * * * * * * * * * * * * * * * * * * * * * * * * * * * * * * * * * //

dimensions      [0 0 -1 0 0 0 0];

internalField   nonuniform List<scalar> 
20580
(
3.5394706
2.695909
2.2032427
1.8666308
1.6211391
1.437776
1.2966815
1.1836942
1.091729
1.0154304
0.95152349
0.89667185
0.85030711
0.80959807
0.77465061
0.74354367
0.71662312
0.69416135
0.67365557
0.65713424
0.64419546
0.62913882
0.61783653
0.61328742
0.61361879
0.61418591
0.61905063
0.62133389
0.62149232
0.62847831
0.64454455
3.5415346
2.6957957
2.203766
1.8711583
1.6297935
1.4457232
1.3042772
1.1906906
1.0981033
1.021495
0.95766794
0.90229823
0.85583167
0.81510949
0.78030851
0.74862842
0.72192
0.69898565
0.67849359
0.66275713
0.65052226
0.63703024
0.62368836
0.61597433
0.6157952
0.61651404
0.62088205
0.62861271
0.63427893
0.64506901
0.65236581
3.5423712
2.6941579
2.2020565
1.8711764
1.6329506
1.4501114
1.3089456
1.1959954
1.1040825
1.0269032
0.96320006
0.90823869
0.86084116
0.82070039
0.78470931
0.75346288
0.72629671
0.70283575
0.68181011
0.66621081
0.65266636
0.63928101
0.62814083
0.61701455
0.61496508
0.61421337
0.61614025
0.62346554
0.63228816
0.64118845
0.66135428
3.5452373
2.6890303
2.1971714
1.8692744
1.6320602
1.4518099
1.3119208
1.2001389
1.1081619
1.0326332
0.96781838
0.9142318
0.86603012
0.82653577
0.78964863
0.75817861
0.73120216
0.70683551
0.68563312
0.66905778
0.65599392
0.64041733
0.63203919
0.62001845
0.61570544
0.61511872
0.6161788
0.6204527
0.62521364
0.62927534
0.64814104
3.5524557
2.6881631
2.1926977
1.8650543
1.6299034
1.4537221
1.3163163
1.2036514
1.1117863
1.0361864
0.9723735
0.91754406
0.87176237
0.83064027
0.79613828
0.7623185
0.73725714
0.7107322
0.69129525
0.67192417
0.6594994
0.64436732
0.63425244
0.62494295
0.61853245
0.61925256
0.62141416
0.6247677
0.629497
0.63258313
0.63778749
3.5599795
2.6921721
2.1898064
1.8627996
1.6298687
1.4547764
1.3188319
1.2075706
1.1167534
1.0398432
0.97666276
0.92081554
0.87584166
0.83393057
0.80007091
0.7668935
0.74116415
0.71554927
0.69562277
0.67729189
0.66216485
0.65061362
0.63895184
0.6283466
0.62115762
0.62287228
0.62626148
0.63373526
0.64253572
0.6562384
0.65384372
3.5631208
2.6999145
2.1832234
1.8565361
1.6267284
1.4530371
1.3179568
1.2095199
1.1214915
1.0455525
0.98266526
0.92619389
0.88015753
0.83797782
0.80285866
0.77048233
0.74342758
0.71856252
0.69869212
0.68131796
0.6647718
0.65434134
0.6430411
0.6315935
0.62073929
0.62105095
0.62423676
0.62998151
0.64050108
0.65924781
0.67158319
3.567711
2.7013032
2.1829976
1.8431525
1.6109492
1.4430972
1.3144655
1.2086274
1.1231397
1.0497614
0.98835642
0.93286742
0.8867526
0.84412654
0.8074466
0.77520423
0.74633466
0.72184233
0.70085678
0.68419747
0.66584222
0.65654477
0.64567142
0.63554169
0.6230312
0.61804229
0.61824834
0.6189746
0.62573867
0.64156342
0.66949961
3.6268303
2.7318655
2.1975622
1.8467369
1.6048631
1.4295741
1.2996368
1.1972365
1.1170095
1.0475923
0.9872576
0.93605444
0.89064697
0.85255503
0.8149459
0.78489013
0.75328042
0.72903501
0.70608821
0.68752993
0.66900772
0.6579364
0.65023994
0.63978029
0.63057904
0.62185953
0.6202082
0.61986971
0.62133475
0.62782162
0.64586942
3.838919
2.965721
2.3092625
1.9017445
1.6327295
1.4400878
1.3001171
1.1889467
1.1005605
1.0306046
0.97515588
0.93083354
0.88880158
0.85336835
0.82008551
0.79154285
0.76304937
0.738463
0.71676921
0.6957217
0.67783812
0.66400481
0.6546258
0.64681472
0.63880995
0.63299256
0.6317919
0.63375361
0.63495262
0.64016637
0.64677558
3.6862577
3.0152234
2.4760513
2.0755652
1.7725308
1.5201834
1.3412679
1.2104756
1.1087244
1.0313831
0.96640199
0.91720349
0.87602006
0.84337754
0.81431396
0.78815418
0.76266513
0.73933427
0.71940416
0.69942957
0.6835509
0.67094317
0.65998106
0.65228049
0.64652373
0.64045941
0.64107784
0.64754185
0.65465902
0.67104585
0.67494654
3.6223137
2.923938
2.4675754
2.1302841
1.8689537
1.6654898
1.4845305
1.3238212
1.1797155
1.0701404
0.98709071
0.92550818
0.8775966
0.83853197
0.80520718
0.77615651
0.75152382
0.72971193
0.71124994
0.69330445
0.68019698
0.66893117
0.65857198
0.651477
0.6474842
0.6398502
0.63761052
0.64247678
0.65235114
0.66728798
0.68268503
3.7589172
2.9133141
2.4143178
2.0774365
1.824699
1.6496517
1.4991421
1.372684
1.2684609
1.1724248
1.0794703
0.99479617
0.92236157
0.86842514
0.82633759
0.79067881
0.76060954
0.73495041
0.71289328
0.69307744
0.67828408
0.66514418
0.65364881
0.64722068
0.64411221
0.63636865
0.62938506
0.63001395
0.63728013
0.6456921
0.65945557
3.7362957
2.9650068
2.439759
2.0838486
1.8158071
1.614477
1.4579639
1.3358659
1.2442409
1.1641658
1.1013709
1.0532292
1.0122782
0.97173069
0.92970653
0.89153758
0.85187244
0.81344429
0.77706391
0.73991574
0.71130062
0.68880666
0.66927441
0.65698186
0.65004348
0.64139055
0.63211261
0.63110302
0.6358832
0.64419192
0.65139327
3.6109852
2.8705375
2.4156418
2.0914399
1.8342014
1.6271424
1.4619099
1.3299555
1.2207365
1.135923
1.0720955
1.0294291
1.0000212
0.97536973
0.95548182
0.93566558
0.91537617
0.8946967
0.87039205
0.84752585
0.81953746
0.79458532
0.76351909
0.73642752
0.71448781
0.69281204
0.67213908
0.66060468
0.66034116
0.66643031
0.66876945
3.6013951
2.7722455
2.3054333
2.011489
1.7843795
1.6016405
1.4513763
1.323921
1.2169477
1.1300673
1.0604147
1.0041523
0.96198384
0.93411272
0.91222757
0.89351018
0.87708191
0.864903
0.85017929
0.8395142
0.82396092
0.81289878
0.80174505
0.79324447
0.78335668
0.77847433
0.76907263
0.75846931
0.74704556
0.74428736
0.74072123
3.6617865
2.7916038
2.2722741
1.9317231
1.6892793
1.5205345
1.3894464
1.2822727
1.1906473
1.1131719
1.0469773
0.9943949
0.94824135
0.91201121
0.87953494
0.85329226
0.82824534
0.80808441
0.79012251
0.77970853
0.77173144
0.7648823
0.76373011
0.76545843
0.76440451
0.76417227
0.76579914
0.7655272
0.76400584
0.76298272
0.76445187
3.8016585
2.9366509
2.3366484
1.9593744
1.6964011
1.5050206
1.3606698
1.2492073
1.1589447
1.0863978
1.0264532
0.9777767
0.93654976
0.9008243
0.86838334
0.84095298
0.81424771
0.79159326
0.76906242
0.75408718
0.73828305
0.72388527
0.716475
0.71001698
0.70673559
0.70561864
0.70979711
0.71646064
0.72094159
0.72321558
0.73129047
3.5977323
2.938826
2.4361465
2.0769751
1.7931645
1.5704306
1.4026728
1.2728318
1.1711305
1.0907216
1.0253686
0.97174026
0.92808358
0.89134777
0.85948288
0.83271952
0.80878148
0.78679087
0.76601354
0.750421
0.73459387
0.72000984
0.70933825
0.70245261
0.69374171
0.68863331
0.68848498
0.69182466
0.6938747
0.69381762
0.69668683
3.6348977
2.8914655
2.426366
2.1005629
1.8596008
1.6776971
1.5188933
1.3798988
1.2629698
1.1657746
1.0842236
1.0173376
0.9618485
0.91700991
0.8788135
0.84651708
0.82030237
0.79655836
0.77662764
0.76102779
0.7476446
0.7345725
0.72626537
0.72070686
0.71630578
0.71428885
0.71757783
0.72264639
0.72741924
0.7290582
0.72610065
3.6667031
3.055339
2.5190573
2.2146708
1.9701115
1.7965245
1.6597314
1.5410553
1.4486112
1.3652488
1.291754
1.2315811
1.1693346
1.1263291
1.0791952
1.0365036
1.0089297
0.98326437
0.95930245
0.94377678
0.9287398
0.91320131
0.90250446
0.89696982
0.89141918
0.88754323
0.89029059
0.89621366
0.89936547
0.8956003
0.87185927
4.3595716
5.2123389
4.1808898
3.6495515
3.3669101
3.1617956
3.026264
2.8598578
2.779187
2.6618545
2.599187
2.510193
2.4614327
2.4052035
2.34628
2.3045968
2.2818967
2.2553825
2.2252044
2.2037009
2.1697072
2.1259541
2.0909634
2.0747278
2.0444073
2.0083017
1.9861525
1.9773234
1.9607211
1.9219717
1.8311734
12.992548
14.113488
12.272432
11.806261
10.866324
10.482592
9.8361687
9.5359578
9.0569239
8.8292792
8.4495702
8.2433396
7.9326288
7.7503783
7.50468
7.304836
7.108329
6.9624289
6.7821384
6.655561
6.5200321
6.3658181
6.2314496
6.1405185
6.0238775
5.9057808
5.7783404
5.7192553
5.6333456
5.5501184
5.4122529
5.6523024
1.9194827
0.90875099
0.74137555
0.70370733
0.7294218
0.77086101
0.75489561
0.69204189
0.6632213
0.66680832
0.69135235
0.69474015
0.67891999
0.66537214
0.68049705
0.69052114
0.68162983
0.66487865
0.67023037
0.68267521
0.68250079
0.6677195
6.2644641
2.0969647
0.96744624
0.76823215
0.71853073
0.73484324
0.78032009
0.78071051
0.72687615
0.68116921
0.67797119
0.70837168
0.72515392
0.71672828
0.68884714
0.69486689
0.71723191
0.71527244
0.70116179
0.70375787
0.7157115
0.71631986
0.7040861
6.918211
2.3978207
1.0761092
0.81874606
0.74163924
0.74231753
0.78195807
0.80198808
0.77649307
0.72049304
0.70137769
0.72597102
0.75054532
0.74661601
0.71677619
0.7120174
0.73385435
0.74709111
0.7463606
0.73155818
0.73595173
0.74267881
0.73898237
7.5169859
2.622039
1.1682355
0.86913513
0.78027149
0.75958166
0.79134373
0.82591651
0.81706539
0.77032038
0.72976508
0.74164145
0.7801555
0.78126156
0.77049221
0.74674588
0.7617025
0.78067185
0.78418117
0.77162983
0.76302564
0.7694089
0.77117637
8.2269108
2.8643353
1.2930437
0.95261114
0.83063096
0.79208509
0.81892664
0.87095268
0.86180088
0.8199516
0.77050994
0.76838775
0.8057981
0.81571712
0.82040131
0.80352082
0.80904198
0.8268433
0.82544066
0.81964706
0.80321716
0.80935379
0.81722456
9.2356424
3.152272
1.4355738
1.0553583
0.90882878
0.85066974
0.86314366
0.92997906
0.92042495
0.87805605
0.82425233
0.79733375
0.83988368
0.8572323
0.86524818
0.86215334
0.8436604
0.86130387
0.86300665
0.86385051
0.85571631
0.84996962
0.85842887
10.288955
3.5567453
1.615563
1.1903267
1.0058505
0.92402791
0.91084108
0.98353719
0.98058279
0.9399241
0.88307575
0.84319327
0.87462245
0.90695978
0.90007343
0.8952257
0.87042473
0.876484
0.89290481
0.89268688
0.89724906
0.89404098
0.89875271
11.084338
4.0450192
1.8330179
1.3436174
1.1228628
1.0046099
0.96683023
1.0286201
1.0273797
0.99408757
0.9651612
0.91020345
0.92627975
0.97549129
0.96304189
0.95385138
0.93341519
0.92027347
0.94287314
0.94370235
0.95218391
0.95643251
0.95484219
11.826141
4.6890352
2.1496921
1.5451763
1.270893
1.121217
1.0584046
1.1193915
1.1139015
1.0786726
1.0658381
1.009974
0.99422604
1.0458994
1.0447873
1.0318598
1.0264873
1.0052512
1.0170259
1.0316854
1.0243551
1.0233054
1.0051682
13.10448
5.514656
2.6313419
1.8570419
1.4982733
1.3166983
1.2243917
1.2847407
1.2637857
1.1929524
1.1541047
1.0857521
1.0491865
1.0943768
1.1077055
1.093301
1.0928806
1.072454
1.0801038
1.1016385
1.0852629
1.0692897
1.060895
14.704653
6.5580377
3.2328932
2.2242886
1.7931982
1.590861
1.456764
1.4773969
1.4172961
1.2885233
1.2132473
1.1369472
1.0901681
1.1230764
1.1502428
1.1473437
1.147534
1.1504212
1.1465412
1.1629718
1.1467741
1.1198075
1.1060175
16.084402
7.5380615
3.8201285
2.5722655
2.0451272
1.8139233
1.6528634
1.6419757
1.5637305
1.3889158
1.2761326
1.2032218
1.1507736
1.1701563
1.2340333
1.2393548
1.2295365
1.2419225
1.2355582
1.2471648
1.2622495
1.2311877
1.1980999
16.919374
8.2647698
4.3052094
2.8843584
2.3058525
2.0656731
1.8984048
1.87814
1.7967486
1.5707458
1.4059422
1.3383335
1.2828725
1.2866237
1.3537172
1.3501197
1.3112928
1.3048324
1.2902869
1.2996802
1.3256804
1.3111773
1.2714246
17.221886
8.6863382
4.5492128
3.131184
2.6853826
2.5673823
2.380018
2.3438552
2.247431
1.9496617
1.6558876
1.5700146
1.4857681
1.4611569
1.5202673
1.5081384
1.44408
1.3944617
1.3695807
1.3663649
1.4099042
1.4133186
1.3909059
17.404088
9.1513546
4.7352126
3.3394957
3.0331321
3.0352785
2.9145242
2.8356608
2.70159
2.3255097
1.9016634
1.7716045
1.6745351
1.6338808
1.6848866
1.6832165
1.6279118
1.5572387
1.5348769
1.4933089
1.4838742
1.482031
1.4580674
17.794242
9.5846826
4.9205792
3.5288898
3.2727165
3.3245312
3.3003712
3.1937626
3.0008016
2.5288057
2.0411263
1.8821564
1.7972431
1.7603
1.7980377
1.7968454
1.7365879
1.6529714
1.6407493
1.6041703
1.6269352
1.6264024
1.5981142
18.263134
10.34791
5.2194977
3.7731293
3.5480231
3.7464977
3.8021134
3.6908762
3.3939444
2.7258296
2.1465025
1.9642373
1.8897067
1.8614713
1.8885621
1.8839531
1.8315499
1.7724855
1.7885806
1.7699007
1.7756976
1.7763068
1.7430592
18.505503
10.945156
5.5376273
4.0298388
3.8536369
4.3328787
4.8185881
4.8058729
4.2884938
3.071937
2.3164057
2.1243135
2.0760036
2.0625765
2.0920902
2.0855658
1.9961284
1.8737308
1.9034623
1.9050988
1.9288664
1.9286912
1.8624355
18.414554
11.265906
5.7264442
4.1976127
4.0727991
4.7574074
5.5918394
5.692701
4.9251297
3.2062863
2.4613543
2.3660312
2.4559096
2.5000353
2.4732614
2.3613137
2.0606619
1.965054
2.0558806
2.068082
2.062224
2.0516279
1.9396909
17.879853
11.299127
5.7951455
4.3241351
4.2548297
5.0993407
6.1078871
6.2274779
5.2533098
3.286078
2.5775948
2.560434
2.7836807
2.8859067
2.7839609
2.5055145
2.1044568
2.0307519
2.1879429
2.2538614
2.285276
2.2185422
1.9719551
16.964065
11.184693
5.835987
4.5213331
4.5299658
5.5560204
6.5971988
6.6518232
5.4517278
3.3484239
2.6766098
2.7040242
2.9784407
3.0768736
2.9207667
2.5118986
2.1964634
2.2080736
2.5132227
2.5956358
2.5017005
2.2189404
2.0328365
15.753071
10.966216
5.8563787
4.7598099
4.8398342
6.0369075
7.0070289
7.0094003
5.5733284
3.424156
2.7876738
2.8827083
3.248782
3.3681144
3.129205
2.5309749
2.3516322
2.5664473
2.820561
2.8296644
2.6260333
2.2389434
2.1137533
14.441227
10.648821
5.8870027
4.9723718
5.1478953
6.5031274
7.3919608
7.0895417
5.4773377
3.5259002
3.0393073
3.4080561
3.8838878
3.8964963
3.1084864
2.5908724
2.511931
2.9166054
3.1094927
3.1269082
2.560699
2.3062151
2.2777344
13.256608
10.202157
5.9314253
5.1728451
5.4601466
6.8438517
7.4098935
6.9642966
5.0828331
3.6442615
3.4371668
4.0414213
4.4676744
4.0882836
3.0835994
2.789291
2.8968804
3.4560724
3.5116173
3.0566578
2.6079939
2.4785629
2.705792
12.321158
9.6435613
5.9805473
5.3121357
5.6424337
6.8322718
7.2475458
6.5160946
4.6111414
3.8312406
3.9287846
4.7043254
4.9630302
4.0038046
3.246507
3.1381946
3.6548687
3.8105931
3.5276151
3.0273853
2.8331387
2.8791696
3.1173812
11.657091
8.991043
5.9951427
5.4019361
5.7435266
6.6415489
6.8628897
5.810309
4.4154257
4.0958821
4.4551955
4.8996251
4.8894701
3.9214856
3.6048518
3.7557998
4.0035111
3.9889793
3.44833
3.2276026
3.2269718
3.309196
3.3544097
11.068231
8.3448435
5.8969426
5.4016061
5.7182445
6.3172746
6.3090183
5.098805
4.4254784
4.3576613
4.6433792
4.7691007
4.4918112
4.0208569
3.9538784
4.071371
4.1174796
3.972729
3.6503861
3.6281281
3.5242477
3.5276535
3.5163993
10.263589
7.7638602
5.6871805
5.3202815
5.6320303
5.944817
5.7038526
4.7512355
4.4645016
4.453373
4.5515962
4.5218068
4.2314625
4.1260337
4.1264554
4.1791877
4.1655539
4.0015063
3.8493629
3.7523403
3.7050141
3.7373223
3.8971187
9.2456594
7.1045201
5.3753349
5.1671053
5.4914999
5.6656943
5.1897832
4.5283463
4.3977532
4.4289159
4.4374551
4.3034963
4.1469113
4.1474665
4.2014527
4.2189957
4.1445744
4.0223692
3.9525742
3.915399
3.9531771
4.0909876
4.3609005
8.1575587
6.5445515
5.2085292
5.0778094
5.1918986
5.1240166
4.6112549
4.3782095
4.3550128
4.3800777
4.3449427
4.1619705
4.1358915
4.1884479
4.2167275
4.1679639
4.0632314
4.027901
4.0735874
4.1455898
4.1902638
4.3623041
4.7306617
7.2500064
6.1538775
4.9795778
4.81442
4.7726746
4.6338674
4.3174981
4.263433
4.3071523
4.3135462
4.2046003
4.1561237
4.2091186
4.2307832
4.1499469
3.9988717
3.9732845
4.1234729
4.2768884
4.3409264
4.4142368
4.7919751
5.4962546
6.6835547
5.7874775
4.7478586
4.6057885
4.5707308
4.3018513
4.0953818
4.1026655
4.1706207
4.1674012
4.121032
4.122584
4.1675658
4.1138528
3.9595644
3.8862284
3.9591056
4.1928015
4.3556139
4.508695
4.8369171
5.6884372
6.6870969
6.2259132
5.3894158
4.5740979
4.44455
4.3232652
4.0580094
3.9994573
4.0746966
4.0873603
3.9515851
3.9083616
4.0240753
4.0813502
4.025537
3.9006443
3.8755918
4.1355142
4.3540725
4.5001134
4.7498076
5.5463253
6.7098409
7.2411945
5.6822347
5.0947981
4.339857
4.2031932
4.0628572
3.9168521
3.9207582
3.9524628
3.8421615
3.7263352
3.735594
3.8857615
3.9538884
3.8931573
3.8637455
4.0060505
4.3379283
4.4942425
4.6775836
5.2863633
6.3476953
6.8728988
7.1392469
5.0858631
4.747972
4.0847881
3.9501294
3.7660367
3.6949317
3.75211
3.7780832
3.6970775
3.6375005
3.6773718
3.7775716
3.8213383
3.838713
3.9061324
4.1763834
4.508816
4.7166477
5.1174854
5.7727694
6.3773746
6.6305318
6.7075286
4.8107963
4.5758236
3.9388048
3.7695606
3.5550022
3.4674549
3.5582571
3.6496677
3.6122593
3.5440748
3.5851953
3.7158929
3.7430709
3.6970065
3.6991119
3.9816637
4.3896317
4.6619251
5.0374886
5.6372277
6.098699
6.14374
5.9704115
4.8758401
4.4082224
3.8050728
3.627994
3.4146198
3.3241224
3.4070772
3.4941789
3.4816528
3.4276875
3.4530662
3.608422
3.6669796
3.6090354
3.5661818
3.7486066
4.0608601
4.3428057
4.7240452
5.308486
5.6790673
5.6666161
5.4459393
4.971143
4.2264659
3.6582112
3.5070985
3.3156057
3.2283259
3.3117761
3.3820509
3.3603587
3.2931399
3.2890745
3.4267893
3.506872
3.4984586
3.4605138
3.5978436
3.8441127
4.1105082
4.4909001
5.0511867
5.3124453
5.2232979
4.9468017
4.9833093
4.0734378
3.5057784
3.3611025
3.1894696
3.1188225
3.2038697
3.27457
3.2580398
3.1790852
3.1448138
3.2363669
3.3124156
3.3434669
3.3414402
3.4710013
3.6813178
3.9306692
4.3223103
4.8519124
4.9957965
4.8148724
4.5154018
4.9368346
3.961755
3.3791436
3.2228305
3.0442995
2.9695894
3.0461071
3.1288623
3.1366605
3.0706039
3.0331169
3.0990662
3.1620646
3.1967228
3.2127193
3.3323913
3.5109159
3.7447307
4.1657344
4.6406972
4.6909555
4.4559389
4.1545075
4.9586255
3.8584892
3.2566426
3.0877042
2.9161044
2.8349771
2.892674
2.9713409
2.9976864
2.9588008
2.9382756
2.9964472
3.0494707
3.0835873
3.1020166
3.2030528
3.3465056
3.5643305
4.0163819
4.3960392
4.3854108
4.1361531
3.8441963
5.0400929
3.738355
3.1285614
2.9732627
2.8163874
2.7399083
2.7818824
2.8475678
2.870651
2.8421733
2.830818
2.8808486
2.9293208
2.9630936
2.9909058
3.0808265
3.203856
3.4251628
3.9031734
4.1688201
4.1031998
3.8599095
3.5609132
5.0730902
3.6335752
3.0035119
2.8488891
2.7075249
2.6425737
2.6826261
2.7446596
2.76284
2.7300106
2.7143589
2.7499147
2.7886662
2.8237727
2.8573641
2.9511836
3.081523
3.3326117
3.7988052
3.9533661
3.8405758
3.6059049
3.2685614
5.0644463
3.5478404
2.8858745
2.728
2.598078
2.5353999
2.5652818
2.6241235
2.6506274
2.6276996
2.613606
2.6391814
2.6683629
2.7025183
2.7380901
2.8319871
2.9724293
3.2610595
3.6542348
3.7188235
3.5830212
3.3575913
2.9956972
5.0858939
3.4805119
2.7816653
2.6225071
2.4911588
2.4298976
2.4496925
2.5050449
2.535716
2.5254997
2.5174085
2.5447705
2.5797313
2.6094593
2.6473052
2.7371366
2.8767304
3.171915
3.4712625
3.4751282
3.3352507
3.1196923
2.7591634
5.1337906
3.4206023
2.6822461
2.5113722
2.3978204
2.3372348
2.3532894
2.4051161
2.4377933
2.4286781
2.4207814
2.4468058
2.480305
2.5113948
2.5420221
2.6236498
2.7657019
3.0587365
3.2684648
3.2518753
3.1331295
2.9345852
2.5720347
5.144717
3.3983589
2.5998907
2.428595
2.3159225
2.2548891
2.2619797
2.3058859
2.3402424
2.3384023
2.3325256
2.3549641
2.3892131
2.4134236
2.4393882
2.5131484
2.643219
2.9052006
3.0997978
3.0822876
2.9823401
2.7935629
2.4386748
5.0984362
3.4010729
2.5328103
2.3359968
2.225729
2.1637524
2.1681437
2.2075175
2.2420982
2.240338
2.2332487
2.2539721
2.2972925
2.324037
2.3500895
2.4213567
2.540682
2.7774232
2.9559509
2.945363
2.8577764
2.677751
2.3320721
5.1127054
3.4149426
2.4651166
2.2489121
2.1475
2.0826711
2.0821581
2.1144415
2.1597299
2.1598087
2.1511123
2.164017
2.2055744
2.2396321
2.258263
2.3154417
2.427245
2.6534381
2.8159731
2.8119655
2.7475339
2.5920601
2.2731082
5.1000893
3.4719871
2.4410166
2.198019
2.0813234
2.0162023
2.0057666
2.0269871
2.0718812
2.0879756
2.0808097
2.0876503
2.1269559
2.159993
2.1800549
2.2245318
2.3166313
2.4915423
2.6704343
2.6806834
2.6437833
2.5312178
2.285408
5.0002469
3.4945199
2.446374
2.121869
2.0168643
1.9446699
1.9348267
1.9458188
1.9909041
2.0035689
2.0015806
2.0044205
2.0304292
2.0782229
2.0944906
2.1308534
2.2084253
2.372196
2.52575
2.5712359
2.5585352
2.4940332
2.322803
4.9494894
3.5208702
2.4816571
2.0975935
1.9664076
1.8900106
1.8602053
1.8687728
1.906837
1.9416044
1.9388663
1.9384235
1.9516463
2.0005907
2.0198432
2.0434469
2.0984573
2.2296146
2.4067491
2.4626313
2.4723311
2.4476106
2.3520877
4.9878562
3.6449031
2.5779134
2.1074799
1.9251029
1.8444805
1.8081866
1.7986908
1.8164808
1.8643161
1.8766368
1.8787795
1.8862404
1.9171273
1.9637526
1.9779085
2.0069863
2.0815767
2.2573587
2.3510913
2.3655383
2.3602732
2.3333805
5.0277943
3.5358367
2.6558003
2.1348201
1.9171616
1.801811
1.7555866
1.747034
1.751824
1.7773005
1.813421
1.8133688
1.8157458
1.83058
1.8708329
1.9170141
1.9418305
1.9837745
2.0918293
2.2356078
2.2904494
2.2887713
2.2821934
5.1271922
3.6010381
2.9189907
2.2291769
1.9353645
1.7964388
1.710378
1.6909708
1.6944748
1.7081926
1.7429355
1.7664865
1.7664268
1.7703784
1.7875433
1.8266967
1.8747316
1.9088726
1.9682695
2.0867195
2.1926055
2.2248236
2.2350095
5.4150149
3.6570629
3.0264595
2.4456553
2.0026874
1.8095503
1.7049459
1.6386434
1.6324681
1.6407137
1.663011
1.6997253
1.7192774
1.7215044
1.7253655
1.7400829
1.7725021
1.8199937
1.8580157
1.9355924
2.0331892
2.1089355
2.1488006
5.4914675
3.2598024
2.9963835
2.7252608
2.16426
1.8633867
1.7152135
1.6308172
1.5782839
1.5734189
1.5827964
1.6076891
1.6433009
1.669698
1.681853
1.6900784
1.7046383
1.7375123
1.7747719
1.8203317
1.9001629
1.9613146
2.0445871
5.5528613
3.2734991
2.9144213
2.7959363
2.5513469
2.0681332
1.7800624
1.6458484
1.5719549
1.5295694
1.5257085
1.5357193
1.5611619
1.5955422
1.6245962
1.6477216
1.6631734
1.6824542
1.7142504
1.7436965
1.80457
1.8454363
1.9360879
6.612468
3.7470204
2.7076204
2.7119159
2.621073
2.4040433
1.9888629
1.7203227
1.5861442
1.5164027
1.484703
1.4778781
1.4849316
1.5009435
1.5284454
1.5577867
1.5844802
1.6018956
1.6341438
1.6571129
1.7081829
1.7416602
1.8299317
7.7587807
3.8288502
2.5473
2.4554589
2.5337391
2.4368837
2.1882929
1.846742
1.6302042
1.5152384
1.4548801
1.4263284
1.4209326
1.4249573
1.4376566
1.4560376
1.4895283
1.5086187
1.5442034
1.5637647
1.6070266
1.634875
1.7160819
8.3366357
3.643636
2.3769825
2.2250467
2.3037208
2.3657289
2.2198396
1.9100202
1.656303
1.5129046
1.4378929
1.4001886
1.3884184
1.3893884
1.3950771
1.4059749
1.4322222
1.4476121
1.4780959
1.4944071
1.5258319
1.5456621
1.6071153
8.5901528
3.2142314
2.0378257
1.9992832
2.1031717
2.1820967
2.1563579
1.9220776
1.6555881
1.5037242
1.4221159
1.3805958
1.3652362
1.3618644
1.3645068
1.369272
1.3818887
1.3928013
1.4176819
1.4320686
1.4607644
1.4775284
1.5278426
8.6173613
2.7880184
1.7119987
1.769598
1.9502272
2.036861
2.0159795
1.8670662
1.6251709
1.4718566
1.3849833
1.3340145
1.3083801
1.297684
1.2960437
1.2968881
1.3027883
1.3106388
1.3302224
1.3431816
1.3725485
1.3883341
1.4343542
8.4645699
2.4613181
1.5389471
1.5896785
1.7376552
1.8373157
1.8087197
1.6936111
1.5115276
1.3729223
1.293496
1.2514248
1.2317379
1.226518
1.2264933
1.2280821
1.2350163
1.2414363
1.2572486
1.2663723
1.2874093
1.2982716
1.3312736
8.2065782
2.2538452
1.4220393
1.4289638
1.4895355
1.5431663
1.5420293
1.4563875
1.3598153
1.2878498
1.23572
1.2073229
1.1944584
1.1922725
1.1934145
1.1956898
1.2036238
1.2091655
1.2217828
1.2280973
1.2382424
1.2438689
1.2642902
7.9428817
2.136509
1.2737399
1.2485421
1.2501101
1.2517224
1.2535032
1.2303952
1.2063912
1.1909909
1.1787022
1.1650054
1.1580192
1.1557937
1.1555732
1.155097
1.1573907
1.1578605
1.1605039
1.1610822
1.1637985
1.1673305
1.1880363
7.6959307
2.05867
1.1158915
1.06451
1.0433447
1.0227168
1.0185056
1.0231266
1.0331287
1.0435315
1.0538607
1.0609685
1.0645493
1.0642456
1.0631543
1.060598
1.0584631
1.0558529
1.0546862
1.0511368
1.0521265
1.0524218
1.0704212
7.4615694
1.996777
1.0034127
0.92960566
0.9095515
0.89855807
0.90041079
0.91275112
0.93003685
0.94624947
0.96033246
0.97112916
0.98018449
0.9859673
0.99077367
0.99273253
0.9938568
0.99267898
0.99031324
0.98550542
0.98307174
0.97604976
0.98430913
7.2587071
1.9152081
0.9652971
0.88323759
0.87345027
0.87561257
0.88674501
0.90242131
0.92126912
0.93777922
0.95133965
0.96203615
0.97131266
0.97776726
0.98340063
0.98659666
0.9884786
0.98790788
0.98570667
0.98059482
0.97688062
0.96725666
0.96485359
7.07769
1.765096
0.97263148
0.89586939
0.89658054
0.91169451
0.9353967
0.95880971
0.98404356
1.0030599
1.0140307
1.0177189
1.0180167
1.0158491
1.013464
1.0102128
1.0073338
1.0034623
0.99978723
0.99267594
0.98814245
0.97704778
0.97093104
6.9397428
1.754699
1.0577246
0.98948214
1.0373347
1.0940823
1.1427108
1.1673324
1.1667188
1.1487154
1.1137736
1.0793653
1.052493
1.0319976
1.0178111
1.0070431
0.99924051
0.99177461
0.98685989
0.97885537
0.97448604
0.96403585
0.97856387
6.8189001
2.5275384
1.4691077
1.337993
1.475328
1.5778046
1.5852373
1.4969921
1.3568476
1.2228963
1.119163
1.0483229
0.99171941
0.94612135
0.91154579
0.88506734
0.86816512
0.85574328
0.85058418
0.84561773
0.84531731
0.84368833
0.8547098
6.9003371
3.9676665
2.5654309
2.1816812
2.101632
2.0413038
1.9006358
1.689413
1.4486776
1.2324199
1.0636022
0.9193806
0.81129584
0.73838713
0.6923895
0.66389045
0.64803018
0.63850654
0.63459395
0.63238574
0.63300683
0.63510424
0.65724455
7.6909336
4.2736199
3.0340659
2.605719
2.3468836
2.1284588
1.8822721
1.601468
1.3211142
1.0730638
0.86652888
0.73099511
0.64889556
0.59805064
0.56610089
0.54527196
0.53142473
0.52137282
0.5152631
0.51262145
0.51298295
0.51429567
0.52854637
8.8035838
4.4290881
3.1121204
2.560552
2.1498054
1.7630966
1.3981521
1.1017041
0.88552469
0.73698402
0.64114295
0.58004136
0.54091416
0.51357374
0.49412019
0.478295
0.46763714
0.46033338
0.45769873
0.45739383
0.45857343
0.46113937
0.47153724
9.639519
4.6373403
2.9734464
2.0812764
1.4845072
1.1014545
0.86421186
0.7158807
0.62159114
0.5621335
0.52339991
0.49767089
0.47871386
0.46279872
0.45106832
0.44259076
0.43866058
0.43732148
0.43779029
0.44050445
0.44514744
0.44920913
0.46157402
10.321016
4.7146195
2.6061484
1.5577758
1.035439
0.77326338
0.63599461
0.55902874
0.51405957
0.48684473
0.46829081
0.4548652
0.44393213
0.43616269
0.43194784
0.43032217
0.4305628
0.43208222
0.43627146
0.44154396
0.44625518
0.45735361
0.46981644
10.863434
4.6848614
2.2288803
1.2148274
0.80692724
0.6285979
0.54235371
0.49728047
0.4711843
0.45477687
0.44324752
0.43490432
0.42953142
0.42719709
0.42709354
0.42757389
0.43003621
0.43352651
0.44228289
0.44857803
0.46104086
0.48015315
0.4818918
11.251114
4.5525947
1.8909909
0.99984169
0.6894054
0.56218586
0.50282657
0.47207477
0.45372251
0.44136367
0.43254759
0.42708574
0.42507242
0.42504421
0.42572962
0.42765599
0.4328612
0.43979445
0.45200414
0.46108692
0.48173274
0.48895616
0.48739785
11.519759
4.3268145
1.6404823
0.87544094
0.63025179
0.53315257
0.48838558
0.46422994
0.44845194
0.43714442
0.42948412
0.4256027
0.42514838
0.42555249
0.4269582
0.43067991
0.43915499
0.449148
0.46319597
0.47554657
0.49357677
0.49769773
0.52027642
11.656466
4.0662619
1.4668976
0.80625773
0.6034176
0.5239848
0.48660652
0.46495726
0.4498217
0.43864292
0.43149526
0.42842006
0.42844489
0.42900352
0.43133732
0.43688008
0.44740217
0.45961568
0.47464484
0.48804235
0.50428662
0.51594276
0.58430852
11.681494
3.831625
1.3551537
0.76929379
0.59322215
0.5243464
0.49156399
0.47126923
0.45567063
0.44374392
0.43659368
0.43399815
0.4339879
0.4345743
0.43755636
0.44425593
0.45570484
0.46879384
0.48445641
0.49989112
0.52164243
0.54723483
0.63392664
11.623323
3.6019097
1.2788726
0.74896344
0.59165921
0.53011579
0.5004654
0.48054268
0.46426006
0.45146421
0.44382009
0.44109055
0.44079405
0.44126925
0.44427278
0.45159531
0.46312534
0.47692393
0.49328164
0.51200603
0.53913674
0.57538747
0.64768545
11.494063
3.3991895
1.2248594
0.7380488
0.59480119
0.5390622
0.51136712
0.49134223
0.47411811
0.46033576
0.45164845
0.44809692
0.44728126
0.4476349
0.45002917
0.45612932
0.46649188
0.47991013
0.49668285
0.51784651
0.54668444
0.58491423
0.64475666
11.314552
3.2029826
1.1821742
0.73143719
0.59945565
0.5478348
0.52153425
0.50140239
0.4834162
0.46861449
0.45880938
0.45429907
0.45272729
0.45260903
0.45391404
0.45856561
0.46691312
0.47952026
0.49614963
0.51696343
0.54466702
0.58121889
0.63182793
11.092091
2.9981173
1.1412908
0.72633826
0.60503755
0.5575066
0.53242517
0.51153541
0.49213832
0.47660634
0.46553051
0.45996135
0.457216
0.45622159
0.45652103
0.45890656
0.46516318
0.47496853
0.48835981
0.5065653
0.53178503
0.56485819
0.60642504
10.845183
2.7994978
1.1057313
0.72312861
0.61084612
0.56652918
0.54184585
0.52086672
0.50067799
0.48323893
0.47108886
0.46408345
0.4601844
0.45809491
0.45786243
0.45890163
0.46176479
0.46786648
0.47818053
0.49298148
0.51260276
0.53716115
0.57047644
10.566961
2.5504854
1.0593818
0.71750732
0.61526986
0.57407013
0.55053992
0.52916504
0.5067894
0.48824512
0.47435757
0.46565157
0.46129158
0.45786644
0.45704025
0.45727023
0.45903
0.46282091
0.46782117
0.47649609
0.48951192
0.50945988
0.53454295
10.276371
2.2596579
1.0087069
0.71373369
0.62122459
0.58271958
0.55960327
0.53753913
0.51366614
0.49318434
0.47655574
0.46592952
0.46031577
0.45510294
0.45285484
0.45228495
0.45272951
0.45373973
0.45591227
0.46098977
0.47057465
0.48425752
0.4971973
9.9623139
1.9500424
0.96189224
0.71245739
0.62897062
0.59325386
0.57054957
0.54825792
0.52240689
0.49906108
0.48039721
0.46675817
0.45900245
0.45150533
0.44569972
0.44211591
0.44161446
0.44256355
0.44525508
0.44844141
0.45100342
0.45658533
0.46593527
9.6417406
1.8061441
0.94277145
0.7156341
0.63934256
0.60644204
0.58463802
0.56303423
0.53539995
0.50927556
0.48729752
0.46930426
0.45954244
0.45052912
0.44304259
0.435083
0.43162205
0.43064802
0.42959273
0.42957428
0.43045893
0.43548491
0.44377678
9.3242511
1.7771532
0.93908292
0.72359626
0.65180061
0.62061621
0.59973648
0.57965166
0.55152003
0.5237856
0.49927562
0.47648935
0.46233313
0.45121176
0.44280902
0.43355535
0.42397088
0.41856967
0.41572362
0.41572018
0.41645677
0.41680108
0.41647969
9.0483831
1.7548193
0.93634454
0.72972809
0.66240441
0.63325429
0.61358345
0.59519113
0.56791419
0.54034959
0.51512874
0.4899446