/*--------------------------------*- C++ -*----------------------------------*\
| =========                 |                                                 |
| \\      /  F ield         | OpenFOAM: The Open Source CFD Toolbox           |
|  \\    /   O peration     | Version:  2406                                  |
|   \\  /    A nd           | Website:  www.openfoam.com                      |
|    \\/     M anipulation  |                                                 |
\*---------------------------------------------------------------------------*/
FoamFile
{
    version     2.0;
    format      ascii;
    arch        "LSB;label=32;scalar=64";
    class       surfaceScalarField;
    location    "80";
    object      phi;
}
// * * * * * * * * * * * * * * * * * * * * * * * * * * * * * * * * * * * * * //

dimensions      [1 0 -1 0 0 0 0];

oriented        oriented;

internalField   nonuniform List<scalar> 
40800
(
0.00081652552
0.00098774113
-0.0012262587
0.00089395303
0.0011021278
-0.0014483398
0.00095508353
0.00098377174
-0.0010308586
0.0010121206
0.00091630451
-0.00086706839
0.0010471145
0.000913696
-0.0011271699
0.0010925238
0.00079540414
-0.00083563474
0.0011440188
0.00075652787
-0.00071484548
0.0011844691
0.00068233511
-0.00075058569
0.0012221479
0.00065386125
-0.00068603731
0.0012566401
0.00064690725
-0.00065957592
0.0012844852
0.00062487064
-0.00063744331
0.0013004476
0.00056856982
-0.0006445565
0.0013384982
0.00062489751
-0.00059440805
0.0013433997
0.00061207006
-0.00068249744
0.0013685643
0.00053864002
-0.00054288478
0.0014194711
0.00064729547
-0.00067903376
0.0014085624
0.00063106001
-0.00069128573
0.0014617887
0.00049109638
-0.00051159066
0.0015714734
0.00079238872
-0.00082150691
0.001526677
0.00070765696
-0.00081637419
0.0015836112
0.00055417328
-0.00060971398
0.0017190622
0.000830387
-0.00083803735
0.0017398758
0.00088605528
-0.00097347296
0.0016610544
0.00072437374
-0.00077721646
0.0018499384
0.00077757482
-0.00075280592
0.002043408
0.0010744831
-0.0010736273
0.0020010087
0.0013595384
-0.0014181468
0.0021099603
0.0013527231
-0.0014514896
0.002251663
0.0011309939
-0.0013017141
0.0021112858
0.0011499194
-0.0013120604
0.0014636318
0.0020990124
-0.0014424574
0.00081364246
0.00074097358
0.00088895889
0.0007498943
0.00095521231
0.0009695998
0.0010137905
0.00099614709
0.0010455509
0.00068939962
0.0010945471
0.00074803121
0.0011443595
0.00078217837
0.0011842967
0.00061563422
0.0012228429
0.00061241777
0.0012569352
0.00061888592
0.001281773
0.00061274897
0.0013031706
0.00052261241
0.0013368907
0.00062003586
0.0013383739
0.00054567541
0.0013733795
0.00054003869
0.0014126513
0.00061064968
0.0013882137
0.00056940642
0.0014826254
0.00050497583
0.0015441275
0.00073934242
0.0014906969
0.00059980686
0.0016070362
0.00055604785
0.0017069666
0.00081033455
0.001699184
0.00081668636
0.0016544876
0.00073464536
0.0018815944
0.00087521315
0.0021120201
0.0010676517
0.0020034684
0.0011993574
0.0019903363
0.00120559
0.0022133792
0.0010199714
0.00225637
0.0010068719
0.0014113266
0.0021101358
0.00081090142
0.00056451025
0.00088574498
0.00049239084
0.00095326917
0.00097921782
0.0010074697
0.0010368991
0.0010433657
0.00053436849
0.0010964112
0.00070026649
0.0011421286
0.0007481592
0.0011845847
0.00056701659
0.0012236999
0.00056318365
0.0012580619
0.0005895026
0.0012796301
0.00057785634
0.0013078067
0.00051535248
0.0013311562
0.00057403592
0.0013364704
0.00048808655
0.0013753941
0.0005307602
0.001404804
0.00056836997
0.0013769056
0.000504368
0.00149769
0.00055559471
0.0015135718
0.00066946865
0.001471943
0.00049422259
0.0016308634
0.00059809632
0.0016908788
0.00081171825
0.0016796223
0.00072189653
0.001675245
0.00072970064
0.001882219
0.00098591585
0.0021064348
0.0010561204
0.0019811988
0.00098913283
0.0018842212
0.0010107696
0.0021554582
0.00096802137
0.0024125328
0.00091097797
0.0011873244
0.0023197605
0.00080710878
0.0005012409
0.0008840178
0.00040268827
0.00094869913
0.00098839088
0.00099478075
0.00098033878
0.0010400393
0.00049006293
0.001093901
0.00066372492
0.0011356224
0.00064683596
0.0011818376
0.0005389312
0.0012228579
0.00052009189
0.0012564212
0.00054544237
0.0012771806
0.00051003667
0.0013102902
0.00052531056
0.0013237534
0.00050792339
0.0013366182
0.00044320093
0.001373938
0.00050830561
0.0013946657
0.00052041854
0.0013766047
0.00043358777
0.0014996809
0.00060334231
0.0014813497
0.00060227309
0.0014712494
0.00042757435
0.0016482595
0.00063867353
0.001657252
0.00079328395
0.0016630355
0.0006174963
0.0017183606
0.0006685645
0.0018517904
0.0010172982
0.0020376984
0.0010226138
0.0019602096
0.00078010545
0.001816207
0.00081313925
0.0020484432
0.00099290033
0.0024416887
0.00093892235
0.00095501671
0.0025177946
0.00080657153
0.00052846804
0.00088504052
0.00049540611
0.00094206192
0.00096619807
0.00098147919
0.00083747386
0.0010352506
0.00054843414
0.0010860234
0.00062552883
0.0011268351
0.00050669821
0.0011768162
0.00052222169
0.0012202265
0.00049649405
0.0012511921
0.00049662701
0.0012751745
0.00044044032
0.0013076997
0.00052242561
0.0013173805
0.0004503923
0.0013383909
0.00041726672
0.0013710086
0.00049256872
0.0013827834
0.00048090189
0.0013858893
0.00038770239
0.0014900409
0.00062326931
0.0014529597
0.00053671627
0.0014837859
0.00038803585
0.0016560919
0.00067047659
0.0016092369
0.00073876237
0.001641248
0.00053182306
0.0017674718
0.00057214463
0.0018176073
0.00092212517
0.0019180676
0.00095707556
0.0019401487
0.0006173873
0.0018440748
0.00063583571
0.0019549075
0.0010062567
0.0023234991
0.0011078045
0.00087608039
0.002570034
0.00080983443
0.00059115859
0.00088687582
0.00069163824
0.00093301696
0.00087921765
0.00096949736
0.00065283073
0.0010281544
0.00065579713
0.0010718042
0.00057741635
0.0011155211
0.00038904919
0.0011683948
0.00049428255
0.0012137144
0.00049159112
0.0012426387
0.00045490621
0.0012731678
0.00039595292
0.00130018
0.00049541588
0.0013116503
0.00040034167
0.0013400201
0.00040538957
0.0013670762
0.00047139212
0.0013714768
0.00044094828
0.0014011918
0.00036866151
0.0014732381
0.00060521183
0.0014295228
0.00046532202
0.0015057786
0.00039025193
0.0016520952
0.00067319939
0.0015601399
0.00064945837
0.0016200215
0.00047247248
0.0018079571
0.00049328061
0.0017976986
0.00075006809
0.0017883487
0.00083156452
0.0019071099
0.00055430624
0.0019466329
0.00051455749
0.0019522233
0.00092162862
0.0021400788
0.0012343687
0.00099650435
0.002428578
0.0008180921
0.00065092058
0.00088796666
0.0008592292
0.00092225882
0.00072258204
0.00095957509
0.00046181943
0.0010170737
0.00072757761
0.0010536756
0.00052562691
0.0011022354
0.00035013473
0.0011556289
0.00044891261
0.0012013841
0.00048411058
0.0012305567
0.00040874422
0.0012686402
0.00039351039
0.0012881143
0.00043859728
0.001306041
0.000380496
0.0013390216
0.00040680919
0.0013607599
0.00045609424
0.0013608096
0.00041609205
0.0014155192
0.00037311923
0.0014506589
0.00055201165
0.0014150778
0.00039575406
0.001528569
0.00042329051
0.0016342772
0.00064160445
0.0015203133
0.00052401145
0.0015929069
0.00044032457
0.0018240574
0.00048887428
0.001786551
0.00059125922
0.0016919618
0.0006526889
0.0018620723
0.00057193557
0.0020499216
0.00049435303
0.0020646118
0.00076065488
0.0020269035
0.001143343
0.0011382448
0.0021811767
0.00083079939
0.00066607374
0.00088672729
0.00089771591
0.00091267849
0.00053748777
0.00095252145
0.00033462994
0.0010024564
0.0006999742
0.0010351858
0.00045597153
0.0010874353
0.00038165135
0.0011391815
0.00039701793
0.0011824081
0.00044546103
0.0012148062
0.00036505374
0.0012557305
0.00039682594
0.0012722175
0.00035896746
0.0012975374
0.00036868171
0.0013325231
0.00039886312
0.0013498473
0.00042051861
0.0013490342
0.00038525457
0.0014220751
0.00039336192
0.0014231198
0.00048321818
0.0014092336
0.00032808263
0.0015407077
0.00045757139
0.0016011308
0.00059182753
0.0014977739
0.00037677059
0.0015723617
0.00042928486
0.0018117536
0.00056871838
0.0017773861
0.00048837557
0.0016396602
0.00048466607
0.0017969688
0.00061137249
0.0020891753
0.00058533304
0.0021741136
0.00061809583
0.0020471106
0.00082495116
0.0010548885
0.0020111026
0.00085051991
0.00059150479
0.00088765529
0.00077027763
0.00091186963
0.00039276237
0.00095419474
0.00033511188
0.00098919084
0.00057911731
0.001020902
0.00037503739
0.0010714755
0.00044011866
0.001119052
0.00035317637
0.001157561
0.00036197387
0.0011944616
0.00033599771
0.0012326862
0.00037271467
0.0012524575
0.0003066076
0.0012816195
0.00034906652
0.0013162334
0.0003795662
0.00133174
0.0003592102
0.0013355825
0.00034432841
0.0014148215
0.00041102795
0.0013909526
0.00038960299
0.0014090376
0.00027928806
0.0015383981
0.00048491275
0.0015511453
0.000524341
0.0014954769
0.00024000955
0.0015699097
0.00041499348
0.0017663772
0.0006593358
0.0017687027
0.0004544191
0.001660218
0.00035771293
0.0017499216
0.00061719081
0.0020391954
0.00073965133
0.0021788351
0.00056208379
0.0020936906
0.00049270819
0.0007349314
0.0019556098
0.0008996505
0.00044381573
0.00089686695
0.00052945235
0.00092235344
0.00035025489
0.00096442442
0.00044268783
0.00098566997
0.00041317761
0.0010203744
0.00031700471
0.0010635825
0.00046898681
0.0011038754
0.00033195882
0.0011355055
0.00026491988
0.0011726148
0.0003049266
0.0012053983
0.00034722348
0.0012289353
0.00027994312
0.0012576311
0.00030096259
0.0012887297
0.00035713695
0.0013054436
0.00029710105
0.0013180662
0.00030411515
0.0013894793
0.00041425228
0.0013563429
0.0003035673
0.0014085387
0.00025329941
0.0015204024
0.00049939207
0.0014869964
0.0004484132
0.0015032634
0.00015564457
0.0015892249
0.00037879663
0.0016948714
0.00069233705
0.0017349192
0.0004674279
0.0017173723
0.00027830468
0.0017552366
0.00056162959
0.0019353417
0.00084051168
0.0020869064
0.00060628784
0.0021053968
0.00031318178
0.00037163768
0.0020064114
0.00098530187
0.00029394173
0.00094007606
0.00027752334
0.00096053611
0.00042584563
0.00099281734
0.0005767717
0.00099995751
0.00026662436
0.0010326759
0.00029644823
0.0010664931
0.00042516891
0.0011021976
0.00031619279
0.0011313977
0.00020718183
0.0011638242
0.00027023995
0.0011863472
0.00031172912
0.0012066144
0.00026137078
0.0012328657
0.00025473119
0.0012548008
0.0003285172
0.0012734023
0.00025726344
0.0012943019
0.00026530745
0.001347045
0.00039633009
0.001319254
0.00023956321
0.0014028465
0.00024898048
0.0014841679
0.00046467117
0.0014141473
0.00037814159
0.0015022288
0.00013954929
0.0016207698
0.00032381475
0.0016311137
0.00064060766
0.0016663151
0.00047501915
0.0017565576
0.00023794673
0.0018164543
0.00044459882
0.0018399051
0.00078514851
0.0019302977
0.00070541088
0.0020274681
0.00031397617
0.00021432842
0.0020920806
0.0010099642
0.00015403889
0.00099568931
9.5260553e-05
0.0010196218
0.00057517968
0.0010415639
0.00066584527
0.0010449846
0.00019904494
0.001070653
0.00031981467
0.0010887409
0.0003254143
0.0011154103
0.00029134686
0.0011422991
0.00020407
0.0011681956
0.00024044946
0.0011826875
0.00026713541
0.001198876
0.00024509881
0.0012232243
0.00023566532
0.001231002
0.00029582508
0.0012469689
0.00022140877
0.0012722892
0.00022298388
0.0012980367
0.00034506374
0.0012838007
0.00019677694
0.0013834165
0.00027544484
0.001432128
0.00039918136
0.001341074
0.00028854335
0.0014867472
0.00017348549
0.0016344309
0.00029363228
0.0015680476
0.00049879216
0.0015831962
0.00042266843
0.0017604411
0.000243687
0.0018714174
0.00032517646
0.0018089808
0.00055840975
0.0017962208
0.0006795875
0.0019313884
0.00047312162
0.00027678505
0.0021388428
0.00098995819
4.9408725e-05
0.001030166
4.2786277e-05
0.001064049
0.00069995368
0.0010839249
0.00063925963
0.001102461
0.00021765056
0.0011281283
0.00036214884
0.0011395914
0.00021604444
0.0011583813
0.00025996745
0.0011800262
0.00024057227
0.0011951557
0.00022620856
0.0011983298
0.00023622226
0.0012064612
0.00022752997
0.0012279335
0.00024076814
0.0012237161
0.00023892078
0.0012396097
0.00020374468
0.0012693443
0.00019355201
0.0012697223
0.00027563414
0.0012743511
0.00017898512
0.0013684916
0.00031021516
0.0013879823
0.00033506101
0.0012910039
0.00018232869
0.0014574182
0.000247262
0.0016162868
0.00031281813
0.0015029281
0.00030992934
0.001493016
0.00030970815
0.0017133247
0.00029762498
0.0018628572
0.00026336419
0.0018002466
0.00028620855
0.0017075273
0.00046526378
0.0018407757
0.00057010152
0.00049671468
0.002104719
0.00094016589
4.3292448e-05
0.0010187311
0.00012394304
0.0010618935
0.00069245451
0.0010825572
0.00046930367
0.0011174036
0.00028091749
0.0011446335
0.00037312061
0.0011693143
0.00014828005
0.0011995864
0.00021362815
0.0012269483
0.00027833027
0.0012427303
0.00023039884
0.0012413916
0.00020883824
0.0012442211
0.00021838426
0.001255608
0.000266527
0.0012417609
0.00017724549
0.0012540698
0.00021863192
0.0012845267
0.00019953109
0.0012654653
0.00021756707
0.0012902304
0.00016660509
0.0013654274
0.00033110085
0.0013629049
0.00026179523
0.0012917289
8.8819258e-05
0.0014406941
0.0003135162
0.0015848047
0.00037011013
0.0014687718
0.00014861692
0.0014413807
0.00017080366
0.0016394438
0.00036000824
0.0017943982
0.00028541504
0.0017826234
0.00012758213
0.0016939047
0.00016659281
0.0017697394
0.00049024292
0.00065068068
0.0020021043
0.00090223381
0.00011251469
0.00098342503
0.00031530232
0.0010240692
0.00051590239
0.0010535701
0.00022224386
0.0011026175
0.00033462628
0.0011277074
0.00031907484
0.0011630609
0.00014492191
0.0012006873
0.00017442823
0.0012334014
0.00028081349
0.0012591389
0.0002301782
0.0012711768
0.00017166397
0.0012883566
0.00020107016
0.0012982175
0.00026421561
0.0012938047
0.00013449525
0.0013034738
0.00022512321
0.0013333886
0.00022675097
0.0013023499
0.00016780765
0.0013423198
0.00016407131
0.0013853862
0.00034241225
0.0013650274
0.00019782548
0.0013434544
2.9116747e-05
0.0014497407
0.00032649662
0.0015457449
0.00041508589
0.00147178
5.5245823e-05
0.0014611062
5.0107954e-05
0.0015893184
0.00037601705
0.0017045605
0.00039029444
0.0017310418
9.5064176e-05
0.0017440653
3.3215583e-06
0.0017705513
0.00027861227
0.00062087929
0.0018961122
0.00090766401
0.00017003969
0.0009678322
0.00049828908
0.00098585374
0.00027598457
0.0010175216
3.706825e-05
0.0010670019
0.00034892984
0.0010920602
0.00020572932
0.0011364667
0.00017463671
0.0011817138
0.00015374768
0.0012170778
0.00021815625
0.0012462665
0.00020781027
0.0012669977
0.00014678125
0.0012953288
0.00017929078
0.0013053141
0.00022111512
0.0013235258
0.00011028451
0.0013380651
0.00019739024
0.0013705971
0.00023106722
0.0013467971
0.00012961943
0.0014082957
0.00016138415
0.0014198504
0.0003132581
0.0013896728
0.00016959734
0.0014269351
1.540865e-05
0.0014997311
0.00028172038
0.0015173565
0.0004092665
0.0014935053
4.7619545e-05
0.001547731
-6.5997483e-06
0.0016096266
0.00032461147
0.0016318068
0.00047386389
0.0016691861
0.0001738589
0.0017863386
1.4225743e-05
0.0018521746
0.00011550877
0.00043514332
0.001862203
0.00092419816
0.00018024743
0.00096574404
0.00052763772
0.00097271604
8.703226e-05
0.001005919
-2.8060019e-05
0.0010422308
0.00029630198
0.0010663059
8.7969662e-05
0.0011113644
0.00020984188
0.001156431
0.00014854064
0.0011913963
0.00012822529
0.0012240173
0.00016507999
0.001251839
0.00013113119
0.0012833338
0.00016254641
0.0012883044
0.0001515844
0.0013203061
0.00010591731
0.0013349814
0.00015607116
0.0013621196
0.00020629775
0.0013520374
0.00010984697
0.0014285574
0.00016346192
0.0014173312
0.00023324706
0.0013892189
0.00014265471
0.0014821838
4.2799834e-05
0.0015457067
0.00021254761
0.001492481
0.00031511137
0.0015112397
9.6122456e-05
0.0016449401
2.2821489e-05
0.0016885689
0.00023088061
0.0016108387
0.00040674052
0.0016536964
0.00029507952
0.0018203098
0.00011473174
0.0019547817
0.000116533
0.00021724399
0.0018979167
0.00098779792
0.00012262029
0.00097732211
0.00039588902
0.00098366219
4.7259043e-05
0.0010181453
2.3672035e-05
0.001037157
0.00019360881
0.0010628036
2.0446374e-05
0.0010997344
0.00019837602
0.0011380935
0.0001350783
0.0011704676
5.9974487e-05
0.0012011675
0.00011698515
0.0012311384
0.00011935685
0.0012593894
0.0001408986
0.0012636684
8.0574349e-05
0.001302751
0.00011481558
0.0013182226
0.00011576772
0.0013380935
0.00016095728
0.0013403199
9.5118906e-05
0.0014150479
0.0001755988
0.0013918729
0.00013895656
0.0013641518
9.4591283e-05
0.0014879962
0.00011286194
0.0015435547
0.00016104064
0.0014507009
0.000158107
0.0014939659
0.00011734332
0.0016780978
0.00010605993
0.0017282478
0.00015781014
0.001612431
0.00020345172
0.0016335022
0.00028373715
0.0018295055
0.00027126372
0.0019898817
0.00019525105
0.00011139981
0.0019488099
0.0010584202
-2.130566e-05
0.0010172106
0.00014003149
0.0010223111
0.0001623714
0.0010511181
0.00018133509
0.0010512166
0.00010824206
0.0010776938
4.1097602e-05
0.0011041493
0.00013792458
0.0011361751
0.00011007368
0.0011680613
3.4411632e-05
0.0011928333
7.4613189e-05
0.0012191555
0.00010749276
0.0012387533
0.0001047168
0.0012460941
3.8048393e-05
0.0012809771
0.00012221638
0.0012953595
8.3232989e-05
0.0013076967
9.4574193e-05
0.0013224143
6.7469835e-05
0.0013838499
0.00017050001
0.0013636228
5.170534e-05
0.001345619
3.0318225e-05
0.0014690816
0.00019751929
0.0015153719
0.00013240756
0.0014247005
8.9693185e-06
0.0014705928
9.3561026e-05
0.0016598712
0.00020174438
0.0017075332
0.00012991471
0.0016154697
-8.3005771e-07
0.0016128572
0.0001144324
0.001789448
0.00034071203
0.0019405265
0.00030145395
8.4531061e-05
0.0019440523
0.0010470866
-0.00020595952
0.0010564878
-0.0001406749
0.0010716495
0.00037356242
0.0010993062
0.00033275811
0.0010949175
4.7785458e-05
0.0011184135
0.0001223637
0.0011311977
7.4194273e-05
0.0011541131
7.4778473e-05
0.0011827336
5.8297993e-05
0.0012008209
3.0328918e-05
0.0012209402
8.9504638e-05
0.0012332251
6.5165763e-05
0.0012444443
2.366823e-05
0.0012686141
0.00011850142
0.0012789302
6.2884606e-05
0.0012832886
3.6123702e-05
0.0013068485
3.3987283e-05
0.0013432061
0.00015722377
0.0013325532
-7.1660989e-06
0.0013380547
-2.4471725e-05
0.0014274546
0.00024982888
0.0014620796
0.00011657221
0.0014109168
-8.2417061e-05
0.0014532959
2.2799458e-05
0.0016057416
0.00026470381
0.0016325416
0.00011044448
0.0016029626
-0.00011901705
0.0016332317
-7.6484418e-05
0.0017356322
0.00025965524
0.0018336366
0.00035133899
0.0001169683
0.0018628154
0.0010462818
-0.00034220009
0.0010821379
-0.00030469191
0.0011000654
0.0004997636
0.001126664
0.00037635012
0.0011339288
9.0524089e-06
0.0011599821
0.00017752001
0.0011740054
2.1338367e-05
0.0011977977
3.509404e-05
0.0012221695
8.9085376e-05
0.001238673
1.1178381e-05
0.0012494657
6.8448134e-05
0.0012544654
3.5443278e-05
0.0012672311
2.4580842e-05
0.0012779603
9.3215456e-05
0.0012847797
5.1460428e-05
0.0012866917
9.4289327e-06
0.001319143
6.9924265e-06
0.0013253556
0.00013170928
0.0013219763
-2.3148249e-05
0.0013634442
-5.4860328e-05
0.0013975732
0.00020825111
0.0014129164
0.00012484449
0.0014086368
-0.00011216038
0.0014741665
-2.924738e-05
0.0015505879
0.0002241214
0.0015460078
0.00012890033
0.0015655087
-0.00013424584
0.0016707618
-0.00016582107
0.0017248312
0.00010575638
0.0017310249
0.00028322004
0.00013873455
0.0017511405
0.0010785213
-0.00030601477
0.0010638475
-0.00018099032
0.001081498
0.00043417623
0.0011065954
0.0002424698
0.0011323156
7.2608642e-06
0.0011574669
0.00013573016
0.00118306
1.9366028e-06
0.0012179595
8.1142365e-06
0.0012452062
8.4276578e-05
0.0012712922
4.1977579e-06
0.0012843781
3.6402051e-05
0.0012955275
1.0821048e-05
0.0013137213
2.1253939e-05
0.0013219046
4.4126776e-05
0.0013288204
4.0132395e-05
0.0013315521
8.4485772e-06
0.0013745182
-3.0518888e-06
0.0013550521
7.3309683e-05
0.0013624648
-1.6877442e-05
0.0014360029
-4.8311492e-05
0.0014285954
0.00010827869
0.0014181242
9.8430725e-05
0.0014558894
-7.2393736e-05
0.0015470869
-4.2761528e-05
0.0015637857
0.00010822973
0.0015170267
0.00010588292
0.0015750277
-8.073856e-05
0.0017452459
-0.00011749956
0.0017842616
7.2685259e-06
0.0017036848
0.00013613368
9.4232712e-05
0.0016904812
0.00084837406
0.00093927123
0.0011387222
0.0011720793
0.0012413254
0.0012603738
0.0013115349
0.0013489817
0.0013803466
0.0014130751
0.0014387063
0.0014519184
0.0014898792
0.0014944537
0.0015227913
0.0015344935
0.0015873429
0.0015530765
0.0015600117
0.001649338
0.0016251558
0.0015927612
0.0016553354
0.0017608783
0.0017567066
0.0016713168
0.0017396564
0.0019430952
0.0020061969
0.0018911634
0.0018205028
0.00018611647
0.0018981747
0.00040136855
0.0017726859
0.00058173575
0.0017364953
0.00060020258
0.0017048579
0.00045706245
0.0016535561
0.00024035445
0.0016184128
0.00010185222
0.0016454125
0.00011943099
0.0017429132
0.00038087533
0.0019347004
0.0007452176
0.0021097491
0.00096645452
0.0021722663
0.00091650952
0.0021127592
0.00067499149
0.0019989762
0.00052420906
0.0019304599
0.00065832508
0.0019719935
0.001074112
0.002090616
0.0014836927
0.002205758
0.0015649362
0.0022786252
0.0012748731
0.002240604
0.00085818582
0.0021612587
0.0007020382
0.0021501359
0.00093889156
0.0023001346
0.0025674869
0.0014278037
0.00019140663
0.0020661248
0.00025480741
0.0018873498
0.00021998511
0.0017946865
0.00021217286
0.0017130229
0.00024557336
0.0016658948
0.00035242292
0.0016481527
0.00053034917
0.0016702287
0.00075693566
0.0017109531
0.00085825877
0.0017927874
0.00078119322
0.0018369538
0.00055659777
0.0018274498
0.0002970349
0.0018058319
0.00023071275
0.001861016
0.00045997918
0.0020149463
0.00092121909
0.002224185
0.0013282746
0.0023474071
0.0014724595
0.0023086186
0.001309324
0.0021663184
0.00094723504
0.0019953304
0.00072352035
0.0019000599
0.00093485954
0.0019895406
0.0013852705
0.0022652873
0.0025670712
0.0017514301
-0.00021579927
0.0017863457
-0.00041669578
0.0016945792
-0.00047421472
0.0017052311
-0.00031612866
0.0017643877
4.8301129e-05
0.0018606194
0.00050443412
0.0019244638
0.00085598495
0.0019269679
0.00095753558
0.0018583677
0.00081649764
0.0017566724
0.00052656893
0.0016616145
0.00030874989
0.0015990156
0.00033737398
0.0016029772
0.00061722358
0.0017151952
0.0009855937
0.0019287465
0.0011765516
0.0021339515
0.0010916906
0.0022109041
0.00079735845
0.0021665672
0.00051286172
0.0020975618
0.00052416021
0.0020709169
0.00093040202
0.0021297376
0.0015326269
0.0022213763
0.0019496181
0.0022925759
0.0023230978
0.0019558247
-0.00024498368
0.0014913894
-0.00031753254
0.0014585211
-0.00019103037
0.0015192116
5.585173e-05
0.001654128
0.00032402223
0.0017895757
0.00045318047
0.0018311372
0.00037876468
0.0018350388
0.00012001784
0.0018068694
-5.2304068e-05
0.0017775757
-9.8197647e-06
0.0017793685
0.00026782384
0.0018171275
0.00081447875
0.0018522844
0.001357598
0.0018783076
0.0015857167
0.0018747025
0.0013374768
0.0018689312
0.00077612769
0.0018024792
0.00027984438
0.0017492394
0.00018582747
0.0018237838
0.00052338791
0.0020474325
0.0011730712
0.0023308438
0.0016892492
0.0024965176
0.0018325357
0.0024826698
0.0023262042
0.0016065602
0.00028564733
0.0016692386
0.00060840326
0.0015675602
0.00086500769
0.0015186555
0.00094413649
0.0015168932
0.0007376176
0.0015136398
0.00033415236
0.0014707417
-0.0001078383
0.0014656863
-0.00043753433
0.001503188
-0.00047191437
0.0016235583
-0.00015998191
0.0018117298
0.00038878536
0.0019977532
0.00092112135
0.0020842774
0.0011761373
0.0020708403
0.0010990373
0.0019687887
0.00080430572
0.0018419658
0.00050047402
0.0017293367
0.00048083308
0.0016379315
0.0007836869
0.0016654549
0.0013092323
0.001854283
0.001629755
0.0021354737
0.0015578385
0.0023075473
0.0011704272
0.0023082097
0.0022221734
0.00066647863
0.0003478806
0.0019366113
0.00062766402
0.0017567295
0.0007071233
0.0016437218
0.00061180438
0.0015302901
0.00037910782
0.0014480248
0.0001744024
0.0013659049
0.00011902645
0.001339324
0.00026290615
0.0013647354
0.0005168174
0.0014556365
0.00073237499
0.0016229459
0.00081824292
0.0017762711
0.00060416495
0.0018285247
0.00023056146
0.0018561013
-0.00012850564
0.0018735223
-0.00018684471
0.001898038
7.6358289e-05
0.0019686126
0.00071619519
0.001986604
0.0015252663
0.0019737514
0.0020789742
0.0019492675
0.0021168983
0.0019496021
0.0015817239
0.0019491636
0.00077565217
0.0018707842
0.001811061
0.00016788483
-0.00019670769
0.0018025528
-0.00051267217
0.0016399091
-0.00075742794
0.001589332
-0.00077942117
0.0015769498
-0.00052945829
0.0016242897
-1.614436e-05
0.0016455137
0.00063378013
0.0016267388
0.0012286597
0.0015809506
0.0015871802
0.0015229518
0.0016009324
0.0014976557
0.0011807942
0.0014920927
0.00051663517
0.0014484935
-0.00017069585
0.0014451933
-0.00055262599
0.0015333635
-0.00044305346
0.0017322579
5.1800566e-05
0.0019913252
0.00076487164
0.0021857454
0.0013418843
0.0022219936
0.0015864298
0.0021673913
0.001520237
0.0020421878
0.0011809171
0.0019255993
0.00071498137
0.0017729637
0.0016107327
0.00054038965
-0.00065891027
0.0014488162
-0.0010704597
0.0013728687
-0.0011308709
0.0014110991
-0.00091079845
0.0015198603
-0.00050142311
0.0016636346
-3.0771817e-05
0.0017394806
0.00044950103
0.0017675865
0.00081735048
0.0017625467
0.00093719674
0.001702707
0.00086127894
0.0015901071
0.00062858913
0.0014983006
0.00039958449
0.001393094
0.00033808171
0.0013189659
0.00052483938
0.0013565233
0.00079599406
0.0015015258
0.0010629448
0.0017375965
0.0010585051
0.0019457217
0.00079392047
0.0020157333
0.00039877526
0.0020287783
1.920426e-05
0.0020216081
-9.4312894e-05
0.0020233972
0.00020428049
0.0020255671
0.0019398155
0.00089067502
0.00015259769
0.001394783
0.00031550811
0.0012862874
0.0004372951
0.0012590023
0.0005014772
0.0013378112
0.00047971286
0.0014724148
0.00041034036
0.0015563263
0.00011915562
0.0015810643
-0.00034960383
0.0016012376
-0.00078351301
0.001622456
-0.00093656292
0.0016337846
-0.0006754841
0.0016688488
-2.1077379e-05
0.0016786223
0.00086931821
0.0016161331
0.0016786929
0.0015502343
0.002188475
0.0015152279
0.0022434777
0.0015490912
0.0017015238
0.0016335376
0.00079580842
0.0016563964
-0.0001723066
0.0016483971
-0.00080918049
0.0017070918
-0.00087177896
0.001867085
-0.00026776623
0.0021089296
0.0022689247
0.00073002543
0.00085495105
0.0016240462
0.0015483893
0.0014737098
0.0019654383
0.0013395549
0.0019989551
0.0012810946
0.001580962
0.0012840379
0.00077724426
0.0012838071
-0.00016266031
0.0012795855
-0.00099824722
0.0013120087
-0.0014731023
0.0013988231
-0.0014850037
0.0015079616
-0.0010779798
0.0016657932
-0.0003381637
0.0017994371
0.00052989602
0.0018287486
0.0013576308
0.0018071431
0.0019053301
0.0017369591
0.0020277841
0.0016435972
0.0017016164
0.0015791466
0.00095533405
0.0014906937
0.00019069116
0.0013762241
-0.00021515736
0.0013990254
-0.00013791016
0.0015976081
0.00027504699
0.0018942035
0.00217154
0.00073912344
0.0005050816
0.0017402106
0.00092146208
0.0016278603
0.0011962264
0.0014925674
0.0012643443
0.0013893797
0.0010566716
0.0013080303
0.00060426428
0.0012193494
6.0959093e-05
0.0011316604
-0.00027619721
0.0011250576
-0.00032540263
0.0012125572
-0.00013583857
0.0013543743
0.00010165425
0.0015226869
0.00023721
0.0016864073
0.00034256071
0.00174458
0.00030416703
0.0017602754
0.00018592003
0.0017718079
5.3130078e-05
0.0017572776
4.2382496e-05
0.0017153581
0.00026245049
0.0016506272
0.00065699209
0.001498072
0.0011168257
0.001385193
0.0014925327
0.0014257053
0.0016664314
0.0016201636
0.0018926936
0.0015695289
-0.0001642833
0.00167368
-0.00047692523
0.0016082246
-0.00085131431
0.0014987078
-0.0011310967
0.0014282458
-0.0010721591
0.0013972917
-0.00055306707
0.0013594563
0.00031350604
0.0012814388
0.0011500033
0.0012223344
0.0017023909
0.0012122749
0.0018152268
0.0012562091
0.0016414304
0.0013572465
0.0012129553
0.0014890497
0.00056419721
0.0015652499
-0.00026501866
0.0015843661
-0.0011046107
0.0016228695
-0.0016340083
0.0016731523
-0.0016579021
0.0017324016
-0.0010139669
0.0018003224
0.00015017491
0.0017688776
0.0015021703
0.0016374693
0.002576069
0.0015569653
0.0030079424
0.0015713174
0.0016560664
0.002657489
-0.00097492942
0.0015211351
-0.0018598278
0.0015002329
-0.0024548805
0.0014205566
-0.0025662687
0.0014057911
-0.002121258
0.0014403848
-0.0011789795
0.0014679509
7.8418939e-05
0.0014386337
0.0013299761
0.001394211
0.0023203049
0.0013556755
0.0028696448
0.001326939
0.0028024439
0.0013136652
0.0020960971
0.001354239
0.00089433748
0.0013794731
-0.00045157553
0.0013831393
-0.0015467313
0.0014303191
-0.0021552911
0.001531996
-0.0021202655
0.0016481061
-0.0014896888
0.0017847602
-0.00046053981
0.0018491682
0.0007608669
0.001793907
0.0018764064
0.0017259247
0.002688681
0.0016970317
0.0016829854
0.0029263054
-0.0012048614
0.0013845817
-0.0020438781
0.0013876282
-0.0022860929
0.0013367731
-0.0020327147
0.0013596465
-0.0014770094
0.001429118
-0.00079186761
0.0014775907
-7.664889e-05
0.0014693858
0.00065317693
0.001451783
0.0013189817
0.0014395499
0.0018680778
0.0014244288
0.0021387861
0.0013841228
0.0018875221
0.0013586408
0.0010500384
0.0013197448
-6.1560941e-05
0.0012665484
-0.00093318082
0.0012875473
-0.0013290718
0.0014149427
-0.0012908667
0.0015644704
-0.00090746252
0.0017062737
-0.00039307768
0.0018140361
0.00010435284
0.0017929432
0.00067130128
0.0017562421
0.0011821254
0.0017570071
0.0017595905
0.0015047383
-0.00037311136
0.0013356645
-0.00052047718
0.0013341602
-0.0004959617
0.0012826617
-0.00034481096
0.0013101607
-0.00021591043
0.0013813283
-0.00013058898
0.0014325186
-5.7533674e-05
0.0014376586
1.4678608e-06
0.0014359065
6.3420697e-05
0.0014476879
9.8282365e-05
0.0014554762
0.00013994232
0.0014398786
0.00022292577
0.0014225437
0.00033961005
0.0013832815
0.00039834509
0.0012961376
0.00036779845
0.0012676593
0.00023707341
0.0013601884
0.0001553073
0.0014945703
0.00013965296
0.0016211227
5.4386288e-05
0.0017317957
-3.9529767e-05
0.0017302089
-0.0002339639
0.0016938458
-0.00034317404
0.0017268038
0.0017788819
-0.00032756402
0.00078045766
0.0013666159
0.0013967631
0.0013546618
0.0016351983
0.0012883182
0.001457036
0.0012922741
0.0010845633
0.0013432165
0.00060783949
0.0013883158
6.7491977e-05
0.001388375
-0.0004877942
0.0013872602
-0.0010764694
0.0014151485
-0.0015270639
0.0014421068
-0.0017448635
0.001450575
-0.0015194755
0.001456432
-0.00077806205
0.0014448005
0.0002878813
0.0013630639
0.0012368183
0.0013250196
0.0017121271
0.0013858042
0.0016562389
0.0014872945
0.0012448896
0.0015765662
0.00065587495
0.0016658359
-2.9410136e-05
0.0016632221
-0.0007246369
0.0016267052
-0.0013557919
0.0016734466
0.0017504922
-0.0016602946
0.001575119
0.0014111397
0.0026569467