/*--------------------------------*- C++ -*----------------------------------*\
| =========                 |                                                 |
| \\      /  F ield         | OpenFOAM: The Open Source CFD Toolbox           |
|  \\    /   O peration     | Version:  2406                                  |
|   \\  /    A nd           | Website:  www.openfoam.com                      |
|    \\/     M anipulation  |                                                 |
\*---------------------------------------------------------------------------*/
FoamFile
{
    version     2.0;
    format      ascii;
    arch        "LSB;label=32;scalar=64";
    class       volVectorField;
    location    "80";
    object      U;
}
// * * * * * * * * * * * * * * * * * * * * * * * * * * * * * * * * * * * * * //

dimensions      [0 1 -1 0 0 0 0];

internalField   nonuniform List<vector> 
20580
(
(0.094291688 0.00020281502 8.0484215e-22)
(0.094733385 -0.0014514686 -3.6254784e-20)
(0.099199888 0.00033068207 -3.3712579e-22)
(0.097608205 0.00083674803 1.7465432e-22)
(0.0971089 -0.00055942268 1.0916536e-23)
(0.095251835 0.00074481236 -9.9617909e-21)
(0.094650163 0.0011779626 6.2349738e-20)
(0.095099139 0.0011117233 -5.9699893e-21)
(0.094340842 0.001191987 7.2337562e-21)
(0.093569251 0.00094136011 0)
(0.092761738 0.00072552299 5.0951149e-21)
(0.091797014 0.00063254239 -1.7172744e-20)
(0.090203643 2.9153202e-05 -8.078444e-21)
(0.089680532 -0.0010277936 -3.9669678e-21)
(0.08780164 8.1440395e-05 4.2758465e-21)
(0.087862892 -0.0023238336 1.9595614e-20)
(0.087261053 -0.0030723431 -7.2546074e-20)
(0.086019089 -0.00055994343 -1.7770175e-22)
(0.088178633 -0.0065053889 5.166503e-20)
(0.088732624 -0.0067688636 9.2356712e-21)
(0.087163735 -0.0035484622 -2.1821794e-22)
(0.089345019 -0.0091901988 2.1089542e-21)
(0.091515219 -0.012483014 2.5353791e-20)
(0.088770823 -0.009584273 -9.1876248e-20)
(0.088760299 -0.0097494751 -3.8985264e-20)
(0.094585643 -0.01772697 -7.1795586e-20)
(0.095244417 -0.027708836 -5.6869019e-20)
(0.094442096 -0.030749887 9.2738248e-21)
(0.098958113 -0.027065624 3.9069911e-20)
(0.09657464 -0.028124768 -4.9273014e-20)
(0.086911883 -0.036110096 -8.0018912e-21)
(0.093380491 0.0012694386 0)
(0.092965995 0.00036079446 -1.3863521e-19)
(0.098545789 9.0365192e-06 -3.6959137e-20)
(0.09797126 -0.0002836386 2.5459952e-20)
(0.096335688 0.00082748985 -3.9410272e-20)
(0.095294887 0.00066682728 8.1649828e-23)
(0.095315296 0.00025213388 -1.5462682e-19)
(0.095096632 0.001330533 1.7702112e-20)
(0.094627004 0.0011340329 9.2458695e-21)
(0.094010118 0.00073076612 -1.0256696e-20)
(0.09313023 0.00047618329 7.0019601e-21)
(0.091843088 0.0010518094 2.3313706e-21)
(0.091024249 -0.00057143011 -1.2830886e-20)
(0.089665607 -0.00035990852 -1.9903082e-22)
(0.088508575 -0.00028364097 -1.3027105e-20)
(0.088403614 -0.0021671294 -4.0603483e-22)
(0.086937111 -0.002206656 2.4385398e-20)
(0.086751219 -0.00085736611 -2.8758043e-20)
(0.088957695 -0.0062570131 0)
(0.08755908 -0.0046076638 6.2680649e-20)
(0.087529186 -0.0031732696 0)
(0.090822806 -0.0093544726 -4.6653656e-20)
(0.091079662 -0.010678704 -3.9280059e-20)
(0.088312002 -0.008700772 5.2734522e-22)
(0.09058102 -0.011935044 -4.7375808e-20)
(0.098253098 -0.018929221 3.9451402e-20)
(0.098613204 -0.025642958 -2.7940617e-20)
(0.093943589 -0.027147939 9.3616694e-21)
(0.097372295 -0.022685224 -8.4771705e-20)
(0.10131245 -0.023540719 -2.4793135e-20)
(0.09418282 -0.03466976 1.2972844e-19)
(0.092570705 0.0025884041 0)
(0.092039823 0.0025647987 0)
(0.097774743 -0.00051487386 8.0101676e-20)
(0.09730079 -0.0014299803 -1.3016625e-19)
(0.095800496 0.0021869804 -1.0300317e-20)
(0.095340724 0.00063893122 -1.4943663e-22)
(0.095264338 -0.00017617222 2.006461e-19)
(0.095182262 0.0014650372 3.9095062e-21)
(0.094915163 0.0011784173 0)
(0.094350441 0.00058536272 4.3924697e-20)
(0.093440939 0.00028197251 -1.1795235e-20)
(0.092327402 0.00088024345 -1.2859592e-20)
(0.091463828 -0.00067098906 0)
(0.089929404 5.3010391e-05 5.9862621e-22)
(0.089048131 -0.00069545316 -5.4904387e-21)
(0.088845831 -0.0020236139 -2.3274836e-21)
(0.086924288 -0.0016382205 2.2435342e-21)
(0.087406963 -0.0019393719 -2.9069998e-21)
(0.08930519 -0.0056193004 -3.899021e-21)
(0.087127279 -0.0030776659 0)
(0.088290384 -0.0041076399 0)
(0.091788711 -0.0096491524 4.2575254e-20)
(0.091155602 -0.0094369899 2.0552571e-21)
(0.088805076 -0.0092645841 -3.3317903e-20)
(0.0913853 -0.014945596 -2.0169128e-20)
(0.099286252 -0.019242849 9.168122e-21)
(0.099959056 -0.021083056 -2.4651692e-21)
(0.093180175 -0.0227824 -1.5282086e-20)
(0.095769703 -0.020920595 4.8666824e-20)
(0.10612174 -0.020916975 -8.4545623e-21)
(0.10622162 -0.030653541 -3.4209004e-20)
(0.091552814 0.0030864618 0)
(0.091189942 0.0036115092 8.9730116e-25)
(0.096928806 -0.0012755286 -2.2743952e-22)
(0.096092737 -0.0019963242 -5.9416416e-22)
(0.094911174 0.002634047 3.2916474e-20)
(0.095050144 0.00053102391 4.1747873e-20)
(0.094943853 2.7840593e-05 1.7100412e-19)
(0.094979881 0.001383842 0)
(0.095021531 0.0012291746 -3.7267953e-22)
(0.09458183 0.00054110598 -3.2152615e-20)
(0.093625395 0.00047113732 -3.5937464e-20)
(0.092769935 0.00038828229 -2.3673093e-21)
(0.091794752 -0.00034230737 -1.4374078e-22)
(0.090260226 0.00036453331 -3.7346271e-21)
(0.089565017 -0.00090363658 5.8119019e-21)
(0.089166445 -0.0017520028 -1.4458621e-21)
(0.087194847 -0.00091868587 4.634803e-21)
(0.088041764 -0.0033007191 -7.8227629e-23)
(0.089223134 -0.0048401097 7.289298e-22)
(0.087014382 -0.0018914316 3.0744558e-21)
(0.089324768 -0.0054464345 8.5960504e-21)
(0.092197495 -0.010041204 1.41028e-20)
(0.091098213 -0.0077887894 6.4864926e-21)
(0.09042596 -0.0090013339 -7.5150251e-20)
(0.092486995 -0.017197017 0)
(0.098270655 -0.019461752 7.4780941e-21)
(0.099870072 -0.016253395 2.3706362e-20)
(0.093189212 -0.017661622 4.6565046e-21)
(0.092957439 -0.021032265 7.026496e-20)
(0.10594615 -0.020979147 3.1663177e-20)
(0.11596168 -0.025295739 -7.8311814e-20)
(0.090807359 0.0026489041 0)
(0.090656359 0.0030354582 -2.9821828e-20)
(0.096055829 -0.0018507092 2.0092375e-19)
(0.094680214 -0.0016528805 3.4064911e-20)
(0.093913304 0.0019524908 4.4621389e-22)
(0.094434947 0.00034750535 6.2461252e-20)
(0.094391355 0.00080727431 0)
(0.094609611 0.0011150159 2.7982506e-20)
(0.094952468 0.0011115782 1.9418802e-20)
(0.094633712 0.00062205783 -5.7454582e-20)
(0.09371932 0.00088521154 -1.2299714e-20)
(0.093022893 -0.00015140562 -5.1696149e-23)
(0.091965537 8.5279252e-05 -1.7556574e-20)
(0.090659219 0.00044267823 -5.8670121e-21)
(0.090065337 -0.0010619644 4.0341012e-21)
(0.089376945 -0.0014984878 -1.4305369e-20)
(0.08771934 -0.00034623724 -1.7728913e-20)
(0.088674461 -0.0043792062 4.2833125e-20)
(0.088910001 -0.0040589588 6.315399e-20)
(0.087297159 -0.0012999471 0)
(0.090502826 -0.0066966225 7.9602055e-21)
(0.092085659 -0.0097640245 -3.6399865e-21)
(0.090740458 -0.0061821965 -4.2181678e-20)
(0.092567245 -0.0076397716 -2.5425333e-21)
(0.094177507 -0.016795969 0)
(0.096494628 -0.018393992 -1.1414267e-19)
(0.09893191 -0.011598913 4.6604455e-20)
(0.095211997 -0.013041289 7.8094737e-20)
(0.092346988 -0.021935499 -4.8082949e-20)
(0.10168392 -0.024747816 -6.0999504e-20)
(0.11682371 -0.022996018 -4.5012074e-20)
(0.090454813 0.0017174563 -1.1360216e-19)
(0.090276724 0.0011678104 7.887627e-23)
(0.095106513 -0.0019168158 -6.5955575e-24)
(0.093282332 -0.00062117261 3.7399057e-20)
(0.092829778 0.00050483401 -6.3211733e-20)
(0.09342543 0.00026049103 1.6345868e-22)
(0.093423866 0.0017701072 3.9984847e-20)
(0.094002588 0.00080875527 1.6872636e-22)
(0.094536528 0.00074459397 1.2825012e-20)
(0.094372922 0.00069298213 9.3092454e-21)
(0.093705576 0.0011494584 1.3211947e-20)
(0.093093669 -0.00043935671 -1.255658e-20)
(0.091969793 0.00040148628 -1.797998e-20)
(0.091022799 0.00027584723 -1.1487108e-20)
(0.090516584 -0.0012125585 1.0245993e-20)
(0.089525005 -0.0012877162 1.0825846e-21)
(0.088451757 -0.00019928797 -3.3274496e-20)
(0.089336941 -0.0048504957 3.6147961e-20)
(0.088545145 -0.003205179 3.1765135e-21)
(0.08792333 -0.001386651 0)
(0.091711247 -0.0075494734 5.6570839e-21)
(0.091719628 -0.0086662151 9.8471455e-20)
(0.090092619 -0.0049799811 6.7625617e-20)
(0.094480918 -0.0060823149 0)
(0.096418174 -0.014051429 6.8116563e-20)
(0.094529468 -0.016519645 7.9790594e-20)
(0.096939297 -0.0091414788 -6.0439784e-20)
(0.099084881 -0.0089196499 1.8874183e-19)
(0.096356831 -0.020681611 7.9404333e-20)
(0.097496001 -0.029154766 2.6605133e-20)
(0.10912502 -0.0251593 -1.4159198e-19)
(0.090761993 0.00072026557 2.3273811e-21)
(0.090126604 -0.00098851688 -3.0340624e-20)
(0.094061868 -0.0012993426 -1.077806e-23)
(0.091955117 0.00068608295 -2.0614994e-19)
(0.091662481 -0.001027015 -9.1862134e-21)
(0.09199134 0.00021812919 1.3914713e-21)
(0.092191541 0.0021250348 -1.0474151e-19)
(0.093053488 0.00069600657 2.9559181e-23)
(0.093713436 0.00027107689 1.7329296e-22)
(0.093659291 0.00074802143 2.3650761e-20)
(0.093433769 0.00095349095 4.1144277e-22)
(0.092891994 -0.00035604879 -3.5240509e-22)
(0.09179136 0.00042133189 1.2048737e-20)
(0.091210636 -0.00013643757 2.1666508e-23)
(0.09073106 -0.0013923924 -1.0689266e-20)
(0.089515783 -0.0012170176 8.6413633e-22)
(0.089129525 -0.00054685938 5.2186214e-22)
(0.089804496 -0.0046907471 -4.3667567e-20)
(0.088198191 -0.002331905 0)
(0.088753347 -0.00220792 -3.3097578e-20)
(0.092678846 -0.0077628628 -2.8913318e-21)
(0.091199708 -0.0067648741 5.3883298e-20)
(0.08921363 -0.0044436408 3.3768001e-21)
(0.095277144 -0.0056279099 1.8329638e-20)
(0.098386857 -0.010494398 4.3461528e-20)
(0.093583448 -0.013013254 6.929137e-21)
(0.094703523 -0.0090673419 5.549685e-20)
(0.10222421 -0.0078059857 -3.5425132e-21)
(0.10374674 -0.017721579 3.2187221e-19)
(0.098835033 -0.029272983 -8.6786006e-20)
(0.099616281 -0.028753032 -1.1554443e-20)
(0.091972164 1.5647786e-05 -7.9589996e-19)
(0.089936082 -0.002290197 0)
(0.093104875 -0.00017200645 2.3900056e-20)
(0.090950458 0.0018155897 8.0616438e-20)
(0.090475696 -0.0017780617 -5.4883871e-20)
(0.090352401 0.00032628787 1.4374113e-22)
(0.090802815 0.0015629928 -2.7036816e-20)
(0.091769265 0.00070679755 7.8321941e-23)
(0.092465812 -1.2966849e-05 2.3602811e-20)
(0.092540191 0.0007774171 7.7487826e-20)
(0.09266969 0.00043238295 -3.1326856e-21)
(0.092220364 0.00010155029 -2.3509643e-22)
(0.091352951 0.00016800972 2.8691291e-21)
(0.091084941 -0.00056743447 -1.7159138e-20)
(0.090603297 -0.001459484 1.75379e-20)
(0.089259739 -0.0012100382 -1.408226e-20)
(0.089482768 -0.0012269436 1.7549065e-20)
(0.089886589 -0.0040309887 -2.3521538e-21)
(0.087964861 -0.0014240934 2.352151e-22)
(0.089505177 -0.0033319627 1.2644387e-21)
(0.093027492 -0.0074136593 -7.5609598e-23)
(0.090743877 -0.0042555726 7.1338787e-22)
(0.088685501 -0.0043733261 0)
(0.095158149 -0.0070878664 1.1320482e-20)
(0.099488778 -0.0077089351 -1.0351849e-20)
(0.093830054 -0.0088142482 8.442993e-20)
(0.092483198 -0.01024604 1.8605027e-20)
(0.10223952 -0.0096158974 7.1130009e-20)
(0.10979505 -0.014246048 -4.6684665e-20)
(0.10496727 -0.023671386 2.4895958e-19)
(0.096683254 -0.028867911 -1.8337985e-20)
(0.094459672 -2.5124768e-06 3.4601743e-19)
(0.090084198 -0.0023133106 -3.2591539e-23)
(0.092759333 0.00094930964 8.6254793e-20)
(0.090842754 0.0019560974 -2.191474e-20)
(0.089762959 -0.0015078819 -7.3100272e-23)
(0.089036759 0.0006380139 7.57727e-23)
(0.089446588 0.00048367939 -3.8552977e-20)
(0.090290549 0.00075454774 -3.4997971e-24)
(0.090833312 0.00021009291 1.9463578e-20)
(0.091028512 0.0006869457 -9.6004133e-21)
(0.091340956 7.0315781e-06 3.5663673e-20)
(0.091042495 0.00050638191 0)
(0.090478473 -0.00011902315 -2.7879308e-23)
(0.090411566 -0.00087167082 1.4129821e-21)
(0.090014563 -0.0011795157 9.121293e-21)
(0.088755533 -0.0010683348 -1.4239469e-20)
(0.089369568 -0.0020378294 -3.7989425e-21)
(0.089436706 -0.0030168972 -2.1739573e-20)
(0.087727988 -0.00076633774 3.0781391e-21)
(0.090020023 -0.0044089567 4.2839225e-20)
(0.092574116 -0.0066810366 -4.7739528e-20)
(0.090453486 -0.0015554342 -1.6706688e-21)
(0.089236404 -0.0044505155 2.8965886e-21)
(0.09454817 -0.0096597087 9.8838333e-21)
(0.099222355 -0.0066569978 -1.9831317e-21)
(0.095427012 -0.0055503842 -4.9184561e-20)
(0.092422369 -0.01123819 5.7453955e-20)
(0.10012615 -0.013884618 7.3734063e-20)
(0.11055172 -0.012576088 5.1889356e-20)
(0.11022 -0.014412537 -1.9701605e-19)
(0.10091733 -0.021809662 5.8329581e-20)
(0.10245 0.001001921 8.1755213e-19)
(0.091164026 -0.0010024064 1.6169633e-23)
(0.093355479 0.0015340809 -3.2580772e-19)
(0.091601319 0.0009707467 1.5119908e-19)
(0.089889791 -0.0004227543 6.4892163e-22)
(0.088863594 0.00095407817 0)
(0.088993598 -0.00048013547 -5.1696013e-20)
(0.089427552 0.00064992774 1.551908e-20)
(0.089528958 0.00087973732 -6.2938665e-21)
(0.089597913 0.00061487343 9.9856405e-21)
(0.089777068 -0.00012729559 -6.1359875e-23)
(0.089546213 0.00058538888 9.4942108e-23)
(0.089181541 -0.00010156981 0)
(0.089128691 -0.0010317638 4.8351525e-21)
(0.088801967 -0.00066774947 7.2694755e-21)
(0.087856353 -0.0008681714 8.6203366e-22)
(0.088596672 -0.0027128651 3.4199249e-21)
(0.088335242 -0.0018126009 -5.3745288e-20)
(0.087366603 -0.00045903368 3.7467137e-20)
(0.090060186 -0.0053129334 4.8340488e-20)
(0.091248368 -0.0056734953 -7.39881e-20)
(0.090110794 0.00050234216 -2.1991478e-20)
(0.09092597 -0.0040477698 1.3031351e-19)
(0.093990233 -0.011405021 2.1195015e-21)
(0.097483411 -0.0067915492 1.6036791e-19)
(0.097246937 -0.0033038064 -8.3039741e-21)
(0.094984427 -0.010843103 -1.2949772e-21)
(0.098131901 -0.017984048 -5.715835e-21)
(0.10704232 -0.013505417 1.2638575e-19)
(0.11184841 -0.0074734352 3.580138e-20)
(0.10819654 -0.011103388 -3.1551121e-19)
(0.11445948 0.0022775047 1.3589712e-20)
(0.096128686 0.0009164937 2.6035388e-22)
(0.096744031 0.0010356362 -6.2535755e-20)
(0.094518931 -0.00057467856 -8.2429407e-22)
(0.09167926 0.00089901993 -2.044242e-22)
(0.089859112 0.0010524282 4.9333755e-20)
(0.089521323 -0.00077562559 -4.3300769e-20)
(0.089607252 0.00045279912 6.0109002e-23)
(0.089547777 0.0014124891 9.4028575e-21)
(0.089373658 0.0005648626 -2.0533513e-20)
(0.088996224 -0.00020453558 -9.4715939e-21)
(0.088350273 0.00040954613 -7.0343833e-21)
(0.087886779 0.00011846699 0)
(0.087545724 -0.0011221987 -1.9345256e-23)
(0.087089889 -0.0003104732 3.9796302e-20)
(0.086507245 -0.00067376248 -2.9196585e-22)
(0.087049147 -0.0030887393 1.7058073e-22)
(0.086504668 -0.00089669617 -2.26691e-22)
(0.08661434 -0.00068226612 2.3107905e-21)
(0.089414425 -0.0056218098 -5.5590345e-22)
(0.088993358 -0.0045926031 8.2567276e-20)
(0.08908391 0.0010421653 -3.5521221e-20)
(0.092681269 -0.0033413838 1.703164e-21)
(0.09394752 -0.01145066 6.6617985e-21)
(0.094891378 -0.0074443745 5.3673101e-20)
(0.097868051 -0.0022706631 3.5963185e-21)
(0.099139815 -0.0088117357 -1.4474622e-19)
(0.098191507 -0.01845339 4.6880432e-20)
(0.10130766 -0.015623478 2.4596148e-20)
(0.10825747 -0.0055528466 -1.3789062e-19)
(0.11292779 -0.0031154306 1.3685547e-20)
(0.11348588 0.0030847788 6.1353996e-19)
(0.10109692 0.0028212587 0)
(0.10198041 -0.00039309442 -2.5433713e-20)
(0.099351037 -0.0019531967 -1.8093115e-19)
(0.095764017 0.0018388414 -6.8436804e-20)
(0.09353913 0.00074107869 -1.4239624e-20)
(0.092049236 -0.00023864879 1.5385061e-22)
(0.09120115 0.00043932863 -3.0123518e-23)
(0.090684553 0.0015206376 -1.9471645e-20)
(0.090206551 0.00065676361 -1.1067755e-20)
(0.089303934 -2.3732493e-05 -3.2122737e-21)
(0.088327639 0.00027996949 -1.5144738e-23)
(0.087674011 0.00020124183 -3.322603e-20)
(0.086813515 -0.0010922656 0)
(0.085875165 -0.00012043793 3.605597e-20)
(0.085427475 -0.00039500182 -3.0901078e-20)
(0.085351061 -0.0029170609 -1.9952921e-20)
(0.084374269 -0.00033147047 -5.4302681e-20)
(0.085407681 -0.0013778324 -4.3570684e-22)
(0.088003191 -0.0050853657 -1.6204859e-20)
(0.086119913 -0.0032819909 3.8118617e-20)
(0.086978817 0.00035210596 -5.213417e-22)
(0.093281273 -0.0030582041 -1.0233543e-19)
(0.093750912 -0.0096808169 -7.3594538e-20)
(0.091734412 -0.007406123 -8.4431928e-20)
(0.096641076 -0.0024411684 2.5492059e-20)
(0.10255373 -0.0062417368 9.847273e-20)
(0.10074632 -0.014663509 1.5317903e-21)
(0.097252114 -0.016755547 -1.51222e-19)
(0.10190128 -0.0088539001 9.2513584e-20)
(0.11235302 -0.0035906609 -4.1208419e-20)
(0.10633463 0.0035753399 -3.2778805e-19)
(0.10290913 0.0035018626 -5.7883077e-20)
(0.10543185 -0.0020747215 -1.670869e-21)
(0.10302391 -0.0025659998 2.8450868e-22)
(0.10006701 0.0018444856 6.4494407e-23)
(0.098666185 6.7875602e-05 1.6156864e-19)
(0.096902667 0.00068575139 -9.7107787e-20)
(0.095180752 0.0004411503 -9.848509e-23)
(0.094039732 0.00093535707 2.572035e-23)
(0.092904756 0.00061120906 -1.0006003e-20)
(0.091213983 0.00015942209 2.064714e-24)
(0.089456772 0.00016589748 -5.7736032e-21)
(0.088433088 -8.7705105e-05 3.6830152e-23)
(0.087155205 -0.00078165691 -9.4668273e-22)
(0.085904559 -0.00013477489 0)
(0.085670154 -0.00021107941 0)
(0.085032358 -0.0022619033 7.549339e-21)
(0.083725652 -0.00017184815 -3.7227408e-22)
(0.085133545 -0.0024451699 -5.4525463e-20)
(0.087015518 -0.0042288998 3.5860735e-21)
(0.084026175 -0.0016509547 1.4640473e-20)
(0.08486211 -0.0013619728 1.9352563e-20)
(0.092448537 -0.0036797074 0)
(0.092830608 -0.0063090831 0)
(0.088508799 -0.005694164 0)
(0.093390957 -0.0037803684 -6.3523561e-21)
(0.10256983 -0.0045105699 -1.6524094e-21)
(0.1030853 -0.0079712167 -5.6049412e-20)
(0.096412743 -0.012891246 -1.9741616e-20)
(0.096101412 -0.013127639 -1.270748e-20)
(0.10678099 -0.010224094 3.3961931e-20)
(0.098355834 0.0035383568 -1.4701998e-19)
(0.099420919 0.0029453762 -1.1584661e-21)
(0.10459983 -0.0032344904 1.4109206e-21)
(0.10234027 -0.0020993098 -1.702598e-19)
(0.1004524 0.0009809417 0)
(0.099899326 -0.00057193229 5.2006103e-22)
(0.098892072 0.0015123054 -4.607275e-20)
(0.098359732 0.00060352043 -2.4849819e-20)
(0.097728365 0.0001737987 -6.5733746e-23)
(0.096867087 0.00041426736 4.4863445e-20)
(0.09503738 0.00027844284 1.3434935e-20)
(0.092799078 8.5544347e-05 0)
(0.091164615 -0.00060788557 -5.189465e-20)
(0.089214628 -7.6742099e-05 5.3508601e-21)
(0.087564315 -0.00032682116 5.8433298e-21)
(0.087226356 -0.00030805765 8.383737e-22)
(0.086062236 -0.0013931793 -7.1935477e-21)
(0.084697802 -0.00019046663 -9.0378135e-23)
(0.086088525 -0.0033530366 -3.6253829e-20)
(0.087114357 -0.0031963571 4.8587046e-21)
(0.084093698 0.0001676163 -7.3720813e-22)
(0.084711019 -0.0033565622 3.3536255e-20)
(0.091685985 -0.0052878193 -3.2685303e-20)
(0.092366318 -0.0025755252 0)
(0.087381481 -0.0028334566 -7.9958197e-21)
(0.090448623 -0.005812212 -2.3243942e-20)
(0.099763897 -0.0048550427 8.7101888e-20)
(0.10367984 -0.002263053 3.2512808e-21)
(0.098825641 -0.0049246659 -1.2973637e-19)
(0.094748147 -0.012811225 -4.8175927e-20)
(0.10062154 -0.016567347 3.3512089e-20)
(0.093784568 0.0023132651 1.466009e-19)
(0.094294562 0.00092139193 2.2773412e-20)
(0.1005233 -0.0027692389 -6.962646e-22)
(0.098775865 -0.00043780491 2.139827e-19)
(0.098360318 -0.00029069844 3.8114049e-20)
(0.098288948 -0.00086588992 -8.9375687e-23)
(0.097906239 0.0014066751 5.4604239e-20)
(0.098133833 0.00065489879 2.4647956e-20)
(0.097987415 -0.00058032625 6.0084265e-22)
(0.097844415 -8.8689399e-05 -1.6177601e-22)
(0.097062779 0.00029860971 -5.88705e-22)
(0.095870602 -0.00017454999 3.3747306e-22)
(0.094755996 -0.0012287663 3.2428041e-22)
(0.093087495 0.00035676044 5.8342002e-23)
(0.091506437 -0.00087257524 2.7756734e-20)
(0.091112259 -0.00094414042 5.2526851e-23)
(0.08956983 -0.00076662435 1.2450739e-20)
(0.088224886 -0.00032990331 -1.2161421e-21)
(0.089093917 -0.0039596267 -1.9849757e-21)
(0.088895777 -0.0020547523 0)
(0.086726683 0.0016956989 2.2682082e-20)
(0.087199369 -0.0043941173 1.9600931e-21)
(0.091816696 -0.0067634386 -1.1247774e-19)
(0.092816391 0.00028598109 5.509476e-21)
(0.089518624 0.00050974914 3.4136298e-20)
(0.090395905 -0.007040328 -5.8482013e-20)
(0.096661016 -0.0072368353 -6.399811e-20)
(0.10178412 -0.00025784948 -2.3971433e-22)
(0.10228321 0.0020314864 1.1867546e-20)
(0.09924864 -0.0077387647 1.0675456e-19)
(0.098929434 -0.018024895 5.5914601e-21)
(0.094175608 0.001494028 -2.29154e-19)
(0.093173118 -0.001513167 1.9947481e-22)
(0.096977251 -0.0013761872 6.8290474e-20)
(0.094914146 0.0014166812 1.3224041e-21)
(0.094816156 -0.0010548948 5.3674727e-22)
(0.09495676 -0.00031102883 -1.3671677e-20)
(0.095205313 0.00073654413 0)
(0.096155256 0.00062866814 -4.5386522e-23)
(0.09675479 -0.00054700734 -4.5721496e-23)
(0.096929545 -0.00025690986 -1.2187388e-20)
(0.096672602 0.00046422447 -1.9585926e-23)
(0.096299297 -0.00011731942 -3.7358014e-23)
(0.09571013 -0.0011144956 2.4603748e-20)
(0.094951192 0.00065495951 1.5022699e-20)
(0.094269647 -0.0009306175 -4.3807637e-20)
(0.094138378 -0.0014551241 1.7647742e-23)
(0.093044679 -0.00020521995 -2.1783753e-22)
(0.09256032 -0.00056552277 5.5856922e-22)
(0.093081902 -0.0040911821 0)
(0.091852844 -0.0013825806 -1.0035106e-19)
(0.091210456 0.0023934021 2.2550094e-20)
(0.092275852 -0.0040870466 -5.9282297e-20)
(0.093577601 -0.0073555624 -4.1422838e-20)
(0.093994688 0.0012079075 9.4509782e-22)
(0.094199401 0.0028570689 4.041009e-20)
(0.094565177 -0.0063203984 6.7110928e-20)
(0.095557614 -0.0098912908 1.0635237e-20)
(0.098870403 -0.0017034464 7.3799427e-20)
(0.1040527 0.0036912329 -1.4906908e-20)
(0.1066021 -0.0018597191 8.37931e-20)
(0.10401689 -0.013699505 5.8312165e-21)
(0.095464236 0.00023856004 -3.4300681e-19)
(0.093248503 -0.0024119355 -4.4356562e-23)
(0.095865437 0.00086719792 3.6487444e-21)
(0.093491674 0.0025404077 2.024407e-20)
(0.092874855 -0.0013926412 1.2195984e-21)
(0.092543643 0.00053851586 -9.4486708e-20)
(0.092876839 -0.00018698373 0)
(0.094020517 0.00025796521 0)
(0.094739858 -0.00011904015 -3.1928645e-21)
(0.095227838 -0.00040545853 0)
(0.095461454 0.00018764795 -2.384999e-20)
(0.095590731 -0.00037952835 2.1007549e-20)
(0.095055199 -0.00073705238 0)
(0.094676887 0.0004108349 2.7260133e-20)
(0.09449998 -0.00082099942 -4.1580604e-20)
(0.09425254 -0.0016823281 -4.6055487e-21)
(0.093494163 -5.9070534e-05 -2.8509674e-22)
(0.094012459 -0.00099411399 -2.4272692e-21)
(0.094412774 -0.0033702327 1.0172383e-20)
(0.09252262 -0.001138869 -6.8741168e-20)
(0.093617679 0.001692749 -7.1749406e-21)
(0.096277905 -0.0032642365 -7.3178684e-22)
(0.095225668 -0.0063994392 1.8662716e-20)
(0.094577769 0.00030584188 -6.0461782e-20)
(0.098556525 0.0025515929 1.2514048e-20)
(0.10108134 -0.0046273959 2.2508201e-19)
(0.097978332 -0.0099685576 4.1772094e-21)
(0.097252163 -0.0052919599 6.4698672e-21)
(0.10416732 0.00013484214 1.2368147e-19)
(0.11216033 -0.00083643532 -5.942542e-20)
(0.11174359 -0.0076015647 -1.4583163e-19)
(0.10506764 0.00092465456 3.3056426e-19)
(0.09463088 -0.0027919592 2.2060534e-23)
(0.096444111 0.0015991599 -2.2344167e-19)
(0.094263127 0.0020826862 -1.3704767e-19)
(0.092971955 -0.00077806878 -2.0026554e-19)
(0.092163798 0.0015711035 -2.1448819e-22)
(0.092168774 -0.00052332285 -1.469505e-22)
(0.092864432 0.00017437804 -4.1952786e-20)
(0.09338961 0.00080079234 7.2980797e-20)
(0.093781136 -3.6981793e-06 -3.5265798e-20)
(0.094064382 0.00015064034 -2.5373663e-21)
(0.094319509 -0.00033325326 -1.9891431e-22)
(0.093754429 0.00011714859 1.3182291e-20)
(0.093652466 8.5200528e-05 8.6393858e-21)
(0.093806223 -0.00046698878 -2.0608556e-20)
(0.093454041 -0.0013869223 -6.4642162e-22)
(0.09282357 -3.5710075e-05 1.4339981e-20)
(0.093819692 -0.0014616808 -2.847835e-20)
(0.094028283 -0.001945327 -4.7652782e-21)
(0.091588823 -0.00060922171 1.3721117e-20)
(0.093453173 0.00013157865 5.4701831e-22)
(0.097384158 -0.0023311597 2.1719546e-20)
(0.095207049 -0.0035703195 -3.4125511e-20)
(0.093331506 -0.00076973688 3.8375592e-22)
(0.099250283 0.00036997534 3.976068e-21)
(0.10466193 -0.0029459351 -7.4178399e-20)
(0.1009914 -0.006101328 -1.7125217e-21)
(0.09695663 -0.00686602 -8.9897711e-21)
(0.10285521 -0.0048792315 -7.4014052e-20)
(0.11338072 -0.0036818923 3.6624344e-20)
(0.11697083 -0.0032135069 -4.6906308e-20)
(0.11299411 0.00073602305 3.2782324e-19)
(0.099047428 -0.00072528565 -6.8556372e-23)
(0.099515698 0.00098651161 -3.7574844e-22)
(0.097217211 0.00044973991 -2.4412334e-21)
(0.094693588 -0.0002776145 5.2473887e-20)
(0.09316594 0.0012471209 6.1987459e-20)
(0.092835644 -0.00065111312 -2.1353673e-20)
(0.093003465 -0.00011835739 2.531506e-20)
(0.093393219 0.00098946775 2.6295806e-20)
(0.093510151 6.656345e-05 -1.0419251e-22)
(0.093438755 -0.00026168886 -1.8668392e-20)
(0.093408311 -0.00042408408 -3.4177087e-20)
(0.092714562 0.00048898471 6.4975171e-22)
(0.092574222 -0.00053029584 3.0234102e-21)
(0.092685324 -0.00031633344 -4.4010037e-23)
(0.09215297 -0.00087940593 2.746111e-21)
(0.091643379 -0.00015787885 5.2527045e-21)
(0.092761161 -0.0020785163 0)
(0.092959547 -0.00062490894 -4.7092491e-22)
(0.090682672 6.0412999e-05 5.4662143e-22)
(0.092495028 -0.0023038761 -2.1853429e-21)
(0.096665966 -0.0023491604 -1.7758319e-20)
(0.094763689 -0.00045337052 9.103371e-22)
(0.092301997 -0.0013791676 -1.611761e-20)
(0.097926757 -0.0031209405 1.1862224e-20)
(0.10453582 -0.0029754217 -1.7149882e-20)
(0.10270865 -0.00085537394 -1.7607768e-20)
(0.097908804 -0.0041488705 -6.2683598e-20)
(0.10092236 -0.0087319143 -5.3720414e-20)
(0.11031733 -0.0077316318 -6.9547546e-20)
(0.11648254 -0.002295367 -1.5076614e-19)
(0.10662286 0.0027925006 -7.4790614e-20)
(0.10178026 0.00045145259 -7.7729951e-21)
(0.10311543 -0.0018112919 6.3029905e-20)
(0.10122401 -0.0014661719 1.2685397e-19)
(0.098553168 0.00049727435 -4.9984589e-22)
(0.096762148 0.00036637204 -7.8475875e-23)
(0.095716496 3.8683721e-05 5.9061287e-23)
(0.094901911 0.00014977988 1.2763448e-20)
(0.094890079 0.00077655402 -1.5551563e-20)
(0.094650941 0.00066482237 -1.1534948e-20)
(0.09413998 -0.00013618368 -1.8881139e-21)
(0.093655577 -4.6626987e-05 -6.6105272e-23)
(0.092869347 0.00076707247 -9.1751185e-22)
(0.092469349 -0.00077538967 4.9654209e-23)
(0.092247069 -7.5064001e-05 -5.2446112e-20)
(0.09146696 9.6641678e-05 -1.0360403e-20)
(0.090960551 0.00031415662 -2.4038065e-22)
(0.091624775 -0.0020715981 6.5764002e-23)
(0.091606401 0.00077778269 -6.5956096e-20)
(0.090234344 0.0013517507 8.442017e-20)
(0.091484797 -0.0039619221 -3.4801327e-21)
(0.094766216 -0.0019743858 1.0133069e-19)
(0.094227306 0.0025709544 5.4280408e-21)
(0.092549279 5.6039666e-05 -1.0542437e-19)
(0.096489422 -0.0053147096 1.9004188e-20)
(0.10203578 -0.0026754319 -5.8004686e-20)
(0.10279813 0.0037564048 -5.5725768e-20)
(0.10107904 0.0015575894 -8.0583777e-20)
(0.10164288 -0.0078787291 -5.7584196e-20)
(0.10645903 -0.0098822825 8.867084e-20)
(0.11170663 -0.0027115802 2.3331095e-20)
(0.10418287 0.0031816844 8.2754105e-19)
(0.10307041 0.0042815577 -7.453703e-22)
(0.10521225 -0.0033985805 2.3623716e-21)
(0.10298795 -0.0030649867 -1.4635874e-21)
(0.10110962 0.00059351603 1.0091347e-21)
(0.10006243 -0.001183559 6.8968368e-22)
(0.099191806 0.00020321429 -1.5976599e-22)
(0.098500172 -4.8294257e-05 3.0730834e-22)
(0.098178385 -0.00038417575 -3.6625036e-24)
(0.097818798 0.00052777253 5.7757151e-24)
(0.096951634 -0.00042054336 -1.234934e-22)
(0.095763654 -2.1145383e-05 -9.5349182e-20)
(0.094780494 0.00037032223 2.4925277e-23)
(0.093959917 -0.00092546356 -5.4316198e-23)
(0.093229915 -0.00027939745 3.0170597e-22)
(0.092359874 0.00034860904 3.8498845e-22)
(0.092033246 0.0003193937 6.8027878e-22)
(0.092006326 -0.0022135505 -9.6147849e-22)
(0.091503361 0.0011421755 8.1249673e-20)
(0.091503663 0.0019507991 -8.40953e-20)
(0.091992204 -0.0044838685 -6.6675701e-20)
(0.09306947 -0.0023890202 -8.2252839e-22)
(0.093692148 0.0035942277 2.1448402e-21)
(0.094240789 0.0013552939 1.5502539e-21)
(0.096318504 -0.0058850615 2.4423041e-20)
(0.098701895 -0.003097182 7.5919822e-20)
(0.10076065 0.0048973655 5.9430695e-22)
(0.10380841 0.0051431847 -3.6219172e-21)
(0.10501826 -0.0043772353 -7.1615477e-20)
(0.10457222 -0.00967169 1.8720594e-20)
(0.10600954 -0.0041067353 6.9682108e-20)
(0.11320375 0.0045952506 1.1122153e-20)
(0.099105087 0.0027183821 6.5805022e-20)
(0.10299355 -0.0046166859 -1.015601e-19)
(0.10054055 -0.0028505634 1.0239043e-19)
(0.10007544 0.00084464543 -2.347834e-19)
(0.099625242 -0.0013519211 -4.6545984e-20)
(0.099487706 0.00075126798 -8.8610924e-20)
(0.099720277 0.00029659243 -6.8021288e-23)
(0.099960366 -0.00078776343 4.61171e-20)
(0.1002241 0.00054568481 -4.0280656e-20)
(0.099892984 -6.5071855e-05 -3.6301377e-20)
(0.099018901 6.0361953e-05 2.4078086e-22)
(0.098455663 0.00021687975 -6.2989257e-21)
(0.097755957 -0.00067595101 8.4793154e-20)
(0.096930376 -0.00028411149 -6.8773693e-22)
(0.096128894 0.00044855658 -1.9797196e-20)
(0.096268255 0.0007254201 -2.3333055e-22)
(0.0957102 -0.0014881463 1.7389643e-20)
(0.09459878 0.00097685671 -8.5804081e-22)
(0.096083379 0.0019197278 -4.8297219e-20)
(0.096384588 -0.002919179 7.3595838e-20)
(0.095066306 -0.0023472794 7.3109878e-22)
(0.09615536 0.0030488433 -2.9929729e-21)
(0.099202562 0.0018901877 1.0511243e-19)
(0.10046548 -0.0035926309 -4.3479203e-21)
(0.099125689 -0.0029392616 -3.8415284e-20)
(0.10077988 0.0037979324 2.4166322e-19)
(0.10765651 0.0055053128 0)
(0.11181619 -4.3044897e-05 6.2281588e-20)
(0.10831804 -0.0053881951 1.2654865e-19)
(0.10497663 -0.0031483408 -4.9684585e-20)
(0.10409824 0.0012801133 -1.1818492e-19)
(0.061211728 0.00090557069 0)
(0.11363305 -0.0023438794 8.8076007e-23)
(0.098408563 -0.00094769084 1.5320533e-20)
(0.11389396 -6.5928417e-05 -2.9206351e-20)
(0.10308527 -0.0006434259 -2.4779823e-22)
(0.11351416 -3.7906161e-05 -4.4685875e-20)
(0.10658519 -0.00010353558 1.3306088e-20)
(0.11356549 -0.0004578714 1.6257837e-20)
(0.10805772 9.7433468e-05 -1.0025767e-20)
(0.11452135 -0.00014291873 -1.0060442e-21)
(0.10821153 3.9456869e-05 1.9012225e-20)
(0.11351095 -0.00020017412 -1.5906903e-21)
(0.10939626 8.3158761e-05 3.5333132e-20)
(0.11159775 -0.00042700877 -1.4612597e-20)
(0.11111566 -0.0001530327 -9.2342921e-22)
(0.11227803 7.6616867e-05 -4.1307398e-21)
(0.11029815 -0.00033498993 1.6235627e-20)
(0.10924577 9.2248835e-05 -3.1038373e-20)
(0.11107451 0.00044409083 4.2674126e-22)
(0.11085956 -0.00067981418 4.1218755e-20)
(0.10790606 -0.00069110796 5.9235591e-21)
(0.10971572 0.00034691554 6.4039905e-21)
(0.11401993 0.00044163385 -1.7129187e-21)