/*--------------------------------*- C++ -*----------------------------------*\
| =========                 |                                                 |
| \\      /  F ield         | OpenFOAM: The Open Source CFD Toolbox           |
|  \\    /   O peration     | Version:  2406                                  |
|   \\  /    A nd           | Website:  www.openfoam.com                      |
|    \\/     M anipulation  |                                                 |
\*---------------------------------------------------------------------------*/
FoamFile
{
    version     2.0;
    format      ascii;
    arch        "LSB;label=32;scalar=64";
    class       surfaceScalarField;
    location    "130";
    object      phi_0;
}
// * * * * * * * * * * * * * * * * * * * * * * * * * * * * * * * * * * * * * //

dimensions      [1 0 -1 0 0 0 0];

oriented        oriented;

internalField   nonuniform List<scalar> 
40800
(
0.00072973704
0.00084165234
-0.0010652051
0.00082951643
0.00081957138
-0.0008674822
0.0008997108
0.0010070734
-0.0011190355
0.00095314302
0.0009140673
-0.0010738151
0.0010160333
0.00072722445
-0.00071284811
0.0010675826
0.00079050784
-0.0008441499
0.0011150992
0.00071889732
-0.00078072914
0.0011558166
0.00066988781
-0.00073770885
0.0012014444
0.00059390211
-0.0006078794
0.0012472873
0.00065756
-0.00068552622
0.0012820286
0.00068728956
-0.00073340685
0.001304735
0.00057702656
-0.00062447767
0.0013453262
0.00053098216
-0.00053141003
0.0013865141
0.00063831314
-0.00065302014
0.0014054979
0.00063957624
-0.00065507296
0.0014240289
0.00051255617
-0.00051930968
0.0015275231
0.00069847178
-0.00067621654
0.0015164867
0.00086899329
-0.00095078655
0.0014820767
0.00055740577
-0.0006205994
0.0016333023
0.00072698753
-0.00069780067
0.0016754576
0.0010501917
-0.00108986
0.0016312883
0.00087630146
-0.00096879785
0.0016811951
0.00082178794
-0.00084920468
0.0019282483
0.0011491895
-0.0011980044
0.0020156732
0.0013829508
-0.0015749364
0.001860525
0.0013187014
-0.0015205682
0.0019483507
0.001062286
-0.0011890962
0.0021177315
0.00093844555
-0.0010364057
0.0020540929
0.0012763425
-0.0013272181
0.0022294862
0.0017436097
-0.0016571949
0.0017130695
0.0029510707
-0.0017581163
0.00072016009
0.00062057237
0.0008179203
0.00079124954
0.00088556245
0.00086569184
0.00094224024
0.00072605746
0.0010093137
0.0007724888
0.0010581713
0.00072113334
0.0011059454
0.00066822078
0.0011466
0.00061585381
0.001195117
0.00060887232
0.0012378293
0.00060948195
0.0012673387
0.00061093796
0.0012934542
0.00053871462
0.0013417068
0.00054504083
0.0013770394
0.0006093558
0.0013883927
0.00059335007
0.0014300023
0.00054369466
0.0015306898
0.00071101023
0.00147442
0.00074260488
0.0014959512
0.00053164949
0.0016671942
0.00075973181
0.0016406141
0.00096772185
0.001615276
0.00078860019
0.0017124913
0.00080876126
0.0019175162
0.0010651823
0.0019503809
0.0011090128
0.0017528232
0.0010250535
0.0018649666
0.00098934466
0.0022273437
0.00099889416
0.0022641063
0.0012458997
0.00213255
0.0017155773
0.0018150229
0.0024703611
0.00071312615
0.0004463158
0.00080462565
0.00075652528
0.00086622301
0.00072615481
0.00092703327
0.00058215019
0.00099427696
0.00080179358
0.0010418336
0.00063687123
0.001090769
0.00061631078
0.001134009
0.00057621504
0.0011818481
0.00062000409
0.001221775
0.00056655174
0.00124891
0.00052665743
0.001280757
0.00050553447
0.0013317624
0.00056394394
0.0013613892
0.00057363261
0.0013724598
0.00053456219
0.0014302826
0.00058576061
0.0015144652
0.0007078084
0.0014369307
0.00058992604
0.0015092768
0.00052606648
0.0016794095
0.0008058464
0.0016017538
0.0008462558
0.001610347
0.00068198283
0.001738656
0.00082339047
0.0018674334
0.0010083007
0.0018809751
0.00085352741
0.0017064545
0.0007383937
0.0018062695
0.000950346
0.0022678719
0.0011461129
0.0024613001
0.0012201642
0.0022428165
0.0014829933
0.0017354349
0.002108447
0.00070713307
0.0003559136
0.00079005839
0.00069557939
0.00084664538
0.00061479649
0.00090950035
0.00053961171
0.00097110449
0.00077466824
0.0010194321
0.00054683219
0.0010702945
0.00057016959
0.0011173927
0.00054829243
0.0011622353
0.00060369684
0.0012001598
0.00054041249
0.0012277927
0.00045577666
0.0012659905
0.00046996188
0.0013146489
0.00057235974
0.0013393664
0.00052244368
0.0013602273
0.0004853285
0.0014251658
0.00060736746
0.0014841604
0.00068728973
0.0014131193
0.00044700543
0.0015238347
0.00053138206
0.0016666122
0.00084244065
0.0015592002
0.00071642833
0.001616681
0.00057753805
0.0017603536
0.00083938182
0.0018006063
0.001017511
0.0018165811
0.00071315627
0.001739226
0.00056049515
0.0017972572
0.00093485308
0.0022041147
0.0013004173
0.0025067609
0.0012182614
0.0023640172
0.0011358055
0.0013660705
0.0020121352
0.00070181441
0.00037037328
0.00077617852
0.00059378905
0.00083157825
0.00055040253
0.00089266332
0.00057634101
0.00094232605
0.00068166601
0.00099356118
0.00047537267
0.0010450772
0.00052485083
0.0010952092
0.00052935038
0.0011376643
0.00055748416
0.0011740668
0.0005059294
0.0012043946
0.00041229172
0.0012485313
0.00043792912
0.001289934
0.0005494135
0.0013140358
0.00045916765
0.0013477061
0.00043015002
0.0014114539
0.00058636111
0.0014424028
0.00064267066
0.0014025795
0.00035002237
0.0015367426
0.00055418057
0.001631326
0.00082516186
0.0015188197
0.00059373338
0.0016364177
0.00052241318
0.0017862054
0.0008213999
0.0017323834
0.0010114268
0.0017588541
0.00072789155
0.0018374553
0.00053050855
0.0018763297
0.00092077774
0.0020892783
0.0013931823
0.0023872352
0.0012498018
0.0023922219
0.00082385733
0.00083136589
0.0020973972
0.00069735629
0.00045815688
0.00076510417
0.00045951095
0.00082158768
0.00054679708
0.00087727643
0.00063715155
0.00091613567
0.00054731007
0.00096969447
0.00045066323
0.0010197085
0.00048201769
0.0010691353
0.00050433691
0.001109007
0.00048558926
0.0011447342
0.00046176243
0.001179358
0.00038360644
0.0012276588
0.00041743647
0.0012596827
0.00049530145
0.0012859149
0.00040531388
0.0013324048
0.00037385451
0.0013919623
0.00052495053
0.0013950277
0.00055962045
0.0014026102
0.00030679371
0.0015424528
0.0005760353
0.0015816333
0.00076064779
0.0014882697
0.00048710943
0.0016572321
0.00051470029
0.0018086954
0.00078229016
0.0016834257
0.00091344056
0.0017210829
0.00079124936
0.0019412528
0.00063342124
0.0020280664
0.00088831594
0.0020138246
0.0013291791
0.002144179
0.0012998511
0.0022653111
0.00070130684
0.00046384402
0.0022350748
0.00069921281
0.00053797651
0.00076069213
0.00032866024
0.0008141347
0.0005983988
0.00086198176
0.00067621398
0.00089642459
0.0004084531
0.00094980355
0.00046502251
0.00099605749
0.00044892293
0.0010420653
0.00046994715
0.0010805389
0.00040244744
0.0011151168
0.00041723328
0.0011538875
0.0003627725
0.0012034747
0.00040073409
0.001227559
0.00041950871
0.0012571262
0.00036204352
0.0013142799
0.00035457536
0.0013671216
0.00045047319
0.0013482587
0.0004512635
0.0014072085
0.00031163852
0.0015357004
0.0005811869
0.0015255244
0.00065439235
0.0014708204
0.00041298628
0.0016624161
0.00054324521
0.0018044585
0.00073989216
0.0016520164
0.00073883238
0.0016763749
0.00078135535
0.0019945597
0.0007831447
0.0021511172
0.00085467295
0.0020327475
0.0010740605
0.0019500652
0.0011935887
0.0020767188
0.00082676614
0.00043056516
0.0023046939
0.00071384271
0.00055112799
0.00076971988
0.00023612262
0.00081725255
0.00066362255
0.00085407875
0.00064275578
0.00088889744
0.00030323786
0.00093754055
0.00049172475
0.00097831181
0.00042073511
0.0010177162
0.00042130767
0.0010559511
0.00034157284
0.0010879309
0.0003598829
0.0011296741
0.00035457446
0.0011761218
0.00038491503
0.0011956531
0.0003401903
0.0012297628
0.00031966299
0.0012908534
0.00036809965
0.0013356005
0.00037669322
0.0013086789
0.00034096319
0.0014090624
0.0003465842
0.001512014
0.00057602102
0.0014691246
0.0005139448
0.0014643573
0.00034519599
0.0016484285
0.00060886846
0.0017664615
0.00069467217
0.0016432423
0.0005213432
0.001640388
0.00065427131
0.0019602143
0.00089754304
0.0021585714
0.00083457504
0.0020366754
0.00074593651
0.0018304748
0.00085318012
0.0019281773
0.00092890929
0.0007166509
0.002267313
0.0007791285
0.00050638688
0.00079098356
0.00022942606
0.0008283998
0.0006808967
0.00085586608
0.00052134642
0.00089520714
0.00026703658
0.00093771536
0.0004864961
0.00097316616
0.00038978877
0.0010039793
0.00035114645
0.0010407919
0.00031684311
0.0010690322
0.00030100687
0.0011097099
0.00035237294
0.0011479775
0.00036697662
0.0011656148
0.00026558188
0.0012045189
0.00028781615
0.0012595935
0.00037968102
0.0012971214
0.00031800338
0.001276295
0.00024964299
0.0013995787
0.00038802801
0.0014679421
0.00055817872
0.0014130278
0.00037647285
0.0014715615
0.00028126327
0.0016200579
0.00066158633
0.0016914478
0.00067097144
0.0016349722
0.00031789988
0.0016438685
0.00045786168
0.0018749674
0.00090983828
0.0020724593
0.0008323859
0.0020087316
0.00048048504
0.001822396
0.00043150013
0.0018450552
0.00083208446
0.0010465795
0.0021661682
0.00090815469
0.00041207907
0.00085775756
0.00033113873
0.00086862871
0.00062559434
0.00088245955
0.00038739616
0.00091806538
0.00031872355
0.00094793781
0.0004243076
0.00097809964
0.00034600978
0.0010047945
0.00027124274
0.0010388971
0.0003081593
0.0010665542
0.00025240131
0.0011039943
0.00034038253
0.0011316936
0.00033932964
0.0011505077
0.00021258502
0.0011919279
0.00027670942
0.0012326494
0.00037950676
0.0012633839
0.00029885706
0.0012574144
0.00019400419
0.0013808971
0.00041473301
0.0014091573
0.0005055386
0.0013586422
0.00026804211
0.0014855836
0.00025516523
0.001586301
0.00064650797
0.0015818584
0.00065548924
0.0016037252
0.00021065116
0.0016856658
0.00029291358
0.001788165
0.00078896489
0.0019014405
0.00084331344
0.0019154309
0.00035574947
0.0018977053
0.00017464766
0.0018861045
0.00054622878
0.001120673
0.0020782456
0.00097828095
0.00024278543
0.0009467593
0.00043875201
0.00094332035
0.00051136341
0.00095266956
0.00030409365
0.00097512746
0.00042213179
0.00098449621
0.00033882142
0.0010023651
0.00031392385
0.0010229951
0.00023684114
0.001049024
0.00029655653
0.001076492
0.00022399724
0.0011082566
0.0003163453
0.0011269811
0.00030059876
0.0011521413
0.0001914495
0.0011950132
0.00026537195
0.0012230828
0.00036247086
0.001247568
0.00030446822
0.0012625474
0.00017880692
0.0013669244
0.00042047175
0.0013583423
0.00042145039
0.0013241764
0.00019981456
0.0015053721
0.00026891592
0.0015554072
0.00056876308
0.0014698859
0.00058855211
0.0015639359
0.00023676356
0.0017352297
0.00022804857
0.0017543695
0.00059003785
0.001724341
0.00079048295
0.0017723925
0.00042658161
0.0019236701
0.00015956659
0.0020425758
0.00031754842
0.00089992651
0.0020852025
0.00097894155
7.7426099e-05
0.00099640574
0.00047299595
0.0010106441
0.00036882956
0.0010376824
0.00026992274
0.0010604666
0.00049266525
0.0010622262
0.00026209846
0.0010686311
0.00030099189
0.0010796375
0.00027482218
0.0010897624
0.00027224082
0.0011140674
0.00023482699
0.0011353207
0.00029166717
0.0011451859
0.00025167127
0.0011747724
0.0002011656
0.0012143884
0.00024586863
0.0012299386
0.00031374038
0.0012455328
0.0002924179
0.0012847177
0.00019221735
0.0013602258
0.00039704946
0.0013278581
0.00032185362
0.0013177943
0.0001779171
0.001522628
0.00030729472
0.0015328222
0.00046572291
0.0013898419
0.00044271997
0.0015304144
0.000317499
0.0017675965
0.00028479858
0.0017598892
0.00044596939
0.0016082978
0.0006014375
0.0016645364
0.00054479245
0.0018988949
0.00033355126
0.0021645638
0.00034024423
0.00055660724
0.0021680295
0.00091304298
-1.4751919e-05
0.00098290274
0.00041082082
0.0010125067
0.00027309489
0.0010554593
0.00027996801
0.0010880372
0.00048109266
0.0011131256
0.00020805638
0.0011370146
0.00026912088
0.0011573324
0.00032011037
0.0011670152
0.00022941734
0.0011917514
0.00026398941
0.0012037342
0.00025565569
0.0012083226
0.00020476632
0.0012360021
0.00023023251
0.0012674724
0.0002409678
0.0012721241
0.00023738932
0.0012765405
0.0002579654
0.0013336145
0.00022503698
0.0013726799
0.00035098878
0.0013337592
0.00021239084
0.001345715
0.00018793404
0.0015393113
0.00037945799
0.0015254563
0.00036248761
0.0013650204
0.00024481484
0.0015055495
0.0003674899
0.0017726043
0.00045056978
0.0017676481
0.00039056882
0.0015844683
0.00033773701
0.0015929861
0.00054023571
0.0018553873
0.0006034857
0.0021464972
0.00051214122
0.00040721005
0.0021993105
0.00083876455
-1.1934301e-05
0.00092130566
0.00029876819
0.00097934779
0.0002542358
0.0010353456
0.00032567521
0.0010679594
0.0003862832
0.0011063963
0.00020980667
0.0011399935
0.00024261452
0.0011690541
0.0003114039
0.0011959164
0.00019020455
0.0012305543
0.00027164035
0.0012483742
0.00019040968
0.0012656299
0.00016095193
0.0012991746
0.00024167284
0.0013288402
0.00025202227
0.0013369256
0.00015942302
0.0013402351
0.0002131527
0.0014073478
0.00025732987
0.0014147506
0.00030122651
0.001389422
0.00011535982
0.0014194706
0.00019962568
0.0015685182
0.00047245437
0.0015419085
0.00027924647
0.0014188217
5.8173653e-05
0.0015328768
0.00034526434
0.0017656735
0.00063126926
0.001758603
0.00039123717
0.0016463489
0.00013587704
0.0016175452
0.00034639951
0.0018228036
0.00074269593
0.0020532836
0.00073968702
0.00040746141
0.0021511254
0.00084543092
7.5882204e-05
0.00089882125
0.00017800429
0.00094273662
0.00034026031
0.00099090407
0.00037154465
0.0010208854
0.00022875873
0.0010704676
0.0002385498
0.0011120821
0.00021756176
0.0011443647
0.00024583839
0.0011829523
0.00018452565
0.0012153923
0.00025659742
0.0012373859
0.0001280282
0.0012646193
0.0001219368
0.0013016018
0.00023102333
0.0013283792
0.0002427208
0.0013495309
9.9282678e-05
0.0013617182
0.00015378844
0.0014371791
0.00025456385
0.0014260942
0.00024117469
0.0014352694
5.3933747e-05
0.0014986981
0.00019389028
0.0015840813
0.00050618265
0.0015549863
0.00023507794
0.0015142911
-5.2474986e-05
0.0016233253
0.00026448977
0.0017553811
0.00069371984
0.0017378393
0.0004263181
0.0017124694
4.7379949e-05
0.0017562729
0.0001044318
0.0018462646
0.00060547068
0.0019496834
0.0008276602
0.00052755192
0.0020159597
0.00098406141
0.00022896101
0.00095043611
0.00013443564
0.0009720122
0.00044297601
0.0010016434
0.00037141501
0.0010211487
0.00010088813
0.0010616262
0.00026300939
0.0010921824
0.00019879984
0.0011158928
0.00016564836
0.0011558901
0.00020564926
0.0011792701
0.00020935858
0.0012049379
0.00010273096
0.0012389259
9.2162507e-05
0.0012746027
0.00019521466
0.0012928227
0.00019715069
0.0013267705
6.7588397e-05
0.0013441184
9.3122509e-05
0.0014144329
0.00022100277
0.0013889142
0.00017033577
0.0014317228
3.7525395e-05
0.0015278484
0.00017865773
0.0015470888
0.00044496155
0.0015062607
0.0002229054
0.0015621998
-5.7450057e-05
0.0017098726
0.00017174338
0.0017271509
0.0005815621
0.0016718801
0.00044568778
0.0017108537
3.8561055e-05
0.0018838853
7.7160157e-06
0.0019320518
0.00030471445
0.0018934346
0.00065482563
0.00055676831
0.0018706921
0.00098836363
0.00026841436
0.00098636256
0.00010331468
0.0010052744
0.00047129588
0.0010278086
0.000316673
0.0010469507
5.7388009e-05
0.0010769611
0.0002436303
0.0010985562
0.00017723038
0.0011172531
9.4716803e-05
0.0011507018
0.00022642758
0.0011630998
0.00013761045
0.0011856194
0.00011598939
0.001217523
8.6286232e-05
0.0012438576
0.00014668575
0.00125173
0.00014300663
0.0012914321
7.5502543e-05
0.0013141876
6.2051498e-05
0.0013707453
0.00017563476
0.0013383772
9.9502431e-05
0.0014069119
5.7269567e-05
0.0015204334
0.00016989873
0.0014871527
0.0002949084
0.0014353532
0.00020048051
0.0015653127
8.9858795e-06
0.0017425168
0.00014904378
0.001677659
0.00035420059
0.0015748834
0.00035240097
0.0016708347
0.00010507066
0.0019140037
5.879641e-05
0.0019973756
0.00013169648
0.0018634131
0.00030038678
0.00039853216
0.0017783157
0.00089502606
0.00012978913
0.00096166292
7.0333681e-05
0.00099123687
0.00039366017
0.0010180376
0.0002243547
0.0010468452
7.1594838e-05
0.0010730053
0.00017556381
0.001094264
0.00014109273
0.0011173055
6.755286e-05
0.0011422021
0.00020142122
0.0011557606
7.1835451e-05
0.0011770817
0.00012331985
0.0012070784
0.00010331878
0.0012256742
9.809462e-05
0.0012289234
9.1658424e-05
0.0012687742
0.00011030422
0.001293527
7.2858097e-05
0.0013291918
0.00013310764
0.0012990039
4.2530829e-05
0.0013753916
0.00010841359
0.001481422
0.00017804217
0.0014252189
0.00012125037
0.001363284
0.0001147637
0.0015340066
0.00013048004
0.0017128629
0.00020742275
0.0016182253
0.00014281185
0.0014762483
0.00014220616
0.0016012135
0.000171491
0.0018663837
0.00019531458
0.0019768435
0.00014241387
0.0018393759
4.8300899e-05
0.00012742303
0.0016951626
0.00086596772
-6.711964e-05
0.00093332905
7.5753679e-05
0.00096291215
0.00026925117
0.00099417556
0.00010780994
0.0010355007
0.00012605272
0.0010626824
9.6963733e-05
0.0010877216
0.00011293668
0.0011183613
9.615614e-05
0.0011354444
0.00012216607
0.001156347
3.526847e-05
0.0011763478
0.00010096271
0.0012051679
0.00012617441
0.0012202802
6.0136305e-05
0.001226217
3.4615006e-05
0.0012629218
0.00014037522
0.0012900166
9.9350069e-05
0.0013092765
9.3877418e-05
0.0012966256
-4.2076931e-06
0.0013666628
0.00016217643
0.0014475207
0.0002008966
0.0013993177
-9.178276e-06
0.0013440056
-1.6714243e-05
0.0015162379
0.00024874156
0.0016575514
0.00028075608
0.0015753177
3.7618072e-05
0.0014469793
-0.00010816107
0.0015569031
0.00014654966
0.0017912581
0.0003849504
0.0018849619
0.00024003542
0.0018130145
-1.4965635e-05
-0.00010101595
0.0016841357
0.00093156663
-0.00027398299
0.00097015628
0.00011526666
0.00097992399
0.00014502394
0.0010092799
3.1110405e-06
0.0010442189
0.00021820396
0.0010702784
4.0284002e-05
0.0010976087
7.8626432e-05
0.0011278812
0.00014594151
0.0011389072
2.8646303e-05
0.0011646677
3.4120187e-05
0.0011835796
7.0988374e-05
0.0012079003
0.00013584627
0.0012213622
4.1495337e-05
0.0012363407
-1.6536878e-05
0.0012650832
0.00014198605
0.001292696
0.0001104458
0.0013002788
6.4359062e-05
0.0013155283
-3.7750582e-05
0.0013717234
0.00017493034
0.0014142311
0.00022202
0.0013886313
-7.9235589e-05
0.001378943
-0.00012803761
0.0015055443
0.00025066648
0.0015987144
0.00036302832
0.0015259081
-2.9525452e-06
0.0014904191
-0.00024367583
0.001587126
4.490279e-05
0.0017323439
0.00046736177
0.0017836173
0.00038324027
0.0017556223
1.197851e-05
-0.00018157463
0.0017354797
0.0010311742
-0.00037292675
0.0010312268
0.00015246849
0.0010332988
9.8311971e-05
0.0010637349
-3.2955104e-05
0.0010878906
0.00027189442
0.0011129163
1.8846326e-05
0.0011365403
5.5172469e-05
0.0011588883
0.0001686442
0.0011731785
-2.1783568e-05
0.0012000011
4.894458e-05
0.0012203026
5.3585716e-05
0.0012384572
0.00012008536
0.0012503789
3.6556599e-05
0.001277344
-3.1031795e-05
0.0012958766
0.00011590713
0.001322531
0.00010274357
0.00132034
5.1278838e-05
0.0013641873
-4.4571626e-05
0.0014071988
0.00013455396
0.0014011741
0.00021268537
0.0014024675
-9.1449232e-05
0.0014531755
-0.0001618227
0.0015408783
0.0001587855
0.0015570315
0.00035106304
0.0014941576
1.2403125e-05
0.0015501682
-0.0002353143
0.0016926632
-5.8488798e-05
0.0017305814
0.00035269355
0.001697952
0.00043159047
0.001691835
0.00010192572
-0.00013152972
0.0017998426
0.0010500513
-0.00029762827
0.001022034
0.00014758606
0.001039638
0.00012770632
0.0010826906
-2.3012302e-05
0.0011017446
0.0002168269
0.0011408662
5.0242078e-06
0.001173368
3.4598891e-05
0.0011901836
0.00012777546
0.0012173432
-2.5853791e-05
0.0012464629
3.7852513e-05
0.0012738451
2.7532991e-05
0.0012923587
7.0449074e-05
0.0013085332
2.3323918e-05
0.0013511032
-2.3334749e-05
0.0013615724
6.3330541e-05
0.0013921055
6.4724434e-05
0.0013859497
3.4185334e-05
0.001455073
-3.3625225e-05
0.0014914309
6.8746444e-05
0.0014444854
0.00013192974
0.0014699682
-4.9503573e-05
0.0015660813
-0.00010999528
0.0016326483
6.4171049e-05
0.001576181
0.00020448493
0.0015186213
5.065878e-05
0.001636892
-0.00014070336
0.0018318799
-7.3899814e-05
0.0018139428
0.00014952588
0.0016846231
0.00027273828
0.0016889771
0.00012764977
-3.9753688e-05
0.0018593074
0.00082086843
0.00089749448
0.0011275267
0.0011832883
0.0012604379
0.0012881286
0.0013209642
0.0013673269
0.0014122947
0.0014412942
0.0014743161
0.0014900867
0.0015120719
0.0015624031
0.0015747435
0.0016058907
0.0015926904
0.0016730619
0.0017049927
0.001636844
0.0016736632
0.0017907258
0.0018529636
0.0017634808
0.0016891112
0.0018393646
0.0020617079
0.0020393623
0.001854728
0.001824605
0.0020211414
0.00026144813
0.0022072037
0.00037191152
0.0019773032
0.00031373216
0.0018347836
0.00020435475
0.0017193459
0.00017465907
0.0016915469
0.00025625426
0.0017090499
0.00053957213
0.0017880765
0.00090569547
0.0018323359
0.0010131398
0.0018399502
0.00074275339
0.0017790677
0.00030033641
0.0017525758
4.2269109e-05
0.0018416257
0.00010657979
0.0020053222
0.00061756712
0.0022993209
0.0012628263
0.0025320244
0.001545085
0.0025528993
0.0013253449
0.0023508708
0.00084125676
0.0020575646
0.00058210014
0.0018829893
0.00078262636
0.0018927668
0.0014026739
0.0021074513
0.0018413132
0.0024317991
0.0026335502
0.0018607552
-0.00014306277
0.0018866347
-0.00032290433
0.0017449126
-0.00040439787
0.0017299114
-0.00032869914
0.0017956866
-3.1634851e-05
0.0019435437
0.00041056711
0.0020637779
0.00080594027
0.0020902585
0.0009615643
0.0019909603
0.0008640108
0.0017982395
0.00058128889
0.001617181
0.00035661259
0.0015206924
0.00037412695
0.0015959907
0.00074808809
0.0018041957
0.0011119834
0.0021146257
0.0011832756
0.002282675
0.00089703417
0.0022707584
0.00039668133
0.0021646706
0.00019460527
0.0021076876
0.0005176343
0.0022159674
0.0012929158
0.0024089433
0.0019968226
0.0025009203
0.0022036856
0.002443949
0.002295795
0.0017715685
-0.00016157422
0.0015350898
-0.0001753345
0.0014775498
-4.6699965e-05
0.0015308828
8.9738677e-05
0.0016920258
0.00021404078
0.0018503339
0.00021222865
0.001927365
0.00010270496
0.00197611
-6.404207e-05
0.0019583574
-4.0319614e-05
0.0018854398
0.00014008279
0.0018618778
0.00061216474
0.0018643538
0.0011991422
0.0019035121
0.0015583968
0.0018940827
0.0015040494
0.0018809342
0.0010027661
0.0018257211
0.00037709631
0.0017169092
8.4538629e-05
0.0017071055
0.00024416734
0.0018915065
0.00090337235
0.0023166888
0.0015462782
0.0026810253
0.0017780025
0.0027618916
0.0016092815
0.0025897172
0.0022763389
0.001197918
0.00043058176
0.0017736387
0.00085517815
0.0016042174
0.0010923146
0.0015115144
0.001024528
0.0015019329
0.00059751094
0.0014857931
3.0389756e-05
0.0014551809
-0.00048323752
0.0014891828
-0.00065270089
0.0015991527
-0.0004213257
0.0017762662
0.00011024455
0.0020088588
0.00077790309
0.0021569642
0.0011542535
0.0021789273
0.0011149886
0.0021036878
0.00081806642
0.0019413712
0.00049257108
0.0018102606
0.00040496343
0.0016763926
0.00068585864
0.0016046302
0.0013521921
0.0017332945
0.0018045055
0.0020276378
0.0016860189
0.0023246141
0.0011603905
0.0023754162
0.00049439355
0.0022721267
0.0021597369
7.305764e-05
0.0005100165
0.0020993866
0.00085578355
0.0018668161
0.00090819971
0.0016893346
0.00066611724
0.0015254795
0.00028851741
0.0014062745
3.3010105e-05
0.001319324
5.3070964e-05
0.0013358248
0.00037177129
0.0014113623
0.00073725044
0.0015588332
0.0010213822
0.0017690441
0.00085937858
0.0018683569
0.00040445617
0.0018745658
-0.0001727741
0.0018731124
-0.00047934895
0.0019081857
-0.00032465905
0.0020061203
0.00038700605
0.0021476221
0.0014759172
0.0021406115
0.0022834901
0.0020579904
0.0024966735
0.001961302
0.001929812
0.0019475419
0.00088122038
0.0018503636
3.3967786e-05
0.0016710484
0.0017118206
-0.0001909887
-0.00017552494
0.0019171728
-0.00054784815
0.001739543
-0.00090689291
0.0016549485
-0.00095374004
0.0016297663
-0.00059235924
0.0016961468
0.00012096488
0.0017148578
0.00097797674
0.001698909
0.0016843152
0.0016419549
0.0020435785
0.0015705784
0.0018133055
0.0015380393
0.0010243098
0.0014741621
5.1868377e-05
0.0013621661
-0.00068661121
0.0013469219
-0.00084810376
0.0015313392
-0.00030165276
0.0018952223
0.00057079919
0.0022629423
0.0013516469
0.0024121526
0.0017334914
0.0023648588
0.0016387185
0.0021912022
0.0012500522
0.0020139542
0.0006463052
0.0018566112
0.00041593146
0.0015999615
0.0015080582
0.00086003916
-0.00085727359
0.0014649625
-0.0013736548
0.0013988018
-0.0013927704
0.0014467831
-0.0010430035
0.0015900535
-0.00048638969
0.0017714092
0.00011182275
0.0018389661
0.00072194693
0.0018656332
0.0011369821
0.0018735136
0.0011654995
0.0017855663
0.00088205487
0.001628328
0.0004569252
0.0014869256
0.00020866381
0.0013032552
0.00035892893
0.0012052133
0.00082744422
0.0012723784
0.0012614876
0.0015393554
0.0014920427
0.0018992612
0.0011909694
0.0021068979
0.00062279756
0.0021130107
-8.1147908e-05
0.0020655458
-0.00037389929
0.0020521995
-0.00013224085
0.0021436563
0.00075312094
0.0021575664
0.0020026526
0.0020381565
0.00011904217
0.0014209162
0.00034105115
0.0012852019
0.00050829722
0.0012417605
0.00061422416
0.0013519968
0.00065327411
0.0015184571
0.00059381578
0.0015967421
0.00014087058
0.0016091331
-0.00053098605
0.0016547454
-0.0011349576
0.0017036649
-0.0013209514
0.0017349867
-0.00084921695
0.0017996136
0.00022007636
0.0017811017
0.0014736778
0.001623551
0.0024667436
0.0014899776
0.0029250582
0.0014532895
0.002683851
0.0015514772
0.0016740426
0.0016640622
0.00027732962
0.0016250548
-0.00090372234
0.0015804684
-0.0013217009
0.0017121205
-0.00074041811
0.0020549151
0.00054560756
0.0024263879
0.0025274007
0.0018201545
0.0010501453
0.0017840461
0.0018921555
0.0015478389
0.0024269155
0.0013480272
0.0024632323
0.001255266
0.0019508121
0.0012543544
0.00086666869
0.0012201112
-0.00040253004
0.0011856587
-0.0014869269
0.0012480166
-0.0019674028
0.0014057052
-0.0017784097
0.0015931403
-0.0010761694
0.0018356828
-9.4118075e-05
0.0019741535
0.0010208565
0.0019384077
0.0019694286
0.0018466935
0.0024607017
0.0017309271
0.0024606784
0.0016180227
0.0017643647
0.0015542813
0.00064090284
0.0013897483
-0.00012123227
0.0012129836
-0.00012626143
0.0012899131
0.00035960363
0.0016751627
0.00099061102
0.0021611997
0.0024675627
0.0013350673
0.00060203414
0.0019664297
0.0011139459
0.0017858994
0.0014632406
0.0015880263
0.001543274
0.0014286206
0.0012600075
0.0012925112
0.00058479001
0.0011243922
-0.00012694416
0.00095079194
-0.00040681274
0.00095132683
-0.00020282229
0.0011284711
0.00016113731
0.0013675833
0.00034188129
0.0016271975
0.00049893945
0.0018139794
0.00046250339
0.0018304693
0.00029956578
0.0017896175
3.730165e-05
0.0017965821
-0.00018741409
0.0017837289
-8.467411e-05
0.0017730982
0.00046717376
0.0016876409
0.0013282694
0.0014023208
0.0021091025
0.0012229009
0.0024732435
0.0013599637
0.0024550473
0.0017070738
0.0021072116
0.0018827496
-0.00016535034
0.0019079568
-0.00064090649
0.0017838168
-0.0012897997
0.0016036773
-0.0017808731
0.0014972729
-0.0016884275
0.0014447228
-0.00083671056
0.0013676954
0.00056394493
0.0012051284
0.0019100102
0.0010848404
0.0026346364
0.0010780763
0.0026243559
0.0011671966
0.002277876
0.0013446351
0.0015810464
0.0015329976
0.00056632272
0.0016046792
-0.0006848125
0.0015640941
-0.0018634813
0.0015855458
-0.0024511035
0.0016810457
-0.0021508449
0.0018197804
-0.00081108742
0.0019615179
0.0012074533
0.0018756906
0.0030159731
0.0015947912
0.0041168202
0.0014368137
0.0041958659
0.0014943379
0.0017250734
0.0032014373
-0.0014067767
0.0017120794
-0.0026960508
0.0016540598
-0.0035537427
0.0014964574
-0.0036703982
0.0014612607
-0.0030084777
0.0014956166
-0.0016676937
0.0015101341
0.00012586394
0.0014224884
0.0019394265
0.0013361246
0.0033860922
0.001287589
0.0041402202
0.0012533464
0.003971086
0.0012498371
0.0028110193
0.0013136198
0.00092559734
0.0013453285
-0.0010849512
0.0012932426
-0.002465047
0.0013330224
-0.0028623443
0.001499541
-0.0023903614
0.0017022438
-0.0012838017
0.0019417357
0.00016674318
0.0020156705
0.0017460732
0.0018505518
0.0031589067
0.0016831503
0.0040343281
0.0016338304
0.0016407474
0.0039385282
-0.0019613686
0.0015128354
-0.0031847918
0.0014916055
-0.0034018772
0.0013669559
-0.0028451339
0.0013870158
-0.0019557424
0.0014593085
-0.0010243944
0.00149432
-0.00011285537
0.0014367868
0.00080200524
0.0013925966
0.0017520758
0.0014032984
0.0025893895
0.001401624
0.0030880866
0.0013662354
0.0027626831
0.0013312751
0.0014250355
0.0012701274
-0.00038579845
0.0011152458
-0.001506744
0.0011223489
-0.0016046133
0.0013303833
-0.0011327031
0.0015700985
-0.00054463915
0.0018093851
7.6387629e-05
0.0019527144
0.00059250837
0.0018682735
0.0012063546
0.0017377481
0.0017032575
0.0017257517
0.0017284514
0.0021261636
-0.00061013811
0.001485663
-0.00083688208
0.0014168529
-0.00081439096
0.0012645758
-0.00058506335
0.0012823727
-0.00036732801
0.0013551112
-0.00017644187
0.0014047712
-3.5423205e-05
0.0013767461
-1.168947e-05
0.0013482855
-2.1147293e-06
0.0013889101
3.9509786e-05
0.0014270202
0.00018532619
0.0014398316
0.00042572926
0.0014170364
0.00060744705
0.0013522759
0.00073515267
0.0011657644
0.00079522635
0.0010681178
0.00073419277
0.0012045056
0.0006378921
0.0014338456
0.00059137637
0.0016579986
0.00043906474
0.0018414657
0.00019533916
0.0018272366
-0.00015204357
0.0016966702
-0.00042855191
0.00170022
0.001767274
-0.0005013544
0.0011760204
0.0015629404
0.002042937
0.001452307
0.0022652586
0.0012518743
0.0019117677
0.0012250168
0.00135896
0.0012678262
0.00071336887
0.0013119941
4.1616634e-05
0.0012946613
-0.00063949455
0.0012757873
-0.0014327403
0.0013269415
-0.0021033806
0.0013820143
-0.0025024527
0.0014323765
-0.002208818
0.0014556709
-0.00084591743
0.0014395686
0.00095646066
0.0012956117
0.0024774213
0.00116123
0.0029812755
0.0012198532
0.0026766259
0.0013893154
0.0020152262
0.0015464284
0.0011459655
0.001717456
0.00017190625
0.0017338309
-0.00092462679
0.0016155479
-0.0018616879
0.0016261322
0.0017303589
-0.0022410692
0.0024276109
0.0016438803
0.003950476
0.0015394533
0.0043252368
0.0013123249
0.0038660322
0.0012289156
0.0028436121
0.0012290712
0.0015490184
0.0012519975
0.00019804108
0.001227978
-0.0011712938
0.0012162153
-0.0024902505
0.0012780834
-0.0035675021
0.0013387191
-0.0041411931
0.0013922321
-0.0038715153
0.0014311895
-0.0020987183
0.0014491785
0.00064099328
0.0013637665
0.0031552108
0.0012704128
0.0043449332
0.0012922541
0.0041872208
0.001399661
0.003258757
0.0015071388
0.0019159643
0.0016562697
0.00037251329
0.001669416
-0.0013558281
0.0015613528
-0.0028177235
0.0015705832
0.0016982679
-0.0035279704
0.0028476434
0.0016768366
0.0047304096
0.0015985302