/*--------------------------------*- C++ -*----------------------------------*\
| =========                 |                                                 |
| \\      /  F ield         | OpenFOAM: The Open Source CFD Toolbox           |
|  \\    /   O peration     | Version:  2406                                  |
|   \\  /    A nd           | Website:  www.openfoam.com                      |
|    \\/     M anipulation  |                                                 |
\*---------------------------------------------------------------------------*/
FoamFile
{
    version     2.0;
    format      ascii;
    arch        "LSB;label=32;scalar=64";
    class       volScalarField;
    location    "130";
    object      rho;
}
// * * * * * * * * * * * * * * * * * * * * * * * * * * * * * * * * * * * * * //

dimensions      [1 -3 0 0 0 0 0];

internalField   nonuniform List<scalar> 
20580
(
1.001776
1.0041519
1.0018145
1.0006957
1.0026331
1.00229
1.0016502
1.0014532
1.0021607
1.0013157
1.001178
1.0020046
1.0020013
1.001022
1.0012437
1.0021337
0.99990852
0.99922662
1.0044171
1.0008191
0.99716746
1.001327
1.0028016
0.99738043
0.99407387
1.0036552
1.0068472
0.99953305
1.0036953
1.0066932
0.98644749
1.0018675
1.0040831
1.0017821
1.0007987
1.00236
1.0025181
1.0018278
1.0015593
1.0020135
1.0011989
1.0014053
1.0023424
1.001405
1.00063
1.0017858
1.0018718
0.99815518
1.0007693
1.0053068
0.99853121
0.9976738
1.0035437
1.0012932
0.99571763
0.99546265
1.0086085
1.0134377
0.99831205
0.99345775
1.0048921
1.0012921
1.0018069
1.0033986
1.0014085
1.0009838
1.0016482
1.0021427
1.0018619
1.0017879
1.0017177
1.000991
1.0016204
1.0024527
1.0010196
1.0005475
1.0020582
1.0017256
0.99723979
1.0021861
1.0055211
0.99691099
0.99871852
1.0053324
1.0005632
0.99586913
0.99683419
1.0091187
1.0154671
0.99839844
0.98536126
0.99879616
1.0159208
1.0015973
1.0023322
1.0010008
1.0012395
1.0008625
1.0013853
1.0015841
1.0020111
1.001285
1.0010209
1.0017035
1.0023589
1.0009286
1.0009351
1.0019811
1.0016745
0.99752357
1.0032007
1.0044831
0.9961931
1.000366
1.0061078
0.99992092
0.99784759
0.99884783
1.00555
1.0115476
0.99932852
0.98257253
0.99085319
1.0176899
1.0013202
1.0014263
1.0008901
1.0017338
1.000493
1.0006542
1.0011421
1.0020096
1.00098
1.0013314
1.0017306
1.001934
1.001001
1.0014921
1.0017304
1.0015325
0.99895267
1.0037275
1.0023197
0.99637687
1.0021939
1.0055318
0.99844331
1.0008496
1.0024062
1.0003385
1.0032018
1.0006029
0.9868826
0.98658307
1.0082429
1.0011654
1.0011137
1.0011859
1.0022077
1.0006929
1.0002946
1.0008258
1.0016306
1.0010624
1.0015306
1.0019229
1.0013227
1.001105
1.0020555
1.0013794
1.0010634
1.00091
1.003932
1.0000135
0.99722083
1.0038307
1.0039594
0.99596779
1.002626
1.0070255
0.99708885
0.99390027
1.0005025
0.99769764
0.99022928
0.99524687
1.0011971
1.0014357
1.0016807
1.0022734
1.0012627
1.0005306
1.0008217
1.0009364
1.0012533
1.001702
1.0020949
1.0008148
1.001365
1.0025884
1.0010176
1.0003413
1.0025296
1.0037577
0.99804875
0.99858549
1.0050603
1.0019708
0.99361673
1.0024216
1.0105369
0.99757002
0.98760295
0.99800882
1.0098487
1.0023624
0.99047467
1.0013014
1.0022498
1.0020701
1.0020055
1.0018498
1.0011644
1.0011075
1.0003907
1.0012384
1.0019371
1.0020378
1.0005509
1.0016287
1.0028133
1.0009154
0.99976487
1.00348
1.0032009
0.99679852
1.0002404
1.0055192
1.0003547
0.99291616
1.0008826
1.011163
1.0004869
0.98653862
0.99483197
1.0157956
1.0171423
0.9973171
1.0015251
1.0032739
1.0021429
1.0015442
1.0021084
1.0018271
1.0014151
1.0003758
1.0011249
1.0020368
1.0017887
1.00074
1.0017615
1.0023929
1.0010342
0.99947143
1.0035721
1.002117
0.99666602
1.0019904
1.0047646
0.99926739
0.9946408
0.99953436
1.0078835
1.0032452
0.99083965
0.99387226
1.0118518
1.0234821
1.0089486
1.0019873
1.0041282
1.0018012
1.0009143
1.0018951
1.0021711
1.001501
1.0008223
1.0011141
1.0019255
1.0014967
1.0012287
1.0018382
1.0016286
1.0012199
0.99960973
1.0029377
1.0007353
0.99769153
1.0036364
1.0029629
0.99824668
0.99873945
0.99993374
1.0017089
1.0032564
0.99847907
0.9964761
1.0025975
1.0149915
1.0144299
1.0022695
1.0042947
1.0012037
1.0004305
1.001458
1.001969
1.0013036
1.0014584
1.0013664
1.0015563
1.0012296
1.0017756
1.0020187
1.0009791
1.0014042
1.0004347
1.0020715
0.99948361
0.99922275
1.0047992
1.0008417
0.9968693
1.0036084
1.0027066
0.99596026
0.99920098
1.005607
1.0023472
0.99664303
0.99680701
1.0062775
1.002095
1.0037681
1.0007344
1.00055
1.0011428
1.0014178
1.0010397
1.0021179
1.0019444
1.0011623
1.0011631
1.002189
1.0022474
1.0004681
1.0015693
1.0016953
1.0014781
0.99874682
1.0008656
1.0054548
0.99885782
0.99528636
1.0070614
1.0067452
0.99326038
0.99339469
1.0082641
1.0099853
0.99716629
0.9842016
0.99066304
1.0015861
1.0027849
1.0006988
1.0012154
1.0011163
1.0008986
1.0009878
1.0024789
1.00243
1.001042
1.0014059
1.0023285
1.0023325
1.0001814
1.001615
1.0027493
1.001276
0.99865132
1.0023376
1.0054128
0.99770384
0.9944308
1.0079666
1.0098929
0.99375682
0.99007476
1.0055432
1.0152877
1.0020445
0.98389823
0.98060969
1.0014319
1.0017947
1.0011801
1.0019149
1.0013046
1.0006918
1.0011758
1.0023335
1.0023155
1.0011607
1.0016093
1.0022968
1.002143
1.0003883
1.0014751
1.0032104
1.0012456
0.99916028
1.0032378
1.0041991
0.99768908
0.99517613
1.0061924
1.0097535
0.99631139
0.99091988
1.0008015
1.013162
1.0078339
0.9919376
0.98338634
1.0015029
1.001469
1.0020359
1.0025254
1.0018188
1.001029
1.001678
1.0017483
1.0016937
1.0014645
1.0015605
1.0022015
1.0017278
1.0012386
1.0013253
1.0030812
1.0012242
1.0003279
1.0035948
1.0019082
0.99860302
0.99783164
1.0034435
1.0052016
0.99919346
0.99547325
0.99907937
1.003868
1.0077101
1.002827
0.99518346
1.001727
1.0019848
1.0028616
1.0028235
1.0022742
1.0016704
1.0022018
1.0011308
1.001091
1.0018966
1.0015271
1.0020347
1.0013078
1.0021483
1.0011733
1.0023485
1.001007
1.0015947
1.0035262
0.99934115
0.99955288
1.0020108
1.0016337
0.99811392
0.99983055
1.0024799
1.0010215
0.99507216
0.99914782
1.0075223
1.0091016
1.00178
1.0027131
1.0028438
1.0023479
1.0021914
1.0020718
1.0022122
1.0007897
1.000776
1.002115
1.0017795
1.0017725
1.0009728
1.0027106
1.0011982
1.0013622
1.0006296
1.0024993
1.003209
0.99714281
1.0000395
1.0063071
1.0017706
0.99262644
0.99796317
1.0091039
1.0056704
0.99315281
0.98859196
1.003899
1.0157447
1.0017412
1.0033765
1.0017455
1.0013353
1.0016158
1.0018539
1.0015337
1.0007482
1.0008309
1.001796
1.0022343
1.0014395
1.0007529
1.002967
1.0014879
1.0006741
1.0002636
1.002853
1.0028233
0.99600658
0.99981874
1.0088841
1.0033107
0.99066751
0.99544225
1.011494
1.0110744
0.99555282
0.98551588
0.99568983
1.0139095
1.0018068
1.0038556
1.000475
1.0006888
1.0009695
1.0012863
1.000543
1.0009813
1.0012021
1.0012986
1.0025206
1.0012907
1.0008047
1.0029235
1.0018736
1.000551
1.0001872
1.0026447
1.002309
0.99645988
0.99937434
1.0086151
1.0043377
0.99239474
0.99484852
1.0089386
1.0131022
0.99907273
0.98927203
0.99208915
1.0061758
1.0018879
1.0039739
1.0000885
1.0006852
1.0004602
1.000908
1.0001567
1.0014086
1.0016401
1.0011109
1.0023168
1.0013826
1.0011807
1.0023878
1.0020412
1.0008734
1.0005844
1.0020877
1.0014424
0.99846612
1.0000107
1.0051671
1.0040111
0.99594213
0.99729423
1.0043389
1.0074921
1.0023415
0.99541798
0.99491448
0.99867302
1.0017457
1.0033741
1.000542
1.0011241
1.0007092
1.0009271
1.0005463
1.0017782
1.0017532
1.0013068
1.0017942
1.0016134
1.0019299
1.0015376
1.0019647
1.0013924
1.0014986
1.0016135
1.0001432
1.0014007
1.0015856
1.0011306
1.0006968
1.0004334
1.0015108
1.0015486
0.99847404
1.0008543
1.0030505
1.0016745
0.9965385
1.0016118
1.0025559
1.0018445
1.0019441
1.0018841
1.0014659
1.0017295
1.0019832
1.0019486
1.0019412
1.0013388
1.002015
1.0029161
1.001101
1.00184
1.0021146
1.0027749
1.0016367
0.99898632
1.003928
1.0040046
0.99830601
0.99662371
1.0029571
1.007076
1.0018194
0.99173148
0.99548218
1.0080596
1.01067
1.0011984
1.001739
1.0024877
1.003338
1.003478
1.0033221
1.0023689
1.0033135
1.0022205
1.0025016
1.0027663
1.0012188
1.0024737
1.0039446
1.0012853
1.0017531
1.0026463
1.0041101
1.0022128
0.99830413
1.0048091
1.0067621
0.99804881
0.99421818
1.0022549
1.0114275
1.0046221
0.99060006
0.99029251
1.0070238
1.0169281
1.008134
0.99006468
0.98963755
0.99530848
1.005554
1.0143013
1.0182325
1.0141977
1.0029867
0.9944069
0.99451199
1.0011822
1.0068787
1.0068306
0.99716294
0.98320773
0.9785759
0.99027828
1.0141039
1.0307816
1.0280586
1.0054991
0.98044421
0.97257465
0.99479696
0.99757916
0.99892468
0.99868309
0.99560226
0.99076082
0.98809516
0.99228885
1.004795
1.0203022
1.028775
1.0234479
1.0054179
0.98592329
0.97742091
0.98290677
0.99829769
1.0124235
1.0164345
1.0047384
0.98965576
0.98529981
0.99536923
1.0243006
1.0181446
1.0059041
0.99139212
0.98049426
0.97664883
0.98134605
0.99300161
1.0056733
1.0150346
1.0144475
1.0039769
0.99370779
0.99446983
1.0068405
1.0203976
1.0233258
1.01181
0.98893082
0.96972831
0.96735342
0.98324986
1.0110655
1.0198341
1.0099031
1.0014775
0.99768645
1.0013526
1.0093591
1.0150148
1.0126551
1.0024494
0.98776703
0.97304741
0.96861246
0.97710538
0.99955145
1.0274822
1.0452333
1.0403865
1.0136842
0.98535023
0.97292084
0.97822495
0.99485683
1.0124616
0.97920751
0.97888222
0.98861285
1.0077655
1.0292902
1.0428011
1.0418331
1.0243146
1.0010969
0.98046777
0.9736077
0.97774183
0.98974415
1.002748
1.014703
1.0171615
1.0049202
0.99153064
0.99016622
1.0059578
1.0275727
1.0378004
1.0299976
0.97601942
0.98408152
0.99589311
1.0055515
1.013837
1.0166951
1.009276
0.99946762
0.99382519
0.99992226
1.017659
1.0347353
1.0392725
1.0240769
0.99626875
0.97286756
0.95707574
0.9580764
0.97796124
1.014301
1.0559022
1.0731457
1.052307
1.0303904
1.0267725
1.0133755
0.99577338
0.98105297
0.97032821
0.96235275
0.96328517
0.97963155
1.010647
1.0470542
1.0724638
1.0675601
1.0371504
1.0006478
0.97332937
0.96522567
0.96843478
0.9838622
1.0055857
1.0283921
1.0406115
1.0266608
1.0619413
1.0431306
1.0190337
0.99552642
0.98031464
0.97242025
0.97518977
0.98172782
0.99281148
1.0065875
1.0206048
1.0318495
1.0274018
1.0143871
1.0030885
1.0033083
1.0199274
1.0363642
1.0395885
1.0247572
0.99966013
0.97799279
0.96597724
1.011832
1.0051407
1.0032936
1.0060884
1.0138168
1.0299933
1.0451088
1.0477
1.0331927
1.0076439
0.98441803
0.9713525
0.96483693
0.96491858
0.97904744
1.0102744
1.0594441
1.1035608
1.1044395
1.064146
1.0070249
0.96412067
0.94465907
0.96315146
0.96174585
0.97105966
0.99694977
1.0393735
1.0867613
1.1130912
1.0988131
1.0568453
1.0111398
0.97873746
0.96323802
0.96022903
0.95954158
0.9707589
0.9976464
1.0406109
1.089074
1.1052802
1.0813875
1.0368656
0.99643261
0.97654895
0.96238241
0.97046318
0.98627019
1.0086166
1.034717
1.0639051
1.0821962
1.0754117
1.0548454
1.0275179
1.0043017
0.99842323
1.0073703
1.0165586
1.0200104
1.0144535
1.0120956
1.018575
1.0319056
1.0339473
1.0306449
1.0272079
1.0355224
1.0277778
1.0306385
1.0280265
1.0212752
1.0139926
1.0107756
1.0087979
1.0059477
1.0075434
1.0141087
1.0301028
1.0578926
1.0924683
1.1084166
1.0905441
1.0475548
1.0053206
0.98105837
0.97347507
0.97393838
0.98129103
1.0042486
1.0495054
1.1287956
1.1012
1.055241
1.0132595
0.98642927
0.97815695
0.97633785
0.97285055
0.97256489
0.98323337
1.0174906
1.0809612
1.1558169
1.1991183
1.1632343
1.0844578
1.0126872
0.97282847
0.95913917
0.96062647
0.96262211
0.98017739
1.0205448
1.1814375
1.1344186
1.0695348
1.0151287
0.98659003
0.97953463
0.98162484
0.98340881
0.98068003
0.98521674
1.0130586
1.073795
1.1556914
1.2185295
1.1998702
1.1222923
1.0410569
0.99136519
0.97600893
0.98068264
0.98171799
0.98982111
1.0108897
1.1666399
1.1252813
1.0740369
1.0343209
1.0149654
1.0134237
1.0184238
1.0219874
1.0182939
1.0154829
1.0295587
1.0676701
1.1242982
1.181797
1.1841101
1.1375635
1.0737909
1.0274119
1.0154932
1.0212059
1.0250089
1.0229578
1.0213442
1.1252868
1.1014894
1.0726336
1.052872
1.0494711
1.0602503
1.0728226
1.0792806
1.0698383
1.0563541
1.0530814
1.0693782
1.1012415
1.1377036
1.1483292
1.1296524
1.0944518
1.0640544
1.0584429
1.0681334
1.0780813
1.0668077
1.0462499
1.0943578
1.0819496
1.069778
1.0664598
1.0808852
1.1064385
1.1271902
1.1355209
1.1196905
1.0937129
1.0753973
1.076065
1.089156
1.111861
1.1243937
1.119473
1.1011996
1.0870785
1.0930958
1.1129299
1.125224
1.1053909
1.0718513
1.0841878
1.0761791
1.0696864
1.0789237
1.1059737
1.1449653
1.1732506
1.1820134
1.1602426
1.12373
1.0944283
1.0849091
1.0937333
1.1074764
1.1165668
1.1182391
1.1109663
1.1076986
1.1213184
1.1461658
1.1582497
1.1336636
1.0940928
1.0994989
1.0902012
1.0837155
1.0948314
1.1265631
1.1705031
1.1999983
1.2075813
1.1839899
1.1453978
1.1141559
1.1022738
1.1090197
1.1208881
1.1294405
1.133103
1.1277436
1.1262883
1.1415708
1.1664126
1.176651
1.1492315
1.1084974
1.1384098
1.1252642
1.111317
1.1128672
1.1385885
1.1779411
1.2053569
1.2134807
1.1921596
1.158659
1.1353817
1.1303925
1.1388565
1.1520086
1.1613147
1.1601668
1.1514474
1.1455646
1.1555848
1.1693774
1.1735443
1.1518101
1.1168343
1.2082163
1.1755695
1.1426589
1.1295751
1.1433855
1.1716287
1.1937337
1.2011785
1.187053
1.1672671
1.1586552
1.1671862
1.1873355
1.2088487
1.2143008
1.2000897
1.1757883
1.1565262
1.1533105
1.1544454
1.1544942
1.1414373
1.1228737
1.2988599
1.239039
1.1758468
1.1371213
1.1348315
1.1540876
1.1741896
1.1808496
1.1708718
1.1642377
1.1783717
1.2160719
1.2671224
1.2955236
1.2793726
1.232703
1.1833152
1.1478183
1.1303003
1.1266078
1.1291639
1.1312326
1.1383092
1.3738143
1.291273
1.1988535
1.1396139
1.1283986
1.145745
1.1605902
1.1616393
1.1562078
1.1669308
1.212371
1.2916579
1.3700334
1.3859218
1.3217045
1.2343932
1.1646771
1.1245288
1.1051321
1.1019413
1.107295
1.12867
1.1779953
1.3634185
1.2940902
1.2110186
1.1564254
1.1481004
1.1632721
1.175496
1.1727816
1.1761613
1.2060085
1.2761605
1.3713368
1.43569
1.4088052
1.3117151
1.2121042
1.1429648
1.1048513
1.0893442
1.0883196
1.1129798
1.1724347
1.2667963
1.2697123
1.24279
1.2036515
1.1873677
1.20142
1.2291968
1.2456904
1.2471868
1.2574063
1.2841324
1.3267513
1.3717909
1.3866274
1.3447274
1.2731971
1.2021408
1.1486229
1.118952
1.1127883
1.1288332
1.1750512
1.2508293
1.3368137
1.1834721
1.1749021
1.1744855
1.2089026
1.2786589
1.35792
1.3956009
1.3758828
1.3371143
1.3071798
1.2889913
1.2813172
1.2745882
1.2600551
1.2439921
1.2271195
1.2135138
1.2077769
1.2052772
1.2176774
1.2382429
1.2668497
1.2882964
1.177109
1.1646907
1.1699215
1.2329668
1.3446547
1.4581848
1.4945816
1.4331017
1.346782
1.2751816
1.2271712
1.2049849
1.197384
1.2126402
1.2529356
1.3069708
1.3438492
1.3372247
1.2919177
1.2442764
1.2087073
1.184986
1.1833415
1.2627607
1.2326007
1.2278941
1.2641413
1.3350575
1.4016891
1.4235215
1.3935078
1.339441
1.2809717
1.2357309
1.2160617
1.2161247
1.2454116
1.3062594
1.3730924
1.4030224
1.3602582
1.2771028
1.2030019
1.1548439
1.1345167
1.1394663
1.3560054
1.3033786
1.2637995
1.2629991
1.2852962
1.302982
1.3157988
1.3267635
1.340241
1.3486981
1.3418571
1.325081
1.3043716
1.2969797
1.2983293
1.3089932
1.3154312
1.2984784
1.2578955
1.209633
1.1766822
1.1697489
1.1809852
1.3098004
1.291688
1.2778632
1.2834855
1.2921828
1.2982809
1.3044287
1.3229443
1.3609076
1.4056113
1.4279888
1.39797
1.3380115
1.2802777
1.2383521
1.2204548
1.2287065
1.2547118
1.2873266
1.2977935
1.2751526
1.244045
1.2214672
1.2452453
1.2463491
1.2715344
1.3219842
1.3696211
1.3882016
1.3813291
1.3706326
1.3638209
1.3674433
1.3732592
1.364311
1.330824
1.2794036
1.2379038
1.2205651
1.2239247
1.2619313
1.3152765
1.3506106
1.3320169
1.2700687
1.2106836
1.2706994
1.2658224
1.2926574
1.3461242
1.4007235
1.432865
1.424192
1.3871917
1.3454961
1.3155085
1.304335
1.3135504
1.3304172
1.3351807
1.3161021
1.28646
1.2618264
1.2576723
1.2722168
1.295574
1.3035528
1.2816921
1.2391156
1.3231161
1.3137684
1.3238943
1.3421349
1.3637615
1.3855088
1.3980755
1.3926228
1.3683458
1.3389765
1.317935
1.3149098
1.331719
1.3550805
1.3573741
1.3243613
1.2748823
1.2366243
1.2228506
1.233693
1.2638518
1.2968787
1.308405
1.3231851
1.3226299
1.328455
1.339526
1.3506768
1.3631517
1.3790221
1.398456
1.4125326
1.4042008
1.3728404
1.3373575
1.3131561
1.3081252
1.3183447
1.3226909
1.3026885
1.2646264
1.2328594
1.2239305
1.2416351
1.2819084
1.3118934
1.368587
1.3606241
1.3546262
1.3668786
1.3836892
1.396023
1.3970284
1.3962184
1.4009293
1.4039532
1.3884048
1.3500553
1.3086324
1.2839292
1.2830769
1.3047458
1.3262061
1.3196259
1.2811543
1.2406657
1.2248173
1.2358845
1.2555016
1.4504544
1.4326915
1.4092579
1.3925693
1.3993105
1.4116762
1.4122901
1.398815
1.383582
1.3775305
1.3802096
1.3773829
1.3578841
1.3252278
1.2943552
1.2812208
1.291443
1.3123161
1.3207106
1.3026179
1.2664372
1.2370437
1.225209
1.4675143
1.4632319
1.4433485
1.4181895
1.3991777
1.4022672
1.4143082
1.4146608
1.4008188
1.3830662
1.3730344
1.3740698
1.3789105
1.372697
1.3491192
1.3161412
1.2896584
1.2807564
1.2858835
1.292761
1.2888463
1.27501
1.2600407
1.4476761
1.4602267
1.4599452
1.4440479
1.419837
1.4033053
1.4081786
1.4226404
1.4298748
1.4211793
1.4016155
1.382533
1.37219
1.3692369
1.364864
1.3489008
1.3227895
1.2966229
1.2799716
1.2745625
1.2756869
1.2766422
1.2740572
1.4355774
1.4481884
1.4622
1.4671761
1.4541515
1.4293309
1.4146346
1.4166482
1.4264012
1.4331136
1.4274552
1.4079609
1.3830534
1.3633312
1.3522884
1.3467047
1.33963
1.3271791
1.3120693
1.2981403
1.2870184
1.2784563
1.2701406
1.444204
1.4478378
1.4505798
1.4562631
1.458512
1.4485128
1.4320627
1.4197327
1.4159537
1.418635
1.4228239
1.4208141
1.4084207
1.3886982
1.3688166
1.3539095
1.3441336
1.3366416
1.3285533
1.3187999
1.3072956
1.2941534
1.2784842
1.4477627
1.4527208
1.4476935
1.4436158
1.4428068
1.4448109
1.4457602
1.4416531
1.43421
1.4268045
1.422004
1.4197046
1.4162046
1.4081621
1.3953106
1.3795177
1.362973
1.3471333
1.3326586
1.3199023
1.3089235
1.2988314
1.2866591
1.4305292
1.4469681
1.4510874
1.4492129
1.4456991
1.4432689
1.4450969
1.4488687
1.4488857
1.4435986
1.4342194
1.4240661
1.4146879
1.4062694
1.3976842
1.3881379
1.3769773
1.3634694
1.3480854
1.3326986
1.3192325
1.308565
1.2980369
1.41516
1.4343466
1.4471003
1.4549156
1.4566258
1.4529364
1.4470976
1.4420304
1.4398597
1.4376071
1.4348454
1.4299487
1.4227355
1.4136407
1.4032535
1.392514
1.3820752
1.371858
1.3611609
1.3497498
1.3383207
1.3278281
1.3171003
1.4136082
1.4308131
1.4378636
1.4439782
1.4481447
1.4494551
1.4476397
1.4433397
1.4382558
1.4342822
1.4313725
1.4290312
1.4262909
1.421284
1.4134855
1.4030026
1.3910927
1.3794237
1.3687753
1.3588806
1.3491358
1.3393798
1.3289529
1.4022354
1.4238513
1.4303415
1.4332727
1.4355225
1.4379942
1.4406787
1.4427046
1.4430594
1.4413825
1.4368138
1.4305565
1.4232601
1.4160182
1.4087994
1.4013637
1.3934435
1.3850558
1.3769032
1.3692241
1.3615141
1.3531342
1.3433187
1.3848626
1.4095023
1.4214971
1.4294305
1.4344056
1.4370505
1.4380112
1.4379503
1.4371069
1.4351869
1.4317432
1.4267553
1.4203461
1.413685
1.4075903
1.4021836
1.3967713
1.3907485
1.3839337
1.3768765
1.3701197
1.3637026
1.3569237
1.3778916
1.4010573
1.4122785
1.4207669
1.4271616
1.4310821
1.4325188
1.431658
1.4292922
1.4263444
1.4234188
1.4205924
1.4175874
1.4137303
1.4092585
1.4043337
1.3990757
1.3931372
1.3861271
1.3786034
1.3718022
1.3666129
1.3628249
1.3744896
1.3949796
1.4040327
1.4100459
1.4145652
1.4182729
1.4210346
1.4227164
1.4231273
1.4223177
1.4206517
1.4183625
1.415353
1.4112346
1.4058197
1.3994367
1.3929446
1.3871033
1.3820662
1.377524
1.3733752
1.3697157
1.3667322
1.3624366
1.3841411
1.3949766
1.4027997
1.4085054
1.4125929
1.4152699
1.4165927
1.416556
1.4151301
1.41249
1.4091228
1.4054646
1.4017268
1.3978101
1.3934901
1.3887693
1.3840286
1.3795377
1.374996
1.3697862
1.3635126
1.3567313
1.3593343
1.3777722
1.387776
1.3951769
1.4004616
1.4039023
1.4057943
1.4064493
1.4062361
1.4052214
1.4034533
1.4008629
1.3976103
1.3939593
1.3900867
1.3858391
1.3809053
1.374954
1.3679752
1.3598989
1.3505128
1.3396522
1.3280325
1.3531247
1.3704816
1.3793525
1.3860866
1.3911878
1.3947528
1.3968999
1.3977664
1.3975847
1.3965513
1.3947401
1.3921595
1.388421
1.3835363
1.377623
1.3708691
1.3630748
1.3539607
1.343479
1.331614
1.3182338
1.3031468
1.286998
1.3486153
1.3639019
1.3717589
1.3778238
1.3825617
1.3860879
1.3883101
1.3892919
1.3888912
1.3869237
1.3836657
1.3792083
1.3736574
1.3667493
1.3584902
1.3488761
1.3377256
1.3247409
1.3098715
1.2933638
1.2753991
1.2559744
1.235717
1.3436778
1.3577737
1.3649463
1.3705604
1.3748334
1.3775737
1.3787374
1.3787042
1.3773909
1.3744797
1.3696769
1.3630714
1.3547743
1.344756
1.3329278
1.319291
1.3039691
1.2868106
1.2678044
1.2475284
1.2263325
1.2043109
1.1820174
1.3399519
1.3521695
1.3585721
1.3635853
1.3672625
1.3691616
1.3690653
1.3672601
1.3638941
1.35882
1.3516036
1.3420704
1.3303852
1.3166053
1.3007198
1.2829619
1.263687
1.2432853
1.2219805
1.1999599
1.1773938
1.1545632
1.1321285
1.3371578
1.3475798
1.3526409
1.3562575
1.3585787
1.3592539
1.3578628
1.3543605
1.3487039
1.3407277
1.3299373
1.3164999
1.3008321
1.283327
1.2639964
1.2431982
1.2215041
1.1996439
1.1777537
1.1556075
1.1329933
1.1099882
1.0873944
1.3329149
1.342428
1.346647
1.3491526
1.3501555
1.3492261
1.3458838
1.3398029
1.3309993
1.3193175
1.3045417
1.2872993
1.2681716
1.2480297
1.2268458
1.2048246
1.1824261
1.1602468
1.1384767
1.1168166
1.094937
1.0728542
1.0513113
1.3282351
1.3372422
1.3407182
1.3419945
1.3412382
1.3381018
1.3321638
1.3230575
1.3107576
1.2953208
1.2771228
1.2570646
1.2360193
1.2147635
1.1930309
1.1707732
1.1482909
1.1262064
1.1049703
1.0844206
1.0641901
1.0441616
1.0251708
1.3234939
1.3318728
1.3343696
1.3343641
1.331589
1.3258521
1.3167551
1.3042673
1.2887626
1.2706805
1.2505365
1.2289022
1.2066381
1.1845718
1.1628369
1.1413163
1.1197977
1.0984985
1.0778469
1.0581459
1.0396436
1.0226082
1.0090205
1.3194333
1.3264194
1.3279292
1.3262848
1.3211308
1.3124199
1.300234
1.2849433
1.2670261
1.2469762
1.2255056
1.2032539
1.180856
1.1587593
1.1371918
1.1161904
1.0956858
1.0758434
1.0567847
1.0387249
1.0223068
1.0092227
1.0029359
1.3168635
1.3211456
1.3208009
1.3171879
1.3100315
1.2988771
1.2838656
1.2659095
1.245992
1.2249123
1.2032274
1.1811117
1.1589345
1.1371668
1.1161497
1.0960094
1.0766205
1.0579771
1.0401964
1.0237306
1.0101249
1.0028259
1.0013207
1.3139631
1.3162385
1.3138346
1.3078102
1.2981167
1.2847424
1.2682174
1.2490313
1.2278737
1.2057516
1.183588
1.1618531
1.1407006
1.1200389
1.0998523
1.0803418
1.0617125
1.0442338
1.0281071
1.014057
1.0047797
1.0017348
1.0011163
1.3101137
1.3108986
1.3066437
1.2986472
1.2868162
1.2715855
1.2537238
1.2339311
1.2127123
1.1904948
1.1680208
1.1461819
1.1256242
1.1063291
1.0878343
1.0697796
1.0520171
1.0350383
1.0200714
1.0088317
1.0033702
1.002118
1.0018231
1.3042914
1.304996
1.2996598
1.2901936
1.2770357
1.260578
1.2416013
1.2211307
1.1998236
1.1780975
1.1564052
1.1352648
1.115199
1.0964529
1.0789574
1.0622218
1.0459707
1.0307705
1.0179181
1.0087182
1.0038768
1.0024621
1.0021304
1.2976487
1.2987473
1.2935467
1.2835635
1.2691218
1.2510937
1.2310377
1.2102352
1.18938
1.1687608
1.1483368
1.1283243
1.1093304
1.0916958
1.0751581
1.0591178
1.0435632
1.0295025
1.0183299
1.0110745
1.0072101
1.0049967
1.0033975
1.2937457
1.2931901
1.286661
1.2761599
1.2616752
1.2437614
1.2235719
1.2025577
1.1820878
1.162735
1.1442023
1.1260012
1.1080611
1.0908281
1.0745909
1.059188
1.0446877
1.0319325
1.0222831
1.0162037
1.0126298
1.0100435
1.0076048
1.2909347
1.2892013
1.2815553
1.270109
1.2556598
1.2387965
1.2201789
1.2007334
1.1812859
1.1623481
1.1440473
1.1262978
1.1090371
1.0924764
1.0769799
1.0627405
1.04988
1.0389002
1.0304859
1.0246698
1.0206756
1.0176091
1.0148345
1.2883021
1.286484
1.2792449
1.2684944
1.2547427
1.2385077
1.2207202
1.2021961
1.1834761
1.1649197
1.1468251
1.1293841
1.1128194
1.097416
1.0833549
1.0707012
1.0594801
1.0497866
1.0419269
1.0360406
1.0316953
1.0282794
1.0252755
1.2833015
1.2828765
1.2781892
1.269439
1.256907
1.2417405
1.2248367
1.2069921
1.1888683
1.1709367
1.1535649
1.1369634
1.1212895
1.1067129
1.0934011
1.0815475
1.0712576
1.0624932
1.0552153
1.0494512
1.0451134
1.0418928
1.0392515
1.2733227
1.275247
1.2758454
1.2713442
1.2624493
1.249267
1.2334713
1.2163002
1.1987116
1.1811974
1.1642713
1.1482873
1.1333896
1.1195962
1.1068581
1.0952168
1.0848783
1.0760696
1.0689335
1.0634876
1.0595768
1.0569181
1.0549922
1.2724548
1.2702136
1.2701598
1.2696012
1.2655593
1.2575141
1.2451886
1.2298928
1.2131284
1.1959966
1.1792395
1.1633339
1.1484847
1.1347416
1.1221186
1.1106163
1.1002749
1.0912898
1.0838973
1.078238
1.0742746
1.0717449
1.0701845
1.285945
1.2706769
1.2671643
1.2662306
1.2647407
1.2610057
1.2539492
1.2432174
1.2294558
1.2138698
1.1976941
1.181839
1.1667809
1.1527154
1.1397313
1.1279355
1.1173833
1.108167
1.1003495
1.0940414
1.0892631
1.0858971
1.0837034
1.2909076
1.2759243
1.269253
1.2664541
1.2646132
1.2622223
1.2584698
1.2523918
1.2434963
1.2319931
1.2184672
1.2037553
1.1887587
1.174231
1.1606311
1.148152
1.1368622
1.1268351
1.1181649
1.1109266
1.1050874
1.1005251
1.0969725
1.2888317
1.2796633
1.2732481
1.2689334
1.2659718
1.2637571
1.2615893
1.2585819
1.2538744
1.2468556
1.237466
1.2260285
1.2130938
1.1993149
1.1854821
1.1722653
1.1600323
1.1488963
1.1389212
1.1302132
1.1228228
1.1167082
1.1115194
1.2817432
1.2781372
1.2727251
1.2690124
1.2662957
1.2642489
1.2626126
1.2610534
1.2590806
1.2559602
1.2510816
1.2442317
1.235366
1.2247249
1.2127835
1.2002212
1.1876403
1.1755152
1.1641223
1.1537069
1.1444188
1.1362991
1.1290462
1.2696028
1.2684506
1.2640369
1.2620062
1.2612373
1.2609121
1.2605901
1.2600038
1.2590475
1.2577442
1.2561398
1.2538174
1.2500747
1.2444305
1.2368034
1.2274184
1.2167892
1.2054221
1.1938176
1.1824013
1.1715793
1.1614876
1.1516736
1.2496788
1.2470446
1.2424487
1.2419261
1.2437172
1.2464565
1.2492555
1.2515885
1.2533316
1.2543323
1.2546551
1.2541926
1.2533106
1.2517628
1.2493071
1.2454612
1.2399138
1.2326045
1.223737
1.21377
1.2032605
1.1925193
1.1807062
1.2293106
1.2188654
1.2126058
1.2116371
1.2139285
1.2181251
1.2233369
1.2289034
1.2343408
1.2392487
1.2433187
1.2464355
1.2484549
1.2494762
1.2494093
1.2487369
1.2474978
1.24548
1.2424058
1.237768
1.2315161
1.223683
1.2133875
1.2087291
1.1906636
1.1813641
1.1777723
1.1778033
1.180463
1.1850166
1.1909737
1.1978758
1.2052713
1.2127238
1.2199089
1.2265877
1.2324948
1.2373636
1.2407934
1.2428327
1.2436899
1.2434238
1.2427331
1.2413294
1.2390862
1.2350877
1.1881161
1.1644149
1.1519548
1.1450451
1.1415817
1.1405904
1.1415818
1.1442595
1.14868
1.1546873
1.1620972
1.1704752
1.1794263
1.1886438
1.1979323
1.2070204
1.2153523
1.2224641
1.2281469
1.2322559
1.2350375
1.2366624
1.2386912
1.1683136
1.1400915
1.1256731
1.116372
1.1098865
1.1053213
1.10242
1.1010208
1.1011101
1.1026924
1.1057748
1.1105468
1.1169802
1.1248059
1.1337646
1.1437128
1.1545572
1.166097
1.1777108
1.1887976
1.1989774
1.2083993
1.2209921
1.1509469
1.1187493
1.1048927
1.0951518
1.0872624
1.0807433
1.0753145
1.070954
1.0677099
1.0654236
1.0639848
1.0638708
1.0650465
1.0677349
1.0717649
1.0770727
1.0837288
1.0920308
1.1019318
1.1132249
1.1255926
1.1388094
1.1550729
1.1395792
1.1090755
1.097152
1.0874772
1.0783653
1.0698048
1.0625727
1.0563774
1.0509845
1.0461667
1.0419701
1.0388808
1.0368296
1.0357524
1.0352844
1.035586
1.0367804
1.03908
1.0425537
1.0472484
1.0533538
1.061141
1.0723146
1.1342375
1.1095525
1.0975691
1.087883
1.0783609
1.0689393
1.0602704
1.0523833
1.0450335
1.038036
1.032253
1.0278463
1.0246011
1.0224909
1.0205087
1.0184865
1.0170149
1.0160953
1.0159503
1.0162375
1.0166949
1.0179945
1.0217356
1.1298876
1.1104647
1.0992044
1.0890746
1.0787194
1.0681743
1.0569642
1.0469915
1.0386603
1.031516
1.0255597
1.0205607
1.0168666
1.014535
1.0126556
1.0105854
1.0088582
1.0074044
1.0065739
1.0058053
1.0049612
1.0045727
1.0051016
1.1256616
1.1107934
1.0992214
1.0871773
1.0737825
1.0604312
1.048249
1.0379437
1.0293293
1.0220646
1.0165384
1.0127
1.0100181
1.0081749
1.0071029
1.0057666
1.0039364
1.002555
1.0022307
1.0030308
1.002435
1.0010366
1.0002687
1.1205338
1.1064043
1.0923582
1.0777521
1.0618934
1.0462685
1.0334747
1.0241444
1.0177074
1.0128161
1.0087623
1.0060376
1.0048504
1.0038925
1.0024329
1.0013699
1.001494
1.0020508
1.0012795
1.0000936
1.0002007
1.0013747
1.001449
1.1129079
1.0991245
1.0805683
1.0621886
1.0462325
1.0331122
1.0220753
1.0135497
1.0085263
1.0064121
1.0050033
1.0028245
1.0006587
1.000215
1.0011842
1.001554
1.000366
0.99936819
1.000076
1.0010969
1.00071
0.99990586
0.9998629
1.098598
1.0853806
1.0659348
1.0460685
1.0298023
1.0191986
1.0130552
1.0088675
1.0047895
1.0015908
1.0005749
1.0011274
1.0011383
0.99998602
0.9990957
0.99964736
1.0004361
1.0000786
0.99941505
0.99981914
1.000443
0.9998067
0.99901374
1.0814416
1.0618367
1.042259
1.0279564
1.0180426
1.0106329
1.0057897
1.0036058
1.0025641
1.0009878
0.99919676
0.99908737
1.0003802
1.0007922
0.99918318
0.9977945
0.99886117
1.0007545
1.0004277
0.99843992
0.99806533
0.99993051
1.0012522
1.0594325
1.0399133
1.0233568
1.0137911
1.0095179
1.0071964
1.0040509
1.0006543
0.99922976
1.0001335
1.0008759
0.99967273
0.99800237
0.99835788
0.99989076
0.99986179
0.9982164
0.9976175
0.9989732
1.0001462
0.99941647
0.99802872
0.99789746
1.0381565
1.0252401
1.0164399
1.0091123
1.0039026
1.0018778
1.0020274
1.0019903
1.000391
0.9984914
0.9980956
0.99901964
0.99941972
0.9987495
0.99828594
0.99858741
0.99854063
0.99797685
0.99822191
0.99925139
0.99925292
0.99771653
0.99667278
1.0268376
1.0162299
1.0107247
1.0071199
1.0037317
1.0007877
0.99951489
0.99992305
1.0002995
0.99931988
0.9978523
0.99777155
0.9989707
0.99946984
0.99837831
0.99743812
0.99829436
0.99962081
0.99914975
0.99760124
0.99742242
0.99878209
0.99943992
1.0205352
1.0125506
1.0063462
1.0035222
1.0028261
1.0017838
0.99956145
0.9977399
0.99807707
0.99971158
1.0003748
0.99918608
0.99795127
0.99843359
1.0000285
1.0007226
0.99981665
0.99880358
0.99892212
0.9995161
0.99934995
0.99870808
0.99828891
1.0147621
1.0102496
1.0061306
1.0025235
1.0001637
0.99958083
1.0000688
1.000356
1.0001473
1.0002767
1.0012162
1.0020347
1.0020372
1.0016631
1.0019132
1.0026958
1.002835
1.0019496
1.0010354
1.0009091
1.0010341
1.0004605
0.99939088
1.0129658
1.0069829
1.0033253
1.0020065
1.0015355
1.0015118
1.0023494
1.0037336
1.0046303
1.0046698
1.0046966
1.0056304
1.0069211
1.0072107
1.0063088
1.005491
1.0057712
1.0062978
1.0056341
1.0039643
1.0028337
1.0027366
1.0024397
1.0108598
1.0051852
1.0029116
1.0035854
1.0051486
1.0064173
1.0070871
1.0076736
1.0087416
1.0100423