/*--------------------------------*- C++ -*----------------------------------*\
| =========                 |                                                 |
| \\      /  F ield         | OpenFOAM: The Open Source CFD Toolbox           |
|  \\    /   O peration     | Version:  2406                                  |
|   \\  /    A nd           | Website:  www.openfoam.com                      |
|    \\/     M anipulation  |                                                 |
\*---------------------------------------------------------------------------*/
FoamFile
{
    version     2.0;
    format      ascii;
    arch        "LSB;label=32;scalar=64";
    class       volScalarField;
    location    "145";
    object      k_0;
}
// * * * * * * * * * * * * * * * * * * * * * * * * * * * * * * * * * * * * * //

dimensions      [0 2 -2 0 0 0 0];

internalField   nonuniform List<scalar> 
20580
(
3.1557356e-06
2.3931641e-06
1.8844508e-06
1.5476252e-06
1.3242626e-06
1.1629262e-06
1.0456948e-06
9.5459855e-07
8.7875991e-07
8.1335795e-07
7.5998006e-07
7.1387551e-07
6.7672256e-07
6.4651792e-07
6.1918062e-07
5.9699433e-07
5.7819461e-07
5.6400397e-07
5.5127056e-07
5.4370711e-07
5.3689686e-07
5.2468795e-07
5.1285454e-07
5.1338515e-07
5.1511542e-07
5.2302566e-07
5.3275053e-07
5.4413122e-07
5.6705728e-07
6.1803893e-07
7.1212392e-07
3.165904e-06
2.4238472e-06
1.923841e-06
1.5900158e-06
1.3592715e-06
1.1871445e-06
1.059522e-06
9.6303184e-07
8.8544351e-07
8.1831592e-07
7.6538864e-07
7.1970415e-07
6.8108395e-07
6.5145533e-07
6.2216172e-07
6.0016655e-07
5.8006665e-07
5.653828e-07
5.541467e-07
5.4746652e-07
5.4219185e-07
5.365268e-07
5.2178596e-07
5.2074584e-07
5.2358256e-07
5.3325051e-07
5.5429319e-07
5.666968e-07
5.7857228e-07
6.1256536e-07
6.8190214e-07
3.1640522e-06
2.4242015e-06
1.9258989e-06
1.6092137e-06
1.3898884e-06
1.2211632e-06
1.0865139e-06
9.7696982e-07
8.9467096e-07
8.2522906e-07
7.7106507e-07
7.2503107e-07
6.8459076e-07
6.5592948e-07
6.2446767e-07
6.0412024e-07
5.8454837e-07
5.6744616e-07
5.5832651e-07
5.5070791e-07
5.4513239e-07
5.4193933e-07
5.3363179e-07
5.2626659e-07
5.2717848e-07
5.3492774e-07
5.542157e-07
5.6954961e-07
5.8435771e-07
6.0833825e-07
6.7445855e-07
3.1630436e-06
2.4104182e-06
1.9148025e-06
1.6061426e-06
1.3917462e-06
1.2336385e-06
1.1080289e-06
1.001873e-06
9.1568695e-07
8.3936818e-07
7.8031667e-07
7.3118261e-07
6.8926997e-07
6.5865811e-07
6.2784334e-07
6.0595265e-07
5.8781821e-07
5.7110779e-07
5.6348289e-07
5.5682159e-07
5.5171122e-07
5.5002137e-07
5.4698476e-07
5.386525e-07
5.3824724e-07
5.4335923e-07
5.5833835e-07
5.7272344e-07
5.8371036e-07
5.9756384e-07
6.4221828e-07
3.1657173e-06
2.4105821e-06
1.8975991e-06
1.587601e-06
1.3821674e-06
1.2318319e-06
1.1128292e-06
1.017808e-06
9.3711043e-07
8.6250508e-07
7.9961369e-07
7.4457584e-07
6.983588e-07
6.6375224e-07
6.3231022e-07
6.0810365e-07
5.8907528e-07
5.7230576e-07
5.6529965e-07
5.5804446e-07
5.5491418e-07
5.5793254e-07
5.5815472e-07
5.5796395e-07
5.6167758e-07
5.680209e-07
5.8490208e-07
5.975001e-07
6.0337024e-07
6.1107843e-07
6.3299801e-07
3.1739542e-06
2.4283513e-06
1.899149e-06
1.5822432e-06
1.3665912e-06
1.2230365e-06
1.108917e-06
1.0162744e-06
9.4044652e-07
8.7451647e-07
8.157833e-07
7.6544663e-07
7.1778134e-07
6.7641338e-07
6.4161604e-07
6.1317215e-07
5.9159045e-07
5.7384282e-07
5.6568663e-07
5.5623348e-07
5.5445551e-07
5.5916535e-07
5.6066401e-07
5.6247835e-07
5.7178554e-07
5.8459323e-07
6.0153007e-07
6.4235202e-07
6.674843e-07
6.9058447e-07
6.824161e-07
3.1979697e-06
2.4678903e-06
1.9105097e-06
1.5847203e-06
1.3631726e-06
1.2090088e-06
1.093605e-06
1.0033588e-06
9.3456544e-07
8.73462e-07
8.2137172e-07
7.7509489e-07
7.3301017e-07
6.9248668e-07
6.5576571e-07
6.2381464e-07
5.9848367e-07
5.7819867e-07
5.6692953e-07
5.55585e-07
5.5126438e-07
5.5551772e-07
5.5662564e-07
5.5760656e-07
5.677243e-07
5.8193051e-07
5.9585415e-07
6.368405e-07
6.7245854e-07
7.326555e-07
7.5442032e-07
3.2790033e-06
2.6120976e-06
1.9713281e-06
1.6044376e-06
1.3687634e-06
1.2040345e-06
1.0830065e-06
9.9439231e-07
9.2378099e-07
8.6855678e-07
8.1885649e-07
7.7955074e-07
7.4274915e-07
7.1036979e-07
6.8228637e-07
6.4778421e-07
6.1785828e-07
5.9311066e-07
5.7499923e-07
5.5944715e-07
5.5226004e-07
5.5183215e-07
5.5034979e-07
5.4893718e-07
5.5509482e-07
5.6544356e-07
5.7404101e-07
6.0228239e-07
6.4219597e-07
7.1539477e-07
7.6616095e-07
3.3721586e-06
2.9198277e-06
2.2160721e-06
1.7211465e-06
1.4218023e-06
1.2249094e-06
1.0909363e-06
9.9760051e-07
9.2102777e-07
8.6449765e-07
8.162007e-07
7.8312695e-07
7.5596834e-07
7.349938e-07
7.1575648e-07
6.9497004e-07
6.7117475e-07
6.4570528e-07
6.1551557e-07
5.8720929e-07
5.6930375e-07
5.5914728e-07
5.5589496e-07
5.5302578e-07
5.5572507e-07
5.6310556e-07
5.7027055e-07
5.8234653e-07
6.12026e-07
6.536336e-07
7.2328487e-07
3.2219113e-06
2.8400573e-06
2.3434048e-06
2.0040899e-06
1.6436408e-06
1.3454325e-06
1.1533987e-06
1.0274601e-06
9.3291592e-07
8.6765797e-07
8.1752918e-07
7.8455839e-07
7.5968856e-07
7.4191625e-07
7.2839719e-07
7.1832464e-07
7.0567022e-07
6.9680057e-07
6.8279693e-07
6.6471482e-07
6.4299681e-07
6.1735151e-07
5.9288312e-07
5.8045947e-07
5.7308238e-07
5.7585379e-07
5.8287079e-07
5.9409952e-07
6.2499973e-07
6.5617185e-07
7.1859543e-07
3.0613254e-06
2.4976156e-06
2.24021e-06
2.0178437e-06
1.8267536e-06
1.6464264e-06
1.4076574e-06
1.1789818e-06
1.0238867e-06
9.219837e-07
8.5225067e-07
8.0676605e-07
7.7398528e-07
7.5192085e-07
7.335757e-07
7.2079447e-07
7.0812091e-07
7.0184907e-07
6.9219998e-07
6.8775241e-07
6.8651791e-07
6.7829595e-07
6.7157002e-07
6.6454435e-07
6.4943546e-07
6.3124443e-07
6.3064374e-07
6.3624224e-07
6.6080512e-07
6.8530341e-07
7.2606946e-07
3.1962394e-06
2.4947891e-06
2.0673612e-06
1.834287e-06
1.7380941e-06
1.6476272e-06
1.5661479e-06
1.4950328e-06
1.3771507e-06
1.2370093e-06
1.088495e-06
9.8337857e-07
9.1028687e-07
8.6006629e-07
8.175858e-07
7.82733e-07
7.5298112e-07
7.3052824e-07
7.1199835e-07
7.0291746e-07
6.996068e-07
6.9217761e-07
6.9161271e-07
6.9850952e-07
6.9707229e-07
6.8832234e-07
6.901223e-07
7.0093747e-07
7.1653282e-07
7.4793875e-07
7.7063339e-07
3.3399266e-06
2.8559377e-06
2.2003808e-06
1.8463216e-06
1.5920453e-06
1.4645205e-06
1.4443252e-06
1.4446804e-06
1.4493705e-06
1.4593242e-06
1.4693204e-06
1.4803397e-06
1.4742813e-06
1.4451106e-06
1.3935253e-06
1.2975269e-06
1.2025917e-06
1.0785679e-06
9.6908126e-07
8.8689949e-07
8.2848369e-07
7.782219e-07
7.5000196e-07
7.4746439e-07
7.3917647e-07
7.2354716e-07
7.1711326e-07
7.2859288e-07
7.4011981e-07
7.6093954e-07
7.7244637e-07
3.2650619e-06
2.8169196e-06
2.2787217e-06
1.924401e-06
1.6364306e-06
1.4534795e-06
1.2913841e-06
1.2466617e-06
1.2557053e-06
1.2919946e-06
1.3579111e-06
1.4575916e-06
1.5800323e-06
1.7001215e-06
1.821436e-06
1.9123419e-06
1.9376623e-06
1.9267055e-06
1.8751144e-06
1.7592217e-06
1.6334116e-06
1.4422281e-06
1.2809166e-06
1.1228683e-06
1.005829e-06
9.1099619e-07
8.487619e-07
8.2334297e-07
8.2266725e-07
8.2625462e-07
8.0844551e-07
3.1833251e-06
2.5417063e-06
2.1033856e-06
1.8557179e-06
1.6331962e-06
1.4625392e-06
1.3031072e-06
1.2148193e-06
1.1412104e-06
1.1116177e-06
1.1128259e-06
1.1440515e-06
1.2272658e-06
1.3511796e-06
1.4952969e-06
1.6570682e-06
1.7698468e-06
1.8553147e-06
1.9085843e-06
1.9455907e-06
1.9636029e-06
1.9571998e-06
1.9337294e-06
1.9115618e-06
1.8500341e-06
1.7461357e-06
1.5764815e-06
1.4695494e-06
1.3314646e-06
1.2683935e-06
1.1276524e-06
3.1851523e-06
2.4969873e-06
1.9688406e-06
1.6778606e-06
1.5042894e-06
1.3742724e-06
1.2653984e-06
1.1770248e-06
1.092157e-06
1.0402741e-06
1.0010083e-06
9.8362393e-07
9.8569519e-07
1.000845e-06
1.0321097e-06
1.086607e-06
1.1469944e-06
1.2352625e-06
1.3264473e-06
1.4474487e-06
1.5303016e-06
1.6598597e-06
1.7467556e-06
1.8278534e-06
1.8784503e-06
1.9309561e-06
1.9506076e-06
1.9604302e-06
1.9709369e-06
2.0024944e-06
1.9573621e-06
3.1598743e-06
2.4605895e-06
1.9696752e-06
1.6515999e-06
1.4374244e-06
1.2897393e-06
1.1789224e-06
1.0981557e-06
1.0200906e-06
9.6917306e-07
9.2598584e-07
8.9959858e-07
8.7819575e-07
8.6829944e-07
8.6592959e-07
8.6762046e-07
8.7390081e-07
8.8498951e-07
9.0693758e-07
9.3218545e-07
9.6907018e-07
1.0175091e-06
1.0985821e-06
1.1900399e-06
1.3233618e-06
1.4688528e-06
1.6147083e-06
1.7179004e-06
1.800974e-06
1.8803844e-06
1.9634218e-06
3.1664513e-06
2.448084e-06
1.9568476e-06
1.639465e-06
1.4215225e-06
1.260831e-06
1.1417773e-06
1.0519132e-06
9.7667383e-07
9.2163669e-07
8.7800158e-07
8.5022972e-07
8.2509899e-07
8.0863324e-07
7.9767474e-07
7.8867875e-07
7.8136937e-07
7.7372695e-07
7.7225084e-07
7.7234663e-07
7.7340497e-07
7.8579947e-07
8.0765444e-07
8.262504e-07
8.6313168e-07
9.1033966e-07
9.8973902e-07
1.0464795e-06
1.1530125e-06
1.2208177e-06
1.4235845e-06
3.1733071e-06
2.4724041e-06
1.9695612e-06
1.6604612e-06
1.4428621e-06
1.2731862e-06
1.150283e-06
1.0519537e-06
9.7744307e-07
9.1631013e-07
8.6792482e-07
8.3488311e-07
8.092948e-07
7.8940659e-07
7.7559129e-07
7.6346904e-07
7.5304168e-07
7.4159854e-07
7.3553547e-07
7.2794042e-07
7.1963755e-07
7.2014238e-07
7.2679565e-07
7.2873041e-07
7.3253557e-07
7.4777942e-07
7.8037881e-07
8.0278242e-07
8.3642973e-07
8.5705526e-07
9.2451804e-07
3.1829186e-06
2.5221036e-06
2.0324415e-06
1.7242059e-06
1.5096199e-06
1.3334295e-06
1.2136234e-06
1.1103179e-06
1.0402635e-06
9.6652643e-07
9.1306577e-07
8.8080669e-07
8.5541302e-07
8.3432219e-07
8.1626014e-07
7.999629e-07
7.8478929e-07
7.7059171e-07
7.6237632e-07
7.563591e-07
7.5064153e-07
7.529959e-07
7.6079619e-07
7.6630667e-07
7.7099494e-07
7.8808313e-07
8.1161681e-07
8.3983406e-07
8.5517185e-07
8.7522128e-07
8.9677198e-07
3.3138201e-06
2.9271314e-06
2.5124289e-06
2.327342e-06
2.1118197e-06
1.8823614e-06
1.742403e-06
1.6335475e-06
1.5567002e-06
1.4282699e-06
1.4029713e-06
1.3976787e-06
1.3890243e-06
1.3656326e-06
1.3335994e-06
1.3057514e-06
1.280502e-06
1.2631446e-06
1.264662e-06
1.281722e-06
1.28694e-06
1.3092177e-06
1.336553e-06
1.3449556e-06
1.338708e-06
1.3495447e-06
1.3737302e-06
1.3948076e-06
1.385e-06
1.3656451e-06
1.294405e-06
3.563069e-06
4.646244e-06
8.4147353e-06
8.3375904e-06
8.1378852e-06
7.0812214e-06
6.5884583e-06
6.6063313e-06
6.193858e-06
5.3879321e-06
5.9725745e-06
5.827034e-06
5.9870254e-06
5.6001141e-06
5.4365368e-06
5.2478502e-06
5.1815673e-06
5.1201285e-06
5.273551e-06
5.4175256e-06
5.4674933e-06
5.5037009e-06
5.5392252e-06
5.4960447e-06
5.3767988e-06
5.2671557e-06
5.1930626e-06
5.1290898e-06
4.9635591e-06
4.8079527e-06
4.46878e-06
1.471381e-05
3.4266402e-05
6.172402e-05
4.8986026e-05
6.4017019e-05
4.522549e-05
5.1573887e-05
3.7651722e-05
4.5295666e-05
3.5118166e-05
2.9615045e-05
3.1106347e-05
2.8237266e-05
3.0377613e-05
2.7449642e-05
2.7691532e-05
2.5996234e-05
2.4936373e-05
2.3621057e-05
2.2741533e-05
2.1624732e-05
2.1159447e-05
1.9947578e-05
1.9369539e-05
1.8443629e-05
1.7871254e-05
1.7005079e-05
1.5878279e-05
1.5197144e-05
1.4258058e-05
1.3628517e-05
1.2531095e-05
4.6573373e-06
1.4109007e-06
9.3524324e-07
9.6379127e-07
1.4032028e-06
1.9895436e-06
2.0344981e-06
1.3009484e-06
8.9990996e-07
8.2605636e-07
8.3430207e-07
8.0113603e-07
7.790742e-07
7.6618611e-07
8.1409329e-07
8.2434857e-07
7.684066e-07
7.1282971e-07
7.1501765e-07
7.2979936e-07
7.4695344e-07
7.4946375e-07
1.131796e-05
5.1380076e-06
1.644106e-06
1.0073423e-06
9.8834239e-07
1.2878594e-06
1.9698033e-06
2.1886299e-06
1.5880231e-06
1.0352029e-06
9.0276776e-07
9.3365728e-07
9.1487266e-07
8.6681217e-07
8.2592977e-07
8.5392824e-07
9.1622469e-07
9.0225678e-07
8.2329186e-07
7.8888949e-07
7.9926706e-07
8.1292541e-07
7.962684e-07
1.0161141e-05
5.2260125e-06
1.842496e-06
1.0974408e-06
1.0359328e-06
1.2677707e-06
1.9282905e-06
2.3220941e-06
2.0247516e-06
1.2590612e-06
9.9422967e-07
1.0046009e-06
9.9935306e-07
9.6638075e-07
9.1988344e-07
9.3809568e-07
1.0372626e-06
1.0339789e-06
9.5922809e-07
8.7389379e-07
8.7726063e-07
8.9673287e-07
9.0686583e-07
8.9048854e-06
5.2487702e-06
1.9922587e-06
1.2156009e-06
1.1386254e-06
1.3099535e-06
1.9807415e-06
2.5070944e-06
2.3485113e-06
1.6282615e-06
1.1210253e-06
1.1114456e-06
1.141506e-06
1.1389369e-06
1.1076319e-06
1.0677456e-06
1.1482956e-06
1.1778442e-06
1.1250378e-06
9.8790341e-07
9.5489212e-07
9.7482509e-07
9.8504986e-07
7.8746513e-06
5.3297821e-06
2.2159313e-06
1.3707112e-06
1.2792005e-06
1.4172816e-06
2.0831441e-06
2.8035846e-06
2.6972696e-06
1.9935532e-06
1.3461969e-06
1.2356684e-06
1.29045e-06
1.2862139e-06
1.2927754e-06
1.2371429e-06
1.254019e-06
1.3158632e-06
1.2862134e-06
1.203204e-06
1.0957371e-06
1.1172707e-06
1.1292951e-06
7.1758764e-06
5.4139168e-06
2.4758169e-06
1.5478102e-06
1.429308e-06
1.5418381e-06
2.1371971e-06
3.0875036e-06
3.0363026e-06
2.4181414e-06
1.6460028e-06
1.4022247e-06
1.4674427e-06
1.4548079e-06
1.40602e-06
1.3931414e-06
1.3532268e-06
1.4865548e-06
1.473774e-06
1.426389e-06
1.2895999e-06
1.2605242e-06
1.2587887e-06
7.4011464e-06
5.4984754e-06
2.6570376e-06
1.7131083e-06
1.5789925e-06
1.6728171e-06
2.1754855e-06
3.4486026e-06
3.4371357e-06
3.0836022e-06
2.1567422e-06
1.671805e-06
1.7250264e-06
1.7520524e-06
1.6629669e-06
1.6452131e-06
1.5840857e-06
1.6373701e-06
1.750728e-06
1.727965e-06
1.6065043e-06
1.4579263e-06
1.4589344e-06
7.8857474e-06
5.5410488e-06
2.8864496e-06
2.0191493e-06
1.8810125e-06
1.9373943e-06
2.3094399e-06
3.8765997e-06
4.1505086e-06
3.9369942e-06
3.1004811e-06
2.1705411e-06
2.068074e-06
2.1057781e-06
1.9832441e-06
1.9576394e-06
1.8968588e-06
1.8820527e-06
2.0332393e-06
2.0291742e-06
1.9256029e-06
1.749276e-06
1.65241e-06
8.554939e-06
5.6238912e-06
3.2085133e-06
2.4620121e-06
2.3828933e-06
2.4420323e-06
2.7414183e-06
4.6900481e-06
5.1753952e-06
4.7740309e-06
3.8484849e-06
2.7045512e-06
2.315096e-06
2.3837316e-06
2.3069019e-06
2.1975247e-06
2.2106855e-06
2.1927166e-06
2.3511425e-06
2.3625915e-06
2.195696e-06
1.9689344e-06
1.7914396e-06
9.7919303e-06
5.8382172e-06
3.5281083e-06
2.882047e-06
2.8967151e-06
2.9883588e-06
3.256246e-06
5.4891805e-06
6.0325072e-06
5.488955e-06
4.4328396e-06
3.1484273e-06
2.5829034e-06
2.6567875e-06
2.6467261e-06
2.510316e-06
2.5275331e-06
2.5173749e-06
2.6011201e-06
2.741393e-06
2.6216559e-06
2.3388737e-06
2.1147385e-06
1.184169e-05
6.2465962e-06
3.8873406e-06
3.3549003e-06
3.3964685e-06
3.483498e-06
3.6279233e-06
6.070284e-06
7.0186425e-06
6.5609307e-06
5.4049547e-06
3.9132265e-06
3.1323744e-06
3.3032064e-06
3.3716646e-06
3.211744e-06
3.1599368e-06
3.0541339e-06
3.0366661e-06
3.2434799e-06
3.2251486e-06
2.9309127e-06
2.5414005e-06
1.4654632e-05
6.8460223e-06
4.4965507e-06
4.186986e-06
4.2891583e-06
4.2937298e-06
4.225085e-06
7.1286043e-06
9.1747818e-06
8.9180734e-06
7.6091377e-06
5.6852073e-06
4.4284865e-06
4.3106118e-06
4.4120578e-06
4.2224914e-06
3.9000883e-06
3.8191489e-06
3.6697069e-06
3.8202001e-06
3.8591223e-06
3.7567691e-06
3.25868e-06
1.7773992e-05
7.9475137e-06
5.8630011e-06
5.8410792e-06
6.2936887e-06
6.3781507e-06
6.0815818e-06
9.6763131e-06
1.2782236e-05
1.2759829e-05
1.0980765e-05
8.1651284e-06
6.0764286e-06
5.2878484e-06
5.3269195e-06
5.0315305e-06
4.5508244e-06
4.4909209e-06
4.3644105e-06
4.4208583e-06
4.7217873e-06
4.724664e-06
4.2978275e-06
2.070566e-05
9.2864718e-06
7.1742644e-06
7.4089972e-06
8.3619681e-06
8.5242183e-06
8.0274647e-06
1.1629578e-05
1.5347048e-05
1.5671029e-05
1.3446978e-05
1.0037607e-05
7.366501e-06
6.1139901e-06
6.0786202e-06
5.8038189e-06
5.2881605e-06
5.1636707e-06
5.0899808e-06
5.1038922e-06
5.6167621e-06
5.6674271e-06
5.3219097e-06
2.3419728e-05
1.0946289e-05
8.2359422e-06
8.462277e-06
9.8339527e-06
1.0633971e-05
1.0303329e-05
1.459787e-05
1.94833e-05
1.9622327e-05
1.6442001e-05
1.2236095e-05
8.8414921e-06
7.2757102e-06
7.1940215e-06
6.9986e-06
6.3446854e-06
5.9427719e-06
5.8774336e-06
5.8396867e-06
6.4147822e-06
6.5468851e-06
6.2281881e-06
2.5330148e-05
1.3832476e-05
1.0662769e-05
1.0823965e-05
1.3047956e-05
1.5204063e-05
1.5401429e-05
2.2327605e-05
3.038889e-05
2.9545596e-05
2.3166526e-05
1.7257871e-05
1.2233921e-05
1.0203136e-05
1.0122791e-05
9.8836145e-06
8.7872989e-06
7.396981e-06
7.1134985e-06
6.9264785e-06
7.4785177e-06
7.7100333e-06
7.4563191e-06
2.7716427e-05
1.6712494e-05
1.3203111e-05
1.3159226e-05
1.5485671e-05
2.3683784e-05
2.8066534e-05
4.0732835e-05
5.0654665e-05
4.5707805e-05
3.3275765e-05
2.5168905e-05
1.8280161e-05
1.5232055e-05
1.473546e-05
1.4486103e-05
1.334647e-05
1.0461314e-05
9.7209492e-06
9.1796815e-06
9.5795184e-06
9.6643853e-06
8.9680394e-06
2.9208127e-05
1.9400716e-05
1.5086642e-05
1.42824e-05
1.6577147e-05
2.8114393e-05
4.1642808e-05
6.1001764e-05
6.7260484e-05
5.5411382e-05
3.6048608e-05
2.9484106e-05
2.2609317e-05
1.9073419e-05
1.8042893e-05
1.8207928e-05
1.7638387e-05
1.4809843e-05
1.4619884e-05
1.396298e-05
1.4073057e-05
1.3278292e-05
1.1266624e-05
2.8937627e-05
2.1510189e-05
1.6764985e-05
1.5719245e-05
1.8660334e-05
3.4578014e-05
7.0835311e-05
0.00010119558
9.5908788e-05
6.5715265e-05
3.9051706e-05
3.2052856e-05
2.6958763e-05
2.275718e-05
2.1184933e-05
2.1245629e-05
1.9754416e-05
1.6845542e-05
1.8647451e-05
2.0171254e-05
2.1118744e-05
2.0195415e-05
1.6422484e-05
2.6670315e-05
2.3523042e-05
1.9313944e-05
1.8625863e-05
2.2978084e-05
4.7521726e-05
0.00012344399
0.00018092863
0.0001537514
8.2429074e-05
4.4871457e-05
3.8029666e-05
3.4977754e-05
2.9857328e-05
2.7274468e-05
2.5322004e-05
2.0363084e-05
1.7791972e-05
2.0940509e-05
2.6101233e-05
2.8864244e-05
2.7076099e-05
2.0012577e-05
2.4073939e-05
2.4431238e-05
2.1423633e-05
2.072602e-05
2.6649976e-05
6.1962517e-05
0.00017919499
0.00026501333
0.00021352408
9.7814759e-05
5.8444151e-05
5.4417593e-05
5.4655166e-05
5.0587435e-05
4.3868844e-05
3.3340251e-05
2.2216604e-05
1.989209e-05
2.3779571e-05
3.0942231e-05
3.3652473e-05
3.0125179e-05
2.0097026e-05
2.2713043e-05
2.5311635e-05
2.4461879e-05
2.4659811e-05
3.4013696e-05
8.3894016e-05
0.00024011189
0.00033561881
0.00025939416
0.00011857643
8.493748e-05
9.1326567e-05
0.00011284342
0.00011732302
9.6320907e-05
4.9572329e-05
2.722075e-05
2.4906667e-05
2.9262754e-05
3.6279002e-05
3.7406117e-05
3.037713e-05
2.1878368e-05
2.4745692e-05
2.8054644e-05
2.7823351e-05
2.8950104e-05
4.4165601e-05
0.0001146734
0.00031207613
0.00041340433
0.00031688317
0.00015073415
0.00011466749
0.00013325401
0.00017545173
0.00018533098
0.00014604309
6.5310049e-05
3.6413312e-05
3.5969916e-05
4.2033652e-05
4.7978789e-05
4.4600398e-05
3.1230623e-05
2.5387067e-05
3.1672346e-05
3.4445877e-05
3.4839424e-05
3.7011078e-05
5.7026636e-05
0.00013928308
0.00035079249
0.00046710334
0.00037758907
0.00019474961
0.00015128824
0.0001775737
0.00022827285
0.00023754305
0.00017889613
8.1206202e-05
5.6049169e-05
6.5268757e-05
8.214903e-05
8.6625794e-05
6.1278698e-05
3.5575058e-05
3.2335723e-05
4.7080516e-05
4.7597708e-05
4.7628987e-05
4.8962787e-05
7.1060409e-05
0.00016278461
0.00038751624
0.0005133814
0.00046170118
0.00027746648
0.00022012821
0.00025510763
0.0003237608
0.00031233835
0.0001977708
0.00010401702
9.7467539e-05
0.00015203224
0.00018119618
0.00015241333
7.1792146e-05
4.5225618e-05
4.3072222e-05
8.4110897e-05
7.2520168e-05
7.2013467e-05
6.9614739e-05
8.3615367e-05
0.00016446459
0.00039073037
0.00053211498
0.00050722281
0.00039093927
0.00037669288
0.00046970145
0.00059566291
0.00049140702
0.00023884377
0.00016789879
0.00017308447
0.00021131268
0.00022211163
0.00017397115
8.7446246e-05
6.7799503e-05
6.6149045e-05
0.00020984706
0.00015131474
0.0001279443
0.00010132846
9.9299216e-05
0.00015335042
0.00037616489
0.00055211781
0.00055544119
0.00051317237
0.00053222272
0.00066988411
0.00083047749
0.00063015725
0.00030095626
0.00021612552
0.00020571541
0.00024344888
0.00026328671
0.00017517577
0.00011554031
0.00010931913
0.00011010324
0.00029987698
0.00025276407
0.00024254109
0.00018424266
0.00013417254
0.00015210357
0.00034017714
0.00056382706
0.00061534878
0.00061802784
0.00065578197
0.00081142512
0.00088862849
0.00065157447
0.00033709598
0.00026416013
0.00026395803
0.00031570957
0.00025926516
0.00019031146
0.00017333207
0.00018937441
0.00012125304
0.00040404201
0.00033591686
0.0003240501
0.00032691802
0.00023099786
0.0001754637
0.00028801076
0.00055528565
0.00065264423
0.00069276625
0.00071872988
0.00082136767
0.00084484604
0.00066982487
0.00044753965
0.00040064366
0.00039575316
0.00033682098
0.00026691913
0.00023867127
0.00023635222
0.00019593375
0.00011184891
0.00051293018
0.00047335995
0.00045645387
0.00044754875
0.00038991612
0.00023808405
0.00027236436
0.00045909291
0.00062334192
0.00068441645
0.00071802993
0.00080273046
0.00081906051
0.00070947587
0.00056915871
0.00050959743
0.00046803384
0.00034957438
0.00029613027
0.00026348167
0.00022691698
0.00016522317
0.00012282606
0.00085789384
0.00070898719
0.00073703787
0.00073242207
0.00068788549
0.00044939174
0.00030621123
0.00036451411
0.00056776212
0.00067252012
0.00073580238
0.00081607002
0.00082380303
0.00072842712
0.00058902873
0.0005353738
0.0004821359
0.00035654117
0.00028857557
0.00024231394
0.00019786965
0.00015473073
0.00014312089
0.00090824514
0.00079836706
0.00083062311
0.00091061489
0.00088206018
0.00076030629
0.00042101798
0.00036862687
0.00048262696
0.00066022461
0.00075407101
0.00083391334
0.00083117473
0.0006995022
0.00054043874
0.00050238346
0.00045992158
0.00035052588
0.00026894119
0.00021860348
0.00017405267
0.00016083178
0.00016278685
0.00095530301
0.00096018835
0.0010785585
0.00121059
0.0011906264
0.0010529937
0.00066358343
0.00040239852
0.00043935178
0.00060099408
0.00074674351
0.0008208032
0.00079618125
0.00061451451
0.0004704877
0.00045302394
0.00044113585
0.00034708102
0.0002415882
0.0001945447
0.00017902675
0.00017906315
0.0001889337
0.00066333297
0.00083917578
0.0011475686
0.0013213858
0.0012986974
0.0010883739
0.00064154695
0.00039153364
0.00040170111
0.00055820714
0.00071909847
0.00078800562
0.00075286991
0.00054893271
0.00043995096
0.00042618369
0.00041704915
0.00031044018
0.00021317547
0.00018751607
0.00018210544
0.00018719996
0.0002157732
0.00070055829
0.00080603441
0.0010744172
0.0012227164
0.001214257
0.00099242546
0.00055745453
0.00038475381
0.00041342811
0.00057854146
0.00071157422
0.00076067474
0.00066620062
0.0004571946
0.00039005509
0.00037881396
0.00033425959
0.00022180527
0.00018258753
0.00017856467
0.00018771209
0.00021450324
0.00026623672
0.0005390647
0.0007043409
0.00084051867
0.00096095688
0.00099726887
0.00081540805
0.00050907325
0.00038129067
0.00040679178
0.00055245215
0.00067583885
0.00071641788
0.00066343882
0.00048622853
0.00039178469
0.00036730911
0.00032520956
0.00022953128
0.00017741186
0.00016712763
0.0001737002
0.00019751113
0.0002468816
0.00049660201
0.00061731261
0.00071590106
0.00076759705
0.00077303862
0.00062858358
0.00044438555
0.00037411827
0.00041180744
0.0005429923
0.00065055493
0.00068071476
0.00063930817
0.00050670377
0.00040129301
0.00036623855
0.00033091543
0.00025054259
0.00019020917
0.00016661796
0.00016423559
0.00017421752
0.00020586084
0.00040240736
0.00054566051
0.0006179224
0.00064496808
0.00062430325
0.0005182946
0.00040521104
0.00036798227
0.00041674305
0.00053917585
0.00062952246
0.00065534326
0.00061859705
0.00051240362
0.000409735
0.00036655227
0.00033909716
0.00027499113
0.00020707295
0.00017388725
0.00016208008
0.00016577324
0.00018056929
0.00035194817
0.00047780426
0.00055798567
0.00058402269
0.00055111084
0.00047615336
0.00040392949
0.00037629586
0.00042831627
0.00053124056
0.00060818941
0.00063374798
0.00060799869
0.00052154248
0.00042375989
0.000371599
0.00034320356
0.00029060857
0.00022675974
0.00018170763
0.00016205448
0.00015722483
0.00016291575
0.00030230299
0.00040457161
0.00050358911
0.00053198714
0.00051239298
0.00045911954
0.00041593927
0.0003983856
0.00044654
0.00052550723
0.0005883197
0.00060964524
0.0005893011
0.00052344673
0.00043469535
0.00037857101
0.00034620786
0.00030052033
0.00024345975
0.00019416607
0.00016426377
0.00015199715
0.00015164144
0.000271692
0.000326053
0.00045174697
0.00049543937
0.00049139591
0.00045148305
0.00042258494
0.00041311635
0.0004536927
0.00052169756
0.00057512488
0.00059133921
0.0005714249
0.00051679182
0.00043729479
0.00038013184
0.00034691733
0.00030677978
0.00025475031
0.0002066197
0.00017208263
0.00015342471
0.00014614111
0.00024632814
0.00026104497
0.00038766277
0.00046549644
0.00047884493
0.00045309363
0.00043195063
0.00042458131
0.00044857548
0.00050112525
0.00055087068
0.00057231083
0.00055944968
0.0005179753
0.00044644639
0.00038585313
0.00034917767
0.0003132975
0.00026580809
0.00022092185
0.0001851807
0.00016050959
0.00014524301
0.00023574571
0.00021083139
0.00031465826
0.00041856125
0.00046212293
0.00045444214
0.00044070152
0.000435077
0.00044196595
0.00046906959
0.00051155424
0.00054261479
0.00054362605
0.00052286023
0.00047077949
0.00040918609
0.00036277837
0.00032802513
0.0002860824
0.00023880687
0.00020438821
0.00017361161
0.000152271
0.00023459062
0.00018453786
0.00025890635
0.0003549929
0.00041834546
0.00044116733
0.00044014241
0.0004389525
0.00044170869
0.00045364176
0.00048043161
0.00051035236
0.00052398508
0.00051952458
0.00049325451
0.00043939381
0.00038853136
0.0003487343
0.00030953988
0.00026218417
0.00022259823
0.00019382794
0.00016622265
0.00022986041
0.00017614702
0.00023436899
0.00031015676
0.00036458199
0.00040228948
0.00042517328
0.00043484967
0.00044146198
0.00045134531
0.00046821029
0.00048989183
0.00050624965
0.0005092875
0.00049886204
0.00046767418
0.00041911488
0.00037401123
0.00033311329
0.00029075218
0.00024541753
0.00021494984
0.00018409999
0.00021732295
0.0001651608
0.00022296679
0.00029121277
0.0003350595
0.00036404195
0.00039169536
0.00041829659
0.00043465538
0.00044757934
0.00046308983
0.00048002752
0.00049431318
0.00050113055
0.0004981445
0.00048471412
0.00045455904
0.00041205287
0.00036901967
0.00032730513
0.0002808185
0.00024344432
0.00020237304
0.00020125827
0.0001355553
0.00019997348
0.00027229254
0.00032031362
0.00034792367
0.00036719474
0.00038768541
0.000412307
0.00043472927
0.00045384635
0.00047126114
0.00048605279
0.00049577598
0.00049862298
0.00049522859
0.00048292966
0.00045639146
0.00041784212
0.00037620785
0.00032748357
0.00028776346
0.00023239778
0.00018852687
9.1450594e-05
0.00013903591
0.00022684453
0.00029330923
0.00033296887
0.00035677581
0.0003743052
0.00039183479
0.00041208188
0.00043487324
0.00045714399
0.00047713187
0.00049242015
0.00050037983
0.00050328098
0.00049981714
0.00048849176
0.00046443177
0.00043054573
0.00038233791
0.00034703998
0.00027829531
0.00018280599
7.5131158e-05
8.2588532e-05
0.00013482448
0.00021908016
0.00029452892
0.00033790749
0.00036401798
0.00038363929
0.00040233116
0.00042144934
0.00044180008
0.00046221552
0.00048162833
0.00049687207
0.00050472384
0.0005084216
0.00050565981
0.00049632166
0.00047743491
0.00044118442
0.00041122795
0.0003443706
0.00020074062
8.0018317e-05
7.23556e-05
9.0889508e-05
0.00013250753
0.00019616519
0.00027074259
0.00032908636
0.00036382033
0.00038789055
0.00040907474
0.00043014764
0.00045123548
0.00047127855
0.00048963449
0.00050288313
0.00051185862
0.00051767589
0.00051704073
0.00051097581
0.00049445824
0.00047201102
0.00041775905
0.00021746384
9.471599e-05
8.1503998e-05
9.2420293e-05
0.00011513006
0.00014502843
0.00018655163
0.00023860692
0.00029537374
0.00034237936
0.00037815265
0.00040646551
0.00043202759
0.00045582593
0.00047771216
0.00049671073
0.00051023103
0.00051975106
0.00052682227
0.00052964621
0.00052579317
0.00051524876
0.0004846885
0.0002360071
0.00011305009
0.00011164836
0.00011961926
0.00013002667
0.00014646647
0.00016744226
0.00019172269
0.00022267625
0.00025876291
0.00029841357
0.0003392371
0.00037847658
0.00041513089
0.00044662047
0.00047442215
0.00049691752
0.00051329971
0.00052477954
0.00053310351
0.00053874235
0.00053926092
0.00053069376
0.0002452745
0.00013103161
0.00014088454
0.0001535476
0.00016286755
0.00016883429
0.00017625215
0.00018892776
0.00020274266
0.00021902391
0.00023949868
0.00026471777
0.00029454819
0.00032882499
0.00036823922
0.00041021116
0.00045161838
0.00048421279
0.00050827843
0.00052533641
0.00053676913
0.00054451975
0.00054941397
0.0002473384
0.00014637835
0.00016277525
0.00017695423
0.00018743626
0.00019445147
0.00019848011
0.00020063337
0.00020585733
0.00021327368
0.00022135417
0.00023139859
0.00024479092
0.00026261873
0.00028623003
0.0003166291
0.00035385364
0.00039942297
0.00044614461
0.00048624357
0.00051403364
0.00053266463
0.00055676192
0.00024460535
0.00015717274
0.00017812121
0.00019454376
0.00020686316
0.00021537475
0.00022036174
0.00022203592
0.00022101098
0.00022050038
0.00022271556
0.00022680196
0.00023203801
0.00023889969
0.00024827835
0.00026189721
0.00028135928
0.00030817602
0.00034273146
0.00038493987
0.00043265529
0.00047675686
0.00052070638
0.00023941826
0.0001622757
0.00018652789
0.00020576274
0.00022087916
0.00023225167
0.00024017477
0.00024479474
0.00024612575
0.00024400277
0.00024005448
0.00023776544
0.00023835603
0.00024126356
0.00024670263
0.00025392894
0.00026347748
0.00027638615
0.00029371502
0.00031636315
0.0003458644
0.00037976438
0.00043208626
0.00023327323
0.00016265922
0.00018846652
0.00020919073
0.00022654657
0.00024099217
0.00025278516
0.00026212042
0.00026909672
0.00027365796
0.00027557605
0.00027437974
0.00027155766
0.00026849573
0.00026717783
0.00026925179
0.00027433211
0.00028296291
0.00029520331
0.00031062219
0.0003278569
0.00034735013
0.00038012353
0.00022736703
0.0001605466
0.00018688925
0.00020785477
0.0002258115
0.0002414492
0.00025543309
0.00026811541
0.0002796984
0.00029023889
0.00029967642
0.00030788878
0.00031483302
0.00032048368
0.00032407928
0.00032565794
0.00032631578
0.00032717911
0.00032925015
0.00033504707
0.00034477732
0.00035829242
0.00038218775
0.00022206977
0.00015411046
0.00018068068
0.00020180395
0.00022044595
0.00023716109
0.000252199
0.00026605594
0.00027912965
0.00029187619
0.00030470035
0.00031770589
0.00033089893
0.00034421344
0.00035744869
0.00037008417
0.00038167553
0.00039191974
0.00040048517
0.00040595515
0.00040953089
0.00041439147
0.00042074086
0.00021816313
0.00014729389
0.00017299346
0.00019308402
0.0002109013
0.00022721282
0.00024254247
0.00025718706
0.00027142109
0.00028535604
0.0002991218
0.00031313667
0.00032761181
0.00034264373
0.00035824569
0.00037451248
0.00039118561
0.00040789518
0.00042422764
0.00043964472
0.00045372219
0.00046765601
0.00048186479
0.00021560275
0.00014195519
0.00016732585