/*--------------------------------*- C++ -*----------------------------------*\
| =========                 |                                                 |
| \\      /  F ield         | OpenFOAM: The Open Source CFD Toolbox           |
|  \\    /   O peration     | Version:  2406                                  |
|   \\  /    A nd           | Website:  www.openfoam.com                      |
|    \\/     M anipulation  |                                                 |
\*---------------------------------------------------------------------------*/
FoamFile
{
    version     2.0;
    format      ascii;
    arch        "LSB;label=32;scalar=64";
    class       volScalarField;
    location    "145";
    object      nut;
}
// * * * * * * * * * * * * * * * * * * * * * * * * * * * * * * * * * * * * * //

dimensions      [0 2 -1 0 0 0 0];

internalField   nonuniform List<scalar> 
20580
(
8.8846303e-07
8.8976822e-07
8.5927809e-07
8.3076652e-07
8.1305863e-07
8.014865e-07
7.9641987e-07
7.9340725e-07
7.9106293e-07
7.8691835e-07
7.850695e-07
7.8364971e-07
7.8385812e-07
7.8761698e-07
7.8938888e-07
7.9457949e-07
7.9849885e-07
8.0599031e-07
8.1259817e-07
8.2071572e-07
8.3051347e-07
8.3156756e-07
8.3021888e-07
8.3987501e-07
8.4667343e-07
8.5737973e-07
8.6790074e-07
8.8055876e-07
9.0761658e-07
9.5899644e-07
1.0489105e-06
8.8942103e-07
9.0182263e-07
8.7764202e-07
8.5228618e-07
8.3186423e-07
8.1421514e-07
8.0333791e-07
7.9702589e-07
7.9375047e-07
7.8883965e-07
7.8726936e-07
7.8649768e-07
7.8557204e-07
7.8948599e-07
7.8970831e-07
7.9464721e-07
7.9738364e-07
8.0438889e-07
8.1203764e-07
8.2131432e-07
8.3255047e-07
8.4145023e-07
8.3799703e-07
8.5114233e-07
8.5896897e-07
8.7372297e-07
9.0061741e-07
9.120293e-07
9.2439853e-07
9.5858062e-07
1.0172e-06
8.8890868e-07
9.044509e-07
8.8104772e-07
8.6337958e-07
8.5056319e-07
8.3638481e-07
8.2171284e-07
8.0716715e-07
8.0020243e-07
7.9281422e-07
7.9060936e-07
7.8916172e-07
7.8650614e-07
7.9139851e-07
7.8861652e-07
7.9533185e-07
7.9817684e-07
8.0217113e-07
8.1230907e-07
8.2082586e-07
8.3226255e-07
8.4420235e-07
8.4968304e-07
8.569587e-07
8.6508806e-07
8.7821634e-07
9.0307642e-07
9.2039383e-07
9.3726188e-07
9.6233444e-07
1.0159083e-06
8.88669e-07
9.0457843e-07
8.8361325e-07
8.6661976e-07
8.5438697e-07
8.4575533e-07
8.37984e-07
8.2652044e-07
8.1700572e-07
8.0400163e-07
7.9766844e-07
7.9373895e-07
7.8909877e-07
7.9299839e-07
7.8867402e-07
7.9455189e-07
7.9656054e-07
8.0194574e-07
8.1032884e-07
8.2202638e-07
8.3134396e-07
8.469043e-07
8.5585713e-07
8.6573807e-07
8.7815954e-07
8.8834943e-07
9.0818275e-07
9.2598918e-07
9.417277e-07
9.6032336e-07
1.0013715e-06
8.8869511e-07
9.0506933e-07
8.8044486e-07
8.6594492e-07
8.5743324e-07
8.4981922e-07
8.4378218e-07
8.3974091e-07
8.3508666e-07
8.247139e-07
8.14761e-07
8.0546783e-07
7.958005e-07
7.9641063e-07
7.9147565e-07
7.9448259e-07
7.9519771e-07
7.9925028e-07
8.0764132e-07
8.1613308e-07
8.2719993e-07
8.4390442e-07
8.580866e-07
8.7156204e-07
8.9411358e-07
9.134137e-07
9.3989808e-07
9.5557015e-07
9.6306286e-07
9.7525948e-07
9.9858638e-07
8.8904237e-07
9.089687e-07
8.8107148e-07
8.6501483e-07
8.5389581e-07
8.5184284e-07
8.4786479e-07
8.4225615e-07
8.3977604e-07
8.3704216e-07
8.3037798e-07
8.2660126e-07
8.1519617e-07
8.0767484e-07
8.0022055e-07
7.9740233e-07
7.9702222e-07
7.983351e-07
8.0654974e-07
8.1057265e-07
8.2314844e-07
8.38736e-07
8.513049e-07
8.6454299e-07
8.8636139e-07
9.0869124e-07
9.3545588e-07
9.9162727e-07
1.0222438e-06
1.0588165e-06
1.052713e-06
8.8997266e-07
9.1742066e-07
8.8443861e-07
8.6594434e-07
8.5364618e-07
8.4742491e-07
8.4516596e-07
8.4147283e-07
8.4233131e-07
8.4057893e-07
8.3786908e-07
8.371755e-07
8.3186819e-07
8.2395282e-07
8.1424266e-07
8.070633e-07
8.0353867e-07
8.0149534e-07
8.0641879e-07
8.0882513e-07
8.1769238e-07
8.3287521e-07
8.4448645e-07
8.5672008e-07
8.7830679e-07
8.9873287e-07
9.2032447e-07
9.7376465e-07
1.0111195e-06
1.0739128e-06
1.1058292e-06
8.9058931e-07
9.5246779e-07
9.0297252e-07
8.7347666e-07
8.5648588e-07
8.4620048e-07
8.4131213e-07
8.403246e-07
8.402335e-07
8.4368056e-07
8.4052137e-07
8.4443119e-07
8.4369444e-07
8.42824e-07
8.4360328e-07
8.309234e-07
8.2254342e-07
8.1592588e-07
8.1349482e-07
8.1183887e-07
8.1777308e-07
8.2732706e-07
8.3578142e-07
8.4356588e-07
8.6110647e-07
8.774805e-07
8.9151606e-07
9.3130099e-07
9.7747699e-07
1.0529922e-06
1.1056724e-06
8.8578971e-07
1.0064784e-06
9.753644e-07
9.1549828e-07
8.7926334e-07
8.5673221e-07
8.4582838e-07
8.4328689e-07
8.4099395e-07
8.4542513e-07
8.4335959e-07
8.5161832e-07
8.6046611e-07
8.7176669e-07
8.8071547e-07
8.8411291e-07
8.8152412e-07
8.7240724e-07
8.5611305e-07
8.4034549e-07
8.3529378e-07
8.3461172e-07
8.4156806e-07
8.4633466e-07
8.5988976e-07
8.7467249e-07
8.8539191e-07
9.0343703e-07
9.4081673e-07
9.8354245e-07
1.0561042e-06
8.6729135e-07
9.5986482e-07
9.6987918e-07
9.9142808e-07
9.6541562e-07
9.1195559e-07
8.7817787e-07
8.6202538e-07
8.4958075e-07
8.488699e-07
8.5026312e-07
8.6050414e-07
8.7189861e-07
8.8400788e-07
8.9783282e-07
9.1357093e-07
9.2395713e-07
9.3359479e-07
9.3719225e-07
9.3179487e-07
9.1949149e-07
9.0059318e-07
8.8150589e-07
8.75178e-07
8.7493185e-07
8.8796271e-07
8.969552e-07
9.1261527e-07
9.4989318e-07
9.815145e-07
1.0483903e-06
8.5398092e-07
8.6447608e-07
9.2786224e-07
9.6727515e-07
9.923084e-07
1.01619e-06
9.9513716e-07
9.441037e-07
9.0605396e-07
8.8722394e-07
8.7937861e-07
8.8257415e-07
8.9021827e-07
9.0398643e-07
9.1635974e-07
9.2965304e-07
9.4057625e-07
9.5271147e-07
9.587982e-07
9.6731462e-07
9.7641876e-07
9.8041769e-07
9.8063102e-07
9.7935843e-07
9.6297369e-07
9.4912718e-07
9.4795112e-07
9.5247644e-07
9.775983e-07
9.9408723e-07
1.0372147e-06
8.7657637e-07
8.7360563e-07
8.7274048e-07
8.941745e-07
9.4974285e-07
9.9365991e-07
1.025873e-06
1.0694494e-06
1.0849907e-06
1.0802602e-06
1.049056e-06
1.0246714e-06
1.011036e-06
1.0079794e-06
1.0045576e-06
1.0014217e-06
9.9749277e-07
9.9724188e-07
9.9812291e-07
1.0054687e-06
1.0109391e-06
1.0142735e-06
1.02118e-06
1.0312642e-06
1.0314634e-06
1.027818e-06
1.0321147e-06
1.0410587e-06
1.05363e-06
1.0841545e-06
1.0953524e-06
8.7649716e-07
9.7183337e-07
9.1966118e-07
9.0834541e-07
8.9020565e-07
9.0855151e-07
9.6406853e-07
1.0314789e-06
1.0958422e-06
1.1611429e-06
1.2293244e-06
1.3116634e-06
1.3855524e-06
1.4431701e-06
1.4779256e-06
1.4616812e-06
1.4406193e-06
1.3641238e-06
1.283948e-06
1.2219315e-06
1.1724345e-06
1.1309559e-06
1.1078154e-06
1.1076007e-06
1.0997157e-06
1.0872183e-06
1.0831019e-06
1.0921907e-06
1.0984672e-06
1.12022e-06
1.120636e-06
8.7646084e-07
9.6512609e-07
9.4969825e-07
9.3866139e-07
9.1180017e-07
9.0391408e-07
8.8806469e-07
9.2218524e-07
9.8865239e-07
1.0577078e-06
1.1484212e-06
1.2665674e-06
1.4008868e-06
1.537642e-06
1.6819733e-06
1.8161026e-06
1.8929696e-06
1.9556442e-06
1.9931578e-06
1.9676115e-06
1.9259384e-06
1.7965538e-06
1.6981346e-06
1.5479377e-06
1.4266975e-06
1.3260994e-06
1.2617167e-06
1.2251906e-06
1.2138474e-06
1.2108069e-06
1.1787404e-06
8.7677463e-07
9.0862857e-07
9.1017937e-07
9.2315234e-07
9.1624815e-07
9.1103393e-07
8.9529973e-07
9.0578031e-07
9.1504844e-07
9.5044357e-07
9.9655543e-07
1.057356e-06
1.1587392e-06
1.2931241e-06
1.4433194e-06
1.6201177e-06
1.7500469e-06
1.8665438e-06
1.9549745e-06
2.027393e-06
2.084818e-06
2.1163324e-06
2.1433377e-06
2.1632539e-06
2.1651416e-06
2.1132444e-06
2.0032228e-06
1.9251632e-06
1.7981367e-06
1.7221177e-06
1.5619033e-06
8.7496175e-07
8.9419989e-07
8.6684338e-07
8.6227334e-07
8.7268726e-07
8.8169664e-07
8.8523337e-07
8.9168603e-07
8.9092102e-07
9.0516064e-07
9.2170883e-07
9.4898897e-07
9.9223002e-07
1.0403994e-06
1.1052018e-06
1.1859644e-06
1.2710889e-06
1.381206e-06
1.4910428e-06
1.6313601e-06
1.7280999e-06
1.870806e-06
1.9701095e-06
2.0705309e-06
2.1317983e-06
2.1935911e-06
2.2304841e-06
2.25835e-06
2.2882249e-06
2.3213147e-06
2.2976005e-06
8.7191199e-07
8.8253011e-07
8.667235e-07
8.5272619e-07
8.4518362e-07
8.4475801e-07
8.4555856e-07
8.5195666e-07
8.5035017e-07
8.6056393e-07
8.695765e-07
8.882396e-07
9.0667516e-07
9.3424515e-07
9.6429484e-07
9.9813696e-07
1.0334547e-06
1.0727508e-06
1.1224977e-06
1.1687725e-06
1.2359869e-06
1.3005186e-06
1.3940201e-06
1.4986834e-06
1.647294e-06
1.7948752e-06
1.9363985e-06
2.0415325e-06
2.1309059e-06
2.2126277e-06
2.2885336e-06
8.7557064e-07
8.8339606e-07
8.6461362e-07
8.4925816e-07
8.3872089e-07
8.3095215e-07
8.2662148e-07
8.2589091e-07
8.2321121e-07
8.2715338e-07
8.3288781e-07
8.4858214e-07
8.602426e-07
8.803225e-07
8.9931722e-07
9.2106016e-07
9.4060066e-07
9.6016151e-07
9.8178236e-07
1.0041545e-06
1.0279437e-06
1.0609244e-06
1.0988045e-06
1.1343591e-06
1.1913505e-06
1.2528865e-06
1.3483451e-06
1.413411e-06
1.5403516e-06
1.6179712e-06
1.8314155e-06
8.7637066e-07
8.859478e-07
8.6427827e-07
8.5252341e-07
8.4378001e-07
8.3390278e-07
8.2859079e-07
8.2385847e-07
8.2192349e-07
8.2165429e-07
8.2366356e-07
8.3349921e-07
8.4481759e-07
8.5955256e-07
8.7636452e-07
8.9311579e-07
9.0899392e-07
9.2307155e-07
9.3846721e-07
9.5083041e-07
9.6180716e-07
9.7927809e-07
9.9921765e-07
1.0141725e-06
1.0332326e-06
1.0593043e-06
1.100798e-06
1.1282463e-06
1.1763353e-06
1.2051476e-06
1.288909e-06
8.7945617e-07
8.9350934e-07
8.7384744e-07
8.649992e-07
8.6010564e-07
8.51598e-07
8.5063775e-07
8.4649901e-07
8.4927142e-07
8.4516048e-07
8.4697465e-07
8.5856995e-07
8.7170189e-07
8.8630191e-07
9.0120791e-07
9.1565791e-07
9.2886003e-07
9.4161681e-07
9.5592486e-07
9.7029781e-07
9.829511e-07
1.0011078e-06
1.0206254e-06
1.0367605e-06
1.0538128e-06
1.022437e-06
9.3271072e-07
1.0223367e-06
1.1497876e-06
9.4897179e-07
1.2067309e-06
8.6826271e-07
9.4631843e-07
9.7565815e-07
1.0560125e-06
1.0859869e-06
1.0941733e-06
1.1051628e-06
1.1163825e-06
1.1297107e-06
1.1118981e-06
1.1431839e-06
1.1801229e-06
1.2075809e-06
1.2203024e-06
1.2273701e-06
1.2442514e-06
1.2665659e-06
1.2913145e-06
1.3202833e-06
1.3560961e-06
1.3812213e-06
1.4196993e-06
1.0124734e-06
1.470891e-06
1.480655e-06
1.4996955e-06
1.0036376e-06
7.1914787e-07
1.5231961e-06
1.1796022e-06
1.4707139e-06
9.0271305e-07
1.1313296e-06
2.0855022e-06
2.2336283e-06
2.3138746e-06
2.2285639e-06
2.2058553e-06
2.2868997e-06
2.2471904e-06
2.1362903e-06
2.2389261e-06
2.3380386e-06
2.3959292e-06
2.368853e-06
2.3777582e-06
2.3724497e-06
2.4145342e-06
2.4525687e-06
2.2023304e-06
2.3999367e-06
2.6662079e-06
2.7021785e-06
2.1108815e-06
2.3653657e-06
2.7201296e-06
2.7110467e-06
2.0873749e-06
1.770566e-06
2.1993748e-06
2.594265e-06
2.532082e-06
7.1691722e-07
1.603054e-06
1.9560865e-06
2.3102406e-06
1.9097415e-06
2.3297996e-06
1.8199452e-06
2.382666e-06
1.5406198e-06
2.4179877e-06
2.0912687e-06
1.8280346e-06
2.0743936e-06
1.768022e-06
2.0609515e-06
1.9383457e-06
2.0263752e-06
1.9165293e-06
2.0664456e-06
2.0208435e-06
1.7994574e-06
1.8885701e-06
2.1888561e-06
2.1575095e-06
1.8010837e-06
1.7523971e-06
2.1716233e-06
2.8449203e-06
2.439074e-06
1.8138257e-06
1.7824781e-06
2.2699284e-06
2.052594e-06
1.1275694e-06
1.0945921e-06
1.328639e-06
1.8158366e-06
2.3122104e-06
2.3682044e-06
1.7277224e-06
1.2815141e-06
1.1797591e-06
1.1602511e-06
1.1071725e-06
1.0955352e-06
1.0985298e-06
1.1509025e-06
1.1694827e-06
1.1361071e-06
1.0760289e-06
1.0727316e-06
1.073029e-06
1.0868697e-06
1.0864878e-06
1.858928e-06
1.8346046e-06
9.7734263e-07
1.2883772e-06
1.3463841e-06
1.6902098e-06
2.3023811e-06
2.4736497e-06
1.9756188e-06
1.4226964e-06
1.256663e-06
1.2566214e-06
1.2160528e-06
1.1668039e-06
1.1480517e-06
1.1792208e-06
1.2465528e-06
1.2444644e-06
1.1825676e-06
1.1431518e-06
1.1443746e-06
1.1450393e-06
1.1291514e-06
1.5362528e-06
2.3700518e-06
1.2785037e-06
8.0357181e-07
1.3826817e-06
1.6627703e-06
2.2845555e-06
2.5842227e-06
2.3371013e-06
1.6293192e-06
1.3415841e-06
1.3228739e-06
1.2868973e-06
1.2496314e-06
1.2240666e-06
1.2509389e-06
1.3484885e-06
1.3466552e-06
1.3002536e-06
1.2245154e-06
1.2237272e-06
1.2272993e-06
1.2328979e-06
1.2168875e-06
2.2055018e-06
1.2663785e-06
9.3057908e-07
1.0133259e-06
1.6871172e-06
2.3271082e-06
2.7083998e-06
2.5698994e-06
1.9552412e-06
1.4634242e-06
1.4313889e-06
1.408173e-06
1.400954e-06
1.3680397e-06
1.3484483e-06
1.4238864e-06
1.4596841e-06
1.4280451e-06
1.3154589e-06
1.2891663e-06
1.2956471e-06
1.2947584e-06
9.5324139e-07
1.1193158e-06
7.9787324e-07
7.2477417e-07
1.029953e-06
1.7456377e-06
2.3844109e-06
2.9016046e-06
2.8158131e-06
2.2418278e-06
1.665304e-06
1.5443994e-06
1.5448145e-06
1.5223566e-06
1.5156873e-06
1.474062e-06
1.4937479e-06
1.5541701e-06
1.5469527e-06
1.5070444e-06
1.4133599e-06
1.4232524e-06
1.4196108e-06
5.8729182e-07
9.8459176e-07
5.542398e-07
7.116603e-07
1.223058e-06
1.7506788e-06
2.283069e-06
3.0433585e-06
3.0020216e-06
2.5269638e-06
1.9104691e-06
1.6800495e-06
1.6761997e-06
1.6350752e-06
1.5798314e-06
1.5709899e-06
1.5621276e-06
1.6776614e-06
1.6749201e-06
1.6569398e-06
1.5588319e-06
1.5316223e-06
1.5218713e-06
7.4520135e-07
1.0857237e-06
1.2401722e-06
9.7152229e-07
1.1172322e-06
1.7923453e-06
2.3433503e-06
3.2863355e-06
3.2499075e-06
2.9879101e-06
2.2585178e-06
1.8671458e-06
1.8536049e-06
1.8328812e-06
1.7634572e-06
1.7499659e-06
1.7267699e-06
1.7760161e-06
1.8692e-06
1.860342e-06
1.782019e-06
1.6661558e-06
1.6637986e-06
7.2274175e-07
1.3604045e-06
8.1492466e-07
5.326729e-07
8.9181859e-07
1.9198813e-06
1.8957052e-06
2.7284735e-06
3.6789326e-06
3.5211394e-06
2.8796431e-06
2.1992939e-06
2.0931078e-06
2.0731075e-06
1.9846489e-06
1.9637198e-06
1.9211999e-06
1.9349495e-06
2.0430475e-06
2.0468408e-06
1.9974372e-06
1.8804661e-06
1.8113494e-06
5.805177e-07
7.4760594e-07
8.9161081e-07
1.5346377e-06
1.3484245e-06
1.0941456e-06
1.2282431e-06
2.4178884e-06
4.1911111e-06
3.962606e-06
3.3402602e-06
2.5809632e-06
2.2730578e-06
2.258644e-06
2.1910419e-06
2.1063653e-06
2.1013548e-06
2.1063863e-06
2.2204032e-06
2.2342308e-06
2.1573703e-06
2.0328602e-06
1.9139939e-06
3.3794318e-07
8.2969164e-07
5.5141219e-07
6.8166642e-07
1.2627497e-06
2.0665224e-06
2.5789697e-06
3.9818858e-06
3.7722116e-06
3.3468893e-06
3.6883913e-06
2.8716301e-06
2.4578443e-06
2.4250978e-06
2.3777953e-06
2.2723524e-06
2.2573873e-06
2.2536394e-06
2.3172417e-06
2.4163944e-06
2.372183e-06
2.2441389e-06
2.1253941e-06
3.9104443e-07
6.6305102e-07
5.1723332e-07
9.15008e-07
1.6674959e-06
1.3031398e-06
1.2995033e-06
2.1618172e-06
3.6664127e-06
4.7223215e-06
4.1722462e-06
3.2573257e-06
2.7665759e-06
2.7947244e-06
2.7821285e-06
2.6693774e-06
2.6201627e-06
2.5484945e-06
2.5490464e-06
2.6760593e-06
2.6821894e-06
2.5627315e-06
2.3568302e-06
7.4037534e-07
5.312684e-07
1.0853779e-06
1.6289732e-06
2.1303829e-06
1.7263223e-06
1.7305477e-06
2.6173147e-06
3.6997659e-06
5.4818001e-06
5.0938588e-06
4.1130632e-06
3.4324955e-06
3.3223469e-06
3.3129008e-06
3.1916034e-06
3.0147646e-06
2.9548948e-06
2.884886e-06
2.981467e-06
3.0047002e-06
2.9720594e-06
2.7471701e-06
1.1025763e-06
9.999139e-07
1.4170335e-06
1.6412622e-06
2.5378707e-06
2.9098352e-06
2.9939033e-06
4.517702e-06
6.0472057e-06
6.5105719e-06
5.9822053e-06
5.237184e-06
4.1918904e-06
3.7367938e-06
3.7016067e-06
3.5398244e-06
3.3055026e-06
3.2809264e-06
3.2350117e-06
3.2779836e-06
3.4363128e-06
3.4447295e-06
3.2750299e-06
1.199374e-06
1.0773199e-06
1.5678935e-06
2.1445612e-06
2.440409e-06
3.3711689e-06
3.4017988e-06
4.8355792e-06
6.4792553e-06
7.1498986e-06
7.2927677e-06
5.9454777e-06
4.1712781e-06
4.0643855e-06
3.9897626e-06
3.860081e-06
3.6215361e-06
3.5653794e-06
3.5352577e-06
3.5626224e-06
3.8242651e-06
3.851283e-06
3.7387881e-06
7.8152288e-07
7.138591e-07
1.5635395e-06
2.3181357e-06
3.0265862e-06
2.5265469e-06
2.5472782e-06
3.373551e-06
4.8692617e-06
8.0434836e-06
8.151941e-06
6.6505207e-06
4.2440639e-06
3.3917537e-06
4.0180389e-06
4.3170778e-06
4.0451341e-06
3.8753007e-06
3.8428875e-06
3.846615e-06
4.1013659e-06
4.165496e-06
4.0538656e-06
7.3545186e-07
9.1398741e-07
1.5808142e-06
2.6672766e-06
3.6114511e-06
3.6570277e-06
3.2488675e-06
4.2897761e-06
6.7390566e-06
9.7665306e-06
9.6643322e-06
7.9085408e-06
6.1614579e-06
5.4130151e-06
5.3995996e-06
5.3191791e-06
4.8900832e-06
4.3900743e-06
4.3044455e-06
4.2617755e-06
4.4883626e-06
4.556742e-06
4.4693636e-06
8.0279402e-07
1.3792762e-06
2.0546182e-06
2.993048e-06
3.8651969e-06
5.6465069e-06
6.3730377e-06
8.4977321e-06
1.1951532e-05
1.3338024e-05
1.2320411e-05
1.016461e-05
7.9179428e-06
6.9904358e-06
6.8885791e-06
6.8441654e-06
6.5248119e-06
5.4690809e-06
5.1198962e-06
4.9593404e-06
5.141584e-06
5.194187e-06
4.9851925e-06
9.8759461e-07
1.5177715e-06
2.2019263e-06
3.0583254e-06
3.8711969e-06
6.0409766e-06
7.9842979e-06
1.1428229e-05
1.3855132e-05
1.5028834e-05
1.2760475e-05
1.1248138e-05
8.8838112e-06
7.9027082e-06
7.7057847e-06
7.8151405e-06
7.7131459e-06
6.906692e-06
6.7451188e-06
6.5272008e-06
6.5875471e-06
6.3369362e-06
5.736856e-06
1.3136047e-06
1.6235424e-06
2.3371797e-06
3.1840049e-06
4.0507585e-06
6.6638072e-06
1.0915531e-05
1.4879113e-05
1.642224e-05
1.7087767e-05
1.341962e-05
1.166668e-05
9.8573265e-06
8.7121185e-06
8.4569054e-06
8.5828259e-06
8.3439015e-06
7.5479347e-06
7.9468446e-06
8.2816783e-06
8.5625083e-06
8.3653757e-06
7.3545432e-06
1.3945874e-06
1.738566e-06
2.5802411e-06
3.5624257e-06
4.6301511e-06
8.2960091e-06
1.6120774e-05
2.2327055e-05
2.2711244e-05
2.0208003e-05
1.456671e-05
1.2836724e-05
1.16879e-05
1.0260122e-05
9.9092773e-06
9.5686802e-06
8.5228749e-06
7.82819e-06
8.5430135e-06
9.6631823e-06
1.0391246e-05
1.0105656e-05
8.5386367e-06
1.3307455e-06
1.7970401e-06
2.7715933e-06
3.74727e-06
4.9580469e-06
9.7882033e-06
2.083793e-05
2.9345441e-05
2.8936492e-05
2.2406258e-05
1.679895e-05
1.5728794e-05
1.5051543e-05
1.3870647e-05
1.2978841e-05
1.122019e-05
9.0412103e-06
8.3930854e-06
9.1371703e-06
1.0705555e-05
1.1423238e-05
1.0852003e-05
8.636189e-06
1.2852126e-06
1.8582498e-06
3.0524675e-06
4.1758041e-06
5.7852173e-06
1.2015381e-05
2.605341e-05
3.5326615e-05
3.3493603e-05
2.4944985e-05
2.1229617e-05
2.1976774e-05
2.3689568e-05
2.3804779e-05
2.1508958e-05
1.4983848e-05
1.0450674e-05
9.5705267e-06
1.0392506e-05
1.1866926e-05
1.2218809e-05
1.096852e-05
9.0771929e-06
6.8529099e-07
2.1020871e-06
3.3256262e-06
4.5571574e-06
6.8686436e-06
1.5118516e-05
3.2845626e-05
4.3178959e-05
3.9680444e-05
2.9160767e-05
2.5820689e-05
2.8163358e-05
3.194295e-05
3.2649095e-05
2.8705397e-05
1.8472851e-05
1.2691282e-05
1.2171763e-05
1.2873624e-05
1.3927645e-05
1.3369629e-05
1.1185149e-05
9.9722321e-06
6.284631e-07
2.4322537e-06
3.8787097e-06
5.3704952e-06
8.2310504e-06
1.6040837e-05
2.7119939e-05
3.9706508e-05
4.5979961e-05
3.4548418e-05
3.0975949e-05
3.4230364e-05
3.8330914e-05
3.8882419e-05
3.355698e-05
2.1663459e-05
1.634406e-05
1.6736523e-05
1.8815411e-05
1.9790966e-05
1.6671134e-05
1.2132512e-05
1.1465569e-05
8.7026227e-07
2.6296977e-06
4.7818339e-06
6.4625471e-06
9.6905378e-06
1.7306397e-05
3.0509092e-05
4.271941e-05
5.5375414e-05
4.3920842e-05
3.8850855e-05
4.1681842e-05
4.6268217e-05
4.5261288e-05
3.6320022e-05
2.4477147e-05
2.2652766e-05
3.0405509e-05
3.4500137e-05
3.0304886e-05
1.889199e-05
1.4063957e-05
1.3435619e-05
1.9903972e-06
5.7934029e-06
6.5026699e-06
8.4761911e-06
1.1014213e-05
2.0718139e-05
4.3836962e-05
5.8491767e-05
6.1002607e-05
5.7128714e-05
5.7607188e-05
6.2558973e-05
7.4486178e-05
6.5965053e-05
4.3159118e-05
3.5259662e-05
3.623914e-05
3.9118483e-05
3.9509096e-05
3.43218e-05
2.1550003e-05
1.7917722e-05
1.7283544e-05
3.9635099e-06
1.1339376e-05
9.9815074e-06
1.0161115e-05
1.2264055e-05
1.9311372e-05
4.3425951e-05
6.3805907e-05
6.7532364e-05
7.0005384e-05
7.3277693e-05
8.5250581e-05
9.8815462e-05
8.4254178e-05
5.2757601e-05
4.1126221e-05
3.7618817e-05
4.1263585e-05
4.4647301e-05
3.4844071e-05
2.6030917e-05
2.4150541e-05
2.4379379e-05
4.0331991e-06
1.74205e-05
1.9335093e-05
1.5434805e-05
1.4137867e-05
1.8713327e-05
4.0089359e-05
6.6423681e-05
7.52387e-05
8.2192836e-05
8.8306151e-05
0.00010286208
0.00010849103
8.8798303e-05
5.460115e-05
4.436075e-05
4.2126988e-05
4.9272212e-05
4.455075e-05
3.6752014e-05
3.372369e-05
3.5529083e-05
2.5972392e-05
4.0624577e-06
2.336432e-05
1.6860584e-05
2.3972508e-05
2.1113581e-05
2.0299962e-05
3.5943617e-05
6.8940288e-05
8.3061082e-05
9.4201144e-05
0.00010106284
0.00011051751
0.00011051306
9.292136e-05
6.7463947e-05
6.1432854e-05
5.9402854e-05
5.2224646e-05
4.5452307e-05
4.2332505e-05
4.2819921e-05
3.6875449e-05
2.5181723e-05
6.234457e-06
3.6449979e-05
3.894367e-05
3.5372121e-05
3.6995408e-05
2.4705644e-05
3.4225822e-05
6.1847861e-05
8.5279109e-05
9.7711301e-05
0.00010557289
0.00011415838
0.00011395838
0.00010104241
8.4792853e-05
7.6507165e-05
6.9801279e-05
5.4750114e-05
5.005723e-05
4.7141744e-05
4.2829065e-05
3.4154791e-05
2.6900494e-05
9.8255644e-06
4.999163e-05
6.4318518e-05
7.0540594e-05
6.5739738e-05
4.5848311e-05
3.6510879e-05
4.9766444e-05
8.0940103e-05
9.8928633e-05
0.00011073782
0.00011984749
0.00011945875
0.00010801337
9.0702079e-05
8.2123811e-05
7.3797286e-05
5.791704e-05
5.1067986e-05
4.5766237e-05
3.9845635e-05
3.206377e-05
2.920738e-05
1.0148161e-05
6.268338e-05
8.4501444e-05
9.4535856e-05
9.2262234e-05
8.0530253e-05
4.7954933e-05
4.9721095e-05
7.0205779e-05
0.00010027799
0.0001176003
0.00012784418
0.00012635521
0.0001104491
8.9872662e-05
8.2374207e-05
7.468063e-05
5.9046163e-05
4.9641894e-05
4.3301725e-05
3.5527103e-05
3.2530916e-05
3.1433753e-05
7.5560961e-06
6.6561852e-05
9.0320387e-05
0.00011406928
0.00012065256
0.00011700008
7.7825835e-05
5.5597021e-05
6.7077704e-05
9.7316388e-05
0.00012229833
0.00013211267
0.0001285434
0.00010530167
8.4374136e-05
7.937658e-05
7.5119653e-05
6.059185e-05
4.7009312e-05
3.9474113e-05
3.6453927e-05
3.5086328e-05
3.5774974e-05
6.6224985e-06
8.6288836e-05
9.4483493e-05
0.00010672323
0.00014952672
0.00012765522
7.9050585e-05
5.7503553e-05
6.7072037e-05
9.83405e-05
0.00012583843
0.0001337983
0.00012836132
0.00010029251
8.1989486e-05
7.7254634e-05
7.4415475e-05
6.0762872e-05
4.4354727e-05
3.9482582e-05
3.7445107e-05
3.6851524e-05
4.0481927e-05
8.2898147e-06
0.00010717934
0.00012772062
0.00010522318
0.00011453751
0.00012624306
7.6308059e-05
6.332057e-05
7.5230264e-05
0.00010778655
0.00013016251
0.00013594626
0.00012219474
8.7744705e-05
7.5370052e-05
7.2312452e-05
6.6743195e-05
4.8181645e-05
4.0296019e-05
3.8445971e-05
3.8426977e-05
4.1354267e-05
4.7551458e-05
7.8330278e-06
0.0001106495
0.00012728805
0.00013151618
0.00010482808
0.00010353631
7.5821941e-05
6.677822e-05
7.7985208e-05
0.00010769724
0.00013058283
0.00013683711
0.00012893929
9.8330835e-05
7.9325486e-05
7.3544484e-05
6.7614269e-05
5.2052515e-05
4.1454699e-05
3.8446472e-05
3.8135294e-05
4.0661912e-05
4.693573e-05
7.7142457e-06
0.00010223606
0.00011733855
0.00010901019
9.4901677e-05
8.3946681e-05
7.5296589e-05
7.1886375e-05
8.3771594e-05
0.00011148566
0.00013254716
0.00013845552
0.00013280252
0.00010973842
8.6840335e-05
7.7956752e-05
7.0862433e-05
5.7105757e-05
4.5621883e-05
4.0033773e-05
3.8615123e-05
3.898887e-05
4.3019035e-05
6.8446586e-06
7.4542315e-05
8.2534739e-05
8.7980015e-05
9.3608092e-05
9.1465517e-05
7.8170116e-05
7.8069743e-05
9.0932454e-05
0.00011749784
0.00013582645
0.00014128228
0.00013603458
0.0001175023
9.4567066e-05
8.3339007e-05
7.6704377e-05
6.3870499e-05
5.1120609e-05
4.3418536e-05
4.0110686e-05
3.9827295e-05
4.0963326e-05
6.5707544e-06
8.280596e-05
7.3595156e-05
8.0617708e-05
0.00010609453
9.3463208e-05
8.6366004e-05
8.6213322e-05
0.00010011396
0.0001236182
0.00013951353
0.00014468497
0.00014091171
0.00012530137
0.00010277461
8.9465547e-05
8.2255882e-05
7.0531068e-05
5.7681571e-05
4.7510286e-05
4.2312914e-05
4.050682e-05
4.009606e-05
6.5754879e-06
9.1641248e-05
0.00011145597
8.7355571e-05
9.1011433e-05
0.00010050021
9.692116e-05
9.7668391e-05
0.00011127511
0.00013028926
0.00014398581
0.00014858979
0.00014539514
0.00013303379
0.00011130185
9.6463389e-05
8.7820993e-05
7.6814711e-05
6.4203818e-05
5.295901e-05
4.5145793e-05
4.1591024e-05
4.0226802e-05
6.5237521e-06
7.8977238e-05
0.00012036597
0.00012554899
0.00010806214
9.464603e-05
0.00010759111
0.00010940105
0.00012171667
0.00013875689
0.00015036039
0.00015410674
0.00015076398
0.0001402514
0.00011959957
0.00010338491
9.3663917e-05
8.2977115e-05
6.9882328e-05
5.8534464e-05
4.9316917e-05
4.3963179e-05
4.1087708e-05
5.966579e-06
6.6709125e-05
0.00011398073
0.00013346671
0.00013395949
0.00010958268
0.00010833137
0.00012197411
0.00013079865
0.00014534149
0.00015640995
0.00016046755
0.00015788331
0.00014911665
0.00012976144
0.00011175885
0.00010011822
8.9674391e-05
7.6481522e-05
6.5044525e-05
5.5354998e-05
4.8042329e-05
4.2872492e-05
5.472037e-06
5.5034098e-05
9.5634843e-05
0.0001173777
0.00013798612
0.00014142916
0.00013637603
0.00013558948
0.0001396476
0.00014855509
0.00015976346
0.0001659022
0.00016513849
0.00015968942
0.0001446381
0.00012531288
0.00010994621
9.8964623e-05
8.6526895e-05
7.3158149e-05
6.3865261e-05
5.4523863e-05
4.7267992e-05
5.5747627e-06
5.0106506e-05
8.7412609e-05
0.00012255397
0.0001462535
0.00015481344
0.00015288045
0.00015075942
0.00015160014
0.00015582333
0.00016375207
0.00017058139
0.00017257063
0.00017035713
0.00016166035
0.00014344057
0.00012551416
0.00011150629
9.8932526e-05
8.4257469e-05
7.2463148e-05
6.363572e-05
5.40183e-05
5.5639515e-06
5.2904031e-05
8.7372001e-05
0.00011633954
0.00013861862
0.00015627718
0.00016517942
0.00016699464
0.00016723859
0.00016947133
0.00017390874
0.00017878315
0.00018155731
0.00018065972
0.00017599095
0.00016413906
0.00014560018
0.00012815706
0.00011311689
9.8590063e-05
8.3443623e-05
7.3483323e-05
6.2288439e-05
5.144896e-06
5.8640968e-05
9.6057116e-05
0.00012212483
0.00013864666
0.00015278285
0.00016695356
0.00017777821
0.00018285685
0.00018567726
0.00018931939
0.00019289386
0.00019508387
0.00019465339
0.000191112
0.00018403918
0.00017040845
0.00015186044
0.00013374558
0.00011740242
0.00010033226
8.695928e-05
7.1448428e-05
4.8626594e-06
5.6569902e-05
0.00010077556
0.00013015176
0.00014663723
0.00015910512
0.00016996653
0.00018097672
0.0001914808
0.00019949355
0.00020476273
0.00020883736
0.00021155866
0.00021203028
0.00020970972
0.00020505741
0.00019676587
0.00018238531
0.00016350534
0.00014470202
0.00012453026
0.0001089163
8.6580156e-05
4.8079542e-06
3.900389e-05
7.7916949e-05
0.00012269443
0.00014855861
0.00016388959
0.00017690258
0.0001885878
0.00019911086
0.00020831694
0.00021699449
0.00022359879
0.00022849879
0.00023117458
0.00023067969
0.00022814033
0.00022277709
0.00021361685
0.00019878193
0.00018068589
0.00015765628
0.0001417441
0.00011094908
4.8135591e-06
2.7853824e-05
4.6710302e-05
8.1897585e-05
0.00012447
0.00015699337
0.0001762224
0.00019168146
0.00020569838
0.00021893583
0.00022983312
0.00023891504
0.00024577264
0.00025077042
0.00025327429
0.00025224593
0.00024931135
0.00024310654
0.00023355645
0.00022001727
0.00019889743
0.00018284037
0.00014838437
5.0373545e-06
2.2792031e-05
3.7633684e-05
5.8520254e-05
8.6821697e-05
0.00012159415
0.00015613609
0.00018375415
0.00020327574
0.00021930126
0.00023534601
0.0002499561
0.00026179344
0.00027118472
0.00027723472
0.00027913951
0.00027806956
0.00027503174
0.00026837291
0.00025927488
0.00024485263
0.00023001142
0.00019650107
5.2502339e-06
2.6069255e-05
4.0797394e-05
6.2161884e-05
8.7153193e-05
0.00010838032
0.0001316345
0.00015440981
0.00018063597
0.0002053914
0.00022724775
0.00024577098
0.00026364311
0.0002796427
0.00029246647
0.00030200318
0.00030602042
0.00030593747
0.00030341886
0.00029805037
0.00028845468
0.00027755006
0.00025138207
5.2916843e-06
3.2438776e-05
5.8757313e-05
8.8985111e-05
0.00011387349
0.00013319535
0.00014808908
0.00015789623
0.00016750914
0.00018051877
0.00019869096
0.00022096434
0.00024462281
0.00026846481
0.00028940256
0.00030762423
0.00032140097
0.00032953044
0.00033216094
0.00033131913
0.00032739769
0.00032156826
0.00030464233
5.3190693e-06
4.5133159e-05
8.8660145e-05
0.00013310729
0.00016569394
0.00018246854
0.00018944802
0.00019521517
0.00019357789
0.00017920788
0.00018230892
0.00020124633
0.00021488301
0.00023385353
0.000258212
0.00028552111
0.00031291204
0.00033380503
0.00034757297
0.00035508134
0.00035709426
0.0003565896
0.00034794599
5.2809134e-06
5.993367e-05
0.00011908961
0.00017454576
0.00021485064
0.00023790328
0.00024536746
0.00024292508
0.00023664185
0.00022723788
0.00021752608
0.00021134665
0.00021035433
0.00021514623
0.00022638553
0.00024434542
0.000268552
0.00029948518
0.00033091607
0.00035651954
0.00037195792
0.00038033835
0.0003861601
5.200827e-06
7.0284342e-05
0.00014179502
0.00020763284
0.00025552296
0.00028428575
0.00029652534
0.00029573485
0.00028494645
0.00026959066
0.00025483184
0.00024205138
0.00023216051
0.00022600057
0.00022422076
0.00022799156
0.00023820714
0.00025554031
0.00027955093
0.00030950306
0.00034278849
0.00037250575
0.00039530437
5.0997959e-06
7.4930593e-05
0.00015481046
0.00022938164
0.00028519885
0.00032104429
0.00034000871
0.00034581491
0.00034028403
0.00032508179
0.00030437686
0.00028461332
0.00026894849
0.00025746012
0.00025035746
0.00024678333
0.00024718375
0.00025221831
0.00026231217
0.00027766131
0.00029885369
0.00032370858
0.00035809392
5.0210625e-06
7.6227386e-05
0.00015957149
0.00023911342
0.00030136251
0.00034477718
0.00037211877
0.00038736706
0.00039236338
0.00038850794
0.00037695281
0.0003585946
0.00033729656
0.00031672894
0.00030023038
0.0002893014
0.00028309131
0.00028203974
0.00028604493
0.00029432806
0.00030537326
0.00031939913
0.00034071224
4.9543724e-06
7.562767e-05
0.00015902836
0.00024054033
0.00030660854
0.00035531256
0.00038949016
0.00041282398
0.00042794321
0.00043591924
0.00043772192
0.00043407087
0.00042583428
0.00041422807
0.00039988204
0.0003844608
0.00036989717
0.00035758138
0.00034847688
0.0003450541
0.0003473645
0.00035424751
0.0003673542
4.8807476e-06
7.2608599e-05
0.00015335694
0.00023408788
0.00030284044
0.00035628714
0.00039581948
0.00042448692
0.00044553537
0.00046062541
0.00047127003
0.00047820554
0.0004819455
0.00048294172
0.00048165553
0.00047851229
0.00047417176
0.00046918253
0.00046365469
0.00045623826
0.00044845309
0.00043427334
0.00038627932
4.8235343e-06
6.9201347e-05
0.00014552236
0.00022296667
0.00029017403
0.00034492066
0.00038786406
0.00042117884
0.00044737547
0.00046801784
0.00048406136
0.00049673282
0.00050675549
0.00051454948
0.0005204471
0.00052508383
0.00052882065
0.00053200752
0.00053483751
0.00053709961
0.00053839457
0.00050033082
0.00045098719
4.7781689e-06
6.6232346e-05
0.00013853566