/*--------------------------------*- C++ -*----------------------------------*\
| =========                 |                                                 |
| \\      /  F ield         | OpenFOAM: The Open Source CFD Toolbox           |
|  \\    /   O peration     | Version:  2406                                  |
|   \\  /    A nd           | Website:  www.openfoam.com                      |
|    \\/     M anipulation  |                                                 |
\*---------------------------------------------------------------------------*/
FoamFile
{
    version     2.0;
    format      ascii;
    arch        "LSB;label=32;scalar=64";
    class       volScalarField;
    location    "145";
    object      omega_0;
}
// * * * * * * * * * * * * * * * * * * * * * * * * * * * * * * * * * * * * * //

dimensions      [0 0 -1 0 0 0 0];

internalField   nonuniform List<scalar> 
20580
(
3.5531044
2.6890971
2.1929264
1.8627111
1.6288621
1.4506899
1.3129942
1.2030612
1.1108196
1.0336383
0.96795132
0.91097109
0.86327562
0.82081117
0.78429863
0.75135199
0.72407522
0.69959953
0.67853107
0.66242322
0.64621703
0.63091896
0.61778184
0.61099656
0.60833948
0.61020372
0.61389376
0.6177443
0.62493114
0.6447674
0.67793028
3.5606763
2.687302
2.1919106
1.8654051
1.6340303
1.4577466
1.3188417
1.2081788
1.1155133
1.0374212
0.97210373
0.91506932
0.86700891
0.82509361
0.78775428
0.75532976
0.72734447
0.70271333
0.6826558
0.66636703
0.65103196
0.63763498
0.62265679
0.61161319
0.6092769
0.61073471
0.61602115
0.62094814
0.6257367
0.63960996
0.66986608
3.5601985
2.6801446
2.1858207
1.8637939
1.6340313
1.4599615
1.3222404
1.2103357
1.118072
1.0408978
0.97520663
0.9186829
0.87045724
0.8287034
0.7917931
0.75963228
0.73219979
0.7072748
0.68761132
0.67067503
0.65476972
0.64213023
0.62797892
0.61392667
0.60913768
0.60968897
0.61429101
0.61834053
0.62293382
0.63291245
0.66422382
3.559394
2.6649453
2.166988
1.8534314
1.628854
1.4587975
1.3222443
1.2121916
1.120798
1.0439582
0.9782102
0.9211233
0.8735248
0.83047096
0.79604608
0.76267852
0.73777188
0.71209967
0.69558863
0.67717178
0.6634694
0.64970956
0.63902493
0.62212127
0.61270063
0.61195126
0.61514455
0.61817206
0.6191079
0.62234903
0.64259882
3.5616105
2.6639502
2.1553536
1.8336127
1.6118923
1.4498001
1.3188301
1.2120959
1.1221773
1.0457658
0.98139764
0.9243948
0.87755911
0.83333722
0.79890609
0.76545768
0.74063733
0.71608296
0.69999485
0.68359836
0.67084104
0.66133579
0.65034622
0.64031806
0.62806943
0.62169403
0.6223858
0.62523812
0.62550455
0.6263565
0.63485424
3.5690564
2.6720646
2.155773
1.8294162
1.6003587
1.4359231
1.3079017
1.2066092
1.1198567
1.0447135
0.98239949
0.92606001
0.88044342
0.8374698
0.80181475
0.7689527
0.74215702
0.71892452
0.70127624
0.68604895
0.67374774
0.66681684
0.65833871
0.65086217
0.6451685
0.6428243
0.64290513
0.64820062
0.65207335
0.65185526
0.64849814
3.5923793
2.6904305
2.1605818
1.8302604
1.5969191
1.4266571
1.2939755
1.1923258
1.1094666
1.0391053
0.98025594
0.9259276
0.88105581
0.8404705
0.80540233
0.77285753
0.74476435
0.72159179
0.70282041
0.68674607
0.67444786
0.66701263
0.65872429
0.65105777
0.64676979
0.64695825
0.64700187
0.65460761
0.66511526
0.68183937
0.68184126
3.6815305
2.7428288
2.1836347
1.8369683
1.5982362
1.4227056
1.2872548
1.1832486
1.0993818
1.0294737
0.97418852
0.92317162
0.88019704
0.84283154
0.80880338
0.7794549
0.75115658
0.7271003
0.7065531
0.68899513
0.67563205
0.66695688
0.65802895
0.65076472
0.64513542
0.64415508
0.64322098
0.64685327
0.6582007
0.67943606
0.69194237
3.807627
2.9009082
2.2723859
1.8800657
1.6172226
1.4295576
1.2897254
1.1829357
1.0951007
1.0225015
0.96781496
0.91944771
0.87839449
0.84307217
0.81264978
0.78584683
0.76134057
0.74024337
0.71860973
0.69871206
0.68178935
0.66987077
0.66012637
0.65336358
0.6466573
0.64387693
0.64337581
0.64453943
0.65172676
0.66569506
0.68417006
3.7161287
2.9584921
2.4161822
2.0212592
1.7027455
1.475226
1.3133526
1.1919569
1.0980539
1.0220348
0.9615269
0.91157591
0.87120849
0.83919995
0.8111662
0.78605377
0.76373099
0.74631956
0.72819464
0.71349457
0.69933556
0.68531795
0.67222165
0.6631754
0.65509869
0.64883866
0.64933295
0.65087033
0.65831452
0.66970664
0.68600125
3.5860703
2.8888552
2.4139328
2.0858378
1.8409064
1.6202631
1.4145559
1.248936
1.1300623
1.0390507
0.96911777
0.91393775
0.86934295
0.83164124
0.80039237
0.7751788
0.75285751
0.73653938
0.72165078
0.71130946
0.70295898
0.69152148
0.68478837
0.67867481
0.67418028
0.66528689
0.66520373
0.66790663
0.67570653
0.68943147
0.70091882
3.6474006
2.8554213
2.3682519
2.0511831
1.8298123
1.6582595
1.5265917
1.3978917
1.2691262
1.1448544
1.0374138
0.95944579
0.90012972
0.85302026
0.81366591
0.78146268
0.75480915
0.73232918
0.71316901
0.69938792
0.69180806
0.68198798
0.6776494
0.67771098
0.67527286
0.6695516
0.66908793
0.67337796
0.67948136
0.68902759
0.70379018
3.8108153
2.9385104
2.3921509
2.0325998
1.7883053
1.6119813
1.4979919
1.4003022
1.3223267
1.2565633
1.1947301
1.1280524
1.0635154
1.0007765
0.94234847
0.88720219
0.83439282
0.79021855
0.75441416
0.72611201
0.70638644
0.68759246
0.67753409
0.67526438
0.6715562
0.66508949
0.6626859
0.66756961
0.67294522
0.67832569
0.6885849
3.7248376
2.9190771
2.399567
2.0504606
1.7947217
1.6080496
1.454196
1.3514272
1.2698197
1.2213512
1.1819872
1.1502214
1.1273424
1.1050539
1.0822225
1.0525714
1.0234018
0.98469394
0.94047657
0.89429039
0.84797926
0.80202587
0.75485249
0.72613247
0.70440373
0.68635298
0.67319897
0.67291939
0.67735342
0.6811312
0.68535918
3.6297388
2.7977376
2.3116104
2.0105493
1.7825405
1.6053512
1.4554895
1.3409286
1.2470222
1.1694123
1.1164704
1.081699
1.0587248
1.0444701
1.0355545
1.0225059
1.0112032
0.99372913
0.97612889
0.95953706
0.94202507
0.92425564
0.90227137
0.88421318
0.85448994
0.82537305
0.78722798
0.76422253
0.74138429
0.73508053
0.72083233
3.6392894
2.7929593
2.2720995
1.9461428
1.7238839
1.5585686
1.4293309
1.3199339
1.2259024
1.1491339
1.0859774
1.0363086
0.99319139
0.96176214
0.93365527
0.91602104
0.90216631
0.89442519
0.88984341
0.88666113
0.88582644
0.88756075
0.8861607
0.88267979
0.8817489
0.87992216
0.87414053
0.86781737
0.86269075
0.86358161
0.85132815
3.6235538
2.7880412
2.2730139
1.9369533
1.7008485
1.5267035
1.3941161
1.289055
1.1996738
1.1260041
1.0648496
1.0126778
0.9683856
0.92926328
0.89789751
0.86907158
0.84536737
0.8249525
0.80816058
0.79702959
0.78405759
0.78315017
0.78771479
0.79299101
0.80386328
0.81947587
0.833646
0.84041268
0.84497629
0.85143426
0.85907253
3.6167367
2.771088
2.2632975
1.9303516
1.6949044
1.5173714
1.3811894
1.2738192
1.1864553
1.1140357
1.05411
1.0018774
0.95891758
0.91838855
0.88693014
0.85612046
0.83046383
0.80582103
0.78670742
0.7686801
0.7522965
0.7412884
0.73488377
0.72755693
0.7244502
0.72784019
0.73431497
0.73929616
0.74754551
0.75482149
0.77889053
3.6220688
2.7905054
2.2785097
1.947415
1.7099577
1.5268466
1.3882312
1.2769689
1.1891646
1.1151251
1.0536557
1.0016339
0.95775129
0.91819774
0.88499293
0.85469415
0.82816013
0.80336158
0.78386197
0.76519425
0.74808625
0.73588568
0.72733308
0.71785886
0.70893816
0.70667988
0.70953879
0.71083186
0.71027444
0.71106442
0.71765469
3.6203038
2.8224343
2.3252924
1.993066
1.7551112
1.5658484
1.4267908
1.3117178
1.2247871
1.1436196
1.0778845
1.0258359
0.98112805
0.94117403
0.90570381
0.87349833
0.84463225
0.81829322
0.79757978
0.77922985
0.76354198
0.75247431
0.74558018
0.73856965
0.73158461
0.73237117
0.73683658
0.74199025
0.74320688
0.74378473
0.74308261
3.816991
3.0926592
2.573832
2.2030446
1.9444341
1.7206113
1.5769229
1.4635864
1.3778649
1.2846697
1.2269932
1.1843973
1.1500715
1.1189935
1.0866905
1.0493129
1.0105741
0.97809
0.95830999
0.94462377
0.93116291
0.92306643
0.92002312
0.91340004
0.90357398
0.90085943
0.90474751
0.90981202
0.90820631
0.90176108
0.8801333
3.9486904
4.0994805
4.0292528
3.7299383
3.5162522
3.1782786
2.9876091
2.8895927
2.7558345
2.5231404
2.5624795
2.4925278
2.4599078
2.3643976
2.2869871
2.2122805
2.1457821
2.0877203
2.0789074
2.0714342
2.0499388
2.0373836
2.0371754
2.016553
1.9763985
1.9430702
1.9335087
1.9264458
1.8956794
1.8530232
1.7641688
12.806759
12.552429
12.673463
11.668628
11.555155
10.537236
10.29659
9.4938637
9.3855654
8.7816913
8.3357322
8.1326041
7.820077
7.6653491
7.3929505
7.2239357
7.0146446
6.8167799
6.6523316
6.5091437
6.3305413
6.203871
6.093663
5.9870555
5.8408851
5.7220552
5.6462484
5.575111
5.4751839
5.3406356
5.2505118
5.5012422
1.8443673
0.91070353
0.75576911
0.72592481
0.77312669
0.86049539
0.85899266
0.75366528
0.7027874
0.70103195
0.71999953
0.72311626
0.70970839
0.69618698
0.70602828
0.70436669
0.67755323
0.66388953
0.66668725
0.67987612
0.68649806
0.68953543
6.1005468
2.0766733
0.97904351
0.78128583
0.73321683
0.76080673
0.8537896
0.88354263
0.80503989
0.72949603
0.71980875
0.74347153
0.75257906
0.7427153
0.71896695
0.72410834
0.73586884
0.72566873
0.69517139
0.68886166
0.69714367
0.70958825
0.70549093
6.6553531
2.209078
1.0484408
0.81871452
0.74873803
0.76161468
0.84434738
0.89991125
0.8668594
0.77167731
0.73966217
0.75877529
0.77623309
0.77354861
0.7527175
0.75213933
0.77106302
0.76733261
0.73633777
0.71185635
0.71547692
0.73014193
0.73653385
7.2955518
2.3754313
1.1166617
0.86775276
0.78610483
0.77876039
0.85445412
0.92706442
0.91217881
0.82962635
0.76380836
0.7745298
0.8089338
0.81333712
0.81092372
0.7929685
0.80632454
0.80682452
0.78756191
0.75124171
0.74165118
0.75383291
0.76184035
8.2042986
2.7603156
1.2473251
0.94697556
0.84083049
0.81366155
0.87476621
0.9670204
0.95855819
0.89023725
0.80942843
0.80119945
0.83696221
0.84606362
0.85290099
0.83734869
0.83723298
0.84448314
0.83128695
0.8003329
0.77858827
0.78807343
0.79688385
9.2059835
3.2230111
1.4276652
1.0584335
0.91316832
0.85610361
0.89341272
1.012189
1.0105449
0.96014842
0.8660742
0.83873227
0.87878983
0.89144067
0.88954297
0.88412842
0.86352416
0.8830173
0.87894402
0.86177547
0.82899681
0.82421066
0.82755874
10.035143
3.6616693
1.6176281
1.1706588
0.98958903
0.91050654
0.92547728
1.0468225
1.057175
1.0333015
0.95635668
0.89629529
0.93054424
0.95573729
0.9425788
0.94004865
0.91820362
0.92362744
0.93823498
0.92938793
0.89980804
0.87170338
0.87310704
10.842546
4.0732506
1.8611848
1.3466498
1.1127961
0.99925631
0.98224818
1.1021143
1.1298617
1.1167527
1.0709874
0.98189762
0.98388168
1.0124966
0.9989903
0.99936109
0.99202685
0.97859131
1.0001191
0.99377751
0.96211855
0.92573206
0.90769761
12.131827
4.7787133
2.241126
1.5997566
1.3002015
1.1500694
1.1100611
1.2340488
1.2390083
1.2037387
1.1469834
1.0423937
1.0143488
1.0519561
1.0522557
1.0445081
1.0552174
1.0452313
1.0626608
1.0596046
1.0185809
0.96793425
0.93546712
13.686834
5.7015426
2.7204337
1.9003944
1.5349091
1.3430567
1.2648971
1.3816039
1.3547812
1.2815694
1.2040454
1.0981669
1.052765
1.0978018
1.1140318
1.1045657
1.1175532
1.1138975
1.1183092
1.1313564
1.1051726
1.0449746
0.99929458
15.017901
6.5766591
3.3190785
2.2725888
1.7595824
1.5122554
1.3969767
1.5104415
1.484391
1.392039
1.3053396
1.2131278
1.1406486
1.1878003
1.2158459
1.2028278
1.199761
1.190416
1.1818095
1.2027585
1.1966349
1.1447319
1.0845844
15.786499
7.3366947
3.8276397
2.5904334
2.01627
1.7502188
1.6054385
1.7526447
1.7366702
1.6186489
1.4975504
1.3930483
1.3001896
1.3073227
1.3384812
1.3244872
1.2921639
1.287517
1.2658595
1.2746308
1.2780803
1.2603432
1.1875971
16.186366
7.9816266
4.167864
2.8785377
2.3894448
2.1826843
2.020864
2.1328744
2.1085074
1.9587796
1.6979209
1.5628068
1.4540147
1.4166398
1.4436575
1.42523
1.3794372
1.3701708
1.3496346
1.3491034
1.3742251
1.3711845
1.3103983
16.945092
8.5976673
4.5401458
3.1947948
2.7286756
2.5369237
2.368382
2.4205903
2.384484
2.2050762
1.8448211
1.6788271
1.5572567
1.4969931
1.5185137
1.5045714
1.4649708
1.4554929
1.4484425
1.4422514
1.4786972
1.4784774
1.4235673
18.123759
9.7424625
5.1599514
3.5929895
3.0784765
2.8939289
2.7073034
2.74814
2.7018577
2.4566978
2.006661
1.8192827
1.683784
1.6071041
1.6196036
1.6137557
1.5715857
1.5417984
1.5420635
1.5339215
1.5800925
1.5835776
1.5398797
19.258147
10.902074
5.7501221
3.9790803
3.5628369
3.5435215
3.4103048
3.4844064
3.4213834
3.0413085
2.3715806
2.1498634
1.956033
1.8629548
1.8544507
1.8420399
1.7939645
1.6863637
1.664107
1.6418225
1.6837703
1.7051574
1.6726822
20.016484
11.993364
6.3102867
4.3414853
3.9510475
4.1795063
4.43999
4.5487847
4.2865195
3.4460762
2.678654
2.4514966
2.2885758
2.169132
2.1283373
2.1054503
2.0426509
1.9131056
1.9046014
1.862531
1.8767262
1.8713343
1.8006677
20.194265
12.687464
6.7787322
4.6360902
4.2421314
4.6200952
5.2222121
5.3724724
4.8879212
3.6929828
2.8150187
2.6091252
2.5298606
2.4067671
2.3362762
2.3238866
2.2843543
2.1421658
2.1658895
2.1461659
2.1447686
2.0992063
1.9612979
19.818393
13.178575
7.1171056
4.9073266
4.5676234
5.1351295
6.4536604
6.7880652
5.8405207
3.8345244
2.8997568
2.7381807
2.7204244
2.6024065
2.4976466
2.4697045
2.3678464
2.2293973
2.3413409
2.435803
2.4719212
2.4202213
2.2244201
19.090875
13.472082
7.4357135
5.2021409
4.9228634
5.6694089
7.6060269
8.0762045
6.751181
4.0564409
3.0672013
2.9492065
2.9768226
2.8968953
2.7412815
2.6390967
2.3905632
2.2696506
2.4455276
2.700173
2.7812539
2.6845946
2.3385629
17.983658
13.519553
7.6742066
5.4991411
5.317374
6.2525356
8.5498277
9.0224073
7.3673993
4.3364458
3.4545375
3.4338532
3.6045502
3.6162193
3.3558096
2.9574458
2.4571143
2.3651056
2.5952805
2.8917585
2.9541257
2.7809724
2.3228824
16.847191
13.492218
7.9216262
5.856222
5.764996
6.8612752
9.183064
9.5311363
7.7353875
4.7180708
3.983801
4.1395179
4.722723
4.8768017
4.4349815
3.3010477
2.6068781
2.5936009
2.8081348
3.0656721
3.0748156
2.7717532
2.4088444
15.481183
13.143451
8.2309
6.2603425
6.2206864
7.4260689
9.5173447
9.6638062
7.982012
5.1197855
4.4315584
4.7381091
5.4749986
5.6485293
5.0801163
3.5582551
2.8797595
2.9484829
3.2748222
3.4764138
3.3563267
2.7869117
2.5460708
13.999938
12.627623
8.7638266
6.7465739
6.6794545
7.7334249
9.4718159
9.5619652
8.2127351
5.5711343
4.8747964
5.2067599
5.9418421
6.0953967
5.3647629
3.8032514
3.4276717
3.8869517
4.3805049
4.3954523
3.6609989
2.9197163
2.8202474
12.579036
12.277093
9.7001114
7.4415963
7.1561302
7.9203029
9.2804495
9.2980967
8.3812569
6.236543
5.6376064
6.1248627
6.9660367
6.8791504
5.5145892
4.2918412
4.2912767
5.0147058
5.327642
5.0540375
3.7483169
3.1897753
3.1914263
12.364364
12.4538
10.925698
8.1517271
7.5593436
7.8988366
8.9678587
8.9828483
8.374063
6.8656042
6.5252934
7.0857909
7.9067394
7.4142717
5.5786686
4.7729731
4.8198574
5.500786
5.7282526
5.0761751
3.9890647
3.748682
3.7840292
14.810655
13.306047
12.719212
9.9542512
8.0826893
7.9351617
8.6370163
8.6468731
8.2439488
7.3478379
7.2556493
7.8159474
8.3354596
7.4720008
5.7745117
5.3221195
5.5219907
5.9650233
5.9424437
5.0021113
4.4049862
4.4933103
4.4770748
15.753799
12.822762
12.536893
11.790363
9.4552062
8.0915324
8.3428065
8.3850468
8.1138908
7.5040411
7.4496871
7.9469893
8.2209649
7.3182963
6.1791961
5.9645747
6.2523339
6.3981918
5.8263975
5.1789679
5.1344546
5.2990038
4.6176085
17.256045
12.167719
11.261029
11.566097
10.873185
8.583361
7.8932564
7.9638745
7.8215594
7.3609132
7.1710657
7.5242131
7.7112369
7.1509274
6.5484923
6.4528566
6.5994021
6.4200401
5.8584774
5.6254935
5.5534102
5.3442439
4.4404894
18.3439
12.848619
10.490605
10.381573
10.594857
9.6583986
7.9841914
7.4798448
7.3337139
7.0151346
6.8118234
7.0709687
7.228173
7.0111148
6.6573595
6.5919822
6.6505509
6.3640847
5.9244865
5.625699
5.3682414
4.8804584
4.567899
21.908172
14.076202
11.397874
10.386286
10.183867
9.8505287
8.4395587
7.3870899
7.0281694
6.7674384
6.6014408
6.782833
6.8924329
6.7577382
6.5047781
6.5010837
6.5055471
6.1716636
5.6881277
5.3247919
4.9864311
4.8388883
4.9044605
21.152545
12.773825
9.8256939
9.6044288
9.5485387
9.4611128
8.8174744
7.4426391
6.8892753
6.5507697
6.3691187
6.495086
6.5738678
6.3768462
6.0770376
6.140072
6.1528754
5.9111997
5.3960183
5.0225863
4.8864022
4.9375288
5.1756362
20.528678
11.485199
9.2989363
9.0028717
8.9567959
8.986001
8.5665438
7.264008
6.5702677
6.2001133
6.1063028
6.2213986
6.2187006
5.8563535
5.6039271
5.7390984
5.8690416
5.6774236
5.0930011
4.8961797
4.8885162
5.0931645
5.2915857
16.36945
8.0292223
7.85545
8.4051855
8.5772999
8.5054862
8.1308153
6.8202876
6.0090559
5.7144973
5.7417055
5.8856262
5.8481754
5.453537
5.3605961
5.5210264
5.6101152
5.1111024
4.8007465
4.7422586
4.8647908
5.0854103
5.3376088
15.800093
7.4968043
7.5682486
7.860578
7.9306597
7.8499733
7.2740039
6.062509
5.4885862
5.3726739
5.4800314
5.5890402
5.4196631
5.1823055
5.1631416
5.2420843
5.0259887
4.6263349
4.5543402
4.6559229
4.8874827
5.1814612
5.5854667
13.520034
6.3675498
6.606028
6.912366
7.0178972
7.0726141
6.7021737
5.6931519
5.1945386
5.1051143
5.1681658
5.2418989
5.1503115
4.9385294
4.9321326
4.9927798
4.8135353
4.4168235
4.2893654
4.357228
4.5619288
4.8641949
5.2615084
13.032671
5.927478
6.1010605
6.3394489
6.3857032
6.357876
5.9300173
5.2078539
4.9058274
4.8591504
4.9000556
4.9159423
4.8261755
4.6301909
4.6273589
4.6969869
4.662915
4.3749993
4.1571961
4.1537048
4.2465331
4.4635385
4.7847931
11.873511
5.2870596
5.4296756
5.7118846
5.7546147
5.6699229
5.1887145
4.722359
4.5916612
4.5939137
4.6329981
4.6329105
4.5426611
4.3615457
4.3355441
4.4000767
4.4160559
4.2973871
4.0410402
3.993867
4.0327868
4.155329
4.4066767
11.187388
4.7987949
4.8185218
5.1410845
5.1928978
5.085735
4.6687131
4.361399
4.2805663
4.3037607
4.3609875
4.3750741
4.3046714
4.1533243
4.1159763
4.1472893
4.1683919
4.1178112
3.9304323
3.8260121
3.8334246
3.8863755
4.0683421
10.435661
4.4048098
4.2144336
4.4986426
4.5900598
4.567799
4.2830028
4.0700945
4.0044723
4.027971
4.0842193
4.1014574
4.0510712
3.9324682
3.9036701
3.921487
3.9390347
3.9097393
3.7914495
3.6680156
3.6422055
3.658758
3.7729509
9.9279785
4.1312821
3.7525428
3.9467866
4.0406506
4.0657715
3.9276922
3.7724056
3.7202726
3.7505707
3.8180184
3.8334854
3.7905475
3.6881938
3.660602
3.6798964
3.7040897
3.6951134
3.6423135
3.5264474
3.4847881
3.4867561
3.5546539
9.5107364
3.925799
3.4051769
3.4850306
3.5696978
3.6083353
3.5732115
3.4793158
3.4282731
3.4473826
3.5207477
3.5651269
3.5419123
3.4717289
3.4379877
3.4507636
3.4861047
3.4908063
3.4720455
3.3928168
3.3410044
3.3363435
3.3845603
9.3507971
3.8363465
3.1647349
3.1447954
3.1755988
3.2078699
3.2258756
3.2042153
3.1632567
3.1585978
3.2038753
3.2713388
3.2900695
3.2694263
3.2480707
3.2577591
3.2930163
3.30937
3.3025728
3.262439
3.1990802
3.1832911
3.220483
9.3397438
3.6779421
2.9606573
2.898684
2.8628412
2.8498002
2.8765465
2.9080561
2.9099317
2.907995
2.9312932
2.9893774
3.0336519
3.0463861
3.0476932
3.0595613
3.0920758
3.1251361
3.1277662
3.1109662
3.0714954
3.0437611
3.0739715
9.2620512
3.3290139
2.6813301
2.665167
2.6307471
2.5754076
2.5742437
2.60229
2.6364609
2.6591872
2.6877648
2.7356399
2.7842095
2.815699
2.8322187
2.8477733
2.8773588
2.917228
2.9430328
2.945663
2.9369472
2.9207179
2.9506458
9.0589342
2.8178527
2.3209734
2.3832127
2.4151348
2.3815027
2.3449859
2.3514853
2.3749474
2.4080901
2.4437515
2.4863115
2.5319465
2.5726535
2.6047399
2.6313129
2.6639021
2.7088623
2.7536068
2.7817157
2.7925937
2.7944939
2.8285374
8.7712667
2.3975783
1.9843483
2.0918509
2.1839325
2.1862156
2.1598467
2.141403
2.1522263
2.1775556
2.2145427
2.2547533
2.2956164
2.3360755
2.3748981
2.4113202
2.4498816
2.4973279
2.5502789
2.5945622
2.6247809
2.6378531
2.6822513
8.5053239
2.3486606
1.7881535
1.8503595
1.9745491
2.0317502
2.0167719
1.9845062
1.96717
1.9767618
2.001953
2.0418766
2.0853109
2.1271526
2.1661715
2.2028736
2.2402833
2.2834614
2.3332044
2.3799248
2.4224061
2.4450271
2.5045377
8.3599274
2.7018748
1.7720343
1.6503896
1.7627343
1.8764252
1.9170226
1.8984593
1.8644845
1.8369159
1.8326573
1.8478472
1.8790175
1.9189346
1.9600122
1.9990173
2.0370816
2.0774197
2.1221012
2.1665966
2.2140892
2.2442862
2.3147903
8.6832729
3.5097877
1.9229902
1.5541975
1.5283124
1.6159116
1.7357111
1.7913917
1.7896625
1.7685446
1.7378554
1.7202901
1.7225144
1.7362661
1.7642003
1.7994254
1.8384993
1.8797492
1.923686
1.9676059
2.0157996
2.048416
2.1213868
8.9890375
3.6299274
1.9956432
1.4855881
1.3201734
1.3379242
1.4177018
1.5464341
1.6362579
1.6677167
1.6642013
1.6537233
1.6382624
1.6291614
1.6320968
1.6430975
1.6655918
1.6971733
1.7344451
1.7748459
1.820319
1.8536986
1.924815
9.3447983
3.4807112
1.896339
1.3411266
1.1397338
1.0983428
1.1297459
1.2137003
1.3293842
1.4337956
1.5027505
1.5360806
1.5478314
1.5465823
1.543007
1.541551
1.5451066
1.5564886
1.5785547
1.6074675
1.6436525
1.674694
1.7393831
9.5345157
2.8968172
1.585839
1.1516989
0.98149672
0.92394074
0.92933086
0.96698983
1.0466158
1.145025
1.2390316
1.3155589
1.3712284
1.4069051
1.427025
1.437374
1.4433536
1.4499934
1.4613392
1.4781945
1.5016558
1.5254545
1.577184
9.5946866
2.4390337
1.3651859
1.0127669
0.87158995
0.81657251
0.80808827
0.82514347
0.86930817
0.93801638
1.017169
1.0946395
1.1637146
1.2209248
1.2648687
1.2964866
1.3183641
1.3343308
1.3484815
1.3634964
1.3812592
1.3995434
1.4404573
9.5719404
2.2351034
1.255335
0.93628079
0.80900289
0.75709409
0.74264799
0.75027439
0.77509355
0.81747801
0.87359882
0.93664677
0.99914431
1.0567947
1.1071208
1.148724
1.1813713
1.2064253
1.226581
1.2445375
1.2627404
1.2800202
1.3169528
9.5058645
2.1650116
1.2043852
0.89661439
0.77411039
0.72309314
0.70605783
0.70752158
0.72286647
0.75006351
0.78809634
0.8348907
0.88579579
0.93670022
0.9850668
1.0286442
1.0656542
1.0956153
1.1195515
1.1393193
1.1573387
1.1732477
1.2066691
9.4219459
2.1332462
1.1807533
0.87464765
0.75156603
0.69880544
0.67911047
0.6764197
0.6855136
0.70397153
0.73054931
0.76450627
0.80435717
0.8469036
0.88918151
0.93002047
0.96844204
1.002697
1.0314872
1.0547781
1.0730518
1.086996
1.1153138
9.3417832
2.1226166
1.1750328
0.8639839
0.73635492
0.67941389
0.65568601
0.649322
0.65341435
0.6655829
0.68433526
0.70892901
0.73885182
0.77307527
0.80961966
0.84608108
0.88110052
0.91384109
0.94370481
0.97004015
0.99171111
1.0106542
1.0397014
9.2737655
2.1224127
1.1781258
0.86204061
0.72788139
0.66558182
0.63708466
0.62668956
0.62641341
0.63354185
0.64640643
0.66417618
0.68634152
0.71243518
0.74174169
0.77292861
0.80435134
0.83464165
0.86294785
0.88881364
0.91214237
0.93603329
0.96872992
9.2321825
2.1282236
1.1886684
0.86592466
0.72678547
0.65872936
0.62532005
0.61062387
0.60667732
0.60967212
0.61788309
0.63030896
0.64637697
0.66576347
0.68816199
0.71302982
0.73947691
0.76640713
0.79283546
0.81813516
0.84224456
0.86734021
0.89749973
9.2160193
2.1430129
1.2076732
0.87680479
0.73086561
0.65914734
0.62167369
0.6029427
0.59547839
0.59506203
0.5995227
0.60772623
0.61896861
0.63289744
0.64929762
0.66796567
0.68858928
0.71072682
0.73375062
0.75698176
0.77999732
0.80336969
0.82921314
9.2239738
2.1749311
1.2316097
0.89286502
0.74057986
0.66357178
0.62338873
0.60275204
0.59307907
0.5902968
0.59198128
0.59693381
0.60441719
0.61387953
0.62508551
0.63792044
0.65230597
0.6682633
0.6858205
0.70494449
0.72534577
0.74623892
0.76876142
9.2518416
2.2110766
1.2550906
0.90905094
0.7521139
0.67179197
0.62855872
0.60561946
0.5947807
0.59113146
0.59187764
0.59522357
0.6004497
0.60679946
0.61409171
0.62207467
0.6306657
0.64018389
0.65112457
0.66397824
0.67954743
0.69791069
0.72145403
9.2955165
2.2531795
1.2750823
0.92251963
0.76236045
0.68021214
0.63587113
0.61199291
0.60000402
0.59531219
0.59508988
0.59743487
0.60164592
0.60658702
0.61139158
0.61589417
0.62016248
0.6247514
0.63058868
0.63862216
0.6497261
0.65829179
0.66233397
9.3514388
2.2776065
1.2877872
0.93183855
0.77013006
0.6872476
0.64260928
0.6186929
0.60674885
0.60193537
0.6013624
0.60288538
0.60571337
0.60868912
0.6112081
0.61297177
0.61427821
0.61610009
0.61906505
0.62000329
0.61242324
0.59532714
0.58788062
9.4113977
2.2869311
1.2940382
0.93703861
0.7750884
0.69234366
0.64797887
0.62431917
0.61250504
0.6075749
0.60652155
0.60724304
0.6085499
0.60935398
0.60940541
0.60863166
0.60790699
0.60637237
0.59576222
0.57340855
0.56292329
0.5630682
0.58004013
9.4653202
2.2802713
1.2934962
0.93793746
0.77730543
0.69555411
0.65193878
0.62874389
0.61705039
0.61181889
0.60989558
0.60917098
0.60839583
0.60678044
0.60374117
0.6005776
0.59340323
0.57231792
0.5559837
0.55344239
0.55836699
0.56953976
0.61113076
9.507759
2.2665264
1.2888989
0.93625034
0.77740052
0.6972313
0.65470449
0.63207273
0.62038644
0.61455189
0.61128246
0.60848176
0.60474197
0.59930632
0.5936292
0.58069005
0.55741421
0.55216324
0.55291948
0.55726429
0.56803485
0.58090841
0.62841849
9.5334415
2.2466483
1.2779044
0.93148782
0.77620202
0.69802773
0.65678238
0.63477204
0.62295336
0.61607838
0.61081397
0.60510725
0.59740446
0.5893692
0.57176462
0.5477635
0.55206436
0.55551798
0.5587867
0.56380959
0.57457784
0.58671226
0.63109508
9.5405855
2.2181998
1.2653156
0.92593579
0.77462256
0.69886564
0.65888939
0.63721985
0.62482589
0.61642989
0.60856535
0.59878566
0.58795715
0.56787396
0.54359627
0.54596852
0.55738931
0.56052902
0.56345453
0.56751332
0.576568
0.58830092
0.62315934
9.5249988
2.1980038
1.2542828
0.92120403
0.77355476
0.70003883
0.66128984
0.63994849
0.62682085
0.61649648
0.60551467
0.59175002
0.57440341
0.54246144
0.53365426
0.55334623
0.5612863
0.56420205
0.56624445
0.5686497
0.57548591
0.58538243
0.61014238
9.4870729
2.1836392
1.2448907
0.91749379
0.77323776
0.70182322
0.66415721
0.64276339
0.62834655
0.61543322
0.60023135
0.58423059
0.54706171
0.52688499
0.53409542
0.55552933
0.56279198
0.56592786
0.56739117
0.56856802
0.57250273
0.57946795
0.59693623
9.4306073
2.1580974
1.2341573
0.91419628
0.77387688
0.70473449
0.66791688
0.64632278
0.63051627
0.61471207
0.59706709
0.5698015
0.52751
0.51856127
0.53352286
0.55340068
0.56154924
0.56540616
0.56677777
0.56741697
0.56906638
0.57312653
0.5837689
9.3555205
2.1427145
1.2264738
0.91249805
0.77558234
0.70842643
0.6725497
0.65072756
0.63315813
0.61392764
0.59338222
0.54335981
0.51547877
0.51370742
0.52845049
0.54462006
0.55516401
0.56151799
0.56376944
0.56450479
0.56493076
0.56692238
0.57255291
9.2635682
2.1238234
1.2190261
0.91178914
0.77886787
0.71395385
0.67866551
0.65581749
0.63569814
0.61401441
0.58251352
0.52610949
0.51032682
0.51061175
0.52025789
0.53201783
0.5428297
0.55119288
0.5558869
0.55817082
0.55915661
0.56045929
0.56314118
9.1588383
2.1073338
1.2126658
0.91243932
0.78363571
0.72078771
0.68637856
0.66319918
0.64083461
0.61594915
0.5629813
0.51778125
0.50981811
0.51006089
0.51381597
0.52004517
0.52828855
0.53581395
0.54164762
0.54548652
0.54817906
0.55066298
0.55200585
9.0452182
2.089419
1.2066489
0.91426282
0.78973893
0.72913368
0.69518103
0.66990772
0.6432503
0.61079729
0.54292008
0.51661716
0.51138882
0.51110128
0.51198283
0.51347389
0.51644707
0.52039127
0.52456538
0.52781224
0.53121281
0.53490326
0.53696834
8.8751829
2.0725959
1.2026074
0.91829663
0.79795719
0.73932345
0.70582489
0.67921622
0.65148383
0.60004939
0.5388831
0.5207772
0.51619018
0.51408383
0.51309349
0.5131115
0.51266046
0.5118032
0.51160818
0.51220572
0.51366474
0.51571026
0.51693074
8.6877157
2.0569085
1.2004451
0.92382166
0.80796224
0.75185852
0.7186348
0.68905707
0.65449934
0.58030651
0.54404436
0.53194127
0.52653278
0.52027594
0.51724637
0.51525026
0.51371435
0.51191475
0.50865514
0.50581766
0.50321647
0.5014033
0.50044862
8.5019647
2.0358047
1.1998904
0.93173434
0.81959346
0.7647655
0.73036334
0.69770864
0.64944294
0.58320373
0.5599285
0.55138854
0.54068963
0.53176717
0.52676508
0.52113906
0.51819388
0.51489026
0.51046173
0.50682398
0.50254961
0.49791627
0.49429772
8.3131475
2.0219772
1.2019856
0.941924
0.83303602
0.77939083
0.74353407
0.70733981
0.6418596
0.59483434
0.58095011
0.57338321
0.56123422
0.55180394
0.54381032
0.53438616
0.52905578
0.52250775
0.51652355
0.51182853
0.50577343
0.50016288
0.49519087
8.1244755
2.0107936
1.2084272
0.95438869
0.84754213
0.79425032
0.75617658
0.71409526
0.64500858
0.61394206
0.60318315
0.59498967
0.58238583
0.57426417
0.56474031
0.55509304
0.54702142
0.53765098
0.52937307
0.52133312
0.51395596
0.50736918
0.50063835
7.949281
2.0023801
1.2140453
0.96633569
0.86223904
0.80982934
0.76915479
0.71961238
0.65785727
0.63569254
0.62657528
0.61703374
0.60418099
0.59562713
0.5849382
0.57564166
0.56653717
0.55677753
0.54749915
0.53739941
0.52750253
0.51858538
0.5108324
7.8242753
2.0022708
1.2184842
0.97416802
0.87299027
0.82271709
0.78374463
0.73260133
0.67685007
0.65635037
0.64747508
0.63716081
0.62594569
0.61642725
0.60504468
0.59593594
0.58636707
0.5762684
0.56679423
0.55784456
0.54935202
0.5404814
0.53162739
7.6875611
2.0054816
1.2210162
0.97713786
0.87644664
0.82693552
0.79152994
0.74737272
0.69686855
0.67537279
0.6642749
0.65075998
0.63909052
0.62895714
0.61814294
0.60911392
0.60065184
0.59216617
0.58342057
0.57472938
0.56737956
0.56171657
0.55607035
7.5446629
2.0222007
1.2270412
0.97755048
0.87564809
0.82668689
0.79250999
0.75336313
0.71172681
0.68790182
0.67283585
0.65712742
0.6435732
0.63187669
0.62125021
0.61191821
0.60332844
0.59562154
0.58826971
0.58153439
0.57584914
0.57162112
0.56769301
7.4179639
2.0396428
1.2331832
0.97747841
0.87255305
0.82247793
0.78921269
0.75232964
0.71311325
0.68751212
0.67086895
0.65512053
0.64155808
0.62949548
0.61871863
0.60938002
0.60086754
0.59332143
0.58636553
0.58059685
0.57593369
0.5723657
0.56925226
7.209322
2.0519537
1.2372548
0.97342317
0.86452673
0.81174272
0.77704763
0.74218398
0.7060126
0.6788662
0.65963219
0.64352632
0.63040181
0.61911898
0.60907152
0.60031769
0.59280152
0.58656718
0.58102442
0.57644172
0.57276505
0.56955814
0.56586618
7.0032355
2.0872921
1.2512385
0.9709214
0.84455499
0.78165227
0.74317601
0.71086892
0.67916238
0.65060062
0.62897921
0.61355177
0.60219743
0.59359497
0.58674062
0.58107656
0.5765002
0.57271282
0.5693617
0.56630865
0.56348494
0.56096136
0.55867173
6.9747546
2.0979035
1.2669715
0.97554403
0.8415292
0.7664615
0.71914415
0.68442958
0.65501607
0.62927085
0.60816294
0.59179735
0.57951389
0.57053568
0.56405354
0.55942612
0.55624138
0.55413488
0.55288321
0.55216465
0.55162231
0.55070097
0.54856402
6.8266018
2.1003217
1.2912039
0.99127401
0.84815312
0.76854735
0.71836168
0.68217974
0.65312296
0.62827966
0.60727177
0.59022613
0.57676152
0.56632484
0.55834955
0.5523847
0.54803278
0.54501318
0.54316296
0.54239841
0.54273412
0.54455083
0.54761487
6.3496027
2.3409247
1.4478678
1.0878094