/*--------------------------------*- C++ -*----------------------------------*\
| =========                 |                                                 |
| \\      /  F ield         | OpenFOAM: The Open Source CFD Toolbox           |
|  \\    /   O peration     | Version:  2406                                  |
|   \\  /    A nd           | Website:  www.openfoam.com                      |
|    \\/     M anipulation  |                                                 |
\*---------------------------------------------------------------------------*/
FoamFile
{
    version     2.0;
    format      ascii;
    arch        "LSB;label=32;scalar=64";
    class       volScalarField;
    location    "145";
    object      rho;
}
// * * * * * * * * * * * * * * * * * * * * * * * * * * * * * * * * * * * * * //

dimensions      [1 -3 0 0 0 0 0];

internalField   nonuniform List<scalar> 
20580
(
1.0021858
0.99994004
1.0006615
1.0008691
1.0043592
1.001387
1.0024966
1.0030243
1.0019134
1.0031829
1.001943
1.0023751
1.0021484
1.0031664
1.0022365
1.0021043
1.0039453
1.0013248
1.0013012
1.005754
1.0019242
1.0002001
1.0034804
1.0051751
0.99767723
0.99740691
1.0051302
1.0025683
1.0015226
1.009992
1.0031693
1.0024361
0.99977401
1.000569
1.0004537
1.004522
1.0013229
1.0026289
1.0030159
1.0019087
1.0032195
1.0019063
1.0022721
1.002541
1.0031203
1.0016959
1.0027781
1.003897
0.99970146
1.0029319
1.0058468
0.99977288
1.0004545
1.0038262
1.0032621
0.99532467
0.99705981
1.0095009
1.007383
0.99774808
1.002424
1.0087561
1.0022863
1.0007499
1.0011451
1.0008003
1.0035979
1.0020193
1.0028813
1.0027491
1.0021897
1.0027647
1.0022564
1.0017549
1.0029579
1.0027946
1.0014715
1.0031192
1.0038966
0.99906648
1.0043383
1.0054338
0.99831913
1.0015411
1.0044805
1.0027655
0.99601719
0.99751948
1.0108071
1.0107685
0.99584351
0.99438434
1.0090492
1.0017881
1.002619
1.0020821
1.0017805
1.0020488
1.0030167
1.0031145
1.0023321
1.0027246
1.0021565
1.0026866
1.001539
1.0030639
1.0022718
1.0014986
1.0031272
1.0035284
0.99934461
1.005146
1.0043591
0.99801553
1.003312
1.0046298
1.0027343
0.99970603
0.99938421
1.009166
1.0111603
0.99619664
0.98864231
1.0033573
1.0011247
1.0046344
1.0028221
1.0029048
1.0006845
1.0036811
1.0031554
1.0019439
1.0031795
1.0019705
1.0027439
1.00176
1.0027876
1.0018224
1.0016781
1.0029075
1.0028256
1.0003933
1.0052972
1.0026406
0.99876533
1.0055549
1.00413
1.0019863
1.0043072
1.002425
1.0052814
1.0082594
0.99907609
0.98781345
0.99540707
1.0007083
1.0059348
1.0030709
1.0037906
1.0001982
1.0036654
1.0028344
1.0018948
1.0031516
1.0023395
1.0023441
1.0023234
1.0022196
1.001564
1.0018859
1.0025666
1.0018309
1.0020578
1.0050704
1.0009023
0.99981833
1.0072884
1.0031267
0.99975729
1.007448
1.0060713
1.0005017
1.0029097
1.0035687
0.99441961
0.99157313
1.0007668
1.005856
1.0027151
1.0039955
1.00087
1.0029595
1.0021834
1.0023963
1.0027212
1.0028054
1.0018223
1.0028258
1.0017261
1.0014337
1.0024624
1.0024415
1.0009008
1.0037446
1.0043643
0.99956035
1.0012146
1.0081876
1.0020035
0.99683422
1.0076762
1.0090225
0.99695431
0.99629728
1.0058484
1.0064767
0.9965434
1.0011862
1.004568
1.0018967
1.0031658
1.0023449
1.002041
1.0016491
1.003143
1.0022579
1.0028834
1.0016758
1.0029231
1.0016446
1.001576
1.0029319
1.0024796
1.0003528
1.004748
1.0034665
0.99890473
1.0026605
1.0078219
1.0013776
0.99529092
1.0053759
1.0100926
0.99662794
0.99115081
1.0036905
1.016242
1.0085734
1.0016933
1.002561
1.0010899
1.0017031
1.003766
1.0015296
1.0016882
1.0036418
1.0021462
1.0025275
1.0020124
1.0028365
1.0018763
1.0017227
1.0031143
1.0025469
1.0002557
1.0051277
1.0024557
0.99948346
1.00381
1.0057852
1.0013211
0.99630491
1.0025022
1.0086254
0.9994443
0.99038647
0.99925849
1.0164997
1.0181856
1.0023454
1.0008843
1.0008126
1.0004877
1.0044236
1.0016557
1.0023923
1.0034992
1.0024925
1.0020686
1.0024327
1.0025115
1.002231
1.0019547
1.0030645
1.0026145
1.0008891
1.004862
1.0012464
1.0008324
1.0050987
1.0029022
1.0013467
1.0000711
1.0008384
1.0047108
1.0031127
0.9956223
0.99703855
1.0077285
1.0170531
1.0028048
1.0001834
1.0012372
1.000155
1.0040633
1.002323
1.0034395
1.00275
1.0029478
1.0019026
1.002738
1.0020609
1.0023545
1.0025241
1.0026533
1.00255
1.0018828
1.0040577
1.0000593
1.0021946
1.0063227
1.0000248
1.0009269
1.0053692
1.001598
0.99980208
1.0044792
1.004431
0.99948014
0.99833436
1.004923
1.0025146
1.0008096
1.0020816
1.0007332
1.0028657
1.0031397
1.0042107
1.0019672
1.0030464
1.0021884
1.0028449
1.0018597
1.0022027
1.0032112
1.0018715
1.0020071
1.0028738
1.003114
0.9994059
1.0034488
1.0070935
0.99771812
0.9998633
1.0097098
1.0044085
0.99600307
1.0024539
1.0114577
1.0059629
0.99482828
0.99130648
1.0016167
1.0026113
1.0028908
1.0021401
1.001634
1.0035881
1.0041925
1.0017174
1.0028175
1.0027798
1.0028302
1.0020327
1.0020516
1.0034823
1.0012621
1.0014589
1.0037225
1.0025025
0.99969589
1.0041213
1.0071622
0.99717442
0.99886854
1.0112814
1.0070123
0.99476182
0.99872319
1.0128153
1.0127537
0.99776568
0.986134
1.000885
1.004663
1.0031481
1.0037233
1.0010291
1.0035395
1.0032652
1.0022116
1.0024827
1.0032107
1.0027418
1.0023015
1.0020576
1.0031857
1.00135
1.0013056
1.0042336
1.0020935
1.0007537
1.0039341
1.00609
0.99839175
0.99882433
1.009717
1.0078495
0.99609179
0.99624188
1.0078793
1.0143565
1.0039717
0.99025661
1.0007201
1.0060363
1.0028531
1.0045245
1.0012317
1.0032142
1.0020262
1.0032025
1.0023345
1.0031252
1.0026214
1.002226
1.0023707
1.002531
1.0018094
1.0013378
1.0041394
1.001339
1.0023453
1.0036992
1.0039107
1.0004109
1.0003879
1.006141
1.0057984
0.99893168
0.99694762
1.0015346
1.0079752
1.0073727
0.99978094
1.0008477
1.006071
1.0021713
1.0041085
1.0020645
1.0027004
1.0012793
1.004076
1.0025528
1.0027524
1.0026195
1.0021832
1.0027898
1.0018332
1.0023092
1.0016843
1.0034598
1.000652
1.0040394
1.0036412
1.0011099
1.0026086
1.0036525
1.0025011
1.001155
1.0020308
1.0010765
0.99870761
0.99802263
1.0039971
1.0071269
1.0012811
1.004221
1.0013268
1.0027212
1.0029873
1.0022365
1.001394
1.0040677
1.0029453
1.002412
1.0026307
1.0024183
1.0029575
1.0013928
1.0028866
1.0024819
1.0028034
1.0003679
1.0053293
1.00362
0.99852066
1.0039961
1.0075322
1.0007613
0.99617288
1.003642
1.0077271
1.0005639
0.9922905
0.99645745
1.0083382
1.0018832
1.00177
1.0010108
1.0009068
1.0034486
1.0020758
1.002484
1.0030593
1.0031107
1.0023449
1.0024769
1.0027898
1.0028897
1.001239
1.0032882
1.0032794
1.0024164
1.0002735
1.0057953
1.003776
0.99724191
1.0039233
1.0102044
1.0008258
0.99361332
1.0032664
1.012908
1.0056497
0.99317465
0.99173428
1.0045783
1.0024828
1.0001283
1.0013535
0.99991306
1.0034372
1.0022556
1.0038804
1.0018787
1.0029648
1.0026133
1.002155
1.0031199
1.002744
1.0015081
1.0032153
1.0034172
1.0021876
1.0006717
1.0052943
1.0039169
0.99786551
1.0028523
1.0103646
1.0022611
0.9943662
1.0014223
1.013317
1.0102783
0.99771898
0.99312733
1.0000577
1.002354
1.0000262
1.0018727
1.0000659
1.0031309
1.0025649
1.0046322
1.0014203
1.0029536
1.0029033
1.0019836
1.0031414
1.0025431
1.0021236
1.0027204
1.003146
1.0021994
1.0019458
1.003939
1.0034844
1.0001094
1.002416
1.0073645
1.0034728
0.99762389
1.0016029
1.0085301
1.009433
1.0030165
0.99838767
0.99918498
1.0018866
1.0016121
1.0023265
1.0012313
1.0025587
1.0027805
1.0041372
1.0019338
1.0027274
1.0028216
1.0022924
1.0029749
1.0023406
1.0026693
1.0022098
1.0028755
1.002226
1.0035225
1.002493
1.0023326
1.0032157
1.0029029
1.0029634
1.0028068
1.0022075
1.0038654
1.0027327
1.0022937
1.004813
1.0049057
1.0022542
1.001186
1.0043033
1.0025367
1.0031867
1.0021502
1.0030326
1.0025336
1.0031949
1.0030269
1.0024365
1.0032126
1.002634
1.0022293
1.0031618
1.00203
1.0025057
1.0019239
1.0047636
1.0016268
1.0009551
1.0062736
1.0043794
0.9995932
1.0004886
1.0064966
1.0074119
1.0000001
0.99478691
1.0020243
1.0097024
1.0073541
1.0009672
1.0064764
1.0027177
1.0051149
1.0026171
1.003645
1.0016641
1.0052238
1.0030051
1.0030254
1.0044268
1.0026784
1.0023979
1.0039146
1.0023863
1.0023766
1.0015664
1.0060279
1.0016825
1.0000016
1.0077892
1.0068148
0.9986807
0.99834528
1.0076925
1.0114864
1.0013242
0.9915287
0.99745687
1.0103047
1.0116183
0.99987936
0.99735898
0.99881959
1.0051011
1.012157
1.0160594
1.0142327
1.0057163
0.99449229
0.98851743
0.99121994
0.99992589
1.007922
1.0090524
1.001686
0.99264236
0.99206419
1.0030728
1.016897
1.0214827
1.0124221
0.9944554
0.97920003
0.99243401
0.99536996
0.99903449
1.0026678
1.0047669
1.0034518
1.000681
1.0001223
1.0035302
1.0103821
1.0155986
1.0144525
1.0058847
0.99306083
0.98332763
0.98277053
0.99243395
1.0078412
1.0188484
1.0172996
1.0062525
0.9953919
0.9904415
1.0140034
1.0116466
1.0045494
0.99501578
0.98614258
0.98249094
0.9857803
0.99572785
1.0081846
1.017476
1.0186354
1.0110195
0.99996309
0.99397675
0.9959191
1.0031259
1.0095521
1.008267
0.99937536
0.98713786
0.9824328
0.98964737
1.0053297
1.021994
1.0138717
1.003827
0.99550065
0.99279469
0.99640828
1.0015152
1.0058285
1.0054541
0.99985659
0.99054347
0.98328347
0.98536739
0.99819101
1.0173571
1.0310099
1.0295082
1.0136188
0.99121319
0.97604316
0.97505176
0.98669618
1.0046658
0.99357933
0.99106616
0.99418848
1.0037073
1.016067
1.0255262
1.0275198
1.0201811
1.0051824
0.98868276
0.97734692
0.97647473
0.98520731
0.99940731
1.0137492
1.0206363
1.0154959
1.0038759
0.99448094
0.99501506
1.0036584
1.0130901
1.0148216
0.98013211
0.9852749
0.99467917
1.004765
1.0132268
1.0180137
1.014588
1.0064054
0.99957616
0.99849381
1.0040602
1.0115831
1.0145754
1.0115199
1.0008906
0.98712156
0.97573374
0.9736212
0.98426517
1.0068043
1.0326465
1.0453461
1.0350138
1.0130691
1.0129285
1.0075378
0.99882385
0.98905656
0.9803986
0.97488668
0.976396
0.98689019
1.006384
1.0282897
1.0434704
1.0422393
1.0260209
1.0018384
0.97957275
0.96832743
0.96894014
0.9817923
1.0013652
1.0209806
1.0308844
1.0246014
1.0423318
1.0307939
1.0137835
0.9970389
0.98266589
0.97457258
0.97473845
0.97961031
0.98968143
1.0021894
1.0147654
1.0235829
1.0203018
1.0105967
1.001638
0.99962226
1.0055928
1.0121335
1.0132474
1.0093318
1.0002436
0.98850701
0.97762876
1.0100771
1.0053097
1.0029316
1.0025389
1.0066996
1.0140847
1.0212741
1.0231201
1.0162286
1.003248
0.98824838
0.97659456
0.96989182
0.97100661
0.98327191
1.0058055
1.0358824
1.0587293
1.0587824
1.0375384
1.0037757
0.97269476
0.95497174
0.96944623
0.97008589
0.97877876
0.99826408
1.0259479
1.0530478
1.0664485
1.0583166
1.034513
1.0062221
0.98423523
0.96844548
0.9608991
0.96078338
0.97199522
0.993958
1.0242126
1.0509119
1.0569125
1.0429251
1.017929
0.99418124
0.98082827
0.96877814
0.97557242
0.98786656
1.002686
1.0183795
1.032975
1.0401441
1.0362422
1.0272693
1.0144328
1.0021165
0.99708262
0.9996938
1.0028922
1.004147
1.001033
0.99939999
1.0010059
1.0029027
1.0020433
1.0020036
1.0081413
1.0211819
1.023047
1.0221524
1.016147
1.0064125
0.99581934
0.9882962
0.98318487
0.98141008
0.98571343
0.9954865
1.0143013
1.0397758
1.0627897
1.0669375
1.0516121
1.0225019
0.99374334
0.97424496
0.96097742
0.95628469
0.96295172
0.98502844
1.0239825
1.0882801
1.066972
1.0327255
0.9999843
0.97677886
0.96487742
0.9590597
0.95606986
0.95998071
0.97411219
1.003866
1.0482746
1.0906518
1.1071929
1.0886901
1.0459097
1.0036175
0.97431986
0.9585323
0.95103513
0.95209955
0.96890052
1.0028309
1.0934633
1.0703815
1.0375166
1.0073202
0.98472591
0.97396596
0.97063902
0.97014332
0.97306002
0.9822428
1.0018255
1.0313451
1.0668342
1.0865305
1.0794928
1.0530123
1.0218437
0.99806633
0.98638263
0.98068603
0.97932967
0.98243966
0.99429114
1.0491803
1.038544
1.0264793
1.0169651
1.0115021
1.0115478
1.0130322
1.0142964
1.0128098
1.0095165
1.0088731
1.0141323
1.0247943
1.0341658
1.0348383
1.0286605
1.0240211
1.0236303
1.0281186
1.0324896
1.0278204
1.0184914
1.0071116
1.0016826
1.0014485
1.0041936
1.0139137
1.0320831
1.0541892
1.0703598
1.07374
1.0606588
1.0376294
1.0147805
0.9997843
0.99546917
0.99459183
0.99454391
0.99716208
1.0074491
1.0300357
1.0615964
1.0852125
1.0847148
1.0602783
1.0270701
0.97315436
0.97667006
0.98586552
1.0066083
1.0404881
1.0836233
1.1201066
1.1286709
1.1019627
1.0579151
1.0177859
0.9917577
0.9811602
0.97724583
0.97415358
0.97677098
0.99130308
1.0267188
1.077566
1.1217029
1.1299942
1.0947158
1.0434536
0.96548491
0.96794304
0.97780901
1.00112
1.0443476
1.1011865
1.1521895
1.1661347
1.1294668
1.0712514
1.0207017
0.98978238
0.97747172
0.97343397
0.96980787
0.96964924
0.98423786
1.024076
1.0863268
1.1451202
1.1629594
1.1184819
1.054328
0.9716865
0.97249475
0.97941037
1.0020745
1.0496502
1.114229
1.172716
1.1886218
1.1445883
1.0775834
1.0204653
0.98960111
0.9791862
0.97565752
0.97290366
0.97195902
0.98528646
1.0272839
1.0972767
1.1635632
1.1818472
1.1297466
1.0590561
0.97837239
0.97867763
0.98528743
1.0076754
1.0564268
1.1260366
1.1910714
1.2077377
1.1566767
1.0826239
1.022513
0.99145957
0.98267215
0.98190174
0.9804337
0.97821722
0.99183615
1.0366023
1.1116091
1.1813788
1.194637
1.1304423
1.055016
0.98901981
0.98733285
0.99197875
1.0147956
1.0656307
1.1399259
1.2098187
1.2253343
1.1674618
1.0868177
1.0239028
0.99327269
0.9867146
0.98893709
0.98789962
0.98601969
1.0020374
1.0535508
1.1354196
1.2041791
1.203128
1.1228002
1.0429452
0.99781028
0.99742538
1.0019468
1.0236063
1.0763222
1.1540798
1.2274316
1.2391655
1.1735324
1.0868315
1.0234052
0.99678522
0.99343447
0.99742889
0.99453034
0.99546571
1.01786
1.0809477
1.1682731
1.2262746
1.1969479
1.1055594
1.0298876
1.0230728
1.0208016
1.0226569
1.0410475
1.0886
1.1597323
1.2255709
1.2319315
1.1697157
1.0883169
1.0279265
1.003288
1.0029429
1.009147
1.005933
1.0103225
1.0422737
1.1137388
1.2004208
1.2346915
1.1718537
1.0812711
1.0169004
1.0830451
1.0705356
1.0590217
1.0638097
1.0906396
1.1400415
1.1890651
1.1946952
1.1509886
1.0883513
1.0403628
1.0222978
1.0255124
1.0343883
1.0311535
1.0386515
1.0759035
1.1431619
1.2076046
1.210681
1.1311473
1.0568073
1.0147342
1.2034182
1.1603766
1.1101487
1.0761553
1.0668434
1.088173
1.1233078
1.1365573
1.1220703
1.0871647
1.0614543
1.0598375
1.076718
1.0898936
1.0811396
1.0759723
1.0964178
1.1417157
1.174183
1.1545042
1.0889918
1.0439195
1.0281882
1.3310907
1.2488593
1.140073
1.0648881
1.0241768
1.0291724
1.0626686
1.078359
1.0827996
1.0804164
1.0949351
1.1342506
1.1767525
1.1749049
1.126777
1.0855938
1.0811951
1.1048001
1.1136462
1.0857172
1.0566512
1.0575184
1.0775057
1.3921368
1.3032377
1.1655643
1.0637644
1.0106323
1.0037589
1.0373906
1.0540927
1.0709741
1.0992489
1.1564161
1.2345022
1.2736014
1.2163961
1.1247644
1.0588044
1.0439531
1.0477085
1.0522528
1.0392175
1.0617413
1.1236165
1.1739389
1.3857392
1.3726005
1.2802891
1.1570441
1.0787345
1.0628933
1.0909707
1.1093245
1.1197733
1.1361899
1.1822737
1.2498308
1.2623853
1.1811277
1.0874396
1.030996
1.0218498
1.0265253
1.0259194
1.0485385
1.1319589
1.2294551
1.246764
1.2725906
1.2927405
1.3189681
1.2895449
1.2142785
1.1735517
1.1758313
1.1670666
1.1359622
1.1087156
1.1148388
1.1545723
1.1716016
1.135234
1.0849768
1.0574333
1.0635207
1.0680731
1.07325
1.1128665
1.1917567
1.2405131
1.1868584
1.2609652
1.2590609
1.2918619
1.3291267
1.3020591
1.2231908
1.1870306
1.1569145
1.1088925
1.0635075
1.0518691
1.0811245
1.1068924
1.1233738
1.1415661
1.1624599
1.1666541
1.1327104
1.1033599
1.1185951
1.1420305
1.1340109
1.1012217
1.3111826
1.2838578
1.2508048
1.2441711
1.2441914
1.2126895
1.1637708
1.146184
1.1229663
1.0898942
1.0708147
1.0895472
1.1137191
1.1452545
1.1928474
1.2318803
1.2012034
1.1236382
1.0744103
1.065156
1.0646584
1.0607297
1.0807066
1.2789984
1.2823728
1.2613319
1.2280279
1.2177
1.2061499
1.1723463
1.1603091
1.1734616
1.1751153
1.1538825
1.1389682
1.1286531
1.1284409
1.1554838
1.1852876
1.1582647
1.1042546
1.0694907
1.053602
1.0489645
1.0659002
1.1198696
1.1936405
1.2309364
1.279283
1.3005261
1.2877648
1.2552508
1.2091291
1.1706823
1.1798748
1.2001919
1.1895181
1.1511362
1.1072676
1.083254
1.090576
1.115259
1.1217577
1.1270595
1.1312605
1.1203865
1.0977731
1.0944368
1.113783
1.1861651
1.2176887
1.2841517
1.3398897
1.3425082
1.2896793
1.2047918
1.1327757
1.1222732
1.1478647
1.1629242
1.147876
1.108702
1.0811622
1.0822813
1.0944192
1.1182702
1.1598611
1.1867756
1.166052
1.1318192
1.1042074
1.0789535
1.2396272
1.2322066
1.252464
1.2787107
1.3002187
1.276109
1.2016023
1.1275601
1.1021202
1.1122696
1.1352959
1.1545685
1.1560279
1.1410896
1.1216769
1.1075659
1.1125808
1.1329609
1.1457526
1.1363968
1.1199652
1.1069661
1.0949607
1.2507461
1.2276452
1.2237813
1.2258915
1.2369519
1.2447381
1.2219026
1.1720011
1.1334015
1.1170135
1.1184601
1.1367501
1.1619902
1.1789115
1.1696205
1.1333374
1.098189
1.0873664
1.0879246
1.0920672
1.1001137
1.1087011
1.1142693
1.2282986
1.2168966
1.2126454
1.2104001
1.2094839
1.2048795
1.2010682
1.1892827
1.1752653
1.1544541
1.130051
1.1182641
1.1240686
1.142232
1.1550792
1.1454095
1.1208912
1.1020927
1.0949761
1.0923542
1.095165
1.1025215
1.1063924
1.2069408
1.1994572
1.212795
1.2168909
1.2071479
1.1874296
1.1693949
1.1607668
1.1634363
1.1631233
1.1493349
1.1284441
1.1139518
1.1125125
1.1194204
1.125231
1.1229453
1.1225659
1.1271408
1.1307494
1.130167
1.1274013
1.1182313
1.222097
1.1983723
1.2052089
1.2165794
1.2116004
1.1865482
1.1569508
1.1362949
1.1308542
1.1388511
1.1455599
1.1471623
1.1417088
1.1348156
1.1307466
1.1266069
1.1219433
1.122422
1.1290077
1.1359915
1.1363095
1.131218
1.1180259
1.2513275
1.2133259
1.1945464
1.1912401
1.1924342
1.1831751
1.1643488
1.1448377
1.1328248
1.1308382
1.1385287
1.1491095
1.1571321
1.1592636
1.1560033
1.1480893
1.1360246
1.1254041
1.1203484
1.1187814
1.1145823
1.1095485
1.1006721
1.2767764
1.2346011
1.1986234
1.1761016
1.1657155
1.1638129
1.1646983
1.1632308
1.1599746
1.155886
1.1526023
1.1513171
1.1501439
1.1486896
1.1460487
1.1424368
1.1364165
1.128934
1.1237345
1.1190759
1.1141209
1.1086373
1.1030729
1.2729251
1.2480299
1.2168552
1.1895353
1.1721141
1.1634155
1.1617253
1.1655978
1.1698034
1.1706715
1.1663347
1.158322
1.1483787
1.1388239
1.1319425
1.1285448
1.1281913
1.1288248
1.1305895
1.1319797
1.1309148
1.1275454
1.122719
1.267902
1.2510805
1.2330755
1.2160288
1.2011729
1.1879794
1.176727
1.1681911
1.1629545
1.1593869
1.1565125
1.153156
1.1498635
1.1470666
1.1449041
1.1440503
1.1437299
1.1428755
1.1412594
1.1396513
1.135801
1.130892
1.1242598
1.2834879
1.2668834
1.2466892
1.2277228
1.2128233
1.2006756
1.189365
1.1776085
1.1665132
1.1577784
1.1523183
1.1502078
1.1520517
1.1561452
1.1602403
1.1627314
1.1616493
1.1565233
1.1479442
1.1382562
1.129768
1.1228065
1.116785
1.2907586
1.2805974
1.2623796
1.2387158
1.2171713
1.2012699
1.1911314
1.1844022
1.1789851
1.1747384
1.1714984
1.169308
1.1680612
1.1671822
1.1656793
1.1625157
1.1574458
1.1503863
1.1414813
1.1333671
1.1276418
1.125925
1.1255327
1.2805672
1.278898
1.2725521
1.260114
1.2421085
1.2239312
1.2093342
1.1992124
1.1929288
1.1890158
1.1860283
1.1832852
1.1799059
1.1749245
1.168442
1.1608494
1.1541578
1.1489259
1.1454506
1.1432347
1.1424066
1.1434102
1.143529
1.2876305
1.2848096
1.2810754
1.2747622
1.2644553
1.2507454
1.235915
1.2221052
1.2104245
1.2007021
1.1926586
1.1863258
1.1812597
1.177215
1.173244
1.169338
1.1663616
1.1647694
1.1646897
1.1644818
1.1624477
1.1584393
1.1501308
1.3160708
1.3158469
1.3043573
1.2889977
1.274684
1.2611188
1.2485732
1.2378441
1.2287409
1.2207998
1.2132455
1.2058322
1.1994182
1.1947512
1.1913175
1.1887363
1.1856096
1.1818766
1.1777293
1.1728555
1.1667435
1.15909
1.1476402
1.3471276
1.3601416
1.3522445
1.3301004
1.3076605
1.2881681
1.2722559
1.2597839
1.25071
1.2440274
1.2378146
1.2306908
1.2225511
1.2146272
1.2081959
1.2031459
1.1982415
1.1924543
1.1852917
1.1779556
1.1710276
1.1659922
1.1584071
1.387769
1.4052508
1.4050258
1.3903677
1.3660733
1.3392331
1.3142617
1.2933059
1.276952
1.2651383
1.2564733
1.2491863
1.2417298
1.2338284
1.2265177
1.2205907
1.2159823
1.2113248
1.2056198
1.1988132
1.1921711
1.187209
1.1803483
1.4154003
1.4254821
1.4263781
1.4218182
1.4118894
1.3946997
1.3711443
1.3448191
1.3196208
1.2985638
1.2830982
1.2724999
1.2650318
1.2586893
1.252279
1.2457857
1.2396572
1.2338154
1.2275651
1.2202783
1.2123791
1.204888
1.1952563
1.4189255
1.4248763
1.4286248
1.4300721
1.4291546
1.4250578
1.4155973
1.3991187
1.3763872
1.3508025
1.3268174
1.3075334
1.2935798
1.2836941
1.2757795
1.2682677
1.2607269
1.2536269
1.247163
1.241046
1.2346347
1.2277786
1.2174007
1.4185437
1.4233077
1.4266219
1.4287498
1.4290177
1.4274
1.4245021
1.4200889
1.4120438
1.3987145
1.379983
1.3582198
1.3368433
1.3184546
1.3038905
1.2924757
1.2830602
1.2751099
1.2684413
1.2628403
1.2575653
1.2518218
1.2424885
1.4160984
1.4194762
1.4203883
1.4216407
1.4229459
1.4238907
1.4240584
1.4233446
1.4222087
1.4192261
1.4121272
1.3992664
1.381203
1.3605997
1.3407315
1.3238858
1.3106465
1.3004352
1.2923736
1.2855542
1.2792165
1.2725662
1.2633189
1.4111356
1.4145717
1.4150227
1.4155302
1.4167119
1.4184558
1.4200419
1.4207702
1.4202038
1.4182878
1.4153987
1.4110433
1.40409
1.3932191
1.3788579
1.3624819
1.3460803
1.331054
1.3180742
1.3072557
1.2983381
1.2907305
1.2818804
1.4058486
1.408906
1.4094747
1.4097347
1.409902
1.4102134
1.4107302
1.4113663
1.4118578
1.4119292
1.4112706
1.4096636
1.4068576
1.4029402
1.3968393
1.3876105
1.3750761
1.360672
1.3461185
1.3328932
1.3217368
1.3125738
1.3023311
1.40101
1.402555
1.4020108
1.4012984
1.4005084
1.3996573
1.3990147
1.3988112
1.3991236
1.3998593
1.4006365
1.4009436
1.4004974
1.3986482
1.3952222
1.3905309
1.3849493
1.3781427
1.3698542
1.360105
1.3497044
1.3391996
1.326377
1.3957612
1.3956809
1.3931144
1.3906067
1.3882787
1.3862211
1.3845024
1.3831987
1.382372
1.3818682
1.3817536
1.3818595
1.3822087
1.3825609
1.3827576
1.3822603
1.3806294
1.3776597
1.3737433
1.3694112
1.36435
1.3584884
1.3505394
1.389013
1.3876078
1.3834431
1.3792695
1.3752505
1.3712079
1.3672927
1.3635851
1.3602667
1.3574486
1.3552635
1.3538599
1.3533498
1.3537098
1.354839
1.3564766
1.3581381
1.3594146
1.3598826
1.3594812
1.3585159
1.3572026
1.3560443
1.3822439
1.3791453
1.3728976
1.3667163
1.3606724
1.3545749
1.3483843
1.3421358
1.3358769
1.3298395
1.3243078
1.3196819
1.3161786
1.3138409
1.3126692
1.3126803
1.3138743
1.3162066
1.3194303
1.3231935
1.3273106
1.3317436
1.3372278
1.3752919
1.3698252
1.3618065
1.3537491
1.3456709
1.337401
1.3288997
1.3201103
1.3110086
1.3017185
1.2925494
1.2840464
1.2764718
1.2699264
1.2644516
1.2601963
1.2574409
1.2564647
1.2573972
1.2601192
1.2644736
1.2700662
1.2772238
1.3676456
1.3596782
1.3499503
1.3401889
1.330178
1.3197325
1.3089725
1.2979438
1.286507
1.2746519
1.2626677
1.2508791
1.2394979
1.2286143
1.2183699
1.2090674
1.2010358
1.1945849
1.1900262
1.187653
1.1876298
1.1896399
1.1941431
1.3597228
1.3487994
1.3368977
1.3251829
1.3133317
1.3011836
1.2887686
1.2760033
1.2627789
1.2490683
1.2349654
1.2206289
1.2062005
1.1919061
1.1780066
1.1647282
1.1522642
1.1408227
1.1306717
1.1221772
1.1155338
1.1109879
1.111252
1.3509693
1.3368825
1.3226418
1.3090363
1.295672
1.2821778
1.2683602
1.254095
1.2393334
1.2240988
1.2084307
1.1923945
1.1760494
1.1596047
1.1433411
1.1274417
1.112125
1.0975111
1.0836498
1.0706466
1.0584083
1.0468425
1.0417845
1.3416349
1.3240293
1.3074361
1.292091
1.2773414
1.2626228
1.2476368
1.232237
1.2162415
1.1996185
1.1825884
1.1652816
1.1477433
1.130085
1.1123856
1.0948997
1.0779489
1.0616596
1.0459437
1.0304687
1.0168529
1.007186
1.0041978
1.33156
1.3104483
1.2916658
1.2746975
1.2587292
1.2430372
1.2271052
1.2106208
1.1934861
1.17576
1.1576825
1.1393865
1.1209048
1.1023029
1.0836575
1.0652639
1.0473549
1.0298049
1.0139581
1.0038076
0.9996319
0.99802638
0.99770897
1.3208593
1.2962628
1.2756272
1.2573819
1.2404798
1.2240204
1.207243
1.1897853
1.1716201
1.1528574
1.1337751
1.114671
1.0956098
1.076432
1.0571283
1.0380525
1.0193929
1.0050167
0.99927993
0.99815096
0.99807502
0.9978606
0.99746867
1.3095
1.2819133
1.2600765
1.2408304
1.2229829
1.2056722
1.1881473
1.169891
1.1509334
1.1315129
1.1117531
1.0918218
1.0719714
1.052329
1.0329745
1.0141261
1.0016028
0.99812931
0.99764268
0.99766039
0.99774041
0.99775448
0.99764081
1.2978892
1.2678283
1.2451248
1.2251913
1.2065758
1.1884441
1.1701692
1.1512865
1.1316757
1.1116045
1.0915037
1.0714087
1.0510719
1.030727
1.0116894
1.0004023
0.99826001
0.99799083
0.99781877
0.99767339
0.99752453
0.99739278
0.99740909
1.2871297
1.2541843
1.2303081
1.2099283
1.1912875
1.1729048
1.1538663
1.1340681
1.113889
1.0935908
1.0733157
1.0528061
1.0321898
1.0127538
1.0005442
0.99809793
0.99797859
0.99776819
0.99758158
0.99751532
0.99763948
0.9976304
0.99747865
1.2759262
1.2413428
1.2168132
1.1959736
1.1769787
1.1581678
1.1388143
1.1187132
1.0981788
1.0777381
1.0571539
1.036192
1.0159638
1.0016897
0.99800156
0.99800231
0.99808674
0.99797687
0.99775007
0.99757589
0.99764521
0.99757512
0.99741467
1.2647561
1.2289732
1.2041421
1.1831915
1.1638722
1.1448864
1.1253559
1.1047433
1.0839009
1.0632845
1.0425555
1.021984
1.0050056
0.99827535
0.99764225
0.99794502
0.99829465
0.99829143
0.99787743
0.99748324
0.99725739
0.99758048
0.99785278
1.2542044
1.2168803
1.1920049
1.1712361
1.1520938
1.1329722
1.1126648
1.0917755
1.0709864
1.0502091
1.0299912
1.0110722
0.99986811
0.99770625
0.99771454
0.99827433
0.99855985
0.99822305
0.99796546
0.99764153
0.99752388
0.99765831
0.9976409
1.243536
1.2057187
1.1812312
1.1602695
1.1407289
1.121247
1.1010778
1.0805724
1.0593721
1.0382841
1.0186171
1.0038445
0.9991153
0.99844261
0.99786269
0.99793735
0.99808675
0.99832149
0.99854135
0.99812553
0.99789264
0.99780168
0.99786647
1.2338038
1.1950505
1.1700959
1.1491011
1.130187
1.1110712
1.0906519
1.069527
1.0482032
1.0279899
1.0102699
1.0005884
0.9988918
0.99834235
0.99801602
0.99839806
0.99883568
0.99877224
0.99822777
0.99817754
0.99839225
0.99837689
0.99791919
1.2234966
1.184713
1.1600735
1.1394748
1.1204402
1.1006092
1.0802103
1.0595345
1.0383898
1.0184901
1.0041277
0.99956051
0.99925621
0.99861251
0.99826537
0.9987639
0.99864537
0.99907811
0.99898801
0.99869549
0.99867417
0.9982475
0.99818394
1.2141051
1.1746728
1.1498873
1.1298019
1.1111172
1.0915163
1.0711059
1.0495647
1.0277871
1.0099894
1.0014584
1.0001132
0.99959861
0.9983807
0.99832653
0.99913259
0.9996229
0.9997821
0.99888853
0.99857456
0.99857913
0.99878196
0.99867249
1.2043059
1.1647645
1.1412187
1.1216248
1.1024014
1.0820183
1.0611004
1.0397573
1.0189383
1.0046886
1.0006574
1.0001084
0.99988996
0.99917722
0.99866542
0.99909193
0.99931208
0.9996431
0.99947973
0.99926879
0.99893669
0.99910908
0.99888847
1.1952614
1.1558717
1.1324514
1.112709
1.0939871
1.0739597
1.0521622
1.0302311
1.0108533
1.0011032
1.0004748
1.0010427
1.0006629
0.99946053
0.99862297
0.99913252
0.9997968
1.0001257
0.99967164
0.99914171
0.99901727
0.99945001
0.99900418
1.186258
1.1474314
1.1247753
1.1054595
1.0859173
1.0649076
1.0427764
1.0212174
1.0056701
1.0007621
1.000814
1.0015085
1.0011737
0.99988686
0.99875502
0.99868839
0.9995618
1.0005793
1.0003928
0.99981787
0.99923344
0.99957279
0.99944911
1.1781678
1.1398115
1.1170301
1.0975573
1.078516
1.0574673
1.0348694
1.0137943
1.0019366
1.0004516
1.0016306
1.002011
1.0009702
0.99993475
0.99947609
0.99952659
1.0001865
1.0005478
1.0003182
1.00015
0.99935865
0.99931119
0.99934037
1.1706054
1.1326047
1.1107988
1.0909503
1.0708918
1.0494688
1.0272364
1.0090519
1.0014421
1.0007499
1.0018038
1.0022983
1.0016197
1.0004187
0.99966889
0.99978161
1.000583
1.0011885
1.0006409
1.0000776
0.99965594
0.99963391
0.99977007
1.1644866
1.1260804
1.1045524
1.0852291
1.0649352
1.0429031
1.0213919
1.0063066
1.0014617
1.0015281
1.0026675
1.0029379
1.0018774
1.0009168
1.000845
1.001028
1.0012754
1.0020659
1.0022504
1.0016741
1.0005693
1.0001519
1.0003422
1.1596848
1.1214131
1.1001886
1.0804426
1.0601762
1.0391931
1.0195071
1.0066117
1.0022905
1.0018417
1.002953
1.0042122
1.0040658
1.0026933
1.0022776
1.0037842
1.0048951
1.0047182
1.0042416
1.0044397
1.0043554
1.0039157
1.0039507
1.1577244
1.1176832
1.0957553
1.0775734
1.0588896
1.0383979
1.0187609
1.0070631
1.0050758
1.0052102
1.0050364
1.0050925
1.0057408
1.0060849
1.0063455
1.0077187
1.0102433
1.0120927
1.0119988
1.0113721
1.011361
1.0125825
1.0141806
1.1538105
1.1166285
1.0946576
1.0762228
1.0591928
1.0410353
1.0222396
1.0091718
1.0059076
1.0068578
1.0081991
1.0086217
1.0091793
1.0109401
1.0134892
1.0163449
1.0192559
1.0219029
1.0234445
1.0240348
1.0249491
1.0272167
1.0300292
1.1507761
1.1162801
1.0958621
1.0769578
1.0588395
1.0422856
1.0271525
1.0152937
1.0097564
1.0087802
1.0107064
1.0133237
1.0157322
1.018413
1.0221092
1.026468
1.0304137
1.0335915
1.036455
1.0394862
1.0430964
1.0470834
1.0506522
1.1521472
1.1159275
1.095756
1.0784291
1.0615899
1.0454308
1.0313229
1.0210273
1.0156424
1.0139975
1.015227
1.018569
1.0230007
1.0276261
1.0319706
1.0362795
1.0410399
1.0460466
1.0507698
1.0554892
1.0610337
1.0669122
1.0716185
1.1524626
1.1184945
1.0982257
1.081682
1.0664546
1.0518799
1.0386321
1.0282953
1.0221639
1.0199917
1.0207315
1.0239952
1.0290868
1.0350304
1.0408386
1.0463012
1.0520001
1.058246
1.0645799
1.070602
1.0764184
1.0820453
1.0873054
1.1478137
1.1211671
1.1029142
1.087601
1.0737529
1.0608352
1.0488378
1.0385066
1.0310023
1.0270711
1.0264104
1.0284141
1.0323671
1.0376595
1.0436256
1.0497585
1.0560859
1.0626539
1.0693903
1.0760267
1.0823511
1.0882413
1.0938798
1.1329254
1.1219897
1.1073391
1.0941308
1.0818663
1.0702509
1.0593666
1.0495702
1.0415303
1.0359539
1.0331589
1.0329959
1.0349326
1.0384339
1.0430625
1.0486862
1.0548876
1.0613244
1.0678041
1.0742653
1.0807412
1.0870954
1.0933623
1.1410692
1.1322352
1.1181992
1.1054873
1.0938446
1.0829023
1.0726263
1.0631889
1.0548674
1.0480586
1.0430917
1.0401645
1.0393325
1.0403991
1.0430224
1.0465907
1.0509511
1.0561244
1.0618349
1.0679005
1.0742489
1.0806828
1.0869108
1.2107347
1.1783909
1.154722
1.1371552
1.1226932
1.1099984
1.0984941
1.0879433
1.0782989
1.0696573
1.062161
1.0560593
1.0515788
1.0489018
1.0480402
1.0489575
1.0510089
1.0535968
1.056756
1.0604249
1.0644915
1.068919
1.07373
1.2521085
1.2304636
1.2098438
1.1919842
1.1762108
1.1618739
1.1486195
1.1361956
1.1244798
1.1134387
1.1030262
1.0933777
1.0847995
1.0774618
1.0715136
1.0670724
1.0640848
1.062691
1.0626706
1.0637104
1.0655476
1.0674489
1.0683044
1.2519098
1.2463115
1.2375252
1.2288212
1.2202387
1.2116216
1.2028891
1.194045
1.1849235
1.1755088
1.1658521
1.1560855
1.1464165
1.1369157
1.1276186
1.1187827
1.1107208
1.1037319
1.0978763
1.0931598
1.0895606
1.0868305
1.083641
1.2440318
1.2430563
1.2362075