/*--------------------------------*- C++ -*----------------------------------*\
| =========                 |                                                 |
| \\      /  F ield         | OpenFOAM: The Open Source CFD Toolbox           |
|  \\    /   O peration     | Version:  2406                                  |
|   \\  /    A nd           | Website:  www.openfoam.com                      |
|    \\/     M anipulation  |                                                 |
\*---------------------------------------------------------------------------*/
FoamFile
{
    version     2.0;
    format      ascii;
    arch        "LSB;label=32;scalar=64";
    class       volScalarField;
    location    "70";
    object      alphat;
}
// * * * * * * * * * * * * * * * * * * * * * * * * * * * * * * * * * * * * * //

dimensions      [1 -1 -1 0 0 0 0];

internalField   nonuniform List<scalar> 
20580
(
8.8411186e-07
8.5119124e-07
8.3650119e-07
8.3427238e-07
8.3120673e-07
8.2636367e-07
8.2059529e-07
8.146641e-07
8.1129859e-07
8.0892182e-07
8.0655569e-07
8.0450627e-07
8.0522769e-07
8.0360104e-07
8.036593e-07
8.043269e-07
8.073372e-07
8.043061e-07
8.1403606e-07
8.1396587e-07
8.1672926e-07
8.2760957e-07
8.2032836e-07
8.3234189e-07
8.4266816e-07
8.6458459e-07
8.7816831e-07
8.9071818e-07
9.1977146e-07
9.5303317e-07
1.0175828e-06
8.9308748e-07
8.6782565e-07
8.415977e-07
8.3643261e-07
8.3113276e-07
8.2592685e-07
8.1996304e-07
8.1558602e-07
8.1290755e-07
8.1042209e-07
8.0836194e-07
8.0508967e-07
8.0765496e-07
8.0321974e-07
8.0491868e-07
8.044938e-07
8.0556941e-07
8.063401e-07
8.1540077e-07
8.1687589e-07
8.2070947e-07
8.3377348e-07
8.2675499e-07
8.3844495e-07
8.5009707e-07
8.7205117e-07
8.8908846e-07
8.9806373e-07
9.2094271e-07
9.551397e-07
1.0142547e-06
8.9193145e-07
8.8348916e-07
8.5294867e-07
8.433754e-07
8.3475006e-07
8.2717556e-07
8.2046772e-07
8.1613045e-07
8.134519e-07
8.1071042e-07
8.097604e-07
8.0627094e-07
8.0954578e-07
8.0457282e-07
8.0581927e-07
8.072553e-07
8.0381236e-07
8.0782495e-07
8.1432418e-07
8.1646854e-07
8.2168991e-07
8.3471989e-07
8.3252958e-07
8.3998075e-07
8.5338377e-07
8.7135601e-07
8.8682366e-07
8.9582925e-07
9.1974321e-07
9.5535762e-07
1.0121515e-06
8.9130658e-07
8.8456179e-07
8.6253443e-07
8.5280643e-07
8.435776e-07
8.3432126e-07
8.2485225e-07
8.1959235e-07
8.1411917e-07
8.1140545e-07
8.0957098e-07
8.0631741e-07
8.0926536e-07
8.0617133e-07
8.0515239e-07
8.0941314e-07
8.0387815e-07
8.0910127e-07
8.1305826e-07
8.1537527e-07
8.223039e-07
8.311926e-07
8.3416683e-07
8.4060524e-07
8.5443829e-07
8.6767724e-07
8.8654383e-07
8.9337467e-07
9.1570998e-07
9.4732352e-07
9.9701062e-07
8.9042626e-07
8.8458194e-07
8.7205384e-07
8.718844e-07
8.6360675e-07
8.4965632e-07
8.3384631e-07
8.2617552e-07
8.1721448e-07
8.1371309e-07
8.1019969e-07
8.0893249e-07
8.0707648e-07
8.094841e-07
8.0506614e-07
8.1061884e-07
8.063075e-07
8.1223321e-07
8.1288252e-07
8.1655316e-07
8.2531434e-07
8.2928323e-07
8.3286067e-07
8.4452481e-07
8.558484e-07
8.6421196e-07
8.8899391e-07
9.0161432e-07
9.2300527e-07
9.5059131e-07
9.8887915e-07
8.8933589e-07
8.858562e-07
8.7557779e-07
8.8645583e-07
8.8841487e-07
8.7515429e-07
8.555723e-07
8.4190808e-07
8.2646714e-07
8.1959757e-07
8.1325566e-07
8.1201809e-07
8.0553025e-07
8.091515e-07
8.0590575e-07
8.0816574e-07
8.0701267e-07
8.1322331e-07
8.1435031e-07
8.1707003e-07
8.2821376e-07
8.303772e-07
8.3301482e-07
8.4758329e-07
8.5879735e-07
8.6027705e-07
8.8028258e-07
9.1606016e-07
9.3604282e-07
9.709379e-07
9.9372277e-07
8.8841032e-07
8.8651947e-07
8.7807228e-07
8.8898944e-07
8.9234689e-07
8.8788212e-07
8.7792997e-07
8.6757477e-07
8.5238025e-07
8.3775977e-07
8.2521769e-07
8.1983288e-07
8.1031693e-07
8.1101706e-07
8.0765161e-07
8.0715786e-07
8.06256e-07
8.1100546e-07
8.129146e-07
8.168663e-07
8.2586796e-07
8.3008634e-07
8.3330512e-07
8.4737575e-07
8.5933098e-07
8.5683355e-07
8.7102104e-07
9.1296378e-07
9.4104292e-07
9.6756228e-07
9.9458532e-07
8.8837866e-07
8.8558899e-07
8.7495934e-07
8.8300201e-07
8.9002516e-07
8.8852932e-07
8.8479849e-07
8.8164819e-07
8.752866e-07
8.6839503e-07
8.5512104e-07
8.3968943e-07
8.2526356e-07
8.1961758e-07
8.1483894e-07
8.1057514e-07
8.1044465e-07
8.1057907e-07
8.1283313e-07
8.1740113e-07
8.2372287e-07
8.2491771e-07
8.3276987e-07
8.4501311e-07
8.5758105e-07
8.5628785e-07
8.6285642e-07
8.9252169e-07
9.2949918e-07
9.4883632e-07
9.8170779e-07
8.9257059e-07
8.9746979e-07
8.7912104e-07
8.8131026e-07
8.8269696e-07
8.8371176e-07
8.8503117e-07
8.8328664e-07
8.8024434e-07
8.7799031e-07
8.7743551e-07
8.6917843e-07
8.6097643e-07
8.4386052e-07
8.3337285e-07
8.2305097e-07
8.2053197e-07
8.1533416e-07
8.1568579e-07
8.2120885e-07
8.2267563e-07
8.2540693e-07
8.3360072e-07
8.4704341e-07
8.5475453e-07
8.6116621e-07
8.6665749e-07
8.8854436e-07
9.2265436e-07
9.3616617e-07
9.5989855e-07
8.9681664e-07
1.0113477e-06
9.3919859e-07
9.1811003e-07
9.0317892e-07
8.9195237e-07
8.8720973e-07
8.8030108e-07
8.7957587e-07
8.7751587e-07
8.7827094e-07
8.7933347e-07
8.8685486e-07
8.8502179e-07
8.804705e-07
8.6764235e-07
8.5923323e-07
8.403442e-07
8.3127173e-07
8.3283099e-07
8.2728878e-07
8.2898488e-07
8.4143863e-07
8.478344e-07
8.5981003e-07
8.6925347e-07
8.7925739e-07
8.9267064e-07
9.2427377e-07
9.4783552e-07
9.734551e-07
8.809229e-07
1.0013685e-06
1.0504257e-06
1.0619051e-06
1.0220189e-06
9.6275691e-07
9.2388494e-07
8.9867989e-07
8.8570597e-07
8.8096876e-07
8.8149995e-07
8.8463352e-07
8.9360467e-07
8.9591543e-07
9.0034644e-07
9.0116337e-07
9.0151649e-07
8.9579953e-07
8.8657696e-07
8.7943806e-07
8.615682e-07
8.5299012e-07
8.589177e-07
8.551223e-07
8.5896718e-07
8.7521582e-07
8.8747852e-07
8.9399316e-07
9.1750645e-07
9.525385e-07
9.9523805e-07
8.39861e-07
9.2115806e-07
1.0173474e-06
1.0941345e-06
1.1172916e-06
1.1207569e-06
1.0838408e-06
1.0126398e-06
9.5922484e-07
9.2882756e-07
9.1293411e-07
9.0667355e-07
9.0765894e-07
9.1119077e-07
9.1508682e-07
9.1644341e-07
9.1793289e-07
9.1505959e-07
9.1377441e-07
9.1058989e-07
8.9762481e-07
8.9366536e-07
9.0121835e-07
8.8965782e-07
8.7865528e-07
8.8812011e-07
9.047183e-07
9.0361606e-07
9.0783429e-07
9.3193656e-07
9.8780028e-07
8.8224561e-07
8.9902401e-07
9.2984876e-07
9.8376691e-07
1.0525315e-06
1.0876576e-06
1.1118907e-06
1.1407472e-06
1.1533376e-06
1.1398952e-06
1.1154258e-06
1.0726692e-06
1.0405637e-06
1.0190331e-06
1.0038032e-06
9.8917255e-07
9.7701114e-07
9.6482569e-07
9.6101033e-07
9.5218842e-07
9.3646006e-07
9.2970461e-07
9.3560291e-07
9.2395182e-07
9.0769333e-07
9.1021908e-07
9.2513565e-07
9.2427202e-07
9.177001e-07
9.250925e-07
9.6141732e-07
8.7890057e-07
9.3612691e-07
9.26921e-07
9.4724889e-07
9.5679374e-07
9.8180432e-07
1.0101104e-06
1.0740749e-06
1.1199476e-06
1.1768056e-06
1.233008e-06
1.2926538e-06
1.3428727e-06
1.3710548e-06
1.3796405e-06
1.3623292e-06
1.323638e-06
1.2787651e-06
1.2347915e-06
1.1675689e-06
1.1071257e-06
1.0637941e-06
1.0399326e-06
1.0110947e-06
9.8134539e-07
9.7160073e-07
9.7181063e-07
9.7007198e-07
9.5686471e-07
9.5437569e-07
9.6953531e-07
8.7394081e-07
8.89203e-07
9.1757321e-07
9.4983571e-07
9.557482e-07
9.6119168e-07
9.5917336e-07
9.4744102e-07
9.9868468e-07
1.06129e-06
1.1276506e-06
1.2130177e-06
1.3066726e-06
1.3735896e-06
1.428631e-06
1.4735623e-06
1.5023404e-06
1.5103024e-06
1.5045448e-06
1.495575e-06
1.4713015e-06
1.4324435e-06
1.3898452e-06
1.3365916e-06
1.2775626e-06
1.2256617e-06
1.1835617e-06
1.1442228e-06
1.0972951e-06
1.0770728e-06
1.051043e-06
8.7243969e-07
8.6213974e-07
8.743288e-07
9.1032612e-07
9.278129e-07
9.3577298e-07
9.4043595e-07
9.3450882e-07
9.4454633e-07
9.6216761e-07
9.9633347e-07
1.0393302e-06
1.1011018e-06
1.1705502e-06
1.2382085e-06
1.2967501e-06
1.3472809e-06
1.3890082e-06
1.4203157e-06
1.4355609e-06
1.4554451e-06
1.4588685e-06
1.4440021e-06
1.4419635e-06
1.4408822e-06
1.4345423e-06
1.4161835e-06
1.4171908e-06
1.4107261e-06
1.3973168e-06
1.3526682e-06
8.79164e-07
8.8217529e-07
8.6285567e-07
8.6661542e-07
8.7571955e-07
8.8473835e-07
8.9333642e-07
8.9503433e-07
9.023356e-07
9.1373181e-07
9.3399618e-07
9.6079854e-07
9.8849743e-07
1.0191397e-06
1.0478746e-06
1.07637e-06
1.1063707e-06
1.1321972e-06
1.1642237e-06
1.1848271e-06
1.2386111e-06
1.28094e-06
1.2970813e-06
1.3223392e-06
1.367015e-06
1.3919243e-06
1.3867037e-06
1.3870652e-06
1.4150877e-06
1.4415136e-06
1.43895e-06
8.8411489e-07
8.9020808e-07
8.7110894e-07
8.7714652e-07
8.8291465e-07
8.8656221e-07
8.8776835e-07
8.8661357e-07
8.8679528e-07
8.9024007e-07
8.9952328e-07
9.1692284e-07
9.3600281e-07
9.5818993e-07
9.7832253e-07
9.9634809e-07
1.0140081e-06
1.0327626e-06
1.0470401e-06
1.0545942e-06
1.0801462e-06
1.1051682e-06
1.1067416e-06
1.1200074e-06
1.1579912e-06
1.1913976e-06
1.2064439e-06
1.2163111e-06
1.2621376e-06
1.3104405e-06
1.3621438e-06
8.8655003e-07
8.8952425e-07
8.6440686e-07
8.805864e-07
8.8866024e-07
8.9596074e-07
8.9470112e-07
8.9368324e-07
8.9005333e-07
8.9036944e-07
8.9134219e-07
8.9576606e-07
8.9918011e-07
9.0827179e-07
9.1732402e-07
9.2593045e-07
9.3717406e-07
9.5104532e-07
9.6133707e-07
9.6883957e-07
9.8970108e-07
1.011906e-06
1.0161212e-06
1.0242869e-06
1.0523819e-06
1.0804318e-06
1.0877425e-06
1.0917973e-06
1.1183881e-06
1.149449e-06
1.1909448e-06
8.8162709e-07
9.4563963e-07
8.9663245e-07
9.0347846e-07
9.0398296e-07
9.1106808e-07
9.1043687e-07
9.1160581e-07
9.0785954e-07
9.0754858e-07
9.0771729e-07
9.1104786e-07
9.1140443e-07
9.1747571e-07
9.2288505e-07
9.2972637e-07
9.3819045e-07
9.4864077e-07
9.6024315e-07
9.7271831e-07
9.9177236e-07
1.0145716e-06
1.0279222e-06
1.0386554e-06
1.0604991e-06
8.1005583e-07
9.6626978e-07
1.1090939e-06
1.1211304e-06
1.1397332e-06
7.6682889e-07
8.7690762e-07
9.5169073e-07
1.0014124e-06
1.062569e-06
1.1122879e-06
1.1635191e-06
1.1914942e-06
1.2134149e-06
1.2292527e-06
1.2326894e-06
1.2407347e-06
1.2450795e-06
1.2523272e-06
1.2535676e-06
1.2641092e-06
1.268778e-06
1.2735107e-06
1.2923223e-06
1.3132778e-06
1.3491787e-06
1.3667191e-06
9.7095172e-07
1.4013163e-06
1.4084997e-06
1.4257383e-06
7.2784007e-07
8.7692068e-07
1.4798009e-06
1.2903466e-06
1.464277e-06
7.3375262e-07
1.0452014e-06
1.7962344e-06
1.9128471e-06
2.1709246e-06
2.1982066e-06
2.201038e-06
2.3283875e-06
2.2756707e-06
2.4222028e-06
2.3301809e-06
2.4248889e-06
2.3428383e-06
2.4066276e-06
2.3820615e-06
2.2731662e-06
2.4574798e-06
2.4589272e-06
2.2897643e-06
2.3005543e-06
2.6567156e-06
2.6580581e-06
2.2375535e-06
2.6001644e-06
2.630687e-06
2.628982e-06
1.8131314e-06
1.8027805e-06
2.6325977e-06
2.6244992e-06
2.5818147e-06
1.7949224e-06
9.8243539e-07
2.0824664e-06
2.4503977e-06
2.0115095e-06
2.1480986e-06
1.7841349e-06
2.0334397e-06
1.6659012e-06
1.9490926e-06
1.5674137e-06
1.912668e-06
1.5842231e-06
1.9314133e-06
1.6427021e-06
1.9994945e-06
1.7766475e-06
1.9871962e-06
2.1617406e-06
2.2047286e-06
1.9978879e-06
2.1422442e-06
2.4689222e-06
2.2910469e-06
1.9678299e-06
2.0655765e-06
2.7177043e-06
2.6106482e-06
2.3789456e-06
1.9652942e-06
2.3875604e-06
2.3005997e-06
2.0318206e-06
1.9446367e-06
9.456982e-07
1.1808164e-06
1.19973e-06
1.3361258e-06
1.4285498e-06
1.3742601e-06
1.1200551e-06
1.0295147e-06
1.0149893e-06
1.0284634e-06
1.0247765e-06
9.9210818e-07
9.7879798e-07
1.004399e-06
1.0459939e-06
1.0501202e-06
1.0358919e-06
1.0269866e-06
1.0415084e-06
1.059158e-06
1.0689802e-06
1.682465e-06
2.4899909e-06
1.14712e-06
7.5302157e-07
1.1925502e-06
1.2852773e-06
1.4294101e-06
1.4295473e-06
1.2144064e-06
1.0731918e-06
1.0402845e-06
1.0634967e-06
1.081994e-06
1.0683997e-06
1.0474473e-06
1.0610793e-06
1.1040735e-06
1.0959993e-06
1.0620484e-06
1.0521742e-06
1.076365e-06
1.1141303e-06
1.120596e-06
1.3337528e-06
2.3652868e-06
1.6651986e-06
8.3565509e-07
8.3971369e-07
1.3208353e-06
1.4778421e-06
1.5027197e-06
1.3571866e-06
1.1457919e-06
1.0591651e-06
1.0690067e-06
1.1228421e-06
1.1361709e-06
1.1206372e-06
1.1185433e-06
1.1623779e-06
1.1697944e-06
1.1455367e-06
1.1338888e-06
1.1419307e-06
1.1807574e-06
1.1894699e-06
1.0183802e-06
1.3304006e-06
7.1641412e-07
6.3557491e-07
1.0578369e-06
1.3801603e-06
1.5394143e-06
1.5906343e-06
1.4720344e-06
1.2222931e-06
1.1084946e-06
1.1119585e-06
1.1721652e-06
1.182985e-06
1.1619131e-06
1.1493041e-06
1.1752067e-06
1.2179473e-06
1.2276187e-06
1.2274326e-06
1.2315556e-06
1.2571593e-06
1.2443002e-06
7.699217e-07
1.3009713e-06
6.6461998e-07
7.511047e-07
1.1085087e-06
1.3916676e-06
1.5461804e-06
1.6195324e-06
1.5673123e-06
1.3806824e-06
1.2430819e-06
1.2183278e-06
1.2595623e-06
1.2583792e-06
1.2264102e-06
1.1835725e-06
1.1897459e-06
1.2565396e-06
1.2837613e-06
1.297402e-06
1.2834128e-06
1.2975214e-06
1.2948953e-06
8.4421172e-07
1.8062882e-06
1.3377343e-06
7.8396931e-07
9.8787241e-07
1.3780792e-06
1.5354762e-06
1.6855098e-06
1.6611321e-06
1.4774306e-06
1.3442769e-06
1.3005008e-06
1.3568138e-06
1.3713764e-06
1.3419899e-06
1.3143711e-06
1.2885264e-06
1.3586117e-06
1.3853028e-06
1.3717449e-06
1.3424084e-06
1.3182447e-06
1.3536401e-06
8.3630461e-07
1.6658513e-06
1.6413673e-06
5.8969854e-07
6.7684125e-07
9.7553067e-07
1.5897874e-06
1.8166915e-06
1.8065537e-06
1.6275037e-06
1.4036346e-06
1.3282222e-06
1.3629303e-06
1.4342818e-06
1.4424584e-06
1.45696e-06
1.4599635e-06
1.4759877e-06
1.5038259e-06
1.4706518e-06
1.4442996e-06
1.4083181e-06
1.4308317e-06
6.2656527e-07
1.3314074e-06
1.0285871e-06
1.1639053e-06
9.6163115e-07
1.1904264e-06
1.6946118e-06
1.9497403e-06
1.9297642e-06
1.7546419e-06
1.5091116e-06
1.3797603e-06
1.3885039e-06
1.4765073e-06
1.5008511e-06
1.5077911e-06
1.5284118e-06
1.5348871e-06
1.5858143e-06
1.5757279e-06
1.5465966e-06
1.5356214e-06
1.524669e-06
4.7525677e-07
1.3370691e-06
6.4021416e-07
5.2890095e-07
7.8066845e-07
1.5916873e-06
1.7696164e-06
2.0892423e-06
2.1463875e-06
2.0143107e-06
1.7576079e-06
1.591927e-06
1.5319584e-06
1.62036e-06
1.6099294e-06
1.5818467e-06
1.5600591e-06
1.537184e-06
1.5992691e-06
1.6316914e-06
1.6364955e-06
1.6611231e-06
1.6601453e-06
6.098698e-07
1.2321984e-06
9.8849089e-07
1.3520485e-06
1.0415412e-06
1.0594005e-06
1.6196953e-06
2.1830166e-06
2.2500088e-06
2.1749601e-06
1.9503029e-06
1.7908225e-06
1.7312541e-06
1.7951833e-06
1.8037626e-06
1.7285567e-06
1.6887227e-06
1.6405316e-06
1.6666867e-06
1.7396808e-06
1.7458821e-06
1.7919865e-06
1.8139533e-06
9.0286133e-07
1.2948081e-06
1.4559839e-06
8.4525021e-07
1.0349961e-06
1.5136832e-06
1.7415528e-06
2.1901636e-06
2.4045767e-06
2.359175e-06
2.119737e-06
1.9505717e-06
1.8748353e-06
1.9330015e-06
1.9699787e-06
1.8892411e-06
1.8419458e-06
1.8168571e-06
1.8065121e-06
1.8937107e-06
1.9335592e-06
1.9396598e-06
1.9771403e-06
9.1930789e-07
1.2881762e-06
1.3940722e-06
8.3079875e-07
7.9790515e-07
1.2528658e-06
1.5479279e-06
2.040343e-06
2.5952817e-06
2.55917e-06
2.345519e-06
2.0791097e-06
1.9455627e-06
1.9882905e-06
2.0557453e-06
2.0224893e-06
1.9823737e-06
1.9862069e-06
1.9819283e-06
2.0571585e-06
2.0935593e-06
2.0312117e-06
2.0189861e-06
7.9628717e-07
1.3188629e-06
1.3036634e-06
1.3473637e-06
1.2026825e-06
1.2750184e-06
1.323804e-06
1.8662458e-06
2.8304364e-06
2.781967e-06
2.5249891e-06
2.2729303e-06
2.0972499e-06
2.0859108e-06
2.1618221e-06
2.1633701e-06
2.1259866e-06
2.1627456e-06
2.1688781e-06
2.2189653e-06
2.2506209e-06
2.1855207e-06
2.1213898e-06
8.2240554e-07
1.3915875e-06
9.387755e-07
9.3972748e-07
1.6011214e-06
1.9459087e-06
2.2278495e-06
2.6588335e-06
3.1394729e-06
3.1149714e-06
2.7963421e-06
2.4958014e-06
2.3100627e-06
2.2702781e-06
2.4012252e-06
2.4443499e-06
2.3942063e-06
2.4499789e-06
2.4484517e-06
2.4409061e-06
2.4948277e-06
2.3924947e-06
2.2385103e-06
9.9062332e-07
1.58309e-06
9.0902073e-07
9.0976481e-07
1.6033285e-06
1.9971775e-06
2.2807583e-06
2.8037449e-06
3.3630302e-06
3.4208821e-06
3.0270686e-06
2.6902985e-06
2.512888e-06
2.465804e-06
2.6377122e-06
2.7281942e-06
2.6926642e-06
2.7227294e-06
2.7657671e-06
2.7648645e-06
2.8320604e-06
2.7512263e-06
2.5392811e-06
1.2805202e-06
1.8506718e-06
1.0508435e-06
1.4705163e-06
1.5765014e-06
1.9430962e-06
1.7858156e-06
2.2237924e-06
3.4248993e-06
3.6597127e-06
3.2532476e-06
2.8947121e-06
2.7206707e-06
2.6624464e-06
2.8357582e-06
2.9094693e-06
2.8589776e-06
2.8581987e-06
2.8995361e-06
2.9023357e-06
2.9385822e-06
2.9307979e-06
2.7833517e-06
1.6092152e-06
2.0991451e-06
1.5089653e-06
1.6510092e-06
1.6759774e-06
1.9885587e-06
1.9089543e-06
2.3459543e-06
3.5607494e-06
4.0473833e-06
3.5950364e-06
3.2397172e-06
3.0122797e-06
2.9296713e-06
3.0626141e-06
3.0846776e-06
2.9554372e-06
2.9196124e-06
2.9259214e-06
2.9218844e-06
3.0487786e-06
3.1108355e-06
3.0759109e-06
1.8529204e-06
2.7551417e-06
2.2611887e-06
2.0542751e-06
2.1601837e-06
2.4636648e-06
2.7366637e-06
3.4853733e-06
4.2346891e-06
4.7198318e-06
4.2834905e-06
3.9612876e-06
3.6113555e-06
3.4829692e-06
3.5150072e-06
3.4375822e-06
3.1798628e-06
3.090803e-06
3.0825041e-06
3.0588958e-06
3.1364572e-06
3.2115791e-06
3.1916384e-06
2.0343153e-06
2.9456666e-06
2.5956057e-06
2.4410157e-06
2.5498999e-06
2.9267828e-06
3.2621553e-06
3.9029395e-06
4.556465e-06
5.1073632e-06
4.5707774e-06
4.4517458e-06
4.2728767e-06
4.2308593e-06
4.3022134e-06
4.1377285e-06
3.6873165e-06
3.5580746e-06
3.5092481e-06
3.4839517e-06
3.5208206e-06
3.5481733e-06
3.4318348e-06
2.0385622e-06
2.8670473e-06
2.6326796e-06
2.5838564e-06
2.7383983e-06
3.2659379e-06
3.664834e-06
4.1840462e-06
4.7348806e-06
5.2302502e-06
4.6706362e-06
4.6692129e-06
4.6357009e-06
4.6622016e-06
4.7222424e-06
4.4481102e-06
3.9542678e-06
3.8713039e-06
3.9087797e-06
3.8990716e-06
3.9232287e-06
3.9376164e-06
3.6579259e-06
1.9339427e-06
2.792846e-06
2.6041912e-06
2.6671221e-06
2.8582094e-06
3.4907227e-06
3.9958483e-06
4.5007697e-06
4.987364e-06
5.3209577e-06
4.7632455e-06
4.8645736e-06
4.9070756e-06
4.9196917e-06
4.9206297e-06
4.5643391e-06
4.0257554e-06
4.0293352e-06
4.2208088e-06
4.349462e-06
4.413497e-06
4.2490818e-06
3.8720397e-06
1.7678491e-06
2.533118e-06
2.4992655e-06
2.7465764e-06
3.0502687e-06
3.8959145e-06
4.5085941e-06
5.025404e-06
5.6514111e-06
5.5055074e-06
5.0319877e-06
5.3344101e-06
5.3605001e-06
5.4078152e-06
5.4147792e-06
4.7284758e-06
4.1191111e-06
4.143804e-06
4.3976059e-06
4.5387174e-06
4.6070359e-06
4.4321347e-06
4.1428917e-06
1.5505972e-06
2.2685507e-06
2.4679884e-06
2.8960939e-06
3.5896731e-06
5.3089926e-06
6.3709226e-06
7.0183962e-06
7.3192982e-06
5.8851996e-06
5.4904842e-06
5.9404633e-06
6.4826066e-06
6.651938e-06
6.0447142e-06
4.7974981e-06
4.33474e-06
4.4592356e-06
4.8613367e-06
4.973598e-06
5.0475941e-06
4.5553739e-06
4.5179529e-06
1.4084441e-06
2.1008154e-06
2.5213008e-06
3.090651e-06
4.1641491e-06
6.9053629e-06
8.3315482e-06
8.8037299e-06
8.2312398e-06
6.5479874e-06
6.4817291e-06
7.3019044e-06
7.6636882e-06
7.3906455e-06
6.4772192e-06
5.1267409e-06
4.9978993e-06
5.4373693e-06
5.7404093e-06
5.8497732e-06
5.1818657e-06
4.7461717e-06
5.1248075e-06
1.5596246e-06
2.0013587e-06
2.5980808e-06
3.3159872e-06
4.6139601e-06
7.8237301e-06
9.2162978e-06
9.7459191e-06
8.8580056e-06
7.043634e-06
7.0361189e-06
7.7252671e-06
7.909821e-06
7.7570048e-06
6.6556015e-06
5.7473397e-06
5.915203e-06
6.8420575e-06
7.0626771e-06
6.4685114e-06
5.3549631e-06
5.1977135e-06
5.6016716e-06
1.416849e-06
1.9602062e-06
2.7488212e-06
3.6431885e-06
5.2650886e-06
8.8934129e-06
1.0221204e-05
1.0950468e-05
9.2095098e-06
7.5579972e-06
7.3967856e-06
8.3045518e-06
8.729956e-06
8.2350807e-06
6.8799795e-06
6.6150691e-06
7.6453633e-06
8.3129632e-06
7.9366935e-06
6.6118715e-06
5.7113748e-06
5.7596791e-06
6.2938528e-06
1.4256359e-06
2.0416353e-06
3.1085073e-06
4.0578599e-06
5.9992347e-06
1.0793552e-05
1.240343e-05
1.2915896e-05
9.9140163e-06
8.992343e-06
9.5476949e-06
9.9187063e-06
9.1594604e-06
8.2253009e-06
7.280571e-06
7.5687197e-06
8.9621577e-06
9.220158e-06
8.6041109e-06
6.8053626e-06
6.3325191e-06
6.857896e-06
6.9088952e-06
1.5396874e-06
2.2675346e-06
3.6026089e-06
4.7274141e-06
8.0300922e-06
1.3860959e-05
1.4861543e-05
1.3650096e-05
1.0782059e-05
1.0161212e-05
1.0712486e-05
1.1061299e-05
1.0673196e-05
8.4513732e-06
7.9375374e-06
8.9532361e-06
1.0500786e-05
1.0573941e-05
8.5334077e-06
7.3612873e-06
7.5717976e-06
7.573454e-06
6.9539578e-06
1.7982932e-06
2.6982693e-06
4.4535145e-06
6.1511732e-06
1.063678e-05
1.4593456e-05
1.5361253e-05
1.4357705e-05
1.171399e-05
1.1522336e-05
1.3015342e-05
1.3297392e-05
1.116196e-05
9.2309962e-06
9.5399864e-06
1.1357863e-05
1.1764763e-05
1.0252467e-05
8.6984424e-06
8.2823022e-06
8.3398313e-06
7.8465833e-06
7.6132091e-06
2.1200614e-06
3.1884982e-06
5.1101306e-06
6.9908408e-06
1.1510038e-05
1.4564853e-05
1.5705556e-05
1.4558633e-05
1.3462611e-05
1.3756329e-05
1.4715098e-05
1.452905e-05
1.205376e-05
1.1349028e-05
1.1674026e-05
1.1951766e-05
1.1511329e-05
9.9000254e-06
9.2939219e-06
9.463297e-06
9.2351306e-06
8.8652109e-06
9.012402e-06
2.319379e-06
3.5261494e-06
5.4000472e-06
7.2736242e-06
1.2076936e-05
1.4793889e-05
1.6129535e-05
1.5325237e-05
1.4960443e-05
1.5960381e-05
1.6696395e-05
1.5172751e-05
1.3155891e-05
1.2338876e-05
1.2265349e-05
1.2224494e-05
1.0898049e-05
1.0446288e-05
1.0668226e-05
1.0744858e-05
1.0594233e-05
1.0657623e-05
1.2018739e-05
2.3632261e-06
3.7666907e-06
5.6239284e-06
7.5892277e-06
1.262468e-05
1.5315956e-05
1.6905466e-05
1.6794218e-05
1.7466619e-05
1.7757886e-05
1.6587589e-05
1.4588874e-05
1.3420393e-05
1.3412078e-05
1.337821e-05
1.1927539e-05
1.1075221e-05
1.1142081e-05
1.1698204e-05
1.1938328e-05
1.2265677e-05
1.3500024e-05
1.2612935e-05
2.5845573e-06
4.3114098e-06
6.1314738e-06
8.4040591e-06
1.3589018e-05
1.601876e-05
1.7828474e-05
1.7790479e-05
1.7703832e-05
1.6915666e-05
1.5178052e-05
1.4245675e-05
1.4899132e-05
1.5327162e-05
1.380336e-05
1.26223e-05
1.2397278e-05
1.3110147e-05
1.266347e-05
1.2685318e-05
1.3728758e-05
1.3587704e-05
1.2762296e-05
3.4505913e-06
5.6328412e-06
7.7180737e-06
1.0806602e-05
1.4542038e-05
1.6359242e-05
1.744073e-05
1.7380827e-05
1.7043501e-05
1.6115707e-05
1.4915712e-05
1.4627516e-05
1.5718144e-05
1.6284109e-05
1.4854492e-05
1.4186153e-05
1.3978884e-05
1.3073344e-05
1.2280985e-05
1.2371215e-05
1.3805166e-05
1.4115637e-05
1.4169224e-05
4.0543909e-06
7.0373475e-06
1.0418114e-05
1.460424e-05
1.6317802e-05
1.6633651e-05
1.6827751e-05
1.7293726e-05
1.7525699e-05
1.6663674e-05
1.5890367e-05
1.6358635e-05
1.7005913e-05
1.6337802e-05
1.5070657e-05
1.4561755e-05
1.4198753e-05
1.3272896e-05
1.2984344e-05
1.378416e-05
1.5663381e-05
1.7160347e-05
1.966475e-05
3.8543509e-06
7.1515961e-06
1.0826e-05
1.5472696e-05
1.7472347e-05
1.7811907e-05
1.7196907e-05
1.785812e-05
1.8465965e-05
1.7854238e-05
1.7098028e-05
1.7330727e-05
1.7885261e-05
1.6542125e-05
1.4894132e-05
1.4777099e-05
1.5272322e-05
1.5067779e-05
1.4259179e-05
1.4368923e-05
1.5645876e-05
1.6852666e-05
1.8453598e-05
2.0138466e-06
6.7298075e-06
1.0473304e-05
1.5648323e-05
1.8491781e-05
1.9452979e-05
1.9573605e-05
1.9811055e-05
2.0233213e-05
1.9006435e-05
1.7877776e-05
1.7899239e-05
1.8204914e-05
1.7071827e-05
1.5061223e-05
1.4588427e-05
1.5219812e-05
1.5841699e-05
1.558521e-05
1.5495195e-05
1.6475558e-05
1.759011e-05
1.7589056e-05
1.9011024e-06
5.9909682e-06
9.7070817e-06
1.4832878e-05
1.881762e-05
2.0473067e-05
2.1307149e-05
2.1984789e-05
2.2131229e-05
2.0874065e-05
1.8126651e-05
1.7966593e-05
1.833594e-05
1.7996292e-05
1.6186974e-05
1.5122464e-05
1.5341948e-05
1.6143372e-05
1.6028646e-05
1.5934155e-05
1.6359677e-05
1.7413749e-05
1.7159784e-05
3.3170916e-06
5.7113384e-06
9.1288235e-06
1.2432147e-05
1.7084732e-05
1.9825722e-05
2.1459902e-05
2.2604994e-05
2.268488e-05
2.2011239e-05
1.9123094e-05
1.8186502e-05
1.8378032e-05
1.8917253e-05
1.8263802e-05
1.6568878e-05
1.6467196e-05
1.6824514e-05
1.6669017e-05
1.5969992e-05
1.5879272e-05
1.6792263e-05
1.5983295e-05
3.4957387e-06
5.9466017e-06
8.8717957e-06
1.0885784e-05
1.392048e-05
1.6708219e-05
1.9621954e-05
2.2100748e-05
2.2955074e-05
2.2804677e-05
2.0917936e-05
1.939682e-05
1.9144329e-05
1.9490849e-05
1.9557935e-05
1.7843976e-05
1.7259345e-05
1.7334988e-05
1.7313226e-05
1.659628e-05
1.5920018e-05
1.6145048e-05
1.5829442e-05
1.6845557e-06
5.9621606e-06
8.5603406e-06
1.0298742e-05
1.2608253e-05
1.4886804e-05
1.7163435e-05
2.053043e-05
2.2629075e-05
2.3174715e-05
2.2442561e-05
2.1009719e-05
2.0656887e-05
2.0480376e-05
2.0137073e-05
1.9116357e-05
1.7461029e-05
1.728585e-05
1.7265479e-05
1.7187798e-05
1.6538083e-05
1.6649165e-05
1.6628808e-05
1.3591519e-06
5.7743863e-06
8.0516732e-06
9.9981173e-06
1.2093541e-05
1.4718496e-05
1.6848173e-05
1.9795407e-05
2.1868217e-05
2.2291734e-05
2.2415768e-05
2.1487353e-05
2.1294401e-05
2.1153653e-05
2.075164e-05
2.0065197e-05
1.8114022e-05
1.738698e-05
1.7390572e-05
1.7512118e-05
1.7541114e-05
1.7405232e-05
1.743001e-05
1.8700165e-06
6.1104423e-06
7.8839894e-06
9.4111575e-06
1.1204208e-05
1.3682758e-05
1.6034338e-05
1.9688626e-05
2.2039121e-05
2.2316678e-05
2.2266029e-05
2.1411635e-05
2.1073614e-05
2.1103603e-05
2.1086948e-05
2.0730985e-05
1.9759108e-05
1.8420629e-05
1.832729e-05
1.8396846e-05
1.8435792e-05
1.8436133e-05
1.8108628e-05
2.7144645e-06
7.2417553e-06
8.1010424e-06
8.7865209e-06
9.9763945e-06
1.1636239e-05
1.3759049e-05
1.7512038e-05
2.167151e-05
2.276276e-05
2.2707101e-05
2.217948e-05
2.1590077e-05
2.1580963e-05
2.1548035e-05
2.1426716e-05
2.1103044e-05
1.9775617e-05
1.929652e-05
1.930531e-05
1.9202649e-05
1.9097343e-05
1.8644257e-05
2.3640519e-06
7.9007858e-06
8.4774428e-06
8.70518e-06
8.9779265e-06
1.0078735e-05
1.1586107e-05
1.4221203e-05
1.9148541e-05
2.2244248e-05
2.3108518e-05
2.3150846e-05
2.2768568e-05
2.2751012e-05
2.27197e-05
2.2388935e-05
2.2013918e-05
2.1276311e-05
1.9982838e-05
1.9616633e-05
1.9474051e-05
1.9431861e-05
1.905701e-05
2.0455378e-06
8.5312986e-06
9.2474359e-06
8.9345779e-06
8.740991e-06
9.6702526e-06
1.0829064e-05
1.2725536e-05
1.7099911e-05
2.0974416e-05
2.2631748e-05
2.3280008e-05
2.3444586e-05
2.3450086e-05
2.3533873e-05
2.3173475e-05
2.2714451e-05
2.2256153e-05
2.133526e-05
2.0311822e-05
2.0034147e-05
1.9991666e-05
1.9810505e-05
2.1666076e-06
9.629101e-06
1.068029e-05
9.5905517e-06
9.2354036e-06
1.0103745e-05
1.1171504e-05
1.2951127e-05
1.7084289e-05
2.0844134e-05
2.2507161e-05
2.2931189e-05
2.3222008e-05
2.3331574e-05
2.3570433e-05
2.3749378e-05
2.3522746e-05
2.3252028e-05
2.2875151e-05
2.2125913e-05
2.1501503e-05
2.1334046e-05
2.1011239e-05
2.3467226e-06
1.0989712e-05
1.2675414e-05
1.1213709e-05
1.0531886e-05
1.1006736e-05
1.1861177e-05
1.3572888e-05
1.7606729e-05
2.1216293e-05
2.2845503e-05
2.3220791e-05
2.3455062e-05
2.343366e-05
2.3622096e-05
2.4060375e-05
2.4407728e-05
2.4465087e-05
2.4150779e-05
2.3606427e-05
2.2909524e-05
2.2561586e-05
2.2030496e-05
2.1328516e-06
1.2532831e-05
1.4902478e-05
1.3533658e-05
1.2780962e-05
1.2901523e-05
1.353309e-05
1.5080309e-05
1.8924908e-05
2.2400462e-05
2.4013487e-05
2.4350539e-05
2.4458974e-05
2.388045e-05
2.3688968e-05
2.3795092e-05
2.39762e-05
2.4411297e-05
2.4481943e-05
2.4306569e-05
2.3723889e-05
2.338641e-05
2.2953754e-05
2.0534365e-06
1.3615027e-05
1.7318632e-05
1.6771383e-05
1.6307477e-05
1.6744542e-05
1.8200739e-05
2.0258477e-05
2.3490783e-05
2.6128348e-05
2.7032697e-05
2.6981321e-05
2.6200163e-05
2.4939572e-05
2.4502359e-05
2.4396989e-05
2.4279701e-05
2.4461322e-05
2.4522888e-05
2.4425144e-05
2.4273164e-05
2.4192895e-05
2.4081047e-05
2.1684599e-06
1.3336661e-05
1.938122e-05
2.165452e-05
2.2454997e-05
2.3963578e-05
2.605533e-05
2.7792801e-05
2.9438344e-05
3.0477146e-05
3.0519477e-05
3.0059247e-05
2.8272219e-05
2.694799e-05
2.6765214e-05
2.6554521e-05
2.6143826e-05
2.5977226e-05
2.5720298e-05
2.5433018e-05
2.5006312e-05
2.4767497e-05
2.4487112e-05
2.6702881e-06
1.1207882e-05
1.8826714e-05
2.3212337e-05
2.5957913e-05
2.8400662e-05
3.0838533e-05
3.2499415e-05
3.3511027e-05
3.3974371e-05
3.3701509e-05
3.2337949e-05
3.0310935e-05
2.9145495e-05
2.8861559e-05
2.8753597e-05
2.8553118e-05
2.8143155e-05
2.7412638e-05
2.6957107e-05
2.6341848e-05
2.586612e-05
2.5322814e-05
1.8886327e-06
8.1260482e-06
1.4750224e-05
2.125176e-05
2.5489733e-05
2.8691048e-05
3.1474615e-05
3.352584e-05
3.4915549e-05
3.5533546e-05
3.5284918e-05
3.3851853e-05
3.1699241e-05
3.0296364e-05
2.960771e-05
2.9127307e-05
2.9188218e-05
2.9292997e-05
2.9117347e-05
2.8906451e-05
2.85272e-05
2.8140854e-05
2.8239362e-05
2.468122e-06
7.9810256e-06
1.2185999e-05
1.6996834e-05
2.2004166e-05
2.6227485e-05
2.9866838e-05
3.2594579e-05
3.4355656e-05
3.5080875e-05
3.5202764e-05
3.4558831e-05
3.3044544e-05
3.1628323e-05
3.0219707e-05
2.8665725e-05
2.7399431e-05
2.6348773e-05
2.6216557e-05
2.5945773e-05
2.612212e-05
2.6025709e-05
2.6809091e-05
2.5248488e-06
7.5599341e-06
9.3020733e-06
1.2225635e-05
1.6834269e-05
2.1525958e-05
2.5617869e-05
2.8852994e-05
3.1234662e-05
3.2665711e-05
3.346082e-05
3.3435348e-05
3.2614925e-05
3.1441969e-05
3.0165337e-05
2.8228268e-05
2.6072361e-05
2.3069591e-05
1.9747133e-05
1.7153667e-05
1.5985793e-05
1.55461e-05
1.69124e-05
2.5570656e-06
7.5115845e-06
7.3552408e-06
8.3970744e-06
1.022987e-05
1.3337818e-05
1.6664529e-05
2.025119e-05
2.3654012e-05
2.665447e-05
2.8757126e-05
2.9501143e-05
2.9377344e-05
2.872271e-05
2.7673249e-05
2.5806901e-05
2.1996333e-05
1.6990477e-05
1.3428082e-05
1.131338e-05
1.0402238e-05
1.0361659e-05
1.1182541e-05
2.9060562e-06
8.4150488e-06
7.2140912e-06
7.609044e-06
8.4989774e-06
9.7753846e-06
1.1315945e-05
1.3239069e-05
1.5220541e-05
1.6971007e-05
1.8356795e-05
1.8995052e-05
1.9114583e-05
1.8841249e-05
1.7898606e-05
1.6221708e-05
1.3643913e-05
1.2147142e-05
1.1603212e-05
1.1435646e-05
1.1475462e-05
1.2186406e-05
1.0705163e-05
2.8915599e-06
9.1701829e-06
8.1067092e-06
8.2103803e-06
8.6198199e-06
9.2191375e-06
9.9814237e-06
1.0760281e-05
1.1369851e-05
1.1833481e-05
1.2242609e-05
1.2558837e-05
1.2850524e-05
1.3264746e-05
1.3768875e-05
1.4586099e-05
1.5436063e-05
1.6437392e-05
1.766003e-05
1.9347312e-05
2.1302985e-05
2.5433805e-05
1.4136381e-05
3.1147353e-06
1.0784989e-05
1.0592501e-05
1.036421e-05
9.6480101e-06
9.871068e-06
1.0591044e-05
1.1383811e-05
1.2317008e-05
1.3563511e-05
1.4963258e-05
1.6644914e-05
1.8630276e-05
2.1422214e-05
2.4899714e-05
2.9505001e-05
3.5106581e-05
4.2939207e-05
5.203025e-05
6.5248758e-05
7.5754102e-05
9.5233414e-05
9.2584193e-05
3.5269601e-06
1.3516379e-05
1.304187e-05
1.1791935e-05
1.2629377e-05
1.4074166e-05
1.6149765e-05
1.96019e-05
2.4535201e-05
2.8571809e-05
3.3739403e-05
4.0568838e-05
4.7678103e-05
6.2461066e-05
8.1837553e-05
0.00010330262
0.00011978202
0.00013557916
0.0001491217
0.00016019452
0.00016680849
0.00017366025
0.00017420783
3.4568358e-06