/*--------------------------------*- C++ -*----------------------------------*\
| =========                 |                                                 |
| \\      /  F ield         | OpenFOAM: The Open Source CFD Toolbox           |
|  \\    /   O peration     | Version:  2406                                  |
|   \\  /    A nd           | Website:  www.openfoam.com                      |
|    \\/     M anipulation  |                                                 |
\*---------------------------------------------------------------------------*/
FoamFile
{
    version     2.0;
    format      ascii;
    arch        "LSB;label=32;scalar=64";
    class       volScalarField;
    location    "70";
    object      rho;
}
// * * * * * * * * * * * * * * * * * * * * * * * * * * * * * * * * * * * * * //

dimensions      [1 -3 0 0 0 0 0];

internalField   nonuniform List<scalar> 
20580
(
1.0047081
1.0062294
1.0031368
1.0020406
1.0010874
1.0019125
1.0025716
1.0016385
1.0028676
1.003428
1.0032652
1.0036886
1.0038544
1.0040641
1.0032473
1.0041141
1.0042237
1.0013598
1.0045007
1.0027702
1.00113
1.0032758
1.0024882
0.99958443
0.99953297
1.007391
1.0054948
0.99856845
1.0004219
0.99794436
0.99110669
1.0050967
1.0064602
1.0030661
1.0024229
1.0008798
1.0019562
1.0025153
1.001745
1.0029425
1.0036159
1.0030882
1.0035798
1.0043055
1.0036616
1.0034956
1.0046409
1.0031189
1.0017161
1.0055654
1.0015138
1.0013758
1.0040689
1.0017711
1.0002377
1.0017604
1.009314
1.0058475
0.99518238
0.99644775
1.0024748
0.99742219
1.00414
1.0055891
1.0028016
1.0028293
1.0014345
1.0023399
1.0023131
1.0024315
1.002928
1.0036363
1.0031979
1.0034978
1.0046557
1.003197
1.0037714
1.0048447
1.0024079
1.0020848
1.0058918
1.000955
1.0023866
1.004398
1.0006132
1.001185
1.0026025
1.0083756
1.0054504
0.99403526
0.99322442
1.0043738
1.004907
1.0022277
1.0039877
1.0025448
1.0030853
1.0025234
1.0028213
1.0020283
1.0030173
1.0028188
1.0034522
1.003297
1.0035442
1.004676
1.0031185
1.0040989
1.0047922
1.002291
1.0027024
1.0051659
1.0007674
1.0034914
1.0042718
0.99924851
1.0025579
1.0027253
1.0043275
1.0036212
0.99531551
0.99322199
1.0034754
1.0097686
1.0004186
1.0023706
1.002497
1.0031382
1.003599
1.0030346
1.0018827
1.0030604
1.0028126
1.0031339
1.0034092
1.0037476
1.0041641
1.0035783
1.0042168
1.0045403
1.0024906
1.0033847
1.0036159
1.0011623
1.0045292
1.003207
0.99803605
1.0040432
1.0030084
0.99934514
1.0009184
0.99844623
0.99615266
1.0020902
1.0101226
0.99949579
1.0014963
1.002819
1.0029508
1.0039525
1.0027205
1.0019512
1.0027219
1.0027941
1.0026897
1.0036769
1.0041351
1.0033687
1.0042128
1.0039372
1.0039745
1.0029668
1.0040387
1.0020438
1.0018794
1.0051163
1.0019367
0.99699891
1.005221
1.0042028
0.99551601
0.99811697
1.0028567
1.0009992
1.0001293
1.0047683
0.99950514
1.0017395
1.0033843
1.0026607
1.0033759
1.0019824
1.0022627
1.0023503
1.0027562
1.0025473
1.0039532
1.004395
1.0030013
1.0047034
1.0036195
1.0032725
1.0034357
1.0044667
1.0007469
1.0024738
1.0047457
1.0010696
0.99709176
1.0056466
1.0062563
0.9944688
0.99550583
1.0065272
1.0080476
0.99981635
0.99592672
1.000555
1.0029756
1.0038914
1.0025435
1.0023613
1.0013017
1.0027575
1.0022109
1.0028044
1.002923
1.0042024
1.004129
1.0034384
1.0046953
1.0037083
1.0027732
1.003834
1.0047134
1.0002508
1.003651
1.0035784
1.0003976
0.99807339
1.0049061
1.007323
0.99683651
0.9941522
1.0066865
1.0136824
1.003425
0.99130227
1.0023138
1.0046654
1.0039685
1.0025802
1.0015268
1.0011728
1.003106
1.002297
1.0028753
1.0032325
1.0040396
1.0035411
1.0043026
1.0043321
1.0040267
1.0026434
1.0037244
1.0043711
1.0006057
1.0045617
1.0021097
1.0003012
1.0004913
1.0036551
1.005863
1.0006859
0.9956185
1.0033981
1.0126843
1.0079104
0.99379009
1.004203
1.006112
1.0034198
1.0026332
1.0011904
1.0018372
1.0028681
1.0024418
1.0028492
1.0033958
1.0035029
1.0032872
1.0048863
1.0038451
1.0042055
1.0031432
1.0035325
1.0034748
1.0016871
1.0053466
1.0003882
1.0005304
1.0040383
1.0021454
1.0022958
1.0032853
0.99980642
0.99996141
1.0050252
1.0077445
1.0002245
1.0049996
1.0066425
1.0025687
1.0028421
1.0016212
1.0029799
1.0021882
1.0026159
1.0027349
1.0035374
1.0030576
1.0036427
1.004876
1.0035298
1.0041477
1.0040268
1.0035439
1.0022805
1.0028637
1.0059482
0.9989229
1.0004693
1.0073933
1.0015926
0.99766264
1.0034454
1.0050999
0.99892732
0.99603882
1.0008746
1.0046584
1.0043457
1.0057758
1.0018608
1.0030354
1.0025273
1.0039317
1.0017041
1.0026985
1.0026268
1.0035984
1.0029018
1.0040998
1.004428
1.0035794
1.0038902
1.0046063
1.0034014
1.0013025
1.0035997
1.0056802
0.99850422
1.0003986
1.0095218
1.0024725
0.99402712
1.0014952
1.0092763
1.0014995
0.99113393
0.99204191
1.0036247
1.0026758
1.0041056
1.001734
1.0029845
1.0033416
1.004025
1.0018295
1.0026032
1.0025867
1.0035182
1.0030688
1.0042968
1.0040673
1.0038574
1.0035911
1.0045985
1.0032728
1.0010383
1.0042729
1.0048094
0.99891096
1.0002457
1.0095634
1.0036262
0.99313014
0.99890261
1.0102149
1.0060746
0.99227676
0.98788107
0.99858573
1.0006854
1.0024472
1.002478
1.0027162
1.0035438
1.002955
1.0023594
1.0024753
1.0026156
1.0031565
1.0034837
1.0041612
1.0041512
1.0040125
1.0035566
1.0043804
1.0033105
1.0015884
1.0046799
1.0030605
1.0000899
1.0009281
1.0072479
1.0037956
0.9952717
0.99766958
1.007385
1.008892
0.99817549
0.99056907
0.9951338
0.99956321
1.0015118
1.0038613
1.0026348
1.0032817
1.0015507
1.0028922
1.0023577
1.0028404
1.002752
1.0040001
1.0037841
1.0043881
1.0040225
1.0040088
1.0041393
1.0033677
1.0026794
1.004509
1.0009721
1.0019449
1.0026447
1.0036925
1.002378
0.99932328
0.99904767
1.0027268
1.0067428
1.0044546
0.99851681
0.9966293
0.9997994
1.0019245
1.0050033
1.0028157
1.0028528
1.0006853
1.0031107
1.0023117
1.0032734
1.0028475
1.0041051
1.0035893
1.0044188
1.0041338
1.0043452
1.0038639
1.0030197
1.0035506
1.0043782
0.99917928
1.0035483
1.0049838
1.0004936
0.99950215
1.0032976
1.0028588
0.99938949
1.0000406
1.0060323
1.0072016
1.0025709
1.0009335
1.0034279
1.0049732
1.0030153
1.0023863
1.0008939
1.0028757
1.0024724
1.003489
1.003226
1.0037377
1.0038721
1.0041613
1.0043351
1.0044721
1.003425
1.0025235
1.0041966
1.0044903
0.99795176
1.0043585
1.0074169
0.99891248
0.99639774
1.0056416
1.0078328
0.99903592
0.99338766
1.0017421
1.0112743
1.0092114
1.0029216
1.0052717
1.0035047
1.0031546
1.0020187
1.0023021
1.0023736
1.0027579
1.003309
1.0033078
1.0034263
1.0043842
1.0037599
1.0045388
1.0046911
1.0032772
1.0024528
1.0045725
1.0045756
0.99800018
1.0042381
1.0089235
0.9989507
0.99479193
1.0057196
1.0114765
1.0009425
0.99104097
0.99568932
1.0088866
1.0119651
1.0047113
1.0065571
1.0016709
1.0033607
1.0020586
1.0039161
1.0020882
1.0030744
1.0026969
1.0030045
1.003314
1.004793
1.0035632
1.0047705
1.0049563
1.0035178
1.0026388
1.0045403
1.0043553
0.99925796
1.0036004
1.0083951
1.000307
0.99545529
1.004123
1.0116601
1.0032285
0.99287918
0.99345079
1.002745
1.0093556
1.0047901
1.0065169
1.0009879
1.003268
1.002362
1.0045644
1.0022536
1.0031911
1.0020419
1.0028141
1.0034068
1.0048449
1.0037114
1.0048263
1.0049917
1.0036866
1.0030139
1.0041682
1.0036163
1.0012999
1.0029865
1.0054938
1.0021088
0.99825405
1.0028177
1.0071394
1.0041593
0.99746509
0.99604497
0.99862659
1.0031745
1.0033104
1.004977
1.0016268
1.003049
1.0026401
1.0037909
1.0024027
1.002844
1.0020098
1.002871
1.0035914
1.0044274
1.0041195
1.0047574
1.0045715
1.00366
1.0037062
1.0037988
1.0022306
1.003699
1.0030328
1.0017691
1.0028367
1.0025148
1.0029545
1.0009652
1.0014104
1.0027526
1.0018157
0.99894372
0.99728696
1.0011605
1.0030371
1.0034831
1.0027879
1.0029816
1.0020792
1.0026556
1.0024259
1.0027847
1.0032892
1.0038656
1.0036504
1.0047759
1.0047123
1.0039005
1.0040605
1.0048132
1.003544
1.0007104
1.0059739
1.0041109
0.99893822
1.0017221
1.0068308
1.004753
0.99729019
0.99658292
1.0053464
1.0091326
1.0034489
0.99566198
0.99956644
1.0025255
1.0053456
1.0036682
1.0034987
1.0013432
1.0033406
1.0027353
1.004237
1.0040158
1.0042581
1.0032904
1.005514
1.0049169
1.0037106
1.0046267
1.0061971
1.0039484
0.99967548
1.0072425
1.0060628
0.99802551
0.9998701
1.0089585
1.007768
0.99705532
0.99308166
1.0036489
1.013374
1.0088044
0.99806022
0.99372293
0.99626112
1.0000987
1.003333
1.0043132
1.0020526
0.99822649
0.99715445
1.0012946
1.0085364
1.0131934
1.0112342
1.0028799
0.99247751
0.98689666
0.98960021
0.99866073
1.0057309
1.0046766
1.0000116
0.99766666
0.99876149
1.0036999
1.0089524
1.0076931
1.0037745
0.99792464
0.991295
0.98762006
0.98885662
0.99432754
1.0025179
1.0089309
1.0100541
1.0062192
1.0012589
0.99951393
1.0013799
1.0048212
1.0055829
0.99980121
0.99041388
0.98558461
0.98830465
0.99608092
1.0067611
1.0122178
1.007484
1.0025809
0.99950756
0.99941754
1.0010015
1.0022011
1.0022765
0.99936864
0.99442816
0.99021995
0.98999165
0.99492856
1.0034397
1.0110159
1.0132646
1.0090402
1.0006095
0.9933779
0.99263515
0.99541813
0.99735314
0.99658738
0.99156758
0.99107601
0.99625378
1.0056984
1.0145108
1.0193583
1.0180235
1.0107929
1.0003547
0.99197278
0.98904435
0.99133433
0.99577559
0.99838742
0.99816735
0.99574573
0.99433074
0.9963366
1.0031856
1.0123601
1.0160479
1.0089502
0.99512325
0.98537864
0.99023315
0.99663077
1.0026066
1.0068531
1.008277
1.0048132
1.0007507
0.99949097
1.0038917
1.0101619
1.0133181
1.0093964
0.9997607
0.9884776
0.98100895
0.98022639
0.98667259
0.99897277
1.0116559
1.016249
1.0100329
0.99879119
1.0095254
1.0084255
1.004119
0.99784402
0.99053445
0.98470517
0.98247002
0.98545485
0.99435496
1.0057049
1.0151857
1.0189666
1.0155776
1.0069981
0.99821617
0.99390153
0.99417497
0.99581141
0.99573277
0.99327724
0.98912586
0.9859479
0.98691123
1.0213833
1.0158042
1.007783
1.0001793
0.99302605
0.99006365
0.99089266
0.99212565
0.99309037
0.99374924
0.99519974
0.99515794
0.99551708
0.99868538
1.0058959
1.0157821
1.0219904
1.0180633
1.0056598
0.98984425
0.97630673
0.96898899
0.97027767
1.0004052
0.99846959
0.9996552
1.0038775
1.0106643
1.0166695
1.0171984
1.0128968
1.0035089
0.99208713
0.98199768
0.97619208
0.97738563
0.98438518
0.99640165
1.0100741
1.0202004
1.0218851
1.0143295
1.0009471
0.98872161
0.98306649
0.98382634
0.98269495
0.98488046
0.99181191
1.0019166
1.0124406
1.0207284
1.0239157
1.0201006
1.0121014
1.0024982
0.99488807
0.99199963
0.99073287
0.99019399
0.98961004
0.98991297
0.99138561
0.99204319
0.99317162
0.99744178
1.0048132
1.0135316
1.0181481
0.99396479
0.99632994
0.99736794
0.99736435
0.99726679
0.99749203
0.99863585
0.9997422
1.0030391
1.0083116
1.016158
1.0227743
1.0224771
1.0148081
1.000954
0.98476398
0.97154648
0.96576048
0.96725514
0.97717093
0.99503965
1.0172799
1.0357061
1.02149
1.0154651
1.0053071
0.99473601
0.98623865
0.98122326
0.9788186
0.98049021
0.98696811
0.99937303
1.0153891
1.0304936
1.0374222
1.0309225
1.0148165
0.99557372
0.979276
0.9710904
0.96920276
0.97467931
0.98430548
0.99916269
1.0136852
1.0265187
1.0189447
1.008804
0.9991857
0.99152081
0.98737447
0.9863094
0.98743064
0.98957706
0.99365237
0.9995024
1.0072166
1.0131367
1.0155226
1.0133868
1.0072487
1.0016416
0.99913871
0.99913409
0.99761083
0.99375125
0.99064558
0.98757961
1.0059529
1.0030584
1.0020093
1.003357
1.006884
1.0114252
1.0142678
1.0118028
1.0053732
0.99594388
0.98685159
0.98303838
0.9832768
0.98508
0.98974935
0.99890051
1.0127243
1.0269544
1.0355349
1.0324505
1.0187308
0.99731232
0.97651574
0.98695425
0.98785164
0.99248329
1.0016733
1.0152486
1.029457
1.0373234
1.0340269
1.0199859
1.0017871
0.98508635
0.97343572
0.96813357
0.96854926
0.97423486
0.98617864
1.0056591
1.0307513
1.0511269
1.0553381
1.0400768
1.0122912
0.98297406
0.98476127
0.98695639
0.99187032
1.0015663
1.0151629
1.0289699
1.0372622
1.0356301
1.0239472
1.0061676
0.98951259
0.97855508
0.97349698
0.97333261
0.97725143
0.98603962
0.99996923
1.0185494
1.0382833
1.0484435
1.0433702
1.0235084
0.99756753
0.99954463
1.0001158
0.99977137
1.0020017
1.0078587
1.0152026
1.0200684
1.0196562
1.0137967
1.0051339
0.99759272
0.99334515
0.99221789
0.99329312
0.99406721
0.9948348
0.99885432
1.0065905
1.0166728
1.0255354
1.0249171
1.0176369
1.0054873
1.0210448
1.0173336
1.0094779
1.0026087
0.9995197
0.99967384
1.0007167
1.0014311
1.0003522
0.99988743
1.0018656
1.0075982
1.0147777
1.0190239
1.0168387
1.0089707
1.0003964
0.99624064
0.99656891
0.99976028
1.0026072
1.0045954
1.0057143
1.0399873
1.0317427
1.0166089
1.0024403
0.9928175
0.98843948
0.98718267
0.98877922
0.99088114
0.99517557
1.0050296
1.0194013
1.0334618
1.0408985
1.0366898
1.0216377
1.0025641
0.98871925
0.98269044
0.98195877
0.98562976
0.99200262
1.0017135
1.0539417
1.0415174
1.0211265
1.0010459
0.98827728
0.98251892
0.98092942
0.98343625
0.98674014
0.99355272
1.007638
1.0277036
1.0473563
1.0570789
1.0504185
1.0284545
1.0024879
0.98422302
0.9750362
0.97311236
0.97725953
0.984052
0.99860977
1.0628833
1.0479843
1.0242236
1.0010963
0.98670576
0.98090495
0.98061538
0.98342088
0.98686517
0.99373777
1.0099492
1.034148
1.0573913
1.0673522
1.0570452
1.0303089
1.001525
0.98139945
0.97172383
0.96956958
0.97460091
0.98286367
1.0008794
1.0694381
1.0524446
1.0269359
1.0020988
0.98665771
0.98148942
0.98267158
0.98634274
0.98895173
0.99500891
1.011726
1.0379398
1.0632184
1.0728379
1.0595888
1.029206
0.99873955
0.98026103
0.97195919
0.9706143
0.97607931
0.98523925
1.0067902
1.0720751
1.0538288
1.027695
1.0029491
0.98908822
0.98557041
0.98759036
0.99088867
0.99240275
0.99885551
1.0158919
1.0423795
1.0663291
1.073789
1.0571173
1.0245022
0.99597667
0.98124102
0.9748636
0.97450256
0.98073897
0.99237168
1.0173226
1.0658454
1.0498664
1.0262906
1.0053208
0.99444339
0.99357063
0.99720875
1.000363
0.99976094
1.0032147
1.0186541
1.0436714
1.0651444
1.0692218
1.0485282
1.0181885
0.99445577
0.98498159
0.98262012
0.98426775
0.9906268
1.0033619
1.0297785
1.0528484
1.0413488
1.023063
1.0079963
1.0028032
1.0070254
1.0120147
1.0138142
1.0100325
1.0100323
1.0209957
1.0411505
1.0562181
1.0564605
1.0348283
1.0101768
0.99695634
0.99442848
0.99772717
1.0014887
1.0040789
1.0150196
1.0385833
1.0328913
1.0264205
1.016402
1.0120322
1.0184818
1.0303201
1.0370074
1.0331355
1.0205296
1.0129635
1.0174305
1.0295593
1.0374069
1.0343688
1.0171105
1.0066122
1.0078798
1.0153343
1.0225775
1.0222383
1.0175358
1.0236884
1.0326058
1.011084
1.0095541
1.0089104
1.0166775
1.0376344
1.0600304
1.0670509
1.0528508
1.0272022
1.0104751
1.0079745
1.0127017
1.0145924
1.0097784
1.0043654
1.0150004
1.0356533
1.0483773
1.0488368
1.0328225
1.0206555
1.01902
1.0134364
1.006083
1.0042343
1.0067853
1.0223313
1.0524164
1.0823299
1.0870573
1.0618433
1.026901
1.0028236
0.99652089
0.99462936
0.99551749
0.99277038
1.0046904
1.0384997
1.0726776
1.0815802
1.0613052
1.0289894
1.0104666
0.99800716
0.98511817
1.0255103
1.0167756
1.0146739
1.0277577
1.0562497
1.0811014
1.080969
1.0513911
1.0174635
0.99777866
0.99147614
0.98929435
0.99072379
0.99688621
1.0254271
1.0690654
1.095184
1.0893094
1.0525567
1.0131527
0.98822447
0.97195143
0.96709636
1.0579699
1.0403828
1.0250464
1.0240917
1.0390895
1.0512923
1.0513702
1.0292507
1.0104402
1.0033597
1.0068287
1.0126473
1.0145529
1.0221
1.048472
1.076248
1.0847709
1.0612601
1.0247897
0.99794291
0.97798473
0.97000696
0.97719197
1.0811337
1.0548069
1.0271127
1.0131398
1.0172178
1.020178
1.0178118
1.0080891
1.0144891
1.0357051
1.0528747
1.0551091
1.0432081
1.0372409
1.0442132
1.0454742
1.0350233
1.0167798
1.0066775
1.0063251
1.0057574
1.0060476
1.0155449
1.0655841
1.0469321
1.0233042
1.0103181
1.0110941
1.0118132
1.0106501
1.0130056
1.0370308
1.0742886
1.0921428
1.0787545
1.0457342
1.022094
1.0085271
0.99537445
0.9891107
0.99568925
1.0215578
1.0505457
1.0651666
1.057012
1.0368478
1.0305219
1.0226237
1.0167823
1.024207
1.038378
1.0445543
1.0363449
1.0360186
1.0535011
1.0743108
1.0793162
1.0569455
1.0253481
1.0024887
0.98776137
0.98289076
0.98718234
1.0141961
1.060385
1.0920545
1.091242
1.0589862
1.0184562
1.0189592
1.0124841
1.0177451
1.042405
1.0726438
1.0796476
1.0599112
1.0411648
1.038013
1.0359322
1.0271411
1.0135628
1.0121531
1.0204315
1.0215631
1.02136
1.0261677
1.0420858
1.0593294
1.0651616
1.0517432
1.0304668
1.0082981
1.048761
1.0306665
1.0279327
1.0446529
1.0650547
1.0706193
1.0528149
1.0324611
1.0191631
1.0055389
0.99755946
1.0002557
1.0259183
1.0636197
1.0796681
1.0660059
1.0397837
1.0235537
1.0108682
1.007821
1.012411
1.0255587
1.0418104
1.070815
1.0473076
1.0299123
1.0303768
1.0323264
1.0273952
1.0220834
1.0270359
1.0353458
1.0303473
1.0216108
1.0255764
1.0509683
1.0758537
1.0777018
1.0558403
1.0228694
0.99310987
0.98080163
0.98957299
1.0174265
1.0541905
1.077079
1.0526739
1.0418933
1.0317461
1.0304417
1.0255304
1.0142943
1.0090288
1.026268
1.0541268
1.0688026
1.0611797
1.0426056
1.0356414
1.0391939
1.0402077
1.0361165
1.0310374
1.024719
1.0129809
1.0091285
1.0161162
1.030979
1.0399834
1.0270552
1.0232642
1.0256437
1.0384966
1.0487127
1.0415414
1.0255198
1.0252591
1.0479356
1.072359
1.0751626
1.0575063
1.037201
1.0200521
1.0101218
1.0069178
1.0131473
1.0299411
1.0466134
1.0554504
1.0569506
1.0501904
1.0311369
1.0322819
1.0204516
1.0208468
1.0404017
1.0642381
1.0735251
1.0584717
1.0398956
1.0361085
1.0444896
1.0463041
1.0393704
1.0315497
1.0264626
1.0211033
1.0152462
1.015702
1.0281504
1.0457712
1.0577512
1.0602111
1.0547843
1.0346817
1.0644706
1.043545
1.0267442
1.0285457
1.047199
1.065933
1.0626871
1.0476576
1.0338655
1.0279363
1.0234623
1.0181338
1.0171051
1.0271749
1.0433988
1.0518393
1.0522198
1.0491331
1.0440804
1.0379768
1.0295204
1.0254289
1.0160211
1.0764006
1.0578983
1.0332138
1.0169573
1.0192022
1.0328704
1.037832
1.0360873
1.0339449
1.0371048
1.0391977
1.0328823
1.0255081
1.029714
1.044408
1.0594041
1.0650151
1.0591465
1.0460742
1.0290927
1.0142508
1.0074672
1.0086355
1.0547149
1.0450975
1.0298997
1.0188833
1.0175066
1.0268185
1.0295004
1.0293441
1.0316703
1.0444594
1.0603297
1.0642582
1.0568414
1.0458523
1.040295
1.0409626
1.0406232
1.0368186
1.0302773
1.0214643
1.0158557
1.0160651
1.0242689
1.0403622
1.0337058
1.0261882
1.0269395
1.0364519
1.0525052
1.0563012
1.0489588
1.0382207
1.0379927
1.0485083
1.0593784
1.0603451
1.0513653
1.0402546
1.0314303
1.0255684
1.0217139
1.0203363
1.021109
1.0249515
1.0322461
1.041754
1.0546607
1.0449111
1.0325878
1.0295984
1.0398076
1.0599963
1.0710556
1.0655679
1.0478457
1.0328449
1.0284893
1.0320299
1.0354729
1.036728
1.0346991
1.0333839
1.0338876
1.0351685
1.038402
1.0427934
1.0466738
1.0484617
1.0480314
1.0646084
1.0574974
1.0423438
1.0285976
1.0269515
1.0365944
1.0485853
1.0515039
1.0448617
1.0342457
1.0285712
1.0299606
1.0335636
1.0366852
1.038384
1.040657
1.0444706
1.0480742
1.0514626
1.0543729
1.0544792
1.0508621
1.0416357
1.0430341
1.0447609
1.0411315
1.031632
1.0257549
1.0267836
1.033794
1.0370832
1.0377742
1.0369535
1.0399627
1.0464183
1.0532944
1.0559317
1.0552063
1.0511304
1.047931
1.044595
1.0413756
1.0390627
1.0363438
1.0343859
1.0287814
1.0247766
1.0263438
1.0316904
1.033617
1.0359536
1.0399943
1.0464209
1.0467768
1.04438
1.0425003
1.0440802
1.0483462
1.0537461
1.0548787
1.0517924
1.0462415
1.0404
1.0354927
1.0327603
1.0304185
1.0298828
1.0304757
1.031557
1.0330831
1.0271382
1.0266413
1.0292624
1.0342519
1.042254
1.0512509
1.0520706
1.0485421
1.0432982
1.0398053
1.0394946
1.0403847
1.0399023
1.0373818
1.0341424
1.032682
1.0338442
1.0377833
1.0425415
1.0461359
1.047538
1.0473498
1.0406929
1.0331516
1.0282547
1.0254623
1.0265852
1.0326432
1.0404598
1.0424049
1.0414529
1.0377027
1.0350246
1.0360978
1.0384423
1.0410199
1.0424583
1.0425922
1.042257
1.0440925
1.0469957
1.0506477
1.0525517
1.0510668
1.0462345
1.0301232
1.0264905
1.0258478
1.0264852
1.0296641
1.0351846
1.0411095
1.0435392
1.0432461
1.0403464
1.0378381
1.0376993
1.0393723
1.043587
1.0471672
1.0490402
1.0485249
1.0473254
1.0446154
1.0429664
1.0406186
1.0387346
1.0360287
1.0253957
1.0231715
1.0264065
1.0321453
1.0379176
1.0431967
1.0460363
1.0459811
1.0441067
1.0401973
1.0363188
1.0346751
1.0336008
1.0350341
1.0385863
1.0403162
1.0420029
1.0424907
1.0405936
1.0385211
1.037529
1.0375682
1.0401711
1.0302982
1.0276817
1.030696
1.0359209
1.0395174
1.0409229
1.0385812
1.034202
1.0298253
1.026479
1.0253445
1.0266836
1.0292
1.0332774
1.0377451
1.0406313
1.0440607
1.0442612
1.0431662
1.0398881
1.0375841
1.0373711
1.0398954
1.0302056
1.0273499
1.0288563
1.0329089
1.0355912
1.0361335
1.0333866
1.0288027
1.0248565
1.0228304
1.0227853
1.0253526
1.0300047
1.0347956
1.0378483
1.0390517
1.040393
1.0380667
1.0363789
1.0323756
1.0299699
1.0296342
1.0326156
1.0294108
1.0269175
1.0272856
1.0292113
1.0309414
1.0323512
1.0319618
1.0298171
1.0278785
1.0263393
1.0252831
1.0250246
1.0266588
1.0273787
1.0265321
1.0260615
1.0251049
1.0242001
1.0261643
1.0267748
1.0286915
1.029774
1.0335119
1.0264792
1.0263171
1.0264391
1.0264274
1.0274968
1.0290259
1.028965
1.0288356
1.0283469
1.0264636
1.0255232
1.0241719
1.023271
1.0229602
1.0214277
1.020276
1.0179533
1.0180211
1.0200611
1.0217871
1.0249666
1.0261245
1.0270178
1.0211963
1.0221628
1.02373
1.0242193
1.02519
1.0268771
1.0266201
1.0266533
1.0266729
1.0244609
1.0232045
1.0213578
1.0193174
1.0195892
1.0178986
1.017187
1.015728
1.0140672
1.0126445
1.0124567
1.0136055
1.0132075
1.0143244
1.018284
1.0171332
1.0171787
1.0179901
1.0183126
1.0194259
1.0188448
1.0185665
1.0189371
1.0180748
1.0180232
1.0169407
1.0157192
1.0148218
1.0129153
1.013138
1.011831
1.0102449
1.0087815
1.0078171
1.0067047
1.0078672
1.0092249
1.0155044
1.0120212
1.009787
1.0098712
1.0101715
1.0111475
1.0107853
1.010418
1.010522
1.0104649
1.0124479
1.0120765
1.0119038
1.0117026
1.0086048
1.0081394
1.0065266
1.0049829
1.0048043
1.0047502
1.0041806
1.0049511
1.0057261
1.0146114
1.0106048
1.0071919
1.005848
1.0060686
1.0065482
1.0060991
1.0060744
1.0062795
1.0049893
1.0061442
1.0056805
1.0048983
1.0055556
1.0031168
1.0030128
1.0015779
1.0008239
1.0019881
1.0012962
1.0032211
1.0022148
1.002445
1.011826
1.0088128
1.006364
1.004039
1.0026421
1.0022158
1.0025434
1.0029563
1.0040455
1.002963
1.002789
1.0023887
1.0005587
1.0013877
1.0006132
1.000248
1.0013066
1.0005376
1.0021947
1.0008031
1.0018208
1.0005311
1.0000408
1.0078722
1.0059774
1.0045987
1.0039567
1.0029557
1.0016652
1.00195
1.0014552
1.0015247
1.0023229
1.0014325
1.0015647
1.0005744
0.99956854
1.0004448
0.99956926
1.0010213
1.0003948
1.0008977
1.0002602
0.99971274
0.99911346
0.99932234
1.0064255
1.0043051
1.0027361
1.0021212
1.0028065
1.0019151
1.001563
1.0011451
0.99956994
1.0001198
0.99992324
0.99956313
1.0007084
1.0001258
1.0007735
1.0010717
1.0011867
1.0010386
1.0004249
0.99962811
0.99817449
0.99856771
0.99798975
1.0048965
1.0023488
1.0011831
1.0002441
1.0004626
0.99987769
0.99957874
1.000547
0.99971781
0.9997419
1.0009669
1.0002838
1.0011552
1.001526
0.99990317
1.0000603
0.99944953
0.99861397
0.99847805
0.99817418
0.9978313
0.99796789
0.99890374
1.0028091
1.0010621
1.0003157
0.99903287
0.99905003
0.99957426
0.99903924
0.9996687
1.0003758
0.99974171
1.0004402
1.000179
0.99905131
0.99941315
0.99834848
0.99778187
0.99813171
0.99748681
0.99859255
0.99894319
0.9985444
0.9990828
0.99824914
1.0013262
0.99985449
0.99924228
0.99879176
0.9986787
0.9993944
0.99931655
0.99896465
0.99959584
0.99880105
0.99847498
0.99880577
0.99746153
0.99806415
0.9986214
0.99783502
0.99903999
0.99861069
0.99861866
0.9990509
0.99761022
0.9974378
0.99617939
0.99951167
0.99833823
0.99862733
0.99911793
0.99853905
0.99855959
0.998943
0.99845974
0.99882442
0.99862907
0.99745419
0.99794166
0.99805523
0.99783703
0.99800372
0.99724519
0.99820677
0.99787021
0.99652084
0.99681886
0.9961702
0.99634386
0.99705133
0.99786249
0.99807601
0.99853054
0.99873383
0.99822991
0.99815357
0.99821415
0.99742701
0.99728155
0.99750645
0.99671537
0.9969165
0.9975552
0.99678549
0.99721534
0.99738251
0.99658562
0.99705186
0.99674534
0.99627766
0.99642282
0.99681329
0.9969997
0.99741563
0.99746251
0.99779925
0.99781941
0.99759292
0.99753838
0.99771132
0.99733947
0.99669883
0.99674717
0.996759
0.99663038
0.99706501
0.99670993
0.99649549
0.99704547
0.99618156
0.99573274
0.99623402
0.99645299
0.99679423
0.99680164
0.99598731
0.99725335
0.99718985
0.99744834
0.99769634
0.99745354
0.99688235
0.99646323
0.99658182
0.99676593
0.99668322
0.99653651
0.99616155
0.99608239
0.99629875
0.99599671
0.99577828
0.9961788
0.99634042
0.99608112
0.99618238
0.99616957
0.99612393
0.99552903
0.99657592
0.99701947
0.99737852
0.99736218
0.99703658
0.99664245
0.99640313
0.99627085
0.99623988
0.99620495
0.99608578
0.99593778
0.99585327
0.99591272
0.99592621
0.99579865
0.99575179
0.99598287
0.99618211
0.99605976
0.99569875
0.99542214
0.99529959
0.99705055
0.99678471
0.99680195
0.99688824
0.9967812
0.99670555
0.9966523
0.99621416
0.99566436
0.99555685
0.99564684
0.99589606
0.99613543
0.99565212
0.99528675
0.99549242
0.99582804
0.99615692
0.99591592
0.99539472
0.99501483
0.99526723
0.99566167
0.99661168
0.99688237
0.99716375
0.99692432
0.99640781
0.99607931
0.99580775
0.99593366
0.99617408
0.9956289
0.99511242
0.99549358
0.99598209
0.99604744
0.99574436
0.99521887
0.99515586
0.99540852
0.99576704
0.99582568
0.99549189
0.99522985
0.99542382
0.99792676
0.99711973
0.99622154
0.9957516
0.99609241
0.9964548
0.99634365
0.99629262
0.99588499
0.99522867
0.99532374
0.99566893
0.99589277
0.99613626
0.99555012
0.99485848
0.99499544
0.9956361
0.99607193
0.99538166
0.9952415
0.9949188
0.99514233
0.99713638
0.99696571
0.99715103
0.99687
0.99637814
0.99588341
0.99565859
0.99596723
0.99651454
0.99643958
0.99628754
0.99571295
0.99484285
0.99510471
0.99536376
0.99561258
0.9960343
0.9959076
0.99549482
0.99515692
0.99505116
0.99529733
0.99583168
0.9971893
0.99746827
0.99717475
0.99672345
0.99670874
0.99689836
0.99688795
0.99670244
0.99636151
0.99593188
0.99554168
0.99559145
0.99579196
0.99613368
0.99613704
0.99530532
0.9950257
0.9954897
0.99632565
0.99632727
0.99540763
0.99497942
0.99546598
0.99816384
0.99722308
0.99725076
0.99785605
0.99787612
0.99723642
0.99679433
0.99665188
0.99645602
0.99613973
0.99573465
0.99621697
0.99686763
0.99634446
0.99577448
0.9958078
0.9966325
0.99640758
0.99545643
0.99515453
0.99558219
0.99592648
0.99596801
0.99806153
0.9988188
0.99852376
0.9977149
0.99735432
0.99739616
0.99707387
0.99657695
0.99692308
0.99797186
0.99789689
0.99664632
0.99609807
0.99673454
0.99713845
0.99645621
0.99532388
0.99561529
0.99711546
0.99702915
0.9959761
0.9959922
0.9967187
0.99840127
0.99808256
0.99879807
0.99908831
0.99848657
0.99777477
0.99784661
0.9982307
0.99765438
0.99659228
0.99687359
0.99809467
0.99798107
0.99669513
0.99599746
0.99704316
0.99795263
0.99721806
0.99606124
0.99635115
0.99714835
0.99666323
0.99580275
0.99938054
0.99922423
0.99841737
0.99829863
0.99876374
0.99871138
0.99796118
0.99736642
0.99782161
0.99883812
0.9986984
0.99730426
0.99698827
0.99811858
0.99838828
0.99712672
0.9962905
0.99696697
0.99812584
0.99772194
0.99691639
0.99694988
0.99729605
0.99885565
0.99888726
0.9990602
0.99900791
0.99892871
0.99918845
0.9994269
0.9986586
0.99727758
0.99719668
0.99854966
0.99933575
0.99842233
0.99712808
0.99726583
0.99827235
0.99880409
0.99803399
0.99711864
0.99735531
0.99746106
0.99746871
0.99722296
0.99923407
0.99959883
0.99903422
0.99904804
0.99952075
0.99904125
0.99789237
0.99781162
0.99902608
0.99973177
0.99877943
0.9978996
0.99846943
0.99903283
0.99848046
0.99756415
0.9973711
0.99776356
0.9984062
0.99858163
0.99820283
0.99737887
0.99681391
0.9988074
0.99937289
0.99968094
0.99949075
0.99947315
0.99990199
0.9999597
0.99888563
0.99768962
0.99792459
0.99897663
0.99933497
0.99894547
0.9985335
0.99847962
0.99863568
0.99842036
0.99840254
0.99828174
0.99770032
0.99770742
0.99844242
0.99892055
1.0005424
0.99976767
0.99950457
0.99957454
0.99942846
0.99915484
0.99900877
0.99915775
0.99916217
0.99903073
0.99942755
0.99975534
0.99896095
0.99821853
0.99854488
0.99920299
0.99900263
0.99811448
0.99805893
0.99911995
0.99952065
0.99779207
0.99657261
0.999726
0.99985708
1.0002627
1.0003552
0.99998402
0.9995671
0.999635
1.000124
1.0001235
0.99892063
0.99782003
0.99843668
1.0001689
1.000817
0.99937374
0.99799398
0.99847724
0.99972402
0.99943371
0.99790386
0.99765787
0.99924096
1.0000634
1.0014936
1.0006089
1.0003788
0.99998342
0.99945001
0.99974295
1.0003939
1.000289
0.99988372
0.99978169
0.99987823
0.99995425
0.99941789
0.99905183
0.99929563
0.99960417
0.99946652
0.99933629
0.99944866
0.99932582
0.99869884
0.99811407
0.99849564
1.0009242
1.0001164
1.0008838
1.0019944
1.0015232
0.99998548
0.99931843
1.0000635
1.0011381
1.0012149
1.00026
0.99962737
0.99961142
0.99971173
0.99973127
0.99990524
0.99979949
0.99937045
0.99941279
1.0000237
0.99988377
0.99805497
0.99717001
1.0017406
1.0007812
1.0008965
1.0019745
1.002521
1.0016858
1.0004864
1.000372
1.0011103
1.000825
0.99950789
0.99930694
1.0010885
1.0025031
1.0012462
0.99891833
0.99880044
1.0003306
1.0002306
0.99868844
0.99874686
1.0006244
1.0014756
1.003034
1.00241
1.0013711
1.0007545
1.0013751
1.0022827
1.0021563
1.0010904
1.0008205
1.0021087
1.0025719
1.0010346
0.99946953
1.0000423
1.001643
1.0015904
1.0000522
0.99942968
1.0002077
1.000575
1.0001795
1.0001359
1.0000592
1.0020966
1.0032175
1.0032531
1.0020243
1.0012346
1.0018372
1.0034289
1.0034685
1.001634
1.000979
1.0020875
1.0027396
1.0015192
0.99993141
1.0003395
1.0022774
1.002548
1.0000791
0.99885916
1.0008263
1.0019262
0.99986028
0.99795172
1.0015941
1.0026125
1.0036376
1.0041928
1.0039668
1.0030891
1.0027387
1.0030075
1.0028023
1.0015703
1.0005088
1.0010014
1.0026689
1.003481
1.0023587
1.0004468
0.99997382
1.0008489
1.0011958
1.0004961
0.99999712
1.0008208
1.0015129
1.0024079
1.0033159
1.0044297
1.0039039
1.0025595
1.0017415
1.0020914
1.0031176
1.0033304
1.0020382
1.0007379
1.0009687
1.0026242
1.0036633
1.0024961
1.0000807
0.9989474
1.0000825
1.0013084
1.0010726
1.0006029
1.0008461
1.0006909
1.0021429
1.002794
1.0035479
1.0031363
1.0019013
1.001373
1.0020966
1.0031196
1.003155
1.0021597
1.0014224
1.0015331
1.0017892
1.0014154
1.0008879
1.0005016
1.0002241
1.0001201
0.99988029
0.99987231
1.0000964
0.99981319
0.99873586
0.9995892
1.0018086
1.0031495
1.0026642
1.0014344
1.0009667
1.0018591
1.0027638
1.0023567
1.0012047
1.0006992
1.0010477
1.0008804
0.99969646
0.99899268
0.9996775
1.0005019
0.99974443
0.9981015
0.99759191
0.99807925
0.99778272
0.99652744
1.0007922
1.0011642
1.002251
1.001745
1.0004785
1.0000404
1.0008971
1.0015942
1.0009506
0.99978778
0.99951203
0.99999943
0.99976085
0.9983258
0.99727903
0.99773145
0.99854417
0.9979784