# Force and moment coefficients
# dragDir       : (1.00000000e+00 0.00000000e+00 0.00000000e+00)
# sideDir       : (0.00000000e+00 0.00000000e+00 -1.00000000e+00)
# liftDir       : (0.00000000e+00 1.00000000e+00 0.00000000e+00)
# rollAxis      : (1.00000000e+00 0.00000000e+00 0.00000000e+00)
# pitchAxis     : (0.00000000e+00 0.00000000e+00 -1.00000000e+00)
# yawAxis       : (0.00000000e+00 1.00000000e+00 0.00000000e+00)
# magUInf       : 1.00000000e+00
# lRef          : 1.00000000e+00
# Aref          : 1.00000000e+00
# CofR          : (0.00000000e+00 0.00000000e+00 0.00000000e+00)
#
# Time          	Cd              	Cd(f)           	Cd(r)           	Cl              	Cl(f)           	Cl(r)           	CmPitch         	CmRoll          	CmYaw           	Cs              	Cs(f)           	Cs(r)           
6e-08           	3.49522822e+07	1.74464931e+07	1.75057891e+07	5.92960184e+04	2.96480044e+04	2.96480140e+04	-4.77594051e-03	-2.96480092e+04	1.74761411e+07	8.11046407e-14	1.74761411e+07	-1.74761411e+07
1.32e-07        	-1.61947650e+07	-8.08174432e+06	-8.11302063e+06	-3.12763135e+04	-1.56381629e+04	-1.56381507e+04	-6.11709579e-03	1.56381568e+04	-8.09738248e+06	8.49380025e-14	-8.09738248e+06	8.09738248e+06
2.184e-07       	-4.94960952e+05	-2.53515227e+05	-2.41445725e+05	1.20695015e+04	6.03474425e+03	6.03475727e+03	-6.50888781e-03	-6.03475076e+03	-2.47480476e+05	9.52391901e-15	-2.47480476e+05	2.47480476e+05
3.2208e-07      	-5.76618034e+04	-4.36450569e+04	-1.40167465e+04	2.96283103e+04	1.48141484e+04	1.48141620e+04	-6.78782555e-03	-1.48141552e+04	-2.88309017e+04	-3.70098492e-15	-2.88309017e+04	2.88309017e+04
4.46496e-07     	5.43538556e+03	-1.74590552e+03	7.18129108e+03	8.92719660e+03	4.46359128e+03	4.46360532e+03	-7.01773555e-03	-4.46359830e+03	2.71769278e+03	-1.06601525e-15	2.71769278e+03	-2.71769278e+03
5.957952e-07    	3.94592473e+03	4.32881267e+03	-3.82887938e+02	-4.71170060e+03	-2.35585749e+03	-2.35584312e+03	-7.18646078e-03	2.35585030e+03	1.97296236e+03	4.63742490e-16	1.97296236e+03	-1.97296236e+03
7.7495424e-07   	4.51828382e+03	4.80975287e+03	-2.91469052e+02	-5.10122193e+03	-2.55061828e+03	-2.55060365e+03	-7.31733512e-03	2.55061096e+03	2.25914191e+03	4.28046996e-16	2.25914191e+03	-2.25914191e+03
9.8994508e-07   	4.45989054e+03	3.04132031e+03	1.41857022e+03	-1.62275009e+03	-8.11382476e+02	-8.11367618e+02	-7.42914093e-03	8.11375047e+02	2.22994527e+03	1.22323292e-16	2.22994527e+03	-2.22994527e+03
1.2479341e-06   	3.22228241e+03	1.28481913e+03	1.93746328e+03	6.52644154e+02	3.26314552e+02	3.26329602e+02	-7.52519984e-03	-3.26322077e+02	1.61114120e+03	-3.53618653e-17	1.61114120e+03	-1.61114120e+03
1.5575209e-06   	1.98419751e+03	3.07063210e+02	1.67713430e+03	1.37007109e+03	6.85027938e+02	6.85043152e+02	-7.60718440e-03	-6.85035545e+02	9.92098755e+02	-6.88394904e-17	9.92098755e+02	-9.92098755e+02
1.9290251e-06   	1.24712870e+03	1.58377847e+02	1.08875085e+03	9.30373001e+02	4.65178823e+02	4.65194177e+02	-7.67700165e-03	-4.65186500e+02	6.23564348e+02	-4.66061277e-17	6.23564348e+02	-6.23564348e+02
2.3748301e-06   	9.30033894e+02	2.14843861e+02	7.15190032e+02	5.00346171e+02	2.50165349e+02	2.50180822e+02	-7.73674443e-03	-2.50173085e+02	4.65016947e+02	-2.91563765e-17	4.65016947e+02	-4.65016947e+02
2.9097961e-06   	7.37862140e+02	2.61592000e+02	4.76270140e+02	2.14678140e+02	1.07331282e+02	1.07346858e+02	-7.78830508e-03	-1.07339070e+02	3.68931070e+02	-1.81043250e-17	3.68931070e+02	-3.68931070e+02
3.5517553e-06   	5.91440370e+02	2.52027981e+02	3.39412390e+02	8.73844094e+01	4.36843709e+01	4.37000385e+01	-7.83379478e-03	-4.36922047e+01	2.95720185e+02	-1.23526505e-17	2.95720185e+02	-2.95720185e+02
4.3221064e-06   	4.60245565e+02	2.08169868e+02	2.52075697e+02	4.39058288e+01	2.19450399e+01	2.19607889e+01	-7.87451848e-03	-2.19529144e+01	2.30122783e+02	-9.19497307e-18	2.30122783e+02	-2.30122783e+02
5.2465277e-06   	3.51283088e+02	1.60946254e+02	1.90336835e+02	2.93905811e+01	1.46873796e+01	1.47032015e+01	-7.91096494e-03	-1.46952906e+01	1.75641544e+02	-7.29381234e-18	1.75641544e+02	-1.75641544e+02
6.3558332e-06   	2.67235533e+02	1.21893603e+02	1.45341930e+02	2.34483266e+01	1.17162196e+01	1.17321070e+01	-7.94372160e-03	-1.17241633e+01	1.33617767e+02	-5.89499105e-18	1.33617767e+02	-1.33617767e+02
7.6869998e-06   	2.04439937e+02	9.21526719e+01	1.12287266e+02	2.01345937e+01	1.00593235e+01	1.00752702e+01	-7.97335966e-03	-1.00672968e+01	1.02219969e+02	-4.82267029e-18	1.02219969e+02	-1.02219969e+02
9.2843998e-06   	1.57275013e+02	7.00520506e+01	8.72229626e+01	1.71709121e+01	8.57745571e+00	8.59345635e+00	-8.00031730e-03	-8.58545603e+00	7.86375066e+01	-3.90780693e-18	7.86375066e+01	-7.86375066e+01
1.120128e-05    	1.21784548e+02	5.37542630e+01	6.80302854e+01	1.42760225e+01	7.12998628e+00	7.14603620e+00	-8.02496029e-03	-7.13801124e+00	6.08922742e+01	-3.14396998e-18	6.08922742e+01	-6.08922742e+01
1.3501535e-05   	9.48668181e+01	4.16348809e+01	5.32319372e+01	1.15970564e+01	5.79048058e+00	5.80657577e+00	-8.04759236e-03	-5.79852818e+00	4.74334091e+01	-2.51384167e-18	4.74334091e+01	-4.74334091e+01
1.6261842e-05   	7.42974633e+01	3.25856284e+01	4.17118349e+01	9.12620658e+00	4.55503484e+00	4.57117175e+00	-8.06845386e-03	-4.56310329e+00	3.71487316e+01	-2.01608852e-18	3.71487316e+01	-3.71487316e+01
1.957421e-05    	5.85799844e+01	2.57771333e+01	3.28028512e+01	7.02571791e+00	3.50477117e+00	3.52094673e+00	-8.08778084e-03	-3.51285895e+00	2.92899922e+01	-1.59768123e-18	2.92899922e+01	-2.92899922e+01
2.3549053e-05   	4.64239033e+01	2.05670464e+01	2.58568569e+01	5.28981045e+00	2.63679948e+00	2.65301097e+00	-8.10574752e-03	-2.64490523e+00	2.32119517e+01	-1.24807451e-18	2.32119517e+01	-2.32119517e+01
2.8318864e-05   	3.69904995e+01	1.65384817e+01	2.04520178e+01	3.91353618e+00	1.94864557e+00	1.96489061e+00	-8.12251894e-03	-1.95676809e+00	1.84952497e+01	-9.79373317e-19	1.84952497e+01	-1.84952497e+01
3.4042639e-05   	2.96113630e+01	1.33904017e+01	1.62209613e+01	2.83055956e+00	1.40714157e+00	1.42341799e+00	-8.13821279e-03	-1.41527978e+00	1.48056815e+01	-7.65640922e-19	1.48056815e+01	-1.48056815e+01
4.0911167e-05   	2.37974327e+01	1.09108367e+01	1.28865960e+01	1.97575939e+00	9.79726757e-01	9.96032628e-01	-8.15293535e-03	-9.87879693e-01	1.18987164e+01	-5.89567962e-19	1.18987164e+01	-1.18987164e+01
4.9153403e-05   	1.92133898e+01	8.95174059e+00	1.02616492e+01	1.30990857e+00	6.46787523e-01	6.63121044e-01	-8.16676034e-03	-6.54954283e-01	9.60669488e+00	-4.46685374e-19	9.60669488e+00	-9.60669488e+00
5.9044092e-05   	1.55756558e+01	7.39126855e+00	8.18438721e+00	7.93118669e-01	3.88379595e-01	4.04739074e-01	-8.17973914e-03	-3.96559335e-01	7.78782788e+00	-3.32576357e-19	7.78782788e+00	-7.78782788e+00
7.0912922e-05   	1.26820899e+01	6.14568487e+00	6.53640503e+00	3.90720167e-01	1.87168183e-01	2.03551984e-01	-8.19190027e-03	-1.95360083e-01	6.34104495e+00	-2.39757666e-19	6.34104495e+00	-6.34104495e+00
8.5155523e-05   	1.03630991e+01	5.14427300e+00	5.21882609e+00	7.45530902e-02	2.90732901e-02	4.54798000e-02	-8.20325494e-03	-3.72765451e-02	5.18154955e+00	-1.64772361e-19	5.18154955e+00	-5.18154955e+00
0.00010224665   	8.50865048e+00	4.34075461e+00	4.16789587e+00	-1.72858736e-01	-9.46431796e-02	-7.82155560e-02	-8.21381182e-03	8.64293678e-02	4.25432524e+00	-1.04213303e-19	4.25432524e+00	-4.25432524e+00
0.00012275598   	7.01515655e+00	3.69224950e+00	3.32290706e+00	-3.69342440e-01	-1.92894781e-01	-1.76447659e-01	-8.22356072e-03	1.84671220e-01	3.50757828e+00	-5.53762462e-20	3.50757828e+00	-3.50757828e+00
0.00014736718   	5.82074717e+00	3.17223146e+00	2.64851571e+00	-5.23715753e-01	-2.70090353e-01	-2.53625400e-01	-8.23247646e-03	2.61857876e-01	2.91037358e+00	-1.51390192e-20	2.91037358e+00	-2.91037358e+00
0.00017690064   	4.85331581e+00	2.75010672e+00	2.10320908e+00	-6.46897642e-01	-3.31689339e-01	-3.15208303e-01	-8.24051811e-03	3.23448821e-01	2.42665790e+00	1.72585789e-20	2.42665790e+00	-2.42665790e+00
0.00021234078   	4.07648043e+00	2.41060345e+00	1.66587698e+00	-7.44726473e-01	-3.80610863e-01	-3.64115610e-01	-8.24762606e-03	3.72363237e-01	2.03824021e+00	4.40237202e-20	2.03824021e+00	-2.03824021e+00
0.00025486899   	3.44711604e+00	2.13548245e+00	1.31163359e+00	-8.23848863e-01	-4.20178154e-01	-4.03670709e-01	-8.25372269e-03	4.11924432e-01	1.72355802e+00	6.57817575e-20	1.72355802e+00	-1.72355802e+00
0.00030590294   	2.93676892e+00	1.91163404e+00	1.02513488e+00	-8.86499160e-01	-4.51508290e-01	-4.34990869e-01	-8.25871032e-03	4.43249580e-01	1.46838446e+00	8.34163931e-20	1.46838446e+00	-1.46838446e+00
0.00036714368   	2.52504112e+00	1.73105997e+00	7.93981155e-01	-9.37078815e-01	-4.76801876e-01	-4.60276938e-01	-8.26246909e-03	4.68539407e-01	1.26252056e+00	9.79432352e-20	1.26252056e+00	-1.26252056e+00
0.00044063257   	2.18636352e+00	1.58274998e+00	6.03613541e-01	-9.79136440e-01	-4.97833077e-01	-4.81303363e-01	-8.26485698e-03	4.89568220e-01	1.09318176e+00	1.09389558e-19	1.09318176e+00	-1.09318176e+00
0.0005288191    	1.91401350e+00	1.46336603e+00	4.50647472e-01	-1.01271855e+00	-5.14624962e-01	-4.98093592e-01	-8.26568479e-03	5.06359277e-01	9.57006749e-01	1.19199852e-19	9.57006749e-01	-9.57006749e-01
0.00063464257   	1.69156192e+00	1.36584575e+00	3.25716162e-01	-1.04012959e+00	-5.28329541e-01	-5.11800050e-01	-8.26474523e-03	5.20064796e-01	8.45780958e-01	1.27178444e-19	8.45780958e-01	-8.45780958e-01
0.00076162993   	1.51157226e+00	1.28735298e+00	2.24219285e-01	-1.06313369e+00	-5.39828676e-01	-5.23305015e-01	-8.26183039e-03	5.31566846e-01	7.55786131e-01	1.33589878e-19	7.55786131e-01	-7.55786131e-01
0.00091401553   	1.36355557e+00	1.22327523e+00	1.40280340e-01	-1.08299490e+00	-5.49754158e-01	-5.33240737e-01	-8.25671044e-03	5.41497448e-01	6.81777787e-01	1.38822238e-19	6.81777787e-01	-6.81777787e-01
0.0010968777    	1.22727975e+00	1.16146643e+00	6.58133241e-02	-1.09565310e+00	-5.56075374e-01	-5.39577731e-01	-8.24882122e-03	5.47826552e-01	6.13639877e-01	1.43451012e-19	6.13639877e-01	-6.13639877e-01
0.0013163107    	1.12230764e+00	1.11602579e+00	6.28185150e-03	-1.10974394e+00	-5.63109576e-01	-5.46634364e-01	-8.23760608e-03	5.54871970e-01	5.61153822e-01	1.47799570e-19	5.61153822e-01	-5.61153822e-01
0.001579628     	1.03415037e+00	1.07757390e+00	-4.34235317e-02	-1.12099743e+00	-5.68721106e-01	-5.52276328e-01	-8.22238887e-03	5.60498717e-01	5.17075185e-01	1.50946325e-19	5.17075185e-01	-5.17075185e-01
0.0018956037    	9.48848874e-01	1.03817540e+00	-8.93265273e-02	-1.12750193e+00	-5.71953042e-01	-5.55548887e-01	-8.20207743e-03	5.63750964e-01	4.74424437e-01	1.53823352e-19	4.74424437e-01	-4.74424437e-01
0.0022747794    	8.82611626e-01	1.00852911e+00	-1.25917485e-01	-1.13444660e+00	-5.75398952e-01	-5.59047645e-01	-8.17565337e-03	5.67223298e-01	4.41305813e-01	1.56023138e-19	4.41305813e-01	-4.41305813e-01
0.0027297799    	8.19171572e-01	9.79222685e-01	-1.60051113e-01	-1.13927380e+00	-5.77778726e-01	-5.61495072e-01	-8.14182693e-03	5.69636899e-01	4.09585786e-01	1.57827817e-19	4.09585786e-01	-4.09585786e-01
0.0032757804    	7.61911928e-01	9.51660009e-01	-1.89748080e-01	-1.14140809e+00	-5.78802805e-01	-5.62605284e-01	-8.09876032e-03	5.70704044e-01	3.80955964e-01	1.59745590e-19	3.80955964e-01	-3.80955964e-01
0.0039309596    	7.07723438e-01	9.24512668e-01	-2.16789229e-01	-1.14130190e+00	-5.78694949e-01	-5.62606948e-01	-8.04400067e-03	5.70650949e-01	3.53861719e-01	1.61642251e-19	3.53861719e-01	-3.53861719e-01
0.004717185     	6.64978003e-01	9.02332659e-01	-2.37354657e-01	-1.13968732e+00	-5.77818255e-01	-5.61869061e-01	-7.97459667e-03	5.69843658e-01	3.32489001e-01	1.63040761e-19	3.32489001e-01	-3.32489001e-01
0.0056606702    	6.24700950e-01	8.80059396e-01	-2.55358446e-01	-1.13541784e+00	-5.75595884e-01	-5.59821958e-01	-7.88696289e-03	5.67708921e-01	3.12350475e-01	1.63813561e-19	3.12350475e-01	-3.12350475e-01
0.0067614896    	5.87280210e-01	8.58503862e-01	-2.71223652e-01	-1.12972751e+00	-5.72643772e-01	-5.57083742e-01	-7.78001475e-03	5.64863757e-01	2.93640105e-01	1.64301557e-19	2.93640105e-01	-2.93640105e-01
0.0080118948    	5.55888720e-01	8.40611802e-01	-2.84723083e-01	-1.12533488e+00	-5.70319215e-01	-5.55015670e-01	-7.65177219e-03	5.62667442e-01	2.77944360e-01	1.63261408e-19	2.77944360e-01	-2.77944360e-01
0.0094048947    	5.20190623e-01	8.20420378e-01	-3.00229755e-01	-1.12065013e+00	-5.67824562e-01	-5.52825571e-01	-7.49949545e-03	5.60325067e-01	2.60095311e-01	1.61681654e-19	2.60095311e-01	-2.60095311e-01
0.010786147     	5.01897759e-01	8.09478530e-01	-3.07580771e-01	-1.11705930e+00	-5.65872960e-01	-5.51186341e-01	-7.34330948e-03	5.58529650e-01	2.50948880e-01	1.58962942e-19	2.50948880e-01	-2.50948880e-01
0.012148374     	4.83027556e-01	8.01869123e-01	-3.18841567e-01	-1.12071069e+00	-5.67544176e-01	-5.53166514e-01	-7.18883073e-03	5.60355345e-01	2.41513778e-01	1.56005500e-19	2.41513778e-01	-2.41513778e-01
0.013507265     	4.59733828e-01	7.94401941e-01	-3.34668113e-01	-1.12907005e+00	-5.71570449e-01	-5.57499605e-01	-7.03542197e-03	5.64535027e-01	2.29866914e-01	1.53086694e-19	2.29866914e-01	-2.29866914e-01
0.014847375     	4.40543495e-01	7.89541477e-01	-3.48997982e-01	-1.13853946e+00	-5.76152408e-01	-5.62387050e-01	-6.88267906e-03	5.69269729e-01	2.20271747e-01	1.50230795e-19	2.20271747e-01	-2.20271747e-01
0.016174305     	4.16667601e-01	7.82483015e-01	-3.65815414e-01	-1.14829843e+00	-5.80880008e-01	-5.67418421e-01	-6.73079337e-03	5.74149215e-01	2.08333801e-01	1.47960192e-19	2.08333801e-01	-2.08333801e-01
0.017495266     	3.98890275e-01	7.76594365e-01	-3.77704090e-01	-1.15429845e+00	-5.83728834e-01	-5.70569621e-01	-6.57960639e-03	5.77149227e-01	1.99445137e-01	1.46080672e-19	1.99445137e-01	-1.99445137e-01
0.018811178     	3.86239393e-01	7.71761079e-01	-3.85521686e-01	-1.15728277e+00	-5.85071041e-01	-5.72211724e-01	-6.42965840e-03	5.78641383e-01	1.93119696e-01	1.44642424e-19	1.93119696e-01	-1.93119696e-01
0.020118814     	3.75712988e-01	7.66801235e-01	-3.91088247e-01	-1.15788948e+00	-5.85225229e-01	-5.72664253e-01	-6.28048803e-03	5.78944741e-01	1.87856494e-01	1.43478106e-19	1.87856494e-01	-1.87856494e-01
0.021415408     	3.74187505e-01	7.63051191e-01	-3.88863686e-01	-1.15191488e+00	-5.82089477e-01	-5.69825401e-01	-6.13203772e-03	5.75957439e-01	1.87093752e-01	1.42022514e-19	1.87093752e-01	-1.87093752e-01
0.022701474     	3.77172853e-01	7.59986239e-01	-3.82813386e-01	-1.14279962e+00	-5.77384607e-01	-5.65415018e-01	-5.98479433e-03	5.71399812e-01	1.88586426e-01	1.40870225e-19	1.88586426e-01	-1.88586426e-01
0.023980943     	3.69433377e-01	7.53695345e-01	-3.84261968e-01	-1.13795731e+00	-5.74817301e-01	-5.63140011e-01	-5.83864513e-03	5.68978656e-01	1.84716688e-01	1.39309315e-19	1.84716688e-01	-1.84716688e-01
0.025255182     	3.67104956e-01	7.49523172e-01	-3.82418217e-01	-1.13194139e+00	-5.71665490e-01	-5.60275899e-01	-5.69479514e-03	5.65970695e-01	1.83552478e-01	1.37401518e-19	1.83552478e-01	-1.83552478e-01
0.026530725     	3.59984083e-01	7.44582452e-01	-3.84598369e-01	-1.12918082e+00	-5.70145201e-01	-5.59035621e-01	-5.55478995e-03	5.64590411e-01	1.79992042e-01	1.35789471e-19	1.79992042e-01	-1.79992042e-01
0.027815469     	3.53427664e-01	7.41831345e-01	-3.88403681e-01	-1.13023503e+00	-5.70536372e-01	-5.59698654e-01	-5.41885891e-03	5.65117513e-01	1.76713832e-01	1.33360962e-19	1.76713832e-01	-1.76713832e-01
0.029106367     	3.44394724e-01	7.37362905e-01	-3.92968181e-01	-1.13033109e+00	-5.70455458e-01	-5.59875629e-01	-5.28991460e-03	5.65165543e-01	1.72197362e-01	1.32173178e-19	1.72197362e-01	-1.72197362e-01
0.030413339     	3.34750262e-01	7.32684650e-01	-3.97934388e-01	-1.13061904e+00	-5.70479424e-01	-5.60139615e-01	-5.16990451e-03	5.65309519e-01	1.67375131e-01	1.31295074e-19	1.67375131e-01	-1.67375131e-01
0.031729456     	3.32949996e-01	7.32105568e-01	-3.99155572e-01	-1.13126114e+00	-5.70692598e-01	-5.60568542e-01	-5.06202763e-03	5.65630570e-01	1.66474998e-01	1.30525801e-19	1.66474998e-01	-1.66474998e-01
0.033063897     	3.15886949e-01	7.24597572e-01	-4.08710623e-01	-1.13330819e+00	-5.71623901e-01	-5.61684294e-01	-4.96980363e-03	5.66654097e-01	1.57943475e-01	1.29413233e-19	1.57943475e-01	-1.57943475e-01
0.034415712     	3.08279341e-01	7.19247005e-01	-4.10967664e-01	-1.13021467e+00	-5.70002391e-01	-5.60212278e-01	-4.89505671e-03	5.65107334e-01	1.54139670e-01	1.28887892e-19	1.54139670e-01	-1.54139670e-01
0.035784611     	3.07280469e-01	7.17041087e-01	-4.09760618e-01	-1.12680170e+00	-5.68245403e-01	-5.58556301e-01	-4.84455102e-03	5.63400852e-01	1.53640235e-01	1.27515365e-19	1.53640235e-01	-1.53640235e-01
0.037158986     	3.00622773e-01	7.12132712e-01	-4.11509940e-01	-1.12364265e+00	-5.66645832e-01	-5.56996820e-01	-4.82450566e-03	5.61821326e-01	1.50311386e-01	1.25812113e-19	1.50311386e-01	-1.50311386e-01
0.038525256     	2.91181899e-01	7.06154771e-01	-4.14972872e-01	-1.12112764e+00	-5.65404240e-01	-5.55723403e-01	-4.84041838e-03	5.60563821e-01	1.45590950e-01	1.22415182e-19	1.45590950e-01	-1.45590950e-01
0.039908026     	2.88020977e-01	7.02120982e-01	-4.14100004e-01	-1.11622099e+00	-5.63015286e-01	-5.53205700e-01	-4.90479293e-03	5.58110493e-01	1.44010489e-01	1.18488669e-19	1.44010489e-01	-1.44010489e-01
0.041272796     	2.85192420e-01	7.00073317e-01	-4.14880897e-01	-1.11495421e+00	-5.62507709e-01	-5.52446504e-01	-5.03060244e-03	5.57477107e-01	1.42596210e-01	1.12240374e-19	1.42596210e-01	-1.42596210e-01
0.042629016     	2.76594105e-01	6.95389957e-01	-4.18795852e-01	-1.11418581e+00	-5.62329753e-01	-5.51856055e-01	-5.23684927e-03	5.57092904e-01	1.38297053e-01	1.04736052e-19	1.38297053e-01	-1.38297053e-01
0.044000744     	2.65923197e-01	6.90447550e-01	-4.24524353e-01	-1.11497190e+00	-5.63036770e-01	-5.51935133e-01	-5.55081839e-03	5.57485951e-01	1.32961598e-01	9.63482725e-20	1.32961598e-01	-1.32961598e-01
0.045374743     	2.78025765e-01	6.95726274e-01	-4.17700509e-01	-1.11342678e+00	-5.62699129e-01	-5.50727654e-01	-5.98573706e-03	5.56713392e-01	1.39012882e-01	8.70336924e-20	1.39012882e-01	-1.39012882e-01
0.046736153     	2.78540494e-01	6.97945150e-01	-4.19404656e-01	-1.11734981e+00	-5.65235725e-01	-5.52114081e-01	-6.56082229e-03	5.58674903e-01	1.39270247e-01	7.68929416e-20	1.39270247e-01	-1.39270247e-01
0.048108449     	2.64779993e-01	6.87095853e-01	-4.22315860e-01	-1.10941171e+00	-5.62029639e-01	-5.47382073e-01	-7.32378313e-03	5.54705856e-01	1.32389997e-01	6.89270575e-20	1.32389997e-01	-1.32389997e-01
0.049510124     	2.52628644e-01	6.67471444e-01	-4.14842800e-01	-1.08231424e+00	-5.49509048e-01	-5.32805196e-01	-8.35192574e-03	5.41157122e-01	1.26314322e-01	6.33016530e-20	1.26314322e-01	-1.26314322e-01
0.050891752     	2.33898323e-01	6.50872335e-01	-4.16974013e-01	-1.06784635e+00	-5.43646512e-01	-5.24199836e-01	-9.72333838e-03	5.33923174e-01	1.16949161e-01	5.14624646e-20	1.16949161e-01	-1.16949161e-01
0.052276843     	1.99804951e-01	6.11520581e-01	-4.11715630e-01	-1.02323621e+00	-5.23235807e-01	-5.00000403e-01	-1.16177020e-02	5.11618105e-01	9.99024755e-02	3.76192865e-20	9.99024755e-02	-9.99024755e-02
0.05368927      	1.46414391e-01	5.52430430e-01	-4.06016039e-01	-9.58446469e-01	-4.93621895e-01	-4.64824575e-01	-1.43986601e-02	4.79223235e-01	7.32071953e-02	2.66105873e-20	7.32071953e-02	-7.32071953e-02
0.055109158     	1.23584169e-01	5.10054419e-01	-3.86470251e-01	-8.96524670e-01	-4.66970416e-01	-4.29554254e-01	-1.87080807e-02	4.48262335e-01	6.17920843e-02	2.14823473e-20	6.17920843e-02	-6.17920843e-02
0.056512416     	1.25271249e-01	4.84192332e-01	-3.58921084e-01	-8.43113416e-01	-4.47362177e-01	-3.95751239e-01	-2.58054687e-02	4.21556708e-01	6.26356244e-02	3.12497327e-20	6.26356244e-02	-6.26356244e-02
0.057613212     	5.71629801e-01	6.87226798e-01	-1.15596997e-01	-8.02823795e-01	-4.38055704e-01	-3.64768092e-01	-3.66438060e-02	4.01411898e-01	2.85814901e-01	7.24735867e-20	2.85814901e-01	-2.85814901e-01
0.058478143     	3.55134357e+00	2.23782127e+00	1.31352230e+00	-9.24298973e-01	-5.15745961e-01	-4.08553012e-01	-5.35964742e-02	4.62149487e-01	1.77567178e+00	3.03335675e-19	1.77567178e+00	-1.77567178e+00
0.058680256     	1.78488614e+02	1.06341513e+02	7.21471010e+01	-3.41944120e+01	-1.71618178e+01	-1.70325941e+01	-6.46118675e-02	1.70972060e+01	8.92443070e+01	9.93006116e-18	8.92443070e+01	-8.92443070e+01
0.058699864     	1.12080628e+04	7.05971780e+03	4.14834498e+03	-2.91137281e+03	-1.45575327e+03	-1.45561955e+03	-6.68577467e-02	1.45568641e+03	5.60403139e+03	6.11983815e-16	5.60403139e+03	-5.60403139e+03
0.058701863     	1.72074732e+06	1.08273086e+06	6.38016466e+05	-4.44714390e+05	-2.22357269e+05	-2.22357120e+05	-7.42975501e-02	2.22357195e+05	8.60373661e+05	9.18286224e-14	8.60373661e+05	-8.60373661e+05
0.05870206      	1.83398573e+08	1.19128833e+08	6.42697400e+07	-5.48590931e+07	-2.74295468e+07	-2.74295463e+07	-2.40308090e-01	2.74295466e+07	9.16992866e+07	9.08128668e-12	9.16992866e+07	-9.16992866e+07
0.05870208      	1.78032917e+10	1.16198408e+10	6.18345097e+09	-5.43638980e+09	-2.71819491e+09	-2.71819489e+09	-9.59708612e+00	2.71819490e+09	8.90164587e+09	8.76670929e-10	8.90164587e+09	-8.90164587e+09
0.058702082     	1.32766787e+12	8.70849062e+11	4.56818809e+11	-4.14030253e+11	-2.07015127e+11	-2.07015126e+11	-5.08331501e+02	2.07015126e+11	6.63833936e+11	6.46780043e-08	6.63833936e+11	-6.63833936e+11
0.058702082     	1.36570367e+14	8.95085588e+13	4.70618079e+13	-4.24467509e+13	-2.12233755e+13	-2.12233754e+13	-3.47424351e+04	2.12233755e+13	6.82851834e+13	6.69666020e-06	6.82851834e+13	-6.82851834e+13
0.058702082     	1.09754711e+16	7.19859899e+15	3.77687208e+15	-3.42172691e+15	-1.71086346e+15	-1.71086345e+15	-2.16323279e+06	1.71086345e+15	5.48773553e+15	5.34720700e-04	5.48773553e+15	-5.48773553e+15
0.058702082     	1.53643409e+18	9.99250011e+17	5.37184083e+17	-4.62065928e+17	-2.31032964e+17	-2.31032964e+17	-1.92298755e+08	2.31032964e+17	7.68217047e+17	7.62123928e-02	7.68217047e+17	-7.68217047e+17
0.058702082     	1.08737809e+20	7.08756437e+19	3.78621652e+19	-3.30134785e+19	-1.65067393e+19	-1.65067392e+19	-1.25159010e+10	1.65067392e+19	5.43689045e+19	5.35169664e+00	5.43689045e+19	-5.43689045e+19
0.058702082     	9.59512317e+21	6.27976116e+21	3.31536200e+21	-2.96439916e+21	-1.48219958e+21	-1.48219958e+21	-8.80545645e+11	1.48219958e+21	4.79756158e+21	4.72670934e+02	4.79756158e+21	-4.79756158e+21
0.058702082     	6.65842577e+23	4.37066055e+23	2.28776522e+23	-2.08289533e+23	-1.04144767e+23	-1.04144766e+23	-5.55511246e+13	1.04144767e+23	3.32921288e+23	3.24449191e+04	3.32921288e+23	-3.32921288e+23
0.058702082     	8.98611167e+25	5.85451857e+25	3.13159310e+25	-2.72292548e+25	-1.36146274e+25	-1.36146274e+25	-4.90833415e+15	1.36146274e+25	4.49305584e+25	4.46384496e+06	4.49305584e+25	-4.49305584e+25
0.058702082     	4.05402066e+27	2.68682233e+27	1.36719833e+27	-1.31962400e+27	-6.59811999e+26	-6.59811999e+26	-2.61462867e+17	6.59811999e+26	2.02701033e+27	1.95342513e+08	2.02701033e+27	-2.02701033e+27
0.058702082     	4.69949355e+29	3.08763141e+29	1.61186214e+29	-1.47576927e+29	-7.37884633e+28	-7.37884633e+28	-2.06509851e+19	7.37884633e+28	2.34974678e+29	2.31471362e+10	2.34974678e+29	-2.34974678e+29
0.058702082     	3.03075348e+31	1.99515103e+31	1.03560245e+31	-9.59548574e+30	-4.79774287e+30	-4.79774287e+30	-1.31563312e+21	4.79774287e+30	1.51537674e+31	1.47399902e+12	1.51537674e+31	-1.51537674e+31
0.058702082     	3.91689552e+33	2.54653208e+33	1.37036344e+33	-1.17616864e+33	-5.88084319e+32	-5.88084318e+32	-1.19882180e+23	5.88084319e+32	1.95844776e+33	1.95265104e+14	1.95844776e+33	-1.95844776e+33
0.058702082     	1.83597666e+35	1.20756712e+35	6.28409540e+34	-5.79157580e+34	-2.89578790e+34	-2.89578790e+34	-6.63746111e+24	2.89578790e+34	9.17988331e+34	8.93239215e+15	9.17988331e+34	-9.17988331e+34
0.058702082     	1.75735087e+37	1.15527302e+37	6.02077854e+36	-5.53195163e+36	-2.76597582e+36	-2.76597582e+36	-4.83330400e+26	2.76597582e+36	8.78675436e+36	8.67121638e+17	8.78675436e+36	-8.78675436e+36
0.058702082     	8.09149120e+38	5.40746982e+38	2.68402138e+38	-2.72344844e+38	-1.36172422e+38	-1.36172422e+38	-2.50040037e+28	1.36172422e+38	4.04574560e+38	3.85309139e+19	4.04574560e+38	-4.04574560e+38
0.058702082     	1.24467634e+41	8.09806296e+40	4.34870043e+40	-3.74936253e+40	-1.87468127e+40	-1.87468127e+40	-2.48023456e+30	1.87468127e+40	6.22338170e+40	6.21837390e+21	6.22338170e+40	-6.22338170e+40
0.058702082     	6.31130480e+42	4.13486634e+42	2.17643846e+42	-1.95842789e+42	-9.79213943e+41	-9.79213943e+41	-1.42389497e+32	9.79213943e+41	3.15565240e+42	3.08739613e+23	3.15565240e+42	-3.15565240e+42
0.058702082     	5.05241006e+44	3.32716137e+44	1.72524869e+44	-1.60191268e+44	-8.00956342e+43	-8.00956342e+43	-9.85110367e+33	8.00956342e+43	2.52620503e+44	2.49586387e+25	2.52620503e+44	-2.52620503e+44
0.058702082     	2.35505553e+46	1.56642878e+46	7.88626751e+45	-7.77802024e+45	-3.88901012e+45	-3.88901012e+45	-5.00257023e+35	3.88901012e+45	1.17752776e+46	1.12786200e+27	1.17752776e+46	-1.17752776e+46
0.058702082     	3.37520790e+48	2.19427546e+48	1.18093243e+48	-1.01334303e+48	-5.06671516e+47	-5.06671515e+47	-4.76210360e+37	5.06671516e+47	1.68760395e+48	1.69262882e+29	1.68760395e+48	-1.68760395e+48
0.058702082     	1.43330246e+50	9.40057562e+49	4.93244899e+49	-4.46812663e+49	-2.23406332e+49	-2.23406331e+49	-2.45462309e+39	2.23406332e+49	7.16651231e+49	6.99161062e+30	7.16651231e+49	-7.16651231e+49
0.058702082     	1.10750769e+52	7.29933947e+51	3.77573746e+51	-3.52360201e+51	-1.76180101e+51	-1.76180101e+51	-1.57851383e+41	1.76180101e+51	5.53753846e+51	5.49583922e+32	5.53753846e+51	-5.53753846e+51
0.058702082     	4.20094712e+53	2.81795721e+53	1.38298991e+53	-1.43496729e+53	-7.17483647e+52	-7.17483647e+52	-6.88008851e+42	7.17483647e+52	2.10047356e+53	1.98796022e+34	2.10047356e+53	-2.10047356e+53
0.058702082     	5.63826855e+55	3.67690411e+55	1.96136444e+55	-1.71553967e+55	-8.57769833e+54	-8.57769832e+54	-6.32977101e+44	8.57769833e+54	2.81913427e+55	2.83497540e+36	2.81913427e+55	-2.81913427e+55
0.058702082     	2.23668456e+57	1.47034084e+57	7.66343715e+56	-7.03997130e+56	-3.51998565e+56	-3.51998565e+56	-2.98018273e+46	3.51998565e+56	1.11834228e+57	1.09008337e+38	1.11834228e+57	-1.11834228e+57
0.058702082     	1.48679750e+59	9.85809654e+58	5.00987845e+58	-4.84821809e+58	-2.42410905e+58	-2.42410904e+58	-1.71974441e+48	2.42410904e+58	7.43398749e+58	7.42966958e+39	7.43398749e+58	-7.43398749e+58
0.058702082     	4.98945105e+60	3.36208793e+60	1.62736311e+60	-1.73472482e+60	-8.67362410e+59	-8.67362410e+59	-6.58560527e+49	8.67362410e+59	2.49472552e+60	2.37807653e+41	2.49472552e+60	-2.49472552e+60
0.058702082     	5.77314156e+62	3.77444139e+62	1.99870018e+62	-1.77574121e+62	-8.87870606e+61	-8.87870606e+61	-5.43827477e+51	8.87870606e+61	2.88657078e+62	2.94197201e+43	2.88657078e+62	-2.88657078e+62
0.058702082     	1.81220177e+64	1.22073863e+64	5.91463143e+63	-6.29275484e+63	-3.14637742e+63	-3.14637742e+63	-2.06184376e+53	3.14637742e+63	9.06100885e+63	9.14898885e+44	9.06100885e+63	-9.06100885e+63
0.058702082     	9.45709147e+64	8.99834710e+64	4.58744366e+63	-8.53960274e+64	-4.26980137e+64	-4.26980137e+64	-2.89714810e+54	4.26980137e+64	4.72854573e+64	4.46198438e+45	4.72854573e+64	-4.72854573e+64
0.058702082     	-4.60709298e+66	-1.53685167e+66	-3.07024131e+66	-1.53338964e+66	-7.66694822e+65	-7.66694822e+65	-3.44698279e+55	7.66694822e+65	-2.30354649e+66	-1.93476404e+47	-2.30354649e+66	2.30354649e+66
0.058702082     	-3.37359713e+69	-2.08445799e+69	-1.28913914e+69	7.95318846e+68	3.97659423e+68	3.97659423e+68	1.18889040e+57	-3.97659423e+68	-1.68679856e+69	-1.85538721e+50	-1.68679856e+69	1.68679856e+69
0.058702082     	-1.30616698e+71	-1.00983269e+71	-2.96334295e+70	7.13498394e+70	3.56749197e+70	3.56749197e+70	-1.15046323e+59	-3.56749197e+70	-6.53083492e+70	-7.28525948e+52	-6.53083492e+70	6.53083492e+70
0.058702082     	-4.27388385e+73	-2.49592189e+73	-1.77796196e+73	7.17959923e+72	3.58979961e+72	3.58979961e+72	2.77937720e+61	-3.58979961e+72	-2.13694193e+73	-4.08040458e+54	-2.13694193e+73	2.13694193e+73
0.058702082     	-2.00565328e+75	-1.34637838e+75	-6.59274897e+74	6.87103482e+74	3.43551741e+74	3.43551741e+74	-5.28353960e+63	-3.43551741e+74	-1.00282664e+75	-1.99654052e+56	-1.00282664e+75	1.00282664e+75
0.058702082     	-1.67975979e+77	-9.00191641e+76	-7.79568148e+76	1.20623493e+76	6.03117464e+75	6.03117464e+75	1.20958573e+66	-6.03117464e+75	-8.39879894e+76	-1.95963445e+58	-8.39879894e+76	8.39879894e+76
0.058702082     	-1.45511461e+78	-1.22048906e+78	-2.34625549e+77	9.85863516e+77	4.92931758e+77	4.92931758e+77	4.64576717e+66	-4.92931758e+77	-7.27557307e+77	-2.08266365e+60	-7.27557307e+77	7.27557307e+77
0.058702082     	-1.67520230e+80	-1.32303467e+80	-3.52167632e+79	9.70867039e+79	4.85433519e+79	4.85433519e+79	-4.79681902e+69	-4.85433519e+79	-8.37601152e+79	-2.92617313e+61	-8.37601152e+79	8.37601152e+79
0.058702082     	-6.71015302e+81	-3.85074756e+81	-2.85940546e+81	9.91342094e+80	4.95671047e+80	4.95671047e+80	-3.90350319e+70	-4.95671047e+80	-3.35507651e+81	-6.65368878e+62	-3.35507651e+81	3.35507651e+81
0.058702082     	5.39831876e+83	3.70176794e+83	1.69655082e+83	-2.00521712e+83	-1.00260856e+83	-1.00260856e+83	-1.23957114e+74	1.00260856e+83	2.69915938e+83	4.83102208e+64	2.69915938e+83	-2.69915938e+83
0.058702082     	4.58335719e+86	2.90654559e+86	1.67681160e+86	-1.22973399e+86	-6.14866994e+85	-6.14866995e+85	1.23588174e+76	6.14866995e+85	2.29167860e+86	2.62764673e+67	2.29167860e+86	-2.29167860e+86
0.058702082     	3.92706990e+88	2.23107224e+88	1.69599765e+88	-5.35074593e+87	-2.67537296e+87	-2.67537296e+87	7.54143504e+77	2.67537296e+87	1.96353495e+88	4.64092627e+69	1.96353495e+88	-1.96353495e+88
0.058702082     	1.54318123e+90	9.31432179e+89	6.11749050e+89	-3.19683129e+89	-1.59841565e+89	-1.59841565e+89	5.11559888e+79	1.59841565e+89	7.71590614e+89	1.55883131e+71	7.71590614e+89	-7.71590614e+89
0.058702082     	2.54583548e+91	1.75970052e+91	7.86134960e+90	-9.73565563e+90	-4.86782781e+90	-4.86782782e+90	2.38160364e+81	4.86782781e+90	1.27291774e+91	3.54951654e+73	1.27291774e+91	-1.27291774e+91
0.058702082     	1.95824374e+94	1.34428440e+94	6.13959340e+93	-7.30325062e+93	-3.65162531e+93	-3.65162531e+93	5.47366559e+83	3.65162531e+93	9.79121871e+93	2.22599918e+75	9.79121871e+93	-9.79121871e+93