# Force and moment coefficients
# dragDir       : (1.00000000e+00 0.00000000e+00 0.00000000e+00)
# sideDir       : (0.00000000e+00 0.00000000e+00 -1.00000000e+00)
# liftDir       : (0.00000000e+00 1.00000000e+00 0.00000000e+00)
# rollAxis      : (1.00000000e+00 0.00000000e+00 0.00000000e+00)
# pitchAxis     : (0.00000000e+00 0.00000000e+00 -1.00000000e+00)
# yawAxis       : (0.00000000e+00 1.00000000e+00 0.00000000e+00)
# magUInf       : 1.77482393e-01
# lRef          : 1.00000000e+00
# Aref          : 1.00000000e+00
# CofR          : (0.00000000e+00 0.00000000e+00 0.00000000e+00)
#
# Time          	Cd              	Cd(f)           	Cd(r)           	Cl              	Cl(f)           	Cl(r)           	CmPitch         	CmRoll          	CmYaw           	Cs              	Cs(f)           	Cs(r)           
1               	1.21749596e+02	6.05350160e+01	6.12145797e+01	6.79563722e-01	3.39773198e-01	3.39790524e-01	-8.66309284e-06	-3.39781861e-01	6.08747978e+01	9.74346730e-20	6.08747978e+01	-6.08747978e+01
2               	1.15584100e+02	5.97412575e+01	5.58428422e+01	-3.89841528e+00	-1.94927334e+00	-1.94914194e+00	-6.57016002e-05	1.94920764e+00	5.77920499e+01	1.16258288e-19	5.77920499e+01	-5.77920499e+01
3               	3.56580755e+01	1.87440166e+01	1.69140589e+01	-1.82995774e+00	-9.15094843e-01	-9.14862901e-01	-1.15971312e-04	9.14978872e-01	1.78290378e+01	3.85874304e-20	1.78290378e+01	-1.78290378e+01
4               	-1.43724833e+01	-7.93331610e+00	-6.43916718e+00	1.49414892e+00	7.46938326e-01	7.47210595e-01	-1.36134868e-04	-7.47074461e-01	-7.18624164e+00	-3.02689496e-20	-7.18624164e+00	7.18624164e+00
5               	-2.60210582e+01	-1.41527526e+01	-1.18683056e+01	2.28444694e+00	1.14206699e+00	1.14237995e+00	-1.56479990e-04	-1.14222347e+00	-1.30105291e+01	-5.52641859e-20	-1.30105291e+01	1.30105291e+01
