/*--------------------------------*- C++ -*----------------------------------*\
| =========                 |                                                 |
| \\      /  F ield         | OpenFOAM: The Open Source CFD Toolbox           |
|  \\    /   O peration     | Version:  2406                                  |
|   \\  /    A nd           | Website:  www.openfoam.com                      |
|    \\/     M anipulation  |                                                 |
\*---------------------------------------------------------------------------*/
FoamFile
{
    version     2.0;
    format      ascii;
    arch        "LSB;label=32;scalar=64";
    class       volScalarField;
    location    "15";
    object      alphat;
}
// * * * * * * * * * * * * * * * * * * * * * * * * * * * * * * * * * * * * * //

dimensions      [1 -1 -1 0 0 0 0];

internalField   nonuniform List<scalar> 
62344
(
1.035953e-06
1.0554644e-06
1.0736354e-06
1.0426436e-06
9.8287785e-07
9.4390641e-07
9.272791e-07
9.2889526e-07
9.4146578e-07
9.5543141e-07
9.5056829e-07
9.4986987e-07
9.4157615e-07
9.2049242e-07
8.998183e-07
8.8670346e-07
8.8116343e-07
8.8689542e-07
9.0624573e-07
9.1689392e-07
9.2831948e-07
9.5768434e-07
9.754068e-07
9.853862e-07
9.9928624e-07
1.0279491e-06
1.0438831e-06
1.0381067e-06
1.0494765e-06
1.1082947e-06
1.1997046e-06
1.2682976e-06
1.3111753e-06
1.3447509e-06
1.4735365e-06
1.5843998e-06
1.7029053e-06
1.7655838e-06
2.0398425e-06
2.4643624e-06
3.2872008e-06
4.0516612e-06
4.8633754e-06
5.0972649e-06
5.5547125e-06
6.343673e-06
7.6232053e-06
1.0210143e-05
1.3559446e-05
1.7825717e-05
2.2096331e-05
2.6324762e-05
3.1187546e-05
3.9085377e-05
5.1627402e-05
1.0355207e-06
1.0559196e-06
1.0737619e-06
1.0453101e-06
9.8356436e-07
9.4625633e-07
9.2807609e-07
9.2746918e-07
9.3802763e-07
9.5155484e-07
9.5233234e-07
9.4603219e-07
9.3675354e-07
9.2043369e-07
9.014358e-07
8.8703744e-07
8.7707431e-07
8.7404408e-07
8.9851688e-07
9.1181292e-07
9.1800294e-07
9.3957452e-07
9.6392962e-07
9.7603822e-07
9.8458069e-07
1.0140056e-06
1.0270996e-06
1.0232812e-06
1.0327864e-06
1.0676754e-06
1.1283717e-06
1.1892372e-06
1.2374531e-06
1.2852749e-06
1.41664e-06
1.5097972e-06
1.5842695e-06
1.629499e-06
1.872173e-06
2.257754e-06
2.8795048e-06
3.3429759e-06
3.824447e-06
4.0400289e-06
4.8524721e-06
5.5685178e-06
7.4427933e-06
9.3231839e-06
1.3183244e-05
1.6774358e-05
2.2205577e-05
2.5591652e-05
3.0485263e-05
3.315753e-05
4.0164742e-05
1.0347721e-06
1.0579529e-06
1.0773269e-06
1.0486753e-06
9.8740882e-07
9.4531027e-07
9.2928986e-07
9.2722995e-07
9.3787096e-07
9.4588182e-07
9.5474916e-07
9.519586e-07
9.3428016e-07
9.1771921e-07
9.0221399e-07
8.9435374e-07
8.8075162e-07
8.7395898e-07
8.9109694e-07
9.0826284e-07
9.1934803e-07
9.3825613e-07
9.5711846e-07
9.7336507e-07
9.8174123e-07
1.0124826e-06
1.0250826e-06
1.0200831e-06
1.0334194e-06
1.0729452e-06
1.1315421e-06
1.1788829e-06
1.2120565e-06
1.2693026e-06
1.4023328e-06
1.485011e-06
1.550593e-06
1.5838491e-06
1.7894548e-06
2.1051154e-06
2.568647e-06
2.8781371e-06
3.227378e-06
3.5088425e-06
4.3422231e-06
5.2408166e-06
6.9003012e-06
8.4936895e-06
1.152274e-05
1.4585845e-05
1.8969854e-05
2.1588316e-05
2.6081336e-05
2.8366163e-05
3.4842676e-05
1.0341188e-06
1.0577999e-06
1.0797086e-06
1.0500468e-06
9.9110526e-07
9.4534239e-07
9.2702654e-07
9.2760525e-07
9.4031739e-07
9.4673032e-07
9.5338096e-07
9.5372936e-07
9.3805975e-07
9.222089e-07
9.1248794e-07
8.9722091e-07
8.8068064e-07
8.7679002e-07
8.8715745e-07
8.994364e-07
9.161936e-07
9.3709796e-07
9.5380323e-07
9.7262226e-07
9.8186391e-07
1.0094114e-06
1.0240872e-06
1.0199567e-06
1.0374913e-06
1.0793973e-06
1.1324543e-06
1.1681058e-06
1.1846039e-06
1.2599573e-06
1.397216e-06
1.4698143e-06
1.5341596e-06
1.58343e-06
1.8142242e-06
2.106186e-06
2.5006891e-06
2.7079294e-06
2.9759253e-06
3.2773434e-06
4.1346201e-06
5.0803437e-06
6.5915063e-06
8.0787898e-06
1.0486435e-05
1.2470747e-05
1.5484985e-05
1.7417341e-05
2.1084793e-05
2.3151685e-05
2.7654403e-05
1.0336952e-06
1.0572543e-06
1.0816623e-06
1.0519332e-06
9.9247489e-07
9.4635234e-07
9.2505449e-07
9.268389e-07
9.4068748e-07
9.4970559e-07
9.5252196e-07
9.5435289e-07
9.4196733e-07
9.2597014e-07
9.143073e-07
8.9416737e-07
8.7910115e-07
8.8043633e-07
8.9001747e-07
8.9381494e-07
9.1413893e-07
9.3791456e-07
9.5488901e-07
9.6928161e-07
9.8053286e-07
1.0128203e-06
1.0298446e-06
1.0281398e-06
1.0423994e-06
1.0787818e-06
1.1252145e-06
1.1512357e-06
1.1661434e-06
1.2462095e-06
1.3719994e-06
1.4247826e-06
1.4981612e-06
1.5749916e-06
1.8330832e-06
2.1220078e-06
2.4801969e-06
2.63715e-06
2.862448e-06
3.1257949e-06
3.9405601e-06
4.9109016e-06
6.6055376e-06
8.1158409e-06
1.0234395e-05
1.1623086e-05
1.383331e-05
1.5214578e-05
1.8365593e-05
2.0428673e-05
2.5023312e-05
1.0334484e-06
1.057125e-06
1.0825401e-06
1.0547414e-06
9.942706e-07
9.4809217e-07
9.2563203e-07
9.2598313e-07
9.3773061e-07
9.4946278e-07
9.5361154e-07
9.5647028e-07
9.4523481e-07
9.2946637e-07
9.1543588e-07
8.9644492e-07
8.7915622e-07
8.8219554e-07
8.9396519e-07
8.9450049e-07
9.1154089e-07
9.3508568e-07
9.5625238e-07
9.6457656e-07
9.8043526e-07
1.01973e-06
1.0381027e-06
1.037079e-06
1.0459119e-06
1.076309e-06
1.1161728e-06
1.1405868e-06
1.1606328e-06
1.2329138e-06
1.3455532e-06
1.3833716e-06
1.4702104e-06
1.5576573e-06
1.8370583e-06
2.1219387e-06
2.4611424e-06
2.593549e-06
2.8188615e-06
2.9858605e-06
3.6258446e-06
4.4446018e-06
6.0063761e-06
7.4017766e-06
9.2701255e-06
1.0223422e-05
1.1747772e-05
1.3907098e-05
1.6144023e-05
1.9209184e-05
2.4411563e-05
1.0332752e-06
1.0585595e-06
1.0838367e-06
1.0579606e-06
9.9593404e-07
9.5037185e-07
9.2711624e-07
9.2657878e-07
9.3598506e-07
9.4976157e-07
9.5745622e-07
9.557593e-07
9.4714893e-07
9.3701745e-07
9.2086964e-07
8.9816791e-07
8.863188e-07
8.8107084e-07
8.9561322e-07
8.9672769e-07
9.0811e-07
9.2990232e-07
9.5807374e-07
9.6620412e-07
9.8460321e-07
1.022999e-06
1.0345796e-06
1.0371146e-06
1.0482101e-06
1.0757838e-06
1.1113608e-06
1.1303632e-06
1.1604064e-06
1.2356827e-06
1.3367733e-06
1.3655393e-06
1.456055e-06
1.5372584e-06
1.8058182e-06
2.0822711e-06
2.3825821e-06
2.4997482e-06
2.7776493e-06
2.9393256e-06
3.5167793e-06
4.273492e-06
5.8101719e-06
6.8704238e-06
8.2428891e-06
9.4191966e-06
1.0338366e-05
1.2435495e-05
1.3798869e-05
1.7062495e-05
2.2256235e-05
1.0328924e-06
1.0596257e-06
1.08446e-06
1.0605019e-06
9.9827416e-07
9.5049835e-07
9.286989e-07
9.2729293e-07
9.3505998e-07
9.4818058e-07
9.5926381e-07
9.5730847e-07
9.4472716e-07
9.3557342e-07
9.2090732e-07
9.0155249e-07
8.9447172e-07
8.8367772e-07
8.9959475e-07
9.0038242e-07
9.1131316e-07
9.2784665e-07
9.5562861e-07
9.6662338e-07
9.8303563e-07
1.0167338e-06
1.0220085e-06
1.0270541e-06
1.0447558e-06
1.0754631e-06
1.107961e-06
1.1194502e-06
1.1542778e-06
1.2363862e-06
1.3223001e-06
1.3653806e-06
1.4450321e-06
1.5065304e-06
1.7574055e-06
2.0409752e-06
2.2082565e-06
2.4106975e-06
2.7280454e-06
2.9153012e-06
3.3568422e-06
4.2776146e-06
5.6945912e-06
6.4718305e-06
7.539176e-06
9.0504605e-06
9.944134e-06
1.1953508e-05
1.3068665e-05
1.6016925e-05
1.9752478e-05
1.032361e-06
1.059977e-06
1.0853405e-06
1.0618386e-06
1.0014646e-06
9.5041965e-07
9.2922426e-07
9.2778209e-07
9.3632882e-07
9.4783557e-07
9.6055143e-07
9.6010019e-07
9.4555259e-07
9.351347e-07
9.2233006e-07
9.1159605e-07
8.9929958e-07
8.8575835e-07
8.9775804e-07
9.0233225e-07
9.1394286e-07
9.2830262e-07
9.5108477e-07
9.669456e-07
9.8508546e-07
1.015402e-06
1.0233773e-06
1.0266406e-06
1.0445273e-06
1.0791504e-06
1.1089009e-06
1.1175248e-06
1.1489883e-06
1.2340201e-06
1.3084587e-06
1.3633881e-06
1.4156489e-06
1.4757624e-06
1.7095704e-06
1.9935691e-06
2.1392631e-06
2.3285413e-06
2.6564366e-06
2.8737556e-06
3.3021009e-06
4.2029755e-06
5.428119e-06
5.9398477e-06
6.6370688e-06
8.3170407e-06
9.635854e-06
1.1777052e-05
1.3037975e-05
1.5948935e-05
1.9304417e-05
1.0317823e-06
1.0595316e-06
1.0862239e-06
1.0625589e-06
1.0034727e-06
9.5241188e-07
9.2832275e-07
9.278633e-07
9.3950837e-07
9.4893733e-07
9.5832712e-07
9.6105198e-07
9.4915371e-07
9.4071006e-07
9.274695e-07
9.1777403e-07
9.0114827e-07
8.8563475e-07
8.8994021e-07
8.9850406e-07
9.1113466e-07
9.2496263e-07
9.4665281e-07
9.6599085e-07
9.855834e-07
1.0146641e-06
1.022953e-06
1.0264484e-06
1.0468979e-06
1.0854225e-06
1.1068376e-06
1.1109562e-06
1.1419038e-06
1.2319017e-06
1.2976626e-06
1.3409713e-06
1.3828349e-06
1.4607062e-06
1.710981e-06
1.9726223e-06
2.1333497e-06
2.2971363e-06
2.6148097e-06
2.8278559e-06
3.2514162e-06
4.069907e-06
5.0943728e-06
5.5626663e-06
6.2348485e-06
7.2299841e-06
8.8926897e-06
1.0882767e-05
1.2327862e-05
1.4534819e-05
1.861498e-05
1.0312508e-06
1.0590291e-06
1.0869311e-06
1.0636271e-06
1.0042397e-06
9.5454903e-07
9.2753708e-07
9.2672033e-07
9.4106469e-07
9.4955853e-07
9.5430959e-07
9.6608651e-07
9.5283371e-07
9.412275e-07
9.2966637e-07
9.180707e-07
9.0111624e-07
8.9438399e-07
8.9013536e-07
8.9669305e-07
9.1154485e-07
9.2690288e-07
9.462669e-07
9.6301747e-07
9.8332351e-07
1.0133265e-06
1.0195288e-06
1.021127e-06
1.0472298e-06
1.0925087e-06
1.1095599e-06
1.1061826e-06
1.1370633e-06
1.2209389e-06
1.2779552e-06
1.3129763e-06
1.3545837e-06
1.4578399e-06
1.7234479e-06
1.9387235e-06
2.1769533e-06
2.3019363e-06
2.5892084e-06
2.7797804e-06
3.3056783e-06
3.9863856e-06
4.9116098e-06
5.4486324e-06
6.2251572e-06
6.8063839e-06
8.1695903e-06
9.9458526e-06
1.1779784e-05
1.3518197e-05
1.6553562e-05
1.0308889e-06
1.0586189e-06
1.0877732e-06
1.0648375e-06
1.0048511e-06
9.5587754e-07
9.2725466e-07
9.2447203e-07
9.4052064e-07
9.4888047e-07
9.5333958e-07
9.678431e-07
9.5598866e-07
9.4238255e-07
9.3142095e-07
9.1880544e-07
9.0206439e-07
8.9872028e-07
8.9466673e-07
8.9630275e-07
9.1453207e-07
9.3237452e-07
9.4686511e-07
9.6171755e-07
9.8490143e-07
1.0177502e-06
1.0250711e-06
1.0257271e-06
1.0521786e-06
1.0999577e-06
1.1202043e-06
1.1152418e-06
1.1392512e-06
1.2110805e-06
1.2631041e-06
1.2914538e-06
1.3338259e-06
1.4491428e-06
1.7256308e-06
1.9041165e-06
2.1609311e-06
2.3062115e-06
2.4745937e-06
2.6681871e-06
3.2633877e-06
3.8844729e-06
4.4676952e-06
5.2519322e-06
6.1650476e-06
6.5900012e-06
7.3027019e-06
8.8513e-06
1.1049156e-05
1.2654731e-05
1.5158475e-05
1.0306528e-06
1.0586466e-06
1.0890752e-06
1.0664617e-06
1.0060829e-06
9.5658331e-07
9.2807164e-07
9.2328849e-07
9.3810946e-07
9.4815938e-07
9.5521938e-07
9.6390651e-07
9.5891824e-07
9.4634904e-07
9.3334032e-07
9.2025741e-07
9.0053116e-07
8.9908729e-07
8.9814802e-07
8.9491535e-07
9.1417586e-07
9.292913e-07
9.4576777e-07
9.6374187e-07
9.8895427e-07
1.0173175e-06
1.0277901e-06
1.0343708e-06
1.0590592e-06
1.1024113e-06
1.123734e-06
1.1189715e-06
1.1428492e-06
1.209079e-06
1.2569089e-06
1.2825239e-06
1.3358786e-06
1.4324003e-06
1.7077611e-06
1.8821093e-06
2.0641176e-06
2.280748e-06
2.3802135e-06
2.5421988e-06
3.0655332e-06
3.6070485e-06
4.0594519e-06
4.8211492e-06
5.7686572e-06
6.3506655e-06
6.7323008e-06
7.5976294e-06
9.457235e-06
1.1023043e-05
1.4042511e-05
1.0305465e-06
1.0589267e-06
1.0899773e-06
1.0681717e-06
1.0080632e-06
9.5645366e-07
9.2944135e-07
9.2512709e-07
9.3617931e-07
9.4824227e-07
9.5625969e-07
9.6239592e-07
9.6142671e-07
9.4693499e-07
9.3501425e-07
9.2159678e-07
9.0066025e-07
9.0229635e-07
8.9765949e-07
8.9564595e-07
9.1202607e-07
9.2293801e-07
9.4152048e-07
9.6455684e-07
9.9152811e-07
1.0147337e-06
1.0220809e-06
1.0324723e-06
1.0588876e-06
1.1023683e-06
1.1243511e-06
1.119674e-06
1.1447299e-06
1.2148982e-06
1.2637317e-06
1.2912618e-06
1.3434564e-06
1.4340981e-06
1.6939945e-06
1.8422972e-06
1.9975201e-06
2.209912e-06
2.3034018e-06
2.5266215e-06
2.8450868e-06
3.3723064e-06
3.7755149e-06
4.4314423e-06
5.1122698e-06
5.893143e-06
6.293966e-06
7.1603554e-06
8.1379648e-06
9.8687154e-06
1.2085296e-05
1.0304191e-06
1.0592146e-06
1.090102e-06
1.0695045e-06
1.0101129e-06
9.5668019e-07
9.2931917e-07
9.2661325e-07
9.3438747e-07
9.4986858e-07
9.5696676e-07
9.6621621e-07
9.6430356e-07
9.4598346e-07
9.3935195e-07
9.2337826e-07
9.0822502e-07
9.0890306e-07
8.9630377e-07
8.9577347e-07
9.0839735e-07
9.1750602e-07
9.3590445e-07
9.6197058e-07
9.9028039e-07
1.0130789e-06
1.0149594e-06
1.0245688e-06
1.0520277e-06
1.0971636e-06
1.1229312e-06
1.1237275e-06
1.1548937e-06
1.2336534e-06
1.2751825e-06
1.3032827e-06
1.3475022e-06
1.4411893e-06
1.6871404e-06
1.8035145e-06
1.9346187e-06
2.1457918e-06
2.2515322e-06
2.5031019e-06
2.770948e-06
3.2708576e-06
3.6118735e-06
4.2207823e-06
4.7494348e-06
5.6331693e-06
6.0445622e-06
6.9608706e-06
7.812321e-06
9.4730062e-06
1.0999057e-05
1.0302569e-06
1.0593363e-06
1.0896557e-06
1.0702325e-06
1.0114521e-06
9.5747608e-07
9.281524e-07
9.2493336e-07
9.3241762e-07
9.4955782e-07
9.5900083e-07
9.6754797e-07
9.6313885e-07
9.4878497e-07
9.4245101e-07
9.2295621e-07
9.135093e-07
9.071479e-07
8.9306648e-07
8.9528392e-07
9.0536816e-07
9.1481403e-07
9.2901338e-07
9.5487173e-07
9.850304e-07
1.0090416e-06
1.0089763e-06
1.0150159e-06
1.0428865e-06
1.0874092e-06
1.1164104e-06
1.1227408e-06
1.1595651e-06
1.2389302e-06
1.2791654e-06
1.306872e-06
1.35348e-06
1.4421555e-06
1.6660635e-06
1.7629842e-06
1.8483414e-06
2.0448566e-06
2.1635776e-06
2.4363005e-06
2.6972732e-06
3.1698293e-06
3.454151e-06
4.0087355e-06
4.4542333e-06
5.2538102e-06
5.7090001e-06
6.6640665e-06
7.5368028e-06
8.9543007e-06
1.0193518e-05
1.0299698e-06
1.059283e-06
1.0893894e-06
1.0710479e-06
1.0125859e-06
9.5811435e-07
9.2728574e-07
9.2221122e-07
9.306144e-07
9.4639121e-07
9.5966818e-07
9.6440781e-07
9.5919901e-07
9.4935307e-07
9.3809858e-07
9.20032e-07
9.1251693e-07
8.9844242e-07
8.897107e-07
8.9134367e-07
9.0064546e-07
9.1194708e-07
9.2566847e-07
9.4722921e-07
9.7670654e-07
1.0011382e-06
9.9954019e-07
1.0003805e-06
1.0265144e-06
1.0628615e-06
1.091633e-06
1.103953e-06
1.1463652e-06
1.220675e-06
1.1880644e-06
1.2785666e-06
1.3312783e-06
1.3223875e-06
1.5958155e-06
1.6804778e-06
1.7391866e-06
1.903269e-06
2.0156516e-06
2.2793821e-06
2.5755364e-06
2.9143317e-06
3.1942677e-06
3.6364409e-06
3.9538653e-06
4.5043463e-06
5.0802275e-06
5.9420191e-06
7.002322e-06
8.1007042e-06
9.1686099e-06
1.0296826e-06
1.0589279e-06
1.0893442e-06
1.0718985e-06
1.0137757e-06
9.5850229e-07
9.2738824e-07
9.2089196e-07
9.3073629e-07
9.4281723e-07
9.5717713e-07
9.6078935e-07
9.580648e-07
9.4458454e-07
9.2947374e-07
9.1885442e-07
9.0844148e-07
8.9115267e-07
8.8632014e-07
8.8509748e-07
8.9413366e-07
9.0506835e-07
9.1834752e-07
9.3623662e-07
9.6287474e-07
9.8559824e-07
9.8308895e-07
9.7940186e-07
9.9826945e-07
1.0252064e-06
1.0467485e-06
1.0569402e-06
1.0925067e-06
1.1490568e-06
8.0968911e-07
1.0535394e-06
1.2322153e-06
9.0147242e-07
1.413871e-06
1.4822146e-06
1.5219281e-06
1.6419843e-06
1.746429e-06
1.9658254e-06
2.3297116e-06
2.4666492e-06
2.7897143e-06
3.0144771e-06
3.2807131e-06
3.4386924e-06
3.9633373e-06
4.4797222e-06
5.7275435e-06
6.3209487e-06
7.2027919e-06
1.0292563e-06
1.0584848e-06
1.0896891e-06
1.072871e-06
1.01497e-06
9.5917289e-07
9.2724433e-07
9.2137009e-07
9.3256621e-07
9.4111694e-07
9.5203865e-07
9.5970084e-07
9.5708342e-07
9.3830942e-07
9.2127698e-07
9.1790577e-07
9.0566084e-07
8.8608432e-07
8.7720891e-07
8.7480531e-07
8.8121439e-07
8.9007023e-07
9.0125482e-07
9.1331209e-07
9.3665047e-07
9.5639868e-07
7.1504878e-07
9.416658e-07
9.5114921e-07
9.3367064e-07
7.5865627e-07
9.7947188e-07
7.9513355e-07
1.0076364e-06
4.8645415e-07
7.0584795e-07
1.0253633e-06
6.0123643e-07
9.1784889e-07
1.1398758e-06
9.8013353e-07
1.1883397e-06
1.3516777e-06
1.4963093e-06
1.8192863e-06
1.9549364e-06
2.2132182e-06
2.307738e-06
2.5490116e-06
2.6453318e-06
2.9930241e-06
3.2088172e-06
3.910608e-06
4.2706069e-06
4.9076515e-06
1.0288089e-06
1.0575794e-06
1.0891486e-06
1.072341e-06
1.0139758e-06
9.5815136e-07
9.2380174e-07
9.1743055e-07
9.2931803e-07
9.3490483e-07
9.4077243e-07
9.5160497e-07
9.4470447e-07
9.2442776e-07
9.1003474e-07
9.025456e-07
8.8935135e-07
8.3385585e-07
8.5226087e-07
8.4721385e-07
8.5030115e-07
8.5861685e-07
8.6575908e-07
8.712638e-07
8.9158186e-07
7.8736443e-07
5.3288572e-07
8.627825e-07
7.0307086e-07
7.6095754e-07
5.2109368e-07
8.270575e-07
5.8035567e-07
9.0047356e-07
3.2495136e-07
4.8140439e-07
6.9456343e-07
3.7705856e-07
5.8502384e-07
9.4524506e-07
6.1719252e-07
7.7196527e-07
1.0531175e-06
1.14571e-06
1.3753585e-06
1.5073764e-06
1.7500527e-06
1.8492397e-06
2.1074081e-06
2.2077981e-06
2.5052348e-06
2.6836245e-06
3.1299651e-06
3.3420734e-06
3.7211714e-06
1.0279782e-06
1.0563916e-06
1.0865803e-06
1.0678936e-06
1.0069162e-06
9.5000792e-07
9.1150888e-07
9.007892e-07
9.0980282e-07
9.1265288e-07
9.1487932e-07
9.2277007e-07
9.1534501e-07
8.9535261e-07
8.8500128e-07
8.7012334e-07
8.5262129e-07
7.2950567e-07
8.1624702e-07
8.0736924e-07
8.0733983e-07
8.1546167e-07
8.1945667e-07
8.2107199e-07
8.3904768e-07
7.7325731e-07
5.4602742e-07
8.3315495e-07
6.6334449e-07
7.4212806e-07
4.6697414e-07
6.2385609e-07
5.4633291e-07
8.6714448e-07
2.8149785e-07
3.8521905e-07
5.1510014e-07
2.7785584e-07
4.1310288e-07
8.6087357e-07
3.7529705e-07
4.8949236e-07
8.8088003e-07
8.5003798e-07
1.1140281e-06
1.2295191e-06
1.4376676e-06
1.5455831e-06
1.7818633e-06
1.8718591e-06
2.1134759e-06
2.3262029e-06
2.6633072e-06
2.8970497e-06
3.1526088e-06
1.0260733e-06
1.0501122e-06
1.0736812e-06
1.0488935e-06
9.8401795e-07
9.2536875e-07
8.8410039e-07
8.680258e-07
8.7223815e-07
8.7447121e-07
8.7621258e-07
8.822377e-07
8.775076e-07
8.6338822e-07
8.5574563e-07
8.4256013e-07
8.2669914e-07
8.1382177e-07
7.9638014e-07
7.8566857e-07
7.8377652e-07
7.9193398e-07
7.9757069e-07
8.0116816e-07
8.0420624e-07
8.3653308e-07
6.7585891e-07
8.338531e-07
8.4984209e-07
8.5155131e-07
5.2105472e-07
6.0604866e-07
7.0504819e-07
9.5402951e-07
3.3170153e-07
4.0762546e-07
5.5984753e-07
3.0225713e-07
4.3956966e-07
9.3898857e-07
3.2145004e-07
3.7641202e-07
8.7167877e-07
6.001556e-07
6.5174541e-07
1.1168938e-06
1.2572092e-06
1.3614011e-06
1.5574251e-06
1.6601604e-06
1.8280247e-06
2.023133e-06
2.254302e-06
2.4993848e-06
2.7391093e-06
1.0173512e-06
1.0278394e-06
1.0373891e-06
1.0114091e-06
9.5351257e-07
8.9896625e-07
8.5970593e-07
8.4093431e-07
8.3984994e-07
8.4142442e-07
8.4156326e-07
8.4754134e-07
8.5202536e-07
8.562871e-07
8.5727838e-07
8.6058929e-07
8.1896092e-07
8.6117604e-07
8.5402334e-07
8.4518576e-07
8.44053e-07
8.5952889e-07
8.7183933e-07
8.8334615e-07
8.2518785e-07
9.2065822e-07
8.6365086e-07
9.4360291e-07
9.7442101e-07
1.0113888e-06
7.4239398e-07
7.6731099e-07
1.0428708e-06
1.1791809e-06
5.4819969e-07
5.9668699e-07
8.0280458e-07
5.4193245e-07
7.9641964e-07
1.3402581e-06
5.1398531e-07
5.4150286e-07
1.0459772e-06
8.3443294e-07
6.8615391e-07
9.8768525e-07
1.435869e-06
1.485709e-06
1.4712757e-06
1.6836518e-06
1.785333e-06
1.9722623e-06
2.1256944e-06
2.3672128e-06
2.5451826e-06
9.9870619e-07
9.9074607e-07
1.0022017e-06
9.9564808e-07
9.7248469e-07
9.3676661e-07
9.0697954e-07
8.9004213e-07
8.8849335e-07
8.9242006e-07
8.9676768e-07
9.1173808e-07
9.34e-07
9.6745818e-07
9.8606207e-07
9.7716027e-07
8.7221808e-07
1.0538777e-06
1.0576661e-06
1.0386652e-06
1.0238483e-06
1.1036472e-06
1.1269932e-06
1.0213841e-06
1.0046256e-06
1.0630916e-06
1.056573e-06
1.2553851e-06
1.2975321e-06
1.3479356e-06
1.1069825e-06
1.1875019e-06
1.482545e-06
1.6110711e-06
1.0906302e-06
1.0799189e-06
1.3204223e-06
1.2498152e-06
1.6429425e-06
1.9280024e-06
1.0886878e-06
1.0591119e-06
1.5398547e-06
1.5159518e-06
1.3102402e-06
1.5427079e-06
2.1821283e-06
2.1884958e-06
1.712827e-06
1.9758488e-06
2.2499169e-06
2.3684708e-06
2.323686e-06
2.6600399e-06
2.7511728e-06
9.5652183e-07
9.7195346e-07
1.0091924e-06
1.0835522e-06
1.1233156e-06
1.131711e-06
1.1271177e-06
1.1200335e-06
1.1189158e-06
1.1307393e-06
1.1477444e-06
1.1663451e-06
1.2006008e-06
1.242608e-06
1.2658083e-06
1.1687474e-06
1.1290646e-06
1.2812624e-06
1.3727213e-06
1.2494075e-06
1.2777139e-06
1.3797624e-06
1.3870264e-06
1.3658529e-06
1.3795639e-06
1.4449648e-06
1.4759674e-06
1.5611659e-06
1.7442219e-06
1.7605056e-06
1.6643966e-06
1.7429115e-06
1.977331e-06
2.1851701e-06
1.8593488e-06
1.780153e-06
1.9304991e-06
1.994244e-06
2.5241407e-06
2.6377325e-06
2.2286287e-06
2.1325225e-06
2.56656e-06
2.6210504e-06
2.4763909e-06
2.7016315e-06
3.1690714e-06
3.1343754e-06
2.8829928e-06
2.6942883e-06
2.9626201e-06
2.9662468e-06
2.7247508e-06
2.7733765e-06
3.2005783e-06
6.9605604e-07
9.0546182e-07
1.0781062e-06
1.1785487e-06
1.2418673e-06
1.270401e-06
1.2680307e-06
1.2469323e-06
1.2155423e-06
1.2165886e-06
1.2172952e-06
1.2178068e-06
1.2108851e-06
1.1922525e-06
1.1783956e-06
1.1586928e-06
1.0959262e-06
1.0916359e-06
1.1406755e-06
1.1905174e-06
1.2405049e-06
1.2682583e-06
1.2719666e-06
1.3176968e-06
1.3487974e-06
1.3926235e-06
1.4453293e-06
1.5177111e-06
1.598981e-06
1.642754e-06
1.6212644e-06
1.6452185e-06
1.7417935e-06
1.8361442e-06
1.8315926e-06
1.7893298e-06
1.796155e-06
1.8885961e-06
1.9434088e-06
2.07053e-06
1.9630599e-06
1.9240961e-06
1.934415e-06
1.987509e-06
2.0865622e-06
2.1093748e-06
2.3515676e-06
2.3904249e-06
2.3487033e-06
2.3210926e-06
2.3248947e-06
2.340298e-06
2.4048013e-06
2.4662628e-06
2.6134184e-06
6.7206213e-07
1.1086416e-06
9.60754e-07
7.5897644e-07
6.728388e-07
6.2639096e-07
5.7595019e-07
5.1780466e-07
4.6879918e-07
4.2868893e-07
3.9169275e-07
3.5890761e-07
3.3130608e-07
3.2469602e-07
3.1776015e-07
3.1347778e-07
3.0834378e-07
3.1721141e-07
3.344765e-07
3.3716669e-07
3.3410499e-07
3.4278857e-07
3.4388375e-07
3.3044468e-07
3.2476562e-07
3.313602e-07
3.3319247e-07
3.2047895e-07
3.096617e-07
3.0483899e-07
3.0258769e-07
3.0935961e-07
3.3365915e-07
3.6904375e-07
3.9295045e-07
3.9029295e-07
3.7830511e-07
3.9773408e-07
4.5117672e-07
5.2570329e-07
5.6174998e-07
5.7102711e-07
5.7864156e-07
5.9170737e-07
6.1998594e-07
6.7665014e-07
7.7184909e-07
8.4263007e-07
9.1673383e-07
9.2311833e-07
9.1365885e-07
9.3250068e-07
9.667997e-07
1.0210538e-06
1.0988894e-06
1.0240431e-06
2.6399617e-06
3.3909356e-06
2.8920946e-06
2.6471332e-06
2.903622e-06
3.3274522e-06
3.9167548e-06
5.1996909e-06
8.1760566e-06
1.0790565e-05
1.2210412e-05
1.3241593e-05
1.4235087e-05
1.5843847e-05
1.8393096e-05
2.1260936e-05
2.5773347e-05
2.6804236e-05
2.6709321e-05
2.7665693e-05
2.8614505e-05
2.7817901e-05
2.8583115e-05
3.4505914e-05
4.9253333e-05
7.027157e-05
9.3745145e-07
2.5468264e-06
3.5479189e-06
3.097284e-06
2.7784288e-06
3.0286647e-06
3.4504112e-06
4.0651484e-06
5.5495987e-06
9.4617076e-06
1.2977663e-05
1.5175646e-05
1.6287534e-05
1.7059418e-05
1.7743584e-05
2.015822e-05
2.3465464e-05
3.0130673e-05
3.4702135e-05
3.6848119e-05
3.8989167e-05
3.8272768e-05
3.4773769e-05
3.3567223e-05
3.6652742e-05
5.1442921e-05
7.6323699e-05
1.0863132e-06
2.350164e-06
3.4707939e-06
3.1277277e-06
2.882798e-06
3.1992677e-06
3.6510849e-06
4.3896786e-06
6.0866907e-06
1.0342961e-05
1.4734294e-05
1.741945e-05
1.8501759e-05
1.9358578e-05
2.0079901e-05
2.2410562e-05
2.6308464e-05
3.4938365e-05
4.1433226e-05
4.4368022e-05
4.6989743e-05
4.9315642e-05
4.8129388e-05
4.5860294e-05
4.3882484e-05
5.4529507e-05
7.9564814e-05
1.0702939e-06
2.0611722e-06
3.3843067e-06
3.253069e-06
3.0951912e-06
3.5353896e-06
4.1108254e-06
5.0358735e-06
6.9323221e-06
1.1338973e-05
1.6688759e-05
1.970278e-05
2.0689085e-05
2.1749519e-05
2.2891418e-05
2.5573245e-05
2.9754194e-05
3.8857044e-05
4.7796734e-05
5.0738683e-05
5.2777929e-05
5.6193311e-05
5.8438246e-05
6.0543525e-05
6.1160472e-05
6.2459792e-05
8.1870757e-05
9.4940123e-07
1.8421996e-06
3.2715911e-06
3.4676823e-06
3.4264676e-06
4.0178622e-06
4.7290551e-06
5.8520429e-06
8.0823355e-06
1.2917363e-05
1.9425718e-05
2.2761639e-05
2.3853735e-05
2.5086519e-05
2.6767621e-05
3.0835379e-05
3.5678842e-05
4.4843622e-05
5.5013033e-05
5.7953372e-05
5.949654e-05
6.471203e-05
6.7424813e-05
7.2971696e-05
7.8204532e-05
7.7632092e-05
9.2618414e-05
9.2094137e-07
1.7742944e-06
3.2499189e-06
3.6676418e-06
3.8407501e-06
4.549573e-06
5.3592245e-06
6.6984974e-06
9.4494163e-06
1.5184651e-05
2.179908e-05
2.5065725e-05
2.6599085e-05
2.8117489e-05
2.9959392e-05
3.4976832e-05
4.2188501e-05
5.5658073e-05
6.3692484e-05
6.4873923e-05
6.5688767e-05
7.2998619e-05
7.8606828e-05
8.3403481e-05
8.3720049e-05
8.5711852e-05
0.00010379119
9.4969989e-07
1.8263685e-06
3.3336847e-06
3.9172302e-06
4.3757429e-06
5.1383016e-06
6.0919105e-06
7.7513966e-06
1.1005721e-05
1.7437975e-05
2.4075014e-05
2.7542449e-05
2.9683363e-05
3.1685235e-05
3.4089074e-05
4.0783832e-05
4.9637254e-05
6.4912659e-05
7.3342363e-05
7.4287813e-05
7.5281373e-05
8.288895e-05
9.0103625e-05
9.6140655e-05
8.893472e-05
8.4513407e-05
0.0001055126
9.9700502e-07
1.8784131e-06
3.4273644e-06
4.2642695e-06
5.0157353e-06
5.8220955e-06
7.0740198e-06
9.1327035e-06
1.3080985e-05
2.1026376e-05
2.7338045e-05
3.1012356e-05
3.3844893e-05
3.6178816e-05
3.9322288e-05
4.7980009e-05
5.9165602e-05
7.32218e-05
8.4628362e-05
8.7971071e-05
9.0581917e-05
9.7068394e-05
0.00010129249
0.00010557516
9.918909e-05
8.5686181e-05
0.00010265125
1.0759549e-06
1.9009275e-06
3.4566101e-06
4.6601841e-06
5.5305002e-06
6.3842222e-06
8.0328987e-06
1.1124749e-05
1.7212263e-05
2.5946241e-05
3.1536041e-05
3.5247727e-05
3.900621e-05
4.1456657e-05
4.5121438e-05
5.5437625e-05
6.9531948e-05
8.5345601e-05
9.8957897e-05
0.00010585443
0.00011093778
0.0001140723
0.00011163291
0.00011084978
0.00010590688
9.5089974e-05
0.00010471174
9.6818547e-07
1.8337381e-06
3.2505007e-06
4.7002889e-06
5.8256997e-06
7.0176522e-06
9.282322e-06
1.3604418e-05
2.1759669e-05
3.049412e-05
3.6292279e-05
4.0792384e-05
4.5198137e-05
4.7618245e-05
5.1988039e-05
6.4237763e-05
8.2403337e-05
0.00010071794
0.0001161088
0.00012736684
0.00013465102
0.00013307344
0.00012594279
0.00012076036
0.00011453467
0.00010605629
0.00011309355
1.107618e-06
1.7036328e-06
3.0011043e-06
4.6944492e-06
6.1190433e-06
7.6659026e-06
1.0533438e-05
1.5616407e-05
2.4807328e-05
3.4171392e-05
4.1100811e-05
4.7191169e-05
5.2814809e-05
5.5338227e-05
6.0793226e-05
7.60404e-05
9.8954503e-05
0.00012005144
0.00013704336
0.000150686
0.000159528
0.00015542479
0.00014535552
0.0001381329
0.00013134838
0.00012369472
0.00012448933
1.3109165e-06
1.6203804e-06
2.8975043e-06
4.6531517e-06
5.49339e-06
7.2355624e-06
1.0053443e-05
1.4906754e-05
2.4168854e-05
3.7947396e-05
4.5410558e-05
5.2691451e-05
5.9335925e-05
6.3554971e-05
7.0435083e-05
8.8299122e-05
0.00011501947
0.00013971613
0.00016056154
0.00017453387
0.00018251606
0.00017842592
0.00016559236
0.00015650616
0.00015483747
0.00014953749
0.00014335401
1.1663085e-06
1.5338617e-06
2.7700453e-06
4.5150063e-06
5.3573103e-06
6.8454052e-06
9.2962036e-06
1.3479561e-05
2.0682705e-05
3.0891808e-05
4.1472615e-05
4.7833604e-05
5.3832956e-05
6.4720268e-05
7.9160371e-05
9.9593381e-05
0.00012778424
0.00015579608
0.00018250717
0.00019836681
0.00020521777
0.00020119389
0.00018622985
0.00017449878
0.00017655365
0.00017637657
0.0001685387
1.0613767e-06
1.4822859e-06
2.6680791e-06
4.3628121e-06
5.7698605e-06
7.9015755e-06
1.1972707e-05
1.8409273e-05
2.9303709e-05
4.16369e-05
4.5860868e-05
4.3213928e-05
4.2295271e-05
4.7663359e-05
5.9769545e-05
8.3412114e-05
0.0001342281
0.00016586288
0.00019628595
0.00021573014
0.00022556735
0.00021271447
0.00020868865
0.00019916216
0.00020095378
0.00020308584
0.0001961328
1.0761304e-06
1.5888062e-06
2.9143781e-06
4.681723e-06
6.4071684e-06
9.8709921e-06
1.5493375e-05
2.3040641e-05
3.2132273e-05
4.1054247e-05
4.8661423e-05
5.5795028e-05
6.1130862e-05
6.3033041e-05
6.6605667e-05
7.2941636e-05
8.6216443e-05
0.00011946032
0.00019902876
0.00022771441
0.00024087414
0.00024821793
0.00024356586
0.00023406016
0.00023429976
0.00023407089
0.00022474674
1.2076097e-06
1.8466413e-06
3.5128279e-06
5.7498461e-06
8.2601802e-06
1.1348365e-05
1.6020766e-05
2.2756012e-05
3.0988849e-05
3.7366138e-05
4.4315689e-05
5.54402e-05
6.283589e-05
7.1131857e-05
8.4074843e-05
0.0001072421
0.00010939584
0.0001114302
0.00013064166
0.00017620263
0.00025238615
0.00026545876
0.00027212361
0.00027122078
0.00024834806
0.00020775385
0.0002602099
1.1977638e-06
2.0943705e-06
3.9653376e-06
6.2373207e-06
8.5238829e-06
1.1157928e-05
1.4867369e-05
1.9329306e-05
2.4448187e-05
3.0339445e-05
3.5005882e-05
3.9503275e-05
4.4567103e-05
5.2731971e-05
8.0590212e-05
0.00011749457
0.00014960306
0.00018175257
0.00015646611
0.00015112644
0.00017561543
0.00022852926
0.00029450366
0.00030316325
0.00031803641
0.00024518524
0.00024780794
1.0507345e-06
2.0451216e-06
3.7877619e-06
5.8381038e-06
7.8223864e-06
1.0261613e-05
1.412558e-05
1.9474682e-05
2.6410523e-05
3.5306043e-05
4.0095437e-05
3.8792408e-05
3.93467e-05
4.3054959e-05
5.5101797e-05
8.5066053e-05
0.00016745646
0.00019305208
0.00021665753
0.00021242853
0.00018939198
0.00021154222
0.00026889298
0.00032866882
0.00035536287
0.00037457002
0.00032580836
1.1860694e-06
1.7984139e-06
3.3315639e-06
5.1240071e-06
7.0288908e-06
9.4591438e-06
1.2730285e-05
1.7121865e-05
2.3711977e-05
3.316986e-05
4.6391837e-05
4.9199033e-05
4.70939e-05
5.1080892e-05
6.4611716e-05
8.5049774e-05
0.00011565135
0.000161861
0.00022453926
0.00023758292
0.00025426116
0.00027984909
0.0003087169
0.0003421397
0.00038325274
0.00041641796
0.00039862321
1.2097767e-06
1.5813277e-06
2.9751137e-06
4.539938e-06
5.8802634e-06
8.0074821e-06
1.1610118e-05
1.6329501e-05
2.4452253e-05
3.7217814e-05
5.4092735e-05
7.1048551e-05
8.3063004e-05
9.9475161e-05
0.00010602212
0.00011192321
0.00011917925
0.00013131996
0.00015245622
0.0002021857
0.00025784291
0.00028188107
0.00031432371
0.00035254838
0.00040249619
0.00044761133
0.00043890613
9.1303156e-07
1.4319668e-06
2.8972132e-06
4.6113056e-06
5.9249281e-06
7.3254857e-06
9.2140896e-06
1.2431896e-05
1.9344331e-05
3.2647164e-05
5.5847253e-05
9.7345571e-05
0.00012471193
0.00015080996
0.00017411458
0.00017725395
0.00015944302
0.00015153997
0.00015437761
0.00017880395
0.00024099317
0.00029549304
0.00032967576
0.00036926123
0.00042125453
0.00047107193
0.00045307997
7.1929439e-07
1.408989e-06
3.1552972e-06
5.3088801e-06
7.6590395e-06
9.7415072e-06
1.3281525e-05
2.0307512e-05
3.2666882e-05
4.7149665e-05
6.6313032e-05
9.8968557e-05
0.0001422591
0.00017925933
0.0001967122
0.00021221244
0.00023288459
0.0002396512
0.00022490238
0.00021745758
0.00022746276
0.00026327054
0.00035727949
0.00039847525
0.00044582208
0.00048830937
0.00031493091
6.8366461e-07
1.6077344e-06
3.8942379e-06
6.7050222e-06
9.6687382e-06
1.6661499e-05
2.9816741e-05
5.3294751e-05
7.8544717e-05
0.00010476992
0.00011852456
0.00011767529
0.00012070742
0.00013028492
0.00014726128