/*--------------------------------*- C++ -*----------------------------------*\
| =========                 |                                                 |
| \\      /  F ield         | OpenFOAM: The Open Source CFD Toolbox           |
|  \\    /   O peration     | Version:  2406                                  |
|   \\  /    A nd           | Website:  www.openfoam.com                      |
|    \\/     M anipulation  |                                                 |
\*---------------------------------------------------------------------------*/
FoamFile
{
    version     2.0;
    format      ascii;
    arch        "LSB;label=32;scalar=64";
    class       volScalarField;
    location    "15";
    object      k;
}
// * * * * * * * * * * * * * * * * * * * * * * * * * * * * * * * * * * * * * //

dimensions      [0 2 -2 0 0 0 0];

internalField   nonuniform List<scalar> 
96472
(
3.2059005e-06
2.644922e-06
2.2620917e-06
1.8754597e-06
1.5446139e-06
1.3246504e-06
1.2047175e-06
1.1430739e-06
1.0985612e-06
1.045972e-06
9.7879597e-07
9.0247069e-07
8.2843838e-07
7.6597855e-07
7.2014759e-07
6.92068e-07
6.7799781e-07
6.7259006e-07
6.7044437e-07
6.6859082e-07
6.6481165e-07
6.5701206e-07
6.4458711e-07
6.2757711e-07
6.0819228e-07
5.9074714e-07
5.7481085e-07
5.6217345e-07
5.5129336e-07
5.4401831e-07
5.3780643e-07
5.3450323e-07
5.3119827e-07
5.3180235e-07
5.3296229e-07
5.3700401e-07
5.3987496e-07
5.4508789e-07
5.5665889e-07
5.6280527e-07
5.8706606e-07
6.011377e-07
6.1897137e-07
6.2541523e-07
6.3373769e-07
6.3419246e-07
6.358882e-07
6.4187569e-07
6.5416814e-07
6.7045338e-07
6.930966e-07
7.1844615e-07
7.4995746e-07
7.8873174e-07
8.5152023e-07
3.2044664e-06
2.6392726e-06
2.2605514e-06
1.8775e-06
1.5478412e-06
1.3269808e-06
1.2057762e-06
1.1435582e-06
1.0996116e-06
1.0483517e-06
9.8248686e-07
9.0715974e-07
8.3296768e-07
7.6983091e-07
7.2293512e-07
6.9335584e-07
6.777802e-07
6.7178531e-07
6.6992609e-07
6.6824633e-07
6.643268e-07
6.5587687e-07
6.4269526e-07
6.2756575e-07
6.1017074e-07
5.9327158e-07
5.7721785e-07
5.6417971e-07
5.5307811e-07
5.4484486e-07
5.3875787e-07
5.3443208e-07
5.3134546e-07
5.2859378e-07
5.2719382e-07
5.2686735e-07
5.271603e-07
5.280254e-07
5.305861e-07
5.3359614e-07
5.4057946e-07
5.5487883e-07
5.7546504e-07
5.9775559e-07
6.1804999e-07
6.3325867e-07
6.3982659e-07
6.5382647e-07
6.6002748e-07
6.7321038e-07
6.8350937e-07
7.0146317e-07
7.2208316e-07
7.4179075e-07
7.9319492e-07
3.2035649e-06
2.6371873e-06
2.2616069e-06
1.8814716e-06
1.552115e-06
1.329902e-06
1.2072628e-06
1.1443899e-06
1.1009383e-06
1.0508514e-06
9.8616627e-07
9.1141132e-07
8.3712636e-07
7.7317737e-07
7.252668e-07
6.945085e-07
6.7807834e-07
6.7154275e-07
6.6966441e-07
6.6833956e-07
6.6534447e-07
6.5818185e-07
6.4544032e-07
6.3045475e-07
6.1263816e-07
5.9580009e-07
5.7926271e-07
5.6636261e-07
5.5467887e-07
5.4668116e-07
5.3964898e-07
5.3589754e-07
5.3221427e-07
5.3025765e-07
5.2898809e-07
5.2902838e-07
5.2921227e-07
5.3000289e-07
5.3107509e-07
5.3362023e-07
5.3585674e-07
5.4137132e-07
5.4673756e-07
5.5871367e-07
5.7003072e-07
5.9620238e-07
6.1317882e-07
6.3960034e-07
6.518842e-07
6.6850385e-07
6.8029996e-07
6.9248627e-07
7.1147846e-07
7.235266e-07
7.5553202e-07
3.2035976e-06
2.6377314e-06
2.2647826e-06
1.8864595e-06
1.556826e-06
1.3330519e-06
1.2088096e-06
1.1452374e-06
1.1021787e-06
1.0531873e-06
9.897144e-07
9.1568572e-07
8.4127627e-07
7.7665364e-07
7.276534e-07
6.9575772e-07
6.7839796e-07
6.7131909e-07
6.6926602e-07
6.6807117e-07
6.6539447e-07
6.5886286e-07
6.4692109e-07
6.3255581e-07
6.156679e-07
5.9901869e-07
5.8244082e-07
5.6904893e-07
5.5697371e-07
5.4841467e-07
5.4076944e-07
5.361738e-07
5.3195141e-07
5.2964254e-07
5.2765368e-07
5.2760326e-07
5.2765735e-07
5.2867252e-07
5.296825e-07
5.3275492e-07
5.3463067e-07
5.3967384e-07
5.4260124e-07
5.4982034e-07
5.5449378e-07
5.6648014e-07
5.7513813e-07
5.9276788e-07
6.1487803e-07
6.3528087e-07
6.6144491e-07
6.7382311e-07
6.9578501e-07
7.0753386e-07
7.3506148e-07
3.2037042e-06
2.6384287e-06
2.2680519e-06
1.8915369e-06
1.5616236e-06
1.3363015e-06
1.2104302e-06
1.1461107e-06
1.1034155e-06
1.0554946e-06
9.9319623e-07
9.1987152e-07
8.4548575e-07
7.8015758e-07
7.3012223e-07
6.9701655e-07
6.7878991e-07
6.7112896e-07
6.6891804e-07
6.6790358e-07
6.6565915e-07
6.6009556e-07
6.4862423e-07
6.3478058e-07
6.1797306e-07
6.0150696e-07
5.8486725e-07
5.7116416e-07
5.5879873e-07
5.4999597e-07
5.4185567e-07
5.3720533e-07
5.3263557e-07
5.3028661e-07
5.2759241e-07
5.269368e-07
5.2663905e-07
5.2717816e-07
5.2780037e-07
5.3011087e-07
5.3181215e-07
5.3624333e-07
5.3891106e-07
5.447633e-07
5.5010792e-07
5.5598652e-07
5.6487261e-07
5.7178604e-07
5.8631938e-07
5.9656857e-07
6.1880401e-07
6.3131088e-07
6.5679772e-07
6.7060767e-07
7.0252104e-07
3.2040427e-06
2.6398387e-06
2.2717413e-06
1.8967775e-06
1.5664963e-06
1.3395843e-06
1.2120901e-06
1.1469647e-06
1.1045877e-06
1.0577463e-06
9.9662511e-07
9.2402528e-07
8.49701e-07
7.8371102e-07
7.3273005e-07
6.9843605e-07
6.7928004e-07
6.7096254e-07
6.6855277e-07
6.6765264e-07
6.6582461e-07
6.6098511e-07
6.5061846e-07
6.3720106e-07
6.2114575e-07
6.046018e-07
5.8801245e-07
5.7368366e-07
5.6107723e-07
5.5161745e-07
5.4331445e-07
5.3773911e-07
5.3276103e-07
5.3001237e-07
5.2729879e-07
5.2587547e-07
5.252884e-07
5.2548432e-07
5.2592045e-07
5.2693762e-07
5.2896127e-07
5.309859e-07
5.3508186e-07
5.3826389e-07
5.4475333e-07
5.4884871e-07
5.5735935e-07
5.6260771e-07
5.7380248e-07
5.8071525e-07
5.9540168e-07
6.0429161e-07
6.2334966e-07
6.3431103e-07
6.6263406e-07
3.2044273e-06
2.6410292e-06
2.2750636e-06
1.9017734e-06
1.5712713e-06
1.3428482e-06
1.213799e-06
1.1478575e-06
1.1057308e-06
1.0599059e-06
1.0000003e-06
9.2817895e-07
8.5395622e-07
7.8740766e-07
7.3542575e-07
7.0000856e-07
6.7986794e-07
6.7082028e-07
6.681203e-07
6.6730046e-07
6.6577992e-07
6.6169741e-07
6.5223863e-07
6.3912725e-07
6.2370219e-07
6.0710577e-07
5.9078796e-07
5.7598449e-07
5.6325704e-07
5.5316582e-07
5.4491198e-07
5.3869196e-07
5.3392493e-07
5.3044912e-07
5.2778436e-07
5.2570144e-07
5.2463271e-07
5.2457457e-07
5.2478558e-07
5.2533795e-07
5.2683047e-07
5.2832997e-07
5.3166919e-07
5.3410957e-07
5.3945372e-07
5.4295309e-07
5.5033271e-07
5.5482609e-07
5.6437679e-07
5.6987847e-07
5.8193706e-07
5.8888128e-07
6.0317312e-07
6.1178787e-07
6.3221594e-07
3.2047947e-06
2.6426349e-06
2.2788879e-06
1.9070433e-06
1.5761665e-06
1.3462099e-06
1.2155794e-06
1.1488319e-06
1.1068967e-06
1.0620092e-06
1.0032961e-06
9.3235386e-07
8.5827603e-07
7.9124307e-07
7.3824555e-07
7.016606e-07
6.8049184e-07
6.7072605e-07
6.6771124e-07
6.6700691e-07
6.6578089e-07
6.6248699e-07
6.5409189e-07
6.4138218e-07
6.2637901e-07
6.0983913e-07
5.9349993e-07
5.783458e-07
5.6527633e-07
5.5459484e-07
5.4619998e-07
5.3944015e-07
5.3438514e-07
5.3041972e-07
5.278103e-07
5.2551444e-07
5.23994e-07
5.2343157e-07
5.2351391e-07
5.2384773e-07
5.2479461e-07
5.2591523e-07
5.2844339e-07
5.3041282e-07
5.3473967e-07
5.3766693e-07
5.4394962e-07
5.4792284e-07
5.5622114e-07
5.612153e-07
5.7136231e-07
5.7716424e-07
5.8931086e-07
5.9620642e-07
6.1265513e-07
3.2052856e-06
2.644229e-06
2.2824913e-06
1.9121146e-06
1.5809482e-06
1.3495781e-06
1.217364e-06
1.1497863e-06
1.1080297e-06
1.0640978e-06
1.0065827e-06
9.3652799e-07
8.6267174e-07
7.9513351e-07
7.411231e-07
7.0335373e-07
6.8114968e-07
6.7066199e-07
6.6732673e-07
6.6663542e-07
6.6570885e-07
6.6298185e-07
6.5558904e-07
6.4324257e-07
6.2862695e-07
6.1237771e-07
5.960778e-07
5.807521e-07
5.674096e-07
5.5630312e-07
5.4767087e-07
5.4063484e-07
5.3525867e-07
5.3107977e-07
5.281065e-07
5.2574723e-07
5.2396774e-07
5.2279033e-07
5.2266587e-07
5.2279127e-07
5.2331453e-07
5.2416745e-07
5.261618e-07
5.2772803e-07
5.3117738e-07
5.3355044e-07
5.3872916e-07
5.420132e-07
5.489473e-07
5.5303349e-07
5.6182944e-07
5.6688824e-07
5.7744899e-07
5.8322741e-07
5.9703225e-07
3.2062331e-06
2.6467368e-06
2.2867994e-06
1.9177295e-06
1.586087e-06
1.3531371e-06
1.2193009e-06
1.150805e-06
1.1091674e-06
1.0661551e-06
1.0098536e-06
9.4067398e-07
8.6705524e-07
7.9906557e-07
7.4410171e-07
7.0522825e-07
6.8197288e-07
6.7069424e-07
6.6697932e-07
6.6625134e-07
6.6549618e-07
6.6330553e-07
6.5683076e-07
6.4507042e-07
6.3084758e-07
6.1489553e-07
5.9864737e-07
5.8319257e-07
5.6962802e-07
5.5804888e-07
5.4897425e-07
5.4161585e-07
5.3592951e-07
5.3140572e-07
5.2820997e-07
5.2567329e-07
5.2381966e-07
5.2226579e-07
5.2168784e-07
5.2169666e-07
5.2196447e-07
5.2253458e-07
5.2397868e-07
5.2526513e-07
5.2804226e-07
5.3000815e-07
5.3429784e-07
5.3701694e-07
5.429931e-07
5.4654189e-07
5.5409684e-07
5.5837545e-07
5.6714268e-07
5.7261206e-07
5.8387771e-07
3.2071039e-06
2.6491094e-06
2.2907077e-06
1.9228058e-06
1.5908193e-06
1.35647e-06
1.2211877e-06
1.151838e-06
1.1102824e-06
1.0681115e-06
1.013003e-06
9.447658e-07
8.7142762e-07
8.0310946e-07
7.4720239e-07
7.0726054e-07
6.8290429e-07
6.708269e-07
6.6661401e-07
6.6583512e-07
6.652089e-07
6.6342063e-07
6.5791596e-07
6.4673375e-07
6.3298676e-07
6.1741985e-07
6.0133214e-07
5.8578837e-07
5.7197644e-07
5.6001146e-07
5.5048112e-07
5.428631e-07
5.3696838e-07
5.320825e-07
5.286664e-07
5.2583166e-07
5.2398311e-07
5.2221571e-07
5.2114955e-07
5.2085267e-07
5.2096156e-07
5.2130579e-07
5.2231473e-07
5.2330114e-07
5.2555386e-07
5.2716718e-07
5.3061222e-07
5.3299501e-07
5.3783429e-07
5.4097414e-07
5.4728273e-07
5.5092282e-07
5.588907e-07
5.630417e-07
5.7321483e-07
3.2082929e-06
2.6522642e-06
2.2956483e-06
1.9288704e-06
1.5962313e-06
1.3602398e-06
1.2232834e-06
1.1530119e-06
1.1114687e-06
1.0700602e-06
1.0160715e-06
9.4880393e-07
8.7584358e-07
8.0724743e-07
7.5048531e-07
7.0943298e-07
6.8393352e-07
6.7101516e-07
6.663079e-07
6.6538597e-07
6.6494365e-07
6.6349866e-07
6.588845e-07
6.4839834e-07
6.3511708e-07
6.1991616e-07
6.0405365e-07
5.8843234e-07
5.7437437e-07
5.6209653e-07
5.5212678e-07
5.4411165e-07
5.3792303e-07
5.3273814e-07
5.2902025e-07
5.2594502e-07
5.2393476e-07
5.2211013e-07
5.2076728e-07
5.2002343e-07
5.2002636e-07
5.2022331e-07
5.2078975e-07
5.2157988e-07
5.2337378e-07
5.2471173e-07
5.2762352e-07
5.2948577e-07
5.3376129e-07
5.3624554e-07
5.41761e-07
5.4504233e-07
5.51566e-07
5.5534445e-07
5.6386478e-07
3.2096096e-06
2.6553292e-06
2.2997968e-06
1.9340211e-06
1.6009723e-06
1.3636338e-06
1.2251734e-06
1.1540321e-06
1.1125422e-06
1.0719468e-06
1.0191383e-06
9.5278897e-07
8.8027625e-07
8.113631e-07
7.5380421e-07
7.116342e-07
6.850134e-07
6.7120536e-07
6.6597775e-07
6.6488037e-07
6.6453429e-07
6.634585e-07
6.5961769e-07
6.5001558e-07
6.3720963e-07
6.2238061e-07
6.0672934e-07
5.9111261e-07
5.7687242e-07
5.642955e-07
5.5389694e-07
5.4547305e-07
5.3897694e-07
5.3359054e-07
5.2950908e-07
5.2631081e-07
5.240064e-07
5.2217348e-07
5.2067821e-07
5.1953767e-07
5.1926833e-07
5.1931534e-07
5.196526e-07
5.2024539e-07
5.2163843e-07
5.2269783e-07
5.250574e-07
5.2667338e-07
5.300917e-07
5.3235982e-07
5.3702422e-07
5.3979222e-07
5.4544467e-07
5.4906813e-07
5.5600099e-07
3.211036e-06
2.6590825e-06
2.3053483e-06
1.9405572e-06
1.6067214e-06
1.3676016e-06
1.2274472e-06
1.1552511e-06
1.1136789e-06
1.0738233e-06
1.0221931e-06
9.5681019e-07
8.8475518e-07
8.1561699e-07
7.5723898e-07
7.1399394e-07
6.8622245e-07
6.7152137e-07
6.6571265e-07
6.6443072e-07
6.641564e-07
6.6331344e-07
6.6018329e-07
6.5156462e-07
6.3922051e-07
6.2488387e-07
6.0950966e-07
5.9396102e-07
5.7949583e-07
5.6662783e-07
5.5582009e-07
5.469682e-07
5.4013989e-07
5.3451766e-07
5.3015091e-07
5.2668628e-07
5.2415556e-07
5.2211195e-07
5.2059101e-07
5.192259e-07
5.1854888e-07
5.1850551e-07
5.1865954e-07
5.1902802e-07
5.1998358e-07
5.2098156e-07
5.2281629e-07
5.2423293e-07
5.27093e-07
5.289653e-07
5.3292684e-07
5.3532132e-07
5.4056608e-07
5.4323157e-07
5.4970355e-07
3.2127814e-06
2.6629665e-06
2.3098537e-06
1.9458168e-06
1.6114887e-06
1.3709895e-06
1.2293879e-06
1.1563295e-06
1.11473e-06
1.0755843e-06
1.0251071e-06
9.6072696e-07
8.8912441e-07
8.1983606e-07
7.6067784e-07
7.1639384e-07
6.8748208e-07
6.7185929e-07
6.6546016e-07
6.6393826e-07
6.6373574e-07
6.6313948e-07
6.6063696e-07
6.5311163e-07
6.4125341e-07
6.2741882e-07
6.1232477e-07
5.9696738e-07
5.8230542e-07
5.6915652e-07
5.5796728e-07
5.4866757e-07
5.4145486e-07
5.3556727e-07
5.3095143e-07
5.2715203e-07
5.2444405e-07
5.2214051e-07
5.206166e-07
5.1912119e-07
5.1815223e-07
5.1779243e-07
5.1785605e-07
5.1806956e-07
5.1880192e-07
5.194273e-07
5.2106167e-07
5.2207907e-07
5.2459609e-07
5.2609756e-07
5.294982e-07
5.3158612e-07
5.3599374e-07
5.3879907e-07
5.440378e-07
3.2144272e-06
2.667327e-06
2.315872e-06
1.9526875e-06
1.6174904e-06
1.3752166e-06
1.2318343e-06
1.1577317e-06
1.1159709e-06
1.0774642e-06
1.0280841e-06
9.6470813e-07
8.9368516e-07
8.242592e-07
7.6435532e-07
7.1894192e-07
6.8886941e-07
6.7229128e-07
6.6526862e-07
6.6346757e-07
6.6332519e-07
6.6295049e-07
6.6109412e-07
6.5477499e-07
6.4343071e-07
6.3005489e-07
6.1522843e-07
6.0002121e-07
5.852665e-07
5.7185409e-07
5.6029461e-07
5.5056965e-07
5.4290521e-07
5.3669662e-07
5.318438e-07
5.2781377e-07
5.2485758e-07
5.2235728e-07
5.206294e-07
5.191329e-07
5.1796043e-07
5.1719051e-07
5.1714241e-07
5.1726376e-07
5.1758127e-07
5.181993e-07
5.1931462e-07
5.2037541e-07
5.2232749e-07
5.2362799e-07
5.2652363e-07
5.2828504e-07
5.3216766e-07
5.3486231e-07
5.3913805e-07
3.2162395e-06
2.6715347e-06
2.3206153e-06
1.9580078e-06
1.6222557e-06
1.3786165e-06
1.2338313e-06
1.1588586e-06
1.1170264e-06
1.0792148e-06
1.0309217e-06
9.6847302e-07
8.9800893e-07
8.2848562e-07
7.6794166e-07
7.2151094e-07
6.903207e-07
6.7280132e-07
6.6508838e-07
6.6299427e-07
6.6286893e-07
6.6268324e-07
6.6137192e-07
6.5629311e-07
6.4551107e-07
6.3259408e-07
6.1813462e-07
6.0304264e-07
5.8822915e-07
5.7459578e-07
5.6270391e-07
5.5261536e-07
5.4449837e-07
5.3795658e-07
5.3278889e-07
5.2856776e-07
5.2528617e-07
5.2267439e-07
5.207242e-07
5.1917481e-07
5.179065e-07
5.1689174e-07
5.1655137e-07
5.1655614e-07
5.1678997e-07
5.1716305e-07
5.180254e-07
5.1892348e-07
5.205196e-07
5.217255e-07
5.2388414e-07
5.2560125e-07
5.2889536e-07
5.3136647e-07
5.3541438e-07
3.2183131e-06
2.6770303e-06
2.3271686e-06
1.9651535e-06
1.6284434e-06
1.3829763e-06
1.2365469e-06
1.1604805e-06
1.1183737e-06
1.0811257e-06
1.0338759e-06
9.725586e-07
9.0271657e-07
8.3313283e-07
7.7181087e-07
7.2425983e-07
6.9192172e-07
6.7342227e-07
6.6501153e-07
6.6259726e-07
6.6248115e-07
6.6249971e-07
6.61702e-07
6.578734e-07
6.4793664e-07
6.352626e-07
6.2116425e-07
6.0629613e-07
5.9154009e-07
5.7765344e-07
5.6536194e-07
5.5487834e-07
5.4630668e-07
5.3939454e-07
5.3392879e-07
5.2951869e-07
5.2596959e-07
5.2310299e-07
5.2101467e-07
5.1927326e-07
5.1796525e-07
5.1679531e-07
5.161247e-07
5.1597265e-07
5.1608461e-07
5.1623407e-07
5.1693294e-07
5.1753476e-07
5.1899251e-07
5.1997594e-07
5.217275e-07
5.2335086e-07
5.2597705e-07
5.2856013e-07
5.3134804e-07
3.2198305e-06
2.6809815e-06
2.3318507e-06
1.9702889e-06
1.6330739e-06
1.3863161e-06
1.2385643e-06
1.1617794e-06
1.1195363e-06
1.0829022e-06
1.036564e-06
9.7624242e-07
9.0697613e-07
8.3743597e-07
7.7556736e-07
7.2704552e-07
6.9363921e-07
6.7415217e-07
6.6500028e-07
6.6221076e-07
6.6209582e-07
6.6220539e-07
6.6178422e-07
6.5893339e-07
6.5021693e-07
6.3775509e-07
6.2391403e-07
6.0916971e-07
5.9446569e-07
5.8047736e-07
5.6790581e-07
5.5709159e-07
5.4812708e-07
5.4077462e-07
5.3490944e-07
5.3024399e-07
5.2651651e-07
5.2343972e-07
5.2128943e-07
5.1940771e-07
5.180155e-07
5.1683251e-07
5.1600083e-07
5.155571e-07
5.1551644e-07
5.1570611e-07
5.16063e-07
5.1668078e-07
5.1782427e-07
5.1834629e-07
5.1988894e-07
5.2107538e-07
5.2355262e-07
5.2616095e-07
5.2864471e-07
3.2224811e-06
2.6885964e-06
2.3397214e-06
1.9780752e-06
1.639594e-06
1.391e-06
1.2415565e-06
1.1636102e-06
1.1210275e-06
1.0848959e-06
1.039503e-06
9.8033615e-07
9.1185529e-07
8.4225983e-07
7.7970917e-07
7.3005746e-07
6.9547707e-07
6.7499538e-07
6.6508903e-07
6.6191415e-07
6.6173279e-07
6.6195166e-07
6.6179788e-07
6.5978257e-07
6.5243348e-07
6.4021326e-07
6.2674022e-07
6.1233342e-07
5.9772419e-07
5.8362341e-07
5.7079249e-07
5.5963676e-07
5.5025758e-07
5.4251851e-07
5.3633439e-07
5.3143927e-07
5.2746467e-07
5.2410582e-07
5.2171235e-07
5.1978107e-07
5.1810772e-07
5.1690817e-07
5.1599476e-07
5.1524432e-07
5.1496674e-07
5.149848e-07
5.1518857e-07
5.1572851e-07
5.1649664e-07
5.1721578e-07
5.1837607e-07
5.1949005e-07
5.2162239e-07
5.2362297e-07
5.2592059e-07
3.2241283e-06
2.6931561e-06
2.3447395e-06
1.9831029e-06
1.6440062e-06
1.3942007e-06
1.2436484e-06
1.1650744e-06
1.1223656e-06
1.0867052e-06
1.0420958e-06
9.8376403e-07
9.1588377e-07
8.4646961e-07
7.8358874e-07
7.3312516e-07
6.9749052e-07
6.7600028e-07
6.6532533e-07
6.6171146e-07
6.6138646e-07
6.6163866e-07
6.6158321e-07
6.6001418e-07
6.535964e-07
6.4181906e-07
6.2888681e-07
6.1495298e-07
6.0081446e-07
5.871473e-07
5.7430831e-07
5.6311015e-07
5.5361487e-07
5.4538018e-07
5.3866916e-07
5.3352522e-07
5.2926545e-07
5.2564224e-07
5.2291329e-07
5.2075838e-07
5.1881135e-07
5.1745815e-07
5.1643416e-07
5.1545856e-07
5.148311e-07
5.1476316e-07
5.1496107e-07
5.1524158e-07
5.1563955e-07
5.161348e-07
5.1670515e-07
5.1768198e-07
5.1934838e-07
5.2170218e-07
5.2375718e-07
3.2279748e-06
2.7051058e-06
2.3558558e-06
1.9926843e-06
1.6514153e-06
1.3991296e-06
1.2465912e-06
1.1667736e-06
1.1241119e-06
1.0892034e-06
1.0455629e-06
9.882494e-07
9.2099453e-07
8.5150957e-07
7.8789431e-07
7.3636326e-07
6.9962882e-07
6.7722479e-07
6.6600776e-07
6.6215938e-07
6.6185687e-07
6.6219856e-07
6.6232837e-07
6.6120526e-07
6.5572624e-07
6.448943e-07
6.3327306e-07
6.2120769e-07
6.0882265e-07
5.9657096e-07
5.8497805e-07
5.7469367e-07
5.6526587e-07
5.5717356e-07
5.5054301e-07
5.4480637e-07
5.3973014e-07
5.3560085e-07
5.3227527e-07
5.2914298e-07
5.2613412e-07
5.2395845e-07
5.2250566e-07
5.2072454e-07
5.190716e-07
5.1817221e-07
5.1780808e-07
5.1776592e-07
5.1796485e-07
5.1800708e-07
5.1836847e-07
5.1905751e-07
5.1982917e-07
5.2145304e-07
5.2271287e-07
3.2299856e-06
2.7123025e-06
2.3622809e-06
1.9978797e-06
1.6567817e-06
1.4016642e-06
1.2471021e-06
1.1663649e-06
1.1268185e-06
1.0967786e-06
1.055259e-06
9.9794252e-07
9.2954415e-07
8.587392e-07
7.9382152e-07
7.4156897e-07
7.0489258e-07
6.8289374e-07
6.7327487e-07
6.71783e-07
6.7263366e-07
6.753692e-07
6.7738404e-07
6.7761975e-07
6.7550388e-07
6.6745431e-07
6.586772e-07
6.4995109e-07
6.4367165e-07
6.3638147e-07
6.3035263e-07
6.2637283e-07
6.1982101e-07
6.1404022e-07
6.1048917e-07
6.0538709e-07
5.991374e-07
5.9491674e-07
5.9105389e-07
5.8489437e-07
5.7812274e-07
5.7344346e-07
5.7006422e-07
5.6516131e-07
5.5953438e-07
5.5554066e-07
5.531665e-07
5.5132841e-07
5.4868443e-07
5.455315e-07
5.4293881e-07
5.4148785e-07
5.4106895e-07
5.4122634e-07
5.390148e-07
3.2385738e-06
2.7543033e-06
2.3974397e-06
2.0337129e-06
1.6875461e-06
1.4150289e-06
1.2554669e-06
1.1737984e-06
1.1611617e-06
1.156834e-06
1.1389749e-06
1.0864995e-06
9.9910841e-07
9.1531347e-07
8.4204637e-07
7.8740311e-07
7.594498e-07
7.5316034e-07
7.5520259e-07
7.658091e-07
7.9146094e-07
8.1376927e-07
8.2816713e-07
8.3544609e-07
8.3757428e-07
8.3719051e-07
8.3649731e-07
8.3661996e-07
8.3878369e-07
8.4507383e-07
8.6203367e-07
8.8470142e-07
8.9515455e-07
9.1021606e-07
9.2476848e-07
9.2983828e-07
9.3172058e-07
9.3189508e-07
9.3039785e-07
9.2536089e-07
9.1165693e-07
8.991719e-07
8.9103318e-07
8.7555762e-07
8.5466141e-07
8.373497e-07
8.2647636e-07
8.2103065e-07
8.15724e-07
8.046833e-07
7.8285265e-07
7.6504629e-07
7.5117504e-07
7.4732927e-07
7.2531026e-07
3.346587e-06
3.0791401e-06
2.6870312e-06
2.450063e-06
2.0401678e-06
1.6513063e-06
1.508448e-06
1.5011768e-06
1.6366656e-06
1.8220949e-06
1.8312196e-06
1.8061105e-06
1.6620253e-06
1.4831814e-06
1.3896118e-06
1.3609655e-06
1.365032e-06
1.3911547e-06
1.4758004e-06
1.6321509e-06
1.7679714e-06
1.867509e-06
1.929532e-06
1.9656928e-06
1.9835946e-06
1.9906551e-06
1.993634e-06
1.9971499e-06
2.0123582e-06
2.047486e-06
2.1248936e-06
2.2718999e-06
2.3462735e-06
2.4384262e-06
2.5600935e-06
2.6351557e-06
2.6913171e-06
2.756891e-06
2.7983345e-06
2.8066128e-06
2.8044058e-06
2.7946624e-06
2.7842742e-06
2.7635778e-06
2.7091605e-06
2.6470637e-06
2.6188674e-06
2.6161649e-06
2.6162713e-06
2.6069546e-06
2.5664004e-06
2.4655617e-06
2.372018e-06
2.3450479e-06
2.2448397e-06
3.5075245e-06
4.2564039e-06
4.7906594e-06
6.2379227e-06
6.1553043e-06
5.4738037e-06
5.4359148e-06
5.4892785e-06
6.802175e-06
7.434307e-06
7.4160259e-06
7.2490611e-06
6.5746546e-06
6.3178654e-06
6.2365808e-06
6.2501996e-06
6.3330884e-06
6.5568703e-06
6.9668102e-06
7.3803625e-06
7.7371895e-06
8.012981e-06
8.207018e-06
8.361824e-06
8.474128e-06
8.546684e-06
8.5952065e-06
8.634068e-06
8.7155774e-06
8.8155332e-06
8.989337e-06
9.3743057e-06
9.6098551e-06
9.8961834e-06
1.0336148e-05
1.0644387e-05
1.0881444e-05
1.1127583e-05
1.1406769e-05
1.1537448e-05
1.1628256e-05
1.1784294e-05
1.1819693e-05
1.1789438e-05
1.172644e-05
1.1679681e-05
1.1679711e-05
1.1866704e-05
1.2122873e-05
1.2088749e-05
1.1952002e-05
1.1585112e-05
1.120852e-05
1.1233603e-05
1.1069648e-05
5.3481843e-06
1.7276288e-05
2.3048076e-05
2.7867629e-05
3.4641219e-05
3.3687137e-05
3.1621088e-05
3.1611746e-05
3.1249739e-05
3.4375553e-05
3.5338469e-05
3.6605477e-05
3.6962426e-05
3.5517744e-05
3.4188237e-05
3.2231379e-05
3.0821158e-05
3.0044032e-05
2.99709e-05
3.0191735e-05
3.0662318e-05
3.1365482e-05
3.2265245e-05
3.3316645e-05
3.4465535e-05
3.565788e-05
3.684126e-05
3.7974202e-05
3.9026632e-05
3.9990499e-05
4.0867098e-05
4.1671599e-05
4.2417513e-05
4.312397e-05
4.3796427e-05
4.4449971e-05
4.5087526e-05
4.5706481e-05
4.6311945e-05
4.6896056e-05
4.7454381e-05
4.7978857e-05
4.847866e-05
4.8936698e-05
4.929958e-05
4.9565467e-05
4.9720659e-05
4.9949718e-05
5.0254794e-05
5.0689576e-05
5.0538998e-05
5.0647606e-05
5.0553971e-05
4.9947573e-05
4.9878187e-05
4.9973303e-05
1.1563635e-05
2.3896922e-06
7.6247578e-07
5.461333e-07
5.2535715e-07
5.2592788e-07
5.2789229e-07
5.3128888e-07
5.3405425e-07
5.3787817e-07
5.4201908e-07
5.4701818e-07
5.5263538e-07
5.5971167e-07
5.6775909e-07
5.7728674e-07
5.8884012e-07
6.0217337e-07
6.1819222e-07
6.389908e-07
6.6749999e-07
7.0766995e-07
7.4348453e-07
7.6559024e-07
8.063102e-07
8.6009257e-07
4.969724e-05
1.4015695e-05
3.0272357e-06
8.8616468e-07
5.6825661e-07
5.3122842e-07
5.3019319e-07
5.3219092e-07
5.3576726e-07
5.3887064e-07
5.4304281e-07
5.4717235e-07
5.5249106e-07
5.5804861e-07
5.6469039e-07
5.7293529e-07
5.8279758e-07
5.9422096e-07
6.0766542e-07
6.2309742e-07
6.4203257e-07
6.6949024e-07
7.0935717e-07
7.467936e-07
7.7032346e-07
8.1012826e-07
8.6376082e-07
5.0072291e-05
1.6056909e-05
3.4981998e-06
9.7873722e-07
5.8314461e-07
5.3582482e-07
5.3333354e-07
5.3530995e-07
5.3896452e-07
5.4238663e-07
5.4646889e-07
5.51141e-07
5.5688864e-07
5.636699e-07
5.7136864e-07
5.7948919e-07
5.8930495e-07
6.0083451e-07
6.1461484e-07
6.3068138e-07
6.497266e-07
6.7504634e-07
7.1483139e-07
7.5548938e-07
7.791319e-07
8.1846598e-07
8.7262759e-07
5.1840522e-05
1.5406133e-05
3.5411927e-06
1.0026025e-06
5.9106629e-07
5.3913277e-07
5.3608994e-07
5.3823122e-07
5.4211214e-07
5.4587533e-07
5.5025671e-07
5.5502802e-07
5.6095558e-07
5.678682e-07
5.7638553e-07
5.8561559e-07
5.9542661e-07
6.0720048e-07
6.2090473e-07
6.3674281e-07
6.5523878e-07
6.7912464e-07
7.1795418e-07
7.6204005e-07
7.8827969e-07
8.2593543e-07
8.8077559e-07
5.0706219e-05
1.4316853e-05
3.5739573e-06
1.0393106e-06
6.0569402e-07
5.4542183e-07
5.4179272e-07
5.4446512e-07
5.4914752e-07
5.5312256e-07
5.5788245e-07
5.6272675e-07
5.6857486e-07
5.747849e-07
5.8233305e-07
5.9183887e-07
6.0272904e-07
6.1479658e-07
6.2907158e-07
6.4526385e-07
6.6371345e-07
6.8555688e-07
7.2232472e-07
7.6765325e-07
7.9588043e-07
8.3125541e-07
8.8668621e-07
4.8348318e-05
1.5445565e-05
3.9563245e-06
1.1790175e-06
6.5058958e-07
5.6183112e-07
5.5400764e-07
5.5484331e-07
5.5830222e-07
5.6236815e-07
5.6700776e-07
5.7213714e-07
5.7797716e-07
5.842953e-07
5.9138605e-07
5.9943826e-07
6.0976013e-07
6.2184542e-07
6.3588788e-07
6.5271601e-07
6.7188395e-07
6.9374436e-07
7.2927162e-07
7.7792109e-07
8.0868623e-07
8.4422008e-07
9.0116403e-07
4.7884836e-05
1.9206515e-05
5.2197877e-06
1.5255899e-06
7.2082476e-07
5.8091097e-07
5.6258323e-07
5.6153179e-07
5.6394971e-07
5.681579e-07
5.7275043e-07
5.7816896e-07
5.8432001e-07
5.9126629e-07
5.9941209e-07
6.0854386e-07
6.1926795e-07
6.3188261e-07
6.4620145e-07
6.6271892e-07
6.8079235e-07
6.9991282e-07
7.3256845e-07
7.823653e-07
8.1470582e-07
8.5018514e-07
9.111996e-07
4.9997282e-05
1.9968661e-05
5.5047704e-06
1.6040983e-06
7.3634633e-07
5.8782127e-07
5.6515294e-07
5.6443442e-07
5.6672794e-07
5.7117355e-07
5.7620723e-07
5.8163925e-07
5.8810074e-07
5.9544724e-07
6.039114e-07
6.1389468e-07
6.2489475e-07
6.3816516e-07
6.5379326e-07
6.7165283e-07
6.9164164e-07
7.1154752e-07
7.4037177e-07
7.9142019e-07
8.2548697e-07
8.6068093e-07
9.2181882e-07
5.3038149e-05
1.7149478e-05
5.1220752e-06
1.5378165e-06
7.3818349e-07
5.9078956e-07
5.6847863e-07
5.6841247e-07
5.7140196e-07
5.7660115e-07
5.820576e-07
5.8794358e-07
5.9470431e-07
6.0266751e-07
6.1172596e-07
6.221709e-07
6.3363019e-07
6.4607803e-07
6.6037499e-07
6.7739752e-07
6.9745872e-07
7.1772082e-07
7.4460217e-07
7.9615759e-07
8.3489985e-07
8.6824228e-07
9.3474952e-07
4.7560293e-05
1.5913991e-05
4.9548241e-06
1.5369353e-06
7.5000627e-07
5.97459e-07
5.7772292e-07
5.7870541e-07
5.8359418e-07
5.9027011e-07
5.9599404e-07
6.0230318e-07
6.0882941e-07
6.1657896e-07
6.2501861e-07
6.3502787e-07
6.4652919e-07
6.5924001e-07
6.7430268e-07
6.9065024e-07
7.1048313e-07
7.3033702e-07
7.5436037e-07
8.040426e-07
8.442847e-07
8.7509463e-07
9.4138772e-07
4.2879443e-05
1.7627255e-05
5.4117922e-06
1.6893123e-06
8.0737395e-07
6.184937e-07
5.9834287e-07
5.9508151e-07
5.9933296e-07
6.0465464e-07
6.1015017e-07
6.1634488e-07
6.2307089e-07
6.3092115e-07
6.3913678e-07
6.4789458e-07
6.5837657e-07
6.7042798e-07
6.8411958e-07
7.0049623e-07
7.1981014e-07
7.4031295e-07
7.6273792e-07
8.1082572e-07
8.5552427e-07
8.8520632e-07
9.5052646e-07
4.3845672e-05
1.9044459e-05
5.8569925e-06
1.8785024e-06
8.4982592e-07
6.4015995e-07
6.065881e-07
6.0271555e-07
6.0570854e-07
6.1058221e-07
6.1653548e-07
6.2331226e-07
6.3081567e-07
6.3933728e-07
6.4897326e-07
6.5957172e-07
6.7134522e-07
6.8459445e-07
6.9895609e-07
7.1569125e-07
7.3510705e-07
7.5520739e-07
7.747928e-07
8.1724649e-07
8.6415247e-07
8.9247856e-07
9.5548227e-07
4.8378615e-05
1.6945873e-05
5.5852886e-06
1.8205808e-06
8.5159415e-07
6.4591969e-07
6.0942061e-07
6.0685402e-07
6.0936237e-07
6.1482399e-07
6.2105124e-07
6.2811361e-07
6.3606446e-07
6.4476326e-07
6.5481892e-07
6.6599714e-07
6.783591e-07
6.9230599e-07
7.0762049e-07
7.2567788e-07
7.4703811e-07
7.7117164e-07
7.9053172e-07
8.3065913e-07
8.7937191e-07
9.0655602e-07
9.6489106e-07
4.2112314e-05
1.433192e-05
5.1436475e-06
1.7668197e-06
8.6014586e-07
6.5343868e-07
6.1576792e-07
6.1486278e-07
6.1735528e-07
6.2348469e-07
6.3004047e-07
6.3729294e-07
6.4568163e-07
6.5532884e-07
6.6577128e-07
6.7785703e-07
6.9006808e-07
7.0413069e-07
7.1949888e-07
7.3647793e-07
7.5650408e-07
7.8105632e-07
8.000712e-07
8.3845357e-07
8.8984143e-07
9.1668225e-07
9.7140304e-07
3.3805592e-05
1.4815887e-05
5.3422e-06
1.8747748e-06
9.1546352e-07
6.7319102e-07
6.3441356e-07
6.3478865e-07
6.3972672e-07
6.4617719e-07
6.5184494e-07
6.5848399e-07
6.6540206e-07
6.7328342e-07
6.8207432e-07
6.923751e-07
7.0421446e-07
7.174633e-07
7.3367472e-07
7.5141468e-07
7.7191527e-07
7.9771997e-07
8.1604969e-07
8.5104242e-07
9.0305548e-07
9.2947519e-07
9.8183568e-07
3.0765488e-05
1.6275917e-05
6.2165261e-06
2.2840368e-06
1.0454452e-06
7.1892202e-07
6.5969367e-07
6.5605813e-07
6.6252912e-07
6.6577292e-07
6.7210443e-07
6.772346e-07
6.8357236e-07
6.9105092e-07
6.9921337e-07
7.0863094e-07
7.1958241e-07
7.3150746e-07
7.4539659e-07
7.6208209e-07
7.8183578e-07
8.0787889e-07
8.2755699e-07
8.6018839e-07
9.1579851e-07
9.4349929e-07
9.9467134e-07
3.5291821e-05
1.6348167e-05
6.3650893e-06
2.3958486e-06
1.0586529e-06
7.3553194e-07
6.6707376e-07
6.6565097e-07
6.6841974e-07
6.7222044e-07
6.797357e-07
6.856886e-07
6.9356183e-07
7.0179296e-07
7.1094358e-07
7.2093652e-07
7.3331418e-07
7.4738333e-07
7.6200376e-07
7.7899461e-07
7.969606e-07
8.2146401e-07
8.3995656e-07
8.6704983e-07
9.235159e-07
9.5283871e-07
1.0017734e-06
3.9133036e-05
1.3556235e-05
5.817989e-06
2.2011599e-06
1.0222286e-06
7.3283671e-07
6.6880271e-07
6.6842585e-07
6.7060747e-07
6.7622871e-07
6.8394028e-07
6.9099997e-07
6.9954345e-07
7.0822788e-07
7.1875898e-07
7.3076037e-07
7.4363177e-07
7.5838115e-07
7.7389258e-07
7.927606e-07
8.1086303e-07
8.360867e-07
8.55127e-07
8.7819011e-07
9.3134398e-07
9.6401589e-07
1.0116106e-06
3.0062475e-05
1.1359161e-05
4.9398453e-06
1.9848312e-06
1.0098218e-06
7.3358679e-07
6.7293884e-07
6.7221982e-07
6.7639352e-07
6.8446576e-07
6.9240577e-07
7.0064032e-07
7.0922121e-07
7.191282e-07
7.3055384e-07
7.4270992e-07
7.560591e-07
7.7147236e-07
7.8765715e-07
8.0663555e-07
8.2495352e-07
8.5040353e-07
8.7023145e-07
8.9037622e-07
9.3812768e-07
9.7329163e-07
1.0194476e-06
2.0072421e-05
1.1363609e-05
4.931032e-06
2.0278326e-06
1.037937e-06
7.4417537e-07
6.8437866e-07
6.8103427e-07
6.9164228e-07
7.0575393e-07
7.1522853e-07
7.2404456e-07
7.3223034e-07
7.4191945e-07
7.5110239e-07
7.6196817e-07
7.7320946e-07
7.8699523e-07
8.0187125e-07
8.2031594e-07
8.3900568e-07
8.6523709e-07
8.8774009e-07
9.0627387e-07
9.5043611e-07
9.8506083e-07
1.0286539e-06
1.5415891e-05
1.0797805e-05
5.1509288e-06
2.2682526e-06
1.1583886e-06
7.8717707e-07
7.1266256e-07
7.0233198e-07
7.1769884e-07
7.3446524e-07
7.4536669e-07
7.5046141e-07
7.5717173e-07
7.6445787e-07
7.7292844e-07
7.8302631e-07
7.943548e-07
8.0765743e-07
8.2183219e-07
8.3847418e-07
8.5517834e-07
8.7969334e-07
9.0348496e-07
9.2178883e-07
9.6328196e-07
9.9949835e-07
1.0435164e-06
1.4014644e-05
1.0425695e-05
5.5996589e-06
2.6117324e-06
1.268172e-06
8.3408302e-07
7.3098956e-07
7.1888345e-07
7.3282393e-07
7.4770551e-07
7.573576e-07
7.6179725e-07
7.691447e-07
7.7648877e-07
7.8562882e-07
7.9569663e-07
8.0727406e-07
8.2080412e-07
8.3507876e-07
8.525611e-07
8.6900308e-07
8.919549e-07
9.1593207e-07
9.3349369e-07
9.7175711e-07
1.0090855e-06
1.0540493e-06
2.7606231e-05
9.1676183e-06
5.3921235e-06
2.5586226e-06
1.2429697e-06
8.3356207e-07
7.3058908e-07
7.2301604e-07
7.3549829e-07
7.4953573e-07
7.5893419e-07
7.6484883e-07
7.73258e-07
7.8179375e-07
7.9201903e-07
8.0232209e-07