/*--------------------------------*- C++ -*----------------------------------*\
| =========                 |                                                 |
| \\      /  F ield         | OpenFOAM: The Open Source CFD Toolbox           |
|  \\    /   O peration     | Version:  2406                                  |
|   \\  /    A nd           | Website:  www.openfoam.com                      |
|    \\/     M anipulation  |                                                 |
\*---------------------------------------------------------------------------*/
FoamFile
{
    version     2.0;
    format      ascii;
    arch        "LSB;label=32;scalar=64";
    class       volScalarField;
    location    "15";
    object      omega_0;
}
// * * * * * * * * * * * * * * * * * * * * * * * * * * * * * * * * * * * * * //

dimensions      [0 0 -1 0 0 0 0];

internalField   nonuniform List<scalar> 
19701
(
1.4960337
4.191764
4.1966423
4.196949
4.1969737
4.1972277
4.1972885
4.197455
4.1975358
4.1976421
4.1977224
4.1977983
4.1978674
4.19793
4.1979892
4.1980442
4.1980965
4.1981468
4.1981948
4.1982404
4.1982841
4.1983255
4.198365
4.1984026
4.1984383
4.1984722
4.1985046
4.1985356
4.198566
4.1985959
4.1986252
4.1986537
4.1986814
4.1987086
4.1987353
4.1987604
4.198784
4.198806
4.198826
4.1988448
4.1988618
4.1988768
4.19889
4.1989024
4.1989131
4.1989235
4.1989342
4.1989445
4.1989543
4.1989634
4.1989722
4.1989812
4.1989911
4.1990015
4.1990122
4.1990247
4.1990384
4.1990523
4.1990653
4.1990776
4.1990886
4.1990978
4.1991049
4.1991098
4.1991127
4.1991133
4.1991119
4.1991104
4.1991103
4.1991113
4.1991138
4.1991179
4.1991234
4.1991304
4.1991387
4.1991475
4.1991561
4.1991635
4.1991696
4.199173
4.1991741
4.1991711
4.1991657
4.1991567
4.1991498
4.1991417
4.1991422
4.1991438
4.1991599
4.1991699
4.1991975
4.1992028
4.1992324
4.1992171
4.1992542
4.1992174
4.1993206
4.1992848
4.1981323
1.7345808
3.3700827
3.3930396
3.3933713
3.3934805
3.3937566
3.3938613
3.3940996
3.3942249
3.3944019
3.3945364
3.3946714
3.3947932
3.3949073
3.3950142
3.3951122
3.3952067
3.3952954
3.3953807
3.395461
3.3955382
3.3956112
3.3956817
3.3957479
3.395812
3.3958718
3.3959294
3.3959843
3.3960379
3.3960909
3.3961418
3.3961913
3.3962395
3.3962862
3.3963333
3.3963779
3.396419
3.3964571
3.3964918
3.3965242
3.3965549
3.3965831
3.3966094
3.3966331
3.3966539
3.3966749
3.3966952
3.3967139
3.3967306
3.3967476
3.3967644
3.396781
3.3967974
3.3968134
3.3968292
3.3968467
3.396865
3.3968841
3.3969022
3.3969199
3.3969364
3.3969515
3.3969642
3.3969743
3.3969822
3.3969873
3.3969897
3.3969919
3.3969949
3.3969981
3.3970014
3.3970051
3.3970096
3.3970157
3.3970227
3.3970301
3.3970381
3.3970458
3.3970539
3.39706
3.3970653
3.3970656
3.3970651
3.3970598
3.3970595
3.3970539
3.397061
3.3970631
3.3970871
3.3970942
3.397134
3.3971325
3.3971859
3.3971603
3.3972406
3.3971673
3.3973486
3.3970219
3.4001008
2.1183996
2.812501
2.8424616
2.8428645
2.8429412
2.8432201
2.84329
2.8435485
2.8436546
2.8438456
2.8439782
2.8441206
2.8442497
2.8443731
2.8444894
2.8445961
2.8447009
2.8447987
2.8448928
2.8449824
2.8450681
2.8451494
2.8452283
2.8453019
2.8453736
2.84544
2.8455043
2.8455653
2.8456258
2.8456855
2.8457424
2.845798
2.8458521
2.8459044
2.8459567
2.8460044
2.8460477
2.8460875
2.846125
2.8461605
2.8461944
2.8462256
2.8462563
2.8462858
2.8463143
2.8463413
2.8463665
2.8463884
2.8464069
2.8464277
2.8464481
2.8464663
2.8464838
2.8465008
2.8465188
2.8465374
2.8465555
2.8465743
2.8465917
2.8466087
2.8466247
2.8466395
2.8466524
2.8466627
2.846671
2.8466768
2.8466809
2.846685
2.8466892
2.8466934
2.8466976
2.8467018
2.8467061
2.8467113
2.8467173
2.8467236
2.8467306
2.846737
2.846744
2.8467493
2.8467552
2.8467562
2.8467581
2.846755
2.8467594
2.8467573
2.8467715
2.8467756
2.8468031
2.8468058
2.8468477
2.8468393
2.8469029
2.8468739
2.8469793
2.846897
2.8470942
2.8467106
2.8464035
2.541614
2.4204274
2.4431547
2.4437977
2.4438356
2.4440907
2.4441312
2.4443655
2.4444534
2.4446255
2.4447451
2.4448721
2.4449898
2.4451034
2.4452098
2.445309
2.4454077
2.4455
2.4455896
2.4456766
2.4457588
2.4458386
2.4459149
2.4459871
2.4460565
2.4461216
2.4461845
2.4462444
2.446303
2.4463614
2.4464171
2.4464718
2.446524
2.4465747
2.446624
2.4466695
2.4467108
2.4467494
2.4467886
2.4468239
2.4468564
2.4468864
2.4469154
2.4469456
2.4469774
2.4470021
2.4470277
2.447051
2.4470706
2.4470923
2.4471128
2.447129
2.4471443
2.4471595
2.447176
2.4471937
2.4472109
2.4472281
2.4472435
2.4472588
2.4472737
2.4472876
2.4472998
2.4473099
2.4473179
2.4473238
2.4473285
2.4473329
2.4473369
2.4473406
2.4473443
2.447348
2.4473521
2.4473572
2.4473628
2.4473685
2.4473748
2.4473803
2.4473867
2.4473915
2.447398
2.4473999
2.4474034
2.4474019
2.4474099
2.44741
2.4474266
2.4474297
2.4474561
2.4474549
2.4474947
2.4474814
2.4475473
2.4475164
2.4476273
2.4475469
2.4477455
2.4474414
2.4549037
2.8805351
2.1381707
2.1411534
2.1417388
2.141758
2.1420001
2.1420283
2.142233
2.1423069
2.1424516
2.1425533
2.1426624
2.1427641
2.1428628
2.1429542
2.1430419
2.1431282
2.1432099
2.1432899
2.1433684
2.1434428
2.1435156
2.1435848
2.143651
2.1437144
2.1437742
2.1438322
2.1438872
2.1439409
2.1439941
2.1440445
2.1440938
2.1441391
2.1441834
2.1442275
2.1442689
2.1443068
2.1443434
2.1443835
2.1444171
2.1444476
2.1444766
2.144504
2.144533
2.144563
2.1445832
2.1446065
2.1446287
2.1446487
2.1446693
2.1446879
2.1447019
2.144715
2.144728
2.1447421
2.1447572
2.1447721
2.1447867
2.1448002
2.1448137
2.144827
2.1448397
2.1448512
2.144861
2.144869
2.1448752
2.1448798
2.1448836
2.144887
2.1448901
2.1448933
2.1448965
2.1449002
2.1449049
2.1449101
2.1449153
2.1449211
2.1449257
2.1449311
2.1449353
2.1449415
2.1449443
2.1449498
2.1449513
2.1449617
2.144963
2.1449794
2.1449814
2.1450055
2.1450015
2.1450375
2.1450215
2.1450848
2.1450521
2.1451561
2.145082
2.1452657
2.1450571
2.1467615
3.1419597
1.9278368
1.9048359
1.9052352
1.9052744
1.9054875
1.9055227
1.9057009
1.9057717
1.9058972
1.905984
1.9060773
1.9061649
1.906249
1.9063269
1.9064038
1.9064783
1.9065501
1.9066198
1.9066889
1.9067536
1.9068176
1.9068777
1.906936
1.9069916
1.9070442
1.9070952
1.9071435
1.9071909
1.9072371
1.9072805
1.9073232
1.9073619
1.9074009
1.9074397
1.907476
1.9075104
1.9075447
1.9075817
1.9076122
1.9076404
1.9076677
1.9076949
1.9077222
1.9077492
1.9077669
1.9077871
1.9078064
1.9078242
1.9078417
1.9078577
1.9078698
1.9078813
1.9078926
1.9079042
1.9079163
1.9079286
1.9079407
1.9079525
1.9079644
1.9079761
1.9079872
1.9079977
1.9080068
1.9080145
1.9080205
1.9080249
1.9080283
1.908031
1.9080334
1.9080359
1.9080388
1.9080422
1.9080463
1.9080509
1.9080554
1.9080603
1.908064
1.9080684
1.9080716
1.9080771
1.9080804
1.9080874
1.9080913
1.9081029
1.9081052
1.9081209
1.9081223
1.9081441
1.9081386
1.9081712
1.9081541
1.9082117
1.9081766
1.9082697
1.9082014
1.9083634
1.9081848
1.9153723
3.3629306
1.7782321
1.7154006
1.7154752
1.7155222
1.7156993
1.7157363
1.7158884
1.7159561
1.7160651
1.7161432
1.7162253
1.7163036
1.7163765
1.7164447
1.7165129
1.7165774
1.7166407
1.7167005
1.7167601
1.7168152
1.7168702
1.7169216
1.7169719
1.7170197
1.7170651
1.7171087
1.7171502
1.7171906
1.7172299
1.7172671
1.717304
1.7173381
1.7173732
1.7174064
1.7174381
1.7174688
1.7175002
1.7175321
1.7175593
1.7175848
1.7176096
1.7176352
1.7176606
1.7176857
1.7177008
1.7177176
1.7177338
1.717749
1.7177636
1.717777
1.7177873
1.7177971
1.7178067
1.7178164
1.7178262
1.7178363
1.7178462
1.7178564
1.7178669
1.7178771
1.7178868
1.717896
1.7179041
1.717911
1.7179163
1.7179201
1.7179232
1.7179253
1.717927
1.7179289
1.7179312
1.7179342
1.7179378
1.7179416
1.7179451
1.7179486
1.717951
1.7179542
1.7179565
1.7179614
1.7179652
1.717973
1.7179779
1.7179898
1.7179927
1.7180075
1.7180076
1.7180271
1.718021
1.7180518
1.718034
1.7180852
1.7180474
1.7181291
1.7180684
1.7182142
1.7181123
1.7223788
3.5472255
1.6803421
1.5608702
1.5603312
1.5603707
1.5605149
1.5605434
1.5606703
1.5607274
1.5608183
1.5608855
1.5609583
1.5610279
1.5610927
1.561153
1.561214
1.5612692
1.5613241
1.5613745
1.5614249
1.5614718
1.5615181
1.561562
1.5616053
1.5616458
1.5616849
1.5617222
1.5617577
1.5617922
1.5618256
1.5618581
1.5618904
1.5619209
1.5619521
1.5619801
1.5620076
1.5620346
1.5620622
1.5620895
1.5621138
1.5621365
1.5621588
1.562181
1.5622046
1.5622285
1.5622415
1.5622553
1.5622688
1.5622815
1.5622939
1.5623055
1.5623144
1.5623226
1.5623307
1.5623388
1.562347
1.5623555
1.5623636
1.5623724
1.5623815
1.5623904
1.5623989
1.5624068
1.5624137
1.5624195
1.5624239
1.5624271
1.5624296
1.5624314
1.5624327
1.5624341
1.562436
1.5624384
1.562441
1.5624438
1.5624463
1.5624485
1.5624493
1.5624511
1.5624526
1.5624572
1.5624613
1.5624696
1.5624746
1.562486
1.5624882
1.5625016
1.5625002
1.5625176
1.5625111
1.5625405
1.5625229
1.5625694
1.5625317
1.5626043
1.5625517
1.5626841
1.5625896
1.5670486
3.6843947
1.626163
1.4331597
1.4309044
1.43091
1.4310335
1.4310447
1.4311473
1.4311876
1.4312607
1.4313127
1.431373
1.4314309
1.4314862
1.4315373
1.4315902
1.4316358
1.4316821
1.431724
1.4317664
1.4318061
1.431845
1.4318823
1.4319189
1.4319533
1.4319869
1.4320191
1.4320497
1.4320798
1.4321087
1.4321374
1.4321658
1.4321929
1.4322197
1.4322436
1.4322674
1.4322908
1.4323145
1.4323379
1.4323591
1.4323793
1.432399
1.4324177
1.432439
1.4324616
1.4324739
1.4324859
1.4324976
1.4325082
1.4325188
1.4325286
1.4325363
1.4325434
1.4325504
1.4325573
1.4325644
1.4325717
1.4325788
1.4325864
1.4325944
1.4326021
1.4326095
1.4326162
1.4326219
1.4326269
1.4326305
1.4326331
1.4326352
1.4326367
1.4326379
1.4326393
1.4326409
1.4326426
1.4326442
1.4326457
1.4326469
1.4326478
1.4326475
1.4326482
1.4326492
1.4326537
1.4326578
1.4326659
1.4326706
1.4326809
1.4326818
1.4326932
1.4326904
1.4327056
1.4326987
1.4327265
1.4327104
1.4327539
1.4327192
1.4327875
1.4327429
1.432862
1.4327964
1.4425401
3.7752717
1.5906654
1.3252437
1.3205904
1.320529
1.3206339
1.3206251
1.3207078
1.3207357
1.320791
1.3208306
1.3208762
1.3209224
1.3209658
1.3210061
1.3210491
1.3210855
1.3211233
1.321158
1.3211935
1.3212271
1.3212597
1.3212912
1.3213216
1.3213509
1.3213793
1.321407
1.3214328
1.3214589
1.321484
1.321509
1.3215334
1.3215566
1.3215792
1.3215996
1.3216204
1.3216404
1.3216606
1.3216803
1.3216986
1.3217162
1.3217337
1.3217494
1.3217679
1.3217883
1.3218002
1.3218113
1.3218216
1.3218308
1.3218397
1.3218478
1.3218544
1.3218608
1.321867
1.3218731
1.3218795
1.3218859
1.3218922
1.3218989
1.3219059
1.3219125
1.3219187
1.3219244
1.3219293
1.3219335
1.3219366
1.3219389
1.3219408
1.3219423
1.3219437
1.321945
1.3219464
1.3219476
1.3219483
1.3219485
1.3219484
1.3219482
1.3219473
1.3219477
1.3219488
1.3219528
1.3219564
1.3219635
1.3219673
1.3219759
1.3219757
1.3219852
1.3219815
1.3219946
1.3219869
1.322012
1.321997
1.3220384
1.3220078
1.3220724
1.3220296
1.3221417
1.3220538
1.3237953
3.8342715
1.5634098
1.2321413
1.2253929
1.2252854
1.2253706
1.2253601
1.2254256
1.2254538
1.225495
1.2255294
1.2255636
1.225602
1.2256347
1.2256666
1.2257002
1.2257294
1.22576
1.2257888
1.2258178
1.225846
1.2258725
1.225899
1.225924
1.2259485
1.2259721
1.225995
1.2260164
1.2260382
1.2260593
1.2260801
1.2261002
1.2261192
1.2261379
1.2261549
1.2261732
1.2261899
1.2262069
1.2262232
1.2262388
1.2262539
1.2262691
1.2262825
1.2262978
1.2263152
1.2263264
1.2263363
1.2263452
1.2263533
1.2263608
1.2263675
1.2263729
1.2263787
1.2263842
1.2263896
1.2263953
1.226401
1.2264065
1.2264124
1.2264185
1.2264241
1.2264293
1.226434
1.2264381
1.2264419
1.2264447
1.226447
1.2264489
1.2264506
1.226452
1.2264534
1.2264545
1.2264552
1.2264552
1.2264548
1.2264538
1.2264529
1.2264518
1.2264522
1.2264532
1.2264568
1.2264596
1.2264652
1.2264678
1.2264747
1.2264736
1.2264811
1.2264768
1.2264874
1.2264786
1.2265004
1.2264865
1.2265257
1.2264989
1.2265583
1.2265122
1.2266162
1.2265441
1.2434372
3.8710338
1.5595992
1.1523985
1.14345
1.1433593
1.1434283
1.1434382
1.143492
1.143527
1.1435626
1.1435964
1.1436256
1.1436602
1.1436864
1.143714
1.1437413
1.143766
1.143791
1.1438151
1.1438382
1.1438612
1.1438822
1.1439039
1.1439241
1.1439438
1.1439628
1.1439811
1.1439981
1.1440157
1.1440325
1.1440491
1.1440649
1.14408
1.1440951
1.1441091
1.1441247
1.1441384
1.1441524
1.1441659
1.144179
1.1441917
1.1442046
1.1442158
1.1442282
1.1442424
1.1442522
1.1442607
1.1442684
1.1442753
1.1442816
1.1442871
1.1442917
1.1442966
1.1443013
1.1443061
1.1443109
1.1443158
1.1443205
1.1443256
1.1443308
1.1443354
1.1443398
1.1443438
1.1443474
1.1443508
1.1443535
1.1443559
1.1443579
1.1443597
1.1443612
1.1443625
1.1443632
1.1443635
1.1443631
1.1443623
1.1443612
1.1443604
1.1443597
1.1443604
1.1443614
1.1443642
1.1443661
1.1443702
1.1443714
1.1443764
1.1443746
1.1443804
1.1443755
1.1443843
1.1443756
1.1443946
1.1443819
1.1444172
1.144392
1.1444434
1.1443945
1.1444821
1.1444195
1.1480365
3.8940872
1.5635469
1.0862192
1.0732716
1.0731777
1.0732343
1.0732649
1.0733136
1.0733497
1.0733861
1.073417
1.073445
1.0734755
1.0734982
1.0735228
1.0735458
1.073567
1.0735874
1.073607
1.073625
1.0736429
1.0736591
1.073676
1.0736915
1.0737067
1.0737212
1.0737351
1.0737482
1.0737618
1.0737744
1.0737873
1.0737996
1.0738112
1.0738234
1.0738347
1.0738475
1.0738586
1.0738701
1.0738811
1.073892
1.0739027
1.0739133
1.0739227
1.0739327
1.0739438
1.0739523
1.0739594
1.0739658
1.0739717
1.0739769
1.0739815
1.0739854
1.0739896
1.0739935
1.0739974
1.0740015
1.0740055
1.0740094
1.0740137
1.0740181
1.0740219
1.0740257
1.0740293
1.0740327
1.0740359
1.0740386
1.074041
1.0740431
1.0740448
1.0740463
1.0740473
1.0740478
1.0740477
1.0740471
1.0740464
1.0740458
1.0740457
1.074046
1.0740472
1.0740483
1.0740504
1.0740514
1.074054
1.0740537
1.0740571
1.0740547
1.0740597
1.0740554
1.074064
1.0740564
1.0740728
1.0740605
1.0740905
1.0740664
1.0741117
1.074067
1.0741378
1.074077
1.0910141
3.893747
1.5755425
1.0324158
1.012234
1.0120021
1.0120441
1.0120747
1.0121179
1.0121425
1.0121772
1.0121983
1.0122224
1.0122448
1.0122627
1.0122814
1.0122988
1.0123147
1.0123294
1.0123434
1.0123562
1.0123688
1.0123799
1.012392
1.0124026
1.0124133
1.0124234
1.0124333
1.0124427
1.0124525
1.0124615
1.0124711
1.0124803
1.0124892
1.0124987
1.0125076
1.0125177
1.0125265
1.0125357
1.0125447
1.0125537
1.0125625
1.0125712
1.0125791
1.0125871
1.0125958
1.0126028
1.0126089
1.0126144
1.0126194
1.0126238
1.0126277
1.0126311
1.0126346
1.0126378
1.012641
1.0126442
1.0126475
1.0126507
1.0126542
1.0126579
1.0126612
1.0126647
1.0126681
1.0126714
1.0126746
1.0126774
1.0126798
1.0126818
1.0126835
1.0126846
1.0126853
1.0126855
1.0126853
1.0126848
1.0126846
1.0126848
1.0126858
1.0126871
1.0126891
1.0126903
1.012692
1.0126921
1.0126934
1.0126921
1.0126946
1.0126925
1.012698
1.0126956
1.0127045
1.0126982
1.0127123
1.0127003
1.0127261
1.0127046
1.0127468
1.0127073
1.0127669
1.0127037
1.0198655
3.8876038
1.5968999
0.98628863
0.95688838
0.95640107
0.95641926
0.95642904
0.9564581
0.95646177
0.95648572
0.95649087
0.95650469
0.95651412
0.95652314
0.95653173
0.95654052
0.95654795
0.9565547
0.95656175
0.95656788
0.95657466
0.95658007
0.95658678
0.95659226
0.95659818
0.95660394
0.95660979
0.95661541
0.95662168
0.9566274
0.95663389
0.95664012
0.95664642
0.95665334
0.95665983
0.95666734
0.95667402
0.95668112
0.95668821
0.95669532
0.95670241
0.95670938
0.95671589
0.95672241
0.95672921
0.95673501
0.95674016
0.95674485
0.9567491
0.95675285
0.95675615
0.95675904
0.9567619
0.95676442
0.95676694
0.95676946
0.95677201
0.95677459
0.9567775
0.95678069
0.95678369
0.95678697
0.95679032
0.95679361
0.95679686
0.95679961
0.9568019
0.95680369
0.95680498
0.95680572
0.95680602
0.956806
0.95680592
0.95680587
0.95680638
0.95680756
0.95680959
0.95681184
0.9568143
0.95681583
0.95681713
0.95681635
0.95681683
0.95681498
0.95681711
0.95681605
0.95682269
0.95682208
0.95683161
0.95682667
0.95683952
0.95682847
0.95685262
0.9568355
0.95687816
0.95684914
0.95690415
0.9568609
0.97974443
3.8724926
1.6106368
0.94267941
0.9047041
0.90396176
0.90394841
0.90393217
0.90393873
0.90392133
0.90392702
0.90391527
0.90391447
0.9039094
0.90390703
0.90390351
0.90390218
0.90389981
0.9038978
0.90389699
0.90389606
0.90389639
0.90389582
0.90389691
0.90389721
0.90389837
0.90389979
0.90390167
0.90390364
0.90390644
0.90390899
0.90391249
0.90391588
0.90391954
0.90392388
0.90392793
0.9039329
0.90393746
0.90394249
0.90394765
0.90395295
0.90395833
0.90396371
0.90396886
0.903974
0.90397926
0.90398394
0.90398818
0.90399204
0.90399552
0.90399859
0.90400123
0.90400352
0.90400567
0.9040075
0.90400931
0.9040111
0.90401298
0.904015
0.90401739
0.90402018
0.90402295
0.90402604
0.90402923
0.9040324
0.90403549
0.90403805
0.90404008
0.90404153
0.9040424
0.90404274
0.90404272
0.90404263
0.90404272
0.90404324
0.90404454
0.90404646
0.9040491
0.9040516
0.90405403
0.90405533
0.90405613
0.90405501
0.9040553
0.90405375
0.90405636
0.90405655
0.90406393
0.90406457
0.9040744
0.90407069
0.90408332
0.90407436
0.90409843
0.90408591
0.90412787
0.90410861
0.90416191
0.90414082
0.9154534
3.8536019
1.614253
0.90016644
0.85540646
0.85450022
0.85445839
0.85442549
0.85440911
0.85437907
0.85436621
0.85434298
0.85432864
0.85431257
0.85430008
0.8542868
0.85427696
0.85426661
0.8542575
0.85424998
0.85424331
0.85423793
0.85423237
0.8542287
0.85422461
0.85422184
0.8542195
0.85421795
0.85421674
0.85421648
0.85421626
0.85421704
0.85421788
0.85421913
0.85422109
0.85422289
0.85422559
0.85422816
0.85423128
0.85423462
0.85423818
0.85424193
0.85424577
0.85424958
0.8542534
0.85425729
0.85426088
0.85426418
0.85426717
0.8542698
0.85427206
0.85427393
0.85427547
0.85427678
0.85427783
0.85427886
0.85427994
0.85428118
0.85428267
0.85428458
0.85428696
0.85428945
0.8542923
0.85429526
0.85429813
0.85430086
0.85430303
0.85430464
0.85430566
0.85430608
0.85430604
0.85430578
0.85430563
0.85430589
0.8543067
0.85430836
0.85431064
0.85431337
0.85431572
0.85431791
0.85431866
0.85431925
0.85431814
0.85431856
0.85431751
0.85432057
0.8543213
0.85432865
0.85432968
0.85433906
0.85433646
0.85434912
0.85434243
0.85436527
0.85435662
0.85439573
0.85438514
0.85443406
0.85442516
0.87582542
3.8369215
1.613722
0.86026344
0.81071563
0.80976405
0.80970644
0.80967075
0.80963957
0.80960763
0.80958306
0.80955628
0.80953419
0.80951348
0.80949533
0.80947736
0.80946301
0.80944859
0.80943581
0.80942457
0.80941467
0.80940592
0.80939748
0.80939092
0.80938421
0.80937902
0.80937424
0.80937042
0.80936704
0.80936462
0.80936246
0.80936118
0.80936018
0.80935955
0.80935973
0.80935981
0.80936078
0.80936177
0.80936334
0.80936522
0.80936735
0.80936975
0.80937229
0.80937489
0.80937755
0.80938024
0.80938277
0.80938506
0.8093871
0.80938885
0.80939027
0.80939133
0.80939207
0.80939257
0.80939288
0.80939319
0.80939359
0.80939427
0.80939529
0.80939672
0.80939861
0.80940071
0.80940318
0.80940576
0.80940821
0.80941039
0.80941205
0.80941319
0.80941377
0.80941379
0.80941345
0.80941308
0.80941292
0.80941323
0.80941416
0.80941589
0.80941802
0.80942034
0.80942217
0.80942374
0.80942391
0.80942422
0.8094232
0.80942378
0.80942325
0.8094266
0.80942753
0.80943408
0.80943511
0.80944365
0.80944186
0.80945338
0.80944811
0.80946756
0.8094622
0.80949652
0.80949278
0.80953716
0.80954117
0.82324605
3.8243721
1.6106313
0.824675
0.772927
0.77202875
0.77196963
0.771941
0.77190617
0.77187978
0.7718525
0.77182873
0.77180563
0.77178606
0.77176741
0.77174978
0.77173508
0.77172065
0.7717076
0.77169602
0.77168555
0.77167619
0.77166721
0.77165988
0.77165257
0.77164659
0.77164105
0.77163633
0.77163208
0.77162866
0.77162562
0.77162322
0.77162129
0.7716196
0.77161876
0.77161785
0.77161779
0.77161783
0.77161841
0.77161932
0.77162049
0.77162194
0.77162354
0.77162522
0.77162696
0.77162869
0.77163032
0.77163177
0.77163296
0.7716339
0.77163453
0.77163486
0.77163493
0.77163476
0.77163444
0.77163414
0.77163401
0.7716342
0.77163477
0.77163573
0.77163714
0.77163883
0.77164085
0.77164297
0.77164491
0.77164657
0.7716478
0.77164853
0.77164875
0.77164849
0.771648
0.77164753
0.77164731
0.77164756
0.77164834
0.77164977
0.77165139
0.77165314
0.77165436
0.77165523
0.77165494
0.77165487
0.77165389
0.77165447
0.77165436
0.77165761
0.77165866
0.77166406
0.77166464
0.77167139
0.77166949
0.77167884
0.77167511
0.771691
0.77168791
0.77171456
0.7717136
0.77175117
0.77175822
0.79164934
3.8161947
1.6029171
0.79488222
0.74350673
0.74270761
0.74265753
0.74263847
0.74260859
0.74259014
0.74256692
0.74254922
0.74252989
0.7425147
0.74249914
0.74248499
0.74247267
0.74246078
0.74244984
0.7424401
0.74243104
0.74242295
0.7424152
0.7424086
0.74240224
0.74239669
0.74239167
0.74238717
0.74238315
0.74237973
0.74237672
0.7423741
0.74237203
0.74237008
0.74236894
0.74236772
0.74236728
0.74236694
0.74236709
0.74236754
0.74236824
0.74236916
0.74237022
0.74237133
0.74237246
0.74237354
0.74237449
0.74237529
0.74237583
0.74237615
0.7423762
0.74237599
0.74237556
0.74237494
0.74237421
0.74237352
0.74237304
0.74237289
0.74237311
0.7423737
0.74237473
0.74237606
0.74237764
0.74237928
0.74238076
0.742382
0.74238286
0.74238328
0.74238325
0.74238286
0.74238228
0.74238173
0.74238144
0.74238157
0.74238212
0.74238312
0.74238416
0.7423852
0.74238571
0.74238587
0.74238512
0.74238464
0.74238367
0.74238416
0.74238459
0.74238773
0.74238898
0.74239308
0.74239303
0.74239726
0.74239477
0.74240148
0.74239974
0.74241317
0.74241299
0.74243186
0.74243053
0.74245879
0.74247899
0.75998817
3.8114079
1.5959791
0.7721781
0.7224721
0.72176986
0.72173258
0.72172124
0.7216998
0.72168836
0.72167186
0.72166018
0.72164645
0.7216362
0.72162508
0.72161518
0.72160635
0.7215978
0.7215899
0.72158274
0.72157598
0.72156988
0.72156413
0.72155889
0.72155418
0.72154972
0.72154581
0.72154223
0.72153899
0.72153616
0.72153371
0.72153149
0.72152979
0.72152813
0.72152716
0.72152612
0.72152573
0.72152543
0.72152553
0.72152587
0.72152642
0.72152713
0.72152795
0.72152877
0.72152956
0.72153024
0.72153078
0.72153116
0.7215313
0.72153124
0.72153093
0.7215304
0.72152969
0.72152885
0.72152797
0.72152714
0.72152652
0.72152618
0.72152617
0.72152652
0.72152727
0.72152828
0.72152948
0.72153071
0.7215318
0.72153269
0.72153325
0.72153345
0.72153326
0.72153278
0.72153215
0.72153156
0.72153119
0.72153116
0.72153144
0.72153197
0.72153251
0.72153294
0.72153284
0.72153241
0.72153137
0.72153061
0.72152983
0.7215304
0.72153129
0.7215341
0.72153544
0.72153805
0.72153738
0.72153915
0.72153625
0.72154074
0.72154082
0.7215521
0.72155509
0.72156887
0.72156862
0.72158533
0.72160737
0.74799914
3.8088135
1.5909886
0.75647828
0.70861918
0.70799084
0.70796484
0.70795846
0.70794503
0.70793852
0.70792821
0.70792122
0.7079126
0.70790633
0.70789934
0.70789302
0.70788741
0.70788185
0.70787673
0.70787197
0.70786744
0.70786329
0.70785946
0.70785568
0.70785252
0.70784936
0.70784656
0.70784404
0.70784174
0.70783969
0.70783798
0.70783638
0.70783524
0.7078341
0.70783352
0.70783289
0.70783277
0.70783271
0.70783299
0.70783343
0.70783403
0.70783473
0.70783547
0.70783616
0.70783676
0.70783723
0.70783755
0.70783769
0.70783764
0.70783737
0.70783688
0.7078362
0.70783539
0.70783452
0.70783365
0.70783287
0.70783226
0.70783189
0.70783181
0.70783205
0.70783258
0.7078333
0.70783415
0.70783501
0.70783575
0.7078363
0.70783658
0.70783659
0.70783634
0.70783592
0.70783539
0.70783488
0.70783454
0.70783444
0.70783451
0.7078347
0.70783482
0.70783473
0.70783419
0.70783336
0.70783219
0.70783128
0.70783073
0.70783133
0.7078324
0.70783461
0.70783571
0.70783706
0.70783579
0.70783578
0.70783321
0.70783639
0.70783823
0.70784793
0.70785267
0.70786191
0.70786195
0.70786861
0.70788263
0.72649004
3.8074817
1.5876801
0.74652738
0.70017104
0.69959158
0.69957349
0.69956992
0.69956237
0.69955882
0.69955289
0.69954905
0.69954416
0.69954048
0.69953646
0.69953276
0.69952946
0.69952605
0.69952304
0.69952007
0.69951722
0.69951462
0.69951225
0.69950967
0.69950773
0.69950562
0.69950378
0.69950213
0.69950069
0.69949932
0.69949835
0.69949731
0.69949675
0.69949609
0.69949593
0.69949572
0.69949592
0.69949615
0.69949665
0.69949726
0.69949797
0.69949873
0.69949945
0.69950006
0.69950054
0.69950087
0.69950105
0.69950107
0.69950092
0.69950057
0.69950004
0.69949935
0.69949858
0.6994978
0.69949704
0.6994964
0.69949592
0.69949564
0.69949558
0.69949575
0.69949613
0.69949666
0.69949726
0.69949784
0.6994983
0.69949859
0.69949868
0.69949857
0.69949829
0.69949789
0.69949744
0.69949702
0.69949671
0.69949652
0.69949643
0.69949637
0.69949619
0.69949578
0.69949497
0.69949391
0.69949271
0.69949175
0.69949126
0.69949173
0.69949268
0.69949419
0.69949502
0.69949558
0.69949426
0.69949357
0.69949188
0.69949443
0.69949702
0.69950458
0.69950901
0.69951442
0.69951517
0.69951809
0.69952626
0.71893796
3.8068107
1.5856268
0.74069836
0.69537259
0.69482213
0.69480885
0.69480676
0.69480283
0.69480094
0.69479776
0.69479573
0.69479314
0.69479103
0.69478884
0.6947868
0.69478494
0.69478289
0.69478124
0.69477949
0.6947777
0.69477611
0.69477479
0.69477301
0.69477187
0.69477056
0.69476933
0.69476839
0.69476749
0.69476673
0.69476621
0.69476571
0.69476548
0.69476529
0.6947654
0.69476554
0.69476595
0.69476639
0.69476707
0.69476781
0.6947686
0.69476937
0.69477007
0.6947706
0.694771
0.69477124
0.69477134
0.6947713
0.69477111
0.69477076
0.69477028
0.69476967
0.69476902
0.69476839
0.69476783
0.6947674
0.69476713
0.69476701
0.69476705
0.69476722
0.6947675
0.69476782
0.69476813
0.69476837
0.69476849
0.69476848
0.69476834
0.6947681
0.69476779
0.69476744
0.69476711
0.69476682
0.69476655
0.69476633
0.69476616
0.69476596
0.69476563
0.69476511
0.69476432
0.6947633
0.6947622
0.69476125
0.69476075
0.69476085
0.69476132
0.69476214
0.6947626
0.69476289
0.69476217
0.69476181
0.69476096
0.69476268
0.69476502
0.69477028
0.69477408
0.69477699
0.69477717
0.69477914
0.69479668
0.71772826
3.8064565
1.5844207
0.73749916
0.692819
0.69228507
0.69227448
0.6922731
0.6922711
0.69227009
0.69226846
0.69226741
0.69226609
0.69226492
0.69226376
0.69226267
0.69226163
0.69226045
0.69225952
0.69225851
0.69225739
0.6922564
0.69225567
0.69225445
0.69225375
0.69225298
0.69225214
0.69225165
0.69225109
0.69225073
0.6922505
0.69225036
0.69225034
0.69225047
0.69225073
0.6922511
0.69225165
0.69225225
0.69225303
0.69225382
0.69225465
0.69225542
0.6922561
0.69225659
0.69225695
0.69225715
0.69225722
0.69225717
0.69225699
0.6922567
0.6922563
0.69225584
0.69225536
0.69225492
0.69225455
0.69225427
0.69225409
0.69225403
0.69225407
0.69225417
0.69225429
0.69225441
0.69225448
0.69225445
0.69225433
0.69225411
0.69225381
0.69225345
0.6922531
0.69225281
0.69225262
0.69225251
0.69225242
0.69225233
0.69225218
0.69225189
0.69225144
0.69225079
0.69224995
0.69224893
0.69224787
0.69224692
0.69224635
0.69224611
0.69224614
0.69224639
0.69224659
0.69224684
0.69224691
0.69224717
0.69224722
0.69224866
0.69225006
0.69225275
0.6922551
0.69225736
0.69225913
0.69226095
0.69227878
0.71265293
3.8062409
1.5837376
0.73584004
0.69153897
0.69101433
0.69100513
0.6910041
0.69100305
0.69100247
0.69100168
0.69100115
0.69100046
0.69099984
0.69099924
0.69099869
0.69099808
0.69099745
0.6909969
0.69099636
0.69099571
0.69099507
0.69099465
0.69099391
0.69099343
0.69099296
0.69099242
0.69099214
0.69099183
0.69099165
0.69099162
0.69099165
0.69099176
0.69099205
0.69099239
0.69099287
0.69099347
0.6909941
0.69099491
0.69099571
0.69099655
0.69099732
0.69099799
0.69099849
0.69099883
0.69099901
0.69099908
0.69099903
0.69099887
0.69099862
0.69099831
0.69099797
0.69099764
0.69099733
0.69099707
0.69099688
0.69099677
0.69099673
0.69099672
0.69099671
0.69099668
0.69099663
0.69099651
0.69099631
0.69099599
0.69099558
0.69099513
0.69099472
0.69099439
0.69099418
0.6909941
0.69099411
0.69099414
0.69099413
0.69099399
0.69099361
0.69099302
0.6909923
0.6909915
0.6909906
0.69098972
0.69098892
0.69098841
0.69098791
0.69098754
0.69098732
0.69098732
0.69098764
0.69098829
0.69098917
0.69098998
0.69099113
0.69099179
0.69099245
0.69099293
0.69099341
0.69099418
0.69099692
0.69102934
0.71330471
3.8060856
1.5833483
0.73501704
0.69093172
0.69041236
0.6904038
0.69040295
0.69040237
0.69040204
0.69040165
0.69040143
0.69040111
0.69040077
0.69040047
0.69040025
0.69039995
0.69039961
0.69039931
0.6903991
0.69039874
0.69039837
0.69039807
0.69039771
0.69039735
0.69039703
0.69039671
0.6903965
0.69039634
0.6903962
0.69039627
0.69039635
0.69039649
0.69039683
0.69039717
0.69039765
0.69039822
0.69039883
0.69039959
0.69040033
0.69040114
0.69040188
0.69040254
0.69040306
0.69040344
0.69040368
0.69040383
0.69040385
0.69040377
0.69040361
0.69040338
0.69040312
0.69040285
0.69040258
0.69040234
0.69040214
0.69040197
0.69040182
0.69040167
0.69040152
0.69040137
0.69040117
0.6904009
0.69040054
0.6904001
0.69039962
0.69039916
0.69039879
0.69039854
0.69039846
0.69039854
0.69039869
0.69039883
0.69039883
0.69039862
0.6903981
0.69039737
0.69039656
0.69039576
0.69039494
0.69039425
0.69039365
0.69039328
0.69039273
0.69039219
0.69039174
0.69039159
0.69039206
0.69039313
0.69039453
0.69039582
0.6903967
0.690397
0.69039607
0.69039481
0.69039355
0.69039216
0.6903936
0.69041504
0.71358488
3.8059633
1.5831136
0.73462004
0.69065756
0.69014122
0.69013297
0.6901322
0.69013194
0.69013177
0.69013162
0.69013155
0.69013148
0.69013135
0.69013123
0.69013122
0.69013119
0.69013104
0.69013092
0.69013093
0.69013076
0.69013058
0.69013039
0.69013027
0.69012998
0.69012975
0.69012957
0.69012935
0.6901293
0.69012918
0.69012923
0.69012937
0.69012945
0.69012977
0.69013005
0.6901305
0.69013101
0.6901316
0.69013228
0.690133
0.69013378
0.69013453
0.69013522
0.69013581
0.69013627
0.6901366
0.69013683
0.69013694
0.69013695
0.69013685
0.69013667
0.69013641
0.69013611
0.69013579
0.69013545
0.6901351
0.69013475
0.69013443
0.69013415
0.69013388
0.69013359
0.69013327
0.69013295
0.69013258
0.69013217
0.69013175
0.69013138
0.69013112
0.69013102
0.69013108
0.69013122
0.69013133
0.69013138
0.69013125
0.69013089
0.69013026
0.69012946
0.69012866
0.69012794
0.69012728
0.69012675
0.69012625
0.69012587
0.6901253
0.69012475
0.6901243
0.69012429
0.69012496
0.69012631
0.69012787
0.6901291
0.69012955
0.69012955
0.69012814
0.69012628
0.69012401
0.69012131
0.69012273
0.69014601
0.71427433
3.8058598
1.582962
0.7344281
0.69053881
0.69002436
0.69001628
0.69001561
0.69001553
0.69001554
0.69001554
0.69001562
0.69001571
0.69001578
0.69001584
0.69001596
0.69001611
0.69001615
0.69001618
0.69001636
0.69001643
0.69001637
0.69001638
0.6900164
0.69001622
0.69001611
0.69001605
0.69001582
0.69001578
0.69001569