/*--------------------------------*- C++ -*----------------------------------*\
| =========                 |                                                 |
| \\      /  F ield         | OpenFOAM: The Open Source CFD Toolbox           |
|  \\    /   O peration     | Version:  2406                                  |
|   \\  /    A nd           | Website:  www.openfoam.com                      |
|    \\/     M anipulation  |                                                 |
\*---------------------------------------------------------------------------*/
FoamFile
{
    version     2.0;
    format      ascii;
    arch        "LSB;label=32;scalar=64";
    class       volScalarField;
    location    "15";
    object      omega;
}
// * * * * * * * * * * * * * * * * * * * * * * * * * * * * * * * * * * * * * //

dimensions      [0 0 -1 0 0 0 0];

internalField   nonuniform List<scalar> 
96472
(
3.7369703
2.9890747
2.4627729
2.0888411
1.8334102
1.6569951
1.525716
1.4183099
1.3245972
1.241343
1.1684539
1.1062777
1.0548764
1.0131598
0.979259
0.95126332
0.9270835
0.90525321
0.88439137
0.86380975
0.84273085
0.82162322
0.80056457
0.78067093
0.76225506
0.74648538
0.73314527
0.72291169
0.71452233
0.70874519
0.70395941
0.70152021
0.69882292
0.6988651
0.69929221
0.7014298
0.70293477
0.7058518
0.71188264
0.71572585
0.72805289
0.73479084
0.74359141
0.74659747
0.75052066
0.75062179
0.75145326
0.75439386
0.76040321
0.76823808
0.77885472
0.79061352
0.80423764
0.8213509
0.84699623
3.7358595
2.9927991
2.4680284
2.0936317
1.8373269
1.6602878
1.528736
1.4213834
1.327882
1.2448162
1.1719063
1.1096009
1.0578422
1.0157175
0.98156549
0.95339958
0.92915714
0.90728746
0.88624569
0.86571475
0.84479102
0.82413248
0.80325444
0.78369901
0.76527054
0.74934965
0.73553367
0.72473666
0.71601403
0.70956559
0.70483685
0.7015131
0.69916
0.69721067
0.6960223
0.69560102
0.69572098
0.6961424
0.69745779
0.69911321
0.70293123
0.7105624
0.72122058
0.73262576
0.74271503
0.75014551
0.75330313
0.75999644
0.76296045
0.76937912
0.77403558
0.78273937
0.79196175
0.80073442
0.82279741
3.7357543
2.9971067
2.4734093
2.0983523
1.8410878
1.6635185
1.5319614
1.4248166
1.3315172
1.2484647
1.1753505
1.1125939
1.060381
1.0177975
0.98336088
0.95503258
0.93080569
0.90907205
0.88830962
0.86800555
0.84722797
0.82652456
0.80548007
0.78577957
0.76698882
0.75098472
0.73684615
0.72607904
0.71700198
0.71067828
0.70538264
0.70235436
0.69971954
0.69817208
0.69700152
0.69686813
0.6969074
0.6972155
0.69776581
0.6991283
0.70033121
0.70330419
0.70613039
0.71246915
0.7182944
0.73161255
0.74012093
0.75306001
0.75880915
0.76699659
0.7723876
0.77831309
0.78702819
0.79247972
0.80666007
3.7366615
3.0013885
2.4785477
2.1028492
1.8447444
1.6667505
1.5352142
1.4282986
1.3351535
1.2520798
1.1787404
1.115621
1.0629151
1.0199441
0.98519521
0.95672702
0.93244574
0.91079499
0.89015143
0.8700923
0.8495985
0.82924152
0.8085661
0.78898724
0.77033582
0.75408156
0.73963023
0.72831914
0.71876964
0.71203083
0.70622669
0.70263409
0.69953985
0.69788312
0.69629399
0.69601099
0.69597503
0.69641927
0.69692846
0.69859005
0.69960771
0.70235024
0.70390892
0.70778629
0.71024153
0.71653609
0.7209332
0.73008954
0.74047385
0.75072538
0.76317874
0.76922024
0.77950106
0.78491486
0.79743049
3.737568
3.0054938
2.4836147
2.1073884
1.8484583
1.6700327
1.5384658
1.4317459
1.3387534
1.2556537
1.1820877
1.1186052
1.065473
1.0220946
0.98703151
0.95838556
0.93408518
0.91255587
0.89209661
0.87223835
0.85189271
0.83167823
0.81098492
0.79138933
0.77253613
0.75610563
0.74146942
0.72987514
0.72003175
0.71309537
0.70700704
0.70333463
0.69997527
0.69824449
0.69630837
0.69563412
0.6952779
0.69553692
0.69583455
0.69704193
0.6979642
0.70040959
0.70185713
0.70504278
0.70779607
0.71103894
0.71566763
0.7192409
0.72661985
0.73173294
0.74269698
0.74875022
0.76097071
0.76747934
0.78239472
3.7387378
3.0096121
2.4886157
2.1118834
1.8521611
1.6732813
1.5416707
1.4351047
1.3422624
1.2591767
1.1854129
1.1215822
1.0680339
1.0242531
0.98890522
0.96007217
0.93573778
0.91426729
0.8939906
0.87429449
0.85430495
0.83422197
0.81394732
0.79434562
0.77565197
0.75889289
0.74402878
0.73190114
0.72177664
0.71429358
0.7080653
0.70376282
0.70013207
0.69803706
0.69620285
0.69507503
0.69446338
0.6945246
0.69470596
0.69520832
0.69625151
0.69738124
0.69965836
0.70139396
0.70489473
0.70709341
0.7116489
0.71441575
0.72027809
0.72382356
0.73129432
0.73571347
0.74512703
0.75041005
0.76384337
3.7398926
3.0135641
2.4935251
2.1163736
1.8558648
1.6764793
1.5447886
1.438353
1.3456595
1.2626047
1.1887014
1.1245657
1.0706121
1.0264603
0.99077997
0.96179299
0.9373908
0.91595185
0.8958152
0.87628294
0.85657582
0.83664178
0.81658762
0.79693401
0.77832775
0.76126461
0.746304
0.73375429
0.72344226
0.71543991
0.70916611
0.7044578
0.70089623
0.69830064
0.69645642
0.6949906
0.69409467
0.69390771
0.69399775
0.69426429
0.69501925
0.69584308
0.69769247
0.69903242
0.70194627
0.70383596
0.70780989
0.71020345
0.71527069
0.71814098
0.72441701
0.72796813
0.73522124
0.73951407
0.74950024
3.7411384
3.0175509
2.4984757
2.1209293
1.8596048
1.6796747
1.5478477
1.4415367
1.34899
1.2659682
1.1919474
1.1275656
1.0732281
1.0287183
0.99269951
0.9635055
0.93902783
0.91759913
0.89764548
0.87829204
0.85888965
0.83918908
0.81937095
0.79979382
0.78115862
0.76388119
0.7486558
0.73571191
0.72508973
0.71661222
0.71013367
0.70507888
0.70125941
0.69836711
0.69643558
0.69490337
0.69378035
0.69321268
0.69321423
0.69335001
0.69379688
0.69440537
0.69579809
0.69688766
0.69926526
0.70085733
0.70426591
0.70640619
0.71085547
0.71350378
0.71885211
0.72186876
0.72815626
0.73166851
0.73995522
3.7423105
3.0212115
2.5032104
2.1253903
1.863302
1.6828351
1.5508223
1.4446126
1.3522277
1.269282
1.1951662
1.1305455
1.075876
1.0309769
0.99463624
0.96520398
0.94063964
0.91923772
0.89945386
0.88029105
0.86117895
0.84165903
0.8220124
0.80247866
0.78380244
0.76642834
0.75097741
0.73771774
0.72680904
0.71798148
0.71122171
0.70592966
0.70191457
0.69883102
0.69662341
0.69498849
0.69376487
0.69285328
0.69262616
0.6926705
0.69290955
0.69336437
0.69444597
0.69531034
0.6972076
0.69850373
0.70132819
0.70311064
0.706863
0.70905036
0.71374273
0.71640859
0.72195535
0.72494231
0.73204193
3.7439099
3.0250627
2.5081441
2.1300283
1.8671094
1.6860149
1.5537821
1.4476252
1.3553996
1.2725491
1.1983882
1.1335368
1.0785429
1.033257
0.9965924
0.96693839
0.94228369
0.92086422
0.90123634
0.88224816
0.86334699
0.84407238
0.82455706
0.80514813
0.78645451
0.76895817
0.75332359
0.73975654
0.72857498
0.71939118
0.71225567
0.70668004
0.70246788
0.69910187
0.69674694
0.69491605
0.69368052
0.69258009
0.6920417
0.69197862
0.69209296
0.69236858
0.69311618
0.69383166
0.69537603
0.69645754
0.69880793
0.70028872
0.70354477
0.70546406
0.70953316
0.71181318
0.716458
0.71934031
0.72520731
3.7452639
3.0284812
2.512681
2.1343689
1.8707416
1.6890674
1.5566367
1.4505311
1.3584623
1.275721
1.2015521
1.1365292
1.0812187
1.0355813
0.99855757
0.96867243
0.94391603
0.92247828
0.90295159
0.88414984
0.865435
0.84635639
0.8270275
0.8077253
0.78907258
0.77151946
0.75574684
0.74191038
0.73042626
0.72092802
0.71344044
0.70759623
0.7032011
0.69961396
0.69708191
0.69501666
0.69373806
0.69255226
0.6917394
0.69141231
0.69144649
0.69160691
0.6921147
0.69265044
0.69388929
0.69478105
0.6966737
0.69798009
0.70062269
0.70233682
0.70576033
0.70771533
0.71199585
0.71419306
0.7195816
3.74699
3.0322704
2.5176709
2.1391112
1.8746196
1.6922442
1.5595024
1.4534274
1.3615118
1.2788787
1.2046955
1.1395286
1.0839414
1.0379534
1.0005998
0.97043446
0.9455428
0.92407345
0.90462528
0.88597631
0.86749066
0.84860352
0.82947353
0.81030653
0.79172095
0.77413322
0.75822474
0.74416198
0.73234448
0.72255202
0.71474572
0.7085558
0.70389579
0.70014103
0.69735719
0.69515145
0.69367284
0.69247808
0.69154922
0.69091689
0.69084569
0.69092516
0.69117619
0.6915989
0.69257541
0.69331551
0.69491907
0.69593622
0.69827887
0.6996367
0.70265236
0.70443915
0.70796935
0.70999337
0.71454635
3.7485441
3.0354027
2.5220226
2.1433667
1.8782007
1.6952393
1.5622104
1.4561563
1.3644146
1.2819413
1.2077981
1.1424814
1.086653
1.0402994
1.0026336
0.97218153
0.94713864
0.9256162
0.9062482
0.88774475
0.86945559
0.85082861
0.83189089
0.81289494
0.79440232
0.77679352
0.76071713
0.74647823
0.73435869
0.72425854
0.71613444
0.7096164
0.70467952
0.70075129
0.697758
0.69542076
0.69374234
0.69246849
0.69149823
0.69066615
0.69033857
0.69033347
0.69047326
0.69076987
0.69150316
0.69209142
0.69339528
0.69428417
0.6961511
0.69739477
0.69994999
0.7014663
0.70454391
0.70651434
0.71024446
3.7504366
3.0391912
2.5271168
2.148247
1.8821731
1.6984079
1.565023
1.4589256
1.3673189
1.2850006
1.21092
1.145491
1.0894132
1.0427279
1.00471
0.97396669
0.94875137
0.92718002
0.9078489
0.8895061
0.87140865
0.85300079
0.83429399
0.81547442
0.79706763
0.77949869
0.76331179
0.74889141
0.73648013
0.72606169
0.71760854
0.71078139
0.7055515
0.70140956
0.69826013
0.69571325
0.69389059
0.69241628
0.69143292
0.690502
0.68994096
0.68979285
0.68985564
0.69002955
0.6904999
0.69104515
0.6920476
0.6928324
0.69439402
0.69541632
0.69758198
0.69889534
0.70177351
0.70322657
0.70674678
3.7521824
3.0420665
2.5312829
2.1524021
1.8857037
1.7013176
1.5676135
1.4615012
1.3700411
1.2878867
1.2139027
1.1484134
1.0921096
1.0451161
1.006757
0.97573518
0.95033824
0.92871245
0.90940984
0.8912216
0.87332886
0.85516098
0.83668826
0.81807132
0.79977325
0.7822373
0.76597723
0.75139162
0.73873687
0.7279981
0.71920937
0.71207725
0.70654488
0.70216102
0.69883212
0.69609959
0.69411708
0.69247435
0.69140758
0.69045541
0.68974612
0.68935346
0.68935474
0.68943223
0.6897717
0.6900962
0.69098351
0.69154509
0.69292299
0.6937373
0.69558993
0.69673337
0.69917355
0.70069094
0.70357143
3.7542345
3.045868
2.5365056
2.1574578
1.8898031
1.7045471
1.5703589
1.4641704
1.3728345
1.2908461
1.2169541
1.1514093
1.0949271
1.0476167
1.00891
0.97755893
0.95195977
0.93025674
0.91097904
0.89292862
0.87526478
0.85735562
0.83913868
0.82072863
0.80257491
0.78506965
0.7687375
0.75396971
0.74110937
0.73007191
0.72095032
0.7135133
0.70765482
0.70300429
0.6994627
0.69661946
0.69443933
0.69267682
0.69141215
0.69045028
0.68967279
0.68905685
0.68888343
0.68892492
0.68905187
0.68935932
0.68992625
0.69051597
0.69158348
0.69229021
0.69386358
0.6948204
0.69696255
0.6984215
0.70077184
3.7559451
3.0483867
2.5404231
2.1615247
1.8933077
1.7074093
1.5728409
1.466568
1.3753533
1.2935608
1.2198039
1.1542186
1.0975763
1.0499899
1.010988
0.97936907
0.95357962
0.93179682
0.91253285
0.89463282
0.87716877
0.85951425
0.84152577
0.82332274
0.80531687
0.78788651
0.77153462
0.75660494
0.74351692
0.73223075
0.72280729
0.71507233
0.70890403
0.7039841
0.70020287
0.69720198
0.69485259
0.69295683
0.69158211
0.69046653
0.68968
0.68896746
0.68857899
0.68851084
0.6885966
0.68876016
0.68916167
0.6896525
0.69051932
0.69117931
0.69233047
0.69325988
0.69507118
0.69638418
0.69863702
3.7584744
3.0523594
2.5458525
2.166848
1.8976056
1.710682
1.575556
1.4690925
1.3779658
1.2963458
1.2227672
1.1572269
1.1004552
1.0525911
1.0132186
0.98126954
0.95523406
0.93337407
0.91413458
0.89637111
0.87909418
0.86171903
0.84400994
0.82604231
0.80816918
0.79082449
0.7744736
0.75949507
0.74622409
0.73470204
0.72495475
0.71689758
0.71042372
0.70523036
0.70119196
0.69801821
0.69552878
0.69344231
0.69194152
0.69067347
0.68979434
0.6890434
0.68851061
0.68822294
0.68824222
0.68827905
0.68858613
0.68887626
0.68963755
0.69017654
0.69111651
0.69197952
0.69342203
0.69479131
0.69632428
3.7599865
3.0545301
2.5493562
2.1706805
1.9010371
1.7134874
1.5779369
1.4713755
1.3803035
1.2988377
1.2253978
1.1598938
1.1030393
1.0549986
1.015379
0.98319682
0.95697503
0.93499394
0.91574916
0.89812039
0.88106195
0.86387601
0.84640494
0.82867773
0.8110505
0.79384161
0.77750792
0.7624696
0.74905685
0.73739409
0.7274193
0.71909877
0.71234584
0.70684186
0.70248815
0.69910936
0.69646474
0.69424327
0.69261136
0.69126138
0.69020299
0.68940982
0.68881339
0.68834416
0.68815357
0.68821278
0.68833268
0.68860379
0.68915522
0.68941364
0.69023348
0.69081857
0.69212563
0.69346574
0.69484588
3.7633002
3.0587881
2.555061
2.1763865
1.9056731
1.7169875
1.580666
1.4737633
1.3827317
1.3014915
1.2282796
1.1629216
1.1060482
1.0577573
1.0178189
0.98529471
0.95879596
0.93672242
0.91752663
0.90003109
0.88314315
0.86621858
0.84905568
0.83162264
0.81425809
0.79730635
0.78120209
0.76632839
0.75293253
0.74116605
0.73104351
0.72253721
0.71548756
0.70972472
0.70512911
0.70152729
0.69861449
0.69621313
0.69435871
0.69283889
0.69154376
0.69056302
0.68991603
0.68926235
0.6887574
0.68859849
0.68863932
0.68884135
0.68910111
0.68946811
0.69003038
0.6906853
0.69158327
0.69271461
0.69383792
3.7649803
3.0604762
2.5578391
2.1797105
1.9089323
1.7197566
1.5830588
1.4760897
1.3850819
1.3040652
1.2309567
1.1656526
1.1088031
1.0603998
1.0203372
0.98771024
0.96107779
0.93889504
0.91982755
0.90258349
0.88591093
0.86921789
0.85235249
0.83538535
0.81852594
0.80205103
0.78649434
0.77206641
0.75910497
0.74767015
0.73765002
0.7292391
0.72209607
0.71601661
0.71110713
0.70725262
0.70403763
0.70135515
0.69924505
0.69738389
0.69574311
0.69446068
0.69358534
0.69262755
0.69178159
0.69131734
0.69116627
0.69099171
0.69095992
0.69109421
0.69118799
0.6916751
0.69233173
0.69365418
0.69433818
3.7692982
3.0656899
2.5643275
2.1862724
1.9145384
1.7239737
1.586248
1.4790077
1.3883509
1.3082563
1.2353753
1.1704239
1.1135191
1.0647837
1.0243974
0.99160464
0.96496106
0.94297193
0.92456993
0.9081038
0.89196302
0.8758539
0.85959733
0.84362387
0.8278302
0.81256038
0.79844751
0.78557533
0.77401282
0.7635786
0.75445647
0.7467731
0.73970614
0.73366083
0.72884934
0.72449148
0.72059359
0.71751703
0.71499149
0.71235005
0.70982976
0.70798545
0.70664807
0.70492067
0.70304926
0.70180533
0.70122131
0.7007348
0.70010179
0.69928627
0.69902371
0.69904952
0.69918013
0.69976334
0.69968789
3.7699664
3.070424
2.5685821
2.1909134
1.9206755
1.7290127
1.5912832
1.4853714
1.3980377
1.3217443
1.2486761
1.1835386
1.125789
1.0761972
1.0354507
1.0029447
0.97715859
0.95663163
0.94101479
0.92784422
0.9139967
0.89985983
0.88497859
0.87116188
0.85749547
0.84438065
0.83331337
0.82298112
0.81486016
0.8068809
0.80007868
0.79530949
0.78935291
0.78399054
0.78048642
0.77630923
0.77154256
0.76811168
0.76515748
0.7607607
0.75606233
0.75276217
0.75038602
0.7469952
0.7426697
0.73937003
0.73749477
0.73610747
0.73381845
0.7310395
0.72852663
0.72699945
0.72613725
0.72594551
0.72428063
3.7713498
3.1172805
2.6080515
2.2275308
1.9573545
1.755444
1.6190785
1.5181781
1.4498713
1.3917843
1.3185575
1.2483837
1.1815211
1.1251113
1.0813251
1.0489183
1.0259844
1.0128927
1.0087052
1.0071296
1.0043085
0.99884432
0.98851727
0.9787971
0.96717164
0.95679247
0.94858423
0.94196897
0.93824861
0.93676704
0.93680529
0.93809149
0.93890607
0.94079477
0.94203833
0.94180147
0.94086313
0.93874543
0.93620086
0.93114523
0.92245749
0.91615267
0.91202731
0.90418259
0.89316494
0.88377302
0.87779675
0.87482526
0.87193022
0.86592938
0.85440129
0.84527678
0.83797976
0.83587124
0.82576409
3.9079975
3.4246758
2.8798739
2.4911536
2.184783
1.9172625
1.7869758
1.7101349
1.7226002
1.7226577
1.6897962
1.5918639
1.4725049
1.3908117
1.3476944
1.3340796
1.3356388
1.3464322
1.3808979
1.4347246
1.4797507
1.5113027
1.5288596
1.5358472
1.5366874
1.5334571
1.5291073
1.527622
1.5285237
1.5329094
1.5470607
1.5806258
1.5976308
1.6199039
1.6480057
1.6638436
1.6743116
1.6849756
1.6893388
1.6890106
1.6859464
1.678832
1.6737767
1.6641071
1.6404384
1.6163655
1.604514
1.6025421
1.6015105
1.5962285
1.5768633
1.53851
1.5063714
1.4971638
1.4661519
4.6159328
4.5318578
4.1900258
4.1421253
3.7851363
3.432965
3.4336981
3.4521393
3.7362178
3.7839816
3.7293701
3.6404945
3.4889922
3.4455076
3.4284212
3.429332
3.4497134
3.5101292
3.5906685
3.6659763
3.7322972
3.7857241
3.8247406
3.8540604
3.873172
3.8838853
3.889397
3.8924936
3.8970313
3.9039795
3.9177669
3.9524911
3.9713309
4.0035023
4.0424544
4.0691567
4.0928131
4.1124468
4.1335221
4.1402604
4.1474547
4.157302
4.1568932
4.1462399
4.122143
4.1036404
4.0996137
4.1266717
4.1605392
4.1492231
4.108645
4.0278025
3.9600927
3.9672775
3.9298691
11.326393
11.729194
11.949204
12.12173
12.344302
12.323328
12.263259
12.264653
12.253638
12.352676
12.390974
12.441891
12.461544
12.439783
12.413204
12.351577
12.307061
12.283478
12.281602
12.288276
12.301299
12.323688
12.352039
12.385611
12.41889
12.456205
12.49306
12.527513
12.561845
12.594843
12.624888
12.652258
12.677075
12.699568
12.720588
12.74089
12.760551
12.779822
12.798789
12.817402
12.834532
12.851829
12.868068
12.882577
12.894015
12.903015
12.908419
12.91631
12.92573
12.939706
12.935211
12.939821
12.937154
12.921684
12.918588
13.301834
4.0562441
1.5124263
0.84201571
0.72880404
0.70197418
0.69587106
0.69506612
0.69625877
0.69781157
0.69997888
0.70233634
0.7051668
0.70830604
0.71221077
0.71658091
0.72169452
0.72776188
0.7346379
0.74269861
0.75280415
0.76624481
0.78457776
0.80110141
0.81096752
0.82848984
0.84958155
14.045843
4.6368835
1.7060015
0.89037707
0.74068237
0.70675173
0.69880016
0.69777315
0.69868108
0.70039478
0.70272999
0.70507629
0.70801399
0.71117447
0.71485988
0.71929536
0.72450175
0.73044128
0.7373848
0.74515983
0.75440752
0.76724789
0.78531249
0.80240332
0.81287175
0.8302829
0.85091487
14.863439
5.2192971
1.8522738
0.92655976
0.74823863
0.71036184
0.70103143
0.69969932
0.700485
0.70228457
0.70454431
0.70715681
0.71038661
0.7140068
0.718222
0.72267361
0.72789206
0.73388785
0.74084346
0.74880659
0.75794531
0.76978899
0.78757116
0.80584083
0.81659776
0.83361906
0.85418192
15.78428
5.1115706
1.8704144
0.93636616
0.75242515
0.713033
0.70297379
0.70157792
0.70223376
0.70417511
0.70661678
0.70925674
0.71256211
0.71632815
0.72078293
0.72572618
0.73100823
0.73711568
0.74402339
0.75198003
0.76101531
0.77211744
0.78939866
0.80877946
0.82033784
0.83686363
0.85695462
16.678991
4.8986707
1.8893575
0.95131852
0.76036306
0.71810536
0.70688216
0.70564235
0.70613873
0.70802644
0.71071055
0.71337005
0.7165636
0.72007433
0.72410322
0.72895838
0.73451627
0.74080389
0.74801882
0.75604642
0.76489456
0.77523595
0.79152909
0.81128489
0.82358284
0.83955002
0.85904876
17.610326
5.2983458
2.0227714
1.0055015
0.78424901
0.73026774
0.71531077
0.71162445
0.71162742
0.71287583
0.71548168
0.71828375
0.72142408
0.72490222
0.72879754
0.7330746
0.73833172
0.74434768
0.75143464
0.75964337
0.76863336
0.77877249
0.79411019
0.81507784
0.82801978
0.8446743
0.86404556
18.669607
6.6838835
2.4452094
1.1363748
0.81343713
0.74200253
0.72141098
0.71546676
0.71500908
0.71599029
0.71839622
0.72135368
0.7246377
0.72824774
0.73258861
0.737417
0.74298241
0.7492836
0.75642295
0.76434554
0.77315069
0.7821272
0.79607061
0.81734134
0.83055675
0.84739957
0.867781
19.886625
7.1179492
2.5415253
1.1677902
0.81969091
0.74646528
0.72347243
0.71729682
0.7166705
0.71760498
0.72018747
0.72313612
0.72657767
0.7303574
0.73478766
0.73997815
0.74569472
0.75236286
0.7598588
0.76843625
0.77783766
0.78716173
0.79982035
0.82143429
0.83502527
0.85210773
0.87238491
21.216016
6.3225287
2.4346083
1.1479797
0.8212678
0.74856731
0.72610103
0.72002747
0.71940817
0.72044397
0.72331458
0.72648323
0.73010652
0.73424837
0.73887939
0.74421591
0.74995413
0.75628965
0.76324691
0.77129634
0.78054482
0.7899155
0.80169974
0.8233652
0.83787029
0.85517029
0.87665947
22.375002
6.1185382
2.4213487
1.1517587
0.82834751
0.75322474
0.73302302
0.72703114
0.72647988
0.72759935
0.73066892
0.73397705
0.73739264
0.74144392
0.74573916
0.75069696
0.75633012
0.76261793
0.76973388
0.77765725
0.78666037
0.79586263
0.80602351
0.82671307
0.84147994
0.85756241
0.87943774
23.651573
7.2747935
2.6739359
1.2222147
0.8586547
0.76734561
0.74809574
0.73723389
0.73547371
0.73561989
0.73771094
0.74095642
0.74439027
0.74843023
0.75269515
0.7572386
0.76224661
0.76791439
0.77448658
0.78203484
0.79100212
0.80050043
0.80988276
0.82990835
0.84573609
0.86109509
0.88329388
25.205665
8.6801349
2.9447009
1.3179738
0.8774217
0.78193037
0.75407129
0.74202783
0.73915864
0.73897924
0.74081081
0.74430264
0.7480534
0.75233076
0.75706602
0.7623784
0.76818988
0.77441606
0.78122806
0.7888136
0.79762615
0.80702048
0.81538215
0.83353413
0.84965566
0.8635507
0.8854244
26.985265
7.8678976
2.8426114
1.3002278
0.87879127
0.78525954
0.7563351
0.7449789
0.74145368
0.74138764
0.74312172
0.74670011
0.75063239
0.75495485
0.75984296
0.76529922
0.77139113
0.77791314
0.78513004
0.79335884
0.8027001
0.81339816
0.82158247
0.8390138
0.85578489
0.86862508
0.88947239
28.515297
6.9924539
2.7399771
1.288406
0.88385458
0.78979317
0.76181685
0.75075068
0.74642695
0.74622826
0.74782265
0.75142121
0.75558043
0.76018364
0.76525554
0.77094681
0.77695183
0.78358838
0.79064408
0.7984414
0.80724899
0.81801914
0.82600377
0.84231058
0.85970484
0.87209883
0.89218829
30.110144
7.662607
2.9060239
1.346971
0.9160684
0.80232845
0.78027598
0.7655624
0.76022992
0.75854762
0.75916151
0.76205332
0.76534771
0.76910839
0.7733708
0.77819308
0.78369295
0.7899037
0.79704556
0.80498555
0.81375907
0.82491826
0.83245521
0.84771971
0.86503432
0.87692504
0.89566047
31.987743
10.597302
3.6548995
1.5802749
0.98677028
0.83474907
0.80141448
0.78098981
0.77381864
0.76902989
0.76918689
0.77084869
0.77383791
0.7773877
0.78132988
0.78577327
0.79066668
0.79627647
0.80260153
0.81009561
0.81840063
0.82956218
0.83729831
0.85152191
0.86955779
0.88183014
0.89967072
34.242574
11.590253
3.8267277
1.6542912
0.99306831
0.84936687
0.80422143
0.78654174
0.77725446
0.77264316
0.77283991
0.77457007
0.77821586
0.78202811
0.78625677
0.79099625
0.79641478
0.80269166
0.80929621
0.81687965
0.82462363
0.8354689
0.84276505
0.85506817
0.87312113
0.88513126
0.90182995
36.582557
9.6431691
3.4809437
1.562805
0.97619676
0.84664178
0.80384143
0.78850546
0.77899476
0.77514651
0.77511592
0.77703678
0.78091929
0.78487987
0.78951896
0.79505004
0.80087631
0.80734829
0.81416264
0.82221123
0.82990267
0.84105282
0.84886653
0.85955587
0.8776288
0.88977001
0.90508706
38.609831
8.2222256
3.1480792
1.4833964
0.97297084
0.84638515
0.80674806
0.79266829
0.78369834
0.78018455
0.77974591
0.78170813
0.7856228
0.78999896
0.79512393
0.8005464
0.80655659
0.8131845
0.82009532
0.8281465
0.83550443
0.8462644
0.85430135
0.86355464
0.88122417
0.89382545
0.90834218
40.763205
8.8713488
3.2615055
1.5252834
0.99307418
0.85324629
0.82047779
0.80400316
0.79809123
0.7931423
0.79207772
0.79326988
0.79661928
0.80064615
0.80463967
0.8092996
0.81434303
0.82034288
0.82654155
0.83438686
0.84152814
0.85195429
0.86045193
0.86855243
0.88552599
0.89821903
0.91190272
43.220441
11.171268
3.9098325
1.7422038
1.0765726
0.88322891
0.85218683
0.8278623
0.82104362
0.81022686
0.80731641
0.8062497
0.80772067
0.81062299
0.81415206
0.81837122
0.82329208
0.82899893
0.83487582
0.84203805
0.84850021
0.85821073
0.86659631
0.87404219
0.8898298
0.90305325
0.91673746
45.845782
15.897455
4.9765494
2.0392444
1.1494879
0.92088629
0.86530961
0.84108008
0.82994645
0.81764372
0.81327695
0.81158422
0.81271128
0.81558001
0.81935549
0.82358757
0.82845989
0.83415955
0.84003856
0.8473551
0.85393098
0.86344643
0.87204496
0.87886307
0.89326146
0.90675416
0.9204619
49.170742
14.299128
4.6861272
1.9942649
1.1320286
0.92145528
0.86201557
0.8417137
0.82944636
0.81886703
0.81427029
0.81307072
0.81437856
0.81770548
0.82192064
0.82627218
0.83132331
0.83732649
0.84351728
0.85116228
0.85801784
0.86760854
0.877048
0.88380065
0.89749258
0.91096848
0.92496501
51.794493
9.8967148
3.6391152
1.7425422
1.0827332
0.91224926
0.8587247
0.8415955
0.82968293
0.82100864
0.81634267
0.81573234
0.81711819
0.82083192
0.8253207
0.83025134
0.83637313
0.84327342
0.85008543
0.8579848
0.86487318
0.87375599
0.88326556
0.88957565
0.90172807
0.91471914
0.92934266
54.438082
11.118879
3.7092231
1.7560514
1.0962561
0.91897635
0.86399169
0.84635576
0.8346046
0.8277382
0.82273074
0.82237951
0.823777
0.82853779
0.83381534
0.83967468
0.84551902
0.85158799
0.8576085
0.86488689
0.87146529
0.87975964
0.88934231
0.89535669
0.9064892
0.9186856
0.93248247
57.299792
16.272928
4.7380771
2.002473
1.1797587
0.94941179
0.88546183
0.86384982
0.85309521
0.84712838
0.84104876
0.83882512
0.83930749
0.84245397
0.84648366
0.85101642
0.85529946
0.86042822
0.8654276
0.8717157
0.87776598
0.88492908
0.8945927
0.90054824
0.91089474
0.92226774
0.93691513
60.335782
16.165811
5.1032874
2.2017106
1.2714354
0.98529011
0.91067862
0.88193916
0.872273
0.86247659
0.85492211
0.8496568
0.84883276
0.85004845
0.85263196
0.85613934
0.8595426
0.86406949
0.86839563
0.87419894
0.8799631
0.88659153
0.89624229
0.90227453
0.91227384
0.92307901
0.93765649
63.403333
14.487669
5.0359986
2.2441867
1.3067276
1.0052528
0.92294751
0.89097773
0.880562
0.86868786
0.860405
0.85380277
0.85247615
0.85287639
0.85504545
0.85838322
0.8620086
0.86668237
0.87113823
0.87704354
0.88314738
0.88975959
0.89965425
0.90623347
0.91587263
0.92574228
0.94017707
66.429197
13.829734
4.9176816
2.2791389
1.3424129
1.0275164
0.93626509
0.90112428
0.88792295
0.8752005
0.86631881
0.8595008
0.85756555
0.85759633
0.85916247
0.8624259
0.8660128
0.87086043
0.87562308
0.88150479
0.88764173
0.89354751
0.90292028
0.90933975
0.91855161
0.92754733
0.94203266
69.384909
13.786871
4.8480816
2.2987534
1.3695725
1.0488495
0.94868299
0.91190672
0.89652775
0.88386591
0.87453775
0.8673986
0.86439016
0.863842
0.86483404
0.86770631
0.87073606
0.87497088
0.87936963
0.88493407
0.89126791
0.89705893
0.90632195
0.9128498
0.92184683
0.92982262
0.94301047
72.246482
13.898578
4.8361247
2.3035957
1.3828189
1.0614017
0.95578788
0.91843435
0.90076534
0.88916205
0.87996808
0.87320954
0.86986528
0.86911389
0.87004906
0.87295781
0.87630746
0.88065132
0.88488813
0.89009756
0.89592165
0.90135639
0.91010451
0.91672069
0.92555539
0.93300245
0.94552978
74.9751
14.128539
4.8590637
2.3103283
1.3954069
1.0697702
0.95994022
0.92230182
0.90433777
0.89416593
0.88503386
0.87861811
0.87471551
0.87393773
0.87471394
0.87728605
0.88026103
0.88438767
0.88868819
0.89387904
0.89967264
0.90476892
0.91303849
0.91927114
0.92789294
0.93481514
0.94671715
77.520696
14.541811
4.8995482
2.3153961
1.4030305
1.0735768
0.96099141
0.92318895
0.90562225
0.89660519
0.8883576
0.88221944
0.87812392
0.87726253
0.87799233
0.88049241
0.88328454
0.88713787
0.89131986
0.89646487
0.90243219
0.90774215
0.91619759
0.92276668
0.93153943
0.93831536
0.94934351
79.842067
14.936161
4.9658023
2.3244128
1.4072496
1.0747518
0.96094604
0.9236623
0.90613978
0.89763759
0.88962332
0.88355406
0.87945077
0.87851571
0.87937576
0.88213312
0.88524151
0.88924283
0.89346192
0.89861827
0.90444738
0.90977707
0.91791611
0.924539
0.93324342
0.93988927
0.95073163
81.897109
15.495365
5.0830004
2.3401012
1.4112776
1.0753278
0.96099475
0.92397006
0.90673628
0.8982743
0.89028576
0.88414351
0.87981739
0.87869627
0.87954808
0.88248061
0.88594432
0.89018227
0.89461683
0.899785
0.90562166
0.91102809
0.91912971
0.92585158
0.93454488
0.94125549
0.95204203
83.641438
16.16721
5.2964379
2.3629592
1.4156648
1.0758926
0.96130403
0.92452645
0.90760909
0.89889766
0.89078133
0.88447851
0.88001738
0.87871493
0.87951839
0.88247389
0.88610966
0.89057992
0.89559396
0.90116086
0.90718344
0.91269524
0.92065032
0.92752805
0.93632012
0.94281934
0.95366634
85.035762
16.362122
5.4548456
2.3938822
1.4213548
1.0774523
0.9626386
0.92633087
0.90972573
0.90034323
0.89191316
0.88525768
0.88056274
0.87901958
0.8797639
0.88281946
0.88674265
0.89167295
0.89719147
0.90320287
0.90956594
0.91551402
0.92343934
0.93042963
0.93915923
0.9453267
0.95621067
86.057696
16.223623
5.5354486
2.4373957
1.4321521
1.0817302
0.96723761
0.93180334
0.91552456
0.90474981
0.89555416
0.88805734
0.88282421
0.88083529
0.88142023
0.88455209
0.8889951
0.894191
0.89964506
0.90562024
0.91203845
0.91814194
0.92588797
0.93265996
0.9414177
0.94711695
0.9580033
86.684919
16.144091
5.6200575
2.5167496
1.4625452
1.0957323
0.98011021
0.94108134
0.92390497
0.91266625
0.90328207
0.89509923
0.8891877
0.88655393
0.88666824
0.88929921
0.89314442
0.89762832
0.90257514
0.9080998
0.91429055
0.92031096
0.92820427
0.93509521
0.944017
0.94985738
0.96031728
86.899621
16.323646
5.7416191
2.6119915
1.5155218
1.1215163
0.99234475
0.9485217
0.93055416
0.91903269
0.90962426
0.90138395
0.89521313
0.89234303
0.89199987
0.89384632
0.89699649
0.90090307
0.90534431
0.91040726
0.91616913
0.92190754
0.92961924
0.93619638
0.94511077
0.95106052
0.96148176
86.695758
16.379413
5.7888423
2.6567421
1.5408218
1.1341305
0.99812092
0.95223116
0.93383347
0.92217985
0.91280438
0.90459433
0.89835359
0.89552971
0.89500016
0.89652452
0.89938477
0.90298554
0.90714752
0.91181229
0.91737711
0.92299487
0.93086487
0.93796952
0.94671308
0.95323577
0.96337005
86.083277
16.063802
5.7624571
2.6619712
1.5455022
1.1369665
0.99949604
0.95305753
0.93449666
0.92282956
0.91347351
0.90531035
0.89912135
0.89647838
0.89596174
0.89744735
0.9003286
0.9038761
0.90813546
0.91297316
0.91860542
0.92432848
0.93173159
0.93849103
0.94707899
0.95395035
0.96433936
85.077557
15.500287
5.5928013
2.6236219
1.5332482
1.1333491
0.99843581
0.95274941
0.93423503
0.92263578
0.91332114
0.90512628
0.89911611
0.89643163
0.89608377
0.89750032
0.90056286
0.9041825
0.9085089
0.91344486
0.91899063
0.92507265
0.9327442
0.94022516
0.94864273
0.95633504
0.96651157
83.702433
15.062179
5.3866877
2.5216597
1.4865638
1.1147853
0.99159042
0.94987863
0.93234338
0.92090006
0.91192096
0.90380088
0.8983785
0.89600689
0.89582179
0.89742561
0.90047409
0.90435807
0.90875925
0.91412003
0.91964025
0.92589514
0.93316771
0.94089952
0.94931672
0.95738304
0.96818987
81.981094
14.601705
5.1485714
2.3948851
1.4263909
1.0881609
0.97868149
0.94166551
0.92605936
0.91539391
0.90696597
0.89976703
0.895449
0.89444151
0.89452588
0.8971158
0.90028456
0.90449961
0.90906764
0.91433791
0.92030829
0.92697912
0.93533294
0.94301297
0.95188602
0.96036556
0.97048317
79.947407
14.150287
4.9209684
2.2782385
1.3713489
1.0642097
0.96665751
0.9337572
0.91945292
0.90964503
0.90196248
0.89535204
0.89243732
0.89171837
0.89297662
0.89626193
0.90024276
0.90458852
0.90936261
0.9152006
0.92141816
0.92831662
0.93639516
0.94442516
0.95321284
0.96223668
0.97367042
77.645751
13.728857
4.7129112
2.1762766
1.32576
1.0451605
0.95768478
0.92814996
0.91518832
0.90590871
0.89856564
0.89270724
0.89061347
0.8903652
0.89221939