/*--------------------------------*- C++ -*----------------------------------*\
| =========                 |                                                 |
| \\      /  F ield         | OpenFOAM: The Open Source CFD Toolbox           |
|  \\    /   O peration     | Version:  2406                                  |
|   \\  /    A nd           | Website:  www.openfoam.com                      |
|    \\/     M anipulation  |                                                 |
\*---------------------------------------------------------------------------*/
FoamFile
{
    version     2.0;
    format      ascii;
    arch        "LSB;label=32;scalar=64";
    class       volScalarField;
    location    "15";
    object      omega;
}
// * * * * * * * * * * * * * * * * * * * * * * * * * * * * * * * * * * * * * //

dimensions      [0 0 -1 0 0 0 0];

internalField   nonuniform List<scalar> 
62344
(
4.3531007
3.4066129
2.7661523
2.3273847
2.0349629
1.8399816
1.6949785
1.5753695
1.4717604
1.3805163
1.2965696
1.229141
1.17114
1.1232955
1.0850744
1.0526672
1.0249347
0.99912554
0.98677565
0.97484681
0.95154915
0.93217233
0.91273979
0.89715073
0.87983674
0.86858954
0.85566306
0.84959906
0.85268522
0.86897488
0.8972731
0.92377273
0.94858547
0.96767234
1.0146431
1.0570751
1.1296697
1.1843372
1.3181633
1.4345243
1.6645742
1.8506931
2.0972286
2.2972415
2.5090253
2.7804982
3.1349408
3.6170796
4.1907739
4.7378702
5.292571
5.7996325
6.2486482
6.7611339
7.4926366
4.358273
3.4154901
2.7745227
2.3348671
2.0399301
1.8461575
1.700947
1.5817149
1.4780336
1.3861256
1.3026657
1.2318657
1.1734844
1.1261185
1.0881607
1.0528954
1.0249875
0.99890859
0.98504145
0.97213585
0.94676303
0.92747233
0.91124248
0.89781311
0.87900484
0.86537694
0.8540517
0.8415825
0.83841625
0.84639926
0.86185972
0.88701502
0.9134811
0.9334832
0.97942388
1.0172219
1.0724586
1.1169034
1.2289656
1.3386092
1.5306425
1.6673822
1.8908735
2.0193931
2.3129505
2.5744631
2.9789856
3.435957
4.0528649
4.6186607
5.2919903
5.7245652
6.2338806
6.5334285
7.1331354
4.3629885
3.4230329
2.7808589
2.3397479
2.0441142
1.8479913
1.7052876
1.5854453
1.4812462
1.3870055
1.3069683
1.2374831
1.1746413
1.1265652
1.0874731
1.0587284
1.0281172
0.99983412
0.98833019
0.97504578
0.94985436
0.92650179
0.91572507
0.90463839
0.88677436
0.86933809
0.85713775
0.8463341
0.8449442
0.85247854
0.86496066
0.88298516
0.90603683
0.92893535
0.97244103
1.0060289
1.0558325
1.092123
1.1796913
1.2698031
1.421337
1.5440818
1.7380964
1.8712277
2.1566854
2.3680459
2.7670264
3.0600028
3.614618
4.0700551
4.7533001
5.2583448
5.929951
6.2332303
6.8946249
4.3676317
3.4302371
2.7894358
2.3455765
2.0501885
1.8523037
1.7082897
1.5908511
1.4875951
1.3925652
1.3106637
1.2410947
1.1798647
1.1327366
1.0961315
1.0631537
1.0291774
1.005472
0.9868777
0.97392696
0.95510409
0.93488956
0.92109891
0.90671516
0.8910171
0.87693319
0.86066377
0.8512236
0.85075683
0.85689054
0.86576424
0.87674549
0.89321088
0.92620762
0.97424177
1.006304
1.0544562
1.0909508
1.1800382
1.2629861
1.3951289
1.5006126
1.6750088
1.8020714
2.072171
2.2741987
2.6243852
2.8960267
3.3737121
3.6909484
4.2186872
4.6171116
5.258537
5.6598227
6.2857046
4.3720775
3.43554
2.7952113
2.3502667
2.0532507
1.855478
1.711182
1.5944366
1.4918469
1.3978491
1.3148018
1.2443637
1.1831032
1.135694
1.0980009
1.063241
1.0333743
1.0067706
0.99078766
0.97850763
0.95842503
0.93947984
0.92473562
0.90731573
0.89417965
0.88131366
0.86621703
0.85822824
0.85601883
0.85812946
0.8646304
0.87214531
0.88268228
0.91867243
0.96651893
0.9945826
1.0448843
1.0875485
1.182356
1.2656251
1.3867725
1.4867504
1.6326315
1.7466091
2.0061614
2.2092511
2.5846172
2.8936636
3.2936928
3.5788307
4.0665379
4.3834789
4.8699064
5.2766163
5.7670033
4.3761457
3.4417077
2.8019202
2.3564207
2.0583709
1.8588817
1.7158742
1.5990621
1.4953492
1.4014031
1.3189036
1.2504237
1.1871921
1.1378112
1.1008946
1.0693275
1.0358241
1.0101445
0.99773074
0.98158308
0.96122565
0.9408659
0.92490197
0.91171588
0.90020166
0.88936552
0.87471787
0.86464809
0.85932901
0.85797215
0.86288984
0.87035836
0.87980774
0.90817794
0.95142205
0.98209865
1.0368072
1.0822662
1.1836479
1.2657192
1.3811141
1.4881363
1.5812993
1.6813272
1.9051467
2.0931613
2.4432279
2.7363948
3.0796008
3.382084
3.7813948
4.2193079
4.6429411
5.1004925
5.6116656
4.3805498
3.448032
2.8079878
2.3616484
2.0620271
1.8635926
1.7192971
1.6035444
1.5000996
1.4065638
1.3242252
1.2530331
1.1913909
1.1462343
1.1071586
1.0741133
1.0380431
1.0159961
0.99967989
0.97946143
0.96353895
0.94555982
0.92682755
0.91548299
0.90389198
0.89366521
0.87997892
0.86759903
0.85896809
0.86046077
0.8644307
0.87038887
0.88018869
0.9061102
0.94406595
0.97793151
1.0280957
1.0751027
1.1703548
1.2512448
1.3592167
1.4635574
1.5505294
1.6605611
1.8565665
2.0821782
2.3630034
2.6217753
2.962112
3.2420337
3.5142607
3.9125182
4.2641701
4.7505397
5.3511326
4.3844965
3.4548434
2.8136705
2.3675955
2.0661828
1.8666698
1.7235038
1.6077214
1.5037077
1.4096109
1.3285203
1.2573229
1.1931111
1.1473041
1.1070964
1.0762074
1.0480744
1.0179427
1.0032135
0.98806719
0.96959593
0.95071143
0.93303299
0.91732017
0.90416889
0.89303466
0.87851095
0.86461418
0.85710846
0.86142747
0.86633892
0.87083554
0.8804606
0.90504092
0.93624353
0.97477622
1.0151498
1.0676582
1.1495367
1.2218527
1.3160781
1.4345868
1.5223856
1.6383502
1.8140004
2.0771315
2.3191428
2.5675157
2.8962042
3.1842969
3.4352358
3.7751639
4.1009687
4.5734413
5.0688391
4.3878035
3.4605306
2.8192509
2.3721098
2.0713597
1.8686407
1.7271656
1.6113715
1.5074735
1.4128921
1.3331837
1.2617692
1.1968951
1.14776
1.1100013
1.0818201
1.0536377
1.018501
1.0052753
0.99098146
0.97247601
0.95285964
0.93703868
0.92071488
0.90830419
0.9007661
0.88270189
0.8661144
0.86009941
0.86478278
0.86884613
0.87156725
0.8813251
0.90449402
0.92878022
0.96911177
1.001666
1.0486436
1.1274411
1.2076178
1.2894621
1.4098648
1.5032348
1.6186364
1.7673473
2.0333559
2.2309228
2.4542476
2.7567165
3.0639038
3.3682009
3.7076059
4.0368968
4.5254812
5.0203362
4.3910655
3.4654412
2.8253888
2.3764203
2.0756153
1.8729678
1.7297023
1.6154145
1.5134454
1.4179455
1.3359415
1.2648764
1.2010044
1.154149
1.115717
1.0877996
1.0522834
1.0261636
1.005999
0.98662015
0.97079928
0.9575472
0.94019367
0.92150694
0.90963603
0.903885
0.88755999
0.87162097
0.86355053
0.86648051
0.86855178
0.86962604
0.88024473
0.90393762
0.92332057
0.95605681
0.98840028
1.0406869
1.1203002
1.2109259
1.2862154
1.3993321
1.4978637
1.6070705
1.756567
1.9650328
2.1676699
2.3849154
2.6299402
2.8734521
3.2035518
3.5249006
3.8322134
4.305628
4.8689166
4.3944942
3.4702904
2.8305422
2.3808977
2.0787589
1.8769067
1.7322231
1.618797
1.5178105
1.4218673
1.3366972
1.2719704
1.2042373
1.1560954
1.117747
1.0892088
1.0559985
1.0329119
1.0093862
0.98688142
0.97297507
0.96159409
0.94312383
0.92213441
0.91027369
0.90159297
0.88739867
0.87720727
0.86884907
0.86868066
0.86885399
0.86862426
0.87827798
0.90112234
0.91837043
0.94198623
0.97643038
1.0374037
1.119211
1.2152335
1.2948559
1.3982323
1.4986193
1.6050537
1.7656655
1.944301
2.1474899
2.3736947
2.6030062
2.800597
3.1118808
3.3869887
3.7052664
4.0022472
4.4869411
4.3975406
3.4751416
2.8358293
2.3852909
2.0819836
1.8801138
1.73469
1.6202549
1.5208087
1.4250435
1.3407077
1.2757542
1.2080922
1.158125
1.1185277
1.0908626
1.064754
1.0321897
1.0134458
0.99458666
0.98012444
0.96378053
0.94587355
0.92776731
0.91732114
0.90355287
0.8919862
0.88258654
0.87558732
0.87676744
0.87526139
0.87328346
0.88026798
0.89892465
0.91523471
0.93495272
0.96832258
1.031198
1.1177963
1.2079337
1.293517
1.3785662
1.4710758
1.5686527
1.7399147
1.8893981
2.0921204
2.3193785
2.5428391
2.7365285
2.9754799
3.2627899
3.5767857
3.8436175
4.2726204
4.4004748
3.4800307
2.8416062
2.3898219
2.0855376
1.8829315
1.7378156
1.6224104
1.5232322
1.4276562
1.3457974
1.2744185
1.2124368
1.1614888
1.1210255
1.0922774
1.0674128
1.0339985
1.0127123
0.99775449
0.98121187
0.96650188
0.94921002
0.93248579
0.9209119
0.90844313
0.90030728
0.8883742
0.88003945
0.8821994
0.88013014
0.8770084
0.88297785
0.90025018
0.91739574
0.93741694
0.9669038
1.0285242
1.1125943
1.1962272
1.269648
1.3561714
1.426734
1.5324406
1.6555267
1.8079373
1.9744276
2.199039
2.3964943
2.6174074
2.7674283
3.0444368
3.3357603
3.6009612
4.0319778
4.4032828
3.4847036
2.8469096
2.3945636
2.0896848
1.8851377
1.7417041
1.6277939
1.526699
1.4314787
1.3480936
1.2763979
1.216597
1.1616622
1.1245699
1.0939126
1.0663815
1.0421539
1.0139069
0.99688682
0.98096532
0.96937977
0.95364648
0.93666794
0.92210687
0.91012383
0.90291729
0.89345836
0.88514845
0.88461009
0.88257274
0.88040398
0.88728071
0.90736736
0.92720012
0.94962879
0.97542595
1.0348558
1.109539
1.1914449
1.2537282
1.3433805
1.4085328
1.5199696
1.6180883
1.7657449
1.9123881
2.1249107
2.3074018
2.532008
2.6861237
2.9486056
3.182235
3.4931719
3.8188061
4.4061768
3.4896712
2.8516191
2.3989957
2.0935446
1.8879889
1.7439151
1.6320822
1.5300673
1.4367777
1.3496276
1.2840462
1.2215208
1.161593
1.1295261
1.0971317
1.0706887
1.0500693
1.0183873
0.99537948
0.98082968
0.96933369
0.9558737
0.94038973
0.92582388
0.91172144
0.90192744
0.89373656
0.88910541
0.88900411
0.88857998
0.88832509
0.89755346
0.92168543
0.94287792
0.96796465
0.99035822
1.0494904
1.1171449
1.1932056
1.2496333
1.3394446
1.4063336
1.5199476
1.6137584
1.7597891
1.8994608
2.1053978
2.2795674
2.5126235
2.6694359
2.9429998
3.1798144
3.5242578
3.7750144
4.4087908
3.4943237
2.8556195
2.402719
2.0964877
1.89132
1.745131
1.6327731
1.5321037
1.4402666
1.3542438
1.2880919
1.2229663
1.1671815
1.1321987
1.1000893
1.0749988
1.0491273
1.0235231
0.99637789
0.98296623
0.96863462
0.9563473
0.94334895
0.93018325
0.91522987
0.90235382
0.89403538
0.89011295
0.89256087
0.89561104
0.89789638
0.91101478
0.93833499
0.96119176
0.98802113
1.0095137
1.0675048
1.1321339
1.2044071
1.2558952
1.3452338
1.4157754
1.5349637
1.6299567
1.7845943
1.9254231
2.1193193
2.2855778
2.5279759
2.7135119
3.0203038
3.2649951
3.6249396
3.8319333
4.4114605
3.4992605
2.8600716
2.4065833
2.0992848
1.8939638
1.7471398
1.6326923
1.5330622
1.4409898
1.3586448
1.2876594
1.2231287
1.1715543
1.1314035
1.1002127
1.0763045
1.0453306
1.0245157
1.0017085
0.98664831
0.97021659
0.95895719
0.94822211
0.93699144
0.92231316
0.90676871
0.89760819
0.89191935
0.89629422
0.90231671
0.90747197
0.92506365
0.95794772
0.98526746
1.0199172
1.0421001
1.0975076
1.1583919
1.2320398
1.2818509
1.3711875
1.4493851
1.5702783
1.6774049
1.8360317
1.9875952
2.175005
2.3192499
2.5548638
2.7600648
3.0593912
3.322703
3.6733406
3.8886498
4.4134477
3.5031245
2.8645336
2.4106975
2.1028067
1.8962009
1.7508446
1.6356559
1.5363705
1.4427504
1.3617478
1.287928
1.2263355
1.1736699
1.1309277
1.1018733
1.0797398
1.0502943
1.0260317
1.0106254
0.99288853
0.978291
0.96776016
0.95698206
0.94787684
0.93427946
0.91728417
0.90876464
0.90278474
0.90751002
0.91545134
0.92344361
0.94451254
0.98148298
1.019772
1.0681389
1.0973111
1.1584848
1.2282067
1.3017242
1.354176
1.4424738
1.530193
1.646756
1.763346
1.9268554
2.0843898
2.2632391
2.4008531
2.6085945
2.7932986
3.0715518
3.3049752
3.6176975
3.8257731
4.4159921
3.5076037
2.8699082
2.4154712
2.1075002
1.8996238
1.7557051
1.6425894
1.5442802
1.4496331
1.3670632
1.2951549
1.2377188
1.1786376
1.1387639
1.1143043
1.0935669
1.0724361
1.0415365
1.0252114
1.0081242
0.99879383
0.98878673
0.97698889
0.96915065
0.95701635
0.94196959
0.93545453
0.93255873
0.93795969
0.94771653
0.95956056
0.9826659
1.0255109
1.0681014
1.1256067
1.1717598
1.2476981
1.3440565
1.4292638
1.5080747
1.6029666
1.702215
1.815469
1.9242024
2.0730532
2.2327193
2.4226121
2.5505925
2.7357026
2.8886005
3.1426967
3.3214103
3.5950138
3.7789765
4.4176403
3.511261
2.8750782
2.4207923
2.1135195
1.9065307
1.7623879
1.6529293
1.5578244
1.4644822
1.3800362
1.3142778
1.2580806
1.197413
1.1604576
1.1427445
1.1253752
1.1093314
1.0754742
1.0539508
1.0400053
1.0348788
1.0263181
1.0135481
1.006449
0.99500349
0.98207225
0.97681445
0.97963719
0.98770519
1.0015577
1.0203173
1.0456755
1.0923204
1.1375821
1.198733
1.2605392
1.3563336
1.460057
1.5636671
1.6727013
1.8035659
1.9203148
2.0631391
2.2014643
2.3526941
2.4856688
2.6731451
2.8138928
2.9975874
3.1235383
3.3418537
3.4879286
3.7056255
3.8589437
4.4215844
3.5182695
2.8842752
2.4320499
2.1270467
1.9235785
1.7798384
1.6732259
1.5828514
1.4926678
1.4090471
1.3480658
1.2915487
1.234172
1.2015934
1.1860919
1.1723313
1.156759
1.1264025
1.1042539
1.0952403
1.0939254
1.0898064
1.0799667
1.0725884
1.0631252
1.0518637
1.0475322
1.0525988
1.0637922
1.0842818
1.1143804
1.1441943
1.193114
1.2442229
1.3068345
1.3860494
1.5058674
1.6171388
1.7180088
1.8550163
2.0179813
2.1554686
2.3209422
2.5168984
2.7234784
2.8745787
3.0673889
3.2328707
3.44445
3.5768687
3.7556249
3.8623461
4.0439557
4.133929
4.4273617
3.5330838
2.9092879
2.4658134
2.1663883
1.9674797
1.8239054
1.7174123
1.6282268
1.5408239
1.4599156
1.4011544
1.3477399
1.3003849
1.274221
1.2655194
1.2626012
1.255002
1.2375398
1.2254668
1.2248991
1.2307401
1.2369691
1.2361708
1.2355668
1.232088
1.2256622
1.2215064
1.2271374
1.2476634
1.2841034
1.3276452
1.3580053
1.4056659
1.4597577
1.5325893
1.6030334
1.7302114
1.8428244
1.9536368
2.097709
2.2675539
2.4100617
2.5879408
2.8109436
3.0596553
3.2641896
3.4940148
3.7126361
3.9534346
4.1352116
4.3573766
4.4925424
4.7132522
4.7092881
4.462516
3.5926574
2.9894819
2.5516252
2.2561889
2.0621165
1.9258475
1.8312736
1.7527907
1.6791315
1.614029
1.5786082
1.5463684
1.5285672
1.5295542
1.544076
1.5826899
1.6034787
1.6106215
1.6276398
1.6467505
1.6809167
1.7116399
1.7358299
1.7510036
1.7668239
1.7733533
1.7751738
1.7951219
1.8463689
1.9147769
1.9806109
2.022243
2.0792938
2.1343924
2.2196586
2.2875796
2.4220913
2.5411896
2.669358
2.8233239
3.0020143
3.1385771
3.2854834
3.4560858
3.6923354
3.9077702
4.1442877
4.3844154
4.6497786
4.8649766
5.1395451
5.3032232
5.6045425
5.6602248
4.5309864
3.6932754
3.1753535
2.8295445
2.6177494
2.4959457
2.4211347
2.3948955
2.3787411
2.3530635
2.3539888
2.3852678
2.4205084
2.471951
2.5325167
2.6357734
2.7534479
2.822832
2.8766801
2.9564848
3.0311458
3.1066248
3.1844617
3.2565652
3.3006484
3.351992
3.3775343
3.3990949
3.4401056
3.5310331
3.6328558
3.7244662
3.7861975
3.8632768
3.9266886
4.0052924
4.0725087
4.2230396
4.3478117
4.4975788
4.6738229
4.8854401
5.0369401
5.1796441
5.3162848
5.4690192
5.6152072
5.8345207
6.0081066
6.2442125
6.4974241
6.8004267
6.9821195
7.3892288
7.5118938
4.6408032
4.3356819
4.3738507
4.4962024
4.6732522
4.8082604
4.8812106
4.9850937
5.098258
5.1490525
5.2196491
5.3674338
5.489926
5.5979091
5.7302655
5.9051235
6.1239619
6.2538697
6.3388532
6.4732927
6.5986286
6.7348924
6.87716
6.9882206
7.0718452
7.1831198
7.2417364
7.2568994
7.3110376
7.4289061
7.5756244
7.6759996
7.7616406
7.8504421
7.8927919
7.927187
8.0189221
8.133236
8.2460977
8.4293885
8.5959899
8.7686738
8.8912449
9.048336
9.2634122
9.3943877
9.4869569
9.6376969
9.7693027
9.8598266
10.042235
10.399039
10.585032
11.022453
11.129714
8.2360916
11.119819
12.071643
12.435698
12.873226
13.14407
13.283777
13.55178
13.865647
13.90595
14.043181
14.319147
14.456746
14.676188
14.946321
15.181703
15.694034
15.970036
15.833119
15.79091
15.80662
16.01695
16.409548
16.463863
16.579306
16.801142
16.887272
16.776193
16.764264
16.918955
17.305327
17.492593
17.619073
17.658561
17.695586
17.707452
17.848577
17.894584
18.052719
18.389011
18.746184
18.821715
18.595458
18.611702
18.901158
19.23511
19.431752
19.65821
19.704975
19.522012
19.511092
19.715395
19.932545
20.420245
20.452885
54.983067
55.489461
55.343188
55.225898
55.309468
55.299369
55.297808
55.391071
55.498505
55.354975
55.380772
55.545864
55.442519
55.209854
55.313493
55.422797
55.634434
55.226836
55.116275
55.591602
55.763388
55.529155
55.727333
56.088946
56.010646
55.74604
55.908508
56.19044
56.008478
55.877706
56.087673
55.886909
55.263219
54.941358
55.523127
56.412485
56.511321
55.689913
54.53353
54.136975
55.014036
56.013653
56.515587
56.397342
55.756819
54.741295
53.803831
53.777913
54.543679
55.244006
55.391694
55.051905
54.398111
53.658691
52.985242
54.175201
21.379673
11.384821
7.7601595
5.8727841
4.8666467
4.3059314
4.0615622
4.0431153
4.1376072
4.2911826
4.2794374
4.1747093
4.150097
4.2721668
4.622108
4.9331814
5.4134253
5.6007382
5.6169968
5.776417
6.0011497
6.0755496
6.3031232
6.7913428
7.791983
8.8917882
57.928435
22.522645
12.018846
8.2120815
6.1265228
5.0572497
4.5288218
4.3523298
4.3987077
4.6363923
4.8806743
4.9560181
4.8343359
4.588698
4.5720043
4.7933051
5.1563333
5.8256935
6.2148718
6.3695668
6.5573143
6.6899281
6.6677146
6.7037853
6.857364
7.7915785
9.1561835
62.758831
23.379971
12.500724
8.5895767
6.4722487
5.4414467
4.9680821
4.8415959
4.9063577
5.1883032
5.4750413
5.5337003
5.3787062
5.0459073
4.9348541
5.0719813
5.4449151
6.1686561
6.7447777
6.9515525
7.129386
7.3966572
7.5045634
7.5473153
7.2112338
7.8296439
9.2266046
68.24834
24.884611
13.316666
9.2300553
7.0500259
6.0333801
5.5573611
5.4638812
5.5558641
5.8681548
6.1757071
6.1975838
6.006098
5.6181067
5.497685
5.5921211
5.9202965
6.6392608
7.2774907
7.4071004
7.4730486
7.8166167
8.0972214
8.3311732
8.1866855
8.076666
9.30297
73.45502
26.477082
14.194762
9.9187412
7.6881232
6.626108
6.1840179
6.1363808
6.2449781
6.6031269
6.8974287
6.910429
6.7024552
6.2417831
6.0933077
6.1864261
6.5316364
7.2544536
7.8840749
7.9789819
7.9433279
8.2187126
8.4563332
8.7320699
8.9196791
8.734666
9.8060408
77.945428
27.51753
14.778048
10.407608
8.1449962
7.1284682
6.7948663
6.786139
6.8757568
7.2502637
7.4906288
7.4844343
7.1859308
6.6402152
6.4868589
6.6113801
7.0144786
7.8460478
8.3291252
8.3730946
8.3670153
8.7336247
8.9740963
9.0890098
9.0060916
9.0952513
10.377193
81.326427
28.165204
15.134546
10.834935
8.6640704
7.7764883
7.5369829
7.5322325
7.6247884
7.9267394
8.0949624
8.0558513
7.6516821
7.0634133
6.8870519
7.0408387
7.4957303
8.2243179
8.6226598
8.6259125
8.6195494
9.0848711
9.513059
9.6686444
9.1101809
8.9324259
10.231261
83.430552
29.688359
15.755206
11.250148
9.2760725
8.5243385
8.3793561
8.4521485
8.6002357
8.8270799
8.8849715
8.7004378
8.119898
7.5764626
7.3888703
7.5548577
8.0344469
8.6521557
9.0040734
8.989074
8.9101492
9.2319392
9.6881552
10.045341
9.5961141
8.8959538
9.8231443
86.36566
30.999235
16.413482
11.774724
9.869072
9.3320469
9.3204666
9.4996217
9.7637499
9.871164
9.7754504
9.4020498
8.5974939
8.047215
7.8535783
8.0460615
8.5903124
9.1888338
9.5195917
9.5282725
9.3553084
9.3420147
9.5569764
9.9272132
9.8635448
9.3031039
9.7699841
91.582048
32.18646
17.045814
12.434888
10.629649
10.206587
10.300349
10.606901
10.773454
10.75705
10.55566
9.9897892
9.058958
8.5317095
8.3630113
8.6564018
9.3037282
9.8544436
10.158045
10.157555
9.8116588
9.5408886
9.5839201
9.8339923
9.87103
9.6065117
9.9181768
98.839702
34.118655
17.931224
13.099347
11.424674
11.029703
11.12096
11.374713
11.472438
11.43468
11.232168
10.640569
9.6538693
9.0771615
8.9275081
9.3242574
10.040499
10.548672
10.794347
10.76099
10.279549
9.8594192
9.7955725
9.9359972
9.979287
9.8018222
10.023161
107.03937
35.015664
18.418623
13.670035
12.065049
11.659329
11.735809
12.020378
12.213099
12.212076
11.984608
11.307876
10.401969
9.7682802
9.5560914
9.8717095
10.581746
11.099472
11.328801
11.266483
10.76018
10.195223
10.014559
10.135427
10.221336
10.068146
10.136029
114.79
36.049803
19.201737
14.532976
12.729009
12.26455
12.422373
12.895289
13.134554
13.062562
12.703461
11.936844
11.079335
10.476387
10.249786
10.408388
10.930782
11.475517
11.758723
11.740681
11.274539
10.56142
10.16501
10.143122
10.369883
10.389211
10.270902
120.61129
38.637024
20.62512
15.37227
13.489875
13.081767
13.286494
13.76398
13.837735
13.54315
12.979737
12.16659
11.469545
11.016534
10.82058
10.927531
11.293334
11.789992
12.086019
12.083573
11.703582
10.984161
10.423383
10.220771
10.40622
10.587816
10.468874
122.70201
41.462024
21.800727
15.816268
14.049549
13.775412
13.982142
14.189747
14.052224
13.591647
12.954583
12.15656
11.524037
11.229866
11.150397
11.316817
11.695065
12.164794
12.402901
12.345359
12.022976
11.403602
10.785914
10.455835
10.579253
10.868711
10.807298
120.93694
42.590937
22.390986
16.484668
14.742318
14.357631
14.33417
14.392379
14.253166
13.85132
13.275275
12.531092
11.778883
11.342498
11.249867
11.471946
11.953075
12.527401
12.776006
12.655006
12.350312
11.817688
11.200179
10.803116
10.893007
11.277856
11.264008
120.97892
43.818426
23.209019
17.31488
15.323577
14.780908
14.715517
14.871713
14.939621
14.786616
14.274812
13.384995
12.401007
11.757456
11.538461
11.69788
12.159007
12.755697
13.012181
12.917249
12.689229
12.326651
11.725039
11.226598
11.282369
11.722906
11.802812
126.97708
46.826731
25.173992
18.303244
15.882614
15.333016
15.376541
15.656593
15.758147
15.6305
15.109662
14.154558
13.069705
12.366456
12.144367
12.232172
12.598588
12.938866
13.018932
12.961851
12.837622
12.647419
12.234626
11.736274
11.706732
12.146488
12.371429
139.46292
51.641574
27.72536
19.608415
16.625154
15.789799
15.673503
15.722138
15.735885
15.497383
14.776186
13.847194
13.252992
12.997718
12.990997
13.102748
13.251329
13.204446
13.0454
12.889089
12.790769
12.678268
12.511657
12.176795
12.153768
12.563969
12.876687
155.5112
57.205988
30.411848
21.325342
17.612968
15.966227
15.224381
14.829457
14.457546
13.965043
13.341222
12.996539
12.933951
13.082692
13.487265
13.795249
13.765558
13.511608
13.158874
12.879596
12.711746
12.664941
12.604698
12.481956
12.525306
12.90464
13.272017
166.98761
63.113648
34.719172
24.301683
19.048771
16.057763
14.446317
13.656903
13.301064
13.041253
12.797049
12.688954
12.714571
12.940317
13.413738
13.779682
13.811177
13.634338
13.295647
12.996746
12.789087
12.746061
12.718158
12.714417
12.822654
13.152969
13.529558
171.8011
69.288193
40.251501
27.294412
19.592894
15.498262
13.725167
13.11511
12.938549
12.84903
12.70447
12.604316
12.570448
12.671719
12.994902
13.30976
13.424775
13.417049
13.279062
13.090617
12.961321
12.924401
12.89346
12.925648
13.045089
13.343939
13.694091
174.01833
76.119785
44.963325
27.774029
18.2492
14.112599
12.849987
12.62807
12.548566
12.456804
12.366781
12.306041
12.296136
12.350985
12.490797
12.667644
12.793715
12.876316
12.949427
12.992482
13.04632
13.083653
13.086636
13.125287
13.226909
13.498456
13.841728
176.66235
83.120356
46.50035
25.512563
16.028342
12.775839
11.922357
11.674028
11.591626
11.646259
11.803143
11.922225
11.990393
12.025445
12.047952
12.080069
12.126838
12.22633
12.425019
12.68263
12.933806
13.117702
13.227945
13.281945
13.3591
13.616678
13.967198
183.48167
87.29582
44.022303
22.33885
14.225701
11.737212
10.97823
10.795859
10.858424
11.167709
11.501621
11.70203
11.776785
11.750932
11.646579
11.561848
11.564299
11.669448
11.940202
12.304359
12.699133
13.054699
13.277197
13.341106
13.399169
13.62121
13.998756
191.20662
88.055753
38.571366
18.947112
12.882852
11.042765
10.552434
10.471287
10.67523
11.07719
11.427724
11.587646
11.61036
11.483432
11.311157
11.193253
11.19164
11.312158
11.601561
12.006725
12.478189
12.946022
13.244521
13.316999
13.350946
13.543904
13.954197
198.15858
84.037236
32.220692
16.310927
11.972265
10.730849
10.429371
10.421904
10.718486
11.122879
11.400451
11.483086
11.454117
11.291839
11.10558
10.969416
10.95657
11.082961
11.363823
11.780131
12.294149
12.800337
13.128421
13.200198
13.212587
13.359918
13.78732
202.17279
74.878506
26.720969
14.731573
11.55763
10.642704
10.432504
10.519371
10.838786
11.187128
11.404684
11.460071
11.412049
11.232625
11.015758
10.841996
10.798633
10.914384
11.190458
11.608753
12.1121
12.574858
12.823664
12.86831
12.882504
13.08079
13.594398
202.54603
65.094114
23.466607
13.977982
11.380057
10.624425
10.457991
10.565311
10.879874
11.221255
11.450514
11.524859
11.485477
11.295012
11.036104
10.800101
10.702368
10.774702
11.026729
11.423663
11.860592
12.146665
12.254991
12.239742
12.286504
12.628936
13.295372
200.51929
58.733229
22.154687
13.759892
11.288753
10.525385
10.35902
10.479249
10.814136
11.18539
11.472771
11.602619
11.605617
11.447881
11.168537
10.857009
10.662699
10.635529
10.804966
11.131024
11.463978
11.600408
11.573351
11.417149
11.414691
11.721773
12.449596
197.12167
54.90433
21.580679
13.756377
11.277659
10.434418
10.221322
10.300759
10.622806
11.026817
11.364272
11.560081
11.610762
11.52157
11.301349
11.000152
10.700463
10.561031
10.571798
10.742348
10.987996
11.083583
11.003543
10.697306
10.585806
10.638783
11.073791
191.76379
52.707778
21.627086
13.966955
11.370876
10.40923
10.12222
10.131729
10.402209
10.810253
11.14706
11.336225
11.400441
11.369396
11.236598
11.038929
10.801705
10.561118
10.431294
10.411126
10.492106
10.571072
10.548424
10.307045
10.00794
9.920084
10.0242
185.68605
51.798655
22.419114
14.63245
11.766443
10.609386
10.204078
10.138502
10.317745
10.650671
10.937629
11.05454
11.058805
10.971417
10.874044
10.805808
10.709199
10.555073
10.363008
10.194317
10.121449
10.121336
10.123357
10.035303
9.805652
9.6612894
9.6736792
180.00211
51.927709
23.869446
15.789809
12.530174
11.06316
10.457647
10.285822
10.356111
10.583585
10.784216
10.838461
10.756595
10.550267
10.353416
10.28957
10.317645
10.33066
10.228697
10.030917
9.8518881
9.7700477
9.7641928
9.7617455
9.6968982
9.6270158
9.6710373
177.08509
53.827578
25.857315
17.105971
13.375429
11.586303
10.755636
10.442922
10.376127
10.469964
10.570318
10.576994
10.445087
10.190964
9.9372874
9.827572
9.8455059
9.9102452
9.9207965
9.7999688
9.606503
9.4831444
9.4443772
9.4680227
9.5183314
9.5720319
9.6752576
178.26939
56.028306
27.823721
18.38262
14.189981
12.086289
11.019823
10.529667
10.35759
10.3288
10.355517
10.342704
10.227856
10.007919
9.7710168
9.6276316
9.5810991
9.5943116
9.5943439
9.5117578
9.3535108
9.2224004
9.1525584
9.1585445
9.2416033
9.389364
9.5714868
182.34738
58.310021
29.739698
19.601128
14.984723
12.619754
11.357054
10.715516
10.430827
10.339238
10.328744
10.314135
10.242995
10.081529
9.8791614
9.7192811
9.6235655
9.56551
9.4997992
9.3907994
9.243073
9.0925609
8.9707974
8.9248817
8.980395
9.1618787
9.4518634
186.66376
62.832285
31.938224
20.890647
15.870454
13.278293
11.85536
11.082856
10.696034
10.537008
10.491859
10.477029
10.435092
10.330146
10.171016
10.004941
9.8653946
9.7542368
9.6382411
9.4884165
9.3114204
9.1329797
8.9821353
8.900957
8.9389546
9.1507931
9.5228677
189.16578
69.412649
34.382048
22.338286
16.968259
14.209016
12.683454
11.832361
11.383617
11.174825
11.094536
11.067949
11.040044
10.974266
10.847161
10.676302
10.483748
10.285015
10.070765
9.8327594
9.5864959
9.3514102
9.1603367
9.0663964
9.1369187
9.4522016
10.065131
186.08531
69.684343
34.428436
22.622233
17.498549
14.91935
13.528848
12.780083
12.403803
12.249506
12.22483
12.255137
12.295711
12.293513
12.222229
12.05177
11.785952
11.449193
11.073117
10.67893
10.301274
9.9695409
9.7560437
9.700233
9.8999997
10.461801
11.421808
177.19219
64.037193
32.241414
22.200044
17.921922
15.846209
14.811897
14.344412
14.216048
14.269192
14.453551
14.68815
14.901158
15.033646
15.030415
14.850444
14.443883
13.903411
13.294974
12.644567
12.032276
11.565722
11.35465
11.417244
11.873704
12.66472
13.548136
157.65172
66.874501
35.52074
24.847203
20.462573
18.628699
18.039979
18.100529
18.574686
19.356963
20.248719
20.892208
21.149448
21.104658
20.643098
19.742266
18.636959
17.381909
16.116333
15.036333
14.357625
14.080622
14.040466
14.279645
14.811885
15.483525
16.006659
143.45976
65.877071
43.616114
33.574469
28.656906
27.451381
28.717258
31.843912
34.427797
34.432092
33.246914
31.041798
29.346874
28.498771
28.26778
27.649466
26.197132
24.173112
21.954527
19.975771
18.509285
17.563438
17.129533
17.045768
17.301453
17.827281
18.226508
206.07794
70.241004
51.613519
47.601522
46.93303
46.519511
45.37914
43.652839
42.089019
41.27054
40.754038
39.981505
38.575951
36.432621
33.92112
31.803324
30.35886
29.227165
28.062757
26.620126
24.894407
23.090697
21.554443
20.551411
20.204388
20.237229
20.344372
123.32013
87.577902
70.159533
60.811785
52.242547
46.223004
42.154032
40.733295
40.559893
41.43701
42.957946
43.894673
43.787343
41.841741
38.264461
34.989098
32.776047
31.207957
29.890417
28.621195
27.349699
25.903981
24.421084
23.228081
22.708822
22.54856
22.39232
99.12557
87.372188
72.169124
56.450903
46.48693
40.735519
37.786862
36.563604
36.441788
37.686329
39.313107
40.366572
40.393596
39.344592
37.319884
35.043638
32.859995
31.026707
29.43017
27.919442
26.629916
25.389693
24.260243
23.656977
23.532029
23.525629
23.241332
141.57151
73.062927
47.500813
35.987485
30.309235
27.620353
26.701526
26.794724
27.626935
28.801694
29.93622
30.796354
31.297609
31.475744
31.298031
30.653301
29.636812
28.336778
26.912653
25.604227
24.578337
23.740618
23.136791
22.950225
23.119886
23.162167
22.960541
151.33702
62.546558
38.808956
28.947323
24.377295
22.315602
21.615811
21.606449
22.197616
23.134394
24.154216
25.029549
25.649806
26.071743
26.290068
26.213521
25.72762
24.837542
23.74506
22.811322
22.169674
21.837017
21.700509
21.791752
21.994259
21.969772
21.905674
144.37004
57.935376
34.422355
25.210173
21.095127
19.209391
18.481286
18.352359
18.667001
19.311132
20.079473
20.803985
21.409136
21.869706
22.201304
22.342477
22.129706
21.593866
20.927213
20.440446
20.188104
20.136248
20.177301
20.230127
20.183592
20.219074
20.485728
136.42703
54.514844
31.341496
22.734748
18.933896
17.131569
16.3651
16.178913
16.309165
16.662927
17.121829
17.597224
18.026643
18.375245
18.620563
18.703436
18.572772
18.292077
18.01396
17.879294
17.912336
18.033571
18.092675
18.0166
17.985601
18.242502
18.666135
132.30994
50.738899
28.48394
20.761013
17.306702
15.606354
14.788383
14.454853
14.407841
14.519762
14.74359
15.00854
15.265824
15.46855
15.562927
15.523204
15.366359
15.220776
15.157326
15.253092
15.484419
15.694852
15.780519
15.74218
15.824882
16.244937
16.809729
128.33235
46.05555
25.949194
19.150623
16.039709
14.423404
13.560312
13.12416
12.942208
12.910599
12.96112
13.051847
13.150295
13.225865
13.244363
13.181227
13.056471
12.945709
12.918921
13.058509
13.349087
13.63413
13.784868
13.853131
14.050138
14.606525
15.247393
122.26196
41.718175
24.16011
18.030197
15.11159
13.530428
12.635735
12.132556
11.86086
11.726301
11.673619
11.670881
11.697711
11.735873
11.753844
11.718404
11.6172
11.503563