/*--------------------------------*- C++ -*----------------------------------*\
| =========                 |                                                 |
| \\      /  F ield         | OpenFOAM: The Open Source CFD Toolbox           |
|  \\    /   O peration     | Version:  2406                                  |
|   \\  /    A nd           | Website:  www.openfoam.com                      |
|    \\/     M anipulation  |                                                 |
\*---------------------------------------------------------------------------*/
FoamFile
{
    version     2.0;
    format      ascii;
    arch        "LSB;label=32;scalar=64";
    class       volScalarField;
    location    "15";
    object      rho_0;
}
// * * * * * * * * * * * * * * * * * * * * * * * * * * * * * * * * * * * * * //

dimensions      [1 -3 0 0 0 0 0];

internalField   nonuniform List<scalar> 
19701
(
1.0001449
1.0001523
1.0001637
1.0001424
1.0001439
1.0001337
1.000132
1.0001272
1.0001247
1.0001221
1.0001197
1.0001179
1.0001161
1.0001141
1.0001128
1.0001113
1.0001098
1.0001088
1.0001076
1.0001065
1.0001056
1.0001046
1.0001038
1.0001029
1.0001022
1.0001015
1.0001009
1.0001003
1.0000997
1.0000993
1.0000989
1.0000985
1.0000982
1.000098
1.0000979
1.0000978
1.0000977
1.0000976
1.0000974
1.0000972
1.0000966
1.0000959
1.0000949
1.000094
1.0000931
1.0000923
1.0000914
1.0000905
1.0000895
1.0000887
1.0000879
1.0000872
1.0000867
1.0000864
1.0000863
1.0000864
1.0000868
1.0000874
1.0000878
1.0000881
1.0000884
1.0000885
1.0000884
1.0000883
1.0000879
1.0000872
1.0000862
1.0000851
1.0000841
1.0000834
1.000083
1.0000829
1.000083
1.0000831
1.0000835
1.0000842
1.0000849
1.0000855
1.0000861
1.0000866
1.0000868
1.0000868
1.0000861
1.0000847
1.0000825
1.0000801
1.0000776
1.0000762
1.0000761
1.0000779
1.0000808
1.0000846
1.0000863
1.0000875
1.0000842
1.0000792
1.0000714
1.0000538
1.0000364
1.0001033
1.0002255
1.0002252
1.0002144
1.0002122
1.000202
1.0001983
1.0001905
1.000186
1.0001796
1.0001747
1.0001705
1.0001651
1.0001608
1.0001579
1.0001529
1.0001501
1.0001466
1.0001441
1.0001408
1.0001386
1.0001357
1.0001339
1.0001312
1.0001298
1.0001275
1.0001261
1.0001247
1.0001232
1.0001221
1.0001209
1.00012
1.0001193
1.0001184
1.0001178
1.0001167
1.000116
1.000115
1.0001139
1.0001126
1.0001113
1.0001096
1.0001074
1.000105
1.0001025
1.0001002
1.000098
1.0000956
1.0000932
1.0000907
1.0000887
1.0000872
1.0000861
1.0000855
1.0000854
1.0000858
1.0000867
1.000088
1.0000895
1.0000908
1.0000918
1.0000922
1.000092
1.0000911
1.0000896
1.0000877
1.0000854
1.000083
1.000081
1.0000797
1.000079
1.0000785
1.0000787
1.0000794
1.0000805
1.0000817
1.0000829
1.0000845
1.0000863
1.0000877
1.0000881
1.0000869
1.000084
1.0000798
1.0000748
1.0000697
1.0000654
1.0000643
1.0000665
1.0000715
1.0000771
1.0000837
1.0000853
1.0000866
1.0000778
1.0000698
1.000068
1.0000831
1.0000864
0.99997745
1.0001778
1.0001831
1.0001793
1.0001796
1.000175
1.0001725
1.0001699
1.0001674
1.0001625
1.0001601
1.0001582
1.0001527
1.0001507
1.000149
1.0001437
1.0001428
1.0001397
1.0001372
1.0001348
1.0001331
1.0001307
1.0001299
1.0001272
1.000127
1.0001251
1.0001245
1.0001235
1.0001224
1.0001221
1.000121
1.0001208
1.0001204
1.0001197
1.0001196
1.0001186
1.0001182
1.000117
1.0001159
1.0001146
1.0001128
1.0001107
1.0001085
1.0001062
1.0001037
1.0001011
1.0000982
1.000095
1.0000918
1.0000891
1.0000869
1.0000852
1.0000841
1.0000837
1.000084
1.000085
1.0000864
1.0000882
1.0000904
1.0000924
1.0000937
1.0000943
1.0000941
1.000093
1.000091
1.0000883
1.0000853
1.0000824
1.00008
1.0000784
1.0000776
1.0000775
1.0000779
1.0000787
1.0000801
1.000082
1.0000841
1.0000863
1.0000883
1.0000897
1.0000896
1.0000874
1.0000831
1.000077
1.0000699
1.0000645
1.0000619
1.0000636
1.0000683
1.0000745
1.0000801
1.0000864
1.0000884
1.0000916
1.0000888
1.0000892
1.000089
1.0000992
1.0000921
0.99985591
1.0001349
1.000148
1.0001475
1.0001478
1.0001457
1.0001444
1.0001442
1.0001437
1.0001407
1.0001408
1.0001399
1.000136
1.0001368
1.0001353
1.0001315
1.0001324
1.00013
1.0001279
1.0001275
1.0001256
1.0001248
1.000124
1.0001223
1.0001223
1.000121
1.0001205
1.0001203
1.0001194
1.0001198
1.0001189
1.0001192
1.0001188
1.0001186
1.0001187
1.0001181
1.0001178
1.0001169
1.0001159
1.0001143
1.0001125
1.0001106
1.0001087
1.0001064
1.0001038
1.0001009
1.0000977
1.0000943
1.000091
1.0000882
1.0000859
1.000084
1.0000828
1.0000823
1.0000826
1.0000836
1.0000854
1.0000877
1.0000903
1.0000926
1.0000943
1.0000954
1.0000956
1.0000948
1.000093
1.0000902
1.0000871
1.0000842
1.0000815
1.0000792
1.0000777
1.000077
1.0000772
1.0000783
1.0000799
1.000082
1.0000844
1.0000869
1.000089
1.0000902
1.0000898
1.0000873
1.0000826
1.0000763
1.0000703
1.0000668
1.0000663
1.0000689
1.0000736
1.0000795
1.0000845
1.0000903
1.0000933
1.0000996
1.0001025
1.0001107
1.0001086
1.0001007
1.000087
0.99975523
1.0001051
1.0001244
1.0001249
1.0001274
1.000127
1.0001265
1.000127
1.0001279
1.0001264
1.0001276
1.0001268
1.0001252
1.0001275
1.0001252
1.0001238
1.0001252
1.0001236
1.0001223
1.0001227
1.0001212
1.0001213
1.0001205
1.0001198
1.0001199
1.000119
1.000119
1.0001187
1.0001178
1.0001183
1.0001173
1.0001175
1.0001173
1.0001172
1.0001171
1.000117
1.0001166
1.000116
1.0001151
1.000114
1.0001127
1.0001112
1.0001094
1.0001073
1.000105
1.0001023
1.0000992
1.000096
1.0000927
1.0000896
1.0000868
1.0000845
1.0000828
1.0000818
1.0000818
1.0000825
1.0000841
1.0000864
1.0000891
1.0000918
1.0000942
1.0000959
1.000097
1.0000971
1.000096
1.0000938
1.0000907
1.0000871
1.0000836
1.0000806
1.0000782
1.0000768
1.0000766
1.0000775
1.0000794
1.0000819
1.0000844
1.0000867
1.0000883
1.0000888
1.0000878
1.0000853
1.0000814
1.0000774
1.0000741
1.0000727
1.0000734
1.0000765
1.0000805
1.0000853
1.0000891
1.000095
1.0000986
1.0001068
1.0001083
1.0001148
1.0001043
1.0000585
1.0000606
0.9996764
1.0000911
1.0001162
1.0001155
1.0001177
1.0001171
1.0001173
1.0001176
1.0001192
1.0001187
1.00012
1.0001188
1.0001194
1.000122
1.0001188
1.0001199
1.0001208
1.0001203
1.0001192
1.0001208
1.0001189
1.00012
1.0001189
1.000119
1.0001188
1.000118
1.0001182
1.0001176
1.0001171
1.0001174
1.0001163
1.0001164
1.0001162
1.0001162
1.0001163
1.0001166
1.0001163
1.0001162
1.0001157
1.0001151
1.0001142
1.0001131
1.0001118
1.0001102
1.0001082
1.0001058
1.000103
1.0000997
1.0000962
1.0000925
1.0000891
1.0000862
1.000084
1.0000824
1.0000814
1.0000814
1.0000825
1.0000845
1.0000872
1.0000904
1.0000934
1.0000961
1.0000981
1.0000992
1.000099
1.0000975
1.0000945
1.0000905
1.0000861
1.000082
1.0000788
1.0000769
1.0000765
1.0000774
1.0000793
1.0000817
1.0000842
1.0000861
1.0000867
1.000086
1.0000841
1.0000819
1.0000801
1.0000794
1.0000793
1.0000801
1.0000817
1.000085
1.000088
1.0000923
1.0000947
1.0001007
1.0001016
1.0001069
1.0001038
1.0001036
1.0000851
1.0000183
1.0000392
0.99960903
1.0000765
1.0001136
1.0001132
1.0001146
1.0001145
1.0001141
1.0001129
1.0001143
1.0001152
1.0001151
1.0001131
1.0001164
1.0001179
1.0001144
1.0001177
1.0001174
1.0001186
1.0001169
1.0001197
1.0001177
1.0001195
1.0001183
1.000119
1.0001184
1.0001182
1.0001179
1.0001175
1.0001171
1.0001171
1.0001162
1.0001164
1.0001157
1.000116
1.0001158
1.0001166
1.0001165
1.000117
1.000117
1.0001169
1.0001165
1.000116
1.0001153
1.0001141
1.0001123
1.0001101
1.0001073
1.0001039
1.0001
1.0000958
1.0000917
1.0000879
1.0000845
1.0000819
1.0000801
1.0000795
1.0000801
1.0000819
1.0000848
1.0000885
1.0000923
1.0000958
1.0000987
1.0001007
1.0001013
1.0001001
1.0000972
1.0000931
1.0000882
1.0000833
1.0000794
1.0000771
1.0000768
1.0000781
1.0000801
1.0000821
1.0000836
1.0000841
1.0000832
1.0000813
1.0000792
1.0000783
1.000079
1.0000816
1.0000847
1.0000884
1.0000905
1.0000932
1.0000943
1.0000981
1.0000998
1.0001048
1.0001003
1.0000965
1.0000867
1.0000824
1.0000731
1.0000304
1.00005
0.9995435
1.0000602
1.0001121
1.0001132
1.0001134
1.0001141
1.000114
1.000112
1.0001134
1.0001157
1.0001141
1.0001117
1.0001173
1.0001171
1.0001139
1.0001189
1.000117
1.0001198
1.0001177
1.0001205
1.0001194
1.0001207
1.0001196
1.0001206
1.0001194
1.0001196
1.0001187
1.0001181
1.0001175
1.0001168
1.0001159
1.0001158
1.0001146
1.0001153
1.0001147
1.000116
1.0001161
1.0001174
1.0001179
1.0001186
1.0001188
1.0001189
1.0001186
1.0001178
1.0001164
1.0001142
1.0001114
1.0001077
1.0001034
1.0000985
1.0000936
1.0000889
1.0000845
1.0000811
1.0000786
1.0000774
1.0000777
1.0000794
1.0000826
1.0000866
1.000091
1.0000953
1.0000989
1.0001015
1.0001024
1.0001015
1.0000986
1.0000944
1.0000896
1.0000849
1.0000811
1.0000789
1.0000785
1.0000796
1.0000813
1.0000825
1.0000825
1.000081
1.0000784
1.0000757
1.0000743
1.0000757
1.0000793
1.0000848
1.0000906
1.0000957
1.0000979
1.0000989
1.0000984
1.0001008
1.0001014
1.0001052
1.0000969
1.0000852
1.0000702
1.000067
1.0000753
1.0000836
1.000095
0.99947771
1.0000418
1.0001104
1.0001131
1.0001137
1.0001148
1.0001157
1.0001136
1.0001146
1.0001185
1.0001159
1.000113
1.0001204
1.0001183
1.0001156
1.0001216
1.0001182
1.0001217
1.0001194
1.0001218
1.000121
1.0001215
1.0001204
1.0001212
1.0001196
1.0001193
1.0001184
1.0001171
1.0001166
1.0001152
1.0001144
1.0001141
1.0001129
1.0001138
1.0001131
1.0001147
1.0001154
1.000117
1.0001184
1.0001196
1.0001207
1.0001212
1.0001213
1.0001209
1.0001198
1.0001178
1.0001149
1.0001109
1.000106
1.0001004
1.0000947
1.0000891
1.0000841
1.00008
1.0000771
1.0000757
1.0000759
1.0000778
1.0000811
1.0000854
1.0000902
1.0000947
1.0000986
1.0001013
1.0001023
1.0001015
1.0000988
1.0000949
1.0000907
1.0000869
1.000084
1.0000823
1.0000819
1.0000823
1.0000828
1.0000826
1.0000807
1.0000773
1.0000734
1.0000708
1.0000712
1.0000749
1.0000812
1.000089
1.0000958
1.0001011
1.0001027
1.0001024
1.0000999
1.0001008
1.0001005
1.0001032
1.0000936
1.0000795
1.0000679
1.0000712
1.0000798
1.000079
1.0000862
0.99941554
1.000021
1.0001096
1.0001142
1.0001147
1.0001155
1.000117
1.0001151
1.0001157
1.0001208
1.0001178
1.0001146
1.0001231
1.0001198
1.0001175
1.0001232
1.0001193
1.0001226
1.00012
1.0001218
1.0001211
1.0001206
1.00012
1.0001199
1.0001186
1.0001175
1.0001168
1.0001147
1.0001142
1.0001125
1.0001117
1.0001113
1.0001105
1.0001114
1.000111
1.0001131
1.0001142
1.0001165
1.0001185
1.0001203
1.0001219
1.0001228
1.0001235
1.0001234
1.0001225
1.0001206
1.0001176
1.0001134
1.0001079
1.0001018
1.0000955
1.0000894
1.0000839
1.0000794
1.0000764
1.000075
1.0000754
1.0000774
1.0000809
1.0000853
1.00009
1.0000942
1.0000977
1.0001001
1.000101
1.0001003
1.0000981
1.000095
1.0000918
1.0000892
1.0000874
1.0000865
1.0000862
1.0000856
1.0000844
1.0000819
1.000078
1.0000734
1.0000695
1.0000683
1.0000706
1.000076
1.0000836
1.0000925
1.0000994
1.0001044
1.0001053
1.0001038
1.0000993
1.0000984
1.0000967
1.0000976
1.0000902
1.0000802
1.0000729
1.0000774
1.0000831
1.0000825
1.0001016
0.99936346
1.0000008
1.0001082
1.0001147
1.000114
1.0001148
1.0001165
1.0001144
1.0001151
1.0001207
1.0001177
1.0001146
1.0001235
1.0001192
1.0001177
1.0001222
1.0001187
1.0001209
1.000119
1.0001192
1.0001193
1.0001174
1.0001176
1.0001164
1.0001152
1.000114
1.0001129
1.000111
1.0001104
1.0001088
1.0001083
1.000108
1.0001074
1.0001088
1.0001087
1.0001116
1.0001129
1.0001159
1.0001181
1.0001206
1.0001226
1.0001241
1.0001249
1.000125
1.0001243
1.0001225
1.0001194
1.0001149
1.0001094
1.0001031
1.0000966
1.0000903
1.0000847
1.0000802
1.0000771
1.0000756
1.000076
1.0000782
1.0000817
1.0000859
1.0000901
1.0000937
1.0000965
1.0000984
1.0000991
1.0000986
1.0000972
1.0000954
1.0000936
1.0000921
1.0000913
1.0000908
1.00009
1.0000885
1.0000855
1.0000811
1.0000758
1.0000709
1.000068
1.0000685
1.0000722
1.0000786
1.0000864
1.0000951
1.0001018
1.0001061
1.0001057
1.0001027
1.0000962
1.0000926
1.00009
1.0000918
1.0000908
1.0000896
1.0000848
1.000084
1.0000817
1.0000693
1.0000774
0.9993218
0.99998292
1.0001055
1.0001137
1.0001129
1.0001133
1.0001155
1.0001137
1.000114
1.0001193
1.0001165
1.0001135
1.0001222
1.0001171
1.0001169
1.00012
1.0001172
1.0001179
1.0001172
1.000116
1.0001167
1.0001138
1.0001144
1.0001127
1.0001112
1.0001104
1.0001091
1.0001074
1.0001071
1.0001055
1.0001054
1.0001055
1.0001052
1.0001071
1.0001072
1.0001104
1.0001119
1.0001153
1.0001178
1.0001207
1.0001229
1.0001247
1.0001257
1.0001259
1.0001253
1.0001236
1.0001205
1.0001162
1.0001109
1.0001049
1.0000986
1.0000925
1.0000871
1.0000826
1.0000794
1.0000777
1.0000779
1.0000797
1.0000827
1.0000863
1.0000898
1.0000927
1.0000949
1.0000965
1.0000972
1.0000972
1.0000967
1.0000961
1.0000956
1.0000951
1.0000947
1.0000939
1.0000922
1.0000895
1.0000854
1.0000802
1.0000748
1.0000709
1.0000696
1.0000716
1.000076
1.0000824
1.0000895
1.000097
1.0001023
1.0001051
1.0001033
1.0000989
1.0000914
1.0000872
1.0000862
1.0000911
1.0000957
1.0000999
1.0000939
1.0000865
1.0000759
1.0000771
1.0000886
0.99928371
0.99996432
1.0001045
1.0001129
1.0001134
1.0001136
1.0001158
1.0001144
1.0001142
1.0001191
1.0001162
1.0001131
1.0001212
1.0001154
1.0001156
1.0001179
1.0001158
1.0001155
1.0001151
1.000114
1.0001142
1.0001113
1.000112
1.00011
1.0001085
1.0001076
1.0001066
1.0001048
1.0001048
1.0001035
1.0001036
1.000104
1.0001037
1.0001059
1.0001062
1.0001093
1.0001109
1.0001143
1.0001171
1.00012
1.0001226
1.0001244
1.0001257
1.0001261
1.0001256
1.000124
1.0001214
1.0001176
1.0001129
1.0001074
1.0001016
1.0000959
1.0000906
1.0000862
1.0000829
1.000081
1.0000805
1.0000814
1.0000834
1.000086
1.0000888
1.0000913
1.0000933
1.0000949
1.0000961
1.0000969
1.0000973
1.0000975
1.0000977
1.0000977
1.000097
1.0000952
1.0000924
1.0000885
1.0000837
1.0000789
1.0000753
1.0000739
1.0000748
1.0000778
1.0000819
1.0000874
1.0000923
1.0000967
1.0000994
1.0001001
1.0000979
1.0000948
1.0000899
1.0000877
1.0000872
1.0000912
1.0000955
1.0001001
1.0000974
1.0000992
1.000092
1.0000984
1.0001214
0.9992414
0.99993575
1.0001061
1.0001172
1.0001171
1.0001173
1.0001187
1.0001178
1.0001164
1.0001207
1.0001179
1.000114
1.0001213
1.0001152
1.0001152
1.0001165
1.0001149
1.0001137
1.0001134
1.0001123
1.0001122
1.0001091
1.0001101
1.0001076
1.0001065
1.0001055
1.0001046
1.000103
1.0001032
1.0001019
1.0001022
1.0001025
1.0001025
1.0001046
1.000105
1.0001079
1.0001095
1.0001126
1.0001156
1.0001185
1.0001212
1.0001232
1.0001247
1.0001254
1.0001252
1.0001241
1.0001221
1.0001191
1.0001152
1.0001106
1.0001054
1.0001
1.0000948
1.0000904
1.0000869
1.0000844
1.0000831
1.000083
1.0000838
1.0000855
1.0000877
1.00009
1.0000922
1.0000945
1.0000965
1.0000981
1.0000991
1.0000998
1.0000999
1.0000992
1.0000974
1.0000945
1.0000905
1.0000858
1.0000815
1.0000785
1.0000777
1.0000793
1.0000825
1.0000863
1.0000897
1.0000921
1.0000932
1.0000936
1.0000932
1.0000932
1.0000933
1.0000943
1.0000932
1.0000926
1.00009
1.0000892
1.0000891
1.0000924
1.0000944
1.0001003
1.0001001
1.0001276
1.0001413
0.99919504
0.99990171
1.0001065
1.0001226
1.0001218
1.0001218
1.0001223
1.0001218
1.000119
1.0001229
1.0001205
1.0001154
1.0001219
1.000116
1.0001154
1.0001157
1.0001144
1.0001123
1.0001123
1.0001102
1.0001106
1.000107
1.0001081
1.0001055
1.0001045
1.0001036
1.0001027
1.0001013
1.0001016
1.0001002
1.0001007
1.0001008
1.0001008
1.0001027
1.0001031
1.0001057
1.0001074
1.0001102
1.0001131
1.000116
1.0001189
1.0001213
1.0001232
1.0001243
1.0001248
1.0001244
1.0001233
1.0001212
1.0001183
1.0001143
1.0001096
1.0001045
1.0000994
1.0000947
1.0000906
1.0000874
1.0000851
1.0000839
1.0000839
1.0000851
1.0000871
1.0000896
1.0000925
1.0000956
1.0000984
1.0001007
1.0001021
1.0001024
1.0001017
1.0000996
1.0000962
1.0000919
1.0000873
1.0000831
1.0000803
1.0000799
1.0000822
1.0000864
1.0000911
1.0000953
1.0000968
1.0000956
1.0000926
1.0000893
1.0000867
1.0000879
1.0000916
1.0000971
1.0000986
1.0000986
1.0000922
1.0000855
1.0000813
1.0000851
1.0000937
1.0001086
1.0001128
1.0001207
1.000118
0.99914713
0.99986954
1.0001046
1.0001248
1.0001242
1.0001244
1.0001242
1.0001241
1.0001207
1.000124
1.0001218
1.0001161
1.0001217
1.0001165
1.0001151
1.0001151
1.0001137
1.0001113
1.0001113
1.0001087
1.0001093
1.0001053
1.0001065
1.0001037
1.0001027
1.0001016
1.0001008
1.0000994
1.0000997
1.0000982
1.0000988
1.0000986
1.0000986
1.0001003
1.0001005
1.0001029
1.0001045
1.0001071
1.0001099
1.000113
1.0001161
1.000119
1.0001215
1.0001233
1.0001247
1.0001252
1.0001251
1.0001239
1.0001217
1.0001185
1.0001142
1.0001093
1.000104
1.0000986
1.0000937
1.0000895
1.0000862
1.0000843
1.0000839
1.000085
1.0000873
1.0000904
1.000094
1.0000978
1.0001013
1.0001039
1.0001052
1.0001048
1.0001027
1.000099
1.0000942
1.0000891
1.0000846
1.0000817
1.0000812
1.0000834
1.0000881
1.0000938
1.0000986
1.0001019
1.000101
1.0000969
1.0000911
1.0000863
1.0000831
1.0000863
1.000092
1.0000998
1.0001021
1.0001023
1.0000938
1.000085
1.0000796
1.0000836
1.0000923
1.0001075
1.0001104
1.0001141
1.0001247
0.99910037
0.99984446
1.0001005
1.0001249
1.0001234
1.0001247
1.0001234
1.0001239
1.0001205
1.0001231
1.0001215
1.0001158
1.0001207
1.0001161
1.0001143
1.0001144
1.0001128
1.0001108
1.00011
1.0001081
1.0001079
1.0001041
1.0001051
1.000102
1.0001014
1.0000998
1.000099
1.0000976
1.0000976
1.000096
1.0000963
1.000096
1.0000959
1.0000974
1.0000975
1.0000997
1.0001013
1.0001038
1.0001068
1.00011
1.0001134
1.0001168
1.0001199
1.0001225
1.0001247
1.0001262
1.0001269
1.0001267
1.0001251
1.0001223
1.0001182
1.0001133
1.0001076
1.0001016
1.0000958
1.0000908
1.0000868
1.0000844
1.0000839
1.0000852
1.000088
1.0000919
1.0000963
1.0001007
1.0001044
1.0001069
1.0001076
1.0001063
1.000103
1.0000981
1.0000924
1.0000871
1.0000833
1.0000819
1.0000833
1.0000877
1.0000936
1.0000995
1.0001037
1.0001048
1.0001021
1.0000965
1.0000896
1.0000849
1.0000825
1.0000864
1.0000925
1.0001005
1.000102
1.0001025
1.0000946
1.0000858
1.0000793
1.0000819
1.000089
1.0001025
1.0000953
1.0000679
1.000105
0.99905875
0.99982549
1.0000971
1.0001247
1.0001223
1.000124
1.0001221
1.0001226
1.0001195
1.0001217
1.0001198
1.0001149
1.0001192
1.0001151
1.000113
1.0001135
1.0001115
1.0001099
1.0001083
1.0001069
1.0001061
1.0001025
1.0001032
1.0000998
1.0000993
1.0000974
1.0000965
1.000095
1.0000946
1.0000929
1.0000928
1.0000925
1.0000921
1.0000936
1.0000936
1.0000958
1.0000974
1.0001
1.0001033
1.0001068
1.0001107
1.0001146
1.0001183
1.0001216
1.0001246
1.0001268
1.000128
1.0001282
1.0001271
1.0001246
1.0001206
1.0001155
1.0001094
1.0001029
1.0000966
1.0000909
1.0000866
1.0000842
1.0000838
1.0000853
1.0000886
1.0000931
1.0000982
1.000103
1.0001065
1.0001085
1.0001087
1.0001068
1.0001027
1.0000971
1.0000914
1.0000865
1.0000835
1.0000833
1.0000862
1.0000914
1.0000971
1.0001022
1.0001049
1.000104
1.0000999
1.0000939
1.000087
1.0000831
1.0000824
1.0000865
1.0000914
1.0000988
1.0000999
1.0001007
1.0000929
1.0000826
1.0000731
1.0000747
1.0000831
1.0000983
1.0000921
1.0000622
1.0000969
0.99902561
0.99981451
1.0000955
1.0001205
1.0001215
1.0001203
1.0001203
1.0001198
1.0001175
1.0001189
1.0001171
1.0001126
1.0001163
1.0001125
1.0001103
1.0001107
1.0001087
1.0001069
1.0001053
1.0001036
1.0001025
1.0000991
1.0000992
1.000096
1.000095
1.0000931
1.0000919
1.0000903
1.0000894
1.000088
1.0000873
1.0000872
1.0000865
1.000088
1.0000881
1.0000904
1.0000923
1.0000953
1.000099
1.0001029
1.0001074
1.0001118
1.000116
1.0001198
1.0001232
1.0001257
1.0001272
1.0001275
1.0001265
1.000124
1.00012
1.0001149
1.0001087
1.0001019
1.0000952
1.0000894
1.0000852
1.0000829
1.0000826
1.0000843
1.0000879
1.0000929
1.0000982
1.0001029
1.0001063
1.0001081
1.000108
1.0001056
1.0001013
1.0000959
1.0000904
1.0000861
1.0000839
1.0000844
1.0000876
1.0000923
1.000097
1.0001007
1.0001014
1.0000988
1.0000936
1.0000874
1.0000814
1.0000792
1.0000804
1.0000852
1.0000895
1.000095
1.0000943
1.0000926
1.0000846
1.0000755
1.0000675
1.000068
1.0000733
1.0000834
1.0000838
1.0000534
1.000094
0.99900066
0.99981547
1.0000909
1.0001144
1.0001161
1.0001141
1.0001151
1.0001141
1.0001123
1.0001133
1.0001118
1.0001078
1.000111
1.0001075
1.0001055
1.0001054
1.0001034
1.0001014
1.0000999
1.0000977
1.0000964
1.0000933
1.0000924
1.0000897
1.0000879
1.0000862
1.0000845
1.0000829
1.0000817
1.0000805
1.0000794
1.0000795
1.0000788
1.0000805
1.0000807
1.0000834
1.0000856
1.000089
1.000093
1.0000975
1.0001024
1.0001072
1.0001117
1.0001159
1.0001193
1.0001218
1.0001233
1.0001234
1.0001223
1.0001197
1.0001158
1.0001107
1.0001046
1.000098
1.0000916
1.0000861
1.0000822
1.0000801
1.0000799
1.0000817
1.0000854
1.0000903
1.0000954
1.0000998
1.0001031
1.0001047
1.0001044
1.0001021
1.0000981
1.0000931
1.0000883
1.0000846
1.000083
1.0000836
1.0000861
1.0000896
1.0000926
1.0000943
1.0000928
1.0000886
1.0000824
1.0000767
1.0000721
1.0000727
1.0000765
1.0000824
1.0000857
1.0000881
1.0000834
1.0000766
1.0000682
1.0000646
1.0000657
1.000073
1.0000753
1.0000741
1.0000772
1.0000919
1.0001187
0.99898399
0.99981976
1.0000851
1.0001079
1.0001081
1.0001074
1.000108
1.0001068
1.0001055
1.0001064
1.0001047
1.0001016
1.0001039
1.0001009
1.000099
1.0000986
1.0000964
1.0000946
1.0000929
1.0000905
1.0000886
1.0000862
1.0000838
1.000082
1.0000794
1.0000777
1.0000759
1.0000742
1.0000729
1.000072
1.0000708
1.0000712
1.0000707
1.0000726
1.0000732
1.0000761
1.0000788
1.0000825
1.0000869
1.0000917
1.0000967
1.0001018
1.0001064
1.0001105
1.0001137
1.0001159
1.0001171
1.000117
1.0001157
1.000113
1.0001091
1.0001042
1.0000985
1.0000926
1.0000869
1.0000821
1.0000787
1.0000769
1.000077
1.0000789
1.0000824
1.0000868
1.0000913
1.0000952
1.0000981
1.0000995
1.0000991
1.000097
1.0000935
1.0000893
1.0000852
1.0000822
1.0000808
1.0000812
1.0000826
1.0000844
1.0000853
1.0000844
1.0000809
1.0000756
1.000069
1.0000644
1.0000621
1.0000655
1.0000713
1.0000778
1.0000791
1.0000777
1.0000686
1.0000579
1.000051
1.0000543
1.0000656
1.0000847
1.0000924
1.0000912
1.0000839
1.0000725
1.000095
0.99897409
0.99982408
1.0000819
1.0001024
1.0001021
1.0001021
1.000102
1.000101
1.0000999
1.0001002
1.0000987
1.0000963
1.0000974
1.0000953
1.000093
1.0000926
1.0000902
1.0000886
1.0000866
1.0000841
1.000082
1.0000799
1.0000767
1.0000752
1.0000724
1.0000705
1.0000688
1.0000672
1.0000658
1.0000652
1.0000643
1.0000649
1.0000649
1.000067
1.0000683
1.0000715
1.0000745
1.0000786
1.0000831
1.000088
1.0000931
1.0000981
1.0001024
1.0001061
1.0001089
1.0001107
1.0001115
1.0001112
1.0001097
1.0001069
1.0001031
1.0000986
1.0000937
1.0000887
1.000084
1.0000802
1.0000776
1.0000763
1.0000767
1.0000786
1.0000815
1.0000851
1.0000888
1.0000919
1.000094
1.0000949
1.0000943
1.0000925
1.0000896
1.0000862
1.0000829
1.0000804
1.0000791
1.0000789
1.0000792
1.0000794
1.0000784
1.0000755
1.0000705
1.0000645
1.0000581
1.0000548
1.0000546
1.0000595
1.0000658
1.0000717
1.0000711
1.0000661
1.0000546
1.000044
1.0000413
1.0000522
1.000072
1.000098
1.0001061
1.0001048
1.0000837
1.000029
1.0000724
0.99896797
0.99982799
1.0000815
1.0000995
1.0000991
1.0000989
1.0000985
1.0000979
1.0000968
1.0000961
1.0000951
1.0000934
1.000093
1.0000915
1.0000894
1.0000886
1.0000861
1.0000847
1.0000825
1.0000799
1.0000778
1.000076
1.0000723
1.0000711
1.0000684
1.0000664
1.0000648
1.0000636
1.0000622
1.0000622
1.0000615
1.0000627
1.000063
1.0000654
1.0000672
1.0000706
1.0000739
1.0000783
1.0000829
1.0000879
1.0000928
1.0000973
1.0001012
1.0001042
1.0001063
1.0001076
1.000108
1.0001074
1.0001058
1.0001031
1.0000997
1.0000957
1.0000916
1.0000877
1.0000842
1.0000816
1.0000799
1.0000793
1.0000799
1.0000815
1.0000838
1.0000865
1.0000889
1.0000909
1.0000919
1.000092
1.0000911
1.0000893
1.000087
1.0000845
1.000082
1.0000801
1.0000787
1.000078
1.0000774
1.0000764
1.0000741
1.0000701
1.0000644
1.0000585
1.0000529
1.0000504
1.0000509
1.0000555
1.00006
1.0000646
1.0000632
1.0000577
1.0000473
1.00004
1.000041
1.0000554
1.0000771
1.0001018
1.000107
1.0001087
1.0000931
1.0000541
1.0001019
0.99896374
0.99983116
1.0000808
1.0000982
1.0000976
1.0000971
1.0000968
1.0000963
1.0000953
1.0000941
1.0000933
1.000092
1.0000908
1.0000893
1.0000877
1.0000866
1.000084
1.0000829
1.0000808
1.0000782
1.000076
1.0000748
1.0000709
1.0000698
1.0000675
1.0000653
1.0000642
1.0000631
1.0000623
1.0000624
1.0000623
1.0000634
1.0000645
1.0000668
1.0000691
1.0000725
1.000076
1.0000805
1.0000851
1.0000898
1.0000944
1.0000984
1.0001015
1.0001039
1.0001055
1.0001062
1.0001062
1.0001054
1.0001038
1.0001014
1.0000985
1.0000952
1.000092
1.0000891
1.0000868
1.0000853
1.0000845
1.0000844
1.0000851
1.0000863
1.0000878
1.0000892
1.0000904
1.0000909
1.0000907
1.0000899
1.0000886
1.0000869
1.000085
1.0000832
1.0000816
1.0000802
1.0000789
1.000078
1.0000769
1.0000752
1.0000723
1.0000683
1.0000628
1.0000572
1.0000518
1.0000493
1.0000489
1.0000515
1.0000541
1.0000568
1.0000555
1.0000523
1.0000465
1.0000432
1.0000461
1.0000587
1.0000757
1.0000961
1.0000989
1.0001006
1.0000942
1.0000792
1.0001028
0.99896012
0.99983229
1.0000793
1.000096
1.0000955
1.0000951
1.0000948
1.0000942
1.0000933
1.0000921
1.0000914
1.0000903
1.000089
1.0000878
1.0000865
1.0000853
1.0000831
1.0000821
1.0000803
1.0000778
1.0000758
1.0000748
1.0000713
1.00007
1.0000683
1.0000661
1.0000654
1.0000643
1.000064
1.0000642
1.0000647
1.0000658
1.0000674
1.0000695
1.0000722
1.0000755
1.000079
1.0000834
1.0000877
1.0000922
1.0000963
1.0000999
1.0001026
1.0001045
1.0001055
1.0001059
1.0001056
1.0001047
1.0001032
1.0001012
1.0000988
1.0000964
1.0000941
1.0000922
1.0000908
1.0000899
1.0000896
1.0000898
1.0000903
1.0000909
1.0000914
1.0000917
1.0000915
1.0000908
1.0000896
1.000088
1.0000861
1.0000842
1.0000826
1.0000815
1.0000807
1.0000801
1.0000795
1.0000787
1.0000772
1.000075
1.0000718
1.0000678
1.0000627
1.0000576
1.0000526
1.0000499
1.0000481
1.0000484
1.0000489
1.0000501
1.0000499
1.0000506
1.0000495
1.00005
1.0000535
1.0000612
1.00007
1.000083
1.0000873
1.0000953
1.0000954
1.000095
1.000117
0.99895595
0.99983083
1.0000766
1.0000928
1.0000926
1.0000923
1.0000921
1.0000914
1.0000905
1.0000897
1.0000892
1.0000882
1.0000872
1.0000863
1.0000855
1.0000842
1.0000828
1.0000817
1.0000805
1.0000786
1.0000768
1.0000759
1.0000733
1.000072
1.0000705
1.0000687
1.0000681
1.0000673
1.000067
1.0000675
1.0000681
1.0000691
1.0000709
1.0000729
1.0000755
1.0000787
1.000082
1.0000861
1.0000901
1.0000943
1.0000981
1.0001013
1.0001038
1.0001054
1.0001063
1.0001066
1.0001062
1.0001054
1.0001041
1.0001025
1.0001008
1.0000991
1.0000975
1.0000962
1.0000951
1.0000945
1.0000943
1.0000942
1.0000941
1.0000939
1.0000935
1.0000929
1.0000917
1.0000901
1.0000879
1.0000856
1.0000835
1.0000817
1.0000806
1.0000802
1.0000803
1.0000804
1.0000804
1.0000796
1.0000778
1.0000748
1.0000712
1.0000671
1.0000624
1.0000581
1.0000539
1.0000515
1.0000488
1.0000473
1.0000459
1.0000462
1.000047
1.0000505
1.0000534
1.0000579
1.0000617
1.0000657
1.0000658
1.000069
1.0000675
1.0000722
1.0000813
1.0001501
1.0001773
0.9989507
0.99982717
1.0000724
1.0000886
1.0000887
1.0000884
1.0000883
1.0000878
1.0000871
1.0000866
1.0000864
1.0000859
1.0000851
1.0000845
1.0000843
1.0000836
1.0000826
1.0000818
1.0000814
1.0000802
1.0000789
1.000078
1.0000766
1.0000753
1.000074
1.0000728
1.000072
1.0000715
1.000071
1.0000715
1.0000721
1.0000729
1.0000746
1.0000764
1.0000788
1.0000816
1.0000846
1.0000884
1.000092
1.0000959
1.0000995
1.0001026
1.0001051
1.0001068
1.0001078
1.0001083
1.0001083
1.0001077
1.0001068
1.0001056
1.0001042
1.0001027
1.0001014
1.0001001
1.000099
1.0000981
1.0000973
1.0000965
1.0000957
1.0000948
1.0000939
1.0000925
1.0000907
1.0000884
1.0000859
1.0000835
1.0000815
1.0000802
1.0000797
1.0000801
1.0000807
1.0000812
1.0000811
1.0000799
1.0000773
1.0000736
1.0000696
1.0000656
1.0000615
1.0000581
1.0000549
1.0000529
1.00005
1.0000475
1.0000449
1.0000445
1.0000464
1.0000519
1.0000581
1.0000648
1.0000679
1.0000701
1.0000643
1.0000591
1.0000504
1.0000443
1.0000477
1.0000637
1.0000975
0.99894472
0.99982182
1.0000669
1.0000832
1.0000836
1.0000834
1.0000834
1.0000834
1.0000832
1.000083
1.0000831
1.0000832
1.000083
1.0000828
1.0000831
1.0000832
1.0000828
1.0000825
1.0000828
1.0000823
1.0000816
1.000081
1.0000806
1.0000793
1.0000784
1.0000776
1.0000766
1.0000764
1.0000758
1.000076
1.0000766
1.000077
1.0000784
1.0000797
1.0000818
1.0000842
1.0000869
1.0000902
1.0000935
1.0000973
1.0001008
1.000104
1.0001067
1.0001088
1.0001103
1.0001112
1.0001116
1.0001115
1.0001108
1.0001097
1.0001083
1.0001067
1.000105
1.0001032
1.0001014
1.0000997
1.0000981
1.0000967
1.0000953
1.0000938
1.0000922
1.0000904
1.0000885
1.0000863
1.0000841
1.0000821
1.0000806
1.0000799
1.00008
1.0000805
1.000081
1.0000813
1.0000807
1.000079
1.0000758
1.0000717
1.0000676
1.000064
1.0000605
1.0000579
1.0000555
1.0000538
1.0000509
1.0000481
1.0000456
1.0000455
1.0000483
1.0000553
1.0000623
1.0000691
1.0000708
1.0000716
1.0000631
1.0000551
1.0000421
1.0000283
1.0000323
1.000054
1.0000775
0.99893804
0.99981549
1.0000604
1.0000769
1.0000776
1.0000776
1.0000779
1.0000785
1.0000789
1.0000792
1.0000798
1.0000805
1.0000809
1.0000814
1.0000822
1.0000831
1.0000834
1.0000836
1.0000846
1.0000849
1.0000847
1.0000847
1.0000848
1.0000839
1.0000833
1.0000829
1.0000818
1.0000815
1.0000811
1.0000807
1.0000812
1.0000811
1.0000821
1.000083
1.0000847
1.0000866
1.000089
1.0000918
1.0000951
1.0000987
1.0001024
1.0001058
1.000109
1.0001115
1.0001135
1.000115
1.0001158
1.000116
1.0001155
1.0001143
1.0001124
1.0001101
1.0001075
1.0001047
1.000102
1.0000995
1.0000972
1.000095
1.000093
1.0000911
1.0000893
1.0000877
1.0000862
1.0000846
1.0000831
1.0000818
1.0000808
1.0000804
1.0000804
1.0000806
1.0000807
1.0000804
1.0000793
1.0000772
1.000074
1.0000702
1.0000666
1.0000634
1.0000603
1.0000578
1.0000553
1.0000534
1.0000507
1.0000486
1.0000473
1.0000486
1.0000522
1.0000587
1.0000637
1.000069
1.0000704
1.0000728
1.0000663
1.0000596
1.0000437
1.0000268
1.0000267
1.0000168
1.0000541
0.99893103
0.99980865
1.0000535
1.0000702
1.0000713
1.0000717
1.0000724
1.0000734
1.0000745
1.0000754
1.0000765
1.0000778
1.0000792
1.0000804
1.0000816
1.0000832
1.0000845
1.0000853
1.0000866
1.0000879
1.000088
1.0000885
1.0000891
1.0000886
1.0000884
1.0000882
1.0000873
1.0000867
1.0000864
1.0000854
1.0000857
1.0000853
1.0000859
1.0000865
1.0000877
1.0000893
1.0000914
1.000094
1.0000971
1.0001007
1.0001045
1.0001083
1.0001119
1.0001149
1.0001174
1.0001193
1.0001203
1.0001205
1.0001198
1.0001181
1.0001154
1.0001121
1.0001085
1.0001047
1.0001011
1.0000977
1.0000947
1.000092
1.0000897
1.0000878
1.0000864
1.0000854
1.0000845
1.0000837
1.0000827
1.0000818