/*--------------------------------*- C++ -*----------------------------------*\
| =========                 |                                                 |
| \\      /  F ield         | OpenFOAM: The Open Source CFD Toolbox           |
|  \\    /   O peration     | Version:  2406                                  |
|   \\  /    A nd           | Website:  www.openfoam.com                      |
|    \\/     M anipulation  |                                                 |
\*---------------------------------------------------------------------------*/
FoamFile
{
    version     2.0;
    format      ascii;
    arch        "LSB;label=32;scalar=64";
    class       volScalarField;
    location    "15";
    object      rho_0;
}
// * * * * * * * * * * * * * * * * * * * * * * * * * * * * * * * * * * * * * //

dimensions      [1 -3 0 0 0 0 0];

internalField   nonuniform List<scalar> 
20580
(
0.99992046
1.0020333
1.0003233
0.99978429
0.99610547
0.99572155
0.99693987
0.99544847
0.99602122
0.99556729
0.99573803
0.99497963
0.99488068
0.99504671
0.99453837
0.99423665
0.99485421
0.99393866
0.99578382
0.99547084
0.99366007
0.99512991
0.99652827
0.99607101
0.99502815
0.99588476
0.99650504
0.99746281
0.99646587
0.99455818
0.99678155
1.0001153
1.0016036
1.0004332
1.0001098
0.99620659
0.99574273
0.99691478
0.99538228
0.99604484
0.99552921
0.99566738
0.99499674
0.99498206
0.99507728
0.99454798
0.99448902
0.99478308
0.99424534
0.99583319
0.99481433
0.99411362
0.99584211
0.99619374
0.9957087
0.99517791
0.99679508
0.99694692
0.99732596
0.99694886
0.99296217
0.99592415
1.000727
1.0014894
1.0003309
0.99972145
0.99675311
0.99617129
0.99643751
0.9954837
0.99586544
0.99552483
0.99550514
0.99521498
0.99502698
0.99508029
0.99433925
0.99487222
0.99461637
0.99468051
0.99594771
0.99427962
0.99481103
0.99696054
0.99669571
0.99522241
0.99474596
0.99784043
0.99725722
0.99567269
0.99710876
0.99376171
0.99378001
1.0015785
1.0016559
1.0000355
0.99885962
0.99756238
0.99705018
0.99580712
0.99569128
0.99559926
0.99556689
0.9953971
0.9955353
0.99507634
0.99502921
0.99409963
0.99503744
0.99431611
0.99484148
0.9961936
0.99423045
0.99526965
0.99741738
0.99749854
0.99580821
0.99489933
0.99861559
0.99814713
0.9943566
0.99613606
0.9976809
0.9956863
1.0025448
1.0018754
0.9997108
0.99783164
0.9982725
0.99790943
0.99538266
0.99597379
0.99543484
0.99567499
0.99544451
0.99562098
0.99512191
0.9949288
0.99415913
0.99504426
0.99409112
0.99470046
0.99625308
0.99466081
0.99577309
0.9972558
0.99715816
0.99673328
0.99622729
0.99845547
0.99809279
0.99473235
0.99388431
0.99964215
0.9991301
1.0031965
1.0020913
0.99964207
0.99726617
0.99860528
0.99786983
0.99545375
0.99613671
0.99539163
0.99576463
0.99561399
0.99541547
0.99527308
0.99471839
0.99436894
0.99481309
0.99419717
0.9948753
0.99588207
0.9952417
0.99660798
0.99757954
0.99611078
0.99698711
0.99746472
0.99778867
0.99662314
0.99649706
0.99349595
0.99788475
0.9983342
1.0030841
1.0022976
0.99989747
0.99739427
0.99844776
0.99698634
0.99589038
0.99605895
0.99549008
0.995786
0.9957201
0.99515425
0.99540947
0.994587
0.99474982
0.99471311
0.99447825
0.99549695
0.99533401
0.99542083
0.99747243
0.99824908
0.99562804
0.99737528
0.99781846
0.99751856
0.99582487
0.99790599
0.99638676
0.99707994
0.99646708
1.0023456
1.0022442
1.0002664
0.99822828
0.99802397
0.9960832
0.99640714
0.99576311
0.99566093
0.99571657
0.99572733
0.99512615
0.99541472
0.99479809
0.99511335
0.99482051
0.99458368
0.996175
0.9951021
0.99533248
0.99789362
0.99828375
0.99576474
0.99851078
0.99803764
0.99711295
0.99706808
0.99804618
0.99898037
0.99776822
0.99674717
1.0013234
1.0018299
1.0005187
0.99939913
0.99761127
0.99568181
0.99671576
0.99553421
0.99587866
0.99566493
0.99560502
0.99539356
0.99529055
0.99497892
0.99511957
0.99494898
0.99465257
0.99658036
0.995306
0.99558033
0.99799359
0.99755011
0.99588254
0.99973605
0.99905701
0.9967804
0.99904755
0.99870236
0.99989469
0.99734105
0.99645334
1.000448
1.0015354
1.0006542
1.0003207
0.99728207
0.99589568
0.99665021
0.99547032
0.99601065
0.99560097
0.99539944
0.99580412
0.99517433
0.99523359
0.99515798
0.99494856
0.99483162
0.99637712
0.99540711
0.99627451
0.99819629
0.99720666
0.99593907
0.99972239
1.0002805
0.99681332
0.99924891
0.99968618
1.0009204
0.99700987
0.99559937
0.99998013
1.0017693
1.0007226
1.0006506
0.99725074
0.99683705
0.99632377
0.99559942
0.99600641
0.99559672
0.99532323
0.99612102
0.99520363
0.995423
0.99509338
0.99480154
0.99532702
0.99600953
0.99538664
0.99696859
0.99817437
0.99772762
0.99722912
0.9988926
1.0007694
0.99783753
0.9977306
0.99927314
1.0018014
0.998511
0.99732
1.0002138
1.0020342
1.0004632
1.0001806
0.99745178
0.99785437
0.99601612
0.9958569
0.99590587
0.99575078
0.99555404
0.99602656
0.9953346
0.99544337
0.99517777
0.99487126
0.99593762
0.99600769
0.99575303
0.99754612
0.99783274
0.9982678
0.99956574
0.99850694
0.99971184
1.0001875
0.9974789
0.99808806
1.00076
1.0005588
1.0012226
1.0010789
1.0021228
0.99995945
0.999125
0.99776804
0.99828318
0.99587175
0.99608249
0.99571492
0.99571578
0.99596171
0.99568823
0.99552906
0.99548372
0.99532662
0.99504189
0.99619361
0.99607506
0.99647235
0.9980081
0.9975301
0.99809492
1.0012223
0.99946437
0.99758116
1.002163
0.99972957
0.99803104
0.99791561
1.0001893
1.0033217
1.002233
1.0023452
0.99971115
0.99788123
0.99788637
0.99781508
0.99592936
0.99619798
0.99545267
0.99544912
0.99621117
0.99538458
0.99568192
0.99541142
0.99509485
0.99534688
0.99621744
0.9957125
0.99706667
0.99826657
0.99774968
0.99745908
1.0011102
1.0009903
0.9966835
1.0017652
1.0023932
1.0000902
0.99644676
0.99869942
1.0024436
1.003183
1.002608
0.99989317
0.99724858
0.99805403
0.99693321
0.99623706
0.99619903
0.99531856
0.99541951
0.99608103
0.99523399
0.99572707
0.99530873
0.99501118
0.9956804
0.99638185
0.99514354
0.99708558
0.99811409
0.99850478
0.99746995
1.0003083
1.0012022
0.99837246
0.99997437
1.0030547
1.002525
0.99782419
0.99923519
1.0014375
1.003482
1.0023978
1.0001879
0.99747099
0.99827503
0.99624407
0.99656039
0.99608432
0.99552751
0.99568059
0.99570399
0.99535285
0.99586333
0.99543053
0.99526827
0.99563114
0.99668137
0.99491527
0.99700934
0.99767648
0.99908189
0.99827729
1.0002275
1.0000218
1.0008298
0.99954745
1.0016971
1.003152
1.0004063
1.0010424
1.0003685
1.0025785
1.0020691
1.00044
0.99845841
0.99829731
0.99616117
0.99664796
0.99588544
0.99582409
0.99595118
0.99535373
0.99578252
0.9960803
0.99551554
0.99569452
0.99546943
0.99698504
0.99545807
0.99737421
0.99730583
0.99904904
0.99926031
1.0008734
0.99917752
1.0020966
1.0007448
1.0004342
1.0024349
1.0028154
1.0027119
0.9991505
1.0011438
1.0017439
1.0006922
0.99977766
0.99811771
0.99661823
0.99644677
0.99561659
0.99595447
0.99611194
0.99525248
0.99617236
0.99605386
0.99547822
0.99613574
0.99556738
0.9968559
0.99628957
0.99810374
0.99708366
0.99870884
0.99998121
1.0007814
0.99983105
1.0022346
1.0015412
0.99994271
1.0013264
1.0043936
1.0045312
0.99925801
0.99997541
1.0017335
1.0008441
1.0009802
0.99824592
0.99756891
0.99633018
0.99560595
0.99608388
0.99603336
0.99557602
0.99621398
0.99583166
0.9953219
0.99611705
0.99564383
0.99606258
0.99661928
0.99849226
0.99710527
0.99844221
1.0004793
0.99948019
1.0009036
1.0024172
1.0018746
0.99972241
1.0000853
1.0041794
1.0054508
1.0009642
0.9998242
1.0017268
1.0007844
1.0012949
0.99824689
0.99817035
0.99636779
0.99591582
0.99615938
0.99567935
0.99598883
0.9959304
0.99557556
0.99508193
0.99563549
0.99574087
0.99540869
0.99668738
0.99816211
0.99742468
0.99850815
1.0010016
0.9984724
1.0011318
1.0025695
1.0023978
1.0002825
0.99967718
1.0025514
1.0040015
1.0025699
1.0005624
1.0020736
1.0004397
1.0002238
0.99804694
0.99785126
0.99637132
0.99620291
0.99594917
0.99538708
0.99610444
0.9956836
0.99543599
0.9951985
0.99528604
0.99603183
0.99535114
0.99685235
0.99723515
0.99785764
0.9985977
1.0009067
0.99911851
1.0007997
1.0018201
1.0026349
1.0020491
1.0010438
1.0015859
1.0014902
1.0029305
1.0019819
1.0024544
1.0002241
0.99855112
0.99775638
0.99719422
0.99658613
0.99635896
0.99576652
0.99559302
0.99609693
0.99592404
0.99559001
0.99597681
0.99539628
0.996416
0.99576121
0.9973588
0.99626901
0.99841743
0.99887182
0.99935857
1.000933
1.0010329
1.000461
1.0015058
1.0035173
1.0038724
1.0024649
1.0000995
1.0022317
1.0034088
1.0027518
1.0011464
0.99674631
0.99757765
0.99861373
0.99733173
0.99530607
0.99568133
0.99686342
0.99791607
0.99620755
0.99471913
0.99561972
0.99546121
0.99697961
0.99623574
0.99803222
0.99584037
0.99883334
0.99992
0.99778751
1.0017875
1.0017017
1.0001297
1.0000482
1.0034347
1.0060823
1.0042623
0.9999037
1.0021767
1.0036558
1.0037926
1.0036368
1.0018488
0.9988693
0.99778468
0.99972769
1.0018279
1.0018155
1.0019139
1.002869
1.0003268
0.99588522
0.99638886
0.99935582
0.99816463
0.99582332
0.99728182
0.99823037
0.99544356
0.99475098
0.99599011
0.99455521
1.0031715
1.0035935
1.0035561
1.001832
1.0007991
1.0018763
1.0023804
1.0007742
0.99815613
0.99778371
0.99892715
0.99770192
0.99625272
0.9995614
1.0028696
1.0013843
0.99800885
0.99571106
0.99398445
0.99209703
0.99373971
0.996827
0.9966858
0.99933579
0.99952898
1.0005316
1.0026567
1.0052461
1.006145
1.00442
1.0015191
0.99918781
0.9982185
0.99784388
0.99730755
0.99810719
0.99952698
0.99865269
0.99635627
0.99610706
0.99838122
0.99878356
0.9954333
0.99440323
0.99574507
0.99527471
0.99826688
0.99963056
1.0013523
1.0022011
1.0015688
1.0001335
0.9994084
1.0004211
1.0020078
1.0022923
1.0011572
1.0006489
1.001258
1.0001565
0.99614352
0.99235829
0.99265579
0.99580495
0.99737219
0.99680069
0.99787834
0.99975627
0.99857223
1.0030269
1.003462
1.0030193
1.0008206
0.99728559
0.99511047
0.99551967
0.99779802
0.99999914
1.0003748
1.0003
1.0015724
1.0026775
1.000978
0.99729864
0.99513691
0.99565516
0.99614706
0.99492996
0.9936582
0.9949861
0.997856
0.99872944
1.0026019
1.0028863
1.0022705
1.0008415
0.99945707
0.99932741
0.99983378
0.99956699
0.99805991
0.9963216
0.99601592
0.99737807
0.9984169
0.99787449
0.99728958
0.99835749
1.0001048
1.0003047
0.99834339
0.99551712
0.99356794
0.99260413
0.99197057
0.99794424
0.99803692
0.99844351
1.000005
1.0023645
1.004149
1.0041289
1.0020934
0.99916849
0.99677056
0.99546066
0.9946779
0.99389792
0.99359033
0.99478065
0.99730021
0.99972236
1.0007752
1.0001995
0.99858885
0.99681258
0.99440721
0.99170537
0.99625049
0.99650274
0.99725944
0.99875484
1.0002949
1.001321
1.0013205
1.0007587
0.99991229
0.99869085
0.99744999
0.99639109
0.99531643
0.99453689
0.99434347
0.99496607
0.99597159
0.99629165
0.9960859
0.99663658
0.99768685
0.99805195
0.99716871
0.99935216
0.99902685
0.99842906
0.99780919
0.99728679
0.99676295
0.99644437
0.99646485
0.99684387
0.9975284
0.99842706
0.99913446
0.99901238
0.99805045
0.9969711
0.99633528
0.99525127
0.99339443
0.99183218
0.99176632
0.99329409
0.99586715
0.99794668
1.0009569
0.99998144
0.99874867
0.99737387
0.99635567
0.99527053
0.99424838
0.99341808
0.99331054
0.99455473
0.99670184
0.99876511
1.0000605
1.0003247
0.99975235
0.99832587
0.99633131
0.99445361
0.99271695
0.99123934
0.99053325
0.99121972
0.99291011
0.99824504
0.99799617
0.99799648
0.99783656
0.99734763
0.99594312
0.99436762
0.99315196
0.99292701
0.99365892
0.99489777
0.99625861
0.99721817
0.99753989
0.99728184
0.99689715
0.99664826
0.99640219
0.99606685
0.99539801
0.99387818
0.99186702
0.99023028
0.99534493
0.99561513
0.99624185
0.99685487
0.99701252
0.99665747
0.99613122
0.9956726
0.99524752
0.99502766
0.99496607
0.99481883
0.99426389
0.99344674
0.99272167
0.99271244
0.99382845
0.99580903
0.99784091
0.99880804
0.99798817
0.99567999
0.99293283
0.99334896
0.99367623
0.9941813
0.994772
0.99539927
0.99608252
0.99674305
0.9971745
0.99731172
0.99706526
0.9963052
0.99512404
0.99373488
0.99226627
0.99113449
0.99066918
0.99136523
0.9932636
0.9955707
0.99723392
0.99784768
0.99746272
0.99608642
0.99224193
0.99247196
0.99273523
0.99326067
0.99408114
0.9949911
0.99579476
0.99638807
0.99672473
0.99668989
0.99644238
0.99579881
0.99480945
0.99341746
0.99223075
0.99139261
0.99121006
0.99181348
0.99287532
0.99387904
0.99484977
0.99575802
0.99605978
0.9924335
0.99253174
0.99261755
0.99297133
0.99353578
0.9940375
0.99428517
0.99426383
0.99420594
0.99415485
0.9944095
0.99472761
0.99488681
0.99458879
0.99393207
0.99307632
0.99264022
0.99247053
0.99236429
0.99238722
0.99272591
0.99333481
0.99426561
0.99354322
0.99353632
0.99336185
0.99328523
0.99332158
0.99325432
0.99299294
0.99252172
0.99217058
0.9921421
0.99251148
0.99323583
0.99397643
0.99445408
0.99449363
0.99451198
0.99435427
0.99397024
0.99325383
0.99227216
0.99161571
0.99184648
0.99257157
0.99422821
0.99422693
0.99390729
0.9934685
0.99297883
0.9924968
0.99201228
0.99161129
0.99143806
0.99163426
0.99215476
0.99287888
0.99366765
0.99434271
0.99470313
0.99461438
0.99436091
0.99417869
0.99384519
0.99303404
0.99197866
0.99106153
0.99090348
0.99387021
0.99389364
0.99346179
0.99289557
0.99232903
0.99181101
0.99142313
0.99123986
0.99136728
0.99190305
0.99277561
0.9937054
0.99430866
0.99444137
0.99428548
0.99404954
0.99393312
0.99391419
0.99381959
0.99332826
0.99235003
0.99120902
0.99056398
0.99484882
0.9947398
0.99395855
0.99280484
0.99158966
0.99060702
0.99020077
0.99048112
0.99130565
0.99247471
0.99359747
0.99444873
0.99483417
0.99466003
0.99418467
0.99382998
0.99360595
0.99337835
0.99309446
0.9928156
0.99239808
0.99188287
0.99152522
0.99609994
0.99594534
0.99489519
0.99335812
0.99173348
0.99050944
0.99004032
0.99019267
0.99081039
0.99160214
0.99254186
0.9936366
0.99471848
0.9953934
0.99539469
0.99474405
0.99375502
0.99284233
0.9923608
0.99246235
0.99285087
0.99316693
0.99331127
0.9949803
0.99511393
0.99478634
0.99415589
0.99335506
0.99257733
0.99187751
0.99116456
0.99043054
0.99004855
0.99040499
0.99169725
0.99360662
0.99541238
0.9964371
0.99633241
0.99536464
0.99428528
0.99360511
0.99317592
0.99263784
0.99208145
0.99187485
0.99632827
0.99583563
0.9947717
0.99370744
0.99286324
0.9920126
0.99115587
0.99058799
0.99033571
0.9906049
0.99162536
0.99332306
0.99529076
0.99670901
0.9969426
0.99621081
0.99525473
0.99455916
0.99385947
0.99278476
0.99144549
0.99066658
0.99111922
0.99921826
0.9976495
0.99492795
0.99238558
0.99080234
0.99002425
0.98979225
0.99009799
0.99113722
0.9928754
0.99486722
0.99650474
0.99735347
0.99699923
0.99563365
0.99422849
0.99373828
0.99401257
0.99403967
0.99334948
0.9924646
0.99203422
0.99232217
0.99763544
0.99697494
0.99524345
0.99338852
0.99208558
0.99133175
0.99083938
0.99072692
0.99152559
0.99336871
0.99552472
0.99688318
0.9967448
0.99550558
0.99424393
0.99395819
0.99467497
0.99544566
0.99529449
0.9939954
0.99231608
0.99118603
0.99136914
0.9944074
0.99532062
0.99565578
0.99536423
0.99438626
0.99328685
0.99232857
0.99181197
0.99227925
0.99362573
0.99495218
0.99528046
0.99492403
0.99490091
0.99560515
0.99648683
0.99664434
0.99557124
0.99348796
0.99122582
0.98984538
0.99031458
0.99325675
0.99241536
0.9935545
0.99470249
0.99545977
0.99543442
0.99476964
0.99420244
0.9941923
0.99453796
0.99490876
0.99504759
0.99500036
0.99505415
0.99547295
0.99627118
0.99693028
0.99644182
0.99442356
0.9916913
0.98981514
0.99023648
0.99317736
0.99734503
0.99225972
0.99267228
0.99340319
0.99475942
0.99644102
0.99761914
0.9977919
0.99700379
0.99558843
0.99432097
0.99413193
0.99474066
0.99511134
0.99543784
0.99592161
0.99611954
0.99564066
0.99427539
0.99261196
0.99171016
0.99199668
0.99371906
0.99627995
0.99358273
0.99397789
0.99426471
0.99517689
0.99693008
0.99837724
0.99871153
0.99751716
0.99569122
0.99445467
0.9940049
0.99451172
0.99515139
0.99502064
0.99447902
0.99401689
0.99423206
0.99439294
0.99420566
0.99436758
0.99481036
0.99486765
0.99443998
0.99399065
0.99544234
0.99649157
0.99635431
0.99557103
0.99508799
0.9958712
0.9976544
0.99865558
0.99798143
0.99577995
0.99337859
0.99221553
0.99239887
0.99265968
0.99316764
0.994384
0.99624117
0.99823191
0.99856941
0.99691731
0.99392991
0.99073153
0.99609773
0.99604058
0.99609107
0.99596619
0.99508147
0.99459467
0.99577029
0.99859692
1.0015028
1.0011352
0.99652175
0.99078377
0.98750076
0.98909875
0.99401405
0.99871066
0.99969671
0.99808529
0.99675888
0.99583622
0.99419662
0.99156247
0.98937469
0.99711715
0.99577295
0.99540856
0.99635257
0.99790168
0.99832077
0.99735007
0.9965448
0.99619912
0.99647212
0.9957197
0.99321267
0.99161246
0.99286981
0.99583891
0.99874002
0.99950785
0.99728549
0.99373492
0.99133229
0.99124799
0.99253451
0.99313645
0.99828486
0.99812162
0.99813635
0.99841679
0.99834246
0.99745284
0.99500862
0.99168757
0.98997763
0.99194237
0.99677357
1.0002834
0.99987101
0.99663362
0.99392541
0.99401041
0.99614899
0.99650185
0.99404941
0.99108795
0.99124618
0.99448018
0.99734423
1.0007424
0.99958304
0.99630583
0.99431148
0.99416062
0.99445094
0.99408928
0.99364745
0.99334372
0.99427327
0.99709642
1.0008784
1.0025997
0.99857822
0.99220126
0.98906719
0.99020633
0.9936518
0.99695681
0.99806758
0.99692955
0.99564456
0.99495155
0.9943855
0.99646392
0.99687455
0.99590064
0.99431725
0.99346706
0.99462207
0.9974721
1.0002733
1.000604
0.99770901
0.99454742
0.99409092
0.99580632
0.99625847
0.99379856
0.99063039
0.99026341
0.99427044
0.99938215
1.0013381
0.99942304
0.99605659
0.99212177
0.99376632
0.99630953
0.99890838
0.99995161
0.99893651
0.99754094
0.99746619
0.99877758
0.99853157
0.99439453
0.98985321
0.98939593
0.99304002
0.99654936
0.99775782
0.99670037
0.99401719
0.99299943
0.99391631
0.99542197
0.99680913
0.99782201
0.99417268
0.99507318
0.99618033
0.9976346
1.0001304
1.0019759
1.0006363
0.99607206
0.9917898
0.99071246
0.9918176
0.99351769
0.99416508
0.99357905
0.99324078
0.99594515
1.0003941
1.0011179
0.99729342
0.99235115
0.99099314
0.99319141
0.99637824
0.99905732
0.99843348
0.99823978
0.99727353
0.99605825
0.99564854
0.99506203
0.99387888
0.99299217
0.99243962
0.99255565
0.99363895
0.99520803
0.99593674
0.99477568
0.99365715
0.99464154
0.99677248
0.99711158
0.99560642
0.99543719
0.99912756
1.0034349
1.0018036
0.99916206
0.99593532
0.99276358
0.99164638
0.99258285
0.99366813
0.99322638
0.99315517
0.99513708
0.99710554
0.99604167
0.99334311
0.99303979
0.99542136
0.99587807
0.99258085
0.98961562
0.99095395
0.99529878
0.99891726
1.0025964
1.0067388
0.99546986
0.99671258
0.99538023
0.99228093
0.99030725
0.99150552
0.99542735
0.99823779
0.99703708
0.9945516
0.99434499
0.99483439
0.99343413
0.99215429
0.99393595
0.99523579
0.99155649
0.98658366
0.98798069
0.99663626
1.0031685
1.0028891
1.0005827
0.98948944
0.99225409
0.99667687
1.0000191
0.99949758
0.99667006
0.99457185
0.99428379
0.99391231
0.99275402
0.99304615
0.99477733
0.99471431
0.99222409
0.98982663
0.98978772
0.99011339
0.99072998
0.994251
1.0000698
1.0015017
0.99568884
0.9909815
0.99674198
0.99504519
0.9945693
0.99616614
0.99845313
0.99934393
0.99779093
0.9962435
0.99483892
0.99290336
0.99094111
0.98954091
0.98822307
0.98694399
0.98650536
0.98925368
0.99332712
0.9970136
0.99840117
0.99702027
0.99265926
0.98738851
0.98680142
0.99780805
0.9973192
0.99626895
0.99532748
0.99551389
0.99644123
0.99637814
0.99475472
0.992724
0.99112812
0.98970052
0.98818997
0.98718283
0.98708921
0.987685
0.99070214
0.99366726
0.993926
0.9918889
0.98829901
0.98506107
0.98348775
0.98427076
0.99741055
0.99798934
0.99748245
0.99594494
0.99428453
0.99303269
0.992303
0.99148117
0.99030122
0.98973296
0.99041367
0.99175035
0.9929811
0.99285041
0.99118673
0.99001143
0.98957071
0.98776495
0.98498091
0.98157698
0.97924198
0.97816167
0.9769568
0.99428165
0.99590397
0.99677194
0.99661085
0.99589611
0.99402228
0.99263081
0.99217332
0.99183934
0.99171956
0.99148316
0.99154679
0.99215194
0.9918665
0.99055051
0.98851889
0.9873591
0.98633653
0.98458626
0.98014793
0.97531728
0.97202914
0.96909653
0.99326258
0.99410535
0.99482178
0.99626249
0.99826593
0.99860174
0.99784676
0.99657688
0.99503352
0.99373433
0.99210959
0.98947888
0.98790414
0.98723748
0.98703412
0.98657524
0.98647779
0.9858287
0.98405937
0.98018937
0.97458507
0.96916529
0.96425087
0.99832618
0.99841838
0.99707539
0.99570678
0.99582203
0.99615937
0.99633442
0.99551575
0.9937892
0.99274064
0.99275498
0.99174589
0.99040124
0.98839696
0.98746404
0.98742803
0.98742235
0.98713861
0.98408507
0.98059675
0.97454004
0.96776198
0.95951077
0.99667536
0.99849318
0.99857399
0.99697401
0.9954611
0.99419696
0.99446971
0.99487694
0.9943052
0.99370331
0.99351426
0.99361602
0.99323987
0.9907381
0.98894317
0.98902743
0.98919456
0.98935892
0.98563497
0.98110592
0.97526364
0.96906173
0.96043929
0.99469507
0.99632146
0.99739468
0.99748471
0.99727584
0.99715865
0.99795371
0.99866821
0.99773188
0.9961411
0.99386312
0.99212641
0.99154324
0.99043547
0.98936363
0.9891997
0.98866
0.98878645
0.9865885
0.98368878
0.97993171
0.97569565
0.96878449
0.99715384
0.99805063
0.99869348
0.99841435
0.99746506
0.99711237
0.99747284
0.99704614
0.99648718
0.99587665
0.99481299
0.99335449
0.99215589
0.99155137
0.99153062
0.99215663
0.99066464
0.98979203
0.98888484
0.98812896
0.9865611
0.98299309
0.97765819
0.99581506
0.99674513
0.99807777
0.99860176
0.99760686
0.99747744
0.99814894
0.99721484
0.99607927
0.99541041
0.99565357
0.99572784
0.99526761
0.99450778
0.99398395
0.99447608
0.99296242
0.9914063
0.99066836
0.99037124
0.98950928
0.9867384
0.98329984
0.99694983
0.99629061
0.99676129
0.99807936
0.99860854
0.99944913
1.0004219
0.99936385
0.99777907
0.99655242
0.99657941
0.99755542
0.99766881
0.99674691
0.99572381
0.99548456
0.99379178
0.9915449
0.99062262
0.98964686
0.9895853
0.98925097
0.98789367
1.0005117
0.99925722
0.99829432
0.99843531
0.99732193
0.99740526
0.99819203
0.99707066
0.99654101
0.99663266
0.99598622
0.99644656
0.99688992
0.99646663
0.99488558
0.99433615
0.993828
0.99268295
0.99172344
0.99130801
0.99278434
0.99299348
0.99284089
0.9979493
0.99695486
0.99645489
0.99693635
0.99620579
0.99624849
0.99724894
0.99668595
0.99723649
0.99907871
0.99866312
0.99750244
0.99644919
0.99662877
0.99603461
0.99585696
0.99591137
0.99626311
0.99567093
0.99550019
0.9977288
0.99766156
0.99635204
0.996206
0.99689175
0.99696946
0.99741333
0.99734701
0.99758494
0.99921317
0.99898538
0.99874625
0.99977917
0.99947925
0.9986549
0.99689442
0.99690852
0.99824815
0.99832565
0.99717311
0.99732037
0.99731569
0.99680142
0.99664469
0.99574608
0.99372172
0.99724864
0.99798518
0.9984928
0.99835752
0.99756697
0.99757835
0.99881058
0.99847637
0.99726801
0.99687432
0.99681751
0.99725016
0.99636235
0.99589816
0.99768625
0.99847951
0.99655602
0.99567892
0.99697703
0.99709959
0.99637744
0.99428666
0.99479345
0.99730671
0.99725656
0.99765833
0.99746043
0.99616417
0.99583333
0.9973313
0.99848554
0.99796728
0.99639961
0.99577696
0.99760998
0.99860667
0.99806812
0.99750478
0.99752357
0.9972361
0.99581369
0.99647477
0.99746577
0.99796897
0.99569137
0.99672293
0.99823101
0.99676101
0.9962958
0.99678702
0.99709321
0.99677953
0.99699221
0.99770617
0.99816557
0.99763046
0.99665734
0.99832595
0.9995631
0.99828305
0.99690602
0.9962808
0.99764912
0.99810862
0.99726391
0.99757274
0.99827573
0.99807067
0.99747169
0.99793583
0.99730602
0.99658332
0.99681839
0.9976028
0.99756442
0.99666468
0.99602447
0.99672751
0.99800884
0.9973873
0.99735528
0.9983361
0.99757365
0.99714459
0.99686724
0.99743881
0.9985821
0.99747383
0.99609973
0.99707997
0.99918588
0.99846049
0.99740679
0.99723209
0.99674271
0.9962058
0.99655013
0.99748243
0.99752394
0.9967558
0.99701175
0.99898601
0.99943167
0.99743851
0.99661596
0.99721972
0.99825031
0.99776644
0.9966477
0.99753231
0.99846937
0.99754505
0.99764809
0.99849263
0.99867734
0.9978486
0.99796495
0.99798025
0.99731403
0.9963394
0.99662844
0.99804593
0.99829382
0.99720447
0.99737231
0.99891496
0.99842173
0.99648456
0.99623282
0.99804438
0.99855193
0.99696218
0.99654084
0.99806506
0.99852728
0.99744394
0.99606173
0.9970307
0.99770211
0.99723492
0.99723625
0.99746845
0.99734986
0.99689346
0.99754407
0.99893434
0.99858435
0.99703454
0.99718763
0.99867751
0.99863947
0.99705005
0.9969329
0.99827162
0.99829137
0.99721023
0.99753351
0.99865132
0.9980781
0.99660557
0.99742347
0.9982086
0.99754646
0.9972653
0.99768186
0.99826512
0.99843512
0.99798363
0.99840621
0.99922862
0.99856019
0.99734191
0.99786378
0.99929678
0.99881128
0.99729301
0.99744701
0.99877724
0.99845574
0.9974847
0.99815706
0.99914835
0.99866079
0.99805014
0.99859795
0.99817837
0.99769274
0.99758127
0.99803114
0.99844717
0.99836429
0.99808773
0.99878672
0.99948915
0.99879189
0.99789662
0.9985004
0.99942332
0.99888405
0.99781516
0.998319
0.99906465
0.99832804
0.99754323
0.99834437
0.99915734
0.99859118
0.99773737
0.9978208
0.99783743
0.99796133
0.9983652
0.99890923
0.99914598
0.99896392
0.99879037
0.99936907
0.99956891
0.99859073
0.99781414
0.99851755
0.99956263
0.99921457
0.998548
0.99908728
0.9996967
0.9989223
0.99821576
0.99863436
0.99913996
0.99788048
0.99792124
0.99810637
0.99808287
0.9980336
0.99834384
0.99897669
0.99950249
0.99921427
0.99891919
0.99938722
0.99967594
0.99910713
0.99854293
0.99903618
0.99970459
0.99930163
0.99867606
0.99899047
0.99944931
0.99897239
0.99844942
0.99907147
0.99791182
0.99763032
0.99772674
0.99803539
0.99828796
0.99847353
0.99873139
0.99892715
0.9989729
0.99860321
0.99836567
0.99889327
0.99952086
0.9992835
0.99883062
0.99916807
0.99985335
0.99960388
0.99903803
0.99918285
0.99970901
0.9995949
0.99950867
0.9973063
0.996936
0.99680736
0.99722912
0.99794001
0.99845363
0.99855308
0.99850344
0.99872916
0.99907375
0.99897817
0.99868029
0.99889951
0.99938248
0.99934806
0.99891531
0.99909298
0.99956795
0.99963871
0.99938604
0.99963499
1.0000961
0.99969564
0.9969807
0.99700136
0.99708021
0.99727933
0.99759237
0.99798625
0.99827196
0.9984281
0.99829212
0.99812158
0.99828083
0.99836446
0.99827674
0.99849112
0.99913713
0.9993672
0.99926344
0.99942363
0.99978568
1.0001519
1.0001489
1.0000595
1.000274
0.99680646
0.99656343
0.99658103
0.99686248
0.99722136
0.99746116
0.99767805
0.99787833
0.99802312
0.99791298
0.99777874
0.99803113
0.99850198
0.99879051
0.99900627
0.99936652
0.99950188
0.99945366
0.99934693
0.99930062
0.99931807
0.99928655
0.9986819
0.99686652
0.99659208
0.99643612
0.99664386
0.99709576
0.9975129
0.99760576
0.99748183
0.99754872
0.9976935
0.99780754
0.99788581
0.99816839
0.99851521
0.99860402
0.99859625
0.9987818
0.99908885
0.99936138
0.99946914
0.9996579
0.99978718
1.0014733
0.99707396
0.99695235
0.99683601
0.99678983
0.99690635
0.99718908
0.99742562
0.9974239
0.99732041
0.99730029
0.99755604
0.99794902
0.99826792
0.99852287
0.99872307
0.99879797
0.99892964
0.99905404
0.99929592
0.99952111
0.99972452
0.99994244
0.99901447
0.99733374
0.99711183
0.99702253
0.99707718
0.99722408
0.99733859
0.99752971
0.99776659
0.99792615
0.99797452
0.99802321
0.99813912
0.99831732
0.99851402
0.99867793
0.99886653
0.99900621
0.99906959
0.99913836
0.99927581
0.99960181
0.99974467
1.0012028
0.99801493
0.99781886
0.99771945
0.99774703
0.99789375
0.99804672
0.99809387
0.99813436
0.99825687
0.99837137
0.99842187
0.99842956
0.99845542
0.99856665
0.99870226
0.99891926
0.99921241
0.99945358
0.99966785
0.99985697
1.000047
1.0002679
1.0005446
0.99879835
0.99863269
0.99855337
0.99859951
0.99867436
0.99868664
0.99862258
0.99849774
0.99836885
0.99833186
0.99841824
0.99859285
0.99885741
0.99912354
0.99939271
0.99958788
0.99973766
0.99983633
0.99992161
0.99999421
1.000315
1.0003265
1.0068899
0.99983616
0.99949826
0.99921997
0.99906728
0.99899395
0.99893987
0.99889333
0.99893858
0.99906526
0.99922488
0.99940333
0.99955269
0.999676
0.99972289
0.99974397
0.99976625
0.9998175
0.99982343
0.99993862
0.99989892
1.0001043
0.99971418
0.99262208
1.0002383
0.99997401
0.99974319
0.99966146
0.99971034
0.99980308
0.99983062
0.99979881
0.99975614
0.99973698
0.99974314
0.99974087
0.99975234
0.99984719
0.99996509
1.0001111
1.0002735
1.0005427
1.0004883
1.0010826
1.0001774
1.0025972
1.0073901
1.0006987
1.0005113
1.000298
1.0001853
1.0001829
1.000213
1.0002309
1.0001928
1.0001096
1.0000168
0.99993117
0.99987313
0.9999311
1.0000642
1.0002316
1.0004128
1.0005398
1.0006893
1.0006947
1.0007495
1.0011336
1.0011711
1.0026069
1.0008516
1.0007746
1.0006936
1.00062
1.0005494
1.0004257
1.0002601
1.0001446
1.000116
1.0001577
1.0002317
1.0002789
1.0002946
1.0002298
1.0001604
1.0000826
1.000053
1.0000883
1.0001821
1.0002417
1.0004477
1.0004447
1.0000481
1.000908
1.0007774
1.0006805
1.0006523
1.0006469
1.0005923
1.0004579
1.0002991
1.0001808
1.0001438
1.0001875
1.0002534
1.0002476
1.0001724
1.0000702
0.99999001
0.99995264
1.0000661
1.0001296
1.0002771
1.0001399
1.000199
0.99941622
1.0011372
1.0008299
1.0005006
1.000266
1.0001676
1.0001824
1.000257
1.0003177
1.0003141
1.0002658
1.0002064
1.0001355
1.0000565
0.99998109
0.99992852
0.99995053
1.000021
1.0001628
1.0002447
1.0004332
1.000425
1.0013133
1.005929
1.0005386
1.0004437
1.000271
1.0000889
0.99995115
0.99991141
0.99997341
1.0000834
1.0001521
1.0000874
0.99992598
0.99971522
0.99954962
0.99948412
0.99954114
0.99965746
0.99983359
0.99992189
1.0001557
1.0000214
1.0005068
0.99991242
0.9991973
1.0002579
1.0001655
1.0000548
0.99997793
0.99988882
0.99977163
0.99971328
0.99964731
0.99955291
0.99948409
0.99935951
0.99924486
0.99914923
0.99913795
0.99914918
0.99912086
0.99915577
0.99894721
0.99884732
0.99843177
0.99832588
0.99758601
0.97235223
1.000326
1.0001333
0.99998446
0.99991591
0.99980567
0.99966016
0.99953403
0.99937739
0.99926094
0.99919268
0.99914314
0.9991032
0.99903329
0.9989562
0.99884967
0.99870683
0.99862869
0.99858158
0.9985217
0.99856745
0.99836552
0.99990733
1.046057
1.0004052
1.0002746
1.0001403
1.0000288
0.99990064
0.99974812
0.99961654
0.99952625
0.99944417
0.99932554
0.99922006
0.99915084
0.99900333
0.99888921
0.99877493
0.99867098
0.99858286
0.99866579
0.99867658
0.99882088
0.99892916
0.99769644
0.94281159
1.0007148
1.0005293
1.0004144
1.000294
1.0001844
1.0001134
0.99996848
0.99980466
0.99962214
0.99945779
0.99934221
0.99924931
0.99913604
0.99900868
0.99885678
0.99866882
0.99852949
0.99853119
0.99857243
0.99882083
0.99891234
0.99914884
1.0104296
1.0011522
1.0009994
1.0009026
1.0007836
1.000613
1.0004738
1.0003435
1.0001844
0.99998806
0.99976265
0.99957256
0.99943009
0.99927402
0.99914745
0.99900233
0.99885857
0.99865927
0.99858247
0.99842851
0.99858165
0.99860332
1.0008878
1.0289522
1.0017912
1.0016254
1.0015002
1.0013572
1.0011984
1.001026
1.0008393
1.0006509
1.0004454
1.0002332
1.0000193
0.99984777
0.99963336
0.99944841
0.99919456
0.99902112