/*--------------------------------*- C++ -*----------------------------------*\
| =========                 |                                                 |
| \\      /  F ield         | OpenFOAM: The Open Source CFD Toolbox           |
|  \\    /   O peration     | Version:  2406                                  |
|   \\  /    A nd           | Website:  www.openfoam.com                      |
|    \\/     M anipulation  |                                                 |
\*---------------------------------------------------------------------------*/
FoamFile
{
    version     2.0;
    format      ascii;
    arch        "LSB;label=32;scalar=64";
    class       volVectorField;
    location    "15";
    object      U;
}
// * * * * * * * * * * * * * * * * * * * * * * * * * * * * * * * * * * * * * //

dimensions      [0 1 -1 0 0 0 0];

internalField   nonuniform List<vector> 
62344
(
(0.11334673 0.00058425284 -2.463555e-21)
(0.10662742 0.0019011876 -1.2835372e-21)
(0.11120226 0.0034590506 -2.6610815e-21)
(0.10815205 0.0034766115 1.3900787e-21)
(0.10550059 0.0041386703 0)
(0.10371092 0.0023901882 5.9739237e-21)
(0.10450087 0.0036813517 -6.2429795e-21)
(0.10739209 0.0032923176 3.2465226e-21)
(0.10947764 0.0029888646 0)
(0.11170376 0.00040391255 0)
(0.11452353 0.0032313231 1.4585632e-20)
(0.1131624 0.0023262487 -3.1330852e-20)
(0.10917456 0.00046540174 9.5022508e-22)
(0.1062439 0.00096755283 3.4006037e-20)
(0.10356242 0.0043325691 -1.7190609e-20)
(0.098528084 0.0046536019 1.677575e-20)
(0.093851607 0.01031873 -1.8497061e-20)
(0.090428878 0.0069493507 0)
(0.086761718 0.0037061219 0)
(0.091019837 0.01039327 -1.2965045e-21)
(0.095658962 0.012910649 -6.7379245e-22)
(0.089627374 0.010901787 7.0406793e-22)
(0.085896233 0.0092133885 1.4622328e-21)
(0.089371899 0.0113485 -4.8504557e-20)
(0.09115082 0.0093700546 5.052765e-20)
(0.083362597 0.012701494 0)
(0.079638584 0.014087826 0)
(0.088224411 0.0033468755 -4.4406786e-22)
(0.09407055 -0.0013497277 -5.9135186e-20)
(0.08693536 0.0090502488 6.1437073e-20)
(0.07316525 0.018567588 6.5746398e-20)
(0.06628346 0.01470925 -6.6224273e-20)
(0.074338757 -0.0020777708 -5.4271793e-22)
(0.078480285 -0.0061879949 7.2731348e-20)
(0.063271707 0.017803236 -7.3701898e-20)
(0.050634201 0.036397955 -6.165408e-22)
(0.066018202 0.019015263 -7.8630057e-20)
(0.098937049 -0.025909237 1.6604087e-19)
(0.11085869 -0.051650433 -1.7074691e-19)
(0.078680776 -0.022583148 -8.0398832e-21)
(0.028994904 0.03723399 -8.589261e-21)
(-0.0049950631 0.086188013 1.9292002e-19)
(0.0045906912 0.076817252 -1.0138673e-19)
(0.049123354 0.0091660778 0)
(0.10861381 -0.075626434 -1.0041541e-19)
(0.14561872 -0.12951774 2.1504619e-19)
(0.14231275 -0.13554364 3.8049261e-21)
(0.10935302 -0.10888707 -2.1924714e-19)
(0.075401197 -0.074365585 1.1493905e-19)
(0.060252265 -0.039218501 0)
(0.057422959 -0.0028620761 0)
(0.061091233 0.028722789 1.4130333e-19)
(0.046147912 0.055133208 -1.4539033e-19)
(0.030872531 0.058144497 -2.9020982e-22)
(-0.0059932954 0.062615745 -1.5929552e-19)
(0.11332016 0.00035141083 -1.3004833e-21)
(0.10632944 0.0017608702 1.3537774e-21)
(0.11118317 0.003780657 4.2178143e-21)
(0.1081865 0.0031074182 -4.3996227e-21)
(0.10576951 0.005064616 0)
(0.10396412 0.002847464 6.3258128e-21)
(0.10421691 0.0036452692 -8.2064803e-21)
(0.10710869 0.0039992907 -8.5269512e-21)
(0.10987856 0.0049434071 8.9249802e-21)
(0.11181285 0.0025464994 0)
(0.11347715 0.0019124207 0)
(0.11312761 0.0050314703 1.0000603e-21)
(0.11007814 0.0041118203 -1.0441569e-21)
(0.10676035 0.00012312874 1.5226899e-20)
(0.10329258 0.00046684659 -1.8133165e-20)
(0.097844454 0.0051287013 0)
(0.09379048 0.0078718703 0)
(0.092726592 0.0080034831 0)
(0.087771927 0.0044822265 2.1109903e-20)
(0.088297923 0.0043143132 5.065324e-22)
(0.093954197 0.0078379935 -1.3461666e-22)
(0.091155082 0.011659417 -7.2080068e-20)
(0.085948076 0.0089837817 4.8186798e-20)
(0.088164289 0.01092749 0)
(0.091869611 0.011130377 5.3467734e-20)
(0.084858033 0.012116806 5.7873939e-22)
(0.081415232 0.010668284 -1.1515955e-19)
(0.089447635 0.0036476721 6.1003175e-20)
(0.09204629 0.0014089561 -4.8640806e-22)
(0.083854288 0.0090938299 -6.5738594e-20)
(0.073764091 0.018200355 6.7762802e-20)
(0.072129554 0.018182074 5.4912087e-22)
(0.079486792 0.0044005358 -7.2399615e-20)
(0.076456148 -6.7118775e-05 1.5327867e-19)
(0.057653271 0.011810335 -7.8349794e-20)
(0.048236093 0.019050148 6.4430367e-22)
(0.065918184 0.0066928732 0)
(0.095033675 -0.01221542 0)
(0.095335109 -0.0058608235 3.5402507e-22)
(0.058376312 0.030698329 9.9379113e-20)
(0.013482051 0.067738209 -2.0006804e-19)
(0.0047424959 0.06589662 1.0376989e-19)
(0.038648336 0.011929743 1.0203307e-19)
(0.089094537 -0.062480161 -2.1969657e-19)
(0.12135991 -0.11135521 1.144576e-19)
(0.12928473 -0.11410414 0)
(0.11889884 -0.090823267 0)
(0.091750186 -0.059594637 0)
(0.050706226 -0.025003906 2.586355e-22)
(0.016922118 0.0084950632 -2.7257328e-22)
(0.0070209804 0.033589262 0)
(0.028047331 0.040394239 -1.1047395e-23)
(0.056111692 0.034406411 -2.9084456e-22)
(0.084231841 0.0094640113 4.6049518e-22)
(0.082351389 -0.016340935 -1.5004466e-22)
(0.11312682 0.000461256 1.3731909e-21)
(0.10594099 0.001502411 -1.4293073e-21)
(0.11087114 0.0024673411 -1.482538e-21)
(0.10789415 0.0033139465 1.5474053e-21)
(0.10561033 0.0038955229 -1.613017e-21)
(0.1040298 0.0045985985 1.6690051e-21)
(0.10416438 0.0033129875 3.4691785e-21)
(0.10684357 0.0028212046 0)
(0.10969271 0.0031768388 5.6361488e-21)
(0.1123662 0.0035094763 -8.7856144e-21)
(0.11355743 0.00049937881 0)
(0.11275651 0.0024561439 -1.0567023e-21)
(0.11116996 0.0032791809 1.017575e-24)
(0.10802943 0.00028325619 2.7241713e-24)
(0.10242698 -0.00036373606 1.9192246e-20)
(0.096998106 0.0062828098 -1.8601378e-20)
(0.093557985 0.0033916858 0)
(0.09273259 0.006639172 0)
(0.088858056 0.0095083836 0)
(0.088507478 0.0041994286 0)
(0.092621735 0.0032570839 0)
(0.091057212 0.0095244324 2.5872966e-20)
(0.086744579 0.0095644794 -2.6093894e-20)
(0.087638865 0.0075360737 -8.4435387e-22)
(0.092032526 0.0058488014 8.7251307e-22)
(0.086635075 0.0081399921 0)
(0.083405025 0.0065226291 0)
(0.091140648 0.00067805472 4.9372353e-22)
(0.092834398 -0.00077828941 5.1312109e-22)
(0.082340076 0.0047462822 0)
(0.071222665 0.013587202 0)
(0.073482517 0.016488327 -7.3963933e-20)
(0.084882535 0.0071810281 1.540648e-19)
(0.080805975 0.0046616048 -7.9767652e-20)
(0.059793749 0.014662538 -3.2638635e-22)
(0.050693056 0.015820475 8.6032814e-20)
(0.068825623 -0.0033654792 -9.2031647e-20)
(0.092904641 -0.021026695 0)
(0.085642076 -0.0087235405 7.8867999e-24)
(0.045288952 0.029164052 0)
(0.0058831101 0.05961122 1.0662444e-19)
(0.011061315 0.049001286 -1.1145432e-19)
(0.055976634 -0.0024109746 -1.0877964e-19)
(0.10037531 -0.060201677 1.194662e-19)
(0.11077542 -0.081487407 -2.2684336e-24)
(0.097590158 -0.068280774 0)
(0.081947764 -0.040155903 0)
(0.05861474 -0.00010755431 -2.7166376e-22)
(0.027818391 0.037779652 -1.4703107e-19)
(-0.0040554112 0.058773366 1.43002e-19)
(-0.01356689 0.056552223 0)
(0.0076382631 0.034054723 1.5090714e-19)
(0.047212635 0.0053587944 -1.6382808e-19)
(0.094218702 -0.030541131 1.5760573e-19)
(0.12795977 -0.057472237 -1.703759e-19)
(0.11303817 0.00070602675 -7.2218179e-22)
(0.10583744 0.0017879243 -2.2596891e-21)
(0.11069406 0.0019431456 4.6919799e-21)
(0.1078755 0.0040443107 -3.2700501e-21)
(0.10549938 0.0023121959 -5.0763668e-21)
(0.10404498 0.0054908374 5.2771395e-21)
(0.10452344 0.0036466504 -9.1404801e-21)
(0.10690976 0.0024929141 1.5303305e-20)
(0.10938139 0.0019071543 -8.9419725e-21)
(0.11233947 0.003654705 2.0670888e-21)
(0.11377644 0.0024003222 1.0688624e-21)
(0.1124137 0.0010388258 1.7805614e-20)
(0.11118529 0.00081590808 -1.6331295e-20)
(0.10844258 0.0022750043 2.0652388e-20)
(0.10233207 0.0033647329 1.0581407e-22)
(0.097750684 0.0058143491 -4.3203907e-20)
(0.094156644 0.00062970794 2.1206307e-20)
(0.091074282 0.0030600715 -7.0726749e-22)
(0.088980995 0.010775627 2.3366156e-20)
(0.090331323 0.0055802986 -2.3644606e-20)
(0.091863401 0.0020769029 0)
(0.089777086 0.0067969489 0)
(0.087612353 0.010198655 -2.6594373e-20)
(0.089018266 0.006854579 2.9483663e-20)
(0.092171296 0.0020183187 2.8890019e-20)
(0.08687381 0.0059206208 -3.0764079e-20)
(0.08437234 0.0056399753 -3.1933459e-20)
(0.091443204 0.0012578694 3.3098224e-20)
(0.092323016 0.0022658424 0)
(0.081622078 0.0076394046 0)
(0.068943697 0.01340065 0)
(0.071390037 0.012745696 0)
(0.084235746 0.0075768746 0)
(0.080457823 0.012721502 0)
(0.061977986 0.024930462 3.4622463e-22)
(0.057402875 0.019067525 -9.0544491e-20)
(0.076121534 -0.005725767 9.6655756e-20)
(0.091529344 -0.021552269 3.8048946e-22)
(0.074920282 -0.0050837459 -7.8837388e-22)
(0.034593224 0.029353943 1.1030614e-19)
(0.0041724393 0.051340365 -1.1036766e-19)
(0.019549631 0.03601259 1.1030256e-19)
(0.074666433 -0.011176463 -1.2467306e-19)
(0.11419195 -0.052134862 1.2175136e-19)
(0.10772836 -0.055659358 -2.4848096e-19)
(0.078291517 -0.039602712 -7.320157e-21)
(0.049286056 -0.0061630468 -6.6931291e-21)
(0.022156242 0.032885631 -5.8576268e-21)
(0.0042491333 0.067118906 -4.4166069e-21)
(-0.0021078659 0.070468102 -5.1329004e-22)
(0.0053212044 0.045338073 1.5963477e-19)
(0.024937789 0.0035445471 0)
(0.050889863 -0.036690283 1.6434665e-19)
(0.083635262 -0.067412564 -1.0006595e-20)
(0.11546828 -0.081486034 -1.8027042e-19)
(0.11277117 0.00088559938 1.527834e-21)
(0.10567782 0.0019659538 1.5919102e-21)
(0.11038113 0.0026059692 1.6522134e-21)
(0.10788984 0.0041196916 0)
(0.10530449 0.0022292027 0)
(0.10362457 0.0047837901 0)
(0.10477338 0.0043719446 -9.6516723e-22)
(0.10711129 0.0035749162 8.0602342e-21)
(0.10911114 0.0026477296 -7.3285988e-21)
(0.11204184 0.0022496778 -1.0888231e-21)
(0.11423624 0.003593438 -9.0474933e-21)
(0.11318259 0.00094729654 9.384037e-21)
(0.11093283 -0.001699535 -2.0780955e-20)
(0.10823497 0.0016518303 2.0365081e-20)
(0.10235185 0.0046346244 0)
(0.09833206 0.0020252194 0)
(0.095219968 0.00032346011 1.440178e-21)
(0.089856496 -0.00021036086 7.4592267e-22)
(0.088055937 0.007791285 -2.4627283e-20)
(0.09164905 0.0067343732 2.496208e-20)
(0.092132415 0.0034470569 0)
(0.088665946 0.0042245443 0)
(0.08709559 0.0075820735 -9.0570754e-22)
(0.090450321 0.0055088447 0)
(0.092864717 0.00042162122 -3.1017768e-20)
(0.086669234 0.0045083122 3.2413622e-20)
(0.084564031 0.0044866269 0)
(0.091060595 0.00025924023 0)
(0.091920602 0.0016618021 0)
(0.08262609 0.0071252729 0)
(0.070597062 0.010676442 0)
(0.071545256 0.0049205208 0)
(0.08184125 -0.00019963112 -3.3254687e-22)
(0.077444536 0.010534052 -3.4978985e-22)
(0.063511973 0.024908571 0)
(0.065817095 0.018671395 -3.7669125e-22)
(0.08481545 -0.0042974736 4.9362088e-20)
(0.092934769 -0.016584434 -5.2244963e-20)
(0.069735502 -0.0016910417 4.1911744e-22)
(0.028694666 0.026225725 4.4950368e-22)
(0.0031684007 0.041468251 0)
(0.023508642 0.023760981 4.804237e-22)
(0.076891652 -0.014562466 -1.2783878e-24)
(0.11406047 -0.037234921 1.289437e-19)
(0.10644793 -0.033682813 5.7567813e-21)
(0.069020797 -0.012203693 -1.328083e-19)
(0.023421706 0.019978209 -2.8295872e-22)
(-0.00940962 0.054671188 0)
(-0.01335429 0.069782629 -3.0691359e-22)
(0.0048469757 0.056197535 -3.1393593e-22)
(0.032738382 0.018938069 1.6409735e-19)
(0.059021764 -0.024426707 -1.764892e-19)
(0.073234337 -0.062032031 1.7857553e-22)
(0.086255201 -0.084713346 -3.4738491e-24)
(0.099619518 -0.096471109 -1.7377746e-22)
(0.11258051 0.00076705586 0)
(0.10546515 0.0021696656 0)
(0.11019586 0.0039182888 -1.7418268e-21)
(0.10795538 0.0035511098 0)
(0.10536862 0.0039938559 3.7852359e-21)
(0.10344652 0.0037435986 -2.9414962e-21)
(0.10467094 0.0042877069 1.018013e-21)
(0.10731217 0.0045770325 0)
(0.10941297 0.004257665 1.1032469e-21)
(0.11177701 0.0014879214 0)
(0.11403908 0.0036978527 -1.1954134e-21)
(0.11383855 0.003200949 -8.6863544e-21)
(0.11125707 -2.5402938e-05 2.0632768e-20)
(0.10743896 0.0011575252 -1.0792505e-20)
(0.10302963 0.0040945312 0)
(0.099534569 -0.0015205688 0)
(0.095829654 0.0010557873 8.4559885e-25)
(0.089625857 9.6607355e-05 -7.8993462e-22)
(0.086751801 0.0040984573 0)
(0.091185583 0.006209422 0)
(0.093118244 0.0061027254 8.8108829e-22)
(0.089041976 0.0046496733 2.852449e-20)
(0.086770679 0.0049063526 -6.1490224e-20)
(0.091038583 0.0038290056 3.2400665e-20)
(0.093301584 0.00075922652 3.2764447e-20)
(0.086607122 0.0055469933 -3.416497e-20)
(0.085380893 0.0049319139 -3.5603257e-20)
(0.091112539 -0.00040394397 3.7378891e-20)
(0.091070854 0.00070837772 -3.8820738e-20)
(0.082587356 0.0076470251 8.0735005e-20)
(0.073091477 0.011796446 -4.2375974e-20)
(0.074093891 0.0029217907 3.3964612e-22)
(0.07954694 -0.0038228827 7.0521861e-22)
(0.071104156 0.0086118474 7.3648621e-22)
(0.060332849 0.023645602 0)
(0.069328137 0.019969082 -4.9489705e-20)
(0.090482042 0.0012454154 1.0544111e-19)
(0.095640558 -0.0079313341 -5.4442331e-20)
(0.068914786 0.0065257738 -4.4444136e-22)
(0.028892799 0.029603908 -4.7349701e-22)
(0.0065438428 0.038024178 0)
(0.026546286 0.017401371 -6.2581884e-20)
(0.075414308 -0.015399209 4.5848907e-21)
(0.10841996 -0.030635581 6.9574869e-20)
(0.10149506 -0.018584444 0)
(0.065351304 0.0075346711 0)
(0.01367681 0.037411098 -8.1245554e-20)
(-0.021222922 0.055997313 7.9300358e-20)
(-0.024189191 0.052260115 1.5514457e-24)
(0.0070018636 0.028661649 1.6714705e-19)
(0.044309757 -0.0055873658 -3.5479342e-19)
(0.076416822 -0.039028279 3.6462203e-19)
(0.09453965 -0.064548272 -1.890096e-19)
(0.092498314 -0.076391111 -1.9097676e-22)
(0.087021825 -0.077363688 1.8820669e-22)
(0.11235927 0.00062097469 8.5191328e-22)
(0.10512318 0.0023083303 -8.8303628e-22)
(0.11006041 0.0043735278 -3.6713251e-21)
(0.10784913 0.0031061524 3.8351035e-21)
(0.10536938 0.0054548917 4.9901374e-21)
(0.10347815 0.0036058993 -1.0336677e-20)
(0.10440725 0.0035898019 3.2304143e-21)
(0.10709173 0.0044591339 -1.1213418e-21)
(0.10970076 0.0047886534 -1.1664791e-21)
(0.11189161 0.0017029726 -9.7084989e-21)
(0.11363909 0.0025645548 1.0046991e-20)
(0.11417031 0.0036911086 0)
(0.1120248 0.001380658 0)
(0.10738671 -0.00059233406 -7.1111468e-22)
(0.10382423 0.00099766141 -7.4012688e-22)
(0.10031947 -0.0034243113 1.2332102e-20)
(0.095606569 0.0011693725 -3.9256458e-20)
(0.089947099 0.0018991237 2.8280279e-20)
(0.085871209 0.00186587 -2.7423112e-20)
(0.089925493 0.0032200046 5.7425196e-20)
(0.092923462 0.0059099705 -9.3814341e-22)
(0.089933876 0.0059032109 -6.1474292e-20)
(0.087065343 0.004145161 3.3175958e-20)
(0.090885271 0.0019841559 3.3378397e-20)
(0.09273074 0.0013965644 -3.4920896e-20)
(0.086328635 0.0068902136 0)
(0.086238393 0.0053273102 -3.7490799e-20)
(0.091825635 -0.0012708112 3.9369782e-20)
(0.090319552 -0.001341659 6.36311e-22)
(0.081719687 0.0059655097 6.652325e-22)
(0.075426672 0.010952993 1.0401521e-21)
(0.078212022 0.0014482088 -3.6063889e-22)
(0.079534036 -0.0057949745 -7.4432168e-22)
(0.066699561 0.0051398965 -3.8759196e-22)
(0.056362855 0.017935941 0)
(0.069598744 0.014804734 0)
(0.093659169 -0.00044439879 -5.5039534e-20)
(0.097852859 -0.0055906082 1.1596464e-19)
(0.068980361 0.010736477 -5.7692401e-20)
(0.031574813 0.031706951 -2.4765086e-22)
(0.012869739 0.035682059 0)
(0.031942081 0.012369085 0)
(0.073542289 -0.017450726 -6.9290439e-20)
(0.098917917 -0.02765069 7.3751223e-20)
(0.088283575 -0.0070891955 -7.6253459e-20)
(0.055776529 0.023448638 7.6087649e-20)
(0.015014316 0.05101555 3.2472762e-22)
(-0.016505192 0.057896877 -8.5701336e-20)
(-0.017718603 0.039717764 8.866444e-20)
(0.0096365201 0.007304813 0)
(0.049978296 -0.025852308 -1.6692762e-24)
(0.081270519 -0.051832643 -9.4532578e-20)
(0.098453678 -0.063215399 1.9953192e-19)
(0.095480081 -0.061757605 -1.9824897e-19)
(0.07997935 -0.051031371 1.014078e-19)
(0.11221263 0.00061475715 0)
(0.10482736 0.0025117524 1.8663437e-21)
(0.11000151 0.0040337878 -3.0018997e-25)
(0.10775441 0.0035200792 -2.0216145e-21)
(0.10540341 0.0055553275 1.0963532e-24)
(0.10369832 0.0041924002 1.090336e-21)
(0.10436326 0.0034355137 -2.2562479e-21)
(0.10692033 0.003236127 5.9160393e-21)
(0.10987623 0.0035158131 0)
(0.11197762 0.0026486565 0)
(0.11340997 0.001723484 -9.2553005e-21)
(0.11431371 0.0023316446 1.0994316e-20)
(0.11262574 0.0020521016 0)
(0.1080617 -0.00069847715 7.505273e-22)
(0.10432674 -0.0015990024 7.8083601e-22)
(0.10020347 -0.0016535805 0)
(0.095610912 0.0016789234 -1.3496359e-20)
(0.090319511 0.0040233132 -9.1824328e-22)
(0.086176628 0.0023359597 1.5420556e-20)
(0.089156498 0.00036545943 0)
(0.092113816 0.0033766855 3.1359256e-20)
(0.090602203 0.0063421844 -6.5793297e-20)
(0.087877374 0.0053941677 3.3316432e-20)
(0.090893395 0.001564213 -3.575841e-20)
(0.091894631 0.002484652 3.7358317e-20)
(0.086123127 0.0081973085 0)
(0.087731126 0.0057545827 0)
(0.093405868 -0.001496835 0)
(0.090138626 -0.0024503215 -6.7126149e-22)
(0.080322166 0.0044980727 -6.9939561e-22)
(0.076341564 0.01031096 -4.6756074e-20)
(0.082003468 0.0027603059 4.866489e-20)
(0.080704591 -0.0033950154 3.9339752e-22)
(0.06421963 0.0055889227 0)
(0.053151007 0.015702303 0)
(0.067537173 0.011446518 4.4316442e-22)
(0.093600227 -0.0020909493 0)
(0.096856025 -0.0037443571 -4.6872164e-22)
(0.068783632 0.014349492 -6.5362476e-20)
(0.033957524 0.034086087 6.5465219e-20)
(0.01940945 0.034939282 6.8819385e-20)
(0.039467118 0.012030073 -7.3255525e-20)
(0.074904302 -0.016521017 7.3640955e-20)
(0.090521583 -0.024359238 -7.6226507e-20)
(0.076348155 -0.0049775472 -8.01025e-20)
(0.045415287 0.027049807 -4.0714257e-21)
(0.013821195 0.051050521 1.7430563e-19)
(-0.0041668682 0.053222966 -8.867212e-20)
(-0.00041833322 0.029141492 0)
(0.023268229 -0.0072419045 -9.4120128e-20)
(0.053049318 -0.041177851 1.9866702e-19)
(0.076569027 -0.060349381 -1.0418369e-19)
(0.08810211 -0.062822375 0)
(0.085552079 -0.051019107 -2.0847661e-22)
(0.06928457 -0.028529302 1.1325918e-19)
(0.11201346 0.00078026868 0)
(0.10458515 0.0026071936 0)
(0.10988216 0.0032316376 0)
(0.1076234 0.0041398041 3.1827957e-21)
(0.10536407 0.0044040712 -5.5617671e-21)
(0.10386257 0.0046758499 4.5896519e-21)
(0.10445722 0.004018435 -5.9745678e-21)
(0.10683285 0.0020575949 -1.244813e-21)
(0.10962205 0.0014288386 -1.296691e-21)
(0.11199511 0.0038386642 -1.2121432e-20)
(0.11365819 0.0012671833 9.789613e-21)
(0.1142061 -0.00013019392 0)
(0.11302137 0.0018371298 1.2085679e-20)
(0.10898431 0.00063385469 3.2613959e-23)
(0.10458612 -0.0026428361 -2.7151412e-20)
(0.09985366 0.0015679949 1.3687994e-20)
(0.095329632 0.0015353052 -8.9076144e-22)
(0.090836194 0.0042086191 -9.2729216e-22)
(0.087111951 0.0035835244 -2.170602e-24)
(0.088921237 -0.0016215661 4.9467934e-22)
(0.090950473 0.00026736885 5.1742199e-22)
(0.090012672 0.0052581613 5.4011243e-22)
(0.088600185 0.006135414 0)
(0.091215339 0.001799922 0)
(0.090986881 0.003423735 -3.9566176e-20)
(0.08556975 0.0084321399 4.0485395e-20)
(0.088912614 0.0059443682 0)
(0.095037858 -0.0010109927 0)
(0.090238338 -0.0028743106 0)
(0.079028986 0.0035504696 3.7016199e-22)
(0.076013246 0.0087984083 0)
(0.084364042 0.0036035247 5.0921791e-20)
(0.082883572 -0.00038205447 -5.3017671e-20)
(0.064177799 0.0074532419 4.3394269e-22)
(0.052250692 0.014550629 -5.7807842e-20)
(0.066580106 0.0071208359 6.0204834e-20)
(0.093066661 -0.0064955875 0)
(0.095712763 -0.0056295038 6.4720588e-20)
(0.067896866 0.013610765 -6.5267868e-20)
(0.036162079 0.031476981 2.7662355e-22)
(0.02540754 0.031337269 7.2993112e-20)
(0.045949623 0.01173656 -7.7006492e-20)
(0.076997525 -0.013241086 0)
(0.086633622 -0.019637824 8.1093314e-20)
(0.066264614 -0.0025842158 -8.1847219e-20)
(0.036601275 0.023510444 6.8915166e-22)
(0.010460337 0.045059066 0)
(0.0034475356 0.04758905 9.4299604e-20)
(0.016945262 0.025999252 -9.9497066e-20)
(0.041703424 -0.0078701687 9.9831711e-20)
(0.062833102 -0.038602397 -1.0651394e-19)
(0.075535808 -0.056253525 -1.0812597e-19)
(0.075899852 -0.055505548 2.1691979e-19)
(0.069428935 -0.037505044 2.7952604e-21)
(0.050488104 -0.010721152 4.570838e-21)
(0.11184144 0.00087180121 -9.9530448e-22)
(0.10445179 0.0025220526 -1.0359926e-21)
(0.10973543 0.0026276606 -2.1493633e-21)
(0.10758564 0.004416371 8.3372243e-24)
(0.10538745 0.0030264818 2.3452215e-21)
(0.10382743 0.0044330886 4.8385932e-21)
(0.10469012 0.004668765 -5.0233594e-21)
(0.10704484 0.0019599819 1.3086407e-21)
(0.10933903 0.0001608459 6.794799e-21)
(0.11191677 0.0040972472 -1.556943e-20)
(0.11417641 0.0012786814 7.38711e-22)
(0.11407997 -0.0015916322 1.2226786e-20)
(0.11296237 0.001072847 7.9740485e-22)
(0.10952707 0.0022217438 0)
(0.10474478 -0.0014882254 8.6730397e-22)
(0.10004228 0.0041233093 -9.0256853e-22)
(0.095599901 0.0006971374 2.3798568e-24)
(0.090846513 0.0027527168 1.9537998e-21)
(0.088067589 0.0045670254 -1.0112846e-21)
(0.089665384 -0.0013725454 1.6241959e-20)
(0.09006891 -0.0010018158 -3.5471029e-20)
(0.088846037 0.0037832386 1.8140244e-20)
(0.089026142 0.0051861003 0)
(0.091701581 0.00094755936 -1.9603439e-20)
(0.090410219 0.003202118 1.975347e-20)
(0.085325857 0.0074080176 -6.605708e-22)
(0.089682664 0.0041055113 -6.8994826e-22)
(0.096533999 -0.0019654133 0)
(0.091082892 -0.0034739634 0)
(0.078258258 0.0027825845 -3.8910405e-22)
(0.075103632 0.007326257 0)
(0.084959354 0.0040461532 0)
(0.08414255 0.0030051969 -5.683433e-20)
(0.064966845 0.011298271 -2.0313636e-21)
(0.052651953 0.015589603 1.2162508e-19)
(0.067063701 0.0049438192 -6.4553023e-20)
(0.09189165 -0.0087804885 0)
(0.093851436 -0.0057936559 2.6120627e-22)
(0.067468209 0.012338649 -2.7543547e-22)
(0.03792015 0.027926294 -2.9122038e-22)
(0.029802152 0.027753533 -7.6015356e-20)
(0.050212699 0.010071422 8.1088206e-20)
(0.079525614 -0.0095695178 0)
(0.086836074 -0.013924298 0)
(0.063812273 -9.25317e-05 -3.4264011e-22)
(0.031557674 0.02117513 -3.630864e-22)
(0.007307834 0.038584363 -9.7187095e-20)
(0.0053927139 0.041155164 1.0080123e-19)
(0.025089427 0.02427786 1.0159197e-19)
(0.053962955 -0.0020026356 -1.0847259e-19)
(0.075917663 -0.029171864 -2.1399444e-22)
(0.079706081 -0.041858259 1.1527723e-19)
(0.068302885 -0.038570921 -1.1384549e-19)
(0.05451646 -0.022679852 0)
(0.031653626 0.0011564216 -1.3104956e-19)
(0.11169014 0.00081970614 1.5750875e-21)
(0.10437262 0.0022067862 -5.4481848e-22)
(0.10957141 0.0024100922 1.1335406e-21)
(0.1076115 0.0040121771 1.1830355e-21)
(0.10540729 0.0023030437 4.9308534e-21)
(0.10359423 0.0037479754 -8.9232727e-21)
(0.10481801 0.0045789028 5.3206714e-21)
(0.10740636 0.002919566 0)
(0.10899198 0.00097111594 6.4457689e-21)
(0.11175872 0.0034595448 -5.2272914e-21)
(0.11466284 0.0018363507 -1.549176e-21)
(0.11425547 -0.00081564752 0)
(0.11259784 0.00060629823 -1.6790671e-21)
(0.10992441 0.0027449234 8.7837238e-22)
(0.10491669 0.00066644274 -9.149863e-22)
(0.10048024 0.0043519169 9.483191e-25)
(0.096161865 -0.00095864421 -1.4865135e-20)
(0.09058956 0.00027041049 3.1903475e-20)
(0.088353942 0.0041176022 -1.7056094e-20)
(0.090228799 0.00019729072 0)
(0.089329189 0.0012364776 -5.7548393e-22)
(0.088038642 0.003910733 0)
(0.089352439 0.0036353965 -6.2123185e-22)
(0.091764514 -0.00051943605 0)
(0.090060039 0.0024361354 -9.2365855e-25)
(0.085558825 0.0060879311 6.9756788e-22)
(0.090359649 0.0015287639 7.2650581e-22)
(0.097557644 -0.0042113036 2.4369923e-20)
(0.09172642 -0.0041944289 4.4312114e-22)
(0.07779516 0.001817914 -2.5985321e-20)
(0.073986492 0.0057394384 5.410387e-20)
(0.084301708 0.0035789644 -1.1376373e-19)
(0.084511317 0.0051648361 5.9424121e-20)
(0.065957483 0.014268032 -4.8146928e-22)
(0.0547581 0.016368016 -5.0264137e-22)
(0.068650595 0.0025119564 5.2063175e-22)
(0.090881859 -0.011011334 0)
(0.091796572 -0.0064827012 2.7703444e-22)
(0.067229799 0.010845944 2.898437e-22)
(0.039816099 0.024225023 0)
(0.033052108 0.022800522 -6.3690029e-22)
(0.051613732 0.0061137632 0)
(0.079019003 -0.0088068778 3.3932596e-22)
(0.086843415 -0.010008798 -9.0050195e-20)
(0.064709612 0.003154157 9.1320516e-20)
(0.032281605 0.019294574 0)
(0.0057051536 0.032932456 -1.997447e-22)
(0.00497813 0.032650633 0)
(0.026588044 0.021415383 1.0696911e-19)
(0.05826588 0.0027224868 -1.1435083e-19)
(0.082461085 -0.014950062 2.2773744e-22)
(0.086252651 -0.023773582 0)
(0.07065919 -0.02162429 -1.217067e-22)
(0.048707734 -0.010600478 0)
(0.023425383 0.0066236469 1.3194841e-22)
(0.11158827 0.00057376631 -5.540166e-22)
(0.104294 0.001783479 1.7249533e-21)
(0.1094628 0.0025065823 -1.194532e-21)
(0.10765865 0.0030792004 2.4848675e-21)
(0.10544599 0.00228081 -3.9036991e-21)
(0.10343508 0.0030566493 -8.9985967e-26)
(0.10477851 0.0035688088 -5.5732674e-21)
(0.1076299 0.0040559344 5.8407967e-21)
(0.10892836 0.002315648 5.3026362e-21)
(0.11157405 0.0021016565 -1.3400806e-20)
(0.11489722 0.0022461662 8.2273288e-22)
(0.11458387 0.0008111502 6.8151122e-21)
(0.11236319 0.00046143749 -1.3340307e-20)
(0.11006122 0.0018512829 1.3885808e-20)
(0.1049085 0.0026135704 9.6272765e-22)
(0.10109581 0.0028457545 -1.4980092e-20)
(0.097472879 -0.0021237569 1.6715121e-20)
(0.09026943 -0.0017088149 0)
(0.088016687 0.0025193347 1.8424835e-20)
(0.090335807 0.0015808309 -3.7182288e-20)
(0.08900354 0.0039491484 -4.563624e-23)
(0.088089479 0.0044746692 1.9492509e-20)
(0.089762021 0.0019325615 2.2188801e-20)
(0.091960784 -0.0022003163 -4.2923561e-20)
(0.089438755 0.0013063615 2.3313362e-20)
(0.085750572 0.0046409062 -3.6930692e-22)
(0.091432043 -0.0007280052 3.8231038e-22)
(0.09858901 -0.0064944035 2.5055502e-20)
(0.09246372 -0.0057441394 -2.6615882e-20)
(0.077634102 0.00016018044 4.3378002e-22)
(0.072740734 0.0034962605 0)
(0.082684808 0.0022904596 2.976762e-20)
(0.083759043 0.0061081039 3.9117031e-22)
(0.066952057 0.016313322 -3.1674501e-20)
(0.057534795 0.016702331 7.9619185e-22)
(0.070996685 0.00094653065 -3.4396857e-20)
(0.089851566 -0.011867044 3.69429e-20)
(0.089132349 -0.0058255818 -2.9141884e-22)
(0.066627435 0.010719771 3.0596628e-22)
(0.042121382 0.021920924 0)
(0.036467528 0.017962585 -8.4450764e-20)
(0.05282141 0.0012946584 8.98059e-20)
(0.077077004 -0.011740881 -1.7637169e-22)
(0.08476357 -0.0089334631 -9.4533012e-20)
(0.065805325 0.0049235014 9.5864257e-20)
(0.035763271 0.018822573 2.0119809e-22)
(0.0090520642 0.027655966 2.113694e-22)
(0.0032124597 0.024915828 1.1026038e-19)
(0.023053127 0.017830742 -1.1715096e-19)
(0.054584856 0.006027363 -4.649725e-22)
(0.08066457 -0.0022297532 0)
(0.09082207 -0.0064709284 0)
(0.076611756 -0.0031864869 1.3243078e-24)
(0.05329792 0.0024691074 0)
(0.026884347 0.013210906 -1.3981019e-22)
(0.1115418 0.00028196203 -1.1644563e-21)
(0.10418262 0.001407103 -1.2129171e-21)
(0.10940532 0.002736308 5.0282706e-21)
(0.10769305 0.00218352 -2.6300079e-21)
(0.10546655 0.0025992764 2.7379292e-21)
(0.10339536 0.0027555087 -4.2491456e-21)
(0.10452731 0.0022925208 -5.8532972e-21)
(0.10756092 0.0045874611 6.1427099e-21)
(0.10921142 0.0034382937 6.3723877e-21)
(0.11152878 0.00049174709 -1.2438778e-20)
(0.11480083 0.0021274882 6.0663725e-21)
(0.11479232 0.0024700868 0)
(0.11260216 0.00072453342 9.3235459e-22)
(0.10998668 0.00042532648 0)
(0.10511775 0.0038212439 0)
(0.10186665 0.0008909526 1.6292943e-20)
(0.098333041 -0.0020905253 -1.7596055e-20)
(0.090127395 -0.0019768731 -5.716679e-22)
(0.087536428 0.00048316292 7.7070453e-25)
(0.089743556 0.001834766 0)
(0.088726863 0.0056200507 2.115525e-20)
(0.088641918 0.0046291858 -1.9881295e-20)
(0.090622108 0.00096209212 -1.4934586e-24)
(0.09214347 -0.0027334265 2.1890045e-20)
(0.088838068 0.0010154862 -4.7785424e-20)
(0.085869348 0.0042387016 2.3995076e-20)
(0.0921934 -0.0012831881 -2.6020833e-20)
(0.099332004 -0.007193155 4.8645048e-22)
(0.093106864 -0.0061958522 2.8070601e-20)
(0.077710178 -0.00086010568 2.8511298e-20)
(0.071742512 0.0015986715 -2.9824458e-20)
(0.080572538 0.00091201781 0)
(0.082088262 0.0060002824 -5.1056111e-22)
(0.067573432 0.016903444 4.2301752e-26)
(0.060528248 0.016045764 -2.7958868e-22)
(0.073894174 -0.0008441488 3.6563843e-20)
(0.088998942 -0.012560675 -4.4700806e-22)
(0.086361962 -0.0049182903 -3.9306098e-20)
(0.066071353 0.011251404 4.1385496e-20)
(0.044714723 0.020873307 -8.705861e-20)
(0.040489667 0.014288897 9.5592661e-22)
(0.05398123 -0.0036434552 9.2943925e-20)
(0.073605493 -0.015406914 -4.9278936e-20)
(0.079679374 -0.0091145127 -1.9173412e-22)
(0.06425651 0.0062977462 -5.2224447e-20)
(0.038714399 0.0194013 5.3207561e-20)
(0.013617387 0.024533885 0)
(0.0037645643 0.020870655 -5.8823408e-20)
(0.015533236 0.013921813 6.1390348e-20)
(0.043633627 0.0058283812 4.8904665e-22)
(0.071910793 0.0027495269 0)
(0.087322483 0.0059002805 -1.3424518e-19)
(0.082583081 0.011755041 -3.5868465e-21)
(0.061474291 0.019275086 1.3901174e-19)
(0.035073407 0.02489942 1.4867675e-22)
(0.11153336 -1.661899e-06 -2.1399642e-25)
(0.1040372 0.0010870214 -2.5541681e-21)
(0.10937499 0.0027660033 0)
(0.10773118 0.0016478846 1.3823479e-21)
(0.1054546 0.0027565815 2.1618702e-21)
(0.1034646 0.0026661497 2.2347445e-21)
(0.10433756 0.0012971429 -9.2538917e-21)
(0.10739323 0.0039240881 -7.830886e-22)
(0.10961973 0.0038114073 -8.3416493e-22)
(0.11154374 -0.00042919406 1.3060797e-20)
(0.11449037 0.0017248219 -6.3850412e-21)
(0.1148784 0.0032582094 -7.555671e-21)
(0.11310056 0.0012028651 5.8762938e-21)
(0.1097774 -0.00069099454 0)
(0.10536389 0.0035807564 0)
(0.10286324 -0.00095516719 -1.7726055e-20)
(0.09881463 -0.0010604703 -9.0039768e-23)
(0.090387138 -0.00010302175 1.9743918e-20)
(0.087282016 -0.0012125877 -6.2274913e-22)
(0.088991405 0.0010300609 2.070785e-20)
(0.088502092 0.005070266 -2.1618917e-20)
(0.089282732 0.0035011824 -6.991604e-22)
(0.091521757 0.00025738188 -3.6392145e-22)
(0.092302733 -0.0024718795 -2.4200815e-20)
(0.088196041 0.001343385 2.507682e-20)
(0.085778203 0.0046946617 4.0988639e-22)
(0.092967285 6.1855744e-05 0)
(0.10005317 -0.0063029442 0)
(0.093879088 -0.0054486191 0)
(0.078321688 -0.00076156871 9.6459438e-22)
(0.071276422 0.00013673264 -5.0104846e-22)
(0.078759048 -0.00067879701 0)
(0.079722303 0.0051307072 2.699012e-22)
(0.067683406 0.016141869 5.6307441e-22)
(0.063688782 0.014571615 0)
(0.07682677 -0.0029636377 3.796076e-20)
(0.088531321 -0.012873964 -4.0484635e-20)
(0.082836507 -0.0035643263 0)
(0.064721326 0.013188501 3.4030969e-22)
(0.047952873 0.021144624 3.6040437e-22)
(0.045642814 0.01267524 0)
(0.05682033 -0.0061996919 0)
(0.070485214 -0.017745973 5.0758089e-20)
(0.073258956 -0.0097010563 -5.2570256e-20)