/*--------------------------------*- C++ -*----------------------------------*\
| =========                 |                                                 |
| \\      /  F ield         | OpenFOAM: The Open Source CFD Toolbox           |
|  \\    /   O peration     | Version:  2406                                  |
|   \\  /    A nd           | Website:  www.openfoam.com                      |
|    \\/     M anipulation  |                                                 |
\*---------------------------------------------------------------------------*/
FoamFile
{
    version     2.0;
    format      ascii;
    arch        "LSB;label=32;scalar=64";
    class       volVectorField;
    location    "15";
    object      U;
}
// * * * * * * * * * * * * * * * * * * * * * * * * * * * * * * * * * * * * * //

dimensions      [0 1 -1 0 0 0 0];

internalField   nonuniform List<vector> 
19701
(
(0.17563639 -4.5695085e-06 0)
(0.1766538 0.00024185571 0)
(0.17662923 7.5062292e-07 0)
(0.17676286 7.660701e-05 0)
(0.17676701 -1.4905231e-05 0)
(0.17686105 8.3605083e-06 0)
(0.17687997 -2.773043e-05 0)
(0.1769394 -1.9183589e-05 0)
(0.17696633 -2.8418444e-05 0)
(0.17700328 -2.6938958e-05 0)
(0.17703069 -2.680869e-05 0)
(0.17705669 -2.637446e-05 0)
(0.17708032 -2.5194254e-05 0)
(0.17710221 -2.4060712e-05 0)
(0.17712226 -2.3136248e-05 0)
(0.17714102 -2.209091e-05 0)
(0.17715903 -2.091909e-05 0)
(0.17717595 -1.9961445e-05 0)
(0.17719222 -1.8898004e-05 0)
(0.17720773 -1.7933801e-05 0)
(0.17722234 -1.7095418e-05 0)
(0.17723617 -1.6298043e-05 0)
(0.17724922 -1.5680323e-05 0)
(0.17726143 -1.5071436e-05 0)
(0.17727288 -1.4557384e-05 0)
(0.1772835 -1.4136096e-05 0)
(0.17729346 -1.3639457e-05 0)
(0.17730274 -1.327882e-05 0)
(0.1773117 -1.27697e-05 0)
(0.17732033 -1.2231252e-05 0)
(0.17732851 -1.1526817e-05 0)
(0.17733633 -1.065984e-05 0)
(0.17734375 -9.7410418e-06 0)
(0.17735091 -8.7064906e-06 0)
(0.17735792 -7.5586381e-06 0)
(0.17736447 -6.5829264e-06 0)
(0.1773707 -5.6822867e-06 0)
(0.17737659 -4.956734e-06 0)
(0.17738223 -4.3050064e-06 0)
(0.17738771 -3.724573e-06 0)
(0.17739324 -3.2552132e-06 0)
(0.17739871 -2.9401612e-06 0)
(0.17740411 -2.6217112e-06 0)
(0.1774096 -2.1437078e-06 0)
(0.17741481 -1.5998389e-06 0)
(0.17742035 -8.8849253e-07 0)
(0.17742625 -2.2788203e-07 0)
(0.17743226 4.2121559e-07 0)
(0.17743824 9.9726785e-07 0)
(0.17744411 1.6077402e-06 0)
(0.1774497 2.0019502e-06 0)
(0.17745507 2.1503159e-06 0)
(0.17746029 2.0353894e-06 0)
(0.17746525 1.9666513e-06 0)
(0.1774698 1.835473e-06 0)
(0.17747407 2.1234607e-06 0)
(0.17747765 1.8519026e-06 0)
(0.17748052 1.3957409e-06 0)
(0.17748247 8.8709316e-07 0)
(0.17748356 6.1184782e-07 0)
(0.17748399 1.0996476e-07 0)
(0.17748386 -1.1135384e-07 0)
(0.17748339 -2.6379961e-07 0)
(0.17748283 -2.2299645e-07 0)
(0.17748267 -4.3568617e-08 0)
(0.1774829 2.9413071e-07 0)
(0.17748374 8.5011208e-07 0)
(0.17748564 1.5088021e-06 0)
(0.1774887 2.080294e-06 0)
(0.17749243 2.4039694e-06 0)
(0.1774964 2.4237231e-06 0)
(0.17750034 2.2690014e-06 0)
(0.17750411 2.0762928e-06 0)
(0.17750758 1.7884475e-06 0)
(0.17751042 1.3150438e-06 0)
(0.17751242 6.873989e-07 0)
(0.17751352 2.6905974e-08 0)
(0.17751345 -6.4627836e-07 0)
(0.17751215 -1.263914e-06 0)
(0.17750936 -1.8044742e-06 0)
(0.17750573 -2.0972914e-06 0)
(0.1775014 -2.1160385e-06 0)
(0.17749814 -1.6128739e-06 0)
(0.17749622 -7.3621125e-07 0)
(0.17749777 5.7511039e-07 0)
(0.17750163 1.8293154e-06 0)
(0.17750997 2.9342584e-06 0)
(0.17751818 3.2290139e-06 0)
(0.17752861 2.8819756e-06 0)
(0.17753348 1.1396044e-06 0)
(0.17753901 -6.2106535e-07 0)
(0.17753481 -2.6565911e-06 0)
(0.17753698 -3.6374604e-06 0)
(0.17752544 -3.9015385e-06 0)
(0.17753713 -1.9104597e-06 0)
(0.17753173 4.792616e-07 0)
(0.17757622 2.988402e-05 0)
(0.17760496 5.1940259e-05 0)
(0.17768428 0.00043485405 0)
(0.17378352 0.00027820601 0)
(0.1765964 0.00053192436 0)
(0.17658097 0.0002765841 0)
(0.17665992 0.00041307238 0)
(0.17667555 0.00026091726 0)
(0.17671477 0.000316838 0)
(0.17674941 0.00023691027 0)
(0.17677747 0.00024635191 0)
(0.17681492 0.00020833089 0)
(0.17684358 0.00019809923 0)
(0.17687678 0.0001793202 0)
(0.17690645 0.00016517084 0)
(0.17693635 0.00015377585 0)
(0.17696442 0.00014268922 0)
(0.17699146 0.00013261436 0)
(0.1770175 0.00012477799 0)
(0.17704181 0.00011696012 0)
(0.17706445 0.00010926043 0)
(0.17708586 0.0001026811 0)
(0.17710646 9.6064577e-05 0)
(0.17712587 8.9656198e-05 0)
(0.1771445 8.3746948e-05 0)
(0.17716209 7.8059739e-05 0)
(0.1771789 7.2737172e-05 0)
(0.17719476 6.7727013e-05 0)
(0.17720986 6.3015147e-05 0)
(0.1772241 5.8608272e-05 0)
(0.17723754 5.447743e-05 0)
(0.17724999 5.0585632e-05 0)
(0.17726145 4.6725519e-05 0)
(0.17727206 4.3030923e-05 0)
(0.17728219 3.9621628e-05 0)
(0.17729182 3.639587e-05 0)
(0.17730122 3.3610807e-05 0)
(0.17731014 3.0874407e-05 0)
(0.17731903 2.843288e-05 0)
(0.17732762 2.6238482e-05 0)
(0.17733648 2.4729254e-05 0)
(0.17734523 2.3322508e-05 0)
(0.17735399 2.2435472e-05 0)
(0.1773626 2.1896759e-05 0)
(0.17737125 2.1697845e-05 0)
(0.17737996 2.1559298e-05 0)
(0.17738797 2.0678411e-05 0)
(0.17739636 2.0021681e-05 0)
(0.17740442 1.9480536e-05 0)
(0.17741229 1.9030721e-05 0)
(0.17741995 1.83394e-05 0)
(0.17742744 1.762955e-05 0)
(0.17743466 1.6902804e-05 0)
(0.17744158 1.5770183e-05 0)
(0.17744809 1.4448805e-05 0)
(0.17745386 1.299475e-05 0)
(0.17745909 1.1444637e-05 0)
(0.17746394 9.9195586e-06 0)
(0.17746867 8.0445625e-06 0)
(0.17747329 6.4072323e-06 0)
(0.17747742 4.7400149e-06 0)
(0.17748066 3.0436021e-06 0)
(0.17748334 1.466815e-06 0)
(0.17748534 5.1702449e-07 0)
(0.177487 -7.7548502e-08 0)
(0.17748839 -2.6372824e-07 0)
(0.17748969 1.2448082e-07 0)
(0.17749103 9.8681495e-07 0)
(0.17749258 1.9171275e-06 0)
(0.17749465 3.010037e-06 0)
(0.17749727 4.0281117e-06 0)
(0.17750035 4.8192309e-06 0)
(0.17750381 5.2123916e-06 0)
(0.17750743 5.3206736e-06 0)
(0.17751111 5.2440847e-06 0)
(0.17751467 4.9313602e-06 0)
(0.17751789 4.3152479e-06 0)
(0.17752063 3.3994556e-06 0)
(0.17752272 2.4045798e-06 0)
(0.17752414 1.1645936e-06 0)
(0.17752452 -3.455696e-07 0)
(0.17752402 -2.1334806e-06 0)
(0.1775223 -3.6088973e-06 0)
(0.17752034 -4.5361497e-06 0)
(0.17751783 -4.0875458e-06 0)
(0.1775169 -2.5940276e-06 0)
(0.17751669 1.3152946e-07 0)
(0.17752008 2.9640772e-06 0)
(0.1775239 6.3816794e-06 0)
(0.17753151 8.1055429e-06 0)
(0.1775357 8.9750184e-06 0)
(0.17754257 7.0501289e-06 0)
(0.17754247 5.085297e-06 0)
(0.17754814 9.783583e-07 0)
(0.17754323 4.1811797e-07 0)
(0.17755201 -2.9801413e-06 0)
(0.17754282 2.7325388e-06 0)
(0.17756194 4.6417817e-06 0)
(0.17754878 1.8566366e-05 0)
(0.17758495 3.0446649e-05 0)
(0.17752755 5.6413636e-05 0)
(0.17756184 -0.00030251475 0)
(0.17252963 0.00033644252 0)
(0.17672825 0.00053659879 0)
(0.17677541 0.00031865034 0)
(0.17679954 0.00045716535 0)
(0.1768037 0.00030455455 0)
(0.17683535 0.00037646054 0)
(0.17684791 0.00028536404 0)
(0.17687715 0.00030914702 0)
(0.17689664 0.00026157143 0)
(0.17692403 0.00025658055 0)
(0.17694646 0.0002314447 0)
(0.17697127 0.00021739431 0)
(0.17699497 0.000202171 0)
(0.17701796 0.00018713898 0)
(0.17703989 0.0001741299 0)
(0.17706178 0.00016288735 0)
(0.17708229 0.00015128613 0)
(0.17710277 0.00014109865 0)
(0.17712181 0.00013206733 0)
(0.17714007 0.00012334857 0)
(0.17715733 0.0001150366 0)
(0.17717395 0.00010749095 0)
(0.17718967 0.00010018569 0)
(0.1772049 9.3297516e-05 0)
(0.1772194 8.6746019e-05 0)
(0.17723341 8.0749249e-05 0)
(0.17724652 7.4969715e-05 0)
(0.17725901 6.9759344e-05 0)
(0.17727058 6.4947145e-05 0)
(0.17728114 6.0376956e-05 0)
(0.17729111 5.628705e-05 0)
(0.17730046 5.2377727e-05 0)
(0.17730925 4.8802157e-05 0)
(0.17731763 4.5335086e-05 0)
(0.17732547 4.2317307e-05 0)
(0.17733345 4.0015803e-05 0)
(0.1773412 3.8161254e-05 0)
(0.1773492 3.6415831e-05 0)
(0.17735716 3.5089414e-05 0)
(0.17736508 3.3856438e-05 0)
(0.17737287 3.2674456e-05 0)
(0.17738096 3.1428891e-05 0)
(0.17738933 3.0584903e-05 0)
(0.1773976 3.0278508e-05 0)
(0.17740579 2.9299373e-05 0)
(0.17741335 2.8080535e-05 0)
(0.17742099 2.6895525e-05 0)
(0.17742823 2.5685455e-05 0)
(0.17743512 2.4297744e-05 0)
(0.17744172 2.2940164e-05 0)
(0.17744802 2.1293217e-05 0)
(0.17745415 1.9659322e-05 0)
(0.17745997 1.8417809e-05 0)
(0.17746549 1.7059643e-05 0)
(0.17747079 1.5558292e-05 0)
(0.17747505 1.3598461e-05 0)
(0.17747877 1.1631139e-05 0)
(0.17748203 9.2990489e-06 0)
(0.17748511 6.9782221e-06 0)
(0.1774877 5.0498098e-06 0)
(0.17748989 3.4924079e-06 0)
(0.1774916 2.3512227e-06 0)
(0.17749293 1.7910343e-06 0)
(0.17749395 1.9446728e-06 0)
(0.17749457 2.702439e-06 0)
(0.17749557 4.0471987e-06 0)
(0.17749701 5.683556e-06 0)
(0.17749881 7.0568024e-06 0)
(0.17750082 8.2197091e-06 0)
(0.17750322 8.9596948e-06 0)
(0.17750616 8.973101e-06 0)
(0.1775094 8.4807152e-06 0)
(0.17751258 7.6565519e-06 0)
(0.17751538 6.5279304e-06 0)
(0.17751777 5.0519314e-06 0)
(0.17751957 3.3890582e-06 0)
(0.1775208 1.4355695e-06 0)
(0.17752132 -6.2212221e-07 0)
(0.17752147 -2.7840277e-06 0)
(0.17752103 -4.3209397e-06 0)
(0.17752079 -5.1909261e-06 0)
(0.17752033 -4.3654775e-06 0)
(0.17752117 -2.1604151e-06 0)
(0.17752224 1.8699528e-06 0)
(0.17752551 6.1732862e-06 0)
(0.17752746 1.0389863e-05 0)
(0.17753064 1.1622372e-05 0)
(0.17753058 1.1376327e-05 0)
(0.17753332 8.0867328e-06 0)
(0.17753101 5.9825321e-06 0)
(0.17753533 1.4694153e-06 0)
(0.1775315 2.1490649e-06 0)
(0.17754075 -1.5466121e-06 0)
(0.17753424 5.0616818e-06 0)
(0.17754841 3.4371856e-06 0)
(0.17752779 2.007247e-05 0)
(0.17755272 1.7035891e-05 0)
(0.17745336 3.6293034e-05 0)
(0.17751181 -0.00013590104 0)
(0.17112512 0.00036802491 0)
(0.17701577 0.00051075793 0)
(0.17707502 0.00034458856 0)
(0.17708254 0.00047301262 0)
(0.17707179 0.0003399071 0)
(0.17708055 0.00041416672 0)
(0.17707792 0.00032603489 0)
(0.17708818 0.00035296191 0)
(0.17709155 0.00030626369 0)
(0.17710166 0.00030351465 0)
(0.1771106 0.00027914554 0)
(0.17712121 0.00026652897 0)
(0.17713301 0.00025133136 0)
(0.17714501 0.00023452693 0)
(0.17715759 0.00022167669 0)
(0.17717093 0.00020810678 0)
(0.17718343 0.00019422603 0)
(0.17719635 0.00018176914 0)
(0.17720875 0.00016994548 0)
(0.17722108 0.00015897022 0)
(0.17723302 0.00014847609 0)
(0.1772446 0.00013861576 0)
(0.17725559 0.00012937201 0)
(0.17726646 0.00012040001 0)
(0.17727637 0.00011182241 0)
(0.17728634 0.00010409638 0)
(0.17729565 9.6158719e-05 0)
(0.17730453 8.9143792e-05 0)
(0.17731326 8.236884e-05 0)
(0.17732166 7.6052802e-05 0)
(0.17733021 7.0613847e-05 0)
(0.17733833 6.545048e-05 0)
(0.17734612 6.1317388e-05 0)
(0.17735378 5.7964533e-05 0)
(0.17736093 5.5371688e-05 0)
(0.17736814 5.3151498e-05 0)
(0.17737503 5.138475e-05 0)
(0.17738164 5.0156489e-05 0)
(0.17738891 4.8654778e-05 0)
(0.17739602 4.6596083e-05 0)
(0.17740278 4.4952784e-05 0)
(0.17740894 4.376805e-05 0)
(0.17741439 4.2346327e-05 0)
(0.17741995 4.1283056e-05 0)
(0.17742625 3.9795575e-05 0)
(0.17743287 3.8541769e-05 0)
(0.17743864 3.8088534e-05 0)
(0.17744375 3.644269e-05 0)
(0.17744857 3.4490995e-05 0)
(0.17745304 3.2094188e-05 0)
(0.17745756 2.9768728e-05 0)
(0.17746191 2.766936e-05 0)
(0.17746602 2.5615998e-05 0)
(0.17746988 2.3457217e-05 0)
(0.17747342 2.14427e-05 0)
(0.17747698 1.8961498e-05 0)
(0.17748042 1.6044876e-05 0)
(0.17748337 1.3307932e-05 0)
(0.17748648 1.0682606e-05 0)
(0.17748911 8.1314035e-06 0)
(0.17749129 5.9352106e-06 0)
(0.17749299 4.1610254e-06 0)
(0.17749419 3.0297871e-06 0)
(0.17749493 2.5374019e-06 0)
(0.1774952 2.9571881e-06 0)
(0.17749539 4.380428e-06 0)
(0.17749582 6.1184832e-06 0)
(0.17749661 7.8912948e-06 0)
(0.17749771 9.5537177e-06 0)
(0.17749923 1.0868026e-05 0)
(0.17750143 1.1549419e-05 0)
(0.17750406 1.1495276e-05 0)
(0.17750687 1.0621502e-05 0)
(0.17750936 9.1134486e-06 0)
(0.17751144 7.1773537e-06 0)
(0.17751296 5.0631305e-06 0)
(0.17751411 2.6595388e-06 0)
(0.17751489 2.39819e-07 0)
(0.17751581 -2.1112774e-06 0)
(0.17751666 -3.6410119e-06 0)
(0.17751826 -4.3019543e-06 0)
(0.17751983 -3.1423558e-06 0)
(0.17752205 -7.0871542e-07 0)
(0.17752302 3.6544609e-06 0)
(0.17752411 7.0709169e-06 0)
(0.17752236 1.0614136e-05 0)
(0.17752143 1.0891688e-05 0)
(0.17751747 1.0753977e-05 0)
(0.17751683 7.2285943e-06 0)
(0.17751265 5.8100985e-06 0)
(0.17751523 7.8238181e-07 0)
(0.17751097 2.8726417e-06 0)
(0.17751712 -1.5527173e-06 0)
(0.17750905 6.3118225e-06 0)
(0.17751832 9.9043199e-07 0)
(0.17749554 1.7606218e-05 0)
(0.17751153 -1.1468749e-05 0)
(0.1774912 3.6199698e-05 0)
(0.17754439 -0.00018241144 0)
(0.16956328 0.00036391737 0)
(0.17704774 0.00047345313 0)
(0.17723075 0.00033211675 0)
(0.17724159 0.00044990259 0)
(0.17722402 0.00032247685 0)
(0.17722677 0.00040321897 0)
(0.17721355 0.00032175812 0)
(0.1772159 0.00035795028 0)
(0.17721084 0.00031622777 0)
(0.17721326 0.00031935216 0)
(0.17721364 0.00029562892 0)
(0.17721667 0.00028668068 0)
(0.17722055 0.00027304922 0)
(0.17722503 0.0002571919 0)
(0.1772305 0.00024628786 0)
(0.17723684 0.00023340986 0)
(0.17724319 0.00021989223 0)
(0.17725051 0.0002080412 0)
(0.17725811 0.00019574738 0)
(0.17726571 0.00018402534 0)
(0.1772737 0.00017245801 0)
(0.17728165 0.00016125169 0)
(0.17728984 0.00015088423 0)
(0.17729806 0.00014065564 0)
(0.17730616 0.00013095668 0)
(0.17731444 0.00012215127 0)
(0.17732263 0.0001132359 0)
(0.177331 0.00010576773 0)
(0.17733939 9.8076768e-05 0)
(0.17734757 9.1286981e-05 0)
(0.17735586 8.542371e-05 0)
(0.17736338 7.9631847e-05 0)
(0.17737074 7.5245505e-05 0)
(0.17737773 7.1389529e-05 0)
(0.17738453 6.7794973e-05 0)
(0.17739106 6.4883378e-05 0)
(0.17739739 6.2087791e-05 0)
(0.17740312 6.0039609e-05 0)
(0.17740847 5.8205478e-05 0)
(0.17741329 5.6660723e-05 0)
(0.17741815 5.5210312e-05 0)
(0.17742273 5.362378e-05 0)
(0.17742646 5.190487e-05 0)
(0.17743115 4.9816032e-05 0)
(0.17743585 4.8266762e-05 0)
(0.17744009 4.6566465e-05 0)
(0.1774441 4.4141799e-05 0)
(0.17744776 4.1682351e-05 0)
(0.17745116 3.9323997e-05 0)
(0.17745432 3.6773927e-05 0)
(0.17745761 3.438968e-05 0)
(0.17746083 3.1906025e-05 0)
(0.17746384 2.9515666e-05 0)
(0.17746656 2.7086397e-05 0)
(0.17746968 2.4348426e-05 0)
(0.17747271 2.1844988e-05 0)
(0.17747577 1.9271969e-05 0)
(0.1774789 1.6374598e-05 0)
(0.17748193 1.3285727e-05 0)
(0.17748482 1.0111256e-05 0)
(0.17748747 7.3014905e-06 0)
(0.17748965 5.1630112e-06 0)
(0.17749132 3.6088846e-06 0)
(0.17749246 2.6886244e-06 0)
(0.17749318 2.7678813e-06 0)
(0.17749341 4.0309435e-06 0)
(0.17749322 5.9613252e-06 0)
(0.17749316 8.3221675e-06 0)
(0.17749366 1.0538957e-05 0)
(0.17749477 1.2373718e-05 0)
(0.1774965 1.3529928e-05 0)
(0.17749858 1.3730367e-05 0)
(0.17750078 1.2844181e-05 0)
(0.17750278 1.1079793e-05 0)
(0.17750454 8.7121406e-06 0)
(0.1775059 6.1554846e-06 0)
(0.17750718 3.4848202e-06 0)
(0.17750832 1.1081089e-06 0)
(0.17751012 -1.1654495e-06 0)
(0.17751229 -2.3076975e-06 0)
(0.1775157 -2.6385814e-06 0)
(0.17751897 -1.1906687e-06 0)
(0.17752216 6.8860313e-07 0)
(0.17752248 3.8474081e-06 0)
(0.17752112 5.8073329e-06 0)
(0.17751633 8.355692e-06 0)
(0.17751217 7.8860941e-06 0)
(0.17750544 8.5899758e-06 0)
(0.17750323 5.2332997e-06 0)
(0.17749775 5.3803954e-06 0)
(0.17749971 7.1667197e-07 0)
(0.17749418 3.5172097e-06 0)
(0.17749899 -3.2384489e-06 0)
(0.17748906 4.9883346e-06 0)
(0.17749888 -4.4400226e-06 0)
(0.17748506 1.529738e-05 0)
(0.17750263 8.0350611e-06 0)
(0.17754344 5.8976518e-05 0)
(0.17753657 0.00032853686 0)
(0.16801315 0.00033982817 0)
(0.17702987 0.00046248334 0)
(0.17727607 0.00033379208 0)
(0.17727443 0.00044113695 0)
(0.17727694 0.00030793762 0)
(0.17728248 0.00039276 0)
(0.17728153 0.00030448794 0)
(0.17728433 0.00034897961 0)
(0.1772814 0.00030355425 0)
(0.17728264 0.00031669864 0)
(0.17728125 0.00029302471 0)
(0.17728238 0.00029055291 0)
(0.17728334 0.00027852906 0)
(0.17728485 0.00026549542 0)
(0.17728758 0.00025719593 0)
(0.17729042 0.00024555272 0)
(0.17729394 0.00023343557 0)
(0.17729805 0.00022324704 0)
(0.17730297 0.00021143897 0)
(0.17730837 0.00020049623 0)
(0.1773142 0.00018909988 0)
(0.17731982 0.00017812463 0)
(0.1773259 0.00016799212 0)
(0.1773317 0.00015743692 0)
(0.17733775 0.00014751552 0)
(0.17734356 0.00013838952 0)
(0.17734945 0.00012894629 0)
(0.17735506 0.00012089791 0)
(0.17736088 0.00011272785 0)
(0.17736629 0.00010550595 0)
(0.17737172 9.9157466e-05 0)
(0.1773771 9.2995637e-05 0)
(0.17738235 8.8085003e-05 0)
(0.17738713 8.2954767e-05 0)
(0.17739189 7.8562875e-05 0)
(0.17739679 7.5149213e-05 0)
(0.1774018 7.1535897e-05 0)
(0.17740655 6.8379144e-05 0)
(0.17741074 6.5422273e-05 0)
(0.17741492 6.3268222e-05 0)
(0.17741917 6.1422206e-05 0)
(0.17742317 5.9605039e-05 0)
(0.17742737 5.756759e-05 0)
(0.17743131 5.5297888e-05 0)
(0.17743484 5.3244311e-05 0)
(0.17743792 5.1141504e-05 0)
(0.17744084 4.849211e-05 0)
(0.17744388 4.5920398e-05 0)
(0.17744704 4.3081478e-05 0)
(0.1774501 4.0032133e-05 0)
(0.17745281 3.7609708e-05 0)
(0.17745523 3.5611081e-05 0)
(0.17745808 3.3516956e-05 0)
(0.177461 3.1262084e-05 0)
(0.17746402 2.8938038e-05 0)
(0.1774672 2.6584047e-05 0)
(0.17747052 2.3972763e-05 0)
(0.17747411 2.1200067e-05 0)
(0.17747751 1.8083147e-05 0)
(0.1774807 1.4675924e-05 0)
(0.17748359 1.1354501e-05 0)
(0.17748606 8.3765072e-06 0)
(0.17748802 5.9631976e-06 0)
(0.17748939 4.2786335e-06 0)
(0.17749037 3.6951863e-06 0)
(0.17749084 4.314495e-06 0)
(0.17749109 6.2248401e-06 0)
(0.17749122 8.8579557e-06 0)
(0.17749169 1.1635435e-05 0)
(0.17749267 1.4035457e-05 0)
(0.17749407 1.5543749e-05 0)
(0.17749564 1.583036e-05 0)
(0.17749715 1.4744316e-05 0)
(0.17749829 1.266408e-05 0)
(0.17749922 9.951316e-06 0)
(0.17749996 7.1911829e-06 0)
(0.17750111 4.4731459e-06 0)
(0.17750259 2.5615487e-06 0)
(0.17750537 1.1741243e-06 0)
(0.17750905 7.996501e-07 0)
(0.17751403 7.4624349e-07 0)
(0.17751811 1.6350227e-06 0)
(0.17752158 1.9685334e-06 0)
(0.17752112 3.1858198e-06 0)
(0.17751868 3.482482e-06 0)
(0.17751204 5.1917027e-06 0)
(0.17750655 4.1833442e-06 0)
(0.17749836 5.4867856e-06 0)
(0.17749652 2.5602631e-06 0)
(0.17749006 3.9751547e-06 0)
(0.17749188 -1.0499168e-06 0)
(0.17748268 2.2671264e-06 0)
(0.17748745 -5.1375057e-06 0)
(0.17747826 5.8434369e-06 0)
(0.1774968 -2.2452581e-06 0)
(0.17749884 1.916042e-05 0)
(0.17751839 2.509561e-05 0)
(0.17755959 5.7301325e-05 0)
(0.17753076 -2.0890691e-05 0)
(0.16651538 0.00034913191 0)
(0.17694034 0.00044786151 0)
(0.17729314 0.00036938096 0)
(0.17728817 0.00043955269 0)
(0.17730514 0.00032434547 0)
(0.17730749 0.000399555 0)
(0.17731152 0.0003114096 0)
(0.17731777 0.00035448425 0)
(0.17731857 0.00030382501 0)
(0.17732301 0.00031973058 0)
(0.17732403 0.00029348982 0)
(0.17732638 0.0002940482 0)
(0.17732768 0.00028150898 0)
(0.17732916 0.00027074664 0)
(0.1773314 0.00026342835 0)
(0.17733302 0.00025194466 0)
(0.17733564 0.00024040158 0)
(0.17733795 0.00023067596 0)
(0.17734074 0.00021933072 0)
(0.17734289 0.0002086407 0)
(0.17734542 0.00019764015 0)
(0.17734767 0.00018715734 0)
(0.17735048 0.0001771675 0)
(0.17735282 0.0001666058 0)
(0.17735585 0.00015683742 0)
(0.17735865 0.00014760379 0)
(0.17736181 0.00013800007 0)
(0.17736493 0.00012986984 0)
(0.17736854 0.00012175262 0)
(0.17737216 0.00011437581 0)
(0.17737574 0.000107914 0)
(0.1773793 0.00010129615 0)
(0.17738301 9.5931522e-05 0)
(0.17738694 9.0653356e-05 0)
(0.17739092 8.6460299e-05 0)
(0.17739508 8.2961395e-05 0)
(0.17739962 7.9589424e-05 0)
(0.17740447 7.6631088e-05 0)
(0.17740912 7.3954115e-05 0)
(0.17741384 7.1522997e-05 0)
(0.17741844 6.8897618e-05 0)
(0.17742297 6.6595548e-05 0)
(0.17742754 6.4046428e-05 0)
(0.17743106 6.1154355e-05 0)
(0.1774346 5.8260506e-05 0)
(0.17743785 5.543439e-05 0)
(0.17744081 5.2667508e-05 0)
(0.17744377 5.0331484e-05 0)
(0.1774466 4.7855055e-05 0)
(0.17744927 4.5181924e-05 0)
(0.17745182 4.262265e-05 0)
(0.17745446 4.0087548e-05 0)
(0.17745739 3.7712234e-05 0)
(0.17746057 3.5526345e-05 0)
(0.17746374 3.3347803e-05 0)
(0.17746701 3.1103026e-05 0)
(0.17747024 2.8528184e-05 0)
(0.17747375 2.5526872e-05 0)
(0.17747725 2.213864e-05 0)
(0.17748054 1.8413885e-05 0)
(0.17748344 1.467915e-05 0)
(0.17748597 1.11007e-05 0)
(0.17748814 8.038926e-06 0)
(0.17748989 5.791861e-06 0)
(0.17749125 4.5949769e-06 0)
(0.1774922 4.8093612e-06 0)
(0.17749297 6.2955286e-06 0)
(0.17749352 8.7614807e-06 0)
(0.17749403 1.1692037e-05 0)
(0.17749462 1.4409335e-05 0)
(0.17749521 1.6148858e-05 0)
(0.17749579 1.6442072e-05 0)
(0.17749639 1.5104056e-05 0)
(0.17749669 1.27532e-05 0)
(0.17749695 9.9897797e-06 0)
(0.17749722 7.5640977e-06 0)
(0.17749839 5.4489211e-06 0)
(0.17750056 4.4016006e-06 0)
(0.17750462 3.8122668e-06 0)
(0.17750961 4.2648944e-06 0)
(0.17751532 4.0707282e-06 0)
(0.17751925 3.8401813e-06 0)
(0.17752146 1.9343966e-06 0)
(0.1775197 9.3885997e-07 0)
(0.17751643 -1.000834e-06 0)
(0.1775088 -2.1634254e-07 0)
(0.17750341 -1.2806376e-06 0)
(0.17749516 1.7774913e-06 0)
(0.17749432 -1.0724918e-07 0)
(0.17748819 2.5511725e-06 0)
(0.17749165 -3.9046712e-06 0)
(0.17748236 2.9241255e-07 0)
(0.17748889 -5.7668261e-06 0)
(0.17748214 9.9103211e-06 0)
(0.1775055 7.7028618e-06 0)
(0.17751867 2.8562765e-05 0)
(0.17753528 3.8444872e-05 0)
(0.17752563 6.9676007e-05 0)
(0.17750671 0.00041305409 0)
(0.16499669 0.00037784853 0)
(0.17683202 0.00044076079 0)
(0.17731801 0.00040272533 0)
(0.17731817 0.00044778781 0)
(0.17732181 0.00036157246 0)
(0.17732213 0.0004235718 0)
(0.177328 0.00034092889 0)
(0.17733237 0.00037461518 0)
(0.17733665 0.00032423059 0)
(0.17734088 0.00033554256 0)
(0.17734392 0.0003048724 0)
(0.17734694 0.00030222478 0)
(0.17734785 0.00028689278 0)
(0.17734912 0.00027574044 0)
(0.17735005 0.00026710221 0)
(0.17735017 0.00025516216 0)
(0.17735101 0.00024377451 0)
(0.17735103 0.00023386832 0)
(0.17735152 0.00022276627 0)
(0.17735162 0.00021207837 0)
(0.17735246 0.0002011027 0)
(0.17735313 0.00019103003 0)
(0.17735477 0.00018126399 0)
(0.17735607 0.00017100883 0)
(0.17735815 0.00016218207 0)
(0.17736017 0.00015320741 0)
(0.17736248 0.00014445534 0)
(0.17736501 0.0001368632 0)
(0.17736764 0.00012896453 0)
(0.17737055 0.00012180658 0)
(0.17737428 0.00011584749 0)
(0.17737824 0.00010940526 0)
(0.17738252 0.00010421284 0)
(0.17738756 9.9314975e-05 0)
(0.17739254 9.5164056e-05 0)
(0.17739734 9.1495214e-05 0)
(0.17740258 8.8372879e-05 0)
(0.1774081 8.5525521e-05 0)
(0.17741341 8.2609938e-05 0)
(0.17741878 7.9686049e-05 0)
(0.17742378 7.6499947e-05 0)
(0.17742852 7.3435376e-05 0)
(0.17743308 7.0515631e-05 0)
(0.17743689 6.7591468e-05 0)
(0.17744027 6.4355246e-05 0)
(0.17744352 6.1065735e-05 0)
(0.17744643 5.7816343e-05 0)
(0.17744929 5.4952038e-05 0)
(0.17745198 5.2136672e-05 0)
(0.17745461 4.9450024e-05 0)
(0.17745722 4.6880989e-05 0)
(0.17746 4.4329161e-05 0)
(0.17746284 4.1921582e-05 0)
(0.17746592 3.9679129e-05 0)
(0.17746895 3.7468246e-05 0)
(0.17747195 3.5065592e-05 0)
(0.17747485 3.2494368e-05 0)
(0.17747758 2.9288395e-05 0)
(0.17748018 2.5508035e-05 0)
(0.17748274 2.1320164e-05 0)
(0.17748517 1.7131978e-05 0)
(0.17748737 1.3162522e-05 0)
(0.17748943 9.7334472e-06 0)
(0.17749136 7.1591834e-06 0)
(0.17749323 5.7867261e-06 0)
(0.17749486 5.8027833e-06 0)
(0.17749639 7.2068454e-06 0)
(0.17749771 9.5412681e-06 0)
(0.17749869 1.2202214e-05 0)
(0.17749919 1.4600211e-05 0)
(0.17749916 1.6095562e-05 0)
(0.17749857 1.6241813e-05 0)
(0.17749765 1.4812456e-05 0)
(0.17749685 1.2426352e-05 0)
(0.17749663 9.7352065e-06 0)
(0.17749702 7.8476367e-06 0)
(0.17749866 6.6860023e-06 0)
(0.17750165 6.8672775e-06 0)
(0.17750665 7.362758e-06 0)
(0.17751189 8.2133553e-06 0)
(0.17751689 7.2280122e-06 0)
(0.17751923 5.5336438e-06 0)
(0.17751994 1.4882833e-06 0)
(0.17751668 -1.6008263e-06 0)
(0.17751283 -5.6242977e-06 0)
(0.17750541 -5.5886848e-06 0)
(0.17750096 -6.4422454e-06 0)
(0.17749389 -1.523178e-06 0)
(0.17749435 -2.1760089e-06 0)
(0.17748981 2.2658632e-06 0)
(0.17749585 -4.8004444e-06 0)
(0.17748928 6.2674862e-07 0)
(0.1774986 -4.3705811e-06 0)
(0.17749489 1.6492737e-05 0)
(0.17751429 2.0825502e-05 0)
(0.17751871 3.8078585e-05 0)
(0.17752546 3.3216406e-05 0)
(0.17748857 4.7865242e-05 0)
(0.17747092 -1.6873991e-05 0)
(0.16343183 0.00037815907 0)
(0.17670645 0.00044092382 0)
(0.17734575 0.00041946262 0)
(0.1773496 0.00045078265 0)
(0.17735403 0.00037599581 0)
(0.17735354 0.00042886259 0)
(0.17735384 0.00035532616 0)
(0.1773535 0.00038573028 0)
(0.17735218 0.00033567267 0)
(0.1773537 0.00034571876 0)
(0.17735322 0.00031264636 0)
(0.17735501 0.00030732181 0)
(0.17735418 0.00028832356 0)
(0.17735495 0.00027663161 0)
(0.17735464 0.00026534258 0)
(0.17735382 0.00025317199 0)
(0.17735356 0.00024212713 0)
(0.17735348 0.00023291481 0)
(0.17735385 0.00022314975 0)
(0.17735406 0.00021381719 0)
(0.17735467 0.00020426585 0)
(0.17735539 0.00019542312 0)
(0.1773567 0.0001866918 0)
(0.17735797 0.00017726553 0)
(0.17735985 0.00016952613 0)
(0.17736181 0.00016110973 0)
(0.1773646 0.00015314545 0)
(0.17736828 0.00014624259 0)
(0.17737215 0.00013885588 0)
(0.17737635 0.0001324156 0)
(0.17738107 0.00012677212 0)
(0.17738643 0.00012068717 0)
(0.17739221 0.00011588162 0)
(0.17739807 0.00011102878 0)
(0.17740386 0.00010666337 0)
(0.17740916 0.00010272503 0)
(0.1774148 9.9109852e-05 0)
(0.17742034 9.5665523e-05 0)
(0.17742567 9.2095793e-05 0)
(0.17743083 8.844537e-05 0)
(0.17743555 8.4630384e-05 0)
(0.17743978 8.0639975e-05 0)
(0.17744371 7.6928663e-05 0)
(0.17744717 7.339137e-05 0)
(0.1774498 6.9824732e-05 0)
(0.17745234 6.6339889e-05 0)
(0.17745479 6.2877636e-05 0)
(0.17745738 5.965689e-05 0)
(0.17745992 5.6472744e-05 0)
(0.17746251 5.3547452e-05 0)
(0.177465 5.0895039e-05 0)
(0.17746749 4.8431574e-05 0)
(0.17746988 4.6098671e-05 0)
(0.17747244 4.3797296e-05 0)
(0.17747488 4.1376023e-05 0)
(0.17747728 3.8759164e-05 0)
(0.17747949 3.5930178e-05 0)
(0.1774815 3.2551398e-05 0)
(0.17748339 2.8597514e-05 0)
(0.17748537 2.4297543e-05 0)
(0.1774874 1.993977e-05 0)
(0.1774895 1.585677e-05 0)
(0.17749167 1.2352787e-05 0)
(0.17749396 9.6756408e-06 0)
(0.17749635 8.1038471e-06 0)
(0.1774988 7.9527231e-06 0)
(0.17750099 9.1483873e-06 0)
(0.17750279 1.1167149e-05 0)
(0.17750394 1.3283103e-05 0)
(0.17750423 1.4861892e-05 0)
(0.17750366 1.5420847e-05 0)
(0.1775023 1.4936056e-05 0)
(0.17750059 1.3415611e-05 0)
(0.1774991 1.1504022e-05 0)
(0.1774985 9.6111288e-06 0)
(0.17749911 8.8107368e-06 0)
(0.1775016 9.0690096e-06 0)
(0.17750548 1.0564243e-05 0)
(0.1775105 1.171963e-05 0)
(0.17751488 1.2163194e-05 0)
(0.17751835 9.580203e-06 0)
(0.17751852 5.9408033e-06 0)
(0.17751767 -1.1549616e-07 0)
(0.17751355 -4.5920768e-06 0)
(0.17750999 -9.7402304e-06 0)
(0.17750382 -9.593435e-06 0)
(0.17750097 -1.0289933e-05 0)
(0.17749542 -3.838433e-06 0)
(0.17749715 -3.6067014e-06 0)
(0.17749422 2.908905e-06 0)
(0.17750277 -4.1073835e-06 0)
(0.17750113 2.6435121e-06 0)
(0.17751266 -1.1613172e-06 0)
(0.1775101 2.1517827e-05 0)
(0.1775197 2.4686375e-05 0)
(0.17750661 3.8245598e-05 0)
(0.1775093 1.9826975e-05 0)
(0.17745634 4.3779882e-05 0)
(0.17744894 0.00035156244 0)
(0.16190771 0.00034422787 0)
(0.17654874 0.00042263948 0)
(0.17738469 0.00040312445 0)
(0.17740011 0.00042545992 0)
(0.17740032 0.00035260532 0)
(0.17739418 0.00040568075 0)
(0.17738465 0.00033807508 0)
(0.17738342 0.0003742026 0)
(0.17737608 0.00032497113 0)
(0.17737559 0.00034090891 0)
(0.17737225 0.00030978187 0)
(0.17737255 0.00030724967 0)
(0.17737117 0.00028758374 0)
(0.1773722 0.00027835647 0)
(0.17737233 0.00026535091 0)
(0.17737247 0.00025367751 0)
(0.17737259 0.00024280973 0)
(0.17737188 0.00023368118 0)
(0.1773717 0.00022464753 0)
(0.17737226 0.00021584031 0)
(0.17737297 0.00020726116 0)
(0.17737422 0.00019972798 0)
(0.17737591 0.00019195721 0)
(0.17737781 0.00018378969 0)
(0.17738054 0.00017720168 0)
(0.17738354 0.00016981545 0)
(0.17738706 0.00016284853 0)
(0.17739065 0.00015663007 0)
(0.17739467 0.00014994467 0)
(0.17739905 0.0001438604 0)
(0.1774036 0.00013840975 0)
(0.1774084 0.00013234428 0)
(0.17741348 0.00012747604 0)
(0.17741836 0.0001225626 0)
(0.17742336 0.00011790522 0)
(0.17742787 0.00011361353 0)
(0.17743248 0.00010930941 0)
(0.17743685 0.00010506503 0)
(0.17744107 0.00010074366 0)
(0.17744496 9.6319641e-05 0)
(0.17744857 9.18013e-05 0)
(0.17745185 8.709876e-05 0)
(0.17745495 8.2659286e-05 0)
(0.17745788 7.8302872e-05 0)
(0.17746026 7.4261203e-05 0)
(0.17746267 7.0558153e-05 0)
(0.17746496 6.6994448e-05 0)
(0.1774672 6.3634908e-05 0)
(0.17746925 6.0207735e-05 0)
(0.17747133 5.7013633e-05 0)
(0.17747328 5.413164e-05 0)
(0.17747509 5.1598818e-05 0)
(0.17747669 4.9226198e-05 0)
(0.17747826 4.6887859e-05 0)
(0.17747971 4.4331108e-05 0)
(0.17748117 4.1459927e-05 0)
(0.17748251 3.8247263e-05 0)
(0.17748374 3.4693461e-05 0)
(0.17748491 3.072825e-05 0)
(0.17748616 2.6572809e-05 0)
(0.1774877 2.2398891e-05 0)
(0.17748967 1.8623324e-05 0)
(0.17749204 1.5374784e-05 0)
(0.17749478 1.2905144e-05 0)
(0.17749771 1.1377102e-05 0)
(0.17750072 1.1054301e-05 0)
(0.17750335 1.1732187e-05 0)
(0.17750529 1.2980299e-05 0)
(0.17750627 1.4213948e-05 0)
(0.17750614 1.4866365e-05 0)
(0.17750501 1.4539424e-05 0)
(0.17750316 1.3469812e-05 0)
(0.17750121 1.192088e-05 0)
(0.17749976 1.070823e-05 0)
(0.17749957 1.0059085e-05 0)
(0.17750098 1.0777983e-05 0)
(0.17750417 1.225733e-05 0)
(0.17750811 1.4546114e-05 0)
(0.17751221 1.542976e-05 0)
(0.17751452 1.4807224e-05 0)
(0.17751563 1.0543737e-05 0)
(0.17751427 5.3565356e-06 0)
(0.17751247 -2.2156007e-06 0)
(0.17750843 -7.4795337e-06 0)
(0.17750616 -1.3200531e-05 0)
(0.17750144 -1.262763e-05 0)
(0.17750057 -1.2997284e-05 0)
(0.17749663 -4.9868394e-06 0)
(0.17749994 -4.2432111e-06 0)
(0.17749861 4.5616481e-06 0)
(0.17750906 -1.675325e-06 0)
(0.17751154 6.2886376e-06 0)
(0.1775231 1.2834934e-06 0)
(0.17751806 2.1773425e-05 0)
(0.17751875 1.9563226e-05 0)
(0.17749755 3.434594e-05 0)
(0.17750316 9.5986494e-06 0)
(0.17746743 1.4285859e-05 0)
(0.17746303 -0.00016503737 0)
(0.16054958 0.00030294154 0)
(0.17638958 0.00038004126 0)
(0.17742737 0.00036720272 0)
(0.17744414 0.00038850548 0)
(0.17743429 0.00032973389 0)
(0.17743103 0.00038422972 0)
(0.17742134 0.00031851242 0)
(0.17742129 0.00035994474 0)
(0.17741607 0.0003118532 0)
(0.17741447 0.00033292717 0)
(0.17741186 0.00030498433 0)
(0.17741079 0.00030574146 0)
(0.1774094 0.00028814377 0)
(0.17740948 0.00028260384 0)
(0.17740947 0.00026958828 0)
(0.17740959 0.00025913101 0)
(0.17741038 0.00024838171 0)