/*--------------------------------*- C++ -*----------------------------------*\
| =========                 |                                                 |
| \\      /  F ield         | OpenFOAM: The Open Source CFD Toolbox           |
|  \\    /   O peration     | Version:  2406                                  |
|   \\  /    A nd           | Website:  www.openfoam.com                      |
|    \\/     M anipulation  |                                                 |
\*---------------------------------------------------------------------------*/
FoamFile
{
    version     2.0;
    format      ascii;
    arch        "LSB;label=32;scalar=64";
    class       volVectorField;
    location    "15";
    object      U_0;
}
// * * * * * * * * * * * * * * * * * * * * * * * * * * * * * * * * * * * * * //

dimensions      [0 1 -1 0 0 0 0];

internalField   nonuniform List<vector> 
62344
(
(0.11364243 0.00046229839 -2.4639719e-21)
(0.10671344 0.0018765773 -1.2832271e-21)
(0.11119565 0.0037985792 -2.6617745e-21)
(0.10773494 0.0034987265 1.3890975e-21)
(0.10518048 0.0047645913 0)
(0.10355917 0.0020165264 5.9663466e-21)
(0.10409636 0.0033558857 -6.2337592e-21)
(0.10710525 0.0033798929 3.2447378e-21)
(0.10963946 0.0035956363 0)
(0.11148052 0.00055134575 0)
(0.11409832 0.0029801071 1.4617983e-20)
(0.11364864 0.0035161852 -3.132858e-20)
(0.10949186 0.0015910306 9.2088052e-22)
(0.10586552 0.00045941076 3.4007965e-20)
(0.1031028 0.0043290883 -1.7184898e-20)
(0.098762301 0.0041686998 1.6769755e-20)
(0.094180031 0.010375195 -1.8512534e-20)
(0.090917471 0.0093368462 0)
(0.086751597 0.003447401 0)
(0.089192571 0.0077660304 -1.2932813e-21)
(0.095339228 0.011683803 -6.7219547e-22)
(0.091187976 0.012085165 7.0569599e-22)
(0.086050443 0.0099250316 1.4612398e-21)
(0.088138706 0.011519598 -4.8183703e-20)
(0.091739534 0.0096086241 5.0338965e-20)
(0.085583782 0.011320854 0)
(0.078662911 0.015170843 0)
(0.084810806 0.006601176 -4.4491344e-22)
(0.093428202 -0.0022766146 -5.8945914e-20)
(0.089824834 0.0048838631 6.1405328e-20)
(0.07726634 0.01704955 6.5537594e-20)
(0.066810751 0.018040907 -6.6083654e-20)
(0.070884469 0.0029747376 -5.4519026e-22)
(0.07938715 -0.011042356 7.2281867e-20)
(0.068925406 0.0049772581 -7.3776065e-20)
(0.049752882 0.032592463 -6.1805424e-22)
(0.052652646 0.032840932 -7.8919234e-20)
(0.083585563 -0.0055848259 1.6593529e-19)
(0.11365799 -0.050636939 -1.7332277e-19)
(0.10387545 -0.049188002 -5.6802595e-21)
(0.059941748 -3.1174864e-05 -9.6162653e-21)
(0.010996524 0.064730804 1.9602648e-19)
(-0.0071331183 0.094581694 -1.0032119e-19)
(0.012745025 0.060758398 0)
(0.066275515 -0.016503237 -1.0101371e-19)
(0.12200752 -0.093748281 2.1678876e-19)
(0.1480912 -0.13515702 -1.8697211e-21)
(0.13191907 -0.12998157 -2.1634776e-19)
(0.099350957 -0.1070216 1.0922017e-19)
(0.073802914 -0.075586382 0)
(0.063967524 -0.0415636 0)
(0.069921684 -0.0082183454 1.3907934e-19)
(0.061631348 0.027134147 -1.44887e-19)
(0.048430329 0.046764021 -2.9923715e-22)
(0.0038202488 0.07250385 -1.6229963e-19)
(0.11364777 0.00043378138 -1.3005048e-21)
(0.10642364 0.0014465402 1.3537304e-21)
(0.11116108 0.0034807009 4.2159757e-21)
(0.10775552 0.0031471881 -4.3993954e-21)
(0.10544214 0.0046753618 0)
(0.10391678 0.0030700618 6.34815e-21)
(0.1037874 0.0032272721 -8.2298757e-21)
(0.10670079 0.003887589 -8.5279204e-21)
(0.10984401 0.0046570584 8.9295625e-21)
(0.11180418 0.0039400648 0)
(0.11322388 0.001319349 0)
(0.11314625 0.004298623 9.9902927e-22)
(0.11034048 0.0052965072 -1.0412106e-21)
(0.10673115 0.0011895924 1.5173847e-20)
(0.10327023 0.00019637008 -1.8122805e-20)
(0.098132753 0.0030491214 0)
(0.093355007 0.0072818917 0)
(0.092786133 0.0085130452 0)
(0.088669887 0.0059600789 2.1238794e-20)
(0.087255089 0.004148472 5.9387951e-22)
(0.092877732 0.0063350257 -1.8303353e-22)
(0.092072585 0.011544791 -7.20944e-20)
(0.086749292 0.0094757509 4.8425523e-20)
(0.087164383 0.010351009 0)
(0.091935042 0.010854003 5.3116268e-20)
(0.086931438 0.011879558 6.314956e-22)
(0.080478741 0.012116428 -1.1519613e-19)
(0.086743151 0.0054443371 6.1029376e-20)
(0.09253466 6.5825507e-05 -4.8581415e-22)
(0.086380208 0.0052809114 -6.5759591e-20)
(0.075628792 0.01480757 6.7719702e-20)
(0.070917617 0.020142637 5.5146338e-22)
(0.077418998 0.0095093513 -7.1963084e-20)
(0.080445465 -0.00083706205 1.5294374e-19)
(0.064405961 0.0066912275 -7.8280056e-20)
(0.04639975 0.018327109 6.4909809e-22)
(0.052378838 0.013360886 0)
(0.08285608 -0.0084415077 0)
(0.10239168 -0.018605034 3.5079429e-22)
(0.081634086 0.0076195767 9.8010608e-20)
(0.03487633 0.052798912 -2.0104801e-19)
(0.0044076378 0.078290793 1.0254832e-19)
(0.014458407 0.053122347 1.0342884e-19)
(0.057518389 -0.015714709 -2.2041549e-19)
(0.099979247 -0.087446883 1.1820185e-19)
(0.12428326 -0.12048479 0)
(0.12773665 -0.11312287 0)
(0.1156107 -0.089856478 0)
(0.083366583 -0.059131208 2.5519377e-22)
(0.043297627 -0.0266 -2.6902308e-22)
(0.015396952 0.005434533 0)
(0.018949035 0.027223376 -2.0210777e-23)
(0.038934689 0.039855651 -2.990229e-22)
(0.069191431 0.031526159 4.5664871e-22)
(0.072889048 0.018878834 -1.5322973e-22)
(0.11347171 0.00060600103 1.3732053e-21)
(0.1061035 0.001410433 -1.4294966e-21)
(0.11079901 0.0021246865 -1.4823707e-21)
(0.10749794 0.0035613456 1.5476988e-21)
(0.10522834 0.0033472143 -1.6089952e-21)
(0.10391147 0.0050634997 1.6662134e-21)
(0.10384573 0.0038199282 3.4641078e-21)
(0.10650202 0.0028630282 0)
(0.1094287 0.0025034946 5.6322143e-21)
(0.11226457 0.0040215047 -8.8054658e-21)
(0.11372362 0.00080243114 0)
(0.11263909 0.0014598812 -1.0526749e-21)
(0.11098479 0.0034259916 -8.1324294e-25)
(0.10813527 0.0011838726 2.9082599e-24)
(0.10298005 -0.00093297457 1.9181562e-20)
(0.09737759 0.00501177 -1.8598494e-20)
(0.092977331 0.0041216303 0)
(0.092235288 0.0053054604 0)
(0.089349222 0.010387841 0)
(0.088183073 0.0064978578 0)
(0.09189966 0.0029688695 0)
(0.091414368 0.0084455294 2.5822924e-20)
(0.087534571 0.009788766 -2.6165861e-20)
(0.086867913 0.0085083685 -8.4486065e-22)
(0.091764634 0.0062954653 8.7226654e-22)
(0.088286567 0.0082332723 0)
(0.082513 0.0084690335 0)
(0.088846853 0.0026396608 4.9419119e-22)
(0.094051566 -0.0011695067 5.1293957e-22)
(0.085999391 0.0022498044 0)
(0.072859279 0.010212601 0)
(0.069756403 0.016907106 -7.3947498e-20)
(0.081440368 0.011119924 1.5353598e-19)
(0.08589987 0.004225471 -8.0110539e-20)
(0.067609594 0.012144221 -3.2579739e-22)
(0.049133767 0.019651286 8.707149e-20)
(0.056515386 0.0062986879 -9.1357955e-20)
(0.083770855 -0.017545426 0)
(0.094743944 -0.021727031 6.3946757e-24)
(0.065618116 0.0099899303 0)
(0.018203234 0.051268812 1.0868687e-19)
(0.00022347735 0.064955668 -1.102155e-19)
(0.027979115 0.032720442 -1.0942097e-19)
(0.078025904 -0.031105737 1.2060016e-19)
(0.10706069 -0.076982483 4.8351331e-24)
(0.10647542 -0.086653526 0)
(0.09534841 -0.069197814 0)
(0.079690829 -0.035276301 -2.6559802e-22)
(0.057446975 0.0030520308 -1.4590752e-19)
(0.021621437 0.035663812 1.4265893e-19)
(-0.0077478289 0.053285932 0)
(-0.0099034634 0.049375798 1.5378405e-19)
(0.014395811 0.032410383 -1.632689e-19)
(0.057293772 0.003111794 1.585893e-19)
(0.097222128 -0.021203844 -1.7399011e-19)
(0.11335978 0.00075293923 -7.2242147e-22)
(0.10603089 0.0020759149 -2.2590473e-21)
(0.11060824 0.001903799 4.6930728e-21)
(0.10749647 0.0042143647 -3.2693958e-21)
(0.10511605 0.0024552841 -5.0865944e-21)
(0.10376035 0.0055380856 5.3117025e-21)
(0.10421669 0.0047132194 -9.1451801e-21)
(0.10677488 0.0029027802 1.5247308e-20)
(0.10920536 0.001851589 -8.9434323e-21)
(0.11205024 0.0029554131 2.06704e-21)
(0.1139568 0.0031287975 1.0693747e-21)
(0.11248527 0.0010682783 1.7827253e-20)
(0.11084959 0.00023732462 -1.631965e-20)
(0.1085753 0.001762551 2.0632738e-20)
(0.10299261 0.0025137301 1.1931903e-22)
(0.097737022 0.0064410761 -4.3176119e-20)
(0.093850491 0.002731107 2.1213885e-20)
(0.090892218 0.0018233515 -7.0688451e-22)
(0.088533987 0.0099523118 2.347701e-20)
(0.089968287 0.0083225033 -2.3634745e-20)
(0.09202203 0.0027845149 0)
(0.090163128 0.0058808514 0)
(0.087786769 0.0098154658 -2.6806332e-20)
(0.088129797 0.0087413019 2.9430471e-20)
(0.092105506 0.0029295098 2.8659019e-20)
(0.088400044 0.005262169 -3.081855e-20)
(0.083415186 0.0066689118 -3.1988485e-20)
(0.089397458 0.0022905499 3.311113e-20)
(0.09373437 0.0016006244 0)
(0.085768071 0.0062805616 0)
(0.071237234 0.012274641 0)
(0.067122233 0.013943899 0)
(0.07976496 0.0088303388 0)
(0.084877672 0.0094030534 0)
(0.06834397 0.023086034 3.4472463e-22)
(0.054683352 0.026627511 -9.0668177e-20)
(0.065906174 0.0063416445 9.6465076e-20)
(0.087739477 -0.018722125 3.8391572e-22)
(0.086895714 -0.017949422 -7.8802826e-22)
(0.05299046 0.012537473 1.1055374e-19)
(0.010839031 0.045748307 -1.0953954e-19)
(0.001152914 0.050570783 1.1256692e-19)
(0.043493293 0.014881062 -1.2461478e-19)
(0.098571588 -0.03768841 1.2018168e-19)
(0.11720088 -0.062074052 -2.5415586e-19)
(0.098114977 -0.059843628 -5.9227132e-21)
(0.069998065 -0.036116298 -6.1782813e-21)
(0.042187977 -0.001546704 -6.1454706e-21)
(0.021429519 0.041361384 -6.5898605e-21)
(0.0055094765 0.06812234 -4.5723222e-21)
(-0.00068470332 0.06739425 1.6006483e-19)
(0.0063298594 0.040111026 0)
(0.023804294 0.0012647714 1.6716647e-19)
(0.052219887 -0.0360196 -9.8467457e-21)
(0.085718387 -0.060820915 -1.8335211e-19)
(0.11305895 0.00081802038 1.5277871e-21)
(0.10586338 0.0022358874 1.5911264e-21)
(0.11033548 0.0026984052 1.6519344e-21)
(0.1074629 0.0039878329 0)
(0.10494613 0.0028178429 0)
(0.10329761 0.0044538478 0)
(0.10438111 0.0048190785 -9.6636035e-22)
(0.10702585 0.0040102389 8.0583528e-21)
(0.10912408 0.0034380461 -7.3287374e-21)
(0.11171435 0.0017128711 -1.088733e-21)
(0.11419703 0.0035805262 -9.0382005e-21)
(0.11345406 0.0015194966 9.3864555e-21)
(0.11088482 -0.0021986905 -2.0884417e-20)
(0.10833455 0.00030744523 2.0469506e-20)
(0.10257783 0.0040607214 0)
(0.097881461 0.0039718015 0)
(0.095281224 0.0016930308 1.4399477e-21)
(0.0903763 -0.00041671951 7.4924811e-22)
(0.087116629 0.0061373411 -2.4792689e-20)
(0.090684969 0.0080460916 2.5076555e-20)
(0.092754623 0.0043556189 0)
(0.089443599 0.00441093 0)
(0.086898533 0.0071723945 -9.0507835e-22)
(0.089202746 0.0070477775 0)
(0.093251068 0.0011025848 -3.0755834e-20)
(0.088464301 0.0030804382 3.2447219e-20)
(0.083650149 0.0046976861 0)
(0.089008366 0.00036414719 0)
(0.092823247 0.0004080109 0)
(0.0863844 0.0060610198 0)
(0.073212163 0.01130063 0)
(0.068386742 0.0079862658 0)
(0.078322961 -0.00040049935 -3.3530894e-22)
(0.080715656 0.0046590048 -3.5003991e-22)
(0.066969241 0.022021605 0)
(0.060779016 0.025976979 -3.7711311e-22)
(0.076192938 0.0067806496 4.9250499e-20)
(0.093619818 -0.014425356 -5.3245311e-20)
(0.083961692 -0.011788637 4.1823619e-22)
(0.046207832 0.013530006 4.4310604e-22)
(0.0069963051 0.039563005 0)
(0.0038582089 0.037176693 4.8540158e-22)
(0.047067024 0.0018741572 3.6786719e-25)
(0.099887663 -0.032910272 1.2738695e-19)
(0.11802601 -0.045102927 1.2087125e-21)
(0.095641096 -0.032640089 -1.3005792e-19)
(0.052505633 -0.0067293294 -2.7671836e-22)
(0.0098267766 0.029227446 0)
(-0.010978348 0.059945347 -3.1559705e-22)
(-0.0087226335 0.070364653 -3.1618912e-22)
(0.010645906 0.052650374 1.6383052e-19)
(0.037483255 0.016103861 -1.78001e-19)
(0.057549455 -0.027518186 1.8194236e-22)
(0.074855634 -0.063727707 -9.416474e-24)
(0.090518026 -0.092851922 -1.8619889e-22)
(0.11286848 0.00069133872 0)
(0.10563503 0.0020557024 0)
(0.11019113 0.0039121922 -1.7424129e-21)
(0.10748326 0.003257833 0)
(0.10502128 0.0041976731 3.7873962e-21)
(0.10318669 0.0035835368 -2.9389867e-21)
(0.1041993 0.0039100924 1.0179711e-21)
(0.10708277 0.0045405197 0)
(0.10948548 0.0051824391 1.1028737e-21)
(0.11167353 0.0017710447 0)
(0.11388583 0.0025859304 -1.1895292e-21)
(0.11407518 0.003513043 -8.644985e-21)
(0.11143876 6.7202439e-05 2.0635654e-20)
(0.10756523 0.00048051459 -1.0785848e-20)
(0.10277507 0.0040982178 0)
(0.098952993 0.00031432987 0)
(0.096097363 0.00044844492 7.9551706e-25)
(0.090568256 0.00055009449 -7.8907691e-22)
(0.085934445 0.0029990867 0)
(0.089705855 0.0058330674 0)
(0.093469223 0.0062804928 8.8176212e-22)
(0.090071473 0.0056987165 2.8542632e-20)
(0.086701862 0.0052331842 -6.1516667e-20)
(0.089598172 0.0049238463 3.230092e-20)
(0.093962038 0.00096995756 3.2607176e-20)
(0.088610192 0.0043023438 -3.4187248e-20)
(0.084540171 0.0058607224 -3.5662885e-20)
(0.089304268 0.00026384832 3.7379857e-20)
(0.091626119 -0.00050829164 -3.8743418e-20)
(0.085382637 0.0061457517 8.0698051e-20)
(0.075108299 0.013003214 -4.2591998e-20)
(0.072094456 0.0074654505 3.3983224e-22)
(0.078316104 -0.0038249769 7.0635015e-22)
(0.074692109 0.0018763493 7.3617103e-22)
(0.061382655 0.01963411 0)
(0.061579328 0.024998651 -4.9781442e-20)
(0.08157586 0.0096668095 1.0547187e-19)
(0.098264196 -0.006908171 -5.5527032e-20)
(0.084621403 -0.001921638 -4.4261356e-22)
(0.045843093 0.02065739 -4.6692855e-22)
(0.0095746267 0.039594226 0)
(0.0088596659 0.030589493 -6.3381109e-20)
(0.049332501 -0.0026401251 5.00395e-21)
(0.096093287 -0.030899702 7.0377211e-20)
(0.11199335 -0.033527194 0)
(0.090746248 -0.013743939 0)
(0.045484868 0.015609896 -8.1505143e-20)
(-0.0012306017 0.042661261 7.9207993e-20)
(-0.028626437 0.055835394 -1.2362438e-24)
(-0.01823083 0.049925741 1.6619964e-19)
(0.011815138 0.02515154 -3.5701529e-19)
(0.050695594 -0.0092599334 3.6698124e-19)
(0.08330613 -0.043904324 -1.9213526e-19)
(0.095473732 -0.068857453 -1.9344987e-22)
(0.098705367 -0.085140206 1.8838708e-22)
(0.11267912 0.00063019071 8.5175136e-22)
(0.10529819 0.0019273535 -8.8286488e-22)
(0.11005729 0.0042637308 -3.6743622e-21)
(0.10738144 0.0029563056 3.8343243e-21)
(0.10498345 0.0049936143 4.9938818e-21)
(0.10327316 0.0038274001 -1.0330879e-20)
(0.10398009 0.0030840825 3.2259463e-21)
(0.10670515 0.0039361639 -1.120077e-21)
(0.10964926 0.0050807737 -1.1656615e-21)
(0.11204513 0.002318119 -9.7064902e-21)
(0.11354924 0.0013523757 1.0048913e-20)
(0.11415158 0.0036120169 0)
(0.1122149 0.0021503077 0)
(0.10756313 -0.00019747009 -7.107284e-22)
(0.10340801 0.0014251309 -7.402358e-22)
(0.099995473 -0.003057059 1.2322895e-20)
(0.095904739 -0.0010295776 -3.9203944e-20)
(0.090780788 0.0022882332 2.8293962e-20)
(0.085467591 0.0019385294 -2.7502936e-20)
(0.088373638 0.0022267704 5.7329829e-20)
(0.092673728 0.0051389145 -1.0276138e-21)
(0.09076757 0.0067346505 -6.1474386e-20)
(0.087239044 0.0050936139 3.2948189e-20)
(0.089539151 0.0030971669 3.3318001e-20)
(0.093470038 0.0011064369 -3.4985266e-20)
(0.08813475 0.0062293279 0)
(0.085254329 0.0077075494 -3.7525896e-20)
(0.090415157 0.00092975752 3.9386352e-20)
(0.091194462 -0.001803467 6.3540994e-22)
(0.083940622 0.0037742601 6.6430252e-22)
(0.076162555 0.011626898 1.0458579e-21)
(0.076626598 0.0062671268 -3.6081397e-22)
(0.080768767 -0.0053745485 -7.4460431e-22)
(0.07151387 -0.00071727975 -3.8873175e-22)
(0.056396725 0.014051548 0)
(0.060002116 0.018196454 0)
(0.083893132 0.0051045734 -5.4561544e-20)
(0.10087766 -0.0071839258 1.1724831e-19)
(0.084594424 0.0015588332 -5.8117521e-20)
(0.047116805 0.024466911 -2.4556889e-22)
(0.015192245 0.039454584 0)
(0.016730271 0.026606894 0)
(0.052198331 -0.0043228159 -6.8875362e-20)
(0.090027469 -0.028516387 7.4370298e-20)
(0.098563963 -0.023187745 -7.484232e-20)
(0.077871497 0.0025274666 7.583196e-20)
(0.04135946 0.034349503 3.2517411e-22)
(-5.8984641e-05 0.055996542 -8.910494e-20)
(-0.022764549 0.05491881 8.7422298e-20)
(-0.015119241 0.033664335 0)
(0.017642191 0.00079318819 -3.1571901e-24)
(0.055064133 -0.033453795 -9.4323533e-20)
(0.08709986 -0.05618383 1.998294e-19)
(0.10242397 -0.066376239 -2.0653911e-19)
(0.10002282 -0.065574417 1.0127717e-19)
(0.11256104 0.000705418 0)
(0.105017 0.0022428734 1.866709e-21)
(0.10996964 0.0040158191 -2.7814335e-25)
(0.10734378 0.0036808817 -2.0203565e-21)
(0.10497983 0.004903752 1.8256141e-24)
(0.10345914 0.0043865472 1.0901824e-21)
(0.10403725 0.0033507964 -2.2590421e-21)
(0.10650677 0.0028594976 5.9143979e-21)
(0.10968565 0.002994123 0)
(0.11221861 0.002826918 0)
(0.11341335 0.0013669791 -9.2677548e-21)
(0.11405404 0.0021312906 1.1017719e-20)
(0.11269341 0.0028274878 0)
(0.10832689 -6.470499e-05 7.492041e-22)
(0.10411122 -0.0010358756 7.8109006e-22)
(0.10028785 -0.003081821 0)
(0.095728393 -0.00054448691 -1.3482995e-20)
(0.090692414 0.0037526148 -9.1634458e-22)
(0.086085098 0.0032951073 1.5402002e-20)
(0.087875937 -1.0714628e-05 0)
(0.091503693 0.0024477665 3.1349153e-20)
(0.091022237 0.0061193734 -6.5767959e-20)
(0.088059212 0.0062960543 3.3352869e-20)
(0.089790595 0.0028009868 -3.5695041e-20)
(0.092709879 0.0016414496 3.7424509e-20)
(0.087398325 0.0076237005 0)
(0.086287509 0.0085514875 0)
(0.092440933 0.0013789858 0)
(0.091955768 -0.0026447607 -6.7078504e-22)
(0.082583921 0.0016587294 -6.9884056e-22)
(0.075771923 0.0099411213 -4.716315e-20)
(0.079989685 0.0065040608 4.8588347e-20)
(0.083617029 -0.0029035856 3.9012748e-22)
(0.070473298 0.0010929649 0)
(0.053212172 0.012946664 0)
(0.057334732 0.014768602 4.4494645e-22)
(0.083311221 0.0018104964 0)
(0.10000642 -0.0077723074 -4.6754135e-22)
(0.083438722 0.0037931789 -6.4750626e-20)
(0.047294966 0.026806793 6.4929033e-20)
(0.019810496 0.039449133 6.9132287e-20)
(0.025123983 0.027077667 -7.2724207e-20)
(0.057935639 -0.002498625 7.2948923e-20)
(0.087132214 -0.024650911 -7.8394297e-20)
(0.087708653 -0.019163686 -7.9707819e-20)
(0.063968867 0.008326122 -3.7447474e-21)
(0.03187017 0.039105575 1.7431127e-19)
(0.0043602822 0.057104844 -8.8399864e-20)
(-0.0077795209 0.050161719 0)
(0.0034512067 0.020757203 -9.5216447e-20)
(0.029902785 -0.017779792 1.9969292e-19)
(0.057821073 -0.049568711 -1.0530003e-19)
(0.079156377 -0.065294835 0)
(0.091425504 -0.065676777 -2.1527081e-22)
(0.089012703 -0.050118055 1.1012438e-19)
(0.1123635 0.00088585041 0)
(0.10477895 0.002637401 0)
(0.10981939 0.0033817455 0)
(0.10726674 0.0044784569 3.1850372e-21)
(0.10496346 0.0041947003 -5.5596396e-21)
(0.10355879 0.0044664685 4.593119e-21)
(0.10414329 0.0042589191 -5.9728849e-21)
(0.10652288 0.0023520666 -1.2446891e-21)
(0.10941879 0.00049124749 -1.2929515e-21)
(0.11211739 0.0034556314 -1.2117615e-20)
(0.11368816 0.0021510137 9.7570389e-21)
(0.11390485 -0.00020226354 0)
(0.11299703 0.0018135945 1.2094975e-20)
(0.10923048 0.00078731239 2.7280089e-23)
(0.10470839 -0.0021743355 -2.7123059e-20)
(0.10024103 -0.00058544159 1.3696064e-20)
(0.095268043 0.00081112451 -8.9122171e-22)
(0.090785778 0.0031520264 -9.2744457e-22)
(0.086948247 0.0046793455 -1.3814379e-24)
(0.087991257 -0.00097586836 4.9715653e-22)
(0.090417683 -0.00015913857 5.1719463e-22)
(0.090131604 0.0040664948 5.3718514e-22)
(0.08851404 0.0066624177 0)
(0.090366079 0.0028968451 0)
(0.092014262 0.0020459465 -3.9549074e-20)
(0.086375202 0.0074783746 4.0646797e-20)
(0.086929543 0.0077346192 0)
(0.094223769 0.0011150854 0)
(0.093029707 -0.0034278714 0)
(0.081813509 0.00042865888 3.6954599e-22)
(0.074557354 0.0076848588 0)
(0.081494095 0.0058506091 5.0554556e-20)
(0.086324117 -0.00059658577 -5.3021122e-20)
(0.071466074 0.0038590907 4.3220333e-22)
(0.052753856 0.013513599 -5.8631753e-20)
(0.056463198 0.011733436 5.9763985e-20)
(0.083102392 -0.0028717171 0)
(0.099239166 -0.010931444 6.3912724e-20)
(0.081806009 0.0025104615 -6.5285866e-20)
(0.047180805 0.024186339 2.7531637e-22)
(0.023277288 0.035184868 7.3876839e-20)
(0.031112518 0.025316401 -7.6578771e-20)
(0.062364544 -0.00044137162 0)
(0.08750921 -0.019095093 8.1382031e-20)
(0.080525681 -0.013789059 -8.2275067e-20)
(0.053787185 0.0082240466 6.7623333e-22)
(0.022382339 0.03612911 0)
(0.0042629015 0.052068735 9.527077e-20)
(0.0055678842 0.045058818 -9.8388173e-20)
(0.024158828 0.016940951 1.0028106e-19)
(0.047886862 -0.019157413 -1.070482e-19)
(0.067889449 -0.050231274 -1.074817e-19)
(0.07580746 -0.064355139 2.2258689e-19)
(0.077508511 -0.057183576 8.2465012e-22)
(0.068601973 -0.037780879 2.7192017e-21)
(0.11217399 0.00093988822 -9.9539893e-22)
(0.10463765 0.002761963 -1.0360154e-21)
(0.10966202 0.0028119532 -2.1493246e-21)
(0.10723921 0.0046661592 7.1801129e-24)
(0.10505206 0.0034326139 2.3451198e-21)
(0.10350483 0.003967293 4.8357122e-21)
(0.10426598 0.0048728201 -5.031468e-21)
(0.10686257 0.002725534 1.3101882e-21)
(0.10924107 -0.0006415105 6.7977745e-21)
(0.11179782 0.0034553278 -1.5567879e-20)
(0.11414872 0.0029655347 7.3979273e-22)
(0.114004 -0.0016018052 1.2191603e-20)
(0.1129404 0.00019705582 7.9721413e-22)
(0.10966849 0.0017513927 0)
(0.10509943 -0.0014017569 8.6788907e-22)
(0.10043548 0.0026913528 -9.0378624e-22)
(0.095474547 0.0019933728 1.6924165e-24)
(0.090717875 0.0014415125 1.9529485e-21)
(0.087598756 0.0050445255 -1.0115642e-21)
(0.08889144 -9.344004e-05 1.6228323e-20)
(0.08988781 -0.0011792327 -3.5487994e-20)
(0.088883494 0.0023617783 1.8130525e-20)
(0.088588394 0.0054734233 0)
(0.091071225 0.0017283523 -1.9566167e-20)
(0.09170861 0.0015715444 1.9787699e-20)
(0.085922584 0.0064279793 -6.6326356e-22)
(0.087340248 0.0050507867 -6.9044678e-22)
(0.0955553 -0.00085806954 0)
(0.094481332 -0.0045697915 0)
(0.081626457 -9.6700014e-05 -3.8869356e-22)
(0.073302643 0.0062092755 0)
(0.081357247 0.0051618378 0)
(0.087405674 0.0016596021 -5.6392166e-20)
(0.072473732 0.0080962993 -2.160156e-21)
(0.053303939 0.016315855 1.2238957e-19)
(0.057409758 0.011232127 -6.4121385e-20)
(0.082856421 -0.0046466936 0)
(0.09795223 -0.011077012 2.6039096e-22)
(0.080788631 0.0021931704 -2.7389674e-22)
(0.047555893 0.021596821 -2.8986669e-22)
(0.026149635 0.030592045 -7.702327e-20)
(0.03467777 0.020890801 8.0689689e-20)
(0.065331917 -0.00018614301 0)
(0.089075823 -0.014325739 0)
(0.080077959 -0.0091057845 -3.4132516e-22)
(0.049379352 0.0098431435 -3.574763e-22)
(0.017002221 0.031806165 -9.774886e-20)
(0.0016653036 0.044663877 1.0005171e-19)
(0.0094133517 0.039105639 1.0183106e-19)
(0.035813842 0.017572379 -1.0928551e-19)
(0.065479917 -0.014411649 -2.1377916e-22)
(0.080519187 -0.0380528 1.1417354e-19)
(0.077413655 -0.047274412 -1.1700035e-19)
(0.068015985 -0.041481422 0)
(0.049712964 -0.024385184 -1.2691032e-19)
(0.11200139 0.0008363129 1.5750638e-21)
(0.10455301 0.0024584428 -5.4484459e-22)
(0.10951069 0.0024469637 1.1339271e-21)
(0.10722569 0.0040968869 1.1828416e-21)
(0.10512196 0.0030166132 4.9312472e-21)
(0.10332061 0.00345019 -8.9260277e-21)
(0.10428793 0.0045493612 5.3193945e-21)
(0.10726764 0.0035397015 0)
(0.10903964 0.00067335503 6.4601446e-21)
(0.11141118 0.0030174122 -5.2292191e-21)
(0.11456766 0.0031756731 -1.5503572e-21)
(0.11448062 -0.00086994864 0)
(0.11264793 -0.00052909875 -1.6874194e-21)
(0.10993417 0.0019671491 8.7901037e-22)
(0.10526568 0.00015909503 -9.1436146e-22)
(0.10059945 0.004413258 -8.0170842e-25)
(0.096135478 0.001672596 -1.4854361e-20)
(0.090772693 -0.00076513452 3.1782928e-20)
(0.087539423 0.0038088775 -1.6984006e-20)
(0.089451662 0.0013832844 0)
(0.089517695 0.00073888979 -5.7504948e-22)
(0.088042747 0.002980339 0)
(0.088642851 0.0041624883 -6.2148854e-22)
(0.091303802 5.8097836e-05 0)
(0.091498516 0.0010222977 -8.5394276e-25)
(0.086054378 0.0057783594 7.0047914e-22)
(0.087867831 0.0027580417 7.272481e-22)
(0.096436982 -0.0033806138 2.4113388e-20)
(0.095346961 -0.0054454423 3.132235e-22)
(0.081643561 -0.00033927404 -2.5949999e-20)
(0.072270155 0.005176892 5.4297861e-20)
(0.08034332 0.0042187553 -1.1347862e-19)
(0.087272831 0.0030673006 5.9650552e-20)
(0.072987628 0.011273009 -4.8018055e-22)
(0.055130502 0.018632426 -5.0566267e-22)
(0.059463756 0.010186225 5.2181297e-22)
(0.083051016 -0.0065666107 0)
(0.096420531 -0.011173494 2.7594713e-22)
(0.080063088 0.002574032 2.8799996e-22)
(0.048842077 0.019657311 0)
(0.029181097 0.025895489 -6.3956922e-22)
(0.036458205 0.014675433 0)
(0.064965894 -0.0029631883 3.3864356e-22)
(0.088135073 -0.012349073 -9.0107776e-20)
(0.080435753 -0.0052111028 9.1891924e-20)
(0.050832974 0.010651196 0)
(0.016091612 0.028121153 -1.9940161e-22)
(0.00059554044 0.035317935 0)
(0.0087328373 0.031519931 1.0733827e-19)
(0.037716237 0.016162816 -1.1531736e-19)
(0.071501688 -0.005370573 2.2788982e-22)
(0.090214091 -0.021642999 0)
(0.08598335 -0.028194483 -1.2099543e-22)
(0.068943035 -0.025010996 0)
(0.0443753 -0.013095125 1.3094969e-22)
(0.11188827 0.00053882897 -5.5405065e-22)
(0.10448023 0.0018966426 1.7250228e-21)
(0.10941624 0.0023483042 -1.1947087e-21)
(0.10721504 0.0031072859 2.4837801e-21)
(0.10517014 0.0028079569 -3.9048408e-21)
(0.10323226 0.0031896061 -3.9871076e-25)
(0.10420583 0.0034254361 -5.5682463e-21)
(0.10746906 0.0040733285 5.8488404e-21)
(0.10904674 0.0027759704 5.3129697e-21)
(0.11114079 0.0021238163 -1.3392952e-20)
(0.11476938 0.0023883378 8.3620193e-22)
(0.11498943 0.00080955972 6.8006291e-21)
(0.11250355 -0.00035603939 -1.3295056e-20)
(0.1100435 0.0010720287 1.3879026e-20)
(0.10507267 0.0014545476 9.6230156e-22)
(0.10078898 0.004067807 -1.4961274e-20)
(0.097630998 0.00040220159 1.6716939e-20)
(0.090931914 -0.0022778147 0)
(0.087040982 0.001871976 1.8415988e-20)
(0.089517053 0.0019404202 -3.7393472e-20)
(0.089334804 0.0031396862 -3.8704477e-23)
(0.087938243 0.0045674883 1.9366025e-20)
(0.088933588 0.0030845055 2.2101486e-20)
(0.091648795 -0.0016357346 -4.2949787e-20)
(0.0908674 0.00029702643 2.3355489e-20)
(0.086089296 0.0053047073 -3.6745973e-22)
(0.088935455 0.0015357344 3.8117881e-22)
(0.097485923 -0.0053201127 2.5090746e-20)
(0.096047347 -0.0067763086 -2.6828508e-20)
(0.081815581 -0.0012018415 4.3167638e-22)
(0.071386243 0.0037150828 0)
(0.078716089 0.0029542013 2.9637324e-20)
(0.08605588 0.0036974689 7.4513337e-23)
(0.073109515 0.013302358 -3.179317e-20)
(0.057253656 0.019891157 8.0038556e-22)
(0.062408337 0.0091847278 -3.4389327e-20)
(0.083291303 -0.0076910689 3.6810688e-20)
(0.093900016 -0.010140996 -2.9041153e-22)
(0.07869079 0.0040784177 3.0453261e-22)
(0.050743989 0.019493417 0)
(0.03326252 0.02241464 -8.5555465e-20)
(0.039239143 0.009432447 8.9467296e-20)
(0.063731954 -0.0079641721 -1.7643613e-22)
(0.084574046 -0.013288316 -9.4879325e-20)
(0.079399385 -0.0039207962 9.6496198e-20)
(0.053584609 0.01170509 1.9821543e-22)
(0.020788182 0.024610259 2.1121018e-22)
(0.0012814897 0.027455511 1.1158176e-19)
(0.0066066575 0.024021831 -1.1625273e-19)
(0.033063282 0.013018911 -4.6789364e-22)
(0.066676214 0.0019180468 0)
(0.091708141 -0.0068216078 0)
(0.092602102 -0.0083062977 6.5874779e-25)
(0.076871402 -0.006767914 0)
(0.051378637 0.00081293795 -1.3643317e-22)
(0.11184469 0.00020582852 -1.1644848e-21)
(0.10438186 0.0013450746 -1.2125552e-21)
(0.10936071 0.002509768 5.0317837e-21)
(0.10721125 0.0022468343 -2.6288041e-21)
(0.10516379 0.0026705815 2.7374386e-21)
(0.10323291 0.0032549373 -4.2488307e-21)
(0.10399677 0.002237063 -5.8512753e-21)
(0.1073151 0.0040254653 6.1450163e-21)
(0.10928462 0.0045345693 6.3602985e-21)
(0.11122901 0.00085630813 -1.2391016e-20)
(0.11466881 0.0010482131 6.0688158e-21)
(0.11520641 0.0025486292 0)
(0.11281613 0.00040431182 9.3205594e-22)
(0.11006162 -0.00015992449 0)
(0.10504972 0.0023596196 0)
(0.10117868 0.0024079301 1.6194818e-20)
(0.098656022 -0.0010025158 -1.7516096e-20)
(0.09116061 -0.0022542351 -5.7116991e-22)
(0.08660996 0.00015428675 3.8751528e-25)
(0.088882747 0.001244013 0)
(0.088918715 0.0047007744 2.1180031e-20)
(0.088226871 0.0056988955 -1.9868088e-20)
(0.089815155 0.0026750172 -1.4602489e-24)
(0.092039105 -0.0021572618 2.1851775e-20)
(0.090131487 0.00029099478 -4.7699473e-20)
(0.085901216 0.0056211561 2.3917017e-20)
(0.089765411 0.0019768638 -2.5973192e-20)
(0.098375553 -0.005493595 6.076752e-22)
(0.096646277 -0.0069434915 2.8255465e-20)
(0.082075262 -0.0017486362 2.8490075e-20)
(0.070849867 0.0024041068 -2.9724116e-20)
(0.076864225 0.0015783924 0)
(0.084132769 0.0031726869 -5.0745671e-22)
(0.072818458 0.01365984 -5.4174294e-25)
(0.059356785 0.019454601 -2.797568e-22)
(0.065842738 0.0072775887 3.6486206e-20)
(0.083722434 -0.0090549458 -8.9764358e-22)
(0.091185907 -0.0094917558 -3.9496851e-20)
(0.076925521 0.0052665757 4.128933e-20)
(0.052500049 0.020118369 -8.7218333e-20)
(0.037891058 0.020672094 2.7229768e-22)
(0.042785914 0.0054886701 9.3430516e-20)
(0.062418983 -0.01220474 -4.9418237e-20)
(0.078613113 -0.014965707 -1.9421768e-22)
(0.074693926 -0.0029171097 -5.1900966e-20)
(0.054296636 0.01295424 5.252995e-20)
(0.025871168 0.022563953 0)
(0.0055354404 0.023730517 -5.9375946e-20)
(0.003700354 0.018221467 6.1057391e-20)
(0.023542307 0.0089873379 4.9086237e-22)
(0.055198363 0.0025602628 0)
(0.083006272 0.0018664379 -1.3262917e-19)
(0.093505478 0.0049098724 -7.3145324e-22)
(0.083534126 0.010824297 1.3900042e-19)
(0.060635835 0.016811337 1.4419828e-22)
(0.11185034 -8.7231938e-05 -6.9466154e-26)
(0.10424484 0.00090358633 -2.5542156e-21)
(0.10931838 0.0026564254 0)
(0.10724724 0.0017600216 1.3828489e-21)
(0.10511241 0.002429271 2.1615951e-21)
(0.10329112 0.0032481002 2.2362185e-21)
(0.10390944 0.0014682406 -9.2801702e-21)
(0.10704486 0.0031802885 -7.8417506e-22)
(0.10958864 0.0049883049 -8.3179745e-22)
(0.11148999 2.2053674e-05 1.3060879e-20)
(0.11437252 2.6617815e-05 -6.3530585e-21)
(0.1151505 0.0032968541 -7.5148464e-21)
(0.11337237 0.0012886951 5.8772868e-21)
(0.11000456 -0.00089527022 0)
(0.10513757 0.0024332585 0)
(0.10198689 0.00023221041 -1.769917e-20)
(0.099244364 -0.001967295 -2.7755598e-23)
(0.091486253 -0.00034254165 1.9738984e-20)
(0.086543219 -0.00090521732 -6.2349066e-22)
(0.088193805 -0.00013262252 2.0597088e-20)
(0.088372126 0.0041946976 -2.1509003e-20)
(0.088536975 0.0048854194 -6.9895696e-22)
(0.090793065 0.0019467813 -3.6402178e-22)
(0.092449253 -0.0019672662 -2.4161999e-20)
(0.089343582 0.00056370779 2.509204e-20)
(0.085402665 0.0059039524 4.0991794e-22)
(0.090523446 0.0033328959 0)
(0.09933103 -0.0043443669 0)
(0.097447623 -0.0061155375 0)
(0.082787425 -0.001518501 9.585716e-22)
(0.070898354 0.0010399356 -5.0475402e-22)
(0.07553555 -0.0004044113 0)
(0.081695065 0.001572181 2.672198e-22)
(0.072017914 0.012605035 5.6193761e-22)
(0.06150192 0.018054153 0)
(0.069222376 0.0045742535 3.7952647e-20)
(0.084596294 -0.010595301 -4.0678268e-20)
(0.087812439 -0.0090582209 0)
(0.074110677 0.0069382108 3.3838951e-22)
(0.054173728 0.021218335 3.5963945e-22)
(0.042982567 0.020754901 0)
(0.047964473 0.0041417951 0)
(0.06254127 -0.014056745 5.0535067e-20)