/*--------------------------------*- C++ -*----------------------------------*\
| =========                 |                                                 |
| \\      /  F ield         | OpenFOAM: The Open Source CFD Toolbox           |
|  \\    /   O peration     | Version:  2406                                  |
|   \\  /    A nd           | Website:  www.openfoam.com                      |
|    \\/     M anipulation  |                                                 |
\*---------------------------------------------------------------------------*/
FoamFile
{
    version     2.0;
    format      ascii;
    arch        "LSB;label=32;scalar=64";
    class       volScalarField;
    location    "30";
    object      k;
}
// * * * * * * * * * * * * * * * * * * * * * * * * * * * * * * * * * * * * * //

dimensions      [0 2 -2 0 0 0 0];

internalField   nonuniform List<scalar> 
20580
(
3.1126281e-06
2.3411614e-06
1.8139356e-06
1.5293261e-06
1.3449607e-06
1.195171e-06
1.0663319e-06
9.6280153e-07
8.7589934e-07
8.0795134e-07
7.5109419e-07
7.0072412e-07
6.5939792e-07
6.2447374e-07
5.9521414e-07
5.7067734e-07
5.5196259e-07
5.3505196e-07
5.2125383e-07
5.0720683e-07
4.9736084e-07
4.8556355e-07
4.7808213e-07
4.6929619e-07
4.6941244e-07
4.7388527e-07
4.7977392e-07
4.8918573e-07
5.0607904e-07
5.345845e-07
5.8068056e-07
3.1237508e-06
2.3597319e-06
1.8248945e-06
1.5417614e-06
1.3590664e-06
1.2071785e-06
1.0772362e-06
9.7131009e-07
8.8168524e-07
8.12215e-07
7.5523192e-07
7.0476779e-07
6.6293405e-07
6.2859951e-07
5.9879036e-07
5.7365334e-07
5.5377374e-07
5.3700094e-07
5.2406553e-07
5.0921865e-07
5.0127191e-07
4.9094615e-07
4.8340185e-07
4.7590765e-07
4.7335928e-07
4.759499e-07
4.8104094e-07
4.9032061e-07
5.0000796e-07
5.1887579e-07
5.6219888e-07
3.1258532e-06
2.3901805e-06
1.8442986e-06
1.5515669e-06
1.3658749e-06
1.2129064e-06
1.0810252e-06
9.7376167e-07
8.8627343e-07
8.1648084e-07
7.587531e-07
7.0872096e-07
6.6597796e-07
6.3093276e-07
6.0157339e-07
5.7643618e-07
5.5649102e-07
5.3851604e-07
5.2607427e-07
5.1042845e-07
5.0099498e-07
4.9285368e-07
4.8495674e-07
4.7791977e-07
4.7586792e-07
4.7748662e-07
4.8223206e-07
4.9029701e-07
4.9769409e-07
5.1203985e-07
5.4726513e-07
3.1306334e-06
2.4054956e-06
1.8571844e-06
1.5548919e-06
1.3670841e-06
1.2139135e-06
1.0825354e-06
9.7673486e-07
8.904978e-07
8.2176954e-07
7.6390643e-07
7.1316742e-07
6.6972883e-07
6.3437587e-07
6.0393152e-07
5.7895088e-07
5.5784994e-07
5.4074921e-07
5.2787712e-07
5.1230459e-07
5.013536e-07
4.9324535e-07
4.8506372e-07
4.7754973e-07
4.755995e-07
4.7599567e-07
4.8088512e-07
4.8718912e-07
4.9486045e-07
5.0535684e-07
5.325929e-07
3.1373017e-06
2.4122724e-06
1.867549e-06
1.563211e-06
1.3721491e-06
1.2176454e-06
1.087487e-06
9.8175624e-07
8.9574094e-07
8.2789027e-07
7.6955532e-07
7.1963444e-07
6.759625e-07
6.3981962e-07
6.0914522e-07
5.8219887e-07
5.6043933e-07
5.4310011e-07
5.2932109e-07
5.1393338e-07
5.0252209e-07
4.9377316e-07
4.8534919e-07
4.7761419e-07
4.7429902e-07
4.7375736e-07
4.7806991e-07
4.8381863e-07
4.928328e-07
4.9957374e-07
5.196788e-07
3.1422939e-06
2.4194316e-06
1.8743338e-06
1.5857853e-06
1.395038e-06
1.2360217e-06
1.1042245e-06
9.9191676e-07
9.0309673e-07
8.3270667e-07
7.7300604e-07
7.2368233e-07
6.7984582e-07
6.4312855e-07
6.1353055e-07
5.8766447e-07
5.64477e-07
5.4856564e-07
5.3333012e-07
5.1729424e-07
5.053301e-07
4.950293e-07
4.8608246e-07
4.782833e-07
4.7306618e-07
4.720112e-07
4.7447482e-07
4.798533e-07
4.9040932e-07
4.9563109e-07
5.126329e-07
3.1500705e-06
2.4384008e-06
1.877955e-06
1.6006332e-06
1.4212402e-06
1.2645876e-06
1.1274917e-06
1.0121133e-06
9.1890206e-07
8.4338663e-07
7.8060531e-07
7.2870491e-07
6.8398952e-07
6.4648491e-07
6.1625632e-07
5.9134192e-07
5.683448e-07
5.5095146e-07
5.3791956e-07
5.2321955e-07
5.0972877e-07
4.9872845e-07
4.8883897e-07
4.8044467e-07
4.7397099e-07
4.7116401e-07
4.7158085e-07
4.7508213e-07
4.8379024e-07
4.8937127e-07
5.0671281e-07
3.1559278e-06
2.4408633e-06
1.8764113e-06
1.5922325e-06
1.4156753e-06
1.2638368e-06
1.1318572e-06
1.0232571e-06
9.3260098e-07
8.5830639e-07
7.9627689e-07
7.4031747e-07
6.9432521e-07
6.5453081e-07
6.2205626e-07
5.9567356e-07
5.7259891e-07
5.5335136e-07
5.3943701e-07
5.270167e-07
5.1246645e-07
5.0140969e-07
4.9188137e-07
4.8570095e-07
4.781081e-07
4.7256041e-07
4.7088257e-07
4.7219509e-07
4.7705826e-07
4.826886e-07
4.9619838e-07
3.1309587e-06
2.4097283e-06
1.8695199e-06
1.5744258e-06
1.3914186e-06
1.2468568e-06
1.1250735e-06
1.0208462e-06
9.331913e-07
8.6164851e-07
8.0312739e-07
7.509156e-07
7.0435813e-07
6.6535554e-07
6.3087664e-07
6.026212e-07
5.7994794e-07
5.5968043e-07
5.4162111e-07
5.3014189e-07
5.1730064e-07
5.0537963e-07
4.9594825e-07
4.8696346e-07
4.8352455e-07
4.7825044e-07
4.7293407e-07
4.7231309e-07
4.7600106e-07
4.8098231e-07
4.8812589e-07
3.1206597e-06
2.415793e-06
1.8711257e-06
1.5776078e-06
1.389214e-06
1.2422603e-06
1.1152533e-06
1.0099891e-06
9.2603762e-07
8.5753154e-07
8.0097249e-07
7.5052868e-07
7.053179e-07
6.6756799e-07
6.358088e-07
6.0797515e-07
5.8630187e-07
5.671474e-07
5.4808602e-07
5.3352815e-07
5.2265858e-07
5.1099144e-07
5.0109258e-07
4.9175438e-07
4.8463993e-07
4.8290034e-07
4.7874541e-07
4.7607279e-07
4.7756504e-07
4.8176222e-07
4.8668208e-07
3.1213243e-06
2.436261e-06
1.8805291e-06
1.5880653e-06
1.3980899e-06
1.248505e-06
1.1177031e-06
1.0105381e-06
9.2356154e-07
8.5530978e-07
7.9656898e-07
7.4685289e-07
7.0324101e-07
6.6636954e-07
6.3543702e-07
6.0937569e-07
5.8749441e-07
5.6984566e-07
5.521955e-07
5.3684601e-07
5.2468814e-07
5.138232e-07
5.0396818e-07
4.9643862e-07
4.868894e-07
4.8441816e-07
4.8097333e-07
4.7918707e-07
4.7904034e-07
4.8214941e-07
4.8726192e-07
3.1239507e-06
2.4724072e-06
1.9145181e-06
1.6151073e-06
1.4323208e-06
1.2813409e-06
1.1449005e-06
1.0288897e-06
9.3557124e-07
8.6289869e-07
8.0089917e-07
7.4917924e-07
7.0427417e-07
6.6674721e-07
6.3539116e-07
6.0958283e-07
5.8704459e-07
5.6965544e-07
5.5235518e-07
5.3815094e-07
5.2461033e-07
5.138743e-07
5.0473185e-07
4.9892583e-07
4.8931461e-07
4.8409614e-07
4.809002e-07
4.7916104e-07
4.7856339e-07
4.8004743e-07
4.8459979e-07
3.117812e-06
2.4901739e-06
1.9953083e-06
1.7005262e-06
1.522703e-06
1.3686468e-06
1.2237865e-06
1.0912081e-06
9.8369135e-07
8.9732538e-07
8.2515008e-07
7.6543347e-07
7.1560683e-07
6.7486275e-07
6.4045431e-07
6.1286846e-07
5.8939051e-07
5.7104238e-07
5.5357715e-07
5.4007313e-07
5.2559902e-07
5.146471e-07
5.0542784e-07
4.998243e-07
4.9181266e-07
4.8397148e-07
4.8070391e-07
4.7901457e-07
4.7846215e-07
4.7821024e-07
4.8041234e-07
3.0994357e-06
2.4675264e-06
1.9978223e-06
1.7335411e-06
1.5594513e-06
1.4066985e-06
1.2579647e-06
1.124258e-06
1.0131992e-06
9.266632e-07
8.5618717e-07
7.9609805e-07
7.4363116e-07
6.9860154e-07
6.5916808e-07
6.2696579e-07
6.0021004e-07
5.7885423e-07
5.6071258e-07
5.4568806e-07
5.3169733e-07
5.1933844e-07
5.0982227e-07
5.0253753e-07
4.9672915e-07
4.8708339e-07
4.82355e-07
4.7983725e-07
4.7956136e-07
4.7866505e-07
4.7916664e-07
3.1297633e-06
2.4487829e-06
1.9558565e-06
1.6955042e-06
1.5184779e-06
1.3692555e-06
1.2290909e-06
1.1060677e-06
1.0041587e-06
9.243506e-07
8.5906103e-07
8.0202709e-07
7.502461e-07
7.0563557e-07
6.677069e-07
6.3625427e-07
6.0876081e-07
5.8611972e-07
5.6939381e-07
5.5458559e-07
5.4073947e-07
5.2977147e-07
5.1836627e-07
5.1057154e-07
5.0423678e-07
4.9560047e-07
4.8949268e-07
4.8551642e-07
4.8504478e-07
4.8352142e-07
4.8276855e-07
3.1478145e-06
2.4547584e-06
1.9283737e-06
1.6417626e-06
1.4535052e-06
1.3065099e-06
1.1792044e-06
1.0677392e-06
9.7790967e-07
9.0689681e-07
8.474827e-07
7.9406314e-07
7.4565588e-07
7.0389914e-07
6.6765995e-07
6.3648197e-07
6.1001587e-07
5.8766272e-07
5.7122707e-07
5.5699005e-07
5.4387007e-07
5.3198404e-07
5.2253308e-07
5.1253659e-07
5.0718919e-07
5.006459e-07
4.9585632e-07
4.9093231e-07
4.9029499e-07
4.9040428e-07
4.8999325e-07
3.1407933e-06
2.4509867e-06
1.9271458e-06
1.621544e-06
1.4278775e-06
1.2850021e-06
1.1595847e-06
1.0492682e-06
9.6087266e-07
8.9083114e-07
8.3500326e-07
7.8444198e-07
7.3987491e-07
6.997448e-07
6.6606683e-07
6.3444267e-07
6.1057956e-07
5.8740151e-07
5.7267364e-07
5.5633716e-07
5.4520064e-07
5.3140201e-07
5.2400497e-07
5.1354926e-07
5.0843688e-07
5.0292931e-07
4.9803417e-07
4.9282686e-07
4.9070719e-07
4.9150882e-07
4.9274932e-07
3.1190797e-06
2.4347205e-06
1.9154816e-06
1.6140448e-06
1.4248183e-06
1.2799677e-06
1.1527801e-06
1.0430075e-06
9.5535043e-07
8.8451577e-07
8.2863954e-07
7.782702e-07
7.3550549e-07
6.9516165e-07
6.625342e-07
6.319549e-07
6.0855741e-07
5.8521109e-07
5.7061261e-07
5.5592784e-07
5.4391024e-07
5.3236937e-07
5.2342482e-07
5.1437905e-07
5.0620946e-07
5.0168315e-07
4.9637659e-07
4.9118902e-07
4.877058e-07
4.8641266e-07
4.8910158e-07
3.1336871e-06
2.4678311e-06
1.9262653e-06
1.6276017e-06
1.4363577e-06
1.2910246e-06
1.1646023e-06
1.0519504e-06
9.6250197e-07
8.9059824e-07
8.3362648e-07
7.8211359e-07
7.3884053e-07
6.9834018e-07
6.6407355e-07
6.3411076e-07
6.094907e-07
5.8655957e-07
5.7103358e-07
5.5640014e-07
5.4462052e-07
5.3286193e-07
5.243914e-07
5.1445664e-07
5.0736715e-07
5.022374e-07
4.9661964e-07
4.9228725e-07
4.8892425e-07
4.8517442e-07
4.8582761e-07
3.1200513e-06
2.4717826e-06
1.9431105e-06
1.6444332e-06
1.4487814e-06
1.3124853e-06
1.1961404e-06
1.0854455e-06
9.9783584e-07
9.3128668e-07
8.718192e-07
8.1532096e-07
7.7321032e-07
7.3135084e-07
6.9248783e-07
6.6349867e-07
6.3382639e-07
6.1138495e-07
5.9976035e-07
5.8811082e-07
5.7564439e-07
5.5951436e-07
5.4890123e-07
5.3713842e-07
5.2704733e-07
5.234078e-07
5.1338989e-07
5.0708335e-07
5.0415469e-07
5.0147625e-07
4.9672413e-07
3.14663e-06
2.6837126e-06
2.1649235e-06
1.8093253e-06
1.6039017e-06
1.524101e-06
1.4773566e-06
1.4176075e-06
1.383364e-06
1.3566024e-06
1.2713965e-06
1.198895e-06
1.1487462e-06
1.0969483e-06
1.0525077e-06
1.0212137e-06
9.9394344e-07
1.0049799e-06
1.0352216e-06
1.0330993e-06
1.0139496e-06
9.8424819e-07
9.4339765e-07
8.8319747e-07
8.616495e-07
8.3947367e-07
7.9163226e-07
7.7747012e-07
7.7295005e-07
7.6680358e-07
7.1933014e-07
4.2071549e-06
8.6134744e-06
6.1577432e-06
5.8263603e-06
5.0403783e-06
4.970754e-06
5.1602065e-06
4.9681316e-06
5.3104533e-06
5.7159267e-06
4.965384e-06
4.7515448e-06
4.5812954e-06
4.5081358e-06
4.2296394e-06
4.4534184e-06
4.274064e-06
4.9092791e-06
5.1292008e-06
5.2901169e-06
5.0239649e-06
4.7953714e-06
4.3442496e-06
4.0319731e-06
4.0174027e-06
4.1163061e-06
3.7742815e-06
3.8550148e-06
3.8747462e-06
3.8487828e-06
3.6211889e-06
1.8088089e-05
7.6030798e-05
4.4875435e-05
3.4659865e-05
3.3760607e-05
3.0799253e-05
3.0867407e-05
3.1301599e-05
3.1883495e-05
3.4083572e-05
3.7581613e-05
3.2719149e-05
3.5414212e-05
3.1285874e-05
3.2121996e-05
2.8453503e-05
2.8806406e-05
2.6353202e-05
2.8666938e-05
2.7058608e-05
2.9862324e-05
2.6248604e-05
2.7651728e-05
2.4348993e-05
2.2753936e-05
2.3483767e-05
2.0899438e-05
1.8358158e-05
1.8956562e-05
1.6723235e-05
1.6644338e-05
1.4431884e-05
3.9249585e-06
7.7229211e-07
5.0126151e-07
4.8795826e-07
4.8987929e-07
4.9490805e-07
4.9264046e-07
4.8673615e-07
4.8493505e-07
4.8590158e-07
4.9008916e-07
4.934016e-07
4.9245024e-07
4.9385071e-07
5.0175627e-07
5.1581595e-07
5.2467825e-07
5.3214762e-07
5.4374141e-07
5.594487e-07
5.7985394e-07
5.9957216e-07
1.4495645e-05
5.1952331e-06
1.1137707e-06
5.3848939e-07
4.918296e-07
4.8999717e-07
4.9659302e-07
5.0106702e-07
4.973185e-07
4.9277427e-07
4.9427085e-07
4.9983419e-07
5.0298407e-07
5.018518e-07
5.0220243e-07
5.0958718e-07
5.2564029e-07
5.3789104e-07
5.4825231e-07
5.5917386e-07
5.7124702e-07
5.955641e-07
6.1071314e-07
1.222393e-05
5.4393093e-06
1.2414565e-06
5.7475909e-07
4.9698637e-07
4.9220839e-07
4.9874262e-07
5.0673399e-07
5.0553693e-07
4.9953201e-07
4.9921556e-07
5.0471071e-07
5.1082582e-07
5.1104657e-07
5.1322717e-07
5.1992206e-07
5.3257814e-07
5.4845228e-07
5.5924433e-07
5.7160914e-07
5.8597463e-07
6.1428123e-07
6.3017784e-07
1.2615191e-05
6.0863867e-06
1.4984095e-06
6.297642e-07
5.0641522e-07
5.0039417e-07
5.0415307e-07
5.1383385e-07
5.1321399e-07
5.070292e-07
5.0601029e-07
5.110623e-07
5.220787e-07
5.2813805e-07
5.2986992e-07
5.3312857e-07
5.4232212e-07
5.6018363e-07
5.7441211e-07
5.8704891e-07
6.0082242e-07
6.3282919e-07
6.5229722e-07
1.0707337e-05
5.768196e-06
1.5464044e-06
6.5649556e-07
5.1419187e-07
5.0530393e-07
5.078424e-07
5.193641e-07
5.2366593e-07
5.22604e-07
5.2263023e-07
5.2724169e-07
5.3969624e-07
5.4927895e-07
5.5177947e-07
5.5282855e-07
5.5866668e-07
5.7340313e-07
5.9054072e-07
6.0625986e-07
6.1876363e-07
6.498914e-07
6.7668333e-07
1.5554033e-05
6.1004311e-06
1.7121306e-06
7.3241782e-07
5.4299739e-07
5.1577066e-07
5.1727086e-07
5.3029078e-07
5.3990446e-07
5.4177658e-07
5.4097056e-07
5.4431183e-07
5.5546657e-07
5.6497859e-07
5.6721071e-07
5.6531131e-07
5.6773063e-07
5.8169752e-07
6.0393244e-07
6.241296e-07
6.3716675e-07
6.6151604e-07
6.927628e-07
2.4859781e-05
1.1505081e-05
4.066412e-06
1.7034913e-06
8.7929221e-07
6.3248443e-07
5.7450955e-07
5.6759869e-07
5.7143825e-07
5.692764e-07
5.6375539e-07
5.6479406e-07
5.7405781e-07
5.8707574e-07
5.8933895e-07
5.8673582e-07
5.8607043e-07
5.9430545e-07
6.1692959e-07
6.3626692e-07
6.4857482e-07
6.6768954e-07
6.9507591e-07
4.5881441e-05
3.4326789e-05
2.0740567e-05
9.0105775e-06
3.5333311e-06
1.5328308e-06
8.9922949e-07
7.2465108e-07
6.6478804e-07
6.3668109e-07
6.1725571e-07
6.0801494e-07
6.1124709e-07
6.1918893e-07
6.2317672e-07
6.2249864e-07
6.1837566e-07
6.2044076e-07
6.3683333e-07
6.6108908e-07
6.6881773e-07
6.8211574e-07
7.0322296e-07
8.0850124e-05
8.0245144e-05
2.7637338e-05
1.0866886e-05
4.6505053e-06
2.01137e-06
1.1072325e-06
8.3086854e-07
7.4258007e-07
6.8966067e-07
6.4839775e-07
6.2650791e-07
6.2555071e-07
6.3270994e-07
6.4003554e-07
6.40204e-07
6.3878218e-07
6.4028465e-07
6.5134056e-07
6.812117e-07
6.9633196e-07
7.0515147e-07
7.1812727e-07
7.030058e-05
7.6089912e-05
2.518461e-05
1.0132238e-05
4.4318153e-06
1.9437805e-06
1.0860896e-06
8.2539324e-07
7.4948283e-07
6.9900678e-07
6.5632755e-07
6.3250253e-07
6.3093179e-07
6.3626178e-07
6.4224079e-07
6.4182683e-07
6.4167352e-07
6.4436705e-07
6.5385248e-07
6.838273e-07
7.1027774e-07
7.2756565e-07
7.3894142e-07
6.6600541e-05
5.6656566e-05
1.9682627e-05
7.9257351e-06
3.5898124e-06
1.6231438e-06
9.7888646e-07
7.892253e-07
7.3915661e-07
6.9493655e-07
6.5739953e-07
6.3524391e-07
6.3408307e-07
6.3881278e-07
6.4492956e-07
6.4244399e-07
6.4138822e-07
6.4422738e-07
6.5385897e-07
6.8183617e-07
7.1517185e-07
7.4303692e-07
7.5889675e-07
7.4787695e-05
3.9828831e-05
1.4008661e-05
5.5471141e-06
2.6006866e-06
1.3301066e-06
9.0382494e-07
7.5955595e-07
7.0804081e-07
6.6972752e-07
6.4296132e-07
6.276333e-07
6.2660847e-07
6.3183506e-07
6.4213368e-07
6.4372858e-07
6.4513104e-07
6.4839727e-07
6.5628624e-07
6.8162888e-07
7.1537455e-07
7.4751145e-07
7.6604784e-07
9.8738789e-05
3.7824409e-05
1.15988e-05
4.6225336e-06
2.2773549e-06
1.2811889e-06
9.0701597e-07
7.6297409e-07
6.9948738e-07
6.5233241e-07
6.2286268e-07
6.1361429e-07
6.1424784e-07
6.1992419e-07
6.3484744e-07
6.4187449e-07
6.4821565e-07
6.5632111e-07
6.6418963e-07
6.8648188e-07
7.1617616e-07
7.4781168e-07
7.6895938e-07
0.00015345306
5.0750035e-05
1.3479418e-05
5.271735e-06
2.602843e-06
1.4879111e-06
1.0386173e-06
8.2469619e-07
7.2256217e-07
6.5714901e-07
6.1859279e-07
6.0761733e-07
6.1026858e-07
6.1671878e-07
6.3140019e-07
6.3991699e-07
6.4955594e-07
6.6239099e-07
6.7394364e-07
6.9560151e-07
7.2131871e-07
7.5034459e-07
7.7216526e-07
0.0002571395
0.00016045859
3.7833731e-05
1.3230256e-05
5.9568815e-06
3.1243863e-06
1.9394296e-06
1.2223626e-06
8.8228678e-07
7.1524167e-07
6.4217608e-07
6.1998672e-07
6.184131e-07
6.2408455e-07
6.3739199e-07
6.4538403e-07
6.5492559e-07
6.6957986e-07
6.8335563e-07
7.0403245e-07
7.3563201e-07
7.6841017e-07
7.8887116e-07
0.00029370011
0.00020119535
0.00012073044
5.7752197e-05
2.6342645e-05
1.197764e-05
6.370366e-06
3.1123491e-06
1.6530018e-06
9.9385551e-07
7.6111306e-07
6.8632782e-07
6.6922952e-07
6.6765759e-07
6.7601977e-07
6.8100326e-07
6.8917535e-07
6.9947545e-07
7.0900748e-07
7.2595747e-07
7.716281e-07
8.1247172e-07
8.2613391e-07
0.00021820923
0.00018618869
0.00013750103
9.6829407e-05
5.9724302e-05
3.2764007e-05
1.8203267e-05
9.0569968e-06
4.2715077e-06
1.9585526e-06
1.1548758e-06
8.805008e-07
7.9521035e-07
7.6166762e-07
7.5892115e-07
7.5337439e-07
7.5486803e-07
7.5818022e-07
7.6101357e-07
7.71461e-07
8.0478915e-07
8.4604486e-07
8.6176313e-07
0.00016131966
0.00014878227
0.00013161152
0.00010192849
6.9169855e-05
4.1999865e-05
2.5149124e-05
1.372115e-05
6.679335e-06
2.915329e-06
1.4856488e-06
1.0078218e-06
8.6607823e-07
8.1820375e-07
8.0308911e-07
7.8651868e-07
7.8265178e-07
7.8540018e-07
7.882007e-07
7.9252372e-07
8.1648891e-07
8.5657346e-07
8.8255067e-07
0.00011623697
0.00011532319
0.00010717879
9.5827081e-05
6.8539592e-05
4.2593451e-05
2.6216219e-05
1.482277e-05
7.3277467e-06
3.1991019e-06
1.5792798e-06
1.0417741e-06
8.8432481e-07
8.3341057e-07
8.113991e-07
7.9056056e-07
7.8507516e-07
7.8883459e-07
7.9194893e-07
7.9507288e-07
8.1798621e-07
8.6091339e-07
8.8876845e-07
8.7624086e-05
8.0639627e-05
6.9211168e-05
6.8340451e-05
5.4526395e-05
3.6520826e-05
2.3436889e-05
1.3400613e-05
6.5259484e-06
2.8337251e-06
1.4264246e-06
9.9039673e-07
8.6971997e-07
8.2811712e-07
8.0469657e-07
7.8218502e-07
7.7685462e-07
7.845597e-07
7.8942799e-07
7.929137e-07
8.1854839e-07
8.6428906e-07
8.8862611e-07
9.9121499e-05
5.6079442e-05
4.4792081e-05
3.9064801e-05
3.0106689e-05
2.0829473e-05
1.3556964e-05
7.6126051e-06
3.6106338e-06
1.692816e-06
1.0175806e-06
8.33048e-07
7.9626605e-07
7.8407914e-07
7.6056961e-07
7.3947836e-07
7.3954067e-07
7.6255995e-07
7.7771316e-07
7.8841731e-07
8.2055575e-07
8.6514417e-07
8.876105e-07
0.00012451843
5.3209316e-05
3.6502102e-05
2.590592e-05
1.7778816e-05
1.1459292e-05
6.9068583e-06
3.7615967e-06
1.898051e-06
1.0675707e-06
7.9947781e-07
7.4718984e-07
7.4431236e-07
7.3529491e-07
7.1241178e-07
7.0036714e-07
7.0850837e-07
7.3619274e-07
7.5906299e-07
7.8290178e-07
8.2110202e-07
8.6457574e-07
8.8662661e-07
0.00013347989
5.5984768e-05
3.6794481e-05
2.3664097e-05
1.4505963e-05
8.2251288e-06
4.3972442e-06
2.329284e-06
1.2843455e-06
8.6226577e-07
7.4302623e-07
7.3050833e-07
7.3441902e-07
7.2497524e-07
7.0195549e-07
6.9448309e-07
7.0575092e-07
7.3246347e-07
7.5494579e-07
7.8196183e-07
8.2427055e-07
8.6640482e-07
8.8641111e-07
0.00013042158
6.317383e-05
4.5366089e-05
2.6671601e-05
1.5446413e-05
8.2817759e-06
4.1751621e-06
2.1401214e-06
1.2011763e-06
8.4816321e-07
7.4943183e-07
7.3887421e-07
7.4140215e-07
7.3121352e-07
7.0821927e-07
7.0151793e-07
7.1285508e-07
7.3715898e-07
7.5897063e-07
7.9159456e-07
8.3977439e-07
8.718455e-07
8.943628e-07
0.00011898442
7.1250737e-05
6.3188328e-05
4.5626341e-05
2.5117001e-05
1.2221846e-05
5.5629885e-06
2.6078187e-06
1.3627697e-06
9.2558554e-07
8.1729464e-07
8.0197205e-07
7.9366909e-07
7.7253076e-07
7.4111894e-07
7.336839e-07
7.3989443e-07
7.5695239e-07
7.8346876e-07
8.3601778e-07
8.6953859e-07
8.8561615e-07
9.1392249e-07
0.0001028507
7.8213537e-05
7.1637497e-05
6.9760262e-05
5.1480491e-05
2.7868139e-05
1.1984676e-05
5.0426096e-06
2.2118295e-06
1.2553531e-06
9.9542015e-07
9.1676874e-07
8.8072989e-07
8.5315652e-07
8.2939502e-07
8.1920486e-07
8.1543502e-07
8.2501319e-07
8.7141608e-07
9.0617481e-07
9.1630259e-07
9.2061274e-07
9.6259013e-07
8.8151559e-05
8.0457877e-05
7.3407691e-05
7.846515e-05
6.7370649e-05
4.1930795e-05
1.9336453e-05
8.3831415e-06
3.3947422e-06
1.5935328e-06
1.0974596e-06
9.6634869e-07
9.1443103e-07
8.8675577e-07
8.7668966e-07
8.8011564e-07
8.8750514e-07
9.0620514e-07
9.4324977e-07
9.5947729e-07
9.6543298e-07
9.8989704e-07
1.0787408e-06
7.5020286e-05
7.8482726e-05
7.2482477e-05
7.8888758e-05
7.1154768e-05
4.6395556e-05
2.2189728e-05
9.8107974e-06
3.8831971e-06
1.7053411e-06
1.1192729e-06
9.7314875e-07
9.1638242e-07
8.8775479e-07
8.8339917e-07
9.0123324e-07
9.2225069e-07
9.5303895e-07
9.9142469e-07
1.0069909e-06
1.0225347e-06
1.0712256e-06
1.1797462e-06
6.5016352e-05
6.3477928e-05
6.2672578e-05
7.0974634e-05
6.5969506e-05
4.3347753e-05
2.0996979e-05
9.4559569e-06
3.717674e-06
1.5967699e-06
1.0558548e-06
9.3662619e-07
8.8896509e-07
8.6913131e-07
8.7632071e-07
9.0997053e-07
9.4679488e-07
9.7916889e-07
1.017983e-06
1.0344219e-06
1.0660589e-06
1.1529822e-06
1.3464069e-06
6.2409873e-05
4.4506823e-05
4.293658e-05
4.3977673e-05
3.9939382e-05
2.5992624e-05
1.2839193e-05
6.0459278e-06
2.4504092e-06
1.2081606e-06
9.3630071e-07
8.7994729e-07
8.5344672e-07
8.4272457e-07
8.5627584e-07
9.0591243e-07
9.5365115e-07
9.9900658e-07
1.0267265e-06
1.0489578e-06
1.1155509e-06
1.3051452e-06
1.4467853e-06
6.0038492e-05
3.7410291e-05
3.428543e-05
2.6216907e-05
1.821599e-05
1.1290672e-05
5.8435723e-06
3.0069104e-06
1.5343001e-06
1.0254088e-06
9.0570268e-07
8.7041082e-07
8.4390179e-07
8.3418706e-07
8.5024731e-07
9.0582138e-07
9.7541424e-07
1.015646e-06
1.0442793e-06
1.1026174e-06
1.2467726e-06
1.4110962e-06
1.492569e-06
5.6243435e-05
3.5991051e-05
3.3595189e-05
2.2062335e-05
1.07121e-05
5.5113714e-06
2.932146e-06
1.7625777e-06
1.2033564e-06
9.9412816e-07
9.0894201e-07
8.7324715e-07
8.4918532e-07
8.4199386e-07
8.5655075e-07
9.1212041e-07
9.8059209e-07
1.0203809e-06
1.0563408e-06
1.1377818e-06
1.2977075e-06
1.4555436e-06
1.5525815e-06
5.0604699e-05
3.6158473e-05
3.6850755e-05
2.4514907e-05
1.0428955e-05
4.4646353e-06
2.212382e-06
1.4157963e-06
1.1324497e-06
1.0124173e-06
9.5808248e-07
9.1214779e-07
8.8468655e-07
8.7965495e-07
9.0411391e-07
9.6595717e-07
1.0123467e-06
1.0421278e-06
1.1004772e-06
1.2325475e-06
1.4162836e-06
1.566072e-06
1.7312105e-06
4.4012799e-05
3.6320802e-05
4.0798492e-05
3.546196e-05
1.5837466e-05
5.5099123e-06
2.3952596e-06
1.4047419e-06
1.1345383e-06
1.0629412e-06
1.0423478e-06
1.0104387e-06
9.6877351e-07
9.5279248e-07
9.5884328e-07
1.0029806e-06
1.0331056e-06
1.0599392e-06
1.134414e-06
1.2867398e-06
1.4719835e-06
1.6354742e-06
1.8937288e-06
3.7988511e-05
3.5758224e-05
4.1486123e-05
4.1099233e-05
2.4156034e-05
7.5122087e-06
2.4653417e-06
1.3559788e-06
1.1214865e-06
1.0746984e-06
1.0657938e-06
1.0582994e-06
1.04527e-06
1.044261e-06
1.0647934e-06
1.0871669e-06
1.1048916e-06
1.1648762e-06
1.284605e-06
1.474064e-06
1.6859071e-06
1.9356943e-06
2.311035e-06
3.026842e-05
3.0363251e-05
3.8987386e-05
4.0714156e-05
3.0076167e-05
1.3120675e-05
4.7453133e-06
1.9125956e-06
1.1912626e-06
1.0649059e-06
1.0589405e-06
1.0601979e-06
1.0578691e-06
1.0606948e-06
1.085066e-06
1.1274915e-06
1.1506473e-06
1.1911422e-06
1.2742392e-06
1.4392978e-06
1.6180847e-06
1.8771599e-06
2.1544126e-06
2.2474795e-05
2.0964666e-05
2.8453635e-05
3.4113315e-05
2.8196562e-05
1.3943932e-05
5.5018604e-06
2.3340933e-06
1.2956851e-06
1.0507659e-06
1.0230557e-06
1.0369412e-06
1.0480443e-06
1.0536311e-06
1.0770463e-06
1.1278784e-06
1.1694795e-06
1.2038209e-06
1.272112e-06
1.4101991e-06
1.565812e-06
1.7768267e-06
1.9992607e-06
1.6440264e-05
1.4770644e-05
1.8637151e-05
2.0033607e-05
1.7942934e-05
1.0905399e-05
4.9483327e-06
2.2768952e-06
1.3410534e-06
1.0479714e-06
1.0004516e-06
1.0098608e-06
1.0314849e-06
1.0441805e-06
1.0602878e-06
1.1107796e-06
1.1628493e-06
1.2091902e-06
1.2733172e-06
1.3670149e-06
1.5515891e-06
1.7135873e-06
1.9536914e-06
1.4656834e-05
1.1406939e-05
1.2960975e-05
1.2400443e-05
9.0875422e-06
5.5437052e-06
3.1349028e-06
1.9038139e-06
1.3159122e-06
1.0719279e-06
1.0021829e-06
1.0056131e-06
1.0273118e-06
1.0479322e-06
1.0624434e-06
1.0938652e-06
1.1532786e-06
1.2114125e-06
1.2701309e-06
1.3429946e-06
1.5057025e-06
1.6617049e-06
1.9898879e-06
1.2076751e-05
8.4745246e-06
9.1965313e-06
8.6678344e-06
5.9146889e-06
3.3818382e-06
2.1033776e-06
1.5301039e-06
1.2640927e-06
1.1255882e-06
1.0571429e-06
1.0405086e-06
1.0474145e-06
1.0652862e-06
1.0750233e-06
1.0977444e-06
1.1388663e-06
1.2127604e-06
1.2645764e-06
1.3436037e-06
1.4456491e-06
1.5872095e-06
1.9515004e-06
1.4545221e-05
6.5891111e-06
6.6688493e-06
6.3190385e-06
4.5352361e-06
2.5550512e-06
1.6436979e-06
1.3019937e-06
1.1891443e-06
1.1290219e-06
1.1035713e-06
1.0922209e-06
1.0931813e-06
1.1064945e-06
1.1202517e-06
1.1199238e-06
1.1402189e-06
1.1915825e-06
1.246564e-06
1.3411984e-06
1.4304862e-06
1.53174e-06
1.831983e-06
1.15643e-05
5.5209176e-06
4.7727832e-06
4.4688792e-06
3.2994754e-06
1.9912417e-06
1.3701129e-06
1.1610016e-06
1.1105111e-06
1.1051517e-06
1.1048178e-06
1.1060904e-06
1.1105572e-06
1.1245468e-06
1.1605549e-06
1.171604e-06
1.1681626e-06
1.1904682e-06
1.2394847e-06
1.3116949e-06
1.4021174e-06
1.4789351e-06
1.7142977e-06
2.0824992e-05
5.5981166e-06
3.5248328e-06
3.0393468e-06
2.2478206e-06
1.5379032e-06
1.1947712e-06
1.0882359e-06
1.0701176e-06
1.0732705e-06
1.0931788e-06
1.101794e-06
1.1087594e-06
1.1263972e-06
1.1675903e-06
1.2037836e-06
1.2240731e-06
1.2259409e-06
1.2507961e-06
1.2940281e-06
1.3679911e-06
1.4302088e-06
1.6224836e-06
1.8530785e-05
5.8229142e-06
2.7351616e-06
2.0936292e-06
1.5913984e-06
1.2533134e-06
1.1029626e-06
1.0591838e-06
1.0560171e-06
1.0654834e-06
1.0945701e-06
1.1060471e-06
1.113181e-06
1.129399e-06
1.1640013e-06
1.2065115e-06
1.2556192e-06
1.2715405e-06
1.2840441e-06
1.3053682e-06
1.357241e-06
1.4034897e-06
1.5556282e-06
3.4213557e-05
6.6210406e-06
2.4793009e-06
1.6179432e-06
1.2701131e-06
1.117975e-06
1.0585848e-06
1.0443158e-06
1.0472626e-06
1.0653582e-06
1.1005709e-06
1.1251239e-06
1.1431723e-06
1.1527732e-06
1.1693987e-06
1.2032981e-06
1.2550611e-06
1.2900802e-06
1.314224e-06
1.3267462e-06
1.3610569e-06
1.3983704e-06
1.5083745e-06
2.796484e-05
7.5822647e-06
2.4966316e-06
1.449106e-06
1.1351855e-06
1.047161e-06
1.0239499e-06
1.0220888e-06
1.0312355e-06
1.0599788e-06
1.0961738e-06
1.1277126e-06
1.1534933e-06
1.1752076e-06
1.1891464e-06
1.2092616e-06
1.2490874e-06
1.2910011e-06
1.3496016e-06
1.3681259e-06
1.3813531e-06
1.4084079e-06
1.4978787e-06
5.4430232e-05
1.1670476e-05
2.9840655e-06
1.4507354e-06
1.0713207e-06
9.9158275e-07
9.7902439e-07
9.8100254e-07
9.9660572e-07
1.042047e-06
1.086587e-06
1.1227961e-06
1.1497506e-06
1.1764723e-06
1.194748e-06
1.215081e-06
1.243269e-06
1.2945349e-06
1.3472661e-06
1.4182849e-06
1.4451363e-06
1.455875e-06
1.5256318e-06
5.3313032e-05
1.1735696e-05
3.0804169e-06
1.4398396e-06
1.0331e-06
9.4064279e-07
9.2999631e-07
9.3384552e-07
9.4749754e-07
9.8995684e-07
1.0573282e-06
1.1037045e-06
1.1337032e-06
1.1697402e-06
1.1916824e-06
1.214611e-06
1.244452e-06
1.2917617e-06
1.3419136e-06
1.4188916e-06
1.4685592e-06
1.5654483e-06
1.5741303e-06
7.4284325e-05
1.3427679e-05
3.2551039e-06
1.4215594e-06
9.813144e-07
8.6196905e-07
8.5075595e-07
8.5603421e-07
8.7296521e-07
9.2135346e-07
9.9737707e-07
1.054731e-06
1.0980558e-06
1.1441896e-06
1.1761399e-06
1.2051045e-06
1.2426841e-06
1.284562e-06
1.3387812e-06
1.4040562e-06
1.4793602e-06
1.5498012e-06
1.6619695e-06
8.1605783e-05
1.3938855e-05
3.1998594e-06
1.3427631e-06
8.7811035e-07
7.6244243e-07
7.5643713e-07
7.6458748e-07
7.9207093e-07
8.4670973e-07
9.0726286e-07
9.4471725e-07
1.014087e-06
1.0749178e-06
1.134434e-06
1.1735465e-06
1.2191619e-06
1.2529181e-06
1.3121537e-06
1.3729857e-06
1.4568e-06
1.5395613e-06
1.679826e-06
0.00010451256
1.543495e-05
3.0630553e-06
1.1432798e-06
7.4499122e-07
6.6765486e-07
6.6605246e-07
6.7774368e-07
7.1222576e-07
7.5397596e-07
8.0015558e-07
8.4235671e-07
9.3100474e-07
9.6874448e-07
1.0315444e-06
1.0662526e-06
1.1084846e-06
1.1517918e-06
1.2189873e-06
1.3282391e-06
1.393951e-06
1.5371459e-06
1.1486763e-06
0.00011135346
1.2063959e-05
2.2379355e-06
8.4282646e-07
6.2311182e-07
5.9001368e-07
5.9278877e-07
6.1046767e-07
6.4199323e-07
6.7272192e-07
7.1006263e-07
7.4692624e-07
8.0768534e-07
8.3677871e-07
9.063204e-07
9.4528009e-07
9.9596801e-07
1.0401632e-06
1.1095399e-06
1.2068497e-06
1.2968884e-06
1.5370849e-06
5.8009571e-06
0.00011183516
7.7431359e-06
1.2902489e-06
6.2547141e-07
5.3802911e-07
5.328456e-07
5.420239e-07
5.6437183e-07
5.8989088e-07
6.1386872e-07
6.4414443e-07
6.8486586e-07
7.483147e-07
7.944363e-07
8.623769e-07
8.9383423e-07
9.5205157e-07
1.0381028e-06
1.1972252e-06
1.5297079e-06
2.2640741e-06
4.7619387e-06
2.418522e-05
0.000110102
5.53202e-06
8.473946e-07
5.2150763e-07
4.9352771e-07
4.9988857e-07
5.1430457e-07
5.3849987e-07
5.6613684e-07
5.953954e-07
6.336624e-07
6.8300219e-07
7.4810239e-07
8.0996292e-07
9.2869472e-07
1.1512699e-06
1.6879392e-06
3.0080895e-06
6.0059445e-06
1.2465222e-05
2.3791128e-05
4.7561591e-05
7.6461172e-05
0.0001063529
4.5430756e-06
6.704199e-07
4.8655952e-07
4.8008293e-07
4.9111204e-07
5.0865242e-07
5.3682986e-07
5.700517e-07
6.1103108e-07
6.7707559e-07
8.0514618e-07
1.0980485e-06
1.8165599e-06
3.5925506e-06
7.6854521e-06
1.5957893e-05
3.1615403e-05
5.9569688e-05
0.00010564651
0.00016021109
0.00021663122
0.00026840522
0.00010125974
3.9370487e-06
6.0402271e-07
4.8155386e-07
4.8038042e-07
4.9407379e-07
5.191627e-07
5.701133e-07
6.7517314e-07
9.2005374e-07
1.546504e-06
3.1491258e-06
7.0193732e-06
1.5308926e-05
3.1290554e-05
6.104527e-05
0.00010727442
0.00015885893
0.00020840976
0.00024554571
0.0002708395
0.000287188
0.00031453731
9.4891452e-05
3.5751566e-06
5.8611843e-07
4.8561187e-07
4.9339688e-07
5.3373481e-07
6.5210526e-07
9.9976033e-07
1.9718052e-06
4.492597e-06
1.0454281e-05
2.2984684e-05
4.6838745e-05
8.8417448e-05
0.00013619194
0.000181846
0.0002148575
0.00023732472
0.00025004898
0.0002545744
0.00025096722
0.00023221303
0.00022676903
8.747146e-05
3.2413439e-06
5.8797714e-07
5.1148593e-07
5.9036746e-07
8.9259942e-07
1.8865955e-06
4.7196787e-06
1.1747502e-05
2.6837303e-05
5.603572e-05
0.00010063779
0.00014666956
0.00018213615
0.00020692385
0.00022041305
0.00022535814
0.00022352928
0.00020694827
0.00016699067
0.00011345284
7.2156759e-05
6.9822767e-05
7.93043e-05
2.8368712e-06
6.198283e-07
6.7159677e-07
1.3010822e-06
3.5058206e-06
9.7636598e-06
2.4502384e-05
5.3784e-05
9.988968e-05
0.00014559078
0.00017840255
0.00019890477
0.00020727843
0.00020838468
0.00020188566
0.00017968728
0.0001328852
7.8284243e-05
4.2380954e-05
2.7850751e-05
2.4847522e-05
4.2393745e-05
7.0389329e-05
2.5719464e-06
8.024396e-07
1.7451835e-06
5.7040927e-06
1.6886518e-05
4.149393e-05
8.7517142e-05
0.00013779204
0.00017421265
0.00019574351
0.00020317123
0.00020083832
0.00019231189
0.00016971477
0.00012435034
7.2352704e-05
3.713632e-05
2.0751723e-05
1.605231e-05
1.7365046e-05
2.8102863e-05
4.7209308e-05
6.0965465e-05
2.623534e-06
1.9482313e-06