/*--------------------------------*- C++ -*----------------------------------*\
| =========                 |                                                 |
| \\      /  F ield         | OpenFOAM: The Open Source CFD Toolbox           |
|  \\    /   O peration     | Version:  2406                                  |
|   \\  /    A nd           | Website:  www.openfoam.com                      |
|    \\/     M anipulation  |                                                 |
\*---------------------------------------------------------------------------*/
FoamFile
{
    version     2.0;
    format      ascii;
    arch        "LSB;label=32;scalar=64";
    class       surfaceScalarField;
    location    "30";
    object      phi_0;
}
// * * * * * * * * * * * * * * * * * * * * * * * * * * * * * * * * * * * * * //

dimensions      [1 0 -1 0 0 0 0];

oriented        oriented;

internalField   nonuniform List<scalar> 
40800
(
0.00088513974
0.0011368804
-0.0011371451
0.00096839061
0.0011430037
-0.0010856121
0.0010251969
0.0012011868
-0.0014009617
0.0010731415
0.0011698711
-0.0013663769
0.0011234236
0.000969052
-0.0010375354
0.0011574658
0.00097553285
-0.0011221482
0.0012043166
0.00089140404
-0.0008605928
0.0012367358
0.00085395264
-0.00094631865
0.0012724844
0.00084051814
-0.00087899537
0.0013091554
0.00074294741
-0.00082004418
0.001350922
0.00076680461
-0.00078514816
0.001394174
0.00076417633
-0.00075775745
0.0014332681
0.00070943268
-0.00073647995
0.001480921
0.00069812199
-0.0007592238
0.0015331693
0.00077649317
-0.00084484186
0.001582698
0.00079239203
-0.00084423274
0.001633609
0.00076727356
-0.00083527592
0.0017192197
0.00093742499
-0.0009835393
0.0017283769
0.00092775191
-0.00097487336
0.0018096062
0.00088899846
-0.00091506241
0.0019059363
0.0010978719
-0.0011341904
0.0019529834
0.0011633759
-0.0012172135
0.0020109261
0.0011300207
-0.0011921705
0.0021070068
0.0012652791
-0.0013017936
0.0022551116
0.0013684703
-0.0014527523
0.0022823535
0.0014643099
-0.0015810107
0.0024002391
0.0015336479
-0.0016180909
0.002541168
0.0015309516
-0.0016597364
0.0026009498
0.0016302806
-0.0017537144
0.0027643869
0.0017263903
-0.0018372838
0.0017866538
0.0029936946
-0.0019583047
0.00088645972
0.0011100746
0.00097453098
0.0012061924
0.0010293506
0.0010116482
0.0010747664
0.00095665568
0.0011243083
0.00092239884
0.0011556018
0.00082139838
0.0012019385
0.00092521531
0.0012327215
0.00077103003
0.0012655263
0.00077744972
0.0013053037
0.0006982815
0.0013462634
0.00072614383
0.0013867362
0.00074373976
0.0014252861
0.00070244963
0.0014757337
0.00066836394
0.0015245543
0.00071240649
0.0015686884
0.00074281082
0.0016343626
0.00072328732
0.0017043383
0.00085782751
0.0017126927
0.00085966293
0.0018236223
0.00088236569
0.0019000897
0.0010416654
0.0019304063
0.001072146
0.0020153367
0.0010610732
0.0020915888
0.0011919068
0.0022363682
0.0012544266
0.0022706403
0.0013041506
0.0023519415
0.0014170027
0.0025284856
0.0014315366
0.0025965403
0.0014838408
0.0026884768
0.0016293866
0.0017382836
0.002900742
0.0008884322
0.0010530915
0.00097629757
0.0012225698
0.0010314701
0.00089587332
0.0010773147
0.00078257944
0.0011256738
0.00090395705
0.0011593831
0.00071447361
0.0012000138
0.00091224347
0.0012313733
0.0007124798
0.0012607974
0.00069764288
0.0013017077
0.00069258613
0.0013412486
0.00066237036
0.0013793626
0.00067392104
0.0014177424
0.00068377781
0.0014693011
0.00067213383
0.0015154003
0.00065359085
0.0015540604
0.00068766779
0.0016303691
0.00071711058
0.0016877273
0.00079022482
0.0017015878
0.00077930611
0.0018291203
0.00088048669
0.0018850409
0.0009643108
0.0019058247
0.00095068543
0.0020142176
0.00098732886
0.0020689094
0.0010908864
0.0022015452
0.0011572615
0.0022607654
0.0011523467
0.0023065342
0.0012701588
0.0024860988
0.0013321932
0.0026083999
0.0013312374
0.0026653844
0.0014493931
0.0016628247
0.0028203063
0.00088766487
0.00095794048
0.00097285758
0.0011457297
0.0010311258
0.00087513539
0.0010790798
0.00069430715
0.0011249593
0.00089427962
0.0011634899
0.00068528487
0.0011961448
0.00082602048
0.0012299751
0.00068399008
0.001259771
0.00062542595
0.0012978779
0.00069624465
0.001333746
0.00060012177
0.0013717496
0.00058162199
0.001411225
0.00062702518
0.0014600966
0.00066100484
0.0015070017
0.00061371154
0.0015454147
0.0006346651
0.0016238325
0.00072356221
0.0016691337
0.00075151194
0.0016960216
0.00070389887
0.0018213274
0.00087424536
0.0018627053
0.00088945476
0.0018902817
0.00086408362
0.0020102272
0.00095008062
0.0020545606
0.0010238977
0.0021610836
0.0010944384
0.0022561997
0.0010830836
0.0022827704
0.0011533725
0.0024226208
0.001271728
0.0025992751
0.0012745121
0.00267964
0.0012842003
0.0014712893
0.0027786953
0.00088752284
0.00081948685
0.00096819457
0.00097064235
0.0010298536
0.00091625688
0.0010830174
0.00071535146
0.0011231645
0.00086486611
0.0011656326
0.0007205469
0.0011921735
0.00069666927
0.001227717
0.00067571013
0.0012611467
0.00059178516
0.0012932707
0.00065968336
0.0013276829
0.00056431757
0.0013660501
0.0005302901
0.0014048906
0.00054920245
0.0014486538
0.00059927474
0.0014987448
0.00058683618
0.0015419641
0.00059463819
0.0016151153
0.00069627411
0.0016495812
0.00071436911
0.001696748
0.00064986205
0.0018003852
0.00082942633
0.0018377886
0.0008033123
0.0018828799
0.00080598028
0.0020023743
0.00091417386
0.0020480561
0.00098954499
0.0021270968
0.0010487823
0.0022426884
0.0010454911
0.002287147
0.0010580182
0.0023718677
0.0011842684
0.0025551135
0.0012680784
0.0026762851
0.00121208
0.0012931568
0.0027432808
0.00089161051
0.00065916764
0.00096661779
0.00072712735
0.0010285636
0.00094819749
0.0010855573
0.00081756023
0.0011201357
0.00080062055
0.0011620564
0.00076919724
0.0011878981
0.00058148041
0.0012253499
0.00066255591
0.0012616517
0.00059595933
0.0012881052
0.00057320031
0.0013257251
0.00055566603
0.0013626702
0.00053150043
0.0013987027
0.00048669403
0.0014390481
0.00051198536
0.0014899649
0.00055730538
0.0015368296
0.00054757532
0.0016031879
0.00062714991
0.0016284281
0.00063845051
0.0016983979
0.00061364568
0.0017737244
0.00076841747
0.0018173992
0.00073689436
0.0018767861
0.0007732891
0.0019923418
0.00086127039
0.00204306
0.0009303567
0.0021008499
0.0010081484
0.0022143034
0.00098868209
0.0022957454
0.00099096269
0.0023590358
0.0010911106
0.0024983278
0.0012265511
0.0026418069
0.0011765689
0.0011689068
0.0027147895
0.00090348646
0.00051680476
0.00097137591
0.00047348988
0.0010265017
0.00091808606
0.0010809506
0.00091906131
0.0011124696
0.00069462618
0.0011517606
0.00076332235
0.0011831677
0.00050925905
0.0012205235
0.00061993883
0.0012555565
0.00060289779
0.0012816971
0.00047208499
0.0013223061
0.00054000294
0.0013566896
0.00053894816
0.0013922084
0.00046465995
0.001433747
0.00045681986
0.0014810543
0.00051982194
0.0015307768
0.00051519662
0.0015898729
0.00056427511
0.0016104358
0.00054746595
0.0016983702
0.00057297113
0.0017481662
0.00068668183
0.0018021328
0.00067439106
0.0018646351
0.00071981338
0.0019731864
0.0007903711
0.0020350656
0.00081949089
0.0020677127
0.00091655515
0.0021771202
0.00091622083
0.00229128
0.00093082515
0.0023663619
0.0010106438
0.002442943
0.0011255638
0.002574037
0.0010906423
0.0010204949
0.0026809776
0.00092636457
0.00042441486
0.00097379495
0.0003060351
0.0010212545
0.00082372645
0.0010685159
0.00095175774
0.0011012301
0.0005602865
0.0011355353
0.00067331891
0.001174747
0.00049328442
0.0012103978
0.0005434551
0.0012413851
0.00056286961
0.0012745362
0.00040776855
0.0013155144
0.00050448256
0.0013473107
0.00050676787
0.0013852307
0.00046516962
0.0014298987
0.00045317583
0.0014725604
0.00049013717
0.0015241629
0.00048809046
0.0015761297
0.00053205725
0.0015993048
0.00050881307
0.0016959966
0.00055717175
0.0017293587
0.00061654261
0.0017911145
0.00064239801
0.0018533151
0.00069158132
0.0019440498
0.00073859838
0.0020222299
0.00071172776
0.0020354616
0.00079761847
0.0021414484
0.00086198573
0.0022754773
0.00087891513
0.002362465
0.00091617072
0.0023932387
0.0010044254
0.0024824466
0.0010208176
0.00094619377
0.0026191464
0.00095002437
0.0003878753
0.00097940974
0.00028469137
0.0010219765
0.00070913424
0.0010597425
0.0008772303
0.0010947865
0.00044894159
0.0011231305
0.00052982043
0.0011643186
0.00051651715
0.0011962089
0.00045024694
0.0012232549
0.00046183926
0.0012650168
0.00039796186
0.0013026291
0.00044722298
0.0013341984
0.00042901082
0.0013754334
0.00044030873
0.0014221081
0.00044831703
0.0014606522
0.00044926309
0.0015157812
0.00045802363
0.0015634216
0.00050380936
0.0015926043
0.00049528367
0.0016880894
0.00056554791
0.0017169532
0.0005563477
0.0017819025
0.00059898211
0.0018437887
0.00064041229
0.0019114176
0.00071289015
0.0020082254
0.00065444961
0.0020194839
0.00068457107
0.002106187
0.0008046304
0.0022417941
0.00083812084
0.002343143
0.00081163155
0.0023681011
0.00084218179
0.0024118514
0.00092183216
0.00096466774
0.0025402388
0.00096360134
0.00039580578
0.00098825127
0.00039127435
0.0010273772
0.00061767656
0.0010564207
0.00068925584
0.0010944832
0.00041249817
0.0011200962
0.00039404665
0.001156985
0.00052359033
0.0011842091
0.00037089338
0.00120845
0.00034579804
0.001252834
0.00041647917
0.0012831556
0.00037419988
0.0013156707
0.00033429573
0.0013591714
0.00038159913
0.0014049138
0.00040456486
0.0014441758
0.000380217
0.0015032171
0.00042277524
0.0015475088
0.00043865447
0.0015847075
0.00044232875
0.0016682468
0.00054594128
0.0017016222
0.00049967976
0.0017633506
0.00053983826
0.0018383654
0.00057119305
0.0018835686
0.00069743963
0.001988143
0.00066354213
0.0020197749
0.00058436126
0.0020784945
0.00072336303
0.0021887927
0.00078763169
0.0022942259
0.00072267318
0.0023469882
0.00066490078
0.0023821046
0.00073584223
0.00090881264
0.0024801498
0.00097435531
0.0004292398
0.00099791387
0.00057001309
0.0010332131
0.00056978399
0.001056486
0.00044312565
0.0010967495
0.0004494712
0.0011243122
0.00032249477
0.0011548171
0.0004872374
0.0011800858
0.00033482187
0.0012053072
0.0002783649
0.0012436465
0.00041870994
0.0012682573
0.00031520136
0.0013028934
0.00028540001
0.0013437202
0.00033113964
0.0013846653
0.00034761748
0.0014270246
0.00032792211
0.0014825282
0.00036998573
0.0015238504
0.00035522761
0.0015718631
0.00035366432
0.0016404093
0.00049278644
0.0016841614
0.00047507497
0.0017367382
0.00047978466
0.0018328416
0.00049387251
0.00185837
0.00060566773
0.001946585
0.00065230963
0.0020215807
0.00051472128
0.0020637529
0.00059780317
0.0021362152
0.00071177792
0.0022223112
0.00069348248
0.002310891
0.00058497375
0.0023778417
0.00058085963
0.00074251721
0.0024538463
0.00099326004
0.00045123254
0.0010110771
0.00073923051
0.0010407649
0.00056197684
0.0010651841
0.00024577732
0.001105345
0.00051289571
0.0011344893
0.00034184603
0.0011563041
0.00041254283
0.0011816714
0.00033466072
0.0012103964
0.00028564911
0.0012387665
0.00037673918
0.0012643945
0.00028059435
0.0013003415
0.00029843585
0.0013356575
0.00032022724
0.0013704457
0.00030943379
0.0014136898
0.00029763941
0.0014613057
0.00033436323
0.001498673
0.00030827657
0.0015587056
0.00028851278
0.0016138478
0.00041366924
0.0016613632
0.00043706408
0.001704803
0.00042205849
0.0018123465
0.00043680007
0.0018365894
0.00047632225
0.0018873589
0.00057998153
0.0020011436
0.00050214036
0.0020543536
0.00047619691
0.0021047983
0.00060853275
0.0021584821
0.00066969278
0.0022636249
0.00060507272
0.0023709412
0.00053727897
0.00060279032
0.0024392508
0.001025808
0.00043794328
0.0010327722
0.0007996022
0.0010565026
0.00057531348
0.0010878273
0.00017930861
0.0011234562
0.00054322385
0.0011523913
0.00040960294
0.0011674334
0.00030793012
0.0011935115
0.00033459909
0.0012223492
0.00032746274
0.0012403355
0.00029787185
0.0012698703
0.00027212558
0.0013038601
0.00031426449
0.0013329719
0.00031526973
0.0013643705
0.00027887349
0.0014090007
0.00028906625
0.0014504224
0.00032142352
0.0014825773
0.00031039177
0.00155217
0.00028781371
0.0015958749
0.00035506582
0.0016398314
0.00036877689
0.0016809712
0.00038221709
0.0017839992
0.00042918357
0.0018216847
0.00039607272
0.0018409304
0.00047991853
0.0019589986
0.00053068445
0.0020470348
0.00045472932
0.0020910705
0.00050990704
0.0021139031
0.0005894237
0.0022136808
0.00061969632
0.0023488093
0.00057459998
0.00056131803
0.0024305306
0.0010589847
0.00038806814
0.0010641146
0.00068549505
0.0010847574
0.000563476
0.0011262682
0.00025206515
0.0011531469
0.00049358141
0.0011781234
0.00044130031
0.0011922766
0.00021451941
0.0012171608
0.00031567167
0.0012386711
0.00034080258
0.0012518898
0.00021193249
0.0012823325
0.00026864369
0.0013109225
0.00028624256
0.0013343976
0.00026147029
0.0013663466
0.00023917059
0.0014105996
0.00028186189
0.0014477826
0.00028791525
0.0014758993
0.00030528456
0.0015492409
0.00031350921
0.0015813899
0.00033386577
0.0016239159
0.00029078556
0.0016690264
0.00034046066
0.0017537255
0.00041031223
0.0018091569
0.00034830881
0.0018240169
0.00037404295
0.0019138142
0.00051439885
0.0020276108
0.00049220556
0.0020760036
0.00045267263
0.0020887706
0.00047853387
0.0021695559
0.00057208205
0.0023028005
0.00059162259
0.0005413128
0.0024099264
0.0010705203
0.00029114911
0.0010911578
0.00043353867
0.0011147106
0.00050235275
0.0011652434
0.00041382966
0.0011843741
0.00035164687
0.0012035341
0.00039493488
0.0012222593
0.00018307645
0.0012425753
0.00026599529
0.0012548214
0.00028895714
0.0012709453
0.00015396991
0.0012979676
0.00024653455
0.0013200892
0.00022787666
0.0013415007
0.00018153085
0.0013764072
0.00021194153
0.0014144182
0.00025162844
0.0014491732
0.0002164383
0.0014761837
0.00023925784
0.001549081
0.0003076102
0.0015682431
0.00029727542
0.0016176514
0.00023822578
0.0016662508
0.00029880063
0.001725981
0.000365041
0.0017909449
0.00031000112
0.0018247719
0.0002846152
0.0018806149
0.00041840239
0.0019892514
0.00048034673
0.0020470383
0.00040912343
0.002073269
0.00036088642
0.0021347792
0.00045749019
0.0022347362
0.00054145451
0.00049906656
0.0023438691
0.0010707608
0.00015502847
0.0011073477
0.0001724721
0.0011345885
0.00041445364
0.0011849559
0.00058193254
0.0012023801
0.00017920878
0.0012192038
0.00026633738
0.0012413007
0.00019597631
0.0012558149
0.00019506817
0.001263326
0.00019121346
0.001287659
0.00013948308
0.0013086474
0.00020459886
0.0013261446
0.00018111615
0.0013493369
0.00013639765
0.001383626
0.00019058195
0.0014125645
0.00020848857
0.0014476173
0.00014821658
0.0014772317
0.0001557235
0.0015431897
0.00025613786
0.0015535523
0.00022549586
0.0016137497
0.0001970236
0.0016663782
0.00025379774
0.0017054685
0.00033476026
0.0017682802
0.00028497425
0.0018248142
0.00022754492
0.0018656749
0.00030505953
0.0019421107
0.00040547365
0.0019969887
0.00033359559
0.0020539844
0.00025209208
0.002114473
0.00032579757
0.0021706804
0.00044483963
0.00046297059
0.0022548715
0.0010562464
5.8517948e-05
0.0011137674
-5.7281955e-06
0.001145759
0.00034229905
0.0011865973
0.00063189103
0.0012063864
6.2226633e-05
0.0012214928
0.00011301924
0.0012463176
0.000220129
0.0012600438
0.0001402123
0.0012690753
0.00010053711
0.0012969321
0.00015288652
0.0013120159
0.00014919028
0.0013294907
0.00016015403
0.0013571813
0.00013463402
0.0013875476
0.0001710552
0.0014095736
0.00016975435
0.0014462782
0.0001366889
0.0014812499
0.00012392035
0.0015328943
0.00018533329
0.0015415545
0.00014233312
0.0016083306
0.00016189216
0.0016683548
0.00020512068
0.0016899909
0.00030380729
0.001744179
0.00027265958
0.0018179208
0.00020779721
0.0018615514
0.00021709608
0.0018977663
0.00030692501
0.0019433436
0.0002634507
0.0020312933
0.00019772995
0.0021112999
0.00023429864
0.0021388595
0.00031470292
0.00039052496
0.0021864853
0.0010499389
1.3967464e-06
0.0011162641
-1.4316788e-05
0.0011521045
0.00030913955
0.0011787415
0.00049728282
0.0012041543
4.1114642e-05
0.001221153
4.4126959e-05
0.0012434433
0.00023426636
0.0012563186
0.00011613802
0.0012684109
6.3752805e-05
0.0012962783
0.00015235392
0.0013117649
0.00010128084
0.0013291808
0.00014644343
0.0013592671
0.0001512902
0.0013853295
0.00015339922
0.001406037
0.00013656079
0.001444388
0.00015735104
0.0014806754
0.00013538851
0.0015192078
0.00014701767
0.0015351603
9.6596344e-05
0.0015998708
0.00015497124
0.0016678065
0.00016676423
0.0016759454
0.00022766644
0.0017203994
0.00024890717
0.0018001644
0.00021613139
0.0018595283
0.00017572888
0.0018670981
0.00023064981
0.0019065803
0.00023834244
0.0020078803
0.00021571648
0.0020992892
0.00019899082
0.0021206442
0.00019265807
0.00024905493
0.0021473143
0.001068612
-2.258176e-05
0.0011251185
0.00013715372
0.0011551838
0.00034451873
0.0011713343
0.00020906946
0.0012044346
0.00010562446
0.0012259087
6.6976474e-05
0.0012420511
0.00018187291
0.0012557804
0.00010752544
0.0012720587
8.0825232e-05
0.0012924356
0.00012333849
0.0013117967
8.3451397e-05
0.0013307105
0.00011750182
0.0013574409
0.00015384078
0.0013787765
0.00012910033
0.0014036539
0.00010197645
0.0014394879
0.00014887726
0.0014772358
0.00013683254
0.0015095176
0.00013469009
0.0015370202
8.9431078e-05
0.0015903183
0.00016068416
0.0016576853
0.0001522343
0.0016611735
0.0001171589
0.0016969586
0.00018615878
0.0017704168
0.00022145568
0.0018513687
0.00016941286
0.0018482237
0.00015690794
0.0018823284
0.00020580415
0.0019786475
0.00024172208
0.002064792
0.00021090589
0.0020946962
0.00012942187
0.00012431146
0.0021196632
0.0010958186
-1.981117e-05
0.0011406073
0.0003529402
0.0011622256
0.0004001815
0.0011769715
-6.5570356e-05
0.0012139004
0.00021121693
0.0012366443
0.00015844389
0.0012451918
8.4083495e-05
0.0012614461
0.00010336446
0.0012760578
0.00010271086
0.0012940824
5.9927326e-05
0.0013135725
8.7526559e-05
0.0013307036
8.5837342e-05
0.0013562258
0.00011035836
0.0013755729
0.00010217116
0.0014026915
8.1348928e-05
0.0014339054
0.00011384051
0.0014689241
0.00011175554
0.001494639
0.00010011276
0.0015343427
6.7192642e-05
0.0015754133
0.00013255098
0.0016305968
0.000147874
0.0016486155
2.3781569e-05
0.0016807528
8.4708373e-05
0.0017402185
0.00019486706
0.0018221838
0.00016704958
0.0018342854
5.7454279e-05
0.001866784
0.00012057043
0.0019423944
0.00021974618
0.002008256
0.00021633269
0.0020481765
0.00012759202
7.8390007e-05
0.0020921163
0.001107433
-3.6655423e-05
0.0011471707
0.00045521846
0.0011623686
0.00041530656
0.0011901639
-0.00023918744
0.0012232024
0.00025178912
0.0012412104
0.00023884569
0.0012498651
8.9522933e-06
0.0012674784
8.4244424e-05
0.0012807195
9.5744719e-05
0.0012964654
3.9703117e-06
0.0013171749
8.4887651e-05
0.0013340182
5.956565e-05
0.0013528629
4.4732189e-05
0.0013722018
7.593902e-05
0.001403797
6.5570696e-05
0.0014269696
6.8081249e-05
0.0014647124
6.4434523e-05
0.0014867844
3.3508896e-05
0.001529313
1.6753502e-05
0.0015713028
6.1074384e-05
0.0015995852
0.00013155213
0.0016358505
-1.0019229e-05
0.0016795488
-9.6980769e-07
0.0017113073
0.00014505508
0.0017827203
0.00014239817
0.0018048111
7.8901824e-07
0.0018559389
3.9847908e-05
0.0019215694
0.0001406838
0.0019572704
0.00016975831
0.0020068092
0.00012510955
9.2608651e-05
0.0020600063
0.0011216727
-5.4776563e-05
0.0011285306
0.00036115654
0.0011463311
0.00034042427
0.0012007542
-0.00021462484
0.0012313796
0.00016341047
0.0012488132
0.00018195928
0.0012669007
-2.7472791e-05
0.0012838535
4.39543e-05
0.0012946239
4.2225716e-05
0.001320965
-3.7242329e-05
0.001332641
6.3443206e-05
0.0013473228
3.732167e-05
0.0013743732
-1.0032953e-06
0.0013913862
4.5388324e-05
0.0014214365
4.0412822e-05
0.0014480587
1.7962301e-05
0.0014777119
3.6005856e-05
0.0014987321
-1.4575785e-05
0.001556683
-2.3668366e-05
0.0016020943
-7.1123005e-07
0.0016095929
7.2199847e-05
0.0016580778
-2.5981627e-06
0.0017221193
-2.2155177e-05
0.0017347764
8.9263129e-05
0.0017469286
0.00010482918
0.0018376286
-6.5553157e-05
0.0018662783
5.8060403e-05
0.0019259642
5.1294621e-05
0.0019466532
7.7607997e-05
0.0020033284
8.2972798e-05
7.8912166e-05
0.0020600942
0.00096332938
0.0010440837
0.001298454
0.0013605038
0.0013755978
0.0014043646
0.0014256708
0.0014319159
0.0014266517
0.0013952241
0.0014147943
0.0014560836
0.0014782675
0.0015241845
0.0015825912
0.0015962116
0.001654712
0.0016462196
0.0016705597
0.0017010369
0.0016707801
0.0017544502
0.0018301263
0.0018941969
0.0018848522
0.0018914468
0.0020380169
0.0020922195
0.0020845098
0.0021332689
0.0021837862
6.2796586e-05
0.0021725801
0.00018145319
0.0020457056
0.00027412746
0.0020194628
0.00026875109
0.0020123609
0.00023851277
0.0020314622
0.00031711534
0.0020703253
0.00047568867
0.0021279449
0.00059188973
0.0021872032
0.0006089582
0.0022385308
0.00063503555
0.002275283
0.00067854806
0.0023002154
0.00064189626
0.0023387357
0.00068136072
0.0024141238
0.00094081919
0.0025043107
0.0011617589
0.0025617365
0.0011931028
0.0025782739
0.0011765334
0.0025767706
0.0012091326
0.0025808651
0.0012088264
0.002611296
0.0012423739
0.0026854296
0.001465996
0.0027850225
0.0016078537
0.0028666076
0.0029067786
0.0015862581
1.3788369e-05
0.0020186927
2.7513604e-05
0.0019684029
6.7054376e-05
0.0019720094
9.7524787e-05
0.0020159815
0.00023053184
0.0020780135
0.00043127505
0.0021229783
0.00056589601
0.0021398041
0.0005788423
0.0021340613
0.00053823731
0.0021299794
0.00055500971
0.002150953
0.0006335251
0.0021931799
0.00068530299
0.0022526624
0.00076874867
0.0023343462
0.00094197619
0.0024185062
0.0010227618
0.0024737125
0.00098695257
0.0024978317
0.001007042
0.0025222526
0.001119316
0.0025524616
0.0012274731
0.0025955576
0.0013230199
0.0026521639
0.0014783031
0.0027143211
0.001523309
0.0027615994
0.0027914106
0.0014948088
-1.4064012e-05
0.0019636618
4.9551379e-05
0.001870324
0.00012527443
0.0018859538
0.00016513361
0.0019430631
0.00025514902
0.0020075853
0.00031205747
0.0020487056
0.00029885657
0.0020680116
0.00030893447
0.0020833471
0.00039368161
0.0021073041
0.0005483311
0.0021501538
0.00070661011
0.0021947073
0.00080634248
0.0022282718
0.00087967608
0.002261992
0.00093105539
0.0022992354
0.00090088804
0.0023286622
0.00085932773
0.0023593721
0.00091211772
0.0024092642
0.0010468011
0.0024887747
0.0011984055
0.0025831373
0.0013256263
0.0026566055
0.0014198576
0.0026869522
0.001433725
0.002693596
0.0026958781
0.0014201907
0.00015547827
0.0019598713
0.00025842737
0.0019078422
0.00032756449
0.0018622111
0.00033024704
0.0018731092
0.00027345874
0.0018789771
0.00018699039
0.0019010079
0.00016011515
0.0019368741
0.00023342534
0.001988697
0.00038695234
0.0020577298
0.00055193345
0.0021265109
0.0006671241
0.002181983
0.00074600317
0.0022135302
0.00079693805
0.0022295518
0.0007904886
0.0022417454
0.00078132847
0.0022592188
0.00086044148
0.0022915652
0.0010154385
0.0023370103
0.0011605946
0.0024004453
0.0012160995
0.0024741559
0.0012209626
0.0025415774
0.0012388189
0.0025847084
0.0012717465
0.0026232669
0.0026581186
0.0013351982
9.9874593e-06
0.0020554039
7.7297567e-05
0.0019069496
0.00012272556
0.0018075383
0.00011265589
0.001831002
0.00013550063
0.0018256277
0.00021438273
0.0018475423
0.00033657463
0.0018727186
0.00048324585
0.0019157488
0.00057707495
0.0019646158
0.00059860028
0.0020138049
0.0005851419
0.0020607845
0.00058431584
0.0021037796
0.0005849782
0.0021464927
0.00058565606
0.002198187
0.00067069008
0.0022554792
0.00086122214
0.0023077015
0.0010814067
0.002344735
0.0012285808
0.0023692945
0.0012267523
0.0023874701
0.0011562002
0.002409956
0.0011515243
0.0024471522
0.0012051857
0.0025133393
0.0025844039
0.0012946501
-0.00026877083
0.0022283323
-0.00022311276
0.0017675053
-0.00019584987
0.0016962605
-0.00010346982
0.0017334467
4.152939e-05
0.0018084069
0.0002719626
0.0018579197
0.00048685096
0.0018952189
0.00060041512
0.0019127917
0.00062260336
0.0019240192
0.00059191219
0.0019353436
0.0005707679
0.0019540966
0.00058380494
0.0019897645
0.00059518992
0.0020406409
0.00060682225
0.0021096553
0.00066873396
0.0021847131
0.00080547706
0.0022541773
0.00095185113
0.0023065126
0.0010292329
0.0023375592
0.0010307805
0.0023550251
0.0010611705
0.0023753188
0.0011704089
0.0024017618
0.0012814761
0.0024436983
0.0024921423
0.0013551264
0.00036145662
0.0017743596
0.00041551974
0.001658084
0.00037836504
0.0017155263
0.00036874286
0.001752485
0.00040371161
0.0018084978
0.00043634087
0.0018521885
0.00041999307
0.0018891163
0.00037376555
0.001912771
0.00035381018
0.0019310721
0.00041437613
0.0019437305
0.00055275001
0.0019596385
0.00069007943
0.0019808908
0.00076520311
0.0020068513
0.00078551464
0.0020436552
0.00080451294
0.0020908013
0.00083948899
0.0021409117
0.00084648126
0.0021898997
0.00081412014
0.0022363534
0.00080582507
0.0022859542
0.00089217986
0.0023403254
0.0010699945
0.0023895137
0.0012594792
0.0024313057
0.0024555766
0.0013736967
0.00084159473
0.0010642745
0.00097603651
0.001646879
0.00095527237
0.0018113633
0.0008736488
0.0018266692
0.0007422635
0.0018249268
0.00054630526
0.0018358671
0.00032825796
0.0018573827
0.00017559835
0.0018867971
0.0001602206
0.0019167024
0.00027643035
0.001949274
0.00046879588
0.001983851
0.00064093238
0.0020149527
0.00074398543
0.0020378375
0.00079991355
0.0020547764
0.00084425379
0.0020703396
0.00086484166
0.0020828904
0.00084537287
0.002099358
0.000812272
0.0021297962
0.00080284673
0.0021793293
0.00084424028
0.0022454498
0.00095545397
0.0023155739
0.0010973958
0.0023824572
0.0024242559
0.0012064815
0.00010562528
0.0011179607
0.00025821428
0.0016052374
0.00035154938
0.0017750842
0.00040235222
0.0017875782
0.00037126077
0.0017820374
0.0002731876
0.0017775932
0.00019055026
0.0017890276
0.00016525824
0.0018148559
0.00021749023
0.0018441893
0.00031706083
0.0018886722
0.00041539343
0.0019327336
0.0004862678
0.0019764833
0.00051789735
0.0020123525
0.00052953894
0.0020372417
0.0005619226
0.0020548477
0.00064164415
0.0020687129
0.00075015921
0.0020805815
0.00085039588
0.0020958909
0.0009205293
0.0021205188
0.000964844
0.0021619366
0.00099990484
0.0022155609
0.0010183569
0.0022759317
0.0023293738
0.0010255868
-0.00037051396
0.0014568573
-0.00035103441
0.0015418157
-0.00027964046
0.0016888307
-0.00018649433
0.0017229314
-7.3734856e-05
0.0017446556
3.8742734e-05
0.0017571634
0.00016370027
0.0017712239
0.00030022211
0.0017811792
0.00041243315
0.0017964589
0.00047250842
0.0018201259
0.00047304976
0.0018518202
0.00041929548
0.0018864294
0.00033320185
0.001923476
0.00025576694
0.001957947
0.00025642723
0.0019942346
0.00035960157
0.0020316877
0.00052603984
0.0020629474
0.00071197889
0.0020864771
0.00088030038
0.002103052
0.00099143794
0.0021211891
0.0010259317
0.0021464194
0.0010128033
0.0021841869
0.0022301306
0.00098704777
-0.00031827511
0.0015776932
-0.00041894254
0.0015013493
-0.00043045279
0.0016371712
-0.00035613376
0.0016871281
-0.00022432538
0.0017217394
-5.1211602e-05
0.0017439856
0.00013872019
0.0017649475
0.00030165323
0.0017804038
0.00042123351
0.0017910885
0.00048888949
0.0017992134
0.00048445675
0.0018072323
0.00041215601
0.0018222721
0.00031278819
0.0018452902
0.00024244168
0.0018788483
0.00023893205
0.0019223621
0.00028779422
0.0019685338
0.00037892773
0.0020113789
0.000505397
0.0020476994
0.00064957159
0.0020737745
0.00078035811
0.0020942528
0.00087609985
0.0021129584
0.00093387539
0.0021370344
0.0021670634
0.00096888121
-0.00014635667
0.0016225956
-0.0002117634
0.0014932652
-0.00020780671
0.0016047485
-0.00017432981
0.0016513768
-0.00010760918
0.0016895034
-2.8976554e-05
0.0017123935
4.7147464e-05
0.0017413991
0.00010753193
0.0017643086
0.00016167377
0.0017813953
0.00021320687
0.0017900711
0.00026087654
0.0017948511
0.00031028611
0.0018015524
0.00035064957
0.0018109638
0.00038670208
0.0018314783
0.00039750665
0.0018627364
0.00038756642
0.001902482
0.00038113591
0.0019458353
0.00039736275
0.001988776
0.00043882761
0.0020253457
0.000499199
0.0020541124
0.00058606143
0.0020778427
0.00069894603
0.0021018467
0.0021282769
0.00083018405
-3.5861987e-05
0.0017533672
-1.2838396e-05
0.0015482889
3.2349487e-05
0.001600772
5.5993632e-05
0.0016213508
3.7431844e-05
0.0016441228
-6.4005768e-06
0.001662876
-6.8491373e-05
0.0016869823
-0.00013109716
0.0017124932
-0.00016130512
0.0017361935
-0.00014446576
0.0017587243
-5.5125979e-05
0.0017741191
8.1601894e-05
0.0017877472
0.00026034121
0.0017939703
0.00042465216
0.0018066308
0.00051248445
0.0018244169
0.00052629322
0.0018544312
0.00047858202
0.0018912947
0.00040640338
0.0019291636
0.00033314954
0.0019663517
0.00028949485
0.0020001284
0.00031820743
0.0020317531
0.0004261413
0.0020640295
0.0020945333
0.00057475511
-0.00012501579
0.0020258155
-8.2166536e-05
0.001643282
7.4604588e-06
0.0016047108
7.0124012e-05
0.0015891127
5.2389757e-05
0.0015960163
-2.8895691e-05
0.0016074876
-0.0001505304
0.0016247655
-0.00027250202
0.0016502862
-0.00035622834
0.0016759138
-0.00037540993
0.001709792
-0.0002955178
0.0017376299
-0.00012774169
0.0017632364
9.0707096e-05
0.0017771861
0.00029457023
0.0017896967
0.00045461719
0.0018052052
0.00053674045
0.0018268112
0.00051823051
0.0018531548
0.0004277329
0.0018824643
0.00031036446
0.001913301
0.00022453231
0.0019471505
0.00020340728
0.001983878
0.00024466837
0.0020222593
0.0020594394
0.0003380901
-3.3614856e-05
0.0021913813
-7.6869729e-05
0.00179076
-6.1641413e-05
0.001650233
-2.6281814e-05
0.001586719
-2.9460757e-05
0.0015691901
-7.2807235e-05
0.0015659446
-0.0001398081
0.0015754105
-0.00022731896
0.0016011418
-0.00030115335
0.0016242213
-0.00033617913
0.0016607267
-0.00031593886
0.0016909276
-0.00022513091
0.0017246876
-7.4612752e-05
0.0017493206
9.7687529e-05
0.00177084
0.00025586917
0.0017900174
0.00036432827
0.0018108927
0.0004013927
0.0018326264
0.00037220205
0.0018569012
0.00030273977
0.00188233
0.00024370878
0.0019115136
0.00020056447
0.0019449045
0.00019167046
0.0019835687
0.0020255957
0.0002071213
0.00030673019
0.0019051347
0.00016964438
0.0019429539
5.088768e-05
0.001802893
-1.5573108e-05
0.0016903595
-2.6631563e-05
0.0016274317
-1.1776718e-05
0.0015890812
-2.3813184e-05
0.0015789727
-6.1839959e-05
0.0015914134
-0.00010524734
0.0016067929
-0.00014789888
0.0016348641
-0.00016541339
0.0016626374
-0.00015369807
0.0016934494
-0.00011636803
0.0017207452
-5.6563862e-05
0.0017464162
1.8832044e-05
0.0017694191
9.9748181e-05
0.0017925557
0.00016938238
0.0018171302
0.00021438784
0.0018418721
0.00023444813
0.0018652921
0.00022818513
0.0018916581
0.00021485904
0.0019217088
0.00018365337
0.0019600752
0.0019990279
0.00014932195
0.00018152789
0.0016424561
0.00012025027
0.0019551721
-3.2423939e-06
0.0018982842