/*--------------------------------*- C++ -*----------------------------------*\
| =========                 |                                                 |
| \\      /  F ield         | OpenFOAM: The Open Source CFD Toolbox           |
|  \\    /   O peration     | Version:  2406                                  |
|   \\  /    A nd           | Website:  www.openfoam.com                      |
|    \\/     M anipulation  |                                                 |
\*---------------------------------------------------------------------------*/
FoamFile
{
    version     2.0;
    format      ascii;
    arch        "LSB;label=32;scalar=64";
    class       volVectorField;
    location    "30";
    object      U;
}
// * * * * * * * * * * * * * * * * * * * * * * * * * * * * * * * * * * * * * //

dimensions      [0 1 -1 0 0 0 0];

internalField   nonuniform List<vector> 
20580
(
(0.10332315 0.00017158642 -2.4180626e-22)
(0.10223088 -0.00039778272 1.3392563e-19)
(0.10713871 -0.001347879 6.4099248e-22)
(0.1052126 -0.0017185654 1.0323962e-20)
(0.10307769 -9.6106229e-05 -1.2698709e-23)
(0.10217298 -0.00086808745 1.7083335e-20)
(0.10012397 -7.3984325e-05 6.8248858e-20)
(0.099694613 -0.00039728641 -1.0897772e-20)
(0.098603192 -0.00096681033 -3.3372885e-21)
(0.09785117 -0.00035757122 0)
(0.097174701 -0.0006683533 3.4301267e-21)
(0.097283306 -0.0012493032 -3.2806379e-20)
(0.097271912 -0.0010079679 -2.6427132e-21)
(0.097836372 -0.0015418489 -3.9586359e-21)
(0.098419272 -0.0033312801 -8.5000069e-22)
(0.09882566 -0.0040744691 2.7272603e-21)
(0.099351864 -0.0042756001 3.5063488e-21)
(0.10077976 -0.0080017531 -2.8834811e-21)
(0.1009418 -0.0081116672 -2.5026834e-20)
(0.10110979 -0.0086165153 -7.0109775e-21)
(0.10322104 -0.013766436 2.4024745e-22)
(0.10423838 -0.015757388 6.9131266e-21)
(0.10448856 -0.016412507 1.5487002e-21)
(0.10586295 -0.020855984 3.1925536e-20)
(0.10927548 -0.025146931 -1.6857174e-20)
(0.11028535 -0.029295677 1.0834978e-20)
(0.11150583 -0.032024673 4.217676e-20)
(0.11490162 -0.034565499 4.6050635e-21)
(0.11661926 -0.039369642 2.7673729e-21)
(0.11852253 -0.044257057 1.1165261e-20)
(0.12588412 -0.050298732 1.4782977e-20)
(0.10210133 0.00013369289 0)
(0.10248241 -0.00084699685 -9.8281077e-20)
(0.1066362 -8.5894493e-05 6.1777442e-20)
(0.10496993 -0.0005874476 1.0247341e-20)
(0.10319512 -0.0001444964 1.4844975e-20)
(0.10174208 -0.00015927734 7.6680803e-23)
(0.10053705 -0.0010109662 9.9837442e-20)
(0.099564535 -0.00035787768 -1.7867051e-20)
(0.098495441 -0.00072379906 7.1502577e-21)
(0.097632609 -0.00010247351 -4.1624897e-21)
(0.097490169 -0.0010107315 4.7765457e-21)
(0.09737627 -0.0014358781 1.3716118e-20)
(0.097390449 -0.0013998007 -6.7238178e-21)
(0.097816626 -0.0013804654 5.4309859e-22)
(0.098455748 -0.0028081432 2.6467791e-21)
(0.098855554 -0.0036357037 4.4987757e-22)
(0.099810938 -0.0041320867 -1.90054e-20)
(0.10122092 -0.0073626057 -2.4003275e-20)
(0.10103841 -0.0072705295 0)
(0.10234912 -0.0087704944 -3.1727468e-20)
(0.1045419 -0.013324909 0)
(0.10465857 -0.014563862 2.4566509e-20)
(0.10562052 -0.015576713 1.4590107e-20)
(0.10720413 -0.019797274 -4.7711758e-22)
(0.1100367 -0.022740358 1.3169054e-20)
(0.11106499 -0.02601807 1.433048e-20)
(0.11189326 -0.029707463 1.4051903e-20)
(0.11577651 -0.031629372 2.8123522e-20)
(0.11816845 -0.036117918 1.1015425e-20)
(0.11928139 -0.041168508 3.781663e-21)
(0.12453775 -0.046300382 -4.5338461e-20)
(0.10115794 0.00058682927 0)
(0.1019251 -0.0012143349 0)
(0.10651466 0.00090644809 -1.674585e-19)
(0.10500594 0.00068121542 4.4910455e-20)
(0.10340798 -0.00034088516 5.9402234e-21)
(0.10202909 0.00045008207 2.3295872e-22)
(0.10077835 -0.0016479157 -3.7074253e-20)
(0.099671105 -0.00043928394 -6.0586218e-20)
(0.09856163 -0.00028568161 0)
(0.097649697 -0.00027922228 1.5510393e-20)
(0.097572759 -0.0009819599 -1.5051898e-20)
(0.097397871 -0.0012668596 -3.5517352e-20)
(0.09729196 -0.0017002287 0)
(0.097850727 -0.0017939289 -1.1345805e-21)
(0.098549052 -0.0024203301 -7.6701228e-22)
(0.098872965 -0.0032138683 2.7288281e-21)
(0.10010451 -0.0042548801 -3.0473976e-21)
(0.1014617 -0.0065285109 8.2931907e-22)
(0.10118945 -0.0066460865 -2.1778083e-20)
(0.10324225 -0.009097689 0)
(0.10538638 -0.012089997 0)
(0.10510107 -0.012775085 -2.3816263e-20)
(0.10664198 -0.014452637 -1.1141225e-20)
(0.10822764 -0.018209311 -7.1462068e-21)
(0.11068136 -0.020550746 -3.4842505e-21)
(0.11240711 -0.022755795 -3.8305298e-21)
(0.11261238 -0.027207916 1.8516686e-20)
(0.11650432 -0.029489426 7.2323521e-21)
(0.12035073 -0.03260473 -1.4255386e-20)
(0.12129093 -0.038470735 -2.6657373e-20)
(0.12330207 -0.04476852 7.1887302e-21)
(0.10006554 0.00089866573 0)
(0.1007873 -0.0013801215 4.5723646e-23)
(0.10599393 0.00077704116 -1.8367394e-21)
(0.10475407 0.0014178607 1.1379727e-22)
(0.10337607 -0.00070241625 -1.7447561e-20)
(0.10221556 0.00056043292 -5.979097e-20)
(0.10096312 -0.0015292609 1.0911793e-20)
(0.099746918 -0.00054508856 0)
(0.098641681 0.0001047482 -1.4322157e-24)
(0.097865947 -0.00082697407 -9.0015328e-21)
(0.097590528 -0.00065553248 -4.4689383e-20)
(0.097388302 -0.00079142156 -3.8993549e-21)
(0.097327628 -0.00161917 4.8130193e-22)
(0.097847678 -0.0023516551 2.3048941e-21)
(0.098573138 -0.0022307732 9.5868526e-21)
(0.09897356 -0.0029711621 1.5553938e-21)
(0.10035975 -0.0045716567 3.0082989e-21)
(0.10145922 -0.0058584709 2.5149749e-23)
(0.10143188 -0.0060855129 -2.08688e-22)
(0.10373099 -0.0095339786 -4.9711458e-21)
(0.10557653 -0.010683863 -1.5208061e-21)
(0.10545819 -0.01112644 -1.5739038e-20)
(0.10759778 -0.013756451 -2.3571923e-21)
(0.10918302 -0.016824698 -8.4653428e-21)
(0.11118041 -0.019309431 0)
(0.11369955 -0.020520516 -1.3852679e-21)
(0.11394355 -0.02453866 -1.9588337e-20)
(0.11672092 -0.028048054 -6.749984e-22)
(0.12190954 -0.029899926 7.1105905e-21)
(0.12475788 -0.034508588 -3.9247735e-20)
(0.12502876 -0.042013484 -4.4026261e-20)
(0.099206907 0.0011268989 0)
(0.099630012 -0.0011312673 -2.0176936e-19)
(0.10522091 -0.000395383 -3.1600483e-20)
(0.10449184 0.0012168177 -8.156923e-21)
(0.10327349 -0.0010557371 -3.4240562e-22)
(0.10221347 7.5048915e-05 -7.0796271e-20)
(0.10101597 -0.00072370452 0)
(0.099695073 -0.00058076631 2.988921e-20)
(0.098743231 0.00018747147 -1.9761078e-21)
(0.098104046 -0.0012496166 -2.9723115e-21)
(0.097649887 -0.00038747133 -1.0909201e-20)
(0.097515767 -0.00037692669 -7.3487416e-23)
(0.097541659 -0.0011343179 -5.2743635e-21)
(0.097892572 -0.0023832971 -5.845598e-21)
(0.098556636 -0.0021488487 -3.3899582e-22)
(0.099216401 -0.0029157119 6.9940337e-21)
(0.10055229 -0.0049281943 6.7728371e-21)
(0.1014514 -0.0054071531 -4.8133264e-20)
(0.10185127 -0.0056329858 -3.4056745e-20)
(0.10404917 -0.0095694718 0)
(0.10541521 -0.0094296002 -1.6244577e-21)
(0.10590106 -0.010454329 1.2476488e-21)
(0.10832802 -0.013597088 4.6457934e-21)
(0.11007489 -0.016190739 4.7616612e-22)
(0.11158559 -0.018630252 0)
(0.11446134 -0.019488907 -1.3691932e-20)
(0.11564739 -0.022225693 -1.6734656e-20)
(0.11709574 -0.02691841 1.5346407e-20)
(0.12195745 -0.029196702 3.7311848e-20)
(0.12700892 -0.030740061 1.0377166e-20)
(0.12787552 -0.036758524 2.3520608e-20)
(0.098977331 0.001155595 2.0190058e-19)
(0.099038322 -0.00031999297 -1.2076001e-21)
(0.10454269 -0.0017793395 3.4038409e-23)
(0.1041477 -4.8202405e-05 -1.9960858e-21)
(0.10294541 -0.0011239744 5.6921231e-20)
(0.10179612 -0.00073623936 5.5723899e-23)
(0.10065 0.0001740536 -1.773044e-20)
(0.099520845 -0.00052976648 2.0833452e-23)
(0.098920883 -0.00015372039 -4.3290892e-21)
(0.098198247 -0.0010832354 -3.258168e-20)
(0.097771089 -0.00048940358 1.0541601e-20)
(0.097795619 -0.00049243305 -1.0267003e-21)
(0.097827076 -0.00068551641 1.2991672e-21)
(0.098033332 -0.0016854529 -5.3756525e-21)
(0.098660276 -0.0021132446 -6.873151e-21)
(0.099505189 -0.0027995881 -9.7801968e-22)
(0.10073834 -0.0048034271 -1.9747472e-20)
(0.10138842 -0.004941509 -4.6163964e-20)
(0.1022979 -0.0053846026 -2.0910306e-21)
(0.10421248 -0.0089897543 0)
(0.10527217 -0.008534285 -1.1033945e-21)
(0.10647358 -0.010361296 -5.4956002e-20)
(0.10898908 -0.013225011 -1.7531721e-20)
(0.11079374 -0.015758251 0)
(0.11177899 -0.018093939 -1.5332943e-20)
(0.11462595 -0.01868718 3.4395832e-20)
(0.11721582 -0.020552329 9.4177569e-21)
(0.1184277 -0.02528416 7.6536521e-20)
(0.12162965 -0.029264131 -1.1394028e-20)
(0.12706077 -0.028795184 -6.0562625e-21)
(0.12953095 -0.031799812 6.6848786e-21)
(0.099805802 0.0011422809 -7.1117728e-21)
(0.099613443 0.00091372289 -9.3634169e-20)
(0.10407476 -0.0025237188 2.6174825e-22)
(0.10337671 -0.0017575285 9.433875e-21)
(0.10195563 -0.00093645513 1.349295e-20)
(0.10085124 -0.0013958801 -8.5010969e-20)
(0.09997946 0.00056784653 -1.2163345e-21)
(0.099177385 -0.00048398622 -1.2955501e-23)
(0.098745236 -0.00083298444 -7.3011438e-23)
(0.098027238 -0.0003661137 1.2672096e-20)
(0.09769347 -0.000819171 5.1143309e-22)
(0.097780931 -0.0010152345 8.6915203e-22)
(0.09791484 -0.00062691491 -6.5212306e-21)
(0.098212494 -0.00093893116 5.9522249e-23)
(0.098873453 -0.0020954491 7.6222768e-21)
(0.099832295 -0.0025516901 -2.7694617e-21)
(0.10102408 -0.0041931037 3.8380276e-22)
(0.10148199 -0.0041008368 4.0284239e-20)
(0.10282739 -0.0051214869 0)
(0.10445006 -0.0079048436 6.8040901e-21)
(0.10537525 -0.0080215733 -1.7278935e-22)
(0.10697113 -0.010015986 -2.6994473e-20)
(0.10952987 -0.012277738 3.5353289e-21)
(0.11148969 -0.014459194 -4.2332743e-21)
(0.11192189 -0.017188606 2.2954984e-21)
(0.11441423 -0.01764156 -3.3305663e-21)
(0.11815882 -0.019473459 1.2523768e-20)
(0.12030971 -0.023448884 4.1611314e-23)
(0.12191526 -0.028147743 -1.0075951e-21)
(0.12599993 -0.027397657 5.0592247e-20)
(0.13019742 -0.028095797 2.07647e-21)
(0.10379241 0.0015182024 1.4473525e-18)
(0.099685263 0.0020340698 0)
(0.10338787 -0.0022275615 1.663668e-19)
(0.10210311 -0.0030696735 -1.8281835e-20)
(0.10058175 -0.00046177066 4.5480031e-20)
(0.099535622 -0.0014377293 -1.2278425e-22)
(0.09894257 0.00032847396 -2.336583e-20)
(0.098528483 -0.00045260997 6.4388703e-23)
(0.098010483 -0.0013037083 -3.3357293e-21)
(0.097553509 0.00035310906 6.0111791e-21)
(0.097492658 -0.0010278372 -1.3091088e-20)
(0.097496668 -0.0013728297 7.0476399e-22)
(0.097714393 -0.0009423192 -2.4192448e-21)
(0.098267939 -0.00084759769 2.5127845e-20)
(0.099032744 -0.0021349844 -5.4763886e-21)
(0.10003894 -0.0023823935 -1.1412174e-20)
(0.10112737 -0.0036525511 6.9010733e-21)
(0.10162079 -0.0034786017 1.1605429e-20)
(0.10333391 -0.0049237972 -2.515153e-22)
(0.1048297 -0.0067906123 -1.1634964e-22)
(0.10572258 -0.0076808621 1.0624083e-21)
(0.10737445 -0.0094140197 -8.4828744e-23)
(0.10985539 -0.011206432 0)
(0.11210897 -0.012188066 -1.5518245e-21)
(0.11231435 -0.015317894 -1.8141665e-20)
(0.11422747 -0.016689149 -3.7018365e-20)
(0.11874494 -0.018562102 -1.272438e-21)
(0.12186785 -0.02127327 -3.3139508e-20)
(0.12230568 -0.025233088 2.2058041e-21)
(0.1243888 -0.025449157 -7.7660109e-20)
(0.12955517 -0.025149576 -2.6660827e-20)
(0.10802462 0.0016671562 -5.8855007e-19)
(0.099771079 0.002418891 3.8883771e-23)
(0.10316277 -0.0011877981 -4.8949489e-20)
(0.10142415 -0.0034381377 -2.2889548e-20)
(0.099809059 0.0001862959 9.6502487e-22)
(0.098735235 -0.00082824472 -1.9619857e-22)
(0.098037217 -0.00037546834 6.6171684e-20)
(0.097646011 -0.00035205345 1.2087708e-25)
(0.097024956 -0.0010799025 -1.7966006e-20)
(0.096772841 0.00042533681 9.4058946e-21)
(0.097021621 -0.00096513555 -8.7028831e-21)
(0.096990767 -0.0011886402 0)
(0.097247264 -0.0012635092 -9.6581924e-22)
(0.098057504 -0.0013859047 1.5358594e-21)
(0.098891025 -0.0021942902 8.5374312e-21)
(0.099932323 -0.0023709992 1.3264908e-20)
(0.10105033 -0.0034071851 -7.8012541e-22)
(0.10160371 -0.0035183958 -1.7048082e-20)
(0.10361112 -0.0052038346 -5.9909483e-21)
(0.10513567 -0.0061269612 -1.4508897e-21)
(0.1061199 -0.0074742079 4.9663884e-21)
(0.10782817 -0.0089894938 2.1970367e-22)
(0.10995658 -0.010754031 5.1423509e-21)
(0.11264483 -0.010371118 1.4351837e-22)
(0.11327106 -0.013092663 -3.2769324e-21)
(0.11436828 -0.015956216 1.5546215e-21)
(0.11873374 -0.01765682 -1.7518727e-20)
(0.12267731 -0.018750067 1.5711518e-21)
(0.12310399 -0.021565234 -3.3143904e-20)
(0.12334426 -0.023467374 2.8224631e-20)
(0.12742709 -0.024625499 -1.5227392e-20)
(0.10958929 0.0016677233 -1.4615601e-18)
(0.099923901 0.001809965 -9.2300438e-23)
(0.10330632 -0.00022326734 3.9462717e-19)
(0.1013182 -0.0026979419 1.5851962e-20)
(0.099623153 0.00053021655 -9.9632849e-22)
(0.098672538 4.3357824e-05 0)
(0.097721134 -0.0010092259 2.0230847e-20)
(0.097116289 -0.00012348747 -9.172717e-20)
(0.096249103 -0.00017766902 2.5773078e-20)
(0.096003096 -0.0001646976 9.8045351e-21)
(0.096267518 -0.00062019895 -4.2570736e-23)
(0.096160353 -0.00055115209 -3.7140421e-22)
(0.096531941 -0.0011593415 0)
(0.097489527 -0.0017285227 1.2127277e-20)
(0.09835093 -0.0018612505 -1.0208752e-20)
(0.099633236 -0.0023793329 -1.7525837e-21)
(0.10082174 -0.0031229965 -1.8492731e-20)
(0.10158248 -0.0035488226 1.0972126e-21)
(0.10354556 -0.0056468503 -9.3626743e-21)
(0.10507983 -0.0055915776 1.3667403e-20)
(0.10626871 -0.006836162 1.1176212e-21)
(0.10818659 -0.0082928062 2.0556993e-20)
(0.10988632 -0.010868575 -1.9100902e-20)
(0.11282477 -0.010035711 -4.839551e-20)
(0.114503 -0.010880349 -5.3084734e-20)
(0.11510677 -0.014941566 1.7776408e-22)
(0.11822337 -0.016633939 -4.0699671e-22)
(0.12250553 -0.016271179 1.1020392e-20)
(0.12433826 -0.01729915 -1.9002949e-20)
(0.12419043 -0.020447099 -3.8226366e-20)
(0.12581821 -0.024873244 2.1148729e-20)
(0.11006429 0.0015619604 3.4478185e-20)
(0.10007617 0.00055097363 -5.2996613e-22)
(0.10356401 1.2724349e-05 1.3363556e-19)
(0.10141 -0.00086767929 6.8005259e-22)
(0.099612993 0.00023569158 2.7602309e-22)
(0.098893204 0.0006706074 1.5996331e-19)
(0.097966425 -0.0010826425 -1.1137999e-20)
(0.097147422 2.5221729e-05 -2.6726561e-23)
(0.096138212 0.00071254288 1.0230682e-20)
(0.095803335 -0.00093810345 5.6077871e-22)
(0.095759854 -0.00020545176 -4.4797798e-21)
(0.095692375 3.973895e-05 1.2428626e-20)
(0.09612709 -0.0007634895 0)
(0.096906249 -0.001449635 1.3065739e-21)
(0.097764638 -0.0012833096 -1.3565443e-20)
(0.099125148 -0.0022358707 -9.5476227e-23)
(0.1003467 -0.002386442 -6.2424584e-22)
(0.10140259 -0.0030431924 1.6244897e-22)
(0.10317311 -0.0055745674 2.942853e-21)
(0.10461329 -0.0052454838 -1.0895334e-22)
(0.10605981 -0.0058955525 1.8266904e-20)
(0.10845103 -0.0072919212 2.9692008e-20)
(0.10981048 -0.010450772 -6.1969098e-22)
(0.11215682 -0.010541775 -1.2175897e-20)
(0.11516522 -0.0089370683 9.8599202e-23)
(0.11635219 -0.013115743 -4.639816e-21)
(0.1177673 -0.015417663 2.0458921e-20)
(0.12141848 -0.014810962 -6.1201368e-20)
(0.12483251 -0.01374498 -6.3152571e-22)
(0.1266519 -0.016368581 6.2551252e-20)
(0.12745522 -0.022734902 9.7085371e-21)
(0.11134539 0.0018691146 -9.7194441e-19)
(0.10078133 -0.0010503027 0)
(0.10406916 -0.00072879555 -3.9038919e-20)
(0.10177842 0.0011017364 2.75756e-21)
(0.10023115 -0.00051948486 9.9097471e-20)
(0.099618922 0.00058038934 3.1256834e-20)
(0.09847514 -0.00067086691 -2.4960574e-22)
(0.097387365 5.2982903e-05 1.488153e-23)
(0.096506707 0.00093849196 1.8944285e-20)
(0.096068706 -0.001206569 9.4999264e-21)
(0.095776061 6.0227526e-05 3.8552276e-21)
(0.095821004 4.0454625e-05 -3.5634318e-23)
(0.096171777 -0.00060841549 2.1444173e-20)
(0.096672405 -0.00096482315 0)
(0.097448062 -0.00091926384 2.2907673e-21)
(0.098701295 -0.0019176925 -8.4096059e-21)
(0.09983516 -0.0015960986 9.31643e-21)
(0.10125026 -0.0021732137 6.1762917e-20)
(0.1028614 -0.0047533773 -2.1543644e-22)
(0.10400031 -0.0049211559 7.3060501e-21)
(0.1055169 -0.0049917673 3.3441636e-20)
(0.10838273 -0.0061944056 -4.5714813e-22)
(0.10985815 -0.0085512449 -3.5318097e-20)
(0.11085587 -0.010347251 2.835153e-20)
(0.114701 -0.0080061692 -4.551084e-20)
(0.11741419 -0.010381751 -2.9911712e-20)
(0.11787213 -0.013760616 1.2130552e-20)
(0.12002288 -0.014656157 -2.7233373e-22)
(0.12396558 -0.012945404 -9.6648005e-20)
(0.12845503 -0.013574881 -1.8246033e-20)
(0.13067875 -0.018643967 4.0929981e-20)
(0.11404708 0.0017749964 5.8482644e-19)
(0.10267734 -0.0022367218 -2.0835048e-19)
(0.10537605 -0.0018160475 1.5143593e-21)
(0.10318118 0.0021457075 -6.3012678e-23)
(0.10180935 -0.0012374378 -2.2572681e-22)
(0.10101401 -0.00022289377 1.2506796e-21)
(0.099669786 -7.4365214e-05 9.2535912e-20)
(0.09826938 -4.6597561e-05 1.3873742e-23)
(0.097560346 0.00021718084 -1.7823979e-22)
(0.09683171 -0.00079866171 -6.6965716e-21)
(0.096294731 -2.4891712e-06 -2.3709028e-22)
(0.096352031 -0.0005128325 1.5151028e-20)
(0.096457695 -0.0009324981 -7.9686842e-23)
(0.096782113 -0.00078670517 1.4101564e-21)
(0.097574519 -0.00096683672 0)
(0.098659399 -0.0018754526 0)
(0.099597431 -0.0014899763 -3.7891911e-20)
(0.10134913 -0.0018963735 1.6705791e-21)
(0.10292285 -0.0037463574 -3.8133843e-21)
(0.10374735 -0.0042006748 1.2486053e-21)
(0.10509903 -0.0045604531 1.9543556e-20)
(0.10808333 -0.0057586181 1.3484365e-20)
(0.1100283 -0.0063534847 0)
(0.11000721 -0.0089445861 0)
(0.11348424 -0.0086665812 0)
(0.11767882 -0.0084800392 7.0275184e-21)
(0.11884914 -0.011839272 5.8668107e-22)
(0.11917473 -0.014173618 -2.8029084e-22)
(0.12231743 -0.013797248 8.3884775e-21)
(0.12814354 -0.013412197 -8.6543966e-21)
(0.13234048 -0.015372403 3.3499491e-22)
(0.11586669 0.0015720588 2.5441009e-19)
(0.1055854 -0.0027437284 -2.7231126e-21)
(0.10779147 -0.0026424708 -2.2771689e-21)
(0.10591413 0.0016453736 -4.6090154e-20)
(0.1045936 -0.0015153444 0)
(0.10333716 -0.00097384946 7.48002e-23)
(0.10178545 0.00065321877 2.1970172e-21)
(0.10036488 -0.00010363389 -7.3745003e-20)
(0.099308064 -0.0006516873 -3.4664557e-23)
(0.098197471 0.0001204759 -5.9475556e-21)
(0.097492868 -0.00024393026 8.2631124e-21)
(0.097350412 -0.00089679924 0)
(0.097206702 -0.001027652 -2.9690446e-21)
(0.097369803 -0.00065487833 -1.1817148e-20)
(0.098206556 -0.0011593927 -3.1471396e-20)
(0.099047843 -0.0018853452 8.9776206e-22)
(0.099742045 -0.001860913 -4.6251495e-20)
(0.10156903 -0.0022095365 -2.6861182e-21)
(0.103146 -0.0030975149 2.8717347e-20)
(0.1038578 -0.0030884228 1.3155261e-21)
(0.10519668 -0.0044147563 4.3223442e-22)
(0.1078586 -0.0058509404 -2.0660068e-20)
(0.11020653 -0.0052188365 4.8883925e-21)
(0.11030733 -0.0070864063 0)
(0.11249701 -0.0098716206 4.6800853e-21)
(0.11710008 -0.0087397629 -2.2720385e-20)
(0.11969215 -0.010062851 -2.500784e-20)
(0.11937891 -0.01229706 1.9831048e-20)
(0.12105573 -0.014193704 2.473096e-20)
(0.12647842 -0.014532238 2.6155275e-20)
(0.13182247 -0.014372907 1.970621e-20)
(0.11406946 0.00064856123 -2.4651252e-19)
(0.10780516 -0.0018460648 3.8275937e-20)
(0.110119 -0.0024697219 1.6706424e-21)
(0.10879555 -4.1204562e-07 1.6534675e-20)
(0.10752643 -0.0011454964 -8.1316774e-20)
(0.10569714 -0.0012978494 -1.8995016e-22)
(0.10417717 0.00080056172 5.6344977e-20)
(0.10283545 -0.00019473902 2.6753908e-20)
(0.10116341 -0.0011639848 3.3597547e-22)
(0.09982258 0.00078357987 -2.1861417e-23)
(0.099171348 -0.00049062483 -7.6349341e-21)
(0.098789964 -0.00081155413 6.9380362e-22)
(0.098389724 -0.00056054422 6.2487088e-22)
(0.098504242 -0.00064549341 -9.9196194e-23)
(0.099303995 -0.0013573842 -2.6508097e-20)
(0.09991553 -0.0015222148 7.6208454e-23)
(0.10038591 -0.0020006589 2.6455297e-21)
(0.10206028 -0.0027708588 -2.3398924e-21)
(0.10344331 -0.0028922313 -5.8072444e-22)
(0.10434517 -0.0022824618 0)
(0.10597516 -0.0042747379 3.9428113e-20)
(0.1079976 -0.0056384653 2.3992202e-21)
(0.11032525 -0.0046210497 -1.5348697e-22)
(0.11148802 -0.0052644828 2.0411835e-21)
(0.1126255 -0.0095635639 2.7876899e-20)
(0.11618019 -0.0095944731 6.5482517e-20)
(0.11972835 -0.008769083 -8.3231178e-21)
(0.1203572 -0.009576827 5.2538551e-22)
(0.1211425 -0.012916421 7.679158e-22)
(0.12485183 -0.014932626 -1.1877e-20)
(0.1297507 -0.013709413 4.1239177e-21)
(0.11171426 0.0007981238 3.4422667e-19)
(0.10878152 -0.00054500157 -3.0628543e-22)
(0.11133154 -0.0017127934 3.6577778e-20)
(0.11020466 -0.0022149209 -5.6096771e-22)
(0.10894343 -0.00013268975 7.1144439e-22)
(0.10729581 -0.000793834 1.1798704e-20)
(0.10577999 0.00046051145 0)
(0.10428699 -4.9029366e-06 3.4842063e-23)
(0.10236769 -0.00058552181 -4.3828991e-23)
(0.10110851 0.000939556 2.6323217e-20)
(0.10060791 -0.00050007705 -3.820977e-23)
(0.10002686 -0.00038980817 -4.2621564e-22)
(0.099506234 0.0001702962 -2.3266257e-20)
(0.099586204 -0.0006854387 -1.9826061e-20)
(0.10020492 -0.0012420806 3.6485594e-21)
(0.10078459 -0.00059805661 -1.1869098e-21)
(0.10133444 -0.0011713446 4.4800928e-22)
(0.10271987 -0.0026444767 -8.0387664e-23)
(0.10371652 -0.0022939803 0)
(0.10490999 -0.0018464107 4.8959321e-21)
(0.10692041 -0.0037784616 4.6450636e-20)
(0.10834582 -0.0050550604 1.6172393e-20)
(0.11035584 -0.0040445298 -1.4458823e-20)
(0.11276035 -0.0037295274 2.5931215e-23)
(0.11379165 -0.0074194599 3.5695905e-20)
(0.11570676 -0.0091857115 -5.8916498e-21)
(0.11905173 -0.0073213127 7.9521664e-21)
(0.12126167 -0.0064292271 -1.1871624e-20)
(0.12253392 -0.0099997636 3.4646475e-20)
(0.12415794 -0.013271706 9.3460634e-21)
(0.12724677 -0.012578683 -1.7497774e-21)
(0.10814134 0.00057468857 5.1551974e-19)
(0.10851615 0.0015494621 7.7471982e-23)
(0.11176116 -0.00044878863 -4.9655516e-21)
(0.11031621 -0.0038116054 5.8453216e-20)
(0.10907921 0.00090748105 -1.7686139e-21)
(0.10754766 0.00022647859 -3.7302421e-20)
(0.10602772 -0.00019564213 0)
(0.10482707 0.00010661814 0)
(0.10300752 0.00028936537 -2.1078803e-20)
(0.10195529 0.00040858553 0)
(0.10144835 -0.00027185352 -2.3327971e-20)
(0.1006231 -0.00031049519 6.3218552e-21)
(0.10031808 0.00026701375 0)
(0.10051307 -0.00076073071 -3.44817e-20)
(0.10081375 -0.0010434191 -1.0827958e-20)
(0.10143107 -9.8456274e-05 2.1207391e-20)
(0.10228621 -0.0005355983 9.6498417e-22)
(0.10344663 -0.0021226291 -6.3405427e-22)
(0.10405006 -0.0014610319 8.2378097e-21)
(0.10550306 -0.0015776771 1.5809435e-20)
(0.10768844 -0.0029891806 -3.5818851e-20)
(0.10859131 -0.0047121541 1.7116638e-22)
(0.11020607 -0.0036984004 2.8636039e-20)
(0.11337446 -0.0030356393 -6.6731257e-21)
(0.115156 -0.0048054699 -1.0083251e-21)
(0.11577255 -0.0073073368 1.1835731e-20)
(0.11805328 -0.005502513 1.439168e-20)
(0.12153891 -0.0039895405 4.0644961e-21)
(0.12453011 -0.0068584159 -5.7457584e-20)
(0.12497598 -0.010221348 -6.1512339e-20)
(0.12577352 -0.011141318 2.8530537e-20)
(0.10689075 0.0011607979 -5.0867739e-19)
(0.10746337 0.0020234492 3.1477947e-24)
(0.1116303 -6.4586036e-05 5.4935325e-19)
(0.10987892 -0.0037198742 -8.8091986e-20)
(0.10853165 0.0014893961 2.1332034e-19)
(0.10734953 0.0012693836 -4.8849675e-22)
(0.10586695 -0.00048884502 1.0099202e-22)
(0.10467973 0.00032063775 -4.9591978e-20)
(0.10296465 0.0012739315 -5.8902117e-20)
(0.10213761 -0.00018673578 9.961094e-21)
(0.1017241 7.768821e-05 1.1719528e-20)
(0.10094075 -0.00019017471 5.6685014e-22)
(0.1006963 -5.3644103e-05 -4.4411134e-20)
(0.10095473 -0.00074999113 3.6090833e-21)
(0.10107852 -0.00074772498 -8.6321156e-21)
(0.10173253 -0.00036843625 4.2597858e-20)
(0.10288379 -0.00039185126 6.3615125e-21)
(0.10393516 -0.0011755774 -1.9469608e-21)
(0.10445733 -0.00043709735 8.2770795e-22)
(0.1059661 -0.0013592317 3.941786e-22)
(0.10830564 -0.0022118239 -1.2065605e-20)
(0.10888915 -0.0042292951 2.8236292e-21)
(0.10980433 -0.003707677 6.2847309e-20)
(0.11317356 -0.0032709012 1.7173917e-22)
(0.1159868 -0.0029619524 3.2768417e-21)
(0.1161764 -0.0051460388 1.5475551e-21)
(0.11717988 -0.0045857552 1.2258015e-22)
(0.12127038 -0.0036250256 -4.1084507e-20)
(0.1257896 -0.004877638 -8.134033e-21)
(0.12659887 -0.0062817012 -1.9124932e-20)
(0.12610489 -0.0083952064 -4.0288791e-20)
(0.10880799 0.0012640065 -5.9389137e-19)
(0.10759821 0.0014058565 1.8408186e-22)
(0.1113228 -0.00076451298 2.2981494e-23)
(0.10925101 -0.0020943244 1.5202464e-22)
(0.10795095 0.00077296652 -6.8463126e-20)
(0.10725232 0.0010697366 5.2467321e-20)
(0.1059269 -0.00073914427 -3.1519767e-20)
(0.10450511 0.0001069198 8.1819497e-21)
(0.10307225 0.0010053545 -4.5923593e-20)
(0.10232713 -0.00043135761 -3.2644854e-22)
(0.10183894 0.00021242487 1.0914976e-20)
(0.10117429 -0.00045821573 3.2192816e-20)
(0.10091346 -0.00066902387 -1.0877582e-21)
(0.10108475 -0.00059443007 -3.122745e-20)
(0.10118904 -0.00053968719 2.080107e-23)
(0.101788 -0.0011245432 -2.7534932e-20)
(0.10295946 -0.001039874 -2.0872993e-20)
(0.10399573 -0.0011280424 0)
(0.10480745 -0.00033076322 -1.6750357e-23)
(0.10637611 -0.001690119 -2.738065e-22)
(0.10885578 -0.0018671058 -3.3152712e-20)
(0.10942656 -0.0025113823 2.3373333e-20)
(0.10954593 -0.0033942847 6.7452161e-21)
(0.11239787 -0.0039188405 9.5419141e-21)
(0.11590632 -0.0026560178 1.5969238e-20)
(0.11667478 -0.0033960258 -1.0508512e-21)
(0.11667219 -0.0044996549 -9.8654791e-22)
(0.12033793 -0.0051139807 2.7281797e-20)
(0.12523632 -0.0047816472 -6.7281419e-20)
(0.12740974 -0.003474617 1.5667097e-20)
(0.12756555 -0.0047465785 8.0426818e-20)
(0.11185934 0.0021389455 8.7469423e-20)
(0.10825418 -0.0014039888 -6.2961447e-20)
(0.11168327 -0.0025715266 -1.7076159e-20)
(0.10942055 0.00081629635 -1.5114347e-20)
(0.10818579 -0.00018751077 6.9149402e-22)
(0.10788887 6.979704e-05 6.3149782e-24)
(0.10644348 -0.00019128048 -5.1614183e-23)
(0.10474832 9.4804898e-05 -1.5759594e-20)
(0.10356872 0.0003521381 5.8776792e-20)
(0.10271898 -0.00012205602 -6.0825085e-21)
(0.10223515 0.00012677546 -4.5903985e-21)
(0.10165988 -8.8471996e-05 -2.5289033e-23)
(0.1011862 -0.00091649612 -4.9385958e-21)
(0.10137798 -0.00056460944 1.5725376e-22)
(0.10161853 -0.00020809968 -2.1248202e-20)
(0.10215391 -0.0010470289 1.038206e-20)
(0.10312695 -0.00090356494 -1.1429728e-22)
(0.10395761 -0.00059740601 1.2825395e-22)
(0.10490009 -0.00039810945 -2.157403e-22)
(0.10638035 -0.0019374598 -1.0306691e-20)
(0.10864668 -0.0019607865 -1.5022197e-21)
(0.10976599 -0.0003410756 -2.7661478e-20)
(0.10994697 -0.0022381085 4.4974822e-22)
(0.11195632 -0.0043641319 -6.0577458e-21)
(0.11521836 -0.0028368266 2.5185445e-21)
(0.11701777 -0.0017497191 2.7432273e-22)
(0.11736229 -0.0035882845 8.6453927e-20)
(0.11977072 -0.0057775333 -2.170292e-21)
(0.12349343 -0.0051459347 6.8734982e-21)
(0.12639367 -0.0022831379 4.1652131e-20)
(0.12822975 -0.002102097 -1.0319931e-20)
(0.11168575 0.001742776 -1.1832842e-18)
(0.1083523 -0.0017488228 -2.7565667e-21)
(0.11145262 -0.0041815576 -4.3896502e-21)
(0.10946754 0.0029168723 8.6457689e-22)
(0.10876434 -0.0013148485 -1.2702835e-21)
(0.1080942 -0.0014838947 2.2852928e-22)
(0.10664733 0.00021921791 -4.3972813e-23)
(0.10516406 -0.00027647347 -5.7834942e-23)
(0.1040001 -0.00085094883 -7.2971692e-24)
(0.10314007 0.0004904722 3.1956388e-22)
(0.10269671 -0.00042131186 5.5812792e-23)
(0.10212146 -0.0004634604 -4.529134e-21)
(0.10166117 -0.00043226042 -3.8471947e-20)
(0.10166063 -0.00053613842 -3.5509594e-22)
(0.10196833 -0.00065250312 -1.628945e-21)
(0.10247512 -0.0010011667 -1.1052279e-21)
(0.10325546 -0.0012839791 2.914008e-21)
(0.10422888 -0.00053595212 1.6079213e-21)
(0.10554786 5.2027689e-05 -1.7928453e-20)
(0.10694755 -0.0014163907 -2.7375379e-20)
(0.10855183 -0.0019184388 4.2197126e-20)
(0.10996804 0.0015345558 -2.1328449e-22)
(0.11124468 -0.00026850502 6.2870492e-22)
(0.11215435 -0.0034701197 5.6395992e-22)
(0.11431968 -0.0031975374 -1.5518101e-20)
(0.11713414 0.00098264686 9.3794653e-21)
(0.1184916 -0.0018569148 -1.1775797e-21)
(0.12004278 -0.0055603783 -5.1965843e-22)
(0.12198628 -0.0052195168 2.8415323e-21)
(0.12500244 -0.0024531081 -7.0775813e-20)
(0.1278896 -0.0017920534 1.7432915e-20)
(0.11512104 0.0022414243 -1.4202554e-20)
(0.10535089 -0.0039303276 1.6828779e-19)
(0.10945561 -0.0038822116 4.1800203e-19)
(0.10879277 0.0037492802 9.2628194e-20)
(0.10921089 -0.0015141386 2.4207735e-19)
(0.1086262 -0.001969598 -2.7956898e-20)
(0.10767874 0.0009180674 -3.3049964e-20)
(0.10665969 -0.00011453527 -2.9540215e-23)
(0.10544462 -0.00071561412 -5.8898409e-20)
(0.10498616 0.00098157127 3.9362051e-20)
(0.1046419 -0.00029512208 3.368224e-20)
(0.10390497 -9.4271143e-05 -9.3691531e-22)
(0.10341587 -0.0001137248 -7.9219886e-20)
(0.10371136 -0.00051366499 2.2619227e-20)
(0.10403393 -8.1191359e-05 1.4017938e-21)
(0.10478383 -0.00027146503 7.8413563e-21)
(0.10544972 -0.00013836357 -3.6127775e-22)
(0.10626822 0.00078011801 -1.3439007e-20)
(0.10792611 0.00035739699 2.2690956e-22)
(0.10998086 -4.5653285e-05 -3.4022806e-20)
(0.11069238 -0.0019388899 -1.724168e-20)
(0.11214148 0.0014735871 3.0510495e-22)
(0.11475673 0.00061624706 -1.277848e-21)
(0.11520622 -0.0026888006 3.7206793e-20)
(0.11535367 -0.0022984008 -3.8560035e-22)
(0.1184093 0.0010772324 -2.019781e-20)
(0.12208979 9.1886814e-05 -2.6530958e-20)
(0.1230258 -0.0025577467 0)
(0.12299868 -0.0033586984 9.7087111e-21)
(0.12555737 -0.0022240249 -8.0749753e-20)
(0.12884856 -0.0024432114 -3.971282e-20)
(0.11190282 0.00077707469 2.1079483e-19)
(0.074056729 -0.00067776921 0)
(0.12224462 -0.0030188917 -5.2910968e-22)
(0.12500516 0.0009834044 8.6244866e-21)
(0.12155411 -0.00037015717 2.2403013e-20)
(0.12109214 -0.00069547967 -6.6776609e-22)
(0.12076819 0.00025878178 -1.4481738e-20)
(0.11911083 -6.3356066e-05 5.7369158e-21)
(0.11733151 -0.00017716893 -2.4493266e-20)
(0.11549793 0.00082103359 1.74677e-20)
(0.10685487 -0.00038198935 9.282906e-22)
(0.11588689 -0.00044564504 -8.9211784e-23)
(0.10743668 0.0004190681 1.5379322e-20)
(0.11689813 -0.00040336534 1.1190995e-20)
(0.11160297 -0.00077178286 2.8870883e-21)
(0.12017962 7.875015e-05 -1.5610064e-21)
(0.11357789 -0.0009408021 -5.0247289e-21)
(0.1238842 0.00048882564 -9.0841603e-21)
(0.11287566 0.00085868295 -6.7211867e-21)
(0.12463053 0.00037160965 -1.0111078e-22)
(0.10981369 0.00018364073 5.5956586e-21)
(0.12472365 -0.00016430866 1.3500379e-20)
(0.11812053 0.00035892933 2.590682e-21)
(0.12702719 -0.0015159271 6.2804515e-21)
(0.12752781 -0.0012411991 -3.6563103e-21)
(0.12669621 0.0031987677 -1.056811e-20)
(0.12765073 -0.0041007093 -1.1855988e-20)
(0.13898372 -0.00084543518 -1.2524616e-21)
(0.13188206 -0.00036359771 4.76948e-21)
(0.13794468 -0.00078632481 -3.8891216e-21)
(0.13646942 -0.00080325434 -2.3786135e-21)
(0.145898 -0.00089800986 1.4234532e-21)
(0.13315391 -0.001177014 8.3046801e-21)
(0.13110576 -0.001994907 2.7080141e-20)
(0.13008006 -0.0040340944 9.6600854e-20)