/*--------------------------------*- C++ -*----------------------------------*\
| =========                 |                                                 |
| \\      /  F ield         | OpenFOAM: The Open Source CFD Toolbox           |
|  \\    /   O peration     | Version:  2406                                  |
|   \\  /    A nd           | Website:  www.openfoam.com                      |
|    \\/     M anipulation  |                                                 |
\*---------------------------------------------------------------------------*/
FoamFile
{
    version     2.0;
    format      ascii;
    arch        "LSB;label=32;scalar=64";
    class       volScalarField;
    location    "10";
    object      k_0;
}
// * * * * * * * * * * * * * * * * * * * * * * * * * * * * * * * * * * * * * //

dimensions      [0 2 -2 0 0 0 0];

internalField   nonuniform List<scalar> 
20580
(
2.9589251e-06
2.3203617e-06
1.8806158e-06
1.573e-06
1.3513753e-06
1.2181404e-06
1.1362317e-06
1.075307e-06
1.0177925e-06
9.5400714e-07
8.9123674e-07
8.3382513e-07
7.8823659e-07
7.5455699e-07
7.3193489e-07
7.1797951e-07
7.0989877e-07
7.0633747e-07
7.0644751e-07
7.071344e-07
7.0922539e-07
7.1221958e-07
7.1644776e-07
7.2368793e-07
7.3445151e-07
7.474024e-07
7.6749158e-07
7.8267481e-07
8.0777265e-07
8.3760351e-07
8.9360785e-07
2.9790391e-06
2.3393903e-06
1.8971197e-06
1.5928948e-06
1.3693224e-06
1.2313128e-06
1.1448891e-06
1.0813192e-06
1.0231026e-06
9.6016657e-07
8.9738859e-07
8.3916663e-07
7.9232995e-07
7.5765277e-07
7.3410604e-07
7.1915905e-07
7.1005347e-07
7.0621741e-07
7.0671026e-07
7.0695099e-07
7.0896527e-07
7.1297655e-07
7.1522427e-07
7.2188075e-07
7.2914142e-07
7.4348141e-07
7.5712423e-07
7.7558097e-07
7.9728506e-07
8.1593371e-07
8.6690444e-07
2.9838484e-06
2.3418011e-06
1.9030813e-06
1.5980467e-06
1.3783741e-06
1.2378531e-06
1.1485913e-06
1.0858191e-06
1.0277871e-06
9.6578412e-07
9.0274272e-07
8.4413173e-07
7.9639573e-07
7.6056877e-07
7.3636685e-07
7.2063401e-07
7.1074911e-07
7.0637814e-07
7.0671295e-07
7.0648052e-07
7.0814422e-07
7.1284755e-07
7.1465419e-07
7.2060184e-07
7.2617809e-07
7.400981e-07
7.527842e-07
7.6415609e-07
7.8634938e-07
8.0177917e-07
8.4255412e-07
2.977355e-06
2.3326533e-06
1.9024159e-06
1.5950374e-06
1.3787545e-06
1.2383821e-06
1.1508535e-06
1.0896583e-06
1.0312264e-06
9.6955355e-07
9.0588936e-07
8.4725142e-07
7.9901659e-07
7.6275189e-07
7.3791368e-07
7.2171741e-07
7.1158368e-07
7.0668581e-07
7.0643016e-07
7.061573e-07
7.0775676e-07
7.12181e-07
7.1391437e-07
7.1960889e-07
7.244921e-07
7.3548554e-07
7.4979482e-07
7.5778445e-07
7.7621943e-07
7.9201089e-07
8.243675e-07
2.9783466e-06
2.3298243e-06
1.9058809e-06
1.597776e-06
1.3818796e-06
1.2410999e-06
1.1560065e-06
1.0936323e-06
1.0337499e-06
9.7189269e-07
9.0728624e-07
8.4933983e-07
8.0042917e-07
7.6387322e-07
7.3866454e-07
7.2194056e-07
7.1151085e-07
7.0667661e-07
7.0599725e-07
7.0595467e-07
7.0755308e-07
7.1152416e-07
7.1360454e-07
7.182516e-07
7.2488923e-07
7.3207067e-07
7.4568027e-07
7.5412598e-07
7.6934996e-07
7.8346164e-07
8.1006927e-07
2.9899089e-06
2.3401742e-06
1.9172791e-06
1.6090299e-06
1.3926816e-06
1.2490369e-06
1.161569e-06
1.0961464e-06
1.0356563e-06
9.7322698e-07
9.0851642e-07
8.5058503e-07
8.0158212e-07
7.6457476e-07
7.3918591e-07
7.2216465e-07
7.1135583e-07
7.0620654e-07
7.0513825e-07
7.0528129e-07
7.0686065e-07
7.1060251e-07
7.1275897e-07
7.1749332e-07
7.2430249e-07
7.2979138e-07
7.4157355e-07
7.5160568e-07
7.6665025e-07
7.7738321e-07
8.0002149e-07
2.9937826e-06
2.3583435e-06
1.9295056e-06
1.6201999e-06
1.4061975e-06
1.2562912e-06
1.1648595e-06
1.0985378e-06
1.0387959e-06
9.7523676e-07
9.1104988e-07
8.5273467e-07
8.0384042e-07
7.663999e-07
7.4023767e-07
7.2271859e-07
7.1144255e-07
7.059448e-07
7.0382454e-07
7.0410957e-07
7.0557119e-07
7.0877699e-07
7.1081959e-07
7.1556602e-07
7.2230885e-07
7.2708761e-07
7.3640373e-07
7.459378e-07
7.6278675e-07
7.7221486e-07
7.9483062e-07
2.9838691e-06
2.3556416e-06
1.9272278e-06
1.6201428e-06
1.4038246e-06
1.2581271e-06
1.1685664e-06
1.1012706e-06
1.0411425e-06
9.7732571e-07
9.140015e-07
8.5555244e-07
8.0653781e-07
7.6856392e-07
7.4195649e-07
7.2398464e-07
7.1214719e-07
7.0656959e-07
7.0307551e-07
7.0332644e-07
7.0432844e-07
7.066226e-07
7.0828312e-07
7.1254701e-07
7.1905204e-07
7.2281803e-07
7.3027343e-07
7.3773187e-07
7.5494167e-07
7.6411393e-07
7.8538297e-07
2.978898e-06
2.3464498e-06
1.9229389e-06
1.6223258e-06
1.401551e-06
1.2627063e-06
1.1734863e-06
1.1039351e-06
1.0425867e-06
9.7975148e-07
9.1774185e-07
8.5944251e-07
8.1009604e-07
7.7139063e-07
7.4405239e-07
7.2553051e-07
7.1346387e-07
7.0730196e-07
7.0318778e-07
7.033709e-07
7.0429232e-07
7.0561115e-07
7.076656e-07
7.1124711e-07
7.1741136e-07
7.204553e-07
7.2739277e-07
7.3328689e-07
7.477542e-07
7.5488684e-07
7.7131078e-07
2.9877974e-06
2.3567598e-06
1.9267817e-06
1.6307557e-06
1.4091175e-06
1.2699772e-06
1.1753273e-06
1.1067691e-06
1.0460321e-06
9.8531447e-07
9.2464778e-07
8.659804e-07
8.1589981e-07
7.7609594e-07
7.4743313e-07
7.278377e-07
7.1494421e-07
7.0797727e-07
7.0353474e-07
7.0381665e-07
7.0474705e-07
7.0540864e-07
7.0831466e-07
7.1134068e-07
7.1709934e-07
7.2004201e-07
7.2670512e-07
7.3217257e-07
7.4469601e-07
7.5098605e-07
7.6480204e-07
2.9972665e-06
2.3837141e-06
1.9428311e-06
1.646796e-06
1.4242735e-06
1.2745137e-06
1.1757643e-06
1.1103599e-06
1.0506226e-06
9.9149382e-07
9.3069038e-07
8.719656e-07
8.2113329e-07
7.802773e-07
7.5057647e-07
7.3003784e-07
7.1645954e-07
7.0868282e-07
7.0411222e-07
7.0439427e-07
7.0521109e-07
7.0539437e-07
7.090267e-07
7.1173555e-07
7.1604427e-07
7.1982431e-07
7.2590642e-07
7.3105791e-07
7.4221928e-07
7.4888003e-07
7.6270027e-07
2.9944293e-06
2.3820505e-06
1.9501084e-06
1.6494513e-06
1.4243147e-06
1.2752783e-06
1.1784341e-06
1.1125581e-06
1.0531139e-06
9.9597808e-07
9.3608706e-07
8.7803502e-07
8.2664241e-07
7.8498421e-07
7.5385654e-07
7.323617e-07
7.1836738e-07
7.095822e-07
7.0496137e-07
7.0453491e-07
7.049668e-07
7.0479478e-07
7.0870076e-07
7.1191684e-07
7.1428371e-07
7.1862581e-07
7.2440511e-07
7.2941918e-07
7.3811791e-07
7.4449411e-07
7.5823844e-07
2.9897458e-06
2.3652253e-06
1.9465244e-06
1.6442507e-06
1.422059e-06
1.2770822e-06
1.1821581e-06
1.1151187e-06
1.0573779e-06
1.0012076e-06
9.4231165e-07
8.8398813e-07
8.319265e-07
7.8937487e-07
7.5684693e-07
7.34531e-07
7.2038379e-07
7.1095401e-07
7.0589067e-07
7.0442549e-07
7.047492e-07
7.0442352e-07
7.0806422e-07
7.1191791e-07
7.1315154e-07
7.16724e-07
7.2184484e-07
7.2687348e-07
7.3311338e-07
7.3828326e-07
7.4955628e-07
3.0001861e-06
2.370185e-06
1.9508053e-06
1.6463979e-06
1.4289306e-06
1.2782801e-06
1.1824732e-06
1.1161716e-06
1.0607261e-06
1.0046788e-06
9.4591794e-07
8.8757792e-07
8.3543967e-07
7.9221929e-07
7.5914486e-07
7.3627553e-07
7.2202023e-07
7.1195289e-07
7.0655351e-07
7.0458918e-07
7.0499988e-07
7.0462355e-07
7.07578e-07
7.121947e-07
7.1332731e-07
7.1583041e-07
7.2132071e-07
7.2682439e-07
7.3134604e-07
7.3529119e-07
7.4260249e-07
3.0152645e-06
2.3995425e-06
1.9697252e-06
1.6629879e-06
1.4432036e-06
1.2817135e-06
1.1843881e-06
1.1169994e-06
1.0625164e-06
1.0072407e-06
9.4946494e-07
8.9193114e-07
8.3985999e-07
7.9626949e-07
7.6253847e-07
7.3888389e-07
7.2387765e-07
7.1279789e-07
7.0737483e-07
7.0481922e-07
7.0535435e-07
7.0530966e-07
7.0736578e-07
7.1177386e-07
7.1405101e-07
7.1644598e-07
7.2205201e-07
7.2737506e-07
7.3256706e-07
7.3716322e-07
7.4378621e-07
3.0128547e-06
2.4023685e-06
1.982963e-06
1.6810029e-06
1.4511736e-06
1.2895243e-06
1.1906145e-06
1.1208278e-06
1.0661568e-06
1.0114999e-06
9.5490709e-07
8.9758225e-07
8.4474751e-07
8.0039761e-07
7.6593352e-07
7.4135943e-07
7.252811e-07
7.1406222e-07
7.0873401e-07
7.0528567e-07
7.0549887e-07
7.0621528e-07
7.0756917e-07
7.0983109e-07
7.1457421e-07
7.1771225e-07
7.2248635e-07
7.266628e-07
7.3340044e-07
7.3940691e-07
7.4639766e-07
3.0050514e-06
2.3856892e-06
1.9728031e-06
1.6739798e-06
1.4451988e-06
1.2922408e-06
1.1929953e-06
1.1245973e-06
1.0696471e-06
1.016028e-06
9.6029726e-07
9.0306462e-07
8.495433e-07
8.0428867e-07
7.693371e-07
7.437861e-07
7.2667992e-07
7.1488815e-07
7.0960966e-07
7.0572793e-07
7.0507341e-07
7.0688435e-07
7.0853672e-07
7.0911707e-07
7.1351776e-07
7.1705291e-07
7.2101274e-07
7.238611e-07
7.3063611e-07
7.3799111e-07
7.4517238e-07
3.0026058e-06
2.3908277e-06
1.9675148e-06
1.6685469e-06
1.4433586e-06
1.2901142e-06
1.1888709e-06
1.1234821e-06
1.06915e-06
1.0173431e-06
9.6271239e-07
9.0630682e-07
8.5325292e-07
8.0803986e-07
7.7278048e-07
7.4608994e-07
7.2830872e-07
7.1686435e-07
7.1123314e-07
7.0637084e-07
7.0440098e-07
7.0688021e-07
7.0872008e-07
7.0839883e-07
7.1151923e-07
7.1605718e-07
7.192162e-07
7.2028606e-07
7.2469266e-07
7.3182295e-07
7.3875566e-07
3.0164915e-06
2.4239282e-06
1.9907447e-06
1.6924663e-06
1.4565567e-06
1.2963664e-06
1.191193e-06
1.1250285e-06
1.0708298e-06
1.0199554e-06
9.6638354e-07
9.1022001e-07
8.5742721e-07
8.1134912e-07
7.7528181e-07
7.4850938e-07
7.296295e-07
7.1830268e-07
7.1181712e-07
7.0703523e-07
7.047712e-07
7.0721351e-07
7.0901542e-07
7.0891514e-07
7.1087849e-07
7.1563869e-07
7.1878662e-07
7.2011413e-07
7.2457814e-07
7.3075164e-07
7.3678559e-07
3.0151304e-06
2.428092e-06
2.0084232e-06
1.717028e-06
1.4743759e-06
1.3112822e-06
1.2017835e-06
1.1322752e-06
1.0765396e-06
1.0255032e-06
9.7245307e-07
9.1682859e-07
8.6469951e-07
8.1703068e-07
7.8065677e-07
7.5253715e-07
7.3194434e-07
7.2153941e-07
7.1350099e-07
7.0874288e-07
7.0690845e-07
7.0877885e-07
7.098453e-07
7.1080771e-07
7.142484e-07
7.1917213e-07
7.2167367e-07
7.2242074e-07
7.2660822e-07
7.3319917e-07
7.3790212e-07
2.9835322e-06
2.4429547e-06
2.1391321e-06
1.8668624e-06
1.5990463e-06
1.3910826e-06
1.2591912e-06
1.1698768e-06
1.1070731e-06
1.0586066e-06
1.0147871e-06
9.6941799e-07
9.2713124e-07
8.8014786e-07
8.4906279e-07
8.0966446e-07
7.8695912e-07
7.742659e-07
7.6178815e-07
7.5585675e-07
7.5569784e-07
7.5599208e-07
7.5329861e-07
7.5567837e-07
7.5584343e-07
7.5498221e-07
7.5360494e-07
7.5341843e-07
7.5455605e-07
7.5982398e-07
7.5405112e-07
3.1067668e-06
3.2366321e-06
4.9275967e-06
4.2963938e-06
3.6479644e-06
3.096318e-06
2.6817789e-06
2.428496e-06
2.2146409e-06
2.0772451e-06
1.8968137e-06
2.0299823e-06
1.9946993e-06
1.9109107e-06
1.9589654e-06
1.7709806e-06
1.8554265e-06
1.9254223e-06
1.7768856e-06
1.7561922e-06
1.7775323e-06
1.7465519e-06
1.6350713e-06
1.7004772e-06
1.7093365e-06
1.6321868e-06
1.4435491e-06
1.3954265e-06
1.3663377e-06
1.3363776e-06
1.2468251e-06
7.2773251e-06
1.6052176e-05
3.0621903e-05
2.446096e-05
2.1728123e-05
1.7699741e-05
1.4884925e-05
1.2882434e-05
1.2616991e-05
1.2552031e-05
1.2934069e-05
1.3113198e-05
1.522638e-05
1.4743369e-05
1.6380574e-05
1.5541028e-05
1.4113641e-05
1.5874498e-05
1.4580688e-05
1.2873674e-05
1.2930092e-05
1.3013874e-05
1.1720943e-05
1.0911335e-05
1.1731459e-05
1.115888e-05
9.7363147e-06
9.0899616e-06
8.1052105e-06
7.8779921e-06
6.9214103e-06
6.4679493e-06
1.4729599e-06
7.8957236e-07
7.4881001e-07
7.4370848e-07
7.4377107e-07
7.5052552e-07
7.5454192e-07
7.543381e-07
7.5468778e-07
7.597681e-07
7.659637e-07
7.6842467e-07
7.713301e-07
7.7965225e-07
7.9562285e-07
8.0643503e-07
8.1431388e-07
8.2512847e-07
8.3847049e-07
8.583162e-07
8.8580469e-07
9.1053837e-07
6.1722107e-06
1.5012945e-06
8.0951741e-07
7.5625842e-07
7.4926664e-07
7.493528e-07
7.5603985e-07
7.6345847e-07
7.649208e-07
7.6505947e-07
7.69508e-07
7.7719506e-07
7.8136562e-07
7.8485555e-07
7.9125588e-07
8.044467e-07
8.1977106e-07
8.2709152e-07
8.3475249e-07
8.4868131e-07
8.6904327e-07
9.0112723e-07
9.2366662e-07
4.6984053e-06
1.4522728e-06
8.1908622e-07
7.6366788e-07
7.5867364e-07
7.5982104e-07
7.6640408e-07
7.7531866e-07
7.7728214e-07
7.7673769e-07
7.7802716e-07
7.8485774e-07
7.9797401e-07
8.0219526e-07
8.0491608e-07
8.1183936e-07
8.3167027e-07
8.469389e-07
8.5376481e-07
8.6121983e-07
8.7881746e-07
9.1139449e-07
9.4119225e-07
3.4528648e-06
1.4558413e-06
8.3959569e-07
7.7872598e-07
7.7277352e-07
7.7203642e-07
7.7651866e-07
7.8711799e-07
7.895251e-07
7.8831587e-07
7.8867919e-07
7.9448613e-07
8.095981e-07
8.1935046e-07
8.2058116e-07
8.2384242e-07
8.4038591e-07
8.6343746e-07
8.7617648e-07
8.8471587e-07
8.9975052e-07
9.3356516e-07
9.6345343e-07
3.1579369e-06
1.4829168e-06
8.8338114e-07
8.0293705e-07
7.8765166e-07
7.8551341e-07
7.8869501e-07
8.008995e-07
8.085862e-07
8.0799717e-07
8.0733663e-07
8.1195129e-07
8.2482508e-07
8.336884e-07
8.3476485e-07
8.3754377e-07
8.5130878e-07
8.7830517e-07
8.9477584e-07
9.0516664e-07
9.1915161e-07
9.5139342e-07
9.8786174e-07
3.3778311e-06
1.5519537e-06
9.2483526e-07
8.2500157e-07
8.0456111e-07
8.0163936e-07
8.0553138e-07
8.1592828e-07
8.2557638e-07
8.2656882e-07
8.2560209e-07
8.2959058e-07
8.4142074e-07
8.5374612e-07
8.5702615e-07
8.5771957e-07
8.6695075e-07
8.9177534e-07
9.1344251e-07
9.2783507e-07
9.387867e-07
9.611797e-07
1.0082285e-06
3.959521e-06
1.6335715e-06
9.5760329e-07
8.4396861e-07
8.2307197e-07
8.2129078e-07
8.2521924e-07
8.3522659e-07
8.4469765e-07
8.4563174e-07
8.437657e-07
8.4544737e-07
8.5262121e-07
8.6772408e-07
8.7746173e-07
8.8137955e-07
8.8746528e-07
9.0374635e-07
9.3027428e-07
9.4808104e-07
9.559957e-07
9.7080189e-07
1.0081951e-06
5.0154483e-06
1.7699791e-06
1.0002106e-06
8.6476286e-07
8.4279598e-07
8.4241106e-07
8.4484904e-07
8.5199283e-07
8.6296263e-07
8.6361499e-07
8.6157689e-07
8.6116414e-07
8.660216e-07
8.8262595e-07
8.9602534e-07
9.0228342e-07
9.0765992e-07
9.1986443e-07
9.4997918e-07
9.7429533e-07
9.8395748e-07
9.9378973e-07
1.0190688e-06
6.7110778e-06
1.9650072e-06
1.0473557e-06
8.8768016e-07
8.603313e-07
8.561725e-07
8.5858506e-07
8.6828704e-07
8.7920733e-07
8.8279017e-07
8.8097537e-07
8.7969931e-07
8.8447857e-07
9.0239844e-07
9.2225368e-07
9.2779173e-07
9.3014508e-07
9.3662484e-07
9.5736313e-07
9.8939376e-07
1.0086089e-06
1.018306e-06
1.0405497e-06
9.1756429e-06
2.1829397e-06
1.0925344e-06
9.1140082e-07
8.7737485e-07
8.6854063e-07
8.7016984e-07
8.7963941e-07
8.9261472e-07
9.0127428e-07
9.0266562e-07
9.0350004e-07
9.0773821e-07
9.2247603e-07
9.4400174e-07
9.4878123e-07
9.4968696e-07
9.5398141e-07
9.6778048e-07
1.0001267e-06
1.0269322e-06
1.0417548e-06
1.0621185e-06
1.2460679e-05
2.609639e-06
1.1742711e-06
9.4287938e-07
8.9902811e-07
8.8755957e-07
8.8869501e-07
8.9701323e-07
9.1036716e-07
9.196621e-07
9.2334629e-07
9.2501126e-07
9.285733e-07
9.3830388e-07
9.572983e-07
9.6752616e-07
9.6972041e-07
9.7341141e-07
9.8522835e-07
1.0150864e-06
1.0474461e-06
1.0653395e-06
1.0838988e-06
1.6646423e-05
3.1180959e-06
1.2550177e-06
9.6900377e-07
9.2138232e-07
9.1060561e-07
9.1291917e-07
9.2220672e-07
9.3170921e-07
9.3760058e-07
9.3940423e-07
9.3897719e-07
9.4072254e-07
9.4840488e-07
9.6842084e-07
9.8627119e-07
9.9426375e-07
9.9875112e-07
1.0090343e-06
1.0344401e-06
1.0684059e-06
1.0890744e-06
1.1044342e-06
2.1759889e-05
3.8517105e-06
1.3648875e-06
9.9508186e-07
9.3855065e-07
9.3069372e-07
9.346719e-07
9.4352055e-07
9.4981949e-07
9.5297333e-07
9.5201285e-07
9.5176278e-07
9.5588582e-07
9.6426527e-07
9.8383817e-07
1.0031249e-06
1.0119939e-06
1.0170694e-06
1.0264516e-06
1.0485959e-06
1.0844204e-06
1.1075489e-06
1.1221368e-06
2.7653984e-05
4.6219977e-06
1.4717971e-06
1.0172667e-06
9.5048816e-07
9.4331946e-07
9.4791762e-07
9.5560462e-07
9.6395841e-07
9.6608227e-07
9.6515335e-07
9.6632289e-07
9.7166631e-07
9.8088937e-07
1.0004582e-06
1.014367e-06
1.0210637e-06
1.0275571e-06
1.0376002e-06
1.0573661e-06
1.0920393e-06
1.116936e-06
1.1335655e-06
3.4096056e-05
5.595204e-06
1.6095825e-06
1.0376555e-06
9.571585e-07
9.4902487e-07
9.5348629e-07
9.6263184e-07
9.7393581e-07
9.7888751e-07
9.7792672e-07
9.7780867e-07
9.814196e-07
9.9124557e-07
1.0092514e-06
1.0234612e-06
1.0328286e-06
1.039811e-06
1.0483835e-06
1.0656394e-06
1.0996102e-06
1.1270096e-06
1.1473089e-06
4.062466e-05
6.4204654e-06
1.7341697e-06
1.0579285e-06
9.6584177e-07
9.5642931e-07
9.5981929e-07
9.7037897e-07
9.8024213e-07
9.8536412e-07
9.8613906e-07
9.8637514e-07
9.8999012e-07
9.9907009e-07
1.0178676e-06
1.037742e-06
1.0495185e-06
1.0542263e-06
1.0609239e-06
1.0743196e-06
1.1037103e-06
1.1354046e-06
1.1609361e-06
4.7009328e-05
7.4656494e-06
1.8749217e-06
1.0790891e-06
9.7428587e-07
9.6588618e-07
9.7151655e-07
9.8076187e-07
9.8756759e-07
9.9021788e-07
9.9061135e-07
9.9370606e-07
1.001635e-06
1.0134483e-06
1.035227e-06
1.0544641e-06
1.0623442e-06
1.064422e-06
1.067932e-06
1.0774544e-06
1.107874e-06
1.1455862e-06
1.1709459e-06
5.0636004e-05
8.6016276e-06
2.0640732e-06
1.1004262e-06
9.7994756e-07
9.7198959e-07
9.8263161e-07
9.9191559e-07
9.957485e-07
9.935855e-07
9.9288214e-07
9.9977752e-07
1.0130775e-06
1.0288527e-06
1.0502637e-06
1.0628319e-06
1.0663572e-06
1.0665495e-06
1.0691427e-06
1.0830061e-06
1.1213077e-06
1.1588246e-06
1.1792218e-06
5.6016316e-05
9.5710946e-06
2.2153264e-06
1.1188143e-06
9.822769e-07
9.7448959e-07
9.8747467e-07
9.9951719e-07
1.0020111e-06
9.9574198e-07
9.9424745e-07
1.0032149e-06
1.0211016e-06
1.0408861e-06
1.0578342e-06
1.0643865e-06
1.065612e-06
1.066666e-06
1.0745183e-06
1.1039496e-06
1.1451602e-06
1.1709787e-06
1.1835616e-06
6.1138465e-05
1.019234e-05
2.3236011e-06
1.1259024e-06
9.8422682e-07
9.7685768e-07
9.9131767e-07
1.0022699e-06
1.0042923e-06
9.9763035e-07
9.9576911e-07
1.0045198e-06
1.0250172e-06
1.0479427e-06
1.0619442e-06
1.0649192e-06
1.0654953e-06
1.0712245e-06
1.0914175e-06
1.1233569e-06
1.1587943e-06
1.1755547e-06
1.1848089e-06
6.5170552e-05
1.0878454e-05
2.4091996e-06
1.1265114e-06
9.8769302e-07
9.8300472e-07
9.9776883e-07
1.0032493e-06
1.0031292e-06
9.9641456e-07
9.9522069e-07
1.0054158e-06
1.0276383e-06
1.0525619e-06
1.0644566e-06
1.0664861e-06
1.0683392e-06
1.0782105e-06
1.0978242e-06
1.131151e-06
1.1634648e-06
1.1769236e-06
1.1884e-06
6.7828392e-05
1.1501181e-05
2.4428017e-06
1.1208275e-06
9.9070075e-07
9.9066099e-07
1.0036033e-06
1.0051097e-06
9.9848766e-07
9.9251848e-07
9.9315214e-07
1.0080889e-06
1.0376978e-06
1.0594977e-06
1.0678238e-06
1.0678137e-06
1.0709288e-06
1.0845632e-06
1.1138601e-06
1.1483035e-06
1.1724318e-06
1.182803e-06
1.200484e-06
6.9855592e-05
1.2018722e-05
2.4488946e-06
1.1133381e-06
9.9081495e-07
9.9664292e-07
1.0092071e-06
1.0083014e-06
9.9486169e-07
9.900442e-07
9.9453769e-07
1.0233936e-06
1.0553334e-06
1.0677268e-06
1.0699976e-06
1.0681674e-06
1.0768145e-06
1.1042947e-06
1.1320899e-06
1.1640438e-06
1.1796406e-06
1.1917029e-06
1.2217901e-06
7.088985e-05
1.2453152e-05
2.4433341e-06
1.104513e-06
9.9142061e-07
1.0075079e-06
1.0194371e-06
1.0131297e-06
9.9394301e-07
9.900332e-07
1.0014113e-06
1.0474355e-06
1.069883e-06
1.0759404e-06
1.0719639e-06
1.0729003e-06
1.0941636e-06
1.1202888e-06
1.1596193e-06
1.1822979e-06
1.1967045e-06
1.2132297e-06
1.2586526e-06
7.0731672e-05
1.2856883e-05
2.4404635e-06
1.0950279e-06
9.9498838e-07
1.0200664e-06
1.0287091e-06
1.0150797e-06
9.9508149e-07
9.9298554e-07
1.0197295e-06
1.0660371e-06
1.0802998e-06
1.080665e-06
1.0782142e-06
1.0847978e-06
1.1111142e-06
1.159232e-06
1.1867646e-06
1.2002194e-06
1.2082682e-06
1.2382607e-06
1.3145502e-06
7.0131172e-05
1.3048681e-05
2.3926833e-06
1.0853696e-06
9.9881113e-07
1.0268284e-06
1.0327916e-06
1.0154358e-06
9.9664191e-07
9.9802817e-07
1.0397171e-06
1.0776665e-06
1.0834386e-06
1.079957e-06
1.0801633e-06
1.0977594e-06
1.1517428e-06
1.1912448e-06
1.2073997e-06
1.2163282e-06
1.2395622e-06
1.3144002e-06
1.4397136e-06
6.9148826e-05
1.2977942e-05
2.3064791e-06
1.0704208e-06
9.9993387e-07
1.0279281e-06
1.0330809e-06
1.0131975e-06
9.9911876e-07
1.0086305e-06
1.0601399e-06
1.0803412e-06
1.0813452e-06
1.0776989e-06
1.0874566e-06
1.1315233e-06
1.1885932e-06
1.2101427e-06
1.2201128e-06
1.2398727e-06
1.3013583e-06
1.4163756e-06
1.5105086e-06
6.7802854e-05
1.2938652e-05
2.205467e-06
1.0560488e-06
1.0024597e-06
1.0278656e-06
1.0292546e-06
1.0069671e-06
1.0023697e-06
1.020211e-06
1.0703172e-06
1.0793774e-06
1.077059e-06
1.0767765e-06
1.0991636e-06
1.1690185e-06
1.2121078e-06
1.2263334e-06
1.2386928e-06
1.2823892e-06
1.3894833e-06
1.5170515e-06
1.57734e-06
6.5990744e-05
1.3000239e-05
2.1641273e-06
1.0533479e-06
1.0062384e-06
1.0273448e-06
1.0240491e-06
1.0070423e-06
1.0063148e-06
1.0420087e-06
1.0762653e-06
1.079103e-06
1.0776586e-06
1.0863374e-06
1.1344367e-06
1.199138e-06
1.2269927e-06
1.2403095e-06
1.2705357e-06
1.3622928e-06
1.5154878e-06
1.585974e-06
1.6461705e-06
6.3731742e-05
1.3119813e-05
2.1141782e-06
1.055238e-06
1.0111142e-06
1.027148e-06
1.0218643e-06
1.0088014e-06
1.0132554e-06
1.0588641e-06
1.0808695e-06
1.0834053e-06
1.0831067e-06
1.0964785e-06
1.1486869e-06
1.2099264e-06
1.2392313e-06
1.2695542e-06
1.3479655e-06
1.4944476e-06
1.5832243e-06
1.6566481e-06
1.8260966e-06
6.1006982e-05
1.3271344e-05
2.0897019e-06
1.0588202e-06
1.0165991e-06
1.0291543e-06
1.0219126e-06
1.0153006e-06
1.0313684e-06
1.0736908e-06
1.0885864e-06
1.0927513e-06
1.1018526e-06
1.1314197e-06
1.1898149e-06
1.2421339e-06
1.2758674e-06
1.3423124e-06
1.4469045e-06
1.5524037e-06
1.6829752e-06
1.9100368e-06
2.6432083e-06
5.7872813e-05
1.3492833e-05
2.0886005e-06
1.0643338e-06
1.025481e-06
1.0347283e-06
1.0249989e-06
1.0215316e-06
1.0419371e-06
1.0810827e-06
1.0955139e-06
1.1037128e-06
1.1199273e-06
1.1586544e-06
1.2195202e-06
1.2630229e-06
1.3042222e-06
1.3951177e-06
1.5290694e-06
1.7128112e-06
2.1575905e-06
3.7704615e-06
1.00061e-05
5.4191978e-05
1.3942467e-05
2.1048043e-06
1.0751446e-06
1.0374612e-06
1.0407279e-06
1.0296321e-06
1.0354115e-06
1.0698239e-06
1.0968096e-06
1.1058535e-06
1.1254929e-06
1.1657066e-06
1.2234005e-06
1.2803493e-06
1.3268878e-06
1.4057449e-06
1.534097e-06
1.780957e-06
2.6692374e-06
6.2059206e-06
2.0313131e-05
7.2271614e-05
5.0218687e-05
1.4304575e-05
2.1509829e-06
1.0916419e-06
1.0498307e-06
1.0513622e-06
1.039831e-06
1.0463377e-06
1.0818018e-06
1.1075884e-06
1.1181088e-06
1.1422741e-06
1.1896032e-06
1.2534898e-06
1.310669e-06
1.3604697e-06
1.4515308e-06
1.6782305e-06
2.6552934e-06
7.4093349e-06
2.7571378e-05
0.00010181577
0.0003398772
4.6186023e-05
1.3941761e-05
1.9464522e-06
1.0782334e-06
1.0607348e-06
1.0654765e-06
1.0592775e-06
1.0774693e-06
1.1114064e-06
1.1284348e-06
1.1458638e-06
1.1906453e-06
1.2648351e-06
1.3571501e-06
1.5009393e-06
1.9756089e-06
3.8005733e-06
1.019068e-05
3.0014616e-05
8.351699e-05
0.00020973122
0.00046109757
0.00082745702
4.2850227e-05
1.5747414e-05
2.5473196e-06
1.151378e-06
1.0801375e-06
1.0821165e-06
1.080359e-06
1.0936635e-06
1.1283883e-06
1.1480086e-06
1.1628776e-06
1.2031176e-06
1.2685962e-06
1.3521791e-06
1.4675416e-06
1.8084561e-06
3.1349681e-06
8.0628049e-06
2.4226036e-05
6.9669289e-05
0.00018108984
0.00042185687
0.00079214672
3.8779859e-05
1.7474942e-05
3.2348424e-06
1.2840375e-06
1.1105083e-06
1.1028743e-06
1.0984368e-06
1.108504e-06
1.1424681e-06
1.1717697e-06
1.1835711e-06
1.2108382e-06
1.2696541e-06
1.3533322e-06
1.4417609e-06
1.6469632e-06
2.3234386e-06
4.8875524e-06
1.4021499e-05
4.2280437e-05
0.00011588727
0.00028440251
0.00063221107
3.4677165e-05
1.81131e-05
3.7191236e-06
1.3952053e-06
1.1367424e-06
1.119109e-06
1.1183456e-06
1.126283e-06
1.1521359e-06
1.1892728e-06
1.2085962e-06
1.2336729e-06
1.2822029e-06
1.3575954e-06
1.4378968e-06
1.563545e-06
1.9019777e-06
3.0804967e-06
7.369328e-06
2.1648842e-05
6.2264122e-05
0.00015933375
0.00041105922
3.1454363e-05
2.0180749e-05
5.0706051e-06
1.66594e-06
1.1889854e-06
1.1432163e-06
1.1456909e-06
1.1522874e-06
1.1682342e-06
1.2015096e-06
1.2283516e-06
1.2574681e-06
1.2984611e-06
1.3670901e-06
1.4440749e-06
1.5304601e-06
1.7123244e-06
2.2291972e-06
3.988543e-06
1.0017253e-05
2.8721453e-05
7.675691e-05
0.00022765096
2.9110498e-05
2.1781209e-05
6.332216e-06
2.1420322e-06
1.312969e-06
1.1847775e-06
1.1686802e-06
1.1735373e-06
1.1850066e-06
1.2129833e-06
1.2406603e-06
1.2677184e-06
1.3049353e-06
1.3653127e-06
1.4438629e-06
1.5281455e-06
1.6361891e-06
1.8815066e-06
2.5840191e-06
4.8759913e-06
1.2243959e-05
3.2955385e-05
0.00011553088
2.6088001e-05
2.1033036e-05
6.7252302e-06
2.3286672e-06
1.3796788e-06
1.2083335e-06
1.1834547e-06
1.1868698e-06
1.1961789e-06
1.2205211e-06
1.2476084e-06
1.2736618e-06
1.3101209e-06
1.3626254e-06
1.4376466e-06
1.5209318e-06
1.6076576e-06
1.7383983e-06
2.0449482e-06
2.903308e-06
5.5430291e-06
1.3377192e-05
5.6317542e-05
2.4398092e-05
2.0389119e-05
7.5312306e-06
2.5309299e-06
1.4342648e-06
1.2252031e-06
1.1967906e-06
1.2003453e-06
1.210959e-06
1.2310998e-06
1.2593087e-06
1.2870995e-06
1.3185203e-06
1.3633403e-06
1.4299615e-06
1.5004766e-06
1.5799202e-06
1.671888e-06
1.831024e-06
2.1767828e-06
3.0921618e-06
5.7647957e-06
2.5794956e-05
2.332129e-05
2.0095197e-05
8.4705784e-06
2.9961179e-06
1.5813246e-06
1.2749207e-06
1.2211535e-06
1.2203215e-06
1.2288028e-06
1.2455876e-06
1.2725146e-06
1.298917e-06
1.3222518e-06
1.3572995e-06
1.4077941e-06
1.4680876e-06
1.5501147e-06
1.6249461e-06
1.7278387e-06
1.886706e-06
2.2356895e-06
3.1332069e-06
1.1510546e-05
2.166078e-05
1.9072302e-05
8.5088636e-06
3.2154937e-06
1.7051403e-06
1.3295983e-06
1.2443211e-06
1.2345229e-06
1.2385457e-06
1.2498675e-06
1.2714923e-06
1.2931615e-06
1.3133634e-06
1.3403304e-06
1.3849007e-06
1.4361171e-06
1.5237249e-06
1.5827428e-06
1.6649034e-06
1.7730601e-06
1.9459353e-06
2.2947865e-06
5.6030561e-06
1.9892826e-05
1.6188262e-05
8.1666645e-06
3.2224545e-06
1.7329742e-06
1.343618e-06
1.2472882e-06
1.2337735e-06
1.2357571e-06
1.2447606e-06
1.2632791e-06
1.2830459e-06
1.306982e-06
1.3327012e-06
1.3740603e-06
1.4135662e-06
1.4968471e-06
1.5438569e-06
1.6301013e-06
1.704231e-06
1.8380171e-06
1.9893241e-06
3.2853306e-06
1.8367625e-05
1.4359018e-05
8.1052886e-06
3.2573986e-06
1.7508262e-06
1.341472e-06
1.2398465e-06
1.2252438e-06
1.2285385e-06
1.239013e-06
1.2576795e-06
1.2787986e-06
1.3069925e-06
1.3326499e-06
1.3662811e-06
1.3935162e-06
1.4660537e-06
1.5138082e-06
1.5976484e-06
1.6477842e-06
1.7479405e-06
1.827865e-06
2.3657232e-06
1.9907046e-05
1.4384681e-05
8.3435594e-06
3.5180427e-06
1.8549909e-06
1.364242e-06
1.2386881e-06
1.219854e-06
1.2223502e-06
1.2311531e-06
1.2450799e-06
1.2665204e-06
1.2967515e-06
1.3208633e-06
1.3444905e-06
1.3648393e-06
1.4240459e-06
1.4679123e-06
1.5526757e-06
1.593456e-06
1.6803791e-06
1.7388864e-06
2.0019812e-06
2.3189651e-05
1.5087566e-05
9.2758005e-06
4.0414137e-06
2.034147e-06
1.3942178e-06
1.2323303e-06
1.2039205e-06
1.2045128e-06
1.2097167e-06
1.219669e-06
1.2398856e-06
1.2703273e-06
1.295108e-06
1.3156521e-06
1.3320846e-06
1.3780237e-06
1.4154375e-06
1.4967215e-06
1.5395065e-06
1.6293189e-06
1.6806463e-06
1.8481761e-06
2.5262347e-05
1.6039096e-05
9.683715e-06
4.1222838e-06
2.052993e-06
1.390502e-06
1.2155906e-06
1.1742601e-06
1.1710386e-06
1.1761636e-06
1.1892268e-06
1.208669e-06
1.2353298e-06
1.2614793e-06
1.2874639e-06
1.3035758e-06
1.3414287e-06
1.3720946e-06
1.4424899e-06
1.4832799e-06
1.5686672e-06
1.6121323e-06
1.7394495e-06
2.5425152e-05
1.6153382e-05
9.6130108e-06
4.0603549e-06
2.0286815e-06
1.3784608e-06
1.1917888e-06
1.1456709e-06
1.1413057e-06
1.1473142e-06
1.1630328e-06
1.1793998e-06
1.2003331e-06
1.2251923e-06
1.2549125e-06
1.2711552e-06
1.3056576e-06
1.3290887e-06
1.3839557e-06
1.4176331e-06
1.4906745e-06
1.5285276e-06
1.6321148e-06
2.4920157e-05
1.6046424e-05
9.1954007e-06
3.7899315e-06
1.9236983e-06
1.3314603e-06
1.1491701e-06
1.1131625e-06
1.1117031e-06
1.1201542e-06
1.1366143e-06
1.1497652e-06
1.1645179e-06
1.1854718e-06
1.2151584e-06
1.2305566e-06
1.2626591e-06
1.2802363e-06
1.3227188e-06
1.3508579e-06
1.4147594e-06
1.4505575e-06
1.5377074e-06
2.3885247e-05
1.5474982e-05
7.8170196e-06
3.0879697e-06
1.6527868e-06
1.2178156e-06
1.0952608e-06
1.0723126e-06
1.0736323e-06
1.0860691e-06
1.1016217e-06
1.1119858e-06
1.1227718e-06
1.14161e-06
1.1716571e-06
1.1882955e-06
1.219486e-06
1.2352027e-06
1.2720078e-06
1.2977209e-06
1.3576913e-06
1.3908714e-06
1.4647977e-06
2.234665e-05
1.3341546e-05
5.9440623e-06
2.4179456e-06
1.4057502e-06
1.1157362e-06
1.0423334e-06
1.0306067e-06
1.0345608e-06
1.050695e-06
1.0647009e-06
1.0725485e-06
1.082144e-06
1.1001612e-06
1.129376e-06
1.1471006e-06
1.1777078e-06
1.1926681e-06
1.2252522e-06
1.247702e-06
1.3019893e-06
1.329928e-06
1.3921809e-06
2.0645676e-05
1.042917e-05
4.4754604e-06
1.9137899e-06
1.2176715e-06
1.0312178e-06
9.895014e-07
9.8634014e-07
9.9398172e-07
1.0108816e-06
1.023692e-06
1.0306598e-06
1.039709e-06
1.0562296e-06
1.0815107e-06
1.0978742e-06
1.125861e-06
1.1398554e-06
1.168817e-06
1.1886908e-06
1.2369738e-06
1.2594813e-06
1.3137242e-06
1.8850734e-05
8.1089042e-06
3.3894976e-06
1.548801e-06
1.078091e-06
9.606144e-07
9.3763251e-07
9.3828867e-07
9.4891685e-07
9.6452645e-07
9.768681e-07
9.8439885e-07
9.9330273e-07
1.0080773e-06
1.0288987e-06
1.0437059e-06
1.0692695e-06
1.0822669e-06
1.109905e-06
1.1278471e-06
1.1693997e-06
1.1889028e-06
1.2387522e-06
1.6969918e-05
6.3307535e-06
2.6103144e-06
1.2938212e-06
9.7826664e-07
9.0516968e-07
8.9326328e-07
8.9578228e-07
9.0756616e-07
9.2167974e-07
9.3261656e-07
9.3972059e-07
9.4730598e-07
9.590464e-07
9.7593949e-07
9.89113e-07
1.013401e-06
1.0254322e-06
1.0516593e-06
1.0660068e-06
1.0988299e-06
1.1150273e-06
1.1615021e-06
1.5156507e-05
4.9890239e-06
2.0617579e-06
1.1205872e-06
9.0859505e-07
8.6238701e-07
8.5646278e-07
8.5992799e-07
8.7157492e-07
8.8414041e-07
8.9315428e-07
8.9915977e-07
9.0549442e-07
9.1434245e-07
9.2756379e-07
9.3951324e-07
9.6257414e-07
9.7392891e-07
9.9714661e-07
1.0092216e-06
1.03555e-06
1.0484848e-06
1.0900656e-06
1.3411476e-05
3.9532667e-06
1.6730962e-06
1.003808e-06
8.6116201e-07
8.3091217e-07
8.2759564e-07
8.3148218e-07
8.425085e-07
8.5318637e-07
8.6068209e-07
8.6596764e-07
8.7175934e-07
8.7873055e-07
8.8877429e-07
8.9950335e-07
9.1979505e-07
9.2926206e-07
9.473964e-07
9.5667398e-07
9.7825683e-07
9.8877759e-07
1.0245605e-06
1.1787415e-05
3.1505635e-06
1.3922233e-06
9.2235979e-07
8.2728881e-07
8.0761998e-07
8.0580921e-07
8.0974978e-07
8.1992724e-07
8.2824067e-07
8.3385712e-07
8.3808143e-07
8.4271602e-07
8.48256e-07
8.557581e-07
8.6519137e-07
8.8231647e-07
8.9038957e-07
9.0536725e-07
9.1258338e-07
9.3044397e-07
9.3950027e-07
9.6986238e-07
1.0290768e-05
2.5343103e-06
1.18549e-06
8.6286673e-07
8.0063627e-07
7.8816455e-07
7.8768121e-07
7.9151591e-07
8.0012345e-07
8.0664132e-07
8.113947e-07
8.1553685e-07
8.1953445e-07
8.2419096e-07
8.2999591e-07
8.3749362e-07
8.5073546e-07
8.5765623e-07
8.7115345e-07
8.7721315e-07
8.9162722e-07
8.9878587e-07
9.23505e-07
8.9371681e-06
2.076456e-06