/*--------------------------------*- C++ -*----------------------------------*\
| =========                 |                                                 |
| \\      /  F ield         | OpenFOAM: The Open Source CFD Toolbox           |
|  \\    /   O peration     | Version:  2406                                  |
|   \\  /    A nd           | Website:  www.openfoam.com                      |
|    \\/     M anipulation  |                                                 |
\*---------------------------------------------------------------------------*/
FoamFile
{
    version     2.0;
    format      ascii;
    arch        "LSB;label=32;scalar=64";
    class       volScalarField;
    location    "10";
    object      rho_0;
}
// * * * * * * * * * * * * * * * * * * * * * * * * * * * * * * * * * * * * * //

dimensions      [1 -3 0 0 0 0 0];

internalField   nonuniform List<scalar> 
20580
(
0.99877427
1.0012686
0.9955417
0.998895
0.99473257
0.99675243
0.99522841
0.99432395
0.99504525
0.9934789
0.99400861
0.99312303
0.99397453
0.99445943
0.99524313
0.99650197
0.99761139
0.99798663
0.99973591
1.0001002
0.99882684
1.0005182
1.0010217
1.0020428
0.99986827
1.0016517
1.0033919
1.0028699
1.0045686
1.00109
1.0023296
0.99913602
1.0014332
0.99536927
0.9993923
0.99450709
0.9969854
0.99524535
0.99427951
0.99485781
0.99348172
0.99419733
0.99300007
0.99376643
0.99424659
0.99505414
0.99657156
0.99737103
0.9977079
1.000199
0.99943566
0.99905152
1.0021324
1.0007437
1.0012714
1.0004831
1.0028431
1.0048681
1.0026273
1.0034739
0.99944842
1.0003834
1.0001311
1.0010656
0.99617258
0.99852626
0.9949727
0.99675116
0.99509607
0.99469966
0.99425367
0.99373686
0.9940263
0.99313457
0.9936262
0.99408097
0.99480722
0.99644438
0.99747582
0.9977876
1.0004705
0.99897064
0.99900247
1.0030348
1.0014975
1.0011776
1.0003665
1.0035407
1.0053588
1.0019698
1.0018885
1.0008509
0.99939642
1.001366
1.0002933
0.99769375
0.99674156
0.99605444
0.99616813
0.99494454
0.99524295
0.99374995
0.99409473
0.99349314
0.99332129
0.99345147
0.99377409
0.99459178
0.99605314
0.99710159
0.99783172
1.0001915
0.99899158
0.99966279
1.0034498
1.0019854
1.001574
1.0003491
1.0037455
1.0053416
1.0018264
0.99972214
1.0038286
1.0036148
1.0025313
0.99945458
0.99908983
0.99476937
0.99738532
0.9953573
0.99502454
0.99544824
0.99372521
0.99433763
0.99294847
0.99348654
0.99325783
0.99336829
0.9943848
0.99551162
0.99644266
0.99769917
0.99953295
0.99897162
1.0001493
1.0033314
1.0013298
1.0020727
1.0017191
1.0034733
1.0035948
1.0020829
0.99731039
1.0033716
1.0068412
1.0031415
0.99903423
0.99995109
0.99385203
0.99831012
0.994735
0.99534545
0.99499772
0.99413
0.99423603
0.99277259
0.99352951
0.99310057
0.99304838
0.99426873
0.9949826
0.99572523
0.99740153
0.99871977
0.99877389
1.0002028
1.0029833
1.0002116
1.0020529
1.0031511
1.0029652
1.0010983
1.0025882
0.99851739
1.0014012
1.0048213
1.0027792
0.99926931
0.99997542
0.99466537
0.99834529
0.99475981
0.99575129
0.99427767
0.99472488
0.99384761
0.99289864
0.99335422
0.99299423
0.99306267
0.9942496
0.9947644
0.99556566
0.99794765
0.99805132
0.99897425
1.0008671
1.0031504
0.99937667
1.001477
1.0043557
1.0032122
1.00026
1.0021654
1.0025712
1.0026582
1.0029676
1.0015593
1.0000349
0.99903635
0.99655449
0.99754722
0.99536408
0.99588482
0.99384596
0.99488699
0.99344133
0.99319581
0.99295096
0.99280838
0.99312045
0.9941295
0.99476157
0.9956657
0.99843336
0.99734447
0.99912685
1.0008876
1.0025415
0.99974415
1.0014481
1.0053277
1.0033855
1.0013301
1.0015368
1.0056424
1.0052524
1.0031784
1.0000892
1.0008366
0.99760026
0.99848452
0.99622614
0.99611252
0.99558851
0.99407196
0.99454877
0.99315346
0.99351958
0.99261005
0.99251326
0.99289051
0.9937776
0.99460583
0.99541923
0.99835157
0.99707981
0.9993703
1.0012176
1.001605
1.0006087
1.0014257
1.0054583
1.0031498
1.0030484
1.0027115
1.006872
1.0059727
1.0024002
0.99907744
1.0016386
0.99647962
0.99966297
0.99502581
0.99690584
0.99495781
0.9947932
0.99407106
0.9932582
0.99373428
0.99266878
0.99231841
0.99264344
0.99348994
0.99431508
0.99498537
0.99744514
0.99658595
0.99946397
1.0014347
1.0005454
1.0021645
1.0019133
1.0049434
1.0031656
1.0035632
1.0038971
1.0068359
1.0056675
1.0021864
0.99901971
1.0020742
0.99625928
0.99939126
0.9945943
0.99721879
0.99431935
0.99549965
0.99368905
0.99374548
0.99374711
0.99294885
0.99235217
0.99269285
0.9932943
0.99397949
0.99471971
0.99633303
0.99648345
0.99981104
1.0016084
0.99970478
1.0034038
1.0033571
1.0035809
1.0034651
1.003598
1.0042544
1.005899
1.0047838
1.0033473
0.99984136
1.0016767
0.99679026
0.99776382
0.9951796
0.99684075
0.99423478
0.99573649
0.99368737
0.99418877
0.99363524
0.99309866
0.99258484
0.99300467
0.99304568
0.99364452
0.9948353
0.99575672
0.99684776
0.99981391
1.0013182
0.99893412
1.0035918
1.0050213
1.0024182
1.0035911
1.0041156
1.004882
1.0040477
1.0024306
1.0034744
1.0011529
1.0005923
0.99809615
0.99594645
0.9965212
0.99600934
0.99479695
0.9952535
0.99409374
0.9942595
0.99347506
0.99298738
0.99278711
0.9931905
0.99268553
0.99341823
0.99541673
0.99575096
0.99707445
0.99949938
1.0008221
0.99848794
1.0030249
1.0062769
1.0021448
1.0029535
1.0046624
1.0059849
1.0029907
1.0003855
1.0018455
1.0025631
0.99971474
0.99952379
0.99491961
0.99805765
0.99518134
0.9955868
0.99436595
0.99450092
0.99398044
0.99316838
0.99264131
0.99275339
0.99292579
0.99228947
0.99326846
0.99588039
0.99556744
0.99732911
0.9992177
1.0008382
0.99882175
1.0019555
1.0065158
1.0026983
1.0019928
1.0050833
1.0073358
1.0038525
1.0006226
1.0007491
1.003384
0.99942506
1.0002778
0.99508867
0.99891956
0.99476623
0.99620835
0.99372763
0.99462093
0.9936012
0.99289829
0.99247594
0.99249934
0.99240812
0.99208236
0.99309465
0.99568445
0.99466704
0.99719999
0.9984855
1.0007855
1.0000735
1.0013704
1.0051585
1.0037392
1.001844
1.0048207
1.0072596
1.0047879
1.002781
1.002613
1.0030979
0.99957953
1.0001415
0.99646029
0.99857437
0.99502559
0.9962929
0.99373838
0.9944326
0.99341011
0.99288152
0.99267645
0.9923074
0.99204418
0.9923245
0.99302741
0.99491922
0.99371617
0.99701606
0.99774826
1.0000937
1.0015427
1.0020058
1.0026015
1.0042745
1.0034036
1.0044718
1.0055011
1.0045603
1.0050318
1.0057125
1.0016174
1.0002555
0.99940711
0.99810028
0.99718167
0.99582216
0.99569123
0.99444914
0.9940531
0.99353222
0.99320763
0.99302641
0.99231798
0.99202666
0.99277246
0.99302933
0.9941512
0.99359173
0.99755981
0.99747026
0.99850973
1.0020504
1.0032358
1.0006694
1.0036001
1.0056827
1.0054668
1.0041154
1.0036573
1.0063058
1.0067806
0.99979002
1.0012678
0.99791683
0.99904548
0.9956401
0.9967406
0.99477587
0.99523547
0.99384
0.9937487
0.99360378
0.99311692
0.99250422
0.99215031
0.99292292
0.99301791
0.99376975
0.99430679
0.99835416
0.9975601
0.99685347
1.0018383
1.0042295
1.0003289
1.0021103
1.0069048
1.0074248
1.0037412
1.0027071
1.0061791
1.0066231
0.99880775
1.0022213
0.99662605
0.99886757
0.99497544
0.99741419
0.99424014
0.99549623
0.99395481
0.99388591
0.99382187
0.9929055
0.99269178
0.99220132
0.99264823
0.99304897
0.99372841
0.99488485
0.99800081
0.99781198
0.99627986
1.0016184
1.0042653
1.001413
1.0012932
1.0069302
1.0084283
1.0038569
1.0023811
1.0050566
1.0062422
0.99890868
1.0023251
0.99659602
0.99820047
0.99526713
0.9974573
0.99429482
0.99538638
0.99425363
0.9938781
0.99377214
0.99263179
0.99274134
0.99213958
0.9923153
0.99309606
0.99349488
0.99494327
0.99625808
0.99751499
0.99684038
1.0012255
1.0031105
1.0027314
1.0020976
1.0063379
1.0075273
1.0042575
1.0032805
1.0042937
1.0050587
1.0000269
1.0014334
0.9975188
0.99727753
0.99639706
0.99672296
0.99494913
0.99487423
0.9944226
0.99386844
0.99352763
0.99261111
0.99260408
0.99212232
0.99210643
0.99307513
0.99312608
0.99469278
0.99480482
0.99675803
0.9980526
1.0005264
1.0015852
1.0031915
1.0036889
1.0054442
1.0054257
1.0049966
1.0054892
1.0049877
1.0041148
1.0019587
1.000173
0.99926929
0.99664185
0.99786468
0.99565348
0.99590893
0.9946143
0.99433434
0.99382498
0.99318684
0.99286572
0.99237212
0.99229294
0.99235843
0.99267223
0.99270138
0.99557732
0.99425872
0.99640998
0.99975881
0.99958124
1.0000804
1.0026348
1.0051959
1.0046349
1.0025329
1.0046413
1.0076443
1.0071024
1.004743
1.0036584
0.99969677
1.0007448
0.99773587
0.99866103
0.99556215
0.9978605
0.9938391
0.99360734
0.99420494
0.99333581
0.9932239
0.99217032
0.9927563
0.9924268
0.99276294
0.99236133
0.99582006
0.99505406
0.99620232
1.0011564
0.99909109
0.99938309
1.0017542
1.0060895
1.004573
1.0009678
1.0032514
1.00789
1.0086147
1.006278
1.0027926
1.0034107
1.0051186
1.0057034
1.0047682
1.0045846
1.0059975
1.0066916
1.0047578
1.0036385
1.0052646
1.0048126
1.0000066
0.99729815
1.0000524
1.0025245
1.0027186
1.0049855
1.0069467
1.0033949
1.0008045
1.0021789
1.0001329
1.0045401
1.0054543
1.0046805
1.0020758
0.99958588
0.99979183
1.0022223
1.0040205
1.0038119
1.0048482
1.0072324
1.005742
1.0016062
1.0008702
1.0032722
1.0043674
1.0018693
0.99934211
0.99879313
0.99754021
1.0002154
1.0043007
1.0046658
1.0065408
1.0051663
1.003049
1.0014891
1.0017139
1.0030271
1.0036847
1.002246
1.0000848
0.99972049
1.0004638
1.0007848
1.0025768
1.0058643
1.0070725
1.0048736
1.0016439
1.0007454
1.0000605
0.99760209
0.99774471
1.0003429
1.0022427
1.0010099
1.0012106
1.0025289
1.0044493
1.0055804
1.0051016
1.0035726
1.002172
1.0009321
0.99933146
0.99790205
0.9983038
1.0007669
1.0031073
1.0026949
1.0000806
0.99949426
1.002455
1.0047692
1.0034942
1.0022393
1.0022061
1.0005713
0.99811012
1.0001665
1.0025304
1.0034153
1.002419
1.0003519
0.99945228
1.000538
1.0019094
1.0023089
1.0023171
1.0026261
1.0025151
1.0005776
0.99721025
0.99465906
0.99593415
1.0001575
1.0026884
1.0032968
1.0046697
1.0058343
1.0036552
1.0020726
1.0025094
1.0018489
0.99969548
0.99743491
0.99648574
0.99733472
0.9990617
1.0005045
1.0016661
1.0026686
1.0034481
1.0028495
1.000466
0.99737783
0.99622197
0.99801114
0.99988518
0.99942681
0.9984039
0.99906185
1.0007909
1.0010459
1.0021673
1.0007844
0.99908326
0.99810696
0.99853024
0.99975789
1.0005655
1.0001697
0.99889315
0.99769469
0.99743188
0.99795651
0.99824654
0.99822975
0.9989328
1.0007579
1.0023798
1.0023799
1.0003378
0.99757734
0.99549717
0.99452601
0.99412684
0.99583693
0.99580321
0.99692266
0.99900674
1.0013119
1.0028623
1.0027406
1.0008422
0.9981319
0.99581977
0.99452437
0.99423696
0.99477952
0.99634399
0.99874
1.0008519
1.0018213
1.0014789
1.0001572
0.99844906
0.99694786
0.99575149
0.99447235
0.99454532
0.99553856
0.99696431
0.99848913
0.99950861
0.99960998
0.99877924
0.99741702
0.99635382
0.99595914
0.99618551
0.99686138
0.99762444
0.99808701
0.99805097
0.9976707
0.9974819
0.99710637
0.99650294
0.99626295
0.9969622
0.99826375
0.99906398
0.99901796
0.99878651
0.99794205
0.99661588
0.99512031
0.99364604
0.99265743
0.99263435
0.99363919
0.99554638
0.99793818
1.0001601
1.001035
1.0001749
0.99829011
0.99617363
0.99451269
0.99309236
0.99231704
0.99287005
0.99490535
0.99760286
0.99984869
1.0004121
0.9993217
0.99755298
0.99552432
0.99364855
0.99215016
0.99139818
0.99156764
0.99266482
0.99463431
0.99710611
0.99913914
0.99974439
0.99887231
0.99705023
0.99494568
0.99336888
0.99252432
0.99250095
0.99325383
0.99447296
0.99580767
0.99739741
0.99579695
0.99540216
0.99506291
0.99493153
0.99504267
0.99515875
0.99507837
0.99479571
0.9946283
0.99474544
0.99509983
0.9953167
0.99515234
0.9946525
0.99381845
0.99302044
0.99264785
0.993182
0.99456282
0.99612656
0.99686166
0.99646888
0.9957951
0.99073196
0.99119092
0.99223597
0.99381034
0.99556207
0.99705619
0.99787081
0.99784163
0.99698851
0.99551977
0.99386487
0.99247511
0.99160268
0.9911055
0.99093492
0.99121237
0.99208236
0.9937863
0.99579777
0.99729867
0.99759629
0.9969151
0.99543395
0.98906825
0.9900082
0.99133629
0.9929628
0.99470496
0.99624961
0.99728922
0.99749787
0.99677889
0.99521355
0.99330154
0.99170813
0.99061242
0.99006832
0.99005838
0.99054864
0.99170589
0.99352472
0.9954862
0.99682741
0.99712254
0.99650382
0.99483271
0.99071948
0.9912285
0.99163576
0.99228932
0.99318676
0.99413284
0.994792
0.99481108
0.9941693
0.99318325
0.99222425
0.99152916
0.99109896
0.99095262
0.99091151
0.99113808
0.99183204
0.99303621
0.9944566
0.9956851
0.99617207
0.9954766
0.9938707
0.99222684
0.99247075
0.9924189
0.99231131
0.99221016
0.99209726
0.99188696
0.99140495
0.99085174
0.99053063
0.9906043
0.9910735
0.99170944
0.99214927
0.9923028
0.99239643
0.99247268
0.99272738
0.99327062
0.993835
0.99386634
0.99330316
0.99225825
0.99303582
0.99314536
0.99279208
0.99225331
0.99168664
0.99093241
0.98996097
0.98896159
0.9883172
0.98835629
0.98929199
0.99075834
0.99241732
0.99356226
0.99417362
0.994162
0.99350097
0.99265946
0.99188841
0.9912765
0.9907087
0.99007436
0.98966278
0.99288492
0.99294627
0.99250464
0.99173643
0.99075404
0.98968473
0.98863123
0.9877246
0.98725962
0.98757418
0.9887569
0.99067171
0.99272271
0.99432694
0.9951013
0.9949889
0.9941487
0.99283631
0.99134887
0.9898866
0.98856522
0.98766899
0.98748994
0.99268867
0.99264988
0.99195037
0.99073458
0.98925579
0.98798876
0.98716895
0.98687133
0.98712207
0.98792232
0.98930259
0.99107291
0.99277616
0.99403614
0.99467748
0.99462035
0.99391731
0.99264523
0.99090531
0.98893652
0.98734246
0.98665666
0.98701875
0.99325094
0.99301227
0.99200349
0.99034927
0.98850183
0.98691411
0.98589206
0.98561039
0.98617408
0.98747493
0.98937476
0.9913745
0.99288821
0.9936642
0.99380765
0.99355551
0.99295056
0.9917191
0.98973067
0.98752592
0.98615494
0.98642362
0.98820712
0.99190054
0.99201441
0.99156155
0.99064417
0.98932207
0.98789207
0.9865521
0.98542606
0.98501811
0.98568156
0.98747995
0.98990821
0.99197016
0.99309385
0.99350461
0.99346319
0.99290225
0.99131554
0.98877403
0.98618203
0.98499856
0.98599059
0.98866001
0.98943199
0.99009522
0.99049183
0.99057826
0.99018429
0.98907895
0.98724445
0.98519851
0.9839179
0.98411246
0.98587955
0.98866453
0.99165333
0.9940299
0.99533622
0.99524115
0.99363351
0.99087024
0.98765872
0.98498788
0.98402985
0.98541617
0.98848097
0.9893197
0.98997351
0.99044711
0.99040352
0.98957901
0.98770577
0.98532352
0.98344676
0.98296775
0.98419352
0.9868707
0.99033368
0.99373837
0.99606831
0.99653271
0.99510447
0.99228922
0.98869307
0.98547934
0.98391575
0.98486467
0.98728441
0.98977796
0.99030292
0.99054391
0.9902746
0.98953324
0.9883318
0.98652421
0.98450347
0.98301841
0.98287401
0.9844338
0.98736867
0.99086982
0.99384403
0.99530827
0.99471678
0.99250043
0.98942656
0.98656609
0.98518767
0.98581671
0.98737236
0.98863856
0.98965775
0.98841782
0.98904082
0.98935915
0.98931889
0.98884234
0.98758231
0.98576299
0.98393542
0.98301897
0.98373414
0.98594043
0.98901896
0.99192712
0.99359881
0.99343436
0.99154015
0.98887125
0.98693497
0.98646904
0.98683054
0.9870626
0.9872846
0.98851137
0.98666668
0.98702555
0.98730723
0.98785211
0.98834798
0.98818944
0.98709856
0.98535021
0.98411567
0.98457662
0.98652514
0.98874486
0.9904309
0.99154018
0.99173647
0.99097262
0.9896227
0.98808663
0.98650057
0.98541809
0.98552876
0.98693094
0.98964811
0.98562113
0.98605535
0.98601348
0.98569724
0.98596722
0.98676316
0.98755541
0.98806275
0.98824421
0.98826882
0.987704
0.9870256
0.98688101
0.98742687
0.98868315
0.98997612
0.99019394
0.98918115
0.98782442
0.98665414
0.98612568
0.98696424
0.98923663
0.98556197
0.98546833
0.98489784
0.98469138
0.98520394
0.98641185
0.9883197
0.9903289
0.99098963
0.98963336
0.98679868
0.98361474
0.98210664
0.98313277
0.98617301
0.98998026
0.99273724
0.99247351
0.98969917
0.98686608
0.98564976
0.98629442
0.98717833
0.98387974
0.98454407
0.98467147
0.98465402
0.98547721
0.98726578
0.98922871
0.99035657
0.9901526
0.98813216
0.98488944
0.98193737
0.9806757
0.98234304
0.98603279
0.9896251
0.99144402
0.99175824
0.99118931
0.99008818
0.98773518
0.98412659
0.98139098
0.98215539
0.98349757
0.98498078
0.9866437
0.98749785
0.98748792
0.98735767
0.98743963
0.9874927
0.98732321
0.98652367
0.98454975
0.98173922
0.98078028
0.98305732
0.98729459
0.99072879
0.9925455
0.9925135
0.99025966
0.9860039
0.9821081
0.98137308
0.98611653
0.98531771
0.98509198
0.98544662
0.98604042
0.98577759
0.98496712
0.98502613
0.9869913
0.9886004
0.98768847
0.98487656
0.98239902
0.98162187
0.98304331
0.98629403
0.98918784
0.98949402
0.98740459
0.98599754
0.98648694
0.98727523
0.98739645
0.99049862
0.98795494
0.9843971
0.98217375
0.98194525
0.98288831
0.98405671
0.98440946
0.98425595
0.98505383
0.9870392
0.98726492
0.985801
0.98509996
0.98457636
0.98362189
0.98346358
0.98479391
0.98595097
0.98695627
0.98842895
0.98873957
0.98835445
0.98564971
0.98698785
0.98636396
0.98412504
0.98165219
0.98059347
0.98126195
0.98285054
0.98476577
0.98571854
0.98637218
0.98755478
0.98764674
0.98594089
0.98362714
0.98171163
0.98057011
0.98272259
0.98626888
0.98825584
0.98861915
0.98791791
0.9866299
0.98074196
0.98209316
0.98428891
0.98586112
0.98572992
0.98426212
0.98275284
0.98265205
0.98489582
0.9874094
0.98743525
0.98593671
0.98452871
0.98411581
0.9841231
0.98216849
0.97942419
0.98010031
0.98385537
0.98710971
0.98854145
0.9868927
0.98399841
0.9812818
0.98157409
0.98315972
0.98542482
0.98799198
0.98905976
0.98724993
0.98447783
0.98309814
0.98290683
0.98288974
0.98261168
0.98150008
0.98217861
0.98659335
0.98893582
0.98543696
0.98041784
0.97846917
0.97898301
0.98048398
0.98052682
0.98262557
0.98473754
0.98353545
0.98350063
0.9840248
0.98468716
0.98639853
0.98779917
0.98660471
0.98338713
0.9798697
0.97871035
0.9812397
0.98416773
0.9845272
0.98545429
0.98700389
0.98563361
0.98164645
0.97814107
0.97538599
0.97293828
0.97202811
0.97376389
0.98763131
0.98531765
0.98366449
0.9832318
0.98245925
0.98162039
0.98241901
0.98484005
0.98651832
0.98449076
0.98099812
0.98009541
0.98248835
0.98541625
0.98742122
0.98771218
0.98464656
0.97974063
0.97713404
0.97685014
0.97614744
0.97307039
0.96952374
0.98592855
0.98493782
0.98256456
0.9817451
0.9826087
0.98259681
0.98116639
0.98119246
0.98454808
0.98859005
0.98884276
0.98637201
0.9846738
0.98347298
0.98230286
0.98176101
0.98077522
0.97870656
0.97748467
0.97939598
0.98237244
0.9822959
0.97599964
0.98146004
0.98314769
0.9832237
0.98312746
0.98371398
0.98509254
0.98602088
0.98525236
0.98420258
0.98536159
0.98735137
0.98786688
0.98744195
0.9860347
0.98217964
0.9780555
0.97567149
0.97585785
0.97842511
0.98243675
0.98547536
0.9858001
0.97990938
0.98183676
0.98292996
0.98484523
0.98619476
0.98680827
0.98723843
0.98776301
0.98790502
0.98622725
0.98375074
0.98252989
0.98174943
0.98092645
0.98126131
0.98290071
0.9838387
0.98382647
0.98334873
0.98388873
0.98473241
0.9844378
0.98284614
0.97851536
0.9857607
0.98497432
0.98524193
0.98550836
0.98563726
0.98551929
0.98512059
0.9847781
0.98370294
0.98129289
0.9795282
0.98024718
0.98160599
0.98257721
0.98465696
0.98820419
0.99077358
0.99022538
0.98831788
0.98636092
0.9841384
0.98209807
0.97913377
0.98640699
0.98562225
0.98517427
0.98448097
0.98340798
0.98197202
0.98044754
0.98029816
0.98186717
0.98375735
0.98510144
0.98678619
0.98884353
0.98954179
0.98830861
0.98724283
0.98784944
0.9871951
0.98553152
0.9842428
0.98251083
0.98069687
0.98057403
0.98396279
0.98341011
0.98279692
0.98274746
0.98320388
0.98399527
0.98411165
0.98406708
0.98590715
0.98863998
0.99033895
0.99083924
0.99059203
0.99001759
0.98784046
0.98391015
0.98208342
0.98168604
0.98130592
0.98081514
0.98144247
0.9818007
0.98461532
0.98095109
0.98190831
0.98396466
0.98646941
0.98848835
0.9898483
0.99059147
0.98917292
0.98761734
0.98728878
0.98667416
0.98526331
0.98365695
0.98238259
0.9823182
0.98141808
0.98131289
0.98299241
0.98595491
0.98707821
0.98868003
0.9895136
0.98903746
0.98810759
0.98652655
0.98600691
0.98610424
0.98639882
0.98701183
0.98702543
0.98576646
0.98416089
0.98307855
0.98265088
0.98284255
0.98276492
0.98249132
0.98381201
0.98499265
0.98608178
0.98770521
0.99073332
0.99216176
0.99222576
0.99030928
0.98905358
0.98926372
0.98807457
0.98557398
0.98376191
0.98217359
0.98149304
0.98148452
0.98190176
0.98246997
0.98321755
0.98466888
0.98773992
0.98976454
0.99024948
0.99095388
0.9906033
0.99051943
0.98979451
0.98992757
0.98949119
0.98725492
0.98433524
0.98518394
0.98169226
0.98277808
0.9836458
0.98451539
0.98551676
0.98663605
0.98748996
0.98803472
0.98874986
0.98898549
0.98857717
0.9883912
0.9884139
0.98805433
0.98786325
0.98762538
0.98899602
0.98833616
0.98716359
0.9853706
0.98405733
0.98347337
0.98497269
0.98488088
0.98487268
0.98538536
0.98611545
0.98682249
0.98774869
0.98863472
0.98915773
0.99010323
0.99022904
0.98877756
0.98651732
0.98491641
0.98392299
0.983854
0.9833535
0.98464898
0.98532532
0.98534846
0.98492374
0.98704013
0.98894666
0.99054415
0.98771409
0.98721447
0.98671145
0.98604719
0.9854982
0.98507058
0.98449243
0.98380496
0.98371549
0.98408345
0.98429124
0.98434295
0.9852759
0.98598602
0.98763379
0.98850168
0.98848227
0.98928297
0.98981163
0.98984917
0.99115124
0.99144881
0.99307312
0.98316935
0.98292388
0.98349157
0.98445131
0.98534955
0.986048
0.98630995
0.98580812
0.98481312
0.98457635
0.98524162
0.98631108
0.98767893
0.98903189
0.99052809
0.99208012
0.99184464
0.99152278
0.99107473
0.99074167
0.99006305
0.9896904
0.99018872
0.98583357
0.98475077
0.98388965
0.98400981
0.98524264
0.98639467
0.98740976
0.98863624
0.98910768
0.98912264
0.98958147
0.99021519
0.99029992
0.98960367
0.98894632
0.98913538
0.98803861
0.98663825
0.986236
0.98684261
0.98714686
0.98822276
0.9882362
0.98756435
0.98733109
0.98645761
0.98540826
0.98491934
0.98553084
0.98577915
0.98587009
0.98641233
0.98671898
0.98664282
0.98695075
0.98707079
0.98643001
0.98616338
0.98617679
0.98623547
0.9856809
0.9872067
0.98914197
0.99128937
0.99261837
0.9930228
0.98316509
0.98361656
0.9844595
0.98510236
0.9856335
0.98620538
0.98705242
0.9868419
0.98626744
0.98646619
0.98600995
0.98575576
0.98675425
0.98740756
0.98844363
0.98930584
0.99059361
0.99082103
0.99185562
0.9925435
0.99320147
0.99276164
0.99290922
0.9852553
0.9845672
0.98464878
0.98547424
0.98640074
0.98695312
0.98762105
0.9883967
0.98812607
0.98797755
0.98798373
0.98762154
0.98837369
0.98904814
0.98931564
0.98947003
0.99005934
0.99077726
0.9903521
0.9900347
0.98973116
0.98919491
0.98929181
0.98759765
0.98687175
0.98627363
0.98624307
0.98672611
0.98674639
0.98617673
0.98609562
0.986024
0.98580797
0.98681385
0.98780892
0.98869189
0.98997367
0.99009041
0.98971566
0.9892301
0.9898802
0.98996017
0.99024518
0.99109558
0.99234738
0.99255423
0.98550082
0.98559013
0.98556997
0.98585952
0.98682542
0.98774196
0.98775027
0.98743032
0.98757594
0.98741287
0.98772382
0.98870572
0.98889419
0.98957925
0.99010278
0.99000615
0.98956569
0.98936467
0.99004445
0.99021577
0.99074348
0.99176595
0.99210732
0.98690505
0.98694754
0.98683017
0.98668806
0.98692319
0.98761592
0.9881859
0.98811872
0.98822761
0.98837104
0.98812862
0.98864288
0.98874423
0.98851486
0.9888304
0.98917171
0.98987645
0.99039546
0.99185201
0.99305731
0.99338625
0.99344515
0.99362379
0.98736006
0.9873252
0.98751081
0.98764325
0.98778446
0.98772457
0.98797999
0.98828017
0.9881781
0.98854262
0.98900399
0.98967883
0.99070416
0.99073309
0.99075885
0.99095434
0.99150171
0.99178038
0.99196706
0.99251463
0.99272948
0.99245464
0.99238178
0.98908819
0.9886622
0.98825026
0.98824815
0.98870973
0.98899162
0.98899793
0.98929585
0.98946339
0.98953207
0.98954945
0.9891973
0.98950759
0.98984969
0.98994698
0.99042157
0.99130242
0.99195545
0.99206241
0.99207329
0.99262905
0.99267528
0.99268514
0.98957115
0.98939025
0.98902771
0.98873964
0.98866598
0.98885631
0.98904418
0.98933993
0.9896268
0.99000011
0.99047836
0.99027867
0.99021864
0.99091059
0.99156742
0.99196076
0.99239862
0.99294022
0.99324892
0.99313427
0.99343765
0.99390189
0.99422251
0.9892431
0.98958941
0.99009041
0.99043499
0.99053264
0.99043196
0.99029733
0.99037579
0.99057506
0.99059102
0.99096326
0.99149382
0.991734
0.99217034
0.99261288
0.99274476
0.99264587
0.9925071
0.99301599
0.99340731
0.99380536
0.9945088
0.99524943
0.99086874
0.99068209
0.99093768
0.9912071
0.9912987
0.99133635
0.99119554
0.99094247
0.99108549
0.99127037
0.9911331
0.99148201
0.99205099
0.99235089
0.99262395
0.99284868
0.99323345
0.99351907
0.99407738
0.9946615
0.99484175
0.99506776
0.99539276
0.99245674
0.99182354
0.99133546
0.9911643
0.99115179
0.99125228
0.99135568
0.99145774
0.99176298
0.99212145
0.99233921
0.99246547
0.99263351
0.99284997
0.99310829
0.99337952
0.99360045
0.99395364
0.9943254
0.99473298
0.99488556
0.99505896
0.99546914
0.99256019
0.99233114
0.99198512
0.99190455
0.99200214
0.99213591
0.9922606
0.99228911
0.99232732
0.99250197
0.99274839
0.99291074
0.99289197
0.99293758
0.9932974
0.99374935
0.99403198
0.9942794
0.99441452
0.99480291
0.99506175
0.99522429
0.9953859
0.99301926
0.99295284
0.99283954
0.99267675
0.99263731
0.99274387
0.99283786
0.99280499
0.9927844
0.99277474
0.99273492
0.99289085
0.99306206
0.99317006
0.99339713
0.99385481
0.99432717
0.99465876
0.9948038
0.9950789
0.99554345
0.99593074
0.99620162
0.99365515
0.9933445
0.99315076
0.99316938
0.99310901
0.99298012
0.99303324
0.9931151
0.99311413
0.99319727
0.99326806
0.99333661
0.99352207
0.99357691
0.99375114
0.99415401
0.99428663
0.99434828
0.99438179
0.99448009
0.99481808
0.99527302
0.99562925
0.99403343
0.99388623
0.9937233
0.99370302
0.99376092
0.99361787
0.99328618
0.99319734
0.99332097
0.99324807
0.99305472
0.99307849
0.99333633
0.99353512
0.99364853
0.993893
0.99407515
0.99403766
0.99415961
0.99424695
0.99456314
0.99494133
0.99562366
0.99462187
0.99451498
0.99424162
0.99391358
0.9938068
0.99379178
0.99358924
0.99335523
0.99343449
0.99372568
0.9937862
0.99385105
0.99404229
0.99406671
0.99372522
0.99349873
0.99347962
0.99377154
0.99422238
0.9945547
0.99504129
0.99535751
0.9956327
0.9954409
0.99522216
0.99496805
0.99447626
0.99412621
0.99422141
0.99449552
0.99461061
0.994407
0.9941218
0.99398666
0.99375888
0.99366762
0.99372067
0.9939098
0.99412058
0.99423743
0.99427237
0.99446555
0.99469039
0.99464855
0.99470761
0.99494787
0.99612932
0.99586001
0.99567354
0.99544525
0.99505466
0.99468118
0.99456358
0.99474122
0.99489378
0.99478458
0.9945724
0.99449883
0.99449474
0.99456916
0.99447797
0.99445362
0.99441093
0.99432667
0.99432405
0.99430188
0.99447269
0.99478595
0.99533879
0.99693771
0.99653847
0.99617438
0.99595555
0.99591303
0.99596815
0.99599389
0.99588982
0.99568505
0.99547988
0.99530205
0.99505815
0.99503016
0.99507876
0.99512042
0.99502576
0.99503092
0.99493981
0.99502434
0.99513428
0.99541463
0.99555612
0.99560511
0.99778417
0.99747617
0.99714006
0.99694055
0.99681775
0.99671258
0.99671429
0.99678502
0.9967505
0.99667358
0.99652375
0.99637478
0.99625409
0.99600196
0.99589412
0.9959147
0.99593627
0.99597318
0.99592389
0.99598467
0.99586194
0.99571911
0.99560097
0.99846412
0.99843251
0.99846824
0.99852041
0.99853124
0.99832029
0.99781353
0.99737243
0.99726083
0.99739777
0.99756458
0.99765036
0.9976325
0.99747411
0.99720816
0.99705083
0.99719792
0.99733295
0.99719108
0.99697077
0.99675905
0.99678236
0.99704663
0.99946698
0.99943244
0.99955429
0.9996044
0.9995815
0.9995038
0.9992701
0.99889973
0.99858655
0.9984782
0.99856842
0.99876967
0.99890181
0.99886939
0.99868638
0.99837004
0.99812752
0.99799935
0.99800639
0.9982008
0.99855021
0.99876701
0.99874949
1.0010049
1.0007806
1.0006684
1.0004889
1.0002956
1.0001887
1.0001361
1.0001102
1.0002165
1.0002884
1.0001782
0.99999937
0.99990491
0.99994004
0.9999138
0.99963554
0.99951577
0.99960026
0.99990399
0.99996776
0.99983717
0.99966956
0.99921499
1.002281
1.0019126
1.0015829
1.0014097
1.001335
1.0014132
1.0015593
1.0015894
1.001454
1.0013182
1.0010687
1.0007191
1.0004417
1.0003746
1.0007162
1.0012557
1.0014378
1.0013325
1.0011294
1.0009422
1.0004602
1.0001313
1.0001437
1.0030786
1.0029682
1.0027887
1.0025023
1.0022067
1.0021026
1.0021327
1.002204
1.0021884
1.0020797
1.0020706
1.0021498
1.0021851
1.0021145
1.0020656
1.0021193
1.0020618
1.0017499
1.0012622
1.0011899
1.0013933
1.0014453
1.0015382
1.0035055
1.0034606
1.0035366
1.0036135
1.0035086
1.0032878
1.00312
1.0030914
1.0031158
1.0030133
1.0028836
1.0027918
1.002788
1.0028004
1.0026042
1.0022896
1.002289
1.0025497
1.0026045
1.0025191
1.0026841
1.0028665
1.0026586
1.004051
1.0041433
1.0044286
1.0047306
1.0048726
1.0047923
1.0044439
1.0038215
1.0033551
1.0032575
1.0033678
1.0035777
1.0036591
1.0035748
1.0036237
1.0035706
1.003292
1.0031521
1.0033216
1.0035154
1.003393
1.0030546
1.0027901
1.006047
1.0056261
1.0053315
1.0050637
1.0049558
1.005018
1.0050321
1.004847
1.0045821
1.0042966
1.0042027
1.0043558
1.0044466
1.0043288
1.0041119
1.0040105
1.0039745
1.0037294
1.0035385
1.0033673
1.0033729
1.003289
1.0037739
1.0069308
1.0065604
1.0062155
1.0057981
1.0055094
1.0054819
1.0055198
1.0056354
1.0057929
1.0057166
1.0053183
1.0049784
1.0046638
1.0044924
1.0043664
1.0043201
1.0043816
1.0043276
1.0041117
1.0037205
1.0035889
1.0037517
1.0024725
1.0073353
1.0074341
1.0074069
1.007154
1.0068983
1.0067458
1.0064417
1.0061555
1.0061589
1.0062357
1.0061285
1.0059351
1.0054765
1.0050652
1.0049514
1.0048403
1.0047895
1.0046556
1.0046558
1.004817
1.0048472
1.004746
1.0058773
1.0079512
1.0079889
1.0080465
1.0081135
1.0080285
1.0078883
1.0076752
1.0073172
1.0069906
1.006737
1.0064879
1.0063401
1.0062573
1.0059982
1.0057723
1.0055797
1.0054886
1.0054456
1.0054314
1.005475
1.0053943
1.0051949
1.0055946
1.0087608
1.0086406
1.0085203
1.0084767
1.0085146
1.0085322
1.0085148
1.0083226
1.0079383
1.0075009
1.0071344
1.0069031
1.0069128
1.0069106
1.0068973
1.0067619
1.0064895
1.0063653
1.0062824
1.0060053
1.0057345
1.0057013
1.0059383
1.0094558
1.0094598
1.0095555
1.0094935
1.0093239
1.0091758
1.0090713
1.0089854
1.0088412
1.0086792
1.0084872
1.0082565
1.0081922
1.0082377
1.0081395
1.0080549
1.0079377
1.0076963
1.0074207
1.0071612
1.0069447
1.0069235
1.0077834
1.0104698
1.0102789
1.0101873
1.0101048
1.0099272
1.0097794
1.0097257
1.0097321
1.0098197
1.0099879
1.0100961
1.0099657
1.0097502
1.0095546
1.0092469
1.0091729
1.0090992
1.0089806
1.0088141
1.008749
1.0086645
1.0085374
1.0098128
1.0109505
1.0108089
1.0105778
1.0104607
1.010414
1.010438
1.0105557
1.0106642
1.0107428
1.010873
1.0109962
1.0108638
1.0107121
1.0106934
1.0105603
1.0104181
1.0102921
1.010238
1.0103322
1.0103926
1.0103336
1.0099818
1.0113
1.0107069
1.0108201
1.0109172
1.0110941
1.0112819
1.0112598
1.0111599
1.0111754
1.0111975
1.0112182
1.0111959
1.0110661
1.0110519
1.0112694
1.0115198
1.0115992
1.0115622
1.011467
1.0115013
1.0115186
1.0114577
1.0117618
1.0129709
1.011304
1.0111966