/*--------------------------------*- C++ -*----------------------------------*\
| =========                 |                                                 |
| \\      /  F ield         | OpenFOAM: The Open Source CFD Toolbox           |
|  \\    /   O peration     | Version:  2406                                  |
|   \\  /    A nd           | Website:  www.openfoam.com                      |
|    \\/     M anipulation  |                                                 |
\*---------------------------------------------------------------------------*/
FoamFile
{
    version     2.0;
    format      ascii;
    arch        "LSB;label=32;scalar=64";
    class       volVectorField;
    location    "10";
    object      U_0;
}
// * * * * * * * * * * * * * * * * * * * * * * * * * * * * * * * * * * * * * //

dimensions      [0 1 -1 0 0 0 0];

internalField   nonuniform List<vector> 
20580
(
(0.13385712 -3.509507e-05 -4.1534634e-22)
(0.12701933 0.00010474556 -5.9391769e-20)
(0.12665841 0.0008142327 9.8792543e-22)
(0.12316002 0.0010115736 3.5563984e-20)
(0.11704821 0.0021376176 6.2910306e-23)
(0.11630509 0.0030896532 2.5545435e-20)
(0.11711073 0.0027934823 -7.1653075e-22)
(0.11749994 0.0050629021 6.519307e-21)
(0.11957668 0.0056776572 4.1428235e-22)
(0.1203533 0.0074019285 0)
(0.12102708 0.0083989568 5.2675116e-21)
(0.12089561 0.0084706538 -4.2394275e-20)
(0.12032915 0.0086274543 -4.3119638e-21)
(0.11949514 0.007650079 5.2434175e-21)
(0.11849077 0.0058638073 1.0177222e-20)
(0.11748193 0.0039321348 -1.2418875e-21)
(0.1165617 0.0026946 1.1865154e-20)
(0.11621743 -0.00039292956 1.0977091e-21)
(0.11541585 -0.00130081 -2.0769368e-20)
(0.11544123 -0.0029552894 -4.3479331e-21)
(0.11682806 -0.0075865565 1.3553057e-22)
(0.11650527 -0.0088052336 7.6244601e-21)
(0.11655311 -0.010354052 -3.6683452e-21)
(0.11745383 -0.014602007 1.2610261e-20)
(0.119021 -0.019093239 1.7957428e-20)
(0.11900531 -0.021895804 2.5803062e-20)
(0.11931585 -0.02366885 -1.2258369e-20)
(0.11952786 -0.026507235 -2.577215e-21)
(0.12147808 -0.032286438 -1.0410795e-20)
(0.12469246 -0.038252961 2.9226657e-20)
(0.12899092 -0.046738165 -3.1649731e-21)
(0.13313024 0.0010595052 0)
(0.12676994 0.00066508022 5.2062607e-20)
(0.12699964 0.00020618861 3.1390835e-20)
(0.12245377 0.0025096501 -1.6430074e-20)
(0.11794161 0.0010659167 -1.6709975e-21)
(0.11644297 0.0025144469 4.412911e-23)
(0.11660787 0.0036251737 6.6628768e-21)
(0.11798019 0.0040892562 1.0960061e-20)
(0.11953055 0.0056518961 -2.2368014e-20)
(0.12052368 0.0071016596 6.385327e-21)
(0.12112473 0.0084948788 -1.3670696e-21)
(0.12112433 0.0086709562 -1.5199599e-22)
(0.12073617 0.0084872028 -6.9600629e-21)
(0.12015013 0.0074726847 -3.0533578e-22)
(0.11921208 0.0058869748 -1.4996025e-20)
(0.11807338 0.0040874507 -7.3137089e-22)
(0.11728414 0.002748724 -1.6423726e-21)
(0.11679508 0.00016935483 -4.11241e-21)
(0.1158264 -0.00067967089 0)
(0.11650331 -0.0030781812 -2.1570599e-20)
(0.1172472 -0.0060587226 0)
(0.11640573 -0.0067731521 4.1157974e-20)
(0.1170206 -0.0082285298 -8.4913682e-21)
(0.11846613 -0.0121201 -5.966404e-23)
(0.1197899 -0.01636551 7.9576121e-21)
(0.11940661 -0.018813716 -1.3801315e-20)
(0.11994568 -0.020796615 1.0769325e-20)
(0.12156318 -0.024150893 -4.3219418e-22)
(0.12354586 -0.030481883 3.4711905e-20)
(0.12689696 -0.034447841 -5.3538894e-21)
(0.13004588 -0.041065612 1.8390835e-20)
(0.13205597 0.0025191887 0)
(0.1266633 0.0012942989 0)
(0.1269811 -0.00023996883 -2.9539912e-19)
(0.12243362 0.0035097368 4.4207551e-19)
(0.11827952 0.00062120479 -7.1713654e-20)
(0.11654303 0.0019101932 2.237011e-22)
(0.11664046 0.0043827179 -1.1728121e-20)
(0.11807543 0.0035299762 2.9769616e-20)
(0.11945894 0.0056311825 0)
(0.12055543 0.006809824 4.7368901e-20)
(0.12128463 0.0082077905 -1.5821426e-20)
(0.1213845 0.0085817227 -1.558866e-20)
(0.12113075 0.0080298287 0)
(0.12066289 0.0070888749 5.880402e-22)
(0.11979231 0.0059114118 -6.4937729e-21)
(0.11863771 0.0042842877 -3.0974743e-21)
(0.11794315 0.0025194262 1.0059857e-21)
(0.11737513 0.00052615495 1.9507221e-21)
(0.11649073 -0.00051015671 -9.5567115e-22)
(0.1173654 -0.0036861531 0)
(0.11781047 -0.0052366597 0)
(0.11683523 -0.0058874178 -2.5348354e-20)
(0.11782803 -0.0078490237 2.1954984e-20)
(0.11979533 -0.011200766 3.2484404e-21)
(0.12081947 -0.014033068 3.6238257e-21)
(0.12011665 -0.016246124 -4.6987348e-21)
(0.12071125 -0.018613529 -7.7454898e-21)
(0.12379746 -0.022417036 3.7486737e-21)
(0.12569792 -0.029102476 -2.0130072e-20)
(0.1279731 -0.032650154 2.0063812e-20)
(0.13053033 -0.035598965 2.0296909e-21)
(0.13088727 0.0031919672 0)
(0.1265897 0.0017759105 5.7333551e-22)
(0.12701846 -0.000156626 -6.8703099e-21)
(0.1227125 0.0034098339 5.2089056e-21)
(0.11863069 0.00079401092 -2.4020758e-19)
(0.11653423 0.0016731022 -6.58499e-20)
(0.11669201 0.0043426997 1.4761697e-20)
(0.11813254 0.0032677883 0)
(0.11940961 0.0055045966 -2.6333731e-22)
(0.12059263 0.0063900523 -1.5910901e-20)
(0.12138182 0.0076739877 -7.1539533e-20)
(0.12165036 0.0083850512 -9.4548662e-21)
(0.12151015 0.0077554409 -7.9296629e-23)
(0.12105223 0.0068651545 1.1462611e-20)
(0.12026936 0.0059274815 1.0644442e-20)
(0.11920589 0.0046919296 -1.5693062e-21)
(0.11855561 0.0024979641 -2.4997499e-20)
(0.11787297 0.00066840845 -2.4926563e-22)
(0.11723885 -0.00049292973 -1.1417521e-22)
(0.11810629 -0.004063762 -4.5007363e-22)
(0.11822214 -0.0048401845 -5.1151607e-21)
(0.11748527 -0.0056271995 -1.3951803e-21)
(0.11869466 -0.0081350632 -1.8406635e-21)
(0.1206154 -0.01135356 1.417964e-20)
(0.12149233 -0.012311635 0)
(0.12107193 -0.013984941 -4.6569961e-21)
(0.12168435 -0.017370146 -1.0493416e-20)
(0.12577994 -0.02151521 -5.05975e-21)
(0.1281333 -0.026736303 -4.921931e-20)
(0.12882397 -0.031045547 1.0200856e-20)
(0.12954272 -0.032826092 5.6613341e-20)
(0.13054841 0.0027592486 0)
(0.12661461 0.0017838078 1.0419142e-19)
(0.12695112 0.0004020218 4.8351645e-19)
(0.12302869 0.0021611164 -3.3452631e-19)
(0.11884988 0.0013833443 -1.3869466e-21)
(0.1164359 0.0018729061 -1.2968492e-19)
(0.11673447 0.0035669755 0)
(0.11800917 0.003368425 9.8252389e-21)
(0.11932747 0.0052910536 -1.2191102e-20)
(0.12064914 0.0059914798 -6.0301777e-21)
(0.12148589 0.0070895761 -3.3831817e-20)
(0.12194698 0.0078514339 3.8991876e-23)
(0.12190776 0.0075222887 5.6838702e-21)
(0.12143091 0.0067713783 -1.1328972e-20)
(0.12066991 0.0058231491 4.5747042e-21)
(0.11976241 0.0048712513 1.3536484e-20)
(0.11924958 0.0024868572 -3.1886405e-20)
(0.11838189 0.00091371498 9.5084605e-21)
(0.11797817 -0.00051465569 -3.1226431e-20)
(0.11875775 -0.0037886148 0)
(0.11852885 -0.0040677111 -4.9720244e-21)
(0.11815271 -0.0050023804 -1.1124052e-21)
(0.11960843 -0.0078458632 2.6077112e-20)
(0.12114943 -0.011422459 3.774259e-22)
(0.12178948 -0.011215567 0)
(0.12221652 -0.012107735 8.1380257e-21)
(0.12310291 -0.01634466 -2.4402738e-20)
(0.12690369 -0.021399516 -6.5441776e-21)
(0.12986333 -0.023478301 -1.1423043e-20)
(0.13035474 -0.026882113 1.2736614e-20)
(0.12965146 -0.030319773 -2.5141141e-21)
(0.13076566 0.0012242974 5.5943832e-20)
(0.12654924 0.0015295785 3.5636303e-22)
(0.12685761 0.0012358139 4.0044686e-23)
(0.12328934 0.000419526 1.5418175e-20)
(0.11897552 0.0018663443 1.0041004e-19)
(0.11644237 0.0024155295 -2.8354891e-22)
(0.11681278 0.0025568414 -2.5683212e-20)
(0.1178713 0.0037370252 1.2384007e-22)
(0.11920985 0.0049483789 -2.9965521e-20)
(0.12063505 0.0057350868 -4.3884169e-20)
(0.12159107 0.0065323882 -6.0639861e-21)
(0.12215663 0.0071821435 -4.2389989e-21)
(0.12223704 0.0072891745 4.7687401e-21)
(0.12183709 0.0066123222 -4.2419178e-21)
(0.12102772 0.0056725538 4.478092e-22)
(0.12024862 0.0047293723 3.2974735e-22)
(0.11978327 0.0024053048 -2.085753e-20)
(0.11882651 0.0012827683 -7.5691788e-21)
(0.11872715 -0.00058890851 1.0669144e-21)
(0.11927657 -0.0032004311 0)
(0.11876974 -0.0031081014 -4.8695436e-21)
(0.11891933 -0.0043657358 -1.0504768e-21)
(0.12076563 -0.0071452475 -3.0031541e-20)
(0.12172019 -0.010606487 0)
(0.12177421 -0.010274996 -3.8074845e-20)
(0.12325692 -0.011064771 -1.5498912e-21)
(0.12508956 -0.015110779 1.9379273e-20)
(0.12752827 -0.020770263 -4.2323732e-22)
(0.13008848 -0.020986414 -2.7847301e-20)
(0.13145974 -0.021524825 -1.9865698e-20)
(0.13110254 -0.025629392 2.2993191e-20)
(0.13163226 -0.00068822405 -7.7101147e-21)
(0.12675075 0.0010566986 8.0473674e-20)
(0.12678762 0.0019747587 2.930574e-22)
(0.12323644 -0.00082857669 4.2325062e-19)
(0.11885732 0.0020398934 -3.4382989e-20)
(0.11643997 0.0029703225 -6.2586682e-20)
(0.11684359 0.0018135377 3.261536e-20)
(0.11778828 0.004004147 3.8429127e-23)
(0.1192123 0.0044871563 -1.4977895e-22)
(0.12066271 0.0056285452 2.1641793e-20)
(0.12169657 0.0061310468 9.8070851e-23)
(0.12226888 0.0066648361 -5.3358778e-23)
(0.12244074 0.0069551738 -5.4458129e-21)
(0.12217424 0.0062660441 -3.2284458e-23)
(0.12136547 0.0054788645 -1.9490332e-21)
(0.12072164 0.0043300551 1.2154876e-21)
(0.12021442 0.0021717789 -2.4970835e-22)
(0.11925488 0.001359134 5.0116288e-20)
(0.11938521 -0.00061801369 0)
(0.11962121 -0.0027808523 7.4833636e-21)
(0.11901337 -0.0026426252 4.7753899e-21)
(0.11954151 -0.0042580741 -6.4285765e-21)
(0.12170236 -0.0067590163 2.0028634e-21)
(0.12231981 -0.0091571693 -7.559412e-21)
(0.12196126 -0.009681491 -1.1696784e-20)
(0.12417693 -0.011286465 -2.5568701e-21)
(0.12709376 -0.014432861 6.813945e-21)
(0.12841147 -0.018565548 4.5400441e-22)
(0.12952345 -0.019011039 -1.0451373e-19)
(0.13161715 -0.018138113 3.8329875e-20)
(0.13291643 -0.021710141 -1.8033093e-22)
(0.13251361 -0.0019100966 1.4230588e-18)
(0.12704574 0.00051280812 0)
(0.12696536 0.0021145868 4.5665974e-19)
(0.12312392 -0.0011145135 -4.0757494e-19)
(0.11852545 0.0018947781 2.0351693e-19)
(0.11649916 0.0029878881 -3.5092263e-22)
(0.11676927 0.0015365251 -1.1304184e-20)
(0.11765914 0.0039873319 2.8417626e-22)
(0.11924182 0.0039981186 -6.240763e-21)
(0.12075138 0.0055323241 5.2924327e-20)
(0.12186612 0.0058940614 -2.9022207e-20)
(0.12241491 0.0064314544 1.1199976e-22)
(0.12269343 0.0065494548 -8.7010353e-21)
(0.12250023 0.0059504396 -7.0236698e-21)
(0.12172031 0.0052992451 1.388786e-20)
(0.12119491 0.0038382615 5.5996837e-21)
(0.12055526 0.0019987188 1.0550747e-20)
(0.11955045 0.0012771848 9.8958169e-21)
(0.11987654 -0.00064086424 7.1001278e-23)
(0.11984692 -0.00245816 -4.5303031e-22)
(0.11923871 -0.0022808006 -3.5338356e-21)
(0.12003116 -0.0044667871 -3.4563718e-22)
(0.12222591 -0.0068561397 0)
(0.12274517 -0.0076355021 -4.2745113e-21)
(0.12241756 -0.009095024 4.4556759e-21)
(0.12473807 -0.011357697 -5.4108292e-22)
(0.12810146 -0.013974854 1.6504124e-20)
(0.12917492 -0.015298187 5.6279679e-21)
(0.12935003 -0.016346779 3.0537026e-20)
(0.13184126 -0.01619988 -4.8897424e-20)
(0.13479345 -0.019522009 7.5213342e-21)
(0.13325594 -0.0018512706 -5.157999e-19)
(0.12715358 0.0003200839 5.0895387e-23)
(0.12717823 0.0015417837 1.6939829e-19)
(0.12308855 -0.00047845958 -3.4999815e-19)
(0.11835622 0.001590304 1.7884676e-21)
(0.11660121 0.0023463941 -2.9063027e-22)
(0.11668605 0.0018263406 7.8108771e-20)
(0.11754974 0.0036298254 1.0877211e-23)
(0.11924205 0.0035819247 -2.6266948e-20)
(0.12074788 0.005288527 -3.2625002e-21)
(0.12200597 0.0057221013 -3.8308295e-20)
(0.12262723 0.0063322905 0)
(0.12302673 0.0061612397 1.1870272e-22)
(0.12282555 0.0058627689 -8.7857115e-22)
(0.12211757 0.0051806376 1.7581037e-20)
(0.12168669 0.0035424474 -1.2778766e-20)
(0.12087619 0.0022807147 5.3224697e-21)
(0.11989155 0.0012974886 2.4290029e-20)
(0.12032219 -0.00087121408 1.6133776e-20)
(0.11994539 -0.0019614464 -6.6070295e-21)
(0.11944894 -0.0018162537 -9.7201419e-21)
(0.12057044 -0.0046293588 5.2869161e-22)
(0.12237235 -0.0067432723 4.031174e-22)
(0.12293127 -0.0058640769 -3.7189099e-21)
(0.12298444 -0.0079523331 -1.1055081e-21)
(0.12505604 -0.010121534 -5.6617385e-21)
(0.12810609 -0.012807495 -2.49407e-20)
(0.12914907 -0.012556136 2.831414e-20)
(0.12919599 -0.013566135 -5.3085838e-21)
(0.13186174 -0.014538046 2.1885669e-20)
(0.13634803 -0.017887645 -3.6445458e-20)
(0.13386108 -0.00076132704 -9.3029949e-19)
(0.12702839 0.00054724178 3.9865936e-22)
(0.12719705 0.00067252886 -2.757406e-19)
(0.1230286 0.00078405116 1.5546986e-19)
(0.11831839 0.001362537 -1.5688362e-21)
(0.11674764 0.0013678091 0)
(0.11661792 0.0025113286 4.6701454e-20)
(0.11754594 0.0031420696 9.6443122e-20)
(0.11911722 0.0034289537 2.6938508e-20)
(0.12068107 0.0047159309 1.6294279e-20)
(0.12208237 0.005459316 3.1379681e-24)
(0.12284037 0.006172138 -2.4368433e-22)
(0.12329285 0.0057707544 0)
(0.12310649 0.0057788362 4.7429219e-21)
(0.12257688 0.004945834 -7.3718216e-21)
(0.12213134 0.0033892373 9.3837315e-22)
(0.12122827 0.0027753382 1.8509143e-20)
(0.12035907 0.0015328259 4.7128791e-20)
(0.12076333 -0.00090827189 1.3485703e-20)
(0.12001875 -0.0012515271 -1.064218e-20)
(0.11983816 -0.0014831989 -8.7731682e-21)
(0.12120364 -0.0045186338 3.5281782e-20)
(0.12218746 -0.0063216988 -4.4262897e-20)
(0.12291983 -0.0041285556 -3.4163684e-20)
(0.12359604 -0.0062104951 -4.0320479e-20)
(0.12546408 -0.0084840572 1.3666477e-21)
(0.12793424 -0.010691169 2.0285132e-22)
(0.12881589 -0.010058127 1.6686904e-20)
(0.12928986 -0.011590488 -4.6321765e-21)
(0.13165482 -0.01403192 -9.5612523e-21)
(0.13616393 -0.017239251 3.8165817e-20)
(0.13459042 0.0012422913 -1.2399119e-19)
(0.12703806 0.0011835294 5.5608323e-22)
(0.12704592 5.0137966e-05 8.0499106e-21)
(0.12295926 0.0020932987 5.4219484e-22)
(0.11843639 0.001199264 -3.0965189e-22)
(0.11659076 0.00061760307 4.2183343e-20)
(0.11655297 0.0030495669 2.1252637e-20)
(0.11764665 0.0025286965 1.0251412e-22)
(0.11911752 0.003532059 1.1385248e-20)
(0.12079045 0.0039341687 -2.3519162e-20)
(0.12217308 0.0050824184 -2.3375147e-21)
(0.12299567 0.0057832381 -9.6428094e-21)
(0.12347911 0.0053176956 0)
(0.12338134 0.0054214771 -4.5199237e-22)
(0.12303892 0.0045699768 -1.5094366e-20)
(0.12247403 0.0032409624 -1.6159626e-22)
(0.12153207 0.0031405315 1.7733986e-21)
(0.12091916 0.0017170489 -1.3994591e-22)
(0.12117152 -0.00088045336 -2.9619784e-21)
(0.1201761 -0.00069964494 1.2613898e-22)
(0.12032992 -0.001390467 -1.9100414e-21)
(0.1219242 -0.0040445031 3.0942005e-20)
(0.12194476 -0.0055532539 -4.0248285e-21)
(0.12265127 -0.0033514318 1.120259e-21)
(0.12419947 -0.0045358809 -1.6377e-20)
(0.12597804 -0.0075109486 1.0990214e-22)
(0.12777487 -0.0087556045 9.2234254e-21)
(0.12893259 -0.0078781169 -9.1455352e-21)
(0.13029513 -0.0099911581 -8.9371948e-22)
(0.13222746 -0.013755908 3.9071552e-20)
(0.13528953 -0.017344782 -1.253143e-20)
(0.13492908 0.0033479541 -1.1370856e-18)
(0.12728275 0.0019921086 0)
(0.12699022 -4.4044682e-05 -1.0450656e-19)
(0.1228389 0.002644406 5.2995141e-19)
(0.11851667 0.0010323585 2.9379926e-19)
(0.11646774 0.00046711251 5.8817999e-20)
(0.1164492 0.0030346221 -2.9691204e-22)
(0.11767093 0.0020297307 -2.3643284e-23)
(0.11919398 0.0036252583 1.3457311e-20)
(0.12088352 0.0032537869 -1.1385324e-20)
(0.12217347 0.0046694535 6.339371e-21)
(0.12317926 0.0052965739 -2.433691e-23)
(0.12372252 0.0048955312 1.6222717e-20)
(0.12366589 0.0048526083 0)
(0.12343274 0.0042290183 -2.0190174e-20)
(0.122738 0.0030777478 -1.5616233e-20)
(0.12179671 0.0030779858 2.1820174e-20)
(0.12160099 0.001372781 1.2436674e-20)
(0.12161129 -0.00091770764 3.5770365e-22)
(0.12033749 -0.00031401623 -2.7988345e-21)
(0.12073055 -0.0014294491 -1.2765329e-20)
(0.12240936 -0.0031318865 1.4610035e-23)
(0.12177604 -0.0044329906 8.3820499e-22)
(0.12226224 -0.003540561 4.586644e-20)
(0.12480509 -0.0039179879 1.8560929e-20)
(0.12672422 -0.007313388 -4.3626171e-21)
(0.12742802 -0.0078715146 -1.6611686e-20)
(0.12885998 -0.0069205761 3.0462562e-22)
(0.13161017 -0.0084002963 5.3747843e-20)
(0.13391593 -0.0122184 -2.2645237e-20)
(0.13602677 -0.016569685 9.405241e-21)
(0.13471389 0.0043294429 5.5031419e-19)
(0.12766114 0.0025511119 1.2321709e-19)
(0.12711411 0.00041114258 -1.492081e-21)
(0.12284611 0.0019787867 4.1963445e-21)
(0.11863922 0.00063772705 -7.6791469e-23)
(0.1163629 0.0010013717 -2.8299938e-19)
(0.11641798 0.0023442322 1.5869223e-19)
(0.11762405 0.0018572673 -1.3421788e-22)
(0.11917247 0.0034684653 3.6819113e-22)
(0.12081081 0.0029816005 -7.9303954e-21)
(0.1221064 0.0042380087 -2.6434248e-22)
(0.12333574 0.0047795953 -1.0408595e-20)
(0.12397729 0.0045736426 -4.4987245e-23)
(0.12391945 0.004344512 1.2420213e-22)
(0.12375289 0.0039759807 0)
(0.1229934 0.0028619687 0)
(0.12212565 0.0025118107 -3.1073865e-20)
(0.12215553 0.00071942856 -1.2235334e-21)
(0.12183251 -0.00070451906 1.2400516e-20)
(0.12044034 2.3204797e-05 3.5489744e-21)
(0.1209989 -0.0017121548 -8.7168237e-21)
(0.12270126 -0.0022713793 -4.2389152e-22)
(0.12191421 -0.003282621 0)
(0.1219337 -0.0040540071 0)
(0.12507493 -0.0042995434 0)
(0.12734793 -0.0067956308 7.6724813e-21)
(0.12718866 -0.0070981151 7.7277472e-22)
(0.12835368 -0.0070171614 1.4672451e-20)
(0.13204977 -0.0077993379 5.9277707e-21)
(0.13536272 -0.010083371 -1.8389994e-21)
(0.13746213 -0.013439957 -5.0625971e-21)
(0.13464142 0.0033608658 2.2112942e-19)
(0.12785483 0.0027027867 1.694971e-21)
(0.12715999 0.0012047087 1.7003259e-21)
(0.12297957 0.0007230502 -1.3846523e-19)
(0.11867118 0.0001736744 0)
(0.11636818 0.0017515526 -7.1762969e-22)
(0.11645123 0.0012981719 5.2245984e-20)
(0.11747054 0.0019373069 1.0041819e-19)
(0.11905916 0.002958647 -5.9922784e-23)
(0.12075938 0.0031395618 3.7050534e-20)
(0.12206469 0.0039728712 -1.4481965e-20)
(0.12342009 0.0042084266 0)
(0.12409868 0.004392835 2.2166231e-20)
(0.12407208 0.0040858883 2.8712898e-20)
(0.12402821 0.0037276671 1.8748694e-20)
(0.12331323 0.0026118607 -2.4290901e-21)
(0.12254532 0.0018122947 -4.4615843e-21)
(0.12256127 0.00027888101 1.3496243e-21)
(0.12190277 -0.0003150909 1.0245468e-21)
(0.12070896 0.00029506299 3.7561504e-21)
(0.121183 -0.0023094459 9.4835231e-23)
(0.12279688 -0.0020250575 -3.2849712e-20)
(0.12237996 -0.0019198764 1.4019283e-20)
(0.12197377 -0.0040276345 0)
(0.12500165 -0.0050574101 3.8853555e-21)
(0.1275002 -0.0058548622 7.9144802e-21)
(0.12728514 -0.0059100846 -3.4860545e-22)
(0.12797621 -0.0073267017 -6.2479006e-21)
(0.13148631 -0.0085881321 1.1065362e-20)
(0.1353767 -0.0089984646 1.3072814e-20)
(0.13754506 -0.009889913 5.2439845e-21)
(0.13505958 0.001065872 -1.3550992e-19)
(0.12788698 0.0020265674 -1.6522816e-20)
(0.12715599 0.0015598578 -6.8033906e-22)
(0.12316401 -0.00056479654 -2.097133e-19)
(0.11865032 -0.00011606691 -4.8105437e-20)
(0.11618285 0.0021510579 -5.465403e-23)
(0.11649929 0.00040049164 -4.0907093e-20)
(0.11734132 0.001961539 -1.911683e-20)
(0.11907575 0.0022280222 1.4898536e-22)
(0.12083921 0.0033167155 -2.4292377e-22)
(0.12213331 0.0037347218 5.570682e-21)
(0.1234804 0.0034078076 1.1423822e-22)
(0.12416566 0.0040999173 -4.7213196e-23)
(0.12425626 0.0038211792 -2.2202565e-22)
(0.12435498 0.0032863883 -3.086085e-21)
(0.12369868 0.0025455036 -2.3290927e-22)
(0.12292088 0.0016241789 -3.0645232e-20)
(0.12288023 0.00058790996 8.2147202e-22)
(0.12195302 0.00050253608 3.1545436e-21)
(0.12119108 0.00079665982 0)
(0.12146833 -0.0025259204 1.6445484e-20)
(0.12243702 -0.0024026539 3.6729561e-22)
(0.12282471 -0.00051576147 3.1598548e-21)
(0.12266908 -0.0030129694 1.5523669e-21)
(0.12478115 -0.0057002965 -8.0969242e-21)
(0.12709329 -0.0050045175 3.1427046e-20)
(0.12773982 -0.0038526897 3.1842621e-21)
(0.12848051 -0.0063606172 -1.0844187e-23)
(0.13089527 -0.0089056856 -4.9958922e-21)
(0.13425436 -0.0086563533 -2.3661595e-20)
(0.13641349 -0.0081044341 -2.7476129e-21)
(0.13577433 -0.0012623043 4.6617307e-19)
(0.12792378 0.0011998873 -1.4966521e-22)
(0.1272186 0.0013740497 9.8784288e-20)
(0.12324249 -0.001286757 -4.3007814e-21)
(0.11834821 0.00035972413 1.31598e-21)
(0.11619238 0.0018421988 4.8255681e-20)
(0.11645562 0.00030833919 0)
(0.11727428 0.0020107697 2.2776117e-22)
(0.11904785 0.00162423 -2.5987419e-23)
(0.1207229 0.0032699098 -6.6732586e-22)
(0.12218563 0.0034033729 1.2892923e-23)
(0.12354929 0.002849385 -9.4643258e-23)
(0.12427946 0.0036772713 -7.1780884e-21)
(0.12450195 0.0034145285 -1.198478e-20)
(0.12462195 0.0024764321 2.3096222e-20)
(0.12400431 0.0024454028 1.4785194e-21)
(0.12318529 0.0018223171 4.0750107e-22)
(0.12302458 0.00089643957 2.3986136e-22)
(0.12201797 0.0010472846 0)
(0.12186276 0.00093192883 2.0415854e-20)
(0.1221328 -0.0022558643 4.9478318e-20)
(0.12192124 -0.0028542651 1.4401355e-20)
(0.12272066 7.772219e-05 -1.7298862e-20)
(0.12372099 -0.0015565306 1.4140243e-21)
(0.12488954 -0.0056463024 3.8583249e-21)
(0.12611304 -0.0043928373 -2.8230439e-20)
(0.12760857 -0.0019126809 -5.5816147e-21)
(0.12972629 -0.0041988173 -1.9375914e-20)
(0.13105991 -0.0074675283 8.268434e-21)
(0.1332851 -0.0079579394 -1.8455237e-20)
(0.13534551 -0.0071019784 -7.3780668e-22)
(0.13579599 -0.002600521 5.8915623e-19)
(0.12798597 0.00038343988 4.4479984e-23)
(0.12761456 0.00091562345 5.2066187e-21)
(0.12317865 -0.0012339278 4.0488263e-19)
(0.11815061 0.0010460509 -2.8941097e-21)
(0.11634062 0.00075320071 1.4945664e-19)
(0.11637508 0.00072593954 0)
(0.11719441 0.0017276161 0)
(0.11887636 0.0011483412 -2.0309867e-20)
(0.12052607 0.0028139482 0)
(0.12227983 0.0027036664 5.3684583e-20)
(0.12357119 0.0024570019 -1.6518231e-20)
(0.12431497 0.0031476664 0)
(0.12478447 0.0027702642 6.9900115e-21)
(0.12483352 0.0019260913 1.7033189e-20)
(0.12412943 0.0024745809 -5.7634318e-22)
(0.12345339 0.0019971307 -5.7414343e-22)
(0.12322685 0.0010315362 3.2894205e-21)
(0.12209603 0.0009505409 -3.4620757e-20)
(0.12233359 0.00065205733 1.693996e-21)
(0.1227693 -0.0014467927 -6.6021466e-20)
(0.12151066 -0.0024743036 -2.4598316e-22)
(0.12211105 -0.00031266065 1.9131406e-20)
(0.12459583 -0.00081878199 1.7894585e-20)
(0.12552198 -0.0046542316 -7.6460152e-21)
(0.12501825 -0.0036765793 -6.9943773e-20)
(0.12682313 -0.0013969943 1.8389081e-20)
(0.13057792 -0.0025777516 2.6151053e-21)
(0.13182616 -0.0050559431 -2.5666528e-20)
(0.13281292 -0.0064449339 2.0763535e-20)
(0.134384 -0.0054787795 9.6840659e-21)
(0.13613597 -0.0026475532 -5.0923196e-19)
(0.12787916 0.00029647231 -3.0887858e-22)
(0.12781272 0.00024556856 -5.094733e-19)
(0.1232307 -0.00033781054 -1.2824258e-19)
(0.11817778 0.0015185296 2.8191955e-19)
(0.11642022 -0.00010226143 3.106936e-22)
(0.11623548 0.0015431814 3.6193674e-22)
(0.11712542 0.0013047484 7.2391672e-20)
(0.11873489 0.001127875 1.2501482e-20)
(0.12044321 0.0022509169 -1.0230583e-20)
(0.12238729 0.0020148377 -1.4524969e-20)
(0.12355139 0.0025519582 3.1856831e-22)
(0.12429774 0.0026471201 -1.6413364e-20)
(0.12491289 0.0022006577 4.9914643e-21)
(0.124879 0.0014989382 -6.5516163e-21)
(0.12422462 0.0021629337 2.0631264e-21)
(0.12376503 0.0015887294 -1.0967117e-20)
(0.12344705 0.00039722599 2.7908091e-20)
(0.12225091 -7.9693617e-06 -2.4778311e-21)
(0.1225708 -0.00019995437 4.7457054e-21)
(0.12323837 -0.00066948053 -4.0954328e-20)
(0.12148339 -0.001455711 -8.5707598e-21)
(0.12159486 -0.0010245673 1.8694802e-20)
(0.12489756 -0.0010116135 8.7881411e-23)
(0.12593311 -0.0027066181 -1.9065745e-20)
(0.12432003 -0.0021642609 2.3276445e-20)
(0.12598118 -0.0021941879 2.9794761e-22)
(0.13035227 -0.0022545129 -1.0912322e-20)
(0.13252084 -0.0027229902 8.5537192e-21)
(0.13267145 -0.0042030012 -7.4177537e-21)
(0.13340355 -0.003940671 -1.3467307e-21)
(0.13713893 -0.00072753432 -4.2634028e-19)
(0.12776554 0.00041253304 -1.2811398e-22)
(0.12765272 -6.4764944e-05 5.1885686e-22)
(0.12315916 0.00023720274 1.8361205e-21)
(0.11827229 0.00090221036 -3.6895104e-20)
(0.11618299 -0.00067045048 -5.1380206e-20)
(0.11611575 0.00149922 1.3674288e-20)
(0.11719255 0.00075071556 -3.1180894e-21)
(0.11872064 0.0012192016 -1.1561197e-20)
(0.1204752 0.0015206571 5.5885724e-24)
(0.12236581 0.0013263747 -3.7525499e-21)
(0.12356451 0.0023479065 -4.1296548e-20)
(0.12449523 0.0021894495 -3.2898909e-22)
(0.12515346 0.001765224 1.0056835e-21)
(0.12500409 0.0020000855 1.4349365e-22)
(0.12428803 0.0019032066 -4.9918264e-21)
(0.12413698 0.00081713709 8.2064911e-21)
(0.12387779 0.00058685173 0)
(0.1224114 0.00021648321 5.6553354e-22)
(0.12254064 -0.0011098938 4.8028988e-23)
(0.12329567 -0.0003415893 -3.6593953e-21)
(0.12175767 -0.00028726793 6.9291346e-21)
(0.12141217 -0.0017739004 -1.1017619e-20)
(0.12458343 -0.0024873628 1.9546769e-20)
(0.1258444 -0.00096384583 4.9310287e-22)
(0.12444064 -0.00047638469 3.339777e-21)
(0.12545692 -0.0025881157 3.2658035e-21)
(0.12909482 -0.0028757401 1.0000176e-20)
(0.13227992 -0.0017384997 -1.3904804e-20)
(0.13290624 -0.0022232128 1.5035695e-20)
(0.13305667 -0.0029953535 2.7257908e-20)
(0.13759681 0.0014218443 1.156405e-19)
(0.12787043 0.0013439051 4.1878693e-20)
(0.12756962 -6.9476113e-05 9.3131247e-20)
(0.12318622 0.00064871946 -3.7170729e-19)
(0.11830779 0.00029752437 1.1629374e-21)
(0.11603401 1.574698e-05 1.6176425e-22)
(0.1159961 0.0011116141 -1.2570593e-22)
(0.1171656 0.00069473617 4.4648547e-20)
(0.11864772 0.0014351871 2.6919746e-20)
(0.12043072 0.00092773564 -1.8336199e-21)
(0.12220536 0.0011913439 8.7208606e-21)
(0.12354022 0.0023332833 1.0660002e-22)
(0.12461589 0.0016523441 1.9803386e-21)
(0.12513317 0.0015179917 2.646494e-23)
(0.12503439 0.0015623861 3.1954197e-20)
(0.12471039 0.0012795611 4.1480195e-22)
(0.12420556 0.00032500146 -4.9566952e-23)
(0.12390163 0.00033526534 -2.1019485e-22)
(0.1229877 0.00075076341 7.5192757e-20)
(0.12265471 -0.0014957993 2.6187326e-20)
(0.12313534 3.8018621e-05 2.6646564e-21)
(0.12235902 0.00097594687 -1.3339123e-20)
(0.12188352 -0.0014476157 9.3813669e-22)
(0.12369924 -0.002992248 2.608075e-20)
(0.12495617 0.00013732746 -6.3699441e-21)
(0.12499611 0.00041109189 1.0497397e-20)
(0.12590929 -0.0023784412 8.1543042e-20)
(0.12809945 -0.0037813519 1.1879979e-20)
(0.13114611 -0.0018593706 2.0436829e-20)
(0.13292804 -0.00077470766 1.1922071e-21)
(0.13344792 -0.0015823821 -5.2509976e-21)
(0.13745177 0.003731011 -1.2871403e-18)
(0.12831294 0.0018192469 1.6146581e-21)
(0.12788748 0.00082666874 3.7997228e-21)
(0.12309937 0.00010950233 -1.0472488e-21)
(0.11826949 -0.0009558996 -1.8814061e-21)
(0.11606425 0.00046384777 -9.1194554e-22)
(0.11594416 -0.00010447746 2.4294686e-22)
(0.11701513 0.00027663332 7.6751503e-23)
(0.11853857 0.0014090892 -1.6985692e-23)
(0.12034086 0.00023881788 1.5928125e-22)
(0.12200174 0.00095222404 -1.5356962e-22)
(0.12350824 0.0016536363 -2.1126152e-20)
(0.12469586 0.0012922464 -1.7391406e-20)
(0.12529165 0.001132066 -7.4491899e-23)
(0.12520982 0.0019546325 6.8926044e-22)
(0.12483103 1.4279646e-05 5.8906895e-22)
(0.12448182 -0.00015201993 -1.8805066e-21)
(0.12408953 0.0017783021 -1.3469704e-21)
(0.12334521 0.00065770081 -4.7727071e-20)
(0.12269553 -0.001805595 -2.4238731e-20)
(0.12262922 0.0002405866 6.6787458e-20)
(0.1226749 0.0020544207 1.8083571e-22)
(0.12257795 -0.0017092655 3.5695324e-21)
(0.1232773 -0.0031364918 -2.2795514e-22)
(0.12443981 0.00088851449 -3.1700579e-20)
(0.12558194 0.0011286542 -1.8453214e-20)
(0.12650314 -0.0021860309 -2.8182274e-21)
(0.12738944 -0.0047430827 6.3145322e-22)
(0.1294918 -0.0032765769 2.5932788e-20)
(0.13209833 -0.00085844451 -3.8385e-20)
(0.13396108 8.1226435e-05 8.7378293e-22)
(0.1370441 0.0031060313 -1.690407e-20)
(0.12872703 0.0021652249 -1.178281e-19)
(0.12744159 0.00028676266 -3.8116637e-19)
(0.12268083 -0.00023753966 1.2210196e-19)
(0.11787684 -0.0011751275 3.0537091e-19)
(0.11607783 0.001215364 5.6756839e-20)
(0.11624486 -0.00047444035 9.7722693e-20)
(0.11740669 3.2896019e-05 4.5266734e-24)
(0.11928491 0.0013910951 -3.2719666e-21)
(0.12117708 6.0222574e-06 -9.7624077e-21)
(0.12268566 0.001031033 -2.1221683e-20)
(0.12425754 0.0014958014 -2.6647062e-22)
(0.12542936 0.00056465427 -3.2315703e-20)
(0.12578036 0.00089002489 -2.7781375e-20)
(0.12648559 0.00031633118 -2.3285854e-22)
(0.12620779 0.00057236889 2.85693e-20)
(0.12484291 0.00022323943 9.1575975e-24)
(0.12497491 -0.00041593671 -3.2808779e-20)
(0.12517614 0.00075983767 -6.3901934e-23)
(0.12379392 -0.0012316046 -1.9293522e-20)
(0.12291042 8.5623689e-05 -6.4404468e-20)
(0.12410641 0.0022925904 -1.5408615e-22)
(0.12450045 -0.00030095779 1.8821253e-21)
(0.12314088 -0.0013815423 3.6073881e-20)
(0.12389517 0.00052373169 -1.2441509e-21)
(0.12666163 0.00039756384 4.3817841e-21)
(0.12871221 -0.001058913 -1.3373992e-19)
(0.12848416 -0.0032316874 0)
(0.12857103 -0.003298337 -1.2256867e-20)
(0.13063714 -0.0010957233 -5.9935599e-20)
(0.13384977 0.0010860371 -2.304249e-20)
(0.13299948 0.00097049203 2.4947512e-19)
(0.13327439 0.00070123104 0)
(0.11465837 0.00036391308 9.36693e-22)
(0.12860419 -0.00095586244 7.4066021e-21)
(0.12356821 -0.00068955315 2.8897838e-20)
(0.12548224 2.8897878e-05 2.1987363e-22)
(0.12534612 -0.00042020768 4.3009612e-20)
(0.12708803 7.7052222e-05 -6.7672194e-22)
(0.12822301 0.00041186898 -1.2634418e-21)
(0.12915397 0.0001796215 -2.4932443e-21)
(0.1287362 0.00021496381 -1.0306912e-22)
(0.13138617 0.00062185304 1.2994066e-20)
(0.12360409 0.00067453341 6.9922904e-21)
(0.13147575 -1.3541033e-05 -9.805939e-21)
(0.12449406 0.0020408847 -2.0991927e-21)
(0.1285239 -0.0026133244 -6.6535762e-23)
(0.13324308 0.0004211256 -1.8783036e-20)
(0.12209352 0.0025097011 -5.9089057e-21)
(0.12922485 -0.0027664812 -1.4040918e-20)
(0.13137187 -0.00034935578 -5.9975358e-22)
(0.12793852 0.00044864201 -1.4315173e-20)
(0.12753707 0.00076091672 -3.0386929e-21)
(0.13100763 -0.0018536691 -2.4131209e-21)
(0.13119526 9.2191251e-05 1.401412e-20)
(0.12503641 0.0017387045 2.3510684e-21)
(0.12928817 -0.00010121371 -6.1483022e-21)
(0.1343574 -0.0013113555 8.8433878e-22)
(0.13360775 -0.001019661 -8.7258036e-21)
(0.13437917 -0.0010798431 2.566003e-22)
(0.13342467 -0.00027103139 -9.8771901e-21)
(0.13829142 -0.00019482371 -2.1790507e-21)
(0.1432918 0.00054075656 7.1877859e-22)
(0.13761435 -0.00031753425 -1.8254919e-20)
(0.13651747 -0.0031516935 1.6062271e-20)
(0.13604439 -0.0047769014 -4.7665853e-22)
(0.13652747 -0.0043925038 2.7760141e-20)
(0.13737805 -0.0036713842 9.9483507e-21)
(0.137574 -0.0045476001 5.5587184e-21)
(0.13731318 -0.0058948028 -6.4708237e-21)
(0.13751707 -0.0063567683 -1.9847483e-20)
(0.13796521 -0.0081358418 -5.0187638e-21)
(0.13779596 -0.012780388 -8.3280035e-21)
(0.13780484 -0.016839665 -5.4855159e-20)
(0.13956925 -0.017539215 0)
(0.14122554 -0.018201353 6.1312062e-21)
(0.14043546 -0.021213295 -2.1866842e-20)