-0.5 	1.0246956
-0.48412699 	1.0235885
-0.46825397 	1.022152
-0.45238095 	1.0207075
-0.43650794 	1.0190525
-0.42063492 	1.0176017
-0.40476191 	1.0161079
-0.3888889 	1.0147285
-0.37301588 	1.013255
-0.35714287 	1.0119685
-0.34126985 	1.0106165
-0.32539684 	1.0093298
-0.30952379 	1.0079049
-0.29365078 	1.0066965
-0.27777776 	1.0053307
-0.26190475 	1.0039307
-0.24603173 	1.002654
-0.23015872 	1.0013225
-0.2142857 	1.0000192
-0.19841269 	0.99870784
-0.18253967 	0.99748031
-0.16666666 	0.99632128
-0.15079364 	0.9952367
-0.13492063 	0.99425815
-0.11904758 	0.99337832
-0.10317457 	0.99260507
-0.087301552 	0.99196591
-0.071428537 	0.99144772
-0.055555522 	0.99110171
-0.039682507 	0.99092387
-0.023809493 	0.99089743
-0.0079364777 	0.99101423
0.0079365373 	0.99134821
0.023809552 	0.99179982
0.039682567 	0.99245352
0.055555582 	0.99327385
0.071428597 	0.99399531
0.087301612 	0.99431048
0.10317463 	0.9943506
0.11904764 	0.99455143
0.13492066 	0.99481767
0.15079367 	0.9953552
0.16666669 	0.99592709
0.1825397 	0.99625791
0.19841272 	0.99637431
0.21428573 	0.9960861
0.23015875 	0.99568312
0.24603176 	0.99507621
0.26190484 	0.99433609
0.27777785 	0.99339106
0.29365087 	0.99216902
0.30952388 	0.99084534
0.3253969 	0.990033
0.34126991 	0.99044607
0.35714292 	0.99229005
0.37301594 	0.99498579
0.38888895 	0.99745344
0.40476197 	0.99906583
0.42063499 	0.99945903
0.436508 	0.99858228
0.45238101 	0.99640444
0.46825403 	0.99567207
0.48412704 	0.99495504
0.5 	0.97763457
