-0.5 	0.98040891
-0.48412699 	1.0477393
-0.46825397 	1.0220721
-0.45238095 	1.0417375
-0.43650794 	1.0015822
-0.42063492 	1.0089688
-0.40476191 	1.0231481
-0.3888889 	1.013876
-0.37301588 	0.99297129
-0.35714287 	0.98082649
-0.34126985 	0.98436506
-0.32539684 	0.99397937
-0.30952379 	0.99535458
-0.29365078 	0.98476988
-0.27777776 	0.97278179
-0.26190475 	0.97008905
-0.24603173 	0.97451189
-0.23015872 	0.97624943
-0.2142857 	0.97291626
-0.19841269 	0.9694536
-0.18253967 	0.96968917
-0.16666666 	0.97216548
-0.15079364 	0.97397882
-0.13492063 	0.97347327
-0.11904758 	0.9717884
-0.10317457 	0.97050413
-0.087301552 	0.96987526
-0.071428537 	0.96859518
-0.055555522 	0.96712811
-0.039682507 	0.96706777
-0.023809493 	0.96977588
-0.0079364777 	0.97603433
0.0079365373 	0.98153305
0.023809552 	0.98157976
0.039682567 	0.97458082
0.055555582 	0.9682085
0.071428597 	0.97072974
0.087301612 	0.98165927
0.10317463 	0.99364584
0.11904764 	0.99635191
0.13492066 	0.98927
0.15079367 	0.97963665
0.16666669 	0.97935008
0.1825397 	0.98801217
0.19841272 	0.9958069
0.21428573 	0.99368481
0.23015875 	0.98691721
0.24603176 	0.98309908
0.26190484 	0.98651412
0.27777785 	0.99145129
0.29365087 	0.98814292
0.30952388 	0.98263066
0.3253969 	0.98330948
0.34126991 	0.98250976
0.35714292 	0.9814952
0.37301594 	0.99124705
0.38888895 	0.99835312
0.40476197 	0.98639473
0.42063499 	0.97503125
0.436508 	0.98546763
0.45238101 	0.98382681
0.46825403 	0.95811905
0.48412704 	0.97625363
0.5 	0.97149643
