/*--------------------------------*- C++ -*----------------------------------*\
| =========                 |                                                 |
| \\      /  F ield         | OpenFOAM: The Open Source CFD Toolbox           |
|  \\    /   O peration     | Version:  2406                                  |
|   \\  /    A nd           | Website:  www.openfoam.com                      |
|    \\/     M anipulation  |                                                 |
\*---------------------------------------------------------------------------*/
FoamFile
{
    version     2.0;
    format      ascii;
    arch        "LSB;label=32;scalar=64";
    class       volScalarField;
    location    "20";
    object      omega;
}
// * * * * * * * * * * * * * * * * * * * * * * * * * * * * * * * * * * * * * //

dimensions      [0 0 -1 0 0 0 0];

internalField   nonuniform List<scalar> 
20580
(
3.5310139
2.6901231
2.2021267
1.8851312
1.6596573
1.4864218
1.3508594
1.2407676
1.1519734
1.079451
1.0184062
0.96636937
0.92081942
0.88004327
0.84446067
0.81271528
0.78591325
0.76259231
0.74330668
0.72679936
0.71365098
0.698321
0.68716075
0.67840283
0.6686331
0.66238592
0.65751251
0.65336719
0.6520578
0.65485733
0.66162785
3.5411045
2.6974879
2.2087117
1.8918481
1.6685254
1.4934335
1.3573911
1.2461484
1.1563763
1.0837224
1.022575
0.97058665
0.92502618
0.88396388
0.84801824
0.81592415
0.78899076
0.76485927
0.74516432
0.72863098
0.71595227
0.70202729
0.68978093
0.68205691
0.67231264
0.66500537
0.66124996
0.65736128
0.65329903
0.65371878
0.65834147
3.546105
2.7027027
2.2141031
1.8973829
1.6748565
1.500988
1.3634837
1.2516739
1.1614489
1.0881448
1.027132
0.97435539
0.92887136
0.88757077
0.85168957
0.81942106
0.79244969
0.76823697
0.74746856
0.73174979
0.71788162
0.70559527
0.69217035
0.6849315
0.67591244
0.66802602
0.66198998
0.65978854
0.65566657
0.65429789
0.65718664
3.5459762
2.7026762
2.2147938
1.8987916
1.6758726
1.5043346
1.3672616
1.2564434
1.1666206
1.0928469
1.031586
0.97811008
0.93271355
0.892015
0.85543309
0.82384344
0.79551467
0.77219962
0.75030201
0.7344876
0.71986934
0.70881599
0.69511462
0.68653854
0.67832314
0.67151367
0.66384355
0.66040584
0.65740541
0.65494657
0.65555302
3.5487214
2.701315
2.2153215
1.9013407
1.678026
1.5067002
1.3708528
1.2611864
1.1714202
1.0975669
1.0365576
0.98367611
0.93758535
0.89705327
0.86004661
0.8280203
0.79932455
0.77539978
0.75373113
0.73700177
0.72161883
0.71112452
0.69915646
0.68893042
0.68031103
0.6744581
0.66693695
0.66158648
0.65802527
0.65469758
0.65418987
3.5566434
2.7028979
2.2162128
1.9069852
1.6835235
1.5116157
1.3752921
1.2649586
1.1748074
1.1012239
1.0403921
0.98843708
0.94188494
0.90143258
0.86418284
0.83237588
0.80297081
0.77947377
0.75732468
0.74037087
0.72450899
0.71341609
0.70248378
0.69149056
0.68313178
0.67656029
0.66972506
0.6631843
0.65927639
0.65491514
0.65345209
3.5581229
2.7086412
2.21865
1.9100675
1.6876419
1.5165574
1.3794043
1.2686009
1.1787642
1.1057799
1.0440831
0.99194668
0.94537649
0.90506198
0.8681691
0.83633545
0.80727593
0.78295124
0.76182021
0.74340728
0.72799076
0.71606517
0.70569064
0.69387707
0.68535724
0.67815795
0.67227716
0.66479306
0.66107905
0.65635383
0.65412272
3.5569401
2.7105824
2.218494
1.9063431
1.6845331
1.5149301
1.3798262
1.2706167
1.1819456
1.1094935
1.0477147
0.99537497
0.94900142
0.90799691
0.87164769
0.83931089
0.81087108
0.78602171
0.76569399
0.74706405
0.73149425
0.71903398
0.70909085
0.69749539
0.68821585
0.68019091
0.67502917
0.66694259
0.66263435
0.65778284
0.65467673
3.5588571
2.712825
2.2202982
1.904988
1.6818098
1.5125464
1.3799035
1.2713256
1.1831004
1.1110155
1.0501379
0.99751177
0.95167327
0.91058155
0.87408445
0.84216334
0.81383077
0.78952423
0.76901149
0.75073741
0.73530533
0.72229293
0.71265636
0.70161
0.69310017
0.68301918
0.67773705
0.67060975
0.66480644
0.66045424
0.65545991
3.5682315
2.7221008
2.2265845
1.9104096
1.6865076
1.5148284
1.3814135
1.2725103
1.1842883
1.1119812
1.0511953
0.99812642
0.95273224
0.91194671
0.87639319
0.84447374
0.81723655
0.79254706
0.77257856
0.75349985
0.73934369
0.72467972
0.71569182
0.70441127
0.69766029
0.68748957
0.67968746
0.67462455
0.66791675
0.66478473
0.65826197
3.5915663
2.7488396
2.2447508
1.9260012
1.7001338
1.5248203
1.3875595
1.2767819
1.1873396
1.1141106
1.0526552
0.99975708
0.9543341
0.91427818
0.87891077
0.84731183
0.81990039
0.79545786
0.77502161
0.75648666
0.74176584
0.72729702
0.71689838
0.70713599
0.69913263
0.69183249
0.68173111
0.67720375
0.67069782
0.66742192
0.66136348
3.5955711
2.7666058
2.2644595
1.9411502
1.7118855
1.5364663
1.3983849
1.2859227
1.1941478
1.119011
1.0568204
1.0043004
0.95890379
0.918952
0.8833446
0.85131983
0.82322148
0.79880945
0.77710332
0.75873538
0.74338866
0.7296717
0.71734234
0.70942047
0.69998072
0.69346505
0.68433932
0.67913514
0.67271425
0.66788994
0.66309342
3.5796633
2.7646927
2.2704123
1.9476422
1.7167336
1.5436268
1.405784
1.2928603
1.2009419
1.1263242
1.063657
1.0110455
0.96475169
0.92449145
0.88815668
0.85636403
0.82752398
0.80295683
0.78065009
0.76165671
0.74637697
0.73190244
0.71994481
0.71091791
0.70199154
0.69426917
0.68657592
0.68081577
0.6745706
0.66853706
0.66379648
3.583688
2.7690505
2.2731021
1.9537023
1.7235729
1.5494134
1.4098851
1.2972634
1.2058082
1.1310647
1.0682557
1.015353
0.96927534
0.92850173
0.8926122
0.85993088
0.83186631
0.80610213
0.78448081
0.76426636
0.7494224
0.73462516
0.72198571
0.71415537
0.70360856
0.69652136
0.68788044
0.68338137
0.67604146
0.67136223
0.66490902
3.5962159
2.7873791
2.2828705
1.965876
1.7354718
1.5590653
1.4180311
1.3042731
1.2114249
1.1352626
1.0723363
1.0190073
0.9730139
0.93226893
0.89621061
0.86333215
0.83422973
0.8091845
0.78607162
0.76724957
0.75069117
0.73720192
0.7236367
0.71660008
0.70560643
0.69984576
0.69111345
0.68616003
0.6800123
0.67496845
0.66923266
3.5944376
2.7962899
2.2948745
1.9784729
1.7450245
1.5698239
1.43006
1.3144143
1.2201578
1.1432359
1.0795406
1.0257249
0.97891704
0.93802696
0.90086968
0.86821789
0.8381231
0.81267316
0.78919195
0.77077831
0.75292508
0.73913917
0.72636031
0.7173701
0.70759426
0.70165437
0.69327493
0.68841613
0.68244246
0.67777695
0.67373593
3.5942723
2.790493
2.2956911
1.9770025
1.7453934
1.5719616
1.4334564
1.3181203
1.2250762
1.1484689
1.0850429
1.0304904
0.98436066
0.94246135
0.90607511
0.87216578
0.84339758
0.81628115
0.79354619
0.77365055
0.75628928
0.74151016
0.72943781
0.71923818
0.70943965
0.70340962
0.69611341
0.69100699
0.68468758
0.67897755
0.67521429
3.594689
2.7911478
2.2970614
1.9779449
1.749106
1.5741698
1.4346158
1.3202445
1.2272122
1.1506498
1.0872833
1.0329902
0.98700085
0.94561143
0.90917405
0.87592467
0.84640869
0.81898483
0.79612471
0.77673048
0.75893343
0.74329328
0.73203029
0.72173272
0.71078588
0.70405809
0.69743598
0.69159046
0.68659256
0.67981096
0.67641796
3.6122426
2.8141332
2.3113828
1.992671
1.7632409
1.5851812
1.4438239
1.3285477
1.2338091
1.1568409
1.0926098
1.038474
0.99269528
0.9511539
0.91410298
0.88107929
0.85092685
0.82356447
0.79994867
0.78075138
0.76211056
0.74692231
0.73435245
0.72477615
0.71272712
0.70682056
0.69959837
0.69491044
0.68814662
0.68275206
0.67812108
3.6122847
2.8323418
2.3346852
2.0181001
1.7877329
1.6117016
1.4706179
1.3551848
1.2589955
1.1821733
1.1155311
1.0618535
1.0162203
0.97232481
0.93541603
0.90177187
0.86976136
0.84164272
0.81594514
0.79653769
0.77465481
0.75844491
0.74504974
0.73638152
0.72287892
0.71661318
0.70996518
0.70672812
0.7000765
0.69598619
0.68829051
3.6684997
2.9288057
2.4499856
2.1409363
1.9146681
1.7351773
1.596816
1.4856749
1.3867274
1.3145976
1.2399739
1.191659
1.1487443
1.0933379
1.0602692
1.0269849
0.98572613
0.95776961
0.92025655
0.90130021
0.86906794
0.84701851
0.83216767
0.81484877
0.79742071
0.79036899
0.78930894
0.78804229
0.78310725
0.77568617
0.7556774
4.0507961
3.761697
3.4784662
3.2654389
3.08272
2.8786549
2.8048683
2.6804899
2.5784395
2.485883
2.3891439
2.4201107
2.3260859
2.1919066
2.2076121
2.1512992
2.0890565
2.0266815
1.9122466
1.9210055
1.8569188
1.8301589
1.7873246
1.7446561
1.6753628
1.6919707
1.7112094
1.7227498
1.6965054
1.6520546
1.5356401
12.805359
12.537143
12.13485
11.3271
10.752447
10.28971
9.8301609
9.4832826
9.0491244
8.7818616
8.4642709
8.2412985
8.092072
7.7888988
7.5659274
7.4580247
7.2038788
7.1009483
6.9007545
6.7297195
6.6376291
6.422215
6.3568093
6.1662557
6.0704435
5.9134361
5.8617707
5.7597649
5.7108829
5.5858701
5.5353163
5.7500139
1.5625896
0.7592601
0.6861849
0.67317247
0.67049736
0.6708259
0.66932089
0.6649938
0.66230779
0.66010337
0.65931762
0.6579805
0.65492544
0.65267397
0.6518102
0.65240559
0.6533642
0.65420546
0.65630213
0.65901799
0.66069143
0.66293615
6.3179408
2.0340895
0.83132077
0.69164385
0.67149396
0.66690364
0.66538529
0.66520086
0.6624674
0.65917098
0.6579986
0.65666005
0.65500157
0.65276061
0.64993407
0.64973323
0.65055954
0.65241306
0.6538349
0.6561046
0.65951341
0.66512032
0.66651855
7.0329839
2.3077875
0.90600918
0.70477078
0.66843711
0.66236672
0.66159099
0.66250998
0.66153151
0.65779933
0.65360538
0.65322113
0.65351265
0.65278943
0.64944419
0.64829194
0.64948483
0.6518767
0.65378906
0.65551626
0.65889602
0.66666024
0.67174879
7.7333442
2.1945763
0.93146146
0.7091
0.6681532
0.6566973
0.6557435
0.65787761
0.65747361
0.65421248
0.6511552
0.65012572
0.65082529
0.65130655
0.64897004
0.64817411
0.64947335
0.65197346
0.65361072
0.65529815
0.65928485
0.66746563
0.67538421
8.4921987
2.3964774
0.9935389
0.72191261
0.67170698
0.65729109
0.65631471
0.65548523
0.6554293
0.65325023
0.64945364
0.64927259
0.64955368
0.64974674
0.64883639
0.6475948
0.64866429
0.65076798
0.65406535
0.65694665
0.66084464
0.66884017
0.67955592
9.3947646
3.1980503
1.2345368
0.7756188
0.68376322
0.65924145
0.65734677
0.65565454
0.65597655
0.65456292
0.64978451
0.64913905
0.64927617
0.64951677
0.64883899
0.64693203
0.64741822
0.6493001
0.65357608
0.65903356
0.6628354
0.66924914
0.68004034
10.496035
4.2690928
1.5392306
0.87074157
0.70675782
0.66579962
0.65755943
0.65490545
0.65553629
0.65518284
0.65071592
0.64944985
0.64927386
0.64968765
0.64961306
0.64781054
0.64722562
0.64854715
0.65305004
0.65980654
0.66426388
0.66852948
0.67761652
11.766668
4.0056031
1.4930314
0.86579016
0.70799351
0.66616181
0.65609503
0.6531131
0.65376475
0.65361817
0.64914257
0.64705238
0.64721806
0.64856673
0.64980964
0.64960497
0.64937843
0.65002509
0.65306632
0.66045691
0.66498054
0.66892373
0.67651795
12.640735
2.9352993
1.2487124
0.80971901
0.6939103
0.66046565
0.64979404
0.64705528
0.64750795
0.64815214
0.64524306
0.64273423
0.64312686
0.64551727
0.6482023
0.64991024
0.65124217
0.65202781
0.6540371
0.66116861
0.66632499
0.66936911
0.67606155
13.608116
2.8850944
1.190171
0.78960897
0.68836374
0.65415536
0.64437037
0.64191648
0.64268892
0.6441688
0.64332973
0.64139513
0.64128203
0.64347427
0.64756391
0.64964229
0.65089978
0.65196881
0.6545452
0.66163901
0.66970909
0.67275574
0.67767729
14.731188
3.1276363
1.211632
0.79117648
0.68985684
0.65290807
0.64382019
0.64129105
0.64227836
0.64286783
0.64237315
0.64198292
0.64276259
0.64459188
0.64828978
0.6497886
0.6506021
0.65190667
0.65445389
0.66044767
0.66968013
0.67623441
0.68133895
15.893966
3.5577384
1.2504802
0.79351745
0.69050873
0.65131015
0.64376271
0.63995427
0.6411333
0.64102422
0.64156052
0.64265268
0.64420229
0.64576058
0.64904961
0.65104617
0.65110385
0.65221858
0.6550985
0.66089726
0.6697876
0.67697616
0.68341682
17.032013
4.0198411
1.3207847
0.80021636
0.6922198
0.65095609
0.64406159
0.63841619
0.64000732
0.64008879
0.64060448
0.64196423
0.6437524
0.64565968
0.64966204
0.65276885
0.65316507
0.65324145
0.6557339
0.66285675
0.67331839
0.67967572
0.68481641
18.11136
4.6083714
1.4627945
0.82157202
0.69850199
0.6537544
0.64641607
0.6392849
0.6410585
0.64056447
0.64014562
0.64090623
0.64363371
0.64639354
0.6501323
0.65321034
0.65627563
0.65808591
0.65991722
0.66547597
0.67579223
0.68399683
0.68687476
19.074261
5.1519313
1.7557904
0.88383689
0.71777072
0.66158257
0.65288329
0.64286303
0.64564311
0.64352555
0.64081728
0.64115429
0.64589597
0.65094662
0.65339083
0.65342364
0.65591484
0.66075922
0.6638235
0.66838192
0.67775591
0.6865113
0.6887401
19.815056
5.5186275
1.9994215
0.98859645
0.75004772
0.67732376
0.66208046
0.65039319
0.65180857
0.6475996
0.64231702
0.641714
0.64786679
0.65363144
0.65494359
0.6539761
0.65642483
0.6608983
0.66431773
0.66884518
0.68033041
0.68834543
0.68968084
20.26412
5.5994043
2.0902674
1.035671
0.76161911
0.68463009
0.66554983
0.6543431
0.65250486
0.64719299
0.64177114
0.64165764
0.64889013
0.65495251
0.65568127
0.65464349
0.65730471
0.66174984
0.66492198
0.67017686
0.68264908
0.68989096
0.69029709
20.402148
5.5999891
2.1019394
1.0452449
0.76315247
0.68556298
0.66537344
0.65448536
0.65137779
0.64519809
0.64076807
0.64133514
0.64870909
0.65437743
0.65543294
0.65511161
0.65752935
0.66182073
0.66568793
0.67260475
0.68523184
0.6911394
0.69085876
20.20356
5.3250944
2.0027494
1.0168453
0.75192578
0.68383402
0.66389952
0.65344941
0.64958171
0.64383637
0.64005445
0.64110714
0.64888008
0.65507345
0.65622318
0.65518179
0.65653438
0.66111153
0.66739576
0.67689603
0.68741372
0.69088456
0.69133613
19.829937
4.9509144
1.7530986
0.93498578
0.7306141
0.68038543
0.66166905
0.650786
0.64608434
0.64223204
0.63963297
0.64061943
0.648965
0.65542492
0.65707908
0.65536046
0.65513627
0.66056277
0.66905983
0.68022078
0.68828758
0.68973586
0.69070651
19.198863
4.8002196
1.6115771
0.86955191
0.70706866
0.67107703
0.65573376
0.6463727
0.64203608
0.63771874
0.63626672
0.63924928
0.6486866
0.65459916
0.65642843
0.65531856
0.65585194
0.66146812
0.67035753
0.68353771
0.68861474
0.68885971
0.69036011
18.331168
4.2020372
1.4427932
0.81698358
0.69065793
0.66287032
0.6503045
0.6427683
0.63774493
0.63432321
0.63372068
0.63874239
0.64831276
0.65252098
0.65395315
0.65431436
0.65635247
0.66202231
0.67230133
0.6854247
0.68848475
0.68851182
0.6923432
17.355811
4.0662883
1.3264674
0.78316475
0.68719613
0.66212637
0.64865845
0.64065222
0.63728268
0.63516148
0.63533667
0.64086782
0.64890858
0.65218575
0.6536276
0.65440412
0.65669811
0.66416557
0.67917636
0.68631061
0.68791159
0.68868941
0.69754758
16.201946
3.9913183
1.2700053
0.76257365
0.68577979
0.66393487
0.6480449
0.64032871
0.63847083
0.63929952
0.64103012
0.64632487
0.65238998
0.65480313
0.65640238
0.65701037
0.66042253
0.67495458
0.68516718
0.68761696
0.68799825
0.69109615
0.70720517
15.026249
3.4341754
1.1280916
0.73348981
0.6778113
0.66135973
0.64483012
0.6389078
0.63871554
0.64091932
0.64411368
0.65142392
0.65577794
0.65800925
0.65961028
0.66151305
0.67133698
0.6843367
0.68854582
0.68982848
0.69165617
0.70374406
0.73373117
13.860668
3.1201419
1.0347809
0.71308568
0.66899737
0.65350261
0.64102062
0.63748815
0.6383506
0.64102826
0.64582768
0.65342322
0.65658045
0.65871217
0.66012604
0.66509519
0.67980363
0.68915475
0.69324291
0.69702497
0.70780913
0.73215057
0.75649347
12.579045
2.9831042
1.0033623
0.70481328
0.66336597
0.64939961
0.640008
0.63756314
0.63841953
0.64198308
0.64988118
0.65426424
0.65608729
0.65735022
0.6599884
0.66879828
0.68405698
0.69126832
0.69696679
0.70486159
0.72104983
0.7494732
0.76390373
11.492085
2.6388948
0.94223225
0.69902287
0.66193393
0.64787066
0.64038063
0.63906751
0.64088797
0.64545953
0.6522386
0.65484704
0.65593395
0.65783813
0.66399178
0.67851111
0.68667472
0.6928809
0.70096363
0.71563654
0.74544751
0.76591325
0.7831604
10.513509
2.5035338
0.89713063
0.6953867
0.66307036
0.64937537
0.64354837
0.64327806
0.64761186
0.65420626
0.65656096
0.65736876
0.6593325
0.66410315
0.67709748
0.68689906
0.69033506
0.69709961
0.71367096
0.74684305
0.76640326
0.78217563
0.80458434
9.4799634
2.3105221
0.85946871
0.69318479
0.66425227
0.65322205
0.64971062
0.64997359
0.65661234
0.66210467
0.66322584
0.66392417
0.67013483
0.68147402
0.68919331
0.69425139
0.70091044
0.71859184
0.74790532
0.7660094
0.78177441
0.80337769
0.84057573
8.6428594
1.9827216
0.81186384
0.68876452
0.66357718
0.65526136
0.65416828
0.65784185
0.66404565
0.66826409
0.67180434
0.67783016
0.68520551
0.69461471
0.6997602
0.70655999
0.7287127
0.75117889
0.76464847
0.78412839
0.81012609
0.85235301
0.93297528
7.8201392
1.9109739
0.78920452
0.68140297
0.66093462
0.6559214
0.65708329
0.66288666
0.66892771
0.67158364
0.67493379
0.68191373
0.69031302
0.70181209
0.71259298
0.7311722
0.75495473
0.76934124
0.78811483
0.82401597
0.88966031
1.0258578
1.3283578
7.0603596
1.7621871
0.76131312
0.67574712
0.65773561
0.65518248
0.65876855
0.66558041
0.67014521
0.67343304
0.67950784
0.68912773
0.70290562
0.71869579
0.73711996
0.7553419
0.77186687
0.80037936
0.85022366
0.96255966
1.2118865
1.7592476
2.9446298
6.4469753
1.612597
0.74722206
0.67073262
0.65665297
0.65453288
0.65747802
0.66417467
0.67016261
0.67658501
0.68421962
0.69626535
0.71226121
0.7273957
0.74853131
0.77553922
0.81270233
0.89751563
1.0953331
1.5578597
2.5995306
3.7680052
4.5890869
5.8491119
1.4779658
0.71967237
0.66503258
0.65617412
0.65671207
0.6639795
0.67044654
0.67406055
0.68335727
0.69776054
0.71597871
0.73692645
0.76385658
0.81379347
0.91285291
1.1190968
1.5431701
2.2757087
3.2656266
4.090166
4.5281097
4.7273485
5.5942369
1.5538139
0.72934107
0.66752925
0.65695158
0.65749785
0.66621347
0.67483109
0.67891689
0.68553903
0.69908619
0.71936325
0.74611769
0.78454595
0.85615032
1.0094713
1.3299815
1.9227852
2.794752
3.728311
4.2781223
4.4849333
4.4539435
5.5981084
1.5181865
0.73071007
0.66924428
0.65898846
0.65846263
0.66607853
0.67434593
0.67922023
0.68688929
0.70135013
0.7212414
0.74762112
0.78864053
0.86677485
1.0382925
1.4144642
2.1050157
3.0597584
3.8779099
4.2144774
4.2855235
4.189919
5.6973705
1.5226949
0.72940594
0.66770886
0.6577919
0.65788523
0.66586672
0.67402131
0.67822669
0.68587765
0.70151238
0.72326744
0.75167069
0.79622993
0.88533092
1.0905273
1.5396078
2.3147138
3.2451333
3.8821809
4.1182758
4.1522053
4.0698039
5.6916303
1.6128288
0.73436313
0.66692315
0.65613508
0.65600243
0.66428979
0.67384425
0.67873559
0.68574856
0.70019853
0.72198543
0.75157987
0.79828189
0.89219545
1.1029713
1.5603722
2.3442442
3.2475154
3.8445249
4.0380277
4.0722171
4.0280808
5.7985328
1.616883
0.73775757
0.66765168
0.65648168
0.65580233
0.6632514
0.67184075
0.67753752
0.68462979
0.69782585
0.71985684
0.75035238
0.79716376
0.89125935
1.0995208
1.5484156
2.3193552
3.1960838
3.7313528
3.9448773
4.0311162
4.0095257
5.8437622
1.6652368
0.7395422
0.67007365
0.65790366
0.65729937
0.66443078
0.67196259
0.67674992
0.68337164
0.69561693
0.71622838
0.74606991
0.79362812
0.88833749
1.0905084
1.5180349
2.2577271
3.100535
3.6365638
3.8965003
4.0221208
4.0027311
5.8123938
1.6020076
0.73622668
0.67086263
0.6594224
0.65899554
0.66632939
0.67310925
0.67731603
0.68375766
0.69578752
0.71598597
0.74462784
0.79070387
0.88133508
1.0670333
1.4499844
2.132875
2.9480108
3.5057904
3.8208868
3.9997522
3.9738101
5.9758908
1.5991282
0.73508215
0.67251094
0.66131891
0.66059376
0.66808869
0.67453543
0.67881156
0.68599528
0.69902722
0.71958274
0.74768124
0.79393728
0.88513461
1.0672774
1.4098975
1.9828814
2.7055229
3.3147451
3.7232579
3.9780223
3.9557587
5.8725556
1.6629034
0.73970621
0.67825349
0.66711525
0.66527506
0.67346244
0.67972492
0.68486194
0.6933152
0.70851069
0.73012336
0.75808381
0.80648567
0.90249857
1.0879899
1.4318224
1.9899453
2.6920631
3.3182443
3.7313585
3.9363921
3.8897321
6.1277629
1.6333069
0.74448503
0.69015171
0.68145435
0.67903709
0.68836761
0.692767
0.69552678
0.70545094
0.72333057
0.74676019
0.7782896
0.83489081
0.94255775
1.1481965
1.5173519
2.0941893
2.8128013
3.458036
3.7326056
3.8001873
3.6975941
6.0142815
1.5640001
0.74425911
0.69776345
0.69124534
0.6906001
0.70197333
0.70963509
0.71895995
0.73281161
0.75593692
0.78025513
0.8180898
0.88594412
1.0305492
1.3088306
1.7981734
2.5809336
3.2524671
3.5506447
3.6451935
3.5681929
3.498014
6.4312159
1.5033295
0.74070444
0.7022668
0.69481279
0.69772822
0.70963131
0.72052315
0.73533061
0.75773707
0.7869327
0.82180601
0.87601901
0.99859095
1.2705436
1.8257533
2.6573117
3.1804473
3.4030705
3.4866163
3.4664561
3.3748703
3.2984927
6.6913364
1.6425179
0.7478151
0.71944642
0.70524736
0.71707119
0.72800385
0.74461684
0.75881822
0.78797225
0.83360898
0.89362489
0.99744415
1.2919156
2.0054373
2.7561592
3.1113337
3.2788623
3.3492029
3.3510125
3.2837887
3.1784616
3.064059
6.6358737
1.6873015
0.76399901
0.73136609
0.73171529
0.74115159
0.76222378
0.78351219
0.81102636
0.85410202
0.90806389
0.99818783
1.2830811
2.0568646
2.7227056
3.0220048
3.1584646
3.2214513
3.2238791
3.1635258
3.0737462
2.9528091
2.808492
6.8862889
1.6014915
0.76049093
0.73145408
0.73790314
0.751752
0.78135205
0.80144279
0.83856399
0.88940886
0.98178287
1.2289306
1.9307273
2.6069647
2.8953983
3.0287013
3.0922665
3.0845928
3.0287897
2.9488883
2.8450905
2.722188
2.5866315
7.1386649
1.6044992
0.75385045
0.72992146
0.73711716
0.75310338
0.78850729
0.81839327
0.86913549
0.94480576
1.1294299
1.6394881
2.3879522
2.737153
2.8879349
2.9567127
2.9482168
2.904431
2.8385129
2.75641
2.6555047
2.5436122
2.4265168
7.6854146
1.7041109
0.7548758
0.72366077
0.73476745
0.7521682
0.78836022
0.82766944
0.89601075
1.0282186
1.3478079
1.961665
2.5075667
2.7256404
2.8166462
2.8242921
2.8030454
2.7561958
2.6965768
2.6254945
2.5398967
2.4427619
2.3396384
8.2535475
2.0101851
0.77282107
0.71926984
0.72722067
0.74909519
0.78542886
0.82667946
0.89599726
1.0369797
1.3851365
2.0156838
2.4977128
2.6624567
2.6907944
2.6888565
2.6639347
2.6270245
2.585122
2.5359095
2.4725454
2.3918613
2.298854
8.4129725
2.5346411
0.83093533
0.72156936
0.72071635
0.73975492
0.77845667
0.82226496
0.88953072
1.0241629
1.3580943
1.9767643
2.4458617
2.5619491
2.5863218
2.5788137
2.5539318
2.5213921
2.4883205
2.4533563
2.4108235
2.3527071
2.2742095
8.3279782
3.2967031
0.99980196
0.73710203
0.72188049
0.73473918
0.76543178
0.81037132
0.8724472
0.98878052
1.2738348
1.8632924
2.3398774
2.4488535
2.4719203
2.4714606
2.4589267
2.4413064
2.4183762
2.3879108
2.3481386
2.2993759
2.2408804
8.0907423
3.9285216
1.3007072
0.78747194
0.72968414
0.73700256
0.76039876
0.79916216
0.84947265
0.93062663
1.1166663
1.5761462
2.1898884
2.36978
2.3804199
2.3697911
2.3468222
2.3329244
2.3255295
2.3161725
2.2955272
2.2572295
2.2002078
7.7675133
4.4364568
1.6075583
0.87219843
0.74995351
0.74586206
0.7619834
0.79793497
0.83612996
0.89511081
1.0036682
1.2568514
1.8204911
2.2355873
2.3235989
2.3134681
2.2847336
2.2422886
2.2151383
2.2036763
2.2025864
2.2026852
2.1728483
7.3928414
4.8818708
2.122935
1.0690343
0.79787964
0.76498046
0.77093718
0.79844338
0.83307163
0.87959345
0.945422
1.0753441
1.3606065
1.9013302
2.2027863
2.2674628
2.2582868
2.2270521
2.1774534
2.1389101
2.1145434
2.1181657
2.1153349
7.0277319
4.9315154
2.3987279
1.2994298
0.90758994
0.81556601
0.79850089
0.80644283
0.83299455
0.87330636
0.91935286
0.98993728
1.1228132
1.3998172
1.8547741
2.1383739
2.209714
2.2086997
2.1839662
2.1416254
2.1065585
2.0848092
2.0713367
6.7946786
4.9066054
2.6249692
1.4575095
0.99675763
0.86034889
0.82779147
0.82902139
0.83872404
0.86579526
0.90358611
0.95149813
1.0206866
1.1419073
1.3844106
1.7396445
2.0430842
2.1470653
2.1691619
2.1542133
2.1296424
2.1022935
2.0706758
6.4790658
4.8507283
3.0522188
1.6874387
1.1063607
0.90707887
0.84745216
0.84154685
0.84767152
0.86455433
0.89443838
0.93456813
0.9836941
1.0479759
1.1630086
1.351783
1.6129302
1.90393
2.0719594
2.1223587
2.1266406
2.1196358
2.0925715
6.1112935
4.3699032
3.2685807
2.1708677
1.3433493
1.0105887
0.88892323
0.85752637
0.8562527
0.86495863
0.88490482
0.91707121
0.95326351
1.0050584
1.0631924
1.1590094
1.2947313
1.4931102
1.7319026
1.9512874
2.0530597
2.0817171
2.1198744
5.9825653
3.838604
3.2868056
2.7342427
1.9640807
1.3436549
1.0202782
0.90473702
0.87066412
0.86630035
0.87137257
0.88438306
0.90723168
0.94560955
0.98465831
1.0413615
1.1197435
1.2235604
1.3747438
1.5384863
1.7639474
1.9019469
2.0436609
6.0939083
3.8909189
3.2456958
2.920372
2.4518623
1.8771389
1.3991145
1.0874219
0.92764622
0.87526184
0.86330581
0.86429868
0.87216337
0.89166555
0.92717422
0.9615053
1.0214005
1.0734898
1.1747372
1.2582563
1.426832
1.5299992
1.756673
6.5358317
3.8175488
3.0586529
2.8738165
2.5602897
2.0838103
1.6153218
1.2734643
1.0558345
0.92299638
0.87042114
0.85935066
0.8610342
0.8686355
0.88943277
0.91113641
0.95605116
0.98706376
1.0518154
1.0985051
1.2008216
1.2713216
1.4687588
6.8898307
3.2953499
2.6394393
2.655494
2.5169345
2.0989722
1.6303097
1.2991733
1.0911191
0.96473055
0.89244541
0.8618185
0.8565694
0.85859948
0.86661227
0.87931386
0.90812169
0.92824401
0.97183868
1.0014431
1.0709218
1.11397
1.2345342
6.9661545
2.6041022
2.3257589
2.4062605
2.378728
2.042227
1.5906084
1.278155
1.0834134
0.96483351
0.8940524
0.86150895
0.85183267
0.85044296
0.85240167
0.85861017
0.87617991
0.89091052
0.92355133
0.94391364
0.98852453
1.0194401
1.1154783
6.9532177
2.3128125
2.1543295
2.1863832
2.118496
1.8469088
1.4600737
1.2085747
1.0522837
0.95196363
0.88765208
0.8569403
0.8447963
0.84209629
0.84310069
0.84708778
0.86057367
0.87168141
0.89603555
0.91060857
0.94287373
0.96470768
1.0295454
6.8979957
2.1710191
2.0342149
1.963053
1.794115
1.5118259
1.2315975
1.0701626
0.97759076
0.91622208
0.86893101
0.8439202
0.83141133
0.8275148
0.82753899
0.82916991
0.83458501
0.84129868
0.8589796
0.86919406
0.89740446
0.89790826
0.91100563
6.8362205
2.0746429
1.9025802
1.7300047
1.4710079
1.2153507
1.0335907
0.93866629
0.88540918
0.84878224
0.824264
0.81012005
0.80036558
0.79473745
0.79262314
0.79259922
0.79584594
0.8007643
0.81249608
0.82011302
0.83268699
0.85590304
0.90171515
6.7660858
1.9819222
1.7404999
1.5057756
1.2041916
0.99557101
0.88456013
0.831546
0.8023846
0.77972146
0.7666313
0.75784969
0.75239256
0.74852685
0.74776637
0.74900432
0.75443309
0.75877777
0.7685825
0.77637
0.78740494
0.80604123
0.86749637
6.6927694
1.9007349
1.5663625
1.2996767
1.0064248
0.84767078
0.7797544
0.74992617
0.7334041
0.7187832
0.71218115
0.70650431
0.70380834
0.70261162
0.70388791
0.70617104
0.71229507
0.71698671
0.72523934
0.7366395
0.74428927
0.75833218
0.93361879
6.6244942
1.8387974
1.3997754
1.1143612
0.86479536
0.75048156
0.70833763
0.69072656
0.68061097
0.67122404
0.6681841
0.66518417
0.66486161
0.66574961
0.66890895
0.67160657
0.67718859
0.68159617
0.68732346
0.69340444
0.69934932
0.78668507
1.0767543
6.5637492
1.773907
1.2423009
0.95582356
0.76196606
0.68490766
0.65893335
0.64801362
0.64162149
0.63614556
0.6354924
0.63490785
0.63650226
0.6383359
0.64230214
0.6447384
0.65021009
0.65335781
0.65991355
0.66203814
0.66450195
0.74984891
1.1344979
6.5069239
1.7019981
1.0975429
0.82993305
0.68808177
0.63901054
0.62340539
0.61663408
0.61292257
0.61048174
0.61134585
0.61225599
0.61487019
0.61659225
0.61984854
0.62214659
0.6261221
0.62903764
0.63364196
0.63775584
0.64625795
0.79799954
1.4980512
6.4581981
1.6315846
0.97358394
0.73911369
0.63755389
0.60704483
0.59770842
0.5937633
0.59207372
0.59160405
0.59318219
0.59451927
0.5969974
0.59827669
0.60063146
0.60240524
0.60503071
0.60780972
0.60967728
0.61493101
0.62589797
0.95476197
1.8682968
6.4170377
1.5667757
0.87472532
0.67603723
0.60388861
0.58488359
0.57925947
0.57713293
0.57668667
0.57729111
0.57919708
0.58054745
0.58258597
0.58353197
0.58545149
0.58662279
0.58917354
0.59063355
0.59389054
0.59515555
0.61252654
0.94157093
1.8662098
6.3826166
1.5036174
0.79808733
0.63254169
0.58152026
0.56950065
0.56618642
0.56528763
0.565562
0.56669794
0.56844561
0.56969091
0.57117387
0.57199341
0.57343731
0.57445366
0.57661221
0.57824716
0.58233625
0.58601561
0.61272917
1.0152188
2.014037
6.3556616
1.4518134
0.74230202
0.60417469
0.56682006
0.55867868
0.556634
0.55642045
0.55704035
0.55825078
0.55963515
0.56065289
0.56162594
0.56218882
0.56290243
0.56401768
0.56516931
0.56779595
0.57052967
0.57613691
0.62338057
1.2480224
2.2567138
6.3352812
1.4073591
0.70152051
0.58556033
0.55708402
0.55102145
0.54955592
0.54957108
0.55023688
0.55132325
0.5523931
0.55318262
0.55386887
0.55415871
0.55475959
0.55551664
0.55674056
0.55879027
0.56098227
0.56657731
0.61962229
1.2096762
2.2011862
6.3230805
1.3615551
0.67059289
0.57279681
0.55035794
0.54566022
0.54453164
0.54459879
0.54527692
0.54617557
0.54699997
0.54767524
0.54835517
0.54853259
0.54928837
0.54981775
0.55156289
0.55300203
0.55607267
0.56125714
0.62032998
1.1776556
2.194815
6.3142971
1.3320454
0.6510067
0.56488623
0.54562019
0.54176225
0.54085182
0.54091073
0.54152194
0.54225217
0.5429336
0.54341307
0.54413459
0.54429266
0.54495406
0.54535194
0.54699016
0.54813838
0.5510861
0.55763162
0.62556043
1.1732086
2.014766
6.3137727
1.3202817
0.64174644
0.56024224
0.54242183
0.5388269
0.5379683
0.53790865
0.53829263
0.53878518
0.53925669
0.53964859
0.54027427
0.54056129
0.54095248
0.54127648
0.54228238
0.54349913
0.54568693
0.55630475
0.64293471
1.2044667
1.8961419
6.3163233
1.3005833
0.63623174
0.55698377
0.539963
0.53659369
0.53583345
0.53574429
0.53594372
0.5362455
0.53641132
0.53673904
0.53707449
0.53749799
0.53766763
0.5381681
0.53858029
0.54025122
0.54345793
0.55719055
0.67175275
1.334
1.9907513
6.3264309
1.2906822
0.63480421
0.55484771
0.53826464
0.53518631
0.53458876
0.53453505
0.53461752
0.53486394
0.53484803
0.5352156
0.53533165
0.53600144
0.53591966
0.53687417
0.53713307
0.53963306
0.54403425
0.56553762
0.74664064
1.5362973
2.2797517
6.3446076
1.2937686
0.63551404
0.55443054
0.53719492
0.53424526
0.53371865
0.53369317
0.53376522
0.53404912
0.53405335
0.53444757
0.53445509
0.5351453
0.53504682
0.53611694
0.53656106
0.53970123
0.54841972
0.6079487
0.89842912
1.5311626
1.9840072
6.3704001
1.3132695
0.63890993
0.55463421
0.53656302
0.5334297
0.53289146
0.53282663
0.53288682
0.53316669
0.53330042
0.53364456
0.53379481
0.53424582
0.53454487
0.53540069
0.53646197
0.54034173
0.5598619
0.64584503
0.99205817
1.5769873
1.8684452
6.3994912
1.3300869
0.64613859
0.55515054
0.53596577
0.53253697
0.53200627
0.53196703
0.5321068
0.53235675
0.53260295
0.53286743
0.53315525
0.53345241
0.53408723
0.53485217
0.53641685
0.54069976
0.56482551
0.74415117
1.3375844
1.9460086
2.2150502
6.4381317
1.366323
0.66099551
0.55728882
0.53596699
0.53193754
0.53128684
0.53125951
0.53139644
0.53160604
0.53175405
0.53201776
0.53231283
0.53279809
0.53342687
0.53450122
0.53622528
0.54037475
0.56243685