/*--------------------------------*- C++ -*----------------------------------*\
| =========                 |                                                 |
| \\      /  F ield         | OpenFOAM: The Open Source CFD Toolbox           |
|  \\    /   O peration     | Version:  2406                                  |
|   \\  /    A nd           | Website:  www.openfoam.com                      |
|    \\/     M anipulation  |                                                 |
\*---------------------------------------------------------------------------*/
FoamFile
{
    version     2.0;
    format      ascii;
    arch        "LSB;label=32;scalar=64";
    class       volScalarField;
    location    "20";
    object      rho_0;
}
// * * * * * * * * * * * * * * * * * * * * * * * * * * * * * * * * * * * * * //

dimensions      [1 -3 0 0 0 0 0];

internalField   nonuniform List<scalar> 
20580
(
0.99841812
0.99957907
1.0003092
0.99890811
0.99796789
0.99708763
0.99849867
0.99703225
0.9982893
0.99937336
0.99949046
1.0006655
1.0007482
1.0011391
1.0005838
1.0009191
1.0000811
1.001328
1.0010198
1.0010831
1.0010123
1.001718
1.0015553
1.0027986
1.0019247
0.99958906
1.0014385
1.0022212
1.0028121
1.0020611
1.0035506
0.99854844
0.99943549
1.0002594
0.99873868
0.9984077
0.99696273
0.99851402
0.99690014
0.99816834
0.99946015
0.99922643
1.0005658
1.0006764
1.0011017
1.0007457
1.000723
1.0002913
1.0011526
1.000598
1.0014609
1.0010756
1.0007603
1.0009509
1.0027185
1.0009628
0.99849431
1.0012275
1.0034298
1.0039536
0.99899503
1.0031053
0.99956253
0.99988498
0.9999295
0.99861096
0.99863645
0.99723997
0.99797687
0.9972612
0.99826301
0.99928731
0.99942243
1.0002523
1.0005551
1.0008726
1.0009374
1.0005377
1.0006776
1.0010822
0.99989739
1.0014774
1.001241
1.0003299
1.0006802
1.0012617
1.0005955
0.99966527
1.001825
1.0024745
1.0040023
0.99846369
1.0003969
1.0011305
1.0007801
0.99947862
0.99863828
0.99861111
0.99777141
0.99713387
0.99780913
0.99841095
0.99888836
0.9997192
0.99991336
1.0004743
1.0006262
1.0009409
1.0003709
1.000773
1.0009874
0.99963
1.0012838
1.0008621
1.0000462
1.0015766
1.0003208
1.0003241
1.0011662
1.0032516
1.002308
1.0022046
1.0004852
0.99912421
1.0026603
1.0019102
0.9990947
0.99865548
0.99833396
0.99825786
0.9964402
0.99819292
0.99843351
0.99859526
0.99980961
0.9999207
1.0003704
1.0004451
1.000684
1.000272
1.0004834
1.0006379
0.99988617
1.0011943
1.0002517
0.99960738
1.0025412
1.0007499
1.0007178
1.0011811
1.0028774
1.0031849
0.99977658
1.0014386
1.0000912
1.0035977
1.0029519
0.99896823
0.99877042
0.99790891
0.99842652
0.99643529
0.9983034
0.99825583
0.99849233
0.99962947
1.0001646
1.0003041
1.0003985
1.0003371
1.0003962
1.0002149
1.0001705
1.0004054
1.001261
0.99989235
0.99936809
1.0022553
1.0006876
1.0014194
1.0016663
1.0009181
1.0032456
0.99861859
1.000281
0.9999287
1.0035
1.0032288
0.99907139
0.99898677
0.99757699
0.99810098
0.99705736
0.99804458
0.99799398
0.99854818
0.99936619
1.0002583
1.0002864
1.0004963
1.0001972
1.0006749
1.0003032
0.99984988
1.0006385
1.0008316
0.99989476
1.0001128
1.0016448
0.99938641
1.0008195
1.0030338
0.99975983
1.0015583
0.99923164
1.0001203
0.99955441
1.002483
1.0024922
0.99928218
0.99907289
0.99761813
0.99747499
0.99777202
0.99748842
0.99787407
0.99866442
0.99929164
0.99991999
1.0002081
1.0004987
1.0003039
1.0008119
1.0005172
0.99985019
1.0009601
1.0000626
0.99995489
1.0009929
1.0017271
0.99844984
0.99897035
1.0034729
1.0005648
0.99895078
1.0000131
1.0023122
1.001781
1.0008148
1.0011383
0.99952665
0.99887537
0.99801392
0.99691652
0.99826915
0.99704627
0.99788722
0.99865352
0.99933808
0.99928815
1.000017
1.0002558
1.0004472
1.0006699
1.0005062
0.99992096
1.0012969
0.99956025
0.99979855
1.0007814
1.0016945
0.9991766
0.99841078
1.002018
1.0019505
0.9971133
0.99946463
1.0034747
1.0044644
0.99930128
0.99992109
0.99971476
0.99850697
0.99847616
0.99668009
0.99820873
0.99689986
0.99784327
0.99848577
0.99920651
0.999024
0.99975032
0.99993314
1.0003596
1.0002651
1.0002118
0.99973334
1.0012707
0.99932287
1.0001623
0.99998414
1.0002734
0.99982883
1.0002459
0.99982499
1.0021098
0.99790821
0.99921756
1.0019312
1.0043442
0.99865029
0.99930299
0.9998925
0.99828816
0.99886506
0.99708147
0.99756716
0.9970445
0.99775123
0.99839448
0.998831
0.99925098
0.99962057
0.9998307
1.0001924
0.99992065
0.99998759
0.99947297
1.0007762
0.99901266
1.0008659
0.99982583
0.99844652
0.999053
1.0021236
0.99879256
1.0006223
1.0003828
1.0012547
1.0001203
1.0017398
0.99915356
0.99941322
0.99993029
0.99833135
0.99887726
0.99783477
0.9967853
0.997435
0.9976824
0.9984273
0.99851215
0.99953723
0.99973121
0.99994044
1.0001512
0.99984251
1.0001305
0.99970252
1.0001263
0.99859425
1.0011975
1.0003431
0.99772738
0.99878157
1.0024678
0.99942017
0.99844451
1.0018157
1.0036966
0.99994811
0.99962623
1.0004495
1.0003519
0.99977914
0.99861859
0.99838999
0.99840333
0.99638695
0.99776308
0.99766094
0.99840355
0.99844266
0.99961559
0.99993548
0.99994956
1.0001913
0.99987558
1.0002194
1.0004033
0.99968176
0.99851454
1.000961
1.000448
0.99770271
1.0000407
1.001947
1.0004226
0.99743467
1.0015021
1.0040396
1.0005441
0.9980415
1.002114
1.0017186
0.99941725
0.99900377
0.99760597
0.99829298
0.99641966
0.99766324
0.9976797
0.99814293
0.99858977
0.99933677
0.99989837
0.99974794
1.0001894
0.99970106
0.99986203
1.0007894
0.99944432
0.99899067
1.0003499
0.99981241
0.9975029
1.0010463
1.0013173
1.0004757
0.9978719
1.0005005
1.0022575
1.0013527
0.99799426
1.0033903
1.0029035
0.99918486
0.99944955
0.99724332
0.9977473
0.99701286
0.99725631
0.99777633
0.99771811
0.99881582
0.99899038
0.99957255
0.9994615
0.99996945
0.99947785
0.99927412
1.0003528
0.99908481
0.99987134
0.99969544
0.99934523
0.99775648
1.0006288
1.0005527
0.99968677
0.99843614
0.99960161
0.9998236
1.0016218
1.0001116
1.0036711
1.003276
0.99912441
0.99952514
0.99739655
0.99710452
0.99776537
0.99695442
0.99778607
0.99754994
0.99882967
0.99889553
0.99936586
0.99929292
0.99962066
0.9994637
0.99904171
0.99967718
0.99848594
1.0005342
0.99907345
0.99919494
0.9993625
0.9995935
0.9994285
0.99875673
0.99916968
0.99945014
0.99805354
1.0003836
1.0014712
1.0023454
1.0024115
0.99916227
0.99895838
0.99785951
0.99672042
0.99797041
0.9968542
0.99749089
0.99767247
0.99845855
0.99889047
0.99938918
0.9993881
0.99930866
0.99970789
0.99940084
0.99950936
0.9981773
1.0009624
0.99843187
0.99858867
1.0013675
0.99922801
0.99812487
0.9980837
1.0006166
1.0003185
0.99754529
0.99849463
1.0002247
1.0004361
1.0007427
0.99939127
0.99822775
0.99848109
0.99687088
0.99761381
0.99699371
0.99703132
0.9978734
0.99807016
0.99873801
0.99932312
0.99965166
0.99906972
0.99988264
0.99981393
0.9997265
0.9984162
1.0013816
0.99805047
0.99757453
1.0018926
0.99993933
0.99710219
0.99749027
1.0019142
1.00184
0.99847686
0.9975406
0.9979082
0.99919566
0.99954169
0.99971241
0.99781245
0.99908723
0.99762885
0.99696087
0.99734344
0.99685697
0.99818628
0.99811417
0.99855759
0.99904878
0.99980827
0.9990553
0.99974313
0.99991709
0.9996964
0.99861219
1.0012938
0.99821572
0.99728581
1.0005221
1.000859
0.99694393
0.99719849
1.0019167
1.0025304
1.0000328
0.9979566
0.99701856
0.99914131
0.9993918
0.99979511
0.9977586
0.99903796
0.99823013
0.99648728
0.99755118
0.99702641
0.99834508
0.99835681
0.99848635
0.99880795
0.99974554
0.99917963
0.99953678
0.99980342
0.99926626
0.99866795
1.0001245
0.99867253
0.99813364
0.99865157
1.000864
0.99786614
0.99767092
1.0008427
1.001368
1.0006811
0.99900083
0.99823029
1.0000517
1.0000849
0.99954752
0.99823542
0.99841833
0.99813685
0.9964678
0.99726444
0.99722382
0.99799172
0.998366
0.99856036
0.99869035
0.99936576
0.99933867
0.99936614
0.99955105
0.99877916
0.99904336
0.99859848
0.9989267
0.99961217
0.99808244
0.99972628
0.99915338
0.99920514
0.99969989
0.99886634
0.99988925
0.99979254
0.99994252
1.0016505
1.0017321
0.99929136
0.9990346
0.99795933
0.99767978
0.99700966
0.9967256
0.99743194
0.99772433
0.99830545
0.99895346
0.99908019
0.99901362
0.99951533
0.99927554
0.99946453
0.9989039
1.00029
0.9976763
0.99913682
1.0007522
0.99893044
0.99800772
0.99963548
1.0012853
0.99936652
0.99679896
0.99816413
0.99994062
1.0011167
1.0033215
1.0041631
0.99848725
0.99933579
1.0015153
0.99797427
0.99493895
0.99545488
0.99833947
0.99970983
0.99967395
0.99858265
0.99851442
0.99867688
1.0000685
0.99996083
1.00103
1.0003378
1.0019716
0.99721866
0.99886339
1.0005047
0.99968773
0.99627257
0.99902049
1.0028277
0.99993862
0.99655154
0.99701861
0.99865216
1.0016018
1.0002249
0.99947696
1.0002336
1.0004482
1.0005618
1.0018488
1.0030482
1.0009101
0.99688424
0.99569472
0.99790653
0.99940718
0.99974258
1.0018335
1.0029697
1.0015192
1.0008196
1.0019936
1.0030565
1.0031038
1.0033456
1.0002895
0.99472689
0.99751839
0.99874271
0.9999368
1.0002219
1.0009809
1.0025376
1.0024988
1.0002576
0.99971778
1.0019039
1.0030437
1.0011693
0.99811768
0.99777224
0.99930278
0.99860309
0.99824206
1.000852
1.0025748
1.0032543
1.0037896
1.0026593
0.99940781
1.0015052
1.0019965
0.99896467
0.99728833
0.99722761
0.99803992
0.9988312
1.0001547
1.0025214
1.0036131
1.0024401
1.0007224
1.0003761
1.0013015
1.0006818
0.9982285
0.99808403
1.0002963
1.0011028
0.99931194
0.99815982
1.0003562
1.0020802
1.0047059
1.0023167
1.0006488
0.99862986
0.9971358
0.99699963
0.99812547
1.0001568
1.0011586
1.0002541
0.99845684
0.99827341
1.0002116
1.0021901
1.0024077
1.0025088
1.003908
1.003556
0.99962938
0.99506472
0.99417601
0.99710911
0.99993164
1.0001541
1.00022
1.0006624
1.0009313
1.0013331
1.002586
1.0037151
1.0025298
0.9996442
0.99715907
0.99651089
0.99772285
0.99915796
0.99984633
1.0007088
1.0028094
1.0045719
1.0027237
0.99870083
0.99666188
0.99847453
1.0016936
1.0010158
0.99907999
0.99921833
0.99876938
0.99904504
1.0006688
1.0029364
1.0039212
1.0026527
1.0006197
0.99949896
0.99987324
1.0006592
1.000261
0.99863678
0.99753364
0.99819455
0.99898158
0.99838784
0.99798081
0.99950482
1.0031343
1.0057375
1.0036829
1.0024931
1.0013963
0.99968888
0.99834764
0.99794698
0.99830096
0.99840621
0.99833718
0.99911274
1.0012397
1.0039137
1.0049825
1.0034546
1.00057
0.99779024
0.9956662
0.99476871
0.99535083
0.99720248
1.0000747
1.0030581
1.0039863
1.00165
1.0035858
1.0022729
1.0006174
0.99937506
0.99832169
0.99745236
0.99661053
0.99633509
0.9975771
0.99997498
1.0020576
1.0025499
1.001895
1.0008955
0.99991817
0.99915233
0.99863269
0.99826049
0.99814702
0.99823081
0.99866002
0.99851198
0.9970499
1.0003892
0.99947198
0.99943853
0.99964517
0.99968951
0.99938182
0.99917458
0.99932855
0.99972977
0.99961365
0.99867696
0.99731765
0.99641735
0.99665356
0.99828808
1.0007319
1.0028081
1.0033073
1.0019122
0.99941838
0.99694952
0.99486424
0.99342725
0.99698412
0.99730105
0.99864431
1.0002386
1.0014761
1.0020563
1.001913
1.0011979
1.000112
0.99884338
0.99735853
0.99587604
0.99489181
0.99476835
0.99600456
0.99841148
1.0008735
1.002344
1.002491
1.001054
0.99853149
0.99633899
0.99501781
0.99566011
0.99644814
0.99846118
1.0006841
1.0021278
1.002142
1.0011246
0.99962072
0.99837713
0.99776717
0.99749545
0.99761689
0.99779126
0.99766822
0.99744559
0.99735444
0.99745967
0.9977837
0.99815326
0.99811164
0.99783212
0.99774753
0.99795884
0.99780065
0.99817576
0.9989975
0.99929067
0.99903701
0.99818887
0.99705675
0.99626264
0.99623811
0.99706284
0.99850864
0.99999285
1.0010485
1.0011017
0.99974893
0.99752425
0.99555009
0.99446021
0.99406427
0.99401915
0.99471095
0.99632806
0.99852238
1.0014995
1.0008747
0.99975971
0.99810967
0.99640979
0.99467314
0.99374742
0.99366172
0.99439103
0.99587721
0.99800079
1.0002814
1.0018963
1.0020431
1.0006868
0.99830818
0.99569403
0.99367785
0.99259328
0.99243581
0.99299461
0.99433604
0.99680138
1.0018802
1.0011524
0.99964801
0.99750769
0.99554562
0.99412638
0.99349887
0.99352149
0.99417975
0.99534097
0.99686991
0.9983759
0.99943186
0.99975531
0.99909503
0.99801138
0.99680842
0.99548459
0.99449564
0.99393885
0.99375548
0.99386642
0.9945633
0.99878903
0.99818937
0.99717336
0.99620647
0.99548988
0.99510327
0.99506624
0.99543377
0.99611491
0.99673087
0.99719362
0.99739154
0.99707087
0.99648386
0.99587802
0.9954331
0.99554322
0.99612226
0.99661022
0.99636669
0.99566212
0.9948333
0.99383871
0.99493562
0.99503815
0.9952674
0.99563235
0.99616433
0.99671489
0.99703692
0.99735901
0.99745466
0.99745185
0.99714686
0.99644468
0.9953205
0.99438654
0.99377828
0.99376488
0.99426627
0.9955069
0.99674856
0.99737822
0.99711536
0.99587963
0.99420248
0.99188803
0.99268218
0.99401861
0.99562045
0.99719597
0.99839054
0.9988006
0.99837955
0.99737367
0.99598502
0.99464491
0.99369008
0.99308808
0.99259963
0.99255056
0.99317808
0.9944595
0.99607932
0.99750185
0.99820401
0.99783088
0.99660808
0.99440928
0.9911524
0.99195766
0.99333271
0.99517869
0.9970597
0.99848833
0.99891169
0.9982153
0.99665832
0.99468963
0.99291829
0.99178162
0.99128906
0.99136004
0.99191368
0.99299148
0.99451145
0.99611345
0.9974724
0.99822465
0.99809858
0.99699204
0.99491183
0.99126513
0.99190998
0.99290074
0.99417628
0.99573557
0.99695098
0.99743668
0.99713794
0.9962342
0.99506645
0.99385038
0.99277327
0.99203927
0.99168927
0.99177056
0.99219253
0.99308876
0.99432194
0.99548766
0.99625308
0.99648069
0.99622083
0.99534354
0.98919304
0.9901784
0.99156392
0.99359384
0.9958448
0.99752284
0.99808604
0.9975418
0.99617507
0.99450808
0.99295566
0.99185627
0.99144893
0.99171159
0.99248083
0.99326137
0.99395177
0.99454067
0.99479505
0.99455143
0.99418475
0.99402522
0.99385916
0.98711302
0.98853894
0.99082314
0.99406446
0.99730278
0.99963579
0.99989321
0.99808786
0.99493096
0.991626
0.98929874
0.98858989
0.98936833
0.99122048
0.99333931
0.99518591
0.9964352
0.99663457
0.99555432
0.99378946
0.9925234
0.99235541
0.99289275
0.98800256
0.98925723
0.99132769
0.99375987
0.99622867
0.99777366
0.99784355
0.99632339
0.99370699
0.99098855
0.98928069
0.98896037
0.98977321
0.99128564
0.99292301
0.99424817
0.99498715
0.99477674
0.993879
0.99306479
0.99297317
0.99383438
0.99486055
0.98864975
0.98974973
0.99129138
0.99311864
0.99478577
0.99596811
0.99632146
0.99563109
0.99408081
0.99213907
0.99054114
0.98960819
0.98941077
0.99016848
0.99152508
0.99279878
0.99360321
0.99381145
0.99366147
0.99355866
0.99388114
0.99449934
0.994431
0.9873592
0.98891673
0.99121699
0.99366602
0.99541617
0.99626945
0.99603583
0.99481558
0.99278814
0.99066016
0.9890948
0.98873961
0.98984772
0.99183797
0.99364788
0.99457099
0.9944174
0.99368196
0.99305461
0.99280616
0.99263488
0.99220316
0.99125048
0.98928956
0.99016503
0.99195322
0.9935976
0.99483915
0.99469221
0.99334344
0.99169459
0.99045926
0.98983127
0.98990311
0.99082661
0.99249475
0.99395237
0.99434823
0.99355381
0.99233943
0.99178556
0.99222653
0.99279492
0.99275519
0.99254582
0.99224162
0.99413053
0.99301269
0.99210204
0.99146977
0.99099895
0.99033034
0.9899585
0.99028062
0.99136003
0.99256356
0.99337313
0.99363484
0.99306058
0.99163157
0.98990059
0.98875106
0.98916337
0.99126745
0.99413011
0.99624997
0.99602393
0.9936406
0.99104681
0.99656101
0.99456591
0.99121732
0.98821857
0.98693188
0.98733744
0.98888334
0.99122717
0.99375375
0.99567662
0.99596744
0.99423658
0.99120564
0.9883784
0.98678974
0.98736383
0.99021869
0.99404745
0.99677447
0.99669859
0.9938561
0.99047817
0.98920924
0.99305494
0.99284766
0.9915554
0.98930492
0.98732714
0.98719885
0.98913545
0.9920848
0.99448459
0.9954446
0.99466345
0.99300988
0.99121021
0.99004447
0.98997498
0.99053508
0.99132303
0.99190526
0.99236915
0.99337865
0.99432291
0.99370562
0.99221921
0.9888297
0.99053779
0.99221188
0.99351114
0.99324867
0.99150284
0.99006253
0.98973319
0.9902131
0.99097733
0.9917669
0.99276328
0.99387898
0.99424338
0.99323841
0.99080022
0.98831408
0.98771954
0.98959393
0.99322166
0.99603662
0.99583926
0.99354751
0.98835679
0.98962103
0.99194925
0.99464962
0.99585248
0.99430091
0.99070782
0.98757389
0.98685024
0.98867434
0.99156327
0.99414524
0.99527939
0.99458913
0.9928711
0.9909018
0.98924819
0.98829723
0.9887073
0.99087832
0.99508103
0.99835186
0.99751455
0.99084771
0.99017934
0.99016841
0.99112325
0.99263462
0.99338329
0.993047
0.990969
0.98904747
0.9894883
0.99183901
0.99411378
0.99444164
0.99264117
0.99065732
0.99013789
0.99135257
0.99280843
0.99375489
0.99368685
0.99288469
0.99283714
0.99339423
0.99486454
0.99261519
0.98919935
0.98692193
0.9877467
0.99175591
0.99654017
0.99823426
0.99570859
0.99097567
0.98775842
0.98740172
0.98911067
0.99183428
0.99401667
0.99525933
0.99564289
0.99504681
0.99298502
0.98959594
0.98668971
0.9876166
0.99300692
0.98979734
0.99254577
0.99422641
0.99324922
0.99091892
0.98991193
0.99139598
0.99411674
0.99497517
0.99237428
0.98793235
0.9859508
0.98884475
0.99496466
0.99926714
0.99747585
0.99158733
0.98808981
0.9895087
0.99194855
0.99256716
0.99282705
0.99401575
0.99181666
0.99191638
0.99309854
0.99410491
0.9933213
0.99008472
0.98693179
0.98638416
0.98973753
0.99483952
0.99759225
0.99559719
0.99136667
0.98929716
0.99080146
0.99285708
0.99307824
0.99287968
0.99363415
0.99386299
0.99263378
0.99325054
0.99512649
0.9946781
0.99321062
0.98932266
0.98675823
0.98888492
0.99390904
0.99646407
0.99340814
0.98948905
0.99043772
0.99559259
0.99906606
0.99536657
0.98747033
0.98333127
0.98709457
0.99413629
0.9993456
1.000502
0.99645481
0.99202239
0.99176265
0.99291961
0.98790951
0.99070983
0.99325919
0.99412831
0.99243865
0.99179907
0.99422154
0.9973566
0.99641622
0.99122551
0.987161
0.98838732
0.99347605
0.99707297
0.99550241
0.99084429
0.98773243
0.98857199
0.99304589
0.99702159
0.99812699
0.99799077
0.99857958
0.99099133
0.99032132
0.9930888
0.99660978
0.99828286
0.99564133
0.9917262
0.98977872
0.99091134
0.99313754
0.99322427
0.99057633
0.98842102
0.98936069
0.99324058
0.99677742
0.99726084
0.99469613
0.99164889
0.99007542
0.99004255
0.99134911
0.99387963
0.99769779
0.99496046
0.99227093
0.99114141
0.99208012
0.99382427
0.99382767
0.99125056
0.98865307
0.98876017
0.9915017
0.99483582
0.99552131
0.99340599
0.9910417
0.99096215
0.99344464
0.99607042
0.99617308
0.99423567
0.99143002
0.98982398
0.99047867
0.9948177
0.99508237
0.99310584
0.99025853
0.98872111
0.98952449
0.99203908
0.99426294
0.99461585
0.9934311
0.99237867
0.99262569
0.99424108
0.99576913
0.99558202
0.99373444
0.99189115
0.99137029
0.9915772
0.99176566
0.99173946
0.99173921
0.99249328
0.99017925
0.9918026
0.99330672
0.99367984
0.99299142
0.99212063
0.99214553
0.99331737
0.99513376
0.99656048
0.99673352
0.99554795
0.99407022
0.99323326
0.99311165
0.99283343
0.9920605
0.99102978
0.99047343
0.99060708
0.99092246
0.99167116
0.99255943
0.99156992
0.99185762
0.99355804
0.99500904
0.99613978
0.99643012
0.9959428
0.99519341
0.9945348
0.99452141
0.99452659
0.99409291
0.99362384
0.99313112
0.99296153
0.99272971
0.99230302
0.99176194
0.99225243
0.99329624
0.99390673
0.99341941
0.99236063
0.99427291
0.99373004
0.99420906
0.99475839
0.99555194
0.99591185
0.99617328
0.99572277
0.99466184
0.99369493
0.99275414
0.99201555
0.99193488
0.99235608
0.99331264
0.994319
0.99493134
0.99463928
0.99442543
0.99556662
0.99710647
0.9969457
0.99379305
0.99594329
0.9955988
0.99483779
0.99380463
0.99290437
0.99228991
0.99235311
0.9925694
0.99290809
0.99376349
0.99417119
0.99480243
0.99512749
0.99480117
0.99497096
0.99592292
0.99751967
0.9986792
0.99775372
0.99624785
0.99575259
0.99591697
0.99410547
0.99270306
0.9939734
0.99442679
0.99389347
0.99283336
0.99208253
0.99206228
0.99245086
0.99328865
0.99438201
0.99551965
0.99699773
0.99813313
0.99863898
0.9985907
0.99837645
0.99924602
1.0001446
0.99898081
0.99582086
0.99228614
0.9910423
0.99298209
0.99024596
0.99129738
0.99327115
0.99476349
0.99561391
0.99544249
0.99577621
0.99602072
0.99632864
0.99677439
0.99697211
0.99709478
0.99719976
0.99726625
0.99692225
0.99551056
0.99503096
0.99509653
0.9959832
0.99666367
0.99731442
0.99776362
1.0002062
0.99292919
0.99299508
0.99358798
0.99466102
0.9959019
0.99609697
0.996414
0.99630553
0.99613445
0.99643149
0.99614337
0.99546169
0.99429527
0.99364024
0.99409147
0.99497154
0.99590324
0.99722988
0.9994466
1.0018079
1.0036924
1.0040432
1.0038747
0.9962149
0.99586244
0.99455641
0.99336437
0.99290835
0.99251346
0.99226027
0.99204005
0.9917767
0.99236209
0.9935168
0.99455137
0.99580632
0.99649693
0.9979537
0.99982686
1.001169
1.002066
1.0024557
1.0031306
1.0032178
1.0028847
1.0018816
0.99293615
0.99284269
0.9931055
0.99285902
0.99232841
0.99247395
0.9927981
0.99322025
0.99399005
0.9949132
0.99550959
0.99580173
0.9964164
0.99646346
0.99749098
0.9985621
1.0000484
1.0008166
1.0009938
1.0009257
1.0013445
1.001958
1.00198
0.99042126
0.99139642
0.99239266
0.99308544
0.99272241
0.99320122
0.99387407
0.9944097
0.99557635
0.99623859
0.99602873
0.99516773
0.99478957
0.99535751
0.99681333
0.99772045
0.9989672
0.99929361
0.99912383
0.99886014
0.99978925
1.0010618
1.0020804
0.99180062
0.99233387
0.99272714
0.9932948
0.99261648
0.99281688
0.99300865
0.99243549
0.99315345
0.9932831
0.99335937
0.99319783
0.9932957
0.99464016
0.99622268
0.99723263
0.99754348
0.99730697
0.99727883
0.99751308
0.99836775
0.99945462
1.0007396
0.99175317
0.99181488
0.99194103
0.99263489
0.99222207
0.99240259
0.9926004
0.99158461
0.99169313
0.99123503
0.99131811
0.99217621
0.99295339
0.99438621
0.99503034
0.99545504
0.99477279
0.9939808
0.99373171
0.99433677
0.9951711
0.99566797
0.99603496
0.99211916
0.99222948
0.99224349
0.99222361
0.99193029
0.99176601
0.99203026
0.99132142
0.99159735
0.99129479
0.99162038
0.99272127
0.99351746
0.99433624
0.9938966
0.9930811
0.99135097
0.98955763
0.98846543
0.98879328
0.9899296
0.99042144
0.990292
0.99252545
0.99273291
0.99273792
0.99233978
0.99219744
0.99188504
0.99142908
0.99109844
0.99101868
0.99114148
0.99145545
0.9926101
0.99287533
0.99266669
0.99141639
0.98943641
0.98728023
0.98481647
0.98347361
0.98348697
0.98422443
0.98416117
0.98376385
0.99238182
0.99301461
0.99283666
0.99252175
0.99304215
0.9926041
0.99235629
0.99224233
0.99167784
0.99171166
0.99171121
0.99200239
0.99203627
0.99052302
0.98892009
0.98640113
0.98447429
0.98204705
0.9806137
0.97969213
0.97886231
0.9771399
0.97587255
0.99382124
0.99476614
0.99422964
0.99367597
0.9941166
0.99294577
0.99301413
0.9930951
0.99195247
0.99229552
0.99165399
0.99141931
0.99187697
0.98991075
0.9880413
0.9854859
0.98328006
0.98089461
0.97864874
0.97590623
0.97301305
0.96998689
0.96834408
0.99462889
0.99610156
0.99555421
0.99532049
0.99581325
0.99413407
0.99439488
0.99456112
0.99303274
0.99307277
0.99198922
0.99144516
0.99223866
0.99165317
0.99029236
0.98786263
0.98448168
0.98138098
0.97774631
0.9736492
0.96939769
0.96600121
0.9642461
0.99698935
0.99823527
0.99766181
0.99742968
0.99785984
0.99636286
0.99641738
0.99612003
0.99497807
0.99482463
0.99387615
0.99370083
0.99335051
0.99381933
0.99282305
0.99090385
0.9871466
0.98336558
0.97895187
0.97499504
0.97000567
0.96656332
0.96363004
0.99900088
1.0003863
1.0002338
0.99991749
0.99953805
0.99850779
0.9987902
0.99799836
0.99731246
0.9970157
0.996357
0.99662156
0.99533032
0.99595917
0.99438375
0.99343591
0.99049433
0.9880362
0.98378591
0.97968079
0.97465802
0.97051622
0.96677259
1.0007263
1.0023135
1.0023865
1.0020477
1.0013872
1.0009761
1.0017611
1.0005836
1.0002276
0.99939386
0.99864704
0.99955756
0.99776651
0.99799623
0.99658547
0.99707159
0.99516572
0.99341646
0.99014116
0.98741913
0.98358452
0.97903227
0.97366445
1.0033741
1.0048389
1.0049429
1.0041869
1.0031968
1.0028333
1.0043819
1.0033924
1.0027846
1.0017469
1.0010318
1.0024823
1.0009527
1.0007502
0.99919652
1.0003462
0.99935537
0.99858112
0.99660476
0.9947512
0.99264043
0.98899312
0.98427873
1.0050982
1.0066343
1.0069101
1.0061164
1.0053386
1.0045754
1.0059646
1.00575
1.0050788
1.0045108
1.0040759
1.0047731
1.0037411
1.0032981
1.0017612
1.0031018
1.0028019
1.002718
1.0021118
1.0006701
0.99942064
0.99654311
0.99356711
1.0065019
1.0076467
1.0075123
1.0068396
1.0070682
1.0071249
1.0080121
1.007331
1.0065696
1.0064501
1.0063439
1.0067698
1.0058797
1.005808
1.0047624
1.0060952
1.0049821
1.0052648
1.0051415
1.0048089
1.0043697
1.0026076
1.0003175
1.0079011
1.008717
1.0085155
1.0077643
1.00838
1.0087811
1.0089121
1.0085132
1.0076838
1.007875
1.0085515
1.0090988
1.0077674
1.0073119
1.0069174
1.0090656
1.0070276
1.0073456
1.0072006
1.0074774
1.0074395
1.0070678
1.006175
1.008707
1.0090571
1.0094623
1.0093015
1.0092278
1.0095102
1.0092373
1.0090462
1.0094555
1.0094607
1.0096394
1.0099216
1.0093032
1.0097937
1.0092572
1.0103773
1.0079364
1.0090485
1.0092162
1.0097798
1.0099501
1.0101477
1.0091393
1.0087448
1.0092806
1.0089828
1.0088215
1.0090486
1.0095123
1.0099894
1.0097409
1.0097353
1.010123
1.0100415
1.0100688
1.010174
1.0107053
1.0102548
1.0115645
1.0094915
1.0111035
1.0111291
1.0113084
1.0109535
1.0112146
1.0107579
1.0084128
1.0093849
1.0089666
1.0078144
1.0078074
1.0086834
1.0097688
1.0099327
1.0093863
1.0100023
1.0103638
1.0103447
1.0111257
1.0114145
1.0107388
1.0120468
1.0109993
1.0119986
1.0121269
1.0129552
1.0123147
1.0110352
1.0114216
1.0083051
1.0084685
1.00823
1.0073475
1.0073396
1.008566
1.0095668
1.0095233
1.00897
1.0097549
1.0108136
1.0106816
1.0108457
1.0116808
1.0117004
1.0120809
1.0123361
1.0123187
1.0116036
1.0117259
1.0130075
1.0140519
1.0137783
1.0076202
1.0078602
1.0078538
1.0074977
1.0074204
1.0080941
1.0088592
1.008741
1.0083448
1.009339
1.0108981
1.0105845
1.0095982
1.0106803
1.0126061
1.0127007
1.012153
1.0120577
1.012906
1.0123827
1.0123962
1.0142375
1.0136451
1.0073336
1.0075678
1.0075193
1.0069586
1.0064821
1.006915
1.0077991
1.0083735
1.0079626
1.0086361
1.010719
1.0113617
1.0099085
1.0092076
1.0109936
1.0123283
1.0115571
1.0108716
1.0128553
1.01434
1.0137402
1.013147
1.0135733
1.0059557
1.006278
1.0067518
1.0067623
1.0065026
1.0067377
1.0075154
1.0079637
1.0076874
1.0072231
1.0083613
1.0101796
1.0103028
1.0092602
1.0098188
1.0119646
1.0126175
1.0113466
1.0113866
1.0130156
1.0135921
1.0122066
1.0121128
1.00601
1.005557
1.0056255
1.0057515
1.0056239
1.0055314
1.0059706
1.0068941
1.0076357
1.0075922
1.0074262
1.0086203
1.0100623
1.009946
1.0092417
1.0096997
1.0109423
1.0110062
1.0105409
1.0113676
1.0130162
1.0133406
1.0113114
1.0054481
1.0046894
1.0042789
1.004574
1.0050005
1.0052181
1.00546
1.0060497
1.0068885
1.0075963
1.0073107
1.0071223
1.0080695
1.0090107
1.0089144
1.0084992
1.0093106
1.0105289
1.0108252
1.0107473
1.0114506
1.0124064
1.0140834
1.0041932
1.0039042
1.0036199
1.0038077
1.0045268
1.0051183
1.0053058
1.0054096
1.005868
1.0067594
1.0070756
1.0066476
1.0065762
1.0073104
1.0081303
1.008436
1.0089648
1.0099006
1.0103528
1.0099554
1.0098254
1.0104701
1.0109469
1.0030757
1.0032449
1.0033999
1.0036781
1.0042199
1.0047773
1.0050505
1.0050909
1.0050594
1.0054876
1.0061006
1.0062329
1.0061094
1.0064748
1.007332
1.0079747
1.0081784
1.0082632
1.0085374
1.0086426
1.0088577
1.0095673
1.0062872
1.0029727
1.0029941
1.0031708
1.0032454
1.0033555
1.0036857
1.0042736
1.0048183
1.0049036
1.004889
1.005242
1.0058692
1.0062261
1.0063074
1.0064884
1.0067386
1.0069128
1.0069377
1.0072849
1.0080645
1.0090271
1.0098141
1.0133508
1.0026774
1.0025476
1.0027202
1.0030225
1.0032949
1.0035602
1.0038938
1.0043387
1.0046351
1.0047248
1.0048073
1.0050606
1.0052752
1.0054174
1.0057107
1.0059818
1.0062482
1.0065259
1.00722
1.0079802
1.0085424
1.0084219
1.0036428
1.002512
1.002351
1.0024461
1.0028007
1.0032107
1.003541
1.0036884
1.0038993
1.0040908
1.0041705
1.0042301
1.004368
1.0046885
1.0050276
1.0053711
1.0056122
1.0059442
1.0061981
1.0065918
1.0066632
1.0063837
1.0059902
1.0640326
1.0025961
1.0023462
1.002331
1.0026264
1.0030762
1.0034739
1.0036713
1.0037808
1.0037513
1.0037099
1.0038314
1.0039162
1.0041497
1.004463
1.0047531
1.0050668
1.0053992
1.005762
1.0060829
1.0063908
1.0065203
1.0068986
0.89660372
1.0027712
1.0025365
1.0024713
1.0026298
1.0028983
1.0031576
1.0033355
1.0034472
1.0034783
1.0034576
1.0035894
1.0037132
1.0038638
1.004084
1.0042168
1.004486
1.0047658
1.0051556
1.0055159
1.005815
1.0065574
1.0067264
1.1142189
1.0029848
1.0027915
1.002657
1.0026888
1.0028859
1.0030983
1.0032669
1.0033717
1.003401
1.0033713
1.0033771
1.0034305
1.0035133
1.0037057
1.003906
1.004219
1.0043968
1.0044686
1.0045389
1.0045691
1.004854
1.0045047
1.0166538
1.0029604
1.0028446
1.0028802
1.0030234
1.0031966
1.0032691
1.0033226
1.0033328
1.0033296
1.0033612
1.0033359
1.0033788
1.0034104
1.0034677
1.0036234
1.0037623
1.003931
1.004027
1.0041479
1.0043745
1.0046832
1.0030371
0.88397703
1.0034763
1.0032591
1.0031455
1.0031781
1.0032893
1.0033462
1.0033135
1.0033159
1.0033469
1.0033673
1.0034463
1.0034891
1.0035247
1.0034986
1.0035265
1.0035843
1.0036772
1.003868
1.0040362
1.0042414
1.004334
1.0036567
1.1132438
1.0035719
1.0034579
1.003492
1.003656
1.0038084
1.0038332
1.0037397
1.0035579
1.0033697
1.003308
1.0033749
1.0035108
1.0036854
1.003803
1.0038471
1.003819
1.0037229
1.0037057
1.0037178
1.0039024
1.0041442
1.0041021
1.0317722
1.0044754
1.0041672
1.0039188
1.0037951
1.0037586
1.0037984
1.0038634
1.0039124
1.0039426
1.0039102
1.0038503
1.0038687
1.0038767
1.0038441
1.0037584
1.003729
1.0037665
1.0038343
1.0040237
1.0042396
1.0044107
1.0024747
0.94280888
1.0046792
1.0044414
1.0042152
1.004101
1.0041023
1.0041453
1.0042015
1.0042596
1.0042699
1.0042086
1.0040902
1.003951
1.0038978
1.0039635
1.0041103
1.0042573
1.0043654
1.0043873
1.004309
1.0042132
1.0041403
1.0034515
1.0197717
1.0044085
1.0043411
1.0042979
1.0043321
1.0043725
1.0043646
1.0043379
1.0043431
1.0043607
1.0043718
1.0043216
1.0042491
1.0041966
1.0042854
1.0044237
1.0045872
1.0047056
1.0047236
1.0046192
1.0044848
1.004671
1.0063087
1.0117711
1.0042592
1.0042558
1.0043055
1.0043974
1.0044716
1.0044711
1.0043908
1.0042707
1.004207
1.0042656
1.004424
1.0046161
1.004775
1.0048445
1.0048122
1.0047436
1.0046768
1.0046646
1.0047317
1.0048575
1.0053024
1.0063964
0.99713212
1.004783
1.0045239
1.0041764
1.0038981
1.003804
1.0038762
1.0040596
1.0043102
1.004542
1.0047286
1.0048455
1.0049183
1.0049765
1.0049791
1.0049172
1.0048534
1.0048501
1.0049502
1.0051775
1.005461
1.0058121
1.0059302
1.0048377
1.0041941
1.0041211
1.0039583
1.0038299
1.0038032
1.0038592
1.0040426
1.0043254
1.0045845
1.004716
1.0046987
1.0046269
1.0046061
1.0046469
1.0048547
1.0051143
1.0053306
1.0055609
1.0056746
1.0057432
1.0054817
1.0047316
1.0039292
1.0036071
1.0036642
1.0037529
1.003877
1.0039317
1.0039545
1.0039136
1.0038442
1.0038911
1.003996
1.0041432
1.0043497
1.0045651
1.0048247
1.005136
1.0053195
1.005318