/*--------------------------------*- C++ -*----------------------------------*\
| =========                 |                                                 |
| \\      /  F ield         | OpenFOAM: The Open Source CFD Toolbox           |
|  \\    /   O peration     | Version:  2406                                  |
|   \\  /    A nd           | Website:  www.openfoam.com                      |
|    \\/     M anipulation  |                                                 |
\*---------------------------------------------------------------------------*/
FoamFile
{
    version     2.0;
    format      ascii;
    arch        "LSB;label=32;scalar=64";
    class       volVectorField;
    location    "20";
    object      U;
}
// * * * * * * * * * * * * * * * * * * * * * * * * * * * * * * * * * * * * * //

dimensions      [0 1 -1 0 0 0 0];

internalField   nonuniform List<vector> 
20580
(
(0.10502509 -0.0021398755 -1.8470827e-22)
(0.10230031 -0.0014080749 9.8607223e-20)
(0.10488751 -0.00081926655 -2.5201954e-23)
(0.10376256 -0.00079677718 -1.6701627e-20)
(0.10226495 -0.0023504056 1.7407822e-23)
(0.099841549 -0.0015562043 -1.6514533e-20)
(0.098265605 -0.0011073538 -5.3339454e-20)
(0.097063013 -0.0015713184 6.2260228e-21)
(0.095272055 -5.3530338e-05 -1.0176803e-20)
(0.094429116 5.252373e-05 0)
(0.093574206 0.00034135169 -6.3706825e-21)
(0.093242996 0.0011598967 2.9342267e-21)
(0.092970379 0.0014783957 -1.0089826e-21)
(0.092667401 0.0020682256 2.9761463e-22)
(0.092782506 0.0020641344 6.3380581e-22)
(0.092591901 0.0019529895 5.973218e-21)
(0.09277748 0.0013159635 2.2233368e-21)
(0.091980356 0.0011352828 1.7461473e-21)
(0.091433665 -0.00043235366 -3.7247382e-22)
(0.091047842 -0.0011396344 4.0448365e-21)
(0.090685041 -0.0026236561 -5.0840117e-23)
(0.09018339 -0.0045466753 -1.0543842e-20)
(0.089795381 -0.0069585497 4.7325292e-21)
(0.088442336 -0.0071575375 -1.3265776e-20)
(0.089295222 -0.009979338 -5.3672959e-20)
(0.090669681 -0.014790448 -1.4057422e-20)
(0.09005625 -0.01745078 -3.1958169e-20)
(0.089339959 -0.017932263 1.3189903e-21)
(0.090175649 -0.018512961 1.3902588e-21)
(0.090225841 -0.023723133 4.9376998e-20)
(0.092672326 -0.030647512 1.8396417e-20)
(0.10386219 -0.00070373939 0)
(0.10230978 -0.00091369486 -3.6238771e-20)
(0.10575055 -0.0021779414 -1.545295e-20)
(0.10448884 -0.0017265658 -2.8636678e-20)
(0.10182242 -0.0014000968 -2.3279899e-20)
(0.099695776 -0.0014005148 4.3725363e-23)
(0.098407907 -0.0014947256 1.1545545e-19)
(0.096713609 -0.001027966 6.0260217e-21)
(0.095275617 -0.00037562864 -3.1106322e-21)
(0.094356649 2.1230301e-05 -3.569932e-21)
(0.093576146 0.0001841228 -7.4847225e-22)
(0.093231936 0.00090388308 -9.1156617e-21)
(0.092958898 0.0013179057 -3.4863233e-21)
(0.092823946 0.0015245705 -3.9923628e-23)
(0.092747162 0.0019534118 9.1320009e-21)
(0.092791199 0.0014978869 7.1434169e-23)
(0.092563772 0.0016530736 5.7291305e-21)
(0.092097798 0.0015120863 -1.271922e-20)
(0.091971037 -0.00052650857 0)
(0.091465729 -0.0010381824 8.6034265e-21)
(0.091204824 -0.0019908249 0)
(0.091248121 -0.0041711522 -2.6131957e-20)
(0.09091229 -0.0059551395 9.5017312e-21)
(0.090122955 -0.0075169215 -1.8195754e-22)
(0.091542552 -0.010701978 -1.7422467e-20)
(0.092601007 -0.013104158 2.2514466e-22)
(0.091390692 -0.014486987 1.2668621e-21)
(0.090724089 -0.015813104 -1.1872953e-21)
(0.092790652 -0.018317844 6.278893e-22)
(0.094332908 -0.021667978 -1.8291924e-20)
(0.09426308 -0.028970841 4.8387852e-21)
(0.10270147 0.001349698 0)
(0.10207092 -0.00027044255 0)
(0.10627681 -0.0033686263 1.5924509e-20)
(0.10484437 -0.00278954 -3.5529409e-20)
(0.1020563 -0.00057024788 1.3956205e-20)
(0.10000296 -0.0013509374 5.1095923e-23)
(0.098566536 -0.0019386236 -1.5482154e-19)
(0.096723706 -0.00050268989 2.0296676e-20)
(0.095359766 -0.00081822252 0)
(0.09433373 -0.00014542095 -5.1953735e-20)
(0.093512288 0.00011007204 1.31496e-20)
(0.09317529 0.00052511181 2.6937976e-20)
(0.092964106 0.0011268823 0)
(0.092821782 0.0010251577 2.4331679e-22)
(0.092742886 0.0015263137 2.1572014e-21)
(0.092792795 0.0010672604 2.1944436e-22)
(0.092511896 0.0012885219 3.0379197e-22)
(0.092390546 0.0010846355 -4.7559633e-22)
(0.092351102 -0.00070127556 1.629528e-20)
(0.091730063 -0.0012227135 0)
(0.091869796 -0.0023148655 0)
(0.092162815 -0.00466526 9.2515282e-21)
(0.092016901 -0.0051979255 3.4781054e-21)
(0.091831061 -0.007511472 -3.3474206e-20)
(0.092918425 -0.010741214 -2.0985629e-21)
(0.093653866 -0.011304785 -1.9102512e-21)
(0.092906864 -0.011963179 -2.5911399e-20)
(0.09282685 -0.013396206 -1.8009421e-21)
(0.094944183 -0.018145907 -5.1937025e-21)
(0.097740981 -0.01948205 1.8784017e-21)
(0.096731955 -0.024627352 -9.227653e-21)
(0.10122174 0.0023549924 0)
(0.1013854 0.00037471065 3.2230904e-22)
(0.10633955 -0.0036296155 3.5350498e-22)
(0.10478482 -0.0034281419 -1.2163765e-21)
(0.10216448 -0.00025179142 9.3433128e-20)
(0.10043975 -0.0015193664 4.0814938e-20)
(0.098812449 -0.0021629792 -1.645959e-19)
(0.096942082 -0.00042160502 0)
(0.095605544 -0.0012265367 2.7393348e-22)
(0.094417897 -0.00038407758 2.0927638e-20)
(0.093568015 4.8452121e-05 2.5302109e-20)
(0.093154698 0.00027293306 6.8543009e-21)
(0.092973043 0.0008840384 -1.7612306e-22)
(0.092836857 0.00080552675 6.4423106e-21)
(0.092818017 0.001119455 9.1449759e-21)
(0.092850801 0.00095863977 -3.3894684e-23)
(0.092532235 0.00087402909 -2.7620456e-21)
(0.09263386 0.00035894773 -1.3677003e-23)
(0.092558898 -0.00062303395 1.0778186e-22)
(0.091923403 -0.00098083216 5.7170303e-22)
(0.092546108 -0.0026122803 1.6287277e-21)
(0.092771105 -0.0050606539 1.4876493e-21)
(0.092756573 -0.0048053944 -6.7300057e-22)
(0.093313323 -0.0067094238 -8.1025414e-21)
(0.093859685 -0.0093968962 0)
(0.094235631 -0.00966762 -2.7084407e-21)
(0.093863876 -0.010995346 6.029875e-21)
(0.095034938 -0.011875397 -4.3610183e-21)
(0.096962358 -0.017078873 -3.441522e-20)
(0.099685332 -0.01849035 1.2905983e-20)
(0.099656214 -0.020525883 -1.1037469e-20)
(0.10013945 0.0020729915 0)
(0.10065578 0.00062323064 -1.5695129e-19)
(0.1059459 -0.0028515475 -2.4785346e-21)
(0.10444592 -0.0032735341 8.6547744e-20)
(0.10214243 -0.00063909483 6.7740952e-22)
(0.10069838 -0.0018834092 5.9921213e-20)
(0.098887917 -0.0020425758 0)
(0.097179545 -0.00088447872 -8.0947785e-21)
(0.0958159 -0.0014483837 1.8249695e-21)
(0.094557518 -0.00064561663 2.3429042e-20)
(0.093714102 -2.7525482e-05 -1.0659684e-20)
(0.093238775 9.751366e-05 4.2196665e-23)
(0.093050597 0.00052747247 4.6535888e-21)
(0.092892909 0.00075466467 -5.6045924e-21)
(0.092875408 0.00070772142 9.8689048e-21)
(0.09290051 0.0009363291 1.9188071e-21)
(0.092683464 0.00068903992 -1.3658528e-20)
(0.092807168 -0.00025112975 1.4009128e-20)
(0.092609988 -0.00038355088 1.8095111e-20)
(0.092194441 -0.00063131457 0)
(0.093298964 -0.0026189987 1.3867468e-21)
(0.093228282 -0.0044499949 -2.7809036e-21)
(0.093092666 -0.0045837732 -1.2575213e-20)
(0.09426238 -0.0061834443 -2.3898558e-21)
(0.094736273 -0.0080925512 0)
(0.095336563 -0.0080779567 3.2410793e-21)
(0.094981489 -0.010323963 -1.1136233e-20)
(0.0966483 -0.012114363 -7.8349363e-21)
(0.098810101 -0.015504484 -3.885154e-20)
(0.10082945 -0.018022886 -3.4522569e-21)
(0.10154988 -0.019326942 -3.7360921e-21)
(0.099553282 0.00041225836 5.8630118e-20)
(0.10008003 0.00041665506 -1.327197e-21)
(0.10518506 -0.0014039951 2.6122199e-23)
(0.10399101 -0.0023973635 -3.5186562e-20)
(0.10213766 -0.0015704217 -8.8399042e-20)
(0.10074691 -0.0022913788 -3.3796434e-23)
(0.098840473 -0.0015653842 -2.2230172e-20)
(0.097291012 -0.0016177914 -1.6048935e-22)
(0.095926017 -0.0014342592 1.1706728e-20)
(0.094697443 -0.00085331631 1.0623161e-21)
(0.093921491 -0.00018861772 -2.7758184e-20)
(0.093478441 -6.5204566e-05 5.7382621e-21)
(0.093241895 0.00020400651 3.0081526e-21)
(0.093059429 0.00067309289 -2.9365707e-21)
(0.092931524 0.00040920188 8.0852457e-21)
(0.092936039 0.0007691714 7.3285813e-23)
(0.09285775 0.00075056659 -9.6047924e-21)
(0.09289159 -0.00042782288 1.5237026e-20)
(0.092567252 -0.00011070965 7.3786042e-22)
(0.09251304 -0.00072183719 0)
(0.093816387 -0.0026259264 1.4082068e-21)
(0.093557614 -0.0030765021 1.3261967e-20)
(0.093573611 -0.003796205 -1.5316067e-20)
(0.095052148 -0.0057353264 0)
(0.09526146 -0.0077606423 -8.0630183e-21)
(0.096235221 -0.0074515328 1.609383e-20)
(0.096580894 -0.0089322164 2.111413e-20)
(0.09809699 -0.012841679 9.8266445e-21)
(0.10029528 -0.014316738 5.9618971e-21)
(0.10193089 -0.01644752 -3.0040348e-21)
(0.10270645 -0.017579997 3.3765771e-21)
(0.099619775 -0.0016162983 -3.6482715e-21)
(0.099968169 -0.00027776645 -3.4269298e-20)
(0.1046792 -2.5134088e-06 2.0230914e-22)
(0.10347524 -0.0010977974 2.8173064e-20)
(0.10179827 -0.0025081214 -2.3412729e-22)
(0.10034052 -0.0024438006 6.6132023e-20)
(0.09860006 -0.0011489048 8.6295161e-20)
(0.097267998 -0.0022513532 -1.7362633e-23)
(0.095896449 -0.0012885177 1.7166092e-22)
(0.094675546 -0.00097364214 -5.0609065e-21)
(0.093985898 -0.00048150287 -5.7669565e-22)
(0.093610498 -0.0002539851 -4.6041648e-22)
(0.093361472 -0.00010270842 -2.7281744e-21)
(0.093254006 0.0003490935 2.9108908e-26)
(0.093103318 0.0002189001 -1.2274491e-21)
(0.092995426 0.00034474587 1.7944363e-23)
(0.093038193 0.00068206 3.919834e-23)
(0.093031295 -0.00034978538 -1.6917159e-20)
(0.09266755 0.00014134039 0)
(0.09289533 -0.00098079858 -2.5372022e-20)
(0.093986177 -0.0026607615 -3.6934409e-22)
(0.093707768 -0.0020145689 2.0955124e-20)
(0.09415579 -0.0030538547 1.6650498e-21)
(0.096045993 -0.0049410327 1.1521245e-22)
(0.095817337 -0.0071796352 1.8273022e-20)
(0.096421992 -0.0078195339 -1.8907433e-21)
(0.098100714 -0.0073188866 5.6395504e-21)
(0.099647664 -0.01260761 -8.5387783e-22)
(0.10108741 -0.013545734 -2.887886e-20)
(0.10253928 -0.014290786 1.9530933e-20)
(0.10343778 -0.014421558 1.7580115e-21)
(0.10070615 -0.0028635255 7.7005346e-19)
(0.10032092 -0.00086710337 0)
(0.10436132 0.00061161528 4.3251344e-20)
(0.10286709 9.1128254e-05 7.9013683e-20)
(0.10109525 -0.0029214251 -8.9007006e-20)
(0.099548416 -0.0022166054 5.1330181e-23)
(0.098121396 -0.0010696356 3.7422173e-20)
(0.096972997 -0.0023259598 -6.2371867e-23)
(0.095609822 -0.0010875332 -7.3707856e-21)
(0.094527079 -0.0010199302 -2.9456097e-21)
(0.093917245 -0.00082441813 5.9074263e-22)
(0.093591321 -0.0004953123 -3.1120294e-22)
(0.09332946 -0.0003896161 -4.8023087e-21)
(0.093260099 -9.7850553e-05 -8.3766494e-21)
(0.093184433 8.4175779e-05 -5.8419917e-21)
(0.093030087 -0.0001077863 -2.2512941e-21)
(0.093167273 0.00033445748 -2.058868e-21)
(0.093135389 -0.00040063311 7.6636648e-22)
(0.092857807 8.4054214e-05 -9.9462484e-24)
(0.093336609 -0.0012123183 4.2201654e-22)
(0.094069639 -0.0025116477 -1.2446985e-21)
(0.093750077 -0.0018545425 1.2804438e-22)
(0.094523178 -0.0033628387 0)
(0.096749085 -0.004504531 1.1737641e-21)
(0.096701947 -0.0055871983 -2.7683208e-20)
(0.096355504 -0.0078712125 -1.9092251e-21)
(0.099090159 -0.0070307569 7.2426254e-21)
(0.10151132 -0.011358337 -6.969985e-20)
(0.10168611 -0.0126646 1.3859398e-20)
(0.10248712 -0.012963136 -5.6997512e-20)
(0.10339498 -0.012293199 -3.445182e-20)
(0.10269486 -0.0030439126 -3.9962377e-19)
(0.10065145 -0.00080089051 4.6411038e-23)
(0.10436105 0.00028777758 -3.0865314e-21)
(0.10287924 0.00048076953 1.5389715e-19)
(0.1009057 -0.0026919346 -1.821056e-21)
(0.099083063 -0.0016648082 4.5317408e-23)
(0.097782967 -0.0014353132 -2.3141425e-20)
(0.096620304 -0.0018120378 3.4116411e-24)
(0.095222156 -0.0010166086 -4.6612453e-21)
(0.094294654 -0.0010944201 -5.2802156e-21)
(0.093704917 -0.0011204727 -1.6030785e-21)
(0.093413614 -0.00069088556 0)
(0.093173805 -0.00060658622 4.1884808e-22)
(0.093058359 -0.00038782124 -2.4084469e-22)
(0.09306073 -2.4855072e-05 3.0143407e-22)
(0.092930664 -0.00027357783 -1.3839695e-20)
(0.093211967 -8.3276055e-05 -9.4885893e-22)
(0.093205295 -0.00057748077 5.0077827e-22)
(0.093039822 -0.00031125745 -4.6798876e-21)
(0.093695109 -0.0014662679 1.5180094e-20)
(0.094170943 -0.0020319115 -2.4361849e-21)
(0.094134403 -0.0015504469 1.1878276e-22)
(0.094932179 -0.0041689475 3.2810859e-21)
(0.096825067 -0.0052430736 2.1289986e-21)
(0.09758267 -0.0040587997 -3.1722323e-21)
(0.096812586 -0.0066573859 -3.9825833e-20)
(0.099341681 -0.0079522108 -2.0885687e-20)
(0.10250221 -0.009441588 -1.4351813e-20)
(0.10256813 -0.010474926 -2.8923017e-20)
(0.10250498 -0.011561159 -1.0859658e-20)
(0.10356183 -0.011995711 1.6576628e-21)
(0.10391395 -0.0019494155 -1.1008596e-18)
(0.10076147 -0.00033405713 1.3333022e-22)
(0.10446491 -0.00066400199 7.5166909e-20)
(0.10326639 -0.00019829468 -1.8914834e-19)
(0.10112848 -0.002081429 1.1388509e-21)
(0.099150193 -0.0010793586 0)
(0.097884982 -0.0019691615 2.3808416e-20)
(0.096416282 -0.0011596006 -1.2696328e-20)
(0.095060751 -0.0010724045 4.1134381e-21)
(0.094166631 -0.0011497033 -5.8587803e-21)
(0.093431106 -0.0011924096 -3.4976858e-23)
(0.093082291 -0.00078255113 9.7903283e-23)
(0.092872715 -0.00058236422 0)
(0.092780117 -0.00042983472 1.605868e-20)
(0.092877074 -8.3076442e-05 -5.0035188e-21)
(0.09280838 -7.3029416e-05 1.135616e-22)
(0.093210389 -0.000348962 1.516638e-20)
(0.093257943 -0.00047857246 7.4637442e-21)
(0.093265111 -0.00056712148 1.0797147e-20)
(0.09394443 -0.0016613521 8.5436031e-21)
(0.09422661 -0.0016474232 -1.8995732e-20)
(0.094790485 -0.0010045078 2.7478339e-20)
(0.095918092 -0.0043952313 4.8150525e-20)
(0.096621659 -0.005882014 -1.5817115e-20)
(0.097787958 -0.0037796195 7.4731323e-20)
(0.097974379 -0.0047753488 -1.0530492e-21)
(0.099596392 -0.0088363208 -5.3015891e-22)
(0.10214886 -0.0078107913 1.4919528e-20)
(0.10315578 -0.0072711275 2.2404884e-20)
(0.10315846 -0.0086561917 -3.6658441e-20)
(0.10411515 -0.010874139 -3.916911e-20)
(0.10563188 9.3401902e-05 2.933788e-20)
(0.10103227 0.00069099383 -8.4968281e-24)
(0.1047513 -0.0016108219 3.7112094e-20)
(0.10374912 -0.001474244 5.9070521e-23)
(0.10145575 -0.0012923397 -3.0523853e-22)
(0.099501785 -0.00080436665 -1.3235527e-19)
(0.098201408 -0.0024297162 4.3305879e-20)
(0.096551499 -0.0008471915 -1.3797774e-23)
(0.095206705 -0.0012058572 5.8247299e-21)
(0.094140251 -0.0011864225 2.1398716e-21)
(0.093322321 -0.0010906465 -1.6803081e-20)
(0.0929567 -0.00092432832 -1.3535444e-20)
(0.092763766 -0.00039583436 0)
(0.092678725 -0.00043139167 -2.7798392e-22)
(0.092787426 -0.00011640648 -8.7249772e-21)
(0.092825977 0.0001608721 -1.7828625e-22)
(0.093263629 -0.00052778477 -1.6406652e-22)
(0.093298101 -3.1859413e-05 -7.9604714e-23)
(0.093527409 -0.00051870992 6.7449818e-22)
(0.094179066 -0.0016628795 -1.3247504e-22)
(0.094084466 -0.0017277967 2.4157161e-20)
(0.095267286 -0.00094426129 4.081971e-21)
(0.096956148 -0.0039204972 -8.9321599e-22)
(0.096629955 -0.0047262062 1.0717766e-20)
(0.097383089 -0.0038007105 1.7432902e-20)
(0.099206812 -0.0033382357 1.5184452e-21)
(0.1004054 -0.008497959 -2.6420605e-20)
(0.10117964 -0.0069366331 -4.8660948e-20)
(0.10300539 -0.0054077505 -2.4008835e-22)
(0.10418655 -0.0061722877 3.1533595e-20)
(0.10533467 -0.0091461904 -2.0897989e-22)
(0.10923474 0.0025753378 -5.49094e-19)
(0.10197959 0.0019756386 0)
(0.1055761 -0.0018662679 -2.4624779e-20)
(0.10417012 -0.0025260811 -1.3099176e-19)
(0.10173665 -0.00063737053 -1.3041372e-19)
(0.099952924 -0.0010416756 -4.8625553e-20)
(0.098457643 -0.0022581589 -6.8841812e-23)
(0.09677601 -0.0010184472 2.336048e-24)
(0.095389812 -0.0013229347 -5.133217e-21)
(0.094243615 -0.0011958061 5.9346226e-22)
(0.093441976 -0.00090231847 1.2029107e-20)
(0.093008304 -0.00098198883 8.5746259e-23)
(0.092787645 -0.00028195818 7.0687316e-21)
(0.092732658 -0.00054082652 0)
(0.092779331 -0.00017929341 -2.1182622e-21)
(0.092948035 0.00011523345 -6.9352583e-21)
(0.093288203 -0.00079337572 9.635856e-21)
(0.093287491 0.00030953022 -1.5414065e-20)
(0.093805987 -0.00037566888 -1.0459714e-22)
(0.09445463 -0.0012815705 -8.1807539e-21)
(0.093957732 -0.0016878508 7.3345326e-21)
(0.095446297 -0.0014633831 -3.7453755e-22)
(0.097437645 -0.0035948282 -9.099801e-21)
(0.09670508 -0.0028450831 9.5104478e-21)
(0.097031272 -0.003156111 5.570837e-22)
(0.10000711 -0.0031092674 5.5378103e-21)
(0.10120287 -0.0066141785 2.7880993e-20)
(0.10059385 -0.0061983355 1.0368224e-21)
(0.10256732 -0.0057532866 -6.3258343e-20)
(0.10502241 -0.0057103354 -2.5908457e-21)
(0.10697087 -0.008677801 1.9632095e-20)
(0.11150987 0.0039603626 3.2667201e-19)
(0.10346116 0.0026735597 -1.3648446e-19)
(0.10689511 -0.0016056044 5.2850161e-22)
(0.10496797 -0.0031700032 -2.7346287e-21)
(0.10235776 -0.00045862527 -5.9869771e-23)
(0.10071742 -0.0016282492 1.1168979e-19)
(0.098890378 -0.0015697266 -3.0666501e-20)
(0.097086015 -0.0014194849 6.3038332e-23)
(0.095731081 -0.0015087517 -3.3298272e-22)
(0.094510365 -0.0012297712 -5.3494061e-21)
(0.093694911 -0.00085510508 2.403737e-22)
(0.093150968 -0.00094872793 -3.3178308e-21)
(0.092954876 -0.00039655691 -2.8408462e-23)
(0.092909462 -0.00058104968 -1.2374579e-22)
(0.092836545 -0.00033528938 0)
(0.093122075 -0.0002200586 0)
(0.093287307 -0.0010651847 -1.4344257e-21)
(0.093241689 8.8692747e-05 8.2747742e-22)
(0.093991282 -0.00061402068 -2.1256814e-20)
(0.09466017 -0.00081161848 1.9403457e-21)
(0.093987247 -0.0011652495 -1.4736713e-20)
(0.095505716 -0.0020515401 -8.0125091e-21)
(0.097333572 -0.0032958061 0)
(0.096603928 -0.0018940438 0)
(0.096977534 -0.0023757244 0)
(0.1003296 -0.0041181355 -1.3695788e-21)
(0.10170001 -0.0044075189 2.7415842e-22)
(0.10086063 -0.0051364077 -9.625585e-21)
(0.10235774 -0.0067271717 2.075898e-21)
(0.10523167 -0.0064015434 -7.6732383e-21)
(0.1084043 -0.0086997875 2.1757101e-21)
(0.11099308 0.0034569822 1.6232525e-19)
(0.10419493 0.0025395347 -2.144177e-21)
(0.10770175 -0.00083828689 -6.6381017e-22)
(0.1055091 -0.0027637571 2.536187e-19)
(0.10293767 -0.00062941883 0)
(0.10136483 -0.0020348459 -2.4992054e-22)
(0.099356306 -0.00065007795 1.551472e-20)
(0.097600381 -0.0015877488 1.6311174e-20)
(0.096170807 -0.0015541335 9.0635671e-23)
(0.094889065 -0.0011391693 3.2932583e-20)
(0.094010229 -0.00086121927 9.9462563e-21)
(0.093441062 -0.000800478 0)
(0.093219852 -0.00067022381 2.4809835e-20)
(0.093133867 -0.00048542565 1.8346662e-20)
(0.093020088 -0.00049300159 5.6445322e-21)
(0.093375 -0.00040516506 -5.4747504e-23)
(0.093345953 -0.00081488268 1.9732839e-20)
(0.093224849 -0.0003231126 -7.076427e-22)
(0.093970226 -0.0011969684 -9.8836151e-21)
(0.094631739 -0.00048512556 1.6522343e-21)
(0.094199243 -0.00032627091 3.736463e-22)
(0.095671714 -0.0022558915 2.2220409e-20)
(0.097110273 -0.0021334936 -1.4022184e-21)
(0.096418133 -0.0014190761 0)
(0.097276013 -0.0019693845 1.3125468e-21)
(0.10022604 -0.004951047 -1.160492e-21)
(0.10168018 -0.0032465666 3.8810806e-21)
(0.10166415 -0.0040387403 1.3233087e-20)
(0.10248154 -0.0066766187 -3.8891342e-20)
(0.10476325 -0.0068345173 7.2670764e-21)
(0.10861612 -0.0081928428 1.1324017e-20)
(0.11109966 0.0015203775 -2.4835117e-19)
(0.10440337 0.0013132742 8.8260327e-20)
(0.10784421 -0.00019593638 5.5278671e-22)
(0.10572611 -0.0016007006 -8.9438504e-20)
(0.10331554 -0.0010638408 5.4224311e-20)
(0.10155711 -0.0020742812 2.0528419e-22)
(0.099632957 -0.00025482443 -6.2140093e-20)
(0.097994703 -0.0014817269 -2.2749102e-20)
(0.096367397 -0.0015258347 -1.4947702e-22)
(0.09506059 -0.0010100463 -6.0888925e-23)
(0.094291318 -0.0010300161 -7.4594183e-21)
(0.093740152 -0.00072970409 -2.6634685e-22)
(0.093455135 -0.00081702613 -2.4835929e-22)
(0.093344519 -0.00032633281 -1.2583145e-22)
(0.093214253 -0.00059396697 1.5930461e-20)
(0.093529157 -0.00055530191 2.0463653e-23)
(0.093441425 -0.00023432225 -2.7015216e-20)
(0.093376576 -0.00039087915 -7.6157321e-22)
(0.093856241 -0.00156245 -3.1676539e-22)
(0.094328691 -0.00034680957 0)
(0.094437313 0.00023743048 3.8592398e-20)
(0.095733342 -0.0025967118 8.2951522e-22)
(0.096853423 -0.00081577173 -1.9647169e-20)
(0.096477867 -0.0006358984 1.191299e-21)
(0.097784823 -0.0021279701 1.7399987e-20)
(0.099880231 -0.0050941179 -1.9052557e-20)
(0.10124334 -0.002796332 -5.9170228e-21)
(0.10239274 -0.0030084001 1.8137868e-22)
(0.10314044 -0.0053633569 1.8436174e-21)
(0.10443005 -0.0065707702 2.5280837e-21)
(0.1074182 -0.0077242824 4.4999601e-21)
(0.11262305 -0.0010079411 1.2875906e-19)
(0.10497622 -7.9446586e-05 -2.3280369e-22)
(0.10831795 0.00013989659 4.2612697e-20)
(0.10606927 -5.8690104e-05 1.9714747e-21)
(0.10363855 -0.0013991864 -1.5946623e-21)
(0.10172178 -0.0014638399 -4.116234e-20)
(0.099959407 -0.00050284795 0)
(0.098401808 -0.0010449472 -6.1526787e-23)
(0.09658078 -0.0011468822 4.2916421e-24)
(0.095247861 -0.00081636152 -1.4934842e-20)
(0.094472706 -0.00098878355 1.1443985e-23)
(0.093860891 -0.0006412333 6.885115e-23)
(0.093569064 -0.00096856236 -6.246082e-21)
(0.093501153 -0.00034151104 -7.5872123e-21)
(0.093357969 -0.00051135959 -2.296687e-20)
(0.093493087 -0.00051708958 -2.562419e-22)
(0.093410904 0.00030802617 6.7912323e-23)
(0.093617292 -0.00012210824 2.9081221e-22)
(0.093802864 -0.0013727399 0)
(0.093946916 -0.00017039909 -2.3580857e-20)
(0.094815268 0.00028274095 3.7210189e-20)
(0.095673434 -0.002940437 -1.460199e-22)
(0.096231461 -0.00041864964 -2.750792e-20)
(0.096784015 0.00035001449 -3.1274755e-22)
(0.098531375 -0.002268262 1.6914577e-20)
(0.099631966 -0.0044244638 7.7218356e-21)
(0.10037369 -0.0025148868 -1.5781962e-22)
(0.10268532 -0.0020509552 6.5436827e-22)
(0.10381844 -0.003315641 1.4798177e-20)
(0.10504576 -0.0054204714 1.6414666e-20)
(0.10644794 -0.007439338 -2.4690467e-22)
(0.11201995 -0.0026660269 3.0896613e-19)
(0.10527294 -0.0013676438 7.4314565e-23)
(0.10876222 -0.00013886763 -7.9213371e-22)
(0.10655306 0.00084997444 -2.9750726e-19)
(0.10413462 -0.0016045968 1.7677035e-21)
(0.10217888 -0.00078417377 -2.6372518e-20)
(0.10033592 -0.0013705244 0)
(0.098725518 -0.00086564145 0)
(0.09695621 -0.00076206339 -2.2469249e-20)
(0.095622815 -0.00087710578 0)
(0.094723936 -0.00080581961 -5.1651162e-20)
(0.094133019 -0.00054998165 5.1272708e-21)
(0.093730558 -0.00087991657 0)
(0.093581794 -0.00038804865 1.887486e-20)
(0.093447891 -0.00050899763 -2.0131067e-20)
(0.093442397 -0.00070113105 1.5789427e-20)
(0.093421643 0.00013217396 2.9566345e-22)
(0.093924911 -3.6801786e-05 -8.0674662e-22)
(0.093838214 -0.00074265369 1.6562125e-21)
(0.093650867 -2.7567703e-05 -1.3660157e-20)
(0.095199971 -0.00012088963 -3.0528135e-20)
(0.095640579 -0.0028324349 -2.7912853e-22)
(0.095354198 -0.0013745494 2.5325191e-20)
(0.096869227 0.00027465598 1.6998998e-21)
(0.099268332 -0.0025943128 5.2815122e-22)
(0.099592122 -0.003523603 2.2050341e-20)
(0.099463879 -0.0025703026 2.2389782e-20)
(0.10227143 -0.001884018 3.1626107e-21)
(0.10432407 -0.0014392639 -3.0131281e-21)
(0.10617904 -0.003720648 -4.9801019e-20)
(0.10681586 -0.0060637652 -3.4320051e-20)
(0.1118699 -0.0031316363 -3.0881856e-19)
(0.10502358 -0.001382347 -3.1189266e-22)
(0.10858894 -0.00052085058 1.2177329e-19)
(0.10672279 0.001014052 2.8977727e-19)
(0.10435197 -0.0013672665 -2.1626755e-19)
(0.10234619 -8.5226746e-05 5.0058084e-23)
(0.10051263 -0.0017059558 7.0217905e-24)
(0.098815538 -0.00065276051 3.4186442e-20)
(0.097158918 -0.000257243 7.447184e-20)
(0.095818457 -0.00083555381 -1.8096029e-20)
(0.094867421 -0.00045361726 9.8932471e-21)
(0.094323056 -0.00044718922 -4.3075773e-22)
(0.093901802 -0.00087163723 6.9297161e-21)
(0.093770194 -0.00064944752 1.7422434e-20)
(0.093704785 -0.00028414084 -8.0150263e-21)
(0.093498898 -0.00047200748 5.7744096e-21)
(0.093320147 -0.00022006308 1.7756259e-20)
(0.093945443 -0.00053782999 5.670714e-21)
(0.093863704 -0.00046037133 -1.5677786e-21)
(0.093567044 -0.00027602203 3.8655273e-21)
(0.095488998 -0.0005915314 -8.8985248e-21)
(0.095886629 -0.0014383462 3.3820914e-21)
(0.094791173 -0.00172266 -1.5730033e-21)
(0.096656041 -0.00036723667 1.2636396e-22)
(0.099634406 -0.0025308325 -6.577763e-21)
(0.099613608 -0.0020305734 -7.9024058e-21)
(0.098961134 -0.00226595 -2.7694054e-22)
(0.10111129 -0.002142065 -2.6331603e-20)
(0.10402725 -0.00080396297 -1.4964033e-20)
(0.10687947 -0.0025291566 -5.8484652e-21)
(0.10758906 -0.0037862108 -4.9120137e-20)
(0.11351677 -0.0011597112 -3.823457e-19)
(0.10496534 -0.00053796698 -2.6158953e-23)
(0.10838726 -0.000764792 6.3696072e-22)
(0.10692674 -0.00011469183 1.7264995e-21)
(0.10457157 -0.0010423718 5.0427918e-20)
(0.1024328 -0.00028594361 -1.1781332e-19)
(0.10064737 -0.0017237064 3.2640698e-20)
(0.09882443 -0.00080684888 -1.5806078e-20)
(0.097242989 -0.00034652236 1.0899816e-20)
(0.095901846 -0.00077002462 3.9253637e-22)
(0.094941298 -0.00041543003 -2.9451557e-21)
(0.094526454 -0.00030928121 -3.3597696e-20)
(0.094075536 -0.00030544169 4.5465742e-22)
(0.09374059 -0.00092292763 -7.2375766e-21)
(0.09364714 -0.00040578065 -3.4106423e-23)
(0.093628848 -0.00046528864 1.1655235e-20)
(0.093515717 -0.00062111231 -2.6723398e-21)
(0.093988933 -0.00099978027 0)
(0.093825194 -0.00026689498 -7.5636392e-23)
(0.093479384 -0.0007741152 3.0296443e-22)
(0.09519091 -0.0014950755 -3.598544e-20)
(0.096057418 9.898698e-05 7.2852577e-22)
(0.094818078 -0.00075212914 -2.4419242e-20)
(0.096379364 -0.0014873861 9.7777504e-21)
(0.099333426 -0.0024375316 9.4243762e-21)
(0.099593639 -0.00047922676 2.2949667e-21)
(0.099143882 -0.0012151886 -4.5543886e-21)
(0.10016743 -0.0022828118 5.2321418e-21)
(0.10322914 -0.0015303073 -3.8051254e-20)
(0.10685077 -0.0025826006 -5.4132769e-21)
(0.10754053 -0.001725396 2.5019365e-22)
(0.11551052 0.00088613066 3.2711438e-20)
(0.10564008 0.0010260666 -2.2263919e-20)
(0.10894454 -0.0007034609 3.0979024e-21)
(0.10748436 -0.0013355017 1.7494131e-19)
(0.10498302 -0.00037495019 -6.0983732e-22)
(0.10295575 -0.00063249483 -1.660441e-22)
(0.10110701 -0.0006983032 6.1113387e-23)
(0.099052448 -0.00050656905 2.339162e-21)
(0.09749366 -0.00050773103 1.7959756e-20)
(0.096073029 -0.00052194649 -4.7912579e-21)
(0.095006225 -0.00050679665 -4.4878724e-21)
(0.094496616 -0.00024808363 -1.4344727e-23)
(0.094247699 -0.00012974658 1.1986409e-20)
(0.093970579 -0.00098524689 -1.0212446e-23)
(0.09374185 0.00011070218 -1.5187998e-20)
(0.093716815 6.8237252e-05 -1.8463169e-20)
(0.093520435 -0.00041878698 -1.2638734e-22)
(0.093839742 -0.0013616465 7.5239664e-23)
(0.093888192 0.0001765051 -7.1796461e-21)
(0.093747725 -0.00054604233 6.1533228e-20)
(0.094746849 -0.0016950441 -8.0550183e-22)
(0.095762445 0.0011345906 3.2961786e-20)
(0.095189216 0.001144005 1.3743949e-21)
(0.096308412 -0.0018779797 -1.0303886e-20)
(0.098462042 -0.0016995379 4.3464473e-21)
(0.098984186 0.0010312024 -9.6777232e-21)
(0.099466223 0.00083005858 8.4049742e-20)
(0.099970818 -0.0014038343 -2.0684039e-20)
(0.10237562 -0.0028240483 -6.2303053e-21)
(0.10598905 -0.0032539074 2.8682114e-20)
(0.10677957 -0.00045739135 -3.1101606e-21)
(0.11437596 0.003292206 -5.8394228e-19)
(0.10547457 0.0021838552 -2.1264522e-21)
(0.10901379 -0.00018190351 -1.2345736e-21)
(0.10719362 -0.0024937098 3.0601139e-21)
(0.10474634 0.00023378091 1.154708e-21)
(0.10294982 -0.0013492209 -6.497011e-22)
(0.10108665 0.00013869114 5.0632527e-23)
(0.09924097 -0.00037308063 -9.0881292e-23)
(0.097770783 -0.0010515273 1.2832133e-23)
(0.096394504 -0.00018867579 -2.0759751e-22)
(0.095345155 -0.00084657644 1.017273e-23)
(0.094845016 -0.0002462816 -4.0121122e-20)
(0.094641784 0.00054046189 2.6391072e-21)
(0.093957632 -0.0010728935 7.6628103e-23)
(0.093777485 3.3155931e-05 -1.6788151e-23)
(0.09412411 -5.2831902e-05 3.9441848e-22)
(0.094183149 -0.00033012121 7.0390823e-22)
(0.09397188 -0.00046662039 3.0803751e-22)
(0.093828707 0.00034212989 2.938628e-20)
(0.094123556 -0.00031984576 -6.4698845e-20)
(0.094426779 -0.001890402 2.0080072e-20)
(0.095122324 0.00023239989 -3.0796324e-22)
(0.09584447 0.0018593717 3.9554554e-22)
(0.096811243 -0.0021095284 3.8008603e-22)
(0.097479131 -0.0014921456 -1.4841888e-20)
(0.098222445 0.0012585501 2.4259367e-20)
(0.10001653 0.002345545 -1.3713146e-21)
(0.10131163 0.00015236076 -6.3516424e-22)
(0.10268405 -0.0031836615 -7.825978e-21)
(0.10456307 -0.0036648704 -2.3892915e-20)
(0.10572092 0.00031428272 8.1563546e-21)
(0.11008409 0.0026395889 -8.3320608e-21)
(0.1050345 0.0023283165 1.5054083e-19)
(0.10876866 -6.3892247e-05 5.9467663e-20)
(0.10694789 -0.0026550177 -3.6281288e-19)
(0.10485303 0.0006551088 -2.0440592e-19)
(0.1033675 -0.00085698349 4.5084929e-20)
(0.10184569 0.00083237409 7.1256009e-20)
(0.10044451 0.00024784891 5.1493407e-23)
(0.099007314 -0.0010157011 2.221649e-20)
(0.097840738 0.00014266676 -3.9324556e-20)
(0.096899805 -0.00075660008 -1.8649167e-20)
(0.096281037 -0.0002161302 3.8873459e-22)
(0.096426686 -9.113917e-05 3.5951415e-20)
(0.095939742 -0.00048657727 3.1495838e-20)
(0.095456452 0.00070717255 -7.1096067e-23)
(0.095810853 0.0001867064 2.2766253e-20)
(0.095644346 -1.8386059e-05 -1.6729296e-22)
(0.09566314 -0.00094665554 -1.6075416e-21)
(0.095717946 0.00081123846 -5.662948e-22)
(0.096397387 0.00042484081 -3.6390602e-20)
(0.096302117 -0.0009114292 -1.0398189e-20)
(0.096148552 -0.00028655632 1.5482475e-22)
(0.097854667 0.0013982528 -1.5914102e-21)
(0.099157542 -0.0014798268 7.4495983e-20)
(0.098582621 -0.00066293032 -2.2326816e-21)
(0.098798181 0.00092763978 -2.9986312e-20)
(0.10134256 0.0019882461 -2.3586102e-20)
(0.10420698 0.0012080828 0)
(0.10557594 -0.0023544517 1.5877599e-20)
(0.10496697 -0.0031603678 -2.4139205e-21)
(0.10632422 0.00032592745 -5.9738286e-21)
(0.10870109 0.0010870392 1.4762919e-19)
(0.11128474 0.0006959366 0)
(0.10715788 0.0001206363 7.1699259e-23)
(0.11414279 -0.0011218421 -3.8176747e-20)
(0.11206264 0.00023822709 -1.9101549e-20)
(0.10979792 -0.00056419171 1.1807406e-21)
(0.11271552 0.00017459479 5.2529308e-20)
(0.10710499 0.00015883503 -7.0497555e-21)
(0.10867001 -0.00038430129 5.5747785e-21)
(0.10381287 0.00026582495 -1.2166757e-20)
(0.10586038 -0.00037477793 -9.3939324e-22)
(0.10524366 0.00028188394 6.2348295e-21)
(0.099291584 0.00065037093 -1.0617181e-20)
(0.10461453 -0.0013544346 7.2524692e-21)
(0.10606406 0.00029114254 -6.3962655e-21)
(0.098791283 6.5425057e-05 1.5973347e-23)
(0.1068181 -0.00022098596 -6.0752424e-21)
(0.10028392 0.0010084625 1.9694832e-22)
(0.10498568 -0.0016568256 -3.4081839e-20)
(0.10987299 0.00045006483 4.8247574e-23)
(0.10206346 -0.00056393446 6.7645715e-21)
(0.10991209 -0.00027090608 3.1404228e-21)
(0.10384031 0.00031955889 3.9188014e-21)