/*--------------------------------*- C++ -*----------------------------------*\
| =========                 |                                                 |
| \\      /  F ield         | OpenFOAM: The Open Source CFD Toolbox           |
|  \\    /   O peration     | Version:  2406                                  |
|   \\  /    A nd           | Website:  www.openfoam.com                      |
|    \\/     M anipulation  |                                                 |
\*---------------------------------------------------------------------------*/
FoamFile
{
    version     2.0;
    format      ascii;
    arch        "LSB;label=32;scalar=64";
    class       volScalarField;
    location    "8";
    object      omega;
}
// * * * * * * * * * * * * * * * * * * * * * * * * * * * * * * * * * * * * * //

dimensions      [0 0 -1 0 0 0 0];

internalField   nonuniform List<scalar> 
62344
(
4.3279984
3.3111476
2.8069568
2.5053451
2.2885746
2.1170982
1.9738822
1.8478358
1.7283243
1.6165163
1.5130007
1.4250463
1.3533743
1.2963439
1.2544508
1.2259122
1.2051802
1.1924792
1.1858249
1.1834184
1.1828843
1.1810946
1.1818258
1.1832614
1.1853537
1.1917375
1.1943009
1.1987114
1.2062054
1.2153397
1.2269068
1.2406115
1.254171
1.2719314
1.30154
1.3411889
1.3765727
1.4182361
1.4664605
1.526531
1.5691931
1.6361801
1.6976115
1.7685124
1.8191036
1.8800764
1.9389875
2.0060555
2.0789556
2.1740993
2.2597976
2.3546972
2.4742714
2.5608146
2.6954451
4.3341715
3.319006
2.8126813
2.5115891
2.2948036
2.123467
1.9806879
1.8538218
1.7342741
1.6229781
1.5206717
1.4312715
1.3588616
1.3028099
1.2604114
1.2289532
1.2063058
1.1931116
1.1854783
1.1824573
1.1810917
1.1807668
1.1825046
1.1833372
1.185281
1.1896787
1.1916545
1.1948479
1.1981664
1.2037355
1.211901
1.2229891
1.2320288
1.2416885
1.2602264
1.2888507
1.3231429
1.36292
1.4011425
1.460382
1.50978
1.5964887
1.6526612
1.7268207
1.7844747
1.8630804
1.9241187
2.0006715
2.0969714
2.1949759
2.281369
2.3633388
2.447927
2.530462
2.6625616
4.341659
3.3233575
2.8150639
2.5145545
2.2980935
2.1275199
1.9853641
1.8587447
1.739322
1.6269737
1.525287
1.4370023
1.3638149
1.3067048
1.263362
1.2305709
1.2080827
1.1941016
1.1856966
1.1817912
1.179155
1.1779143
1.1801293
1.1807612
1.1828059
1.1864065
1.1883699
1.1924037
1.1956335
1.2010113
1.208094
1.2204433
1.2289683
1.2382408
1.2522266
1.2775115
1.3026298
1.3380053
1.3654784
1.4166093
1.4613779
1.5457671
1.5954044
1.668876
1.7388597
1.8230935
1.9026141
1.975962
2.0784804
2.141507
2.2278319
2.31061
2.3583265
2.4554627
2.5939649
4.347737
3.3283297
2.8200276
2.519721
2.3034561
2.131957
1.9898077
1.8643358
1.7462453
1.6340455
1.5311045
1.4436051
1.3702848
1.3109082
1.2666554
1.2335722
1.2111655
1.1974246
1.1878515
1.1834859
1.1808667
1.1792625
1.1818254
1.1825645
1.1847062
1.1876677
1.1898205
1.1935938
1.1969728
1.202881
1.2099203
1.2233928
1.2314121
1.2411853
1.2534267
1.2758516
1.2960106
1.3245021
1.350151
1.3881592
1.4296287
1.498867
1.5480637
1.5919058
1.6699539
1.7272934
1.8278795
1.9251305
2.0319767
2.094752
2.1897101
2.2563838
2.3294017
2.4009799
2.5021469
4.3540801
3.33198
2.8236707
2.52329
2.3074303
2.1365305
1.9941533
1.8683613
1.7511912
1.6409054
1.5382553
1.4500104
1.3756056
1.3150402
1.2695652
1.236364
1.2125109
1.198004
1.1877286
1.182914
1.1807636
1.1788471
1.1806795
1.1814514
1.1838319
1.1861628
1.1883825
1.1916572
1.1946874
1.2003695
1.2072371
1.2220207
1.2301437
1.2415406
1.2536712
1.2749441
1.2911522
1.3154635
1.3389289
1.3757846
1.4132426
1.4743568
1.5149326
1.5630242
1.620759
1.6562036
1.7360507
1.819252
1.8997192
1.9778288
2.0753909
2.1539315
2.2588184
2.3400737
2.4452265
4.359451
3.3372294
2.8281581
2.5272193
2.3108583
2.1408467
1.9995027
1.8749336
1.7590635
1.6497592
1.5478217
1.4580352
1.3817605
1.3202148
1.2749458
1.2408408
1.2160698
1.2002046
1.1894757
1.1836923
1.1817078
1.1800439
1.1813276
1.1824594
1.1850964
1.1868848
1.1897972
1.1932615
1.1955539
1.2005166
1.2071467
1.2205553
1.2279656
1.2398623
1.2517018
1.2721712
1.2867179
1.3071517
1.3298222
1.3578723
1.401564
1.4513642
1.4979529
1.5428712
1.6043873
1.6449378
1.7150838
1.768311
1.8492723
1.906346
1.983442
2.0295632
2.1221308
2.1818311
2.2946882
4.3645396
3.341651
2.8315232
2.5304572
2.3141403
2.1444833
2.0038512
1.8797764
1.7634644
1.6541036
1.5531713
1.4619844
1.3849085
1.3237808
1.2775511
1.2420726
1.2173152
1.2012659
1.1904659
1.1843917
1.1816746
1.1806594
1.1817089
1.1828435
1.1854696
1.1866205
1.1899569
1.1930292
1.1946676
1.1981621
1.2048117
1.2166316
1.2238252
1.2362126
1.2488776
1.2688786
1.2848929
1.300679
1.325407
1.3481024
1.3902574
1.4242321
1.4785623
1.5188099
1.5780964
1.6223112
1.6976693
1.7405009
1.8221957
1.8775401
1.9599209
2.0023234
2.091531
2.1495607
2.247011
4.3695909
3.3468378
2.8352522
2.534375
2.3176365
2.1479712
2.0082934
1.884667
1.7679653
1.6580829
1.5570755
1.4667867
1.3893548
1.3281974
1.2820861
1.2452567
1.2195316
1.2038441
1.192868
1.1864467
1.1825751
1.1811697
1.1820179
1.1830564
1.1856976
1.1868895
1.1906249
1.1932024
1.194463
1.197085
1.204421
1.2134096
1.2204861
1.2332168
1.2475538
1.2656699
1.2845671
1.298982
1.3222141
1.3445104
1.3815333
1.4084646
1.4569942
1.4977804
1.5603917
1.6014239
1.6726928
1.7079034
1.7781079
1.8262833
1.9005535
1.9646165
2.034355
2.1022262
2.1865743
4.3745023
3.3513257
2.8389733
2.5381892
2.3206519
2.1514281
2.011948
1.8884309
1.7727469
1.6630132
1.5610867
1.4713191
1.3946963
1.3324031
1.2859028
1.2489401
1.2223616
1.2063867
1.1951461
1.1880097
1.1834118
1.1816317
1.1823502
1.1832897
1.1858104
1.1870813
1.1909199
1.1932399
1.1938862
1.1962492
1.2043688
1.2117552
1.2189756
1.2284263
1.2470449
1.2637765
1.2843614
1.3000652
1.3232159
1.3471878
1.3845342
1.4064908
1.4449764
1.48299
1.5492517
1.5954491
1.6591913
1.6991243
1.7608587
1.7992963
1.8735752
1.9453982
2.016409
2.0698539
2.1267948
4.3792256
3.3556784
2.8431013
2.5415996
2.3242271
2.1550915
2.0151476
1.8917135
1.7770728
1.6691725
1.5672992
1.4772803
1.4001327
1.3361317
1.2874692
1.2507775
1.2241423
1.2071246
1.1957207
1.1883918
1.1834609
1.1815701
1.1826364
1.183687
1.1860603
1.1872955
1.1910605
1.1935142
1.1937854
1.1960737
1.2047853
1.2112125
1.2176836
1.2269484
1.2457232
1.2630241
1.2840065
1.3012014
1.3252919
1.3482123
1.3862399
1.4103885
1.4461615
1.4769542
1.5321653
1.5943474
1.6481946
1.6865732
1.7447121
1.781051
1.8326184
1.907982
1.9799979
2.056537
2.0949752
4.3839403
3.3592542
2.8464422
2.544601
2.3278453
2.158431
2.0182827
1.8948988
1.7804137
1.6732548
1.571539
1.4821781
1.4047073
1.33953
1.2898245
1.2529109
1.2261913
1.2085599
1.1964832
1.1887093
1.1836446
1.1810392
1.1821474
1.1832601
1.1856615
1.1872267
1.1907765
1.1935299
1.1935479
1.1957958
1.2049148
1.2109256
1.2165638
1.2260682
1.2447407
1.2628494
1.2828466
1.3010065
1.3258623
1.3476368
1.3845357
1.4142311
1.4455182
1.476128
1.5218862
1.584261
1.6377101
1.6798796
1.7360574
1.7731622
1.8134735
1.8781078
1.9369373
2.0101594
2.074835
4.3883006
3.3627144
2.8493198
2.5479439
2.3310441
2.1613791
2.0214355
1.8976958
1.7833186
1.6762137
1.5750209
1.4855668
1.4086716
1.3422791
1.2931708
1.2560473
1.2286344
1.2108277
1.1977278
1.1893317
1.1843141
1.1811535
1.1818105
1.1827429
1.1849603
1.1869161
1.1902597
1.1933982
1.1930889
1.1952886
1.2043212
1.2102245
1.2151257
1.2251561
1.2431782
1.2628247
1.2797
1.2984657
1.3240196
1.3468089
1.3803257
1.4100939
1.4395172
1.4740605
1.5167203
1.5702368
1.6221584
1.681371
1.7359648
1.7715203
1.8209677
1.8809089
1.9265785
1.9935435
2.0712698
4.3926583
3.3661726
2.8521014
2.5510429
2.3341466
2.1643881
2.0244607
1.9011856
1.7866025
1.6799171
1.5797853
1.4894957
1.411053
1.3448053
1.2951002
1.2576926
1.2297231
1.2114472
1.1982952
1.1898296
1.1848237
1.18198
1.1821494
1.1828395
1.1848888
1.1870707
1.1902093
1.1934733
1.193008
1.1953717
1.2039393
1.2094347
1.2142272
1.2246089
1.240475
1.2620884
1.2760775
1.2962653
1.3158265
1.3462347
1.3727501
1.4017642
1.4336531
1.4677988
1.5066983
1.5500962
1.5999923
1.6661504
1.7230746
1.7549325
1.8129417
1.8690606
1.9151433
1.9738473
2.0396618
4.3965169
3.3695537
2.855003
2.5540593
2.3371808
2.1670498
2.0274074
1.9055392
1.7909169
1.6842497
1.5851265
1.4946436
1.4142737
1.3485974
1.2981541
1.2594081
1.2313106
1.2117882
1.1986428
1.1906006
1.1854238
1.1828257
1.1828739
1.1833303
1.1852827
1.1876554
1.1905275
1.1935493
1.1931798
1.1960759
1.2039403
1.2087568
1.2137845
1.2231211
1.2380934
1.2590945
1.2736414
1.2916668
1.3123534
1.3403923
1.3709713
1.3939047
1.4286823
1.4546424
1.4985816
1.5338072
1.5807053
1.6310591
1.687486
1.7376432
1.7969838
1.8412111
1.8930466
1.9455514
1.9820727
4.4003376
3.37272
2.8575913
2.5572035
2.3397606
2.1693009
2.0301785
1.9092167
1.7955024
1.6887795
1.5899274
1.4994448
1.4196774
1.3530063
1.303066
1.263507
1.2344559
1.2137199
1.200116
1.192242
1.1867619
1.1839888
1.1838104
1.1840844
1.1860193
1.1888433
1.1915547
1.194227
1.1938879
1.1973551
1.2044143
1.2086835
1.2139942
1.2220553
1.237121
1.2562848
1.2738563
1.2890536
1.3113774
1.3381734
1.3725523
1.3928108
1.4252395
1.4546972
1.4938212
1.5294676
1.5653499
1.6084538
1.6548879
1.7221227
1.7715922
1.8164733
1.8599204
1.9116612
1.9373061
4.4036122
3.3758143
2.8601577
2.5601904
2.3420509
2.1717082
2.0329154
1.9119267
1.7986803
1.6925032
1.5938566
1.5032894
1.4246717
1.3571188
1.30716
1.267246
1.2376706
1.2167607
1.2020802
1.1936417
1.1879338
1.184863
1.1844127
1.1845592
1.1863392
1.1894405
1.1922886
1.1948302
1.194675
1.1985538
1.2049063
1.2088542
1.2146416
1.2220176
1.2374837
1.2555804
1.2767288
1.2904203
1.3136522
1.3404991
1.3770419
1.4000034
1.4276179
1.4587388
1.4967881
1.5337631
1.5655646
1.6046615
1.6362236
1.6994942
1.7503259
1.7977605
1.8265038
1.8730449
1.9064591
4.407576
3.3791984
2.8627802
2.5627124
2.3447671
2.1743156
2.0352145
1.9142072
1.8010049
1.695405
1.5969331
1.5064349
1.4273452
1.360268
1.3087478
1.2682113
1.2386252
1.2181459
1.2029962
1.1940838
1.1881673
1.1849225
1.1844056
1.1846436
1.1864818
1.1896729
1.1927351
1.1952295
1.1953871
1.1996198
1.2053793
1.2094037
1.2157257
1.2235921
1.2383824
1.2570858
1.2790412
1.2970872
1.316535
1.349667
1.3830356
1.4141075
1.4345204
1.4709215
1.5066372
1.5467344
1.5760923
1.6163046
1.6399254
1.6907962
1.7424343
1.7970719
1.8210956
1.8580302
1.8947161
4.41038
3.3822429
2.8653896
2.5651132
2.347827
2.1768402
2.0376557
1.9166322
1.8040292
1.6986436
1.6001522
1.5096427
1.4301168
1.3635598
1.3103257
1.2688289
1.2401364
1.2192508
1.2040067
1.1948693
1.188821
1.1853156
1.1848358
1.1851257
1.1870906
1.1903372
1.1934113
1.1959145
1.1964396
1.2012133
1.2068271
1.211272
1.2178898
1.2273811
1.2411455
1.2619756
1.2818498
1.3060133
1.3244871
1.3620983
1.3932894
1.4299315
1.4525308
1.4892897
1.5223453
1.5708178
1.5976929
1.6372688
1.6633262
1.7092042
1.7518793
1.8165096
1.8484665
1.8843782
1.9117967
4.4145685
3.3854857
2.8680619
2.5677015
2.3506562
2.1795658
2.0409205
1.9198107
1.8086853
1.7035672
1.6052461
1.5153271
1.4367958
1.3697722
1.3164964
1.2749197
1.2469787
1.2249239
1.2098335
1.2002966
1.1940967
1.1902533
1.1897303
1.1899978
1.1920511
1.1953621
1.1986384
1.2007771
1.2015652
1.2067316
1.2121834
1.2168236
1.2234207
1.2343276
1.2482561
1.2702291
1.2892383
1.3168861
1.33763
1.3783962
1.4107045
1.4535459
1.4784419
1.5197557
1.5520585
1.6037321
1.6352472
1.6754621
1.7011759
1.7450775
1.7799245
1.8435519
1.8863082
1.936559
1.9572726
4.4166717
3.3883455
2.8712107
2.5711581
2.3540905
2.1838314
2.0462296
1.9257991
1.8164954
1.712526
1.6145989
1.526245
1.4503577
1.3829713
1.3311133
1.2911312
1.2636151
1.240685
1.2258696
1.2158857
1.2094373
1.2048481
1.2037616
1.2037716
1.2056274
1.2088574
1.212039
1.2137242
1.2146724
1.2204914
1.2262115
1.2307671
1.2372835
1.2496427
1.2651081
1.2882125
1.3067644
1.3379463
1.3624206
1.4070662
1.4409066
1.4903882
1.5192782
1.5715023
1.6046371
1.6580331
1.6950167
1.7425113
1.7653637
1.8130292
1.8446686
1.8966245
1.9374787
1.9945023
2.0165172
4.4233496
3.3941672
2.8772183
2.5787645
2.363008
2.1945718
2.0585201
1.9400171
1.8326488
1.7314097
1.6358518
1.5506416
1.4789038
1.4131495
1.3635751
1.3259689
1.2992553
1.2767558
1.2625204
1.2526557
1.2464651
1.2412966
1.2391864
1.2380572
1.2392611
1.242181
1.2451821
1.2458946
1.2465223
1.2520841
1.2579008
1.2617314
1.2676202
1.2804372
1.2979291
1.3226872
1.3409374
1.3756473
1.4045201
1.4557295
1.4924599
1.5457811
1.5859436
1.6423215
1.67981
1.737164
1.7732573
1.8309033
1.8541561
1.8987454
1.927498
1.9745365
2.0086088
2.0666971
2.09673
4.4326502
3.4091914
2.8972573
2.6043941
2.3927879
2.2272761
2.0935094
1.9775061
1.870855
1.7715748
1.6796371
1.597934
1.530152
1.4690374
1.4226348
1.3887184
1.3644615
1.3452358
1.3321175
1.3229951
1.3170136
1.3119412
1.3092602
1.3071554
1.3070376
1.3086994
1.3106901
1.3102842
1.3104484
1.3153352
1.3204576
1.3231729
1.3280772
1.3393123
1.3557597
1.3791193
1.3959056
1.4286961
1.4602372
1.5146192
1.5513965
1.6080181
1.6504614
1.7164075
1.7648735
1.826346
1.8660277
1.9299587
1.9604014
2.0075889
2.0361255
2.0883198
2.118955
2.1814007
2.2242856
4.4859823
3.4699907
2.9605923
2.670919
2.4589029
2.2918564
2.1584517
2.0456331
1.9399728
1.8439703
1.7632158
1.694925
1.6453761
1.6039264
1.5762778
1.5590856
1.5480311
1.5380539
1.5302815
1.5246633
1.5199649
1.5143905
1.5102863
1.505003
1.5020768
1.500505
1.5001357
1.4993564
1.4978878
1.5017749
1.505453
1.5060108
1.507002
1.5130618
1.5250286
1.5439232
1.5578976
1.5851624
1.6138241
1.6631522
1.6969059
1.7498476
1.7891444
1.8543621
1.8986955
1.9559377
1.9917597
2.051686
2.0875955
2.1382646
2.1640026
2.2125931
2.237527
2.2999075
2.3350588
4.5798879
3.5989793
3.1062209
2.8411563
2.6453676
2.495497
2.3833
2.2963386
2.217736
2.1447736
2.0898413
2.0692481
2.0764948
2.0874732
2.1101023
2.1381525
2.1634356
2.1728791
2.177578
2.1813756
2.1804728
2.173585
2.1675526
2.1575726
2.1498761
2.1399779
2.1314052
2.130079
2.1251073
2.1248444
2.1246443
2.1206539
2.1177166
2.1148652
2.1169489
2.1281597
2.1424343
2.1575827
2.176231
2.2103992
2.2399411
2.2874528
2.3246379
2.3807675
2.4066646
2.4464808
2.472613
2.522319
2.5485365
2.5834853
2.5931554
2.6210479
2.6403067
2.6917129
2.6883769
4.7775527
4.5474523
4.3728674
4.2721978
4.1662194
4.0760928
4.0171977
3.9676658
3.9438735
3.9005742
3.8496113
3.8615209
3.942286
4.0106483
4.0965068
4.1893818
4.2711364
4.2883979
4.2966195
4.3097105
4.310712
4.2945468
4.2901542
4.2831603
4.2776795
4.2609097
4.2431949
4.2442267
4.2305464
4.2320522
4.2363458
4.2377868
4.2454082
4.2434734
4.2438629
4.2549436
4.2724548
4.2796048
4.2780269
4.2752259
4.290671
4.327196
4.3562923
4.3715502
4.3590601
4.3442045
4.3365223
4.3482782
4.341993
4.3164244
4.2535042
4.2220224
4.2082169
4.2064073
4.1171044
9.7049327
13.084399
13.611175
13.62904
13.635876
13.524323
13.392578
13.240612
13.209456
13.087956
12.801576
12.699421
12.707388
12.625337
12.579955
12.596671
12.706446
12.600317
12.47481
12.40356
12.404703
12.306935
12.272892
12.202773
12.170219
12.062329
12.000881
12.070748
12.020458
12.054518
12.1111
12.194236
12.280158
12.320313
12.403238
12.468703
12.60228
12.612309
12.573232
12.531396
12.564538
12.694045
12.752121
12.718614
12.645269
12.566226
12.473554
12.503691
12.449176
12.285296
12.01447
11.863492
11.767444
11.668302
11.099379
55.747343
56.943403
56.895256
56.898617
57.080672
57.276791
57.419242
57.426734
57.459361
57.381214
57.146342
56.97148
56.967066
56.792842
56.615158
56.540652
56.673882
56.775089
56.729669
56.624417
56.552764
56.517277
56.413463
56.349722
56.21806
56.027752
55.702015
55.901578
55.98426
55.839087
55.689515
55.988558
56.457662
56.534565
56.196538
55.990125
56.38183
56.783989
56.655033
56.028584
55.758652
56.24195
56.698485
56.649865
56.039272
55.597546
55.759295
56.20862
56.307041
55.944521
55.406612
55.228393
55.379278
55.672683
55.707905
56.929407
12.094416
4.3265078
2.8006306
2.404253
2.2775186
2.1402461
2.0620013
2.0072301
1.967843
1.9484963
1.953173
1.9833332
2.031795
2.0864775
2.1270863
2.1318017
2.1475128
2.1973383
2.2411541
2.2973162
2.353857
2.52396
2.6294231
2.717559
2.7327545
2.7785348
59.042454
12.824146
4.5156588
2.8901919
2.4685941
2.3378061
2.2105941
2.1406196
2.0886853
2.0404393
2.008212
2.023626
2.0658945
2.1114904
2.1557534
2.1804319
2.1918161
2.2096872
2.2465238
2.2994504
2.3672661
2.425793
2.6314638
2.7397645
2.8237093
2.8254231
2.8675533
62.318883
13.654355
4.728924
2.9652441
2.5302249
2.4171497
2.3028697
2.2237939
2.1624631
2.1206815
2.0959496
2.1108397
2.1523438
2.2003795
2.2425596
2.270729
2.2627674
2.2688312
2.3118411
2.3793749
2.4419474
2.5119289
2.7202263
2.8436916
2.9512284
2.9791933
3.0167541
67.413773
14.613026
4.9536133
3.0575712
2.5901668
2.4801938
2.3731037
2.303399
2.2439237
2.2079507
2.1875606
2.1925389
2.2170589
2.2582614
2.3094779
2.3442479
2.3482141
2.3645839
2.4025498
2.4567064
2.5019261
2.5963945
2.8034458
2.9362379
3.0197264
3.1337108
3.1732344
73.133553
15.748571
5.2993307
3.2538436
2.7345873
2.6122332
2.5111815
2.4342925
2.370396
2.3105527
2.2710309
2.2620473
2.2615503
2.293755
2.346927
2.4058943
2.4317028
2.4426453
2.4910466
2.5769095
2.613555
2.7126405
2.9090507
3.0032282
3.0486229
3.2078394
3.2723304
78.68623
17.283944
5.7137114
3.429183
2.8896934
2.7877934
2.6831279
2.5692375
2.4774313
2.402608
2.3573907
2.3423168
2.335967
2.3659825
2.4187027
2.4706844
2.4902408
2.5003837
2.5587982
2.6891578
2.7594529
2.863739
3.0361088
3.151167
3.1611767
3.3140243
3.3823327
82.756628
18.472929
6.1520181
3.6833533
3.083291
2.9494163
2.8123171
2.6713053
2.5557908
2.4703971
2.42741
2.4088481
2.4048597
2.4428078
2.4935285
2.532536
2.5493566
2.5754292
2.6522332
2.8168539
2.8892867
2.9402853
3.105985
3.2787012
3.3326145
3.4822281
3.5258673
84.985605
18.962861
6.4435072
3.9102085
3.2950246
3.148074
2.9897623
2.8241025
2.6873683
2.5711722
2.5108507
2.490141
2.4816422
2.5207707
2.5688832
2.6190159
2.6716589
2.7080479
2.7870435
2.9254877
2.9932218
3.0141179
3.1444746
3.3459481
3.4515698
3.662962
3.7251271
88.395113
19.807663
6.8145375
4.121411
3.4998578
3.3694921
3.2143931
3.0486517
2.878889
2.7404418
2.6434985
2.6089964
2.5905283
2.621832
2.6773581
2.7304111
2.8299705
2.8827499
2.941663
3.0265425
3.1143133
3.135142
3.2356318
3.4422661
3.5922158
3.8310678
3.8886336
94.552082
21.627571
7.3984698
4.3642142
3.6678821
3.5325935
3.4069029
3.2382721
3.0635474
2.8923063
2.7847471
2.754196
2.7340327
2.7749695
2.8449886
2.8921948
2.9832313
3.0477285
3.1054125
3.1877719
3.2518483
3.2686447
3.3260972
3.5872909
3.7676131
3.9863065
4.0199557
102.36877
23.622224
8.0207969
4.6558413
3.8794241
3.7206209
3.5918766
3.4069139
3.2040618
3.0137886
2.8963795
2.8512856
2.8394014
2.8903246
2.9948188
3.0554212
3.1229856
3.2017277
3.2821322
3.3716595
3.4506951
3.4639609
3.4961704
3.7662056
3.9270553
4.0808039
4.1373265
110.88039
25.466006
8.673142
4.9574769
4.0839192
3.8990522
3.7735957
3.5956908
3.3922161
3.1817431
3.0463659
2.9892488
2.9917546
3.0459231
3.1478785
3.1811068
3.2172115
3.3202293
3.4198711
3.5016155
3.6223918
3.6873793
3.7361157
3.9958574
4.1586587
4.1900439
4.2791765
120.48954
27.966694
9.3941568
5.2287865
4.2575046
4.0783206
3.9930056
3.806912
3.6350599
3.4294328
3.2707521
3.1856103
3.1710469
3.2049878
3.2840702
3.2843265
3.3068742
3.4190738
3.5072376
3.5641197
3.7316353
3.8848114
3.9925915
4.2239346
4.4648116
4.4430681
4.5387512
130.63002
30.577884
10.115506
5.5443702
4.5084451
4.3475338
4.2907891
4.1347931
3.9749177
3.7312485
3.5305988
3.4073785
3.331661
3.3233822
3.375427
3.3966794
3.4215699
3.5288261
3.6371155
3.7129881
3.8956694
4.0722514
4.178874
4.3079135
4.6939625
4.7423407
4.9183811
140.72731
33.110331
10.966478
5.9623844
4.8283322
4.6714467
4.6340583
4.4740464
4.2821599
3.9980963
3.7482899
3.5964429
3.5023276
3.4850774
3.5196321
3.5502438
3.5475585
3.6334497
3.8088939
3.9395038
4.1248859
4.2846241
4.3475031
4.3969159
4.7863319
4.9434123
5.2464543
147.93865
35.523914
11.940537
6.4672924
5.2487552
5.0695776
4.9878838
4.7772876
4.5632914
4.2465699
3.9448911
3.7660839
3.6816993
3.6734148
3.7051901
3.7498075
3.7293917
3.8091886
4.0265763
4.1928744
4.3736842
4.5125396
4.577538
4.6064382
4.9539131
5.1616234
5.4614854
148.99454
36.710744
12.48712
6.8839197
5.6905466
5.4710472
5.3505665
5.1477372
4.8912972
4.5658976
4.2231333
3.984199
3.8571328
3.8218754
3.8354124
3.8873629
3.9165652
4.0227729
4.2595496
4.4148506
4.5889463
4.7388174
4.7981111
4.8062911
5.140065
5.4774036
5.7177758
152.40253
37.287765
12.953501
7.4316629
6.2608836
6.0257749
5.9042751
5.6737677
5.4177566
5.0535842
4.6330096
4.3274556
4.1317014
4.0240008
4.016168
4.0812759
4.1509451
4.2759366
4.4738153
4.6203562
4.7951504
4.9265026
4.9879359
4.9838069
5.2862714
5.7753415
5.9969961
165.22166
40.513739
14.393325
8.234844
6.8491381
6.5691019
6.4569445
6.2561174
6.0127419
5.630659
5.193971
4.8002678
4.4852313
4.3412461
4.3335507
4.3946405
4.4343356
4.4945659
4.6473962
4.8660773
5.031548
5.159206
5.2073927
5.2080878
5.4912087
6.1524496
6.2904617
182.57734
46.691314
16.742086
9.290042
7.4606281
7.014897
6.9070353
6.7330005
6.5396712
6.2040991
5.734077
5.3080205
4.9885946
4.8307376
4.7568787
4.7613484
4.7386841
4.7490781
4.9309424
5.1423458
5.3119598
5.3838967
5.4466741
5.5459064
5.8187934
6.5531522
6.7469412
199.41606
53.107281
19.186837
10.384364
8.1022921
7.5433544
7.4291784
7.2485185
7.1141713
6.8254319
6.3550699
5.9276871
5.5755051
5.3629209
5.1878595
5.1262695
5.0479896
5.0427786
5.1757545
5.4295408
5.6035907
5.6119937
5.7338538
5.9736027
6.2644931
6.8934165
7.2729584
213.76929
58.752737
21.769736
11.736195
8.8996479
8.119537
7.9719605
7.8784874
7.824207
7.6335578
7.112351
6.5976024
6.2063613
5.8782038
5.641648
5.5761235
5.4866525
5.4063979
5.4658867
5.7248434
6.0499067
6.1041309
6.2055576
6.4022568
6.5422214
7.1055077
7.6781529
223.47338
60.919906
23.19062
12.623892
9.7212208
8.9211179
8.7046491
8.6285063
8.5626304
8.3143559
7.7112291
7.1028153
6.6898589
6.3838511
6.1276257
6.0467152
5.9762353
5.8401034
5.8504726
6.042723
6.5964952
6.7689498
6.86599
6.9491727
6.9016842
7.3465014
7.9519968
227.27021
60.811519
23.711107
13.461532
10.581622
9.6877887
9.3552838
9.2329039
9.1410913
8.8220368
8.2015762
7.5618036
7.1175246
6.8288568
6.5134942
6.3327876
6.2965983
6.2041786
6.2496381
6.4644333
7.1479997
7.508569
7.5769021
7.6273945
7.4907437
7.8031969
8.382371
226.00916
61.369392
25.104064
14.757219
11.474642
10.354343
9.9894676
9.8510758
9.7211438
9.3894458
8.7926152
8.115117
7.7088426
7.3828145
6.9444297
6.6790893
6.6039458
6.5505032
6.5890607
6.8073834
7.5058791
7.9614008
7.9451362
8.2834132
8.2249781
8.4871218
9.1289437
226.55153
61.29993
26.178699
15.838414
12.37418
11.172358
10.795895
10.658443
10.542669
10.214477
9.5673824
8.8404991
8.3859375
8.0597015
7.7090848
7.3815094
7.2525305
7.2388465
7.1902449
7.3318512
7.8515727
8.3210404
8.243066
8.6215871
8.6627439
8.9518969
9.8661856
236.13503
62.524118
28.04707
17.438057
13.636479
12.232566
11.760093
11.613541
11.503343
11.226896
10.612945
9.8145995
9.3491648
9.0399187
8.7584364
8.4746634
8.3823182
8.3402935
8.1646759
8.1384825
8.5088577
8.9682661
8.7561153
9.0560703
9.1519062
9.327774
10.405953
252.56367
68.943149
31.042395
19.448428
15.038907
13.159152
12.463008
12.335844
12.267893
12.088653
11.684028
10.876535
10.349612
10.066272
9.8048118
9.5969364
9.514894
9.4180202
9.1016995
8.9417536
9.3153742
9.7636083
9.5308995
9.6886283
9.9699124
10.194253
11.316502
271.16946
79.949997
35.816838
22.275058
16.634573
14.117949
13.166008
12.902233
12.812685
12.715792
12.549757
12.081108
11.613934
11.428624
11.2275
10.870614
10.464099
10.125304
9.7037273
9.5385551
9.9231336
10.299735
10.119534
10.121237
10.608844
11.046874
12.342416
288.75639
91.004201
41.064903
25.529305
18.840506
15.542889
14.048507
13.543488
13.406394
13.366668
13.361432
13.093634
12.77486
12.743157
12.577944
12.196975
11.759685
11.283996
10.682637
10.369146
10.533469
10.852715
10.642929
10.588143
11.141742
11.771282
13.008456
302.17897
98.914284
45.022369
28.022076
20.491341
16.760381
15.087054
14.397333
14.238255
14.31429
14.427137
14.192657
13.74923
13.583556
13.520048
13.30338
13.032288
12.659766
12.058075
11.708762
11.779761
11.976645
11.787596
11.646893
12.20353
12.928289
13.729286
307.92079
102.17641
47.616103
29.957361
21.742516
17.676408
15.96388
15.331033
15.239104
15.391199
15.543618
15.301346
14.681073
14.418126
14.292316
14.215428
14.122087
13.754027
13.178238
12.924863
13.011501
13.381523
13.510619
13.379969
13.747288
14.176425
14.615963
302.96558
99.900883
48.637557
31.074784
22.699067
18.537647
16.725138
16.16038
16.109651
16.292724
16.469074
16.275807
15.768199
15.492577
15.332341
15.159654
15.021845
14.606107
13.91041
13.544739
13.701706
14.47555
15.187065
15.253674
15.265429
15.085023
15.457952
290.41519
95.512563
48.893854
32.120454
23.487411
19.107248
17.226768
16.686951
16.659542
16.84327
16.994526
16.914032
16.642089
16.494864
16.29434
16.019834
15.826182
15.360232
14.533386
14.090967
14.273091
15.225258
16.597988
16.991945
16.489176
15.724833
16.045373
276.01532
91.542284
49.029006
33.056539
24.182017
19.431282
17.458939
16.910226
16.832707
17.013223
17.19346
17.191399
17.151081
17.261039
17.285874
17.028781
16.67393
16.064553
15.10167
14.545612
14.750881
15.917204
17.970865
18.592055
17.501797
16.227697
16.35853
262.87508
87.748225
48.503468
32.81658
23.948235
19.454275
17.621442
17.014693
16.874234
17.021864
17.262341
17.371863
17.517817
17.841698
18.047773
17.868416
17.482638
16.756021
15.66863
15.008756
15.198325
16.408306
18.982874
20.106132
18.400533
16.523692
16.377409
250.68629
83.230456
47.386407
32.528644
23.837852
19.439111
17.676335
17.115787
16.989954
17.160004
17.491974
17.648037
17.888894
18.276065
18.487403
18.400928
18.114753
17.421207
16.439484
15.671813
15.768344
16.71938
19.394892
20.863039
19.093433
16.806452
16.401469
238.46828
79.290842
46.675256
32.877277
23.907243
19.505293
17.793188
17.298041
17.217803
17.4783
17.928061
18.140817
18.479985
18.805251
18.906816
18.818376
18.622623
18.12782
17.263772
16.48046
16.369922
17.057365
19.3888
21.033504
19.800787
17.259847
16.551064
228.26885
76.217904
46.25753
33.367854
24.137865
19.597065
17.935888
17.525449
17.512799
18.036945
18.57268
18.799145
19.081686
19.292572
19.342215
19.215449
19.015979
18.626627
18.004937
17.250128
16.999095
17.465909
19.195309
20.962112
20.515725
17.970275
16.93299
223.45739
74.752901
46.25644
34.005497
24.589273
19.751352
18.051607
17.685179
17.807333
18.592361
19.133594
19.361108
19.535375
19.6253
19.54461
19.374335
19.244141
19.024432
18.622031
17.993745
17.517875
17.759251
18.887054
20.874566
21.249457
18.988617
17.547303
222.21187
75.011275
46.638548
34.516803
24.793729
19.800736
18.110308
17.77493
18.024182
18.997283
19.532981
19.773042
19.892715
19.924344
19.66324
19.461339
19.399724
19.310269
19.162741
18.714196
17.95049
17.873539
18.614863
20.810259
22.099099
20.371887
18.12568
220.55025
76.463281
47.167943
34.869803
24.931145
19.737049
18.083845
17.788036
18.082344
19.150569
19.79827
20.103933
20.225501
20.194192
19.759309
19.536831
19.520932
19.610461
19.599162
19.24064
18.207307
17.875774
18.486671
20.784382
22.836045
21.762826
18.822921
216.97802
78.929933
48.157018
35.141404
25.100374
19.794337
18.007551
17.66601
17.995475
19.13774
19.871556
20.291473
20.443124
20.247258
19.79832
19.593784
19.710852
19.923682
19.912864
19.526314
18.313203
17.819347
18.42992
20.892381
23.401418
22.860967
19.694272
208.60009
79.605497
48.200361
34.985962
25.129829
19.89925
18.099243
17.705185
17.918954
19.043504
19.888791
20.419269
20.595339
20.333647
19.928428
19.737087
19.964662
20.251804
20.21246
19.672262
18.310781
17.832568
18.435064
20.921931
23.503748
23.396529
20.541086
196.62887
79.389646
48.451177
34.429916
24.850098
19.989001
18.194543
17.805691
18.033305
19.115381
19.92159
20.547838
20.765887
20.571198
20.259078
20.095728
20.355792
20.586393
20.464535
19.713764
18.343197
17.932361
18.584247
20.89251
23.132333
23.288868
21.1562
183.2692
77.285155
47.588653
33.293117
24.478152
20.059885
18.430189
18.130727
18.534678
19.544695
20.179
20.712986
20.874371
20.774679
20.693081
20.641788
20.935666
21.026437
20.755853
19.743571
18.468093
18.215335
18.871642
20.739242
22.325228
22.606462
21.51072
170.18619
75.100459
46.213115
32.382881
24.174366
20.173794
18.817558
18.735189
19.282455
20.079618
20.598137
21.029675
21.193697
21.2446
21.337711
21.531699
21.709376
21.600111
21.065886
19.920058
18.875278
18.766801
19.320413
20.594667
21.485436
21.610247
21.445794
158.34391
72.922798
44.76594
31.571467
24.048787
20.420988
19.283756
19.287668
19.755727
20.453931
21.018925
21.501365
21.786658
22.070158
22.408403
22.554729
22.567661
22.299552
21.659347
20.639728
19.677165
19.541479
19.844721
20.541958
20.876885
20.751081
21.066092
147.03283
69.715123
42.839282
30.262897
23.584258
20.749709
19.869177
19.79568
20.099495
20.861424
21.483316
21.989371
22.449733
22.93224
23.35022
23.501323
23.464126
23.205392
22.623791
21.649158
20.644462
20.376469
20.38802
20.683488
20.722691
20.402938
20.613617
132.38808
64.926277
40.79141
28.901978
23.326636
21.219747
20.707087
20.695229
21.072823
21.717821
22.175165
22.560856
22.948624
23.392652
23.837633
24.202943
24.411782
24.284629
23.699876
22.635304
21.596558
21.22341
21.066942
21.117731
21.038965
20.563391
20.437894
113.00137
58.120581
38.368313
27.701493
23.34358
22.047926
21.853688
21.938995
22.498851
23.032743
23.336669
23.529769
23.670163
23.762826
24.083386
24.626359
25.176885
25.28296
24.72022
23.613531
22.551596
22.146375
21.891718
21.717087
21.370796
20.826313
20.654684
92.82628
51.797581
37.198294
27.492974
23.750811
23.115373
23.099229
23.426231
24.191718
24.620173
24.823647
24.871849
24.735254
24.466077
24.461988
24.809606
25.403988
25.882767
25.631923
24.675568
23.630504
23.149442
22.901899
22.603568
21.981863
21.406696
21.306303
77.898987
46.571865
35.302436
27.647129
24.888444
24.655702
24.870944
25.534713
26.039727
26.29055
26.281676
26.012708
25.561436
25.014775
24.725932
24.802851
25.240143
25.993517
26.361289
25.985931
25.19596
24.562637
24.264129
23.753068
22.882978
22.353016
22.412539
66.969381
43.31374
34.116183
28.731821
27.008122
26.924714
27.160699
27.548365
27.648708
27.528489
27.152669
26.639566
26.036218
25.501467
25.247398
25.242369
25.540884
26.066752
26.693745
27.018613
26.77681
26.190316
25.628506
24.888111
24.096895