/*--------------------------------*- C++ -*----------------------------------*\
| =========                 |                                                 |
| \\      /  F ield         | OpenFOAM: The Open Source CFD Toolbox           |
|  \\    /   O peration     | Version:  2406                                  |
|   \\  /    A nd           | Website:  www.openfoam.com                      |
|    \\/     M anipulation  |                                                 |
\*---------------------------------------------------------------------------*/
FoamFile
{
    version     2.0;
    format      ascii;
    arch        "LSB;label=32;scalar=64";
    class       volScalarField;
    location    "8";
    object      p_0;
}
// * * * * * * * * * * * * * * * * * * * * * * * * * * * * * * * * * * * * * //

dimensions      [1 -1 -2 0 0 0 0];

internalField   nonuniform List<scalar> 
62344
(
1.0023475
0.99994339
1.000053
0.99860854
0.99371855
0.98409087
0.97535046
0.97217819
0.96701523
0.97006398
0.9726023
0.97699841
0.98418548
0.98349401
0.98384669
0.98779581
0.98579292
0.98760583
0.98828837
0.99379404
1.0021058
1.005374
1.0099321
1.0151783
1.0152771
1.0299843
1.02938
1.0249594
1.0226263
1.0175607
1.0245506
1.02935
1.0271904
1.0077785
1.0120326
1.0382169
1.0468676
1.0310969
1.0136897
1.0135866
1.0120188
1.0138542
1.0410019
1.0646622
1.0584702
1.0240801
0.99400063
0.98804468
0.9925234
0.99766557
1.0046883
1.0205406
1.0466878
1.0697241
1.0633026
1.0021953
1.0011215
0.99937885
0.99873118
0.99293813
0.98414201
0.97690765
0.97257288
0.96729601
0.96834925
0.97414109
0.97705036
0.97949584
0.98391126
0.9886001
0.98897512
0.98502252
0.98581727
0.98642971
0.9925553
0.99772575
1.0027391
1.0105712
1.0147332
1.0166211
1.0285022
1.0286833
1.0283327
1.0246798
1.0192805
1.0222951
1.0286542
1.0291393
1.0088065
1.0105188
1.0261686
1.0397488
1.0332372
1.0146331
1.005482
1.0156813
1.0317889
1.0493912
1.0467795
1.0307181
1.020493
1.015774
1.0144925
1.026765
1.0371747
1.0270795
1.0029
0.98695553
0.99344177
1.0164526
1.0024636
1.0013996
0.99881577
0.99845827
0.99303636
0.98391892
0.97676433
0.97206544
0.96891163
0.96903162
0.97292148
0.97786147
0.98010447
0.98395209
0.98922625
0.98696609
0.9841893
0.98721403
0.98846894
0.99421239
0.99777135
0.99945372
1.0102385
1.0141179
1.018099
1.0281761
1.0269348
1.0301821
1.0269399
1.0215554
1.019903
1.0288182
1.0295605
1.0080504
1.0076884
1.0235743
1.0379923
1.0352547
1.0149412
1.0008238
1.0180972
1.0469864
1.0547679
1.0333449
1.0096945
1.0072346
1.0246908
1.0398823
1.0522593
1.0546587
1.031023
0.99278182
0.95728523
0.9437732
0.96261149
1.0028449
1.0006727
0.99876865
0.99840716
0.99415773
0.98433544
0.97603044
0.97143708
0.96948546
0.97002698
0.97085168
0.97733979
0.98287082
0.98368387
0.98614546
0.98377767
0.98334809
0.98807828
0.98815877
0.99320594
0.99868971
0.99765345
1.0088796
1.012992
1.018625
1.0273222
1.0261356
1.030101
1.0269386
1.0232122
1.0188177
1.0302225
1.0277861
1.0079373
1.0083994
1.022145
1.0328433
1.0300745
1.0163271
0.99910605
1.0187193
1.0550314
1.0604876
1.0280372
0.99391313
0.99024533
1.0164324
1.0518506
1.0721632
1.0643765
1.0335359
0.99247865
0.95985022
0.94340967
0.94768072
1.0029787
0.99949558
0.99887195
0.99846664
0.9946651
0.98488658
0.97596816
0.97112899
0.96840904
0.96914917
0.97094779
0.97748499
0.98301671
0.98253368
0.98448754
0.98458421
0.98474313
0.98786243
0.98571831
0.98964775
0.99803054
0.99810738
1.0075618
1.0121557
1.0196501
1.026723
1.0281142
1.031183
1.0265303
1.0239997
1.0190779
1.0327518
1.0254012
1.0071757
1.0087871
1.0230184
1.0307459
1.0270988
1.0149582
1.0017615
1.0168099
1.0538015
1.0620477
1.0311304
0.99379611
0.98235535
1.0048304
1.0468735
1.0759795
1.0720086
1.0387369
1.0002549
0.97371494
0.9637702
0.9669712
1.0026839
0.99914811
0.99864402
0.99869447
0.99435131
0.98500106
0.97681582
0.97180499
0.96775152
0.96729868
0.9727369
0.97806683
0.98003192
0.98123991
0.98477565
0.98587149
0.98560402
0.98659394
0.98356153
0.9872059
0.99561605
0.9983149
1.0060879
1.010969
1.0205469
1.0256729
1.030161
1.0337993
1.0270446
1.0240247
1.0208453
1.0348864
1.0231861
1.0057642
1.0079359
1.0236676
1.0310175
1.0240163
1.0116901
1.0067461
1.0176156
1.0430444
1.0527925
1.0349827
1.0038625
0.9912225
1.002108
1.0307631
1.0598646
1.0656026
1.0473124
1.018446
0.99728619
0.99106234
0.99339458
1.0022563
0.99960361
0.99835832
0.99906962
0.99383512
0.9845953
0.97784637
0.97304033
0.96847856
0.96669526
0.97439082
0.97778674
0.97673877
0.98109011
0.98636576
0.98601416
0.98471393
0.98534295
0.98379291
0.98822239
0.99419824
0.99867443
1.0057103
1.0104828
1.0209451
1.0248088
1.0318089
1.0360192
1.0285138
1.02333
1.0235035
1.0360563
1.0217052
1.004641
1.0079458
1.023541
1.0312911
1.0232094
1.0087454
1.0114336
1.0226849
1.0330699
1.0345115
1.0321451
1.0185661
1.0101623
1.013359
1.0205181
1.0306393
1.0412988
1.0449372
1.0384587
1.0300459
1.0243707
1.0206826
1.0019771
1.000241
0.99851672
0.99923089
0.99335774
0.98393723
0.9783024
0.97383131
0.96943266
0.96738772
0.97356882
0.97619552
0.97581515
0.98171303
0.98776267
0.9856682
0.98292712
0.98436031
0.98436945
0.9904726
0.99431048
0.99868302
1.0061562
1.0107243
1.0207441
1.0236926
1.0322804
1.0370019
1.028581
1.0223135
1.0269533
1.0366809
1.020393
1.0039347
1.0080735
1.022815
1.0299849
1.0231343
1.0072581
1.0123839
1.0290305
1.0288665
1.0180455
1.0164989
1.026173
1.0322215
1.0320308
1.0252665
1.0098622
1.0074193
1.0225403
1.0411934
1.0551416
1.059522
1.0527757
1.0019275
1.0006039
0.99903796
0.99912476
0.99322251
0.983938
0.97827533
0.97348124
0.96931828
0.96857867
0.97114942
0.97508225
0.97698484
0.98286264
0.98785436
0.98547555
0.98204414
0.98411057
0.98533276
0.99150627
0.9944318
0.9974375
1.0058083
1.0107117
1.0203849
1.0224521
1.0320519
1.0374059
1.0282562
1.0206137
1.0301749
1.0374915
1.0192744
1.0040969
1.0093774
1.0228177
1.0276679
1.0220957
1.0076849
1.0109694
1.0322095
1.0305043
1.0119055
0.99919664
1.01931
1.0448762
1.0537654
1.0397927
1.0089518
0.98462844
0.99264634
1.0224854
1.0558577
1.0798827
1.0814582
1.0020204
1.0007297
0.99963956
0.99876525
0.99336585
0.98449574
0.97797501
0.97236834
0.96847724
0.96976038
0.96972803
0.97463201
0.97965495
0.98382305
0.98648026
0.98564627
0.98303551
0.9845393
0.9858646
0.99042948
0.99330669
0.99479807
1.0040652
1.0099572
1.0196689
1.0217142
1.0317628
1.0379108
1.0283427
1.0188923
1.0321022
1.0379321
1.0184971
1.0043371
1.0111933
1.0240252
1.0250695
1.0194096
1.0081167
1.0097771
1.0318352
1.0334134
1.0127329
0.99204708
1.0045932
1.0412989
1.0667325
1.0575308
1.021231
0.98482668
0.97456175
0.9970015
1.036638
1.0743204
1.0935949
1.0021523
1.0006534
0.99993337
0.99857144
0.99375761
0.98529398
0.97784264
0.97170496
0.96791275
0.97045051
0.96985808
0.97517815
0.98175964
0.98355486
0.98469583
0.98579062
0.98460265
0.98525257
0.98589084
0.98833174
0.9913356
0.99240269
1.0019159
1.0087289
1.0185191
1.0218335
1.031398
1.038749
1.0286691
1.0182148
1.0332562
1.038052
1.018328
1.0047254
1.0132044
1.0260126
1.0241449
1.0153356
1.0072632
1.0105484
1.0289335
1.0342081
1.0162302
0.9940151
0.9961783
1.0270307
1.0637844
1.06828
1.0375787
0.99980611
0.97875285
0.98407615
1.0124929
1.0502602
1.0794516
1.002316
1.0005571
0.99995121
0.99873714
0.99419196
0.98590254
0.97795148
0.97189181
0.9677989
0.97019238
0.9709795
0.97624635
0.98161686
0.98219264
0.98390512
0.98601774
0.9854536
0.98550829
0.98509288
0.98682444
0.98998213
0.99147993
1.0006407
1.007668
1.0173674
1.0223706
1.0310171
1.0396269
1.0293795
1.0189578
1.0341963
1.0381614
1.0186171
1.0052245
1.0147486
1.0283333
1.0250276
1.0120656
1.0040545
1.01244
1.0267724
1.0313712
1.0187138
1.0003098
0.99659486
1.0164696
1.04649
1.064271
1.0497299
1.0205166
0.99683096
0.99016174
1.0002639
1.0227172
1.0498898
1.0024867
1.0004888
0.99973241
0.9991386
0.99454266
0.98621699
0.97806876
0.97269912
0.96798447
0.96877265
0.97196417
0.9770817
0.97982376
0.9808576
0.98422731
0.98622361
0.98501708
0.98466128
0.98403133
0.98644214
0.98944943
0.99189898
1.0004633
1.006883
1.0162678
1.0229403
1.0306472
1.0399077
1.0301252
1.0208067
1.0349935
1.037775
1.0189936
1.0059235
1.0153541
1.0301781
1.0274166
1.0104056
0.99950768
1.0132712
1.0271417
1.0278203
1.0175047
1.0068702
1.0027746
1.0139976
1.0294016
1.0455882
1.0493843
1.038225
1.0214819
1.0082528
1.0036355
1.0066526
1.0208242
1.0026184
1.0003746
0.99937317
0.99960772
0.99492
0.98625017
0.97812397
0.97353127
0.96822999
0.96705607
0.97213979
0.97729138
0.97809536
0.97996926
0.9852024
0.98659865
0.98397199
0.98325869
0.98262036
0.98652207
0.98955486
0.99312965
1.0010992
1.0065414
1.0151466
1.0232636
1.0303467
1.039624
1.030545
1.0232782
1.0358496
1.0369592
1.0190938
1.0067809
1.0153274
1.0307672
1.030544
1.0105637
0.99575584
1.0116016
1.0284079
1.0260094
1.0142322
1.0088855
1.0111411
1.0172411
1.0216467
1.0245609
1.03493
1.043675
1.0428358
1.0328386
1.0189351
1.0060317
1.0017564
1.0027155
1.000228
0.99899707
0.99999306
0.9952662
0.98620193
0.97819745
0.97405698
0.96832002
0.96576725
0.97193079
0.97706168
0.97742038
0.97953032
0.9863326
0.98665314
0.98321802
0.98221411
0.98123597
0.98657312
0.9899374
0.99394718
1.0013374
1.0060716
1.013964
1.0234161
1.0298925
1.0388356
1.0304945
1.0259446
1.0366818
1.0358209
1.018937
1.0078492
1.0155024
1.0298279
1.0333171
1.0116857
0.99451171
1.0083338
1.0281329
1.0271415
1.0118443
1.0065235
1.0152616
1.0238683
1.0215093
1.0134528
1.0154368
1.0335492
1.0514279
1.054662
1.0405894
1.0179836
0.99855721
1.0027446
1.0001262
0.9986906
1.0001362
0.99554223
0.98610825
0.97834872
0.97406794
0.96836999
0.96564072
0.97160262
0.97623582
0.97747795
0.97961378
0.98703458
0.98611813
0.98306895
0.98198148
0.98038031
0.98659649
0.99021295
0.99366678
1.0006409
1.005198
1.0127975
1.0232097
1.0295352
1.0379057
1.0302194
1.0286435
1.0377476
1.0345946
1.0188005
1.0089148
1.0160662
1.0280873
1.0343515
1.0138343
0.99520732
1.0061722
1.0253023
1.0291046
1.0120021
1.0026175
1.0145638
1.0286896
1.0265993
1.0125463
1.0021949
1.0161421
1.0454065
1.0648042
1.0611024
1.0365424
1.0086811
1.0027383
1.0000987
0.99853139
1.0000729
0.99581079
0.98603617
0.97859877
0.97368883
0.96842809
0.96659693
0.97108331
0.97510893
0.97796863
0.98020248
0.9869558
0.98522321
0.98323882
0.98266952
0.98043266
0.98637134
0.98999992
0.99257059
0.99926215
1.0041397
1.0117578
1.0227423
1.0294023
1.0368024
1.0297585
1.0312566
1.0388434
1.0334103
1.0185227
1.0101875
1.0167891
1.0266279
1.0331662
1.0159064
0.99824381
1.0060413
1.0218256
1.0289278
1.0138493
1.0006027
1.0106634
1.029256
1.0314843
1.0163002
0.99923281
1.0020844
1.0300075
1.0616938
1.0717176
1.0553034
1.0259643
1.002705
1.0001279
0.998535
0.99990385
0.99602402
0.98604108
0.97889717
0.97314238
0.96862799
0.96805304
0.97060498
0.97395734
0.97840203
0.98104215
0.98626898
0.98433962
0.98389205
0.98402478
0.98150938
0.98599743
0.98928305
0.99102831
0.9976035
1.0030042
1.0108116
1.0221444
1.0293376
1.0356054
1.0293315
1.033449
1.0398149
1.0326689
1.0178365
1.0117833
1.0177201
1.0256615
1.0302873
1.0169245
1.0025025
1.0077507
1.0189813
1.0263328
1.0156233
1.0013033
1.007738
1.0251806
1.0336697
1.0213023
1.002469
0.99749164
1.015433
1.0475629
1.0699667
1.0664415
1.0444043
1.002659
1.0001794
0.99867826
0.9997578
0.9961056
0.98614693
0.9791952
0.97266334
0.9689392
0.96922618
0.97025638
0.97302898
0.97870874
0.98152515
0.98549986
0.98355055
0.98457992
0.98534914
0.98288997
0.98561482
0.98840295
0.98952328
0.99611474
1.0018363
1.0098499
1.0214438
1.0293731
1.0342437
1.0288588
1.0351522
1.0407585
1.0324976
1.016897
1.0131347
1.0188592
1.0256903
1.0270197
1.0162176
1.0069389
1.0105926
1.0176398
1.0226507
1.0155309
1.0041323
1.0076131
1.0195543
1.0312327
1.0249655
1.0084273
0.99949848
1.0080158
1.0311441
1.0574634
1.0674167
1.0572786
1.0025993
1.0002672
0.998921
0.99969835
0.99603958
0.98632838
0.9794742
0.97250468
0.96926554
0.96994204
0.97006005
0.97259295
0.97870996
0.98163085
0.98493946
0.98331598
0.98517414
0.98611
0.98409856
0.98550325
0.98763995
0.9885417
0.99488497
1.0007661
1.0090412
1.0206264
1.0295958
1.0327391
1.028454
1.0364739
1.0416733
1.0326376
1.0160916
1.014039
1.0205513
1.0264877
1.0239294
1.0145019
1.0103468
1.014834
1.0180126
1.0189475
1.01301
1.0077646
1.0095617
1.0165549
1.0252671
1.0251051
1.0141483
1.0050176
1.0068522
1.020165
1.0408736
1.0587626
1.062123
1.0025224
1.0003972
0.99923489
0.99972697
0.995892
0.98653245
0.97962487
0.97267618
0.96950988
0.96997869
0.9699978
0.97271218
0.97840836
0.98145533
0.98460748
0.98366841
0.98554579
0.98609279
0.9845714
0.98556984
0.98711856
0.98806237
0.99414714
0.99987677
1.0083037
1.0196477
1.0300625
1.0313483
1.0279719
1.0371121
1.0423561
1.0330222
1.0158327
1.0144321
1.022182
1.0280971
1.0211224
1.0114371
1.0123999
1.0195757
1.0198079
1.0165143
1.0083486
1.0096867
1.0129232
1.0162961
1.0201973
1.0200892
1.0171159
1.0114575
1.0096175
1.0156727
1.0270825
1.0440188
1.0574319
1.0024686
1.0005511
0.99956919
0.99979993
0.99569453
0.9867761
0.97967997
0.97310742
0.96963893
0.96955109
0.97006174
0.97335073
0.97779841
0.98105728
0.98452143
0.984567
0.98561062
0.98549787
0.98458585
0.98565218
0.98693312
0.9881658
0.99398578
0.99940215
1.0077037
1.0187863
1.030539
1.0302289
1.0278231
1.0375856
1.0433447
1.0334385
1.015793
1.014268
1.0235967
1.0301254
1.019829
1.0083594
1.0124079
1.0236328
1.0235317
1.0151687
1.0037984
1.0090874
1.0169501
1.0188696
1.0175674
1.0140443
1.0151886
1.016526
1.0151943
1.0163548
1.0193714
1.0293223
1.0462033
1.0023934
1.0007217
0.9998859
0.99989186
0.99548745
0.98703055
0.97966658
0.97368989
0.96963769
0.96886195
0.97018041
0.97432919
0.9769989
0.98060841
0.98459113
0.98584654
0.98568386
0.98444557
0.98392311
0.98569477
0.9868427
0.98858292
0.99412317
0.99921071
1.0072775
1.017649
1.0310491
1.0293512
1.0268745
1.0370415
1.0440004
1.0343459
1.0158112
1.0139438
1.024495
1.0322881
1.0196499
1.0054373
1.010912
1.0262007
1.0283122
1.0151605
1.0002784
1.0058327
1.0192263
1.0225914
1.0179921
1.0093471
1.0101192
1.0177337
1.0211802
1.0202205
1.017302
1.0189292
1.0326587
1.0023581
1.0008572
1.0001568
1.000003
0.99529138
0.98725486
0.97957635
0.97429045
0.96966339
0.9680325
0.9703166
0.9753281
0.97623693
0.98010738
0.98463109
0.98715302
0.98563721
0.98326394
0.98314483
0.98575809
0.98688697
0.98928658
0.99473868
0.99928365
1.0069679
1.0166719
1.0315565
1.0290071
1.0273946
1.0365892
1.0448153
1.0352661
1.0166052
1.0132612
1.0253307
1.0341611
1.0209094
1.0033657
1.0083081
1.0271342
1.0333307
1.0166799
0.99814043
1.0016117
1.018764
1.0270551
1.0202379
1.0070559
1.004291
1.0152811
1.0249295
1.0253535
1.0186381
1.013472
1.0211799
1.0023065
1.0009435
1.0003627
1.0001033
0.99513484
0.98748898
0.97952257
0.97482676
0.96968556
0.96734414
0.97048417
0.97617722
0.97565203
0.97958884
0.98473477
0.98821992
0.98567788
0.98210778
0.98211919
0.98556067
0.98709571
0.98974403
0.9948612
0.99904628
1.0065234
1.0154738
1.031482
1.0284994
1.026547
1.0355797
1.0452703
1.0362549
1.0171718
1.0125888
1.0256492
1.0356158
1.022829
1.0021464
1.0054379
1.0265731
1.0376768
1.0195613
0.99753222
0.99750525
1.0159504
1.0308675
1.0243691
1.0069918
0.99947796
1.0105753
1.0253856
1.030198
1.0229005
1.0124668
1.0133768
1.0022898
1.0009892
1.0004935
1.0002091
0.99505264
0.98762155
0.97943236
0.97521458
0.96976914
0.96672494
0.97062099
0.97679418
0.97536809
0.97912888
0.98479767
0.98905719
0.98576338
0.98142761
0.98134851
0.98546613
0.9871659
0.99018582
0.99541828
0.99915037
1.0063001
1.014849
1.0321912
1.028724
1.0266553
1.0350947
1.0456812
1.0377159
1.0184102
1.0112701
1.0248835
1.0369196
1.025263
1.0023194
1.0017079
1.0240879
1.0410965
1.0238489
0.99862293
0.9929708
1.0113247
1.0318441
1.0296353
1.0097135
0.9970216
1.0046597
1.0222661
1.0325578
1.0278168
1.0156342
1.0098212
1.0022819
1.0010195
1.0005533
1.000274
0.99503264
0.98784674
0.97954126
0.97549321
0.96981854
0.96650451
0.97063532
0.97681598
0.97514884
0.97877078
0.98472789
0.9892375
0.98604518
0.9811589
0.98088101
0.9851053
0.98717311
0.99004178
0.99497956
0.99849192
1.0055676
1.0131624
1.0312157
1.0287331
1.0262437
1.033545
1.0454355
1.0389341
1.021014
1.0110925
1.0233684
1.0365362
1.0275733
1.0060627
0.99985508
1.0201234
1.0397569
1.0284172
1.0034703
0.99311292
1.006291
1.0277552
1.0314072
1.0143927
0.99970786
1.0014534
1.0174922
1.0298599
1.0294089
1.0196517
1.0110091
1.0161775
1.0233367
1.0343108
1.0470003
1.0579693
1.0637996
1.0619825
1.0514305
1.0345934
1.0159664
0.99814435
0.98993886
0.99476379
1.0134776
1.0415686
1.0704803
1.0907145
1.0858609
1.061983
1.0375673
1.0177846
1.0031739
0.98283911
0.97631642
1.0013557
1.0283354
1.0104745
1.060643
1.0740287
1.0807004
1.0823995
1.0779141
1.0680826
1.0543906
1.0387671
1.021559
1.0080101
1.0031384
1.0086694
1.0256424
1.0497318
1.0711565
1.0793733
1.0687172
1.0465611
1.0220584
1.0059097
0.99906642
0.9996037
1.006134
1.0304502
1.0581185
1.045378
0.96741583
1.0987835
1.1009198
1.091901
1.0831579
1.0724639
1.0604739
1.0482931
1.0378725
1.0327266
1.034954
1.0442545
1.0609474
1.0814509
1.0990128
1.1018561
1.0834994
1.055018
1.0241165
0.9986893
0.97898695
0.96907545
0.97682678
1.0143752
1.0741539
1.0993068
1.0481463
0.95915433
1.0751065
1.0664543
1.0572498
1.0481896
1.0403013
1.03488
1.0349439
1.0413859
1.054204
1.0726314
1.0946145
1.1126592
1.1225911
1.1205881
1.1074055
1.0881288
1.0637225
1.0351473
1.0092589
0.9841502
0.96860164
0.97734055
1.019634
1.0689688
1.0761087
1.0193299
0.97568899
1.0235991
1.0126623
1.0054999
1.0028323
1.0046404
1.0128699
1.027153
1.0464616
1.0685294
1.0890111
1.1031711
1.1093966
1.1043544
1.092824
1.082669
1.0736702
1.0626043
1.050045
1.0324639
1.0179291
1.01226
1.0266724
1.0443256
1.0436733
1.0071875
0.96748317
0.98565239
0.98817455
0.98315547
0.98632358
0.99492328
1.0082729
1.0258522
1.0444729
1.060507
1.0706913
1.0743653
1.0694103
1.0587778
1.0472235
1.0366755
1.0293681
1.02405
1.0243162
1.0268082
1.0315047
1.0485748
1.0754359
1.1003213
1.0914142
1.0387473
0.96400927
0.93617626
0.97880176
0.99332388
0.99970749
1.0156093
1.0331183
1.0502138
1.0647509
1.0733093
1.0741618
1.0680329
1.0558975
1.0410156
1.0241261
1.0083781
0.99536352
0.98375277
0.97592516
0.97359802
0.9800415
1.0035799
1.0472593
1.1020618
1.1317115
1.1105762
1.0455252
0.98124553
0.96205489
0.9890088
1.055774
1.0724998
1.0846368
1.0935415
1.0971478
1.0954859
1.0895796
1.0808037
1.0696924
1.056957
1.0416203
1.0245825
1.0056791
0.98824046
0.97462447
0.96472896
0.96069006
0.97034675
0.9969208
1.0329665
1.0638649
1.0733326
1.0523806
1.027028
1.0232694
1.0342558
1.044816
1.1322193
1.143144
1.14199
1.1375561
1.1300543
1.1207377
1.1102364
1.0986466
1.0862585
1.0725546
1.0570192
1.0398584
1.0236318
1.0093213
0.99778585
0.99352148
1.000524
1.0183433
1.0375633
1.0398213
1.0179843
0.98323476
0.96039257
0.97339614
1.029662
1.0994216
1.1233979
1.1479759
1.1477239
1.139552
1.1352114
1.1313897
1.1271201
1.121256
1.1128413
1.1020838
1.0890821
1.0745557
1.0593839
1.0475235
1.041106
1.0436514
1.0568459
1.0778776
1.0958695
1.097689
1.0672052
1.0102312
0.94659367
0.92158448
0.94018872
1.0030123
1.0911145
1.1397123
1.1126846
1.1081846
1.1029594
1.0996726
1.095248
1.0908831
1.0864641
1.0816379
1.0762555
1.0711065
1.0666054
1.0649521
1.0684458
1.0809986
1.1038521
1.1332657
1.1561182
1.1581406
1.1336009
1.0885067
1.0301111
0.98247378
0.96171203
0.97467857
1.0037777
1.0421298
1.0493361
1.0774556
1.069157
1.0634537
1.057768
1.0514486
1.0444965
1.0373005
1.0309649
1.0269014
1.0268908
1.0330556
1.0487121
1.0753638
1.1118197
1.1473194
1.1686563
1.1699598
1.1509694
1.1176736
1.0825686
1.058915
1.05316
1.0588808
1.0670467
1.0593789
1.0189893
0.94681136
1.0377929
1.0312168
1.0264893
1.0212713
1.0152981
1.0094562
1.0052821
1.0039657
1.0071303
1.0166069
1.0340454
1.059326
1.0884329
1.1114167
1.1240049
1.1209683
1.105101
1.0817717
1.0627658
1.0556352
1.0707788
1.1083425
1.1578
1.182641
1.1433297
1.0367187
0.91689567
0.99845494
0.99124928
0.98782965
0.98544202
0.984532
0.98680361
0.99324758
1.0049191
1.0235487
1.0480979
1.0736188
1.0924438
1.0989408
1.0911269
1.0703422
1.0431945
1.0191467
1.006299
1.0070894
1.0279446
1.070038
1.1260705
1.1882803
1.2179011
1.1790414
1.0784622
0.97491491
0.96530774
0.96205155
0.96434733
0.96876123
0.97708503
0.99120852
1.0112184
1.0352182
1.0593475
1.077108
1.0842735
1.0809298
1.0691755
1.0501424
1.022053
0.99769978
0.97935054
0.97304869
0.98576478
1.0201105
1.0710545
1.1215995
1.1477655
1.1405009
1.1069786
1.0792832
1.0668689
0.96478058
0.96966386
0.98314875
0.9987078
1.0171318
1.0374268
1.0550802
1.0652599
1.0659406
1.0584539
1.0458317
1.0292857
1.0093272
0.98801108
0.97623866
0.971932
0.97504064
0.98732253
1.0126064
1.0483007
1.0810582
1.0961708
1.0817102
1.0386373
1.0081377
1.0241226
1.096181
1.0370032
1.0510178
1.0644856
1.0761573
1.0829881
1.0821154
1.0734065
1.058927
1.0408158
1.0201559
0.99753932
0.9760653
0.95808353
0.9500431
0.9500709
0.95820047
0.97985456
1.0140736
1.0540969
1.0854436
1.0919003
1.0647634
1.0114445
0.96616234
0.96162382
0.99411628
1.0791529
1.154352
1.1617273
1.1557913
1.1426547
1.124154
1.1025258
1.0788089
1.053466
1.0271977
1.0020758
0.98027141
0.96345445
0.95450934
0.95212122
0.95767322
0.97466825
1.0035961
1.0407166
1.0725071
1.0842559
1.0673949
1.0235793
0.96919653
0.93921444
0.94953427
1.0040385
1.0987834
1.1743022
1.1718936
1.1588705
1.1455829
1.1299406
1.111221
1.0901224
1.0685923
1.0482546
1.0301527
1.0156154
1.0054619
0.9986389
0.99990062
1.0103975
1.029487
1.0518068
1.0665631
1.0637813
1.0420621
1.0044525
0.96461824
0.94558649
0.94837623
0.97628424
1.0450748
1.1227037
1.0922107
1.0845564
1.0764767
1.0704434
1.0661041
1.0642358
1.0648708
1.0669269
1.0697898
1.0728641
1.0759133
1.0794723
1.0872668
1.0988986
1.111134
1.1182074
1.1103093
1.083234
1.0409165
0.99147768
0.94463491
0.92248167
0.92986269
0.96720362
1.0332127
1.1027002
1.1179445
1.0026176
0.99283438
0.98847419
0.98707727
0.98836202
0.99375325
1.0039372
1.0191634
1.0398439
1.0658778
1.0968979
1.1318157
1.1666429
1.1946289
1.2071373
1.1967477
1.1612588
1.1034204
1.034935
0.97197393
0.93017075
0.91839176
0.9395726
0.99765749
1.0840192
1.1351547
1.0847482
0.94624687
0.94232005
0.94331668
0.94675475
0.95255084
0.96122002
0.97239334
0.9873785
1.0084322
1.0374814
1.0745825
1.1162328
1.1571096
1.1886252
1.2016529
1.1923007
1.159959
1.1101292
1.0531991
1.0046658
0.97667465
0.97129556
0.9964121
1.052138
1.1086667
1.1031405
1.0197522
0.9382356
0.93916567
0.94623312
0.95301374
0.9614588
0.97139798
0.98452035
1.0016072
1.0212483
1.0409883
1.0583289
1.0715931
1.080294
1.0837796
1.0842707
1.0789043
1.071295
1.0632615
1.0596001
1.0607176
1.067959
1.0841594
1.1120947
1.1301656
1.1061447
1.0303964
0.93953408
0.98152542
0.98635125
0.99218327
1.0002198
1.010674
1.0226827
1.0344755
1.0438491
1.0489565
1.0482888
1.0403872
1.0253534
1.0044317
0.97972644
0.95933954
0.94848359
0.94928699
0.96884118
1.0104954
1.0711894
1.1440365
1.2136625
1.2440549
1.2080112
1.0991902
0.9701625
0.88696856
1.0606939
1.0686955
1.0755239
1.0821396
1.0872019
1.0888286
1.0857394
1.0770534
1.0619303
1.0404112
1.013107
0.98292109
0.95170261
0.92045001
0.89375026
0.87771318
0.87848666
0.90223427
0.95354002
1.0372994
1.1493593
1.2559899
1.2968938
1.2392416
1.1059816
0.96586869
0.88904088
1.1569627
1.1618918
1.1616989
1.1574892
1.1483869
1.1341048
1.1145179
1.0895843
1.0601775
1.0269533
0.99239222
0.95915408
0.92784329
0.90059207
0.88074712
0.87226847
0.87703
0.90210134
0.95159814
1.0250122
1.1075067
1.1762861
1.2058462
1.1730321
1.098811
1.0100378
0.95450113
1.2106163
1.2098037
1.1994904
1.1844671
1.164858
1.1414536
1.1147788
1.0853188
1.0539693
1.0224121
0.99215849
0.96425234
0.93982381
0.92206694
0.91350069
0.91690892
0.93478167
0.96285935
1.0039109
1.0428116
1.061666
1.058377
1.0502309
1.0342296
1.0303806
1.0400272
1.0538534
1.181575
1.1759535
1.1655666
1.1527486
1.1362176
1.1163801
1.0938725
1.0704897
1.0481263
1.0268347
1.007473
0.99114904
0.98072111
0.97908491
0.98777044
1.0063103
1.0317934
1.0576223
1.0704741
1.0568304
1.0202648
0.97228853
0.92223324
0.90717945
0.92976693
1.0114912
1.1344688
1.0988975
1.0942094
1.0878198
1.0810957
1.0733322
1.0648527
1.055593
1.0457593
1.0359026
1.0281689
1.0239986
1.0268883
1.0392747
1.0612124
1.0899612
1.1202524
1.1430451
1.1441762
1.1148734
1.0570672
0.9846694
0.91170279
0.85485407
0.83210169
0.86098363
0.96338933
1.1618064
1.0063104
1.0031765
1.0012664
1.0006941
1.0009958
1.002449
1.0052942
1.0106919
1.0181898
1.0288819
1.0449234
1.0698125
1.1048256
1.1479381
1.1909964
1.2215951
1.2276228
1.1968666
1.1325619
1.0470764
0.95684062
0.88087039
0.82674567
0.80573834
0.84084448
0.94959818
1.1545674
0.9290957
0.92736626
0.92855133
0.93275385
0.93964482
0.94982619
0.9640055
0.98247796
1.0066817
1.0371782
1.0769197
1.1243278
1.1741107
1.2192792
1.2524571
1.2667894
1.2458005
1.1970743
1.1274634
1.0396203
0.95478017
0.87969206
0.82836569
0.81836256
0.86047402
0.97322001
1.137907
0.8818935
0.88185448
0.88540697
0.8925424
0.90379458
0.92030318
0.94277288
0.97241265
1.0109053
1.0589451
1.1137341
1.1697742
1.2173491
1.2488997
1.2593742
1.2453424
1.2101424
1.1618891
1.1008112
1.0366404
0.96895374
0.90298717
0.86123875
0.86405787
0.91336875
1.0203891
1.1223167
0.86494036
0.86660196
0.87267162
0.8832079
0.898895
0.92110057
0.95098982
0.98932403
1.035444
1.0871787
1.1391679
1.1836142
1.2135694
1.2264016
1.2171491
1.1881687
1.1539663
1.1144556
1.0707848
1.0292822
0.98893585
0.94931895
0.92556743
0.93776835
0.9896429
1.0652837
1.0927303
0.87612559
0.8796388
0.8885966
0.90285557
0.92235929
0.94940097
0.98293373
1.0213036
1.0618714
1.1005882
1.1355253
1.1614638
1.1748686
1.1714647
1.1531188
1.1245534
1.0954742
1.0664641
1.0445048
1.0279294
1.0131269
1.0060002
1.0107236
1.0346014
1.0714682
1.0906598
1.0462058
0.91216119
0.91722602
0.92763625
0.94342383
0.96431673
0.98918314
1.0161506
1.0435415
1.0691966
1.091964
1.1096222
1.120247
1.1211266
1.1114572
1.0946508
1.0740602
1.0513671
1.0325201
1.0237092
1.0264336
1.0372473
1.0635371
1.1001534
1.1319637
1.1360367
1.0931291
0.99693357
0.96220397
0.96706385
0.97632286
0.98916003
1.0047127
1.0215429
1.0383646
1.0530192
1.063995
1.0715877
1.076677
1.0778056
1.0734286
1.0640832
1.0510873
1.0359496
1.0221888
1.0149973
1.0151499
1.0290507
1.0595999
1.1094022
1.1679129
1.1992817
1.1670846
1.0784365
0.96401044
1.0112991
1.0143538
1.0199262
1.0273891
1.0357066
1.0438785
1.0504974
1.0546871
1.0557366
1.0540455
1.0509615
1.0468379
1.0405105
1.0325808
1.0237845
1.0178799
1.0123076
1.0093775
1.0131679
1.0317331
1.0697399
1.1287237
1.1936648
1.2219352
1.1735183
1.0716652
0.95789544
1.0417985
1.0431706
1.0456309
1.0487593
1.0519454
1.0543517
1.0551911
1.0540731
1.0506291
1.0462298
1.0410021
1.0347748
1.0276277
1.0200222
1.013856
1.0109416
1.0093801
1.0109559
1.0172661
1.0334099
1.0667929
1.1177679
1.177914
1.2131026
1.1779421
1.0882876
0.97916773
1.045172
1.0462748
1.0482714
1.0506745
1.0530567
1.0548161
1.0555221
1.0551405
1.0535091
1.0511369
1.0478348
1.0430605
1.0366238
1.0289613
1.0226539
1.0169679
1.013118
1.0118868
1.0146098
1.02224
1.0441154
1.0883626
1.1490178
1.1982954
1.1907624
1.1228615
1.0190291
1.0255262
1.027129
1.0302997
1.0349088
1.0403416
1.0461084
1.0516428
1.0567032
1.060721
1.0638115
1.0654092
1.0641096
1.0590108
1.0503031
1.0418711
1.0306487
1.022192
1.0123581
1.0066691
1.0070404
1.0194854
1.0554544
1.1157775
1.1796649
1.2023061
1.1616712
1.0669826
0.99039699
0.99371755
1.0005181
1.0098331
1.021304
1.0341464
1.0476032
1.0611328
1.0735872
1.0843078
1.0915466
1.0928699
1.0871425
1.0750909
1.0616233
1.0459074
1.0300572
1.0144868
1.0017408
0.99695333
1.0024843
1.027219
1.0794324
1.1517876
1.2059857
1.2002266
1.1176098
0.96137509
0.96561018
0.97427589
0.9866142
1.0024515
1.0210381
1.041604
1.0628142
1.0828383
1.0997685
1.1119374
1.1164126
1.1117678
1.0993023
1.0841831
1.0644309
1.0421024
1.0176603
0.99546072
0.98529868
0.98424741
1.0045797
1.0503241
1.1241999
1.2006939
1.2328526
1.1694633
0.93371576
0.93851569
0.94848729
0.96314042
0.98240045
1.0055184
1.0315852
1.0591979
1.0865119
1.1102035
1.1276162
1.1359476
1.1333447
1.1225991
1.1079164
1.0871633
1.0633494
1.0342845
1.0027191
0.97957257
0.97317553
0.98674749
1.0271544
1.0940162
1.1807218
1.246804
1.2195708
0.9137549
0.91814818
0.92728279
0.94111378
0.95994414
0.98345078
1.0116194
1.0434408
1.0775011
1.1105114
1.1379128
1.155714
1.1606294
1.1549844
1.1423347
1.1208702
1.09328
1.0580254
1.0177153
0.9882217
0.97380077
0.97879716
1.006716
1.0604705
1.138822
1.2211111
1.2456355
0.89259553
0.89650844
0.90439029
0.91651136
0.93350791
0.95578668
0.98393564
1.0182523
1.0578432
1.1000865
1.1410794
1.1743727
1.1950934
1.2004531
1.1914292
1.1684375
1.1355874
1.0948621
1.0489047
1.0069724
0.98213172
0.97494565
0.98929321
1.0179899
1.0704004
1.1528373
1.2251954
0.87178081
0.87517315
0.88230939
0.89283342
0.90705776
0.92628096
0.95215533
0.98633273
1.0285818
1.0787949
1.1344224
1.1878798
1.2320913
1.2597274
1.2643267
1.2415619
1.1955968
1.1423031
1.0836086
1.0304129
0.99170085
0.97064847
0.96554783
0.96975716
0.99426146
1.0569827
1.1589009
0.85813344
0.86043153
0.86641729
0.87465973
0.88590318
0.90193655
0.92455318
0.95542842
0.99700724
1.0510401
1.1170573
1.1915674
1.2636433
1.3182794
1.3426694
1.3232996
1.2676101
1.1971881
1.1239173
1.0616807
1.0114022
0.97464748
0.94495907
0.92398184
0.92098095
0.95725596
1.0581756
0.86133225
0.86202604
0.86670677
0.87412857
0.88443048
0.89849287
0.91779152
0.94461625
0.98097433
1.030912
1.0968675
1.1773562
1.2648436
1.3407908
1.3886957
1.3881018
1.3393285
1.2622465
1.1814568
1.1105185
1.0408728
0.98537269
0.93125094
0.88573078
0.86212732
0.87661436
0.95687339
0.89252439
0.89170773
0.89603457
0.90367805
0.91400775
0.9276722
0.9453696
0.96754557
0.99577201
1.0322893
1.080466
1.1415925
1.2155499
1.2938047
1.3610888
1.4026766
1.3979597
1.3451983
1.2630881
1.1742101
1.0759015
0.98933324
0.91475687
0.85546054
0.82629824
0.82941433
0.88442591
0.98288379
0.97796057
0.9777456
0.98086454
0.98616291
0.99333007
1.0018276
1.0120215
1.0247631
1.041398
1.0645817
1.0968351
1.1410586
1.2001472
1.272396
1.3451262
1.3992273
1.4005481
1.3377157
1.2310481
1.1077958
0.9920741
0.90285672
0.84091456
0.81203745
0.81252839
0.85271011
1.1142811
1.1062198
1.0981754
1.0898253
1.0817927
1.073993
1.0660294
1.0593442
1.0550043
1.0549268