/*--------------------------------*- C++ -*----------------------------------*\
| =========                 |                                                 |
| \\      /  F ield         | OpenFOAM: The Open Source CFD Toolbox           |
|  \\    /   O peration     | Version:  2406                                  |
|   \\  /    A nd           | Website:  www.openfoam.com                      |
|    \\/     M anipulation  |                                                 |
\*---------------------------------------------------------------------------*/
FoamFile
{
    version     2.0;
    format      ascii;
    arch        "LSB;label=32;scalar=64";
    class       surfaceScalarField;
    location    "8";
    object      phi;
}
// * * * * * * * * * * * * * * * * * * * * * * * * * * * * * * * * * * * * * //

dimensions      [1 0 -1 0 0 0 0];

oriented        oriented;

internalField   nonuniform List<scalar> 
192068
(
0.0010474174
-2.1889769e-05
9.4627599e-06
0.0010543783
9.6916552e-05
-0.00010832831
0.0010423926
0.00013819417
-0.00014441705
0.0010160084
0.00018352912
-0.00019024638
0.00098305098
0.00017836462
-0.00018406135
0.00096605435
8.8899376e-05
-9.2766461e-05
0.00097382934
-3.5583787e-05
3.6567943e-05
0.00099332689
-0.00012540836
0.00013228597
0.00100178
-0.00019319056
0.00020393688
0.00099604785
-0.00024169251
0.00025449051
0.00097867787
-0.00025176331
0.00026643638
0.00095105866
-0.00024032999
0.00025209481
0.00091597692
-0.00022081585
0.00023212805
0.00087966161
-0.0002093101
0.00021536768
0.00084660945
-0.00021160583
0.00022334581
0.00081636505
-0.00022220553
0.00022585161
0.00079558465
-0.00020715424
0.00021455555
0.00077754701
-0.0001792904
0.00018950479
0.0007594114
-0.00015793469
0.00016674742
0.00074684011
-0.00014678736
0.00015716914
0.00073545679
-0.00014964566
0.00016030469
0.0007270532
-0.00016460464
0.00017473141
0.00072284696
-0.00018444788
0.00019110222
0.00072315692
-0.00019897743
0.00020394842
0.00072813997
-0.00020594939
0.00020902401
0.00073916771
-0.0002003302
0.00020467285
0.00075667654
-0.00018177601
0.00018931183
0.00077803386
-0.00015531677
0.00016140708
0.00079929098
-0.00012188809
0.00012620774
0.00081871233
-8.5501986e-05
8.9097825e-05
0.00083611006
-4.7844125e-05
5.060598e-05
0.0008509835
-8.5223816e-06
9.7518233e-06
0.00086425867
3.0895989e-05
-3.1302662e-05
0.00087755872
7.1127784e-05
-7.30577e-05
0.00089289493
0.00010848344
-0.00011429979
0.00091077105
0.00014735046
-0.00015501457
0.00093122037
0.00018281592
-0.00019240242
0.00095288926
0.00021811778
-0.00023158428
0.00097558193
0.00025013127
-0.00026762475
0.0010007175
0.00028568441
-0.00030075117
0.0010258756
0.00031373429
-0.0003362195
0.0010519381
0.0003458369
-0.00036734424
0.0010812455
0.00037185329
-0.0003936765
0.0011073392
0.00039781611
-0.00042960644
0.0011399616
0.00042293475
-0.00044808948
0.0011681865
0.0004459553
-0.00047999642
0.0012036159
0.00046569878
-0.0004936684
0.0012365167
0.00048847088
-0.00052448398
0.0012710002
0.00050078837
-0.00053841101
0.0013089074
0.00052373018
-0.0005570608
0.0013458302
0.00053285645
-0.00057005285
0.0013874122
0.00054805489
-0.00059036906
0.0014251882
0.00055870645
-0.00059980413
0.0014718602
0.00056362831
-0.00061181864
0.00059041233
0.0015148592
-0.0006243383
0.0010496745
-3.3526379e-05
0.0010556839
8.6575203e-05
0.0010434667
0.00013240528
0.0010161547
0.00017695635
0.00098210346
0.00017294405
0.00096532077
8.4368196e-05
0.00097479843
-3.5581034e-05
0.00099568568
-0.00012062603
0.0010046329
-0.00018403956
0.00099927786
-0.00022967148
0.00098205717
-0.00023666423
0.00095442944
-0.00022836855
0.00091865229
-0.00021393719
0.00088166383
-0.00020467154
0.00084807231
-0.00020458345
0.00081845913
-0.00021137885
0.00079794112
-0.00020231106
0.00077954969
-0.00017361396
0.00076084325
-0.0001507845
0.00074751655
-0.00013970683
0.00073538813
-0.00014188702
0.00072603415
-0.00015679546
0.00072103701
-0.00017513438
0.00072092601
-0.00019096734
0.00072594198
-0.00019753197
0.00073694853
-0.00019405863
0.00075393952
-0.00017690584
0.00077476995
-0.00014999971
0.00079612277
-0.00011744806
0.00081606774
-8.2858481e-05
0.00083489277
-4.8161844e-05
0.00085202072
-1.0533151e-05
0.00086854859
2.6752666e-05
0.00088383266
6.6794261e-05
0.00090041284
0.00010378145
0.0009179838
0.00014093718
0.0009371233
0.000174352
0.0009576934
0.00020931421
0.00097968444
0.00023897115
0.0010021249
0.00027044248
0.001026401
0.0002960602
0.0010515831
0.00032564703
0.0010773257
0.00034729442
0.0011065369
0.0003762514
0.0011337998
0.00039149485
0.0011658806
0.00041776461
0.0011974561
0.00043333474
0.0012311996
0.00045347771
0.0012658116
0.00046865004
0.0013030719
0.00048489587
0.0013370331
0.00049784897
0.0013799366
0.00050911511
0.0014138932
0.0005248216
0.0014566583
0.00052319488
0.0005466504
0.0014973349
0.0010520033
-4.4718378e-05
0.0010569108
7.7343788e-05
0.001044193
0.0001258845
0.0010162192
0.00017033746
0.000981155
0.00016716532
0.00096422811
8.0161478e-05
0.00097488611
-3.4993802e-05
0.00099679115
-0.00011590359
0.0010064023
-0.00017503839
0.0010017358
-0.00021682529
0.00098472641
-0.00023078504
0.0009573396
-0.00021983054
0.00092137099
-0.00020726182
0.00088396456
-0.00019202581
0.00085001383
-0.00019877918
0.00082081579
-0.00020142227
0.00080089956
-0.00018949485
0.00078241394
-0.00016366106
0.00076303052
-0.00014295583
0.00074864758
-0.00013334796
0.00073553349
-0.00013655855
0.00072568543
-0.0001504989
0.00072045618
-0.00016763679
0.00072045445
-0.00018269739
0.00072604997
-0.00018698307
0.00073777671
-0.00018301135
0.00075500162
-0.00016956471
0.00077604882
-0.00014453257
0.00079724047
-0.00011458427
0.00081699621
-8.2457218e-05
0.00083616482
-4.9416791e-05
0.00085448903
-1.3149212e-05
0.00087179825
2.3046761e-05
0.00088852221
6.0721526e-05
0.00090618305
9.5637159e-05
0.00092523395
0.00013234526
0.00094569392
0.00016347071
0.00096647876
0.0001962406
0.00098811128
0.00022433955
0.0010100296
0.00025379624
0.0010334305
0.00027953613
0.0010569846
0.00030637707
0.0010823827
0.00032685703
0.0011071627
0.0003500414
0.0011345686
0.00036782414
0.0011645856
0.00039006796
0.0011918458
0.00040209669
0.0012273298
0.00042123602
0.0012585907
0.00043831144
0.0012951102
0.00044641295
0.0013313241
0.00046625412
0.0013689781
0.00046969793
0.0014033243
0.00048487939
0.0014452734
0.00048842846
0.00050620544
0.0014842314
0.0010541188
-5.5269957e-05
0.0010579266
6.9813311e-05
0.0010448163
0.00012091605
0.0010162884
0.00016270113
0.00098034383
0.00016120512
0.00096340675
7.641207e-05
0.00097524343
-3.4334177e-05
0.00099832157
-0.00010972362
0.0010087589
-0.00016451318
0.0010044885
-0.00020482967
0.00098782987
-0.00021787589
0.00096040302
-0.00021140193
0.00092445597
-0.00019889102
0.00088608242
-0.00018586836
0.00085194434
-0.00019013268
0.00082312812
-0.00019835756
0.00080374518
-0.00018148666
0.0007851672
-0.00015487902
0.00076526226
-0.00013380497
0.00074995145
-0.0001231162
0.00073594175
-0.00012688755
0.00072539247
-0.00014100083
0.00071952531
-0.00016019343
0.00071958951
-0.00017569858
0.00072511105
-0.0001819775
0.000736987
-0.00017678389
0.00075496021
-0.00016106378
0.00077636157
-0.00013790597
0.00079792337
-0.0001093099
0.00081808103
-7.9194685e-05
0.00083767314
-4.7774343e-05
0.000856105
-1.3674307e-05
0.00087353458
1.9425445e-05
0.0008905236
5.6366877e-05
0.0009081215
8.9140905e-05
0.0009271934
0.00012391495
0.00094807245
0.00015457036
0.00096983575
0.00018615369
0.00099189412
0.00021138371
0.001015628
0.00024145919
0.0010379044
0.00026130348
0.0010625505
0.00028753561
0.0010854737
0.00030597442
0.0011115367
0.00032739027
0.0011367989
0.0003463535
0.0011627055
0.00035780822
0.0011920525
0.00038016232
0.0012241273
0.00039088323
0.0012513836
0.00040506933
0.0012890901
0.00041523443
0.0013227958
0.00043310744
0.0013554512
0.00043370466
0.001398786
0.00045464946
0.0014331973
0.00045284391
0.00046801614
0.0014714599
0.0010562497
-6.6082833e-05
0.0010589216
6.3190074e-05
0.0010454034
0.00011588003
0.0010164256
0.00015600202
0.00097962019
0.00015497198
0.00096261029
7.2503956e-05
0.00097555719
-3.362887e-05
0.0009996976
-0.0001032515
0.0010108759
-0.00015447167
0.0010071581
-0.00019163096
0.00099072367
-0.00020643836
0.00096347894
-0.00020079003
0.00092743297
-0.00018529557
0.00088834432
-0.00017898254
0.00085385087
-0.00017870815
0.00082565325
-0.00018621083
0.00080650501
-0.00017470516
0.00078789824
-0.0001489822
0.0007675899
-0.00012886341
0.0007513196
-0.0001189558
0.00073648839
-0.00012048764
0.00072511141
-0.00013254625
0.00071885337
-0.00015064863
0.00071869446
-0.00016648165
0.00072441936
-0.00017473204
0.0007369395
-0.00017155831
0.00075546655
-0.00015546442
0.00077741848
-0.00013174631
0.00079938894
-0.00010485342
0.00082012574
-7.6081705e-05
0.00084007228
-4.6406452e-05
0.00085912408
-1.5051296e-05
0.00087674878
1.6484421e-05
0.000893679
4.9529845e-05
0.00091091876
8.2335283e-05
0.00092984832
0.00011474264
0.00094979748
0.00014233384
0.00097144018
0.000171343
0.00099399378
0.00019796701
0.0010165134
0.00022121555
0.0010400989
0.00024652885
0.0010644491
0.00026688677
0.0010875813
0.00028748074
0.0011143626
0.00030513739
0.0011353556
0.00032001104
0.00116682
0.00033748654
0.0011918589
0.00035388312
0.0012183728
0.00035769358
0.0012522743
0.00038177513
0.001283351
0.00038501552
0.0013140359
0.00039939683
0.0013506319
0.00040284106
0.0013877722
0.00042018732
0.001417696
0.00041436509
0.00043233527
0.0014580865
0.0010579399
-7.3787289e-05
0.0010597652
5.72873e-05
0.0010459914
0.00011069157
0.0010165699
0.00014873735
0.00097891393
0.00014887858
0.0009617971
6.8068207e-05
0.00097579233
-3.3272059e-05
0.001000946
-9.9054947e-05
0.0010129393
-0.00014564081
0.0010097824
-0.00018102232
0.00099376468
-0.00019256142
0.00096678889
-0.00018896017
0.0009302449
-0.00017975627
0.00089076341
-0.00017124777
0.00085577148
-0.00017565892
0.00082797837
-0.00017885901
0.00080913514
-0.00016617721
0.0007904287
-0.00014199919
0.00076978811
-0.00012118012
0.00075277567
-0.00011020745
0.00073700006
-0.00011412983
0.00072473695
-0.00012775216
0.00071798269
-0.00014449436
0.00071765552
-0.00016007034
0.00072347453
-0.00016486176
0.00073637637
-0.00016091168
0.0007551126
-0.00014839033
0.00077737339
-0.0001263199
0.00079968736
-0.00010082273
0.00082070909
-7.4499616e-05
0.00084116257
-4.7280716e-05
0.00086070378
-1.742065e-05
0.00087890459
1.2721638e-05
0.00089680598
4.554565e-05
0.0009134199
7.5041779e-05
0.00093209447
0.00010650771
0.00095132493
0.00013523483
0.00097331583
0.00016232633
0.00099361516
0.00018461357
0.0010182029
0.00020994988
0.0010394214
0.00022943284
0.0010645158
0.00024824285
0.0010874005
0.00026893912
0.0011110732
0.00027953969
0.0011385402
0.00030407478
0.0011629285
0.00030862352
0.0011875879
0.00032575851
0.0012202338
0.00033737738
0.0012480324
0.00035204193
0.0012759445
0.00035280114
0.0013089966
0.00037054048
0.0013446848
0.00037553865
0.0013728286
0.00038580468
0.0014073472
0.00038320436
0.0004041142
0.0014468815
0.0010593894
-8.2626373e-05
0.0010605646
5.188907e-05
0.0010465668
0.00010512477
0.0010167439
0.00014152843
0.00097825557
0.00014427335
0.00096098767
6.404777e-05
0.00097595642
-3.2593025e-05
0.0010021167
-9.4024548e-05
0.001014931
-0.00013805564
0.0010124667
-0.00016858867
0.00099657701
-0.00018725312
0.00096962269
-0.00018326777
0.00093310492
-0.00017432371
0.00089312901
-0.00015955828
0.00085783246
-0.00016328733
0.00083041231
-0.00017078716
0.00081204587
-0.00015502884
0.00079340018
-0.0001306306
0.00077240632
-0.00011250808
0.00075436367
-0.00010277055
0.00073758949
-0.00010585906
0.00072456531
-0.00011879279
0.00071721652
-0.0001352989
0.00071711409
-0.0001506477
0.0007230283
-0.00015732328
0.00073589202
-0.00015375518
0.00075503776
-0.00014139801
0.00077741576
-0.0001209346
0.00079996597
-9.6929649e-05
0.0008213311
-7.2260306e-05
0.00084216106
-4.6336704e-05
0.00086249862
-1.8878183e-05
0.00088127304
9.9865002e-06
0.0008992531
3.9454498e-05
0.00091626386
6.9980245e-05
0.00093462242
9.662542e-05
0.00095321489
0.00012355629
0.00097375449
0.00014676157
0.00099539727
0.00017334283
0.0010170501
0.0001902092
0.0010395944
0.00021456379
0.0010630346
0.00022928593
0.0010846971
0.00024808366
0.0011111833
0.00026171297
0.0011329583
0.00027669952
0.0011579785
0.00028425828
0.0011881606
0.00030677847
0.0012130944
0.00030750651
0.0012397718
0.00032142637
0.0012723678
0.0003292223
0.0013053948
0.00034502979
0.0013329092
0.0003420212
0.0013628087
0.00035495176
0.0014038437
0.00035821449
0.00036929019
0.0014306041
0.001060679
-8.9825716e-05
0.0010613415
4.7973302e-05
0.0010471499
9.9913407e-05
0.0010169485
0.00013383495
0.00097758974
0.00013833605
0.00096014913
6.0715392e-05
0.00097597473
-3.1570006e-05
0.0010031309
-8.8420613e-05
0.0010168557
-0.00012814834
0.0010148238
-0.00016040234
0.00099950929
-0.00017371086
0.00097279707
-0.00016940127
0.0009364606
-0.00016040987
0.00089570643
-0.00015415489
0.00085986394
-0.00015602294
0.00083288967
-0.00016255959
0.00081472171
-0.0001508988
0.00079596113
-0.0001275751
0.00077467916
-0.00010858873
0.00075597069
-9.8353189e-05
0.00073850512
-9.9016183e-05
0.00072467551
-0.00010992005
0.00071660659
-0.00012770064
0.0007163113
-0.00014127244
0.00072210151
-0.00014963258
0.00073497495
-0.00014780712
0.00075439355
-0.00013469724
0.00077703333
-0.00011449585
0.00079971782
-9.2090838e-05
0.00082138098
-6.9160791e-05
0.00084280359
-4.5032904e-05
0.00086354083
-1.9443724e-05
0.00088283518
7.1145409e-06
0.00090141598
3.3822905e-05
0.00091823274
6.2758797e-05
0.00093645378
8.9403602e-05
0.00095451231
0.00011714197
0.00097519959
0.00013817803
0.00099471849
0.00016080173
0.0010173649
0.00017886602
0.0010387066
0.00019988338
0.0010604379
0.00021098929
0.0010843196
0.00023275961
0.0011054306
0.00023866523
0.0011296065
0.00025748624
0.0011565881
0.00026637639
0.0011790313
0.00027769691
0.0012048933
0.00028194578
0.0012371183
0.00030243005
0.0012656636
0.00030255492
0.0012921252
0.00031330392
0.0013230183
0.00031592598
0.001358081
0.0003299125
0.00138942
0.0003295368
0.00033612401
0.0014161638
0.00106181
-9.8305044e-05
0.0010620652
4.4793411e-05
0.0010477104
9.5971263e-05
0.0010171809
0.00012622256
0.00097701841
0.0001331928
0.00095937192
5.6778514e-05
0.00097604723
-3.0703599e-05
0.0010042413
-8.3266161e-05
0.0010188055
-0.00012000911
0.0010176321
-0.00014506837
0.0010026185
-0.00016196353
0.00097601567
-0.00016386831
0.00093948825
-0.00015090084
0.00089819076
-0.00014593261
0.00086190179
-0.0001483839
0.00083525473
-0.0001520096
0.00081736073
-0.00013973426
0.00079864883
-0.00011871586
0.00077711179
-0.00010007027
0.00075775869
-9.0726717e-05
0.00073946147
-9.3295966e-05
0.00072457248
-0.00010452898
0.00071602067
-0.0001202583
0.00071532301
-0.00013507327
0.00072122975
-0.00014092239
0.00073440047
-0.00013833532
0.0007539814
-0.00012693008
0.00077654648
-0.00010907986
0.00079937267
-8.8463758e-05
0.00082145935
-6.6865851e-05
0.00084315479
-4.3841006e-05
0.00086408397
-2.1135734e-05
0.00088387566
3.847591e-06
0.00090282165
2.9415718e-05
0.00092021258
5.6528496e-05
0.00093804629
7.9548178e-05
0.00095577651
0.00010498446
0.00097510827
0.00012498078
0.00099534836
0.00014799541
0.0010164446
0.00016352484
0.0010369955
0.00018282771
0.0010598
0.00019659814
0.001080247
0.00021248264
0.0011031028
0.0002211423
0.00112743
0.00023869422
0.0011479806
0.00023967296
0.0011735972
0.00025699047
0.0012028691
0.00026349244
0.0012273068
0.00027334506
0.0012535314
0.00027460363
0.0012843932
0.00028902032
0.0013146843
0.00029159347
0.0013483807
0.00030345252
0.0013694441
0.0002974993
0.00031035689
0.001408206
0.0010628342
-0.00010588031
0.0010627806
4.132645e-05
0.0010482547
9.1601081e-05
0.001017434
0.00011922902
0.00097645161
0.00012719812
0.00095856183
5.2973671e-05
0.00097600141
-3.0294003e-05
0.0010051819
-7.9115577e-05
0.0010206837
-0.00011040794
0.001019991
-0.00013669046
0.0010052563
-0.0001527914
0.00097917144
-0.00015004271
0.000942508
-0.00014411382
0.00090092399
-0.00013500103
0.00086411983
-0.00013902853
0.0008376485
-0.00014683086
0.00082002634
-0.00013423758
0.00080145348
-0.00011258669
0.00077962091
-9.6049665e-05
0.00075959792
-8.4233561e-05
0.00074058193
-8.4556786e-05
0.00072489329
-9.5598034e-05
0.00071545403
-0.0001103662
0.00071457165
-0.00012575267
0.00072051659
-0.00013243893
0.00073368723
-0.0001293316
0.00075310912
-0.00011986079
0.00077573317
-0.00010293414
0.00079860013
-8.3884117e-05
0.00082086313
-6.4257528e-05
0.00084272347
-4.4279608e-05
0.00086410206
-2.2350765e-05
0.0008846486
1.2297379e-06
0.00090365764
2.3348238e-05
0.00092144775
5.0429737e-05
0.00093886724
7.2539479e-05
0.00095658977
9.8839612e-05
0.00097511421
0.00011495659
0.0009950097
0.0001385845
0.0010147692
0.00015078585
0.001036373
0.00017157518
0.0010560108
0.00017882158
0.0010775461
0.00019579478
0.001099719
0.00020341196
0.0011198367
0.00021569207
0.0011441315
0.00022205789
0.0011697917
0.00023692908
0.0011916535
0.0002362284
0.0012181079
0.00024986805
0.0012462272
0.00025322566
0.0012768377
0.00026768828
0.0013031504
0.00026464574
0.001330988
0.00027374544
0.0013574672
0.00026977423
0.00028884879
0.0013950005
0.001063716
-0.00011296255
0.0010634552
3.8265259e-05
0.0010487782
8.7367513e-05
0.00101768
0.00011193208
0.00097592732
0.00012263551
0.00095773726
4.8529402e-05
0.0009758699
-2.962601e-05
0.0010060125
-7.4182247e-05
0.0010222317
-0.00010344376
0.001022218
-0.0001235104
0.0010079656
-0.0001416922
0.00098194863
-0.00014459247
0.00094554153
-0.0001379949
0.00090358487
-0.00012834702
0.00086619202
-0.00012926437
0.00084000915
-0.000135717
0.00082271359
-0.00012501494
0.00080421618
-0.00010375124
0.00078231231
-8.7847847e-05
0.00076153087
-8.0094771e-05
0.00074178565
-8.0348978e-05
0.00072542427
-8.9985898e-05
0.00071508305
-0.00010386977
0.0007139412
-0.00011565594
0.00071981446
-0.00012301666
0.00073261286
-0.00012268379
0.00075219963
-0.0001131064
0.00077475414
-9.6934267e-05
0.00079772809
-7.8907199e-05
0.00082003463
-6.1192002e-05
0.00084228787
-4.217304e-05
0.00086390088
-2.2629832e-05
0.00088456769
-1.1736581e-06
0.00090416226
1.9491698e-05
0.00092224853
4.3377217e-05
0.00093972662
6.3056174e-05
0.00095658211
8.6232498e-05
0.00097538583
0.00010503454
0.0009937976
0.0001242069
0.0010141423
0.00013825009
0.0010331149
0.0001545067
0.0010535108
0.00016414807
0.0010745626
0.00018088746
0.0010938319
0.00018404338
0.0011165174
0.00019938843
0.0011390153
0.00020284186
0.0011604859
0.00021404097
0.0011849883
0.00021640091
0.0012123927
0.00023200335
0.0012393444
0.00023155678
0.0012628502
0.00023989628
0.0012905011
0.00023949418
0.0013167435
0.00025262598
0.0013550507
0.00025288485
0.00026005007
0.0013751422
0.0010644905
-0.00012047562
0.0010641255
3.5560642e-05
0.0010492876
8.3805653e-05
0.0010179637
0.00010455067
0.00097542272
0.00011715793
0.00095687262
4.4992588e-05
0.00097555683
-2.9421409e-05
0.0010065223
-6.863221e-05
0.001023563
-9.5251747e-05
0.0010241148
-0.0001154596
0.0010103075
-0.00013007142
0.00098484693
-0.00013020261
0.00094879438
-0.0001213238
0.00090642666
-0.00011649046
0.00086843345
-0.00012086705
0.00084243916
-0.00012751515
0.00082542119
-0.00011828072
0.0008069297
-0.0001008564
0.00078481848
-8.4315521e-05
0.00076349571
-7.4015133e-05
0.00074314298
-7.277945e-05
0.00072605967
-8.1117137e-05
0.00071503438
-9.5884632e-05
0.00071316413
-0.00010904429
0.00071867339
-0.00011622076
0.00073149558
-0.00011544063
0.0007511379
-0.00010621291
0.00077368742
-9.0918243e-05
0.00079642219
-7.4600503e-05
0.00081887066
-5.8210217e-05
0.00084131667
-4.1073145e-05
0.00086310445
-2.3303321e-05
0.00088417901
-4.0392439e-06
0.00090395521
1.503321e-05
0.00092243551
3.7612063e-05
0.0009396236
5.6470447e-05
0.00095717996
7.9963431e-05
0.00097414577
9.4163162e-05
0.00099324106
0.00011623291
0.0010114897
0.00012648579
0.0010310083
0.00014325528
0.0010508709
0.00015135039
0.0010692394
0.00016299851
0.0010901458
0.00016924011
0.0011108266
0.00018161097
0.0011312493
0.00018261075
0.0011538661
0.00019490949
0.0011797863
0.00019833689
0.0012019981
0.00020652627
0.00122652
0.00020659903
0.0012515932
0.00021882336
0.0012839922
0.00022153511
0.0013072394
0.00022731954
0.001337807
0.00022785197
0.0002290188
0.0013572551
0.0010651399
-0.00012681675
0.0010648062
3.3205093e-05
0.0010498089
8.0544713e-05
0.001018214
9.7711912e-05
0.00097489004
0.0001129234
0.00095595953
4.0612517e-05
0.00097522372
-2.917328e-05
0.0010069834
-6.4598001e-05
0.0010248276
-8.7327076e-05
0.0010262162
-0.00010330448
0.0010129308
-0.00011734347
0.00098788426
-0.00012308672
0.00095183126
-0.0001169093
0.00090907108
-0.00011061297
0.00087050946
-0.00011292585
0.00084461929
-0.00012000762
0.00082782005
-0.00011132762
0.0008096537
-9.3135183e-05
0.00078765292
-7.7464827e-05
0.00076587939
-6.7086351e-05
0.00074486362
-6.5943242e-05
0.00072691576
-7.4412527e-05
0.00071506899
-8.6169445e-05
0.00071247839
-0.00010011028
0.00071777379
-0.00010689057
0.00073059163
-0.00010513429
0.00075008061
-9.7580121e-05
0.00077227064
-8.5208642e-05
0.00079495182
-7.0405017e-05
0.00081744158
-5.4936153e-05
0.00083999339
-3.9309591e-05
0.00086193559
-2.3191061e-05
0.00088325129
-5.8413004e-06
0.00090330246
1.1207652e-05
0.00092220561
3.134499e-05
0.00093969094
4.788354e-05
0.0009564163
6.9224779e-05
0.00097405617
8.4748027e-05
0.00099138998
0.00010290507
0.0010096116
0.00011371517
0.0010285117
0.00012971847
0.0010461497
0.00013514249
0.0010659519
0.00014958799
0.0010850203
0.00015310422
0.0011041002
0.00016312852
0.001125279
0.00016677206
0.0011481065
0.00017761889
0.0011688621
0.00017733946
0.0011924783
0.0001882034
0.0012185397
0.00019045319
0.0012443087
0.0001979722
0.0012689621
0.00020041389
0.0012957959
0.00020333937
0.0013136372
0.00020157471
0.0002140753
0.0013510155
0.0010656816
-0.00013532228
0.0010654421
3.0245746e-05
0.0010502498
7.7695215e-05
0.0010185189
9.0613375e-05
0.00097446651
0.00010847669
0.00095508956
3.7336931e-05
0.00097478287
-2.9149814e-05
0.0010073157
-6.0820634e-05
0.0010260442
-7.952282e-05
0.0010280899
-9.4527352e-05
0.0010150565
-0.00011215081
0.00099059659
-0.00011147062
0.00095486395
-0.00010585294
0.00091200758
-9.8275193e-05
0.00087286681
-9.9689454e-05
0.00084699879
-0.00010788059
0.00083050545
-0.00010293238
0.00081250728
-8.6213575e-05
0.0007904829
-7.3122484e-05
0.00076812993
-6.4592193e-05
0.00074646992
-6.1834252e-05
0.00072804789
-6.8734349e-05
0.00071531647
-7.8772856e-05
0.00071220756
-9.0354724e-05
0.00071719225
-9.7498013e-05
0.0007295854
-9.6956245e-05
0.00074868075
-9.0994231e-05
0.00077076969
-7.9337006e-05
0.00079331165
-6.5603228e-05
0.00081568225
-5.2325614e-05
0.00083829578
-3.7924404e-05
0.00086028206
-2.3461585e-05
0.00088184798
-7.7039633e-06
0.00090211685
7.4486637e-06
0.00092127287
2.575719e-05
0.00093892431
4.1738464e-05
0.00095595944
6.1439066e-05
0.00097261205
7.5970706e-05
0.00098969132
9.4041748e-05
0.0010072281
0.00010396696
0.001024483
0.0001172014
0.0010428803
0.00012350137
0.0010609116
0.00013460607
0.001078525
0.00013665531
0.0010986962
0.00014780157
0.0011179271
0.00014822073
0.0011390497
0.00015816651
0.0011601454
0.00015784553
0.0011854235
0.00016866886
0.0012061118
0.00016872592
0.0012352825
0.00017833118
0.0012511388
0.00017393186
0.0012825663
0.00018612173
0.0013069684
0.00018345834
0.00019504969
0.001334819
0.0010660744
-0.00014213463
0.0010661402
2.7319736e-05
0.0010508001
7.4527795e-05
0.0010187877
8.342004e-05
0.00097395288
0.00010528816
0.00095414881
3.3886283e-05
0.00097428241
-2.8470856e-05
0.0010075882
-5.6507525e-05
0.0010270984
-7.2319602e-05
0.0010298154
-8.4159278e-05
0.0010175282
-9.8435947e-05
0.00099347809
-0.00010296704
0.00095808173
-9.8558526e-05
0.00091498115
-9.1525703e-05
0.00087511063
-9.3993788e-05
0.00084917418
-0.00010108512
0.00083302473
-9.4972249e-05
0.00081510815
-8.1199558e-05
0.00079326108
-6.6722017e-05
0.00077065716
-5.7751287e-05
0.00074841205
-5.4954179e-05
0.0007294154
-6.0438745e-05
0.00071578605
-7.0965357e-05
0.0007119049
-8.2476731e-05
0.00071635495
-8.9706608e-05
0.00072822898
-9.0294264e-05
0.00074711393
-8.467528e-05
0.00076911096
-7.3887943e-05
0.0007914851
-6.1128566e-05
0.0008138254
-4.8128977e-05
0.00083643093
-3.5517198e-05
0.00085846568
-2.2551594e-05
0.00087990476
-9.0293669e-06
0.0009003506
4.1960726e-06
0.00091987425
1.9842079e-05
0.00093769695
3.3934818e-05
0.00095498601
5.2380174e-05
0.00097121921
6.4907701e-05
0.00098787163
8.2557048e-05
0.001004123
9.1430071e-05
0.0010214976
0.00010551392
0.0010384006
0.0001102834
0.0010555941
0.00012117646
0.001073642
0.00012382222
0.0010917494
0.00013372825
0.0011108849
0.00013397512
0.001130745
0.00014292214
0.0011522189
0.00014317681
0.0011757532
0.00015423763
0.0011958746
0.00014878025
0.0012198612
0.00016133325
0.0012447546
0.00015820922
0.0012678921
0.00016619732
0.0012983288
0.00016683936
0.00016521555
0.0013113645
0.0010663786
-0.00015060832
0.0010667366
2.3962047e-05
0.00105113
7.1517327e-05
0.0010191445
7.6127328e-05
0.00097369114
0.00010177488
0.00095338002
3.1366938e-05
0.00097379369
-2.8201409e-05
0.0010078281
-5.1560473e-05
0.0010281923
-6.7240471e-05
0.0010317682
-7.4065617e-05
0.0010198443
-8.890727e-05
0.0009962638
-9.2605214e-05
0.00096126979
-8.6880845e-05
0.00091792408
-8.0029646e-05
0.00087739718
-8.201983e-05
0.0008514089
-9.0696645e-05
0.00083542282
-8.6832239e-05
0.00081783974
-7.4444029e-05
0.00079618046
-6.268592e-05
0.00077329953
-5.4102114e-05
0.00075055682
-5.1088939e-05
0.00073093372
-5.4619819e-05
0.00071650874
-6.2056814e-05
0.00071172017
-7.3274964e-05
0.00071550591
-8.0825403e-05
0.00072705914
-8.1761687e-05
0.00074568888
-7.6949681e-05
0.00076744892
-6.6699126e-05
0.0007896359
-5.6057885e-05
0.00081180072
-4.4887955e-05
0.00083437692
-3.3313753e-05
0.00085625216
-2.1819568e-05
0.00087755796
-1.0530548e-05
0.00089811899
1.2247668e-06
0.00091788726
1.5342955e-05
0.0009360768
2.8270857e-05
0.00095323987
4.4860615e-05
0.00096953146
5.7575505e-05
0.00098528076
7.2928624e-05
0.001001282
8.1582292e-05
0.0010174479
9.4233269e-05
0.0010337932
9.80971e-05
0.0010505248
0.00010793332
0.0010676731
0.00010964764
0.0010844852
0.00011606352
0.0011033687
0.00011795184
0.0011222176
0.0001246141
0.0011447265
0.00012560837
0.0011612879
0.00013164175
0.0011889733
0.00013388243
0.0012058053
0.0001385838
0.0012334395
0.00014119916
0.0012558915
0.00014490754
0.0012729798
0.00014415307
0.00014873005
0.0013016016
0.001066419
-0.00015867277
0.0010674063
2.0196154e-05
0.0010517458
6.9168714e-05
0.0010194696
6.9693884e-05
0.00097320668
9.9032941e-05
0.00095243748
2.8470889e-05
0.00097326889
-2.8365456e-05
0.0010079018
-4.8148166e-05
0.0010292085
-5.8876199e-05
0.0010334901
-6.5406497e-05
0.001022142
-7.8427101e-05
0.00099913185
-8.2123052e-05
0.00096445447
-8.0448002e-05
0.00092099752
-7.3963404e-05
0.00087975911
-7.4656969e-05
0.00085351346
-8.1218668e-05
0.00083767178
-8.1001767e-05
0.00082034879
-6.8900014e-05
0.00079902551
-5.7046144e-05
0.00077599682
-4.8357005e-05
0.00075282084
-4.4547119e-05
0.00073263406
-4.9924253e-05
0.00071736683
-5.5482046e-05
0.0007116857
-6.6195067e-05
0.00071486877
-7.2331337e-05
0.00072606555
-7.2526552e-05
0.00074435105
-6.8918356e-05
0.00076560017
-6.1336348e-05
0.00078758382
-5.1622251e-05
0.00080957283
-4.1391053e-05
0.00083205434
-3.0604995e-05
0.00085369841
-2.0773735e-05
0.00087502627
-1.0702201e-05
0.00089555083
-8.4242095e-07
0.0009154033
1.0863214e-05
0.00093388195
2.2007319e-05
0.00095141368
3.6326328e-05
0.00096726063
4.7386907e-05
0.00098290552
6.2609492e-05
0.00099812498
7.103122e-05
0.0010133635
8.2275911e-05
0.0010290427
8.6542655e-05
0.0010450697
9.5752302e-05
0.0010602875
9.6027581e-05
0.001078217
0.00010507834
0.0010945159
0.0001030296
0.0011142808
0.0001114536
0.0011328488
0.0001109897
0.0011531851
0.00011591014
0.0011753563
0.00011975545
0.00119685
0.00012400214
0.0012174347
0.00012228832
0.0012424101
0.00012986538
0.0012576536
0.0001237159
0.0001360203
0.0012902658
0.0010663846
-0.0001684165
0.0010679226
1.5663766e-05
0.0010519459
6.7075009e-05
0.0010199204
6.3091214e-05
0.0009732209
9.7215842e-05
0.00095180728
2.5709246e-05
0.0009727045
-2.8651641e-05
0.001007992
-4.5703396e-05
0.0010302001
-5.2406442e-05
0.0010352477
-5.50117e-05
0.0010243172
-7.1142858e-05
0.0010017213
-7.3682511e-05
0.00096755167
-7.0827994e-05
0.00092411766
-6.337578e-05
0.00088226179
-6.3877766e-05
0.00085558248
-7.0276559e-05
0.0008400381
-6.9740048e-05
0.0008230166
-6.0680422e-05
0.00080208138
-5.012537e-05
0.00077890725
-4.3299879e-05
0.00075503855
-4.0490248e-05
0.00073456858
-4.3517193e-05
0.00071841498
-4.7453984e-05
0.00071186345
-5.7461077e-05
0.00071434362
-6.3708514e-05
0.00072495113
-6.4934676e-05
0.00074257046
-6.3088506e-05
0.00076350466
-5.5995963e-05
0.00078533482
-4.7220549e-05
0.0008073676
-3.7556935e-05
0.00082956407
-2.847642e-05
0.00085116559
-1.9407011e-05
0.00087231446
-1.0853168e-05
0.00089277831
-2.7977534e-06
0.00091260314
6.9013466e-06
0.00093117398
1.6931235e-05
0.00094870255
2.9480527e-05
0.00096467787
3.9641507e-05
0.00097987961
5.304011e-05
0.00099425379
6.063731e-05
0.0010091529
7.2049521e-05
0.0010239002
7.4743237e-05
0.0010387873
8.3374443e-05
0.001054612
8.378743e-05
0.0010697729
8.9579179e-05
0.0010874624
9.0703296e-05
0.0011052853
9.5397758e-05
0.0011214981
9.4131756e-05
0.0011470861
0.00010592879
0.0011620881
9.9991156e-05
0.0011833878
0.00010621546
0.0012077146
0.00010802483
0.0012224108
0.00011064515
0.0012524471
0.00011117449
0.00011590525
0.0012690794
0.0010657801
-0.00017788594
0.0010683955
1.0281472e-05
0.0010527767
6.4040911e-05
0.0010204335
5.6385594e-05
0.00097276415
9.6473605e-05
0.00095076272
2.3668792e-05
0.00097198921
-2.8987447e-05
0.0010078888
-4.3043537e-05
0.0010309578
-4.8355018e-05
0.0010367421
-4.6973525e-05
0.0010265033
-5.9306792e-05
0.0010044434
-6.292918e-05
0.00097081782
-6.1924796e-05
0.00092737685
-5.5394429e-05
0.0008847735
-5.591766e-05
0.00085760198
-6.341146e-05
0.00084222845
-6.3441327e-05
0.00082545066
-5.583236e-05
0.00080486323
-4.6289688e-05
0.00078167453
-3.9332644e-05
0.00075756405
-3.5688549e-05
0.00073671824
-3.771139e-05
0.00071985862
-3.9500252e-05
0.00071236212
-4.9312836e-05
0.00071378973
-5.6735288e-05