/*--------------------------------*- C++ -*----------------------------------*\
| =========                 |                                                 |
| \\      /  F ield         | OpenFOAM: The Open Source CFD Toolbox           |
|  \\    /   O peration     | Version:  2406                                  |
|   \\  /    A nd           | Website:  www.openfoam.com                      |
|    \\/     M anipulation  |                                                 |
\*---------------------------------------------------------------------------*/
FoamFile
{
    version     2.0;
    format      ascii;
    arch        "LSB;label=32;scalar=64";
    class       surfaceScalarField;
    location    "8";
    object      phi_0;
}
// * * * * * * * * * * * * * * * * * * * * * * * * * * * * * * * * * * * * * //

dimensions      [1 0 -1 0 0 0 0];

oriented        oriented;

internalField   nonuniform List<scalar> 
192068
(
0.0010469041
-2.1873192e-05
9.3870005e-06
0.0010539565
9.6710845e-05
-0.00010816959
0.0010421579
0.00013805314
-0.00014430132
0.0010159188
0.00018395682
-0.00019069431
0.00098294015
0.00017932904
-0.00018505955
0.00096565354
9.0147007e-05
-9.3954743e-05
0.00097310798
-3.5260909e-05
3.6236067e-05
0.00099264891
-0.00012647715
0.00013330936
0.0010013305
-0.0001946023
0.00020537945
0.00099582791
-0.0002433813
0.00025588601
0.00097871994
-0.00025262936
0.00026779176
0.00095133789
-0.00024093244
0.00025346234
0.00091636057
-0.00022142882
0.00023268901
0.00088002833
-0.00020998593
0.00021560879
0.00084695557
-0.00021124861
0.00022325934
0.00081661498
-0.00022232879
0.00022641132
0.00079568714
-0.00020823854
0.00021455114
0.00077779826
-0.00018006484
0.00018963891
0.00075971025
-0.00015816825
0.00016680836
0.00074718746
-0.00014646583
0.00015692131
0.00073591559
-0.00014879656
0.00015969695
0.00072749341
-0.00016355747
0.00017383122
0.00072329223
-0.00018337115
0.00019037988
0.00072351146
-0.00019825178
0.00020302722
0.00072840868
-0.00020563393
0.0002084297
0.00073927688
-0.00020044563
0.00020420798
0.0007566431
-0.00018205551
0.00018910923
0.00077797667
-0.00015569193
0.00016181905
0.00079931915
-0.0001223584
0.00012673376
0.00081886039
-8.5837582e-05
8.9578065e-05
0.00083630707
-4.8244635e-05
5.0963207e-05
0.00085123321
-9.0001031e-06
1.011504e-05
0.00086451367
3.0423907e-05
-3.0932144e-05
0.00087776542
7.0795724e-05
-7.264441e-05
0.00089306122
0.00010823505
-0.0001138047
0.00091075099
0.00014698897
-0.00015501134
0.00093122186
0.00018286037
-0.00019198732
0.00095280998
0.00021803053
-0.00023153176
0.00097556909
0.00025017916
-0.00026751521
0.0010005804
0.00028570468
-0.0003010619
0.0010259744
0.00031396793
-0.00033614612
0.0010516622
0.00034573278
-0.00036824965
0.0010814799
0.00037269258
-0.00039302295
0.0011074804
0.00039786297
-0.00043035794
0.001139933
0.00042335109
-0.00044906408
0.0011686283
0.0004463222
-0.00048000593
0.0012033413
0.00046602328
-0.00049504972
0.0012371389
0.00048945357
-0.00052347333
0.0012712339
0.00050090677
-0.00053960215
0.0013092736
0.00052404771
-0.0005578498
0.0013456578
0.00053283153
-0.00057067804
0.0013880346
0.00054882267
-0.00058999671
0.0014251702
0.00055889455
-0.00060029774
0.0014724232
0.00056376206
-0.00061169196
0.00059091328
0.0015152812
-0.00062491482
0.0010491607
-3.3516356e-05
0.0010552626
8.641543e-05
0.0010432364
0.0001322347
0.0010160726
0.0001773166
0.00098200008
0.00017390546
0.00096490682
8.5612185e-05
0.00097405008
-3.5245198e-05
0.00099499799
-0.00012177241
0.0010041666
-0.00018565664
0.00099907325
-0.00023096103
0.00098209299
-0.00023808752
0.00095468543
-0.00022960295
0.00091901606
-0.00021502845
0.00088206344
-0.00020485775
0.00084841555
-0.00020484438
0.00081868304
-0.00021093781
0.00079804806
-0.00020268723
0.00077981258
-0.00017413954
0.00076115999
-0.00015094103
0.0007478736
-0.00013976397
0.00073583831
-0.00014155326
0.00072648285
-0.0001561246
0.00072147297
-0.00017406665
0.00072128067
-0.00018991632
0.00072620334
-0.00019651363
0.0007370428
-0.00019356654
0.00075387837
-0.00017721643
0.00077468066
-0.00015055004
0.00079614007
-0.00011796617
0.00081615847
-8.3495298e-05
0.00083503135
-4.881973e-05
0.00085224176
-1.1110078e-05
0.00086882592
2.626807e-05
0.00088408632
6.6292286e-05
0.00090056635
0.00010340796
0.00091809751
0.00014072648
0.00093710576
0.00017395156
0.00095770908
0.00020934343
0.00097965646
0.00023906651
0.0010021101
0.00027058253
0.0010263364
0.00029639505
0.0010518031
0.00032627355
0.0010772273
0.00034733026
0.0011068134
0.0003772562
0.0011337838
0.00039155442
0.0011662217
0.00041881193
0.0011977594
0.00043371274
0.0012311892
0.00045354752
0.0012661829
0.00046959302
0.0013030561
0.00048519713
0.0013377343
0.00049863197
0.0013800803
0.00050934147
0.0014138475
0.00052465575
0.0014574726
0.00052389197
0.00054642379
0.0014972364
0.0010514883
-4.4754274e-05
0.0010564883
7.7203104e-05
0.0010439663
0.00012573544
0.0010161453
0.00017062828
0.0009810578
0.00016802044
0.00096380319
8.1379727e-05
0.00097411102
-3.462814e-05
0.00099609508
-0.00011686673
0.0010059373
-0.00017628294
0.0010015037
-0.00021842914
0.00098473464
-0.00023230655
0.00095758226
-0.00022069095
0.00092177882
-0.00020791542
0.00088437055
-0.00019191033
0.00085037796
-0.00019881976
0.00082102528
-0.00020193215
0.00080103308
-0.00018974831
0.00078270534
-0.00016401856
0.00076335236
-0.00014306044
0.00074901999
-0.00013296844
0.00073599674
-0.00013584921
0.00072615962
-0.00014955499
0.00072089444
-0.00016677272
0.00072083307
-0.000181945
0.00072631343
-0.0001864722
0.00073784227
-0.00018260495
0.00075493696
-0.00016953929
0.00077594722
-0.00014492496
0.00079719973
-0.00011519827
0.00081704802
-8.2983161e-05
0.00083629466
-4.989935e-05
0.00085472428
-1.3586608e-05
0.00087207404
2.2643501e-05
0.00088880985
6.0487425e-05
0.00090640134
9.5354595e-05
0.0009253277
0.0001321606
0.00094580836
0.00016364033
0.00096649725
0.00019615302
0.00098808952
0.00022427112
0.0010100724
0.00025392065
0.0010334705
0.0002794862
0.001056918
0.00030638411
0.0010826807
0.00032743841
0.0011069618
0.00034972215
0.0011351416
0.00036892676
0.0011644625
0.00038979436
0.0011919067
0.00040241312
0.0012279777
0.00042231201
0.001258431
0.00043800939
0.0012955052
0.00044663721
0.0013314956
0.00046654122
0.0013685888
0.00046945073
0.0014041853
0.00048545313
0.0014451516
0.00048878958
0.0005063873
0.0014847054
0.0010536041
-5.5240299e-05
0.0010575051
6.9679057e-05
0.0010445932
0.0001208366
0.0010162217
0.00016292416
0.00098025452
0.00016203184
0.0009629715
7.7557778e-05
0.00097444761
-3.3995668e-05
0.00099762791
-0.00011047896
0.0010082808
-0.00016578791
0.0010042616
-0.00020584516
0.00098785613
-0.00021872158
0.00096064951
-0.00021260979
0.00092488254
-0.00019925945
0.00088648382
-0.00018652554
0.00085229312
-0.00018968152
0.00082333594
-0.00019846061
0.00080386149
-0.00018216738
0.00078546488
-0.00015537071
0.00076561918
-0.00013393348
0.00075036199
-0.00012292944
0.00073644767
-0.00012613831
0.00072588108
-0.00013990936
0.00071996262
-0.00015906824
0.00071992836
-0.00017474233
0.00072533038
-0.0001816829
0.00073701044
-0.00017699152
0.00075486857
-0.00016125448
0.00077624415
-0.00013826188
0.00079790768
-0.00010960654
0.0008181634
-7.9517047e-05
0.00083783153
-4.7999068e-05
0.00085633645
-1.4029789e-05
0.00087384115
1.9001833e-05
0.00089081104
5.5841484e-05
0.00090837763
8.8832702e-05
0.00092739914
0.00012356637
0.00094813396
0.00015414415
0.00096987763
0.00018607354
0.00099197211
0.00021152194
0.0010156139
0.00024159172
0.0010379737
0.00026179496
0.0010627507
0.00028816892
0.0010853543
0.00030614194
0.0011121061
0.00032859077
0.0011365192
0.00034616507
0.0011630071
0.00035865717
0.0011927223
0.00038137573
0.0012237167
0.00039053961
0.0012516513
0.00040579759
0.0012896063
0.00041631705
0.0013225141
0.00043322033
0.0013559451
0.0004341794
0.0013996126
0.00045569446
0.0014328065
0.00045239414
0.00046805231
0.0014718739
0.0010557292
-6.6167015e-05
0.0010584987
6.3061356e-05
0.0010451825
0.0001158137
0.0010163685
0.00015632106
0.00097953752
0.00015566694
0.00096216511
7.3628059e-05
0.00097474329
-3.329989e-05
0.00099899381
-0.00010408225
0.0010103981
-0.00015557905
0.0010069315
-0.0001931099
0.00099073814
-0.00020735095
0.0009637598
-0.00020102219
0.0009278492
-0.00018552102
0.00088879015
-0.00017907716
0.00085420336
-0.00017877934
0.00082585215
-0.00018602397
0.00080660829
-0.00017539183
0.00078818163
-0.00014980586
0.00076793249
-0.0001293898
0.00075173931
-0.00011898092
0.00073700201
-0.00012002601
0.00072560697
-0.0001318497
0.00071929656
-0.00014970384
0.00071899875
-0.00016570795
0.00072461355
-0.00017402802
0.00073697395
-0.00017124569
0.0007553528
-0.00015572607
0.00077730491
-0.00013212492
0.00079935966
-0.00010535385
0.00082020731
-7.6478522e-05
0.00084017776
-4.6972333e-05
0.00085931912
-1.5548816e-05
0.00087700401
1.6058986e-05
0.00089399926
4.916945e-05
0.00091117309
8.1949285e-05
0.00093004003
0.00011469009
0.00094996073
0.00014245325
0.00097155991
0.00017134257
0.00099404314
0.00019792999
0.0010166354
0.00022124447
0.0010402385
0.00024658929
0.0010644362
0.00026680688
0.0010879912
0.00028811003
0.0011141465
0.00030488022
0.00113576
0.000320745
0.0011673746
0.00033824362
0.001191346
0.00035319153
0.001218843
0.00035850334
0.0012529353
0.00038261499
0.001282997
0.00038452145
0.0013140847
0.00039937719
0.0013516287
0.00040368924
0.0013868834
0.00041955616
0.0014176988
0.00041409298
0.00043339262
0.0014586915
0.0010574192
-7.3851149e-05
0.0010593422
5.714345e-05
0.0010457729
0.00011059816
0.0010165184
0.00014894866
0.00097884091
0.00014972938
0.00096134187
6.9082601e-05
0.00097495567
-3.2923229e-05
0.001000232
-9.9890339e-05
0.0010124386
-0.00014704752
0.0010095599
-0.00018194669
0.00099378386
-0.00019364735
0.00096703363
-0.00019032165
0.00093064702
-0.00018118793
0.00089120309
-0.00017134374
0.00085612136
-0.00017579286
0.00082814904
-0.0001791501
0.00080925196
-0.00016630475
0.00079074281
-0.00014195094
0.00077018199
-0.00012086839
0.00075323192
-0.00010963653
0.0007375135
-0.0001134812
0.00072523808
-0.00012705985
0.00071840609
-0.00014360775
0.00071797736
-0.0001593568
0.0007236905
-0.00016422994
0.00073639546
-0.00016052889
0.00075499189
-0.00014854067
0.00077722211
-0.00012682365
0.00079964155
-0.00010123703
0.00082072568
-7.4973201e-05
0.00084124928
-4.7684761e-05
0.0008608862
-1.7839495e-05
0.00087917746
1.2291114e-05
0.00089712264
4.5230707e-05
0.00091375834
7.4708093e-05
0.00093235747
0.00010603436
0.00095150059
0.00013487251
0.00097343789
0.00016234027
0.00099373829
0.00018469929
0.0010183438
0.00021037256
0.0010394976
0.000229753
0.0010648402
0.00024905983
0.0010873256
0.00026905708
0.0011114714
0.00028040766
0.0011389148
0.00030476241
0.001162477
0.00030833699
0.0011882854
0.00032718242
0.0012207397
0.0003382342
0.0012474881
0.00035159411
0.0012759913
0.0003533888
0.0013099004
0.00037169456
0.0013442057
0.00037545842
0.0013723218
0.00038579406
0.0014090232
0.0003844409
0.00040410719
0.0014465781
0.0010588652
-8.2614715e-05
0.0010601416
5.1806532e-05
0.0010463499
0.00010502411
0.0010167035
0.00014180301
0.00097818917
0.00014497765
0.0009605271
6.5139263e-05
0.00097510055
-3.2258274e-05
0.0010013899
-9.4716459e-05
0.0010144348
-0.00013908391
0.0010122164
-0.00017009245
0.00099655535
-0.00018871413
0.00096984908
-0.00018363021
0.00093355829
-0.00017435828
0.0008935932
-0.00015948265
0.0008581962
-0.0001627051
0.00083059892
-0.00017089824
0.00081217761
-0.0001556962
0.00079372593
-0.00013122918
0.00077280633
-0.00011299867
0.00075482352
-0.00010287459
0.00073813118
-0.00010513654
0.00072511655
-0.00011758633
0.00071766036
-0.00013417737
0.00071744703
-0.00014958092
0.00072321076
-0.00015695171
0.00073585663
-0.00015387887
0.00075488752
-0.00014159275
0.00077728012
-0.00012119957
0.00079990583
-9.7259237e-05
0.00082136059
-7.2570688e-05
0.00084224889
-4.6717832e-05
0.00086267524
-1.9196849e-05
0.00088154413
9.6581497e-06
0.00089955946
3.8961538e-05
0.00091657529
6.9728503e-05
0.00093490878
9.6592225e-05
0.00095347168
0.00012364052
0.00097390581
0.00014653077
0.00099559767
0.00017347718
0.0010171382
0.00018988973
0.0010398797
0.00021480204
0.0010630014
0.00022897044
0.0010850354
0.00024852567
0.0011114017
0.00026194245
0.0011327248
0.00027645882
0.0011587731
0.00028541459
0.0011883989
0.00030687605
0.0012125063
0.00030684567
0.0012402205
0.00032228122
0.0012730499
0.00032991082
0.0013050735
0.00034482376
0.001332514
0.000341771
0.0013637114
0.00035534683
0.0014040118
0.00035882109
0.0003685011
0.0014301229
0.0010601533
-8.9896192e-05
0.0010609185
4.793042e-05
0.0010469359
9.9889756e-05
0.0010169132
0.00013403263
0.00097753217
0.00013906361
0.00095968179
6.1741047e-05
0.00097510373
-3.1238441e-05
0.0010024024
-8.9004249e-05
0.0010163403
-0.00012917448
0.0010145789
-0.00016120974
0.00099953588
-0.00017396745
0.00097305184
-0.00017032793
0.00093691389
-0.00016076226
0.00089616912
-0.00015491769
0.00086020447
-0.00015636652
0.00083305184
-0.00016249664
0.00081482164
-0.00015139166
0.00079625381
-0.00012809537
0.00077507635
-0.00010855504
0.00075646482
-9.810889e-05
0.00073907228
-9.8611206e-05
0.0007252198
-0.0001093195
0.00071705443
-0.00012696066
0.00071659128
-0.00014066142
0.00072224522
-0.00014908863
0.00073494927
-0.00014761802
0.00075425003
-0.00013482105
0.00077688915
-0.00011487303
0.00079965692
-9.2460978e-05
0.00082140062
-6.9445799e-05
0.00084290155
-4.5256111e-05
0.00086370069
-1.9777637e-05
0.00088305398
6.6969984e-06
0.00090175327
3.355217e-05
0.00091859466
6.2253857e-05
0.00093680499
8.8979177e-05
0.00095473539
0.00011679883
0.00097548172
0.00013844558
0.00099478983
0.0001606197
0.0010176898
0.00017959498
0.0010387481
0.00020005023
0.0010608167
0.0002118822
0.001084537
0.0002333434
0.0011054463
0.00023904011
0.001130334
0.000258783
0.0011566114
0.00026659748
0.0011787105
0.00027783768
0.0012056847
0.00028338421
0.0012375114
0.00030314064
0.0012653659
0.00030249343
0.0012918132
0.00031321445
0.0013233353
0.00031678632
0.0013592665
0.00033097124
0.0013878838
0.00032882109
0.00033653038
0.0014170484
0.0010612826
-9.8244151e-05
0.001061643
4.4765438e-05
0.0010474984
9.5979612e-05
0.0010171546
0.00012654781
0.00097696829
0.00013384126
0.00095889679
5.7698289e-05
0.00097516111
-3.0447793e-05
0.0010035021
-8.387821e-05
0.0010182969
-0.0001208672
0.0010174017
-0.00014606541
0.0010025989
-0.00016329429
0.00097625918
-0.00016438617
0.00093991663
-0.00015135658
0.00089867808
-0.00014551196
0.00086227048
-0.0001479729
0.00083541446
-0.0001521658
0.00081747906
-0.00014001021
0.00079898121
-0.00011899639
0.00077753284
-0.00010034712
0.0007582662
-9.0456739e-05
0.0007400283
-9.2611019e-05
0.00072512611
-0.00010367385
0.00071645975
-0.00011916933
0.00071561096
-0.00013440774
0.00072138507
-0.000140446
0.00073438703
-0.00013797197
0.00075381684
-0.0001270189
0.00077638839
-0.00010936682
0.00079929936
-8.8839203e-05
0.00082146182
-6.7297088e-05
0.000843198
-4.4363329e-05
0.00086419705
-2.1605519e-05
0.00088411016
3.4845197e-06
0.0009031003
2.9016293e-05
0.00092058456
5.6402238e-05
0.00093839379
7.9450391e-05
0.00095615409
0.00010497196
0.00097524277
0.00012451558
0.00099573832
0.00014831348
0.0010165294
0.00016311935
0.0010373631
0.0001830087
0.0010599986
0.00019649922
0.0010803554
0.00021233747
0.00110366
0.0002217144
0.0011273869
0.00023843653
0.0011479803
0.00023972569
0.0011743756
0.00025789412
0.0012029887
0.00026347055
0.0012269089
0.00027274191
0.001253303
0.00027466316
0.0012851588
0.00029009674
0.0013151034
0.00029158739
0.0013475113
0.00030294934
0.0013692182
0.00029692988
0.00031146517
0.0014089192
0.0010623046
-0.00010592314
0.0010623572
4.1183066e-05
0.0010480451
9.1504471e-05
0.0010174127
0.00011957344
0.00097640807
0.00012789469
0.00095808035
5.3814179e-05
0.00097510053
-2.9975391e-05
0.0010044374
-7.9697229e-05
0.0010201576
-0.00011127961
0.0010197281
-0.00013761058
0.0010052538
-0.00015343506
0.00097940132
-0.00015070097
0.00094295393
-0.00014514731
0.00090142423
-0.00013552878
0.00086447147
-0.00013899537
0.00083779462
-0.0001470567
0.00082013376
-0.00013488921
0.00080176961
-0.00011283252
0.00078005892
-9.6078102e-05
0.00076012947
-8.4130302e-05
0.00074117295
-8.4025206e-05
0.00072548909
-9.4868773e-05
0.00071589257
-0.00010952934
0.00071488006
-0.00012478105
0.00072068585
-0.00013183372
0.00073363926
-0.00012918685
0.00075292826
-0.00012004077
0.00077556387
-0.00010324535
0.00079851348
-8.4114214e-05
0.00082083552
-6.4462974e-05
0.00084276136
-4.453572e-05
0.00086422994
-2.263258e-05
0.00088484423
9.0301419e-07
0.00090397769
2.2981529e-05
0.00092182342
4.9970357e-05
0.00093926985
7.2118237e-05
0.00095685851
9.8562715e-05
0.00097553311
0.00011523024
0.00099513665
0.00013838796
0.0010151156
0.00015129132
0.0010365949
0.00017200551
0.0010561879
0.00017925898
0.0010780371
0.00019673361
0.0010997569
0.00020368789
0.0011200648
0.00021639951
0.001144785
0.00022321745
0.0011697818
0.00023715586
0.0011913136
0.00023630341
0.0012184559
0.00025106151
0.0012470537
0.000254205
0.0012764235
0.0002675072
0.0013029736
0.00026462692
0.0013300263
0.00027386026
0.0013593411
0.00027097379
0.0002891876
0.0013944288
0.001063185
-0.0001128691
0.0010630316
3.8198306e-05
0.0010485725
8.7310777e-05
0.0010176648
0.00011224894
0.00097588994
0.00012329728
0.00095725311
4.9373364e-05
0.00097495617
-2.9380731e-05
0.0010052597
-7.4610289e-05
0.0010216974
-0.00010438829
0.0010219624
-0.00012434428
0.0010079437
-0.00014273099
0.00098215191
-0.0001452564
0.00094600057
-0.0001378008
0.00090410321
-0.00012814475
0.00086655863
-0.0001289415
0.00084016434
-0.00013533963
0.00082284444
-0.00012513148
0.00080453736
-0.00010410966
0.00078274442
-8.8001804e-05
0.00076206223
-8.0122511e-05
0.00074237098
-8.0043017e-05
0.00072601723
-8.9292381e-05
0.00071553995
-0.0001032182
0.0007142365
-0.00011499165
0.00071994022
-0.00012261907
0.000732529
-0.00012275606
0.00075200831
-0.00011329393
0.00077459636
-9.7127193e-05
0.0007976443
-7.9166142e-05
0.0008200098
-6.1474044e-05
0.00084232796
-4.243243e-05
0.00086400884
-2.295411e-05
0.00088474465
-1.5259978e-06
0.00090443792
1.9248133e-05
0.00092260158
4.3164153e-05
0.00094012136
6.2910746e-05
0.00095702094
8.5988253e-05
0.00097563226
0.00010469376
0.00099418768
0.00012429716
0.0010144323
0.00013817488
0.0010333399
0.00015431448
0.0010539615
0.00016435287
0.0010746955
0.00018073446
0.0010941757
0.00018428521
0.0011170509
0.00019982654
0.0011389769
0.00020251964
0.0011604382
0.00021411793
0.0011856923
0.00021716928
0.0012126087
0.00023193473
0.0012389715
0.0002312653
0.0012625121
0.00023973432
0.0012907399
0.00023997366
0.0013172407
0.00025310479
0.001355805
0.00025373074
0.00025874662
0.0013741447
0.0010639568
-0.00012052746
0.0010637019
3.5554031e-05
0.0010490855
8.3772819e-05
0.0010179529
0.00010491901
0.00097539165
0.00011779317
0.00095638484
4.5822326e-05
0.0009746343
-2.9167549e-05
0.0010057586
-6.909353e-05
0.0010230221
-9.5874149e-05
0.0010238441
-0.00011633821
0.0010103038
-0.00013027356
0.00098509625
-0.00013046995
0.00094926613
-0.00012159997
0.00090695201
-0.00011686435
0.00086880281
-0.00012109079
0.00084256943
-0.00012796796
0.00082551579
-0.00011896444
0.00080722891
-0.00010147548
0.00078525004
-8.4516341e-05
0.00076406366
-7.360149e-05
0.0007437749
-7.1985528e-05
0.00072667098
-8.0239609e-05
0.00071549926
-9.4960694e-05
0.00071343231
-0.00010855552
0.00071876929
-0.00011584964
0.00073143524
-0.00011513916
0.00075096324
-0.00010620997
0.00077351341
-9.1165355e-05
0.00079632228
-7.4814374e-05
0.00081883678
-5.8373542e-05
0.00084132816
-4.1328659e-05
0.00086318503
-2.3568148e-05
0.00088436004
-4.3554498e-06
0.00090422392
1.4708959e-05
0.00092280499
3.725319e-05
0.00094002763
5.61015e-05
0.00095758281
7.9907659e-05
0.00097456161
9.4102356e-05
0.00099357296
0.00011629188
0.0010117544
0.00012663578
0.0010314223
0.00014384876
0.0010511225
0.00015179946
0.0010695964
0.00016359588
0.0010906178
0.00017003469
0.0011108645
0.00018195208
0.0011315574
0.00018351481
0.0011544258
0.00019581484
0.0011797449
0.00019866493
0.0012018976
0.0002068347
0.0012263263
0.00020686253
0.0012521325
0.00021953614
0.0012841783
0.00022230717
0.0013078696
0.00022697851
0.001335689
0.00022698736
0.00022947326
0.0013581733
0.0010646081
-0.00012675885
0.0010643812
3.3116074e-05
0.0010496108
8.0533044e-05
0.0010182082
9.8092446e-05
0.00097486599
0.00011356809
0.00095546755
4.1385528e-05
0.00097428873
-2.8961121e-05
0.0010062143
-6.5142854e-05
0.0010242791
-8.7941141e-05
0.0010259611
-0.00010380476
0.0010128977
-0.00011859528
0.00098808457
-0.00012400777
0.00095226167
-0.00011761381
0.00090960147
-0.00011061921
0.00087088794
-0.00011233419
0.00084475053
-0.00011955782
0.00082792828
-0.00011144919
0.00080998301
-9.2993365e-05
0.00078811628
-7.7525037e-05
0.00076645917
-6.7188717e-05
0.00074548609
-6.578639e-05
0.00072753981
-7.3985314e-05
0.00071552965
-8.5392038e-05
0.00071278334
-9.9224316e-05
0.0007179174
-0.00010624602
0.00073054395
-0.00010479112
0.00074988765
-9.7612741e-05
0.00077209204
-8.5394609e-05
0.0007948449
-7.0686035e-05
0.00081737688
-5.5262927e-05
0.0008399887
-3.9617824e-05
0.00086199774
-2.3514779e-05
0.00088341071
-6.0884006e-06
0.00090353589
1.0931869e-05
0.00092253574
3.1121807e-05
0.00094013744
4.7675132e-05
0.0009568268
6.8839399e-05
0.00097449634
8.4679657e-05
0.00099174303
0.0001026945
0.0010100512
0.00011373724
0.0010288214
0.00012953996
0.0010464872
0.00013502876
0.0010664083
0.00014974437
0.0010851983
0.00015294635
0.0011045282
0.00016327586
0.0011256317
0.00016688042
0.00114818
0.0001774533
0.001168836
0.0001772544
0.0011925634
0.00018831411
0.0012188084
0.00019097523
0.0012448652
0.0001980705
0.00126778
0.00019968344
0.0012958214
0.00020381577
0.0013135575
0.00020168609
0.000215617
0.0013519942
0.0010651466
-0.00013523597
0.0010650169
3.0171275e-05
0.0010500549
7.7697101e-05
0.0010185166
9.0961408e-05
0.0009744489
0.00010909611
0.00095459561
3.811121e-05
0.00097383647
-2.884802e-05
0.001006544
-6.124224e-05
0.0010254879
-7.9992604e-05
0.001027789
-9.5401703e-05
0.0010150186
-0.00011267339
0.00099080493
-0.00011168226
0.00095532746
-0.00010602585
0.0009125804
-9.8417149e-05
0.00087327145
-9.9654467e-05
0.00084712955
-0.00010792051
0.00083063059
-0.00010326916
0.00081280751
-8.6709621e-05
0.00079091605
-7.3288286e-05
0.00076869879
-6.4550318e-05
0.00074709789
-6.1339311e-05
0.00072869683
-6.8013319e-05
0.0007158012
-7.8203528e-05
0.00071251847
-8.9782805e-05
0.00071731666
-9.7137157e-05
0.00072949498
-9.6929031e-05
0.00074846753
-9.1178472e-05
0.00077057667
-7.9553309e-05
0.00079319233
-6.5679335e-05
0.00081561173
-5.2449265e-05
0.00083827363
-3.8137537e-05
0.00086034298
-2.3723316e-05
0.00088198489
-7.947158e-06
0.00090234348
7.1817099e-06
0.00092159261
2.5393688e-05
0.00093931565
4.1470263e-05
0.00095645312
6.1314843e-05
0.00097301514
7.5710793e-05
0.00099015429
9.4169152e-05
0.001007583
0.00010414746
0.0010248412
0.00011754101
0.0010433465
0.00012416731
0.0010611834
0.0001350172
0.0010789322
0.00013737191
0.001099109
0.00014866855
0.001118059
0.00014861596
0.001139245
0.00015893106
0.0011603471
0.0001585022
0.0011858161
0.00016934321
0.001205913
0.00016856802
0.0012349822
0.00017893685
0.0012513657
0.00017394831
0.0012823901
0.00018666466
0.0013087371
0.00018450499
0.00019390998
0.0013333701
0.0010655397
-0.00014212362
0.001065715
2.7244159e-05
0.0010506069
7.4490922e-05
0.0010187893
8.3747903e-05
0.00097394191
0.0001059015
0.00095365456
3.4565964e-05
0.00097332844
-2.817057e-05
0.001006815
-5.6765909e-05
0.0010265222
-7.3007259e-05
0.0010295338
-8.4473608e-05
0.0010174989
-9.8873339e-05
0.00099366974
-0.00010385029
0.00095852813
-9.8978295e-05
0.00091554075
-9.1652655e-05
0.00087550327
-9.391441e-05
0.00084929244
-0.00010098241
0.00083313018
-9.5021683e-05
0.00081541114
-8.1271706e-05
0.00079370924
-6.6732371e-05
0.00077126364
-5.7583922e-05
0.00074906905
-5.470928e-05
0.00073006902
-5.9792716e-05
0.00071628383
-7.0240839e-05
0.00071220595
-8.1838777e-05
0.0007164528
-8.9267844e-05
0.0007281285
-9.0163062e-05
0.00074690927
-8.4695068e-05
0.00076894005
-7.3925329e-05
0.00079135852
-6.1334609e-05
0.00081374162
-4.8334611e-05
0.00083639862
-3.5735451e-05
0.00085852078
-2.2735423e-05
0.00088001739
-9.2822398e-06
0.00090053003
3.9361016e-06
0.00092018512
1.9656329e-05
0.00093810722
3.3689543e-05
0.00095541393
5.2101649e-05
0.00097172721
6.4720327e-05
0.00098832447
8.2280705e-05
0.0010045519
9.1241067e-05
0.0010220023
0.00010555978
0.0010387503
0.00011009775
0.0010560744
0.00012131534
0.0010741747
0.00012401997
0.0010919279
0.00013353907
0.0011113859
0.00013444419
0.0011309642
0.00014293292
0.0011525408
0.00014326852
0.0011754454
0.00015442961
0.0011964519
0.00014904487
0.0012191917
0.00016108851
0.0012455348
0.00015893184
0.0012682692
0.00016614851
0.0012969913
0.00016651928
0.00016476916
0.0013114791
0.001065843
-0.00015044419
0.0010663108
2.3934722e-05
0.0010509394
7.1530371e-05
0.0010191501
7.6475842e-05
0.00097368494
0.00010227682
0.0009528871
3.2020448e-05
0.00097283414
-2.7916468e-05
0.0010070419
-5.1801509e-05
0.001027617
-6.7641374e-05
0.0010314671
-7.4796803e-05
0.0010197873
-8.9324406e-05
0.00099646498
-9.2712969e-05
0.00096172381
-8.7076155e-05
0.00091850733
-8.0153538e-05
0.00087782153
-8.1744256e-05
0.00085153587
-9.05256e-05
0.00083552226
-8.729178e-05
0.00081813005
-7.4782924e-05
0.00079661326
-6.299657e-05
0.00077388757
-5.4217758e-05
0.00075122426
-5.0760635e-05
0.00073159378
-5.429127e-05
0.00071702235
-6.1515187e-05
0.00071203524
-7.2751079e-05
0.00071561652
-8.0366236e-05
0.00072699133
-8.1397e-05
0.00074551068
-7.6819881e-05
0.00076725343
-6.6795969e-05
0.00078949743
-5.6144919e-05
0.00081170511
-4.5030566e-05
0.00083434132
-3.3448199e-05
0.00085627616
-2.203845e-05
0.00087765179
-1.0771768e-05
0.00089830664
1.008323e-06
0.00091817237
1.5115637e-05
0.00093646095
2.807478e-05
0.00095370026
4.4668427e-05
0.0009700117
5.7471264e-05
0.00098577585
7.2956016e-05
0.0010018012
8.181092e-05
0.0010178268
9.4346032e-05
0.0010342898
9.8613311e-05
0.0010510034
0.00010835841
0.001067931
0.00011000322
0.0010850354
0.00011672316
0.0011035216
0.00011815699
0.0011224376
0.0001250385
0.0011449953
0.0001261791
0.0011610431
0.00013110827
0.0011890965
0.0001346416
0.0012060356
0.00013866497
0.0012331845
0.00014111554
0.0012559453
0.0001452869
0.0012716691
0.00014326376
0.0001503351
0.0013029389
0.0010658831
-0.0001586514
0.0010669811
2.0158587e-05
0.0010515583
6.9214835e-05
0.0010194771
7.007233e-05
0.00097320649
9.9588318e-05
0.00095194449
2.8994281e-05
0.00097230154
-2.812292e-05
0.0010071139
-4.8451064e-05
0.001028622
-5.8940083e-05
0.0010331852
-6.565477e-05
0.0010220814
-7.9033425e-05
0.00099930484
-8.2952674e-05
0.00096488123
-8.1185383e-05
0.00092158368
-7.435238e-05
0.00088019268
-7.4653875e-05
0.00085362339
-8.0899464e-05
0.00083777414
-8.0963952e-05
0.00082063412
-6.8840187e-05
0.00079946728
-5.6849822e-05
0.00077661322
-4.815512e-05
0.00075348073
-4.4278635e-05
0.00073330592
-4.9504844e-05
0.00071788492
-5.505531e-05
0.00071201656
-6.5720901e-05
0.00071500513
-7.1873154e-05
0.00072600024
-7.226517e-05
0.00074414582
-6.8904804e-05
0.00076539504
-6.1476794e-05
0.00078742972
-5.1799584e-05
0.00080947517
-4.1527112e-05
0.00083199253
-3.0771492e-05
0.0008537108
-2.0952594e-05
0.00087511849
-1.0835964e-05
0.00089571614
-1.0162851e-06
0.00091567073
1.0687123e-05
0.00093424369
2.1834124e-05
0.00095186061
3.6088256e-05
0.00096776459
4.7077144e-05
0.00098346596
6.2376537e-05
0.00099859015
7.0755184e-05
0.0010139285
8.2290356e-05
0.0010295047
8.6415796e-05
0.0010455219
9.5845969e-05
0.0010608041
9.6182743e-05
0.0010785507
0.0001052883
0.0010949006
0.00010336684
0.0011147202
0.00011178269
0.0011323714
0.0001108093
0.0011541679
0.00011694752
0.0011749938
0.00011974812
0.0011968408
0.00012414437
0.0012179021
0.00012273922
0.0012410614
0.00012982178
0.0012596025
0.00012444961
0.00013635241
0.0012897188
0.0010658489
-0.00016837186
0.0010674975
1.5613236e-05
0.0010517603
6.709232e-05
0.0010199316
6.3419982e-05
0.00097322522
9.772124e-05
0.00095131719
2.6261047e-05
0.00097172969
-2.8439276e-05
0.0010072066
-4.5877284e-05
0.0010296014
-5.2781642e-05
0.0010349188
-5.5574826e-05
0.0010242304
-7.1623871e-05
0.0010018865
-7.3900516e-05
0.00096799444
-7.0867702e-05
0.00092473068
-6.3210553e-05
0.00088272801
-6.3630598e-05
0.00085570449
-7.0212331e-05
0.00084015283
-6.9754815e-05
0.00082330191
-6.0881177e-05
0.00080250727
-5.0393471e-05
0.00077950431
-4.347641e-05
0.00075570739
-4.0423654e-05
0.00073526248
-4.2965614e-05
0.00071896915
-4.6851393e-05
0.00071222275
-5.6851241e-05
0.00071447623
-6.3333417e-05
0.00072485831
-6.4836732e-05
0.00074234209
-6.3194555e-05
0.00076328886
-5.6107635e-05
0.00078518394
-4.7276527e-05
0.00080726099
-3.7608253e-05
0.00082949186
-2.8573391e-05
0.00085117586
-1.9552503e-05
0.00087237773
-1.1057949e-05
0.00089292393
-3.0126688e-06
0.00091284934
6.7184162e-06
0.00093149578
1.6732159e-05
0.00094911188
2.9294685e-05
0.00096518814
3.9568079e-05
0.00098039648
5.2963831e-05
0.00099483316
6.070895e-05
0.0010096427
7.2153333e-05
0.0010244608
7.5129895e-05
0.0010392868
8.3731826e-05
0.0010551368
8.4285004e-05
0.0010702145
8.9894216e-05
0.0010878679
9.1128982e-05
0.001105349
9.5620257e-05
0.0011220729
9.4483316e-05
0.0011471899
0.00010640251
0.0011617608
9.9550378e-05
0.0011837135
0.00010646756
0.0012078283
0.0001086488
0.0012218485
0.0001098231
0.0012537064
0.0001124137
0.0001150273
0.0012678831
0.001065247
-0.00017779857
0.0010679735
1.024763e-05
0.0010525921
6.4011904e-05
0.0010204457
5.667605e-05
0.00097277424
9.6939897e-05
0.00095027577
2.4259657e-05
0.00097101417
-2.873327e-05
0.0010070936
-4.3099706e-05
0.0010303416
-4.860792e-05
0.0010364131
-4.7161556e-05
0.001026427
-5.9370502e-05
0.001004605
-6.3510806e-05
0.00097125087
-6.2535954e-05
0.00092798338
-5.5852753e-05
0.00088523484
-5.6009753e-05
0.00085771737
-6.3378395e-05
0.00084231308
-6.3612468e-05
0.00082570468
-5.5918487e-05
0.00080527134
-4.6294113e-05
0.00078227366
-3.9211481e-05
0.00075826137
-3.5498363e-05
0.00073741605
-3.7475677e-05
0.00072042655
-3.922239e-05
0.00071271285
-4.9002779e-05
0.00071391747