/*--------------------------------*- C++ -*----------------------------------*\
| =========                 |                                                 |
| \\      /  F ield         | OpenFOAM: The Open Source CFD Toolbox           |
|  \\    /   O peration     | Version:  2406                                  |
|   \\  /    A nd           | Website:  www.openfoam.com                      |
|    \\/     M anipulation  |                                                 |
\*---------------------------------------------------------------------------*/
FoamFile
{
    version     2.0;
    format      ascii;
    arch        "LSB;label=32;scalar=64";
    class       volScalarField;
    location    "8";
    object      rho;
}
// * * * * * * * * * * * * * * * * * * * * * * * * * * * * * * * * * * * * * //

dimensions      [1 -3 0 0 0 0 0];

internalField   nonuniform List<scalar> 
62344
(
1.000388
0.99917493
0.99947787
0.99880784
0.99569786
0.98852227
0.98243561
0.98004101
0.97648306
0.97868723
0.97986152
0.98409127
0.98895192
0.98778732
0.98907822
0.99212224
0.99070136
0.9921371
0.99313364
0.99704118
1.0029779
1.0041651
1.0083452
1.0115454
1.0132069
1.0233395
1.0208073
1.0184779
1.0162198
1.0138799
1.0189774
1.0220545
1.0183079
1.006184
1.0133763
1.0310749
1.0327343
1.0200412
1.0110159
1.0133888
1.0126714
1.0198948
1.041362
1.0516734
1.0383154
1.0129199
1.0001324
1.0016599
1.0071822
1.0117438
1.0177079
1.0299822
1.048161
1.0575611
1.0426275
1.00037
1.0001002
0.99889436
0.99887656
0.99505734
0.98888828
0.98367655
0.9802424
0.97621608
0.97773912
0.98143325
0.98304063
0.98603862
0.98939049
0.99245656
0.99192487
0.98944091
0.9902983
0.99154415
0.99595067
0.99976256
1.0030499
1.0086704
1.0108453
1.0134593
1.0214598
1.0207149
1.0209096
1.0170292
1.0146532
1.0167353
1.0223344
1.019237
1.0064144
1.0102405
1.0224348
1.0297165
1.0222848
1.0098083
1.0075381
1.0183923
1.0317302
1.0414544
1.0335177
1.0221317
1.018036
1.0169525
1.0214432
1.0329724
1.0357412
1.0217231
1.0031121
0.99705341
1.0088605
1.0285187
1.0005512
1.0002831
0.99834496
0.99876171
0.9950429
0.98881158
0.98372517
0.98023898
0.9776887
0.9777357
0.98085845
0.9840715
0.98599393
0.98949885
0.9929126
0.99108584
0.9894956
0.99182427
0.99250165
0.99670766
0.9987958
1.0009962
1.0088215
1.0105952
1.0146038
1.0208343
1.0200214
1.0229345
1.0191025
1.0160314
1.0150601
1.0231092
1.0194298
1.0052416
1.0083618
1.0209911
1.0289373
1.0243104
1.0088573
1.0044848
1.0218612
1.0409483
1.0399344
1.0209501
1.0076959
1.012342
1.0274509
1.0384176
1.0465226
1.0410805
1.0180747
0.99017001
0.97079643
0.97277087
0.9977127
1.0007767
0.99958683
0.99830274
0.99872741
0.99593836
0.98898518
0.98313536
0.97998295
0.97839856
0.97812327
0.9790766
0.98444032
0.98791108
0.98831215
0.99009902
0.98909178
0.98933151
0.99267326
0.99208527
0.9961886
0.99942516
0.99937549
1.0078421
1.009882
1.0149517
1.0200442
1.0197074
1.0228289
1.0196759
1.0169834
1.0148125
1.0239955
1.0183125
1.0055103
1.0086172
1.0190676
1.025042
1.0213179
1.0101912
1.0030299
1.0233645
1.0459946
1.0409042
1.0143944
0.99632502
1.001939
1.0257309
1.0497722
1.0574126
1.0442989
1.0183135
0.99092876
0.97378624
0.96904467
0.98178969
1.0008192
0.99869885
0.99843911
0.998717
0.99631134
0.98922333
0.9829954
0.97960758
0.97778108
0.97790092
0.9792155
0.98466386
0.98789677
0.98735252
0.98897743
0.9896364
0.98987439
0.99210351
0.99014104
0.99405459
0.99966509
0.99964318
1.0069565
1.0097439
1.0156368
1.0196789
1.0212064
1.0229896
1.0195026
1.0172373
1.0156436
1.0253313
1.0162906
1.0054865
1.0088761
1.0195626
1.0232452
1.019384
1.0099016
1.0042975
1.0218176
1.0453016
1.0418583
1.0162082
0.99527232
0.99606406
1.0192699
1.0489524
1.0615076
1.0497144
1.0235712
1.000418
0.9878284
0.9867259
0.99210682
1.000587
0.99856091
0.99827749
0.99889537
0.99613656
0.98929424
0.98364471
0.97995833
0.97716734
0.97703928
0.98087532
0.98434409
0.98547894
0.98699002
0.98974172
0.99057263
0.99005951
0.9907722
0.98876947
0.9922574
0.99845664
0.99997551
1.00579
1.0094043
1.0163641
1.0192658
1.0231038
1.0244707
1.0196744
1.0170591
1.0173814
1.0261493
1.0145624
1.00459
1.0086522
1.0202127
1.0229697
1.016575
1.0087119
1.0081074
1.01972
1.0365747
1.0372536
1.0208013
1.0025886
1.0009506
1.0137966
1.0361426
1.0517242
1.0489887
1.0331747
1.0155892
1.0070448
1.0071942
1.0099888
1.0003375
0.9989861
0.99812428
0.99916615
0.99578198
0.98915847
0.9844915
0.98087446
0.97732593
0.97666224
0.98189043
0.98327503
0.98314271
0.98730495
0.99124793
0.99053582
0.98972202
0.98999293
0.98941122
0.99287972
0.99753312
1.0003516
1.0052439
1.0092107
1.0166569
1.0188579
1.024593
1.026026
1.0206085
1.0167025
1.0194468
1.0264864
1.0136869
1.0038505
1.008957
1.0202832
1.0232302
1.0154411
1.0070596
1.0126103
1.0205902
1.0264684
1.0258403
1.0230355
1.0141389
1.0128331
1.0168893
1.0221355
1.0295144
1.0360197
1.0371918
1.0333978
1.0299056
1.0280177
1.0248291
1.0002141
0.99945715
0.99831006
0.99926244
0.99530142
0.98883273
0.98482382
0.9814875
0.97776482
0.97663291
0.98083358
0.98218224
0.98272119
0.98787701
0.9920624
0.98990738
0.98883377
0.98963365
0.99048447
0.99471829
0.99723459
1.0004791
1.0054036
1.0092189
1.0162225
1.0180273
1.0251643
1.0265267
1.0204153
1.0162709
1.0219023
1.0262056
1.0128503
1.0033634
1.0090748
1.0197828
1.0225361
1.0153556
1.0059324
1.0143779
1.0237442
1.0203649
1.0134178
1.0161729
1.0237301
1.0273295
1.0266445
1.0186239
1.008404
1.012261
1.0266618
1.0411033
1.0496726
1.0498242
1.0413769
1.0002212
0.99977865
0.99867382
0.99913616
0.99510175
0.98893069
0.98475132
0.98121614
0.9778392
0.97701572
0.9789165
0.98190448
0.98392615
0.98855464
0.99171912
0.98957116
0.98833997
0.98977267
0.99126891
0.99547615
0.99681912
0.99961773
1.0052853
1.0091626
1.0156749
1.0171572
1.0249932
1.0267757
1.0195422
1.0155517
1.0242167
1.0262093
1.0119179
1.0035878
1.0099876
1.019248
1.0209874
1.0151174
1.0059284
1.0137693
1.0263422
1.0203669
1.0066986
1.0048155
1.0237147
1.0391956
1.0403555
1.0253746
1.0019068
0.99261154
1.0074023
1.0322387
1.0555741
1.0663276
1.0590999
1.0002994
0.99987661
0.99903959
0.99883691
0.99523321
0.98927144
0.9845142
0.98041228
0.97762209
0.97796424
0.97802079
0.98217894
0.9860468
0.98872113
0.99046725
0.99009654
0.98901971
0.9902715
0.991152
0.9945168
0.99555452
0.997802
1.0043811
1.0087616
1.0151365
1.0167317
1.0247266
1.0272098
1.0191931
1.0149124
1.0257211
1.0262981
1.0112566
1.0041098
1.0113455
1.0195075
1.0186945
1.0137555
1.00635
1.0127606
1.0271011
1.0227072
1.0060761
0.99781728
1.014514
1.0413544
1.0513785
1.0365342
1.0086266
0.98880234
0.99198293
1.0156871
1.0458159
1.068011
1.0717336
1.0003884
0.99981357
0.99918798
0.99871998
0.99562723
0.98967681
0.98442762
0.97988015
0.97756031
0.97873563
0.97820844
0.98289062
0.98727767
0.98796816
0.98932996
0.99078922
0.99012284
0.99083248
0.99059427
0.99275586
0.99413962
0.99601915
1.003106
1.0081202
1.0144857
1.0169872
1.0244898
1.0279322
1.0193559
1.0148815
1.026686
1.026236
1.011179
1.0049117
1.0129734
1.0205266
1.0173097
1.0113839
1.0064008
1.012924
1.0255782
1.0243499
1.0089781
0.99747142
1.0063544
1.0332738
1.0532956
1.0458894
1.020662
0.99828162
0.99121888
1.0030837
1.0279737
1.0537761
1.0680197
1.0005044
0.99970758
0.9991562
0.99883662
0.99604489
0.98999507
0.98448559
0.97989973
0.97755317
0.9785749
0.97924481
0.98350266
0.98673599
0.98698631
0.98899881
0.99128749
0.99056203
0.99090373
0.9898389
0.99162854
0.99344527
0.99517432
1.0021873
1.0074247
1.0138695
1.017439
1.0242133
1.0287212
1.0198176
1.0156315
1.0273548
1.0263082
1.0115704
1.0056322
1.0142395
1.0221084
1.0172902
1.0085556
1.0053822
1.0142583
1.0236855
1.0238912
1.0122088
1.0011036
1.0046106
1.0229275
1.0437531
1.0477143
1.0324483
1.0132545
1.0018135
1.002481
1.0136232
1.0318313
1.0496944
1.000597
0.99958519
0.99898653
0.99906605
0.9963555
0.99016456
0.98456027
0.98052716
0.97739092
0.97769017
0.98013913
0.98365875
0.98530661
0.98646794
0.98939256
0.99137685
0.98986361
0.9901738
0.98929648
0.99138655
0.99344236
0.99552181
1.0019173
1.0067422
1.0132091
1.0178201
1.0238999
1.0289753
1.0203989
1.01698
1.0277497
1.0262529
1.0120018
1.0062038
1.0148196
1.0236565
1.0186392
1.0063019
1.0032576
1.015339
1.0233984
1.0214976
1.0135523
1.0066018
1.0075058
1.0176449
1.029617
1.0391535
1.03803
1.0287848
1.017902
1.0115034
1.0101173
1.014675
1.0272793
1.0006646
0.99942782
0.99873809
0.99936477
0.99661883
0.99026289
0.9846279
0.98125821
0.97711447
0.97660507
0.98032127
0.98351703
0.98415186
0.98623509
0.99035016
0.99113366
0.98884245
0.98891475
0.98854868
0.99161995
0.99393416
0.99656958
1.0021907
1.0062088
1.0124872
1.0180627
1.0236188
1.0288029
1.0208255
1.0187376
1.0279742
1.0257305
1.012161
1.0066982
1.0149368
1.0245189
1.0209031
1.0052106
1.0008177
1.0148828
1.0241018
1.0196687
1.0121867
1.0099482
1.0128406
1.0177665
1.0201809
1.0245784
1.0335969
1.0379841
1.0351797
1.0266672
1.0165851
1.0080913
1.0098761
1.0007008
0.99927378
0.99850495
0.99966918
0.99677844
0.99026284
0.98467838
0.98169497
0.97692376
0.97585601
0.98024232
0.98320331
0.98370794
0.98623246
0.99129992
0.99058045
0.98819716
0.98786755
0.98782771
0.99191094
0.99442114
0.99726599
1.0022703
1.0055822
1.011695
1.0181425
1.0232277
1.0282519
1.0210086
1.020702
1.0280505
1.024749
1.012224
1.0072296
1.015015
1.0242582
1.0229553
1.005355
0.999375
1.0131785
1.0242646
1.0198961
1.0097867
1.0098104
1.0170015
1.021069
1.0177209
1.0138604
1.0209742
1.0363819
1.0462173
1.0432374
1.0289559
1.0126242
1.0027518
1.0006943
0.99919148
0.99831498
0.99982538
0.9968807
0.99023622
0.98478725
0.98169603
0.97693707
0.97583074
0.97989317
0.98264088
0.98372282
0.98649128
0.99165507
0.98997877
0.98820605
0.98748986
0.98734443
0.99206242
0.99453338
0.99705267
1.0018015
1.0048845
1.01097
1.0180302
1.0229602
1.0276437
1.0211908
1.0227137
1.0282721
1.0237853
1.0123206
1.007832
1.0149873
1.0233806
1.0239571
1.0067351
0.99915345
1.0113479
1.0231789
1.0209639
1.0084198
1.007144
1.0181751
1.0252214
1.0203196
1.0098142
1.0087931
1.0263039
1.0471276
1.0543346
1.0437874
1.0234546
1.006588
1.000683
0.99919585
0.99821872
0.99985757
0.99696478
0.99018705
0.98495075
0.98136259
0.97715769
0.97633465
0.9793147
0.9819499
0.98418391
0.98673609
0.99131239
0.98946166
0.98873568
0.98798585
0.98737861
0.99186344
0.99406337
0.99620985
1.0008744
1.0042048
1.0103474
1.0178183
1.0228079
1.0268929
1.0213126
1.0244977
1.0284536
1.0228475
1.0122677
1.0087349
1.0149232
1.0221574
1.0234782
1.0085196
1.0009234
1.0101857
1.0209921
1.0213316
1.0088756
1.0046338
1.0161152
1.026827
1.0234653
1.0107639
1.0029393
1.0139817
1.0385262
1.0561251
1.0540515
1.0364558
1.0163469
1.0006673
0.9992586
0.99823629
0.99980896
0.99702154
0.99022211
0.98517125
0.98093313
0.97758372
0.97716072
0.97861737
0.98133503
0.98465958
0.98689262
0.99048119
0.98899756
0.98970733
0.9892011
0.98796382
0.99143406
0.99322855
0.99493806
0.99977273
1.0034754
1.0097616
1.0175676
1.0226917
1.0259825
1.0214492
1.0259755
1.0288002
1.0222522
1.0119269
1.0099162
1.0151832
1.0210773
1.0218411
1.0100083
1.0037636
1.0100894
1.018603
1.0201233
1.0101623
1.0040831
1.0131615
1.0248339
1.0259188
1.0134421
1.0029617
1.0064977
1.0257063
1.0485281
1.056306
1.0464518
1.028733
1.000642
0.99933644
0.99836574
0.99973747
0.99702391
0.99028826
0.98536822
0.98057295
0.9780757
0.97781065
0.97809884
0.98092188
0.98500515
0.98684005
0.9896472
0.98874303
0.99062963
0.99040405
0.98877445
0.99090871
0.99236532
0.99371289
0.99871136
1.002629
1.0091267
1.0172005
1.0226695
1.0249354
1.0215501
1.0271537
1.0293079
1.0219676
1.0115864
1.0109142
1.0159312
1.0204076
1.0196713
1.01056
1.0068922
1.011285
1.0163931
1.0180063
1.0107761
1.0052037
1.0114659
1.0208363
1.0256232
1.0167381
1.0060071
1.0047327
1.0158635
1.0355217
1.0507668
1.0504713
1.0393595
1.0006197
0.99944043
0.99855723
0.99968442
0.99695404
0.99037471
0.9855546
0.98045164
0.97848015
0.97814224
0.97788509
0.98076037
0.98507349
0.98667686
0.98914092
0.98881726
0.99126548
0.99115038
0.98952468
0.99062341
0.99172145
0.99281823
0.99786259
1.0019816
1.0085618
1.0167504
1.0228009
1.0237895
1.0215658
1.0280386
1.0299735
1.0218681
1.011473
1.0116954
1.0170614
1.0203159
1.0169802
1.0105205
1.0097395
1.0136807
1.0152917
1.0153415
1.0098129
1.008011
1.0113654
1.0174885
1.0223743
1.0186405
1.0102859
1.0066554
1.0115011
1.0242005
1.0398781
1.0483
1.0458651
1.0005856
0.99955762
0.99877322
0.99965907
0.9968777
0.99050546
0.98565277
0.98054998
0.97868518
0.97812489
0.97793166
0.98085347
0.98481564
0.98653304
0.9889221
0.98915979
0.99147137
0.99118623
0.98988731
0.99051466
0.99137455
0.99238797
0.99732825
1.0014056
1.0079519
1.0161962
1.0230076
1.0227057
1.0215008
1.0285134
1.0305316
1.0218206
1.0114065
1.0121918
1.018087
1.02106
1.0145909
1.0092404
1.01192
1.0167474
1.0155349
1.0125811
1.0078389
1.010612
1.0129353
1.0163181
1.0182388
1.0174295
1.0141537
1.0105936
1.0115308
1.0177685
1.0282584
1.0405707
1.0469805
1.0005827
0.99969951
0.99899457
0.99964778
0.996812
0.99067203
0.98569471
0.9808621
0.97864237
0.97790164
0.97817066
0.9812155
0.98432786
0.98637206
0.98901708
0.98981719
0.9912093
0.99071913
0.98997394
0.99060647
0.9914374
0.9924518
0.99718853
1.0011687
1.007381
1.0156654
1.0231628
1.0216735
1.0215263
1.0286331
1.0313279
1.0221852
1.0114921
1.0124891
1.0193693
1.0219384
1.0133116
1.0076463
1.0132392
1.0197626
1.0175278
1.0105258
1.0055607
1.0115781
1.0160907
1.0172302
1.0158128
1.0140477
1.01587
1.0155526
1.0148156
1.0162944
1.0202551
1.0306691
1.043127
1.0005596
0.99983733
0.99921532
0.99964255
0.99677435
0.99081995
0.98564821
0.98128221
0.97850707
0.97749885
0.97855327
0.98174193
0.98365275
0.98620109
0.98928684
0.99062608
0.99077822
0.98992818
0.98963743
0.99070111
0.99168834
0.99280825
0.99733667
1.0010351
1.0069329
1.0149045
1.0234914
1.0209487
1.0209061
1.0284
1.0317985
1.0228394
1.0113529
1.012395
1.0203863
1.0232871
1.0128602
1.0057376
1.0132164
1.022386
1.0206717
1.0096037
1.003054
1.0107333
1.0190589
1.0197078
1.0153298
1.0108891
1.0146333
1.0194573
1.0200159
1.0184337
1.0169922
1.0222088
1.0358508
1.0005629
0.99994972
0.99939768
0.99963553
0.9967517
0.99097875
0.98556465
0.98173221
0.97837527
0.97708876
0.97899803
0.98224103
0.98297425
0.98603414
0.98967697
0.99153877
0.99032438
0.98897368
0.9892516
0.99087112
0.99206408
0.99357378
0.99775851
1.0009875
1.0064997
1.0143426
1.02373
1.0206102
1.0212384
1.0281117
1.0325582
1.0238096
1.0119816
1.0122368
1.0216024
1.0244934
1.0133613
1.0043746
1.0121872
1.0245098
1.0241602
1.0103947
1.0012019
1.0089871
1.0209115
1.023366
1.0164645
1.0090005
1.0119547
1.0211447
1.0251665
1.0228103
1.0171814
1.0172957
1.0280437
1.0005781
1.0000474
0.99958083
0.9996485
0.9967717
0.99119448
0.98556533
0.98219369
0.97831633
0.97686566
0.97943846
0.98265754
0.98244424
0.98592108
0.98995798
0.99218304
0.98992361
0.98801911
0.98870916
0.99090484
0.99248641
0.99402226
0.99796918
1.000932
1.0061675
1.0135827
1.0238767
1.0203477
1.02073
1.0276898
1.032933
1.0247165
1.0122916
1.0118796
1.0222444
1.0257573
1.014397
1.0032544
1.0103943
1.0258223
1.0273972
1.012113
1.000137
1.0065642
1.021037
1.0276461
1.0188871
1.0084431
1.0089439
1.0202646
1.0286644
1.0280101
1.0200718
1.0155241
1.0219289
1.0007197
1.0002366
0.99981735
0.99984004
0.99696047
0.99145835
0.98568785
0.98269159
0.97849763
0.97681074
0.97996961
0.98312557
0.98222247
0.98576224
0.99022685
0.99278049
0.98974206
0.98728983
0.98830658
0.99097245
0.99287128
0.99461852
0.99835875
1.0009305
1.0059141
1.0132847
1.0242084
1.0206534
1.0208233
1.0275434
1.033417
1.0259652
1.0129829
1.0114552
1.022151
1.0271063
1.0160125
1.0028847
1.0080076
1.0252237
1.0307256
1.0148781
1.0002
1.0027193
1.0190603
1.0297477
1.0222214
1.0087239
1.0059545
1.0164418
1.0285946
1.0314108
1.0242116
1.015788
1.0171033
1.0012865
1.0006982
1.0002712
1.0002822
0.99740788
0.99210976
0.98629854
0.98343318
0.97902727
0.97727221
0.98059273
0.98366031
0.9823977
0.98588429
0.99039066
0.99297823
0.98988067
0.98714572
0.98813681
0.9909214
0.99308049
0.99465695
0.998252
1.0007585
1.0056313
1.0122602
1.023989
1.0209266
1.0205624
1.026616
1.0336018
1.0272613
1.0144442
1.0111443
1.0207543
1.0278112
1.0177308
1.0047255
1.0057675
1.0222652
1.031339
1.0180782
1.0031284
1.0010507
1.0152518
1.02791
1.024503
1.0109004
1.005228
1.0121495
1.0254025
1.0305892
1.0265451
1.018115
1.0153184
1.0265875
1.0350843
1.044239
1.0510036
1.0543022
1.0527246
1.0464464
1.0361155
1.0241194
1.0121091
1.0035868
1.0017494
1.0088608
1.0240212
1.0435948
1.061779
1.068637
1.0576581
1.0394807
1.025728
1.0191443
1.0150773
1.0069795
1.0104967
1.0318555
1.0378906
1.003658
1.062767
1.0725887
1.0741068
1.0702137
1.062682
1.0531367
1.04254
1.0314138
1.02127
1.0159071
1.0171781
1.0255434
1.0402437
1.0564214
1.0680825
1.0664568
1.0525302
1.0327501
1.0129827
1.0016242
1.0005165
1.0077471
1.0229557
1.050327
1.0701004
1.0461674
0.98360336
1.077462
1.078125
1.0705791
1.0628618
1.0538452
1.0447285
1.0368243
1.0327471
1.0341782
1.0406444
1.0527185
1.0677165
1.0815019
1.0899947
1.0858721
1.0707346
1.0504959
1.0268501
1.0065098
0.98963421
0.9833974
0.99447113
1.0263474
1.0681722
1.0817106
1.0409728
0.98952105
1.0515026
1.0463362
1.0400064
1.0329556
1.0271663
1.0250328
1.027668
1.0352802
1.0482821
1.0648709
1.0810377
1.0929234
1.0971243
1.0917144
1.0828022
1.0719406
1.0574627
1.0396611
1.020179
1.0027233
0.99610963
1.0082033
1.0345319
1.0539667
1.0470617
1.0150877
1.005584
1.0187907
1.0112656
1.008372
1.0071326
1.0094267
1.0161502
1.0270024
1.0408816
1.0556365
1.0676058
1.0749615
1.0762526
1.0706256
1.063031
1.0568401
1.0517704
1.0478367
1.0428444
1.0338062
1.0304122
1.0368851
1.0549939
1.0601754
1.0395161
1.0002752
0.98211771
1.009703
0.99996873
1.0002222
1.0055633
1.0130954
1.0224874
1.0338385
1.0445541
1.0522472
1.0554645
1.0545988
1.0493779
1.0415711
1.0331479
1.0240319
1.016945
1.0136123
1.0146507
1.0180161
1.0260039
1.0468021
1.0789617
1.1031918
1.0922853
1.0415493
0.98746329
0.97641456
1.0075863
1.0166986
1.0250185
1.0377324
1.0481176
1.0563475
1.0610221
1.0618494
1.0596045
1.0544528
1.0471704
1.0382217
1.0271703
1.0148039
1.0032185
0.9938184
0.98803869
0.98640937
0.99190652
1.0099707
1.0416741
1.0796407
1.101382
1.0863873
1.0446512
1.0135658
1.0116405
1.0275989
1.0718638
1.0844103
1.0905358
1.0909129
1.0873148
1.0811651
1.0742856
1.0667741
1.0596582
1.0528049
1.0442358
1.0329222
1.0194915
1.0067691
0.99645584
0.99100599
0.99216359
1.0022741
1.0194717
1.035603
1.0446434
1.0440387
1.0316176
1.0239314
1.0404741
1.070358
1.0784799
1.1152015
1.1215957
1.1183548
1.1140684
1.1073203
1.0992438
1.0906845
1.0824612
1.0743643
1.0658033
1.0565372
1.0460884
1.0358025
1.025898
1.0201012
1.0219229
1.0327889
1.0483954
1.057374
1.0472513
1.0201954
0.98962502
0.97765133
0.98808788
1.0338428
1.1003456
1.1248919
1.1130232
1.112324
1.1094884
1.1045583
1.0990676
1.0938599
1.0885652
1.0828322
1.0770715
1.0718171
1.0661486
1.0596395
1.0537375
1.0523437
1.0586536
1.075157
1.0946958
1.1049928
1.0979488
1.0674071
1.0226991
0.98545728
0.97312641
0.98393422
1.018192
1.0762394
1.1025613
1.0878609
1.0858717
1.0822317
1.0773583
1.0708576
1.063597
1.057264
1.0528016
1.0507096
1.0498519
1.0517466
1.05732
1.0671186
1.0827956
1.1038588
1.1247537
1.1370863
1.1333715
1.1098299
1.0762936
1.0422937
1.025949
1.0222327
1.0271432
1.0324392
1.0418923
1.0270486
1.0647485
1.0594916
1.0555996
1.0495676
1.0418815
1.0343854
1.0275219
1.022466
1.0209009
1.0241626
1.0336495
1.0503746
1.0739726
1.1002727
1.1207058
1.1290295
1.12482
1.1090317
1.0875286
1.0666699
1.0609501
1.0776575
1.1025776
1.1080629
1.0825809
1.032996
0.97200212
1.0365099
1.0317418
1.0292076
1.024146
1.0179265
1.0121649
1.008528
1.009528
1.0164647
1.0302024
1.049444
1.0709457
1.0880978
1.0947557
1.0929044
1.0824022
1.0694466
1.0574496
1.0483966
1.0491781
1.0658743
1.1063549
1.1603847
1.17924
1.136762
1.0537248
0.97889901
1.0103174
1.006265
1.0049125
1.0020341
1.0000654
1.0009922
1.0072695
1.0190925
1.0364898
1.0572373
1.0760297
1.0873425
1.0871508
1.07682
1.0569651
1.0363865
1.0216443
1.0164177
1.0206965
1.0373442
1.0692287
1.1127756
1.1581615
1.1694831
1.1335374
1.0822728
1.0419315
0.99313501
0.9931302
0.99752166
1.002203
1.008906
1.0188582
1.0318727
1.0463811
1.0593146
1.0672781
1.0692206
1.0657744
1.0567086
1.0409079
1.0237538
1.0123771
1.0066762
1.0090864
1.0222834
1.0463888
1.0754611
1.1029748
1.1187812
1.1032676
1.0723709
1.065854
1.1016807
1.009894
1.0176143
1.0299076
1.0407869
1.0505422
1.0575822
1.0601163
1.0584916
1.0529516
1.0459006
1.0373976
1.0271875
1.0146185
1.002084
0.99619219
0.99655318
1.007482
1.0264294
1.0523042
1.0752918
1.084042
1.0803198
1.0680373
1.0428204
1.0231854
1.0317394
1.103413
1.0871359
1.0972449
1.1032392
1.1017061
1.0937646
1.080287
1.0646016
1.0492513
1.0351907
1.0220491
1.0101994
0.99894229
0.99147733
0.98880217
0.98898969
0.99741225
1.017029
1.0486817
1.0791338
1.0944578
1.0839475
1.0544346
1.0240722
1.008138
1.0081463
1.0309146
1.1041859
1.157805
1.1605157
1.1523351
1.1370538
1.1176082
1.0958229
1.0739564
1.0536828
1.0362615
1.0223923
1.0121937
1.0067715
1.0048633
1.0038247
1.0092523
1.0232351
1.0457132
1.0711476
1.0862593
1.0805665
1.0536247
1.0194633
1.0025234
1.0051618
1.0179517
1.0565834
1.1275155
1.1396295
1.1344979
1.1279775
1.1179558
1.1058247
1.0925339
1.0792336
1.067858
1.0592004
1.0538661
1.0519818
1.0513497
1.0519058
1.0571679
1.0659767
1.0772575
1.0860817
1.0878682
1.0748363
1.0464012
1.0089294
0.98250144
0.98688135
1.0184309
1.0560432
1.101465
1.1341988
1.0761812
1.0701228
1.0647457
1.0585853
1.0527315
1.0485051
1.0479942
1.0526932
1.0614822
1.0738193
1.088999
1.1072409
1.1264376
1.1422075
1.1496198
1.144876
1.1268924
1.0984578
1.0615118
1.0195057
0.98280372
0.96727942
0.98386396
1.0376744
1.1056014
1.1383003
1.1136928
1.0238371
1.0180519
1.0160954
1.013968
1.0115297
1.010056
1.0121282
1.0198223
1.0342035
1.0574235
1.0896077
1.1271648
1.1635844
1.1905218
1.1981792
1.1846369
1.1550831
1.1154261
1.0694282
1.0265504
0.99660225
0.98509894
1.0093635
1.0744803
1.138577
1.1399746
1.072484
0.99878643
0.99806176
0.9997402
1.0011805
1.001872
1.0033808
1.0073358
1.0158066
1.0301533
1.0511832
1.0772625
1.1059118
1.131284
1.1509251
1.15514
1.147607
1.1306893
1.1120313
1.0915303
1.0711054
1.0555306
1.0511306
1.0763356
1.1263056
1.1474087
1.0994733
1.0225048
1.0115975
1.0140519
1.0185087
1.0210234
1.0234283
1.0267173
1.031794
1.039675
1.0502387
1.0623213
1.0720668
1.0780428
1.0776609
1.0722356
1.064439
1.0550733
1.0517587
1.0611149
1.0821223
1.1099006
1.1359895
1.1585775
1.1781882
1.1840863
1.1381826
1.0512393
0.9819781
1.0620797
1.0664067
1.070317
1.0735117
1.0753919
1.075635
1.074258
1.0717345
1.0679657
1.0637947
1.0583246
1.0495812
1.0352932
1.0170787
0.9962435
0.98233745
0.98064234
0.99838593
1.039814
1.1032335
1.1789258
1.2410205
1.2562628
1.2256827
1.1407148
1.0348365
0.97488591
1.1423032
1.1460927
1.1471788
1.1443459
1.1356634
1.1217295
1.1052082
1.0884776
1.0722257
1.0572267
1.0423632
1.0267288
1.0086477
0.99024292
0.97229997
0.96067618
0.96028988
0.97904137
1.0222493
1.090026
1.1681227
1.2267323
1.2407414
1.212735
1.1512469
1.0678462
1.0164358
1.2197682
1.2164535
1.207271
1.1915706
1.1701622
1.1453132
1.1194145
1.0947466
1.0724733
1.0532433
1.036885
1.0216833
1.0057048
0.9918231
0.98283759
0.98115868
0.98924394
1.0129414
1.0547522
1.1019306
1.1354461
1.1440143
1.1406603
1.1330335
1.1323478
1.1179834
1.0993812
1.237569
1.2311793
1.2157672
1.1965501
1.1715136
1.1435347
1.116008
1.0917461
1.0728041
1.0591177
1.0487564
1.0394916
1.0325774
1.0294029
1.032301
1.0407505
1.060334
1.0832824
1.1092615
1.1184128
1.10308
1.0692321
1.0351809
1.0337658
1.0676534
1.1269351
1.1909029
1.1977632
1.1899011
1.1777019
1.1609937
1.1412209
1.1200927
1.1001425
1.0835546
1.0723159
1.0670322
1.0676264
1.0733829
1.0835612
1.0980778
1.1161063
1.1371453
1.1536957
1.1622719
1.1532282
1.1220858
1.0757663
1.0223053
0.97439401
0.96613185
1.0056316
1.0963246
1.246507
1.1355754
1.1309645
1.1209244
1.1080784
1.0939674
1.0805149
1.0700834
1.0644602
1.0646175
1.0728217
1.0898215
1.1154771
1.1484306
1.183694
1.2164403
1.2378221
1.2380659
1.2153747
1.1742525
1.1219485
1.0605066
1.0015651
0.95401433
0.94241472
0.98115399
1.0824565
1.257235
1.0793147
1.0762426
1.068171
1.0584645
1.0487917
1.0409967
1.0374206
1.0415904
1.0554758
1.0804453
1.1176418
1.1650484
1.2168941
1.2629263
1.2941784
1.3027542
1.2778308
1.2347933
1.1817149
1.1237457
1.0612751
1.0052012
0.96056952
0.95437217
0.99987653
1.1029429
1.2494753
1.0426437
1.0402291
1.0326746
1.0245791
1.0184692
1.015821
1.0199558
1.0331623
1.0590357
1.1000257
1.1546302
1.2161195
1.2718611
1.3082598
1.3220974
1.3070646
1.2698081
1.2284087
1.1825639
1.1297476
1.0803574
1.0313565
0.99186655
0.99682162
1.0491022
1.1443226
1.2385348
1.0340509
1.0321063
1.0243324
1.0171603
1.0141246
1.0168384
1.027909
1.0494694
1.083921
1.1315373
1.1883553
1.2435624
1.2873588
1.3078905
1.3021209
1.2719535
1.236741
1.2038782
1.172838
1.143004
1.1109558
1.0758453
1.0508823
1.0686
1.1212505
1.1949203
1.2191298
1.0621412
1.06085
1.0524016
1.0447381
1.0422506
1.0470262
1.0591858
1.0813015
1.1146355
1.1564051
1.2013524
1.2421459
1.2689192
1.275592
1.259318
1.2310569
1.2027457
1.1789923
1.1621932
1.1535936
1.1427757
1.132241
1.1350706
1.162545
1.206897
1.2279464
1.1874859
1.1230249
1.1230646
1.1132086
1.1016714
1.0938411
1.0923204
1.0988128
1.1135366
1.1356936
1.1639629
1.1951925
1.2221432
1.2348547
1.2320254
1.2161433
1.1948215
1.1731907
1.159308
1.1563638
1.1632362
1.1737136
1.194005
1.2282933
1.2678263
1.2818238
1.2415015
1.1514957
1.2041999
1.2030406
1.1891415
1.1699411
1.1510833
1.1361876
1.1281948
1.1299532
1.1401636
1.1564686
1.1782545
1.1959124
1.2021685
1.1977074
1.1837188
1.1664058
1.1511301
1.1469786
1.1538012
1.1725343
1.2041514
1.2528988
1.3126933
1.3526423
1.3294754
1.2384944
1.1257806
1.2897674
1.2823153
1.2569744
1.2240775
1.1914304
1.1639037
1.1449672
1.1374261
1.1383435
1.1487629
1.1636443
1.1757245
1.1795584
1.1732804
1.1615851
1.1480759
1.139526
1.1427917
1.1570015
1.1841464
1.2293867
1.2943153
1.3632669
1.3968741
1.3486238
1.2356905
1.1168098
1.3657558
1.3485711
1.3074762
1.2598292
1.2158637
1.1806085
1.1565274
1.1448524
1.1425553
1.1511745
1.1622921
1.1694708
1.1690257
1.162312
1.1521603
1.1408616
1.135962
1.1436484
1.1642143
1.1967073
1.2442311
1.3068016
1.3715299
1.4044803
1.3584666
1.2481334
1.1314964
1.4272308
1.4003557
1.3437181
1.2831771
1.2314882
1.1925847
1.1680613
1.1566925
1.1571252
1.1657243
1.1754709
1.17946
1.1748655
1.1652644
1.1517734
1.140955
1.1400686
1.152582
1.1759906
1.2066714
1.2447532
1.2956518
1.3529692
1.3954951
1.3766334
1.2844806
1.1658051
1.4661644
1.434873
1.3691331
1.2985113
1.2408619
1.2010194
1.1795714
1.1719919
1.1775736
1.1906454
1.2025451
1.2056064
1.1984369
1.1853614
1.1668357
1.1526702
1.1497429
1.1616564
1.1832401
1.2068154
1.2343052
1.275613
1.3310311
1.390773
1.4060367
1.3351574
1.2144735
1.4708537
1.4421553
1.3787217
1.3070886
1.2473903
1.2079016
1.1898734
1.1874384
1.1993616
1.2189051
1.2356177
1.2398211
1.2313364
1.214675
1.191017
1.1703171
1.1639499
1.1726215
1.1901503
1.207679
1.2262238
1.2593438
1.3133593
1.3896461
1.4367224
1.3883077
1.2615567
1.4523609
1.427251
1.3699405
1.3046025
1.2490831
1.2126173
1.1983654
1.2016147
1.2185485
1.2432073
1.2631151
1.2683426
1.258983
1.2392184
1.212887
1.1892376
1.1810721
1.1874894
1.2022267
1.2147369
1.224258
1.2467291
1.2979993
1.3862624
1.4636614
1.4386809
1.3035752
1.4340469
1.4109551
1.3581284
1.2988245
1.2491439
1.2170468
1.2059718
1.2132025
1.2315727
1.2581421
1.279576
1.2859696
1.277115
1.2577883
1.2312929
1.2087446
1.2010984
1.2037045
1.2129436
1.2179223
1.2179666
1.2328628
1.2838736
1.383351
1.4872727
1.4849773
1.3424951
1.417545
1.3957294
1.3452693
1.2905908
1.2463823
1.2189257
1.2114642
1.2218019
1.2419747
1.2700019
1.2923597
1.298831
1.2904434
1.2715816
1.2483786
1.2316107
1.2284313
1.2300788
1.228614
1.2205755
1.212576
1.2180833
1.2684685
1.376712
1.4993409
1.5223374
1.3900569
1.416953
1.3908737
1.3341924
1.276498
1.2342987
1.2115296
1.2093887
1.2247606
1.2494572
1.2821333
1.3088422
1.3191141
1.3115378
1.2944219
1.2753368
1.2640603
1.2630167
1.2605978
1.2485835
1.2299905
1.2102049
1.2138533
1.2585605
1.3588534
1.4846584
1.533315
1.4350588
1.4241599
1.391211
1.324556
1.2595655
1.2152415
1.194236
1.1966793
1.2185966
1.2531702
1.2956005
1.3311786
1.350431
1.3491147
1.3359609
1.3197537
1.3112297
1.3102969
1.3037122
1.2801403
1.2465137
1.2181794
1.2137383
1.248744
1.3277222
1.4325523
1.4974658
1.4571745
1.4358215
1.3957005
1.3175076
1.2426147
1.1927114
1.1701082
1.1748322
1.2028352
1.2474585
1.3026476
1.3542546
1.3905553
1.4058491
1.4048631
1.3944001
1.3845303
1.3779794
1.3584443
1.319635
1.2690925
1.227633
1.2116392
1.2336581
1.2831686
1.3546627
1.4229068
1.4454825
1.4501177
1.4024343
1.3143374
1.2292525
1.1718497
1.1456388
1.1492463
1.1807752
1.2330348
1.3012013
1.3716367
1.4318448
1.474335
1.4962778
1.4978811
1.4854923
1.459087
1.4188906
1.3597513
1.2950193
1.2445107
1.2181573
1.2208435
1.2392032
1.2728513
1.3248829
1.3918741
1.4715108
1.4168206
1.3200147
1.2271891
1.1627811
1.133349
1.1361903
1.1665362
1.219107
1.2925145
1.3756868
1.460412
1.5372767
1.5873195
1.6079837
1.5916707
1.5483118
1.4831988
1.4084129
1.3341206
1.273958
1.2381236
1.2179153
1.2051783
1.2054853
1.2334779
1.3116362
1.5125821
1.4441514
1.3348186
1.2366929
1.1737717
1.1478962
1.1539664
1.1843541
1.2345815
1.3028612
1.382026
1.468173
1.5559854
1.6273198
1.669432
1.6766087
1.6381025
1.5700552
1.4842604
1.3972663
1.3148948
1.2596335
1.2156399
1.1809452
1.1647451
1.1738338
1.2361654
1.6248159
1.5337895
1.4007196
1.2905084
1.2257699
1.2039858
1.2140482
1.2432998
1.2891123
1.3421778
1.3980136
1.4560907
1.5227966
1.5901432
1.6507938
1.6936253
1.7078247
1.6713533
1.583272
1.4720468
1.3617899
1.2706005
1.2094881
1.1685503
1.1521071
1.1487148
1.1893426
1.8417492
1.7108276
1.5291055
1.3895989
1.3126323
1.2910381
1.2970436
1.3240615
1.3611282
1.3957776
1.4259951
1.4509594
1.483089
1.525481
1.5825439
1.6508379
1.7132797
1.7277143
1.6616589
1.5348537
1.3984661
1.2847141
1.2107945
1.1671648
1.1509177
1.1471183
1.1820421
2.1402231
1.9523634
1.7020505
1.5214407
1.42324
1.3878077
1.3869617
1.4128222
1.4448368
1.4681347
1.481475
1.4873966
1.4925364
1.5033624
1.5271139
1.5692619
1.6238439
1.6651819