/*--------------------------------*- C++ -*----------------------------------*\
| =========                 |                                                 |
| \\      /  F ield         | OpenFOAM: The Open Source CFD Toolbox           |
|  \\    /   O peration     | Version:  2406                                  |
|   \\  /    A nd           | Website:  www.openfoam.com                      |
|    \\/     M anipulation  |                                                 |
\*---------------------------------------------------------------------------*/
FoamFile
{
    version     2.0;
    format      ascii;
    arch        "LSB;label=32;scalar=64";
    class       volScalarField;
    location    "8";
    object      rho_0;
}
// * * * * * * * * * * * * * * * * * * * * * * * * * * * * * * * * * * * * * //

dimensions      [1 -3 0 0 0 0 0];

internalField   nonuniform List<scalar> 
62344
(
1.0003919
0.9990744
0.99924625
0.99880825
0.99574936
0.98885322
0.9825168
0.98011905
0.976378
0.97845518
0.98003699
0.98355164
0.9890164
0.98845759
0.98890474
0.99200914
0.99069526
0.99204408
0.9926278
0.99653889
1.0024938
1.0045875
1.0078683
1.0118006
1.0122217
1.0225859
1.0218912
1.0189664
1.0171423
1.0136115
1.0187163
1.0222039
1.0205363
1.0069826
1.0105515
1.0295388
1.0351544
1.0238643
1.0121508
1.0133805
1.0129717
1.0153428
1.035684
1.052001
1.0460359
1.0213957
1.0018979
0.99916603
1.0032279
1.0076874
1.0131004
1.0248646
1.0443
1.0611474
1.0554971
1.0003021
0.99994151
0.99873743
0.99888749
0.9951859
0.98896095
0.98372418
0.98040843
0.97639914
0.97723065
0.98130775
0.98328489
0.98555518
0.98901256
0.9923748
0.99264179
0.98992576
0.99057436
0.99118242
0.9956272
0.99928744
1.0027617
1.0082104
1.0112694
1.0128601
1.0212612
1.0213895
1.0213079
1.0183967
1.0147319
1.0169216
1.0217778
1.021754
1.0074949
1.0090784
1.0205864
1.0302002
1.0252074
1.0123459
1.0069552
1.0152015
1.02764
1.0404158
1.0374514
1.0258613
1.019783
1.0175863
1.0183064
1.0281399
1.0355761
1.0278427
1.0102177
0.99971752
1.0063471
1.0250653
1.0004848
1.0001269
0.998279
0.9987078
0.99525973
0.98882852
0.98369262
0.98024296
0.97770129
0.97764832
0.98058346
0.98409392
0.98586131
0.98900967
0.99297859
0.99148233
0.98950807
0.99171208
0.99257322
0.99675683
0.99918652
1.0005581
1.008217
1.0108765
1.0139014
1.020951
1.0202652
1.0228401
1.0201847
1.0164158
1.0152914
1.0221062
1.0221244
1.0068669
1.0071257
1.01883
1.0289454
1.026744
1.0123475
1.0034849
1.0169339
1.0379413
1.0426118
1.0266116
1.0102422
1.0101755
1.0239196
1.0355613
1.0446926
1.045465
1.0282377
1.001271
0.97723769
0.96997551
0.98679007
1.0007433
0.99955354
0.99822465
0.99864621
0.99606706
0.98910756
0.98314545
0.97988255
0.97829115
0.97833579
0.97898903
0.98391896
0.98794688
0.98851594
0.99050056
0.98914451
0.98896795
0.99236196
0.99220938
0.99594822
0.99987383
0.99925756
1.0073419
1.0101895
1.0142485
1.0202681
1.0197011
1.0227301
1.0203092
1.0175621
1.0146517
1.0231585
1.0209304
1.0068691
1.0075962
1.0176322
1.0251011
1.0230535
1.013398
1.0021326
1.0174347
1.0433979
1.0457947
1.0222461
0.99919039
0.9982739
1.0182551
1.0441938
1.0580954
1.0513114
1.0289797
1.0004863
0.97884742
0.96868163
0.97403885
1.0008421
0.99870698
0.99831564
0.9986442
0.99640409
0.98945212
0.98310307
0.97961578
0.97761386
0.97787652
0.97907155
0.98404007
0.9880664
0.98763735
0.98920767
0.98968027
0.98991812
0.99214914
0.99042871
0.99343072
0.99953343
0.99957348
1.0064498
1.0097485
1.0150724
1.0199463
1.0212034
1.0234562
1.0200452
1.0181446
1.0149928
1.0249857
1.0191899
1.0063903
1.0078621
1.018313
1.0236418
1.0209504
1.0123841
1.0037658
1.0159004
1.0424561
1.0467769
1.0245666
0.99927833
0.99295781
1.0104892
1.0412513
1.061359
1.0573874
1.0337938
1.007495
0.99013527
0.98466124
0.98762588
1.0006436
0.99848936
0.99814418
0.99879564
0.99620168
0.98958807
0.98373852
0.98003904
0.97712179
0.97665998
0.98043954
0.98427699
0.98582259
0.98689657
0.98956874
0.99058056
0.99043957
0.99122988
0.98902315
0.99173028
0.99789049
0.99973361
1.0053013
1.0089622
1.0158131
1.019354
1.0228209
1.0252998
1.0204181
1.0181257
1.0163779
1.0264534
1.0176124
1.005373
1.0072976
1.018879
1.0238076
1.0186643
1.0100651
1.0072821
1.0158291
1.0342061
1.0403029
1.0274063
1.0064857
0.99921413
1.0079332
1.0292041
1.0498098
1.0533547
1.0407127
1.0213583
1.0079471
1.0048433
1.0067943
1.0003563
0.99884445
0.99793351
0.99906762
0.99590276
0.98938788
0.9845107
0.98090057
0.97752344
0.97614569
0.98155093
0.98381195
0.98334359
0.986902
0.99090484
0.99065517
0.98986105
0.99039088
0.98940846
0.99263398
0.99699389
1.0000315
1.0049901
1.0086408
1.0161198
1.0187988
1.0240607
1.0268786
1.0214688
1.0176591
1.0183123
1.0272671
1.0166441
1.0045825
1.0074156
1.0188534
1.0240741
1.0179764
1.0079238
1.010708
1.0188943
1.0262163
1.0271038
1.0256863
1.0167356
1.0119619
1.0147985
1.0201037
1.0276593
1.0357433
1.0391862
1.0358097
1.0310308
1.0276478
1.0251544
1.0001694
0.99930157
0.99806813
0.99919251
0.99554798
0.98890193
0.98481216
0.98151941
0.97809966
0.97644811
0.98079678
0.98262444
0.98263093
0.98732745
0.99190872
0.99039108
0.98866671
0.98972142
0.9900199
0.99443105
0.99712926
1.0001497
1.0053991
1.0088352
1.0159055
1.0179356
1.0243563
1.027415
1.0213734
1.0169081
1.0207117
1.0275306
1.0157015
1.0040191
1.0074819
1.0183156
1.0231871
1.0180008
1.00687
1.0115319
1.0232369
1.0225504
1.0150869
1.0149756
1.022424
1.0269346
1.0270241
1.0218243
1.0107107
1.0103057
1.0226911
1.0374118
1.0480053
1.0509489
1.0454915
1.0001299
0.99956493
0.99845128
0.99912021
0.99539678
0.98886704
0.9847657
0.98131256
0.97801562
0.97716329
0.9789713
0.98193224
0.98351483
0.98806181
0.99184066
0.99024452
0.98806635
0.98958954
0.99072582
0.99516385
0.99715149
0.99933154
1.0053074
1.0088984
1.015612
1.0170145
1.0241187
1.0276074
1.0209461
1.0157206
1.0229782
1.0279483
1.0147834
1.0040829
1.0083793
1.0181732
1.0214776
1.0173695
1.0072594
1.0106531
1.0256622
1.0236093
1.0104255
1.0027801
1.0182254
1.036459
1.0422313
1.0315625
1.0092102
0.99312961
1.0009286
1.0235966
1.0482914
1.0649023
1.0644494
1.0001935
0.99965922
0.99888537
0.9988556
0.99544374
0.98920885
0.98453905
0.98050805
0.97749785
0.97808827
0.97798566
0.98176315
0.98553786
0.98864423
0.99072704
0.99041927
0.98884846
0.99003446
0.99097781
0.99421853
0.99614787
0.99739814
1.0041203
1.0083943
1.0151269
1.0165139
1.0239134
1.027978
1.0209456
1.0146129
1.0243775
1.0282305
1.0141634
1.0043524
1.0097
1.0189354
1.0194976
1.0155365
1.0077546
1.0099273
1.0257702
1.0259044
1.0110034
0.99747894
1.0078482
1.0348051
1.051918
1.0441655
1.0181757
0.99325218
0.98782448
1.0054228
1.0349142
1.0616128
1.0737069
1.0002861
0.9995915
0.99908837
0.99871036
0.99571343
0.98974777
0.98446339
0.97998736
0.97719866
0.97873896
0.97817983
0.98225032
0.98708102
0.98834778
0.98941904
0.99061977
0.99006198
0.99066162
0.99092215
0.99255422
0.99459195
0.99552637
1.0025267
1.0074975
1.0143101
1.0166789
1.0237113
1.0286496
1.0212643
1.0142952
1.0253078
1.0283157
1.0141099
1.0048727
1.0112846
1.0203078
1.0188182
1.0127642
1.0073807
1.0105962
1.0239181
1.0269108
1.0138289
0.99872036
1.0016113
1.0249452
1.0506953
1.0521832
1.0303817
1.0045189
0.9909288
0.99616749
1.0173579
1.0449424
1.0648396
1.0004129
0.99951554
0.99908553
0.99879875
0.99603855
0.99019565
0.98454984
0.98006569
0.97716659
0.97864244
0.97912032
0.98302753
0.98696339
0.98738801
0.98887164
0.99085987
0.99066809
0.99085537
0.99033044
0.99147536
0.99362428
0.99473372
1.0014986
1.0066664
1.0135108
1.0171051
1.0234919
1.0293988
1.0218368
1.0149601
1.0260955
1.0284381
1.0144003
1.0054147
1.0125289
1.0220414
1.0194086
1.0104206
1.0054176
1.0122207
1.022554
1.0253824
1.01603
1.0032206
1.0017542
1.0170066
1.0388286
1.0502722
1.039691
1.0197076
1.0039895
1.0001017
1.0079064
1.0243933
1.0437946
1.0005412
0.99944416
0.99890686
0.99903962
0.99631359
0.9904512
0.98463501
0.98066551
0.97730397
0.97768622
0.97992368
0.98357244
0.98564927
0.98656565
0.98918539
0.99100293
0.99019671
0.99017779
0.9896069
0.99126994
0.99337923
0.99507708
1.0013317
1.0060642
1.0127481
1.0175309
1.0232382
1.0296372
1.0224178
1.016335
1.026694
1.0282399
1.0147164
1.0059955
1.0130729
1.0234871
1.0210542
1.0091482
1.0024117
1.0130773
1.0229337
1.022989
1.0156749
1.0083324
1.0061369
1.0148309
1.0262656
1.0378715
1.0404739
1.0330035
1.0215111
1.0126533
1.0097206
1.0118291
1.0222707
1.0006405
0.99934074
0.9986261
0.99934659
0.99660873
0.99052104
0.98468222
0.98132651
0.97742252
0.97645605
0.98004202
0.9836694
0.98437339
0.98604876
0.99007544
0.99119413
0.98930898
0.98901048
0.98858269
0.99142133
0.99364763
0.9961228
1.0018446
1.005827
1.011995
1.0177972
1.023031
1.0294504
1.0227149
1.0180887
1.0272524
1.0276598
1.0147393
1.0066312
1.0131293
1.0240781
1.0233826
1.0090717
0.9997383
1.0120734
1.0239051
1.0216803
1.0135429
1.010107
1.0122273
1.0168732
1.0201448
1.0228544
1.0312363
1.037874
1.0373871
1.0302101
1.0201823
1.0106838
1.0080214
1.0007085
0.99921814
0.99834722
0.99962416
0.99686546
0.99048725
0.98471258
0.98174539
0.97743405
0.9755062
0.97987013
0.98344661
0.98386312
0.98580972
0.99099584
0.99113965
0.98869277
0.98809415
0.98757007
0.99154008
0.99403896
0.99685782
1.002111
1.0055157
1.0112038
1.0179448
1.0226995
1.0288839
1.0226764
1.0199679
1.027712
1.026744
1.0146004
1.0073611
1.0133092
1.0234953
1.0253646
1.0097533
0.99877458
1.0097503
1.0236906
1.0224294
1.011757
1.008721
1.0153846
1.0214746
1.0197889
1.0145428
1.0174026
1.0315612
1.0445045
1.0461685
1.0353466
1.0190846
1.00537
1.0007251
0.99914612
0.99812053
0.99973748
0.99705484
0.99040023
0.98479995
0.98172969
0.97741932
0.97536777
0.97955173
0.98280507
0.98389187
0.98592232
0.99146714
0.99072469
0.98862623
0.98783598
0.98691375
0.99157809
0.99424654
0.99671821
1.0016823
1.0049272
1.0104196
1.0178329
1.0224402
1.0282312
1.0225143
1.0218584
1.028367
1.0258011
1.0144477
1.0080251
1.0136205
1.0222517
1.0261204
1.0111793
0.99906317
1.0081281
1.0216489
1.0236316
1.0115246
1.0058666
1.0150887
1.025124
1.0232858
1.0132976
1.0072301
1.0191977
1.0409867
1.0539938
1.0501031
1.0321166
1.0125565
1.0007199
0.99914216
0.99799824
0.99970225
0.99721772
0.99031737
0.9849617
0.9813988
0.97742458
0.97595871
0.97908696
0.9819798
0.98427593
0.98625727
0.99127517
0.99009159
0.98886381
0.98834226
0.98692823
0.99135311
0.99398448
0.99590105
1.0006882
1.0041808
1.009695
1.0175125
1.0223156
1.02743
1.0222371
1.0236525
1.0289802
1.0248851
1.0142047
1.0087883
1.0139699
1.0210586
1.0253038
1.0126267
1.0011122
1.0076865
1.0189816
1.0234522
1.0125555
1.0040922
1.0121808
1.0255427
1.0264729
1.0154643
1.0040891
1.0081288
1.0295383
1.0519617
1.0576291
1.0450931
1.0242381
1.0006974
0.99918356
0.99800252
0.99958784
0.99732985
0.99031257
0.98517833
0.98095835
0.97756106
0.9769462
0.97863443
0.98118232
0.98463643
0.98670121
0.99058646
0.98945533
0.98948168
0.98947683
0.98771779
0.99101763
0.99331396
0.99466749
0.99942142
1.0033205
1.0089995
1.0170924
1.0222299
1.0265391
1.0219772
1.0251542
1.0295772
1.0243002
1.0136587
1.0098362
1.0144815
1.0202504
1.0232417
1.0133436
1.0040437
1.0085574
1.0166806
1.021474
1.01365
1.0042529
1.0097434
1.0223197
1.0278443
1.0184642
1.0055194
1.0034184
1.0176691
1.0413235
1.0561585
1.0523785
1.0364461
1.0006643
0.99923169
0.9981217
0.99948304
0.99734772
0.99036805
0.98538738
0.98058621
0.97781005
0.97776942
0.97834192
0.98057832
0.98489078
0.98690004
0.98986406
0.98889312
0.9900997
0.99057963
0.98872841
0.99067684
0.99254907
0.99344527
0.99825447
1.0023911
1.0082577
1.0165801
1.0222251
1.0255252
1.0217098
1.0263501
1.0302064
1.024156
1.0130482
1.0107329
1.0151726
1.0201228
1.0208901
1.0129528
1.0071675
1.010281
1.0152897
1.0186868
1.0134764
1.0058565
1.0092965
1.0180401
1.026017
1.0208836
1.009264
1.0037874
1.0108186
1.0282042
1.0468867
1.0526704
1.0448071
1.0006261
0.99930124
0.99831306
0.99943449
0.99726613
0.99047168
0.98558999
0.98047473
0.9780819
0.97828136
0.9782204
0.98032872
0.98490759
0.98688224
0.98937926
0.98873318
0.99058664
0.99123524
0.98964561
0.99058237
0.99193786
0.99264385
0.99731444
1.0015826
1.0076309
1.0159697
1.022367
1.0244153
1.0214717
1.0273084
1.0308679
1.0242353
1.0126203
1.0114248
1.0162973
1.0205406
1.01854
1.0119444
1.0096305
1.0130904
1.0152034
1.0159061
1.0116483
1.0084336
1.010322
1.0155724
1.0216372
1.0211499
1.0132974
1.0071571
1.0090279
1.0191533
1.0344238
1.04663
1.0481096
1.000571
0.99939622
0.99854506
0.9994455
0.99714434
0.99060475
0.98568929
0.98060454
0.97828253
0.97830972
0.97820979
0.98044003
0.98467303
0.98673785
0.98911937
0.98897248
0.99082595
0.9912462
0.99003576
0.99064112
0.99157168
0.99227156
0.9967663
1.0009337
1.0070489
1.0152481
1.0226569
1.0233781
1.0211661
1.027785
1.0313388
1.0244692
1.0125407
1.0118096
1.0173713
1.0217014
1.0165047
1.0099586
1.011288
1.0164467
1.0162413
1.013998
1.0085163
1.0101083
1.0126525
1.0154086
1.018013
1.0179782
1.0158659
1.0117956
1.0106919
1.0153552
1.0239819
1.0363467
1.045439
1.0005425
0.99951189
0.99878854
0.99948884
0.99700466
0.99077619
0.98572855
0.98091993
0.97837647
0.97803611
0.97830225
0.98088973
0.98418643
0.98646851
0.9891078
0.98961068
0.99076238
0.99078871
0.99008863
0.9907633
0.99153723
0.99239995
0.9966775
1.0006408
1.0065907
1.0146284
1.0229405
1.0225057
1.0210732
1.028093
1.0320754
1.0248237
1.0125601
1.0118313
1.0184005
1.0230629
1.0156562
1.0080384
1.0116839
1.0194245
1.0189258
1.0130341
1.0056585
1.0101205
1.0158751
1.0174535
1.0164607
1.0141182
1.015475
1.016235
1.0150881
1.0160183
1.0184003
1.026171
1.0384956
1.0004923
0.9996406
0.99902503
0.9995483
0.99686968
0.99094426
0.98569729
0.98134396
0.97838647
0.97760201
0.97846107
0.98155439
0.98353118
0.98616886
0.9892511
0.99053346
0.9907013
0.99001366
0.98962599
0.99085427
0.99161912
0.99280017
0.99685697
1.0005678
1.0063068
1.013825
1.023321
1.0218782
1.0203934
1.0277506
1.032515
1.0255591
1.0126464
1.0117632
1.0192289
1.02462
1.0156108
1.0061833
1.010987
1.0215658
1.0225437
1.0131026
1.0033562
1.0083274
1.0181311
1.0205291
1.0172631
1.0113962
1.0128549
1.0183926
1.0204669
1.019519
1.0174898
1.0193181
1.0298967
1.0004786
0.99974304
0.99923086
0.99961857
0.99675212
0.99111205
0.98562248
0.98179529
0.97843625
0.97710929
0.97866847
0.98223049
0.98292216
0.98586183
0.98942689
0.9915053
0.99059787
0.98914326
0.9891038
0.99099754
0.99182855
0.99350098
0.99744134
1.0007123
1.0061212
1.0132259
1.0237315
1.0216997
1.020832
1.0274724
1.0332332
1.0263758
1.0133819
1.011495
1.0201233
1.0260108
1.0166273
1.0050038
1.0095316
1.0227904
1.0264827
1.0145316
1.0021614
1.0060271
1.0186816
1.0243673
1.0194686
1.0105707
1.0097688
1.0181901
1.024727
1.0244738
1.019419
1.0163639
1.0228151
1.0004641
0.9998305
0.9994144
0.99970025
0.99668948
0.99131887
0.98560555
0.982231
0.97852823
0.97678107
0.97893009
0.98282847
0.98248394
0.98557308
0.98959036
0.99227239
0.99050749
0.98824541
0.98839391
0.99094633
0.99214512
0.99400159
0.9976525
1.0006931
1.0059405
1.012478
1.0238141
1.0214523
1.0203197
1.0269182
1.0336497
1.027233
1.0139199
1.0111644
1.0206082
1.0271658
1.0181014
1.0043023
1.0077885
1.0230248
1.0298304
1.0168463
1.0020342
1.0036288
1.0175099
1.0280144
1.02297
1.0111808
1.0071552
1.0161065
1.026655
1.0294684
1.0236876
1.0166272
1.0182761
1.0005934
1.0000115
0.99967536
0.99994415
0.99683353
0.99161264
0.98574733
0.98273687
0.97884274
0.97665379
0.97933902
0.98343837
0.98237685
0.98533015
0.98971978
0.99287279
0.99048064
0.98768865
0.987865
0.99097098
0.992357
0.99448985
0.99818204
1.0008807
1.005888
1.0121896
1.0244363
1.0218222
1.0205457
1.026705
1.0341066
1.0283816
1.0149476
1.0104679
1.0202918
1.0283117
1.0199508
1.0044851
1.0052702
1.0214451
1.0326162
1.0200356
1.0029152
1.0004468
1.0145469
1.0290614
1.026609
1.0128117
1.0052872
1.0119867
1.0249621
1.0318313
1.0276249
1.0187341
1.0153434
1.001156
1.0004775
1.0001266
1.0004065
0.99726187
0.99226282
0.98633999
0.98343895
0.97939349
0.9770639
0.97990583
0.98393739
0.98258998
0.98538673
0.98986926
0.99312467
0.99077863
0.98759391
0.98765945
0.99087639
0.99255579
0.99459906
0.99804342
1.0006487
1.0056285
1.0111859
1.0239836
1.0220846
1.0204469
1.0257497
1.0341169
1.0293902
1.0168778
1.0104006
1.0191695
1.0282971
1.0215441
1.0071062
1.0036226
1.0185624
1.0319608
1.0233091
1.0062646
1.0001205
1.0107152
1.0260454
1.0277005
1.0153262
1.0059692
1.0087259
1.0212101
1.0297473
1.02878
1.0213308
1.0153103
1.0202302
1.0267939
1.0352226
1.0430198
1.0489453
1.0509779
1.0481596
1.0401277
1.0288124
1.0167271
1.0055241
1.0005418
1.0043286
1.0173435
1.0375891
1.0585914
1.072378
1.0674027
1.0496651
1.0332562
1.0218175
1.0142825
1.0007632
0.99665159
1.0171402
1.0359681
1.018751
1.0536077
1.0649491
1.0694902
1.0684592
1.0628779
1.0541412
1.0435036
1.032323
1.0208078
1.0126173
1.0107442
1.0157286
1.0283693
1.0453822
1.0602264
1.0653476
1.0572376
1.0404942
1.0215611
1.0098359
1.0072738
1.0115598
1.0186174
1.0366101
1.0586367
1.04847
0.99106234
1.0800129
1.0826414
1.0759757
1.0682506
1.0588497
1.0488623
1.0391537
1.0319473
1.0296543
1.0329777
1.0416756
1.0550579
1.0700937
1.0819572
1.0828279
1.069385
1.0495299
1.0265006
1.0068681
0.99162921
0.98629526
0.99511928
1.0235699
1.065925
1.0852932
1.0500498
0.98833628
1.0625317
1.057482
1.0509897
1.0429297
1.035491
1.0302853
1.0295832
1.0343486
1.0447438
1.059892
1.0771658
1.0910752
1.0982527
1.0960458
1.0866335
1.0735127
1.0566297
1.0358771
1.0159099
0.99737273
0.98845212
0.99802905
1.0287951
1.0601704
1.0647214
1.0290666
1.0017987
1.0272645
1.0198866
1.0148008
1.0114788
1.0110574
1.0155374
1.024732
1.038359
1.0546611
1.0702925
1.0818089
1.087307
1.0838882
1.0756995
1.0680622
1.0618132
1.0547172
1.0462092
1.0331385
1.0231874
1.0222074
1.0370592
1.0496273
1.0432575
1.0153527
0.99220521
1.0085686
1.0028278
1.0001192
1.0026364
1.0076097
1.0153517
1.0262152
1.0381399
1.0489743
1.0563423
1.0602876
1.05856
1.052503
1.0447698
1.0361053
1.0295538
1.0256299
1.0266025
1.02893
1.0323058
1.0457266
1.0690035
1.0920731
1.0856004
1.0416288
0.98730853
0.97200381
1.0038805
1.0078013
1.0131598
1.0252943
1.0364069
1.0464885
1.0543988
1.058586
1.0586476
1.0551802
1.0486749
1.0402825
1.029935
1.0184394
1.0078964
0.99850998
0.9927121
0.99144387
0.99662247
1.013285
1.0445402
1.0858542
1.1117354
1.0976246
1.0477424
1.002476
0.99354577
1.0138223
1.0545042
1.0676869
1.0765374
1.0808823
1.0805394
1.076592
1.0709001
1.0641982
1.0572664
1.0503132
1.0416439
1.0308824
1.0175666
1.0042608
0.99361947
0.98654906
0.98466055
0.99251708
1.0113205
1.0355422
1.0574092
1.0678121
1.0551828
1.0352425
1.0338573
1.0488657
1.0575589
1.1091639
1.1177886
1.1173477
1.1126893
1.1051344
1.0960641
1.0866988
1.0778014
1.0695833
1.0616028
1.0529383
1.0425016
1.0316421
1.020464
1.0113997
1.0089664
1.0157201
1.0299564
1.0429114
1.0421634
1.0256481
1.0047889
0.99213787
0.99816376
1.0371644
1.0953069
1.115394
1.1202388
1.1213497
1.1167672
1.1116982
1.1058693
1.0999655
1.0936543
1.0868885
1.080242
1.0735139
1.0661309
1.0577687
1.0497871
1.0449487
1.0464789
1.057324
1.0744812
1.0881556
1.0878043
1.0623881
1.0212738
0.98190027
0.96823285
0.9782027
1.0189845
1.0870775
1.1232497
1.0973528
1.0958053
1.0920854
1.0873672
1.0809109
1.0743288
1.0687187
1.064473
1.0617613
1.060165
1.060107
1.0618572
1.066179
1.0758798
1.0926206
1.1137375
1.1304019
1.1318179
1.1122556
1.0775168
1.0364725
1.009976
1.0007419
1.0068184
1.0218457
1.0521698
1.0586512
1.0738698
1.0684186
1.0647036
1.0585705
1.0509492
1.0429433
1.0354781
1.029923
1.027652
1.0297129
1.0372829
1.0516464
1.0730601
1.0998708
1.1240545
1.1374841
1.1378895
1.1248305
1.100662
1.0734751
1.057283
1.0618315
1.075353
1.0791344
1.064439
1.0357202
0.98890605
1.0459297
1.0416911
1.0389561
1.0331428
1.0257259
1.0183012
1.0128761
1.0112469
1.0147684
1.0245981
1.0411105
1.0630198
1.0855462
1.1005741
1.1070342
1.1030104
1.0925863
1.0783587
1.0647064
1.0568757
1.0656471
1.0992048
1.1466038
1.1645578
1.126675
1.0493248
0.97261161
1.0191116
1.0144793
1.0121656
1.0082398
1.0044204
1.0027401
1.005539
1.0135128
1.0281157
1.0486215
1.0705412
1.0871566
1.0927463
1.08626
1.0697875
1.0504194
1.0351735
1.0287906
1.0292443
1.0408238
1.0679796
1.1111557
1.1653085
1.186634
1.1501346
1.0809506
1.0195685
0.99635363
0.9948307
0.99698734
0.99886174
1.0025972
1.0101429
1.0220989
1.0381995
1.0554157
1.0692831
1.0767329
1.0772555
1.0705497
1.0562049
1.0356255
1.019538
1.0092403
1.0077083
1.0177747
1.0401297
1.0720148
1.1082468
1.1367648
1.1332743
1.1015424
1.0793007
1.0875883
0.99907039
1.0037126
1.0147886
1.0247659
1.0351961
1.046008
1.0545582
1.0592267
1.0588802
1.0554735
1.0498433
1.0415833
1.0293364
1.0138022
1.0049137
1.0017471
1.0066613
1.0192384
1.0399651
1.0638343
1.0808823
1.0900028
1.0899183
1.0669835
1.0394565
1.0416463
1.1042429
1.0594983
1.0703142
1.0801064
1.0849818
1.0843411
1.0770641
1.065614
1.0530069
1.0409342
1.0291956
1.0173829
1.0061979
0.99608768
0.99133132
0.98997318
0.99504165
1.0122679
1.0410958
1.0720685
1.0914042
1.0886267
1.0671084
1.0405392
1.0198869
1.0129732
1.0267453
1.0959495
1.1480072
1.1525386
1.146964
1.1332128
1.1144466
1.0934576
1.0723371
1.0526087
1.0345748
1.0197632
1.0082502
1.0006897
0.99765766
0.99604496
0.99911771
1.0110109
1.033532
1.0638497
1.0875352
1.0913933
1.0710489
1.0366259
1.0103249
1.0036593
1.0111126
1.0425835
1.116577
1.1566598
1.1545229
1.1455921
1.1335237
1.1186037
1.1013104
1.0831571
1.0669416
1.0538325
1.0442157
1.0386743
1.0359148
1.0336318
1.0355232
1.0421339
1.0548208
1.0710616
1.0840966
1.0825691
1.0630604
1.0285642
0.99629421
0.99205415
1.0119284
1.0372345
1.0811066
1.1342347
1.0989141
1.0938136
1.0878121
1.0808688
1.0734523
1.0671318
1.0638399
1.064561
1.0681629
1.0748756
1.0836419
1.0935909
1.1050615
1.1154932
1.1225127
1.1234511
1.114976
1.0962939
1.0676554
1.0301351
0.99083616
0.97069396
0.98266931
1.0279545
1.085964
1.1271376
1.1273129
1.0402905
1.0332731
1.0301021
1.0265358
1.0227098
1.0206183
1.0226701
1.0306009
1.045102
1.066937
1.0959028
1.1296519
1.1626271
1.1870024
1.1948821
1.1829543
1.1548303
1.1154378
1.0684032
1.0219798
0.98719054
0.97318641
0.99459807
1.0567205
1.1293352
1.1511736
1.0996807
1.0043961
1.0022095
1.0024828
1.0026418
1.0024332
1.0030929
1.0058036
1.013047
1.0272472
1.0501906
1.0814076
1.1177321
1.1525467
1.1781693
1.186745
1.177956
1.1550681
1.1249118
1.0895988
1.0552281
1.0304449
1.0199066
1.0425253
1.10227
1.150512
1.129744
1.0556784
1.0045953
1.0055689
1.0101443
1.012289
1.0140071
1.0155587
1.0195005
1.0280495
1.0411825
1.0578504
1.0749046
1.090407
1.1012703
1.1052748
1.1039005
1.0965232
1.0902832
1.0899686
1.0958709
1.1037566
1.1091438
1.1153445
1.1354648
1.1615132
1.1490505
1.0816896
1.0065762
1.045092
1.0482403
1.0508684
1.0536171
1.0559179
1.0577973
1.0595142
1.0616288
1.06383
1.0658625
1.0660445
1.0625828
1.0532584
1.0379477
1.0210851
1.0088188
1.0061081
1.0216624
1.0584188
1.1117439
1.1710555
1.2192258
1.2358193
1.2174908
1.1466509
1.0466643
0.97968161
1.1165221
1.1203594
1.1223982
1.122111
1.1176293
1.1090118
1.097921
1.0866831
1.0751811
1.0639102
1.0514829
1.0376095
1.0205484
1.0005622
0.98046319
0.9652377
0.96253461
0.98023226
1.0227427
1.0916207
1.1772728
1.2475273
1.2685191
1.2368525
1.1587219
1.0574047
0.99552513
1.1993632
1.1983922
1.1930014
1.1817623
1.1644823
1.1430271
1.120217
1.0980278
1.0776656
1.0589433
1.0418063
1.0256133
1.0085809
0.99152454
0.97705742
0.96916499
0.97077858
0.99113448
1.0338448
1.0928387
1.1513247
1.1877457
1.1985017
1.1860457
1.1588443
1.105105
1.0599998
1.2434285
1.2378426
1.2243527
1.2045099
1.1790537
1.1509994
1.1232464
1.0982591
1.0773195
1.0609445
1.0479724
1.0362189
1.0251383
1.0161897
1.0113733
1.0124583
1.0258539
1.047511
1.0821942
1.1125169
1.1218316
1.1079393
1.0899524
1.0869207
1.1085674
1.1347239
1.1511537
1.2272005
1.218926
1.2050001
1.1857975
1.1623614
1.1368488
1.1122946
1.0915343
1.0771317
1.0684929
1.0650249
1.0647746
1.066846
1.072061
1.0814854
1.095454
1.1114729
1.1280901
1.1367329
1.1256426
1.0953548
1.0527908
1.0072362
1.0011865
1.0357725
1.1134441
1.2222598
1.1745857
1.1690481
1.1566869
1.1407021
1.1223977
1.1041628
1.0885738
1.0774801
1.0717037
1.0739508
1.0834283
1.1003169
1.1234309
1.1494768
1.1752267
1.1966961
1.2053858
1.1981461
1.1724141
1.1306175
1.0768432
1.0178893
0.96995734
0.95504129
0.98854233
1.0819614
1.2484047
1.115557
1.1115249
1.1017869
1.0896215
1.0767085
1.065002
1.0568078
1.0560166
1.0632785
1.0799163
1.1063778
1.1422526
1.1849096
1.2280296
1.2639549
1.2813305
1.2721399
1.2399745
1.1910959
1.1317789
1.0677824
1.0079114
0.96021429
0.94514553
0.98265588
1.081126
1.2518995
1.0691366
1.065693
1.0566476
1.0470584
1.0388528
1.0334161
1.0341595
1.0423361
1.0615911
1.0931999
1.1383465
1.1927041
1.2467849
1.2901274
1.3145695
1.316474
1.2880389
1.2472165
1.1982278
1.138292
1.0787578
1.0194841
0.97257701
0.96577277
1.0097153
1.1127097
1.2497041
1.0505123
1.0472537
1.0374859
1.0278812
1.0219712
1.0212007
1.0280803
1.0446272
1.0742545
1.118557
1.1747553
1.2347492
1.2850265
1.3157961
1.3218413
1.3020155
1.2682527
1.2319619
1.1915026
1.1508795
1.1040332
1.0509552
1.0116825
1.016514
1.0660527
1.165057
1.2461232
1.0640237
1.0612315
1.0504253
1.0397453
1.0338266
1.0348003
1.0454985
1.0676768
1.1017882
1.1487372
1.202887
1.2542829
1.2906232
1.3064114
1.2960557
1.2677052
1.2380643
1.2100519
1.183605
1.1605869
1.1328949
1.1000524
1.0782255
1.0922662
1.1444053
1.2128779
1.2309679
1.1048804
1.1035205
1.0929225
1.080737
1.0720158
1.071376
1.0803243
1.1001018
1.1297312
1.167694
1.2108361
1.2498053
1.2733663
1.2758176
1.2591752
1.2324433
1.2070208
1.1872782
1.1772769
1.1721246
1.1640729
1.1585662
1.161882
1.1882997
1.2261412
1.2441036
1.2011115
1.1651423
1.1646095
1.1525757
1.1369585
1.1231854
1.1144403
1.1133993
1.1228031
1.1425151
1.1697295
1.2027628
1.2313917
1.2456054
1.2432887
1.2275785
1.205432
1.1835474
1.1712668
1.1707039
1.1802047
1.1937122
1.2163633
1.2480091
1.2805854
1.2897588
1.2530405
1.1697171
1.2363957
1.2325263
1.2134437
1.1884808
1.1646087
1.145816
1.1354661
1.1357033
1.1455744
1.1641297
1.1890189
1.2107552
1.221191
1.217848
1.2047814
1.1847896
1.1682548
1.1637572
1.1696874
1.1878751
1.2174922
1.2619038
1.3120164
1.3436911
1.3225251
1.2496207
1.1487697
1.3114578
1.299503
1.2663212
1.228096
1.1933236
1.1665925
1.1496415
1.144866
1.1490669
1.1638708
1.1830803
1.1996288
1.2062897
1.2031029
1.1914382
1.1769088
1.1654663
1.1641541
1.1736999
1.1958596
1.230979
1.281794
1.3374909
1.3686558
1.3369152
1.2525172
1.1508341
1.3785827
1.3573343
1.3086016
1.2562586
1.2122434
1.1800158
1.16068
1.1548999
1.15982
1.174804
1.1930094
1.2060149
1.2087558
1.2030081
1.1899554
1.1763186
1.168972
1.1725092
1.1848653
1.2046236
1.2337067
1.2770137
1.3284761
1.3683605
1.352268
1.2785017
1.1757158
1.4202342
1.3948554
1.3373747
1.2745351
1.2231035
1.1881182
1.1703683
1.1679954
1.1780984
1.1982432
1.219529
1.2320371
1.2325143
1.2229425
1.2056072
1.1877011
1.1790389
1.1821404
1.193315
1.2052861
1.223574
1.2582389
1.3095894
1.3648927
1.3780677
1.3214245
1.218038
1.4246867
1.4009609
1.3448915
1.2807952
1.226904
1.1917885
1.1772244
1.1805349
1.1977997
1.2258718
1.2539601
1.2695423
1.2696194
1.2561117
1.2331587
1.2077062
1.1959625
1.1941593
1.1998391
1.2057896
1.2142223
1.2395562
1.2897691
1.360424
1.4038325
1.3700486
1.2667498
1.399838
1.3794703
1.3298599
1.2723734
1.2235407
1.1923027
1.1824227
1.1927077
1.2168109
1.2523141
1.2860626
1.3043832
1.3038509
1.2865167
1.2589962
1.2304363
1.2144861
1.2100599
1.2105511
1.2113213
1.2113907
1.2246774
1.2686175
1.3488077
1.4232689
1.4180781
1.3169628
1.3784904
1.3595719
1.3135138
1.2611533
1.2177717
1.1910482
1.1851224
1.2002674
1.2283835
1.2679753
1.306009
1.3277422
1.3282543
1.3111357
1.2833343
1.2550053
1.2378392
1.2276282
1.2191959
1.2123847
1.2031165
1.2108081
1.2514514
1.3368368
1.433922
1.4580865
1.3668242
1.3632451
1.3442517
1.2984618
1.2485958
1.2092506
1.186586
1.184756
1.2036539
1.2360418
1.2794339
1.3206722
1.3448493
1.3470827
1.3316343
1.30669
1.2825839
1.2689553
1.2560428
1.2361016
1.213097
1.1967941
1.198199
1.2382906
1.3217296
1.4295964
1.4800634
1.4172084
1.3697263
1.3455766
1.2917455
1.2362278
1.1957916
1.1746773
1.1760158
1.1981481
1.2361263
1.2855904
1.3337632
1.3656719
1.3719719
1.3608496
1.3402173
1.3204839
1.3072549
1.2887293
1.2566165
1.2237529
1.1978096
1.195638
1.2288259
1.3019279
1.4010454
1.466759
1.4497396
1.3881318
1.3562713
1.2908373
1.2257952
1.1805119
1.158279
1.1609329
1.1864681
1.2306339
1.2883276
1.3464345
1.3905334
1.4092483
1.406866
1.3905314
1.3734869
1.3578202
1.3326526
1.2909937
1.2431063
1.2082136
1.1980744
1.2229364
1.2733356
1.3439067
1.4122622
1.4449765
1.411986
1.3721605
1.2946822
1.2189744
1.1664878
1.1407451
1.1432298
1.1714494
1.2203574
1.2860139
1.3571051
1.4169209
1.4561574
1.4727172
1.4685684
1.4521294
1.4259562
1.3867347
1.3300072
1.26874
1.2218721
1.2015185
1.2121038
1.2370864
1.2762841
1.3306094
1.4011663
1.4414436
1.3928801
1.3039378
1.2175708
1.1578025
1.1291003
1.1300567
1.1588089
1.2098337
1.2809603
1.3613126
1.4405401
1.5060754
1.5474962
1.5609982
1.5456496
1.5056019
1.4479505
1.3747124
1.3032515
1.2469899
1.21501
1.2039479
1.2023302
1.2110396
1.2433211
1.3253184
1.4817267
1.4237756
1.3238337
1.2294615
1.1646639
1.1346941
1.136292
1.1643678
1.213168
1.2826479
1.3642374
1.4524231
1.5368303
1.6006622
1.6355219
1.6302046
1.5884264
1.5187102
1.4362349
1.3566698
1.2851432
1.2381564
1.2028259
1.1754637
1.1616613
1.1746377
1.245241
1.5463516
1.4725845
1.3572498
1.2564108
1.1930186
1.1680283
1.175018
1.2034189
1.2499559
1.3095995
1.3767019
1.4478979
1.5237475
1.5936062
1.6456646
1.674197
1.6639172
1.6122175
1.526285
1.4302901
1.331068
1.2569786
1.2005987
1.1588179
1.1392544
1.1407766
1.1877823
1.6908094
1.5878566
1.4422154
1.3258684
1.2599249
1.2388365
1.2468626
1.2730159
1.3125808
1.3549353
1.3968218
1.4371434
1.4823929
1.5336254
1.5918933
1.6501108
1.696451
1.6938251
1.6218184
1.5036338
1.3768216
1.2709952
1.2013995
1.1582064
1.141201
1.1369609
1.1658237
1.9264514
1.7807817
1.5825566
1.4339983
1.3542457
1.3306929
1.3326073
1.3559681
1.3857557
1.4114999
1.4317376
1.4456807
1.461639
1.4852074
1.5239523
1.5821191
1.6508864
1.689641
1.655214
1.547779
1.4150406
1.2974513
1.21962
1.1735389
1.1555004
1.155513
1.1853975
2.2216144
2.0179383
1.7503158
1.562882
1.4625679
1.4256687
1.424763
1.4498043
1.4768912
1.493172
1.4976991
1.4937971
1.486388
1.4797659