/*--------------------------------*- C++ -*----------------------------------*\
| =========                 |                                                 |
| \\      /  F ield         | OpenFOAM: The Open Source CFD Toolbox           |
|  \\    /   O peration     | Version:  2406                                  |
|   \\  /    A nd           | Website:  www.openfoam.com                      |
|    \\/     M anipulation  |                                                 |
\*---------------------------------------------------------------------------*/
FoamFile
{
    version     2.0;
    format      ascii;
    arch        "LSB;label=32;scalar=64";
    class       volScalarField;
    location    "8";
    object      T;
}
// * * * * * * * * * * * * * * * * * * * * * * * * * * * * * * * * * * * * * //

dimensions      [0 0 0 1 0 0 0];

internalField   nonuniform List<scalar> 
62344
(
1.0019424
1.0008997
1.0009146
0.9998028
0.99795295
0.99506129
0.99265853
0.99186592
0.99042477
0.99153431
0.9923256
0.99352484
0.99514798
0.99470501
0.99487332
0.99575947
0.99505705
0.99553526
0.99584626
0.99747908
0.99987575
1.0006202
1.0022121
1.0032254
1.0033403
1.0075945
1.0069242
1.005659
1.0049964
1.0039795
1.0058915
1.0069675
1.005654
1.0003124
1.0025786
1.0092916
1.0105486
1.005454
1.0008283
1.000246
0.99874244
0.99997414
1.0075158
1.0126703
1.0094296
0.99879395
0.99069807
0.9896491
0.99082113
0.99170113
0.99371302
0.99813284
1.0043938
1.0079081
1.0030867
1.0019077
1.0012568
1.0007057
0.99984134
0.99767771
0.99510326
0.99306786
0.99193999
0.99057375
0.99110738
0.99278258
0.99353639
0.99400834
0.99502006
0.9962904
0.99605235
0.99483758
0.99503085
0.99529993
0.9970121
0.99859908
1.0001246
1.002547
1.003255
1.0039379
1.0071945
1.0068825
1.0067474
1.0056149
1.0044355
1.0052004
1.0069983
1.00631
1.0007284
1.0018772
1.0062076
1.0092227
1.0066942
1.0011576
0.99852683
1.0015474
1.0055825
1.0095809
1.0078311
1.0031505
0.99980812
0.99766582
0.99700035
1.0005137
1.0022979
0.99763388
0.99013123
0.9858297
0.98808671
0.99295714
1.0019978
1.0013522
1.0005575
0.99976969
0.997665
0.99502735
0.99298642
0.9916608
0.99101697
0.99121604
0.99231464
0.99365898
0.99417197
0.99510241
0.99625685
0.99530398
0.99461288
0.99551153
0.99585881
0.99744421
0.99839534
0.99904225
1.0022598
1.0030834
1.0044218
1.0070692
1.0064037
1.0072594
1.0062135
1.0049127
1.0043814
1.0070247
1.0062983
1.0003695
1.0010038
1.0055138
1.0089415
1.0074841
1.0010607
0.99745163
1.0029022
1.0101754
1.0111009
1.0043908
0.99812309
0.99765009
1.0020386
1.005174
1.0082686
1.0079122
0.99921424
0.98693487
0.97615439
0.97316471
0.97936763
1.0021073
1.0011392
1.0005754
0.99979269
0.99803758
0.9951232
0.99274904
0.99141773
0.99106731
0.99143425
0.99168844
0.99352087
0.99488982
0.99503859
0.99541664
0.99448925
0.99444475
0.99583985
0.99591014
0.99738676
0.99865691
0.99839679
1.0017318
1.0026261
1.0045845
1.0068461
1.0062511
1.0072624
1.0062541
1.0053441
1.0040767
1.0073313
1.0057339
1.0003874
1.0011708
1.0049889
1.0076166
1.0062605
1.0016434
0.99694683
1.0034855
1.0126598
1.0126093
1.0024381
0.99298652
0.99309677
1.0008839
1.0097433
1.0137825
1.010279
1.000427
0.98770663
0.97796059
0.97330471
0.97559078
1.0021228
1.0007743
1.0006156
0.99984815
0.99822917
0.99530221
0.99268191
0.99131367
0.99064902
0.99108805
0.99172486
0.99359336
0.99488338
0.99470948
0.99508813
0.99482061
0.99475843
0.99568599
0.99512244
0.99642586
0.99857831
0.99854807
1.0013158
1.0023621
1.0047301
1.0065516
1.006746
1.007363
1.0061257
1.0054014
1.0041725
1.0078707
1.004951
1.0003099
1.0012781
1.0051576
1.0068467
1.0054669
1.0015333
0.99787703
1.0030915
1.0125183
1.0131723
1.0029631
0.99233231
0.99008094
0.99755714
1.0087126
1.0147838
1.0114283
1.0006512
0.98939473
0.98187782
0.97917957
0.98065959
1.0020079
1.0006748
1.0005569
0.99993582
0.99812367
0.99525621
0.99292079
0.99154969
0.99040382
0.99056329
0.99231882
0.99374306
0.99399491
0.99428409
0.99520097
0.99527026
0.99499812
0.99513624
0.99432207
0.99558527
0.99793963
0.99866506
1.0009643
1.002142
1.0048967
1.0061544
1.0072899
1.0080009
1.0061819
1.0053684
1.0047084
1.0082794
1.0042445
0.99996301
1.0011151
1.0052883
1.0068203
1.0044579
1.0009536
0.99960982
1.0032358
1.0098352
1.0112337
1.004763
0.99529226
0.99229286
0.996339
1.0043616
1.0111044
1.0104291
1.0034089
0.99427502
0.98842872
0.986904
0.9880784
1.0018795
1.0008143
1.0004941
1.0000451
0.99787878
0.99506761
0.99323338
0.99198346
0.99066082
0.99051315
0.99288937
0.99367874
0.99314672
0.99425215
0.99556599
0.99528709
0.99476658
0.99472455
0.99430505
0.99561015
0.99738342
0.99876885
1.0007984
1.0020284
1.0049899
1.0059108
1.0078049
1.008626
1.0065934
1.0051485
1.0054896
1.0084244
1.0037854
0.9996269
1.0010907
1.0052242
1.0068579
1.0041494
1.0002328
1.0014715
1.0044169
1.0070111
1.0067631
1.0053668
1.0004936
0.99825383
0.99942579
1.001316
1.0038469
1.0057469
1.0047998
1.0014451
0.99827565
0.99674458
0.99571763
1.0018113
1.0010088
1.00054
1.0000718
0.99769485
0.99493907
0.99340621
0.99218164
0.99101979
0.99078895
0.99268076
0.99325381
0.99305227
0.99451963
0.99591725
0.99503198
0.9942478
0.99452971
0.99447003
0.99615927
0.99721821
0.99869276
1.0007702
1.0020217
1.0049117
1.005673
1.0080864
1.0090311
1.006697
1.0050042
1.0065825
1.0085297
1.0034615
0.99950471
1.0011692
1.0050513
1.0065214
1.0040591
0.99975845
1.0019481
1.0060656
1.0054144
1.0020821
1.0018519
1.0041697
1.0053242
1.0048104
1.002417
0.99800886
0.99767171
1.0012972
1.0050827
1.0076123
1.0079884
1.0057369
1.001822
1.0011321
1.0006767
1.0000143
0.99768791
0.99502897
0.99341039
0.99200053
0.9910456
0.99114622
0.99195855
0.99299234
0.99348681
0.99495025
0.99597505
0.9948936
0.99396757
0.99451747
0.99479451
0.99650935
0.9971759
0.99825628
1.0005155
1.0019089
1.004749
1.0053629
1.0081081
1.0092443
1.0065938
1.004664
1.0075815
1.0087364
1.0032339
0.99967502
1.0015844
1.0050401
1.0059793
1.0038173
0.99966361
1.0014704
1.0069619
1.0055747
0.99985705
0.99673428
1.003219
1.0094694
1.0107762
1.0058742
0.99662087
0.99043204
0.99395933
1.0020601
1.0102229
1.0154181
1.0146553
1.0018599
1.0011645
1.0008265
0.99989744
0.99781952
0.99525691
0.99331826
0.99164647
0.9908138
0.9914437
0.99153093
0.99287271
0.99425599
0.99520021
0.99562189
0.9950422
0.99417094
0.99453806
0.9949318
0.996349
0.99693458
0.99755087
1.0000501
1.0016931
1.0045013
1.0051472
1.0080006
1.0093954
1.006538
1.0042156
1.008151
1.0087907
1.0030353
0.99976089
1.0020966
1.0053129
1.005185
1.0032164
0.99964447
1.0008146
1.0067246
1.0062522
0.99966211
0.99415942
0.99910597
1.0090739
1.0146341
1.010275
0.99904836
0.98894748
0.98757022
0.99524166
1.0058958
1.0151295
1.0189124
1.0018972
1.0011522
1.0008946
0.9998544
0.99799879
0.99547625
0.99325296
0.99147556
0.99063468
0.9915593
0.99147298
0.99304196
0.99476115
0.9950325
0.9951576
0.99519598
0.99453322
0.99462876
0.99481103
0.99581176
0.99651697
0.9970114
0.99959657
1.0014582
1.0042239
1.0051525
1.007823
1.0095887
1.0064648
1.0039597
1.008385
1.0087399
1.002904
0.9997545
1.0025501
1.0057874
1.0046599
1.002015
0.99938824
1.0007446
1.0057209
1.0063749
1.00042
0.9943214
0.9961363
1.0051585
1.0143378
1.0134951
1.0031063
0.99220521
0.98713675
0.99018406
0.99905018
1.0088881
1.0158001
1.0019301
1.0011201
1.0009038
0.99994614
0.99815204
0.99559401
0.99327195
0.99156768
0.99056886
0.99137124
0.99173788
0.9933069
0.99455248
0.99456885
0.9949897
0.99529134
0.99474493
0.99466794
0.99451641
0.99532893
0.99623074
0.99684913
0.99937984
1.0012845
1.0039459
1.0052889
1.0076386
1.0097537
1.0065451
1.0040791
1.0084923
1.0087136
1.0029541
0.99978548
1.0028703
1.0063211
1.0047088
1.0008632
0.9985013
1.0009854
1.0046509
1.0054816
1.0011739
0.99594519
0.99568972
1.0016356
1.0096634
1.0131084
1.0069951
0.99789623
0.99140744
0.99067477
0.99444738
1.0011905
1.0084023
1.0019593
1.0011046
1.0008651
1.0001062
0.99824007
0.99561874
0.9933029
0.9918185
0.99050165
0.99088415
0.99198988
0.99345648
0.99395171
0.99415267
0.99503937
0.99533485
0.99466458
0.99445805
0.99423658
0.99514892
0.99603917
0.9969425
0.99934213
1.0010702
1.0036561
1.0054277
1.0074991
1.0098056
1.0067019
1.0045518
1.0086024
1.0085889
1.0030747
0.99990056
1.0029342
1.006767
1.005341
1.00005
0.99724477
1.0011256
1.004418
1.0042263
1.0009879
0.99776584
0.99695664
1.0002949
1.0043478
1.0083214
1.0078854
1.003441
0.99830099
0.99491327
0.99407403
0.99580111
1.0004073
1.0019787
1.0010717
1.0007961
1.0002703
0.99831362
0.99558776
0.99331698
0.99203394
0.99047256
0.99042445
0.99205683
0.99347475
0.99349187
0.99389236
0.99517614
0.99535917
0.99440875
0.99413746
0.99395648
0.99512711
0.99597581
0.99717929
0.99941364
1.0008703
1.0033065
1.0054782
1.0073884
1.0097196
1.0068669
1.0052777
1.0087606
1.0083826
1.0032071
1.0000607
1.002857
1.0068759
1.0061432
0.99985908
0.99618114
1.0006766
1.0047209
1.003459
1.000059
0.99867801
0.9991929
1.0006906
1.0015195
1.0021311
1.0046409
1.0058886
1.0045683
1.0012164
0.99735467
0.99412862
0.99408357
1.0019963
1.0010318
1.0007143
1.0003964
0.99836625
0.99558702
0.99336673
0.99217
0.99046447
0.99011874
0.99204951
0.99343672
0.99335576
0.99378004
0.99543735
0.99527072
0.99423539
0.9939219
0.99366327
0.99513292
0.99603094
0.99729224
0.99933875
1.000592
1.002914
1.0054683
1.0072356
1.0094988
1.0069231
1.0060961
1.008957
1.0081262
1.0032637
1.000321
1.0028165
1.0065964
1.0070324
1.0000262
0.99571003
0.99992259
1.0048587
1.0036667
0.9991301
0.99815675
1.0006
1.0024052
1.0009558
0.99836001
0.99916848
1.0038655
1.0077354
1.0074633
1.0027255
0.99628637
0.99149648
1.0019978
1.0009961
1.0006446
1.0004425
0.99841583
0.99560168
0.99343964
0.99219887
0.99053911
0.99016633
0.99202923
0.99326316
0.99338866
0.99381196
0.9956472
0.99506375
0.99418619
0.9938808
0.99351662
0.99518137
0.99608776
0.99711798
0.9990477
1.0002539
1.0025526
1.0053739
1.0071329
1.0092516
1.0069357
1.0069486
1.0091828
1.00784
1.0033893
1.0006846
1.0029518
1.0062086
1.007446
1.0007341
0.99586745
0.99929658
1.0043796
1.0045082
0.99906748
0.99701158
1.0007732
1.0038679
1.0022249
0.9977805
0.99498435
0.99949516
1.00691
1.0111804
1.0085939
1.0008916
0.99325189
1.0019941
1.0009763
1.000616
1.0004375
0.99849173
0.99562162
0.9935331
0.99213749
0.99067226
0.990533
0.99191843
0.99298516
0.99354953
0.99404923
0.99569853
0.99481709
0.99422435
0.99407184
0.99355121
0.9951925
0.9960589
0.99681271
0.99866372
0.99996341
1.0022858
1.0052691
1.0071246
1.0089783
1.0069121
1.0077628
1.0094778
1.0075481
1.0034392
1.0012499
1.0031546
1.0059294
1.0072052
1.0015363
0.99677977
0.99932181
1.0036964
1.0047913
0.99972881
0.99636119
0.99998228
1.004549
1.0039787
0.99895825
0.99412042
0.99577425
1.0038103
1.0116352
1.0128067
1.0067749
0.99815715
1.0019856
1.0009741
1.0006202
1.0004025
0.99857483
0.99564731
0.99361973
0.99201828
0.99085764
0.99099754
0.99178095
0.99268884
0.99367937
0.99436539
0.99561204
0.99464159
0.99443039
0.99438135
0.99379477
0.99511014
0.9959253
0.99645125
0.99830977
0.99973718
1.0020855
1.0051614
1.0071363
1.0086763
1.0069057
1.0084313
1.0097285
1.0073842
1.0033601
1.0018917
1.0034551
1.0056563
1.0065118
1.0021917
0.99813051
0.99977278
1.0030755
1.0044737
1.0006019
0.99660409
0.99921793
1.0040197
1.0053739
1.0008245
0.99554545
0.99480159
1.0005458
1.0091267
1.0140961
1.011527
1.00465
1.001976
1.0009882
1.00065
1.0003707
0.99863359
0.99570411
0.99370957
0.99189437
0.99103185
0.9913085
0.99162606
0.99241589
0.99378695
0.99455674
0.9954944
0.99450081
0.99464333
0.99467349
0.99412712
0.99497237
0.99574727
0.99612787
0.99802071
0.99952892
1.0019068
1.0050361
1.0071702
1.0083235
1.0068525
1.0089166
1.0099743
1.0073116
1.0031089
1.0024082
1.0038967
1.0056243
1.005646
1.0022214
0.99953366
1.0006532
1.0027717
1.0038405
1.0010432
0.99769452
0.99912939
1.0025474
1.0054023
1.0025145
0.99764588
0.99568335
0.9988871
1.0055361
1.0122195
1.013811
1.0099855
1.0019614
1.0010196
1.0007026
1.000357
0.99865024
0.99577765
0.99378739
0.9918342
0.9911526
0.99146495
0.99150777
0.9922436
0.99379622
0.99461525
0.99540073
0.99450924
0.99483178
0.99484481
0.99439513
0.9948782
0.99556287
0.99589393
0.99774327
0.999314
1.0017537
1.0048916
1.0072496
1.0079023
1.0067974
1.0092567
1.0102244
1.0072985
1.0028192
1.0026671
1.004476
1.0058031
1.0047507
1.001934
1.0006748
1.0019252
1.0028352
1.0028855
1.0006261
0.99905212
0.99954145
1.0016458
1.0040216
1.0031712
0.99959236
0.99734318
0.99861161
1.0026844
1.0084168
1.0127951
1.0128752
1.0019455
1.001064
1.0007813
1.0003627
0.99864101
0.995848
0.99384006
0.99186861
0.99120939
0.9914448
0.9914785
0.99224216
0.9937212
0.99458088
0.99533632
0.9946678
0.99496764
0.99482884
0.99446427
0.99482468
0.99540569
0.99575145
0.99755132
0.99910314
1.0015911
1.0047028
1.0074171
1.007524
1.0067288
1.0094041
1.0104243
1.0073297
1.0027102
1.002733
1.0050186
1.0061286
1.0037567
1.0010594
1.0013583
1.0032739
1.003211
1.0020506
0.99941292
0.99983863
1.0002746
1.0011929
1.002335
1.0019744
1.0006906
0.99905497
0.99903147
1.0011002
1.0044644
1.0091613
1.0124294
1.001934
1.0011136
1.0008659
1.0003724
0.99860974
0.99592139
0.99385677
0.99199039
0.99118867
0.99128914
0.99151233
0.99241389
0.99358952
0.99448025
0.99530874
0.99495387
0.99499649
0.99467822
0.99444322
0.99477426
0.9952925
0.99571084
0.99746895
0.99894
1.0013937
1.0045082
1.0075508
1.0071981
1.00674
1.0094967
1.0107287
1.0073519
1.0026121
1.0026316
1.0054537
1.0065834
1.0031489
1.0000119
1.0013365
1.0043844
1.0039973
1.0011912
0.99785296
0.99963526
1.0012367
1.0013237
1.0008191
0.99978029
0.99999146
1.000089
0.99987621
1.0004036
1.0014309
1.0045449
1.0093035
1.0019158
1.0011633
1.0009433
1.000379
0.9985756
0.99600267
0.99386651
0.99216815
0.9911068
0.99103553
0.99156543
0.99270754
0.99341293
0.99437892
0.99529822
0.99530375
0.99499464
0.99436935
0.99426119
0.99472958
0.99519628
0.9957296
0.99741978
0.99881703
1.0012156
1.0041858
1.0076904
1.0069046
1.0064998
1.0093437
1.0109159
1.0075242
1.0024997
1.0024046
1.0056742
1.007148
1.0028234
0.99887239
1.0008268
1.0050164
1.0050425
1.0006489
0.99651678
0.99847529
1.0016588
1.0017316
1.0000304
0.99753857
0.99794599
0.99991921
1.000642
1.0003265
0.99949109
1.0003753
1.0046984
1.0019046
1.0012023
1.0010034
1.0003919
0.99853233
0.99605647
0.99384378
0.99233744
0.99101147
0.99069593
0.9915929
0.9929911
0.99320807
0.99422786
0.99524464
0.99563499
0.99488569
0.993987
0.99404902
0.99466428
0.99508601
0.99576908
0.99744165
0.99867759
1.0009732
1.0038172
1.0077019
1.0066688
1.0065609
1.0091209
1.0110488
1.0076437
1.0024713
1.0019826
1.00573
1.0075202
1.0029052
0.99784594
0.9997973
1.0050752
1.0060236
1.0004579
0.99523265
0.99673143
1.0011458
1.0024809
0.99965434
0.99566438
0.99517875
0.99839026
1.0006582
1.000339
0.99826622
0.99704541
0.99997343
1.0018762
1.0012046
1.0010222
1.0003802
0.99846695
0.99608565
0.99380372
0.99245449
0.99086971
0.99035857
0.99157557
0.99319083
0.99300596
0.99406774
0.99523993
0.99592309
0.99489299
0.99365972
0.99376012
0.99454824
0.99505965
0.99575634
0.99733138
0.99846676
1.0006912
1.0033809
1.0075989
1.0064066
1.0062512
1.0087462
1.0110884
1.0078116
1.0024212
1.0016511
1.005676
1.0078582
1.0031961
0.99710194
0.99868209
1.0047349
1.0070113
1.0007711
0.99439583
0.99497312
0.99989073
1.00304
0.99984887
0.99456699
0.99263367
0.99615875
0.9998583
1.0004933
0.9979066
0.99502452
0.99615071
1.0017349
1.0010705
1.0008865
1.0002264
0.99826188
0.99591559
0.99356351
0.99235239
0.99059296
0.98986118
0.99136034
0.99316943
0.99279064
0.99385686
0.99524057
0.99617575
0.99492183
0.99344634
0.99354712
0.99444531
0.99498385
0.99573869
0.99736053
0.99829906
1.0004111
1.0030397
1.0075858
1.0062552
1.0060818
1.0084959
1.0110016
1.0081504
1.0025379
1.0011144
1.0052891
1.0080953
1.0037087
0.99691225
0.99744525
1.0041181
1.0079303
1.0016745
0.99426931
0.99316684
0.99860406
1.0035496
1.0014652
0.99514736
0.99159557
0.99434903
0.99895905
1.0010618
0.99904099
0.99555873
0.99470292
1.0011702
1.0006334
1.0004938
0.9998214
0.99781302
0.99549461
0.99308548
0.99193617
0.99007119
0.98924626
0.99083541
0.99266699
0.99232445
0.99346338
0.99503228
0.99606619
0.99487068
0.99324063
0.9932767
0.99417613
0.99481502
0.99547953
0.99703663
0.99789872
0.99995048
1.002362
1.0071468
1.0059978
1.005715
1.0079191
1.0108465
1.0084206
1.003042
1.0008937
1.0048168
1.0080231
1.0043611
0.99789109
0.99689438
1.00305
1.0077164
1.0030026
0.99578949
0.99308449
0.99733573
1.0027344
1.0026558
0.99715493
0.99311465
0.9939012
0.99813643
1.0008656
0.99995518
0.99705537
0.99533325
0.99803218
0.99936412
1.002258
1.0069063
1.011
1.0133119
1.0128175
1.0092212
1.0033411
0.99676173
0.99083572
0.98901029
0.99169488
0.99833616
1.0060189
1.0126431
1.0165074
1.0140972
1.0080092
1.0014282
0.99532508
0.98991682
0.98452135
0.98440708
0.98980724
0.99373689
0.9855496
1.0102205
1.0119175
1.013015
1.014478
1.014516
1.0129896
1.0100805
1.005849
1.0005192
0.99621655
0.99456389
0.99627443
1.0013649
1.0081757
1.0134252
1.0138346
1.0088458
1.002371
0.9964481
0.99245338
0.98923161
0.98688984
0.98958222
0.99920577
1.0043368
0.99699258
0.97218656
1.0174912
1.0161997
1.0132387
1.0123598
1.0114141
1.0098888
1.0081128
1.0060941
1.0047485
1.0047622
1.006438
1.0102208
1.0151966
1.0195231
1.0195073
1.013746
1.005351
0.99717173
0.99109421
0.98559981
0.98050723
0.98065048
0.99184832
1.0098116
1.0134089
0.99516535
0.97014916
1.007757
1.0040218
1.0019451
1.0011733
1.0013106
1.0022164
1.0043745
1.007227
1.0106182
1.0143853
1.0186793
1.0217632
1.0230469
1.0217366
1.0183786
1.0136576
1.0074711
1.0008051
0.99497717
0.98850927
0.98230852
0.98252013
0.99323043
1.0063137
1.0046374
0.98490033
0.97516883
0.99275803
0.98897182
0.98745742
0.98881736
0.99206534
0.99693279
1.002812
1.0086759
1.0137622
1.0170592
1.0178057
1.0168149
1.0141974
1.0113535
1.0098101
1.0079651
1.0055995
1.0032792
1.0001136
0.9976861
0.99530875
0.99625503
0.99887946
0.99907177
0.98491409
0.96995546
0.97777043
0.98353477
0.98242526
0.98416537
0.98900107
0.99544217
1.0023849
1.0086197
1.0124413
1.0133375
1.0111624
1.0063759
1.0010317
0.99708879
0.99511667
0.99426228
0.99331106
0.99315192
0.99398652
0.99706544
1.0038231
1.0106386
1.0128735
1.0088633
0.99712019
0.97519737
0.96400095
0.97610246
0.98857022
0.99024919
0.99464667
1.0009218
1.0073089
1.0126752
1.0155801
1.0153334
1.011903
1.0058814
0.9994153
0.9925765
0.98789219
0.98494928
0.98247843
0.98029319
0.97898844
0.9804192
0.98840785
1.0014597
1.0141305
1.0163657
1.0093381
0.99692504
0.98276935
0.97473203
0.98034027
1.0071959
1.0107038
1.0129448
1.0158828
1.0182452
1.0193397
1.0186055
1.0163702
1.0124564
1.0072187
1.0008444
0.99470552
0.98879652
0.98457127
0.98155539
0.9791655
0.97791245
0.98076504
0.98839377
0.99716425
1.0011833
0.99612812
0.98814743
0.98792924
0.99296887
0.99391112
0.99521758
1.0241864
1.0252203
1.0237255
1.0238207
1.0240835
1.0242106
1.0234735
1.0212563
1.0174989
1.0119656
1.0052176
0.99865717
0.99362332
0.9908412
0.98937289
0.98899349
0.99079116
0.99519656
1.0002028
0.99985386
0.98959166
0.97084713
0.96035659
0.97016143
0.99161825
1.007222
1.0126358
1.022804
1.0206817
1.0181546
1.018818
1.021104
1.0232886
1.0244551
1.0234912
1.0200841
1.0148185
1.0086954
1.0025812
0.99930224
0.99883868
1.0014035
1.0057287
1.0104299
1.0135718
1.0136275
1.0066717
0.98940387
0.96421642
0.95276213
0.96215646
0.98328216
1.0003379
1.0094694
1.0099691
1.0075433
1.006021
1.0075389
1.0093675
1.0112062
1.0122206
1.0118424
1.0098499
1.0069053
1.003476
1.0017043
1.0029594
1.0075384
1.0147248
1.0225712
1.0269277
1.0256298
1.0195099
1.0102866
0.9956854
0.97822055
0.96807545
0.97502979
0.98599887
0.98656877
0.9784921
1.000059
0.99718412
0.99528082
0.99557552
0.99667375
0.9978206
0.99813495
0.99739074
0.99579331
0.99424545
0.99360455
0.99595282
1.0021292
1.0117428
1.0212521
1.0263925
1.0251431
1.0185965
1.0111584
1.0060223
1.0033242
0.99792777
0.99395338
0.99847046
1.0018721
0.98282775
0.94869769
0.98842367
0.98608399
0.98432584
0.98502037
0.98669145
0.98857195
0.99026658
0.99149953
0.99249129
0.99376457
0.99583588
0.99927182
1.0040141
1.0081557
1.010578
1.0087337
1.0026425
0.99489404
0.99157511
0.99575072
1.0050294
1.0117946
1.0162804
1.0227667
1.0199115
0.98913445
0.94421995
0.97621521
0.97371753
0.97276907
0.97448264
0.9779041
0.98275528
0.98789936
0.99319727
0.99839751
1.0029177
1.0059073
1.0062477
1.0046225
1.0016204
0.99541933
0.98668105
0.97784386
0.97203898
0.97416475
0.98547579
1.0022333
1.0145577
1.0192199
1.0231296
1.0212678
0.99904422
0.96392749
0.96695064
0.9656285
0.96679477
0.97041833
0.97620187
0.98396383
0.99271632
1.0004039
1.0062273
1.0078689
1.005028
0.99961276
0.99407569
0.9888224
0.98196298
0.97554916
0.96873487
0.96519782
0.96925681
0.98220631
1.0001943
1.011174
1.0041074
0.99538288
0.99324473
0.99555507
0.98744354
0.968921
0.97017211
0.97372371
0.97991592
0.98795081
0.99650893
1.0036237
1.0064935
1.004892
0.99905403
0.99130105
0.98262656
0.97449407
0.96900738
0.96759513
0.96792097
0.968973
0.97126325
0.97794837
0.98982444
1.0017769
1.002656
0.98449486
0.96295582
0.96194071
0.97801172
0.9929232
0.98771838
0.99091118
0.99375218
0.99859721
1.0034194
1.006796
1.0071481
1.0037324
0.99713967
0.98782841
0.97668496
0.96617954
0.95867379
0.95652096
0.95854423
0.9631808
0.96931082
0.97685104
0.98671289
0.99702526
1.0027479
0.99361846
0.96453548
0.94132976
0.94686589
0.9685871
0.98646751
1.0120154
1.0136814
1.0118543
1.0111645
1.010516
1.0093036
1.0064487
1.0007848
0.99265768
0.98255886
0.97265081
0.96410865
0.95881602
0.9581155
0.96153151
0.96776778
0.97496625
0.98124762
0.98688873
0.99093724
0.99118328
0.9806384
0.95586925
0.93582229
0.94081561
0.96712628
0.9891101
1.0110585
1.0097096
1.0067465
1.0064711
1.0069691
1.0070809
1.0059191
1.0025609
0.9970997
0.99026
0.98268362
0.97591294
0.97162145
0.97217117
0.97678495
0.98320211
0.98734098
0.98586667
0.98048034
0.97453611
0.96837159
0.96174425
0.95114298
0.93999933
0.94742204
0.97386615
0.9915719
0.98463019
0.98253624
0.9803585
0.9813742
0.98471421
0.9899186
0.99540448
0.99905792
1.0008766
1.0000146
0.99666149
0.99298803
0.99183083
0.99443835
0.99941986
1.0034259
1.0006785
0.98900061
0.97221423
0.95723573
0.94823532
0.94763981
0.94621851
0.94432743
0.95838787
0.98390805
0.98900275
0.95695209
0.95391463
0.95298363
0.95538333
0.96045461
0.96784865
0.97610641
0.98360924
0.99012827
0.99546171
0.99976432
1.0032621
1.0068779
1.0112221
1.0151084
1.0154525
1.0076989
0.98968992
0.96794706
0.95080742
0.94395269
0.94693788
0.94936034
0.94992679
0.96483205
0.98563619
0.9776425
0.93908476
0.9378022
0.93902716
0.9426831
0.94894188
0.9572732
0.96601289
0.9739476
0.98087886
0.98674
0.99133729
0.99463254
0.99803219
1.0016461
1.0045378
1.0045974
0.99832057
0.98436451
0.96799137
0.95719306
0.95565468
0.96162263
0.96582278
0.96249155
0.96485643
0.96813099
0.95241004
0.93616282
0.93639878
0.93963541
0.94437272
0.95142675
0.9602525
0.96980549
0.97834439
0.9841072
0.98572613
0.98365648
0.97811166
0.97201406
0.96765178
0.96686797
0.96766302
0.96820351
0.96631878
0.96442499
0.96562707
0.97250891
0.98543656
0.99316543
0.98123973
0.96031772
0.94063018
0.92103705
0.94499581
0.94684093
0.95024933
0.95572268
0.96385855
0.97353627
0.9825705
0.9879343
0.98850965
0.98318274
0.97311612
0.95995519
0.94637912
0.93465795
0.92729333
0.92701799
0.93058732
0.93742441
0.94786722
0.96177273
0.9818159
1.0055708
1.0169163
0.99765434
0.95627185
0.9193429
0.90088141
0.95807252
0.96248807
0.9668384
0.97283634
0.98054069
0.98814676
0.99313868
0.99312009
0.98702684
0.97550604
0.95960085
0.94255803
0.92717062
0.91465501
0.9066863
0.90526969
0.909094
0.9171923
0.92941602
0.94786349
0.97423869
1.0047543
1.0196962
0.99811848
0.95278049
0.9149988
0.89869081
0.97296746
0.97745332
0.98052578
0.98489435
0.9902248
0.99474718
0.99598278
0.99171872
0.98202552
0.96707562
0.94971764
0.93278585
0.91773706
0.90694384
0.9022027
0.90330273
0.90847337
0.91609358
0.92616436
0.94050402
0.95767588
0.97665299
0.98793595
0.97300576
0.94297247
0.91988345
0.91237357
0.975048
0.97852388
0.98005169
0.98303454
0.98683419
0.98989817
0.99008408
0.98579052
0.9763698
0.96279929
0.94684235
0.93141993
0.91891148
0.91146794
0.90962091
0.91391866
0.92181428
0.93024243
0.93700746
0.94107606
0.94159066
0.9409579
0.94038677
0.93013662
0.91706479
0.91760154
0.92906885
0.95596189
0.95696418
0.96001508
0.96505098
0.97097142
0.97654787
0.97908984
0.97770162
0.97170994
0.96135228
0.9480072
0.93460794
0.92507055
0.9214925
0.92375877
0.93109855
0.94155119
0.94956694
0.94926354
0.93928051
0.92538785
0.91216049
0.89898302
0.88932926
0.88509835
0.9036679
0.93676093
0.92277374
0.92317041
0.92783746
0.93576734
0.94521249
0.95503968
0.96278813
0.96640136
0.96502389
0.95873908
0.94919895
0.93976839
0.93390794
0.93423713
0.94006001
0.94943729
0.96060785
0.96318519
0.95353224
0.93283025
0.90843898
0.88741646
0.87355537
0.86304826
0.86524445
0.88695112
0.93294237
0.88855223
0.8885954
0.89505869
0.90521444
0.91731494
0.93021257
0.94227967
0.95126377
0.95595052
0.95507189
0.95055099
0.94551904
0.94316745
0.94605848
0.95324766
0.96316771
0.97102493
0.96708662
0.94919053
0.9216563
0.8925199
0.87119824
0.85870802
0.85245657
0.85759023
0.88095192
0.9221734
0.85849306
0.85927244
0.86759971
0.8797926
0.89384129
0.9094264
0.92440197
0.9375516
0.94713802
0.952062
0.95292618
0.95197814
0.95153862
0.9535709
0.95806488
0.96404721
0.96476809
0.95610202
0.93765565
0.91008989
0.8846206
0.86505864
0.85495313
0.85457673
0.8618985
0.88326376
0.90907375
0.83270795
0.8349443
0.84620877
0.86136593
0.87806091
0.89604015
0.91363372
0.92987446
0.94259445
0.9509824
0.95381908
0.953178
0.95172275
0.95100804
0.95114589
0.95005108
0.94604106
0.93565219
0.91904734
0.89957336
0.88028091
0.86568416
0.86126991
0.86336717
0.87137127
0.88641566
0.89620175
0.81093586
0.81464299
0.82906694
0.84820076
0.86895449
0.89057821
0.91144472
0.92970114
0.94342559
0.94933839
0.94864643
0.94325705
0.9378931
0.93417015
0.93127533
0.92711388
0.9215477
0.91182126
0.89903381
0.88651287
0.87692283
0.87179411
0.87317295
0.87630229
0.88247012
0.8862389
0.87895604
0.79602833
0.80064838
0.81727117
0.84035931
0.86581774
0.89221169
0.91575976
0.93329601
0.9424779
0.94244329
0.93449387
0.9237343
0.91451293
0.90794547
0.90415813
0.90103197
0.89659481
0.8892007
0.88166027
0.87586633
0.87384731
0.87863467
0.88694835
0.89129087
0.89049479
0.88138358
0.85796554
0.79034321
0.79588518
0.81398653
0.83985891
0.86906475
0.89722786
0.92014309
0.93370409
0.93639109
0.92941391
0.91525827
0.90037446
0.88874558
0.88158106
0.87866722
0.87869441
0.877119
0.87338308
0.86932308
0.86797611
0.87289586
0.88433137
0.89885957
0.90398202
0.89440979
0.87191265
0.83903775
0.788799
0.79609665
0.81693874
0.84499788
0.87489896
0.90210446
0.9218457
0.92993457
0.92765874
0.91467527
0.89680757
0.87958479
0.86724884
0.86060568
0.85903169
0.8619547
0.86467777
0.86519999
0.86367262
0.86524489
0.87346829
0.88804967
0.90512409
0.90956599
0.89230138
0.86144225
0.82813786
0.78234651
0.79287934
0.81847943
0.84979455
0.88005187
0.90455545
0.91970053
0.92343598
0.91676762
0.90041523
0.88078701
0.86318831
0.85135947
0.84589358
0.84639082
0.85263089
0.85851976
0.86023885
0.85982234
0.86291519
0.87184235
0.88727234
0.9034622
0.90594007
0.88670678
0.85594358
0.82532269
0.76616653
0.7802905
0.81180798
0.84750504
0.87913193
0.90241529
0.91438475
0.91489578
0.9044342
0.88634956
0.86635072
0.8500048
0.84032315
0.83641484
0.83920979
0.84725623
0.85389752
0.85621443
0.85602124
0.8583748
0.86677966
0.88008202
0.89504551
0.89778784
0.88090194
0.85501812
0.82958073
0.74533348
0.76091404
0.79609162
0.83690825
0.8722222
0.89635557
0.90671362
0.90554019
0.8928584
0.87337339
0.85372232
0.83948502
0.83227078
0.83063512
0.83613541
0.84463026
0.84969464
0.85024636
0.84811407
0.84853758
0.85501252
0.86874743
0.88417442
0.88823673
0.87524818
0.85657707
0.83607179
0.72822643
0.74300307
0.77772357
0.82071628
0.85990636
0.88714812
0.89879014
0.8976964
0.884154
0.86372688
0.84398729
0.83088984
0.82484897
0.82504289
0.83274337
0.84127941
0.84493289
0.84215769
0.83719986
0.83587515
0.84146029
0.85515703
0.87151741
0.87735947
0.86875087
0.85691927
0.84303021
0.71586167
0.7301764
0.76400614
0.80674804
0.84757537
0.87786327
0.8923051
0.89268788
0.88082351
0.86135054
0.84235856
0.82947718
0.82328813
0.82314874
0.82993756
0.8372598
0.83823793
0.83296318
0.8262218
0.82423554
0.82954263
0.84240769
0.8576675
0.86468212
0.86091717
0.85685516
0.84998505
0.70576967
0.72001847
0.75342483
0.79560828
0.8367245
0.86911538
0.88695586
0.88991862
0.88100604
0.86276715
0.8440915
0.83101855
0.82491143
0.82434384
0.83011668
0.83427118
0.83184027
0.82322335
0.81529942
0.81404806
0.81983448
0.83290242
0.84615067
0.85236003
0.85293014
0.85868974
0.85680934
0.6927453
0.70741384
0.74176652
0.78448207
0.82630625
0.86030298
0.88050361
0.88581676
0.87986255
0.86393234
0.84666961
0.83413701
0.82780707
0.82707375
0.83144223
0.83287812
0.8279286
0.81793995
0.80922439
0.80814897
0.81478395
0.82593594
0.83595161
0.83964373
0.84389701
0.85909513
0.86414315
0.6739974
0.69051751
0.72792375
0.7730243
0.81549764
0.84965671
0.87085538
0.87784986
0.87514309
0.86193886
0.84738623
0.83706257
0.83232051
0.83176982
0.83488039
0.83373831
0.82610365
0.81506794
0.80713894
0.80770959
0.81337257
0.82164962
0.82610436
0.82668884
0.8315861
0.85322858
0.86582825
0.64818026
0.66722275
0.70839784
0.75687474
0.80096843
0.83556375
0.85709139
0.86547462
0.86422346
0.85491335
0.84494203
0.83784472
0.83623566
0.83725058
0.83957197
0.83559779
0.82607011
0.81583121
0.80915362
0.8088139
0.81310355
0.81675187
0.81565989
0.81139028
0.81445755
0.83836058
0.85987527
0.62043362
0.64153438
0.68621593
0.73811592
0.78415053
0.81896335
0.83955817
0.84772366
0.84738635
0.84126821
0.83617623
0.83491681
0.83828389
0.84353959
0.84680405
0.84141496
0.8289592
0.81804322
0.81138181
0.80988005
0.81099645
0.80974374
0.80289014
0.7942559
0.79411746
0.81524628
0.8430189
0.59557683
0.61813488
0.66514759
0.71935699
0.76645979
0.80060724
0.82030656
0.82699132
0.82679824
0.82323127
0.8222995
0.82723094
0.83656228
0.84675602
0.85288267
0.84820583
0.83397691
0.82065194
0.8123424
0.81010213
0.80859857
0.80286282
0.78992935
0.77692451
0.77221301
0.78620582
0.8157531
0.57825449
0.60172115
0.65006084
0.7057779
0.75411939
0.78706008
0.80430293
0.80909071
0.80786683
0.80440245
0.80579673
0.81372884