/*--------------------------------*- C++ -*----------------------------------*\
| =========                 |                                                 |
| \\      /  F ield         | OpenFOAM: The Open Source CFD Toolbox           |
|  \\    /   O peration     | Version:  2406                                  |
|   \\  /    A nd           | Website:  www.openfoam.com                      |
|    \\/     M anipulation  |                                                 |
\*---------------------------------------------------------------------------*/
FoamFile
{
    version     2.0;
    format      ascii;
    arch        "LSB;label=32;scalar=64";
    class       volScalarField;
    location    "1500";
    object      p;
}
// * * * * * * * * * * * * * * * * * * * * * * * * * * * * * * * * * * * * * //

dimensions      [1 -1 -2 0 0 0 0];

internalField   nonuniform List<scalar> 
132739
(
1.0028274
1.0028399
1.0028572
1.0028751
1.0028978
1.0029254
1.0029568
1.0029921
1.0030312
1.0030741
1.0031206
1.0031707
1.0032244
1.0032815
1.003342
1.0034059
1.0034732
1.0035437
1.0036175
1.0036945
1.0037746
1.003858
1.0039444
1.0040339
1.0041264
1.004222
1.0043204
1.0044217
1.0045259
1.0046328
1.0047424
1.0048547
1.0049694
1.0050867
1.0052062
1.0053281
1.0054521
1.0055781
1.0057061
1.0058359
1.0059673
1.0061002
1.0062345
1.00637
1.0065066
1.0066441
1.0067822
1.0069211
1.0070603
1.0071998
1.0073393
1.0074789
1.0076172
1.0077561
1.0078934
1.0080297
1.0081647
1.0082982
1.0084305
1.0085596
1.0086858
1.0088127
1.0089366
1.0090579
1.0091759
1.0092908
1.009402
1.0095094
1.0096127
1.0097116
1.0098056
1.0098944
1.0099776
1.0100547
1.010125
1.0101881
1.0102433
1.01029
1.0103275
1.0103551
1.0103719
1.0103772
1.0103699
1.0103492
1.010314
1.0102633
1.0101961
1.0101112
1.0100075
1.0098839
1.0097394
1.0095728
1.009383
1.0091689
1.0089296
1.0086641
1.0083715
1.008051
1.0077022
1.007324
1.0069181
1.0064822
1.0060278
1.0055439
1.0028281
1.0028409
1.0028584
1.0028762
1.0028989
1.0029265
1.0029579
1.0029931
1.0030322
1.003075
1.0031215
1.0031716
1.0032251
1.0032822
1.0033426
1.0034065
1.0034736
1.003544
1.0036177
1.0036946
1.0037747
1.0038579
1.0039442
1.0040336
1.0041259
1.0042213
1.0043196
1.0044208
1.0045248
1.0046315
1.0047409
1.004853
1.0049675
1.0050846
1.0052039
1.0053255
1.0054493
1.005575
1.0057027
1.0058321
1.0059632
1.0060957
1.0062296
1.0063647
1.0065007
1.0066377
1.0067752
1.0069133
1.0070517
1.0071903
1.0073288
1.0074676
1.0076044
1.0077424
1.0078774
1.0080129
1.0081463
1.0082778
1.0084087
1.008537
1.0086624
1.0087866
1.0089074
1.009025
1.0091396
1.0092511
1.0093588
1.0094625
1.0095618
1.0096564
1.009746
1.0098301
1.0099084
1.0099803
1.0100454
1.0101032
1.0101534
1.0101956
1.0102292
1.0102534
1.0102675
1.0102707
1.010262
1.0102407
1.0102058
1.0101565
1.0100919
1.0100109
1.0099126
1.0097961
1.0096605
1.0095046
1.0093278
1.0091289
1.0089072
1.0086619
1.0083922
1.0080973
1.0077769
1.0074297
1.0070557
1.0066523
1.0062169
1.0057487
1.0028286
1.0028419
1.0028596
1.0028773
1.0029
1.0029277
1.0029591
1.0029943
1.0030334
1.0030763
1.0031228
1.0031729
1.0032266
1.0032837
1.0033442
1.0034081
1.0034753
1.0035458
1.0036196
1.0036965
1.0037767
1.00386
1.0039464
1.0040359
1.0041284
1.0042239
1.0043223
1.0044236
1.0045278
1.0046346
1.0047442
1.0048564
1.0049711
1.0050882
1.0052077
1.0053294
1.0054533
1.0055792
1.005707
1.0058365
1.0059676
1.0061002
1.0062341
1.0063691
1.0065052
1.006642
1.0067794
1.0069172
1.0070552
1.0071933
1.0073312
1.0074687
1.0076058
1.0077419
1.0078766
1.0080114
1.0081438
1.0082742
1.0084039
1.0085311
1.008655
1.0087771
1.0088958
1.0090107
1.0091226
1.0092311
1.0093356
1.0094357
1.0095313
1.0096219
1.0097072
1.0097868
1.0098602
1.0099271
1.0099869
1.0100391
1.0100832
1.0101186
1.0101448
1.0101613
1.0101674
1.0101624
1.0101456
1.0101161
1.0100733
1.0100163
1.0099442
1.0098561
1.0097512
1.0096286
1.0094875
1.0093269
1.009146
1.0089439
1.00872
1.0084734
1.0082035
1.0079095
1.0075912
1.0072479
1.006879
1.0064868
1.0060636
1.0056369
1.002829
1.0028429
1.0028607
1.0028783
1.002901
1.0029287
1.0029601
1.0029953
1.0030344
1.0030773
1.0031238
1.0031738
1.0032275
1.0032845
1.003345
1.0034089
1.0034761
1.0035465
1.0036203
1.0036972
1.0037773
1.0038606
1.003947
1.0040364
1.0041289
1.0042243
1.0043227
1.0044239
1.004528
1.0046348
1.0047443
1.0048564
1.004971
1.0050881
1.0052075
1.0053291
1.0054529
1.0055786
1.0057062
1.0058356
1.0059666
1.0060989
1.0062326
1.0063674
1.0065031
1.0066396
1.0067767
1.006914
1.0070516
1.0071892
1.0073266
1.0074627
1.0076002
1.007734
1.007868
1.0080021
1.008133
1.008262
1.0083902
1.0085158
1.0086376
1.0087579
1.0088743
1.0089869
1.0090962
1.0092018
1.0093032
1.0094001
1.0094921
1.0095789
1.0096602
1.0097356
1.0098046
1.0098667
1.0099217
1.0099689
1.0100082
1.010039
1.0100607
1.0100727
1.0100743
1.0100648
1.0100434
1.0100094
1.009962
1.0099004
1.0098239
1.0097315
1.0096226
1.0094964
1.0093519
1.0091886
1.0090056
1.0088021
1.0085776
1.0083314
1.0080629
1.0077715
1.0074567
1.0071185
1.0067556
1.0063702
1.0059565
1.0055252
1.0028293
1.0028437
1.0028617
1.0028792
1.0029019
1.0029296
1.002961
1.0029963
1.0030354
1.0030782
1.0031247
1.0031748
1.0032285
1.0032856
1.0033461
1.0034099
1.0034772
1.0035477
1.0036214
1.0036984
1.0037785
1.0038618
1.0039482
1.0040377
1.0041302
1.0042257
1.0043241
1.0044254
1.0045295
1.0046363
1.0047458
1.004858
1.0049726
1.0050897
1.0052091
1.0053308
1.0054545
1.0055802
1.0057078
1.0058372
1.0059681
1.0061004
1.006234
1.0063686
1.0065042
1.0066405
1.0067773
1.0069144
1.0070516
1.0071888
1.0073257
1.0074615
1.0075978
1.0077318
1.007865
1.0079976
1.0081277
1.0082558
1.0083824
1.0085064
1.008627
1.0087452
1.0088598
1.0089704
1.0090774
1.0091805
1.0092793
1.0093733
1.0094622
1.0095458
1.0096236
1.0096953
1.0097605
1.0098186
1.0098694
1.0099123
1.0099469
1.0099726
1.009989
1.0099956
1.0099916
1.0099767
1.00995
1.0099109
1.0098588
1.0097928
1.0097123
1.0096164
1.0095045
1.0093758
1.0092296
1.0090652
1.0088818
1.0086788
1.0084557
1.0082119
1.0079468
1.0076599
1.0073509
1.0070196
1.006665
1.006288
1.0058864
1.0054608
1.0028295
1.0028446
1.0028626
1.00288
1.0029028
1.0029305
1.0029619
1.0029971
1.0030362
1.0030791
1.0031256
1.0031757
1.0032293
1.0032864
1.0033468
1.0034107
1.0034779
1.0035484
1.0036221
1.0036991
1.0037792
1.0038625
1.0039489
1.0040383
1.0041308
1.0042262
1.0043246
1.0044258
1.0045299
1.0046367
1.0047462
1.0048583
1.0049729
1.0050899
1.0052093
1.0053308
1.0054545
1.0055802
1.0057077
1.0058369
1.0059676
1.0060998
1.0062332
1.0063677
1.006503
1.006639
1.0067755
1.0069123
1.0070491
1.0071858
1.0073222
1.0074577
1.0075931
1.0077264
1.0078588
1.0079903
1.0081195
1.0082465
1.0083717
1.0084942
1.0086134
1.0087298
1.0088426
1.0089514
1.0090562
1.0091569
1.0092531
1.0093443
1.0094303
1.0095108
1.0095853
1.0096534
1.0097148
1.0097691
1.0098158
1.0098546
1.009885
1.0099066
1.009919
1.0099215
1.0099135
1.0098945
1.0098638
1.0098207
1.0097645
1.0096947
1.0096105
1.0095113
1.0093964
1.0092651
1.0091168
1.0089508
1.0087665
1.0085633
1.0083408
1.0080983
1.0078355
1.0075519
1.0072472
1.0069213
1.0065734
1.0062043
1.0058125
1.0053994
1.0028297
1.0028453
1.0028634
1.0028808
1.0029036
1.0029313
1.0029627
1.0029979
1.003037
1.0030799
1.0031264
1.0031764
1.00323
1.0032871
1.0033476
1.0034115
1.0034787
1.0035491
1.0036229
1.0036998
1.00378
1.0038632
1.0039496
1.0040391
1.0041315
1.004227
1.0043253
1.0044266
1.0045306
1.0046374
1.0047469
1.004859
1.0049736
1.0050906
1.0052099
1.0053314
1.0054551
1.0055807
1.0057081
1.0058372
1.0059679
1.0060999
1.0062332
1.0063675
1.0065027
1.0066385
1.0067747
1.0069112
1.0070477
1.007184
1.00732
1.007455
1.0075897
1.0077226
1.0078543
1.0079849
1.0081132
1.0082392
1.0083632
1.0084845
1.0086024
1.0087172
1.0088283
1.0089354
1.0090383
1.009137
1.0092309
1.0093197
1.0094032
1.0094809
1.0095525
1.0096176
1.0096758
1.0097268
1.0097701
1.0098053
1.009832
1.0098497
1.0098579
1.0098562
1.0098441
1.0098209
1.0097861
1.009739
1.0096792
1.0096059
1.0095185
1.0094165
1.0092991
1.0091657
1.0090157
1.0088487
1.0086639
1.0084609
1.0082392
1.0079984
1.007738
1.0074578
1.0071574
1.0068366
1.0064952
1.0061334
1.0057501
1.0053478
1.0028298
1.0028461
1.0028642
1.0028815
1.0029043
1.002932
1.0029634
1.0029986
1.0030377
1.0030806
1.003127
1.0031771
1.0032307
1.0032878
1.0033483
1.0034121
1.0034793
1.0035497
1.0036235
1.0037004
1.0037805
1.0038637
1.0039501
1.0040395
1.004132
1.0042274
1.0043257
1.0044269
1.0045309
1.0046377
1.0047471
1.0048592
1.0049737
1.0050907
1.0052099
1.0053314
1.0054549
1.0055805
1.0057078
1.0058368
1.0059674
1.0060993
1.0062324
1.0063665
1.0065015
1.006637
1.006773
1.0069092
1.0070454
1.0071813
1.0073168
1.0074514
1.0075854
1.0077178
1.0078488
1.0079785
1.008106
1.0082311
1.008354
1.008474
1.0085907
1.0087041
1.0088137
1.0089191
1.0090203
1.009117
1.0092088
1.0092953
1.0093764
1.0094515
1.0095204
1.0095826
1.0096379
1.0096857
1.0097257
1.0097575
1.0097807
1.009795
1.0097999
1.0097948
1.0097792
1.0097527
1.0097145
1.0096642
1.0096013
1.009525
1.0094349
1.0093304
1.0092108
1.0090756
1.0089244
1.0087564
1.0085714
1.0083687
1.008148
1.0079088
1.0076509
1.0073739
1.0070776
1.0067619
1.0064264
1.0060717
1.005696
1.0053039
1.0028298
1.0028468
1.002865
1.0028822
1.002905
1.0029327
1.0029641
1.0029993
1.0030384
1.0030812
1.0031277
1.0031777
1.0032313
1.0032884
1.0033488
1.0034127
1.0034798
1.0035503
1.003624
1.0037009
1.003781
1.0038642
1.0039506
1.00404
1.0041324
1.0042278
1.0043261
1.0044273
1.0045312
1.004638
1.0047474
1.0048594
1.0049739
1.0050908
1.00521
1.0053314
1.0054549
1.0055803
1.0057076
1.0058365
1.0059669
1.0060987
1.0062317
1.0063656
1.0065004
1.0066358
1.0067715
1.0069074
1.0070433
1.0071789
1.007314
1.0074481
1.0075816
1.0077135
1.0078439
1.0079728
1.0080996
1.0082239
1.0083457
1.0084646
1.0085802
1.0086923
1.0088005
1.0089045
1.0090041
1.009099
1.0091889
1.0092735
1.0093524
1.0094253
1.0094917
1.0095515
1.0096041
1.0096492
1.0096863
1.0097152
1.0097355
1.0097466
1.0097482
1.0097399
1.009721
1.0096912
1.0096499
1.0095966
1.0095308
1.0094518
1.0093593
1.0092525
1.0091311
1.0089944
1.008842
1.0086735
1.0084882
1.0082859
1.0080662
1.0078287
1.0075731
1.0072992
1.0070067
1.0066957
1.0063657
1.0060176
1.0056491
1.0052661
1.0028298
1.0028474
1.0028656
1.0028828
1.0029056
1.0029333
1.0029647
1.0029999
1.003039
1.0030818
1.0031282
1.0031783
1.0032319
1.0032889
1.0033493
1.0034132
1.0034803
1.0035507
1.0036244
1.0037013
1.0037814
1.0038646
1.0039509
1.0040402
1.0041326
1.004228
1.0043263
1.0044274
1.0045314
1.004638
1.0047474
1.0048593
1.0049738
1.0050906
1.0052098
1.0053311
1.0054545
1.0055799
1.005707
1.0058358
1.0059661
1.0060978
1.0062306
1.0063644
1.006499
1.0066341
1.0067696
1.0069053
1.0070408
1.0071761
1.0073108
1.0074446
1.0075775
1.0077089
1.0078388
1.007967
1.008093
1.0082165
1.0083374
1.0084553
1.0085698
1.0086807
1.0087877
1.0088903
1.0089884
1.0090817
1.0091699
1.0092527
1.0093296
1.0094003
1.0094646
1.009522
1.0095722
1.0096147
1.0096493
1.0096754
1.0096929
1.0097013
1.0097001
1.009689
1.0096674
1.0096348
1.0095909
1.009535
1.0094667
1.0093854
1.0092907
1.0091821
1.0090591
1.0089212
1.008768
1.0085989
1.0084137
1.0082119
1.0079932
1.0077574
1.007504
1.0072331
1.0069443
1.0066377
1.0063128
1.0059709
1.005609
1.0052343
1.0028298
1.002848
1.0028663
1.0028833
1.0029062
1.0029339
1.0029653
1.0030004
1.0030395
1.0030823
1.0031288
1.0031788
1.0032323
1.0032894
1.0033498
1.0034136
1.0034807
1.0035511
1.0036248
1.0037016
1.0037817
1.0038648
1.0039511
1.0040405
1.0041328
1.0042281
1.0043264
1.0044275
1.0045314
1.004638
1.0047473
1.0048592
1.0049736
1.0050904
1.0052095
1.0053307
1.0054541
1.0055793
1.0057064
1.0058351
1.0059653
1.0060968
1.0062295
1.0063631
1.0064975
1.0066324
1.0067677
1.0069031
1.0070384
1.0071733
1.0073077
1.0074411
1.0075736
1.0077045
1.0078338
1.0079614
1.0080867
1.0082095
1.0083296
1.0084466
1.0085601
1.00867
1.0087758
1.0088772
1.008974
1.0090658
1.0091525
1.0092335
1.0093087
1.0093776
1.0094399
1.0094953
1.0095433
1.0095836
1.0096158
1.0096396
1.0096546
1.0096605
1.0096568
1.0096431
1.0096189
1.0095839
1.0095375
1.0094792
1.0094087
1.0093254
1.0092289
1.0091187
1.0089943
1.0088554
1.0087014
1.0085321
1.008347
1.0081458
1.0079282
1.0076939
1.0074428
1.0071747
1.0068893
1.0065869
1.0062669
1.0059306
1.005575
1.0052079
1.0028298
1.0028485
1.0028668
1.0028838
1.0029067
1.0029344
1.0029658
1.0030009
1.00304
1.0030828
1.0031292
1.0031792
1.0032328
1.0032898
1.0033502
1.0034139
1.003481
1.0035514
1.003625
1.0037019
1.0037819
1.003865
1.0039513
1.0040406
1.0041329
1.0042282
1.0043264
1.0044274
1.0045313
1.0046379
1.0047471
1.004859
1.0049733
1.00509
1.005209
1.0053302
1.0054534
1.0055786
1.0057056
1.0058342
1.0059642
1.0060956
1.0062282
1.0063616
1.0064958
1.0066306
1.0067656
1.0069008
1.0070358
1.0071704
1.0073044
1.0074375
1.0075695
1.0077
1.0078289
1.0079558
1.0080805
1.0082027
1.008322
1.0084382
1.0085508
1.0086597
1.0087644
1.0088647
1.0089603
1.0090508
1.009136
1.0092156
1.0092891
1.0093564
1.0094169
1.0094703
1.0095164
1.0095546
1.0095847
1.0096064
1.0096192
1.0096228
1.0096169
1.009601
1.0095746
1.0095374
1.0094888
1.0094286
1.0093562
1.0092711
1.009173
1.0090614
1.008936
1.0087962
1.0086417
1.0084722
1.0082873
1.0080868
1.0078703
1.0076377
1.0073887
1.0071233
1.0068412
1.0065427
1.0062272
1.0058963
1.0055464
1.0051864
1.0028297
1.002849
1.0028674
1.0028843
1.0029072
1.0029349
1.0029662
1.0030014
1.0030404
1.0030832
1.0031296
1.0031796
1.0032331
1.0032901
1.0033505
1.0034142
1.0034813
1.0035517
1.0036253
1.0037021
1.003782
1.0038652
1.0039514
1.0040406
1.0041329
1.0042281
1.0043263
1.0044273
1.0045311
1.0046377
1.0047468
1.0048586
1.0049729
1.0050895
1.0052085
1.0053296
1.0054527
1.0055778
1.0057047
1.0058332
1.0059631
1.0060944
1.0062267
1.0063601
1.0064941
1.0066286
1.0067635
1.0068984
1.0070332
1.0071675
1.0073012
1.0074339
1.0075656
1.0076957
1.007824
1.0079505
1.0080746
1.0081961
1.0083147
1.0084301
1.008542
1.0086499
1.0087537
1.008853
1.0089475
1.0090368
1.0091208
1.009199
1.0092711
1.0093368
1.0093957
1.0094475
1.0094918
1.0095283
1.0095565
1.0095762
1.0095871
1.0095887
1.0095808
1.0095628
1.0095345
1.0094953
1.0094449
1.0093828
1.0093087
1.0092222
1.0091227
1.00901
1.0088836
1.0087431
1.0085883
1.0084188
1.0082342
1.0080344
1.007819
1.007588
1.0073411
1.0070782
1.0067993
1.0065045
1.0061933
1.0058673
1.0055228
1.0051692
1.0028295
1.0028494
1.0028678
1.0028847
1.0029077
1.0029354
1.0029667
1.0030018
1.0030408
1.0030836
1.00313
1.00318
1.0032334
1.0032904
1.0033508
1.0034145
1.0034815
1.0035519
1.0036254
1.0037022
1.0037821
1.0038652
1.0039514
1.0040406
1.0041328
1.004228
1.0043261
1.0044271
1.0045309
1.0046373
1.0047465
1.0048582
1.0049724
1.0050889
1.0052078
1.0053288
1.0054519
1.0055769
1.0057036
1.005832
1.0059618
1.006093
1.0062252
1.0063584
1.0064922
1.0066266
1.0067613
1.006896
1.0070305
1.0071645
1.0072979
1.0074303
1.0075616
1.0076913
1.0078192
1.0079452
1.0080688
1.0081897
1.0083077
1.0084224
1.0085335
1.0086407
1.0087436
1.008842
1.0089354
1.0090237
1.0091065
1.0091835
1.0092543
1.0093186
1.0093761
1.0094263
1.0094691
1.0095039
1.0095305
1.0095485
1.0095576
1.0095575
1.0095477
1.009528
1.0094979
1.0094571
1.009405
1.0093414
1.0092659
1.009178
1.0090774
1.0089637
1.0088366
1.0086956
1.0085406
1.0083711
1.008187
1.0079879
1.0077737
1.0075442
1.0072993
1.0070389
1.0067629
1.0064716
1.0061644
1.005843
1.0055036
1.0051561
1.0028294
1.0028499
1.0028683
1.0028851
1.0029081
1.0029358
1.002967
1.0030022
1.0030412
1.0030839
1.0031303
1.0031803
1.0032337
1.0032907
1.003351
1.0034147
1.0034817
1.003552
1.0036255
1.0037023
1.0037822
1.0038652
1.0039514
1.0040405
1.0041327
1.0042279
1.0043259
1.0044268
1.0045305
1.0046369
1.004746
1.0048577
1.0049718
1.0050883
1.0052071
1.005328
1.005451
1.0055759
1.0057025
1.0058308
1.0059605
1.0060915
1.0062236
1.0063566
1.0064903
1.0066245
1.006759
1.0068934
1.0070277
1.0071615
1.0072946
1.0074268
1.0075577
1.007687
1.0078146
1.0079401
1.0080632
1.0081836
1.008301
1.0084151
1.0085255
1.0086319
1.008734
1.0088316
1.0089241
1.0090114
1.0090932
1.0091691
1.0092387
1.0093018
1.009358
1.0094069
1.0094482
1.0094816
1.0095067
1.0095232
1.0095307
1.0095291
1.0095178
1.0094965
1.0094649
1.0094225
1.009369
1.0093041
1.0092273
1.0091383
1.0090367
1.0089223
1.0087945
1.0086532
1.008498
1.0083287
1.0081451
1.0079468
1.0077337
1.0075058
1.0072628
1.0070048
1.0067316
1.0064436
1.0061402
1.0058231
1.0054884
1.0051464
1.0028292
1.0028503
1.0028687
1.0028855
1.0029084
1.0029361
1.0029674
1.0030025
1.0030415
1.0030842
1.0031306
1.0031805
1.003234
1.0032909
1.0033512
1.0034149
1.0034818
1.0035521
1.0036256
1.0037023
1.0037822
1.0038652
1.0039513
1.0040404
1.0041325
1.0042276
1.0043256
1.0044265
1.0045301
1.0046365
1.0047455
1.0048571
1.0049711
1.0050875
1.0052062
1.0053271
1.00545
1.0055748
1.0057013
1.0058295
1.0059591
1.00609
1.0062219
1.0063548
1.0064883
1.0066223
1.0067566
1.0068909
1.0070249
1.0071585
1.0072913
1.0074232
1.0075538
1.0076828
1.00781
1.0079351
1.0080577
1.0081776
1.0082945
1.008408
1.0085178
1.0086236
1.008725
1.0088217
1.0089135
1.0089999
1.0090807
1.0091556
1.0092242
1.0092862
1.0093412
1.0093889
1.009429
1.0094611
1.0094849
1.0095
1.0095062
1.0095031
1.0094905
1.0094678
1.0094349
1.0093912
1.0093365
1.0092704
1.0091926
1.0091026
1.0090003
1.0088851
1.008757
1.0086154
1.0084602
1.0082912
1.008108
1.0079106
1.0076987
1.0074722
1.0072311
1.0069754
1.0067049
1.0064201
1.0061201
1.0058071
1.0054768
1.0051399
1.002829
1.0028507
1.0028691
1.0028858
1.0029088
1.0029365
1.0029677
1.0030028
1.0030418
1.0030845
1.0031308
1.0031807
1.0032342
1.0032911
1.0033513
1.003415
1.0034819
1.0035522
1.0036256
1.0037023
1.0037821
1.0038651
1.0039511
1.0040402
1.0041323
1.0042274
1.0043253
1.0044261
1.0045297
1.004636
1.0047449
1.0048564
1.0049704
1.0050867
1.0052054
1.0053261
1.0054489
1.0055736
1.0057001
1.0058281
1.0059576
1.0060883
1.0062202
1.0063529
1.0064863
1.0066201
1.0067542
1.0068883
1.0070221
1.0071555
1.0072881
1.0074196
1.0075499
1.0076786
1.0078055
1.0079302
1.0080524
1.0081719
1.0082883
1.0084013
1.0085105
1.0086157
1.0087164
1.0088125
1.0089035
1.0089892
1.0090691
1.0091431
1.0092108
1.0092718
1.0093258
1.0093724
1.0094114
1.0094424
1.0094649
1.0094789
1.0094839
1.0094796
1.0094657
1.0094419
1.0094077
1.0093629
1.0093072
1.0092401
1.0091614
1.0090706
1.0089676
1.008852
1.0087235
1.0085818
1.0084267
1.008258
1.0080754
1.0078788
1.0076681
1.0074431
1.0072038
1.0069503
1.0066824
1.0064004
1.0061038
1.0057946
1.0054685
1.0051363
1.0028288
1.002851
1.0028694
1.0028861
1.0029091
1.0029368
1.002968
1.0030031
1.0030421
1.0030847
1.0031311
1.0031809
1.0032343
1.0032912
1.0033515
1.0034151
1.003482
1.0035522
1.0036256
1.0037023
1.0037821
1.003865
1.003951
1.00404
1.0041321
1.004227
1.0043249
1.0044257
1.0045292
1.0046354
1.0047443
1.0048557
1.0049696
1.0050859
1.0052044
1.0053251
1.0054478
1.0055724
1.0056987
1.0058267
1.0059561
1.0060867
1.0062184
1.0063509
1.0064842
1.0066179
1.0067518
1.0068857
1.0070193
1.0071524
1.0072848
1.0074161
1.0075462
1.0076746
1.0078011
1.0079254
1.0080473
1.0081663
1.0082823
1.0083948
1.0085035
1.0086081
1.0087083
1.0088038
1.0088941
1.0089791
1.0090583
1.0091315
1.0091983
1.0092584
1.0093115
1.0093572
1.0093952
1.0094251
1.0094467
1.0094596
1.0094635
1.0094582
1.0094432
1.0094183
1.0093832
1.0093374
1.0092808
1.0092128
1.0091334
1.009042
1.0089385
1.0088225
1.0086937
1.008552
1.0083971
1.0082287
1.0080468
1.0078511
1.0076415
1.007418
1.0071805
1.006929
1.0066635
1.0063844
1.0060909
1.0057853
1.0054631
1.0051352
1.0028285
1.0028514
1.0028697
1.0028864
1.0029094
1.0029371
1.0029683
1.0030033
1.0030423
1.003085
1.0031312
1.0031811
1.0032345
1.0032913
1.0033516
1.0034151
1.003482
1.0035522
1.0036256
1.0037022
1.0037819
1.0038648
1.0039508
1.0040398
1.0041317
1.0042267
1.0043245
1.0044252
1.0045287
1.0046348
1.0047436
1.004855
1.0049688
1.005085
1.0052034
1.005324
1.0054466
1.0055711
1.0056974
1.0058252
1.0059545
1.006085
1.0062165
1.006349
1.0064821
1.0066156
1.0067493
1.0068831
1.0070165
1.0071494
1.0072816
1.0074127
1.0075424
1.0076706
1.0077968
1.0079208
1.0080423
1.008161
1.0082765
1.0083886
1.0084969
1.008601
1.0087007
1.0087955
1.0088853
1.0089696
1.0090482
1.0091206
1.0091867
1.009246
1.0092983
1.0093432
1.0093803
1.0094094
1.00943
1.009442
1.009445
1.0094387
1.0094228
1.0093971
1.009361
1.0093145
1.009257
1.0091884
1.0091083
1.0090164
1.0089125
1.0087962
1.0086674
1.0085257
1.008371
1.0082031
1.0080218
1.007827
1.0076186
1.0073965
1.0071607
1.0069112
1.006648
1.0063715
1.0060811
1.0057788
1.0054603
1.0051364
1.0028283
1.0028517
1.00287
1.0028866
1.0029097
1.0029373
1.0029685
1.0030036
1.0030425
1.0030851
1.0031314
1.0031813
1.0032346
1.0032914
1.0033516
1.0034152
1.003482
1.0035522
1.0036255
1.0037021
1.0037818
1.0038646
1.0039505
1.0040395
1.0041314
1.0042263
1.0043241
1.0044247
1.0045281
1.0046342
1.0047429
1.0048542
1.0049679
1.0050841
1.0052024
1.0053229
1.0054454
1.0055698
1.005696
1.0058237
1.0059528
1.0060832
1.0062147
1.006347
1.0064799
1.0066133
1.0067469
1.0068804
1.0070137
1.0071464
1.0072784
1.0074092
1.0075388
1.0076666
1.0077926
1.0079163
1.0080375
1.0081558
1.008271
1.0083827
1.0084905
1.0085942
1.0086934
1.0087877
1.008877
1.0089607
1.0090387
1.0091105
1.0091759
1.0092346
1.0092861
1.0093302
1.0093666
1.0093949
1.0094147
1.0094259
1.0094281
1.009421
1.0094044
1.0093778
1.0093411
1.0092938
1.0092357
1.0091665
1.0090859
1.0089936
1.0088894
1.008773
1.0086441
1.0085025
1.0083481
1.0081807
1.0080001
1.0078062
1.0075989
1.0073782
1.0071441
1.0068965
1.0066356
1.0063616
1.006074
1.0057748
1.0054598
1.0051396
1.002828
1.002852
1.0028703
1.0028869
1.0029099
1.0029376
1.0029687
1.0030038
1.0030427
1.0030853
1.0031316
1.0031814
1.0032347
1.0032915
1.0033517
1.0034152
1.003482
1.0035521
1.0036254
1.0037019
1.0037816
1.0038644
1.0039503
1.0040392
1.004131
1.0042259
1.0043236
1.0044242
1.0045275
1.0046335
1.0047422
1.0048534
1.0049671
1.0050831
1.0052014
1.0053218
1.0054442
1.0055685
1.0056946
1.0058222
1.0059512
1.0060815
1.0062128
1.0063449
1.0064778
1.006611
1.0067444
1.0068778
1.0070109
1.0071435
1.0072752
1.0074058
1.0075352
1.0076628
1.0077885
1.0079119
1.0080328
1.0081509
1.0082657
1.008377
1.0084845
1.0085877
1.0086865
1.0087804
1.0088691
1.0089524
1.0090298
1.0091011
1.0091659
1.009224
1.0092749
1.0093183
1.009354
1.0093816
1.0094008
1.0094113
1.0094128
1.009405
1.0093877
1.0093605
1.0093231
1.0092752
1.0092166
1.009147
1.009066
1.0089734
1.0088689
1.0087524
1.0086236
1.0084822
1.0083282
1.0081613
1.0079814
1.0077884
1.0075823
1.0073629
1.0071303
1.0068847
1.0066258
1.0063543
1.0060693
1.0057731
1.0054614
1.0051447
1.0028277
1.0028523
1.0028705
1.0028871
1.0029102
1.0029378
1.0029689
1.003004
1.0030428
1.0030854
1.0031317
1.0031815
1.0032348
1.0032915
1.0033517
1.0034152
1.003482
1.003552
1.0036253
1.0037018
1.0037814
1.0038642
1.00395
1.0040388
1.0041306
1.0042254
1.0043231
1.0044236
1.0045269
1.0046328
1.0047414
1.0048526
1.0049661
1.0050821
1.0052003
1.0053206
1.005443
1.0055672
1.0056931
1.0058206
1.0059495
1.0060797
1.0062109
1.0063429
1.0064756
1.0066087
1.006742
1.0068752
1.0070081
1.0071405
1.0072721
1.0074025
1.0075316
1.007659
1.0077845
1.0079077
1.0080283
1.0081461
1.0082606
1.0083716
1.0084787
1.0085816
1.00868
1.0087735
1.0088618
1.0089446
1.0090215
1.0090923
1.0091566
1.0092141
1.0092645
1.0093074
1.0093425
1.0093695
1.009388
1.0093979
1.0093988
1.0093905
1.0093725
1.0093448
1.0093069
1.0092586
1.0091995
1.0091295
1.0090482
1.0089554
1.0088509
1.0087344
1.0086056
1.0084646
1.0083109
1.0081446
1.0079654
1.0077733
1.0075683
1.0073503
1.0071192
1.0068754
1.0066185
1.0063493
1.0060669
1.0057734
1.0054648
1.0051514
1.0028275
1.0028525
1.0028707
1.0028873
1.0029104
1.002938
1.0029691
1.0030041
1.003043
1.0030856
1.0031318
1.0031816
1.0032348
1.0032916
1.0033517
1.0034151
1.0034819
1.0035519
1.0036252
1.0037016
1.0037812
1.0038639
1.0039497
1.0040385
1.0041302
1.004225
1.0043226
1.004423
1.0045262
1.0046321
1.0047406
1.0048517
1.0049652
1.0050811
1.0051992
1.0053194
1.0054417
1.0055658
1.0056916
1.005819
1.0059479
1.0060779
1.006209
1.0063409
1.0064734
1.0066064
1.0067395
1.0068726
1.0070054
1.0071376
1.007269
1.0073993
1.0075281
1.0076554
1.0077806
1.0079036
1.0080239
1.0081414
1.0082557
1.0083664
1.0084732
1.0085757
1.0086738
1.0087669
1.0088548
1.0089372
1.0090137
1.0090841
1.009148
1.009205
1.0092549
1.0092973
1.0093319
1.0093584
1.0093764
1.0093858
1.0093862
1.0093773
1.0093589
1.0093307
1.0092924
1.0092437
1.0091843
1.009114
1.0090325
1.0089396
1.008835
1.0087185
1.00859
1.0084492
1.008296
1.0081302
1.0079518
1.0077607
1.0075567
1.00734
1.0071105
1.0068683
1.0066135
1.0063463
1.0060664
1.0057755
1.0054699
1.0051595
1.0028272
1.0028528
1.0028709
1.0028875
1.0029106
1.0029381
1.0029693
1.0030043
1.0030431
1.0030857
1.0031319
1.0031816
1.0032349
1.0032916
1.0033517
1.0034151
1.0034818
1.0035518
1.003625
1.0037014
1.003781
1.0038636
1.0039493
1.0040381
1.0041298
1.0042245
1.004322
1.0044224
1.0045255
1.0046314
1.0047398
1.0048508
1.0049643
1.0050801
1.0051981
1.0053182
1.0054404
1.0055644
1.0056902
1.0058175
1.0059462
1.0060761
1.0062071
1.0063389
1.0064713
1.0066041
1.0067371
1.00687
1.0070027
1.0071347
1.0072659
1.007396
1.0075248
1.0076518
1.0077768
1.0078996
1.0080197
1.0081369
1.0082509
1.0083614
1.0084679
1.0085702
1.0086679
1.0087607
1.0088483
1.0089303
1.0090065
1.0090764
1.0091399
1.0091965
1.009246
1.0092879
1.0093221
1.0093482
1.0093658
1.0093747
1.0093747
1.0093654
1.0093466
1.0093181
1.0092794
1.0092304
1.0091708
1.0091003
1.0090186
1.0089256
1.0088211
1.0087047
1.0085764
1.008436
1.0082833
1.0081181
1.0079405
1.0077502
1.0075474
1.0073319
1.0071039
1.0068633
1.0066103
1.0063453
1.0060676
1.0057793
1.0054765
1.0051689
1.0028269
1.002853
1.0028711
1.0028876
1.0029107
1.0029383
1.0029694
1.0030044
1.0030432
1.0030858
1.0031319
1.0031817
1.0032349
1.0032916
1.0033516
1.003415
1.0034817
1.0035517
1.0036249
1.0037012
1.0037807
1.0038633
1.003949
1.0040377
1.0041294
1.004224
1.0043215
1.0044218
1.0045249
1.0046306
1.004739
1.0048499
1.0049633
1.005079
1.005197
1.005317
1.0054391
1.005563
1.0056887
1.0058159
1.0059445
1.0060743
1.0062052
1.0063368
1.0064691
1.0066018
1.0067347
1.0068675
1.007
1.0071319
1.007263
1.0073929
1.0075214
1.0076483
1.0077731
1.0078957
1.0080156
1.0081326
1.0082464
1.0083566
1.0084628
1.0085648
1.0086623
1.0087548
1.0088421
1.0089238
1.0089997
1.0090693
1.0091324
1.0091887
1.0092377
1.0092794
1.0093132
1.0093389
1.0093561
1.0093647
1.0093643
1.0093547
1.0093356
1.0093067
1.0092678
1.0092185
1.0091587
1.0090881
1.0090064
1.0089134
1.008809
1.0086928
1.0085648
1.0084247
1.0082725
1.008108
1.0079311
1.0077418
1.00754
1.0073258
1.0070991
1.0068602
1.006609
1.0063459
1.0060704
1.0057845
1.0054843
1.0051795
1.0028266
1.0028532
1.0028713
1.0028878
1.0029109
1.0029384
1.0029695
1.0030045
1.0030433
1.0030858
1.003132
1.0031817
1.0032349
1.0032915
1.0033516
1.0034149
1.0034816
1.0035515
1.0036247
1.003701
1.0037804
1.003863
1.0039486
1.0040373
1.0041289
1.0042235
1.0043209
1.0044212
1.0045242
1.0046299
1.0047382
1.004849
1.0049623
1.005078
1.0051958
1.0053158
1.0054378
1.0055616
1.0056872
1.0058143
1.0059428
1.0060725
1.0062033
1.0063348
1.006467
1.0065996
1.0067323
1.006865
1.0069973
1.0071291
1.00726
1.0073898
1.0075182
1.0076448
1.0077695
1.0078919
1.0080116
1.0081284
1.008242
1.008352
1.008458
1.0085598
1.008657
1.0087492
1.0088362
1.0089177
1.0089933
1.0090626
1.0091254
1.0091814
1.0092301
1.0092714
1.0093049
1.0093303
1.0093473
1.0093556
1.0093549
1.009345
1.0093256
1.0092965
1.0092574
1.009208
1.0091481
1.0090774
1.0089957
1.0089028
1.0087985
1.0086825
1.0085548
1.0084152
1.0082635
1.0080996
1.0079235
1.0077351
1.0075344
1.0073214
1.0070961
1.0068587
1.0066092
1.006348
1.0060746
1.0057909
1.0054933
1.005191
1.0028263
1.0028534
1.0028714
1.0028879
1.0029111
1.0029386
1.0029696
1.0030046
1.0030434
1.0030859
1.003132
1.0031817
1.0032349
1.0032915
1.0033515
1.0034149
1.0034815
1.0035514
1.0036245
1.0037008
1.0037802
1.0038627
1.0039483
1.0040369
1.0041285
1.004223
1.0043203
1.0044205
1.0045235
1.0046291
1.0047374
1.0048481
1.0049614
1.0050769
1.0051947
1.0053146
1.0054365
1.0055603
1.0056857
1.0058127
1.0059411
1.0060707
1.0062014
1.0063328
1.0064649
1.0065974
1.00673
1.0068625
1.0069947
1.0071264
1.0072571
1.0073868
1.007515
1.0076415
1.007766
1.0078882
1.0080078
1.0081244
1.0082378
1.0083475
1.0084534
1.0085549
1.0086519
1.0087439
1.0088307
1.0089119
1.0089873
1.0090563
1.0091189
1.0091746
1.0092231
1.0092641
1.0092974
1.0093225
1.0093392
1.0093473
1.0093464
1.0093362
1.0093167
1.0092874
1.0092482
1.0091987
1.0091387
1.009068
1.0089864
1.0088936
1.0087894
1.0086737
1.0085464
1.0084072
1.008256
1.0080929
1.0079176
1.0077301
1.0075304
1.0073185
1.0070946
1.0068587
1.0066108
1.0063514
1.0060801
1.0057985
1.0055033
1.0052033
1.002826
1.0028536
1.0028716
1.0028881
1.0029112
1.0029387
1.0029697
1.0030047
1.0030435
1.003086
1.0031321
1.0031817
1.0032349
1.0032915
1.0033514
1.0034148
1.0034814
1.0035512
1.0036243
1.0037005
1.0037799
1.0038624
1.0039479
1.0040365
1.004128
1.0042224
1.0043198
1.0044199
1.0045228
1.0046284
1.0047365
1.0048472
1.0049604
1.0050759
1.0051936
1.0053134
1.0054352
1.0055589
1.0056842
1.0058112
1.0059395
1.006069
1.0061995
1.0063309
1.0064628
1.0065952
1.0067277
1.0068601
1.0069922
1.0071237
1.0072543
1.0073838
1.0075119
1.0076383
1.0077626
1.0078847
1.0080041
1.0081205
1.0082337
1.0083433
1.0084489
1.0085503
1.0086471
1.0087389
1.0088255
1.0089065
1.0089816
1.0090505
1.0091128
1.0091683
1.0092166
1.0092574
1.0092904
1.0093154
1.0093319
1.0093398
1.0093387
1.0093284
1.0093087
1.0092793
1.00924
1.0091905
1.0091305
1.0090598
1.0089783
1.0088856
1.0087817
1.0086663
1.0085394
1.0084006
1.0082501
1.0080876
1.007913
1.0077265
1.0075278
1.0073171
1.0070944
1.0068599
1.0066136
1.006356
1.0060865
1.005807
1.0055141
1.0052163
1.0028257
1.0028538
1.0028717
1.0028882
1.0029113
1.0029388
1.0029698
1.0030048
1.0030435
1.003086
1.0031321
1.0031817
1.0032348
1.0032914
1.0033514
1.0034146
1.0034812
1.003551
1.0036241
1.0037003
1.0037796
1.003862
1.0039475
1.004036
1.0041275
1.0042219
1.0043192
1.0044193
1.0045221
1.0046276
1.0047357
1.0048463