/*--------------------------------*- C++ -*----------------------------------*\
| =========                 |                                                 |
| \\      /  F ield         | OpenFOAM: The Open Source CFD Toolbox           |
|  \\    /   O peration     | Version:  2406                                  |
|   \\  /    A nd           | Website:  www.openfoam.com                      |
|    \\/     M anipulation  |                                                 |
\*---------------------------------------------------------------------------*/
FoamFile
{
    version     2.0;
    format      ascii;
    arch        "LSB;label=32;scalar=64";
    class       volScalarField;
    location    "1500";
    object      pMean;
}
// * * * * * * * * * * * * * * * * * * * * * * * * * * * * * * * * * * * * * //

dimensions      [1 -1 -2 0 0 0 0];

internalField   nonuniform List<scalar> 
132739
(
1.0030525
1.0030488
1.003061
1.0030793
1.0031007
1.0031259
1.0031554
1.0031891
1.0032266
1.003268
1.0033131
1.0033619
1.0034143
1.0034703
1.0035298
1.0035928
1.0036593
1.0037291
1.0038023
1.0038789
1.0039587
1.0040418
1.0041282
1.0042177
1.0043104
1.0044063
1.0045052
1.0046071
1.004712
1.0048198
1.0049305
1.0050439
1.00516
1.0052788
1.0054001
1.0055238
1.0056498
1.005778
1.0059084
1.0060407
1.0061748
1.0063106
1.0064479
1.0065867
1.0067266
1.0068676
1.0070096
1.0071522
1.0072955
1.0074391
1.0075829
1.0077267
1.0078704
1.0080137
1.0081563
1.0082981
1.0084388
1.0085783
1.0087164
1.0088529
1.0089874
1.0091203
1.009251
1.0093791
1.0095048
1.0096276
1.0097473
1.0098636
1.0099764
1.0100856
1.0101908
1.0102915
1.0103876
1.0104786
1.0105642
1.0106439
1.0107171
1.0107834
1.0108423
1.0108931
1.0109353
1.0109681
1.0109909
1.011003
1.0110034
1.0109914
1.0109661
1.0109266
1.010872
1.0108015
1.0107141
1.010609
1.0104854
1.0103422
1.0101788
1.0099944
1.0097883
1.0095598
1.0093088
1.0090343
1.0087376
1.0084172
1.0080817
1.0077241
1.0030532
1.0030499
1.0030622
1.0030805
1.0031019
1.003127
1.0031566
1.0031902
1.0032277
1.003269
1.003314
1.0033628
1.0034152
1.0034711
1.0035305
1.0035935
1.0036598
1.0037296
1.0038027
1.0038792
1.0039589
1.0040419
1.0041281
1.0042176
1.0043102
1.0044059
1.0045046
1.0046064
1.0047112
1.0048188
1.0049293
1.0050426
1.0051586
1.0052772
1.0053983
1.0055218
1.0056476
1.0057756
1.0059057
1.0060377
1.0061716
1.0063071
1.0064441
1.0065825
1.006722
1.0068626
1.0070041
1.0071462
1.0072889
1.0074318
1.0075749
1.0077178
1.0078606
1.0080028
1.0081444
1.0082848
1.0084243
1.0085623
1.008699
1.0088339
1.0089668
1.0090978
1.0092262
1.009352
1.0094751
1.0095954
1.0097125
1.009826
1.0099356
1.0100414
1.0101429
1.0102397
1.0103315
1.0104182
1.0104993
1.0105745
1.0106433
1.0107052
1.0107599
1.0108068
1.0108454
1.010875
1.0108952
1.0109052
1.0109043
1.010892
1.0108674
1.0108298
1.0107785
1.0107126
1.0106314
1.0105341
1.0104199
1.0102881
1.010138
1.009969
1.0097805
1.0095717
1.0093424
1.0090917
1.0088195
1.0085237
1.0082031
1.0078551
1.0030538
1.0030509
1.0030633
1.0030816
1.003103
1.0031282
1.0031578
1.0031914
1.003229
1.0032703
1.0033154
1.0033642
1.0034166
1.0034726
1.0035322
1.0035952
1.0036616
1.0037314
1.0038047
1.0038812
1.0039611
1.0040442
1.0041305
1.0042201
1.0043128
1.0044086
1.0045076
1.0046095
1.0047144
1.0048222
1.0049329
1.0050464
1.0051625
1.0052813
1.0054025
1.0055262
1.0056522
1.0057804
1.0059106
1.0060428
1.0061768
1.0063124
1.0064496
1.006588
1.0067276
1.0068683
1.0070097
1.0071517
1.0072942
1.0074369
1.0075797
1.0077222
1.0078645
1.008006
1.0081469
1.0082867
1.0084255
1.0085628
1.0086985
1.0088323
1.008964
1.0090934
1.0092202
1.0093441
1.0094651
1.0095829
1.0096973
1.0098078
1.0099144
1.0100168
1.0101147
1.0102077
1.0102955
1.0103779
1.0104545
1.0105248
1.0105884
1.0106449
1.0106938
1.0107346
1.0107669
1.01079
1.0108036
1.0108068
1.0107992
1.0107801
1.0107488
1.0107047
1.010647
1.0105752
1.0104885
1.0103863
1.0102678
1.0101324
1.0099796
1.0098086
1.0096189
1.0094101
1.0091816
1.0089332
1.0086644
1.0083762
1.0080642
1.0077449
1.0030544
1.0030518
1.0030644
1.0030826
1.0031041
1.0031293
1.0031588
1.0031925
1.00323
1.0032713
1.0033164
1.0033652
1.0034176
1.0034736
1.0035331
1.0035961
1.0036625
1.0037323
1.0038055
1.003882
1.0039618
1.0040449
1.0041312
1.0042208
1.0043135
1.0044093
1.0045081
1.00461
1.0047149
1.0048227
1.0049333
1.0050467
1.0051628
1.0052816
1.0054028
1.0055264
1.0056523
1.0057804
1.0059106
1.0060427
1.0061765
1.006312
1.006449
1.0065873
1.0067268
1.0068671
1.0070083
1.0071501
1.0072922
1.0074345
1.0075768
1.0077189
1.0078605
1.0080014
1.0081415
1.0082806
1.0084184
1.0085546
1.008689
1.0088214
1.0089516
1.0090794
1.0092044
1.0093264
1.0094453
1.0095608
1.0096726
1.0097805
1.0098842
1.0099835
1.0100781
1.0101676
1.0102517
1.0103302
1.0104028
1.0104689
1.0105283
1.0105804
1.010625
1.0106616
1.0106895
1.0107084
1.0107177
1.0107168
1.0107051
1.010682
1.0106469
1.0105992
1.0105382
1.0104633
1.0103738
1.0102691
1.0101486
1.0100118
1.0098581
1.009687
1.0094979
1.0092905
1.0090645
1.0088195
1.0085549
1.0082718
1.0079669
1.0076464
1.0030548
1.0030527
1.0030654
1.0030836
1.003105
1.0031303
1.0031598
1.0031935
1.003231
1.0032723
1.0033174
1.0033662
1.0034187
1.0034747
1.0035342
1.0035972
1.0036636
1.0037335
1.0038067
1.0038833
1.0039631
1.0040462
1.0041326
1.0042222
1.0043149
1.0044108
1.0045097
1.0046117
1.0047166
1.0048244
1.0049351
1.0050486
1.0051647
1.0052835
1.0054047
1.0055284
1.0056544
1.0057825
1.0059127
1.0060448
1.0061787
1.0063142
1.0064512
1.0065894
1.0067288
1.0068691
1.0070101
1.0071517
1.0072936
1.0074357
1.0075777
1.0077193
1.0078605
1.008001
1.0081404
1.0082788
1.0084158
1.0085511
1.0086846
1.0088159
1.0089449
1.0090713
1.0091947
1.0093151
1.0094321
1.0095455
1.0096552
1.0097607
1.0098618
1.0099584
1.01005
1.0101364
1.0102173
1.0102924
1.0103613
1.0104236
1.010479
1.010527
1.0105673
1.0105994
1.0106228
1.0106371
1.0106419
1.0106365
1.0106204
1.0105932
1.0105542
1.0105029
1.0104386
1.0103609
1.0102691
1.0101628
1.0100413
1.0099041
1.0097508
1.0095809
1.009394
1.0091897
1.0089676
1.0087275
1.0084689
1.0081922
1.0078959
1.0075805
1.0030551
1.0030535
1.0030663
1.0030844
1.0031059
1.0031312
1.0031607
1.0031944
1.0032319
1.0032732
1.0033183
1.0033671
1.0034195
1.0034755
1.003535
1.003598
1.0036645
1.0037343
1.0038075
1.003884
1.0039639
1.004047
1.0041334
1.0042229
1.0043156
1.0044115
1.0045104
1.0046123
1.0047173
1.0048251
1.0049357
1.0050492
1.0051653
1.0052841
1.0054053
1.0055289
1.0056549
1.0057829
1.0059131
1.0060451
1.0061789
1.0063143
1.0064512
1.0065893
1.0067285
1.0068686
1.0070095
1.0071508
1.0072925
1.0074342
1.0075758
1.0077171
1.0078578
1.0079977
1.0081366
1.0082742
1.0084104
1.0085449
1.0086773
1.0088075
1.0089353
1.0090602
1.0091822
1.009301
1.0094162
1.0095277
1.0096353
1.0097385
1.0098373
1.0099312
1.0100201
1.0101036
1.0101814
1.0102532
1.0103187
1.0103776
1.0104294
1.0104737
1.0105103
1.0105386
1.0105583
1.0105689
1.0105699
1.0105609
1.0105413
1.0105106
1.0104683
1.0104139
1.0103469
1.0102667
1.0101729
1.0100648
1.0099421
1.0098042
1.0096508
1.0094815
1.0092959
1.0090936
1.0088743
1.008638
1.0083842
1.0081132
1.0078241
1.0075181
1.0030554
1.0030543
1.0030672
1.0030852
1.0031067
1.003132
1.0031615
1.0031952
1.0032327
1.003274
1.0033191
1.0033679
1.0034203
1.0034763
1.0035358
1.0035988
1.0036653
1.0037351
1.0038083
1.0038849
1.0039647
1.0040479
1.0041342
1.0042238
1.0043165
1.0044124
1.0045113
1.0046132
1.0047182
1.004826
1.0049367
1.0050501
1.0051662
1.005285
1.0054062
1.0055298
1.0056558
1.0057838
1.0059139
1.0060459
1.0061797
1.0063151
1.0064518
1.0065899
1.0067289
1.0068689
1.0070096
1.0071507
1.0072922
1.0074337
1.007575
1.0077159
1.0078562
1.0079956
1.0081339
1.008271
1.0084064
1.0085401
1.0086716
1.0088009
1.0089275
1.0090513
1.009172
1.0092893
1.0094029
1.0095127
1.0096184
1.0097197
1.0098163
1.009908
1.0099944
1.0100754
1.0101505
1.0102194
1.010282
1.0103377
1.0103863
1.0104273
1.0104604
1.0104853
1.0105014
1.0105085
1.010506
1.0104935
1.0104705
1.0104366
1.0103913
1.0103341
1.0102645
1.0101821
1.0100864
1.0099769
1.0098533
1.009715
1.0095618
1.0093933
1.009209
1.0090089
1.0087926
1.00856
1.0083108
1.0080453
1.0077624
1.0074644
1.0030556
1.003055
1.003068
1.0030859
1.0031075
1.0031327
1.0031623
1.0031959
1.0032334
1.0032748
1.0033199
1.0033686
1.003421
1.003477
1.0035365
1.0035995
1.003666
1.0037358
1.003809
1.0038855
1.0039654
1.0040485
1.0041348
1.0042244
1.0043171
1.0044129
1.0045118
1.0046137
1.0047187
1.0048265
1.0049371
1.0050505
1.0051666
1.0052853
1.0054065
1.0055301
1.005656
1.005784
1.0059141
1.006046
1.0061797
1.006315
1.0064516
1.0065895
1.0067285
1.0068683
1.0070088
1.0071497
1.0072909
1.0074321
1.0075731
1.0077136
1.0078535
1.0079925
1.0081303
1.0082667
1.0084015
1.0085344
1.0086651
1.0087934
1.008919
1.0090417
1.0091611
1.0092771
1.0093892
1.0094975
1.0096014
1.0097008
1.0097954
1.009885
1.0099692
1.0100477
1.0101203
1.0101866
1.0102464
1.0102992
1.0103449
1.0103829
1.010413
1.0104347
1.0104478
1.0104518
1.0104463
1.0104308
1.010405
1.0103683
1.0103205
1.0102609
1.0101892
1.010105
1.0100078
1.0098972
1.0097729
1.0096344
1.0094815
1.0093138
1.009131
1.008933
1.0087195
1.0084905
1.0082455
1.0079852
1.007708
1.0074176
1.0030557
1.0030557
1.0030687
1.0030866
1.0031082
1.0031334
1.003163
1.0031966
1.0032341
1.0032754
1.0033205
1.0033693
1.0034217
1.0034777
1.0035372
1.0036001
1.0036666
1.0037364
1.0038096
1.0038861
1.0039659
1.004049
1.0041354
1.0042249
1.0043176
1.0044134
1.0045123
1.0046142
1.0047191
1.0048269
1.0049375
1.0050509
1.005167
1.0052857
1.0054069
1.0055304
1.0056562
1.0057842
1.0059142
1.0060461
1.0061797
1.0063149
1.0064514
1.0065893
1.0067281
1.0068677
1.0070081
1.0071488
1.0072897
1.0074307
1.0075714
1.0077116
1.0078511
1.0079896
1.0081269
1.0082628
1.008397
1.0085292
1.0086592
1.0087866
1.0089113
1.0090329
1.0091512
1.009266
1.0093768
1.0094836
1.009586
1.0096838
1.0097766
1.0098642
1.0099464
1.0100228
1.0100931
1.0101571
1.0102145
1.0102648
1.0103078
1.0103431
1.0103705
1.0103894
1.0103997
1.0104009
1.0103926
1.0103744
1.010346
1.0103069
1.0102567
1.010195
1.0101214
1.0100355
1.009937
1.0098254
1.0097005
1.0095619
1.0094093
1.0092424
1.0090611
1.0088651
1.0086542
1.0084285
1.0081874
1.007932
1.00766
1.0073766
1.0030558
1.0030563
1.0030694
1.0030872
1.0031088
1.0031341
1.0031636
1.0031972
1.0032347
1.003276
1.0033211
1.0033699
1.0034223
1.0034782
1.0035377
1.0036007
1.0036671
1.0037369
1.0038101
1.0038866
1.0039664
1.0040495
1.0041358
1.0042253
1.004318
1.0044138
1.0045126
1.0046145
1.0047194
1.0048271
1.0049377
1.0050511
1.0051671
1.0052858
1.0054069
1.0055304
1.0056562
1.0057841
1.005914
1.0060458
1.0061793
1.0063144
1.0064509
1.0065885
1.0067272
1.0068668
1.0070069
1.0071474
1.0072881
1.0074288
1.0075692
1.0077091
1.0078483
1.0079864
1.0081232
1.0082586
1.0083922
1.0085237
1.008653
1.0087797
1.0089035
1.0090242
1.0091414
1.009255
1.0093647
1.0094701
1.0095711
1.0096673
1.0097585
1.0098444
1.0099247
1.0099992
1.0100675
1.0101293
1.0101844
1.0102324
1.0102731
1.010306
1.0103308
1.0103473
1.0103551
1.0103538
1.0103431
1.0103226
1.0102919
1.0102506
1.0101984
1.0101349
1.0100597
1.0099725
1.0098729
1.0097606
1.0096353
1.0094967
1.0093445
1.0091786
1.0089986
1.0088046
1.0085962
1.0083735
1.0081363
1.0078853
1.0076182
1.0073411
1.0030559
1.0030569
1.00307
1.0030878
1.0031094
1.0031347
1.0031642
1.0031978
1.0032353
1.0032766
1.0033217
1.0033704
1.0034228
1.0034787
1.0035382
1.0036011
1.0036675
1.0037373
1.0038105
1.003887
1.0039667
1.0040498
1.0041361
1.0042256
1.0043182
1.004414
1.0045128
1.0046147
1.0047195
1.0048273
1.0049378
1.0050511
1.0051671
1.0052857
1.0054068
1.0055302
1.005656
1.0057838
1.0059137
1.0060454
1.0061788
1.0063138
1.0064502
1.0065877
1.0067263
1.0068656
1.0070056
1.0071459
1.0072865
1.0074269
1.007567
1.0077066
1.0078454
1.0079831
1.0081196
1.0082545
1.0083875
1.0085185
1.0086471
1.008773
1.008896
1.0090159
1.0091322
1.0092448
1.0093533
1.0094576
1.0095573
1.0096521
1.0097419
1.0098262
1.0099048
1.0099775
1.010044
1.0101039
1.010157
1.010203
1.0102415
1.0102722
1.0102949
1.0103092
1.0103147
1.0103112
1.0102983
1.0102757
1.0102429
1.0101998
1.0101458
1.0100807
1.0100041
1.0099157
1.0098152
1.0097023
1.0095767
1.0094382
1.0092865
1.0091215
1.0089429
1.0087507
1.0085447
1.008325
1.0080912
1.0078444
1.0075818
1.0073105
1.0030559
1.0030575
1.0030706
1.0030883
1.0031099
1.0031352
1.0031647
1.0031983
1.0032358
1.0032771
1.0033221
1.0033709
1.0034232
1.0034792
1.0035386
1.0036015
1.0036679
1.0037377
1.0038108
1.0038873
1.003967
1.0040501
1.0041363
1.0042258
1.0043184
1.0044141
1.0045129
1.0046148
1.0047196
1.0048272
1.0049378
1.005051
1.005167
1.0052855
1.0054065
1.0055299
1.0056556
1.0057834
1.0059131
1.0060448
1.0061781
1.006313
1.0064492
1.0065867
1.0067251
1.0068643
1.0070041
1.0071442
1.0072845
1.0074247
1.0075646
1.0077039
1.0078424
1.0079797
1.0081158
1.0082502
1.0083828
1.0085132
1.0086412
1.0087664
1.0088887
1.0090078
1.0091232
1.0092349
1.0093424
1.0094456
1.0095441
1.0096377
1.0097261
1.009809
1.0098861
1.0099573
1.010022
1.0100803
1.0101316
1.0101757
1.0102122
1.010241
1.0102617
1.010274
1.0102776
1.0102722
1.0102573
1.0102329
1.0101984
1.0101535
1.010098
1.0100315
1.0099538
1.0098644
1.0097632
1.0096499
1.0095241
1.0093858
1.0092347
1.0090706
1.0088934
1.008703
1.0084992
1.0082823
1.0080517
1.0078088
1.0075505
1.0072844
1.0030558
1.0030579
1.0030711
1.0030888
1.0031104
1.0031357
1.0031652
1.0031988
1.0032363
1.0032775
1.0033226
1.0033713
1.0034236
1.0034795
1.003539
1.0036019
1.0036682
1.003738
1.0038111
1.0038875
1.0039672
1.0040502
1.0041365
1.0042259
1.0043185
1.0044142
1.004513
1.0046147
1.0047195
1.0048271
1.0049376
1.0050508
1.0051667
1.0052852
1.0054061
1.0055295
1.0056551
1.0057828
1.0059125
1.006044
1.0061773
1.006312
1.0064482
1.0065855
1.0067238
1.0068628
1.0070024
1.0071424
1.0072825
1.0074225
1.0075621
1.0077011
1.0078393
1.0079763
1.0081119
1.008246
1.0083781
1.008508
1.0086354
1.0087601
1.0088817
1.009
1.0091147
1.0092255
1.0093321
1.0094343
1.0095318
1.0096242
1.0097114
1.009793
1.0098688
1.0099385
1.0100018
1.0100585
1.0101082
1.0101506
1.0101855
1.0102126
1.0102315
1.0102421
1.0102439
1.0102367
1.0102202
1.0101941
1.010158
1.0101117
1.0100549
1.0099872
1.0099085
1.0098183
1.0097165
1.0096028
1.009477
1.009339
1.0091885
1.0090253
1.0088494
1.0086608
1.0084591
1.0082448
1.0080173
1.0077779
1.0075238
1.0072623
1.0030558
1.0030584
1.0030717
1.0030893
1.0031109
1.0031362
1.0031657
1.0031992
1.0032367
1.0032779
1.003323
1.0033717
1.003424
1.0034799
1.0035393
1.0036022
1.0036685
1.0037382
1.0038113
1.0038877
1.0039674
1.0040504
1.0041366
1.004226
1.0043185
1.0044142
1.0045129
1.0046146
1.0047193
1.0048269
1.0049373
1.0050505
1.0051663
1.0052847
1.0054056
1.0055289
1.0056544
1.005782
1.0059117
1.0060431
1.0061763
1.0063109
1.0064469
1.0065841
1.0067223
1.0068612
1.0070006
1.0071404
1.0072803
1.0074201
1.0075594
1.0076982
1.0078361
1.0079728
1.0081081
1.0082417
1.0083734
1.0085028
1.0086298
1.0087538
1.0088749
1.0089925
1.0091065
1.0092165
1.0093223
1.0094236
1.0095201
1.0096115
1.0096976
1.0097781
1.0098527
1.0099211
1.0099831
1.0100383
1.0100866
1.0101275
1.0101609
1.0101864
1.0102038
1.0102128
1.0102131
1.0102043
1.0101864
1.0101588
1.0101214
1.0100739
1.0100159
1.0099472
1.0098676
1.0097768
1.0096745
1.0095607
1.0094349
1.0092972
1.0091473
1.0089851
1.0088105
1.0086235
1.008424
1.0082121
1.0079875
1.0077515
1.0075011
1.0072438
1.0030557
1.0030588
1.0030721
1.0030897
1.0031113
1.0031366
1.0031661
1.0031996
1.0032371
1.0032783
1.0033233
1.003372
1.0034243
1.0034801
1.0035395
1.0036024
1.0036687
1.0037384
1.0038114
1.0038878
1.0039675
1.0040504
1.0041366
1.0042259
1.0043184
1.0044141
1.0045127
1.0046144
1.0047191
1.0048266
1.004937
1.0050501
1.0051659
1.0052842
1.005405
1.0055282
1.0056536
1.0057812
1.0059107
1.0060421
1.0061751
1.0063097
1.0064456
1.0065827
1.0067207
1.0068594
1.0069987
1.0071383
1.007278
1.0074176
1.0075567
1.0076952
1.0078328
1.0079692
1.0081042
1.0082375
1.0083688
1.0084978
1.0086242
1.0087478
1.0088683
1.0089853
1.0090986
1.0092079
1.009313
1.0094134
1.0095091
1.0095996
1.0096847
1.0097641
1.0098376
1.0099049
1.0099657
1.0100197
1.0100667
1.0101063
1.0101384
1.0101625
1.0101785
1.0101861
1.010185
1.010175
1.0101557
1.0101269
1.0100883
1.0100397
1.0099807
1.0099112
1.0098309
1.0097396
1.009637
1.009523
1.0093974
1.00926
1.0091108
1.0089495
1.0087762
1.0085908
1.0083932
1.0081837
1.0079618
1.0077289
1.0074821
1.0072286
1.0030555
1.0030592
1.0030726
1.0030901
1.0031117
1.003137
1.0031664
1.0032
1.0032374
1.0032786
1.0033236
1.0033723
1.0034245
1.0034804
1.0035397
1.0036026
1.0036689
1.0037385
1.0038115
1.0038879
1.0039675
1.0040504
1.0041366
1.0042259
1.0043183
1.0044139
1.0045125
1.0046142
1.0047188
1.0048262
1.0049365
1.0050496
1.0051653
1.0052836
1.0054043
1.0055274
1.0056528
1.0057803
1.0059097
1.006041
1.0061739
1.0063084
1.0064441
1.0065811
1.006719
1.0068576
1.0069967
1.0071361
1.0072757
1.007415
1.0075539
1.0076922
1.0078295
1.0079657
1.0081003
1.0082333
1.0083642
1.0084928
1.0086188
1.0087419
1.0088619
1.0089784
1.0090911
1.0091998
1.0093041
1.0094038
1.0094987
1.0095884
1.0096726
1.0097511
1.0098236
1.0098899
1.0099496
1.0100025
1.0100483
1.0100868
1.0101176
1.0101406
1.0101554
1.0101617
1.0101595
1.0101482
1.0101278
1.0100979
1.0100583
1.0100088
1.009949
1.0098788
1.0097979
1.0097062
1.0096034
1.0094894
1.0093639
1.009227
1.0090784
1.0089181
1.0087461
1.0085622
1.0083665
1.0081592
1.0079399
1.0077099
1.0074664
1.0072164
1.0030554
1.0030596
1.003073
1.0030904
1.0031121
1.0031373
1.0031668
1.0032003
1.0032377
1.0032789
1.0033239
1.0033725
1.0034248
1.0034806
1.0035399
1.0036027
1.003669
1.0037386
1.0038116
1.0038879
1.0039675
1.0040504
1.0041365
1.0042257
1.0043182
1.0044137
1.0045123
1.0046138
1.0047184
1.0048258
1.004936
1.005049
1.0051647
1.0052829
1.0054036
1.0055266
1.0056519
1.0057792
1.0059086
1.0060398
1.0061726
1.0063069
1.0064426
1.0065794
1.0067172
1.0068556
1.0069946
1.0071339
1.0072732
1.0074124
1.0075511
1.0076892
1.0078262
1.0079621
1.0080965
1.0082291
1.0083597
1.0084879
1.0086135
1.0087362
1.0088557
1.0089717
1.0090838
1.009192
1.0092957
1.0093948
1.0094889
1.0095778
1.0096613
1.009739
1.0098106
1.0098759
1.0099347
1.0099866
1.0100314
1.0100689
1.0100986
1.0101205
1.0101342
1.0101396
1.0101362
1.010124
1.0101026
1.0100718
1.0100313
1.009981
1.0099205
1.0098497
1.0097684
1.0096763
1.0095734
1.0094594
1.0093342
1.0091978
1.0090499
1.0088905
1.0087197
1.0085373
1.0083434
1.0081382
1.0079213
1.007694
1.0074538
1.007207
1.0030552
1.00306
1.0030733
1.0030907
1.0031124
1.0031377
1.0031671
1.0032006
1.003238
1.0032792
1.0033241
1.0033727
1.003425
1.0034808
1.0035401
1.0036028
1.0036691
1.0037387
1.0038116
1.0038879
1.0039675
1.0040503
1.0041363
1.0042256
1.0043179
1.0044134
1.0045119
1.0046135
1.004718
1.0048253
1.0049355
1.0050484
1.005164
1.0052821
1.0054027
1.0055257
1.0056509
1.0057781
1.0059074
1.0060385
1.0061712
1.0063054
1.006441
1.0065777
1.0067153
1.0068536
1.0069924
1.0071316
1.0072707
1.0074097
1.0075482
1.0076861
1.0078229
1.0079585
1.0080926
1.008225
1.0083552
1.0084831
1.0086083
1.0087306
1.0088497
1.0089652
1.0090769
1.0091845
1.0092877
1.0093861
1.0094796
1.0095679
1.0096507
1.0097276
1.0097984
1.009863
1.0099209
1.0099719
1.0100158
1.0100524
1.0100812
1.0101022
1.0101149
1.0101193
1.0101151
1.0101019
1.0100797
1.0100481
1.0100069
1.0099559
1.0098949
1.0098236
1.009742
1.0096497
1.0095467
1.0094329
1.009308
1.009172
1.0090248
1.0088664
1.0086968
1.0085158
1.0083236
1.0081204
1.0079059
1.0076811
1.0074438
1.0072002
1.003055
1.0030603
1.0030737
1.003091
1.0031127
1.003138
1.0031674
1.0032009
1.0032382
1.0032794
1.0033243
1.0033729
1.0034251
1.0034809
1.0035402
1.0036029
1.0036691
1.0037387
1.0038116
1.0038879
1.0039674
1.0040502
1.0041362
1.0042253
1.0043177
1.0044131
1.0045116
1.004613
1.0047175
1.0048248
1.0049349
1.0050477
1.0051632
1.0052813
1.0054018
1.0055247
1.0056498
1.005777
1.0059061
1.0060371
1.0061698
1.0063039
1.0064393
1.0065759
1.0067134
1.0068515
1.0069902
1.0071292
1.0072682
1.007407
1.0075453
1.007683
1.0078196
1.007955
1.0080888
1.0082209
1.0083508
1.0084784
1.0086033
1.0087252
1.0088439
1.008959
1.0090702
1.0091774
1.00928
1.009378
1.0094709
1.0095586
1.0096407
1.0097169
1.0097871
1.0098509
1.0099081
1.0099584
1.0100015
1.0100372
1.0100652
1.0100854
1.0100973
1.0101009
1.0100959
1.010082
1.010059
1.0100267
1.0099849
1.0099334
1.0098719
1.0098003
1.0097184
1.009626
1.009523
1.0094093
1.0092848
1.0091493
1.0090029
1.0088454
1.0086769
1.0084974
1.0083068
1.0081055
1.0078931
1.0076708
1.0074363
1.0071956
1.0030548
1.0030606
1.003074
1.0030913
1.003113
1.0031382
1.0031676
1.0032011
1.0032385
1.0032796
1.0033245
1.0033731
1.0034253
1.003481
1.0035403
1.003603
1.0036691
1.0037387
1.0038116
1.0038878
1.0039673
1.00405
1.004136
1.0042251
1.0043174
1.0044127
1.0045112
1.0046126
1.0047169
1.0048242
1.0049342
1.005047
1.0051624
1.0052804
1.0054009
1.0055237
1.0056487
1.0057758
1.0059048
1.0060357
1.0061682
1.0063023
1.0064376
1.006574
1.0067114
1.0068494
1.006988
1.0071268
1.0072656
1.0074042
1.0075424
1.0076798
1.0078163
1.0079514
1.008085
1.0082168
1.0083465
1.0084738
1.0085984
1.00872
1.0088383
1.008953
1.0090639
1.0091705
1.0092728
1.0093702
1.0094627
1.0095498
1.0096313
1.009707
1.0097765
1.0098397
1.0098962
1.0099458
1.0099883
1.0100233
1.0100506
1.01007
1.0100813
1.0100842
1.0100784
1.0100639
1.0100403
1.0100075
1.0099652
1.0099132
1.0098514
1.0097795
1.0096974
1.009605
1.0095021
1.0093886
1.0092645
1.0091295
1.0089838
1.0088273
1.0086599
1.0084817
1.0082927
1.0080932
1.0078829
1.0076628
1.0074309
1.007193
1.0030546
1.0030609
1.0030743
1.0030916
1.0031132
1.0031385
1.0031678
1.0032013
1.0032387
1.0032798
1.0033247
1.0033732
1.0034254
1.0034811
1.0035403
1.003603
1.0036691
1.0037386
1.0038115
1.0038877
1.0039671
1.0040498
1.0041357
1.0042248
1.004317
1.0044124
1.0045107
1.0046121
1.0047164
1.0048236
1.0049335
1.0050463
1.0051616
1.0052795
1.0053999
1.0055226
1.0056475
1.0057745
1.0059035
1.0060343
1.0061667
1.0063006
1.0064358
1.0065721
1.0067094
1.0068473
1.0069857
1.0071244
1.007263
1.0074015
1.0075395
1.0076767
1.007813
1.0079479
1.0080813
1.0082129
1.0083423
1.0084693
1.0085936
1.0087149
1.0088329
1.0089473
1.0090577
1.009164
1.0092658
1.0093629
1.0094549
1.0095415
1.0096225
1.0096977
1.0097667
1.0098293
1.0098852
1.0099342
1.0099761
1.0100105
1.0100372
1.010056
1.0100666
1.0100689
1.0100626
1.0100475
1.0100234
1.0099901
1.0099474
1.0098951
1.009833
1.0097609
1.0096788
1.0095864
1.0094836
1.0093704
1.0092467
1.0091123
1.0089673
1.0088117
1.0086454
1.0084685
1.008281
1.0080832
1.0078748
1.007657
1.0074275
1.0071922
1.0030543
1.0030612
1.0030745
1.0030918
1.0031135
1.0031387
1.0031681
1.0032015
1.0032388
1.0032799
1.0033248
1.0033733
1.0034255
1.0034812
1.0035404
1.003603
1.0036691
1.0037386
1.0038114
1.0038875
1.0039669
1.0040496
1.0041355
1.0042245
1.0043167
1.0044119
1.0045102
1.0046115
1.0047158
1.0048229
1.0049328
1.0050455
1.0051607
1.0052786
1.0053989
1.0055215
1.0056463
1.0057732
1.0059021
1.0060328
1.0061651
1.0062989
1.006434
1.0065702
1.0067073
1.0068451
1.0069834
1.0071219
1.0072604
1.0073987
1.0075365
1.0076736
1.0078097
1.0079444
1.0080776
1.0082089
1.0083381
1.0084649
1.008589
1.00871
1.0088277
1.0089417
1.0090519
1.0091578
1.0092592
1.0093559
1.0094475
1.0095337
1.0096143
1.009689
1.0097575
1.0098196
1.009875
1.0099235
1.0099648
1.0099987
1.0100249
1.0100431
1.0100533
1.0100551
1.0100483
1.0100328
1.0100082
1.0099746
1.0099315
1.0098789
1.0098166
1.0097445
1.0096623
1.00957
1.0094674
1.0093545
1.0092312
1.0090974
1.0089531
1.0087984
1.0086332
1.0084575
1.0082715
1.0080754
1.0078688
1.007653
1.0074258
1.007193
1.0030541
1.0030614
1.0030748
1.003092
1.0031137
1.0031389
1.0031682
1.0032017
1.003239
1.0032801
1.0033249
1.0033734
1.0034255
1.0034812
1.0035404
1.003603
1.0036691
1.0037385
1.0038113
1.0038874
1.0039667
1.0040494
1.0041352
1.0042242
1.0043163
1.0044115
1.0045098
1.004611
1.0047152
1.0048222
1.0049321
1.0050446
1.0051599
1.0052776
1.0053978
1.0055203
1.0056451
1.0057719
1.0059007
1.0060313
1.0061635
1.0062972
1.0064322
1.0065683
1.0067052
1.0068429
1.0069811
1.0071194
1.0072578
1.007396
1.0075336
1.0076705
1.0078064
1.007941
1.008074
1.0082051
1.0083341
1.0084606
1.0085844
1.0087052
1.0088226
1.0089364
1.0090462
1.0091519
1.009253
1.0093493
1.0094405
1.0095263
1.0096065
1.0096808
1.0097489
1.0098106
1.0098656
1.0099136
1.0099545
1.0099879
1.0100136
1.0100314
1.0100411
1.0100425
1.0100353
1.0100194
1.0099946
1.0099606
1.0099173
1.0098645
1.0098021
1.0097299
1.0096477
1.0095555
1.0094532
1.0093406
1.0092178
1.0090846
1.0089411
1.0087873
1.0086231
1.0084486
1.008264
1.0080694
1.0078646
1.0076508
1.0074257
1.0071951
1.0030538
1.0030617
1.003075
1.0030922
1.0031139
1.0031391
1.0031684
1.0032018
1.0032391
1.0032802
1.003325
1.0033735
1.0034256
1.0034812
1.0035404
1.003603
1.003669
1.0037384
1.0038111
1.0038872
1.0039665
1.0040491
1.0041349
1.0042238
1.0043159
1.004411
1.0045092
1.0046104
1.0047145
1.0048215
1.0049313
1.0050438
1.0051589
1.0052766
1.0053967
1.0055192
1.0056438
1.0057706
1.0058993
1.0060298
1.0061619
1.0062955
1.0064303
1.0065663
1.0067032
1.0068407
1.0069787
1.007117
1.0072552
1.0073932
1.0075307
1.0076675
1.0078032
1.0079376
1.0080704
1.0082013
1.0083301
1.0084565
1.00858
1.0087005
1.0088177
1.0089312
1.0090408
1.0091462
1.009247
1.009343
1.0094339
1.0095194
1.0095992
1.0096732
1.0097409
1.0098022
1.0098568
1.0099045
1.0099449
1.0099779
1.0100033
1.0100207
1.0100301
1.0100311
1.0100236
1.0100074
1.0099823
1.0099481
1.0099046
1.0098517
1.0097892
1.009717
1.0096349
1.0095429
1.0094409
1.0093287
1.0092063
1.0090738
1.008931
1.008778
1.0086148
1.0084416
1.0082583
1.0080652
1.0078621
1.00765
1.007427
1.0071985
1.0030536
1.0030619
1.0030752
1.0030924
1.003114
1.0031392
1.0031686
1.003202
1.0032392
1.0032803
1.0033251
1.0033736
1.0034256
1.0034812
1.0035403
1.0036029
1.0036689
1.0037383
1.003811
1.003887
1.0039663
1.0040488
1.0041345
1.0042234
1.0043155
1.0044106
1.0045087
1.0046098
1.0047139
1.0048208
1.0049305
1.005043
1.005158
1.0052756
1.0053956
1.005518
1.0056426
1.0057692
1.0058978
1.0060282
1.0061602
1.0062937
1.0064285
1.0065643
1.0067011
1.0068385
1.0069764
1.0071145
1.0072527
1.0073905
1.0075279
1.0076645
1.0078
1.0079342
1.0080669
1.0081976
1.0083262
1.0084524
1.0085757
1.008696
1.008813
1.0089263
1.0090356
1.0091407
1.0092413
1.009337
1.0094276
1.0095128
1.0095924
1.009666
1.0097334
1.0097944
1.0098487
1.009896
1.0099361
1.0099688
1.0099938
1.010011
1.01002
1.0100207
1.010013
1.0099965
1.0099712
1.0099369
1.0098933
1.0098403
1.0097778
1.0097057
1.0096238
1.009532
1.0094302
1.0093184
1.0091966
1.0090646
1.0089226
1.0087704
1.0086083
1.0084361
1.0082541
1.0080625
1.0078609
1.0076506
1.0074296
1.0072031
1.0030533
1.0030621
1.0030754
1.0030925
1.0031142
1.0031394
1.0031687
1.0032021
1.0032393
1.0032804
1.0033252
1.0033736
1.0034256
1.0034812
1.0035403
1.0036028
1.0036688
1.0037381
1.0038108
1.0038868
1.003966
1.0040485
1.0041342
1.0042231
1.004315
1.0044101
1.0045082
1.0046092
1.0047132
1.0048201
1.0049297
1.0050421
1.0051571
1.0052746
1.0053945
1.0055168
1.0056413
1.0057679
1.0058964
1.0060267
1.0061586
1.006292
1.0064266
1.0065624
1.006699
1.0068363
1.0069741
1.0071121
1.0072501
1.0073878
1.007525
1.0076615
1.0077969
1.0079309
1.0080634
1.008194
1.0083224
1.0084484
1.0085716
1.0086917
1.0088084
1.0089215
1.0090306
1.0091355
1.0092358
1.0093313
1.0094216
1.0095066
1.0095859
1.0096592
1.0097264
1.0097871
1.0098411
1.0098881
1.009928
1.0099604
1.0099852
1.0100021
1.0100108
1.0100114
1.0100034
1.0099868
1.0099613
1.0099269
1.0098832
1.0098302
1.0097678
1.0096958
1.009614
1.0095225
1.0094211
1.0093097
1.0091884
1.009057
1.0089157
1.0087644
1.0086032
1.0084322
1.0082514
1.0080611
1.0078611
1.0076525
1.0074334
1.0072086
1.003053
1.0030623
1.0030756
1.0030927
1.0031144
1.0031395
1.0031688
1.0032022
1.0032394
1.0032805
1.0033252
1.0033736
1.0034256
1.0034812
1.0035403
1.0036028
1.0036687
1.003738
1.0038106
1.0038866
1.0039658
1.0040482
1.0041339
1.0042227
1.0043146
1.0044096
1.0045076
1.0046086
1.0047125
1.0048193
1.0049289
1.0050412
1.0051561
1.0052736
1.0053934
1.0055156
1.00564
1.0057665
1.0058949
1.0060251
1.006157
1.0062902
1.0064248
1.0065604
1.0066969
1.0068341
1.0069718
1.0071097
1.0072475
1.0073851
1.0075222
1.0076585
1.0077938
1.0079277
1.00806
1.0081905
1.0083187
1.0084445
1.0085675
1.0086874
1.008804
1.0089169
1.0090258
1.0091305
1.0092306
1.0093258
1.009416
1.0095007
1.0095798
1.0096529
1.0097198
1.0097803
1.0098341
1.0098809
1.0099205
1.0099527
1.0099772
1.0099939
1.0100025
1.0100029
1.0099948
1.0099781
1.0099525
1.009918
1.0098743
1.0098214
1.009759
1.0096871
1.0096056
1.0095144
1.0094133
1.0093024
1.0091816
1.0090509
1.0089103
1.0087598
1.0085996
1.0084296
1.00825
1.008061
1.0078625
1.0076554
1.0074381
1.007215
1.0030528
1.0030624
1.0030758
1.0030928
1.0031145
1.0031397
1.0031689
1.0032023
1.0032395
1.0032805
1.0033252
1.0033736
1.0034256
1.0034812
1.0035402
1.0036027
1.0036686
1.0037378
1.0038104
1.0038864
1.0039655
1.0040479
1.0041335
1.0042223
1.0043141
1.0044091
1.004507
1.004608
1.0047119
1.0048186
1.0049281
1.0050403
1.0051552
1.0052725
1.0053923
1.0055144
1.0056388
1.0057652
1.0058935
1.0060236
1.0061553
1.0062885
1.0064229
1.0065585
1.0066949
1.006832
1.0069695
1.0071073
1.007245
1.0073825
1.0075194
1.0076556
1.0077907
1.0079245
1.0080567
1.008187
1.0083151
1.0084407
1.0085636
1.0086833
1.0087997
1.0089125
1.0090212
1.0091257
1.0092256
1.0093207
1.0094106
1.0094952
1.0095741
1.009647
1.0097137
1.009774
1.0098275
1.0098742
1.0099136
1.0099456
1.00997
1.0099865
1.009995
1.0099952
1.009987
1.0099702
1.0099446
1.0099101
1.0098665
1.0098136
1.0097514
1.0096797
1.0095984
1.0095074
1.0094067
1.0092963
1.009176
1.009046
1.0089061
1.0087564
1.0085971
1.0084282
1.0082497
1.008062
1.0078648
1.0076592
1.0074436
1.0072222
1.0030525
1.0030626
1.0030759
1.003093
1.0031146
1.0031398
1.003169
1.0032024
1.0032396
1.0032806
1.0033253
1.0033736
1.0034256
1.0034811
1.0035401
1.0036026
1.0036684
1.0037377
1.0038102
1.0038861
1.0039652
1.0040476
1.0041331
1.0042218
1.0043137
1.0044086
1.0045065
1.0046074
1.0047112
1.0048178