/*--------------------------------*- C++ -*----------------------------------*\
| =========                 |                                                 |
| \\      /  F ield         | OpenFOAM: The Open Source CFD Toolbox           |
|  \\    /   O peration     | Version:  2406                                  |
|   \\  /    A nd           | Website:  www.openfoam.com                      |
|    \\/     M anipulation  |                                                 |
\*---------------------------------------------------------------------------*/
FoamFile
{
    version     2.0;
    format      ascii;
    arch        "LSB;label=32;scalar=64";
    class       volScalarField;
    location    "1500";
    object      pPrime2Mean;
}
// * * * * * * * * * * * * * * * * * * * * * * * * * * * * * * * * * * * * * //

dimensions      [2 -2 -4 0 0 0 0];

internalField   nonuniform List<scalar> 
132739
(
3.1991394e-08
3.3462985e-08
3.4705762e-08
3.4841629e-08
3.5476162e-08
3.6555077e-08
3.7667384e-08
3.8868953e-08
4.0246893e-08
4.1785792e-08
4.347584e-08
4.5328411e-08
4.735473e-08
4.9562758e-08
5.1959269e-08
5.4553404e-08
5.7358438e-08
6.0390112e-08
6.3656833e-08
6.7171587e-08
7.095245e-08
7.501374e-08
7.9370631e-08
8.4043128e-08
8.9051557e-08
9.4409407e-08
1.0014081e-07
1.0626312e-07
1.1279779e-07
1.1977826e-07
1.2721069e-07
1.351337e-07
1.4358359e-07
1.5256114e-07
1.6212571e-07
1.722793e-07
1.8306793e-07
1.9454609e-07
2.06691e-07
2.1958029e-07
2.3325804e-07
2.4772678e-07
2.6301211e-07
2.7918106e-07
2.9628265e-07
3.1428699e-07
3.3324327e-07
3.532304e-07
3.7422939e-07
3.9628515e-07
4.194423e-07
4.4376765e-07
4.6931254e-07
4.9602539e-07
5.2420081e-07
5.5372351e-07
5.8453743e-07
6.1669381e-07
6.5050688e-07
6.8586297e-07
7.2285106e-07
7.609188e-07
8.0078852e-07
8.4167914e-07
8.8440939e-07
9.2906332e-07
9.7571515e-07
1.023923e-06
1.0741544e-06
1.1273053e-06
1.1831013e-06
1.2412567e-06
1.3024026e-06
1.3666635e-06
1.4342617e-06
1.5057705e-06
1.5819908e-06
1.6635517e-06
1.7511421e-06
1.8455706e-06
1.9477678e-06
2.058778e-06
2.1798656e-06
2.3124397e-06
2.4580499e-06
2.6185152e-06
2.7956724e-06
2.9912875e-06
3.2075223e-06
3.4468014e-06
3.7119145e-06
4.0059244e-06
4.3320629e-06
4.6938776e-06
5.0948306e-06
5.5389645e-06
6.0303839e-06
6.5739055e-06
7.1738403e-06
7.8362647e-06
8.5631669e-06
9.3597737e-06
1.0218055e-05
1.1136591e-05
3.2002992e-08
3.3487638e-08
3.473715e-08
3.4866653e-08
3.5501353e-08
3.6581148e-08
3.7693237e-08
3.8894578e-08
4.027221e-08
4.1810785e-08
4.3500429e-08
4.5352576e-08
4.7378353e-08
4.9585933e-08
5.1981812e-08
5.4575186e-08
5.7379534e-08
6.0410536e-08
6.3676289e-08
6.7190249e-08
7.09708e-08
7.5031843e-08
7.9389043e-08
8.4061281e-08
8.9070399e-08
9.4429608e-08
1.0016294e-07
1.0628922e-07
1.1282608e-07
1.1981153e-07
1.2725358e-07
1.3518475e-07
1.4364282e-07
1.5263347e-07
1.6221407e-07
1.7238832e-07
1.8319588e-07
1.9469754e-07
2.0688205e-07
2.1980725e-07
2.3351947e-07
2.4804078e-07
2.6338211e-07
2.7961303e-07
2.9678891e-07
3.1489079e-07
3.3397913e-07
3.5410297e-07
3.7526408e-07
3.9749643e-07
4.2085236e-07
4.4545929e-07
4.7113617e-07
4.9824994e-07
5.2651511e-07
5.5640584e-07
5.8729595e-07
6.195845e-07
6.5314793e-07
6.8822815e-07
7.2502801e-07
7.6331825e-07
8.0345766e-07
8.4525446e-07
8.8877989e-07
9.3452126e-07
9.822252e-07
1.0317688e-06
1.0833502e-06
1.1375284e-06
1.194234e-06
1.2534595e-06
1.315388e-06
1.3806117e-06
1.4492805e-06
1.5217317e-06
1.5985872e-06
1.6803453e-06
1.7676578e-06
1.8612867e-06
1.9621377e-06
2.0711911e-06
2.1895827e-06
2.3185064e-06
2.4591893e-06
2.6131436e-06
2.782115e-06
2.9679759e-06
3.1727069e-06
3.3983722e-06
3.6473191e-06
3.9220595e-06
4.2253682e-06
4.5605231e-06
4.9309212e-06
5.3401326e-06
5.7918481e-06
6.2904953e-06
6.8399946e-06
7.4456653e-06
8.1125542e-06
8.8479035e-06
9.665516e-06
1.0567077e-05
3.2012644e-08
3.3513552e-08
3.4770134e-08
3.4891469e-08
3.5527417e-08
3.6610019e-08
3.7723672e-08
3.8926974e-08
4.0307042e-08
4.1848213e-08
4.3540867e-08
4.5396534e-08
4.7426083e-08
4.9637848e-08
5.2038347e-08
5.4636965e-08
5.7446889e-08
6.0484146e-08
6.3756655e-08
6.7278424e-08
7.1068298e-08
7.5138619e-08
7.9506899e-08
8.419166e-08
8.921465e-08
9.4589324e-08
1.0034015e-07
1.0648746e-07
1.130453e-07
1.2005502e-07
1.2752703e-07
1.3549145e-07
1.4398494e-07
1.5301647e-07
1.6264235e-07
1.7286893e-07
1.8373369e-07
1.9529588e-07
2.0755564e-07
2.2056267e-07
2.3436333e-07
2.4898597e-07
2.6443848e-07
2.8078803e-07
2.981052e-07
3.1637877e-07
3.3565968e-07
3.5600317e-07
3.7741031e-07
3.9993466e-07
4.2358699e-07
4.4847201e-07
4.7447305e-07
5.0183809e-07
5.3037634e-07
5.6031108e-07
5.915413e-07
6.2433358e-07
6.5848016e-07
6.9420101e-07
7.316033e-07
7.7069497e-07
8.1161938e-07
8.5432828e-07
8.9883295e-07
9.4542779e-07
9.9404064e-07
1.0446271e-06
1.0973831e-06
1.1527598e-06
1.2108314e-06
1.2717006e-06
1.3353782e-06
1.4024329e-06
1.4731565e-06
1.5479794e-06
1.6276283e-06
1.7126697e-06
1.8036787e-06
1.9013741e-06
2.0066216e-06
2.1203027e-06
2.243498e-06
2.3774223e-06
2.5232823e-06
2.6824305e-06
2.856419e-06
3.0468265e-06
3.2555398e-06
3.4847831e-06
3.7368512e-06
4.014145e-06
4.3194992e-06
4.6559062e-06
5.0265821e-06
5.4350681e-06
5.8850105e-06
6.3804195e-06
6.9254624e-06
7.5240047e-06
8.1820424e-06
8.8985682e-06
9.6963787e-06
1.0518614e-05
3.2019794e-08
3.3538423e-08
3.4797976e-08
3.4912554e-08
3.5550146e-08
3.6634483e-08
3.7748191e-08
3.8952091e-08
4.0332912e-08
4.1874753e-08
4.3568079e-08
4.5424484e-08
4.7455112e-08
4.9667922e-08
5.2069395e-08
5.4669438e-08
5.7480863e-08
6.0519652e-08
6.3793982e-08
6.731782e-08
7.1110845e-08
7.5184298e-08
7.9556225e-08
8.4245919e-08
8.9274135e-08
9.4655259e-08
1.0041272e-07
1.0656988e-07
1.1313841e-07
1.2015998e-07
1.2764748e-07
1.3562871e-07
1.4414183e-07
1.5319548e-07
1.6284739e-07
1.7310558e-07
1.8400421e-07
1.9560336e-07
2.0791033e-07
2.2097201e-07
2.3482119e-07
2.4950923e-07
2.650487e-07
2.814727e-07
2.9887721e-07
3.1725565e-07
3.3664162e-07
3.571037e-07
3.7864565e-07
4.0134521e-07
4.2517342e-07
4.5029219e-07
4.7656423e-07
5.0418495e-07
5.331238e-07
5.633092e-07
5.9497184e-07
6.281075e-07
6.6265386e-07
6.9875731e-07
7.3646676e-07
7.7598544e-07
8.1732991e-07
8.6062224e-07
9.0581531e-07
9.530849e-07
1.0024748e-06
1.0539584e-06
1.1076923e-06
1.1640597e-06
1.2231485e-06
1.2850782e-06
1.3500167e-06
1.4183322e-06
1.4903386e-06
1.5664836e-06
1.647402e-06
1.7336707e-06
1.8259022e-06
1.924844e-06
2.0314246e-06
2.1466506e-06
2.2716156e-06
2.4075313e-06
2.5557145e-06
2.717543e-06
2.8946016e-06
3.0884986e-06
3.3009811e-06
3.5340464e-06
3.7898459e-06
4.0707585e-06
4.379212e-06
4.7179473e-06
5.0900485e-06
5.4987147e-06
5.9475397e-06
6.4402507e-06
6.980614e-06
7.5721434e-06
8.2216353e-06
8.9263311e-06
9.7083489e-06
1.0531308e-05
3.2025403e-08
3.3562815e-08
3.4824912e-08
3.4932515e-08
3.5571988e-08
3.6657962e-08
3.7772081e-08
3.8977136e-08
4.0359389e-08
4.1902585e-08
4.3597449e-08
4.5455828e-08
4.7488549e-08
4.9703462e-08
5.2107293e-08
5.4710369e-08
5.7524647e-08
6.0566547e-08
6.3844619e-08
6.737214e-08
7.1170275e-08
7.5249058e-08
7.9626308e-08
8.4323117e-08
8.9358832e-08
9.4748357e-08
1.0051605e-07
1.0668499e-07
1.1326592e-07
1.2030153e-07
1.2780659e-07
1.358079e-07
1.4434309e-07
1.5342098e-07
1.6310167e-07
1.7339396e-07
1.843284e-07
1.9596664e-07
2.0832071e-07
2.2144126e-07
2.353471e-07
2.5009089e-07
2.6571488e-07
2.8222731e-07
2.9971697e-07
3.1819943e-07
3.3770185e-07
3.5830206e-07
3.7999231e-07
4.0283747e-07
4.2685045e-07
4.5213128e-07
4.7860264e-07
5.0643225e-07
5.3558215e-07
5.6605057e-07
5.9800803e-07
6.3145294e-07
6.6639676e-07
7.0293487e-07
7.4115313e-07
7.8124237e-07
8.2316982e-07
8.6701657e-07
9.1282684e-07
9.6072536e-07
1.0108098e-06
1.063088e-06
1.1177003e-06
1.1749883e-06
1.2350775e-06
1.2981159e-06
1.3643149e-06
1.4339451e-06
1.5074054e-06
1.5852308e-06
1.6680406e-06
1.7564192e-06
1.8509416e-06
1.9523713e-06
2.0614854e-06
2.1792397e-06
2.3066953e-06
2.4449671e-06
2.595352e-06
2.7590718e-06
2.9376107e-06
3.1325583e-06
3.3456091e-06
3.5787241e-06
3.8340214e-06
4.1138863e-06
4.4207481e-06
4.757118e-06
5.1258634e-06
5.5300807e-06
5.972979e-06
6.457945e-06
6.9889065e-06
7.568983e-06
8.2042846e-06
8.8942425e-06
9.6545656e-06
1.046874e-05
3.2029085e-08
3.3586781e-08
3.4848433e-08
3.4950232e-08
3.559182e-08
3.6678994e-08
3.7793171e-08
3.8998965e-08
4.0382006e-08
4.1925875e-08
4.3621537e-08
4.5480918e-08
4.7514656e-08
4.9730581e-08
5.2135634e-08
5.4740391e-08
5.7555881e-08
6.0599174e-08
6.3879377e-08
6.7408825e-08
7.1209695e-08
7.5291671e-08
7.9672202e-08
8.4373142e-08
8.9413865e-08
9.4808927e-08
1.0058329e-07
1.0676073e-07
1.1335081e-07
1.2039681e-07
1.2791527e-07
1.3593127e-07
1.4448321e-07
1.5358084e-07
1.6328404e-07
1.7360466e-07
1.8456793e-07
1.9623713e-07
2.0863142e-07
2.2179583e-07
2.3575028e-07
2.5055375e-07
2.6623638e-07
2.8281693e-07
3.0039446e-07
3.1896322e-07
3.3855441e-07
3.5926872e-07
3.810776e-07
4.0404926e-07
4.2822121e-07
4.5366301e-07
4.8033656e-07
5.0837123e-07
5.377728e-07
5.6851158e-07
6.0075977e-07
6.3452108e-07
6.6982797e-07
7.0674243e-07
7.4531382e-07
7.8579718e-07
8.2816943e-07
8.7247707e-07
9.1883013e-07
9.6732633e-07
1.0180498e-06
1.0710715e-06
1.1264967e-06
1.1846248e-06
1.2456305e-06
1.3096541e-06
1.37695e-06
1.447745e-06
1.5224181e-06
1.6015041e-06
1.6855957e-06
1.775272e-06
1.8711031e-06
1.9739045e-06
2.0844705e-06
2.2037872e-06
2.3329241e-06
2.4729922e-06
2.6253189e-06
2.7911166e-06
2.9718017e-06
3.1689206e-06
3.3840838e-06
3.6190538e-06
3.8757965e-06
4.156518e-06
4.4635568e-06
4.7993963e-06
5.1666373e-06
5.5680961e-06
6.0070552e-06
6.4865784e-06
7.0103894e-06
7.5813497e-06
8.2049654e-06
8.8809708e-06
9.6227658e-06
1.0413633e-05
3.2031409e-08
3.3610354e-08
3.4870624e-08
3.4966432e-08
3.5610434e-08
3.6698568e-08
3.7812648e-08
3.9019259e-08
4.0403235e-08
4.1947883e-08
4.364441e-08
4.5504967e-08
4.7539877e-08
4.9757027e-08
5.2163561e-08
5.4770078e-08
5.7587107e-08
6.0632006e-08
6.3914425e-08
6.7445963e-08
7.1249638e-08
7.5334567e-08
7.9718591e-08
8.4423494e-08
8.9468763e-08
9.4869461e-08
1.0065017e-07
1.0683505e-07
1.1343261e-07
1.2048812e-07
1.2801874e-07
1.3604863e-07
1.446151e-07
1.5373018e-07
1.6345308e-07
1.7379765e-07
1.8478717e-07
1.9648482e-07
2.0891342e-07
2.2211848e-07
2.3611434e-07
2.5096254e-07
2.6670596e-07
2.833501e-07
3.0099472e-07
3.1963973e-07
3.3931656e-07
3.6013075e-07
3.820492e-07
4.0513026e-07
4.2944573e-07
4.5502501e-07
4.8185481e-07
5.1007137e-07
5.396619e-07
5.7061144e-07
6.0310303e-07
6.3712004e-07
6.7269367e-07
7.0995967e-07
7.4892223e-07
7.89773e-07
8.3256399e-07
8.7731887e-07
9.2416389e-07
9.7317682e-07
1.0244587e-06
1.0781031e-06
1.1342309e-06
1.1930902e-06
1.2548831e-06
1.3197762e-06
1.3880228e-06
1.4598434e-06
1.5356406e-06
1.6159925e-06
1.7014715e-06
1.7926537e-06
1.8901509e-06
1.9947178e-06
2.1070908e-06
2.2282478e-06
2.359239e-06
2.5011041e-06
2.6551051e-06
2.8225096e-06
3.0046335e-06
3.2029266e-06
3.4190065e-06
3.6546364e-06
3.911728e-06
4.1923519e-06
4.4987688e-06
4.8333717e-06
5.1985962e-06
5.597249e-06
6.0321111e-06
6.5060394e-06
7.0229299e-06
7.5851154e-06
8.1977687e-06
8.860378e-06
9.5867923e-06
1.0355205e-05
3.2032334e-08
3.3633051e-08
3.4890039e-08
3.4980956e-08
3.5627645e-08
3.6716437e-08
3.7830221e-08
3.9037519e-08
4.0422178e-08
4.1967328e-08
4.3664354e-08
4.5525658e-08
4.7561458e-08
4.9779288e-08
5.2186778e-08
5.4794488e-08
5.7612229e-08
6.065793e-08
6.3941778e-08
6.7474843e-08
7.1280212e-08
7.5367069e-08
7.9753838e-08
8.4461511e-08
8.9509825e-08
9.4914752e-08
1.0070015e-07
1.0689096e-07
1.1349467e-07
1.2055832e-07
1.2809896e-07
1.3613883e-07
1.447176e-07
1.5384862e-07
1.6358883e-07
1.7395209e-07
1.8496428e-07
1.9668896e-07
2.0914648e-07
2.223846e-07
2.3642002e-07
2.5130948e-07
2.6710235e-07
2.8380122e-07
3.0150449e-07
3.2022047e-07
3.3997327e-07
3.6087059e-07
3.8288714e-07
4.0607014e-07
4.3050466e-07
4.5620912e-07
4.8318674e-07
5.1156388e-07
5.4133613e-07
5.7249413e-07
6.0521491e-07
6.3948029e-07
6.7531716e-07
7.1289059e-07
7.5217362e-07
7.9334356e-07
8.3650842e-07
8.8165503e-07
9.2892711e-07
9.7841075e-07
1.0302159e-06
1.0844275e-06
1.141219e-06
1.2007782e-06
1.2632724e-06
1.3289828e-06
1.39813e-06
1.4709032e-06
1.547718e-06
1.6291491e-06
1.715734e-06
1.8080574e-06
1.9067194e-06
2.0124982e-06
2.1261053e-06
2.2485341e-06
2.3808552e-06
2.5240618e-06
2.6793929e-06
2.8481418e-06
3.0315626e-06
3.23103e-06
3.4481397e-06
3.6845642e-06
3.9420889e-06
4.222668e-06
4.5284622e-06
4.8617164e-06
5.2248069e-06
5.6203723e-06
6.0510218e-06
6.519644e-06
7.0295443e-06
7.5830019e-06
8.185209e-06
8.8348452e-06
9.5470805e-06
1.0294666e-05
3.2033006e-08
3.3653983e-08
3.4907919e-08
3.4994078e-08
3.5643626e-08
3.6732851e-08
3.7846268e-08
3.9054179e-08
4.0439428e-08
4.1985014e-08
4.3682455e-08
4.5544542e-08
4.7581071e-08
4.9799416e-08
5.2207904e-08
5.48166e-08
5.7635e-08
6.0681503e-08
6.3966389e-08
6.7500777e-08
7.130743e-08
7.5395941e-08
7.9784762e-08
8.4494739e-08
8.9545598e-08
9.4953674e-08
1.0074261e-07
1.0693852e-07
1.1354782e-07
1.206174e-07
1.281663e-07
1.3621467e-07
1.4480348e-07
1.5394803e-07
1.6370244e-07
1.7408152e-07
1.8511206e-07
1.9685942e-07
2.0934011e-07
2.2260572e-07
2.3667728e-07
2.5160101e-07
2.6743469e-07
2.8418273e-07
3.0193293e-07
3.207073e-07
3.4052937e-07
3.6149986e-07
3.8359546e-07
4.0686634e-07
4.3140711e-07
4.5721981e-07
4.8432166e-07
5.1283493e-07
5.4275998e-07
5.7408949e-07
6.0699928e-07
6.4146985e-07
6.775337e-07
7.1536758e-07
7.549326e-07
7.9639642e-07
8.3987238e-07
8.8537648e-07
9.330284e-07
9.8292269e-07
1.0351755e-06
1.0898752e-06
1.1472172e-06
1.20738e-06
1.2705306e-06
1.3369141e-06
1.4067993e-06
1.4803883e-06
1.5580973e-06
1.6405007e-06
1.7281438e-06
1.82161e-06
1.9214846e-06
2.0285511e-06
2.1434694e-06
2.2672675e-06
2.4009655e-06
2.54545e-06
2.7020307e-06
2.8719282e-06
3.0563708e-06
3.2566985e-06
3.474378e-06
3.7111279e-06
3.9686866e-06
4.2488795e-06
4.5537858e-06
4.8855432e-06
5.2464645e-06
5.6389931e-06
6.0656266e-06
6.5289832e-06
7.0322019e-06
7.5775152e-06
8.1700332e-06
8.8073562e-06
9.5063267e-06
1.0235204e-05
3.2033674e-08
3.3672763e-08
3.4923365e-08
3.5005784e-08
3.5658481e-08
3.674788e-08
3.7860803e-08
3.9069294e-08
4.0454945e-08
4.2000795e-08
4.3698506e-08
4.5561192e-08
4.7598269e-08
4.9816886e-08
5.2225932e-08
5.4835248e-08
5.7654026e-08
6.0700888e-08
6.3986323e-08
6.7521515e-08
7.1328813e-08
7.5418421e-08
7.9808808e-08
8.4520307e-08
8.9572657e-08
9.498316e-08
1.0077512e-07
1.0697458e-07
1.1358835e-07
1.2066238e-07
1.2821771e-07
1.3627355e-07
1.4487014e-07
1.5402654e-07
1.637917e-07
1.7418422e-07
1.852331e-07
1.9699823e-07
2.0949978e-07
2.2278923e-07
2.3689106e-07
2.5184355e-07
2.6771201e-07
2.8450397e-07
3.0229625e-07
3.2112194e-07
3.4100398e-07
3.6203042e-07
3.8419725e-07
4.0755879e-07
4.3218292e-07
4.5808148e-07
4.8530853e-07
5.1394404e-07
5.4399589e-07
5.7548607e-07
6.0856522e-07
6.4321768e-07
6.7949918e-07
7.1755734e-07
7.5735756e-07
7.9910969e-07
8.4286342e-07
8.8867219e-07
9.3666952e-07
9.869139e-07
1.0395868e-06
1.0947213e-06
1.1525571e-06
1.2132713e-06
1.2770044e-06
1.3440371e-06
1.4146148e-06
1.4889554e-06
1.5674842e-06
1.650735e-06
1.7392709e-06
1.8336771e-06
1.9344946e-06
2.0425959e-06
2.1584625e-06
2.2831777e-06
2.4179554e-06
2.5634884e-06
2.721018e-06
2.8917768e-06
3.0770304e-06
3.2780187e-06
3.4961796e-06
3.7331955e-06
3.9906803e-06
4.2704157e-06
4.5743848e-06
4.9045717e-06
5.2632769e-06
5.652823e-06
6.0754846e-06
6.5337952e-06
7.0308074e-06
7.5682793e-06
8.1513823e-06
8.7772019e-06
9.4635203e-06
1.0175829e-05
3.2034438e-08
3.3689333e-08
3.4937179e-08
3.5016394e-08
3.5672339e-08
3.676156e-08
3.7873965e-08
3.9083006e-08
4.0468934e-08
4.2014934e-08
4.371285e-08
4.5576038e-08
4.761346e-08
4.9832283e-08
5.2241671e-08
5.485142e-08
5.7670467e-08
6.0717444e-08
6.4003249e-08
6.7538815e-08
7.134654e-08
7.5436777e-08
7.9828023e-08
8.4540727e-08
8.9594044e-08
9.5006113e-08
1.0080025e-07
1.070021e-07
1.1361902e-07
1.2069696e-07
1.2825717e-07
1.3631835e-07
1.4492138e-07
1.5408696e-07
1.6386119e-07
1.7426438e-07
1.8532858e-07
1.9710705e-07
2.0962486e-07
2.2293538e-07
2.3706156e-07
2.5203927e-07
2.679374e-07
2.8476453e-07
3.0258955e-07
3.2145936e-07
3.4139361e-07
3.6246917e-07
3.846959e-07
4.0813057e-07
4.328307e-07
4.5880159e-07
4.861262e-07
5.1487241e-07
5.4503157e-07
5.7665618e-07
6.0988407e-07
6.4468761e-07
6.8115974e-07
7.1941071e-07
7.5940347e-07
8.0139904e-07
8.4539408e-07
8.9145784e-07
9.397634e-07
9.9033076e-07
1.0433779e-06
1.0988666e-06
1.1571134e-06
1.2183197e-06
1.2825223e-06
1.3501215e-06
1.4212965e-06
1.4962722e-06
1.5754978e-06
1.6595131e-06
1.7488611e-06
1.8440981e-06
1.9458339e-06
2.0548315e-06
2.1717089e-06
2.2974792e-06
2.4331193e-06
2.5795718e-06
2.7379564e-06
2.9094451e-06
3.0953237e-06
3.2968142e-06
3.5152154e-06
3.7521763e-06
4.0093529e-06
4.2883707e-06
4.5911922e-06
4.919664e-06
5.2759899e-06
5.6624994e-06
6.0812911e-06
6.5347693e-06
7.0257463e-06
7.5558216e-06
8.1301482e-06
8.7453836e-06
9.4192956e-06
1.0116811e-05
3.2035147e-08
3.3704256e-08
3.4948984e-08
3.502577e-08
3.5685181e-08
3.6774111e-08
3.7885854e-08
3.9095421e-08
4.048156e-08
4.2027556e-08
4.3725616e-08
4.5589126e-08
4.762671e-08
4.9845601e-08
5.2255096e-08
5.486511e-08
5.7684204e-08
6.0730888e-08
6.4016836e-08
6.7552375e-08
7.1359944e-08
7.5450425e-08
7.9842211e-08
8.4555616e-08
8.9609326e-08
9.50222e-08
1.0081773e-07
1.0702122e-07
1.1364035e-07
1.207208e-07
1.2828492e-07
1.3635029e-07
1.4495799e-07
1.5413067e-07
1.6391238e-07
1.743249e-07
1.8540089e-07
1.9719069e-07
2.0972311e-07
2.2304943e-07
2.371955e-07
2.521963e-07
2.681176e-07
2.8497371e-07
3.0282931e-07
3.217348e-07
3.4171289e-07
3.6283092e-07
3.8510719e-07
4.0860153e-07
4.3336647e-07
4.5941001e-07
4.8681795e-07
5.1565173e-07
5.4591014e-07
5.7765186e-07
6.1100448e-07
6.4594616e-07
6.825646e-07
7.2099299e-07
7.6118171e-07
8.0338304e-07
8.4759067e-07
8.9387541e-07
9.4243815e-07
9.9330032e-07
1.0466308e-06
1.1024702e-06
1.1611104e-06
1.2227123e-06
1.2873899e-06
1.3554782e-06
1.4271696e-06
1.502721e-06
1.5825666e-06
1.6672537e-06
1.7573198e-06
1.8532702e-06
1.9557377e-06
2.0654829e-06
2.1831551e-06
2.3096713e-06
2.4460215e-06
2.5931884e-06
2.7522304e-06
2.9242598e-06
3.1105748e-06
3.3123894e-06
3.5309217e-06
3.7677487e-06
4.0244914e-06
4.302756e-06
4.604349e-06
4.9310353e-06
5.2849933e-06
5.6684966e-06
6.0834775e-06
6.5322036e-06
7.0174018e-06
7.5405549e-06
8.1064102e-06
8.7117751e-06
9.3738622e-06
1.0058634e-05
3.2034827e-08
3.371849e-08
3.4959204e-08
3.5034173e-08
3.5697151e-08
3.6785563e-08
3.7896544e-08
3.9106612e-08
4.0492873e-08
4.2038779e-08
4.3736901e-08
4.5600636e-08
4.7638258e-08
4.9857133e-08
5.226655e-08
5.4876508e-08
5.7695555e-08
6.0741877e-08
6.4027648e-08
6.7562911e-08
7.1370023e-08
7.5460535e-08
7.9852481e-08
8.4565781e-08
8.9619365e-08
9.5032769e-08
1.0082883e-07
1.0703274e-07
1.1365345e-07
1.2073606e-07
1.2830251e-07
1.3637048e-07
1.449823e-07
1.5416015e-07
1.6394641e-07
1.7436702e-07
1.8545115e-07
1.9724932e-07
2.0979572e-07
2.2313434e-07
2.3729341e-07
2.5231464e-07
2.682564e-07
2.8513357e-07
3.0301478e-07
3.2194967e-07
3.4196344e-07
3.6311855e-07
3.8543226e-07
4.0898002e-07
4.3379915e-07
4.5989538e-07
4.8737735e-07
5.1629025e-07
5.4662849e-07
5.7846806e-07
6.1193062e-07
6.4698967e-07
6.8373353e-07
7.22311e-07
7.626558e-07
8.0501783e-07
8.4941764e-07
8.9589923e-07
9.4469559e-07
9.957806e-07
1.0493676e-06
1.1055488e-06
1.1645032e-06
1.2264349e-06
1.2914966e-06
1.3599935e-06
1.4321636e-06
1.5082183e-06
1.5885565e-06
1.6738276e-06
1.764522e-06
1.8610896e-06
1.9642103e-06
2.074654e-06
2.1930251e-06
2.3202116e-06
2.4572096e-06
2.6049848e-06
2.7645628e-06
2.937015e-06
3.1236261e-06
3.3256267e-06
3.5441275e-06
3.7806581e-06
4.0368445e-06
4.3142055e-06
4.6145303e-06
4.939232e-06
5.2907098e-06
5.6712594e-06
6.0824555e-06
6.526535e-06
7.0061942e-06
7.5228164e-06
8.0806833e-06
8.6769296e-06
9.3275178e-06
1.0001216e-05
3.2033376e-08
3.373253e-08
3.496793e-08
3.5041647e-08
3.570833e-08
3.6796075e-08
3.7906187e-08
3.9116699e-08
4.0503061e-08
4.2048748e-08
4.3746882e-08
4.5610704e-08
4.7648255e-08
4.9866959e-08
5.2276143e-08
5.4885958e-08
5.7704786e-08
6.0750481e-08
6.4035774e-08
6.7570479e-08
7.1376939e-08
7.5467127e-08
7.9858671e-08
8.4571581e-08
8.9624569e-08
9.5037884e-08
1.0083431e-07
1.0703801e-07
1.1365916e-07
1.2074247e-07
1.2831069e-07
1.3638084e-07
1.4499443e-07
1.5417654e-07
1.6396635e-07
1.7439243e-07
1.8548351e-07
1.9728802e-07
2.0984447e-07
2.2319142e-07
2.3736264e-07
2.5240044e-07
2.6835661e-07
2.8525265e-07
3.031541e-07
3.2211154e-07
3.4215629e-07
3.6334e-07
3.856852e-07
4.0927994e-07
4.3414098e-07
4.602826e-07
4.8782864e-07
5.1679885e-07
5.4721134e-07
5.7913608e-07
6.1268293e-07
6.4784464e-07
6.8469646e-07
7.234062e-07
7.6388517e-07
8.0638567e-07
8.5096063e-07
8.9759958e-07
9.4658414e-07
9.9788731e-07
1.0516854e-06
1.1081377e-06
1.1673442e-06
1.2295877e-06
1.2950273e-06
1.3638834e-06
1.436421e-06
1.512914e-06
1.5937519e-06
1.679507e-06
1.7707418e-06
1.8678192e-06
1.9714649e-06
2.0824811e-06
2.2014114e-06
2.3291555e-06
2.4666442e-06
2.6148546e-06
2.7748231e-06
2.9475806e-06
3.1343595e-06
3.3363812e-06
3.5547609e-06
3.7909329e-06
4.0464476e-06
4.3228252e-06
4.6217002e-06
4.9446984e-06
5.2939118e-06
5.6713122e-06
6.0787971e-06
6.5183973e-06
6.9926504e-06
7.5029743e-06
8.0532579e-06
8.6409457e-06
9.2804035e-06
9.9452233e-06
3.2031029e-08
3.3746644e-08
3.4975109e-08
3.5048161e-08
3.571861e-08
3.6805566e-08
3.7914835e-08
3.9125734e-08
4.0512139e-08
4.2057563e-08
4.3755629e-08
4.5619423e-08
4.7656781e-08
4.9875294e-08
5.2284106e-08
5.4893558e-08
5.7712028e-08
6.0756979e-08
6.4041482e-08
6.7575572e-08
7.1381261e-08
7.5470715e-08
7.986146e-08
8.4573583e-08
8.9625628e-08
9.5038398e-08
1.0083435e-07
1.0703725e-07
1.1365856e-07
1.2074198e-07
1.283108e-07
1.3638174e-07
1.4499645e-07
1.5418064e-07
1.6397331e-07
1.7440339e-07
1.854979e-07
1.9730809e-07
2.098722e-07
2.2322438e-07
2.3740482e-07
2.5245625e-07
2.6842112e-07
2.8532958e-07
3.0325113e-07
3.2222622e-07
3.4229376e-07
3.6350091e-07
3.8587186e-07
4.0950035e-07
4.3439513e-07
4.605804e-07
4.8817751e-07
5.171905e-07
5.476635e-07
5.7966217e-07
6.1327954e-07
6.4852867e-07
6.8547003e-07
7.242806e-07
7.6487701e-07
8.0749046e-07
8.5220213e-07
8.9899391e-07
9.4812169e-07
9.9960873e-07
1.0536015e-06
1.1102711e-06
1.1697183e-06
1.23221e-06
1.297941e-06
1.3671008e-06
1.4399771e-06
1.5168507e-06
1.598083e-06
1.6842516e-06
1.7759262e-06
1.8734724e-06
1.9776e-06
2.089062e-06
2.2084688e-06
2.336661e-06
2.4745628e-06
2.6231324e-06
2.7833853e-06
2.9563592e-06
3.143189e-06
3.3451065e-06
3.5632673e-06
3.7989686e-06
4.0537459e-06
4.3290664e-06
4.6265432e-06
4.9477558e-06
5.2945723e-06
5.6690253e-06
6.0729165e-06
6.5081907e-06
6.9771843e-06
7.4814817e-06
8.0244797e-06
8.6043268e-06
9.2330418e-06
9.8902444e-06
3.2027381e-08
3.3760682e-08
3.4981423e-08
3.5054181e-08
3.5728325e-08
3.6814288e-08
3.792267e-08
3.9133861e-08
4.0520221e-08
4.2065357e-08
4.3763264e-08
4.5626929e-08
4.7664038e-08
4.9882257e-08
5.2290556e-08
5.4899542e-08
5.7717462e-08
6.0761605e-08
6.4045184e-08
6.757825e-08
7.138297e-08
7.5471523e-08
7.986107e-08
8.4572193e-08
8.9622964e-08
9.5034626e-08
1.0082986e-07
1.0703157e-07
1.1365204e-07
1.2073477e-07
1.2830351e-07
1.363741e-07
1.4498915e-07
1.5417495e-07
1.6396814e-07
1.7440123e-07
1.8549829e-07
1.9731036e-07
2.0988032e-07
2.2323679e-07
2.3742318e-07
2.5248384e-07
2.6845601e-07
2.8537433e-07
3.0331003e-07
3.2229692e-07
3.4238042e-07
3.6360869e-07
3.8600064e-07
4.0965495e-07
4.3457684e-07
4.6079456e-07
4.884297e-07
5.1748127e-07
5.4800342e-07
5.800639e-07
6.1373375e-07
6.4904705e-07
6.8608166e-07
7.2497136e-07
7.6565641e-07
8.0837136e-07
8.5320148e-07
9.0011737e-07
9.4936314e-07
1.0009992e-06
1.0551562e-06
1.112006e-06
1.1716496e-06
1.2343629e-06
1.3003481e-06
1.3697574e-06
1.4429304e-06
1.520124e-06
1.6016864e-06
1.6882165e-06
1.7802582e-06
1.8782089e-06
1.9827233e-06
2.0945467e-06
2.2143328e-06
2.3428737e-06
2.4810717e-06
2.6298821e-06
2.7903158e-06
2.9633911e-06
3.1501727e-06
3.3518838e-06
3.5697211e-06
3.8048976e-06
4.058887e-06
4.333098e-06
4.6291332e-06
4.9485746e-06
5.2931094e-06
5.664614e-06
6.065031e-06
6.4961942e-06
6.9601535e-06
7.458662e-06
7.9947335e-06
8.5672132e-06
9.1855794e-06
9.8358982e-06
3.202453e-08
3.3773803e-08
3.4985935e-08
3.5059211e-08
3.5737217e-08
3.6822116e-08
3.7929642e-08
3.9141103e-08
4.0527399e-08
4.2072186e-08
4.376989e-08
4.5633321e-08
4.7670127e-08
4.9887983e-08
5.2295686e-08
5.4904082e-08
5.7721305e-08
6.0764407e-08
6.4046995e-08
6.7579004e-08
7.1382444e-08
7.5469908e-08
7.9858032e-08
8.4567738e-08
8.9617031e-08
9.5027112e-08
1.0082116e-07
1.0702115e-07
1.1364033e-07
1.2072215e-07
1.2828983e-07
1.3635923e-07
1.44974e-07
1.5416005e-07
1.6395222e-07
1.7438647e-07
1.8548494e-07
1.9729841e-07
2.0987185e-07
2.2322884e-07
2.3741947e-07
2.524865e-07
2.6846303e-07
2.8538861e-07
3.0333319e-07
3.2232982e-07
3.42425e-07
3.6366608e-07
3.8607426e-07
4.0974745e-07
4.3468986e-07
4.6093474e-07
4.88597e-07
5.1767959e-07
5.4824127e-07
5.8034586e-07
6.1406937e-07
6.4942885e-07
6.8652211e-07
7.2549382e-07
7.6625061e-07
8.0903536e-07
8.5396465e-07
9.0097557e-07
9.5032723e-07
1.0020935e-06
1.056383e-06
1.113376e-06
1.1731764e-06
1.2360826e-06
1.3022711e-06
1.3718931e-06
1.4453086e-06
1.5227646e-06
1.6046047e-06
1.6914359e-06
1.7837813e-06
1.8820446e-06
1.9868838e-06
2.0990193e-06
2.2190917e-06
2.3479026e-06
2.4863406e-06
2.6353127e-06
2.7958248e-06
2.9689028e-06
3.1555569e-06
3.3569985e-06
3.5744236e-06
3.8089973e-06
4.0621387e-06
4.3352205e-06
4.6297702e-06
4.9473894e-06
5.2897165e-06
5.65841e-06
6.0554372e-06
6.4826515e-06
6.9418335e-06
7.4348111e-06
7.9643092e-06
8.5298071e-06
9.138455e-06
9.7814757e-06
3.2020707e-08
3.378677e-08
3.4989911e-08
3.5063943e-08
3.5745638e-08
3.6829275e-08
3.7935893e-08
3.9147571e-08
4.0533737e-08
4.207814e-08
4.3775543e-08
4.5638733e-08
4.7675194e-08
4.9892535e-08
5.2299544e-08
5.490728e-08
5.7723718e-08
6.0765714e-08
6.4047174e-08
6.7577872e-08
7.1379881e-08
7.5466138e-08
7.9852643e-08
8.4560548e-08
8.9608083e-08
9.5016289e-08
1.0080883e-07
1.0700675e-07
1.1362412e-07
1.2070443e-07
1.2826997e-07
1.3633793e-07
1.4495187e-07
1.5413681e-07
1.6392738e-07
1.7436146e-07
1.8545984e-07
1.972727e-07
2.0984765e-07
2.2320481e-07
2.37396e-07
2.5246603e-07
2.6844586e-07
2.8537604e-07
3.0332453e-07
3.2232728e-07
3.4243218e-07
3.6368058e-07
3.8609798e-07
4.0978613e-07
4.3474396e-07
4.6100641e-07
4.8868908e-07
5.1779483e-07
5.4838924e-07
5.8052521e-07
6.1428271e-07
6.4969061e-07
6.8682968e-07
7.2585346e-07
7.6667774e-07
8.0952088e-07
8.5452004e-07
9.0161519e-07
9.5104326e-07
1.0029126e-06
1.0573101e-06
1.1144187e-06
1.1743582e-06
1.2374076e-06
1.3037615e-06
1.3735662e-06
1.4471847e-06
1.5248492e-06
1.6069244e-06
1.6940078e-06
1.7865942e-06
1.8851173e-06
1.990199e-06
2.1025743e-06
2.2228642e-06
2.3518665e-06
2.4904556e-06
2.639505e-06
2.8000423e-06
2.9730492e-06
3.1594918e-06
3.3605766e-06
3.5775032e-06
3.8113957e-06
4.0636539e-06
4.3355931e-06
4.6286572e-06
4.9444933e-06
5.2846457e-06
5.6505459e-06
6.0442718e-06
6.4676982e-06
6.9223618e-06
7.4100617e-06
7.933266e-06
8.4920093e-06
9.0919016e-06
9.726858e-06
3.2017113e-08
3.3799067e-08
3.499264e-08
3.5067974e-08
3.5753416e-08
3.6835733e-08
3.7941464e-08
3.9153331e-08
4.0539329e-08
4.2083318e-08
4.3780393e-08
4.5643242e-08
4.767929e-08
4.9896052e-08
5.2302336e-08
5.49093e-08
5.7724795e-08
6.0765653e-08
6.404586e-08
6.7575086e-08
7.1375662e-08
7.5460399e-08
7.984513e-08
8.4551052e-08
8.9596422e-08
9.5002665e-08
1.007931e-07
1.0698869e-07
1.1360427e-07
1.2068201e-07
1.2824516e-07
1.3631143e-07
1.4492284e-07
1.5410649e-07
1.6389464e-07
1.7432661e-07
1.8542431e-07
1.9723478e-07
2.0980968e-07
2.23166e-07
2.3735551e-07
2.5242571e-07
2.6840748e-07
2.8533834e-07
3.0328732e-07
3.2229485e-07
3.4240297e-07
3.6365512e-07
3.8608038e-07
4.0977536e-07
4.3474297e-07
4.6101747e-07
4.8871283e-07
5.1783717e-07
5.4845086e-07
5.8061396e-07
6.1439849e-07
6.4983106e-07
6.8701332e-07
7.2607462e-07
7.6694253e-07
8.0984643e-07
8.548945e-07
9.0204241e-07
9.5153701e-07
1.0034887e-06
1.0579624e-06
1.1151618e-06
1.1752229e-06
1.2383827e-06
1.3048645e-06
1.3748162e-06
1.4486004e-06
1.5264281e-06
1.6086842e-06
1.6959649e-06
1.7887454e-06
1.8874853e-06
1.9927535e-06
2.105296e-06
2.2257401e-06
2.354869e-06
2.4935448e-06
2.6426057e-06
2.8030802e-06
2.9759507e-06
3.1621287e-06
3.3628046e-06
3.579177e-06
3.8123469e-06
4.0636779e-06
4.3344176e-06
4.6259867e-06
4.9400186e-06
5.2779453e-06
5.6412615e-06
6.0319579e-06
6.4516155e-06
6.9018837e-06
7.384551e-06
7.9017983e-06
8.4540915e-06
9.0460268e-06
9.6723295e-06
3.2013638e-08
3.3810747e-08
3.4994544e-08
3.5071557e-08
3.5760653e-08
3.6841554e-08
3.794638e-08
3.9158411e-08
4.0544209e-08
4.2087729e-08
4.3784497e-08
4.5646966e-08
4.7682506e-08
4.9898641e-08
5.2304144e-08
5.4910252e-08
5.7724667e-08
6.0764378e-08
6.4043247e-08
6.7570901e-08
7.1369828e-08
7.5452879e-08
7.9835707e-08
8.4539481e-08
8.9582606e-08
9.4986585e-08
1.007746e-07
1.0696734e-07
1.135808e-07
1.2065581e-07
1.2821578e-07
1.3627991e-07
1.4488838e-07
1.5406972e-07
1.6385482e-07
1.7428324e-07
1.8537926e-07
1.9718722e-07
2.0975945e-07
2.2311283e-07
2.3730031e-07
2.5236729e-07
2.6834896e-07
2.8528093e-07
3.0322525e-07
3.22235e-07
3.4234277e-07
3.6359253e-07
3.8602501e-07
4.0972352e-07
4.3469363e-07
4.6097335e-07
4.8867844e-07
5.1781307e-07
5.4843665e-07
5.8061989e-07
6.1442381e-07
6.4987322e-07
6.8708221e-07
7.2617219e-07
7.6707318e-07
8.1001184e-07
8.5509737e-07
9.0229515e-07
9.5183925e-07
1.0038412e-06
1.0583748e-06
1.1156479e-06
1.175794e-06
1.2390429e-06
1.3056155e-06
1.3756896e-06
1.4495952e-06
1.5275501e-06
1.609968e-06
1.6973928e-06
1.7903148e-06
1.8892099e-06
1.9946199e-06
2.1072773e-06
2.2278129e-06
2.3570152e-06
2.4957073e-06
2.6447122e-06
2.8050774e-06
2.9777461e-06
3.1635939e-06
3.3638173e-06
3.5795792e-06
3.8119707e-06
4.0623549e-06
4.3318748e-06
4.6219648e-06
4.9341866e-06
5.2699587e-06
5.6307636e-06
6.0184071e-06
6.434516e-06
6.8806298e-06
7.3584851e-06
7.8701404e-06
8.4161568e-06
9.0007307e-06
9.6184493e-06
3.2009567e-08
3.3821989e-08
3.4995755e-08
3.5074803e-08
3.5767442e-08
3.6846848e-08
3.7950788e-08
3.9162923e-08
4.054847e-08
4.2091514e-08
4.3787892e-08
4.5649916e-08
4.7684952e-08
4.9900431e-08
5.2305029e-08