/*--------------------------------*- C++ -*----------------------------------*\
| =========                 |                                                 |
| \\      /  F ield         | OpenFOAM: The Open Source CFD Toolbox           |
|  \\    /   O peration     | Version:  2406                                  |
|   \\  /    A nd           | Website:  www.openfoam.com                      |
|    \\/     M anipulation  |                                                 |
\*---------------------------------------------------------------------------*/
FoamFile
{
    version     2.0;
    format      ascii;
    arch        "LSB;label=32;scalar=64";
    class       volScalarField;
    location    "1500";
    object      rho;
}
// * * * * * * * * * * * * * * * * * * * * * * * * * * * * * * * * * * * * * //

dimensions      [1 -3 0 0 0 0 0];

internalField   nonuniform List<scalar> 
132739
(
1.002028
1.0020357
1.0020478
1.0020601
1.0020756
1.0020945
1.0021162
1.0021406
1.0021677
1.0021974
1.0022297
1.0022646
1.0023019
1.0023417
1.002384
1.0024286
1.0024755
1.0025248
1.0025764
1.0026303
1.0026864
1.0027448
1.0028054
1.0028681
1.002933
1.0030001
1.0030692
1.0031403
1.0032135
1.0032886
1.0033656
1.0034445
1.0035251
1.0036075
1.0036916
1.0037773
1.0038644
1.003953
1.004043
1.0041342
1.0042266
1.00432
1.0044144
1.0045096
1.0046055
1.004702
1.0047991
1.0048965
1.0049942
1.005092
1.0051898
1.0052876
1.005385
1.0054818
1.005578
1.005674
1.005768
1.0058613
1.0059537
1.006044
1.0061316
1.0062198
1.0063058
1.0063899
1.0064717
1.0065512
1.0066281
1.0067023
1.0067735
1.0068415
1.0069061
1.0069669
1.0070236
1.007076
1.0071235
1.0071659
1.0072026
1.0072333
1.0072571
1.0072739
1.0072824
1.0072838
1.007276
1.0072576
1.007228
1.0071863
1.0071319
1.0070639
1.0069816
1.0068841
1.0067706
1.0066403
1.0064924
1.006326
1.0061406
1.0059354
1.0057098
1.005463
1.0051952
1.0049047
1.0045945
1.0042593
1.0039144
1.0035451
1.0020285
1.0020366
1.0020488
1.002061
1.0020765
1.0020955
1.0021171
1.0021414
1.0021685
1.0021982
1.0022305
1.0022653
1.0023026
1.0023423
1.0023844
1.002429
1.0024758
1.002525
1.0025766
1.0026303
1.0026863
1.0027446
1.002805
1.0028677
1.0029324
1.0029993
1.0030682
1.0031392
1.0032122
1.0032871
1.003364
1.0034426
1.0035231
1.0036053
1.0036891
1.0037745
1.0038614
1.0039498
1.0040395
1.0041304
1.0042224
1.0043155
1.0044095
1.0045043
1.0045998
1.0046959
1.0047924
1.0048893
1.0049864
1.0050835
1.0051806
1.0052776
1.0053742
1.0054699
1.0055654
1.0056595
1.0057528
1.0058445
1.0059359
1.0060254
1.0061126
1.006199
1.0062828
1.0063644
1.0064438
1.0065209
1.0065953
1.0066668
1.0067351
1.0068001
1.0068614
1.0069188
1.006972
1.0070207
1.0070645
1.0071031
1.0071362
1.0071634
1.0071843
1.0071984
1.0072054
1.0072059
1.0071978
1.0071802
1.0071525
1.0071141
1.0070642
1.0070021
1.006927
1.0068382
1.0067348
1.0066162
1.0064816
1.0063302
1.0061616
1.0059751
1.0057705
1.005547
1.0053045
1.005042
1.0047598
1.0044551
1.0041259
1.003775
1.0020289
1.0020374
1.0020498
1.0020619
1.0020774
1.0020964
1.0021181
1.0021425
1.0021696
1.0021993
1.0022316
1.0022665
1.0023038
1.0023436
1.0023858
1.0024304
1.0024773
1.0025266
1.0025782
1.002632
1.0026881
1.0027465
1.002807
1.0028697
1.0029346
1.0030016
1.0030706
1.0031417
1.0032148
1.0032899
1.0033668
1.0034456
1.0035262
1.0036085
1.0036925
1.003778
1.003865
1.0039535
1.0040433
1.0041343
1.0042265
1.0043196
1.0044137
1.0045086
1.0046041
1.0047002
1.0047966
1.0048933
1.0049901
1.0050869
1.0051836
1.00528
1.0053759
1.0054712
1.0055658
1.0056595
1.0057522
1.0058433
1.0059336
1.0060222
1.0061085
1.0061933
1.0062758
1.0063554
1.0064328
1.0065078
1.0065798
1.0066488
1.0067144
1.0067764
1.0068346
1.0068886
1.0069383
1.0069832
1.0070231
1.0070575
1.007086
1.0071082
1.0071238
1.007132
1.0071343
1.0071286
1.0071137
1.0070894
1.0070549
1.0070099
1.0069538
1.006886
1.0068057
1.0067122
1.0066049
1.0064831
1.0063459
1.0061927
1.0060228
1.0058355
1.0056306
1.0054074
1.0051658
1.0049056
1.0046259
1.0043299
1.0040078
1.0036899
1.0020292
1.0020382
1.0020507
1.0020627
1.0020782
1.0020973
1.0021189
1.0021433
1.0021704
1.0022001
1.0022324
1.0022672
1.0023046
1.0023443
1.0023865
1.0024311
1.002478
1.0025272
1.0025787
1.0026326
1.0026886
1.0027469
1.0028074
1.0028701
1.0029349
1.0030018
1.0030708
1.0031418
1.0032149
1.0032898
1.0033667
1.0034454
1.0035259
1.0036082
1.003692
1.0037775
1.0038644
1.0039527
1.0040424
1.0041332
1.0042252
1.0043182
1.0044121
1.0045067
1.004602
1.0046978
1.0047939
1.0048903
1.0049867
1.0050832
1.0051794
1.0052752
1.0053703
1.0054649
1.0055585
1.0056515
1.0057431
1.0058332
1.0059224
1.0060098
1.0060946
1.0061781
1.006259
1.0063369
1.0064124
1.0064853
1.0065551
1.0066216
1.0066847
1.0067439
1.0067992
1.0068503
1.0068967
1.0069383
1.0069746
1.0070055
1.0070304
1.0070494
1.0070613
1.0070669
1.0070664
1.0070577
1.00704
1.0070123
1.0069746
1.0069262
1.0068666
1.0067955
1.006712
1.0066158
1.0065061
1.0063823
1.0062439
1.0060902
1.0059204
1.0057342
1.0055308
1.00531
1.0050713
1.0048148
1.0045392
1.0042473
1.0039329
1.0036045
1.0020295
1.0020389
1.0020515
1.0020635
1.002079
1.0020981
1.0021197
1.0021441
1.0021712
1.0022009
1.0022333
1.0022681
1.0023054
1.0023452
1.0023874
1.002432
1.0024789
1.0025282
1.0025797
1.0026336
1.0026897
1.002748
1.0028085
1.0028712
1.002936
1.003003
1.003072
1.0031431
1.0032161
1.0032911
1.003368
1.0034468
1.0035273
1.0036096
1.0036934
1.0037789
1.0038658
1.0039542
1.0040438
1.0041347
1.0042266
1.0043196
1.0044134
1.0045079
1.0046031
1.0046987
1.0047947
1.0048909
1.0049871
1.0050832
1.0051791
1.0052745
1.0053693
1.0054634
1.0055566
1.0056489
1.0057399
1.0058293
1.0059174
1.0060037
1.0060875
1.0061696
1.006249
1.0063256
1.0063994
1.0064705
1.0065383
1.0066028
1.0066636
1.0067205
1.0067732
1.0068216
1.0068652
1.0069038
1.0069371
1.0069647
1.0069862
1.0070014
1.0070096
1.0070124
1.0070076
1.0069941
1.0069721
1.0069408
1.0068995
1.0068479
1.0067854
1.0067116
1.0066258
1.0065276
1.0064165
1.0062918
1.0061532
1.006
1.0058317
1.0056479
1.0054479
1.0052314
1.0049979
1.0047473
1.0044787
1.0041931
1.0038891
1.0035631
1.0020297
1.0020396
1.0020523
1.0020642
1.0020798
1.0020988
1.0021205
1.0021448
1.0021719
1.0022017
1.002234
1.0022688
1.0023061
1.0023459
1.0023881
1.0024327
1.0024796
1.0025288
1.0025804
1.0026342
1.0026903
1.0027486
1.0028091
1.0028717
1.0029365
1.0030035
1.0030724
1.0031435
1.0032165
1.0032915
1.0033683
1.003447
1.0035275
1.0036097
1.0036935
1.0037789
1.0038658
1.003954
1.0040436
1.0041343
1.0042262
1.004319
1.0044127
1.004507
1.004602
1.0046975
1.0047932
1.0048891
1.0049851
1.0050808
1.0051763
1.0052714
1.0053657
1.0054592
1.0055518
1.0056433
1.0057335
1.0058221
1.0059092
1.0059944
1.0060772
1.0061579
1.006236
1.0063111
1.0063834
1.0064527
1.0065187
1.0065811
1.0066397
1.0066944
1.0067447
1.0067905
1.0068314
1.0068672
1.0068975
1.006922
1.0069406
1.0069523
1.006958
1.0069579
1.0069497
1.0069332
1.0069078
1.0068733
1.0068291
1.0067749
1.0067099
1.0066338
1.006546
1.006446
1.0063332
1.0062074
1.0060679
1.0059144
1.0057464
1.0055636
1.0053655
1.0051518
1.0049221
1.0046761
1.0044133
1.0041338
1.0038378
1.0035223
1.0020298
1.0020403
1.0020531
1.0020649
1.0020804
1.0020995
1.0021212
1.0021455
1.0021726
1.0022024
1.0022347
1.0022695
1.0023068
1.0023466
1.0023888
1.0024334
1.0024803
1.0025296
1.0025811
1.0026349
1.002691
1.0027493
1.0028098
1.0028724
1.0029372
1.0030042
1.0030731
1.0031442
1.0032172
1.0032921
1.003369
1.0034477
1.0035281
1.0036103
1.0036941
1.0037795
1.0038663
1.0039545
1.004044
1.0041347
1.0042265
1.0043192
1.0044127
1.004507
1.0046019
1.0046971
1.0047927
1.0048884
1.0049841
1.0050796
1.0051748
1.0052694
1.0053633
1.0054564
1.0055485
1.0056394
1.0057289
1.0058168
1.005903
1.0059873
1.0060692
1.0061487
1.0062257
1.0062996
1.0063705
1.0064382
1.0065026
1.0065633
1.00662
1.0066726
1.0067209
1.0067644
1.006803
1.0068364
1.0068642
1.006886
1.0069019
1.0069109
1.006915
1.0069121
1.0069015
1.006882
1.0068532
1.0068154
1.006768
1.0067106
1.0066428
1.0065641
1.0064742
1.0063724
1.0062585
1.0061317
1.0059919
1.0058384
1.005671
1.0054892
1.0052929
1.0050817
1.0048553
1.0046135
1.004356
1.0040828
1.0037932
1.0034874
1.0020299
1.002041
1.0020538
1.0020655
1.0020811
1.0021002
1.0021218
1.0021462
1.0021733
1.002203
1.0022353
1.0022701
1.0023075
1.0023472
1.0023894
1.002434
1.0024809
1.0025301
1.0025816
1.0026354
1.0026915
1.0027498
1.0028103
1.0028729
1.0029377
1.0030046
1.0030735
1.0031445
1.0032175
1.0032924
1.0033692
1.0034479
1.0035283
1.0036104
1.0036942
1.0037795
1.0038662
1.0039544
1.0040438
1.0041344
1.0042261
1.0043187
1.0044121
1.0045062
1.0046009
1.004696
1.0047914
1.0048869
1.0049823
1.0050775
1.0051723
1.0052666
1.0053602
1.0054528
1.0055443
1.0056347
1.0057235
1.0058107
1.0058961
1.0059794
1.0060604
1.0061388
1.0062146
1.0062873
1.0063569
1.0064232
1.006486
1.006545
1.0066001
1.0066508
1.006697
1.0067385
1.0067749
1.0068059
1.0068313
1.0068507
1.0068639
1.0068706
1.0068726
1.0068668
1.0068532
1.0068318
1.006801
1.0067612
1.0067118
1.0066524
1.0065825
1.0065018
1.0064099
1.0063065
1.0061912
1.0060635
1.0059232
1.0057697
1.0056029
1.0054222
1.0052275
1.0050186
1.0047951
1.0045571
1.0043041
1.0040366
1.0037529
1.0034562
1.0020299
1.0020416
1.0020544
1.0020661
1.0020817
1.0021008
1.0021224
1.0021468
1.0021739
1.0022036
1.0022359
1.0022707
1.002308
1.0023478
1.00239
1.0024345
1.0024814
1.0025306
1.0025821
1.0026359
1.002692
1.0027502
1.0028107
1.0028733
1.0029381
1.003005
1.0030739
1.0031449
1.0032178
1.0032927
1.0033695
1.0034481
1.0035285
1.0036106
1.0036943
1.0037795
1.0038662
1.0039543
1.0040437
1.0041342
1.0042257
1.0043183
1.0044116
1.0045056
1.0046001
1.0046951
1.0047902
1.0048855
1.0049807
1.0050756
1.0051702
1.0052641
1.0053573
1.0054495
1.0055405
1.0056303
1.0057186
1.0058052
1.0058898
1.0059724
1.0060525
1.0061301
1.0062048
1.0062765
1.0063449
1.00641
1.0064714
1.006529
1.0065824
1.0066315
1.006676
1.0067156
1.0067501
1.0067791
1.0068023
1.0068198
1.0068304
1.0068356
1.0068352
1.006827
1.0068104
1.0067857
1.0067527
1.0067108
1.0066595
1.0065984
1.0065271
1.0064451
1.006352
1.0062475
1.0061312
1.0060028
1.005862
1.0057085
1.005542
1.0053623
1.0051691
1.0049622
1.0047413
1.0045066
1.0042575
1.003995
1.0037164
1.0034277
1.0020299
1.0020422
1.002055
1.0020666
1.0020822
1.0021013
1.002123
1.0021473
1.0021744
1.0022041
1.0022364
1.0022712
1.0023085
1.0023483
1.0023904
1.002435
1.0024818
1.0025311
1.0025826
1.0026363
1.0026924
1.0027506
1.0028111
1.0028737
1.0029384
1.0030052
1.0030742
1.0031451
1.003218
1.0032929
1.0033696
1.0034482
1.0035285
1.0036105
1.0036942
1.0037793
1.003866
1.003954
1.0040433
1.0041337
1.0042252
1.0043176
1.0044107
1.0045046
1.004599
1.0046938
1.0047888
1.0048838
1.0049788
1.0050735
1.0051677
1.0052613
1.0053541
1.0054459
1.0055366
1.0056258
1.0057136
1.0057995
1.0058834
1.0059652
1.0060445
1.0061212
1.006195
1.0062657
1.006333
1.0063969
1.006457
1.0065132
1.0065653
1.0066128
1.0066557
1.0066936
1.0067262
1.0067534
1.0067746
1.0067901
1.0067988
1.0068031
1.0068007
1.0067902
1.0067717
1.0067451
1.0067096
1.0066657
1.0066123
1.0065494
1.0064765
1.0063931
1.0062991
1.0061938
1.006077
1.0059483
1.0058074
1.0056541
1.0054881
1.0053094
1.0051175
1.0049125
1.0046941
1.0044624
1.0042168
1.0039586
1.0036845
1.0034025
1.0020299
1.0020427
1.0020556
1.0020671
1.0020827
1.0021018
1.0021235
1.0021478
1.0021749
1.0022046
1.0022369
1.0022717
1.002309
1.0023487
1.0023909
1.0024354
1.0024822
1.0025314
1.0025829
1.0026367
1.0026927
1.0027509
1.0028113
1.0028739
1.0029386
1.0030054
1.0030743
1.0031452
1.0032181
1.0032929
1.0033696
1.0034481
1.0035284
1.0036103
1.0036939
1.0037791
1.0038656
1.0039536
1.0040427
1.0041331
1.0042245
1.0043167
1.0044098
1.0045035
1.0045978
1.0046924
1.0047872
1.004882
1.0049767
1.0050712
1.0051651
1.0052584
1.0053509
1.0054423
1.0055325
1.0056214
1.0057086
1.005794
1.0058773
1.0059585
1.0060371
1.006113
1.006186
1.0062557
1.0063221
1.0063849
1.0064439
1.0064989
1.0065496
1.0065958
1.0066372
1.0066736
1.0067047
1.0067302
1.0067497
1.0067633
1.0067704
1.006773
1.0067684
1.006756
1.0067357
1.0067074
1.0066703
1.0066245
1.0065694
1.006505
1.0064307
1.0063462
1.0062511
1.0061451
1.0060279
1.005899
1.0057583
1.0056055
1.0054403
1.0052625
1.0050721
1.0048689
1.0046528
1.0044239
1.0041815
1.0039273
1.0036573
1.0033811
1.0020299
1.0020432
1.0020561
1.0020675
1.0020832
1.0021023
1.0021239
1.0021483
1.0021753
1.002205
1.0022373
1.0022721
1.0023094
1.0023491
1.0023912
1.0024357
1.0024826
1.0025318
1.0025832
1.002637
1.0026929
1.0027511
1.0028115
1.0028741
1.0029387
1.0030055
1.0030744
1.0031452
1.0032181
1.0032928
1.0033695
1.0034479
1.0035281
1.00361
1.0036936
1.0037786
1.0038651
1.003953
1.0040421
1.0041323
1.0042236
1.0043157
1.0044087
1.0045023
1.0045964
1.0046908
1.0047854
1.0048801
1.0049746
1.0050688
1.0051625
1.0052555
1.0053477
1.0054388
1.0055286
1.005617
1.0057037
1.0057886
1.0058713
1.0059519
1.0060298
1.0061049
1.0061771
1.006246
1.0063115
1.0063733
1.0064313
1.0064852
1.0065347
1.0065796
1.0066197
1.0066547
1.0066843
1.0067083
1.0067263
1.0067381
1.0067437
1.0067449
1.0067385
1.0067241
1.006702
1.0066719
1.0066332
1.0065859
1.0065295
1.0064637
1.0063883
1.0063028
1.0062069
1.0061004
1.0059829
1.0058541
1.0057137
1.0055615
1.0053973
1.0052208
1.0050319
1.0048306
1.0046168
1.0043906
1.0041513
1.0039008
1.0036346
1.0033634
1.0020299
1.0020436
1.0020565
1.002068
1.0020836
1.0021027
1.0021244
1.0021487
1.0021757
1.0022054
1.0022377
1.0022725
1.0023097
1.0023494
1.0023916
1.002436
1.0024829
1.002532
1.0025835
1.0026372
1.0026931
1.0027513
1.0028117
1.0028742
1.0029388
1.0030055
1.0030743
1.0031452
1.0032179
1.0032927
1.0033693
1.0034477
1.0035278
1.0036097
1.0036931
1.0037781
1.0038645
1.0039523
1.0040413
1.0041314
1.0042226
1.0043146
1.0044075
1.0045009
1.0045948
1.0046891
1.0047836
1.004878
1.0049723
1.0050663
1.0051597
1.0052525
1.0053443
1.005435
1.0055245
1.0056125
1.0056988
1.0057832
1.0058655
1.0059454
1.0060228
1.0060973
1.0061687
1.0062369
1.0063016
1.0063625
1.0064195
1.0064724
1.0065208
1.0065646
1.0066035
1.0066372
1.0066656
1.0066881
1.006705
1.0067149
1.00672
1.006719
1.0067108
1.0066954
1.006672
1.0066402
1.0066003
1.0065516
1.006494
1.006427
1.0063504
1.0062639
1.0061672
1.0060601
1.0059422
1.0058133
1.0056731
1.0055215
1.0053582
1.005183
1.0049958
1.0047966
1.004585
1.0043616
1.0041254
1.0038784
1.003616
1.0033494
1.0020298
1.0020441
1.002057
1.0020684
1.0020841
1.0021032
1.0021248
1.0021491
1.0021761
1.0022058
1.0022381
1.0022728
1.0023101
1.0023498
1.0023919
1.0024363
1.0024831
1.0025323
1.0025837
1.0026374
1.0026933
1.0027514
1.0028117
1.0028742
1.0029388
1.0030055
1.0030743
1.003145
1.0032178
1.0032924
1.003369
1.0034473
1.0035274
1.0036092
1.0036926
1.0037775
1.0038638
1.0039515
1.0040404
1.0041304
1.0042215
1.0043134
1.0044061
1.0044994
1.0045932
1.0046873
1.0047816
1.0048759
1.00497
1.0050637
1.0051569
1.0052494
1.005341
1.0054314
1.0055206
1.0056082
1.0056941
1.0057781
1.0058599
1.0059393
1.006016
1.0060899
1.0061607
1.0062282
1.0062921
1.0063522
1.0064084
1.0064603
1.0065078
1.0065505
1.0065883
1.0066209
1.006648
1.0066693
1.0066849
1.0066937
1.0066981
1.0066965
1.0066871
1.0066698
1.0066448
1.0066118
1.0065703
1.0065204
1.0064615
1.0063935
1.0063161
1.0062288
1.0061315
1.0060239
1.0059057
1.0057767
1.0056367
1.0054855
1.0053229
1.0051489
1.0049633
1.0047659
1.0045567
1.004336
1.0041028
1.0038594
1.0036006
1.0033385
1.0020297
1.0020445
1.0020574
1.0020687
1.0020844
1.0021035
1.0021251
1.0021494
1.0021765
1.0022062
1.0022384
1.0022731
1.0023104
1.0023501
1.0023921
1.0024366
1.0024834
1.0025325
1.0025838
1.0026375
1.0026934
1.0027515
1.0028118
1.0028742
1.0029388
1.0030054
1.0030741
1.0031448
1.0032175
1.0032921
1.0033686
1.0034469
1.0035269
1.0036086
1.0036919
1.0037767
1.003863
1.0039506
1.0040394
1.0041293
1.0042202
1.0043121
1.0044046
1.0044978
1.0045915
1.0046854
1.0047795
1.0048736
1.0049675
1.005061
1.005154
1.0052462
1.0053375
1.0054277
1.0055165
1.0056038
1.0056893
1.0057728
1.0058542
1.0059331
1.0060093
1.0060826
1.0061528
1.0062196
1.0062828
1.0063422
1.0063976
1.0064486
1.0064952
1.0065371
1.0065739
1.0066054
1.0066316
1.0066517
1.0066662
1.0066739
1.0066776
1.0066749
1.0066641
1.0066458
1.0066195
1.0065853
1.0065428
1.0064918
1.0064319
1.0063629
1.0062845
1.0061966
1.0060988
1.005991
1.0058727
1.0057438
1.0056041
1.0054534
1.0052916
1.0051186
1.0049343
1.0047388
1.0045317
1.0043134
1.0040831
1.003843
1.0035878
1.0033298
1.0020296
1.0020449
1.0020578
1.0020691
1.0020848
1.0021039
1.0021255
1.0021498
1.0021768
1.0022065
1.0022387
1.0022734
1.0023107
1.0023503
1.0023924
1.0024368
1.0024835
1.0025326
1.002584
1.0026376
1.0026935
1.0027515
1.0028118
1.0028742
1.0029387
1.0030053
1.0030739
1.0031446
1.0032172
1.0032918
1.0033682
1.0034464
1.0035264
1.003608
1.0036912
1.0037759
1.0038621
1.0039496
1.0040383
1.0041281
1.0042189
1.0043106
1.0044031
1.0044961
1.0045896
1.0046834
1.0047773
1.0048712
1.0049649
1.0050583
1.005151
1.005243
1.005334
1.0054239
1.0055124
1.0055994
1.0056845
1.0057677
1.0058486
1.0059271
1.0060028
1.0060756
1.0061453
1.0062115
1.0062741
1.0063328
1.0063874
1.0064378
1.0064835
1.0065245
1.0065604
1.006591
1.0066162
1.0066353
1.0066488
1.0066556
1.0066583
1.006654
1.0066426
1.0066233
1.0065964
1.0065615
1.006518
1.0064662
1.0064055
1.0063358
1.0062568
1.0061683
1.00607
1.0059617
1.0058433
1.0057145
1.0055751
1.005425
1.005264
1.005092
1.0049091
1.0047151
1.0045099
1.0042939
1.0040662
1.0038291
1.0035773
1.0033237
1.0020295
1.0020453
1.0020582
1.0020694
1.0020852
1.0021043
1.0021258
1.0021501
1.0021771
1.0022068
1.002239
1.0022737
1.0023109
1.0023505
1.0023926
1.002437
1.0024837
1.0025328
1.0025841
1.0026377
1.0026935
1.0027515
1.0028117
1.0028741
1.0029386
1.0030051
1.0030737
1.0031443
1.0032169
1.0032914
1.0033677
1.0034459
1.0035257
1.0036073
1.0036904
1.0037751
1.0038611
1.0039485
1.0040371
1.0041268
1.0042175
1.0043091
1.0044014
1.0044943
1.0045876
1.0046813
1.004775
1.0048688
1.0049623
1.0050554
1.0051479
1.0052397
1.0053305
1.0054201
1.0055083
1.0055949
1.0056797
1.0057625
1.005843
1.0059211
1.0059964
1.0060687
1.0061378
1.0062035
1.0062655
1.0063236
1.0063776
1.0064272
1.0064722
1.0065124
1.0065476
1.0065773
1.0066016
1.0066199
1.0066325
1.0066383
1.0066401
1.0066347
1.0066218
1.0066017
1.0065738
1.0065379
1.006494
1.0064415
1.0063804
1.0063103
1.006231
1.0061423
1.0060438
1.0059356
1.0058173
1.0056887
1.0055497
1.0054002
1.0052399
1.005069
1.0048872
1.0046948
1.0044913
1.0042774
1.0040521
1.0038179
1.0035696
1.0033195
1.0020294
1.0020457
1.0020586
1.0020697
1.0020855
1.0021046
1.0021261
1.0021504
1.0021774
1.0022071
1.0022393
1.002274
1.0023111
1.0023508
1.0023928
1.0024371
1.0024839
1.0025329
1.0025842
1.0026377
1.0026935
1.0027515
1.0028117
1.002874
1.0029384
1.0030049
1.0030734
1.003144
1.0032165
1.0032909
1.0033672
1.0034453
1.0035251
1.0036065
1.0036896
1.0037741
1.0038601
1.0039474
1.0040358
1.0041254
1.004216
1.0043075
1.0043996
1.0044924
1.0045856
1.0046791
1.0047727
1.0048662
1.0049595
1.0050524
1.0051448
1.0052363
1.0053268
1.0054162
1.0055041
1.0055904
1.0056749
1.0057574
1.0058375
1.0059151
1.00599
1.0060619
1.0061305
1.0061957
1.0062571
1.0063147
1.0063681
1.0064171
1.0064614
1.0065009
1.0065353
1.0065643
1.0065878
1.0066054
1.0066169
1.0066222
1.0066229
1.0066163
1.0066026
1.0065815
1.0065529
1.0065168
1.0064723
1.0064196
1.0063581
1.0062878
1.0062083
1.0061193
1.0060207
1.0059123
1.0057941
1.0056658
1.0055273
1.0053784
1.0052191
1.0050492
1.0048686
1.0046776
1.0044758
1.0042638
1.0040408
1.0038093
1.0035635
1.0033169
1.0020292
1.0020461
1.0020589
1.00207
1.0020858
1.0021049
1.0021264
1.0021507
1.0021777
1.0022073
1.0022395
1.0022742
1.0023114
1.002351
1.0023929
1.0024373
1.002484
1.002533
1.0025842
1.0026377
1.0026935
1.0027514
1.0028116
1.0028738
1.0029382
1.0030046
1.0030731
1.0031436
1.0032161
1.0032904
1.0033666
1.0034446
1.0035243
1.0036057
1.0036886
1.0037731
1.0038589
1.0039461
1.0040345
1.004124
1.0042144
1.0043057
1.0043978
1.0044904
1.0045834
1.0046767
1.0047702
1.0048635
1.0049567
1.0050494
1.0051415
1.0052328
1.0053231
1.0054122
1.0054999
1.0055859
1.0056701
1.0057522
1.005832
1.0059093
1.0059837
1.0060552
1.0061234
1.0061881
1.006249
1.0063061
1.0063589
1.0064073
1.0064511
1.00649
1.0065237
1.0065521
1.0065747
1.0065918
1.0066022
1.0066071
1.0066071
1.0065997
1.0065851
1.0065631
1.0065336
1.0064963
1.006451
1.0063974
1.0063354
1.0062647
1.006185
1.0060961
1.0059978
1.0058898
1.0057721
1.0056444
1.0055065
1.0053584
1.0052001
1.0050314
1.0048523
1.0046629
1.004463
1.0042532
1.0040324
1.0038032
1.0035599
1.0033156
1.0020291
1.0020464
1.0020592
1.0020703
1.0020861
1.0021052
1.0021267
1.002151
1.002178
1.0022076
1.0022397
1.0022744
1.0023116
1.0023511
1.0023931
1.0024374
1.0024841
1.002533
1.0025843
1.0026377
1.0026934
1.0027514
1.0028114
1.0028736
1.0029379
1.0030043
1.0030728
1.0031432
1.0032156
1.0032898
1.003366
1.0034439
1.0035235
1.0036048
1.0036876
1.003772
1.0038577
1.0039448
1.0040331
1.0041224
1.0042127
1.0043039
1.0043958
1.0044883
1.0045811
1.0046743
1.0047676
1.0048607
1.0049537
1.0050462
1.0051381
1.0052292
1.0053193
1.0054081
1.0054955
1.0055813
1.0056652
1.005747
1.0058265
1.0059034
1.0059775
1.0060485
1.0061163
1.0061806
1.0062411
1.0062977
1.00635
1.0063979
1.0064411
1.0064794
1.0065126
1.0065404
1.0065623
1.0065789
1.0065884
1.0065931
1.0065925
1.0065847
1.0065694
1.006547
1.0065169
1.006479
1.0064329
1.0063786
1.0063158
1.0062445
1.0061645
1.0060753
1.005977
1.0058693
1.0057519
1.0056246
1.0054875
1.0053402
1.0051828
1.0050152
1.0048373
1.0046493
1.004451
1.0042429
1.0040244
1.0037977
1.0035574
1.0033166
1.0020289
1.0020467
1.0020595
1.0020706
1.0020864
1.0021055
1.002127
1.0021512
1.0021782
1.0022078
1.00224
1.0022746
1.0023117
1.0023513
1.0023932
1.0024375
1.0024841
1.0025331
1.0025843
1.0026377
1.0026934
1.0027512
1.0028113
1.0028734
1.0029377
1.003004
1.0030724
1.0031427
1.003215
1.0032892
1.0033653
1.0034431
1.0035226
1.0036038
1.0036866
1.0037708
1.0038565
1.0039434
1.0040315
1.0041208
1.0042109
1.004302
1.0043937
1.004486
1.0045788
1.0046718
1.0047648
1.0048579
1.0049506
1.0050429
1.0051346
1.0052255
1.0053153
1.0054039
1.0054911
1.0055766
1.0056602
1.0057417
1.0058208
1.0058974
1.0059712
1.0060419
1.0061093
1.0061731
1.0062332
1.0062893
1.0063412
1.0063886
1.0064313
1.0064691
1.0065017
1.006529
1.0065503
1.0065665
1.0065752
1.0065797
1.0065786
1.00657
1.0065545
1.0065316
1.0065009
1.0064625
1.0064161
1.0063616
1.0062986
1.006227
1.0061466
1.0060573
1.0059589
1.0058511
1.0057338
1.005607
1.0054704
1.0053239
1.0051674
1.0050009
1.0048244
1.0046379
1.0044414
1.0042352
1.0040184
1.0037935
1.0035552
1.0033165
1.0020287
1.0020471
1.0020598
1.0020708
1.0020867
1.0021057
1.0021272
1.0021515
1.0021785
1.002208
1.0022402
1.0022748
1.0023119
1.0023514
1.0023933
1.0024376
1.0024842
1.0025331
1.0025843
1.0026377
1.0026933
1.0027511
1.0028111
1.0028732
1.0029374
1.0030036
1.0030719
1.0031422
1.0032144
1.0032886
1.0033645
1.0034423
1.0035217
1.0036028
1.0036854
1.0037696
1.0038551
1.0039419
1.0040299
1.004119
1.0042091
1.0043
1.0043915
1.0044837
1.0045763
1.0046691
1.004762
1.0048548
1.0049474
1.0050395
1.005131
1.0052217
1.0053113
1.0053996
1.0054865
1.0055718
1.0056551
1.0057363
1.0058151
1.0058914
1.0059648
1.0060351
1.0061022
1.0061656
1.0062253
1.006281
1.0063325
1.0063794
1.0064217
1.006459
1.0064911
1.0065179
1.0065387
1.0065543
1.0065627
1.0065667
1.0065649
1.0065558
1.0065396
1.0065162
1.0064855
1.0064473
1.0064011
1.0063468
1.006284
1.0062125
1.0061318
1.0060421
1.0059433
1.0058353
1.0057179
1.0055911
1.0054549
1.0053091
1.0051535
1.0049882
1.004813
1.0046279
1.0044329
1.0042284
1.0040136
1.003791
1.0035554
1.0033194
1.0020285
1.0020474
1.00206
1.0020711
1.0020869
1.002106
1.0021275
1.0021517
1.0021787
1.0022082
1.0022403
1.002275
1.002312
1.0023516
1.0023934
1.0024377
1.0024842
1.0025331
1.0025842
1.0026376
1.0026932
1.0027509
1.0028108
1.0028729
1.002937
1.0030032
1.0030715
1.0031417
1.0032138
1.0032878
1.0033637
1.0034413
1.0035207
1.0036017
1.0036842
1.0037682
1.0038536
1.0039403
1.0040282
1.0041172
1.0042071
1.0042978
1.0043893
1.0044813
1.0045737
1.0046663
1.004759
1.0048517
1.0049441
1.005036
1.0051273
1.0052177
1.0053071
1.0053952
1.0054819
1.0055668
1.0056499
1.0057308
1.0058093
1.0058853
1.0059584
1.0060284
1.0060951
1.0061582
1.0062175
1.0062728
1.0063238
1.0063704
1.0064122
1.0064491
1.0064807
1.0065071
1.0065274
1.0065426
1.0065505
1.0065542
1.0065518
1.0065422
1.0065255
1.0065016
1.0064703
1.0064313
1.0063847
1.0063299
1.0062668
1.0061951
1.0061148
1.0060256
1.0059273
1.0058197
1.0057028
1.0055765
1.0054408
1.0052955
1.0051407
1.0049763
1.0048021
1.0046184
1.004425
1.0042222
1.0040093
1.0037886
1.003555
1.0033215
1.0020284
1.0020477
1.0020603
1.0020713
1.0020872
1.0021062
1.0021277
1.0021519
1.0021789
1.0022084
1.0022405
1.0022751
1.0023122
1.0023517
1.0023935
1.0024377
1.0024843
1.0025331
1.0025842
1.0026375
1.002693
1.0027507
1.0028106
1.0028726
1.0029366
1.0030028
1.0030709
1.0031411
1.0032131
1.0032871
1.0033628
1.0034404
1.0035196
1.0036005
1.0036829
1.0037668
1.0038521
1.0039386
1.0040264
1.0041152
1.004205
1.0042955
1.0043868
1.0044787
1.0045709
1.0046634
1.0047559
1.0048484
1.0049406
1.0050323
1.0051234
1.0052136
1.0053027
1.0053906
1.005477
1.0055617
1.0056445
1.0057252
1.0058034
1.0058791
1.0059518
1.0060215
1.0060879
1.0061506
1.0062096
1.0062645
1.0063152
1.0063614
1.0064028
1.0064393
1.0064705
1.0064965
1.0065164
1.0065312
1.0065387
1.0065423
1.0065397
1.0065298
1.0065126
1.0064881
1.0064562
1.0064167
1.0063693
1.006314
1.0062505
1.0061787
1.0060984
1.0060093
1.0059113
1.0058042
1.0056879
1.0055622
1.0054273
1.0052828
1.0051289
1.0049654
1.0047923
1.0046098
1.0044176
1.0042164
1.0040052
1.0037865
1.0035549
1.0033234
1.0020282
1.0020479
1.0020605
1.0020715
1.0020874
1.0021064
1.0021279
1.0021521
1.0021791
1.0022086
1.0022407
1.0022753
1.0023123
1.0023518
1.0023936
1.0024378
1.0024843
1.002533
1.0025841
1.0026373
1.0026928
1.0027505
1.0028103
1.0028722
1.0029362
1.0030023
1.0030703
1.0031404
1.0032124
1.0032862
1.0033619
1.0034393
1.0035184
1.0035992
1.0036815
1.0037652
1.0038504
1.0039368
1.0040244
1.0041131
1.0042027
1.0042931
1.0043843
1.0044759
1.004568
1.0046603
1.0047527
1.0048449
1.0049369
1.0050284
1.0051193
1.0052093
1.0052982
1.0053859
1.005472
1.0055565
1.005639
1.0057194
1.0057974
1.0058727
1.0059452
1.0060146
1.0060806
1.0061431
1.0062017
1.0062563
1.0063066
1.0063524
1.0063935
1.0064296
1.0064605
1.0064861
1.0065056
1.00652
1.0065272
1.0065305
1.0065275
1.0065172
1.0064998
1.0064751
1.0064429
1.0064033
1.0063559
1.0063006
1.0062371
1.0061651
1.0060847
1.0059956
1.0058977
1.0057907
1.0056746
1.0055494
1.0054149
1.0052711
1.005118
1.0049556
1.0047837
1.0046024
1.0044118
1.0042122
1.0040028
1.003786
1.0035566
1.0033271
1.002028
1.0020482
1.0020607
1.0020717
1.0020876
1.0021067
1.0021281
1.0021523
1.0021793
1.0022088
1.0022408
1.0022754
1.0023124
1.0023518
1.0023936
1.0024378
1.0024842
1.002533
1.002584
1.0026372
1.0026926
1.0027502
1.0028099
1.0028718
1.0029357
1.0030017
1.0030697
1.0031396
1.0032115
1.0032853
1.0033608
1.0034381
1.0035171
1.0035978
1.0036799
1.0037636
1.0038486
1.0039349
1.0040223
1.0041108
1.0042003
1.0042906
1.0043815
1.004473
1.0045649
1.004657
1.0047492
1.0048413
1.0049331
1.0050244
1.005115
1.0052048
1.0052935
1.0053809
1.0054669
1.0055511
1.0056333
1.0057135
1.0057912
1.0058662
1.0059384
1.0060075
1.0060733
1.0061354
1.0061937
1.006248
1.006298
1.0063435
1.0063842
1.00642
1.0064506
1.0064759
1.006495
1.0065092
1.006516
1.0065191
1.0065159
1.0065053
1.0064874
1.0064623
1.00643
1.00639
1.0063422
1.0062866
1.0062229
1.006151
1.0060706
1.0059817
1.005884
1.0057775
1.0056619
1.0055372
1.0054033
1.0052603
1.0051081
1.0049466
1.0047759
1.004596
1.0044068
1.0042088
1.0040011
1.003786
1.0035587
1.0033311
1.0020278
1.0020485
1.002061
1.0020719
1.0020879
1.0021069
1.0021283
1.0021525
1.0021794
1.0022089
1.002241
1.0022755
1.0023125
1.0023519
1.0023937
1.0024378
1.0024842
1.0025329
1.0025838
1.002637
1.0026924
1.0027499
1.0028096
1.0028713
1.0029352
1.0030011
1.003069
1.0031388
1.0032106
1.0032842
1.0033597
1.0034369
1.0035158
1.0035963
1.0036783
1.0037618
1.0038467
1.0039328
1.0040201
1.0041085
1.0041978
1.0042879
1.0043787
1.00447
1.0045617
1.0046536
1.0047456
1.0048375
1.0049291
1.0050202
1.0051106
1.0052001
1.0052886
1.0053758
1.0054615
1.0055455
1.0056275
1.0057074
1.0057848
1.0058596
1.0059316
1.0060004
1.0060658
1.0061277
1.0061858
1.0062397
1.0062895
1.0063347
1.0063751
1.0064106
1.0064408
1.0064659
1.0064847
1.0064987
1.0065051
1.006508
1.0065048
1.006494
1.006476
1.0064508
1.0064182
1.006378
1.00633
1.0062742
1.0062103
1.0061383
1.0060579
1.0059691
1.0058716
1.0057653
1.0056502
1.005526
1.0053928
1.0052504
1.005099
1.0049383
1.0047686
1.0045898
1.0044018
1.0042053
1.0039992
1.0037859
1.0035605
1.003335
1.0020276
1.0020487
1.0020612
1.0020721
1.0020881
1.0021071
1.0021285
1.0021527
1.0021796
1.0022091
1.0022411
1.0022756
1.0023126
1.002352
1.0023937
1.0024378
1.0024841
1.0025328
1.0025837
1.0026368
1.0026921
1.0027495
1.0028091
1.0028708
1.0029346
1.0030004
1.0030682
1.0031379
1.0032096
1.0032831
1.0033584
1.0034355
1.0035143
1.0035946
1.0036765
1.0037599
1.0038446
1.0039305
1.0040177
1.0041059
1.004195
1.004285
1.0043756
1.0044667
1.0045582
1.00465
1.0047418
1.0048335
1.0049248
1.0050157
1.0051059
1.0051953
1.0052835
1.0053705
1.005456
1.0055397
1.0056215
1.0057011
1.0057783
1.0058529
1.0059246
1.0059931
1.0060584
1.00612
1.0061778
1.0062315
1.006281
1.0063259
1.0063661
1.0064014
1.0064313
1.0064561
1.0064747
1.0064884
1.0064946
1.0064973
1.0064938
1.0064831
1.006465
1.0064398
1.0064069
1.0063665
1.0063184
1.0062625
1.0061986
1.0061265
1.0060461
1.0059574
1.00586
1.005754
1.0056392
1.0055155
1.0053828
1.0052411
1.0050904
1.0049306
1.0047618
1.0045841
1.0043974
1.0042022
1.0039976
1.0037859
1.0035624
1.0033387
1.0020275
1.002049
1.0020613
1.0020723
1.0020883
1.0021072
1.0021287
1.0021529
1.0021798
1.0022092
1.0022412
1.0022757
1.0023127
1.002352
1.0023937
1.0024377
1.002484
1.0025326
1.0025835
1.0026365
1.0026917
1.0027491
1.0028086
1.0028702
1.0029339
1.0029996
1.0030673
1.0031369
1.0032085