/*--------------------------------*- C++ -*----------------------------------*\
| =========                 |                                                 |
| \\      /  F ield         | OpenFOAM: The Open Source CFD Toolbox           |
|  \\    /   O peration     | Version:  2406                                  |
|   \\  /    A nd           | Website:  www.openfoam.com                      |
|    \\/     M anipulation  |                                                 |
\*---------------------------------------------------------------------------*/
FoamFile
{
    version     2.0;
    format      ascii;
    arch        "LSB;label=32;scalar=64";
    class       volScalarField;
    location    "135";
    object      T;
}
// * * * * * * * * * * * * * * * * * * * * * * * * * * * * * * * * * * * * * //

dimensions      [0 0 0 1 0 0 0];

internalField   nonuniform List<scalar> 
20580
(
1.0016851
1.0009884
1.0026936
1.0019067
1.0013426
1.0015991
1.0017916
1.0012506
1.001642
1.0013347
1.0016951
1.0014005
1.0009321
1.0015713
1.0014525
1.0009377
1.0011934
1.0021632
1.0000929
1.000626
1.0024328
1.0012286
1.0000969
1.0013052
1.0032593
1.000089
0.99844252
1.0006904
0.99883664
0.99708762
1.0033218
1.0016278
1.0008803
1.0026248
1.0020707
1.0012172
1.0016827
1.001665
1.0011368
1.0015729
1.0013632
1.0017844
1.0012292
1.0009791
1.0017813
1.001347
1.0007625
1.0019239
1.001832
0.99937352
1.0013047
1.0026714
1.0004307
1.0002029
1.0019843
1.0031661
0.99847234
0.99572976
1.000259
1.0019434
0.99798067
0.99873387
1.001833
1.0010557
1.0021006
1.0020903
1.0012079
1.001765
1.0014147
1.0013195
1.0014124
1.001405
1.0017964
1.0010601
1.0011783
1.0018091
1.0013092
1.0006751
1.0023058
1.0014486
0.99912766
1.0018753
1.0024888
0.99949838
1.0001816
1.0018561
1.0026321
0.99811806
0.99476716
0.99985978
1.0044035
0.99974212
0.99422483
1.0022077
1.0015095
1.0013765
1.0018844
1.0013698
1.001781
1.0012225
1.0016258
1.0012377
1.0015039
1.0016583
1.0010323
1.0013998
1.0016818
1.0012969
1.0007205
1.002324
1.0010299
0.99944352
1.0022167
1.0018913
0.99893893
1.0004673
1.001224
1.0015418
0.99914887
0.99584701
0.9997826
1.0055517
1.002374
0.9929624
1.0025189
1.0021383
1.0008173
1.0015196
1.001704
1.001654
1.001211
1.0018065
1.0011531
1.001662
1.0014092
1.0011238
1.0015373
1.0014753
1.0011942
1.0009502
1.0020554
1.0006288
1.0002039
1.0023426
1.000947
0.99882523
1.0012567
1.0005273
0.99984585
1.000462
0.99855953
0.99978677
1.0043286
1.00452
0.99568469
1.0025904
1.0026144
1.0007797
1.001188
1.0020269
1.0013938
1.0014093
1.0017201
1.0013072
1.0017148
1.0011539
1.0013906
1.0016086
1.0012712
1.0011763
1.0012575
1.0015918
1.0002202
1.0012074
1.0023667
1.000155
0.99904659
1.0022575
1.0003227
0.99802493
1.0010221
1.001945
0.99985207
1.0009101
1.0035395
1.0005868
1.0025536
1.0027321
1.0013132
1.0011257
1.0021676
1.0011974
1.0017228
1.0014679
1.0016349
1.0016009
1.001067
1.0016211
1.0016246
1.0011158
1.001189
1.001618
1.001156
0.99996851
1.0020357
1.0021752
0.9996082
0.99949521
1.003198
1.0007837
0.99672638
1.00052
1.0044291
1.0005858
0.99688517
0.99908579
1.0029898
1.0024239
1.0024538
1.0020513
1.0013343
1.0020661
1.0012339
1.0019301
1.0012544
1.0018859
1.0014015
1.0011973
1.0016642
1.0016044
1.0010332
1.0011945
1.0018896
1.0008985
0.99998832
1.0025279
1.0017154
0.99932003
1.0000746
1.0035459
1.0014064
0.9965069
0.99940887
1.0048408
1.0019011
0.99466274
0.99356555
1.0005082
1.0021028
1.0018647
1.0025036
1.0017103
1.0017185
1.0014775
1.0018739
1.0012531
1.0019704
1.0012627
1.0013916
1.0015704
1.0015704
1.0010904
1.0011763
1.0020204
1.0008705
1.0003235
1.0026551
1.001117
0.999594
1.0007878
1.0028298
1.0015726
0.9977306
0.99854422
1.0031283
1.0028437
0.99544429
0.99133419
0.99577157
1.0015541
1.0010143
1.0023677
1.0020719
1.0012115
1.0017615
1.0015626
1.0014747
1.0018677
1.0013005
1.0015361
1.0014817
1.0015329
1.001278
1.0012929
1.0019616
1.0009501
1.0008957
1.0024225
1.0003475
1.0001881
1.0016198
1.0014125
1.0009987
0.99987675
0.99882317
1.0005361
1.001937
0.99848354
0.99383743
0.99378638
1.0012489
1.0003653
1.0017253
1.0021647
1.0008031
1.0018923
1.0011888
1.0017182
1.0015024
1.0014141
1.001592
1.0014558
1.0013872
1.0014732
1.0014577
1.0016935
1.0009952
1.0015838
1.0020124
0.99965274
1.0007625
1.002446
0.9998859
0.9995231
1.0017022
1.0004836
0.9985292
0.99931379
1.0013826
0.99968214
0.99661007
1.0013589
1.0003299
1.0009149
1.0018874
1.0008055
1.0018082
1.0009554
1.0017872
1.0010208
1.0014694
1.0015263
1.0013678
1.0010646
1.0016017
1.0015544
1.0012424
1.0009449
1.0021356
1.0015775
0.99929358
1.001233
1.0032989
0.99882389
0.99773493
1.0023248
1.002709
0.99777855
0.99639235
1.0013636
1.0047231
1.0023225
1.0017668
1.0009748
1.0005045
1.0014265
1.0011373
1.0015287
1.0010332
1.0016311
1.0007483
1.001472
1.0014253
1.0012409
1.0008211
1.0016259
1.0015889
1.0007941
1.000819
1.002284
1.001074
0.99929245
1.0014434
1.003698
0.99858328
0.99655682
1.0019298
1.0041137
0.9982954
0.99483695
0.99864334
1.0054762
1.005977
1.0022124
1.0018989
1.0007665
1.0010805
1.0016871
1.0011834
1.001417
1.0013717
1.0008906
1.0013997
1.0014041
1.0011815
1.0008531
1.0015611
1.0015872
1.0006128
1.000771
1.0021154
1.0006252
0.99976585
1.0013786
1.0032045
0.99912398
0.99674103
1.0011397
1.0039163
0.99976485
0.99531388
0.99642186
1.0020345
1.0053936
1.0023645
1.0025131
1.0014168
1.0008211
1.0020791
1.0009067
1.0017638
1.0010908
1.0013721
1.0012977
1.0014056
1.001224
1.0010922
1.001354
1.0014563
1.0006825
1.0008725
1.0017516
1.0002674
1.0007447
1.0013202
1.0019416
0.99997748
0.99843043
1.0005349
1.0021137
1.0009669
0.9975848
0.99681462
0.99809659
1.0009929
1.0022561
1.0025928
1.0019703
1.0007204
1.001984
1.000785
1.0017606
1.0008269
1.001754
1.001179
1.0012903
1.0012346
1.0013492
1.0011562
1.001239
1.0009294
1.0011654
1.0012968
0.99996938
1.0017797
1.001366
1.0002685
1.0004482
1.00109
1.0007156
0.99972776
1.0005663
1.0009822
0.99948778
0.99699839
0.99589195
1.0021676
1.0022125
1.0022015
1.0011263
1.0015679
1.0009855
1.0014671
1.0008448
1.0018007
1.0011468
1.0011251
1.001138
1.0015463
1.0010488
1.0010189
1.0012422
1.0015261
1.0008914
0.99974596
1.0025197
1.0015543
0.99868479
1.0001116
1.0032377
1.0015006
0.99766062
0.99817746
1.002837
1.0030119
0.99835627
0.99374671
1.0019299
1.0013361
1.001986
1.0017791
1.0011053
1.0014893
1.001149
1.0012447
1.001543
1.001306
1.0010963
1.0010839
1.0017239
1.0010387
1.00089
1.0014469
1.0018144
1.0007048
0.99977692
1.0027895
1.0018627
0.99786904
0.99923614
1.0039941
1.0023698
0.99651301
0.99571404
1.0017128
1.0047723
1.0006509
0.99443611
1.0014842
1.0004337
1.0013253
1.0021364
1.0007341
1.0018938
1.0009314
1.0016776
1.001164
1.0014941
1.0011257
1.0011041
1.0017455
1.0011227
1.0008586
1.00144
1.0018847
1.0007727
1.0001005
1.0025197
1.001964
0.99816207
0.9988279
1.0033348
1.0027874
0.99685822
0.99540967
0.99934968
1.0038738
1.0021804
0.99712841
1.0013379
1.0001565
1.0007472
1.0020492
1.0006328
1.0019015
1.0008518
1.0017508
1.0008737
1.0015088
1.0010815
1.0011072
1.0015313
1.0012407
1.0009222
1.0012891
1.0016794
1.0008835
1.0007144
1.0017591
1.0016196
0.9993267
0.99929439
1.0018884
1.0020637
0.99845372
0.99724413
0.99864522
1.0009707
1.0017649
0.99963608
1.0015802
1.0007597
1.0008039
1.0016746
1.0010304
1.0016859
1.0011327
1.0016179
1.0009291
1.0013899
1.0011153
1.0012092
1.0012534
1.001277
1.0011061
1.0011402
1.0012158
1.0008631
1.001437
1.0008976
1.0006195
1.0008832
1.0005073
1.0007887
1.0001419
1.0002115
1.000168
1.0000804
0.99870421
0.99921141
1.0006236
1.0019801
1.0017119
1.0014992
1.0010209
1.0014835
1.0010129
1.0013849
1.0010501
1.0011374
1.0010761
1.0011411
1.001228
1.0007401
1.0010769
1.0011985
1.0009325
1.0005395
1.0005366
1.0020053
1.0001198
0.99931716
1.0017462
1.0018966
0.99984324
0.99785958
1.0000128
1.0028091
1.0018244
0.9973343
0.99555622
0.99894795
1.002268
1.0018514
1.0015437
0.99992827
1.0012983
1.000174
1.0010404
1.0001504
1.0010644
1.0004011
1.0009129
1.0009183
1.0000574
1.0005586
1.0010153
1.0006456
0.99972291
0.99986375
1.0022737
0.99952808
0.99817373
1.001379
1.0027547
0.99946666
0.99628974
0.99824809
1.0035024
1.0031909
0.99723213
0.99319291
0.99610383
1.001745
1.0024053
1.0009572
0.99716288
0.99347681
0.99237848
0.99437288
0.99784787
1.0004455
1.0006794
0.99859754
0.99644578
0.99668691
0.99980954
1.0039393
1.0056894
1.0019353
0.99387343
0.98826949
0.98977845
0.99650407
1.0038059
1.0078017
0.99940154
0.99903331
0.99899096
0.99943209
1.0007134
1.0020219
1.0022363
1.0009151
0.99658635
0.99126877
0.98864348
0.99104961
0.99691294
1.0026866
1.0049603
1.003038
0.99838825
0.99443817
0.99388723
0.99732226
1.0020968
1.0034113
0.99899217
0.98885284
0.99193979
0.99687149
1.0015239
1.0046182
1.0056936
1.0038868
1.0001971
0.99586945
0.99328007
0.99415103
0.99778644
1.0005428
0.99935692
0.99409708
0.98924917
0.98893921
0.99403951
1.0015186
1.0076282
1.0087248
1.0029721
0.99331958
0.99161173
0.99575533
0.99849354
0.99852389
0.99599098
0.99266731
0.99115033
0.99252268
0.9971098
1.002131
1.0057581
1.0074133
1.0053173
0.99768904
0.98768371
0.98259052
0.98536833
0.99309166
1.0012522
1.0044043
1.0016156
0.99657171
0.99280084
1.004732
1.0046281
1.0013719
0.99502405
0.98790087
0.98279963
0.98389516
0.98993692
0.99731446
1.0021344
1.003074
1.0013318
0.99797975
0.99512889
0.99329681
0.99325338
0.99680739
1.0002877
1.0004227
0.99328571
0.98342038
0.98042726
0.9858241
1.001164
1.0006279
0.9990758
0.99631967
0.99353579
0.99308805
0.99585539
0.9995733
1.0000162
0.99520785
0.98654169
0.97968276
0.98055164
0.98748079
0.99718934
1.004727
1.0091596
1.0097954
1.0034129
0.99021421
0.9771049
0.97361257
0.98021277
0.98247407
0.98530285
0.99095331
0.99810229
1.0041054
1.0072012
1.0083873
1.0070045
1.001718
0.99263775
0.98055244
0.97301001
0.97504896
0.98425957
0.99516024
1.0015471
1.0016842
0.99936574
0.99613607
0.9927347
0.98871082
0.98632842
0.99021909
0.97683505
0.98313832
0.99173477
0.99800701
0.99978452
0.99877023
0.99677934
0.99644623
0.99633716
0.99451229
0.99086266
0.98764323
0.98997984
0.9956154
0.99791812
0.99188941
0.97976189
0.97190558
0.97421397
0.98387893
0.995213
1.0020228
1.0070847
0.99385538
0.99786771
0.9990313
0.99525686
0.98610139
0.97550298
0.96942248
0.97188323
0.98075148
0.99270272
1.0020027
1.0046593
1.0059228
1.0068162
1.0024381
0.99082538
0.9721993
0.95748644
0.95844245
0.97002352
0.98756663
1.0014099
1.0075714
1.0092955
1.0072527
1.0007535
0.99084341
0.97863121
0.96657708
0.9593109
0.9626786
0.97347636
0.98808335
0.99861
1.000939
0.99954015
0.99877827
0.99808532
0.99369999
0.98181213
0.9685233
0.96580959
0.97315545
0.98497912
0.99079253
0.98754161
0.99024114
0.99342469
0.99609612
0.99428169
0.98615582
0.9757578
0.97033732
0.97519798
0.98499285
0.99265634
0.99124103
0.9785481
0.96637393
0.96700471
0.97566756
0.98771395
0.99434793
0.98986675
0.98499553
0.98837954
0.99272882
0.98883259
0.97285639
0.95766254
0.96654576
0.97865934
0.98967271
0.99588123
0.99532875
0.99220461
0.99453526
0.99674444
0.99461502
0.98332933
0.96265845
0.94346918
0.93719402
0.94617024
0.96652598
0.98912541
1.0012703
1.0015167
1.001843
1.0000491
0.99165813
0.97202117
0.93854218
0.94827855
0.96431114
0.98184141
0.99528315
1.0002195
0.99989233
1.0001847
0.9988266
0.9934166
0.97992515
0.95798425
0.93641882
0.92591353
0.93256848
0.95266067
0.97742984
0.99222832
0.99425522
0.99267187
0.99467185
0.99296467
0.98009015
0.93584859
0.94733343
0.96559893
0.98213107
0.98869559
0.98427107
0.97679112
0.97647099
0.98318928
0.98864022
0.98365393
0.96562498
0.9425288
0.92758072
0.93337243
0.95256228
0.97369749
0.98156603
0.97351465
0.96336577
0.96636675
0.97868733
0.98477592
0.9451467
0.95724892
0.97518514
0.98379907
0.97773164
0.95880198
0.94135186
0.93819306
0.95125169
0.97189558
0.9836553
0.97763068
0.95650877
0.93771615
0.94088028
0.95803685
0.97418636
0.97293967
0.95193144
0.93080933
0.93133317
0.94931021
0.97376084
0.95889034
0.96905324
0.98053103
0.97992481
0.96153241
0.9336582
0.91118133
0.90412333
0.91974817
0.94785685
0.97387826
0.9813683
0.96832806
0.94958159
0.94881929
0.96192304
0.9727617
0.96373946
0.93470414
0.90764783
0.90132722
0.92001309
0.95355474
0.96723508
0.97478024
0.98033443
0.97176536
0.94544715
0.91269209
0.8872809
0.87869553
0.89540119
0.92686199
0.95975182
0.97693227
0.97148246
0.95464577
0.94978473
0.95989002
0.96838256
0.95634707
0.92302792
0.89214559
0.8788226
0.89710572
0.93433703
0.96467701
0.9718363
0.97513306
0.96219565
0.93217209
0.89616669
0.86896965
0.85918007
0.87642012
0.90980739
0.94655838
0.96873939
0.96699407
0.95089838
0.9438502
0.95369147
0.96100297
0.94761813
0.91252817
0.87897887
0.86181562
0.8805689
0.92115587
0.95644346
0.96384713
0.96641042
0.95244357
0.92046641
0.88126801
0.85136646
0.84083738
0.85937203
0.89544149
0.934858
0.9597226
0.95941064
0.94261722
0.93393836
0.944013
0.95071139
0.93695074
0.90226037
0.86557399
0.84698136
0.86967503
0.91358006
0.94195638
0.95185554
0.95586738
0.94224426
0.90869105
0.86652819
0.83360125
0.82205416
0.84197345
0.88131472
0.92427996
0.95074841
0.94936197
0.93112311
0.92255978
0.93269078
0.93899357
0.92403417
0.88746925
0.85079361
0.83329342
0.86091216
0.90987992
0.9204275
0.9347827
0.94365129
0.93234014
0.89785815
0.85204063
0.81661302
0.80485236
0.8263786
0.86834616
0.91431671
0.93958217
0.93467215
0.9155406
0.90886846
0.91907817
0.92473154
0.90835425
0.86958182
0.83381454
0.82209052
0.85656614
0.9103982
0.88699867
0.90866353
0.92692665
0.92316549
0.88997315
0.84081917
0.80179695
0.79029563
0.81393844
0.85903185
0.90530873
0.92519369
0.91357557
0.89397639
0.89255446
0.90492366
0.90957784
0.88835087
0.84761571
0.81590967
0.81815844
0.85844497
0.91484148
0.83848584
0.86823161
0.90222111
0.91179918
0.88785364
0.83777187
0.79422128
0.78401907
0.81056498
0.85659925
0.89612867
0.90202867
0.88272582
0.86612432
0.87359786
0.88932689
0.89193605
0.86537646
0.82663656
0.80518783
0.82394287
0.87269776
0.92201762
0.77845605
0.81231808
0.86213884
0.8933138
0.88824054
0.84575107
0.80127657
0.79270491
0.81953004
0.85730691
0.87602124
0.86461529
0.84047032
0.83329454
0.85091755
0.87171175
0.87335062
0.84640413
0.81622878
0.81133049
0.84521769
0.89122421
0.91201949
0.72238417
0.75658708
0.81358645
0.86714383
0.88645243
0.86459444
0.82361236
0.81331168
0.82740727
0.84172514
0.83741356
0.81490617
0.79665077
0.80132912
0.82561506
0.85262833
0.85861279
0.84053638
0.8242945
0.83692848
0.86798607
0.88798731
0.87223574
0.69801455
0.7323855
0.79265646
0.85238775
0.87992443
0.86270872
0.82351153
0.8145047
0.81703769
0.81386785
0.79501868
0.77211657
0.76201515
0.77683586
0.80825566
0.84190515
0.85705983
0.85177191
0.84653165
0.85794317
0.86579279
0.84665766
0.81527032
0.71813703
0.75155654
0.80544267
0.84412414
0.84631713
0.81504087
0.784733
0.79205877
0.79964999
0.79406473
0.7721247
0.75440077
0.7566048
0.77969539
0.8138924
0.84292213
0.85278723
0.84984203
0.84975246
0.84960541
0.82993037
0.79733191
0.77886931
0.75587964
0.78324658
0.81172022
0.819517
0.79749867
0.7604267
0.74424246
0.76236748
0.78262704
0.79001483
0.78244206
0.77629493
0.78523195
0.80334579
0.81576877
0.81881341
0.8169609
0.82292232
0.83319832
0.82829687
0.80125759
0.78055545
0.78390191
0.75722263
0.787839
0.80808712
0.80497408
0.77283121
0.73886821
0.73119591
0.7500647
0.77600524
0.79540855
0.80406465
0.80501045
0.80476259
0.80018634
0.78824736
0.77664485
0.77794727
0.79743814
0.82047967
0.82514026
0.81053832
0.80576725
0.82452168
0.74009098
0.77336729
0.80312132
0.80684544
0.78107179
0.75378765
0.75018054
0.76209919
0.77404661
0.78302218
0.78974675
0.79673132
0.7964694
0.78430883
0.76846542
0.76125413
0.76879907
0.79292528
0.82058561
0.83597017
0.83549286
0.83488287
0.83533943
0.74475097
0.76956516
0.79470237
0.80368904
0.79058347
0.77508331
0.76940062
0.76615982
0.76083349
0.75563933
0.75791105
0.77133542
0.78455401
0.78728502
0.78153786
0.78041546
0.78721881
0.80010858
0.8125029
0.82210525
0.83177811
0.83652275
0.82123899
0.76877926
0.78394816
0.7933733
0.78686159
0.77202369
0.76468572
0.76536616
0.76244816
0.75413905
0.74777105
0.74872865
0.76179469
0.78065109
0.79773284
0.80462378
0.80268276
0.79774034
0.79119654
0.78574625
0.79122606
0.81257732
0.82910656
0.822797
0.78130573
0.79191804
0.78986276
0.77264939
0.75340393
0.74617355
0.75118553
0.75969733
0.76441583
0.76415533
0.76505245
0.76922194
0.77733029
0.78739561
0.79766084
0.80219198
0.7958625
0.7826639
0.77604209
0.78209237
0.80271669
0.82296828
0.82750488
0.77187889
0.78556538
0.78752081
0.77313803
0.75640049
0.74809426
0.74945385
0.75733472
0.76742127
0.77504082
0.77649582
0.77295895
0.76870855
0.76809094
0.77590089
0.79049154
0.79987842
0.79764636
0.79097228
0.79218774
0.79765687
0.80385264
0.80947205
0.77024688
0.77870291
0.78102623
0.77505134
0.7662757
0.75911514
0.75489473
0.75359315
0.75633382
0.76398586
0.77269966
0.77511266
0.77107409
0.76850351
0.77177164
0.78449333
0.80045301
0.80981181
0.80671329
0.79521959
0.78499685
0.78095674
0.79276204
0.77736643
0.78073266
0.77700329
0.76981547
0.76358136
0.75993065
0.75745439
0.75336287
0.75024774
0.75220706
0.76053314
0.77234927
0.78028087
0.78153761
0.77858491
0.77767087
0.78208654
0.79181126
0.80231181
0.80610814
0.7994031
0.78882625
0.78604691
0.77875609
0.78224614
0.77666269
0.76548475
0.75624348
0.75280139
0.75390286
0.7553397
0.75506023
0.75415664
0.75630814
0.76305099
0.77329706
0.78223657
0.78585845
0.78379658
0.7796927
0.7788006
0.7835264
0.7924478
0.79927685
0.79986164
0.79849295
0.77211166
0.77691293
0.77490805
0.76676737
0.75697479
0.75056262
0.74987012
0.75334327
0.75757272
0.76011222
0.76058437
0.76089445
0.76352656
0.76930338
0.77680786
0.7824353
0.78371139
0.78201232
0.78135577
0.78419086
0.78986142
0.79538696
0.79869309
0.77025798
0.7723341
0.77241213
0.76897613
0.76279481
0.75595077
0.75077959
0.74920898
0.75133127
0.755527
0.75922331
0.76095076
0.76104649
0.7620097
0.76575468
0.77232066
0.77960518
0.78444386
0.78679702
0.78812977
0.78974784
0.79146991
0.79318973
0.76742331
0.76720754
0.76762075
0.7661009
0.76284601
0.75791911
0.75252817
0.74769865
0.74515926
0.74623721
0.75034516
0.75585465
0.76025651
0.76292009
0.765256
0.76866452
0.77355967
0.77904522
0.78366134
0.78687397
0.78898661
0.79022124
0.79110083
0.73071613
0.73455888
0.74269232
0.74953726
0.75215184
0.75190239
0.75044934
0.74815652
0.74585275
0.7448067
0.745966
0.74960464
0.75490636
0.76022891
0.76454388
0.76797162
0.77095349
0.7738458
0.77662576
0.77933264
0.78215905
0.78510754
0.78819504
0.69201647
0.69655172
0.7047126
0.7163415
0.7288442
0.73826212
0.74353647
0.74560206
0.74608167
0.7458585
0.74567143
0.7462154
0.74821664
0.75168514
0.75607221
0.76073944
0.76514149
0.76906811
0.77244938
0.77544823
0.77840305
0.78165118
0.78548504
0.68931993
0.68805157
0.68989686
0.69473181
0.70337452
0.71526357
0.72707106
0.73470442
0.73817995
0.73952313
0.74033147
0.74119399
0.74263684
0.74508546
0.74855733
0.75283483
0.75761475
0.76261973
0.76751801
0.77200514
0.77593872
0.77941316
0.78294202
0.69378432
0.68936278
0.68780864
0.68818706
0.69052619
0.6959049
0.70516465
0.71606494
0.72459145
0.72955249
0.73225083
0.73445764
0.73707141
0.74032175
0.74407994
0.74808041
0.7521399
0.7562569
0.76051746
0.76484476
0.76905471
0.77297282
0.77695591
0.69607684
0.69160047
0.68955604
0.68844637
0.6884589
0.69004215
0.69418224
0.70191139
0.71164307
0.72014995
0.7256275
0.72879782
0.73114066
0.73360367
0.73654368
0.73995713
0.74369059
0.74764995
0.75183361
0.75627814
0.76087391
0.76545359
0.77038829
0.69792639
0.6928816
0.69154196
0.69087714
0.6906622
0.69104366
0.69261967
0.69629305
0.7025335
0.71000883
0.71649186
0.72091211
0.72375294
0.72596439
0.72833029
0.73126901
0.73489905
0.73911565
0.7437735
0.74869516
0.75369881
0.75862322
0.76386254
0.70183153
0.69527746
0.69292775
0.69181583
0.69153286
0.69194394
0.69307328
0.695133
0.69853533
0.70324964
0.70823899
0.71256334
0.71600978
0.71889675
0.72166517
0.72471138
0.72817818
0.73201493
0.73609453
0.7403101
0.74465165
0.74918276
0.75442032
0.70495773
0.69822561
0.69540234
0.69354395
0.69250316
0.69226382
0.69289658
0.69430244
0.69648079
0.69941681
0.70277301
0.70610914
0.70916487
0.71194969
0.71465018
0.7174881
0.72060023
0.72398261
0.72755365
0.73127893
0.73525181
0.73966004
0.74503466
0.7080942
0.70081173
0.69802751
0.69624448
0.69498778
0.69424069
0.69405844
0.69454486
0.69561278
0.69711337
0.6990204
0.701254
0.70367044
0.70616308
0.70870135
0.71130386
0.71405794
0.71704127
0.72029021
0.72380335
0.72761505
0.73184206
0.73688665
0.71200021
0.70430059
0.7010214
0.69880658
0.69720884
0.69614341
0.69562686
0.6956562
0.69627115
0.69733404
0.69867936
0.70018377
0.70186398
0.70371509
0.70570427
0.70779374
0.71001087
0.71243126
0.71514948
0.71817453
0.72147033
0.72502236
0.72905404
0.71544678
0.70766454
0.70426108
0.70188138
0.70016954
0.69896802
0.69825154
0.69804476
0.69828647
0.69895503
0.69989901
0.70104602
0.70237341
0.70392023
0.70567436
0.70759047
0.70962063
0.71177102
0.71407557
0.71656179
0.71919545
0.72188303
0.7246276
0.71872418
0.71105617
0.70768736
0.70538579
0.70371052
0.70251362
0.70174521
0.70135057
0.70134418
0.70176613
0.70253531
0.70357151
0.70481112
0.70628652
0.70798673
0.70984863
0.7118201
0.71387509
0.71601817
0.71828702
0.72069673
0.72317718
0.72550151
0.72201432
0.71461277
0.71128948
0.70899562
0.70732046
0.70621945
0.70560251
0.70539356
0.70557686
0.70616801
0.7071912
0.70854483
0.71012172
0.71185028
0.71376172
0.71586496
0.71813539
0.72055612
0.72313177
0.7258431
0.72867695
0.73157888
0.73424826
0.72497554
0.71796543
0.71491728
0.71282494
0.71136893
0.71051546
0.71021554
0.71041022
0.7110592
0.71216657
0.71378434
0.71588863
0.71837675
0.72111419
0.72407761
0.72730625
0.73082621
0.7346019
0.73858654
0.74273283
0.74699547
0.75133738
0.75551655
0.72797998
0.72136548
0.71864679
0.71688031
0.71576827
0.71529867
0.7154747
0.71634664
0.71786163
0.72000649
0.7227833
0.72622105
0.73023803
0.73472755
0.73959589
0.74485437
0.75052859
0.75658796
0.76295832
0.76952843
0.77624693
0.78305839
0.78982714
0.73067476
0.72472354
0.72247706
0.7212298
0.72065506
0.7207673
0.72168738
0.72353776
0.72630722
0.72994978
0.73440846
0.73969697
0.74577906
0.75256349
0.75992693
0.76781796
0.77622026
0.78509709
0.79436947
0.80395108
0.81376447
0.82375432
0.83373177
0.73336554
0.72815968
0.72651199
0.72591294
0.72601958
0.72699944
0.7290158
0.73222594
0.73662934
0.7421275
0.74861509
0.75606995
0.7644966
0.77383654
0.78395045
0.79468478
0.80596083
0.81771618
0.82992187
0.84252952
0.85545892
0.86870389
0.88192799
0.73589992
0.73164491
0.73079915
0.7309995
0.73204339
0.73417461
0.73761368
0.74249914
0.74877569
0.75628648
0.76493774
0.77468156
0.78552716
0.79739582
0.81012968
0.82352943
0.83743986
0.85178413
0.8665775
0.88182608
0.89744299
0.91330391
0.92893276
0.73829083
0.73527565
0.73532713
0.73657372
0.73884371
0.74239764
0.74747312
0.75417135
0.76241189
0.77197699
0.78276595
0.79468688
0.80769938
0.82172795
0.83663172
0.85221406
0.86827541
0.88473345
0.90158727
0.91885063
0.93633353
0.95371528
0.97072477
0.74083704
0.73910825
0.74028619
0.74276213
0.74645462
0.75159762
0.7584227
0.76696449
0.77709663
0.78860118
0.80135718
0.8151679
0.82991293
0.84552279
0.86195653
0.87914662
0.8968041
0.91470544
0.93281564
0.95117374
0.96957211
0.98624115
0.99567997
0.7437168
0.74323145
0.74568523
0.74954295
0.754791
0.7615962
0.77018294
0.78048413
0.79233041
0.80550829
0.81983486
0.83515171
0.85128639
0.86811864
0.88563712
0.9037759
0.92229478
0.94091795
0.95945034
0.97755261
0.99214267
0.99827857
0.99916438
0.7471346
0.74771153
0.75154616
0.75687985
0.7637128
0.77215601
0.78236849
0.79422831
0.80754957
0.82212427
0.83777587
0.85428839
0.87137694
0.88894316
0.90703936
0.92569719
0.94469618
0.96346874
0.98111231
0.99406239
0.99862705
0.99922425
0.99933096
0.75080178
0.75264787
0.75788826
0.76471231
0.77308921
0.7830366
0.79466176
0.80785064
0.82240402
0.83809159
0.85469536
0.87203332
0.88987678
0.90808254
0.92664116
0.94547735
0.96424926
0.981801
0.9944257
0.99867173
0.99899977
0.99910974
0.99931499
0.75407795
0.75798039
0.76462911
0.77284882
0.78264649
0.79395068
0.80677406
0.82105453
0.83664541
0.8532967
0.87070664
0.88862969
0.90686354
0.92530102
0.94393503
0.9626087
0.98037788
0.99390977
0.99907518
0.99938136
0.99913134
0.99913922
0.99925976
0.75739085
0.76360122
0.7717313
0.78126615
0.79233327
0.80482137
0.8186511
0.83375945
0.85007496
0.86738351
0.88536685
0.90373384
0.9222708
0.9409147
0.9595478
0.9774696
0.99209046
0.99878977
0.99953347
0.99924626
0.99918239
0.99924137
0.99928944
0.76102689
0.76954647
0.77905129
0.78971265
0.80179185
0.81524189
0.8299873
0.84590199
0.86285328
0.88062677
0.89892427
0.91747888
0.9360563
0.95457694
0.972679
0.98862115
0.99795014
0.99998287
0.99976563
0.99932561
0.99914868
0.99923014
0.99934608
0.76462018
0.77554845
0.78648291
0.79829928
0.81130763
0.82545706
0.8407377
0.85711868
0.87448381
0.89258155
0.91110194
0.92970743
0.94820838
0.96645753
0.98335915
0.99533658
0.99954773
0.99999734
0.99986412
0.99959337
0.99939414
0.99939429
0.9994075
0.76858813
0.78170311
0.79375019
0.80647485
0.82024373
0.83501542
0.85078309
0.86749089
0.88501942
0.90317172
0.92166727
0.94021394
0.95863894
0.97636978
0.99086101
0.9981643
0.99970402
0.99989551
0.99977106
0.99951801
0.99937689
0.99944689
0.99958703
0.772605
0.78776659
0.80070884
0.81403942
0.82828303
0.84347886
0.85960878
0.87661582
0.8943471
0.91257567
0.93099948
0.94931332
0.96722846
0.98343214
0.99431512
0.99836894
0.9994374
0.99980246
0.99987239
0.99965398
0.99940031
0.9994156
0.99959493
0.77629629
0.79327347
0.80699845
0.82091857
0.83558573
0.85097726
0.86710753
0.8840015
0.90167361
0.91995937
0.9384861
0.95672299
0.97376467
0.98752841
0.99509055
0.99776712
0.99860804
0.99913139
0.99943215
0.99940897
0.99924338
0.99922234
0.99941874
0.77991989
0.79822631
0.81242104
0.8265356
0.84127939
0.85674088
0.87285308
0.88959228
0.90707263
0.92520272
0.94358451
0.96136617
0.97703395
0.9884724
0.99428014
0.99609663
0.99685686
0.99747764
0.99795912
0.99821333
0.99840032
0.99868636
0.99909456
0.78319559
0.80241538
0.81688061
0.83096266
0.84553864
0.86084484
0.87680567
0.89326437
0.91024586
0.92774234
0.94535862
0.96224784
0.97684657
0.98691625
0.99134353
0.99280847
0.99366449
0.99443419
0.99512631
0.99565684
0.99611476
0.99665148
0.99732173
0.78587765
0.80586219
0.82046073
0.83439892
0.84864593
0.86351506
0.8789589
0.89477534
0.91092548
0.92757183
0.94447888
0.96055204
0.97396587
0.98260213
0.98643503
0.98784113
0.98857316
0.98914577
0.98972136
0.99029371
0.9909162
0.99167814
0.99267806
0.78776468
0.80808095
0.82248499
0.835935
0.84958479
0.86383722
0.87881931
0.89434838
0.91011036
0.9258174
0.94114399
0.95543438
0.96728079
0.97520463
0.97918659
0.98072205
0.98127064
0.98143905
0.98152276
0.98175132
0.98222483
0.98288749
0.98372904
0.79070036
0.80875333
0.82245391
0.83555407
0.84883213
0.86260335
0.8769116
0.89163397
0.90645798
0.9209467
0.93469984
0.94724541
0.95781111
0.96549989
0.96996561
0.97176314
0.97209155
0.97170473
0.97108574
0.97063416
0.97051934
0.97065035
0.97083062
0.7948
0.80825317
0.82098223
0.83320243
0.84561408
0.85846706
0.87175358
0.88534455
0.89899588
0.91232885
0.92492129
0.93636319
0.94621444
0.95396141
0.95914721
0.96172667
0.96233792
0.96168691
0.96022746
0.95855657
0.95702227
0.95576417
0.95487074
0.7861093
0.8032519
0.81553363
0.82705577
0.83857678
0.85039164
0.86255537
0.87501116
0.88756752
0.89996403
0.91186343
0.92286587
0.93258082
0.94065251
0.94673346
0.95057938
0.95222368
0.9521769
0.95064398
0.94819327
0.94530224
0.94228273
0.93939866
0.78030317
0.79081515
0.80202746
0.81346849
0.82497587
0.83649907
0.84812075
0.8598617
0.87167784
0.88345399
0.89499826
0.90600975
0.91613002
0.92496644
0.93220429
0.93757416
0.94093551
0.94235754
0.94209845
0.94036151
0.93752179
0.93391931
0.92976318
0.78035355
0.78351395
0.78911779
0.79694838
0.80652272
0.81718639
0.82839453
0.83983274
0.85136202
0.8628685
0.87422792
0.88528957
0.89583527
0.9055691
0.91416043
0.92130071
0.92677044
0.93046825
0.93242471
0.93273535
0.93158973
0.92925677
0.92591171
0.78195804
0.78323117
0.78567529
0.78870931
0.79321305
0.79961362
0.80779986
0.81734365
0.82774926
0.83859534
0.84959086
0.86052819
0.87124979
0.88158902
0.89131073
0.90013898
0.9077845
0.91402872
0.91872964
0.92183215
0.92335954
0.92340676
0.92236019
0.78445653
0.78465689
0.7863131
0.78816291
0.79003254
0.79227514
0.79537482
0.79992776
0.80605756
0.81365974
0.822462
0.83210334
0.84223526
0.85254526
0.86274549
0.87260029
0.88186141
0.89028661
0.89765978
0.90379987
0.90859424
0.9120172
0.91434205
0.78939804
0.78935463
0.79058318
0.79133352
0.79203918
0.79298648
0.79431813
0.79578607
0.79763434
0.80014531
0.80368215
0.8085808
0.81478812
0.82216602
0.83047138
0.8394356
0.84873628
0.85805902
0.86709244
0.87556502
0.88327994
0.89018474
0.89677008
0.79938002
0.79939774
0.80162726
0.80235287
0.80197463
0.80113434
0.80030178
0.79985994
0.79990638
0.80052379
0.80153636
0.80278205
0.80442415
0.80665629
0.80961307
0.81368319
0.81888496
0.82513984
0.83224728
0.83997537
0.84807842
0.85637517
0.86537554
0.81453609
0.81560334
0.82030632
0.82266689
0.82300706
0.82189701
0.81980531
0.81725137
0.8146608
0.81228054
0.81035188
0.80903726
0.80831052
0.80824638
0.80885084
0.8097149
0.81087198
0.81240863
0.81445711
0.81712286
0.82062079
0.82519364
0.83128826
0.82809701
0.8366627
0.84488409
0.84994481
0.85260294
0.85345955
0.85278416
0.85077613
0.84775716
0.84405616
0.83996634
0.83577599
0.8316805
0.82781445
0.82437145
0.82163677
0.81964234
0.81834345
0.81771756
0.81780247
0.81832868
0.81894515
0.81954513
0.84197379
0.85982343
0.87139021
0.87912016
0.88439184
0.88800235
0.8903174
0.89132727
0.89112918
0.88978776
0.88739709
0.88407707
0.8799185
0.87502549
0.8695586
0.86375294
0.85790153
0.85226167
0.84693681
0.84205899
0.83778075
0.83404951
0.82788921
0.85576946
0.88121821
0.89420218
0.90301919
0.90970499
0.91521366
0.91992609
0.92393761
0.92728014
0.92985556
0.93152455
0.9321926
0.93179737
0.93047175
0.92808701
0.92459101
0.92006446
0.91464236
0.90845244
0.90161001
0.89424894
0.88657951
0.87679736
0.86713295
0.89465315
0.90698887
0.91547097
0.92243995
0.9288282
0.93493058
0.94088479
0.94660218
0.95186087
0.95638675
0.96010875
0.96305934
0.96535347
0.96682318
0.96745171
0.96712902
0.96585197