/*--------------------------------*- C++ -*----------------------------------*\
| =========                 |                                                 |
| \\      /  F ield         | OpenFOAM: The Open Source CFD Toolbox           |
|  \\    /   O peration     | Version:  2406                                  |
|   \\  /    A nd           | Website:  www.openfoam.com                      |
|    \\/     M anipulation  |                                                 |
\*---------------------------------------------------------------------------*/
FoamFile
{
    version     2.0;
    format      ascii;
    arch        "LSB;label=32;scalar=64";
    class       volScalarField;
    location    "180";
    object      alphat;
}
// * * * * * * * * * * * * * * * * * * * * * * * * * * * * * * * * * * * * * //

dimensions      [1 -1 -1 0 0 0 0];

internalField   nonuniform List<scalar> 
20580
(
8.8872318e-07
8.9113771e-07
8.6945521e-07
8.5038019e-07
8.3842133e-07
8.2629524e-07
8.2239318e-07
8.213508e-07
8.2060645e-07
8.2542455e-07
8.3150972e-07
8.4198364e-07
8.5114767e-07
8.5913498e-07
8.7089603e-07
8.7199258e-07
8.8149839e-07
8.8677362e-07
8.856257e-07
8.881371e-07
8.8813962e-07
8.9105685e-07
8.7976383e-07
8.9509544e-07
9.1682143e-07
9.2710769e-07
9.304107e-07
9.4051095e-07
9.504832e-07
9.7499885e-07
1.0303148e-06
8.8895645e-07
8.9442454e-07
8.8867181e-07
8.7523053e-07
8.5615328e-07
8.3771946e-07
8.2725119e-07
8.2444035e-07
8.2035706e-07
8.2271297e-07
8.2638978e-07
8.3354989e-07
8.4176294e-07
8.5028838e-07
8.6471806e-07
8.6785959e-07
8.8216104e-07
8.9242211e-07
8.9732999e-07
9.0916438e-07
9.2204337e-07
9.2475698e-07
9.0745819e-07
9.127326e-07
9.3259341e-07
9.4249605e-07
9.5106403e-07
9.8797038e-07
1.0098094e-06
1.0130706e-06
1.0222676e-06
8.8765589e-07
8.9715037e-07
8.9199103e-07
8.9124717e-07
8.7918179e-07
8.5472619e-07
8.3560982e-07
8.2591997e-07
8.1913471e-07
8.1809263e-07
8.2023563e-07
8.2356681e-07
8.3076111e-07
8.3700078e-07
8.5095629e-07
8.5314774e-07
8.6851711e-07
8.8069199e-07
8.8620778e-07
9.0492739e-07
9.2488432e-07
9.3737462e-07
9.4076109e-07
9.4175395e-07
9.6535e-07
9.7175375e-07
9.672325e-07
9.9328641e-07
1.0355681e-06
1.0798723e-06
1.0612504e-06
8.8672343e-07
8.9637768e-07
8.9458451e-07
8.9507277e-07
8.8741017e-07
8.7289135e-07
8.5142203e-07
8.3271837e-07
8.2254289e-07
8.169588e-07
8.1724404e-07
8.1664148e-07
8.2196452e-07
8.2678936e-07
8.3929184e-07
8.4366027e-07
8.5581202e-07
8.6909892e-07
8.7184525e-07
8.9143772e-07
9.1171854e-07
9.2322028e-07
9.3767883e-07
9.5148018e-07
9.7897143e-07
1.000234e-06
1.0110974e-06
1.0204427e-06
1.0546965e-06
1.0957481e-06
1.0847269e-06
8.8672066e-07
8.9914658e-07
8.9345197e-07
8.9544037e-07
8.9325949e-07
8.83729e-07
8.6925656e-07
8.4644635e-07
8.3161423e-07
8.2036615e-07
8.1693785e-07
8.1390912e-07
8.1508673e-07
8.144099e-07
8.1913932e-07
8.2277821e-07
8.3203764e-07
8.4764873e-07
8.5670045e-07
8.8000711e-07
8.9994711e-07
9.091468e-07
9.305002e-07
9.4587676e-07
9.6663442e-07
9.9836119e-07
1.0269317e-06
1.0682345e-06
1.1071013e-06
1.1402617e-06
1.1272842e-06
8.8674612e-07
9.063975e-07
8.9783501e-07
8.963544e-07
8.9720337e-07
8.9623211e-07
8.9172141e-07
8.7753606e-07
8.6011304e-07
8.3698298e-07
8.2626696e-07
8.1760327e-07
8.1600664e-07
8.1433023e-07
8.1284448e-07
8.1502036e-07
8.1478649e-07
8.2013161e-07
8.2416066e-07
8.4476412e-07
8.6235505e-07
8.7695431e-07
9.1437453e-07
9.3633468e-07
9.4866058e-07
9.8198669e-07
1.0189353e-06
1.0696032e-06
1.1003176e-06
1.1931665e-06
1.2051691e-06
8.8641121e-07
9.1027466e-07
9.0162352e-07
9.0041606e-07
9.0148174e-07
9.0186255e-07
9.0771624e-07
9.0580717e-07
8.9945345e-07
8.8478553e-07
8.6652032e-07
8.4366723e-07
8.3328749e-07
8.2647922e-07
8.1904475e-07
8.1954294e-07
8.159402e-07
8.152788e-07
8.1860144e-07
8.2948818e-07
8.3260384e-07
8.413007e-07
8.6728675e-07
8.9244119e-07
9.0386934e-07
9.4524282e-07
9.9756473e-07
1.0599073e-06
1.0795114e-06
1.1464083e-06
1.2223378e-06
8.8809776e-07
9.0863096e-07
9.0417131e-07
9.0404782e-07
9.0415149e-07
9.0646429e-07
9.1182767e-07
9.1800324e-07
9.243662e-07
9.2037565e-07
9.1569609e-07
9.0949442e-07
8.9120869e-07
8.7880997e-07
8.6216813e-07
8.5516338e-07
8.4221345e-07
8.3089189e-07
8.3021036e-07
8.3439727e-07
8.3109673e-07
8.3339716e-07
8.5274607e-07
8.6741723e-07
8.6826196e-07
8.8195909e-07
9.228948e-07
9.7145699e-07
1.0223293e-06
1.0591762e-06
1.177562e-06
9.0002302e-07
9.4782114e-07
9.4733427e-07
9.3743998e-07
9.2279396e-07
9.1397337e-07
9.1608226e-07
9.2558806e-07
9.3609638e-07
9.5227165e-07
9.6867706e-07
9.9544823e-07
1.0109509e-06
1.0246506e-06
1.0118153e-06
9.9986288e-07
9.6811332e-07
9.2960533e-07
9.0793173e-07
8.8812567e-07
8.6546638e-07
8.5652859e-07
8.6396791e-07
8.7385634e-07
8.7288993e-07
8.8042782e-07
9.0598929e-07
9.363541e-07
9.6579404e-07
9.7467353e-07
1.0548026e-06
9.5452978e-07
1.117147e-06
1.1660861e-06
1.1282544e-06
1.0533455e-06
9.7542384e-07
9.339345e-07
9.3270192e-07
9.6073973e-07
1.0096646e-06
1.0508979e-06
1.1016513e-06
1.1423225e-06
1.1793235e-06
1.2047777e-06
1.2186526e-06
1.2140713e-06
1.1898752e-06
1.162577e-06
1.1148879e-06
1.0537746e-06
1.0085911e-06
9.6272687e-07
9.3919551e-07
9.2088456e-07
9.1251036e-07
9.2387528e-07
9.4679779e-07
9.8040051e-07
9.913997e-07
1.038044e-06
9.0855398e-07
1.0736255e-06
1.2189649e-06
1.2665555e-06
1.2116069e-06
1.0885955e-06
9.8131352e-07
9.4580037e-07
9.7537663e-07
1.0274949e-06
1.0800847e-06
1.1358256e-06
1.1774975e-06
1.2166795e-06
1.2473893e-06
1.2670705e-06
1.2742515e-06
1.2758842e-06
1.2782476e-06
1.2626899e-06
1.2366788e-06
1.2289712e-06
1.1950974e-06
1.1517427e-06
1.1136021e-06
1.076257e-06
1.0366364e-06
1.0298669e-06
1.0444875e-06
1.0558636e-06
1.0656821e-06
8.5637354e-07
9.0035495e-07
1.0200949e-06
1.1283115e-06
1.154033e-06
1.0595469e-06
9.7228782e-07
9.4330876e-07
9.6916463e-07
1.0184681e-06
1.067915e-06
1.1167826e-06
1.1556945e-06
1.1891728e-06
1.2200384e-06
1.2417157e-06
1.2509525e-06
1.2615571e-06
1.2669214e-06
1.2590989e-06
1.2504157e-06
1.2608662e-06
1.2464838e-06
1.2258253e-06
1.2301058e-06
1.2300948e-06
1.195463e-06
1.1781365e-06
1.1944943e-06
1.2520638e-06
1.2339319e-06
8.4956955e-07
8.2838155e-07
8.5471526e-07
9.0180527e-07
9.2508634e-07
9.1818035e-07
9.1644953e-07
9.3369182e-07
9.7146125e-07
1.0225787e-06
1.0803493e-06
1.1447493e-06
1.2060516e-06
1.2550859e-06
1.2967876e-06
1.3248954e-06
1.343914e-06
1.36583e-06
1.3691406e-06
1.3455485e-06
1.3284627e-06
1.3314848e-06
1.3074574e-06
1.2760124e-06
1.2797046e-06
1.2910908e-06
1.2585219e-06
1.2302527e-06
1.2355051e-06
1.2935913e-06
1.3115916e-06
8.4650465e-07
8.2607318e-07
8.4361126e-07
8.7998893e-07
8.8910674e-07
8.8201892e-07
9.0261315e-07
9.5936338e-07
1.0353278e-06
1.1144905e-06
1.2489601e-06
1.4584439e-06
1.6680634e-06
1.8677066e-06
2.0660914e-06
2.1519087e-06
2.1891326e-06
2.2375427e-06
2.2433626e-06
2.1427171e-06
1.9937642e-06
1.8814644e-06
1.7454903e-06
1.6151692e-06
1.5427748e-06
1.5019755e-06
1.4386853e-06
1.3665001e-06
1.3450643e-06
1.3753088e-06
1.370636e-06
8.3747158e-07
8.4943275e-07
9.1708064e-07
9.88483e-07
9.8250577e-07
9.2788541e-07
9.4042077e-07
1.0241808e-06
1.0965928e-06
1.2174261e-06
1.4506271e-06
1.7611418e-06
2.1100359e-06
2.4639754e-06
2.7854483e-06
3.0461871e-06
3.2541614e-06
3.4170484e-06
3.5118062e-06
3.5880235e-06
3.5921798e-06
3.5791223e-06
3.42556e-06
3.2802191e-06
3.066971e-06
2.9415493e-06
2.6722507e-06
2.4290867e-06
2.1407019e-06
2.05038e-06
1.839735e-06
8.4075384e-07
9.5906179e-07
1.070051e-06
1.0967229e-06
1.020423e-06
9.3882317e-07
9.5629797e-07
1.0317006e-06
1.094313e-06
1.2298943e-06
1.4462437e-06
1.6981662e-06
1.9871708e-06
2.2789349e-06
2.5349884e-06
2.7739222e-06
2.969802e-06
3.1468668e-06
3.2774819e-06
3.4285109e-06
3.5396703e-06
3.5971038e-06
3.6649312e-06
3.7035667e-06
3.7283561e-06
3.7180269e-06
3.7218709e-06
3.7129627e-06
3.6187903e-06
3.5396183e-06
3.36469e-06
8.8604359e-07
1.0139535e-06
1.0433257e-06
1.0250988e-06
9.5331755e-07
9.2126899e-07
9.6927323e-07
1.0270923e-06
1.1100073e-06
1.2548323e-06
1.3851381e-06
1.4921566e-06
1.5606737e-06
1.6054257e-06
1.6093978e-06
1.6395516e-06
1.70757e-06
1.7852798e-06
1.8789893e-06
2.0380886e-06
2.2364414e-06
2.3898968e-06
2.5614896e-06
2.791317e-06
2.9738097e-06
3.0990167e-06
3.2194486e-06
3.3831135e-06
3.4837397e-06
3.4800772e-06
3.4504479e-06
8.7587549e-07
9.7304484e-07
9.297775e-07
9.0850964e-07
9.1320486e-07
9.5806079e-07
1.0163044e-06
1.1090585e-06
1.1937682e-06
1.2489139e-06
1.2416175e-06
1.1643402e-06
1.1125146e-06
1.0761812e-06
1.0611327e-06
1.0745142e-06
1.1009529e-06
1.13374e-06
1.1984198e-06
1.3013558e-06
1.4140062e-06
1.4998788e-06
1.5988371e-06
1.7194368e-06
1.8552043e-06
1.9232035e-06
2.0242731e-06
2.1583975e-06
2.4037306e-06
2.5068697e-06
2.6941384e-06
8.7784721e-07
9.0105653e-07
8.8280244e-07
9.2881344e-07
1.0019371e-06
1.0693959e-06
1.1095045e-06
1.1154696e-06
1.0929755e-06
1.0480244e-06
9.81133e-07
9.5864625e-07
9.7728134e-07
1.0060338e-06
1.0428572e-06
1.1465958e-06
1.2749255e-06
1.3706375e-06
1.4393881e-06
1.5123592e-06
1.5743201e-06
1.6041446e-06
1.6352739e-06
1.6961684e-06
1.7549685e-06
1.7737203e-06
1.8026872e-06
1.8571288e-06
1.9598449e-06
2.0094253e-06
2.0785819e-06
8.7917575e-07
8.8128716e-07
8.9101702e-07
9.4372219e-07
9.8627616e-07
9.9896002e-07
9.8416368e-07
9.3805692e-07
8.9666914e-07
8.9239308e-07
9.1104352e-07
9.4378195e-07
9.8740221e-07
1.0576503e-06
1.1433151e-06
1.235786e-06
1.3172592e-06
1.3803268e-06
1.4324057e-06
1.4896428e-06
1.5353213e-06
1.565928e-06
1.5898441e-06
1.6359672e-06
1.6762223e-06
1.6970886e-06
1.7063281e-06
1.7201901e-06
1.8200391e-06
1.8679333e-06
1.9062324e-06
8.7039348e-07
8.4434842e-07
8.5973186e-07
9.2564262e-07
9.9516655e-07
1.0471794e-06
1.0849236e-06
1.1072893e-06
1.118239e-06
1.1055353e-06
1.1374325e-06
1.1731947e-06
1.217827e-06
1.2550032e-06
1.3439248e-06
1.4454483e-06
1.5690926e-06
1.672547e-06
1.7610952e-06
1.8679235e-06
1.7343573e-06
2.0297416e-06
2.075746e-06
2.1221932e-06
1.4343052e-06
2.0043939e-06
2.1856811e-06
2.2027506e-06
2.207144e-06
1.1234086e-06
1.5269045e-06
8.9738206e-07
1.0717169e-06
1.7314639e-06
1.7052157e-06
2.0864525e-06
2.085487e-06
2.2401078e-06
2.2654293e-06
2.3462166e-06
2.1833344e-06
2.2436112e-06
2.1787717e-06
2.3470361e-06
2.3499151e-06
2.4811536e-06
2.6236667e-06
2.5317687e-06
2.7092995e-06
3.2354284e-06
3.1610683e-06
2.6146435e-06
3.2051711e-06
3.4741858e-06
3.4775154e-06
2.4833587e-06
2.6294483e-06
3.4594716e-06
3.4502157e-06
3.0999251e-06
2.2000606e-06
2.1452037e-06
6.48634e-07
1.493285e-06
1.7565786e-06
2.2454141e-06
1.7414384e-06
2.4518835e-06
1.7083363e-06
2.6598645e-06
1.4761369e-06
2.9571431e-06
2.3552997e-06
1.97998e-06
2.2464984e-06
1.926166e-06
2.1120759e-06
2.0536969e-06
2.1117403e-06
2.0986725e-06
1.9240364e-06
2.0188976e-06
2.3473299e-06
2.1249001e-06
1.8889592e-06
2.0793024e-06
2.756574e-06
2.7419774e-06
2.1625536e-06
1.9256491e-06
2.5119583e-06
2.4293428e-06
2.3125603e-06
2.1222796e-06
3.2698545e-06
2.2446844e-06
1.8275163e-06
2.0434211e-06
2.558087e-06
3.4177898e-06
3.4371564e-06
2.2215552e-06
1.4992286e-06
1.3631643e-06
1.2948738e-06
1.13262e-06
1.1142384e-06
1.1352105e-06
1.2416166e-06
1.2841305e-06
1.252284e-06
1.160733e-06
1.1240798e-06
1.131103e-06
1.1370425e-06
1.1293165e-06
1.7559466e-06
3.1908611e-06
2.3914775e-06
2.0172903e-06
2.0904195e-06
2.4287845e-06
3.4142816e-06
3.6309934e-06
2.5843038e-06
1.6286505e-06
1.3889428e-06
1.3698643e-06
1.291136e-06
1.2121488e-06
1.2166394e-06
1.2723677e-06
1.3606803e-06
1.344047e-06
1.3066712e-06
1.2417786e-06
1.2350355e-06
1.2107533e-06
1.1674057e-06
1.3715472e-06
1.8077424e-06
1.144754e-06
1.7267623e-06
2.1924052e-06
2.4598434e-06
3.344043e-06
3.7489685e-06
3.1537927e-06
1.9242483e-06
1.4967778e-06
1.4778689e-06
1.4496399e-06
1.340412e-06
1.2694801e-06
1.2750858e-06
1.3869529e-06
1.4116445e-06
1.4324291e-06
1.3931621e-06
1.3945808e-06
1.3461549e-06
1.2570137e-06
1.1175585e-06
1.5572785e-06
1.1622698e-06
2.2067229e-06
2.2772062e-06
2.4238538e-06
3.1576525e-06
3.7566292e-06
3.5099568e-06
2.4034325e-06
1.7426649e-06
1.6681133e-06
1.6082252e-06
1.4776978e-06
1.3835097e-06
1.3246582e-06
1.4034315e-06
1.5076248e-06
1.5583119e-06
1.5538481e-06
1.4955013e-06
1.4355264e-06
1.3268619e-06
1.0690201e-06
2.2754237e-06
2.0204389e-06
1.2443459e-06
1.8367202e-06
2.3726315e-06
2.9634118e-06
3.8425111e-06
3.8713622e-06
3.0547917e-06
2.0737609e-06
1.8303453e-06
1.7670426e-06
1.6338664e-06
1.4762102e-06
1.4599933e-06
1.4992396e-06
1.638372e-06
1.6847498e-06
1.6800782e-06
1.5879676e-06
1.5421117e-06
1.4476061e-06
9.9220968e-07
2.1928915e-06
1.8489433e-06
1.3489438e-06
1.8963923e-06
1.7520074e-06
2.1208961e-06
3.9289536e-06
4.1215527e-06
3.5110307e-06
2.3400127e-06
1.8987875e-06
1.8403801e-06
1.7863475e-06
1.6302018e-06
1.6291599e-06
1.6727413e-06
1.7995267e-06
1.8161443e-06
1.7683572e-06
1.7053787e-06
1.6367313e-06
1.6167965e-06
5.8372607e-07
1.2529293e-06
1.2123562e-06
1.6919049e-06
1.9045489e-06
1.9147413e-06
3.0668777e-06
4.5305338e-06
4.5366562e-06
4.0233561e-06
2.716679e-06
2.045056e-06
2.0019619e-06
1.9914673e-06
1.9111392e-06
1.8074103e-06
1.8034519e-06
1.8687373e-06
1.9574746e-06
1.9069462e-06
1.8680061e-06
1.8099058e-06
1.8150039e-06
4.0112907e-07
1.1500023e-06
7.4909297e-07
1.113511e-06
1.8214166e-06
2.2005045e-06
2.6842414e-06
4.002451e-06
4.8692372e-06
4.544596e-06
3.5816622e-06
2.5388493e-06
2.3503689e-06
2.3409549e-06
2.2025574e-06
2.0728575e-06
1.9083548e-06
1.8709634e-06
1.9644179e-06
1.9910796e-06
2.0509689e-06
2.1052404e-06
2.0966367e-06
6.750529e-07
9.1360796e-07
1.4300601e-06
2.3689317e-06
2.2295564e-06
1.6267205e-06
1.7927995e-06
3.0459718e-06
5.2290194e-06
5.149986e-06
4.5426974e-06
3.367055e-06
2.819185e-06
2.7776378e-06
2.6133773e-06
2.3128227e-06
2.0986066e-06
1.9675739e-06
2.0549162e-06
2.1320737e-06
2.1812197e-06
2.2785125e-06
2.3099853e-06
1.1749113e-06
1.5302943e-06
1.3810606e-06
1.3318711e-06
1.7461272e-06
2.8506539e-06
2.9660693e-06
4.3345217e-06
5.1314456e-06
4.7029346e-06
5.2446221e-06
4.021653e-06
3.2278918e-06
3.1031339e-06
2.9038789e-06
2.5451138e-06
2.3778185e-06
2.2816894e-06
2.2920266e-06
2.3873536e-06
2.4201673e-06
2.4507895e-06
2.3984831e-06
1.0960254e-06
1.1593468e-06
1.9968521e-06
2.0951677e-06
1.8947163e-06
2.0920331e-06
1.9431377e-06
2.7371867e-06
3.9614578e-06
6.0356233e-06
5.6332547e-06
4.2008559e-06
3.0065989e-06
3.21227e-06
3.086555e-06
2.7997636e-06
2.6835351e-06
2.6729969e-06
2.6969858e-06
2.854474e-06
2.85416e-06
2.7198615e-06
2.5875068e-06
5.5386212e-07
8.2902199e-07
1.3025508e-06
2.6844928e-06
3.3128782e-06
2.0406716e-06
1.7228242e-06
2.797494e-06
5.229447e-06
6.8811397e-06
6.2261263e-06
4.8821961e-06
3.7383162e-06
3.3705988e-06
3.2893811e-06
3.0923132e-06
2.9415491e-06
3.0203847e-06
3.1508383e-06
3.3174523e-06
3.3845881e-06
3.193582e-06
2.9694906e-06
4.7530651e-07
1.307071e-06
1.5562322e-06
2.2957254e-06
2.9451753e-06
4.3121683e-06
4.3701937e-06
6.2317244e-06
8.1532844e-06
6.7504191e-06
5.9971734e-06
6.2578218e-06
4.6857309e-06
4.0479348e-06
4.0023457e-06
3.8416466e-06
3.3719874e-06
3.3140454e-06
3.4414057e-06
3.6149999e-06
3.7666698e-06
3.5585122e-06
3.2472652e-06
5.7785916e-07
1.4187266e-06
1.7938956e-06
2.5912841e-06
3.8532449e-06
4.1345995e-06
3.9407966e-06
5.7583538e-06
8.7034699e-06
9.9997421e-06
7.7284514e-06
7.5130933e-06
5.995226e-06
5.0863427e-06
5.0800681e-06
4.978663e-06
4.4056927e-06
3.8113944e-06
3.664206e-06
3.7411171e-06
3.9161544e-06
3.8438363e-06
3.6352897e-06
8.4210435e-07
1.041288e-06
2.2427712e-06
3.6626545e-06
4.6294841e-06
4.2196819e-06
3.8195066e-06
4.4684031e-06
6.7178704e-06
1.083989e-05
1.0980054e-05
8.6222046e-06
5.362107e-06
4.6620646e-06
5.3484968e-06
6.0745143e-06
5.6688043e-06
4.7037614e-06
4.2131888e-06
4.087995e-06
4.2152458e-06
4.2404765e-06
4.1618858e-06
1.2118006e-06
1.3334505e-06
3.4461897e-06
4.572661e-06
5.3550382e-06
5.4798709e-06
6.3116079e-06
6.9692345e-06
8.8588673e-06
1.092496e-05
1.2197966e-05
1.1525846e-05
6.751038e-06
5.1781213e-06
5.9652763e-06
7.0353527e-06
6.5444156e-06
5.3711412e-06
4.8346277e-06
4.5751782e-06
4.51543e-06
4.5376862e-06
4.5024302e-06
1.6075315e-06
2.2191444e-06
3.9302374e-06
4.825319e-06
5.6945709e-06
7.2074352e-06
7.9509218e-06
9.7743845e-06
1.2120773e-05
1.3450883e-05
1.3392945e-05
1.3287835e-05
1.0975488e-05
8.3794058e-06
8.7459811e-06
8.2058341e-06
7.1242171e-06
5.8984047e-06
5.4257472e-06
5.1251352e-06
5.1015513e-06
5.0877005e-06
5.0204589e-06
2.0594013e-06
2.9426538e-06
4.565996e-06
5.3573061e-06
6.5252666e-06
9.1315005e-06
1.2418472e-05
1.5497088e-05
1.728645e-05
1.9835249e-05
1.7526193e-05
1.6512268e-05
1.4008957e-05
1.2297791e-05
1.1299568e-05
1.0082591e-05
7.7341255e-06
6.5509011e-06
6.3120341e-06
6.1806217e-06
6.3799665e-06
6.4046617e-06
6.2606935e-06
2.4639018e-06
3.2092314e-06
4.8080994e-06
5.4466942e-06
6.8405097e-06
1.0114695e-05
1.5709116e-05
1.9498722e-05
2.0565658e-05
2.2653506e-05
1.9878818e-05
2.0006208e-05
2.0980188e-05
1.9434268e-05
1.6761697e-05
1.3028724e-05
8.8318555e-06
7.3570351e-06
7.2223708e-06
7.1331009e-06
7.549873e-06
7.7777363e-06
7.7204205e-06
2.6986906e-06
3.6004182e-06
5.2538443e-06
5.8749448e-06
7.8626469e-06
1.2653613e-05
2.1393662e-05
2.5920551e-05
2.6014998e-05
2.4903207e-05
2.1624902e-05
2.3013215e-05
2.7181299e-05
2.9436599e-05
2.5935997e-05
2.0258954e-05
1.1660044e-05
8.7702479e-06
8.1834737e-06
8.0122846e-06
8.4277755e-06
8.6039097e-06
8.519094e-06
2.4655327e-06
3.8480869e-06
5.8613789e-06
6.5559208e-06
9.3282892e-06
1.5824788e-05
2.8111289e-05
3.5158442e-05
3.4521404e-05
2.9327057e-05
2.4582336e-05
2.6319514e-05
3.2666389e-05
3.6930088e-05
3.3274986e-05
2.4544136e-05
1.3809227e-05
1.0538307e-05
9.7754665e-06
9.4996822e-06
9.7864917e-06
9.6865987e-06
9.0436031e-06
2.2773458e-06
4.0844326e-06
6.2614746e-06
7.2874685e-06
1.1145024e-05
1.9811901e-05
3.6053747e-05
4.6431942e-05
4.5637105e-05
3.741851e-05
3.0359822e-05
3.2663081e-05
4.1838901e-05
4.9388942e-05
4.3317115e-05
2.7048196e-05
1.6253277e-05
1.396934e-05
1.3361461e-05
1.3345885e-05
1.3341567e-05
1.2397997e-05
1.0069448e-05
2.5121218e-06
4.533797e-06
6.6967784e-06
8.0690089e-06
1.2408161e-05
2.3195656e-05
4.3644728e-05
5.7915008e-05
5.738476e-05
4.7016167e-05
3.8614519e-05
4.2216534e-05
5.6349991e-05
6.6790273e-05
5.5568847e-05
3.1445961e-05
2.048756e-05
1.8705599e-05
1.8652477e-05
1.9337187e-05
1.8495645e-05
1.4608585e-05
1.2175406e-05
2.0152484e-06
4.0462138e-06
7.1926979e-06
9.2984125e-06
1.3352865e-05
2.2294074e-05
4.4707055e-05
6.1255691e-05
7.0420136e-05
6.1530318e-05
5.539862e-05
6.4219508e-05
9.3224e-05
0.00011193173
8.4134603e-05
4.2288098e-05
2.7535717e-05
2.5265053e-05
2.4583099e-05
2.4909384e-05
2.309028e-05
1.7389727e-05
1.6783227e-05
1.5366513e-06
5.9250008e-06
9.2474332e-06
1.1019022e-05
1.3943726e-05
2.474655e-05
4.2747287e-05
6.8943947e-05
9.4430751e-05
8.5898959e-05
8.2906897e-05
8.8598183e-05
0.00011730094
0.00014013598
0.00011007664
5.9758053e-05
4.0734673e-05
3.6770798e-05
3.5117754e-05
3.4853428e-05
2.8469192e-05
2.1878146e-05
2.2567946e-05
3.0412601e-06
1.4928435e-05
1.3233637e-05
1.5262065e-05
1.8017314e-05
2.7465485e-05
6.9090286e-05
0.00011161547
0.00010967748
0.00010253479
9.8054507e-05
0.000109821
0.00013527128
0.00014047993
0.00012244677
8.511102e-05
7.1820084e-05
6.7166512e-05
6.4100812e-05
5.4637662e-05
3.4323447e-05
2.7508854e-05
2.5757691e-05
5.4743427e-06
2.1034847e-05
2.5672006e-05
2.9047869e-05
2.3291935e-05
2.9685582e-05
6.5004981e-05
0.00011569161
0.00012049997
0.00011782502
0.00011838704
0.00013266453
0.00015341703
0.00015028059
0.00012951528
9.8898895e-05
9.3365316e-05
0.00010159982
9.3480773e-05
5.6951871e-05
3.7250432e-05
3.1484477e-05
3.0633289e-05
8.8757534e-06
4.4853191e-05
4.6402647e-05
4.3151517e-05
3.4915478e-05
3.1409575e-05
5.4218682e-05
0.00010722527
0.00013346577
0.00014671439
0.00014822244
0.00017654172
0.00018384011
0.0001759632
0.00014505098
0.00012663653
0.00012968879
0.00012605732
8.7941078e-05
5.7933338e-05
4.7662748e-05
4.575071e-05
3.7630592e-05
9.791917e-06
5.1196472e-05
5.614819e-05
5.5639827e-05
4.7850773e-05
3.9291108e-05
5.7355211e-05
0.00010955849
0.00015614675
0.00020182792
0.00022624537
0.00023718767
0.00023202031
0.00021286289
0.00017467789
0.00015042238
0.00014115469
0.00011797863
8.8053829e-05
7.2373267e-05
6.5090624e-05
5.6652872e-05
4.086481e-05
7.2759395e-06
4.3318735e-05
6.1345539e-05
6.4470078e-05
5.7272766e-05
5.4828777e-05
8.1666102e-05
0.00014152459
0.00019958543
0.00024692485
0.00027578973
0.0002846419
0.0002670893
0.00023790149
0.00019172296
0.00015541398
0.00013850911
0.00011616207
9.8272568e-05
8.8063243e-05
7.8648855e-05
6.10969e-05
4.897073e-05
5.6041635e-06
3.3091393e-05
3.6270622e-05
5.3015253e-05
6.7246554e-05
8.2790147e-05
0.00013613942
0.00019198701
0.00023102483
0.00021309363
0.00025086905
0.00030202598
0.00029277791
0.0002594518
0.00020896209
0.00017201203
0.00015054611
0.00012751989
0.00010642876
9.5994227e-05
8.3941403e-05
6.4882224e-05
5.6189614e-05
6.1524049e-06
4.0703008e-05
4.3621871e-05
5.6429545e-05
0.00010377104
0.00013545152
0.00017226961
0.0001907222
0.00025577282
0.00026533459
0.00029028144
0.00031560535
0.00033014897
0.00030548487
0.00024210606
0.00019733662
0.00016812494
0.00013364421
0.00010209158
8.9736166e-05
8.0498575e-05
6.9770093e-05
6.1518158e-05
8.1226502e-06
6.8021817e-05
8.4366467e-05
0.00010274658
0.00011079465
0.00017952227
0.00024524632
0.00028495862
0.00030268601
0.00031231741
0.00033192279
0.00035120832
0.00035671342
0.0003232892
0.00026019617
0.00021071839
0.00017540804
0.0001323925
9.5041981e-05
8.3227529e-05
7.9227593e-05
7.7444261e-05
7.3772892e-05
8.6906308e-06
6.9103869e-05
9.7234815e-05
0.00012132939
0.00015003004
0.00021039326
0.00027871707
0.0003355428
0.00037215397
0.00038854186
0.00039706452
0.00038967236
0.00036304763
0.00031359163
0.00026601514
0.00022750687
0.00019034889
0.00014031695
9.9488748e-05
8.4737287e-05
8.1386966e-05
8.2777174e-05
8.4552251e-05
7.0373603e-06
5.8983304e-05
9.6279737e-05
0.00014963472
0.00018914509
0.00025494459
0.00031904403
0.00036988027
0.00040750376
0.00043362036
0.00043791612
0.00041616611
0.00036839669
0.00030366374
0.00025809218
0.00023800119
0.00020456493
0.00014257537
0.00010144226
8.5637785e-05
8.25019e-05
8.4485589e-05
9.2340198e-05
6.7395182e-06
5.768865e-05
8.1375439e-05
0.0001404282
0.000213034
0.00028353662
0.00034627602
0.00038656761
0.00041302218
0.00044239125
0.00047072342
0.00047269256
0.00043736573
0.00037043947
0.00031176319
0.00027461648
0.00023643721
0.00017746715
0.00013018543
0.00010455095
9.0450784e-05
8.507924e-05
8.7706717e-05
7.3751964e-06
6.9438487e-05
0.00011810209
0.00016373979
0.0002150652
0.00028596059
0.00035554904
0.00040314989
0.00042892296
0.00045111183
0.00047971609
0.00050441432
0.00049914589
0.0004566423
0.0003968422
0.00034122176
0.00029068397
0.00022578793
0.00016481458
0.00012878394
0.00010763454
9.5335799e-05
9.2826318e-05
7.4846696e-06
7.0417235e-05
0.00012113753
0.00016668413
0.00021303966
0.00027735892
0.0003506284
0.00041343053
0.00045714035
0.00048481737
0.00050643296
0.00052311399
0.00052496612
0.00050752342
0.00046592938
0.00041436394
0.00035645059
0.00028715903
0.00021526228
0.00016091293
0.00012792221
0.0001081025
0.00010064476
6.1501572e-06
6.6621861e-05
0.00012133201
0.0001723158
0.00021972384
0.00027827891
0.00034589689
0.00041197918
0.00046904181
0.00051298116
0.00054259696
0.00055455052
0.00054815146
0.00053015478
0.0005024428
0.00046917503
0.00042523635
0.00036595698
0.00029249099
0.00022236265
0.00016541849
0.000128973
0.00010717478
5.6944241e-06
6.3107776e-05
9.3420102e-05
0.00016620881
0.00022726492
0.00028611548
0.00034869542
0.00040697756
0.00046047485
0.00051003327
0.00055276447
0.00057937011
0.00058345058
0.00056803333
0.00054460289
0.00051682634
0.00048603865
0.00044259279
0.00038120019
0.00030875397
0.00023694808
0.00017398858
0.00012349473
6.0476615e-06
6.3102488e-05
0.0001177141
0.00017243308
0.00022473501
0.0002833793
0.00034584924
0.0004025374
0.00045235888
0.0004988922
0.00054473354
0.00058498238
0.00061069309
0.00061749853
0.00060484759
0.00058211403
0.00055146764
0.00051309669
0.00046093964
0.00039569851
0.00032231307
0.00025508841
0.00017406574
6.0593612e-06
6.2331459e-05
0.00011607197
0.00016884887
0.00021753933
0.00027268338
0.00033445325
0.0003948606
0.00044992493
0.00049957893
0.00054531255
0.00058631704
0.00061935632
0.00064042136
0.00064766138
0.00063764604
0.00061501944
0.00058262552
0.00053870181
0.00048267666
0.00041617268
0.00035470855
0.0002578736
5.2788939e-06
5.6025674e-05
0.00010963125
0.00016430948
0.00021342329
0.00026563452
0.00032369831
0.00038277184
0.00044019276
0.00049394248
0.00054293819
0.00058535357
0.00061947695
0.00064425538
0.00065932921
0.00066426262
0.0006567895
0.00063808958
0.00061088661
0.00057203534
0.00051997549
0.00046631882
0.00036920362
4.9581552e-06
5.3150591e-05
0.00010333268
0.0001573994
0.00020771343
0.00025942801
0.00031365916
0.00036741646
0.00042027857
0.00047161443
0.00052098163
0.00056716115
0.0006082732
0.00064236727
0.00066771886
0.00068380794
0.0006909422
0.00068711732
0.00067108428
0.00064685268
0.00061142722
0.00056842647
0.0004843652
5.1453946e-06
5.0786965e-05
9.8846417e-05
0.00014957221
0.00019749038
0.00024660241
0.00029731783
0.00034818743
0.00039854036
0.00044842521
0.00049743672
0.00054508229
0.00059044456
0.00063181219
0.00066708703
0.0006939015
0.00071124371
0.00071978161
0.0007180444
0.00070222159
0.00067789961
0.00064629202
0.00058359948
5.0524975e-06
5.3966804e-05
0.00010026514
0.00014655283
0.00019049771
0.00023539929
0.0002818941
0.00033000736
0.00037956301
0.00042981655
0.00047963432
0.00052754938
0.00057245808
0.00061358599
0.00065023927
0.00068142357
0.00070615282
0.00072391431
0.00073502818
0.00073924854
0.00072988554
0.00071096062
0.0006712477
4.8342922e-06
5.5179623e-05
0.00010403354
0.00014979097
0.00019222395
0.00023441565
0.00027700298
0.00032059088
0.00036542775
0.00041144544
0.00045782668
0.00050333932
0.00054680325
0.00058753341
0.00062547534
0.00066051762
0.00069205793
0.00071907081
0.00074073404
0.0007569987
0.00076781919
0.00076608517
0.00074232126
4.7689194e-06
5.5332791e-05
0.00010420489
0.00014889789
0.00019065311
0.00023153262
0.00027195608
0.00031241438
0.00035309502
0.00039433891
0.00043627897
0.00047862312
0.00052091092
0.00056249341
0.00060287448
0.0006415432
0.00067752302
0.0007095297
0.0007364346
0.00075778248
0.00077408156
0.00078613012
0.00078158269
4.9391993e-06
5.5818092e-05
0.00010286105
0.00014901451
0.00018956222
0.00022814098
0.00026635291
0.00030448126
0.00034280616
0.00038176317
0.00042144742
0.00046179444
0.00050228944
0.00054237361
0.00058136695
0.00061874563
0.0006538831
0.00068616006
0.00071496253
0.00074004031
0.00076171784
0.00078061867
0.00079092128
4.7283205e-06
4.9475713e-05
9.4255492e-05
0.000141487
0.00018494051
0.00022511749
0.00026335777
0.00030071466
0.00033743959
0.00037395099
0.0004107455
0.00044774892
0.00048479686
0.00052147148
0.00055738578
0.00059232023
0.00062611426
0.00065875575
0.0006900356
0.00071946548
0.00074668954
0.00077144423
0.00079061079
4.9769953e-06
4.7827165e-05
8.9183234e-05
0.00013758352
0.00018426546
0.00022708449
0.00026666558
0.00030384396
0.00033942583
0.0003741373
0.00040814399
0.00044192726
0.00047559376
0.00050909785
0.00054232482
0.00057504363
0.0006070581
0.00063836943
0.00066878164
0.00069795291
0.00072540472
0.00075083811
0.00077276141
4.9345983e-06
3.7648189e-05
7.9108394e-05
0.00013444419
0.00018567454
0.0002332524
0.00027632892
0.0003153431
0.00035137739
0.00038539021
0.00041815287
0.00044948992
0.00047986473
0.00050958924
0.00053876543
0.00056755288
0.00059583147
0.00062345094
0.00065033182
0.0006763921
0.00070155793
0.00072596637
0.00074898031
5.3153244e-06
4.395884e-05
8.8186708e-05
0.00014534276
0.00020241001
0.0002539194
0.00029978059
0.00034025578
0.00037623191
0.00040882218
0.0004393428
0.00046808796
0.00049532367
0.00052155502
0.00054710052
0.00057218906
0.00059694845
0.00062121233
0.00064478667
0.00066764252
0.00069009221
0.00071291365
0.00073693274
5.43366e-06
4.5525078e-05
9.8272299e-05
0.00016404381
0.00022544104
0.00027937718
0.00032626351
0.00036761231
0.00040444584
0.00043706764
0.00046658563
0.00049407405
0.00051980608
0.0005445404
0.00056851246
0.00059192625
0.00061495936
0.00063762871
0.00065970508
0.00068098338
0.00070161428
0.00072256848
0.00074505293
5.7502273e-06
5.1491763e-05
0.00010500089
0.00017228438
0.000236977
0.00029451146
0.00034497228
0.00038906271
0.00042767734
0.00046180796
0.00049226316
0.00052082508
0.00054767483
0.00057381834
0.00059936051
0.00062409582
0.00064814015
0.00067162992
0.0006947468
0.00071740148
0.00073941617
0.00076087945
0.00078151603
5.8258869e-06
4.2928105e-05
9.2275662e-05
0.0001602396
0.00022851853
0.00029074028
0.00034585188
0.00039418034
0.0004367816
0.00047517319
0.00051073688
0.00054424297
0.00057497942
0.00060343809
0.0006304918
0.00065657671
0.00068187704
0.00070654568
0.00073077081
0.00075472071
0.00077830889
0.00080144803
0.0008233018
6.3325238e-06
3.9754019e-05
8.1554078e-05
0.00014511048
0.00021326108
0.00027830067
0.00033845888
0.00039329452
0.00044270881
0.00048712077
0.00052675685
0.00056297708
0.0005957122
0.00062574692
0.00065423674
0.00068195508
0.00070878669
0.00073447977
0.00075888801
0.0007820959
0.00080404084
0.00082496967
0.00084533487
6.2127782e-06
4.0603145e-05
8.6649555e-05
0.00015134237
0.00022026322
0.00028707488
0.00034894217
0.00040501577
0.00045559615
0.00050108329
0.00054217175
0.00057970539
0.00061344042
0.00064464377
0.00067312395
0.00069885649
0.00072212987
0.00074284415
0.00076097122
0.00077748873
0.00079360632
0.00080928479
0.00082650869
6.3402566e-06
5.0282285e-05
0.00010978192
0.00018111919
0.00025168974
0.00031822248
0.00037928239
0.00043470298
0.0004847708
0.00052992647
0.00057013746
0.00060517621
0.000635098
0.00065985724
0.00068003325
0.00069578163
0.00070787556
0.00071788911
0.00072632911
0.00073272118
0.00073705598
0.0007400612
0.00072322116
6.2843998e-06
6.6479138e-05
0.00014680654
0.00023183211
0.00030951991
0.00037817723
0.00043809767
0.00048976978
0.0005337813
0.00057042662
0.00060055091
0.000624145
0.00064160415
0.00065309035
0.0006596238
0.00066276952
0.00066266995
0.00065837646
0.00064989118
0.00063768389
0.00062188098
0.00060442854
0.00054628504
6.2728932e-06