/*--------------------------------*- C++ -*----------------------------------*\
| =========                 |                                                 |
| \\      /  F ield         | OpenFOAM: The Open Source CFD Toolbox           |
|  \\    /   O peration     | Version:  2406                                  |
|   \\  /    A nd           | Website:  www.openfoam.com                      |
|    \\/     M anipulation  |                                                 |
\*---------------------------------------------------------------------------*/
FoamFile
{
    version     2.0;
    format      ascii;
    arch        "LSB;label=32;scalar=64";
    class       volScalarField;
    location    "180";
    object      T;
}
// * * * * * * * * * * * * * * * * * * * * * * * * * * * * * * * * * * * * * //

dimensions      [0 0 0 1 0 0 0];

internalField   nonuniform List<scalar> 
20580
(
1.0026942
1.0010543
1.0009499
1.0016398
1.0023125
1.0017038
1.0022014
1.0021788
1.0017774
1.0021571
1.002034
1.0024698
1.0020232
1.0020598
1.0023878
1.0023639
1.0017074
1.0030934
1.0025964
1.0010305
1.0026185
1.0031613
1.0016893
1.000891
1.0039152
1.0035785
1.0003919
1.0017159
1.0013783
0.99729112
1.0002902
1.0025804
1.0010145
1.0007318
1.001552
1.0022726
1.0016722
1.0021586
1.0024434
1.0017308
1.0021257
1.0020938
1.002422
1.0018336
1.0020842
1.0024983
1.0019962
1.0018115
1.0035953
1.0017426
1.0010484
1.0035475
1.0027707
1.0014627
1.0017864
1.0048327
1.0035855
0.99829217
0.99950095
1.0033104
1.0002499
0.99759997
1.0023435
1.0012989
1.001038
1.0016592
1.0021338
1.0018204
1.0020341
1.0024465
1.0019463
1.0020015
1.0022019
1.0022852
1.0018143
1.0021362
1.0025898
1.0017962
1.0020019
1.0037598
1.0011097
1.001172
1.0039579
1.0021979
1.0012062
1.0020048
1.0045045
1.0033109
0.99743753
0.99771734
1.0041482
1.0041778
0.99704359
1.0020782
1.0017764
1.001697
1.0019117
1.0019145
1.0020157
1.0019131
1.00214
1.0021765
1.0018613
1.0022726
1.0022126
1.0018475
1.0022492
1.0025566
1.0017292
1.0021875
1.003505
1.0008071
1.0015969
1.0039265
1.0013281
1.0010601
1.0018549
1.0030716
1.0027369
0.99825956
0.99734479
1.0036577
1.0070226
0.99966475
1.0017811
1.0023316
1.0024303
1.0021685
1.0016521
1.0020998
1.001901
1.0017035
1.0022033
1.0018084
1.0022374
1.0021532
1.0019758
1.002361
1.0024259
1.0018896
1.0023539
1.0028039
1.0008459
1.0022431
1.003596
1.0003841
1.0012599
1.0020606
1.0010453
1.0016689
1.0002691
0.99849111
1.0021393
1.0069
1.0035653
1.0015176
1.0025744
1.0028911
1.0023006
1.0014314
1.0020226
1.0019552
1.0014845
1.0021153
1.0019067
1.0021648
1.0019873
1.0021524
1.0024179
1.0022137
1.0020901
1.0025862
1.0020201
1.0011274
1.0028617
1.0029523
0.99982699
1.0018627
1.0028266
0.99949204
1.000312
1.0023925
1.0009814
1.0004504
1.0034885
1.0051645
1.0015321
1.0024646
1.0028612
1.0022757
1.001461
1.0018631
1.0019782
1.0016203
1.0020028
1.0021332
1.0020857
1.0018263
1.0023043
1.0023683
1.0019834
1.0022233
1.0028141
1.0013295
1.0015905
1.0033514
1.0022319
0.99960966
1.0024387
1.0038843
0.99915273
0.99900212
1.0036801
1.0039154
0.99948227
0.99849694
1.0025727
1.0018449
1.0021176
1.0023355
1.0020964
1.0017805
1.0017692
1.0019178
1.0019672
1.0018692
1.0023375
1.001995
1.0017259
1.0023817
1.0023171
1.0018059
1.0022612
1.0028551
1.0008602
1.0020253
1.0034298
1.0017558
0.99991435
1.0026961
1.004596
0.99993052
0.99826816
1.0037281
1.0060061
1.0000129
0.99465239
0.99695071
1.0023453
1.0017043
1.0015888
1.0018324
1.0021887
1.0018576
1.0018207
1.0022659
1.0017942
1.0023865
1.0019376
1.0018142
1.0023468
1.0021963
1.0017403
1.0022344
1.0027616
1.0007659
1.0025169
1.0031067
1.0012369
1.0006715
1.0026306
1.0042621
1.0011776
0.99859971
1.0025073
1.0059763
1.0017992
0.99437425
0.99291533
1.0024844
1.0012843
1.000904
1.0015346
1.0023961
1.0019571
1.0017834
1.0023049
1.0018269
1.0022498
1.0019055
1.002044
1.0022143
1.0020805
1.0018446
1.0021675
1.0025348
1.0010965
1.0029914
1.0025608
1.0007219
1.0018642
1.0024159
1.0026019
1.0021
1.0001634
1.0009435
1.0034161
1.0030793
0.99758368
0.99371304
1.0023477
1.0008791
1.000458
1.0012451
1.0021765
1.0018378
1.0017983
1.0020679
1.0019806
1.0020228
1.0019788
1.002284
1.0020977
1.0019869
1.0021099
1.0021294
1.0022206
1.0015679
1.0032444
1.0019196
1.0004737
1.0031759
1.0023701
1.000346
1.0021213
1.002472
1.0003002
0.99980648
1.001978
1.0021256
0.99901845
1.0022407
1.0009688
1.0006434
1.0012493
1.001755
1.001629
1.0018774
1.0017371
1.0022219
1.0018298
1.0021188
1.0024233
1.0020862
1.0019571
1.0024677
1.0022591
1.001864
1.0020337
1.0033387
1.0013419
1.0002755
1.0040799
1.0026336
0.9984902
1.0009732
1.0043297
1.0010842
0.99722241
0.99879391
1.0039392
1.0049936
1.0020437
1.0013306
1.0013394
1.0014874
1.0013123
1.0014195
1.0019658
1.0016259
1.002368
1.0017671
1.0021879
1.0023894
1.002096
1.0020055
1.0026871
1.0024053
1.0015709
1.0024819
1.0031549
1.0012203
1.0003398
1.0043513
1.0030045
0.99770418
0.99957637
1.0047652
1.0027054
0.99675525
0.99603205
1.0020869
1.0072502
1.0015751
1.00178
1.0021909
1.0018553
1.0010899
1.0013867
1.0019374
1.0018372
1.0022685
1.0018391
1.0021418
1.0022961
1.0020585
1.0020638
1.0026709
1.0024457
1.0014217
1.0027158
1.002626
1.0013405
1.0007819
1.0039633
1.0031053
0.99836371
0.99922636
1.003923
1.003848
0.99832399
0.99584756
0.99919214
1.0050708
1.0011524
1.0019495
1.00262
1.002081
1.0011608
1.0016245
1.0018057
1.0021472
1.0019612
1.0019467
1.0020487
1.0021825
1.0020379
1.0021667
1.0024638
1.0023883
1.0014896
1.0027881
1.0018764
1.0015219
1.0015975
1.0029251
1.0025823
1.0000513
1.0001801
1.002469
1.0033939
1.0009506
0.99822251
0.99835842
1.0008236
1.0011937
1.0019869
1.0024762
1.0021043
1.0014769
1.0019761
1.0016381
1.0022206
1.0016314
1.0020392
1.0019018
1.001956
1.001961
1.0021899
1.0019952
1.0022187
1.0017149
1.0027748
1.0010805
1.0017761
1.0026941
1.0017959
1.0012826
1.0018834
1.0021877
1.0014008
1.0013356
1.0026788
1.0021418
1.0000626
0.99809842
1.0016376
1.0018169
1.0019683
1.0019545
1.0018933
1.0022187
1.0016494
1.0020754
1.0014864
1.0021612
1.0018067
1.0016906
1.0018729
1.0021405
1.0015168
1.001971
1.0018878
1.0026716
1.0004085
1.0018773
1.003583
1.0010047
0.99958157
1.0027503
1.0041962
1.001001
0.99856131
1.0017586
1.0049513
1.0029164
0.9981582
1.0022235
1.0015775
1.0012535
1.0016405
1.002199
1.002101
1.0017735
1.0017229
1.0016546
1.0021889
1.0018791
1.0015341
1.0018567
1.0021253
1.0013496
1.0017078
1.0019742
1.0025675
1.0002133
1.0017686
1.0039795
1.0007473
0.99833046
1.002426
1.005269
1.0010097
0.99661726
0.99894697
1.0045814
1.0048896
0.99969392
1.0024661
1.0012896
1.0006269
1.0011973
1.002104
1.0015277
1.001798
1.0013194
1.0018058
1.0019222
1.0019247
1.0014204
1.0017668
1.0020493
1.0014514
1.0014838
1.0020147
1.0023762
1.0005893
1.0016169
1.0037985
1.0010462
0.99833984
1.0016026
1.0051222
1.001354
0.99670873
0.99745289
1.0020352
1.0045002
1.0013387
1.002543
1.0011654
1.0004558
1.0010424
1.0018034
1.0010473
1.0016756
1.0010844
1.0017644
1.001418
1.0018242
1.0014036
1.0016621
1.0019353
1.0016364
1.0014042
1.0020078
1.0019986
1.0012131
1.0016483
1.0027643
1.0016346
0.99948027
1.0013051
1.0034156
1.0017364
0.99836648
0.99839648
1.0000952
1.0020916
1.0017064
1.0024092
1.0013639
1.0010882
1.0013818
1.0016162
1.0011045
1.0015684
1.0012922
1.0017818
1.0013316
1.0017593
1.0016219
1.00169
1.0017566
1.0018601
1.0015735
1.0019796
1.001474
1.0020006
1.0019049
1.0013987
1.0018246
1.0014033
1.0018166
1.0014948
1.0010571
1.0011727
1.0012457
1.0003198
0.9995782
1.0007137
1.0018968
1.0017643
1.0021203
1.001881
1.0014611
1.0016115
1.0015056
1.0017725
1.0015337
1.0015637
1.0015579
1.0017814
1.0016976
1.0014237
1.0019582
1.0017575
1.0019588
1.0008068
1.002536
1.0022158
1.0000695
1.0011589
1.0031024
1.0025022
0.99983321
0.99905305
1.0024831
1.0040797
1.0015205
0.99775222
0.99833214
1.0011442
1.001939
1.0022984
1.001781
1.0007975
1.0017739
1.0011121
1.0012614
1.0012438
1.0015812
1.0009389
1.0014284
1.0013652
1.000749
1.0017158
1.0016797
1.0017266
1.0000969
1.0024465
1.0023677
0.99913235
1.0000113
1.0034223
1.0031428
0.999051
0.99722563
1.0014253
1.0053902
1.0027367
0.99732098
0.99618274
1.000719
1.0019533
1.001575
0.99913115
0.99595267
0.99379065
0.99470959
0.99842203
1.0030091
1.0056374
1.0050734
1.0016915
0.99772709
0.99655041
0.99936057
1.0032318
1.0039404
0.99947789
0.99352637
0.99163115
0.99552385
1.0027803
1.0089785
1.0036217
1.0031015
1.0015258
0.99943546
0.99843277
0.99878671
0.99967657
1.000267
0.99924127
0.9962893
0.99363529
0.99414736
0.99782166
1.0027801
1.0069269
1.0076821
1.0038004
0.9973118
0.99236047
0.99248849
0.99670392
1.0021576
1.0045632
0.99409298
0.99547898
0.99869236
1.0025752
1.0056503
1.0070521
1.0061207
1.002472
0.99676051
0.9919084
0.99122465
0.99474271
0.99976664
1.0026756
1.0017215
0.99839684
0.99593461
0.99649886
0.99972609
1.0035404
1.0061104
1.0044363
0.99805487
0.98950229
0.99377043
0.99852112
1.0018101
1.002842
1.0017468
0.99927678
0.9973478
0.99733245
0.99910498
1.0021016
1.0049433
1.005192
1.0007953
0.99226634
0.98569765
0.98593637
0.99272598
1.0021712
1.0087803
1.0095425
1.0047058
0.99730233
1.0007733
1.0025386
1.001922
0.99815817
0.99254306
0.98743191
0.98666877
0.99053182
0.99734575
1.0037457
1.0074808
1.008487
1.0058909
0.99987692
0.99251811
0.98834571
0.99014013
0.99594902
1.0007948
1.0008339
0.99582052
0.99182413
0.99212373
1.0069707
1.0054868
1.0020165
0.99699734
0.99158333
0.98888143
0.99044485
0.99481527
0.99882915
0.99993592
0.99678322
0.99309128
0.99152202
0.9933881
0.9977674
1.0015375
1.0051923
1.0068988
1.0044311
0.99493975
0.98267761
0.97718592
0.9812084
0.99186256
0.99319804
0.99576878
0.99887437
1.0015681
1.0037068
1.0054848
1.0064223
1.0033389
0.995672
0.98514289
0.97682161
0.97778462
0.9857434
0.99676935
1.0052839
1.0090052
1.0094376
1.005259
0.99666398
0.98649128
0.98050819
0.98306665
0.97875875
0.98318643
0.99085444
0.99906201
1.0047512
1.0077407
1.0075387
1.0059041
1.0021771
0.99616072
0.98835216
0.98269871
0.98389041
0.98990887
0.99636478
0.99785175
0.99374864
0.98930936
0.98868571
0.99189383
0.99597307
0.99678104
0.99959883
0.98616858
0.99228161
0.996965
0.99841686
0.99458364
0.98851419
0.98463194
0.98606093
0.99095814
0.99651133
0.99950894
0.9998289
1.0010449
1.004085
1.0028319
0.99400538
0.97884266
0.96685561
0.96759866
0.97724779
0.99161533
1.0037898
1.0108287
1.0066229
1.0060897
1.0019299
0.99379994
0.98358323
0.97350176
0.96683159
0.96809149
0.97657931
0.99038128
1.0023931
1.007874
1.0089963
1.0085686
1.0047873
0.99581657
0.98165804
0.96731537
0.96379595
0.97113289
0.98453542
0.99640099
1.0005037
1.0055319
1.0050231
1.0015158
0.99478873
0.98458324
0.97361112
0.96792701
0.9715816
0.98066039
0.99123555
0.99617384
0.99290198
0.98790454
0.98825872
0.99277551
0.9961751
0.99227795
0.98356681
0.97851845
0.98241727
0.98954146
0.99165816
0.98463431
0.97718905
0.98326317
0.99105089
0.99582717
0.99505893
0.98972651
0.98513241
0.98783601
0.99302666
0.99603774
0.99073677
0.9759304
0.96019469
0.95681053
0.96498026
0.98096567
0.99591757
1.0001588
0.99761898
0.99807296
0.99893907
0.99502702
0.97961996
0.95285953
0.96131792
0.97470169
0.98842667
0.99895903
1.002665
1.0024862
1.0028909
1.00159
0.99718525
0.98540711
0.96614511
0.9479689
0.93904203
0.94505479
0.96338997
0.9852707
0.99977334
1.0032708
1.00414
1.004227
0.99859416
0.98367904
0.94337506
0.95263993
0.96856622
0.98453078
0.99543352
0.99843404
0.99760425
0.99759907
0.99844635
0.99619514
0.9862721
0.96733546
0.94699772
0.93591055
0.94123842
0.95800437
0.97845702
0.99082415
0.99019678
0.98782044
0.99069451
0.99437146
0.98991879
0.94697474
0.9575212
0.97378731
0.98668906
0.98914662
0.98124565
0.97236743
0.97103381
0.97833425
0.98821044
0.98901016
0.97699319
0.95721413
0.94327853
0.9468082
0.96254735
0.97914392
0.98312177
0.97299195
0.96148484
0.96246267
0.97523783
0.98728225
0.95853338
0.96827048
0.98208966
0.98697693
0.97872945
0.95942567
0.94321841
0.93902423
0.95087553
0.9715409
0.98603151
0.98473613
0.96942984
0.95425951
0.95548549
0.96865193
0.98050285
0.97683391
0.95639577
0.93685839
0.93424111
0.94933974
0.97374501
0.96980187
0.97727612
0.98554628
0.98339179
0.9658526
0.94013634
0.91982429
0.91354742
0.92776699
0.95326784
0.97766947
0.9861477
0.97686287
0.96230337
0.96106574
0.97156033
0.97984184
0.97114936
0.94446963
0.91970339
0.91113664
0.92754311
0.9576311
0.97196386
0.97860143
0.98377208
0.97723769
0.95486571
0.925772
0.90277037
0.89458814
0.90936843
0.93784168
0.96753397
0.98263744
0.97795906
0.96451133
0.96046668
0.96939234
0.97632938
0.96499494
0.93476418
0.90697882
0.89454064
0.91169306
0.9455448
0.96706344
0.97421194
0.97889132
0.97012508
0.94477452
0.91323035
0.88809955
0.87904989
0.89545955
0.92668413
0.95925386
0.97745118
0.97446395
0.96031135
0.95494199
0.96429201
0.97017066
0.95677106
0.92529636
0.89540339
0.88093988
0.90039435
0.93830034
0.95771726
0.96655446
0.97213211
0.96330132
0.93603784
0.9013853
0.87369907
0.86349982
0.88127632
0.91621219
0.95239059
0.97260512
0.96875239
0.95251022
0.94630098
0.95711012
0.96368236
0.94786041
0.91350316
0.88223007
0.86898718
0.89320317
0.93563846
0.94251874
0.95461394
0.96330301
0.95595191
0.92810876
0.89030215
0.85936821
0.84874298
0.8686002
0.90691809
0.94683527
0.96739626
0.95966887
0.94018426
0.93527703
0.94833037
0.95414199
0.93571699
0.89847747
0.86711439
0.8582598
0.89018607
0.93761664
0.91659723
0.93499379
0.95169217
0.9498429
0.92178851
0.88047849
0.84599918
0.83590592
0.85837962
0.90017967
0.94227811
0.95882223
0.94467751
0.92203259
0.92213415
0.93788898
0.94222819
0.92002368
0.88098535
0.85286478
0.85550169
0.89413706
0.9441563
0.8770215
0.9018452
0.93117416
0.94070403
0.92146393
0.87922242
0.84001354
0.82914211
0.85348291
0.8973939
0.93751918
0.94433218
0.92097435
0.89638859
0.90539944
0.92640244
0.93100279
0.90440611
0.86424711
0.84056762
0.85947838
0.90735193
0.9514941
0.82181009
0.85075962
0.89510798
0.92589859
0.92501004
0.88895733
0.845903
0.83327963
0.85798687
0.89753504
0.92447623
0.91644041
0.88540705
0.86737334
0.88651825
0.91390511
0.91905975
0.8896236
0.85121963
0.84004311
0.87651573
0.92548182
0.94597602
0.74318737
0.77532502
0.8342669
0.89389359
0.92398125
0.91367668
0.87295482
0.85132795
0.86574174
0.88853735
0.89595786
0.87630305
0.84637823
0.83803789
0.86444967
0.89961396
0.90856455
0.88394649
0.85445704
0.85921166
0.90024741
0.92907199
0.91636476
0.65058508
0.68299201
0.75829558
0.85201342
0.9180211
0.92747015
0.88955887
0.85996294
0.85971809
0.86612117
0.85997828
0.83274375
0.80788987
0.81048955
0.84352383
0.88862284
0.90658811
0.88775938
0.86984545
0.88755628
0.9112219
0.90235375
0.86504052
0.6687492
0.67749613
0.71399308
0.7899776
0.86644532
0.89023898
0.86726019
0.8450803
0.84410486
0.8446275
0.83275075
0.80718409
0.79054312
0.80674078
0.84697703
0.89265679
0.90590497
0.88848844
0.88200589
0.89632388
0.88954055
0.85087114
0.82215215
0.75276259
0.73830349
0.72480762
0.73956096
0.79154293
0.82993701
0.82724572
0.82178709
0.83294381
0.84231391
0.83524318
0.81517251
0.80926459
0.83206948
0.86214428
0.8810856
0.8733116
0.86492581
0.87857419
0.88166696
0.85125743
0.81706264
0.80786713
0.78512814
0.77578552
0.75232144
0.74202514
0.76772194
0.80181541
0.80354725
0.81077965
0.83221487
0.85230487
0.85446814
0.84073747
0.83556283
0.84144529
0.84400822
0.83365551
0.82376819
0.84055257
0.86949725
0.86978697
0.83972475
0.82160007
0.84360028
0.76908685
0.78222694
0.78157042
0.7760043
0.79132479
0.81032685
0.81121313
0.81727987
0.83013585
0.84077421
0.84437336
0.84152944
0.83537492
0.82612436
0.81274742
0.79949714
0.8029709
0.83375319
0.86914254
0.87531274
0.85955952
0.85875706
0.87672513
0.75937895
0.77949648
0.79648287
0.81006007
0.82591807
0.83130755
0.82211948
0.81502297
0.80802714
0.803098
0.80778802
0.82120058
0.82912346
0.8237837
0.81026139
0.80494577
0.81770064
0.8450702
0.86624515
0.86907441
0.86888347
0.87526128
0.86538855
0.77908208
0.79341056
0.80274389
0.81144902
0.82311966
0.82722424
0.81901702
0.80340794
0.78770688
0.78104292
0.78821266
0.808109
0.82969783
0.83815703
0.83288924
0.82941946
0.83406399
0.83849838
0.83652196
0.8391379
0.85896024
0.87183449
0.85314168
0.80291509
0.80519662
0.8003361
0.79499268
0.79547162
0.80079463
0.8056514
0.80319936
0.79548877
0.79264463
0.79847894
0.81109555
0.82371258
0.83264312
0.83633639
0.83616176
0.83071058
0.8194763
0.81233777
0.82344685
0.85152588
0.86647215
0.85970883
0.80184848
0.80659222
0.7998134
0.78910112
0.78394128
0.78529528
0.79331361
0.80353519
0.81038365
0.81160049
0.81071161
0.80746999
0.80242111
0.8038295
0.81786466
0.83401967
0.83469839
0.82106545
0.81448415
0.82735259
0.84612323
0.85378459
0.85543365
0.79307076
0.7990205
0.80136935
0.79744421
0.79294268
0.79070116
0.79089291
0.79390271
0.80046109
0.80818776
0.80998795
0.80218428
0.79317632
0.79428637
0.8100023
0.8323747
0.84344541
0.84008919
0.83375233
0.83248829
0.83062496
0.83017524
0.84338083
0.79664603
0.79689296
0.79726161
0.79699193
0.79692628
0.79561828
0.79116146
0.78521449
0.7835766
0.78951923
0.79992041
0.80709855
0.80572772
0.80120403
0.80398509
0.81462948
0.82719716
0.83592825
0.84226434
0.84307976
0.8345936
0.82360236
0.82556834
0.8073724
0.80331141
0.79511868
0.78850854
0.7873052
0.78923283
0.79005703
0.78685913
0.78163013
0.78086289
0.78731591
0.79894935
0.80878224
0.81292646
0.81284771
0.81153388
0.8112347
0.8131066
0.82137473
0.83353348
0.83959594
0.8362581
0.83374463
0.80986918
0.80733062
0.79736448
0.78602466
0.77870059
0.77872811
0.78311384
0.78730678
0.78890993
0.78809947
0.78806042
0.79138382
0.797914
0.80530748
0.81100653
0.81280262
0.81032152
0.80638013
0.80753186
0.81593111
0.82917468
0.83606628
0.83812434
0.80586385
0.80530631
0.79972103
0.79132897
0.78371248
0.77944512
0.77981579
0.78380106
0.7888534
0.7922798
0.79310352
0.79170273
0.79025931
0.7914864
0.79617632
0.80333753
0.80894049
0.81071189
0.81160511
0.81553811
0.82327865
0.82998747
0.83292986
0.8084804
0.80558422
0.80070641
0.79537599
0.79059385
0.78675885
0.78323452
0.78129572
0.78204813
0.78524604
0.78915869
0.79140146
0.79113883
0.79000538
0.79108231
0.79543035
0.80228945
0.80873087
0.81311084
0.81686686
0.82128963
0.82516909
0.8277267
0.81743928
0.81206722
0.80273113
0.79467225
0.78970418
0.78697782
0.78527798
0.78277543
0.7805834
0.78055335
0.78321258
0.78758745
0.79165761
0.79419038
0.79574904
0.79773736
0.80055778
0.80372725
0.80621991
0.80832636
0.81120211
0.81497404
0.82025021
0.82070079
0.81663263
0.80670975
0.79597966
0.78803847
0.78483416
0.78479698
0.78548854
0.78568203
0.78554696
0.78596868
0.78765038
0.79028005
0.79305934
0.79546369
0.79760943
0.79957329
0.80108825
0.8020551
0.8025936
0.8040347
0.80728445
0.81352431
0.81869298
0.81687574
0.81049393
0.80212569
0.79462851
0.78965725
0.78776678
0.78813257
0.78914228
0.78990562
0.79021972
0.79039124
0.79064165
0.79115278
0.79193673
0.79317355
0.79515291
0.79776401
0.8005197
0.80287261
0.80499491
0.80761367
0.81202807
0.82032848
0.81844331
0.81407175
0.80842091
0.80275158
0.79784794
0.79403571
0.79144324
0.78999885
0.78939758
0.78944718
0.79002952
0.79114135
0.79252237
0.79381422
0.79492574
0.79612047
0.79789284
0.80027179
0.8028871
0.80513628
0.80703493
0.80918621
0.8246839
0.82218498
0.81709073
0.81110058
0.80559672
0.80103601
0.79759944
0.79502663
0.79316956
0.7921466
0.79181994
0.79220503
0.79336355
0.79507958
0.79698122
0.79848522
0.79942759
0.80005788
0.8008166
0.80189866
0.80314359
0.80426682
0.80550402
0.82458053
0.82244129
0.8176454
0.8122117
0.80698022
0.80292611
0.80018359
0.79873352
0.79818716
0.79814928
0.79827654
0.79827586
0.79812858
0.79803707
0.79821848
0.79867411
0.79924027
0.79983959
0.80062305
0.80175376
0.80318586
0.80466236
0.80604212
0.82217289
0.81999357
0.81655325
0.81281524
0.80942781
0.80646001
0.80409252
0.80234765
0.80122296
0.80050389
0.80006101
0.79979369
0.79950891
0.79928486
0.79927897
0.79970957
0.80060529
0.8017712
0.8030588
0.80442432
0.80579172
0.80701061
0.80791332
0.82245934
0.81867093
0.81459346
0.81102703
0.80810339
0.80575799
0.80386467
0.80225458
0.80081035
0.79972941
0.79911376
0.7990151
0.79940847
0.8001902
0.80124512
0.80247928
0.80374454
0.80485763
0.80569239
0.80626467
0.8067319
0.80720848
0.80769549
0.82108823
0.81590825
0.81070047
0.80647632
0.80313369
0.80075615
0.79924992
0.79840425
0.79800702
0.7979223
0.79810861
0.79867044
0.79949992
0.80050269
0.8014946
0.80241865
0.80323551
0.80395349
0.80457994
0.80521053
0.80599499
0.80704522
0.80832125
0.81717118
0.81097944
0.80494134
0.80032832
0.79698962
0.79462018
0.79310493
0.79230895
0.79215196
0.79236328
0.79294958
0.79377034
0.79484438
0.79601369
0.79723093
0.79844276
0.79970271
0.80110636
0.80268675
0.80439707
0.8061865
0.80795806
0.80967825
0.81292385
0.80519196
0.79740129
0.79148013
0.78736375
0.78455676
0.78279818
0.78192319
0.78178274
0.78223798
0.78316452
0.78451147
0.78616677
0.78810755
0.79024727
0.79247174
0.79472094
0.79699475
0.79926682
0.80149355
0.80356046
0.80542164
0.8073042
0.80455077
0.79682687
0.78726319
0.78022977
0.77554759
0.77260348
0.77090495
0.77021451
0.77039857
0.77116476
0.77247386
0.77412612
0.77601412
0.77815079
0.78051467
0.78311183
0.78582069
0.78854572
0.79123635
0.79389722
0.79650408
0.79905763
0.80186866
0.79036972
0.78140531
0.77245775
0.76642093
0.76274114
0.76054197
0.75942338
0.75910745
0.75936889
0.76014104
0.76136376
0.76299696
0.7649401
0.76713199
0.76957831
0.77229646
0.77522492
0.77825111
0.78127028
0.78426997
0.78732383
0.79051051
0.79410368
0.77540569
0.76482116
0.75689739
0.75246268
0.74994775
0.74869297
0.74825476
0.74841265
0.74896714
0.749866
0.7511449
0.75277585
0.75478051
0.75702051
0.75943501
0.76198556
0.76468727
0.76752981
0.7704464
0.77337169
0.77633034
0.77946469
0.78313365
0.76001711
0.74916032
0.74355262
0.74058739
0.73909941
0.73843641
0.73844278
0.73888001
0.73969627
0.74077592
0.74209533
0.74368087
0.74554645
0.74764613
0.74989352
0.75218212
0.75451636
0.756947
0.75954968
0.76230145
0.76512662
0.76800689
0.77118474
0.74734727
0.73943677
0.73431342
0.73171851
0.73053307
0.73012721
0.73023319
0.7307573
0.73169021
0.73293293
0.73443024
0.73613176
0.73804138
0.7401872
0.7425679
0.74514205
0.74780825
0.75051918
0.75329829
0.75618145
0.75908367
0.76187511
0.76456866
0.73510299
0.73052162
0.72661465
0.72444442
0.72360181
0.72357683
0.72410284
0.72514595
0.7267157
0.72872188
0.73104753
0.73359941
0.73629536
0.73912301
0.74212623
0.74531671
0.74866749
0.75206851
0.75543141
0.75876741
0.76206777
0.76520291
0.76776216
0.72502705
0.72181559
0.71943075
0.71875088
0.71936246
0.72077991
0.72262708
0.72474984
0.72710711
0.72982327
0.73294776
0.73642752
0.74020044
0.74424484
0.74857079
0.75319312
0.75803421
0.76295889
0.76784736
0.77266389
0.77738306
0.78184042
0.78525507
0.71678218
0.71526124
0.71612935
0.71784146
0.71988329
0.72235737
0.72531872
0.72874562
0.73266892
0.73707179
0.74196066
0.74730404
0.75308159
0.7592549
0.76577754
0.77258949
0.77963244
0.78683172
0.79410387
0.80134135
0.8083586
0.81482369
0.81947558
0.71192262
0.71444212
0.71730363
0.72072295
0.72470877
0.72919675
0.73416952
0.73965665
0.74570996
0.75235612
0.75957649
0.76730896
0.77551314
0.7841489
0.79317901
0.80254063
0.81217702
0.82204116
0.83207965
0.84214919
0.85195933
0.86088406
0.86680768
0.71245601
0.71671599
0.72228946
0.72826138
0.73461342
0.74138487
0.74865913
0.75651561
0.76499754
0.77408567
0.78373129
0.79390242
0.80459593
0.8157822
0.82737809
0.83928932
0.85147716
0.863952
0.87669477
0.889581
0.90241709
0.91462347
0.92192249
0.71564684
0.72280761
0.73118493
0.73947102
0.747927
0.75679183
0.76626536
0.77643417
0.78726853
0.79871508
0.81073917
0.82330278
0.83637604
0.8499122
0.86383881
0.8780772
0.89258125
0.90732442
0.92222109
0.93717022
0.95217135
0.9677372
0.97875837
0.72107353
0.73178543
0.74241892
0.75258282
0.76276572
0.77337567
0.78469688
0.7968224
0.80971141
0.82327086
0.8374031
0.85205039
0.86718679
0.88275078
0.89863458
0.91471202
0.93090072
0.94709725
0.96332076
0.97942082
0.99176954
0.99756031
0.99885231
0.72811107
0.74234541
0.75483458
0.76642596
0.77792639
0.78992121
0.80272163
0.81647178
0.83103555
0.84624038
0.8620095
0.87830594
0.89504161
0.91209736
0.92934825
0.94661663
0.96367404
0.98039109
0.99350559
0.99868548
0.99942897
0.99941723
0.99932827
0.73631322
0.75365581
0.76760774
0.78030723
0.79286985
0.80600858
0.82003071
0.83496132
0.85069296
0.86710261
0.88412651
0.90166531
0.91953517
0.93755988
0.95551457
0.97313466
0.98912579
0.99799004
0.99961465
0.99954867
0.99941606
0.99936804
0.99934117
0.74526614
0.76522172
0.78031688
0.79388105
0.80726525
0.82130229
0.83631848
0.85226062
0.86889794
0.88613932
0.903999
0.92235341
0.94098816
0.95957393
0.9774782
0.99229215
0.99881484
0.99970122
0.99963882
0.99947854
0.99936943
0.99932118
0.99931065
0.75447526
0.77674584
0.79274821
0.80689784
0.82084767
0.83559702
0.85145912
0.86824465
0.88560072
0.90346435
0.92189947
0.94081265
0.95987107
0.97813424
0.99257991
0.99875591
0.9997636
0.9999192
0.99978709
0.99943474
0.99914758
0.9991793
0.99945224
0.76393125
0.78780685
0.8043157
0.81906009
0.83365534
0.84892375
0.86519795
0.88244326
0.90040498
0.91896984
0.9380283
0.95730282
0.97606225
0.99125616
0.99831185
0.99969158
0.99986079
0.99979625
0.99969226
0.99957727
0.99940687
0.99924277
0.9991966
0.77302314
0.79836236
0.81521864
0.8301334
0.84498857
0.86070638
0.87756876
0.89533411
0.91360744
0.93248046
0.95199456
0.9714635
0.98828998
0.99723463
0.99927784
0.99960314
0.99979696
1.0000363
1.0000628
0.99967949
0.9992525
0.99915929
0.99941493
0.78174754
0.80797012
0.82486264
0.83997074
0.85519217
0.871237
0.88816651
0.90593792
0.92457483
0.94419145
0.96431062
0.98251942
0.99403794
0.99824745
0.99951992
0.99998906
1.0000865
1.0000193
0.99993902
0.99978167
0.99956573
0.99932473
0.9992788
0.78969605
0.81659849
0.83354795
0.84852623
0.86354505
0.8795335
0.89679753
0.91498437
0.93380097
0.95357836
0.97312834
0.98809394
0.99572617
0.99859262
0.99942753
0.99971006
0.9999788
1.0002477
1.0001915
0.99995038
0.99962152
0.99939952
0.99941678
0.79665239
0.82392752
0.8407478
0.85564768
0.87058076
0.88636061
0.90315282
0.92103606
0.94020195
0.96003897
0.97751366
0.98871113
0.994473
0.99742587
0.99907356
0.999865
1.0000581
1.0002277
1.0002164
1.0000992
0.99985431
0.99964624
0.99940298
0.80281449
0.83004162
0.84658727
0.86094778
0.87532096
0.89074905
0.90747662
0.92509468
0.94314622
0.96111763
0.97644423
0.98611108
0.99150854
0.99503183
0.99747813
0.9991029
0.99989397
1.0002322
1.0002469
1.0001174
0.99993739
0.99973692
0.99961775
0.80810801
0.83477274
0.85080295
0.86482384
0.87863398
0.89320185
0.90885722
0.92546527
0.94248983
0.95833875
0.97072144
0.97909059
0.98513378
0.98977007
0.99336047
0.99623945
0.99828887
0.99959557
1.0001714
1.00021
1.0000927
1.0000106
0.99989324
0.81248681
0.83849756
0.85411994
0.86751567
0.88038998
0.89372091
0.90810405
0.92328685
0.93798387
0.95053323
0.96015103
0.96760688
0.97402807
0.97973051
0.9847522
0.98925728
0.99306515
0.99598716
0.9980292
0.99922593
0.9996798
0.99974185
0.99995367
0.81647932
0.84143131
0.85603293
0.86859984
0.88051812
0.89272156
0.90532617
0.91796591
0.92966714
0.9393872
0.9468943
0.95309279
0.95880123
0.96417281
0.96940505
0.97487285
0.98053135
0.9858423
0.9901802
0.9935956
0.99617776
0.99787162
0.99890911
0.81908043
0.84315041
0.85687419
0.86839902
0.87918017
0.88976479
0.90032418
0.91049248
0.91951851
0.9268678
0.93259561
0.93729375
0.94161128
0.94584278
0.95015206
0.95493546
0.96048976
0.96668832
0.97283329
0.97829153
0.98314463
0.98768835
0.99202251
0.82095193
0.8432763
0.85611757
0.86689108
0.87660802
0.88558803
0.89408321
0.90201876
0.90894955
0.91449554
0.9186976
0.92200369
0.92489699
0.92771904
0.93068412
0.93404166
0.93814706
0.94304556
0.94849531
0.95411689
0.95982389
0.96592599
0.97271246
0.82161277
0.84276822
0.8545056
0.86411334
0.87279727
0.88066968
0.88768421
0.89382434
0.89900903
0.90306638
0.90598315
0.90809192
0.90989411
0.91169049
0.91350148
0.9154127
0.91775326
0.9208366
0.92460986
0.92882163
0.93337529
0.93858215
0.94481114
0.82148169
0.84109466
0.85197264
0.86052637
0.86808216
0.874947
0.8809561
0.88590812
0.8898
0.89277041
0.8949482
0.89644193
0.89745412
0.89828828
0.89917136
0.9001573
0.90123221
0.90255261
0.90438072
0.90684537
0.90991273
0.9135809
0.91794142
0.82430657
0.83907028
0.84851844
0.85607324
0.86259393
0.86836972
0.87343891
0.87770669
0.88108894
0.88361481
0.88540179
0.88657146
0.88723749
0.88756274
0.88774604
0.88791584
0.88808458
0.88829968
0.88875723
0.88970355
0.89123254
0.89326971
0.89571219
0.83000563
0.83674229
0.84414552
0.8504753
0.8560123
0.86092692
0.86529184
0.86909243
0.87224368
0.87467816
0.87642943
0.87760394
0.87829294
0.87855803
0.87848063
0.8781783
0.87777911
0.87736014
0.87705098
0.87702446
0.87739247
0.87808931
0.87899108
0.81674267
0.82898833
0.83651131
0.84235434
0.84735323
0.851769
0.85569683
0.85916731
0.86218475
0.86472651
0.86672975
0.86816878
0.86910322
0.86959648
0.86971238
0.86950149
0.86908241
0.86855914
0.86799261
0.86746351
0.8670435
0.86680935
0.86674869
0.79739053
0.81458326
0.82390696
0.83011711
0.83509154
0.83943714
0.84333795
0.8467641
0.84973385
0.85236483
0.85465925
0.85650107
0.85784815
0.85877716
0.85936123
0.85960666
0.85956192
0.85931248
0.85887897
0.85830337
0.85771834
0.85714608
0.85674033
0.78910001
0.79967235
0.80770664
0.813489
0.81818395
0.82232725
0.82606171
0.8293541
0.83227612
0.83494126
0.83730935
0.83933935
0.8410652
0.84251192
0.84365305
0.8444154
0.84484912
0.84509936
0.84511967
0.84491526
0.84457755
0.84437213
0.84445188
0.77809114
0.78329195
0.78703538
0.7900632
0.79291937
0.79581908
0.79865355
0.80116922
0.80341088
0.80573101
0.80800308
0.8099609
0.81175585
0.81345068
0.81498659
0.81629335
0.81737414
0.81828323
0.81902982
0.81955663
0.82006906
0.82065115
0.82176201
0.76291203
0.76470466
0.7638622
0.76339309
0.7638644
0.7651772
0.7669695
0.76870675
0.77023885
0.772185
0.77429358
0.77594279
0.77747353
0.779262
0.78109863
0.78256878
0.78385298
0.78541752
0.78679137
0.78798132
0.78916927
0.79043207
0.79208494
0.75182991
0.75148047
0.75049772
0.75058428
0.75170453
0.75364572
0.75590387
0.7579752
0.75979464
0.76193869
0.7642187
0.76597649
0.7675606
0.7694046
0.77116894
0.77254773
0.77394896
0.77557875
0.77690672
0.77801003
0.77930792
0.7805572
0.7809719
0.75006225
0.74955747
0.74998986
0.75145136