/*--------------------------------*- C++ -*----------------------------------*\
| =========                 |                                                 |
| \\      /  F ield         | OpenFOAM: The Open Source CFD Toolbox           |
|  \\    /   O peration     | Version:  2406                                  |
|   \\  /    A nd           | Website:  www.openfoam.com                      |
|    \\/     M anipulation  |                                                 |
\*---------------------------------------------------------------------------*/
FoamFile
{
    version     2.0;
    format      ascii;
    arch        "LSB;label=32;scalar=64";
    class       volScalarField;
    location    "14";
    object      alphat;
}
// * * * * * * * * * * * * * * * * * * * * * * * * * * * * * * * * * * * * * //

dimensions      [1 -1 -1 0 0 0 0];

internalField   nonuniform List<scalar> 
96472
(
8.5848668e-07
9.4957575e-07
9.161706e-07
8.4114431e-07
7.9640097e-07
7.9519896e-07
8.184098e-07
8.4156752e-07
8.4743008e-07
8.3160741e-07
8.0082148e-07
7.6690991e-07
7.4114904e-07
7.2895875e-07
7.3099129e-07
7.4279862e-07
7.5827361e-07
7.74106e-07
7.8725218e-07
7.9550733e-07
7.9600294e-07
7.9009349e-07
7.8239472e-07
7.7392972e-07
7.654436e-07
7.5859023e-07
7.5280223e-07
7.4893431e-07
7.4575122e-07
7.4371737e-07
7.4163336e-07
7.4073671e-07
7.399096e-07
7.4021005e-07
7.406849e-07
7.4273278e-07
7.4621497e-07
7.5300985e-07
7.6207918e-07
7.739115e-07
7.9128027e-07
8.052013e-07
8.1813704e-07
8.2085541e-07
8.2630252e-07
8.2724709e-07
8.2736571e-07
8.3080366e-07
8.4079265e-07
8.5411955e-07
8.7340528e-07
8.9416643e-07
9.1959826e-07
9.505322e-07
1.0016038e-06
8.5805618e-07
9.4617903e-07
9.1486379e-07
8.4100901e-07
7.9607622e-07
7.9419597e-07
8.1712976e-07
8.4064423e-07
8.4754181e-07
8.3285393e-07
8.0274588e-07
7.688019e-07
7.4225971e-07
7.290816e-07
7.2954723e-07
7.4037861e-07
7.5607163e-07
7.7211014e-07
7.8440646e-07
7.9131247e-07
7.924732e-07
7.8937268e-07
7.8256588e-07
7.7465193e-07
7.6613923e-07
7.5916544e-07
7.5338621e-07
7.4902462e-07
7.4589875e-07
7.4370087e-07
7.4180119e-07
7.404992e-07
7.397559e-07
7.3927205e-07
7.3908098e-07
7.3893684e-07
7.3902102e-07
7.3956822e-07
7.4091324e-07
7.4376132e-07
7.4830257e-07
7.5970013e-07
7.7545009e-07
7.9597982e-07
8.1121994e-07
8.2329178e-07
8.2643618e-07
8.3349721e-07
8.3833846e-07
8.5115123e-07
8.5917911e-07
8.7440451e-07
8.940864e-07
9.1032355e-07
9.5322486e-07
8.5768945e-07
9.4444369e-07
9.1483703e-07
8.416093e-07
7.960992e-07
7.9335598e-07
8.158588e-07
8.397451e-07
8.4767464e-07
8.3409168e-07
8.0466296e-07
7.7067722e-07
7.4345739e-07
7.2925712e-07
7.2880816e-07
7.3887741e-07
7.5439206e-07
7.7076993e-07
7.8431297e-07
7.9247693e-07
7.9429166e-07
7.9110167e-07
7.8440069e-07
7.761404e-07
7.6746421e-07
7.6040366e-07
7.5422948e-07
7.4982635e-07
7.4608687e-07
7.4404044e-07
7.419199e-07
7.4077734e-07
7.399311e-07
7.39943e-07
7.3989871e-07
7.4033872e-07
7.4096366e-07
7.4279909e-07
7.4371813e-07
7.4607597e-07
7.4745619e-07
7.5127518e-07
7.5524296e-07
7.6548318e-07
7.7420249e-07
7.9370546e-07
8.0585005e-07
8.2436895e-07
8.3153862e-07
8.4356662e-07
8.548784e-07
8.6346557e-07
8.7991946e-07
8.8983053e-07
9.170959e-07
8.5749101e-07
9.4384769e-07
9.1539923e-07
8.424124e-07
7.9620497e-07
7.925336e-07
8.1455824e-07
8.3879722e-07
8.4772916e-07
8.3527447e-07
8.0658238e-07
7.7258478e-07
7.4468449e-07
7.2951231e-07
7.2807125e-07
7.3744887e-07
7.5258302e-07
7.6894919e-07
7.8262754e-07
7.9121334e-07
7.9352744e-07
7.9123487e-07
7.8513106e-07
7.7748444e-07
7.6901947e-07
7.6166656e-07
7.5535622e-07
7.5077159e-07
7.4679389e-07
7.4434528e-07
7.4203176e-07
7.4060708e-07
7.3934865e-07
7.3896397e-07
7.3869319e-07
7.3880791e-07
7.3914338e-07
7.4059332e-07
7.4172255e-07
7.4485535e-07
7.4646512e-07
7.505255e-07
7.5266159e-07
7.5848564e-07
7.620878e-07
7.7210402e-07
7.7919527e-07
7.9369658e-07
8.1174879e-07
8.2334992e-07
8.4317173e-07
8.5172916e-07
8.6936518e-07
8.7914265e-07
8.999771e-07
8.5731866e-07
9.4330122e-07
9.1594905e-07
8.4323961e-07
7.9636009e-07
7.9176616e-07
8.1331899e-07
8.3787478e-07
8.4779167e-07
8.3644508e-07
8.0847914e-07
7.7449477e-07
7.459817e-07
7.2981074e-07
7.2735064e-07
7.3598891e-07
7.5086398e-07
7.6720319e-07
7.8142385e-07
7.9064593e-07
7.9371162e-07
7.9189982e-07
7.8607108e-07
7.7870198e-07
7.7010679e-07
7.6288415e-07
7.5629478e-07
7.5162399e-07
7.4744778e-07
7.4483959e-07
7.4240634e-07
7.408981e-07
7.3933794e-07
7.3886428e-07
7.384237e-07
7.3846052e-07
7.3858337e-07
7.3949726e-07
7.4024548e-07
7.4278272e-07
7.4421916e-07
7.4832053e-07
7.5076122e-07
7.5465605e-07
7.5990552e-07
7.6429332e-07
7.7171762e-07
7.7724495e-07
7.9006093e-07
7.9817908e-07
8.1560493e-07
8.259404e-07
8.4667846e-07
8.5629003e-07
8.792363e-07
8.5719131e-07
9.4301952e-07
9.1661384e-07
8.441094e-07
7.9655236e-07
7.9105529e-07
8.1212925e-07
8.3698835e-07
8.4784209e-07
8.3759982e-07
8.1036746e-07
7.7643403e-07
7.4733689e-07
7.3020601e-07
7.2676937e-07
7.3456923e-07
7.4916412e-07
7.6540109e-07
7.8002276e-07
7.8974963e-07
7.9379784e-07
7.9256881e-07
7.8736264e-07
7.8005666e-07
7.7167852e-07
7.6401889e-07
7.573753e-07
7.5237116e-07
7.4802723e-07
7.4506197e-07
7.4259196e-07
7.4095608e-07
7.3930266e-07
7.3852143e-07
7.3782936e-07
7.3777354e-07
7.3772343e-07
7.3801803e-07
7.3856862e-07
7.3981869e-07
7.4211536e-07
7.4387872e-07
7.4794848e-07
7.5072301e-07
7.5652905e-07
7.5980271e-07
7.6690126e-07
7.7127686e-07
7.8026359e-07
7.8561269e-07
7.9810795e-07
8.0532583e-07
8.2059798e-07
8.299968e-07
8.5193946e-07
8.570605e-07
9.4257026e-07
9.1715963e-07
8.449557e-07
7.9679586e-07
7.9043189e-07
8.1104412e-07
8.3615102e-07
8.4789608e-07
8.3874001e-07
8.1226209e-07
7.7842925e-07
7.4879155e-07
7.3068147e-07
7.2628372e-07
7.3325278e-07
7.4735339e-07
7.6357026e-07
7.7855322e-07
7.8893323e-07
7.9349504e-07
7.9299649e-07
7.8826907e-07
7.8120402e-07
7.7312482e-07
7.6525275e-07
7.585114e-07
7.5324264e-07
7.4896424e-07
7.4561274e-07
7.431429e-07
7.4135906e-07
7.3969628e-07
7.3849416e-07
7.3774483e-07
7.3746133e-07
7.3736196e-07
7.3738704e-07
7.3779003e-07
7.3851152e-07
7.4040905e-07
7.4175076e-07
7.4502257e-07
7.4710078e-07
7.5196016e-07
7.5495226e-07
7.6151975e-07
7.6503568e-07
7.7324645e-07
7.7807369e-07
7.8753547e-07
7.9300611e-07
8.0526341e-07
8.1206632e-07
8.2808945e-07
8.5696802e-07
9.4240691e-07
9.1781565e-07
8.4584634e-07
7.9709792e-07
7.8990786e-07
8.1004591e-07
8.3535562e-07
8.479508e-07
8.3985988e-07
8.1417071e-07
7.8048476e-07
7.5032679e-07
7.3127208e-07
7.2581046e-07
7.3197586e-07
7.4558283e-07
7.6172127e-07
7.7708605e-07
7.8819701e-07
7.9343268e-07
7.9335353e-07
7.8916806e-07
7.823484e-07
7.7424046e-07
7.6634156e-07
7.5945513e-07
7.5387918e-07
7.4969657e-07
7.4618918e-07
7.4348454e-07
7.4148791e-07
7.398079e-07
7.3842653e-07
7.3753746e-07
7.370155e-07
7.3685441e-07
7.3675659e-07
7.3686421e-07
7.3724731e-07
7.3863939e-07
7.3972933e-07
7.4251002e-07
7.4428047e-07
7.48488e-07
7.509083e-07
7.5640217e-07
7.5978865e-07
7.6696001e-07
7.7059076e-07
7.793451e-07
7.8410512e-07
7.9387485e-07
7.9942846e-07
8.1274381e-07
8.5687596e-07
9.4223751e-07
9.1838193e-07
8.4667756e-07
7.9741904e-07
7.8943685e-07
8.0908897e-07
8.3460005e-07
8.4802753e-07
8.4100445e-07
8.161212e-07
7.8258024e-07
7.518911e-07
7.3189777e-07
7.2535075e-07
7.3068924e-07
7.4388228e-07
7.5983846e-07
7.754448e-07
7.8717551e-07
7.9310725e-07
7.9355982e-07
7.8978184e-07
7.8321945e-07
7.7537046e-07
7.6734692e-07
7.6041447e-07
7.5461264e-07
7.502932e-07
7.4674666e-07
7.4393923e-07
7.4184221e-07
7.4027883e-07
7.388161e-07
7.3768645e-07
7.3696184e-07
7.3662757e-07
7.3646664e-07
7.3644013e-07
7.3656835e-07
7.3752691e-07
7.3828636e-07
7.4035754e-07
7.4180758e-07
7.4513444e-07
7.4725509e-07
7.5222865e-07
7.5487095e-07
7.6091242e-07
7.6452736e-07
7.7199868e-07
7.7582688e-07
7.8476094e-07
7.893199e-07
8.0059953e-07
8.5683322e-07
9.4229833e-07
9.1918339e-07
8.4767142e-07
7.9785873e-07
7.8906916e-07
8.0822647e-07
8.339095e-07
8.4811452e-07
8.4213322e-07
8.1804759e-07
7.8467603e-07
7.535099e-07
7.32606e-07
7.2505837e-07
7.2955014e-07
7.4217357e-07
7.5799758e-07
7.7371334e-07
7.8609728e-07
7.9249153e-07
7.9364247e-07
7.9047533e-07
7.8417737e-07
7.7657827e-07
7.6844413e-07
7.6133457e-07
7.5545261e-07
7.5081727e-07
7.4719857e-07
7.4432284e-07
7.4211318e-07
7.4052885e-07
7.3899269e-07
7.377052e-07
7.3680463e-07
7.3628583e-07
7.3608281e-07
7.3593804e-07
7.3594173e-07
7.364e-07
7.3701325e-07
7.3877157e-07
7.3988009e-07
7.4276185e-07
7.4461787e-07
7.4847291e-07
7.5090873e-07
7.562172e-07
7.5919441e-07
7.6532109e-07
7.691175e-07
7.7670041e-07
7.8060723e-07
7.9021966e-07
8.5679004e-07
9.4236102e-07
9.1977824e-07
8.4849714e-07
7.982259e-07
7.8874141e-07
8.0744847e-07
8.3324415e-07
8.4817521e-07
8.4319752e-07
8.1993219e-07
7.867998e-07
7.5523754e-07
7.3346235e-07
7.2489307e-07
7.285426e-07
7.4045389e-07
7.5610564e-07
7.7190236e-07
7.8498179e-07
7.918971e-07
7.9359372e-07
7.9095642e-07
7.8517877e-07
7.7766772e-07
7.697821e-07
7.6240864e-07
7.5633325e-07
7.5160225e-07
7.4794167e-07
7.4493177e-07
7.4249644e-07
7.4076969e-07
7.3930938e-07
7.3798745e-07
7.368868e-07
7.3624676e-07
7.3587628e-07
7.3569069e-07
7.355753e-07
7.3582153e-07
7.3612405e-07
7.3737309e-07
7.38302e-07
7.4064969e-07
7.4195326e-07
7.4552061e-07
7.4753637e-07
7.5201776e-07
7.5439107e-07
7.6027326e-07
7.6327384e-07
7.694764e-07
7.7363455e-07
7.8111205e-07
8.5679767e-07
9.4273483e-07
9.207663e-07
8.4960855e-07
7.987841e-07
7.8853236e-07
8.0674621e-07
8.3262226e-07
8.4821187e-07
8.4420855e-07
8.2177799e-07
7.8894643e-07
7.570419e-07
7.3445798e-07
7.2481311e-07
7.2754004e-07
7.3885731e-07
7.5425898e-07
7.7008547e-07
7.8370261e-07
7.9127972e-07
7.9366215e-07
7.9145677e-07
7.8610127e-07
7.7877498e-07
7.7089737e-07
7.6351311e-07
7.5721017e-07
7.5223985e-07
7.4839441e-07
7.4540348e-07
7.428774e-07
7.4101726e-07
7.3956769e-07
7.3822536e-07
7.3700394e-07
7.3619734e-07
7.3562646e-07
7.3542776e-07
7.3524937e-07
7.3519337e-07
7.3539785e-07
7.3638721e-07
7.3706983e-07
7.3889055e-07
7.4018048e-07
7.430686e-07
7.4460289e-07
7.486221e-07
7.5088142e-07
7.5548113e-07
7.5813787e-07
7.6418692e-07
7.6693102e-07
7.7363803e-07
8.5679631e-07
9.4294939e-07
9.2139548e-07
8.504318e-07
7.9919878e-07
7.8828853e-07
8.060367e-07
8.3202081e-07
8.482831e-07
8.4524771e-07
8.2364676e-07
7.9109941e-07
7.5887718e-07
7.3545161e-07
7.248e-07
7.2655352e-07
7.3728037e-07
7.5242373e-07
7.682824e-07
7.8226105e-07
7.9057216e-07
7.9349979e-07
7.9205621e-07
7.8699725e-07
7.8005202e-07
7.7208998e-07
7.6460889e-07
7.5811478e-07
7.5297195e-07
7.4890554e-07
7.4588846e-07
7.4331758e-07
7.4136825e-07
7.3987609e-07
7.3857498e-07
7.3727175e-07
7.3625869e-07
7.3558975e-07
7.3524917e-07
7.3504996e-07
7.3488828e-07
7.3491231e-07
7.3542708e-07
7.3597246e-07
7.3753654e-07
7.3854431e-07
7.407582e-07
7.425409e-07
7.4564422e-07
7.4750191e-07
7.5195977e-07
7.5394508e-07
7.5918684e-07
7.6155401e-07
7.680255e-07
8.5684278e-07
9.4358323e-07
9.2254186e-07
8.5167092e-07
7.9987739e-07
7.881986e-07
8.0543061e-07
8.3145697e-07
8.4834873e-07
8.4626513e-07
8.2551079e-07
7.932902e-07
7.6077865e-07
7.365326e-07
7.2489865e-07
7.2572957e-07
7.3571255e-07
7.5059128e-07
7.6641137e-07
7.8079803e-07
7.8979544e-07
7.932281e-07
7.9240781e-07
7.8784974e-07
7.8124467e-07
7.7349204e-07
7.6584962e-07
7.5918114e-07
7.539169e-07
7.4967619e-07
7.464813e-07
7.4379312e-07
7.4165945e-07
7.4003772e-07
7.3874009e-07
7.3741012e-07
7.3631734e-07
7.3557737e-07
7.3507471e-07
7.3478648e-07
7.3463497e-07
7.3446456e-07
7.3482659e-07
7.3514009e-07
7.3644844e-07
7.3703175e-07
7.3942986e-07
7.4019531e-07
7.4339056e-07
7.4499088e-07
7.4828435e-07
7.5063794e-07
7.5485593e-07
7.5747188e-07
7.6235089e-07
8.5689199e-07
9.4401721e-07
9.2324728e-07
8.5250682e-07
8.0031668e-07
7.8803669e-07
8.0484529e-07
8.3093208e-07
8.4842121e-07
8.4724727e-07
8.2732218e-07
7.9544678e-07
7.6269358e-07
7.3768175e-07
7.2502778e-07
7.2494832e-07
7.34189e-07
7.4875748e-07
7.6445458e-07
7.791985e-07
7.8900962e-07
7.9312603e-07
7.9276076e-07
7.8888977e-07
7.8239721e-07
7.74839e-07
7.6720789e-07
7.6028481e-07
7.5473774e-07
7.5040713e-07
7.469929e-07
7.4434131e-07
7.4209719e-07
7.4032297e-07
7.3899549e-07
7.3771625e-07
7.3654627e-07
7.3560971e-07
7.3501896e-07
7.3467208e-07
7.3439288e-07
7.3423547e-07
7.3421614e-07
7.3449463e-07
7.3529705e-07
7.3614817e-07
7.3759536e-07
7.388951e-07
7.4132242e-07
7.4258106e-07
7.4593557e-07
7.4781184e-07
7.5114986e-07
7.5362917e-07
7.5836339e-07
8.5697291e-07
9.4482802e-07
9.2445666e-07
8.5380196e-07
8.0110686e-07
7.8809567e-07
8.0439239e-07
8.3047703e-07
8.4851802e-07
8.4826106e-07
8.29185e-07
7.976804e-07
7.6471926e-07
7.3892947e-07
7.2524353e-07
7.2416425e-07
7.3275807e-07
7.4694575e-07
7.6261299e-07
7.7747229e-07
7.8832754e-07
7.9302225e-07
7.9333181e-07
7.898384e-07
7.8377454e-07
7.7624652e-07
7.68574e-07
7.6151558e-07
7.5565553e-07
7.5115778e-07
7.4755534e-07
7.4485022e-07
7.4253133e-07
7.4065415e-07
7.3926989e-07
7.379914e-07
7.3676872e-07
7.3568815e-07
7.3501827e-07
7.3445896e-07
7.3427104e-07
7.3397789e-07
7.3390792e-07
7.3386173e-07
7.3466444e-07
7.3509966e-07
7.365494e-07
7.3746529e-07
7.3952617e-07
7.4077786e-07
7.4376417e-07
7.4469669e-07
7.4859502e-07
7.5037088e-07
7.5463904e-07
8.5707883e-07
9.4546446e-07
9.2516801e-07
8.545991e-07
8.0157204e-07
7.880127e-07
8.0392965e-07
8.3006365e-07
8.486514e-07
8.4925477e-07
8.3096585e-07
7.9984522e-07
7.6671155e-07
7.4019135e-07
7.2553528e-07
7.2347682e-07
7.3134288e-07
7.4509583e-07
7.6068859e-07
7.7580827e-07
7.8755741e-07
7.9272088e-07
7.9374836e-07
7.9071065e-07
7.850936e-07
7.7777582e-07
7.7000065e-07
7.6284067e-07
7.5681585e-07
7.5206538e-07
7.4821961e-07
7.4535625e-07
7.4293763e-07
7.4094105e-07
7.394502e-07
7.3817316e-07
7.3695743e-07
7.3585689e-07
7.3498705e-07
7.3444181e-07
7.3403867e-07
7.3387708e-07
7.3361163e-07
7.3356997e-07
7.3402418e-07
7.343021e-07
7.3564673e-07
7.3615387e-07
7.383755e-07
7.3938869e-07
7.4150887e-07
7.4309767e-07
7.461237e-07
7.4786292e-07
7.513736e-07
8.572009e-07
9.4646994e-07
9.263263e-07
8.5588186e-07
8.0243184e-07
7.8825498e-07
8.0371616e-07
8.2978747e-07
8.4884712e-07
8.5032021e-07
8.3287571e-07
8.0222792e-07
7.6883228e-07
7.4155464e-07
7.2586715e-07
7.2290678e-07
7.2996669e-07
7.4329908e-07
7.5870688e-07
7.7415883e-07
7.8693029e-07
7.9280209e-07
7.9407455e-07
7.9169937e-07
7.8632598e-07
7.7929918e-07
7.7158529e-07
7.6412696e-07
7.5779206e-07
7.5284673e-07
7.4892104e-07
7.458395e-07
7.4338862e-07
7.4131827e-07
7.3965278e-07
7.3834489e-07
7.3718942e-07
7.3604084e-07
7.3503978e-07
7.3436926e-07
7.339559e-07
7.3365406e-07
7.3342349e-07
7.3328718e-07
7.3336752e-07
7.3378107e-07
7.3443969e-07
7.3547646e-07
7.3695452e-07
7.3770292e-07
7.3986236e-07
7.4159774e-07
7.4359057e-07
7.4559144e-07
7.4911455e-07
8.5735715e-07
9.4728741e-07
9.2699377e-07
8.5661049e-07
8.0288396e-07
7.8825562e-07
8.0341851e-07
8.2954641e-07
8.4908504e-07
8.5135116e-07
8.3461637e-07
8.0443049e-07
7.7086483e-07
7.4294934e-07
7.262852e-07
7.2236645e-07
7.2869934e-07
7.4152332e-07
7.5677314e-07
7.7229075e-07
7.8589524e-07
7.9276695e-07
7.9435081e-07
7.9237572e-07
7.8726888e-07
7.8021792e-07
7.7258117e-07
7.6505701e-07
7.5846325e-07
7.5319697e-07
7.4913178e-07
7.4581506e-07
7.4325217e-07
7.4115049e-07
7.3946475e-07
7.3818815e-07
7.3706253e-07
7.3591915e-07
7.3489505e-07
7.3412951e-07
7.3367012e-07
7.3328723e-07
7.3310009e-07
7.3283762e-07
7.3288941e-07
7.3290325e-07
7.3380361e-07
7.3445858e-07
7.3604248e-07
7.3708797e-07
7.3837211e-07
7.3985048e-07
7.419498e-07
7.4411717e-07
7.463931e-07
8.575837e-07
9.4885573e-07
9.2811924e-07
8.5783457e-07
8.0381148e-07
7.886798e-07
8.0341935e-07
8.2943452e-07
8.4938175e-07
8.5246773e-07
8.3656338e-07
8.0688097e-07
7.7307586e-07
7.4440498e-07
7.267612e-07
7.2184527e-07
7.2744488e-07
7.3966622e-07
7.5480052e-07
7.7038759e-07
7.8452216e-07
7.92471e-07
7.9433857e-07
7.9251891e-07
7.8781588e-07
7.8091112e-07
7.7308809e-07
7.6537922e-07
7.585274e-07
7.5291403e-07
7.4858945e-07
7.4516367e-07
7.4252593e-07
7.4034366e-07
7.386245e-07
7.3725296e-07
7.361469e-07
7.3515635e-07
7.3413044e-07
7.3326505e-07
7.3277406e-07
7.3239848e-07
7.3223007e-07
7.320857e-07
7.3196573e-07
7.3197288e-07
7.3242761e-07
7.3294053e-07
7.3462245e-07
7.3509139e-07
7.3637981e-07
7.3835378e-07
7.3997962e-07
7.4203381e-07
7.4412525e-07
8.5782183e-07
9.5009054e-07
9.2887443e-07
8.5848997e-07
8.0419421e-07
7.8873585e-07
8.0327205e-07
8.2931167e-07
8.4959799e-07
8.5329599e-07
8.3811003e-07
8.0886232e-07
7.7500804e-07
7.4578093e-07
7.2715508e-07
7.2125097e-07
7.2598492e-07
7.3757316e-07
7.5226198e-07
7.6780957e-07
7.820878e-07
7.904569e-07
7.9236381e-07
7.907055e-07
7.8604307e-07
7.7926594e-07
7.7149704e-07
7.6365366e-07
7.5657432e-07
7.5069701e-07
7.4608894e-07
7.4243482e-07
7.3950476e-07
7.3735979e-07
7.3568609e-07
7.3416794e-07
7.3307432e-07
7.3224746e-07
7.3128693e-07
7.3044692e-07
7.2996742e-07
7.2967089e-07
7.2955868e-07
7.2961041e-07
7.2960547e-07
7.2951963e-07
7.2952563e-07
7.307428e-07
7.3228001e-07
7.3296499e-07
7.343731e-07
7.3498814e-07
7.368842e-07
7.3832237e-07
7.4131974e-07
8.5834579e-07
9.5294622e-07
9.3022555e-07
8.5964572e-07
8.049142e-07
7.8899879e-07
8.0320121e-07
8.2904339e-07
8.4962248e-07
8.5374681e-07
8.3938266e-07
8.104374e-07
7.7653885e-07
7.4648554e-07
7.2671358e-07
7.1965061e-07
7.2327189e-07
7.3397819e-07
7.4804158e-07
7.6327514e-07
7.7713042e-07
7.853591e-07
7.8695247e-07
7.8550089e-07
7.8131509e-07
7.7520253e-07
7.681284e-07
7.6084507e-07
7.539141e-07
7.4820168e-07
7.4348371e-07
7.3980672e-07
7.3667087e-07
7.3422145e-07
7.32227e-07
7.305227e-07
7.2915583e-07
7.279789e-07
7.2672909e-07
7.2577617e-07
7.2514296e-07
7.2450447e-07
7.2398446e-07
7.2385056e-07
7.240193e-07
7.2437995e-07
7.247472e-07
7.247349e-07
7.2574875e-07
7.2686141e-07
7.2785558e-07
7.295477e-07
7.3079153e-07
7.3305208e-07
7.3627754e-07
8.587743e-07
9.5435706e-07
9.307497e-07
8.595724e-07
8.0416485e-07
7.8700733e-07
8.0068712e-07
8.2657697e-07
8.4817914e-07
8.5271214e-07
8.386047e-07
8.0903019e-07
7.749499e-07
7.4392151e-07
7.2332393e-07
7.154102e-07
7.1809103e-07
7.27761e-07
7.4080816e-07
7.5615336e-07
7.704851e-07
7.7938356e-07
7.8053678e-07
7.7975683e-07
7.7791124e-07
7.7534423e-07
7.7254985e-07
7.6992341e-07
7.6689308e-07
7.639909e-07
7.6178963e-07
7.5888888e-07
7.5706166e-07
7.5514091e-07
7.5198998e-07
7.4984587e-07
7.4760361e-07
7.4372105e-07
7.4096907e-07
7.3960132e-07
7.3689162e-07
7.3397253e-07
7.3253954e-07
7.3135247e-07
7.2895518e-07
7.2733148e-07
7.2676746e-07
7.2646987e-07
7.266515e-07
7.2641369e-07
7.267129e-07
7.2736702e-07
7.2731593e-07
7.2892743e-07
7.2848346e-07
8.6028097e-07
9.5464353e-07
9.295629e-07
8.5699782e-07
7.9910279e-07
7.7697237e-07
7.9036951e-07
8.204241e-07
8.5320905e-07
8.682177e-07
8.517085e-07
8.1775929e-07
7.8174779e-07
7.4922263e-07
7.3178941e-07
7.3318871e-07
7.3979146e-07
7.5231327e-07
7.7484975e-07
7.9665526e-07
8.1383633e-07
8.2649868e-07
8.3223117e-07
8.3406251e-07
8.4146523e-07
8.4642699e-07
8.5704292e-07
8.752805e-07
8.8838663e-07
9.0126515e-07
9.1349132e-07
9.1852629e-07
9.272178e-07
9.2960977e-07
9.3111014e-07
9.3113192e-07
9.2917491e-07
9.2141191e-07
9.1509286e-07
9.1225873e-07
9.0709335e-07
8.9617446e-07
8.9154629e-07
8.8951635e-07
8.84921e-07
8.7181832e-07
8.6226749e-07
8.5922235e-07
8.5806116e-07
8.5670058e-07
8.5226678e-07
8.443778e-07
8.3738476e-07
8.338696e-07
8.2197033e-07
8.6538442e-07
9.3237196e-07
9.6437063e-07
8.8521221e-07
8.0090811e-07
7.9832897e-07
8.2801888e-07
8.9534412e-07
1.0136037e-06
1.0523509e-06
1.0849976e-06
1.0265053e-06
9.7552809e-07
9.5902797e-07
9.5897961e-07
9.6868978e-07
1.0058775e-06
1.0699545e-06
1.1149411e-06
1.1414029e-06
1.154517e-06
1.1608561e-06
1.1702813e-06
1.1747596e-06
1.1758886e-06
1.184805e-06
1.2112397e-06
1.26539e-06
1.3021108e-06
1.3427882e-06
1.3883085e-06
1.4070693e-06
1.4429143e-06
1.4726301e-06
1.4805483e-06
1.4965699e-06
1.5004068e-06
1.4955113e-06
1.4964861e-06
1.498078e-06
1.4977754e-06
1.4877805e-06
1.4849721e-06
1.4915793e-06
1.4905817e-06
1.4730271e-06
1.4467205e-06
1.4402518e-06
1.4440904e-06
1.4540969e-06
1.451719e-06
1.4409796e-06
1.416461e-06
1.4031343e-06
1.3681716e-06
6.7427322e-07
1.2625272e-06
1.4316761e-06
1.5331085e-06
1.399999e-06
1.3596476e-06
1.4558363e-06
1.5986666e-06
1.9517386e-06
1.8923705e-06
1.7877165e-06
1.6980438e-06
1.677773e-06
1.6782659e-06
1.6868418e-06
1.7146166e-06
1.789486e-06
1.858212e-06
1.9089025e-06
1.9402932e-06
1.9578687e-06
1.9699142e-06
1.9790323e-06
1.9844364e-06
1.9875178e-06
1.998795e-06
2.0225589e-06
2.0868539e-06
2.1348731e-06
2.1985408e-06
2.2745283e-06
2.3104541e-06
2.3880371e-06
2.4348414e-06
2.4497524e-06
2.5003189e-06
2.5392346e-06
2.5223934e-06
2.5470082e-06
2.5627263e-06
2.5662067e-06
2.5589464e-06
2.5727587e-06
2.6682712e-06
2.6703225e-06
2.6329484e-06
2.5597792e-06
2.5511337e-06
2.5732524e-06
2.63033e-06
2.6311875e-06
2.624263e-06
2.5855936e-06
2.5659781e-06
2.5232196e-06
5.0998533e-07
1.3896184e-06
2.2076717e-06
2.41202e-06
2.3144035e-06
2.4890721e-06
2.4467972e-06
2.3972346e-06
2.3915879e-06
2.1085993e-06
2.2295324e-06
2.1090307e-06
2.0460398e-06
1.9531122e-06
1.8809683e-06
1.8494988e-06
1.8482363e-06
1.8543716e-06
1.8677587e-06
1.892405e-06
1.9314156e-06
1.9863601e-06
2.0525423e-06
2.1303487e-06
2.2138724e-06
2.2994578e-06
2.3801395e-06
2.4549018e-06
2.5150236e-06
2.5650827e-06
2.5928335e-06
2.6087058e-06
2.6126343e-06
2.6094744e-06
2.606002e-06
2.6036391e-06
2.5770595e-06
2.5711229e-06
2.5822603e-06
2.5493779e-06
2.5549763e-06
2.5390427e-06
2.578628e-06
2.583241e-06
2.4853562e-06
2.5225153e-06
2.4786831e-06
2.5310257e-06
2.534106e-06
2.4915396e-06
2.4908533e-06
2.5178507e-06
2.4581908e-06
2.4806605e-06
2.4660748e-06
2.324029e-06
2.514654e-06
1.3808678e-06
8.2951975e-07
7.3070789e-07
7.369595e-07
7.424501e-07
7.4616625e-07
7.4819379e-07
7.5075845e-07
7.5369135e-07
7.5687199e-07
7.608017e-07
7.6555333e-07
7.7112011e-07
7.7761192e-07
7.8500828e-07
7.9387936e-07
8.0462439e-07
8.1734208e-07
8.3385194e-07
8.5676798e-07
8.8616074e-07
9.0690909e-07
9.2525972e-07
9.603468e-07
1.0046898e-06
2.3488029e-06
2.5955072e-06
1.4914635e-06
8.8271968e-07
7.4172292e-07
7.4032259e-07
7.4600451e-07
7.497449e-07
7.5275504e-07
7.548377e-07
7.5792742e-07
7.6117164e-07
7.6488948e-07
7.6922383e-07
7.7467571e-07
7.8173265e-07
7.8957727e-07
7.9863639e-07
8.0898706e-07
8.2161063e-07
8.3645868e-07
8.5886912e-07
8.8853299e-07
9.1281834e-07
9.2943923e-07
9.6233651e-07
1.0057941e-06
2.3066206e-06
2.763047e-06
1.6458401e-06
9.5134077e-07
7.5494099e-07
7.4340841e-07
7.4919631e-07
7.5270329e-07
7.5589082e-07
7.5891035e-07
7.6163401e-07
7.6553532e-07
7.7003244e-07
7.7510526e-07
7.8031351e-07
7.8663963e-07
7.9479046e-07
8.0416921e-07
8.1543551e-07
8.2754934e-07
8.4293515e-07
8.6324875e-07
8.9323906e-07
9.1989518e-07
9.3663151e-07
9.6991375e-07
1.0120355e-06
2.0499581e-06
2.7362018e-06
1.6440886e-06
9.5758003e-07
7.5791202e-07
7.4456896e-07
7.5038068e-07
7.5432404e-07
7.5795216e-07
7.610974e-07
7.6436009e-07
7.6830666e-07
7.7315026e-07
7.7938318e-07
7.8554878e-07
7.922256e-07
7.9985235e-07
8.0921278e-07
8.1994782e-07
8.322963e-07
8.4671885e-07
8.6632307e-07
8.9559395e-07
9.2480366e-07
9.4219417e-07
9.7157982e-07
1.0155802e-06
1.9045357e-06
2.4897885e-06
1.5749265e-06
9.5009098e-07
7.6127219e-07
7.4637793e-07
7.52744e-07
7.5759545e-07
7.6251976e-07
7.6605036e-07
7.6991763e-07
7.7415797e-07
7.7877141e-07
7.8377147e-07
7.9079042e-07
7.982499e-07
8.0652034e-07
8.1564576e-07
8.2642179e-07
8.3966828e-07
8.5373681e-07
8.7253743e-07
9.0084885e-07
9.3270072e-07
9.5050701e-07
9.8015084e-07
1.0240803e-06
2.0936422e-06
2.4292786e-06
1.5820449e-06
9.6907082e-07
7.7332796e-07
7.517955e-07
7.599557e-07
7.6529047e-07
7.7079435e-07
7.7436667e-07
7.780039e-07
7.8232718e-07
7.8683807e-07
7.9196773e-07
7.9744247e-07
8.0502817e-07
8.1337629e-07
8.2326702e-07
8.3431239e-07
8.4743868e-07
8.6200179e-07
8.7948164e-07
9.0656213e-07
9.3787317e-07
9.5748866e-07
9.8453047e-07
1.0322517e-06
2.0416448e-06
2.4149227e-06
1.689644e-06
1.0638296e-06
8.0472617e-07
7.6158825e-07
7.6670565e-07
7.7099006e-07
7.7517376e-07
7.7951368e-07
7.8282528e-07
7.8768844e-07
7.9288008e-07
7.987744e-07
8.0503342e-07
8.1157612e-07
8.2036798e-07
8.3005482e-07
8.41846e-07
8.5488506e-07
8.6975719e-07
8.866036e-07
9.1159566e-07
9.4579202e-07
9.6476667e-07
9.9034587e-07
1.0382344e-06
1.7698771e-06
2.3707103e-06
1.7135467e-06
9.8658572e-07
8.1175482e-07
7.6531885e-07
7.6803495e-07
7.7324784e-07
7.7733242e-07
7.8184766e-07
7.859385e-07
7.904627e-07
7.9630403e-07
8.0253837e-07
8.0977084e-07
8.1767792e-07
8.2575005e-07
8.3619719e-07
8.4759993e-07
8.6110249e-07
8.7615748e-07
8.9333244e-07
9.1719362e-07
9.5124978e-07
9.7278988e-07
9.9427255e-07
1.0475516e-06
1.5852777e-06
2.229857e-06
1.658895e-06
1.0826251e-06
8.1407353e-07
7.6735807e-07
7.7034622e-07
7.7647143e-07
7.8177923e-07
7.868189e-07
7.9125332e-07
7.9583153e-07
8.0164763e-07
8.0797815e-07
8.151438e-07
8.2343198e-07
8.3217467e-07
8.4263302e-07
8.5473877e-07
8.6914095e-07
8.847926e-07
9.0225413e-07
9.2540239e-07
9.5972212e-07
9.8341003e-07
1.0016682e-06
1.0550481e-06
1.8056495e-06
2.1149027e-06
1.638439e-06
1.0930451e-06
7.9619163e-07
7.7228089e-07
7.7885684e-07
7.8556175e-07
7.93827e-07
7.9976143e-07
8.0381655e-07
8.0856965e-07
8.1300402e-07
8.1895292e-07
8.2533378e-07
8.3338448e-07
8.4289985e-07
8.5238064e-07
8.6367326e-07
8.7597915e-07
8.9056002e-07
9.0692669e-07
9.2950331e-07
9.6436027e-07
9.92195e-07
1.0091564e-06
1.0600347e-06
1.5682767e-06
1.934535e-06
1.628629e-06
1.1600955e-06
7.0515169e-07
7.5225194e-07
7.8212712e-07
7.973127e-07
8.0482078e-07
8.107859e-07
8.1527842e-07
8.1971717e-07
8.2447448e-07
8.3025275e-07
8.3746095e-07
8.454968e-07
8.5527147e-07
8.6511126e-07
8.7624112e-07
8.890427e-07
9.0246474e-07
9.1666868e-07
9.358801e-07
9.7008435e-07
9.9979669e-07
1.0163538e-06
1.0636125e-06
1.4900034e-06
1.7963687e-06
1.6183165e-06
9.2175555e-07
8.6583324e-07
6.6621736e-07
7.920278e-07
8.0108867e-07
8.0821211e-07
8.1471012e-07
8.2061059e-07
8.2569387e-07
8.3172248e-07
8.3817361e-07
8.45014e-07
8.5245992e-07
8.6125965e-07
8.7268405e-07
8.8411413e-07
8.9870247e-07
9.1343369e-07
9.2910817e-07
9.4656427e-07
9.7861642e-07
1.0106793e-06
1.0274486e-06
1.0694558e-06
1.2045816e-06
1.7484962e-06
1.5902927e-06
1.153783e-06
8.6232258e-07
7.8969823e-07
7.9233808e-07
8.0268128e-07
8.1051314e-07
8.1804982e-07
8.2433326e-07
8.2987357e-07
8.3660323e-07
8.4330738e-07
8.512258e-07
8.5991316e-07
8.6962724e-07
8.8131237e-07
8.9300839e-07
9.0692117e-07
9.2159039e-07
9.3704282e-07
9.5290432e-07
9.8352234e-07
1.016081e-06
1.0328824e-06
1.0716648e-06
1.2137669e-06
1.6253401e-06
1.5123274e-06
1.1335037e-06
8.6382025e-07
7.9184721e-07
7.5637543e-07
8.0603644e-07
8.1639745e-07
8.2475989e-07
8.3171051e-07
8.3692683e-07
8.4357204e-07
8.5071611e-07
8.5851585e-07
8.6838372e-07
8.7799737e-07
8.9028241e-07
9.0328681e-07
9.1802882e-07
9.3474471e-07
9.516371e-07
9.6809075e-07
9.9509967e-07
1.0286524e-06
1.0447842e-06
1.0794653e-06
8.694672e-07
1.4913962e-06
1.4661134e-06
1.1531684e-06
6.4243324e-07
6.4866713e-07
5.9166868e-07
7.7941907e-07
8.3269898e-07
8.4182328e-07
8.4859339e-07
8.5428236e-07
8.6033297e-07
8.6772488e-07
8.7581802e-07
8.8434903e-07
8.9400287e-07
9.0325408e-07
9.1476248e-07
9.2726805e-07
9.4195818e-07
9.5897713e-07
9.7649129e-07
1.0034601e-06
1.040311e-06
1.0571885e-06
1.0908478e-06
7.1049591e-07
1.1531807e-06
1.3629099e-06
1.1964137e-06
6.7235175e-07
6.1488749e-07
5.7536155e-07
7.7194239e-07
8.4635569e-07
8.5508152e-07
8.6345746e-07
8.6782454e-07
8.7379321e-07
8.8048835e-07
8.8909727e-07
8.9786926e-07
9.0806367e-07
9.1881265e-07
9.295612e-07
9.4264642e-07
9.54689e-07
9.7044781e-07
9.8601408e-07
1.0099323e-06
1.048311e-06
1.0658004e-06
1.0992165e-06
7.4792858e-07
1.0902948e-06
1.3599326e-06
9.1303122e-07
9.2404749e-07
5.9953051e-07
6.9700058e-07
7.9265341e-07
8.4986354e-07
8.6046112e-07
8.7007026e-07
8.7643974e-07
8.841566e-07
8.9063833e-07
8.978743e-07
9.0544737e-07
9.1441174e-07
9.2536273e-07
9.3643231e-07
9.5017396e-07
9.6340971e-07
9.7978665e-07
9.9405813e-07
1.0167926e-06
1.0556598e-06
1.0754409e-06
1.1085187e-06
7.2957093e-07
1.082905e-06
1.3860372e-06
1.2171403e-06
9.3755861e-07
7.9107831e-07
8.1010963e-07
8.3142913e-07
8.5279671e-07
8.6530809e-07
8.7520028e-07
8.8294688e-07
8.9087292e-07
8.9884595e-07
9.0816443e-07
9.1743946e-07
9.2733118e-07
9.3846596e-07
9.4998694e-07
9.6419181e-07
9.7738691e-07
9.9307633e-07
1.0051148e-06
1.0238453e-06
1.0619699e-06
1.0820647e-06
1.1163992e-06
4.5411777e-07
1.0823586e-06
1.3688549e-06
1.2175258e-06
9.4893891e-07
7.8754107e-07
6.8172973e-07
7.0241428e-07
8.6054874e-07
8.7590857e-07
8.8657964e-07
8.9618995e-07
9.0371244e-07
9.1187891e-07
9.1961702e-07
9.2773415e-07
9.3635522e-07
9.4642951e-07
9.5771255e-07
9.7250056e-07
9.8782286e-07
1.0066264e-06
1.0187672e-06
1.0353465e-06
1.0712049e-06
1.0897217e-06
1.1237253e-06
2.518939e-07
9.0191433e-07
1.3112499e-06
1.2372133e-06
7.8366994e-07
6.7321175e-07
5.5610763e-07
6.2392262e-07
7.4564526e-07
9.0025828e-07
9.1200253e-07
9.2033832e-07
9.2623512e-07
9.3277355e-07
9.4009256e-07
9.4711957e-07
9.5433909e-07
9.6248202e-07
9.7162011e-07
9.8368824e-07
9.9560982e-07
1.0146803e-06
1.0267945e-06
1.0428706e-06
1.0783146e-06
1.0965454e-06
1.1299408e-06
2.0434895e-07
6.023513e-07
1.1177059e-06
1.2691099e-06
8.8440778e-07
6.7842886e-07
5.7152846e-07
6.1359709e-07
7.5062334e-07
9.1542992e-07
9.2992651e-07
9.356989e-07
9.4002133e-07
9.4457776e-07
9.4978796e-07
9.5725029e-07
9.6442185e-07
9.7431218e-07
9.8426204e-07
9.9712861e-07
1.0085866e-06
1.0269521e-06
1.0397361e-06
1.0536241e-06
1.0874973e-06
1.1040456e-06
1.1379356e-06
2.2861368e-07
5.1711991e-07
1.0944923e-06
1.2852841e-06
1.071285e-06
7.4737495e-07
6.7297043e-07
7.1247921e-07
8.2900387e-07
9.2030588e-07
9.3570534e-07
9.4259225e-07
9.4860846e-07
9.5397212e-07
9.60025e-07
9.6751644e-07
9.7544406e-07
9.8487563e-07
9.9499846e-07
1.0073708e-06
1.0187514e-06
1.036799e-06
1.0510314e-06
1.063787e-06
1.094937e-06
1.1109385e-06
1.1443316e-06
1.5977162e-07
5.4277566e-07
1.1245607e-06
1.2936384e-06
1.1109735e-06
8.4477475e-07
7.7686706e-07
7.5450034e-07
8.561523e-07
9.2690976e-07
9.4144752e-07
9.4964507e-07
9.5754304e-07
9.6380652e-07
9.7052717e-07
9.7899378e-07
9.8832555e-07
9.9942561e-07