/*--------------------------------*- C++ -*----------------------------------*\
| =========                 |                                                 |
| \\      /  F ield         | OpenFOAM: The Open Source CFD Toolbox           |
|  \\    /   O peration     | Version:  2406                                  |
|   \\  /    A nd           | Website:  www.openfoam.com                      |
|    \\/     M anipulation  |                                                 |
\*---------------------------------------------------------------------------*/
FoamFile
{
    version     2.0;
    format      ascii;
    arch        "LSB;label=32;scalar=64";
    class       volScalarField;
    location    "14";
    object      k_0;
}
// * * * * * * * * * * * * * * * * * * * * * * * * * * * * * * * * * * * * * //

dimensions      [0 2 -2 0 0 0 0];

internalField   nonuniform List<scalar> 
62344
(
4.5123952e-06
3.6503416e-06
2.8351517e-06
2.2616809e-06
1.943697e-06
1.7657768e-06
1.6523793e-06
1.5485569e-06
1.4412374e-06
1.3364572e-06
1.2387527e-06
1.1493433e-06
1.0717223e-06
1.0221966e-06
9.7917024e-07
9.5568755e-07
9.3873899e-07
9.4102325e-07
9.4097646e-07
9.3481888e-07
9.180058e-07
9.2190424e-07
9.140261e-07
8.9982281e-07
8.7999571e-07
8.7474172e-07
8.7830345e-07
8.8421373e-07
9.0835744e-07
9.4773742e-07
9.7376077e-07
1.0095644e-06
1.0799192e-06
1.1765953e-06
1.368526e-06
1.5462905e-06
1.8966269e-06
2.2421287e-06
2.8797434e-06
3.477473e-06
4.7022431e-06
5.7991801e-06
7.9584404e-06
9.9727056e-06
1.4313787e-05
1.7556127e-05
2.5251826e-05
3.1181574e-05
4.0940084e-05
4.6906485e-05
5.5403109e-05
6.5433092e-05
8.0984362e-05
9.383477e-05
0.00013746574
4.5160248e-06
3.6630702e-06
2.8483468e-06
2.2732403e-06
1.9495005e-06
1.7712799e-06
1.6564901e-06
1.5565016e-06
1.4483519e-06
1.3438426e-06
1.2451315e-06
1.1557536e-06
1.0748305e-06
1.0176808e-06
9.7866213e-07
9.5323113e-07
9.3896084e-07
9.2923533e-07
9.2838481e-07
9.2541576e-07
9.1507086e-07
9.154482e-07
9.0918432e-07
8.9070486e-07
8.739718e-07
8.7103806e-07
8.6651967e-07
8.6476309e-07
8.8339983e-07
9.1719347e-07
9.4351993e-07
9.6742747e-07
1.0152799e-06
1.0941201e-06
1.2374736e-06
1.3812677e-06
1.6472966e-06
1.8676818e-06
2.2955154e-06
2.7078007e-06
3.4542332e-06
4.161071e-06
5.5759026e-06
6.8596821e-06
9.5431841e-06
1.1813372e-05
1.650274e-05
2.0288178e-05
2.9328089e-05
3.6166805e-05
4.7074482e-05
5.329657e-05
6.7143311e-05
7.5916395e-05
9.7060296e-05
4.5219489e-06
3.6784055e-06
2.8609372e-06
2.2829193e-06
1.9550158e-06
1.7758919e-06
1.6594722e-06
1.5584739e-06
1.4526464e-06
1.3482721e-06
1.2497629e-06
1.1597049e-06
1.0850502e-06
1.0253533e-06
9.7909312e-07
9.5476262e-07
9.3156178e-07
9.3104328e-07
9.3314115e-07
9.1985328e-07
9.1384033e-07
9.1851302e-07
9.1968819e-07
8.9839351e-07
8.709598e-07
8.7212449e-07
8.7371772e-07
8.7254517e-07
8.8469775e-07
9.1379923e-07
9.4335603e-07
9.7672508e-07
1.0239534e-06
1.0930534e-06
1.2002979e-06
1.3141283e-06
1.5360032e-06
1.7073421e-06
2.0555521e-06
2.4069726e-06
3.0315608e-06
3.5563181e-06
4.605954e-06
5.5413184e-06
7.3110502e-06
8.8556205e-06
1.2248668e-05
1.4876662e-05
2.0778197e-05
2.5369936e-05
3.4194389e-05
3.950956e-05
4.9783568e-05
5.8429565e-05
7.5043053e-05
4.5261379e-06
3.6895248e-06
2.8754544e-06
2.2922441e-06
1.9630514e-06
1.7804307e-06
1.6647348e-06
1.5642781e-06
1.4590565e-06
1.3561783e-06
1.2596003e-06
1.1682109e-06
1.089729e-06
1.0320046e-06
9.8629087e-07
9.6231277e-07
9.3905288e-07
9.3739302e-07
9.3118806e-07
9.2641999e-07
9.2011156e-07
9.2523821e-07
9.2876427e-07
9.0906789e-07
8.8564636e-07
8.8390052e-07
8.8285341e-07
8.8107233e-07
8.9454905e-07
9.1793762e-07
9.4155405e-07
9.7929985e-07
1.0289031e-06
1.0949271e-06
1.1817929e-06
1.2753565e-06
1.4634388e-06
1.6323712e-06
1.9870201e-06
2.3423909e-06
2.9805155e-06
3.431643e-06
4.315958e-06
5.0621583e-06
6.3821962e-06
7.5567547e-06
9.9121779e-06
1.1953786e-05
1.6253328e-05
1.9428359e-05
2.6406952e-05
3.2466379e-05
4.3234709e-05
5.0638484e-05
6.3397336e-05
4.5289856e-06
3.7005531e-06
2.8881358e-06
2.2999761e-06
1.9656169e-06
1.784217e-06
1.6680078e-06
1.5689409e-06
1.4639601e-06
1.360617e-06
1.2629354e-06
1.1745672e-06
1.0999925e-06
1.0407775e-06
9.9105929e-07
9.5773011e-07
9.4034998e-07
9.3125732e-07
9.4101361e-07
9.3362177e-07
9.2996795e-07
9.3461628e-07
9.292974e-07
9.0608836e-07
8.907285e-07
8.8616754e-07
8.8279279e-07
8.8286864e-07
8.9092266e-07
9.0424138e-07
9.2341427e-07
9.6154222e-07
1.0178565e-06
1.0826634e-06
1.1712537e-06
1.2613227e-06
1.4352697e-06
1.5997107e-06
1.9501401e-06
2.2924196e-06
2.9021496e-06
3.3425321e-06
4.1425513e-06
4.8061299e-06
5.950757e-06
7.1271587e-06
8.8316844e-06
1.0225548e-05
1.3244791e-05
1.5611596e-05
2.1300244e-05
2.6397508e-05
3.6611853e-05
4.4532738e-05
5.5969072e-05
4.5301744e-06
3.7136673e-06
2.9025236e-06
2.3078392e-06
1.9713629e-06
1.7855389e-06
1.6754159e-06
1.5754983e-06
1.4682241e-06
1.3675195e-06
1.2720558e-06
1.1812636e-06
1.0992802e-06
1.049199e-06
9.9973749e-07
9.6692686e-07
9.4102975e-07
9.356958e-07
9.4518674e-07
9.3830761e-07
9.3359766e-07
9.440479e-07
9.3797807e-07
9.1945653e-07
8.9520796e-07
8.9012951e-07
8.8944373e-07
8.8818079e-07
8.9187263e-07
9.0015392e-07
9.1087245e-07
9.3822665e-07
9.9928672e-07
1.0798247e-06
1.1816428e-06
1.2724852e-06
1.430804e-06
1.5759013e-06
1.9093608e-06
2.1993298e-06
2.6569672e-06
2.9921358e-06
3.6498391e-06
4.2742888e-06
5.245413e-06
6.3372305e-06
7.7934044e-06
9.0194832e-06
1.1518482e-05
1.3663004e-05
1.8439153e-05
2.2304431e-05
2.9685578e-05
3.6396051e-05
4.4882314e-05
4.5321682e-06
3.7260875e-06
2.9141715e-06
2.3141532e-06
1.9775167e-06
1.7883945e-06
1.6802499e-06
1.582765e-06
1.4737044e-06
1.3735709e-06
1.2791074e-06
1.1877888e-06
1.10994e-06
1.0532239e-06
9.9851645e-07
9.7249481e-07
9.4460174e-07
9.3901364e-07
9.3396117e-07
9.3674669e-07
9.3801696e-07
9.4292036e-07
9.431102e-07
9.2908579e-07
9.0400451e-07
8.9466096e-07
8.8833588e-07
8.850929e-07
8.9553849e-07
9.0530283e-07
9.0883687e-07
9.2522314e-07
9.8093966e-07
1.0694542e-06
1.1831823e-06
1.2820646e-06
1.427203e-06
1.5578996e-06
1.8467338e-06
2.0942348e-06
2.4792295e-06
2.816378e-06
3.4175096e-06
4.0553519e-06
4.9804774e-06
5.8852791e-06
7.3050537e-06
8.6476051e-06
1.0836163e-05
1.2819132e-05
1.6765585e-05
1.9768242e-05
2.4967595e-05
3.1598131e-05
3.9736992e-05
4.5344733e-06
3.7353861e-06
2.9227795e-06
2.3223342e-06
1.9801568e-06
1.793164e-06
1.6821271e-06
1.5837986e-06
1.4775321e-06
1.3780596e-06
1.2817234e-06
1.1928412e-06
1.1161545e-06
1.060854e-06
1.0032304e-06
9.7764277e-07
9.4903908e-07
9.4033666e-07
9.4574003e-07
9.4453182e-07
9.4539359e-07
9.4449344e-07
9.4128989e-07
9.3068452e-07
9.1142354e-07
9.0362115e-07
8.9583935e-07
8.9294006e-07
9.0639904e-07
9.1620036e-07
9.1856038e-07
9.3071016e-07
9.7872456e-07
1.0671661e-06
1.1754494e-06
1.2703695e-06
1.3948755e-06
1.5290304e-06
1.7520923e-06
1.9975244e-06
2.3942657e-06
2.7370603e-06
3.259029e-06
3.9402195e-06
4.8175618e-06
5.4958316e-06
6.7307276e-06
8.2815718e-06
1.0029849e-05
1.1662495e-05
1.4891645e-05
1.7998901e-05
2.2315946e-05
2.8175755e-05
3.2634699e-05
4.5377595e-06
3.7463284e-06
2.9338532e-06
2.3299026e-06
1.9841112e-06
1.7950264e-06
1.6862524e-06
1.5856276e-06
1.4826283e-06
1.3847203e-06
1.2919492e-06
1.1988674e-06
1.1192653e-06
1.067966e-06
1.012636e-06
9.8315725e-07
9.5141966e-07
9.4297708e-07
9.5247734e-07
9.5010282e-07
9.5049287e-07
9.5437695e-07
9.5097338e-07
9.3749112e-07
9.1703405e-07
9.057961e-07
8.9843279e-07
8.9980911e-07
9.1049957e-07
9.1804747e-07
9.2206397e-07
9.3723881e-07
9.7753291e-07
1.0556948e-06
1.1402117e-06
1.2320461e-06
1.3305602e-06
1.4914188e-06
1.6987538e-06
1.9533684e-06
2.3588724e-06
2.7208221e-06
3.1519067e-06
3.9141531e-06
4.7461977e-06
5.3358466e-06
6.3878704e-06
8.0442538e-06
9.5975911e-06
1.099885e-05
1.3734666e-05
1.6914844e-05
2.1438246e-05
2.5771759e-05
2.8805417e-05
4.540822e-06
3.7543153e-06
2.9455254e-06
2.3370802e-06
1.9898596e-06
1.7983642e-06
1.6895412e-06
1.5913871e-06
1.4875562e-06
1.3868633e-06
1.296552e-06
1.2055971e-06
1.1337239e-06
1.0769864e-06
1.0171497e-06
9.8385241e-07
9.4949022e-07
9.4243435e-07
9.3874888e-07
9.4553954e-07
9.5448378e-07
9.5652614e-07
9.541447e-07
9.4405356e-07
9.3527976e-07
9.1267112e-07
8.9584045e-07
8.9685579e-07
9.0943362e-07
9.220236e-07
9.3033945e-07
9.444199e-07
9.7680443e-07
1.0383377e-06
1.1069975e-06
1.2076316e-06
1.3041836e-06
1.4780971e-06
1.6578461e-06
1.9189572e-06
2.30641e-06
2.6721075e-06
3.0258428e-06
3.7276122e-06
4.4840331e-06
5.0249984e-06
5.9682033e-06
7.6133327e-06
9.1963536e-06
1.0474185e-05
1.2741504e-05
1.5723722e-05
2.0128212e-05
2.3812294e-05
2.6309552e-05
4.543918e-06
3.7601261e-06
2.9527462e-06
2.3441823e-06
1.9931964e-06
1.8015613e-06
1.6916166e-06
1.5946446e-06
1.4901733e-06
1.3937884e-06
1.300616e-06
1.2099786e-06
1.1281834e-06
1.0806479e-06
1.0203253e-06
9.8961257e-07
9.5368152e-07
9.4375157e-07
9.3583843e-07
9.4118918e-07
9.5669798e-07
9.5369137e-07
9.4583172e-07
9.3995681e-07
9.3825942e-07
9.2617724e-07
9.0633981e-07
8.9620126e-07
9.067316e-07
9.24721e-07
9.350588e-07
9.4324945e-07
9.6933206e-07
1.0220601e-06
1.0941589e-06
1.2061629e-06
1.3036879e-06
1.4762734e-06
1.6420621e-06
1.8893908e-06
2.2349535e-06
2.5836916e-06
2.987864e-06
3.5342279e-06
4.1954325e-06
4.7236779e-06
5.6451511e-06
6.9262194e-06
8.4675226e-06
9.7866221e-06
1.143641e-05
1.3505714e-05
1.7333152e-05
2.0382091e-05
2.294325e-05
4.5459684e-06
3.7667143e-06
2.9591994e-06
2.3497154e-06
1.9966267e-06
1.8026648e-06
1.6913509e-06
1.5975028e-06
1.49406e-06
1.3999816e-06
1.311386e-06
1.2161514e-06
1.1306497e-06
1.0885735e-06
1.0315941e-06
1.0021009e-06
9.6315257e-07
9.4503147e-07
9.5093979e-07
9.4932912e-07
9.5762521e-07
9.6111376e-07
9.550278e-07
9.4391227e-07
9.3771177e-07
9.281525e-07
9.1782354e-07
9.0619689e-07
9.1205791e-07
9.2799505e-07
9.3654163e-07
9.4036099e-07
9.5976088e-07
1.0020421e-06
1.0803394e-06
1.2041335e-06
1.3081365e-06
1.4710996e-06
1.6049706e-06
1.8323295e-06
2.1081987e-06
2.4100478e-06
2.8865374e-06
3.3189369e-06
3.8131211e-06
4.3306991e-06
5.2358551e-06
6.0314191e-06
7.3593101e-06
8.8586196e-06
1.0182508e-05
1.1388931e-05
1.3866939e-05
1.6209846e-05
1.8508927e-05
4.5477417e-06
3.7759892e-06
2.9694331e-06
2.3552992e-06
2.0017518e-06
1.8040785e-06
1.6923674e-06
1.6008317e-06
1.4981171e-06
1.4003217e-06
1.3162917e-06
1.2185961e-06
1.147876e-06
1.0926239e-06
1.0386081e-06
1.0011178e-06
9.6439125e-07
9.4509273e-07
9.5429367e-07
9.5612241e-07
9.6020265e-07
9.6756239e-07
9.6995679e-07
9.5728641e-07
9.42798e-07
9.2889282e-07
9.1779681e-07
9.1076873e-07
9.2139544e-07
9.3424439e-07
9.3823669e-07
9.4349081e-07
9.6173159e-07
9.9641934e-07
1.0709438e-06
1.1935285e-06
1.3077167e-06
1.4569205e-06
1.5823658e-06
1.7410639e-06
2.0085216e-06
2.2449661e-06
2.6775814e-06
3.1274814e-06
3.5685193e-06
4.1382673e-06
4.9402902e-06
5.5240641e-06
6.4206023e-06
7.8560837e-06
9.1744122e-06
1.0120357e-05
1.143108e-05
1.3212241e-05
1.47864e-05
4.5490564e-06
3.7836952e-06
2.9803142e-06
2.3622204e-06
2.0069761e-06
1.8068285e-06
1.7002745e-06
1.605079e-06
1.5018526e-06
1.4029045e-06
1.3161132e-06
1.2220161e-06
1.1480681e-06
1.0872124e-06
1.0417107e-06
9.9235955e-07
9.6156299e-07
9.4518603e-07
9.4841652e-07
9.5664928e-07
9.6795124e-07
9.7033353e-07
9.6997577e-07
9.6075357e-07
9.5100413e-07
9.4620721e-07
9.2717084e-07
9.1741572e-07
9.2899346e-07
9.3909547e-07
9.4156532e-07
9.5327082e-07
9.7545697e-07
1.0098617e-06
1.0705107e-06
1.1796754e-06
1.2930161e-06
1.4369212e-06
1.5616492e-06
1.6988232e-06
1.9131131e-06
2.119151e-06
2.5008259e-06
2.9318235e-06
3.2974166e-06
4.0341897e-06
4.6036573e-06
5.3217438e-06
6.0542876e-06
7.4512349e-06
8.5662851e-06
9.7255313e-06
1.0615794e-05
1.2271959e-05
1.3467868e-05
4.550029e-06
3.7899904e-06
2.988296e-06
2.3688721e-06
2.011474e-06
1.8093582e-06
1.7061999e-06
1.6112835e-06
1.504598e-06
1.4115901e-06
1.3232439e-06
1.2344841e-06
1.139699e-06
1.089921e-06
1.0521849e-06
9.9695606e-07
9.6776185e-07
9.4520256e-07
9.3937786e-07
9.4737259e-07
9.7029988e-07
9.7558454e-07
9.6544607e-07
9.5637986e-07
9.526115e-07
9.5333197e-07
9.4152473e-07
9.2896207e-07
9.3622186e-07
9.4143941e-07
9.4452295e-07
9.6058626e-07
9.8174314e-07
1.0162203e-06
1.0686043e-06
1.173218e-06
1.2652453e-06
1.4150297e-06
1.5361856e-06
1.6831292e-06
1.8813085e-06
2.0626347e-06
2.4338735e-06
2.8189748e-06
3.1669136e-06
3.9266695e-06
4.4741611e-06
5.2842617e-06
5.9608312e-06
7.3121263e-06
8.3823955e-06
9.6686772e-06
1.0506052e-05
1.2159311e-05
1.3268227e-05
4.5509156e-06
3.7954112e-06
2.9937712e-06
2.374153e-06
2.0151834e-06
1.8117999e-06
1.7033231e-06
1.6145049e-06
1.5077269e-06
1.4153853e-06
1.3314743e-06
1.2442914e-06
1.1482401e-06
1.1036098e-06
1.0591482e-06
1.0085236e-06
9.7245146e-07
9.4638605e-07
9.3766892e-07
9.415725e-07
9.6171975e-07
9.7596149e-07
9.677125e-07
9.5546255e-07
9.4931974e-07
9.4870755e-07
9.4140582e-07
9.2946849e-07
9.335097e-07
9.3583086e-07
9.3985784e-07
9.5991498e-07
9.8273932e-07
1.0137361e-06
1.0588591e-06
1.1476097e-06
1.236586e-06
1.3736192e-06
1.4950772e-06
1.6591739e-06
1.8705041e-06
2.0312361e-06
2.3866924e-06
2.7572726e-06
3.0785745e-06
3.7516999e-06
4.3181346e-06
5.164726e-06
5.8849408e-06
7.1949757e-06
8.199345e-06
9.5785297e-06
1.0524368e-05
1.227325e-05
1.3508143e-05
4.5528715e-06
3.8030153e-06
3.0016615e-06
2.3799738e-06
2.0180658e-06
1.8142475e-06
1.6993531e-06
1.6121419e-06
1.510089e-06
1.4139489e-06
1.3316501e-06
1.242009e-06
1.1598696e-06
1.1075989e-06
1.0527896e-06
1.0085337e-06
9.6910433e-07
9.4724024e-07
9.4212289e-07
9.4389013e-07
9.5712596e-07
9.7181238e-07
9.7193557e-07
9.5934576e-07
9.4391978e-07
9.3307768e-07
9.235742e-07
9.13928e-07
9.1804763e-07
9.2296184e-07
9.3144265e-07
9.5412556e-07
9.8218303e-07
1.0075731e-06
1.0390411e-06
1.1126464e-06
1.1945684e-06
1.3329705e-06
1.457936e-06
1.6128355e-06
1.8405799e-06
1.993167e-06
2.324628e-06
2.692563e-06
2.9874384e-06
3.5484833e-06
4.0637323e-06
4.8397608e-06
5.7031621e-06
6.8964685e-06
7.8950867e-06
9.2086697e-06
1.0184645e-05
1.1871217e-05
1.3371927e-05
4.554119e-06
3.809193e-06
3.0113496e-06
2.386963e-06
2.0211694e-06
1.8170955e-06
1.7024638e-06
1.6106886e-06
1.5129282e-06
1.4143216e-06
1.328028e-06
1.2361706e-06
1.1608181e-06
1.0948164e-06
1.0465475e-06
9.9722752e-07
9.6396866e-07
9.4958973e-07
9.4394672e-07
9.4543079e-07
9.5800774e-07
9.6649094e-07
9.6794458e-07
9.588373e-07
9.4215952e-07
9.2402366e-07
9.1051892e-07
8.9691196e-07
8.953559e-07
9.0043484e-07
9.1093144e-07
9.3216866e-07
9.596881e-07
9.8136723e-07
9.9569743e-07
1.0375301e-06
1.1111724e-06
1.2318627e-06
1.3545117e-06
1.4772659e-06
1.7029166e-06
1.8485949e-06
2.1378696e-06
2.4608269e-06
2.7488494e-06
3.2226851e-06
3.6678747e-06
4.2062266e-06
5.1725803e-06
6.0834509e-06
7.12705e-06
8.2538717e-06
9.2083868e-06
1.0591861e-05
1.2301716e-05
4.5561295e-06
3.8169448e-06
3.0227898e-06
2.3950168e-06
2.0259955e-06
1.8208453e-06
1.7119569e-06
1.6169541e-06
1.5187672e-06
1.4216861e-06
1.3320124e-06
1.2408274e-06
1.1569156e-06
1.0884404e-06
1.0573188e-06
9.9670892e-07
9.6709106e-07
9.5433257e-07
9.4427624e-07
9.4254e-07
9.5964486e-07
9.6750779e-07
9.6210916e-07
9.5337935e-07
9.4150148e-07
9.2253199e-07
9.0527125e-07
8.8913873e-07
8.7985453e-07
8.7844448e-07
8.8400409e-07
9.0070131e-07
9.1910433e-07
9.34157e-07
9.4154618e-07
9.5589421e-07
9.9927749e-07
1.0732382e-06
1.1769737e-06
1.2647389e-06
1.4302417e-06
1.5652055e-06
1.8098958e-06
2.0216234e-06
2.363401e-06
2.6737135e-06
3.0527659e-06
3.3817349e-06
4.1677911e-06
4.7662444e-06
5.79011e-06
6.5536846e-06
7.5396629e-06
8.4827334e-06
1.0061424e-05
4.5569319e-06
3.8194591e-06
3.0289878e-06
2.4003961e-06
2.0303801e-06
1.8229578e-06
1.7173833e-06
1.6251247e-06
1.5223655e-06
1.4261393e-06
1.3390582e-06
1.2506013e-06
1.1558441e-06
1.098057e-06
1.0695149e-06
1.0058924e-06
9.7000757e-07
9.5437805e-07
9.3650262e-07
9.3040351e-07
9.4918438e-07
9.605599e-07
9.4556301e-07
9.3228618e-07
9.2532867e-07
9.1257469e-07
8.9784511e-07
8.8427697e-07
8.7339807e-07
8.677075e-07
8.6916768e-07
8.8158312e-07
8.9943768e-07
9.140553e-07
9.2232112e-07
9.3004638e-07
9.5669381e-07
1.0058032e-06
1.0889834e-06
1.1619734e-06
1.2849104e-06
1.3834103e-06
1.5595421e-06
1.7117779e-06
1.9922377e-06
2.2224696e-06
2.5124265e-06
2.7184289e-06
3.1688043e-06
3.5393938e-06
4.1787471e-06
4.5226156e-06
5.2135643e-06
5.7969635e-06
6.9032435e-06
4.5584728e-06
3.8242963e-06
3.0322089e-06
2.4023744e-06
2.0309097e-06
1.8211633e-06
1.710701e-06
1.6221337e-06
1.5167811e-06
1.4192939e-06
1.3367396e-06
1.2506765e-06
1.1583539e-06
1.1048691e-06
1.0729216e-06
1.0056253e-06
9.7013505e-07
9.5028112e-07
9.3084152e-07
9.2310283e-07
9.3995498e-07
9.5445426e-07
9.4149091e-07
9.2789584e-07
9.2306476e-07
9.1612519e-07
9.069547e-07
9.0536209e-07
9.0647358e-07
9.0746512e-07
9.1129137e-07
9.2387025e-07
9.4761745e-07
9.6934737e-07
9.8678351e-07
9.9928405e-07
1.022808e-06
1.058629e-06
1.1217481e-06
1.1798046e-06
1.2710941e-06
1.3526032e-06
1.5022707e-06
1.6269748e-06
1.8589137e-06
2.0664125e-06
2.3306233e-06
2.5185579e-06
2.8575395e-06
3.142904e-06
3.5282833e-06
3.7567893e-06
4.2115229e-06
4.6134645e-06
5.2755827e-06
4.5564292e-06
3.8145219e-06
3.0212651e-06
2.3940846e-06
2.0217927e-06
1.8096602e-06
1.6880446e-06
1.5982815e-06
1.4980171e-06
1.4039552e-06
1.326306e-06
1.2477592e-06
1.169853e-06
1.1225455e-06
1.0927476e-06
1.0349688e-06
1.0031279e-06
9.8367787e-07
9.6850224e-07
9.6278202e-07
9.8092187e-07
1.0038001e-06
9.9710005e-07
9.8740024e-07
9.9005504e-07
9.9799438e-07
1.0099895e-06
1.0324587e-06
1.0624171e-06
1.0942742e-06
1.1212467e-06
1.1500028e-06
1.1969565e-06
1.2412106e-06
1.2905802e-06
1.3339389e-06
1.3803399e-06
1.4313399e-06
1.5030653e-06
1.5540214e-06
1.6310638e-06
1.7090883e-06
1.8565351e-06
1.9729059e-06
2.1598301e-06
2.330559e-06
2.5487871e-06
2.6899974e-06
2.8897006e-06
3.0980388e-06
3.3642865e-06
3.5735131e-06
3.9603408e-06
4.322966e-06
4.8276182e-06
4.5539055e-06
3.788481e-06
3.00346e-06
2.3878808e-06
2.0199871e-06
1.8062291e-06
1.6845108e-06
1.5954472e-06
1.5071254e-06
1.432085e-06
1.3764366e-06
1.3329833e-06
1.2927536e-06
1.2821886e-06
1.2759968e-06
1.2512092e-06
1.2325441e-06
1.2425703e-06
1.2441065e-06
1.2441163e-06
1.278886e-06
1.3454898e-06
1.3541993e-06
1.3521137e-06
1.3828605e-06
1.43783e-06
1.4965064e-06
1.5811835e-06
1.6777737e-06
1.7921977e-06
1.8766803e-06
1.9542411e-06
2.0673474e-06
2.1720822e-06
2.2972575e-06
2.4287471e-06
2.5650472e-06
2.7137143e-06
2.8434299e-06
2.9418627e-06
3.0263066e-06
3.1470167e-06
3.3556487e-06
3.5471839e-06
3.7491848e-06
3.9098474e-06
4.1363075e-06
4.2615439e-06
4.3149594e-06
4.4382795e-06
4.6222469e-06
4.8385329e-06
5.0617125e-06
5.400785e-06
5.5583795e-06
4.542778e-06
3.784759e-06
3.1416831e-06
2.6081344e-06
2.2791366e-06
2.0705623e-06
1.9867459e-06
1.919276e-06
1.8647956e-06
1.852442e-06
1.8790238e-06
1.957594e-06
2.0107759e-06
2.1274162e-06
2.2179175e-06
2.2593109e-06
2.2792569e-06
2.3784034e-06
2.4351264e-06
2.4648653e-06
2.5756618e-06
2.7853193e-06
2.8342601e-06
2.8448655e-06
2.9550282e-06
3.1404206e-06
3.2999733e-06
3.5201456e-06
3.7447502e-06
4.043665e-06
4.257943e-06
4.4680827e-06
4.7287308e-06
4.9851809e-06
5.3029523e-06
5.6405382e-06
6.0207219e-06
6.4258294e-06
6.8106251e-06
7.090707e-06
7.2315739e-06
7.4373105e-06
7.8169563e-06
8.1785927e-06
8.5128854e-06
8.7637722e-06
9.1373465e-06
9.4622971e-06
9.5549943e-06
9.5896631e-06
9.6512027e-06
9.8659116e-06
1.0105817e-05
1.0247729e-05
9.9727996e-06
4.603177e-06
4.7347112e-06
5.0113187e-06
4.9809358e-06
4.8392897e-06
4.6828759e-06
4.682902e-06
4.7170737e-06
4.7529838e-06
4.8267615e-06
5.0485752e-06
5.3645312e-06
5.552975e-06
5.8974158e-06
6.1830768e-06
6.3240001e-06
6.4271845e-06
6.7286809e-06
6.9242163e-06
7.1118799e-06
7.4406307e-06
7.970315e-06
8.1517195e-06
8.2295425e-06
8.5593485e-06
9.0269852e-06
9.3487571e-06
9.8092743e-06
1.0292811e-05
1.0864428e-05
1.134834e-05
1.1787961e-05
1.2328108e-05
1.2949615e-05
1.3551211e-05
1.4086654e-05
1.4839462e-05
1.5825931e-05
1.6892177e-05
1.7650421e-05
1.8269597e-05
1.874724e-05
1.9282577e-05
1.9855904e-05
2.0401708e-05
2.0792015e-05
2.1327247e-05
2.215262e-05
2.2483474e-05
2.2517361e-05
2.2385785e-05
2.2305811e-05
2.2754475e-05
2.3059318e-05
2.2657423e-05
6.1371269e-06
1.3523589e-05
1.7033693e-05
1.7910415e-05
1.8417482e-05
1.8537844e-05
1.8444814e-05
1.837314e-05
1.8314954e-05
1.8400685e-05
1.8578004e-05
1.8705488e-05
1.8790298e-05
1.9048837e-05
1.924808e-05
1.955953e-05
2.0006685e-05
2.0652824e-05
2.1228667e-05
2.1894934e-05
2.2762925e-05
2.3760652e-05
2.4505295e-05
2.5083937e-05
2.6067218e-05
2.7028445e-05
2.7617788e-05
2.8491169e-05
2.9601527e-05
3.0484391e-05
3.1251073e-05
3.2034141e-05
3.3021455e-05
3.4305145e-05
3.5063072e-05
3.5580568e-05
3.6294375e-05
3.7413662e-05
3.9085067e-05
4.0713914e-05
4.2301328e-05
4.3304616e-05
4.3702809e-05
4.4302811e-05
4.4958433e-05
4.5762357e-05
4.7246432e-05
4.9012009e-05
5.0359622e-05
5.1523062e-05
5.1672359e-05
5.1768553e-05
5.2421254e-05
5.3320569e-05
5.3581913e-05
4.2903857e-05
6.8303212e-05
5.7573835e-05
4.8253215e-05
4.4810727e-05
4.3155851e-05
4.3128942e-05
4.4841541e-05
4.6457914e-05
4.6059403e-05
4.4140513e-05
4.1490271e-05
3.925953e-05
3.7734954e-05
3.6851544e-05
3.7328181e-05
3.8451852e-05
3.9205941e-05
4.0205473e-05
4.1115502e-05
4.2827387e-05
4.6220395e-05
5.0581655e-05
5.4478314e-05
5.7390179e-05
5.9678954e-05
6.1024961e-05
6.1948996e-05
6.4229392e-05
6.7803487e-05
7.069479e-05
7.3011412e-05
7.5487192e-05
7.7999998e-05
8.1457815e-05
8.295615e-05
8.2570958e-05
8.1211238e-05
8.1173223e-05
8.3888589e-05
8.8671546e-05
9.3021602e-05
9.4885922e-05
9.3637416e-05
9.1076856e-05
8.8033848e-05
8.578467e-05
8.5614864e-05
8.7631867e-05
9.04177e-05
9.4128508e-05
9.5430094e-05
9.5519905e-05
9.4365732e-05
9.3750179e-05
9.3695879e-05
5.6454042e-05
2.4748392e-05
1.1081556e-05
6.2167668e-06
5.3474662e-06
5.8277433e-06
7.5958732e-06
1.1674597e-05
1.4605513e-05
1.5910681e-05
1.5904893e-05
1.5277713e-05
1.5294332e-05
1.6534416e-05
2.0951668e-05
2.6475118e-05
3.0535747e-05
3.5041984e-05
4.0565206e-05
5.1674104e-05
5.6425032e-05
6.6888564e-05
7.4030749e-05
8.8005185e-05
0.00012205509
0.00018756254
9.5419975e-05
5.9502002e-05
2.7506419e-05
1.2204129e-05
6.8631099e-06
6.0305454e-06
6.5493981e-06
8.3731158e-06
1.2636724e-05
1.637428e-05
1.860462e-05
1.9052911e-05
1.8734941e-05
1.8747571e-05
1.9947589e-05
2.4348139e-05
3.042517e-05
3.5942663e-05
4.1935025e-05
4.8734414e-05
6.0301487e-05
6.5066292e-05
7.458964e-05
8.5841586e-05
0.00010568562
0.00014253996
0.00022639028
9.8078814e-05
6.0198267e-05
2.8870987e-05
1.3317714e-05
7.780105e-06
6.9310372e-06
7.3888943e-06
8.9507466e-06
1.3021044e-05
1.8172003e-05
2.186596e-05
2.3203029e-05
2.3054696e-05
2.3111844e-05
2.4021653e-05
2.7339359e-05
3.6608523e-05
4.6668884e-05
5.5239089e-05
6.2472033e-05
7.3905826e-05
7.514667e-05
8.3918576e-05
9.5366217e-05
0.00011656039
0.00015758075
0.00026014342
9.8419226e-05
6.0196127e-05
2.9792947e-05
1.4596582e-05
8.8171395e-06
7.7171931e-06
8.1155596e-06
9.6607566e-06
1.4026624e-05
2.1567658e-05
2.6929167e-05
2.8720858e-05
2.8593415e-05
2.7639518e-05
2.8166341e-05
3.1840063e-05
4.5808806e-05
5.9632045e-05
6.7373457e-05
7.3838241e-05
8.708872e-05
9.1132472e-05
9.4859653e-05
0.00010746525
0.00012824043
0.00017177347
0.00027991981
9.6367265e-05
5.9322108e-05
3.1200316e-05
1.5852235e-05
9.6075179e-06
8.5113338e-06
9.0969657e-06
1.121091e-05
1.7000732e-05
2.6425238e-05
3.3047591e-05
3.5249848e-05
3.4978067e-05
3.3617097e-05
3.4757164e-05
4.0393413e-05
5.8917512e-05
7.4020215e-05
8.1549203e-05
8.8769559e-05
9.9471438e-05
0.00010642495
0.00010422395
0.00012358983
0.00015606949
0.00019392789
0.0002807919
9.2905713e-05
5.880746e-05
3.2306348e-05
1.6978688e-05
1.0685668e-05
9.9810623e-06
1.0931809e-05
1.3728898e-05
2.0268442e-05
3.0428429e-05
3.7956588e-05
4.1030136e-05
4.1247628e-05
4.0844272e-05
4.3190569e-05
4.9893697e-05
6.8860937e-05
8.4260154e-05
9.6161431e-05
0.00011013657
0.00012600081
0.00012879563
0.00011877655
0.00013974444
0.00018310201
0.00021863293
0.00028339239
9.0910581e-05
5.906277e-05
3.3203904e-05
1.7994354e-05
1.23688e-05
1.1868021e-05
1.2773805e-05
1.5509001e-05
2.2329006e-05
3.4793091e-05
4.4332341e-05
4.904664e-05
5.1019717e-05
5.3586339e-05
5.7988302e-05
6.5360803e-05
8.1755718e-05
9.4359951e-05
0.00010716081
0.00013016877
0.00015783654
0.00016755028
0.00014997749
0.00017148483
0.00021043246
0.00024242801
0.00030505578
9.3509053e-05
5.9164884e-05
3.3520138e-05
1.9521389e-05
1.4141045e-05
1.3357196e-05
1.4424259e-05
1.8057742e-05
2.7939436e-05
4.3489594e-05
5.4152229e-05
5.9427797e-05
6.2890984e-05
6.7648033e-05
7.4428307e-05
8.3780164e-05
0.00010221072
0.00011474695
0.00012558295
0.00014913037
0.00018027323
0.00020313511
0.00019247626
0.00021471413
0.00026891212
0.00028917557
0.00033537522
9.7956653e-05
5.8689315e-05
3.3548723e-05
2.0585637e-05
1.572206e-05
1.5625745e-05
1.7702141e-05
2.4414717e-05
4.1413874e-05
6.0224862e-05
7.1969692e-05
7.67673e-05
7.9464056e-05
8.3538635e-05
9.0242796e-05
0.00010234746
0.0001277676
0.00014879778
0.00015853492
0.00018384626
0.00021691261
0.00024216948
0.00023129416
0.00024613172
0.00033384589
0.00036594295
0.00039956795
0.00010035889
5.7795009e-05
3.3730567e-05
2.2021414e-05
1.8240894e-05
1.8987768e-05
2.2852339e-05
3.2798709e-05
5.2750021e-05
7.4169096e-05
9.0188937e-05
9.8063359e-05
0.00010181253
0.00010626673
0.00011487887
0.00012848577
0.0001558277
0.00017980768
0.00019049473
0.00022588632
0.00027935511
0.00030673877
0.00027881798
0.00027267393
0.00036940279
0.00044640763
0.00048912381
9.7655466e-05
5.6296608e-05
3.348311e-05
2.321431e-05
2.0417895e-05
2.1550515e-05
2.6098487e-05
3.7154702e-05
5.8653241e-05
8.2233073e-05
0.00010090608
0.00011196406
0.00012009246
0.00013106924
0.00014756737
0.00016683446
0.00019312316
0.00021134889
0.00021961147
0.00026039645
0.00034556802
0.00038587401
0.00034862032
0.00031758381
0.00039966612
0.00051203816
0.00059469274
9.2541082e-05
5.4738604e-05
3.284932e-05
2.4310278e-05
2.2384466e-05
2.3836219e-05
2.8934209e-05
4.1705663e-05
6.8326087e-05
9.5669211e-05
0.00011459883
0.00012446898
0.00013522042
0.00015379685
0.00018013948
0.00021094715
0.00024162439
0.00025558071
0.00026497488
0.00030610921
0.00040528891
0.00045048388
0.00041617648
0.00037883586
0.00044329372
0.00059649171
0.00073206634
8.7673673e-05
5.3605325e-05
3.2566955e-05
2.528134e-05
2.444853e-05
2.6941709e-05
3.4964449e-05
5.4330229e-05
8.6902378e-05
0.00011656113
0.00013539721
0.00014461211
0.00015645247
0.00017870117
0.00021356543
0.00025621481
0.0003055663
0.00033275042
0.00034512316
0.00038895415
0.00049396363
0.00053885577
0.00049137892
0.00042725147
0.00048970095
0.00072455989
0.00089779759
8.6881824e-05
5.2621437e-05
3.226852e-05
2.6402238e-05
2.7173162e-05
3.1825407e-05
4.4428443e-05
7.0507165e-05
0.00010503104
0.00013579908
0.00015536512
0.00016687813
0.00018211012
0.00020770342
0.00024926253
0.00030619385
0.00037917056
0.00042993911
0.00045272022
0.00049672478
0.00061174543
0.00067359246
0.00060398234
0.00049555611
0.00055916826
0.00087372639
0.0010354972
8.9823111e-05
5.249876e-05
3.2602236e-05
2.7569128e-05
2.9188375e-05
3.5342325e-05
5.0811407e-05
8.0260134e-05
0.00011780423
0.00015369372
0.00017976167
0.00019623439
0.00021473106
0.00024667864
0.000298949
0.00037775034
0.00047257728
0.00053598529
0.00056113399
0.00059947939
0.00071846412
0.00081382339
0.0007632056
0.00062751204
0.0007006791
0.001031258
0.0011444255
9.7116442e-05
5.1435007e-05
3.2745182e-05
2.8570029e-05
3.1019085e-05
3.8628641e-05
5.6660211e-05
8.9665979e-05
0.00013291893
0.0001766444
0.00021098687
0.00023870669
0.0002684244
0.00031270012
0.00038481523
0.00048468864
0.00058968794
0.00064659834
0.00066450347
0.00069917286
0.00081848033
0.00092798569
0.00091659164
0.00082214985
0.00089662455
0.0011981294
0.0012536859
0.00010798352
5.0573423e-05
3.2916199e-05
2.955944e-05
3.2599757e-05
4.098007e-05
6.0460473e-05
9.3826354e-05
0.00013988688
0.00019085994
0.00023872724
0.00028523397
0.00033578161
0.00040269201
0.00049711075
0.00061283964
0.000713496
0.00075719178
0.00077060802
0.00080888517
0.00092357959
0.0010283486
0.0010549271
0.0010322864
0.0011027452
0.0013367842
0.0013773157
0.00012007745
5.0363186e-05
3.3167936e-05
3.0139916e-05
3.2759964e-05
4.0389142e-05
5.7531008e-05
8.8211817e-05
0.00013498119
0.00019213786
0.00025319711
0.00032121459
0.00040154081
0.00049798756
0.00061981675
0.0007461001
0.00084177804
0.00088338318
0.00089631154
0.00093997531
0.0010352575
0.0011381855
0.0012120786
0.0012514049
0.0013180638
0.0014593144
0.0015058664
0.00012596451
5.0552656e-05
3.3664001e-05
3.0703646e-05
3.2587483e-05
3.8824956e-05
5.3423219e-05
8.3082964e-05
0.00013022234
0.00019059151
0.00026031333
0.00034294706
0.00044824071
0.00057653408
0.00072643057
0.00087395361
0.00097746966
0.001027502
0.001057661
0.0011059707
0.0011807114
0.0012889911
0.0014067833
0.0015140455
0.0015578433
0.0015948076
0.0016412564
0.00012061528
5.2328463e-05
3.5201122e-05
3.1718493e-05
3.3173065e-05
3.9011516e-05
5.3769376e-05
8.5686522e-05
0.00013747799
0.00020520931
0.00028420582
0.0003788188
0.00050153732
0.00065619627
0.00083368224
0.0010092888
0.0011299175
0.0011978423
0.0012501387
0.0013141843
0.0014021851
0.0015290917
0.0016710063
0.0017976651
0.0018213993
0.0017629756
0.0017598922
0.00012248822
5.4443696e-05
3.6840354e-05
3.432765e-05
3.6339902e-05
4.3752692e-05
6.2680084e-05
0.00010388585
0.00016863303
0.00024882032
0.00033914747
0.00044683511
0.00058598541
0.00076194701
0.00096230214
0.0011632733
0.0013061938
0.0013949587
0.0014688016
0.0015621952
0.001690971
0.0018551395
0.0019723483
0.0020550065
0.0020623064
0.0019344123
0.0018821568
0.00012901757
5.7166783e-05
4.0941869e-05
3.9508981e-05
4.2539814e-05
5.4445847e-05
8.6300179e-05
0.00014584603
0.00022381604
0.00031815935
0.00042904799
0.00056027666
0.00072027791
0.00091483265
0.0011243727
0.0013316946
0.0014923806
0.0016038198
0.0017044925
0.0018318029
0.0019950709
0.0021812602
0.002247502
0.0022563058
0.0022329524
0.0020892483
0.0019885855
0.00013334841
5.8831465e-05
4.5785367e-05
4.6766447e-05
5.5532487e-05
8.1610605e-05
0.00013545702
0.0002052917
0.00029479723
0.0004081482
0.00054517559
0.00070419685
0.00088257767
0.0010765839
0.0012817944
0.0014940321
0.0016809468
0.0018212789
0.0019494739