/*--------------------------------*- C++ -*----------------------------------*\
| =========                 |                                                 |
| \\      /  F ield         | OpenFOAM: The Open Source CFD Toolbox           |
|  \\    /   O peration     | Version:  2406                                  |
|   \\  /    A nd           | Website:  www.openfoam.com                      |
|    \\/     M anipulation  |                                                 |
\*---------------------------------------------------------------------------*/
FoamFile
{
    version     2.0;
    format      ascii;
    arch        "LSB;label=32;scalar=64";
    class       volScalarField;
    location    "14";
    object      p_0;
}
// * * * * * * * * * * * * * * * * * * * * * * * * * * * * * * * * * * * * * //

dimensions      [1 -1 -2 0 0 0 0];

internalField   nonuniform List<scalar> 
62344
(
1.0084644
1.0133348
1.0091165
1.002026
1.0021669
1.0066584
1.0167484
1.0197266
1.0104204
1.0017396
1.0024828
1.0006709
0.99465134
1.0007964
1.0043759
1.0006684
1.0027674
0.99926069
1.003826
1.0032279
0.99562054
1.0079448
0.99989406
0.99979588
0.99906489
0.99724882
0.99385569
0.97799325
0.98311711
1.0069804
1.0109477
0.98876205
0.97137416
0.97561243
0.99079066
0.99023005
0.97043616
0.94620835
0.93964523
0.96747067
1.0036503
1.0182907
1.0080765
0.97404676
0.93524613
0.91995312
0.95382809
1.0122281
1.0471404
1.0356715
0.98312537
0.92192028
0.8843725
0.87724049
0.89489228
1.0088689
1.0141019
1.0086474
1.0042563
1.0032748
1.0088842
1.0178938
1.0227553
1.0127138
1.0018879
0.99967104
0.99862367
0.99810269
0.99910747
1.0027363
1.0061809
0.99608281
0.99798247
1.0005998
1.0012706
0.9956344
1.0050277
1.0072182
0.99776119
0.98843998
0.99916788
0.99881394
0.97976511
0.9823668
1.0017081
1.0078552
0.98822279
0.97122388
0.97674122
0.99163771
0.9884435
0.96802963
0.95479882
0.95730318
0.96821181
0.98337288
0.99492233
0.99573259
0.99161201
0.97903828
0.96056178
0.95082068
0.96377029
0.99021503
1.0042311
0.98622501
0.94191235
0.89423132
0.86745186
0.87039498
1.0099794
1.0144703
1.0081871
1.0053198
1.0049981
1.0106936
1.0179754
1.021667
1.014534
1.0034697
0.99876008
0.99615329
1.0012182
0.99921515
1.0007399
1.0082993
0.99672835
0.99747949
0.99726968
0.99404221
0.99316547
0.99819082
1.0084905
1.0018562
0.98653056
0.99842071
1.0001065
0.98293561
0.98417337
0.99685997
0.99959023
0.9858779
0.97599093
0.98148554
0.99137391
0.98428022
0.9677834
0.96235032
0.96985453
0.97981567
0.97929573
0.9795356
0.98499976
0.99572815
1.000328
0.98644774
0.95526386
0.92813401
0.92466829
0.94369544
0.96616253
0.96969725
0.95342665
0.93110898
0.91622964
1.0109165
1.0140068
1.0088031
1.005567
1.0058601
1.0115949
1.0172339
1.0196793
1.0136587
1.0028493
0.99909217
0.9973201
1.0009041
1.0012725
1.0035954
1.00474
0.99992727
0.99882598
1.0008497
0.99348576
0.99440037
0.99938229
1.0065508
1.0030739
0.99191176
1.0001059
0.99891838
0.98688917
0.99091695
0.99806815
0.99429966
0.98323221
0.98192307
0.99089204
0.99368175
0.97913788
0.96327245
0.96718557
0.98641057
0.99391273
0.98657334
0.975084
0.970639
0.98175571
0.99866539
0.99795869
0.97054835
0.92573633
0.89238445
0.89396282
0.93104988
0.97986876
1.014081
1.0257328
1.0165437
1.0108294
1.0134547
1.0095732
1.0052454
1.0055228
1.0107634
1.0172244
1.0206112
1.0125131
1.0018185
0.99958619
0.99843112
0.99755183
1.0025831
1.0082396
1.0025705
1.002631
0.99708363
1.0040779
0.9987194
0.99851011
1.0069074
1.0060981
0.997472
0.9932998
1.0005031
0.9949533
0.9863053
0.99520957
1.002451
0.99371363
0.98139788
0.98528624
1.0003398
0.99952099
0.97629826
0.95462388
0.96293712
0.99304962
1.0070931
0.99819483
0.97670955
0.96029543
0.96282595
0.98255409
0.99310313
0.98133395
0.94553754
0.90446585
0.88612918
0.90428024
0.9577483
1.026136
1.0746105
1.0944697
1.0098479
1.0136204
1.0099572
1.004515
1.0051112
1.009044
1.0181389
1.0225442
1.0120344
1.0020596
0.99903583
0.99828006
0.99418074
1.0011607
1.0092234
1.0037883
1.0036741
0.99283825
1.0029938
1.0020395
1.0010675
1.0128831
1.0074861
0.99136052
0.98993273
0.99844816
0.99040889
0.98358504
0.99580918
1.0048584
0.99423275
0.97968574
0.98536874
1.0058371
1.0059462
0.97807356
0.95009581
0.95592525
0.99152981
1.0134719
1.0102112
0.98450848
0.95838239
0.95006292
0.96123821
0.97683755
0.97760223
0.96271721
0.93577687
0.91207255
0.90944033
0.9379384
0.99167696
1.0495737
1.0921877
1.0090684
1.0143057
1.0098109
1.0037049
1.0048953
1.0078864
1.0186253
1.0227715
1.011637
1.0023664
0.99773616
0.99706562
0.99296149
0.99787379
1.0053028
1.0047496
1.0027005
0.9910459
0.99745086
0.99955039
1.0023496
1.0135826
1.0075872
0.99044339
0.98937753
0.99859455
0.98972781
0.98348442
0.99607907
1.0053226
0.99436363
0.97853505
0.98408224
1.0072385
1.0102956
0.9829537
0.95155787
0.9514647
0.98448113
1.0117734
1.017358
0.99670505
0.96553596
0.94742401
0.94672233
0.95587306
0.96527584
0.9686519
0.96475422
0.95399478
0.94305251
0.94309154
0.9616084
0.99668404
1.0367908
1.0088424
1.0148478
1.0095249
1.0033652
1.004587
1.0078781
1.0181382
1.021348
1.0112068
1.0015631
0.99635879
0.9961575
0.99426517
0.99568378
0.99979284
1.0040698
1.000743
0.99384216
0.993494
0.99555454
1.0037215
1.0104047
1.0047032
0.99332842
0.99432086
1.0025006
0.9930865
0.98679525
0.99861122
1.0070185
0.99536854
0.97837805
0.98360728
1.0069966
1.0115608
0.98764577
0.95662674
0.95024225
0.97519006
1.0053325
1.0185349
1.0086578
0.97848817
0.95031478
0.9395416
0.94080633
0.94930884
0.96438883
0.97836053
0.98422205
0.97816621
0.96370889
0.95285525
0.95491874
0.97366509
1.0091536
1.0149184
1.0091412
1.0035009
1.0039361
1.0085534
1.0167557
1.0194549
1.0110195
1.000005
0.995048
0.99515292
0.99535342
0.99581397
0.99656642
1.0031256
0.99925373
0.99828867
0.99345762
0.99400722
1.0068844
1.0084922
1.0020521
0.99529779
0.99949103
1.0061161
0.99582718
0.98936678
1.0012759
1.0100362
0.9980501
0.97958698
0.98390937
1.0057119
1.0102331
0.99077724
0.96337551
0.95156546
0.96576383
0.99569158
1.014674
1.0158825
0.9921447
0.95888362
0.93679481
0.9326061
0.93741195
0.95293732
0.97582833
0.99391686
0.99922321
0.98814607
0.96510156
0.9430642
0.93308084
1.0097049
1.0144262
1.0086089
1.0036447
1.0032099
1.0089933
1.0152326
1.0183623
1.0114003
0.99907927
0.99424284
0.99353953
0.99580275
0.99737705
0.99676319
1.0035174
0.99891292
1.0002301
0.99616794
0.99439405
1.0096051
1.0095907
1.0016716
0.99511051
1.0006576
1.0062799
0.99486135
0.98830249
1.0012439
1.012302
1.0014473
0.98197154
0.98436041
1.0029226
1.0072113
0.99280548
0.97149788
0.95535714
0.95889885
0.98373418
1.0079377
1.0169258
1.0032486
0.96879877
0.93864974
0.92810658
0.93177321
0.94461252
0.96776025
0.99211461
1.0066815
1.0068709
0.98729782
0.9552395
0.92568363
1.0102299
1.013733
1.0080347
1.0035264
1.0026755
1.008687
1.0144276
1.0186904
1.0121215
0.99933055
0.99438773
0.99168522
0.99517
0.99849764
0.99853822
1.0052199
0.99929816
0.9980559
0.99821175
0.99500181
1.0103289
1.0116492
1.0045717
0.99444045
0.99798278
1.00372
0.99170924
0.98545931
0.99896991
1.0128969
1.004394
0.98493922
0.98479051
0.9987277
1.0028381
0.9938218
0.98030814
0.96174498
0.95644281
0.97272763
0.99941458
1.0137433
1.0091699
0.9790193
0.94478709
0.92635425
0.92829713
0.94130975
0.96103306
0.98446765
1.0018053
1.0093144
0.99987702
0.97467917
0.9416956
1.0103793
1.013214
1.0075906
1.0030555
1.0026247
1.0078458
1.0142659
1.0198204
1.0126452
1.0002009
0.99591777
0.99085721
0.99440546
0.99818675
0.99996454
1.0069448
0.9999331
0.99326302
0.99820213
0.99539536
1.0082104
1.0129739
1.0090044
0.99488714
0.99447213
1.0007409
0.9893474
0.98418022
0.99748035
1.0129132
1.0062474
0.98791078
0.98592211
0.9943149
0.99733774
0.99360603
0.98780726
0.97069723
0.95853613
0.96595027
0.98942672
1.0084874
1.0096794
0.98817443
0.95340495
0.92887902
0.92578525
0.93961715
0.95946755
0.97955054
0.99450467
1.0028028
1.0013556
0.98668332
0.96218004
1.010194
1.0130497
1.0074338
1.0025242
1.0030693
1.0070701
1.0148539
1.0210645
1.0126575
1.0007712
0.99743981
0.99122683
0.99405041
0.99663995
1.0003187
1.0073221
1.0006093
0.98894357
0.99576778
0.9952131
1.0051923
1.013358
1.0130594
0.99666774
0.99217941
0.99877697
0.98948246
0.9859931
0.99886314
1.013641
1.0071249
0.9906993
0.9883896
0.99148427
0.99139935
0.99186556
0.99229486
0.98090204
0.96490763
0.96412227
0.98049716
1.0013633
1.0062749
0.99350678
0.96350695
0.93641955
0.92687857
0.937694
0.95970486
0.97985053
0.99126233
0.99494704
0.99387584
0.98752964
0.97383539
1.0098718
1.0131308
1.0076054
1.0021829
1.0036241
1.0066586
1.0157811
1.0219503
1.0121889
1.0008199
0.99812994
0.99243517
0.99407123
0.99485859
0.99970348
1.0057858
1.0009948
0.98727388
0.99275018
0.99420997
1.0030831
1.0134982
1.0153365
0.99874148
0.99151966
0.99771203
0.99074185
0.99008956
1.002816
1.0152276
1.0073156
0.99315035
0.99200694
0.99100836
0.98639016
0.98875053
0.99399233
0.98952051
0.97459954
0.96669498
0.97474803
0.99265301
1.0003849
0.99386111
0.97213722
0.94556735
0.9320183
0.93793061
0.95915118
0.98161891
0.99163273
0.99042936
0.98554164
0.9805168
0.9744474
1.0095303
1.0134625
1.008045
1.0022229
1.0040662
1.006633
1.0166357
1.0223802
1.0116698
1.0006578
0.99796567
0.99390976
0.99415917
0.99361817
0.99881341
1.0030083
1.0007904
0.98871941
0.99068969
0.99333413
1.0029349
1.0143398
1.0156083
0.99988795
0.99191372
0.9969708
0.99203513
0.99410172
1.0065595
1.0163039
1.0068715
0.99514377
0.99610682
0.99255892
0.9830661
0.98440641
0.99284284
0.99579057
0.98533901
0.97305642
0.97284946
0.98387032
0.99261055
0.99058817
0.97775818
0.95611523
0.94079465
0.94186745
0.95872673
0.98070513
0.99230524
0.98976237
0.98074188
0.97275958
0.9683364
1.0093
1.0138869
1.0086502
1.0028884
1.0043137
1.0070963
1.0172918
1.0225867
1.0115698
1.0007088
0.99742489
0.99496459
0.99377573
0.99316354
0.99850841
1.0000957
0.99996102
0.99241055
0.99010656
0.99210952
1.003731
1.015954
1.0146854
0.99987059
0.9928049
0.99614275
0.99246285
0.99661808
1.0091939
1.0161745
1.0060241
0.9966142
0.99989484
0.99535775
0.98158609
0.97974774
0.98949407
0.99886338
0.99493455
0.98211183
0.97474051
0.97702937
0.98314295
0.98482522
0.9792869
0.96565147
0.95126997
0.94865779
0.95935583
0.97756006
0.99030628
0.98989794
0.98077002
0.97015874
0.96329879
1.0092181
1.0142244
1.0093326
1.0038389
1.0044515
1.0078195
1.0177587
1.0227934
1.0120772
1.0013145
0.99708643
0.99538728
0.99308525
0.9933548
0.99901535
0.99804645
0.99870464
0.9965699
0.99077869
0.99110592
1.0052247
1.0177733
1.0132084
0.99908534
0.99386842
0.9952018
0.99183742
0.99731252
1.0095847
1.0142508
1.0044023
0.997408
1.0028894
0.99862974
0.98186457
0.97556896
0.98446444
0.99886783
1.002248
0.99227181
0.97990287
0.97338376
0.97326643
0.97642637
0.97711223
0.97175632
0.96193125
0.95712841
0.96226832
0.97451244
0.98603811
0.98840259
0.98182729
0.97184663
0.96308188
1.0092902
1.0145033
1.0099818
1.0048323
1.0045721
1.0086212
1.0180592
1.0231227
1.0131064
1.0023647
0.99713019
0.99540405
0.99202783
0.99377049
0.99972594
0.99741992
0.99741108
0.99980712
0.99215584
0.98981123
1.0061255
1.0191047
1.0116585
0.99809113
0.99496414
0.99434319
0.99068253
0.99633884
1.0084573
1.0112337
1.0020346
0.99755488
1.0049861
1.0018821
0.98362468
0.97249974
0.97848992
0.99602693
1.0067645
1.001953
0.9875378
0.97313704
0.9649704
0.96587818
0.97144257
0.97381905
0.97070432
0.96680113
0.96729948
0.97310261
0.98093511
0.98465606
0.98111931
0.97386114
0.96620116
1.0094474
1.0147301
1.0105097
1.0056833
1.0047686
1.0093958
1.0182402
1.0235524
1.0144204
1.003652
0.99746201
0.99518408
0.99106715
0.99408411
1.0001097
0.99815072
0.99646159
1.001346
0.99335748
0.98843652
1.0058924
1.0193726
1.0103677
0.99740797
0.9960356
0.99376081
0.98948362
0.99488652
1.006737
1.0083558
0.99947011
0.99723407
1.0060381
1.0049573
0.98651378
0.97090808
0.97264781
0.99098475
1.008408
1.0099556
0.9964591
0.97592859
0.95939641
0.9551844
0.96290899
0.97191616
0.97620035
0.97598929
0.97460075
0.97451092
0.97670424
0.97863052
0.97744306
0.97357387
0.96918896
1.0096267
1.0149698
1.0108982
1.0062681
1.0050903
1.010081
1.0183946
1.024029
1.0157035
1.0048554
0.99802979
0.99493423
0.99063082
0.99412256
0.99995409
0.99964559
0.99617141
1.0011862
0.99399216
0.98730011
1.0047405
1.0184862
1.0095193
0.99748316
0.99710536
0.99355628
0.98863663
0.99369378
1.0053378
1.0065362
0.99746658
0.9967163
1.0065496
1.0077758
0.99025561
0.97098071
0.96783449
0.98496476
1.007591
1.0158631
1.0054603
0.98119848
0.95705257
0.94623913
0.95248586
0.96645727
0.97823371
0.98373801
0.98281148
0.97891305
0.97520409
0.97259249
0.97129045
0.97056916
0.97025424
1.0097949
1.0151428
1.0111198
1.0065612
1.0055463
1.0106678
1.0186049
1.0244935
1.0167865
1.0057745
0.99867397
0.99481613
0.99096173
0.99396492
0.99914058
1.001053
0.99665707
0.99967037
0.99392054
0.98657069
1.0031533
1.0169123
1.0091495
0.99836935
0.99815418
0.99370528
0.98811654
0.9928537
1.0048265
1.0060221
0.99642898
0.99621317
1.0066103
1.0101403
0.99441569
0.97254777
0.96454547
0.9789522
1.0047538
1.0195866
1.0136315
0.98818369
0.95781589
0.94008585
0.94196026
0.95826007
0.97683115
0.98887182
0.99115872
0.98561816
0.97645925
0.96819255
0.96442364
0.96536613
0.96839996
1.0099681
1.0152976
1.0112007
1.0065975
1.0060895
1.011123
1.0188695
1.0248919
1.0175907
1.0063312
0.99920333
0.99476368
0.99199324
0.99374929
0.99770759
1.0022304
0.99781397
0.99743584
0.99317749
0.98621385
1.0016303
1.0151815
1.0093318
1.0002242
0.99912874
0.99410362
0.98771407
0.99255649
1.0052629
1.0067287
0.99641388
0.99590266
1.0064112
1.011837
0.99859787
0.9753117
0.96294724
0.97381571
1.0005671
1.0214859
1.0205565
0.99603648
0.96132538
0.93712178
0.93305233
0.94874908
0.97235283
0.99105092
0.99845165
0.99383263
0.98052112
0.96670594
0.95910525
0.95925755
0.96458111
1.0101023
1.0154385
1.0111862
1.0064398
1.0066606
1.0114569
1.0191507
1.0252099
1.018149
1.0065209
0.99953208
0.99475447
0.99344523
0.99357145
0.99591221
1.0029396
0.99946269
0.99505964
0.99197783
0.98609607
1.0004335
1.0136412
1.0099457
1.0025123
1.0000833
0.99466127
0.98730248
0.99246493
1.0064279
1.0083179
0.99727147
0.9957813
1.0060091
1.0131138
1.002604
0.97892228
0.96277995
0.96976487
0.99564497
1.0216241
1.0259927
1.0039139
0.9669516
0.93710642
0.92689178
0.93937012
0.9651337
0.9900206
1.0038371
1.0021245
0.98661557
0.96833749
0.95637951
0.95380535
0.95948425
1.0102446
1.0155607
1.0111257
1.0061935
1.0071568
1.0116874
1.0193948
1.025413
1.0185933
1.0064519
0.99967381
0.9947196
0.99498072
0.99348407
0.99402025
1.0031001
1.0010633
0.99302074
0.99060662
0.98609517
0.9995005
1.0123766
1.0106192
1.0049944
1.0010688
0.99524965
0.98712928
0.99233774
1.0076953
1.0103339
0.99868002
0.99598998
1.0054699
1.0140911
1.0061128
0.98300933
0.96393428
0.9667743
0.99053379
1.0202311
1.0298106
1.0111506
0.97375953
0.93959056
0.92381708
0.93143628
0.95618034
0.98592455
1.0069538
1.0094933
0.99386606
0.97256808
0.9560527
0.94991187
0.95424797
1.010261
1.015653
1.011063
1.0059436
1.0076187
1.0118441
1.0195827
1.0255397
1.0188044
1.0062846
0.9996898
0.99467916
0.99634242
0.99354221
0.99247379
1.0028453
1.0025763
0.99156228
0.98942224
0.98612516
0.99868245
1.011475
1.0112115
1.0071265
1.0020563
0.99583562
0.98705967
0.99207959
1.0086512
1.0125046
1.0002452
0.99621064
1.0047989
1.0146414
1.0091444
0.98698189
0.965795
0.96446843
0.98578358
1.0178567
1.0328441
1.0175079
0.9809709
0.94383771
0.92297885
0.92500439
0.94674472
0.97962057
1.0075437
1.0158217
1.0025059
0.97873698
0.95820121
0.94798947
0.94980247
1.0103463
1.0157196
1.0110337
1.0057075
1.0078222
1.0118971
1.0196774
1.0256689
1.0190509
1.0061512
0.99964187
0.99461191
0.99729935
0.99363979
0.99129614
1.0024189
1.0037688
0.99076119
0.98856073
0.98601383
0.99807659
1.0111618
1.0116732
1.0087057
1.0029502
0.99642992
0.9866096
0.99147327
1.0089943
1.0145611
1.0019074
0.99617497
1.0037765
1.0146486
1.0118582
0.99062335
0.96746004
0.96188295
0.98092219
1.0141594
1.0353081
1.0245363
0.98909555
0.95000764
0.92374774
0.91775759
0.93616748
0.9702988
1.0044502
1.0189745
1.0120977
0.98870855
0.96382028
0.94901274
0.94683021
1.0103075
1.0157462
1.0110426
1.0055918
1.0079636
1.0118775
1.0196159
1.0256569
1.0193287
1.0062263
0.99971546
0.99459846
0.99780101
0.99378861
0.99068208
1.0019647
1.0044117
0.99065908
0.98857293
0.98584946
0.99730456
1.0100803
1.0118071
1.0095475
1.0039986
0.99751027
0.9872573
0.99055241
1.0080128
1.0152289
1.0035605
0.99678136
1.0029705
1.0136623
1.0136493
0.99512733
0.97174671
0.96247327
0.97666036
1.0072368
1.0318156
1.0274273
0.99781597
0.96060335
0.93124579
0.919936
0.93102388
0.96032482
0.9941653
1.0142066
1.0134643
0.99595542
0.97272284
0.9553334
0.94920103
0.95372762
0.95614805
0.96184095
0.96704007
0.97103447
0.97293368
0.97231086
0.96928819
0.96488851
0.96106984
0.95985209
0.96260507
0.96693642
0.9655897
0.95365557
0.93203258
0.91158834
0.90977228
0.94028257
1.0003711
1.0623168
1.0946517
1.0703413
0.99995984
0.93057959
0.90562913
0.93227804
0.9716319
0.97565609
0.97973502
0.98133682
0.98064863
0.97792625
0.97401246
0.97043484
0.96847846
0.96850186
0.97110799
0.97385071
0.97107236
0.95827632
0.936086
0.91268548
0.90388481
0.9216269
0.96662523
1.0184224
1.0466478
1.0382648
1.0001617
0.97402482
0.96803182
0.98333068
1.0015382
0.98332914
0.98408408
0.98211083
0.9788617
0.97539334
0.97251897
0.97133766
0.97263474
0.97590211
0.98010244
0.98306828
0.98116634
0.97151405
0.95337869
0.93362419
0.92361143
0.93290458
0.96498976
1.0073429
1.0263293
1.0045959
0.95751813
0.91683907
0.92348104
0.98173023
1.061922
1.0850686
0.97119583
0.96784181
0.96400477
0.96131176
0.96053662
0.96215091
0.96637871
0.97227255
0.97805778
0.98204466
0.98087777
0.97264022
0.95894967
0.94657972
0.94324228
0.95669164
0.98638425
1.0220247
1.0428084
1.0217566
0.96575399
0.89437689
0.85689013
0.87705729
0.9671251
1.0946231
1.1294376
0.94727356
0.94307974
0.9423262
0.94420675
0.94883044
0.95545309
0.9626216
0.96806322
0.97008812
0.96705685
0.95923297
0.94877594
0.94002014
0.94079024
0.9582675
0.99168576
1.0323659
1.0592946
1.0523664
1.0052834
0.94014214
0.87105967
0.8415731
0.86615838
0.95422679
1.0701826
1.0979933
0.93808354
0.93797291
0.94207408
0.94727519
0.95326546
0.95831412
0.96064764
0.95897281
0.95310688
0.94303447
0.93144368
0.92376513
0.92653313
0.94350552
0.97494291
1.0139195
1.0453395
1.0538565
1.0237349
0.97700045
0.92543458
0.88535328
0.87663554
0.90439699
0.96342168
1.0188185
1.0011464
0.95361168
0.95889267
0.9656647
0.97020257
0.9720173
0.97006675
0.9642197
0.95497495
0.94332362
0.9311485
0.92309571
0.92385114
0.93645979
0.960655
0.99144437
1.016515
1.0234723
1.0046034
0.9695143
0.93756865
0.91733871
0.91963868
0.94678767
0.98106543
0.99949107
0.97113039
0.89283934
0.98569152
0.99148591
0.99329261
0.9921984
0.98800493
0.98055001
0.97065323
0.95973669
0.95001224
0.94510896
0.94744804
0.95843688
0.97681002
0.99646402
1.0082342
1.0043151
0.98083154
0.94688883
0.9119707
0.89687313
0.90773563
0.9515813
1.0188313
1.0652635
1.0428159
0.93975333
0.83196147
1.0032306
1.0032333
0.99854951
0.99221241
0.98480776
0.97726303
0.97083943
0.96771511
0.97032661
0.98007327
0.9959998
1.0151696
1.0316571
1.037546
1.0257824
0.99602578
0.95437293
0.91196986
0.88135287
0.87527798
0.90195315
0.96793506
1.0519837
1.1028478
1.0630834
0.93634161
0.83771516
0.98208763
0.97675378
0.97010973
0.96504269
0.96188188
0.96123524
0.96500926
0.97504625
0.99221045
1.0143644
1.0382071
1.0580841
1.0691284
1.0614245
1.0369632
1.0001076
0.95846867
0.91819708
0.893483
0.89033896
0.91795735
0.97498922
1.0408678
1.0784424
1.0352231
0.95106746
0.90449622
0.93746915
0.93107605
0.92678025
0.92631678
0.93024798
0.93988611
0.95559186
0.97673211
1.0011791
1.024456
1.0438296
1.0567553
1.0587651
1.0471643
1.0275632
1.002586
0.9761534
0.95463825
0.94223352
0.9434929
0.96180703
0.98534212
1.0027738
1.0036128
0.97303548
0.95818575
0.99550713
0.90291516
0.89835901
0.89976658
0.90567029
0.91608079
0.93123839
0.95033059
0.97091613
0.98920445
1.0022974
1.0100346
1.0107575
1.0056688
0.99559908
0.9868207
0.98239939
0.98344753
0.98854651
1.0022503
1.0159535
1.0211426
1.0053265
0.96665904
0.92243216
0.90297166
0.94713287
1.0617384
0.8996716
0.90265809
0.91188733
0.92223141
0.93431985
0.94646276
0.95780088
0.96561111
0.96852698
0.96614983
0.9593714
0.94879419
0.93832133
0.93040911
0.93058556
0.94145521
0.96513298
0.99917209
1.0392359
1.070866
1.0699077
1.0271278
0.95244557
0.88363162
0.86319068
0.93113974
1.0736804
0.93909642
0.94838392
0.95963826
0.96941438
0.97635944
0.97913793
0.97665052
0.96905897
0.95640083
0.9393864
0.91953502
0.90058587
0.88635377
0.87983005
0.88344942
0.90073406
0.93309284
0.98021985
1.0346224
1.07546
1.0797407
1.0372322
0.96349651
0.89712407
0.87570485
0.9348109
1.0461373
1.0079814
1.0176325
1.0226046
1.0236885
1.0205747
1.0122983
0.99903778
0.98142703
0.96059149
0.93720605
0.91300328
0.89081507
0.87385319
0.86570746
0.86843781
0.88402676
0.91286491
0.95240176
0.99650973
1.0308841
1.0393031
1.0205839
0.98514017
0.94999
0.93683829
0.96537229
1.0039875
1.0595298
1.0651134
1.0633699
1.0572612
1.0470883
1.0332734
1.0163427
0.99747835
0.9775623
0.9573243
0.93787837
0.91923533
0.90393001
0.89437046
0.89463914
0.90308506
0.91797621
0.93604744
0.95168884
0.96329777
0.97235885
0.9802526
0.99520918
1.0129128
1.0195455
1.0157544
0.97159753
1.0679838
1.0668292
1.0587342
1.0504853
1.0406518
1.0292338
1.016908
1.0049274
0.99443735
0.98587198
0.97837441
0.971452
0.96510496
0.95969732
0.95669888
0.95439659
0.94884673
0.93867676
0.92426877
0.90944025
0.90981209
0.93427188
0.98649523
1.0554354
1.1001937
1.0688997
0.95980413
1.0329614
1.0268276
1.0192373
1.0121325
1.0062654
1.0025327
1.0009064
1.0011516
1.0037601
1.0088188
1.0163437
1.0250322
1.0326694
1.0362297
1.0347434
1.0213394
0.99550343
0.95974368
0.92080954
0.88805656
0.8771803
0.9021241
0.96846512
1.0643053
1.1414888
1.1124948
0.97530201
0.97509051
0.97002528
0.96558776
0.96407475
0.96466597
0.96849684
0.97591426
0.98698117
1.0009614
1.0179209
1.0377543
1.0588168
1.0774102
1.0891458
1.0889222
1.0717796
1.0382912
0.99227588
0.94139857
0.89928107
0.88022364
0.8958901
0.95393365
1.0455114
1.1299134
1.1259053
1.0085951
0.92990286
0.9263325
0.9259669
0.92920055
0.93580912
0.94581406
0.95919572
0.9759299
0.99578035
1.0182676
1.0422186
1.0657928
1.086416
1.0993948
1.0999718
1.0868351
1.0580231
1.01924
0.97386192
0.93398607
0.91294772
0.91680214
0.95065807
1.0108399
1.0766006
1.0977004
1.0333867
0.91116289
0.91060397
0.91338849
0.91904138
0.9274291
0.93933056
0.9547368
0.97304196
0.99358088
1.0153015
1.0364285
1.0548012
1.0687054
1.0761414
1.0748096
1.0661165
1.0511271
1.0312766
1.0053755
0.98207529
0.96519923
0.95750742
0.95972014
0.9740412
1.0001286
1.0255001
1.0235393
0.91661082
0.91852403
0.92282953
0.92929759
0.93793952
0.94834928
0.96110135
0.97591344
0.9919344
1.0070048
1.020548
1.0304457
1.0369279
1.0390408
1.0355795
1.0303554
1.0276288
1.0290406
1.0328319
1.034826
1.0261887
1.0077714
0.97648866
0.94730073
0.92741462
0.93486307
0.9729031
0.93457986
0.93715228
0.94264677
0.94908272
0.95624315
0.96476126
0.97331027
0.98176055
0.98957504
0.99620487
1.001031
1.003418
1.0031445
1.0007717
0.99804515
0.99804026
1.0053666
1.0255884
1.0538949
1.0811971
1.084686
1.0593519
1.0003818
0.93117645
0.87191037
0.85715939
0.90306048
0.9549592
0.95747394
0.96140251
0.96625759
0.97163275
0.97684635
0.98146161
0.98478041
0.98632775
0.98577086
0.98294708
0.97885746
0.97423069
0.97053874
0.97048575
0.97760315
0.99536235
1.0263214
1.0695402
1.1145344
1.1329526
1.1039278
1.0240219
0.92757966
0.84803539
0.80971185
0.84580757
0.97203845
0.97370139
0.97616982
0.97889277
0.98149917
0.98357215
0.98434833
0.98309737
0.97947908
0.97358137
0.96605561
0.9581771
0.95171248
0.94891298
0.95207974
0.9652987
0.99003254
1.0282472
1.0777085
1.1298733
1.158864
1.1338283
1.0502099
0.94035334
0.84844634
0.80120368
0.82335248
0.99080024
0.99196699
0.99317422
0.99389188
0.993726
0.99201017
0.98809015
0.98179188
0.97294753
0.96196054
0.9500721
0.93913261
0.93100079
0.92871602
0.93489719
0.95094026
0.97870576
1.018847
1.0687501
1.1204724
1.1555866
1.1445354
1.0749549
0.97063494
0.87707286
0.8273045
0.83701765
1.0253307
1.02655
1.0265518
1.0246642
1.0203501
1.012862
1.0019559
0.98809033
0.97160911
0.95378363
0.93586536
0.91977237
0.90847766
0.90409159
0.9093535
0.92599244
0.95376144
0.99235264
1.0393797
1.0882565
1.127232
1.1353153
1.0954376
1.0128244
0.92872944
0.87628883
0.87355459
1.0802733
1.080774
1.0782009
1.0717955
1.0611394
1.0459278
1.0263196
1.0032539
0.97753883
0.95071887
0.92430788
0.90127646
0.88417079
0.87618914
0.87868852
0.89349802
0.91885806
0.95528424
0.99854014
1.043825
1.0853837
1.1101093
1.1021677
1.0572346
0.99030826
0.94162608
0.92146162
1.1480636
1.1469362
1.1404397
1.1278663
1.1092499
1.0850032
1.0556385
1.0218013
0.98624972
0.95019659
0.91656279
0.88751842
0.86599788
0.85454665
0.85448075
0.86660348
0.88979693
0.9226375
0.96312788
1.0069478
1.0488243
1.0831882
1.1000223
1.0890259
1.0510467
1.0082108
0.97329133
1.2082748
1.2047255
1.1933642
1.1742001
1.1476501
1.1144134
1.0760049
1.0344375
0.99276416
0.95171829
0.9139392
0.8821239
0.8587288
0.84529338
0.8436113
0.85472438
0.87620262
0.90754946
0.94637451
0.98911638
1.0325391
1.0713626
1.0995426
1.1094499
1.0922892
1.0565773
1.0162426
1.2271928
1.2213781
1.2067419
1.1844437
1.1549673
1.1190522
1.0787989
1.0369454
0.99552057
0.9559317
0.92029508
0.89080139
0.86948505
0.85697866
0.85487548
0.86431238
0.88440499
0.9135731
0.95015998
0.99239528
1.03462
1.0733896
1.10298
1.1153563
1.1046836
1.0728902
1.0340298
1.1913068
1.18476
1.1707458
1.1510694
1.1256798
1.0955709
1.0624412
1.0278977
0.99387267
0.96173715
0.93319215
0.90984421
0.89303631
0.88423068
0.88424399
0.89357191
0.91185585
0.93846071
0.97281086
1.0109059
1.0490261
1.081177
1.1016423
1.1049895
1.0868377
1.0533725
1.0213546
1.1147141
1.1093544
1.0992279
1.0865102
1.0699166
1.050189
1.0289831
1.0071543
0.98518908
0.96453415
0.94655459
0.93236044
0.92303033
0.91964744
0.92300161
0.9337077
0.95195851
0.97729687
1.0078484
1.0398085
1.0665137
1.0827586
1.083244
1.0678515
1.0411622
1.0083113
0.98629377
1.0312914
1.0272041
1.0221406
1.0157223
1.0083638
1.0000119
0.99108013
0.98200573
0.97326683
0.96549314
0.95938224
0.95565948
0.95513044
0.95856513
0.96678701
0.9805138
0.99974658
1.0231127
1.0469613
1.0657038
1.0737394
1.0672728
1.045681
1.015158
0.98085889
0.94948531
0.93546273
0.96225014
0.96008728
0.958336
0.95691663
0.95603493
0.95601628
0.95696197
0.9589608
0.96206103
0.96624348
0.97181466
0.97899331
0.98809723
0.99955749
1.0138781
1.0310386
1.0497085
1.066875
1.0783356
1.0791989
1.0662908
1.038607
0.99937803
0.95712158
0.91901012
0.88971582
0.88546861
0.90652504
0.90590737
0.90657158
0.90883988
0.91298822
0.91922345
0.92774469
0.93856947
0.95167849
0.96694189
0.98418538
1.0031184
1.0233277
1.0444671
1.0658355
1.0857373
1.1013964
1.1092087
1.1050805
1.0861649
1.052572
1.0063369
0.95307121
0.90267037
0.86278674
0.83961964
0.84287931
0.85235644
0.85290812
0.85504792
0.85987667
0.86788987
0.87933088
0.89447263
0.9136208
0.93686068
0.96390877
0.99419581
1.0269041
1.0608766
1.094247
1.1243311
1.1477015
1.1597788
1.1568672
1.1360166
1.0967579
1.0428899
0.97936166
0.91399098
0.85800918
0.81725437
0.79926437
0.8080039
0.78863167
0.79031124
0.79385615
0.80132364
0.81338877
0.83043728
0.85314554
0.88168967
0.91594118
0.95560646
0.99972941
1.0471646
1.096236
1.1441144
1.1863398
1.2173937
1.2297055
1.2184408
1.1815773
1.1219394
1.0477759
0.96657204
0.88954079
0.82600929
0.78339462
0.76651078
0.77733608
0.72841025
0.73106448
0.73554851
0.74506609
0.76082281
0.78320174
0.81293551
0.8498849
0.89359071
0.94332248
0.998035
1.0566593
1.1182697
1.1805269
1.2380788
1.2833271
1.3074574
1.2977327
1.2507634
1.1725282
1.0772444
0.97558873
0.87869935
0.80457195
0.75756693
0.73917099
0.74802391
0.68644125
0.69016832
0.69640127
0.70897241
0.72954684
0.75785719
0.79406261
0.83724371
0.88611584
0.93985305
0.99702794
1.0566238
1.1203266
1.1868964
1.2521037
1.3091004
1.3508295
1.3567338
1.3207532
1.2418897
1.1328348
1.0166098
0.90131012
0.80922215
0.74681328
0.71519715
0.7147508
0.68456631
0.68963765
0.69863709
0.7149047
0.73975368
0.77203798
0.81096177
0.85510799
0.90341545
0.95288273
1.0021039
1.0502267
1.0984739
1.1496162
1.2028638
1.257992
1.3073871
1.3366737
1.3322316
1.2827109
1.1913364
1.0810936
0.96506823
0.86265779
0.78675955
0.73569625
0.72081076
0.75562879
0.76268363
0.77591574
0.7967694
0.82442731
0.85585517
0.88907855
0.9224277
0.95325189
0.98083573
1.0046934
1.0255719
1.0430802
1.0622702
1.0873186
1.1229472
1.1679599
1.2117751
1.2406297
1.2360262
1.1932582
1.1218276
1.0382639
0.95070154
0.87551718
0.81781698
0.78472068
1.0247094
1.0213416
1.0190277
1.0177174
1.0159386
1.0111875
1.0023314
0.9888294
0.97252227
0.95085101
0.9263842
0.90139546
0.88228297
0.87333629
0.87904277
0.90200611
0.94155114
0.98934817
1.040704
1.0808578
1.0960265
1.0853483
1.0583963
1.0154482
0.96804902
0.926223
0.90797845
1.4624086
1.4373758
1.3795724
1.2980231
1.203136
1.0997726
1.0026477
0.91404741
0.8365487
0.77617387
0.73323143
0.70510206
0.68930818
0.68170798
0.68596814
0.70580759
0.74398624
0.79874402
0.8649579
0.93001627
0.98258969
1.0195401
1.038591
1.035261
1.0211897
1.0120225
1.02163
1.1777956
1.1670533
1.1385404
1.0955935
1.0419575
0.98397409
0.92640468
0.87006396
0.81776236
0.77259911
0.73528703
0.70777551
0.69571453
0.69873272
0.71539281
0.74377913
0.78318376
0.83276138
0.88863945
0.94117038
0.97951893
1.0037759
1.0212437
1.0338524
1.0451168
1.0550808
1.0757824
0.96426979
0.95984604
0.94960195
0.9352995
0.91913359
0.90361175
0.8913498
0.88459028
0.88314346
0.88617187
0.89365502
0.90641433
0.92311276
0.94085131
0.9580014
0.97527279
0.99218914
1.0073773
1.0196269
1.0264705
1.0296966
1.02784
1.0249995
1.0247084
1.0286094
1.0370845
1.0498352
1.0219791
1.0068107
0.98349163
0.95625812
0.92932236
0.90691049
0.89248154
0.88793052
0.89400106
0.91122131
0.93925245
0.9753614
1.0156956
1.0551774
1.0883457
1.1090196
1.1134054
1.1027804
1.0812623
1.0547568
1.0291847
1.006351
0.98648532
0.97117593
0.96263078
0.96279041
0.9735564
1.0843089
1.0685906
1.0417985
1.0079787
0.97130323
0.93662885
0.90901884
0.89123021
0.88502631
0.89071247
0.9081194
0.93564486
0.96911082
1.005508
1.0387893
1.0608482
1.0680188