/*--------------------------------*- C++ -*----------------------------------*\
| =========                 |                                                 |
| \\      /  F ield         | OpenFOAM: The Open Source CFD Toolbox           |
|  \\    /   O peration     | Version:  2406                                  |
|   \\  /    A nd           | Website:  www.openfoam.com                      |
|    \\/     M anipulation  |                                                 |
\*---------------------------------------------------------------------------*/
FoamFile
{
    version     2.0;
    format      ascii;
    arch        "LSB;label=32;scalar=64";
    class       volScalarField;
    location    "14";
    object      p_0;
}
// * * * * * * * * * * * * * * * * * * * * * * * * * * * * * * * * * * * * * //

dimensions      [1 -1 -2 0 0 0 0];

internalField   nonuniform List<scalar> 
96472
(
1.0038551
1.0038615
1.0016182
0.99965958
0.99801607
0.99688739
0.99626484
0.99629973
0.99702579
0.99803879
0.99870261
0.99873122
0.99801387
0.99689031
0.99560885
0.9944152
0.99321193
0.99223421
0.99124471
0.99018671
0.98896303
0.98780777
0.98672913
0.98595299
0.98512781
0.98464068
0.98411586
0.98398885
0.98364785
0.98327124
0.98299317
0.9827213
0.98239903
0.98203982
0.98165902
0.9812485
0.98082045
0.98033021
0.97972837
0.97917369
0.97845579
0.97792866
0.97731314
0.97642269
0.97630374
0.9753456
0.97486832
0.97417471
0.9738967
0.97332328
0.97301355
0.97254298
0.97190885
0.97178583
0.97112632
1.0038605
1.0039287
1.0016845
0.99972003
0.99806387
0.99689545
0.99624933
0.99627566
0.99702814
0.99807558
0.99878125
0.99883328
0.99816954
0.99707494
0.99575753
0.99453177
0.99345063
0.99236442
0.99136259
0.99023062
0.98914533
0.98796075
0.98674279
0.9858588
0.98503704
0.98447537
0.98405381
0.98365808
0.98348842
0.98323067
0.98295239
0.9826856
0.98242375
0.98211817
0.98173883
0.98132304
0.98088914
0.98041274
0.97989874
0.97922866
0.97867625
0.9779911
0.97734417
0.97689835
0.97601346
0.97562302
0.97498954
0.97454401
0.97388903
0.97355778
0.97297083
0.9723632
0.97233799
0.97167678
0.97132299
1.0038709
1.0040038
1.0017619
0.99979542
0.9981165
0.9969281
0.99625728
0.99626814
0.99704033
0.99812506
0.9988694
0.99894556
0.99831255
0.99720634
0.99596907
0.99468822
0.99358302
0.99253499
0.99152175
0.99038526
0.98928439
0.98799364
0.98693275
0.98570696
0.98496267
0.9842389
0.98391773
0.98354495
0.98320959
0.98303217
0.98288084
0.98271977
0.98247254
0.98214232
0.98175713
0.98136526
0.98097538
0.98050422
0.97991472
0.97941648
0.97872889
0.97817171
0.97756059
0.97683574
0.9764182
0.97566646
0.97509978
0.97453514
0.97415603
0.97345928
0.97299166
0.97292508
0.97204809
0.97161314
0.97162809
1.0038854
1.0040744
1.0018539
0.99988058
0.9981839
0.99698157
0.99627762
0.99626485
0.99705164
0.99816934
0.99895062
0.99906339
0.9984364
0.99735986
0.9961395
0.9948961
0.99366692
0.99268903
0.99168067
0.99061889
0.98929031
0.98810154
0.98684199
0.98588952
0.98501348
0.98434427
0.98372939
0.98348802
0.98320268
0.98296243
0.98281899
0.98263147
0.98239584
0.98212235
0.9818064
0.9814575
0.98107445
0.98060371
0.98014912
0.97950834
0.97896758
0.97829104
0.97768973
0.97713802
0.97638385
0.97586105
0.97527952
0.97481163
0.97402994
0.97372475
0.97340223
0.97245758
0.97220807
0.97231162
0.97141513
1.0039011
1.004154
1.001948
0.99998108
0.99827312
0.99704338
0.996305
0.99627935
0.99707329
0.99821216
0.99902814
0.99916712
0.99856937
0.99754521
0.99625859
0.99502388
0.99385728
0.99280266
0.99180701
0.99071334
0.98949044
0.98818405
0.98689182
0.98581347
0.98482073
0.98422563
0.98374615
0.9833843
0.98321713
0.98300385
0.98277549
0.98261384
0.98243175
0.98219281
0.98190403
0.98154969
0.98118278
0.98076003
0.98021218
0.97972465
0.97904724
0.9784996
0.97783912
0.97714973
0.97667165
0.97603828
0.97545209
0.97471985
0.97446515
0.97382795
0.97300717
0.97306048
0.97278608
0.97163462
0.97147239
1.0039187
1.0042417
1.0020521
1.0000926
0.99837586
0.9971258
0.9963552
0.99631625
0.99711083
0.99826875
0.99910643
0.99926481
0.99869915
0.99768571
0.99642649
0.99512911
0.9940383
0.99293403
0.99194434
0.99074545
0.9896876
0.98830441
0.98704073
0.9857955
0.98485559
0.98403128
0.9835835
0.98320277
0.98294687
0.98281393
0.98273159
0.98262791
0.98249347
0.98228913
0.98198405
0.98164934
0.98127263
0.98085662
0.98043156
0.97975874
0.9792532
0.9786048
0.97798278
0.97748638
0.97679064
0.97616474
0.97557884
0.97523102
0.97438264
0.97380322
0.9738434
0.97302294
0.9721337
0.97236316
0.97226809
1.0039413
1.0043331
1.002162
1.000221
0.99848921
0.99721325
0.99642663
0.99635843
0.99715254
0.99833583
0.9991873
0.99936395
0.9988241
0.99780021
0.99660491
0.99532268
0.99410137
0.99308621
0.99207476
0.99099178
0.98966336
0.98843017
0.98712409
0.98590439
0.98499717
0.98415494
0.98357205
0.98325009
0.98294634
0.98274845
0.98267307
0.98261948
0.9825174
0.98230317
0.98203368
0.98174668
0.98140903
0.98101712
0.98050863
0.98004011
0.97939335
0.97881394
0.97824647
0.9775567
0.97699856
0.97648385
0.97591197
0.97502053
0.97467999
0.97441825
0.97339934
0.97304715
0.97313166
0.97243195
0.97138584
1.0039652
1.0044232
1.0022746
1.0003498
0.99861124
0.99732397
0.9964992
0.99640239
0.99720019
0.99839582
0.99926508
0.99946294
0.99893558
0.99794891
0.99671751
0.99547471
0.9942112
0.99317437
0.9921862
0.99115917
0.98984919
0.98844935
0.98710732
0.98596316
0.98478866
0.98411959
0.9834901
0.98316289
0.98302551
0.98289285
0.98273468
0.9826353
0.98251769
0.98236651
0.9821325
0.98187382
0.98153092
0.98114045
0.98071749
0.98015904
0.97959659
0.97900946
0.97837703
0.9778179
0.97726154
0.97655999
0.97587843
0.97555598
0.97499109
0.97404335
0.97401957
0.97351008
0.97273785
0.97239715
0.97235413
1.0039898
1.0045175
1.0023927
1.0004795
0.9987417
0.99743248
0.99657337
0.99646352
0.99726462
0.99845943
0.99934422
0.99955646
0.99904268
0.99810235
0.99683945
0.99553224
0.99439607
0.99327521
0.99228909
0.99112523
0.99003318
0.988669
0.98722026
0.9859594
0.98489621
0.98403233
0.98350089
0.98306525
0.98281984
0.98269926
0.98266093
0.9826349
0.98258252
0.98245994
0.98226826
0.98198816
0.98167114
0.98129369
0.98084399
0.98029139
0.97977655
0.97918164
0.97858012
0.97802
0.97734753
0.97681432
0.97640501
0.97557123
0.97495457
0.97473269
0.97404896
0.97340394
0.97334469
0.9725689
0.97240048
1.0040139
1.0046141
1.00251
1.0006158
0.99888705
0.99755322
0.99666626
0.99654794
0.99733532
0.99853975
0.99943217
0.99964906
0.99915836
0.99820604
0.99699633
0.99566121
0.99447762
0.99341519
0.99240978
0.99128306
0.99004192
0.98873831
0.98745226
0.98605961
0.98506562
0.98404576
0.98344273
0.98309479
0.98282034
0.98267433
0.98264859
0.98268062
0.9826703
0.98257148
0.98236784
0.98209462
0.98178125
0.98145399
0.9810136
0.9805396
0.97993639
0.97940259
0.9788019
0.97818354
0.97764447
0.97716686
0.97629389
0.97594751
0.97539495
0.97482186
0.97407518
0.97394041
0.97328983
0.97285654
0.97259122
1.0040381
1.0047114
1.0026315
1.0007611
0.99902043
0.99768625
0.99677822
0.99662217
0.99739996
0.99861084
0.99951746
0.99973988
0.99926467
0.99831396
0.99711236
0.99583671
0.99452028
0.99347674
0.99249046
0.9914886
0.99018852
0.98877755
0.98739271
0.98615891
0.98496485
0.98419933
0.98346516
0.98307997
0.98293016
0.98282902
0.98272403
0.98268377
0.98264865
0.98257606
0.98241724
0.98220716
0.9819402
0.98161551
0.98117865
0.9806775
0.98020883
0.97956696
0.97898553
0.97843764
0.97790098
0.97712817
0.97679533
0.97611571
0.975545
0.97484226
0.97466674
0.97408446
0.97325497
0.9734813
0.97245788
1.0040618
1.004805
1.0027505
1.000904
0.99916723
0.99781424
0.99688305
0.99669952
0.99746484
0.99867826
0.99959115
0.99982704
0.99935669
0.9984489
0.9972034
0.99590112
0.99465272
0.99354079
0.99254048
0.99149316
0.99032058
0.98901494
0.98748271
0.98623656
0.98498353
0.98409939
0.9834897
0.98303925
0.98277984
0.9826961
0.98271146
0.98274449
0.98274937
0.98270498
0.98258321
0.98239562
0.98209794
0.98174454
0.981348
0.98090446
0.98031904
0.97980487
0.97922749
0.97864197
0.97796799
0.97759948
0.97690957
0.97628937
0.97579065
0.97541553
0.97462185
0.97408902
0.97408436
0.97302049
0.97301264
1.0040836
1.0048965
1.0028683
1.0010445
0.99931307
0.99794843
0.99698177
0.99678924
0.9975519
0.99876477
0.9996771
0.99991576
0.99945687
0.99855799
0.99732898
0.99595416
0.99475978
0.99364642
0.99267452
0.99152475
0.99039022
0.9890569
0.98775337
0.98631252
0.98522655
0.98413317
0.98345679
0.98302622
0.98276216
0.98265766
0.98266352
0.98272222
0.98280127
0.98279744
0.98271404
0.98250786
0.98223607
0.98188653
0.98151566
0.98104951
0.98056268
0.98001533
0.97938924
0.9788323
0.97834787
0.97772965
0.97700908
0.97679881
0.97595837
0.97540699
0.97517397
0.97437242
0.97402808
0.97339241
0.97351306
1.0041021
1.0049863
1.0029792
1.0011869
0.99945963
0.99808312
0.9970974
0.99688003
0.99763014
0.99884779
0.99976822
1.000011
0.99955565
0.99864526
0.99744009
0.99609648
0.99478564
0.99369647
0.99271712
0.9916997
0.99046555
0.98908852
0.98776321
0.98636795
0.98525462
0.98432852
0.98353759
0.98310311
0.98290068
0.98281139
0.98276152
0.98277544
0.982821
0.98281854
0.98275266
0.98259332
0.98236837
0.98209227
0.98170012
0.98123532
0.98078232
0.98018571
0.97968445
0.97907703
0.97855112
0.9777897
0.97769082
0.97653585
0.97641277
0.97588807
0.97484837
0.97497028
0.97407541
0.9740965
0.97303541
1.004121
1.0050732
1.0030919
1.0013281
0.99959037
0.99821564
0.99721877
0.99697323
0.99770353
0.99891539
0.99984189
1.0000967
0.9996464
0.99875268
0.99751358
0.99619686
0.9948428
0.99375674
0.99270847
0.99177669
0.9905695
0.98929088
0.98775888
0.98656968
0.98520601
0.98428285
0.98359119
0.98304671
0.98278353
0.98273626
0.98275368
0.98284396
0.98292754
0.98294793
0.98288214
0.98276002
0.98254065
0.98223805
0.98185363
0.98146848
0.98091725
0.980436
0.97980953
0.97933027
0.97861741
0.97836699
0.97736686
0.97728846
0.97647394
0.97577614
0.97568316
0.97512222
0.97415393
0.97414416
0.97379991
1.0041366
1.0051536
1.003196
1.0014547
0.99973296
0.99834616
0.99732271
0.99706603
0.9977902
0.998999
0.99992651
1.0001711
0.99973351
0.99885248
0.9976141
0.99622195
0.99494196
0.99380643
0.99284247
0.99173773
0.99066657
0.98941053
0.9880331
0.98662321
0.9854191
0.98430389
0.98357621
0.98308923
0.98278356
0.98267867
0.98273371
0.98279836
0.98289889
0.98298459
0.98299505
0.98289477
0.98267108
0.98238017
0.98204356
0.98157627
0.98117776
0.98059116
0.9801413
0.97944538
0.97906186
0.97832405
0.97795532
0.97727161
0.97670118
0.97633409
0.97594058
0.97470482
0.97512252
0.97438998
0.97378759
1.0041546
1.0052308
1.0032867
1.0015798
0.99986638
0.99846884
0.99743239
0.99716187
0.9978725
0.99908788
1.0000227
1.0002627
0.99983099
0.99894073
0.99771774
0.99630401
0.99499256
0.99383245
0.99289172
0.99186576
0.99068831
0.98936402
0.98815133
0.98667434
0.98554318
0.98452714
0.98366429
0.98317546
0.98291288
0.98277159
0.98276285
0.98286849
0.9829657
0.98303257
0.98305916
0.98297318
0.98279143
0.98254084
0.98218174
0.98182483
0.98130857
0.98092064
0.98028485
0.97981588
0.97922346
0.97862483
0.97817571
0.97738772
0.97715365
0.97654561
0.97575356
0.97559341
0.97522086
0.97446753
0.97391244
1.0041692
1.0053063
1.0033883
1.0017006
0.99997719
0.99858316
0.99754425
0.99725952
0.99794864
0.99915663
1.0000956
1.0003466
0.99991336
0.99902714
0.99778163
0.99641865
0.99500604
0.99390335
0.99283763
0.99194334
0.99081432
0.98952793
0.98809044
0.98684601
0.98552633
0.98456606
0.98378634
0.98315484
0.98282004
0.98278388
0.98283052
0.98290901
0.98301954
0.98311946
0.98313535
0.98308022
0.98295877
0.98270091
0.98237546
0.98195306
0.98157656
0.98103153
0.98054025
0.9800181
0.97933859
0.97898017
0.97809238
0.97805861
0.97719272
0.97662057
0.97635231
0.97594809
0.97510652
0.97463353
0.97471944
1.0041888
1.0053742
1.0034613
1.0018092
1.0000955
0.99869585
0.99764961
0.99734114
0.99802917
0.99922786
1.0001635
1.0004148
0.99998831
0.99911521
0.99786868
0.99646973
0.99507735
0.99393802
0.99292468
0.99191256
0.99085687
0.98969422
0.98829831
0.98698234
0.98568923
0.98454448
0.98377595
0.98319872
0.98283316
0.98271707
0.98278897
0.98289596
0.98299491
0.98311238
0.98320225
0.98320389
0.98309146
0.98283962
0.98252716
0.98214799
0.98171706
0.98122669
0.98076124
0.98015855
0.97972158
0.97900979
0.97878224
0.97794548
0.97741616
0.97723254
0.97648353
0.97580969
0.97558905
0.97536993
0.97454081
1.0042016
1.0054417
1.0035418
1.0019027
1.0001886
0.99879626
0.99773293
0.99742685
0.99809096
0.99930048
1.000249
1.0004928
1.0000766
0.99919532
0.99795693
0.99651331
0.99516405
0.99394242
0.99300421
0.99202071
0.99089408
0.98965482
0.98848368
0.98704326
0.98586755
0.98476607
0.98385853
0.98329122
0.98296583
0.98276164
0.98275053
0.98287999
0.98304454
0.9831577
0.98325719
0.98327708
0.98316517
0.9829661
0.98267913
0.98232232
0.98187129
0.98146551
0.98094826
0.9804585
0.97991971
0.97944589
0.97879005
0.97819055
0.97795259
0.97712022
0.97662912
0.97648473
0.97580823
0.97534962
0.97474731
1.0042259
1.005494
1.0036007
1.0020057
1.0002867
0.99888669
0.99783469
0.99750283
0.99815355
0.99935096
1.0003172
1.0005728
1.0001604
0.9992766
0.99803574
0.99662091
0.99519048
0.99401548
0.99298294
0.99206428
0.99103233
0.98976235
0.98846873
0.98715256
0.98587734
0.9848842
0.98401428
0.98332709
0.98292825
0.98280979
0.98284189
0.98293623
0.98305043
0.98319617
0.9832956
0.98331839
0.98325794
0.98310969
0.98283925
0.98247445
0.98210523
0.98164106
0.98118537
0.98070067
0.98015226
0.97959512
0.97892365
0.97871342
0.9778364
0.97752091
0.97714826
0.9764016
0.97630161
0.97521897
0.97567182
1.0042369
1.0055636
1.0036612
1.0020897
1.0003548
0.99896503
0.99790514
0.99757004
0.99820791
0.99939377
1.000359
1.0006335
1.0002215
0.99935591
0.99811161
0.99670354
0.99523071
0.99408041
0.99301336
0.99207888
0.99104312
0.98994265
0.98859218
0.98736389
0.98601307
0.98487018
0.98404534
0.98337604
0.98291775
0.98274715
0.9828031
0.98293349
0.9830557
0.98318167
0.98330491
0.98339091
0.98337629
0.98324148
0.98296734
0.98263477
0.98223914
0.98182379
0.98137583
0.98086806
0.98035893
0.97973785
0.97946776
0.97865137
0.97827305
0.97784085
0.97719229
0.97686084
0.97627776
0.97596007
0.97561884
1.0042635
1.0055936
1.0037068
1.0021606
1.0004229
0.99903302
0.99797786
0.99761924
0.99825019
0.9994221
1.0004056
1.000689
1.0002913
0.99943485
0.9982031
0.99676389
0.99533578
0.99409151
0.99309554
0.99218158
0.99111983
0.98997099
0.98879054
0.98743085
0.9862214
0.98506664
0.98411275
0.98347434
0.98303937
0.98278673
0.98274907
0.98286678
0.98304127
0.983194
0.98333539
0.98344991
0.98345062
0.98331412
0.98309794
0.98278642
0.98240879
0.98200706
0.98156389
0.98109647
0.98058326
0.98015807
0.97956151
0.97894176
0.97869899
0.97784316
0.97753102
0.97719656
0.97632344
0.97658077
0.97531606
1.0042726
1.005655
1.0037361
1.0022171
1.0004754
0.99908717
0.99803071
0.99765752
0.99827016
0.99946452
1.0004515
1.0007385
1.0003608
0.9995107
0.99828944
0.99685335
0.99540787
0.99414811
0.99314325
0.99221162
0.99125767
0.99004728
0.98886089
0.98752255
0.9862884
0.98523329
0.98428738
0.98353177
0.98306246
0.98284115
0.98280641
0.98289843
0.98302609
0.98317879
0.98333356
0.98343785
0.98346582
0.98338468
0.98321993
0.98292842
0.98256369
0.98216463
0.98174214
0.98130773
0.98084
0.98033106
0.97972525
0.97940429
0.97864287
0.97826096
0.97793972
0.97701703
0.97713407
0.97624444
0.97602987
1.0042983
1.0056404
1.0037876
1.002289
1.0005198
0.99913221
0.99808383
0.9976982
0.9982843
0.99942977
1.0004597
1.000783
1.0004174
0.9995863
0.99837065
0.99695485
0.99546774
0.99425561
0.99317593
0.99227585
0.9912877
0.99021741
0.98894522
0.98775673
0.98643724
0.98527446
0.98438285
0.98363519
0.98308843
0.9828155
0.98278518
0.98288964
0.98302598
0.98316222
0.98331344
0.98343989
0.98350632
0.98348115
0.98332637
0.98306355
0.98271502
0.9823313
0.98192853
0.98148532
0.98102095
0.98049909
0.9800693
0.97950025
0.97896429
0.97865921
0.97785151
0.97762491
0.97728479
0.97632847
0.97664123
1.0042896
1.0057417
1.0037579
1.002318
1.0005545
0.99915955
0.99812344
0.99771662
0.99827369
0.99946395
1.0004501
1.0008001
1.0004559
0.99964936
0.99845277
0.99704512
0.99556841
0.99432058
0.99324917
0.99237227
0.99136787
0.99030764
0.98912608
0.98788492
0.98663271
0.98544025
0.98445496
0.98372751
0.98319042
0.98285453
0.98274527
0.98282182
0.9829749
0.98314447
0.98330182
0.98343601
0.98352145
0.98351786
0.98340016
0.98316892
0.98284202
0.98246272
0.98210067
0.98168033
0.9812402
0.98076296
0.98025487
0.97974354
0.97936355
0.97872239
0.97821468
0.97801594
0.97712094
0.97715654
0.97642754
1.0042806
1.0056768
1.0038233
1.0023693
1.0005571
0.99920638
0.99814705
0.99772392
0.99826673
0.99938654
1.000455
1.000808
1.0005045
0.99971246
0.99853581
0.99712892
0.9956672
0.99438453
0.99333879
0.99242492
0.9915096
0.99041228
0.98926123
0.98798636
0.98674288
0.98561475
0.98462287
0.98382161
0.98324775
0.98290925
0.98278127
0.98282201
0.98295535
0.98310513
0.98325549
0.98339644
0.98351275
0.98354921
0.98345484
0.98326094
0.9829878
0.98263382
0.98222507
0.98184657
0.981389
0.98096299
0.98051108
0.98003414
0.97952391
0.97897751
0.97866454
0.97794907
0.97769351
0.97722649
0.97677205
0.97628256
0.97602362
0.97567902
0.97555295
0.97542284
0.97486444
0.97458476
0.97464133
0.97414688
0.97393261
0.97382013
0.97339444
0.97319997
0.97303908
0.97266752
0.97251204
0.97239955
0.97205459
0.97186256
0.97167649
0.97175647
0.9711541
0.97145201
0.9710647
0.97102251
0.97096835
0.97101811
0.97568513
0.9753938
0.97524056
0.9749439
0.97458941
0.97455038
0.97422388
0.9738018
0.97382554
0.97336854
0.97319307
0.97304653
0.97269248
0.97258315
0.97225553
0.9721609
0.97179878
0.97177448
0.97146359
0.97136692
0.97103608
0.97114292
0.97070644
0.97087244
0.97058418
0.97055488
0.97042324
0.97507418
0.97493307
0.97455023
0.97437588
0.9741645
0.9737715
0.97371041
0.97345247
0.97306309
0.97311972
0.97266827
0.97252747
0.97234099
0.97204236
0.97192893
0.97159241
0.9715579
0.9711645
0.97117647
0.97082689
0.97085437
0.97048675
0.97060892
0.97022253
0.97031941
0.97013652
0.97007939
0.97456738
0.97427078
0.97404803
0.97379876
0.97360227
0.97333101
0.97308993
0.97294911
0.97267482
0.97240651
0.97236035
0.97203476
0.97182741
0.97168131
0.97144985
0.97123381
0.97105384
0.97088299
0.97069331
0.97052789
0.97035919
0.97024
0.97006022
0.9700226
0.96987057
0.96973622
0.9697584
0.97384477
0.97360733
0.97347327
0.97320441
0.97302912
0.97290778
0.97252545
0.97245804
0.97227268
0.97190134
0.97187059
0.97156293
0.97146945
0.97115641
0.97101041
0.97090169
0.97053612
0.97062497
0.97016548
0.97033521
0.96984072
0.97001137
0.96960544
0.96973293
0.96939817
0.9695108
0.969285
0.9732744
0.97298703
0.9729887
0.97273271
0.97243711
0.97240957
0.97217761
0.97178362
0.97189765
0.97155925
0.97130073
0.97126316
0.97085522
0.97090477
0.97048193
0.97052413
0.97023704
0.97003164
0.9700934
0.96957889
0.96991653
0.96929527
0.96961518
0.96907455
0.96936001
0.96895819
0.96894712
0.97272539
0.97267718
0.97225381
0.97230656
0.97208958
0.97163277
0.97189524
0.97139928
0.97110841
0.97138371
0.97074718
0.97082102
0.97063917
0.97027622
0.9703756
0.96982225
0.97015608
0.96953335
0.96977932
0.96933772
0.96934169
0.96923103
0.96908534
0.96898349
0.96881965
0.96876861
0.96870782
0.97226367
0.97216492
0.97181958
0.97155839
0.97162972
0.9713704
0.97106295
0.97119927
0.9707539
0.9705493
0.9706836
0.97016939
0.9702652
0.97003154
0.96978003
0.96984907
0.96936514
0.9696207
0.96906678
0.96938508
0.96885088
0.96901852
0.96862582
0.96882938
0.96847359
0.96844881
0.96840181
0.97153609
0.9714636
0.97143134
0.97106448
0.9710439
0.97103102
0.97051962
0.97076179
0.97045669
0.97008532
0.97030165
0.96979284
0.9698451
0.96963697
0.96949808
0.9694915
0.96900488
0.96937614
0.96866962
0.96914096
0.96851586
0.96881028
0.96841538
0.96843584
0.96827538
0.96825992
0.96794184
0.97113127
0.97083669
0.97093979
0.97079134
0.97052112
0.97046687
0.97043726
0.96997749
0.97019794
0.96991097
0.96954956
0.96988759
0.9692285
0.96940236
0.96922208
0.96893328
0.96910197
0.96862237
0.9689133
0.96831278
0.96867872
0.9682024
0.96841632
0.96801243
0.96809338
0.96792134
0.96779508
0.97071103
0.97069447
0.97040329
0.97043564
0.97020349
0.96993349
0.97005878
0.96971298
0.9696028
0.96965185
0.96925328
0.96934283
0.96918571
0.96890825
0.96899758
0.96872312
0.96873245
0.96844745
0.96855888
0.96819635
0.96844611
0.96789746
0.96812422
0.96788192
0.96782873
0.96757814
0.96768415
0.97038319
0.97019483
0.96997223
0.96994125
0.96976632
0.96963091
0.96959119
0.96938299
0.9692862
0.96923209
0.96906343
0.96892278
0.96894322
0.96874677
0.96856852
0.9687161
0.9682186
0.9685769
0.96801741
0.96820774
0.96810388
0.96775573
0.96798579
0.9674838
0.96776746
0.96731874
0.96745651
0.9694778
0.96983347
0.96954413
0.96949136
0.96948578
0.96927981
0.96910067
0.96923538
0.96889467
0.96899681
0.96885877
0.96858563
0.96881357
0.96840099
0.96852837
0.96828709
0.96822702
0.96827192
0.96791062
0.96810133
0.96766152
0.96788025
0.96755765
0.96749084
0.96743558
0.96722394
0.96718179
0.96948993
0.96909262
0.96927301
0.96912044
0.96907509
0.96908122
0.96883121
0.96885753
0.96886404
0.96853383
0.96882328
0.96843164
0.96837322
0.96854592
0.96804269
0.96838432
0.96792329
0.96800618
0.9679917
0.96768334
0.96773903
0.96754722
0.96750207
0.96727556
0.96729918
0.96698768
0.9670981
0.9691686
0.96913776
0.96901474
0.96893782
0.96884312
0.96869645
0.96889444
0.96844088
0.96854485
0.9686615
0.96816375
0.96854927
0.96816376
0.96812748
0.96821996
0.96790813
0.96805085
0.96761368
0.96795218
0.96744775
0.96766191
0.96740781
0.96725493
0.9672255
0.96715951
0.96688049
0.96693553
0.9688069
0.96893635
0.96873769
0.96857428
0.96863697
0.96857345
0.96841085
0.96851966
0.96829295
0.96825574
0.96831563
0.9680546
0.96821727
0.96783768
0.96798564
0.96800843
0.96749586
0.9680091
0.96733634
0.96760824
0.96737728
0.96730728
0.96724642
0.96691955
0.96720013
0.96671956
0.96685462
0.96869506
0.96862584
0.96845928
0.96834572
0.96844907
0.96838813
0.96812373
0.96843489
0.96813907
0.96800832
0.96828996
0.96786653
0.96802893
0.96786729
0.96772473
0.96784246
0.96747262
0.96778528
0.96740469
0.96739404
0.96724252
0.96726723
0.96709055
0.96711997
0.96681021
0.96686102
0.96673175
0.96820294
0.96827468
0.9683034
0.96825962
0.96823485
0.96814387
0.96816328
0.96822124
0.96793339
0.96807249
0.96801943
0.96780518
0.96796237
0.96771229
0.96781827
0.96754065
0.96756656
0.96755597
0.96727523
0.96755133
0.96704278
0.96733142
0.96685897
0.96727272
0.96671703
0.96691535
0.96666422
0.96816593
0.96802374
0.96819083
0.96813887
0.96815545
0.96805534
0.96818385
0.9679621
0.96797398
0.96810193
0.96770636
0.96791495
0.96780613
0.96765149
0.96777652
0.96744881
0.9676697
0.96731426
0.96738071
0.96747236
0.96704221
0.96736488
0.96686935
0.96722625
0.96681181
0.96688257
0.96672898
0.96814588
0.96831381
0.96818121
0.96795468
0.96821811
0.96804056
0.96793265
0.96808623
0.96780127
0.96806729
0.96773809
0.96776632
0.96788744
0.96741109
0.96782728
0.96749288
0.9676805
0.9673185
0.96728902
0.96762653
0.96697609
0.96747986
0.96688242
0.96733855
0.96683961
0.96695409
0.96688663
0.96821208
0.9679821
0.96808249
0.9680403
0.96796193
0.96814419
0.96781341
0.96786498
0.9680857
0.96764199
0.96787919
0.96786527
0.96766496
0.96777673
0.96742443
0.96781954
0.967566
0.96743597
0.96752585
0.96737425
0.9674786
0.96713597
0.9674058
0.96714095
0.96713647
0.96697703
0.96710898
0.96800328
0.96801281
0.96794893
0.96804751
0.96788223
0.96798185
0.96801254
0.96787898
0.96796821
0.96774408
0.9678708
0.96797686
0.96762155
0.96789769
0.96761555
0.96770393
0.96788199
0.9673686
0.96784944
0.9673451
0.96769105
0.96732322
0.9674469
0.96745188
0.9671354
0.96725534
0.9671166
0.96805318
0.96797396
0.96801097
0.96806561
0.96787278
0.96808858
0.96806257
0.96789209
0.96811436
0.96781434
0.96805224
0.96802954
0.9676991
0.96817895
0.96769955
0.96801589
0.96781462
0.96759728
0.96808884
0.96749663
0.96792117
0.96733537
0.96778251
0.96752514
0.96745797
0.96734864
0.96724293
0.96803636
0.96810202
0.96823619
0.96815665
0.96801322
0.96827869
0.96807619
0.96817597
0.96823904
0.96794022
0.96834523
0.96801615
0.96805042
0.9682429
0.9678914
0.96837683
0.96776265
0.96802226
0.96807662
0.96783574
0.96804504
0.96755026
0.96802641
0.9675651
0.9677764
0.96754836
0.96752392
0.96820332
0.96835324
0.96838808
0.96832404
0.96820639
0.96835405
0.96840295
0.96833829
0.96832159
0.96817974
0.96848335
0.96836982
0.96818184
0.96835228
0.96816366
0.96857909
0.96799623
0.96825438
0.96823801
0.96801497
0.96830154
0.96776479
0.96827269
0.96771747
0.96802436
0.96772308
0.96776753
0.96837984
0.96851412
0.96863628
0.9684232
0.96849877
0.96849909
0.96853897
0.9687028
0.9683599
0.96859471
0.96861124
0.96846191
0.96865339
0.96827667
0.96871414
0.96856297
0.96832187
0.96852474
0.96823257
0.96862725
0.96822415
0.96833348
0.96814193
0.9681806
0.96818574
0.96809646
0.96794869
0.96863374
0.96873102
0.96879223
0.9686422
0.96881977
0.96872802
0.96880558
0.96893831
0.96855749
0.9689534
0.96877889
0.96880253
0.96896226
0.96844306
0.96907183
0.96861687
0.96886694
0.9686772
0.96846113
0.96898716
0.96832892
0.96886087
0.96819006
0.96862641
0.96835806
0.96839972
0.96823763
0.96888813
0.96907175
0.96902838
0.96906762
0.96904421
0.96895652
0.9692522
0.96910745
0.96909057
0.96909027
0.96900748
0.96933052
0.96904734
0.9690985
0.96906212
0.96898405
0.96926707
0.96885526
0.96899751
0.9690019
0.96884877
0.96904071
0.96865358
0.96883837
0.96867694
0.96871311
0.96861798
0.9692705
0.96934918
0.96947957
0.96930525
0.96940113
0.96940578
0.96948106
0.96957918
0.96928008
0.96951579
0.96942816
0.96956898
0.96950697
0.96926183
0.96957724
0.96924834
0.96969767
0.96916633
0.96930733
0.96935615
0.96915578
0.96953004
0.96890503
0.96927632
0.96890244
0.96915885
0.96901025
0.96972854
0.96973176
0.96977235
0.96965674
0.96985738
0.96982707
0.96984291
0.96988124
0.96961901
0.96999371
0.96983574
0.96993205
0.96985702
0.96959504
0.97000793
0.96958877
0.97008149
0.96957146
0.96976698
0.96970268
0.96949901
0.96986162
0.96932809
0.96978041
0.9692723
0.96952859
0.96934928
0.97019918
0.97015034
0.97008845
0.97005857
0.97030882
0.97023022
0.97034741
0.97018328
0.97011009
0.97037598
0.97016575
0.97047969
0.97014289
0.97022723
0.97026095
0.97001275
0.97047161
0.96998072
0.97040932
0.96996402
0.97004235
0.97008841
0.96994326
0.9701896
0.9698261
0.96991298
0.96976766
0.97062768
0.97060259
0.97051703
0.97063891
0.97060929
0.97077902
0.97073588
0.97064479
0.97072308
0.97056589
0.97074229
0.97078341
0.97074826
0.97077092
0.97057053
0.97060776
0.97066791
0.97076579
0.97061658
0.97066578
0.9703655
0.97062741
0.97047116
0.97059241
0.97041417
0.97040425
0.97031299
0.97104831
0.97106874
0.97107744
0.97114921
0.97104784
0.97121849
0.97112538
0.97125079
0.97123531
0.97106334
0.97121444
0.97107243
0.97138618
0.97116647
0.97122125
0.9710672
0.97103773
0.97132727
0.9709997
0.97134445
0.97082478
0.97113559
0.97096339
0.97102383
0.97100939
0.97089834
0.97089744
0.971525
0.97155342
0.97169623
0.97165836
0.97158206
0.9716459
0.97160437
0.97181483
0.97174659
0.97172775
0.9716146
0.97160111
0.97183809
0.97166166
0.9718403
0.97153888
0.97162251
0.97173035
0.97156136
0.97182288
0.97140096
0.97167131
0.97149425
0.97159175
0.97150832
0.97142295
0.97141019
0.97206512
0.9721775
0.97222916
0.97223724
0.97219128
0.97213213
0.97220683
0.97229567
0.97230265
0.972322
0.9721562
0.97225181
0.97230276
0.97222494
0.97234379
0.97209473
0.9722323
0.97227608
0.97215526
0.9722763
0.97199475
0.97218069
0.97212649
0.97218611
0.97205962
0.97193965
0.97192491
0.97267302
0.97278019
0.97282456
0.97284746
0.97278069
0.97272197
0.97281754
0.97283036
0.97287696
0.97286942
0.97275708
0.97286509
0.97282561
0.97283621
0.97283969
0.97271301
0.97284066
0.97278393
0.97282469
0.97269114
0.97270349
0.97267469
0.9727617
0.97272589
0.97262704
0.97252606
0.9725093
0.97331532
0.97339394
0.97345648
0.97345222
0.97339305
0.97334322
0.97340818
0.97345525
0.97348041
0.97347083
0.97337491
0.97341354
0.97339718
0.97342662
0.97344417
0.97335433
0.97342645
0.97332046
0.97339064
0.97329231
0.97332764
0.97330919
0.97327482
0.97326425
0.97317716
0.97317042
0.97316095
0.97398319
0.97404231
0.97410235
0.97409124
0.97404955
0.97400977
0.97404098
0.97408344
0.97409357
0.97407353
0.97400494
0.97399558
0.97401491
0.97404393
0.97405459
0.97401282
0.97396207
0.97393688
0.97395457
0.97398172
0.97394539
0.97391731
0.9738212
0.97382106
0.97380446
0.97383848
0.97381518
0.97466364
0.97469824
0.97473614
0.97473001
0.9746946
0.97466934
0.97468185
0.97469994
0.97473203
0.97467486
0.97468565
0.97459528
0.97466711
0.9746422
0.97467681
0.9746375
0.97455672
0.9745776
0.97451951
0.97462425
0.9745269
0.9745565
0.97443301
0.974457
0.9744241
0.97444779
0.97441058
0.97534855
0.97535207
0.97534474
0.97535764
0.97533113
0.97533385
0.97533142
0.97531682
0.97536702
0.97527866
0.97536172
0.97521464
0.97532514
0.97523147
0.97529838
0.97525995
0.97518889
0.97523712
0.97510348
0.97525671
0.97507364
0.97521854
0.97501833
0.97514213
0.97500179
0.97507749
0.97498306
0.97603124
0.97602958
0.9759969
0.97602659
0.97599983
0.97598869
0.97600236
0.97593028
0.97603547
0.97589056
0.97602116
0.97583535
0.97597289
0.97584851
0.97594835
0.97587443
0.97582535
0.97586482
0.97570101
0.97591803
0.97566145
0.97589926
0.97561138
0.97577829
0.97559036
0.97568113
0.97559995
0.9766881
0.97670005
0.97671304
0.97671048
0.97668809
0.97660962
0.97667327
0.97655968
0.97672763
0.97653728
0.97669557
0.97646641
0.97663045
0.97648125
0.97656001
0.97654428
0.97638016
0.97658458
0.97625298
0.97662066
0.97624425
0.97651898
0.9762417
0.97635627
0.97625746
0.97629316
0.97626619
0.97735844
0.97738737
0.97739378
0.97734164
0.97735815
0.97721726
0.9773932
0.97720244
0.97743653
0.97717703
0.97729002
0.97718812
0.97712758
0.97735334
0.97696509
0.9774205
0.97681151
0.97732921
0.97688495
0.97716294
0.97706139
0.97689241
0.97710603
0.97674079
0.97709859
0.9768216
0.97696877
0.97807045
0.97806284
0.97808595
0.97796755
0.97806717
0.97786347
0.97806952
0.97789552
0.97799848
0.97793016
0.97778263
0.97799968
0.97762849
0.97812809
0.97756075
0.97803809
0.97752883
0.9778158
0.97769185
0.97764158
0.97786487
0.97742159
0.97782657
0.97733516
0.97776393
0.97746085
0.9776043
0.97882165
0.97869412
0.97874658
0.9786144
0.97869385
0.97871893
0.97854627
0.97879813
0.97830889
0.97880536