/*--------------------------------*- C++ -*----------------------------------*\
| =========                 |                                                 |
| \\      /  F ield         | OpenFOAM: The Open Source CFD Toolbox           |
|  \\    /   O peration     | Version:  2406                                  |
|   \\  /    A nd           | Website:  www.openfoam.com                      |
|    \\/     M anipulation  |                                                 |
\*---------------------------------------------------------------------------*/
FoamFile
{
    version     2.0;
    format      ascii;
    arch        "LSB;label=32;scalar=64";
    class       surfaceScalarField;
    location    "14";
    object      phi_0;
}
// * * * * * * * * * * * * * * * * * * * * * * * * * * * * * * * * * * * * * //

dimensions      [1 0 -1 0 0 0 0];

oriented        oriented;

internalField   nonuniform List<scalar> 
123996
(
0.0017924585
-1.6922413e-05
0.00010784903
0.0018877452
-0.00020773053
0.00016395073
0.0020144522
-0.00018204675
0.00019608724
0.0020852086
-0.00017185624
0.00030371219
0.0020147867
-0.00030128024
0.00027854493
0.001881778
-0.00025128254
0.00034386905
0.0016901252
-0.00047364672
0.00036193755
0.0016676011
-0.00057196598
0.00059469338
0.0017585971
-0.00063573121
0.00053682319
0.001819225
-0.00050237603
0.00034697067
0.0017980737
-0.00044053502
0.00033743421
0.0018320141
-0.00026512451
0.00056908266
0.0017847429
-0.00043705128
0.00041532153
0.0017091551
-0.00044245146
0.00030434197
0.0016585317
-0.00033089865
0.00046521948
0.0015876891
-0.00061440214
0.00056767271
0.0016082305
-0.00047278805
0.00042460262
0.0015195895
-0.00035476245
0.00035782666
0.0013469651
-0.00051855818
0.0005430577
0.001381684
-0.00040153482
0.00053580809
0.0012038577
-0.00050408084
0.00054289277
0.0010677468
-0.00052242308
0.00066803437
0.0010290016
-0.0007579348
0.00093628535
0.00099253429
-0.00089542852
0.00080342162
0.0010309011
-0.00050561975
0.00053534114
0.00090223773
-0.00044947537
0.0005897562
0.0010368823
-0.00060829582
0.00059871425
0.0011288243
-0.00053052359
0.00039877931
0.00078955196
-0.00056337824
0.00039466514
0.00047160259
-0.00069032271
0.00065847138
0.00058825937
-0.00067367993
0.00086586653
0.00086602101
-0.00050187839
0.00073724669
0.00088958709
-0.00037124851
0.00047861715
0.00061169334
-0.00044866352
0.000508247
0.00038935361
-0.00061694522
0.00073199566
0.00057112255
-0.00060385294
0.00071107689
0.0010243351
-0.00035743533
0.00034595028
0.0013767487
-0.00015855932
4.8890031e-05
0.0012043027
-0.0002236107
-2.0004339e-05
0.00066675582
-0.00045868637
0.00017769349
0.00025898146
-0.00050942069
0.00049784492
0.00025983286
-0.0004928982
0.00060119552
0.00067583113
-0.00035113998
0.00049053663
0.0013952777
-0.00023549799
0.00026934333
0.0019600843
-0.00022822532
8.4572519e-05
0.0018489839
-0.00022758002
-1.889271e-05
0.0011725293
-0.00019667569
-0.00011199435
0.0004980412
-6.0842277e-05
-8.0518657e-05
0.00051124778
8.667756e-05
-8.6323708e-05
0.0011385104
0.00031233229
-7.2724297e-05
0.0020528661
0.00042988658
-8.4852181e-05
0.0027422533
0.00048473718
-0.00015254017
0.0029706124
0.00052797911
-0.00030426786
0.0028445752
0.00058571396
-0.00048491189
0.00065447445
0.0023665341
-0.00065253483
0.0017029518
-8.756689e-06
0.0017981091
-0.00027068602
0.001920628
-0.0002440004
0.0019814348
-0.00014479494
0.0019300283
-0.00021372322
0.0017913993
-0.00019411753
0.0016139945
-0.00040949496
0.0015907825
-0.00039322214
0.0016790135
-0.00041229887
0.0017235327
-0.00030053938
0.0017250299
-0.00032228056
0.0017318772
-0.00017975072
0.0016934978
-0.00033482464
0.0016459326
-0.00041139967
0.001559689
-0.0003760561
0.0015303106
-0.00046311598
0.0015342271
-0.00044495533
0.0014254359
-0.00055149894
0.0013085386
-0.00053917393
0.001310777
-0.00043281734
0.0011916819
-0.00041360779
0.0010144806
-0.00051126675
0.00097934832
-0.00058272045
0.0010506094
-0.00070573521
0.0010127283
-0.00056399313
0.00082461263
-0.00055316944
0.00097306978
-0.00059360503
0.0010273816
-0.00051360242
0.00076044364
-0.0006456236
0.00051288668
-0.00078551974
0.00062666886
-0.00063448776
0.00086077855
-0.00036826572
0.00081385557
-0.00031191729
0.00052934375
-0.00048825191
0.0003903241
-0.00062163272
0.00058590247
-0.00049117694
0.00082687501
-0.00023236256
0.00084125607
-0.00014469535
0.00065820276
-0.00030228951
0.00042524833
-0.00056428979
0.00023215965
-0.00070502802
0.00021859011
-0.00059848034
0.00029992998
-0.00040591592
0.00046228883
-0.00028757686
0.00074076693
-0.00031112522
0.0011382208
-0.00039629765
0.0013006328
-0.00037599406
0.0012079301
-0.00016921112
0.0010541386
0.00016917901
0.0011827646
0.00053589518
0.0016885066
0.00072405117
0.0023165821
0.00071701014
0.0028087055
0.00055719201
0.0030062829
0.00036118888
0.00018871932
0.0029169054
0.0016103886
-8.8377489e-05
0.0017079333
-0.00022023372
0.0018304004
-0.00022057849
0.0018858202
-0.00022954346
0.0018440823
-0.00014725685
0.0017021298
-0.00020625566
0.0015433925
-0.0002376697
0.0015155256
-0.00029919581
0.0016128983
-0.00028158562
0.001647142
-0.00017617052
0.0016614344
-0.00018060966
0.0016471353
-0.00026476833
0.0016173705
-0.00029501183
0.0015713056
-0.00030759044
0.0014805385
-0.00046922291
0.0014666394
-0.00047636703
0.0014512215
-0.0003962292
0.0013651024
-0.00047931822
0.0012630522
-0.0004007342
0.001259992
-0.00044478339
0.0011439909
-0.00034450765
0.00097426106
-0.00054874233
0.00092098254
-0.00054805527
0.0010429329
-0.00044608048
0.00097177442
-0.00045400109
0.00076543962
-0.00060606369
0.00092129885
-0.00051007333
0.00095024594
-0.00035129781
0.00072615037
-0.00052356812
0.00055078544
-0.00071832329
0.00064638554
-0.00060153343
0.00080835801
-0.00033679407
0.00072607528
-0.00029457966
0.00049569576
-0.00053270511
0.00045475301
-0.00067820812
0.00070070284
-0.00049258718
0.0008735678
-0.00018528813
0.00079565367
-8.7549084e-05
0.00056553529
-0.00030784493
0.00042549785
-0.00059274994
0.00040449826
-0.00073293552
0.00036931079
-0.00069200572
0.000285537
-0.00051168838
0.00019533769
-0.00033418443
0.00029220359
-0.00025632301
0.00064539579
-0.00026133662
0.0011542035
-0.00025461441
0.0014675473
-0.000133121
0.0015163897
0.00012404851
0.0013587299
0.00043919812
0.0012904945
0.00063045472
0.0014319253
0.00061952562
0.0016900313
0.00041996703
0.0019327477
7.2779522e-05
-0.00017205694
0.0019840394
0.0015308794
-0.000145213
0.0016260001
-0.00010544812
0.0017422662
-0.00015724306
0.0018003835
-0.00024077825
0.0017571365
-0.00015545717
0.0016264112
-0.00021092378
0.0014723288
-0.00013627011
0.0014443219
-0.00029455362
0.0015415778
-0.00033246673
0.0015702266
-0.00030826483
0.0015693814
-0.00026805061
0.0015580757
-0.00040556492
0.0015430988
-0.00036799906
0.0014902094
-0.0002834146
0.001407693
-0.00047189783
0.0014031875
-0.00050444785
0.0013817561
-0.00042822844
0.0013437623
-0.00029592096
0.001225435
-0.00023697182
0.0012397356
-0.00036114069
0.0010757782
-0.00035029962
0.00093740402
-0.00061616757
0.00090539394
-0.00068213402
0.0010108465
-0.00040220536
0.00093454103
-0.00032633474
0.00077894639
-0.00051238222
0.00093968363
-0.00037404797
0.00091465198
-0.00019746482
0.00070210337
-0.00034590162
0.0006007199
-0.00055413111
0.00069796141
-0.00051844173
0.00078283474
-0.00030685901
0.00062489286
-0.00027164522
0.00041653671
-0.00050300454
0.00047230008
-0.00067223224
0.00075823895
-0.00050932182
0.00085854665
-0.00019910832
0.00062101201
-6.8283264e-05
0.00030891918
-0.0002411055
0.00022576422
-0.00051575918
0.0002953402
-0.00070343635
0.00040206688
-0.00070561328
0.00040298775
-0.00055381999
0.00023657414
-0.00037052048
0.00019614764
-0.00021986545
0.00042419369
-0.00013991223
0.00094668475
-7.7884126e-05
0.0014873898
-3.1250856e-05
0.0017482893
7.83237e-05
0.0016077488
0.00016549752
0.001132741
0.00025026368
0.00065636762
0.00028146766
0.00037513514
0.00016291542
0.00030296029
-0.00012840164
-0.00039684223
0.0004893262
0.0014577667
-0.00011249964
0.001544243
-5.5545627e-05
0.0016531176
-0.0001441884
0.0017160237
-0.00014431614
0.0016715897
-0.00017903135
0.0015578265
-0.00017950419
0.0013974066
-0.00016986157
0.0013698414
-0.00029742761
0.001459197
-0.00031199777
0.0014892802
-0.00040805938
0.0014786621
-0.00039305902
0.0014825692
-0.0004390242
0.0014751218
-0.00039944358
0.0014064506
-0.00033824509
0.0013371372
-0.00043192578
0.0013435334
-0.00040353523
0.0013367986
-0.00047060269
0.0013096961
-0.00028569763
0.0011671756
-0.00026689749
0.0011889886
-0.00026485223
0.00099459003
-0.00040687764
0.00087226731
-0.00067914971
0.00088583322
-0.00077928393
0.00096930529
-0.00049410741
0.0008745652
-0.00032151414
0.00078285854
-0.00042549795
0.00093341513
-0.00030200043
0.0008568791
-0.00018709205
0.00064220157
-0.00033099698
0.00059192922
-0.00050596437
0.00071673257
-0.00048541386
0.00075871747
-0.00030330614
0.00054343032
-0.0002619171
0.00035611683
-0.00043738137
0.00049137757
-0.00058737464
0.00083479333
-0.00047535544
0.00092989325
-0.0002359245
0.00060935151
-0.00011885762
0.00024413897
-0.00023183825
0.00014303627
-0.00042971607
0.00024745398
-0.00059456849
0.0004419304
-0.00062421619
0.00053291746
-0.00051857096
0.00040372248
-0.0003782469
0.00024749327
-0.00022128701
0.00033557989
-6.4031007e-05
0.00066406051
3.4449149e-05
0.0011790912
8.1080131e-05
0.001548349
4.7235403e-05
0.0015590696
-8.6689631e-06
0.001149557
-8.2878544e-05
0.00046481109
-0.00014716911
-0.00023037024
-0.00018356858
-0.00059981301
-0.0002720643
-0.00027669771
-0.00055326805
0.0013905032
-3.5243816e-05
0.0014664644
-8.3151539e-05
0.0015735334
-0.00015595274
0.0016330537
-5.4599234e-05
0.0015941528
-0.00015026688
0.0014894001
-0.0001242135
0.001330276
-0.0002642064
0.0013042221
-0.00027405174
0.0013813376
-0.00021451888
0.0014163763
-0.0003160401
0.0014032839
-0.00033051582
0.0014093406
-0.00030680632
0.0014075378
-0.00031563292
0.0013366136
-0.00037311762
0.0012886642
-0.00036856955
0.0012796788
-0.00026411874
0.0012895093
-0.00045027024
0.0012462528
-0.00038476872
0.0011184119
-0.00042678991
0.0011245766
-0.00018247298
0.00092065478
-0.00044705358
0.00081875157
-0.00067945154
0.00088100867
-0.00066913244
0.00094926177
-0.0004639383
0.00083108169
-0.00035332174
0.00078062397
-0.00041420411
0.00091241881
-0.00031372061
0.00080753515
-0.00025898297
0.00059645268
-0.00039692634
0.00057058816
-0.00053281331
0.00072487236
-0.00049491312
0.0007551821
-0.00033049185
0.00050940377
-0.00028931115
0.00032027321
-0.00040114445
0.00047362923
-0.00048073661
0.00083096633
-0.00038773786
0.0009334726
-0.00024072391
0.00059902654
-0.00020424409
0.00019794395
-0.00027243817
5.6835548e-05
-0.00037941287
0.00016130233
-0.0004629777
0.00042482852
-0.00050667133
0.00061415333
-0.00046866543
0.00060071582
-0.00036807583
0.00046031564
-0.00023622169
0.00042414702
-5.1857561e-05
0.00053618015
8.3187344e-05
0.00077115792
0.00012930321
0.0010375807
5.1235801e-05
0.0011602011
-0.00011343298
0.0009847041
-0.00031550438
0.00052375657
-0.00048270478
-0.00010898081
-0.00048132851
-0.00065458517
-0.00039059314
-0.00018955473
-0.00087835452
0.0013221544
9.8938198e-06
0.0013919538
-0.00014060528
0.0014996729
-0.00013532194
0.0015516114
-3.6314743e-05
0.001519783
-8.1643241e-05
0.0014155147
-9.0153621e-05
0.0012677379
-0.00030188449
0.0012441277
-0.00024855124
0.0013100493
-0.00017104188
0.0013508157
-0.00017944234
0.0013431539
-0.00015522664
0.0013483364
-0.0001258651
0.0013389294
-0.00016351756
0.0012741472
-0.00034554166
0.0012389587
-0.00029970814
0.0012000316
-0.00023100239
0.0012282195
-0.00039114547
0.001177103
-0.00041285769
0.0010884218
-0.00047461451
0.0010489172
-0.00012549113
0.00086316336
-0.00037787249
0.00079052701
-0.00057606056
0.00087360247
-0.00043596672
0.00092412427
-0.00031203315
0.0007906262
-0.00033953081
0.00075168008
-0.00043954305
0.00086151846
-0.0003307345
0.00075059425
-0.00027799647
0.00054918712
-0.00038320353
0.00053275684
-0.00050378558
0.0007053916
-0.0004719808
0.00074007648
-0.00033669596
0.00049582375
-0.00032323392
0.00030178216
-0.00042196111
0.00044850942
-0.00043137135
0.00079754714
-0.00031684012
0.0009200376
-0.00023698501
0.00064163113
-0.00026964364
0.00022793775
-0.00032081999
4.8739933e-05
-0.00035603305
9.0812042e-05
-0.00037318809
0.00034807044
-0.00039406183
0.00059386294
-0.00040002438
0.00068343637
-0.00034374806
0.00064684287
-0.00022890384
0.00057269524
-8.5716249e-05
0.00052948218
5.8089153e-05
0.00051220264
0.00011329385
0.0005464261
4.4699162e-05
0.00060307507
-0.00014862152
0.00060632009
-0.00037678984
0.00046676858
-0.00056078388
0.0002049549
-0.00058728977
-0.00012869171
-0.0004788045
-0.00022403953
-0.00036809704
0.0012560886
2.0426293e-05
0.0013243532
-0.00016810536
0.0014303955
-8.8648955e-05
0.0014767887
-6.9361555e-05
0.0014498572
-3.3590396e-05
0.0013453963
-9.0397786e-05
0.0012120761
-0.0002465599
0.001186919
-0.0002267281
0.0012466651
-0.00019304213
0.0012913975
-0.00012528959
0.0012883364
-5.7067387e-05
0.0012919334
-4.436594e-05
0.0012705077
-4.7882024e-05
0.0012207577
-0.00027398223
0.0011894134
-0.00022827588
0.001133363
-0.00030418649
0.0011733505
-0.00032299911
0.0011236794
-0.000326525
0.0010822903
-0.00035694553
0.0009911235
-9.3856478e-05
0.00082627408
-0.00026671422
0.00079142881
-0.00043496418
0.00086445744
-0.00030237712
0.00089828707
-0.00022379226
0.00075426111
-0.00030437248
0.00073159905
-0.0004297747
0.00083348131
-0.00031432256
0.00072898709
-0.0002393382
0.00053077669
-0.00030194209
0.00051303457
-0.00041111031
0.00068862426
-0.00039786032
0.00072231297
-0.0003055021
0.00048674659
-0.00033179958
0.00029324763
-0.00043445978
0.00040859342
-0.00039605041
0.00071162639
-0.00025758192
0.0008545261
-0.00022644617
0.00067119049
-0.00030718064
0.00029853257
-0.00035371996
8.4449464e-05
-0.00034195912
4.8382437e-05
-0.00032409783
0.00025587699
-0.00030847696
0.00054893274
-0.00032379372
0.00072937649
-0.00029226766
0.00076524881
-0.00019727278
0.00072366169
-8.7710679e-05
0.00059697725
-4.4439653e-06
0.00041731454
4.4839325e-05
0.00026788117
-1.8660427e-06
0.00020468338
-0.00014126192
0.0002427903
-0.00030960697
0.0003264573
-0.00048004367
0.00038478071
-0.00055030938
0.00034737141
-0.00048790262
-0.00031105189
0.00021757183
0.0011919303
-9.3367078e-06
0.0012614966
-0.00014651985
0.0013614416
-5.3528819e-05
0.001406812
-0.00010435225
0.0013803727
-3.1186461e-05
0.0012785708
-0.00011194778
0.001155938
-0.00012877962
0.0011293324
-0.00019230864
0.0011864611
-0.00022980515
0.0012324393
-0.00012440211
0.0012291693
-7.0210414e-05
0.0012351513
-6.6744154e-05
0.0012001435
-3.875571e-05
0.0011709438
-0.00019167481
0.0011280591
-0.00016972764
0.001077065
-0.00037784988
0.00112745
-0.0002759855
0.0010810309
-0.00021501866
0.0010706467
-0.00018603944
0.00094449866
-0.00012653052
0.00079152839
-0.00021347043
0.00077723744
-0.00035244068
0.00083076966
-0.00032877994
0.00085218786
-0.0002708422
0.00070930455
-0.00028845939
0.00070978385
-0.00036705972
0.00081010958
-0.00025883447
0.00071633117
-0.00018659007
0.00051673739
-0.00023831609
0.00049181281
-0.00033531552
0.00066104582
-0.00032158599
0.00069729493
-0.00026257293
0.00048176163
-0.0003206347
0.00030504622
-0.00040952094
0.00039037205
-0.0003339915
0.00062326266
-0.00018988167
0.0007744064
-0.00019236572
0.00069086698
-0.00030640332
0.00039972654
-0.0003627793
0.00013309041
-0.00032844452
3.8792802e-05
-0.00029340666
0.00015254239
-0.00025223227
0.00044532606
-0.00023322784
0.00071764219
-0.00021491447
0.00080975245
-0.00015565928
0.00079309041
-6.8058418e-05
0.00067135139
-3.3841949e-05
0.00044098031
-4.1583721e-05
0.00019702541
-7.9407438e-05
4.4287818e-05
-0.00015566868
2.9118001e-05
-0.00024808878
0.00014949075
-0.0003496024
0.00036460671
-0.0004195718
0.00055756818
-0.00041413813
-0.00033687429
0.00064200304
0.0011327089
-6.0000104e-05
0.0012018959
-8.8477855e-05
0.0012945247
-4.9606381e-05
0.0013409956
-0.00011012762
0.0013134753
-5.6448095e-05
0.0012207408
-0.00012996788
0.0011025771
-3.3526935e-05
0.0010743087
-0.0001526857
0.0011313627
-0.00023636299
0.001172643
-0.00010800312
0.0011669618
-0.00011873703
0.0011764244
-0.00012698174
0.0011389972
-0.0001034735
0.0011263456
-0.00013437712
0.0010682112
-0.00012374062
0.0010333982
-0.00037091118
0.0010857547
-0.00024728244
0.0010484109
-0.00015906694
0.0010375251
-7.9518656e-05
0.00090748218
-0.00020746751
0.00075708285
-0.00024300526
0.00074127122
-0.0003205697
0.00078162231
-0.00041184723
0.0008067927
-0.00037789238
0.00067637828
-0.00029769
0.00069648887
-0.00028063383
0.00079045218
-0.00017508745
0.0007040896
-0.00014136018
0.00050535784
-0.00023017425
0.00047254088
-0.00032268486
0.00062803062
-0.00028826519
0.00066880937
-0.00023520303
0.00048387275
-0.00030807127
0.00033241559
-0.00036775617
0.00038746803
-0.00025324477
0.00053829798
-0.00011080819
0.00068232239
-0.0001350464
0.00068602696
-0.0002691713
0.00049237346
-0.00035039804
0.00020917888
-0.00033789593
7.2210344e-05
-0.00027816088
9.7368485e-05
-0.00022478229
0.00035711772
-0.00016742099
0.00065803019
-0.0001363306
0.00082304025
-9.7432321e-05
0.00081371949
-4.5564773e-05
0.0006965578
-2.5347067e-05
0.00047423743
-7.9967911e-05
0.00019299628
-0.00015025176
-5.9065842e-06
-0.0002108107
-8.0594454e-05
-0.00023615973
-3.5129801e-06
-0.00025109739
0.00023659293
-0.0002537419
0.00051571948
-0.00024050375
-0.0002648857
0.00071940647
0.0010783944
-8.7124293e-05
0.0011438039
-2.8813894e-05
0.0012303083
-5.8327324e-05
0.0012777052
-8.4435692e-05
0.0012494793
-8.3661889e-05
0.0011679332
-0.00011905839
0.0010490893
-2.1821597e-06
0.0010200065
-0.00012138336
0.0010800245
-0.0002051439
0.001114639
-5.622089e-05
0.0011085268
-0.00014165154
0.0011187605
-0.00014136883
0.0010830683
-0.00019641141
0.0010775902
-0.00011043375
0.0010071343
-9.8723483e-05
0.00099142446
-0.0002846254
0.0010388964
-0.00021787572
0.0010104638
-0.00017069872
0.00098111051
-6.4320779e-05
0.00086970445
-0.00027683018
0.00072204331
-0.00029383669
0.00069345543
-0.00029823157
0.00073181656
-0.00043474151
0.00077150432
-0.00043671729
0.00065279631
-0.00031137975
0.00067879668
-0.00020727842
0.00076075539
-8.5178268e-05
0.00067966078
-9.6107122e-05
0.00048471215
-0.00024771936
0.000444411
-0.00035381967
0.00058494246
-0.00029496703
0.00063103428
-0.00022954976
0.00048774694
-0.0003094854
0.00037073433
-0.00034418607
0.0003973789
-0.00018707486
0.00046943919
-4.1032086e-05
0.00057565094
-6.1180368e-05
0.00064386177
-0.0002054915
0.00053706879
-0.00032080495
0.00029608105
-0.00035643067
0.00011068376
-0.00029088196
8.1707592e-05
-0.00022476054
0.00025929405
-0.00013087823
0.00056832946
-7.0537102e-05
0.00078118072
-3.5594751e-05
0.00080628508
-1.6808275e-05
0.00068643325
-1.3780486e-05
0.00048473647
-7.519483e-05
0.00023159218
-0.00017816869
1.9409487e-05
-0.00025599798
-7.7449252e-05
-0.00026739212
-5.1883242e-05
-0.000223527
0.00013283596
-0.00016162298
0.00040354438
-0.00012103305
-0.00013779173
0.00064580698
0.0010282185
-8.2592878e-05
0.0010875801
-3.968058e-07
0.0011702638
-6.0994898e-05
0.0012168001
-4.5159592e-05
0.0011903629
-9.2290492e-05
0.0011182359
-8.1724596e-05
0.00099870693
-1.512771e-05
0.00096981121
-0.0001048847
0.0010339825
-0.00014993268
0.0010597583
8.0448352e-08
0.0010563
-0.00010788528
0.0010625588
-8.3224796e-05
0.001033764
-0.0002221498
0.0010296087
-0.00010362906
0.00095630451
-0.00010468007
0.00095205793
-0.00016888868
0.00098835784
-0.00017799666
0.00096801358
-0.00019889323
0.00092487992
-0.00011561049
0.00083633496
-0.00026971758
0.00069333525
-0.00028260007
0.00064841963
-0.00026834431
0.00068939806
-0.00039015206
0.00075117595
-0.00040215279
0.0006457503
-0.000300225
0.00066409177
-0.00016151154
0.00072916898
-2.1909392e-05
0.00064937892
-5.4789545e-05
0.00046286587
-0.00025457721
0.00041996494
-0.00037844035
0.00054622993
-0.00030057946
0.00058823548
-0.00022318451
0.0004833825
-0.00031730544
0.0004106339
-0.00035384239
0.00041583347
-0.00016677478
0.00043020709
-4.1761965e-06
0.00048309468
8.6849194e-06
0.00057707408
-0.00011913102
0.00053865963
-0.00028119644
0.0003679574
-0.00036331118
0.0001617018
-0.00033412466
0.00010652214
-0.000245
0.00020690058
-0.00012503481
0.00047817419
-1.7481171e-05
0.00071091949
1.944492e-05
0.00078029557
1.5602565e-05
0.00067828372
-1.4064052e-05
0.00047765264
-7.1550106e-05
0.00024633108
-0.00017331822
6.5053705e-05
-0.00027841982
-1.31259e-05
-0.00030456144
-3.6635235e-06
-0.00025074961
0.00011017115
-0.00014383852
0.00030483535
-5.8281559e-05
-3.4136733e-05
0.00050793351
0.00098072712
-5.0624886e-05
0.001033768
2.646211e-06
0.0011140184
-5.1566812e-05
0.0011580911
-1.2946334e-05
0.0011346759
-7.5743476e-05
0.0010686163
-3.0031905e-05
0.00095147773
-6.2417109e-05
0.00092322883
-9.8874235e-05
0.00098927325
-8.192824e-05
0.0010067841
3.1889069e-05
0.0010087655
-4.685122e-05
0.0010092204
5.3275922e-06
0.00099046532
-0.00015929151
0.0009818521
-7.4265153e-05
0.00091274079
-0.00013602377
0.00090838244
-7.2618147e-05
0.00093608849
-0.00012807673
0.00092377071
-0.00019829368
0.00087583373
-0.0001821597
0.00080812321
-0.00017210803
0.00067172803
-0.00020463719
0.00060897894
-0.00023754479
0.00065390259
-0.00031240761
0.00073231505
-0.00029574196
0.00064106878
-0.00026239738
0.00064802663
-0.00014717182
0.00069643735
1.8403833e-06
0.00061289817
-2.8121026e-05
0.00043925587
-0.00024537754
0.00040120505
-0.000367824
0.00051524218
-0.00026782153
0.00054456784
-0.00019420808
0.00046552348
-0.00031169516
0.00044024827
-0.00038119002
0.00044523546
-0.00020680084
0.00042307498
-7.2111139e-06
0.00042121377
5.168997e-05
0.00049547897
-3.1649888e-05
0.00050639304
-0.00022282716
0.00039908986
-0.00035589457
0.00021724532
-0.00037564275
0.00013524511
-0.00027867768
0.00018888642
-0.00013498347
0.0003830929
1.0422524e-05
0.0006141904
6.3143619e-05
0.00071844958
4.8122908e-05
0.00065706842
-7.8414326e-06
0.00046509111
-8.2853545e-05
0.0002364341
-0.00018005897
7.924913e-05
-0.00027583539
3.0127751e-05
-0.00031456737
5.4859109e-05
-0.00026789545
0.00013412569
-0.00016755074
0.00025252274
-5.8222908e-05
1.220982e-05
0.00039263385
0.00093485852
-9.3015281e-06
0.00098302611
-1.3706414e-05
0.001061053
-2.8288719e-05
0.0011022231
8.6558858e-07
0.0010830634
-4.6731559e-05
0.001019682
1.7514649e-05
0.00090779241
-9.9493144e-05
0.00088032145
-8.8790421e-05
0.00094474926
-1.4708709e-05
0.00095733372
2.634546e-05
0.00096604193
5.307961e-06
0.00096053644
7.1024499e-05
0.00095067242
-5.1083584e-05
0.00093499948
-8.9730803e-06
0.0008764782
-0.00016109554
0.00086563901
-3.3580967e-05
0.00088991555
-7.5187753e-05
0.00088257488
-0.00015689407
0.0008401519
-0.0002231882
0.0007850106
-5.0187569e-05
0.00065122867
-9.2846208e-05
0.00058011226
-0.00022728358
0.00062661948
-0.00024575238
0.0007084678
-0.00017167429
0.00063296303
-0.00021444309
0.00063321623
-0.0001568903
0.00066444678
-1.0849139e-05
0.00057832983
-3.2534663e-05
0.00042067272
-0.00022917934
0.00039486429
-0.00032504143
0.00049475216
-0.00020186056
0.00050499224
-0.00014095357
0.00043672874
-0.00028055656
0.00044853947
-0.00039160078
0.00046337893
-0.00026860847
0.00042385534
-5.5031126e-05
0.00038264713
6.3624535e-05
0.00041574122
3.0684331e-05
0.00045294031
-0.00015196449
0.00039913737
-0.0003339328
0.00027038003
-0.00040408742
0.00017797708
-0.00032135501
0.00020714765
-0.00015141991
0.00032946372
1.6355377e-05
0.00052123251
0.00010376677
0.0006408989
7.7545782e-05
0.00061715818
6.7630695e-07
0.00045108718
-9.4617647e-05
0.00023335009
-0.00019953932
8.0268945e-05
-0.00026850941
5.9559926e-05
-0.00029307969
0.00010760459
-0.00026183223
0.00017879206
-0.00018770403
0.00025709382
-8.7135565e-05
1.7472748e-06
0.00033621125
0.00089079396
2.3581416e-05
0.00093561337
-3.7392658e-05
0.0010110341
-6.3675056e-06
0.0010495299
-2.9809449e-06
0.001034286
-1.7574734e-05
0.00097098465
4.0108998e-05
0.00086624632
-0.00011417597
0.00084015166
-7.3201631e-05
0.00089963523
3.8310475e-05
0.00091080962
-4.6458013e-06
0.0009229782
3.3245515e-05
0.00091397117
8.58394e-05
0.00091171085
4.9661619e-05
0.00088775411
7.1284779e-05
0.00084183545
-0.00016039448
0.00082277067
-4.0818375e-05
0.00084636677
-3.136266e-05
0.00084040672
-9.0329299e-05
0.00081682962
-0.00023183368
0.00076377968
4.8545243e-05
0.00062841581
4.6975817e-06
0.00055524821
-0.00023484032
0.00060076003
-0.00022477278
0.00067638724
-8.587748e-05
0.00061482931
-0.00017626318
0.00061272325
-0.0001760038
0.00062965777
-4.4165826e-05
0.00054506274
-6.4857017e-05
0.0004029274
-0.00022699482
0.00039542626
-0.00027809381
0.00047928517
-0.00012765964
0.00046834189
-7.4864914e-05
0.00040182992
-0.00022762993
0.00044045247
-0.00036945113
0.00047179582
-0.00030985494
0.0004303309
-0.00012121406
0.00035826117
4.0937955e-05
0.00034704102
6.4116078e-05
0.00038052704
-8.5194629e-05
0.00036977248
-0.0002959384
0.00029721037
-0.00041387743
0.00022488325
-0.00036353438
0.0002312848
-0.00017782438
0.00030440609
9.0334628e-06
0.00043237024
0.00012680833
0.00054714547
0.00011630353
0.00054973529
1.8458688e-05
0.00042664575
-9.5164297e-05
0.00023365591
-0.00020661938
8.5522541e-05
-0.00025996812
6.4898392e-05
-0.00026167714
0.00012141814
-0.00023102263
0.00019520716
-0.00017851238
0.00026556779
-0.0001131488
-4.3458682e-05
0.0003131129
0.0008480291
4.2728466e-05
0.0008912871
-5.5202398e-05
0.00096333362
7.9139359e-06
0.0010000079
-1.5264569e-05
0.00098720373
3.4095503e-06
0.00092457994
4.1174056e-05
0.00082753965
-0.00010516431
0.00080300188
-5.1255366e-05
0.00085496593
6.7959982e-05
0.00086764192
-3.2593759e-05
0.00088060788
3.2855568e-05
0.00087206044
5.1855989e-05
0.00087346838
0.00011267697
0.00084160154
0.00012754285
0.00080651656
-0.00011801144
0.00078282581
-6.8596731e-05
0.00080683265
-7.2053516e-06
0.00079660607
-3.0079722e-05
0.00079765834
-0.00020966331
0.00073903695
9.4202975e-05
0.00059690417
4.0030053e-05
0.00053289895
-0.00024844416
0.00057907052
-0.0002352939
0.00064130167
-5.4002218e-05
0.00059068003
-0.00015430478
0.00059151392
-0.00019061361
0.00059723783
-8.2864225e-05
0.00051514896
-0.00010872419
0.00039268087
-0.00023756983
0.00039957602
-0.0002402493
0.00046805881
-7.0952856e-05
0.00043966168
-1.7124073e-05
0.00036995026
-0.00016243042
0.00042256989
-0.00031430644
0.00047625239
-0.00031354854
0.0004441625
-0.00017058472
0.00035630478
7.5713388e-06
0.0003021878
7.412156e-05
0.00031172724
-3.1804131e-05
0.00032649267
-0.00024579782
0.00030579253
-0.00040599297
0.00027780673
-0.00039669159
0.00027387333
-0.00021494072
0.00030854928
-2.5026129e-07
0.00037638528
0.00013667189
0.00045489582
0.00015619627
0.00046822725
5.094245e-05
0.00038645714
-7.6362828e-05
0.00023544112
-0.00019850917
0.00010589845
-0.00025790759
7.2974627e-05
-0.00024069813
0.00011886291
-0.00019692668
0.00019037453
-0.00014678598
0.00025197893
-0.00010363507
-6.8532177e-05
0.00028120916
0.00080726596
4.3837576e-05
0.00084959651
-5.8742978e-05
0.00091738781
1.019172e-05
0.00095307312
-3.117981e-05
0.00094195532
1.1268603e-05
0.00088049123
2.5362922e-05
0.00079080443
-7.9545699e-05
0.00076756212
-3.0477118e-05
0.00081162398
7.5552147e-05
0.00082686292
-4.9114352e-05
0.00083800027
2.3844157e-05
0.00083157087
3.2072247e-07
0.00083381057
0.00012811861
0.00079701026
0.00013907998
0.00077034138
-5.0466593e-05
0.00074555792
-8.2517677e-05
0.00076939507
-2.4852467e-06
0.00075192876
5.3235768e-06
0.00077599222
-0.0001634553
0.00070878834
8.4361096e-05
0.0005615769
3.3784922e-05
0.00050972123
-0.0002538703
0.00055684553
-0.00025099751
0.0006030624
-6.3688362e-05
0.00056216298
-0.00014771713
0.00056912452
-0.00019072969
0.00056525216
-0.00010253498
0.00048658138
-0.00013383941
0.00038215922
-0.00024425086
0.00039962008
-0.00022269484
0.00045555107
-4.5105926e-05
0.00041449299
2.0575847e-05
0.00034114543
-9.953643e-05
0.00039755707
-0.00023896575
0.00047134043
-0.0002797878
0.00045811034
-0.00018824008
0.00036765482
-2.3176754e-05
0.00027499873
7.4456994e-05
0.00025187599
1.0281896e-05
0.00026855953
-0.00018967678
0.000288603
-0.00037887718
0.00030830577
-0.00040954308
0.00032268475
-0.00025346982
0.00033162268
-1.9704604e-05
0.00034993702
0.00014254541
0.00038139229
0.00018643985
0.00038726227
0.00010032847
0.00033005646
-4.4893731e-05
0.00022696212
-0.00017770714
0.00012110761
-0.00024758718
7.9147523e-05
-0.0002348323
0.00010959918
-0.0001760174
0.00016835597
-0.00011597448
0.00022612326
-7.8394793e-05
-5.9060997e-05
0.00024925918
0.00076811966
3.1387657e-05
0.00080977692
-4.7502775e-05
0.00087333267
2.0757503e-07
0.00090852671
-4.473153e-05
0.00089826562
6.9165526e-06
0.00083908596
-1.8679189e-06
0.00075599769
-4.8769231e-05
0.00073361832
-1.4256944e-05
0.00077077372
6.4317305e-05
0.0007890771
-4.3177954e-05
0.00079659554
2.055274e-05
0.00079391616
-3.5405057e-05
0.00079469108
9.9319249e-05
0.00075688371
9.9603628e-05
0.00073546034
1.8743438e-05
0.00071234324
-7.3496049e-05
0.00073455792
-1.1590905e-05
0.00071206472
2.3479302e-06
0.00075119288
-9.8387834e-05
0.00067791921
4.0705389e-05
0.00053016388
-8.3270114e-06
0.00048890678
-0.00023486119
0.00053711695
-0.00023897441
0.00056741813
-8.5180859e-05
0.00053480456
-0.00014970439
0.00055028165
-0.00017499535
0.00054023197
-9.5197037e-05
0.00046652024
-0.00011770486
0.00037417418
-0.000229023
0.00039739449
-0.00020962452
0.00044374146
-4.2863796e-05
0.00039631282
3.5498574e-05
0.00032100201
-4.8333531e-05
0.00037268672
-0.00016080318
0.00046183752
-0.0002202844
0.00047345189
-0.00017641679
0.00039110953
-3.7226358e-05
0.00027187686
7.349796e-05
0.00021359028
4.5135596e-05
0.00021613541
-0.00013224971
0.0002642933
-0.00033492305
0.00032631774
-0.00039925505
0.00037064779
-0.00027737283
0.00037446542
-5.2165792e-05
0.0003551256
0.0001393399
0.00034013618
0.00021139897
0.0003200976
0.00015321884
0.00027706346
3.3468826e-06
0.00020912974
-0.00013729657
0.00014310322
-0.00022763422
0.00010139793
-0.00022342021
0.00011713436
-0.0001650948
0.00015799
-9.2116022e-05
0.00019626807
-4.9308194e-05
-3.6399242e-05
0.00021565613
0.00073154057
1.2002598e-05
0.00077168483
-2.7231858e-05
0.00083137144
-1.6976905e-05
0.0008661118
-5.1627603e-05
0.0008559102
-4.6772638e-06
0.00079996037
-3.3920812e-05
0.00072212407
-2.1184425e-05
0.00070014306