/*--------------------------------*- C++ -*----------------------------------*\
| =========                 |                                                 |
| \\      /  F ield         | OpenFOAM: The Open Source CFD Toolbox           |
|  \\    /   O peration     | Version:  2406                                  |
|   \\  /    A nd           | Website:  www.openfoam.com                      |
|    \\/     M anipulation  |                                                 |
\*---------------------------------------------------------------------------*/
FoamFile
{
    version     2.0;
    format      ascii;
    arch        "LSB;label=32;scalar=64";
    class       volScalarField;
    location    "14";
    object      rho;
}
// * * * * * * * * * * * * * * * * * * * * * * * * * * * * * * * * * * * * * //

dimensions      [1 -3 0 0 0 0 0];

internalField   nonuniform List<scalar> 
62344
(
1.0041726
1.0086356
1.0047877
0.9998518
1.0019677
1.0051601
1.0132854
1.0138222
1.0070803
1.0009288
1.0013977
0.99764806
0.99643229
1.0019347
1.002762
1.0017397
1.0024282
1.0007802
1.0043768
1.0013796
0.99836975
1.0052145
0.99913598
1.0016465
0.99882695
0.99850839
0.99496441
0.98569067
0.99533975
1.0110462
1.00557
0.98687135
0.98028572
0.9898121
0.99864006
0.99195387
0.97696799
0.9670229
0.9763424
1.0041599
1.0257291
1.0292585
1.0174332
0.99747979
0.98442695
0.99749421
1.0410311
1.0828503
1.0890857
1.0565819
1.0075636
0.97013463
0.95829872
0.97118835
1.0018589
1.0047732
1.0091611
1.0048275
1.0018714
1.0020026
1.0068159
1.0133055
1.0150171
1.0068626
0.99930067
0.99823309
0.99754941
0.99754623
0.99904729
1.0028977
1.0038405
0.99731895
1.0008712
1.0017375
1.0012561
0.99745302
1.005468
1.0043649
0.99635179
0.99315127
1.002935
0.99785586
0.98565554
0.99301412
1.0074476
1.0050358
0.98838025
0.98219975
0.99185329
0.99861866
0.98862604
0.97442474
0.97380493
0.98214125
0.99201463
1.00387
1.0096331
1.0117814
1.0118276
1.0067185
0.99838079
1.0021217
1.0207999
1.0423293
1.0437688
1.019973
0.98814947
0.96676545
0.96820775
0.99316285
1.0058515
1.0089416
1.0042542
1.0032105
1.0031157
1.0082192
1.0127149
1.014839
1.0085582
1.000957
0.99768751
0.99749084
1.0002265
0.99877205
1.00191
1.0062363
0.99816101
0.99893407
0.99864024
0.99677483
0.99608161
1.0016653
1.0070737
0.99767914
0.99044586
1.0025344
0.99819975
0.98662053
0.99137075
1.0010475
0.99949532
0.98898539
0.98728781
0.99506346
0.99758154
0.98621751
0.97640314
0.97992316
0.99101929
0.99665536
0.99547834
0.99823739
1.0060845
1.015476
1.0154563
1.000091
0.97821285
0.97024729
0.98339684
1.009518
1.0264368
1.0266216
1.017508
1.0113893
1.0168149
1.0064056
1.0083283
1.0045037
1.0030169
1.0041343
1.0088804
1.0125505
1.0139911
1.0089837
1.0021262
0.99944785
0.99874428
1.0008499
1.001191
1.0034058
1.0040415
1.0011248
0.99893315
1.0012188
0.99575286
0.99849688
1.0026786
1.0071734
1.0005182
0.99391146
1.0014296
0.99627222
0.98970641
0.99508893
0.99935691
0.99480189
0.98809653
0.99243854
1.0003124
0.99710203
0.98229263
0.97567301
0.98663562
1.0017288
1.0027357
0.99490702
0.98796431
0.99084138
1.0049025
1.0136326
1.0056645
0.98007389
0.95426878
0.94893447
0.9745723
1.0196014
1.0581002
1.0785532
1.0814656
1.0680033
1.0059404
1.0082758
1.0052266
1.0021783
1.0040972
1.008257
1.0134796
1.0147825
1.0079841
1.0012847
0.99998006
0.99844829
0.99806214
1.0026255
1.0060315
1.0012499
1.0026179
0.9986064
1.0049622
0.99855995
1.0022836
1.0076069
1.0055534
0.99805021
0.99646487
1.0008043
0.99369442
0.99129479
1.0002419
1.0031839
0.99451682
0.98779455
0.99607064
1.0060231
0.99841676
0.97819672
0.97000784
0.98593534
1.0077119
1.0111294
0.99947175
0.98385273
0.97812267
0.98889146
1.0041472
1.005444
0.99101993
0.96492578
0.94703352
0.95365035
0.99065522
1.045683
1.0949655
1.1155501
1.1075615
1.0050609
1.0088643
1.0054971
1.0015963
1.0035636
1.0069544
1.0145446
1.0159696
1.0071801
1.0001074
0.99829725
0.99705444
0.99465189
1.0013172
1.0060353
1.0015039
1.0023726
0.99678282
1.0050217
1.0005999
1.0038357
1.0105411
1.0033542
0.99274744
0.99539689
1.0001826
0.99181839
0.99099524
1.0021483
1.0059263
0.9951513
0.98743196
0.99735836
1.0101045
1.0014953
0.97782319
0.9659516
0.98227087
1.0084291
1.0169414
1.0076204
0.98736878
0.97330082
0.97561141
0.98937772
0.99806178
0.99475076
0.98131226
0.96494741
0.95874319
0.97463502
1.0132031
1.06222
1.099108
1.1132881
1.0046715
1.0094759
1.0051166
1.0014459
1.0032253
1.006276
1.014484
1.0159724
1.0071319
0.99974297
0.99643965
0.99581129
0.99335109
0.99841639
1.0031897
1.0033876
1.0012942
0.99508487
1.0001255
0.99990049
1.0035153
1.009363
1.0013974
0.99082001
0.99495306
1.0009197
0.99196752
0.99079663
1.0016202
1.005612
0.99443763
0.98632255
0.99672661
1.0121778
1.005475
0.98176808
0.96672438
0.97840867
1.0049476
1.0179896
1.0151509
0.99616909
0.97629513
0.9698388
0.97633228
0.98702759
0.99296449
0.99438339
0.99040492
0.98408054
0.98240742
0.99333185
1.0188323
1.0506104
1.0769452
1.0047067
1.0096789
1.0047609
1.0015739
1.0030393
1.0064522
1.0134471
1.0150702
1.0073656
0.9995962
0.99579684
0.99572665
0.9943501
0.99616603
0.99946972
1.004409
1.0000228
0.99598313
0.9954753
0.99841222
1.0041088
1.0065774
1.0009296
0.99369696
0.99799782
1.0026109
0.99376656
0.99238445
1.0024269
1.0055889
0.99397491
0.98541997
0.99570672
1.0117908
1.0074661
0.98657887
0.97031739
0.9757645
0.99851577
1.0153377
1.0186112
1.0054607
0.98325666
0.96858522
0.96822011
0.97573033
0.98665198
0.99899911
1.0080591
1.0083218
1.0010538
0.99301105
0.99303417
1.0053521
1.0283951
1.0051174
1.0093893
1.0046704
1.0017301
1.0028115
1.0070028
1.0120927
1.0138049
1.0074232
0.99894
0.99571679
0.99573696
0.99613477
0.99595567
0.99746669
1.0040541
0.99921229
0.99858553
0.99443883
0.99865531
1.0068446
1.0058953
1.0017845
0.99743722
1.001832
1.0035618
0.9947407
0.99386548
1.0046385
1.0077262
0.99538774
0.98579726
0.99522333
1.0097736
1.0066019
0.98999561
0.97466945
0.97387926
0.9902576
1.0102401
1.018235
1.0122826
0.99145049
0.97090145
0.96403886
0.96806591
0.97785507
0.99430205
1.0109905
1.0200738
1.0186231
1.0053173
0.98884244
0.9802677
0.98562281
1.0056139
1.0087826
1.004582
1.0016487
1.0024523
1.0072598
1.0112815
1.013044
1.007346
0.99819503
0.99568423
0.99497335
0.99724793
0.99716286
0.99768135
1.0031371
0.99882414
1.0001395
0.99671338
0.99962942
1.0097641
1.0072054
1.0026059
0.99846087
1.0032082
1.0029237
0.99346428
0.9933194
1.0059132
1.0103615
0.99821338
0.98742032
0.99532764
1.0072662
1.0046336
0.99241683
0.97948902
0.97356984
0.98251699
1.0032784
1.0154311
1.0154584
0.99919237
0.97608889
0.96205755
0.96312598
0.97189542
0.98714599
1.0066935
1.0216173
1.027961
1.0200547
0.9982788
0.97653697
0.96555607
1.0058252
1.0082538
1.0042809
1.001287
1.0020464
1.0067783
1.0112106
1.013312
1.0074753
0.99821279
0.99570972
0.99337163
0.99713209
0.99812226
0.99919881
1.0028493
0.99874527
0.99928091
0.99936121
0.99979087
1.0107163
1.0089157
1.0035613
0.99704532
1.0015056
1.0012825
0.99137372
0.99148896
1.0052176
1.0116642
1.0008052
0.98956678
0.99547155
1.0044669
1.002611
0.99486402
0.98518823
0.97518294
0.97762457
0.99507708
1.0117613
1.0160364
1.0052934
0.98254925
0.96374146
0.95978197
0.96829632
0.98240963
1.0002533
1.0160465
1.0263788
1.0259212
1.0109833
0.98858062
0.96725955
1.005737
1.008051
1.0038872
1.0008112
1.0018736
1.0059439
1.0114562
1.0140684
1.0075503
0.99894123
0.99629253
0.99229136
0.99605623
0.99821298
1.000779
1.0034027
0.99902726
0.99636195
1.0005153
0.99888537
1.0087024
1.0101936
1.0054047
0.99539164
0.99851076
0.99976429
0.99043588
0.99075946
1.0040418
1.0115411
1.0020057
0.99154582
0.99575885
1.0014035
1.0005381
0.99690674
0.99119004
0.97911736
0.97622235
0.98805493
1.0067693
1.0144045
1.0086443
0.98909002
0.96855834
0.95943064
0.96579251
0.98088155
0.99755083
1.0110417
1.0197555
1.023771
1.0181548
1.0028966
0.9827135
1.005434
1.0081568
1.003601
1.00046
1.0020162
1.0052306
1.0120596
1.0149345
1.0074151
0.99971983
0.99699384
0.99240392
0.99491503
0.99715717
1.0015095
1.0040285
0.99948968
0.99307253
0.99924171
0.99720202
1.0057047
1.0108663
1.0074693
0.9948984
0.99615972
0.99902085
0.99129396
0.99228679
1.0042996
1.0111472
1.0019663
0.99323336
0.99652753
0.99863972
0.99797039
0.99783742
0.9963279
0.98551919
0.97805503
0.98398612
1.0002638
1.010799
1.008812
0.99496492
0.97489015
0.96266142
0.96482796
0.9798266
0.9976968
1.0091924
1.0144284
1.0168921
1.0166873
1.0109825
0.99856622
1.0051475
1.0084411
1.0035394
1.000326
1.0022912
1.004993
1.0126156
1.0155418
1.0070644
1.0001049
0.99743888
0.99354908
0.99426915
0.99562024
1.0009497
1.0038703
0.99982583
0.99128779
0.99667546
0.99571241
1.0036373
1.0114886
1.0090573
0.99554239
0.99506991
0.99889743
0.99339205
0.99567948
1.0063625
1.0111789
1.0017262
0.99492242
0.99795414
0.99657849
0.99471371
0.99726142
0.999609
0.99284147
0.98281265
0.98299806
0.99395845
1.0053033
1.0060519
0.99771516
0.9808229
0.96760191
0.96602996
0.97847998
0.99688087
1.0088549
1.0111754
1.010411
1.0101485
1.0094837
1.0059173
1.0049778
1.0087735
1.0037809
1.0004995
1.0025795
1.0053063
1.0130457
1.0158232
1.0068032
1.0001675
0.99744047
0.99505355
0.99396131
0.99442566
0.99967186
1.0026421
0.99986172
0.99177061
0.99432573
0.99506991
1.0035348
1.0123518
1.0100239
0.99685374
0.99515271
0.99865711
0.99520729
0.99919633
1.0089314
1.0113379
1.0016758
0.99662646
0.99992674
0.99545852
0.99097346
0.99487532
1.0009626
0.99934606
0.98976678
0.98473381
0.98930541
0.99827894
1.0015295
0.99760456
0.9859525
0.97316617
0.96938184
0.97768372
0.9936434
1.0064771
1.0090383
1.0057591
1.002626
1.0019699
1.003205
1.0049287
1.0090142
1.0042721
1.0010561
1.0028421
1.0058958
1.0133182
1.0159906
1.0070188
1.0001172
0.99721436
0.9961409
0.99378529
0.99415485
0.99859435
1.0009061
0.99956798
0.99429559
0.99303189
0.99509719
1.0050132
1.0133141
1.0100838
0.99817681
0.99589601
0.99795339
0.99592418
1.0013096
1.0106257
1.0109853
1.0018087
0.99842067
1.0021026
0.99543284
0.98760322
0.99062915
0.99973704
1.003868
0.99729137
0.98882977
0.98706115
0.9908967
0.99516958
0.99472713
0.98877127
0.9788113
0.97373404
0.97779006
0.98971211
1.0018274
1.0058969
1.002499
0.99732995
0.99421463
0.99561451
1.0050181
1.0091326
1.0049074
1.0017789
1.0030662
1.0065857
1.0134831
1.0162606
1.0077661
1.0003412
0.99701136
0.9964979
0.9937025
0.9947698
0.99824091
0.99926201
0.99900294
0.99766638
0.99279446
0.995567
1.0069132
1.014087
1.0092922
0.99903041
0.99687059
0.9968095
0.99529375
1.0013519
1.0105623
1.0098311
1.0017127
0.99997331
1.0042816
0.99648215
0.9854215
0.98579487
0.9961805
1.0058894
1.0038933
0.99474922
0.98739713
0.98484575
0.98710121
0.98946522
0.98874371
0.98357991
0.97839969
0.97956211
0.98665174
0.99614396
1.0012667
0.99942835
0.99424603
0.98933578
0.98833045
1.0051921
1.0091912
1.0055463
1.0024705
1.0032877
1.0072803
1.0136237
1.0166244
1.0088935
1.000797
0.99699915
0.99617077
0.99355118
0.99580495
0.99845341
0.99836843
0.99833149
1.0006244
0.9931677
0.99568423
1.0084985
1.0144103
1.0077777
0.9992433
0.99783571
0.99564679
0.99395993
0.99977113
1.0090447
1.007828
1.0010666
1.0011647
1.0062152
0.99848694
0.9848419
0.98154474
0.99127171
1.0053574
1.0088636
1.001432
0.99003376
0.98116832
0.97889809
0.98274006
0.98650204
0.98643369
0.98352844
0.98262232
0.98553915
0.99097697
0.99548114
0.99532913
0.99178879
0.98746727
0.98501491
1.0053847
1.0092502
1.0060626
1.0030169
1.003505
1.0078629
1.013776
1.0170288
1.0101027
1.0014143
0.99719919
0.99553482
0.99328317
0.99671204
0.99887405
0.99830687
0.99785938
1.0022008
0.99369825
0.99522133
1.0089045
1.0140796
1.0060519
0.99898004
0.99859417
0.9947788
0.99266276
0.9979429
1.0071333
1.005769
0.99991333
1.0017632
1.0078232
1.0010156
0.98594494
0.9786272
0.986132
1.0029736
1.0121162
1.0078731
0.99456231
0.98000691
0.97229253
0.97506423
0.98260697
0.98750586
0.98854472
0.98782315
0.98730397
0.98850055
0.99029313
0.99072304
0.98911182
0.98696936
0.98490188
1.0055266
1.0093403
1.0063976
1.0033569
1.0037544
1.0083153
1.013976
1.0174015
1.0111059
1.0021095
0.9975633
0.99495342
0.99320486
0.99713629
0.99921122
0.99915754
0.99770714
1.0023465
0.99410472
0.99435341
1.0081199
1.0132044
1.0047562
0.99872623
0.99911983
0.99434655
0.99164258
0.9966538
1.0055478
1.0042993
0.99879539
1.0017693
1.0088476
1.0037796
0.98842191
0.97737727
0.98180105
0.99937831
1.0137029
1.0136155
1.0003946
0.98126307
0.96814547
0.96788413
0.97721784
0.98721333
0.99297156
0.99373444
0.99158746
0.98884639
0.9870396
0.98663938
0.98684679
0.98730697
0.98710517
1.0056091
1.0094709
1.0064906
1.0034914
1.0040521
1.0085994
1.0141901
1.0177338
1.0118165
1.0027157
0.99802393
0.99467209
0.99349655
0.99693191
0.99916091
1.0000827
0.9979109
1.0011428
0.99426813
0.99329622
1.0066232
1.0121272
1.0043531
0.99893131
0.99943743
0.99430518
0.99098505
0.99616459
1.0047916
1.003551
0.99792917
1.0013666
1.0092582
1.0064667
0.99173883
0.97768267
0.97872267
0.99545115
1.0139
1.0182282
1.0066715
0.98458752
0.96653678
0.96214654
0.97118207
0.98546657
0.99643841
1.0003321
0.99797145
0.99211681
0.98634026
0.98380913
0.98482514
0.98744997
0.98972582
1.0056386
1.0096101
1.006417
1.0034473
1.0043614
1.0087256
1.0144511
1.0179748
1.0121808
1.0032135
0.99847062
0.99465272
0.99412086
0.99621132
0.99865171
1.0010758
0.9984833
0.99906122
0.99422607
0.99233338
1.0050464
1.0112665
1.0047931
0.99984817
0.99959456
0.99463199
0.99069341
0.9964213
1.0051699
1.0036453
0.99754141
1.0007924
1.0094197
1.0089272
0.99546067
0.97943965
0.97717499
0.99201209
1.0129176
1.0217937
1.012853
0.98937677
0.96732132
0.95849883
0.96549494
0.98227414
0.99834351
1.0066553
1.0058828
0.99793365
0.98812579
0.98296873
0.98337522
0.9878489
0.99282441
1.0056445
1.0097694
1.0062463
1.0032862
1.0046572
1.008753
1.0147068
1.0181574
1.0123164
1.0035638
0.99889225
0.9949975
0.99501717
0.99527222
0.99785205
1.0020087
0.99948558
0.99671599
0.99403859
0.99166205
1.0036661
1.0107806
1.0059641
1.0014181
0.99989079
0.99517239
0.99072925
0.99715596
1.0063672
1.0045675
0.99764513
1.0002884
1.0091311
1.0110621
0.99937065
0.98228539
0.97684362
0.98910195
1.0110294
1.0242797
1.0183416
0.99521469
0.96990338
0.95697797
0.96072592
0.97767909
0.99799184
1.011678
1.0142093
1.0054154
0.99224684
0.9838039
0.98236157
0.98740227
0.99532015
1.0056222
1.0099238
1.0060688
1.0030942
1.0049044
1.0087396
1.0149414
1.0183189
1.0123898
1.0038991
0.99935051
0.9956795
0.99607335
0.99446732
0.99704143
1.0028493
1.000547
0.99468026
0.99393003
0.99135686
1.002565
1.0105362
1.0076244
1.0033972
1.0004303
0.99595411
0.99113083
0.99807226
1.0081455
1.0060561
0.99824708
1.0000662
1.0086625
1.0127471
1.0029972
0.98560342
0.97741745
0.98659985
1.0085228
1.0259274
1.023111
1.0013018
0.973804
0.95695301
0.95719328
0.97217816
0.99484068
1.01465
1.0215762
1.0129471
0.99787313
0.985387
0.9809207
0.98520293
0.99486288
1.0056198
1.0100836
1.0059891
1.0029757
1.0052137
1.0087968
1.0152587
1.0185923
1.0126317
1.0043036
0.99990365
0.99662729
0.99726594
0.99399553
0.99637828
1.003573
1.0017303
0.9932828
0.99399771
0.9913414
1.0018167
1.010666
1.009451
1.005483
1.0013813
0.99696573
0.99172352
0.99903361
1.0101254
1.0080521
0.99927546
1.0000012
1.0082845
1.0137598
1.0058571
0.98866609
0.97844673
0.98460334
1.0057447
1.0265753
1.027214
1.0074065
0.97859582
0.95804079
0.95404087
0.96605598
0.98943936
1.0143457
1.0266634
1.0209443
1.0040224
0.98796875
0.979398
0.98098291
0.99029618
1.0057961
1.0103867
1.0061581
1.0030109
1.005526
1.0090713
1.0157637
1.0191966
1.0131661
1.0049556
1.0006092
0.99767082
0.99843351
0.99396783
0.99597248
1.0041165
1.0028545
0.99255544
0.99411396
0.99141616
1.0011738
1.0109836
1.0109851
1.0074402
1.0024082
0.99801969
0.99220744
0.99956788
1.0116228
1.0104859
1.0005113
0.9999497
1.0076931
1.0143559
1.0082556
0.99114813
0.97829357
0.98215906
1.0018771
1.0252924
1.031068
1.0132083
0.98421595
0.96021743
0.94978314
0.95727381
0.98052071
1.0093317
1.0268228
1.0262759
1.0110835
0.99145281
0.9782412
0.97576748
0.98165378
1.006255
1.0109447
1.0066551
1.0032796
1.0057747
1.0092718
1.0161434
1.019821
1.0138947
1.0056492
1.001288
0.99849741
0.99936794
0.99432619
0.99580627
1.0043622
1.0036258
0.99247524
0.99420049
0.99141459
1.0004116
1.010421
1.0119134
1.0087829
1.003384
0.99916042
0.99292892
0.99968
1.0117822
1.011813
1.0021096
1.0004278
1.0070545
1.0142405
1.0100483
0.99448355
0.98022312
0.98052346
0.99690111
1.0203938
1.0297709
1.0169609
0.99146467
0.96628174
0.95205365
0.9534667
0.97165874
0.99890205
1.0201708
1.0249052
1.0146678
0.99667364
0.9813872
0.97480417
0.97657958
0.98713699
0.9958275
1.0048397
1.0063218
1.0035042
0.99778735
0.99173014
0.98701969
0.98489695
0.98660223
0.99262879
1.001366
1.0063274
1.0014649
0.98591766
0.966655
0.95739759
0.96920948
1.0042509
1.0489605
1.0818159
1.0929846
1.0726982
1.0483758
1.0427308
1.049651
1.0580983
1.002362
1.0101119
1.0136385
1.0099342
1.0037798
0.99714335
0.99210401
0.98986273
0.99126644
0.99647402
1.0039876
1.0102815
1.0100241
0.99983552
0.9832991
0.97115729
0.97465925
0.99937166
1.0359749
1.05767
1.0550337
1.0379605
1.0172874
1.0215805
1.0673786
1.1248773
1.1263881
1.0049312
1.006586
1.0056215
1.0008762
0.99585735
0.99220487
0.99102217
0.99269251
0.99670797
1.0020582
1.0071627
1.0092433
1.0065022
0.99878545
0.99254887
0.99673842
1.0160497
1.0470973
1.0690851
1.0573635
1.0205542
0.9838808
0.97086575
0.98837695
1.0661502
1.1714793
1.1771755
0.98951271
0.98830943
0.98800455
0.98698916
0.98700667
0.98824264
0.9902463
0.99236168
0.99447472
0.99595323
0.99605099
0.99520082
0.99485825
0.99772948
1.0084502
1.0309192
1.0616602
1.0872761
1.0878673
1.051994
1.0016827
0.95877101
0.95241152
0.97407102
1.0544091
1.1660065
1.1763612
0.97602351
0.97591806
0.98030821
0.98410844
0.98783086
0.99049349
0.99073176
0.98794726
0.98345668
0.97891959
0.97499625
0.97543941
0.98381553
1.0003463
1.0251005
1.0560919
1.0849979
1.0990218
1.0818967
1.0416611
0.99641724
0.96786443
0.97087403
0.99521242
1.0514243
1.1233703
1.1204431
0.97863754
0.98460323
0.9937497
0.9998295
1.0023559
1.0002269
0.99369875
0.98446641
0.97490234
0.96632812
0.96337663
0.96900279
0.98590832
1.0121589
1.0410147
1.0665379
1.0784362
1.0733065
1.0501117
1.0216574
0.99787546
0.99945869
1.0260712
1.0514257
1.0705438
1.0770143
1.0379759
0.9995135
1.0091749
1.0183685
1.0227906
1.0210213
1.0135892
1.0022699
0.98959592
0.97842329
0.97248214
0.9754787
0.9887744
1.0117842
1.0376324
1.0558471
1.0607783
1.0509999
1.0300649
1.0089122
0.99496099
0.99816532
1.0321551
1.0948851
1.1266588
1.1008007
1.0422675
0.97918607
1.0224375
1.0309678
1.0358949
1.0352832
1.0298918
1.0206501
1.0097586
0.99932992
0.99405525
0.99774059
1.0114555
1.0330945
1.0569711
1.0733617
1.0717671
1.0531039
1.0239171
0.99821699
0.98054528
0.97563258
0.99628487
1.0543092
1.1417349
1.1789478
1.1252138
1.0294428
0.97077991
1.0233074
1.0267764
1.0283676
1.026853
1.0215584
1.0148475
1.0090387
1.007655
1.0149225
1.0322523
1.058192
1.0854955
1.1060255
1.10767
1.0886924
1.0567542
1.0230265
0.99678945
0.98401953
0.98129494
1.0051386
1.0638007
1.1430242
1.1781332
1.1222487
1.0411844
1.0182009
0.99805859
0.9988266
1.0005662
1.0015877
1.0010329
1.0020239
1.0058826
1.0156287
1.0335861
1.0592547
1.0885309
1.1154574
1.129496
1.122337
1.0990428
1.0694215
1.0434731
1.0258828
1.0202497
1.0210105
1.0378517
1.0713791
1.1193733
1.1332166
1.0888629
1.0614067
1.104201
0.96899397
0.96886675
0.97426859
0.98025152
0.98574832
0.99373989
1.0048936
1.0194997
1.0383162
1.0602484
1.0823591
1.1016271
1.1095998
1.1037837
1.0882553
1.0719815
1.0628037
1.0634785
1.0751691
1.0860261
1.0911424
1.0890334
1.0896529
1.0743297
1.0455587
1.07022
1.1876708
0.95659494
0.961207
0.97272995
0.98445929
0.99366318
1.003081
1.0116065
1.0192519
1.0280293
1.0381403
1.0487952
1.05714
1.0617238
1.0596512
1.054717
1.0544408
1.0646414
1.0885455
1.1237147
1.1480229
1.1433173
1.1114629
1.0724696
1.0356544
1.0173957
1.0710399
1.2218237
0.97385464
0.98569276
1.0030729
1.0163071
1.0240496
1.0274598
1.0260639
1.022322
1.019106
1.0180206
1.0179365
1.0183051
1.018322
1.0183212
1.0188371
1.0275481
1.050551
1.0919295
1.1420862
1.1760147
1.1682123
1.1265583
1.0797584
1.0401412
1.0276776
1.0819482
1.2104304
1.0214498
1.0372651
1.0526067
1.0617564
1.0636069
1.0585798
1.0485635
1.0365449
1.0253803
1.0179711
1.0135222
1.0100745
1.0063595
1.0035993
1.0035995
1.0130416
1.0380783
1.0802462
1.1287626
1.1595886
1.154251
1.1280569
1.1036259
1.0883929
1.0847223
1.1139283
1.1754515
1.0732186
1.0902769
1.1014441
1.1040682
1.1000126
1.0895828
1.07521
1.0598342
1.0486146
1.0438493
1.0438805
1.043914
1.0387222
1.0297779
1.024443
1.028096
1.0448695
1.0726534
1.1014115
1.1171135
1.1118776
1.1084895
1.1272421
1.1574078
1.1722057
1.1624598
1.1383081
1.1010395
1.1141769
1.1222949
1.1255737
1.1210708
1.1098372
1.0954136
1.0824122
1.0774251
1.083704
1.0981315
1.1104654
1.1104873
1.097714
1.0834566
1.075095
1.0753545
1.080935
1.0834581
1.0755677
1.068266
1.081594
1.1331524
1.2102227
1.2535256
1.2125668
1.1190978
1.094748
1.1030253
1.1131958
1.1172033
1.114226
1.105741
1.0970938
1.0923634
1.0982068
1.1186196
1.1517748
1.1849369
1.2003309
1.1920131
1.1701338
1.1455995
1.1244018
1.1067782
1.0860769
1.0623693
1.0480068
1.0630306
1.1265376
1.2258891
1.2964738
1.2497436
1.1266923
1.0600171
1.0704798
1.0854124
1.0929115
1.0927205
1.0890471
1.0873436
1.0918003
1.1076999
1.1404072
1.1896364
1.2433901
1.277817
1.2786804
1.2546616
1.2163263
1.1789666
1.146066
1.1123421
1.0815922
1.0611928
1.0692491
1.1212148
1.2112271
1.2863403
1.2624242
1.1588743
1.0265324
1.0394752
1.0580835
1.0693252
1.0748126
1.0780876
1.0824708
1.0925625
1.1147196
1.1542732
1.2117434
1.2748044
1.3183197
1.3257792
1.298655
1.2568092
1.2168165
1.1852868
1.1557664
1.1261964
1.1049612
1.1009374
1.128648
1.1854429
1.2393916
1.2420401
1.1878613
1.0115593
1.027753
1.0495674
1.0647391
1.0746602
1.083351
1.0926911
1.1067815
1.1329704
1.1750601
1.2317669
1.2885881
1.32335
1.3251483
1.2979852
1.260723
1.2305729
1.2116171
1.1996912
1.1849127
1.1682047
1.1526399
1.1485952
1.1597917
1.1812538
1.1936236
1.1926032
1.0184812
1.0373984
1.0629068
1.0834913
1.0984528
1.1104239
1.1221985
1.1385745
1.1657157
1.2057228
1.2518112
1.2899232
1.306058
1.298214
1.2704436
1.2413635
1.2254126
1.2250538
1.2365668
1.2470119
1.2397561
1.2142444
1.1760112
1.1445744
1.1291244
1.1313591
1.1658039
1.0408366
1.0633111
1.0950118
1.1230776
1.1429712
1.1545983
1.1646489
1.1782612
1.2008329
1.2326762
1.2646662
1.2830126
1.2826923
1.2659805
1.2403862
1.2224556
1.2196702
1.2356931
1.2678638
1.3001996
1.3081203
1.2794191
1.2135347
1.1457402
1.0940559
1.080149
1.1234456
1.0736337
1.1011771
1.1409596
1.1728737
1.1903281
1.197478
1.2028119
1.2126321
1.2310277
1.2549674
1.2724486
1.2754046
1.2644684
1.2432887
1.2227968
1.2154988
1.2260356
1.2537818
1.2952884
1.3421465
1.3664392
1.340969
1.2578143
1.1580264
1.0847696
1.0554681
1.0909808
1.1134516
1.1475868
1.1937622
1.2247222
1.2359053
1.2365143
1.2358284
1.2421505
1.2573743
1.2749671
1.282604
1.276697
1.2596755
1.2380125
1.2234748
1.2247016
1.2430356
1.2767371
1.3228391
1.3735002
1.4096097
1.3889885
1.3017161
1.1893562
1.1002232
1.061262
1.085728
1.1548707
1.2001438
1.2571489
1.2875442
1.2923436
1.2847907
1.2757888
1.274818
1.2839246
1.2949878
1.2969835
1.2878201
1.2691604
1.2477827
1.2355102
1.2394273
1.2597743
1.2944152
1.3389085
1.3904796
1.428619
1.4195236
1.3418564
1.2315327
1.1390503
1.097749
1.1126588
1.2124045
1.2733429
1.3400579
1.3653065
1.3615129
1.3422979
1.3211677
1.3082824
1.3081527
1.3121849
1.3108555
1.2998363
1.2833516
1.2638192
1.251254
1.2528906
1.2690883
1.2978117
1.3366258
1.3832929
1.4203247
1.4258881
1.374868
1.2846572
1.2021308
1.1559689
1.1597223
1.3006048
1.377447
1.4424533
1.4538588
1.4340919
1.3996402
1.3671951
1.3429522
1.3318934
1.3253406
1.3174928
1.3054808
1.2916226
1.2769001
1.2665089
1.2656017
1.2726218
1.2912957
1.3196643
1.359128
1.394968
1.413116
1.395131
1.3361076
1.2740131
1.2296937
1.2167719
1.4164923
1.5020869
1.5521012
1.5462751
1.5122054
1.4684352
1.4271066
1.3924757
1.367821
1.3459751
1.3266285
1.3092798
1.2943744
1.2845203
1.2782601
1.2790591
1.2822774
1.2919574
1.309175
1.3385175
1.3699959
1.3950325
1.4014349
1.3792655
1.3406856
1.3042978
1.2716362
1.5430873
1.6280742
1.6623106
1.6441059
1.6022541
1.5520823
1.5010664
1.4564703
1.4162624
1.3800333
1.3496636
1.3251312
1.3073568
1.2960477
1.293204
1.297845
1.3058673
1.3121477
1.322685
1.3403443
1.3654207
1.3919796
1.4097758
1.4083007
1.3909979
1.3620994
1.3185002
1.6395566
1.7160546
1.7417722
1.7191651
1.6764708
1.621913
1.5637317
1.5100227
1.4612736
1.4176782
1.3818095
1.3534341
1.3336331
1.3219562
1.3202403
1.3262388
1.3360451
1.3460768
1.3561999
1.3699203
1.3910075
1.4126346
1.4290945
1.4308998
1.4177411
1.3882133
1.3492229
1.6646811
1.7262242
1.748831
1.7308158
1.6926972
1.6421708
1.5892741
1.5367005
1.4891379
1.44672
1.4128333
1.3864941
1.3688592
1.358874
1.3580167
1.3631599
1.3735395
1.3871544
1.4016124
1.4159737
1.431895
1.4449
1.452113
1.4397268
1.4166723
1.3878282
1.3564083
1.6133483
1.6585332
1.6809655
1.6746234
1.6495106
1.6144517
1.5738016
1.534059
1.496921
1.4638159
1.4364007
1.4146295
1.4005542
1.3934858
1.3941238
1.4009445
1.4131956
1.4290911
1.4462168
1.4611222
1.4708583
1.4709734
1.4555866
1.4257378
1.3891666
1.359243
1.3403171
1.5194089
1.5483999
1.5769711
1.5887537
1.5827265
1.5654384
1.5429209
1.5186248
1.4945296
1.4721425
1.4526499
1.4374164
1.4276522
1.4238827
1.4266195
1.4361384
1.4514035
1.4692117
1.4847751
1.4915176
1.4855356
1.4641916
1.4253181
1.3810497
1.3377698
1.3128421
1.3055632
1.4297746
1.4562969
1.4996716
1.5279323
1.5345492
1.5295379
1.5191434
1.5063885
1.4927778
1.4795699
1.4681484
1.4594767
1.4546438
1.4548981
1.4612774
1.4734147
1.4886996
1.5021459
1.5072752
1.4977812
1.4711076
1.4277722
1.3737789
1.3222488
1.2792689
1.2600016
1.2641018
1.3699697
1.4160582
1.479602
1.5117787
1.5203412
1.5189563
1.5145035
1.5083826
1.5018195
1.4958703
1.4916094
1.4900217
1.4918197
1.4979977
1.5083197
1.5199637
1.5289122
1.5292793
1.5157599
1.4853237
1.4384182
1.3792752
1.3175743
1.2650961
1.2283002
1.2156436
1.2272608
1.3453661
1.4291218
1.4993558
1.5250909
1.5298997
1.5295842
1.5268584
1.5241362
1.5228528
1.5240389
1.5283839
1.5363391
1.5479158
1.5619803
1.5751896
1.5840495
1.5816557
1.5634851
1.5268404
1.4738704
1.4091048
1.3397763
1.2755491
1.2256129
1.1960548
1.1896333
1.2019803
1.3553058
1.4663074
1.5354414
1.5512262
1.5536616
1.5499697
1.5456989
1.5445547
1.5488096
1.5596082
1.5770752
1.6001326
1.6265615
1.6523365
1.6720346
1.677691
1.6613971
1.6195143
1.5553982
1.4780227
1.396062
1.3181903
1.2556283
1.2100787
1.1870755
1.183491
1.1949077
1.4184642
1.5267992
1.5794505
1.5848896
1.5778011
1.5662268
1.5581871
1.5583189
1.5689337
1.5915943
1.6261149
1.6702834
1.7196149
1.7677305
1.8048133
1.8152568
1.7849479
1.7138732
1.6148519
1.5071968
1.4041659
1.3161736
1.2543527
1.2138801
1.1948287
1.1928975
1.2023875
1.5671089
1.6236376
1.6282045
1.6133729
1.5901459
1.5691704
1.5569153
1.5571836
1.5730117
1.606367
1.6577978
1.7253001
1.804017
1.8862085
1.957152
1.9952547
1.9645129
1.8654843
1.7224796
1.5719577
1.4360976
1.3298732
1.2585413
1.2200735
1.2068461
1.2078443
1.2149692
1.6918121
1.6833213
1.6467177
1.6064639
1.5745728
1.5526814
1.5428838
1.5473904
1.5673459
1.60678
1.6689305
1.752009
1.8516444
1.9640559
2.0750239
2.153007
2.1553013
2.0528926
1.8745771
1.6760807
1.4989884
1.357628
1.2729673
1.22239
1.2029744
1.2013039
1.2151377
1.7454778
1.7175545
1.6663688
1.6213965
1.5893767
1.5690838
1.5625036
1.5695161
1.5908493
1.6317342
1.6945494
1.7763174
1.8748276
1.9894469
2.1121962
2.2119637
2.2489673
2.1732572
2.0015244
1.7857613
1.5864085
1.4253388
1.3128505
1.2513782
1.2237956
1.2182675
1.2420893
1.8527176
1.8246259
1.7797546
1.7440325
1.7216178
1.7096702
1.7064839
1.7133383
1.7328672
1.7659517
1.8113182
1.8694621
1.9434675
2.0273226
2.1132691
2.1824648
2.2064088
2.1506814
2.0154887
1.8324699
1.6529051
1.5032983
1.3893594
1.3308372
1.3008895
1.3012227
1.342647
2.3924387
2.3771773
2.3410861
2.2991511
2.2583485
2.2199703
2.1867824
2.1617416
2.1406621
2.1414857
2.1444622
2.147834
2.1435394
2.1364586
2.1303579
2.1204258
2.0877451
2.0127011
1.9018239
1.76996
1.6421645
1.5386193
1.4591682
1.4171483
1.4082473
1.423796
1.4910985
4.433242
4.5231405
4.3964508
4.1529926
3.8627687
3.561904
3.2869618
3.0461725
2.8371074
2.6545511
2.4996832
2.3687062
2.2633962
2.1783572
2.1075522
2.0482022
1.9863535
1.9010759
1.8014064
1.6991291
1.6132629
1.5501949
1.5138434
1.4940467
1.4994648
1.5388303
1.635645
6.4918465
6.513748
6.0447976
5.4353711
4.843906
4.3211804
3.8848605
3.5328798
3.2370947
2.9833173
2.7636127
2.5724252
2.4159547
2.2919638
2.1955734
2.1213686
2.0648583
2.005578
1.9242932
1.8259503
1.7366678
1.6676587
1.619059
1.5970936
1.6070544
1.6650607
1.7849869
6.9349276
6.3420341
5.6734101
5.1166499
4.6643836
4.2946264
3.9922391
3.7394416
3.5209048
3.3247428
3.1480966
2.9926722
2.8628838
2.7530288
2.6540569
2.5583394
2.4623854
2.3604632
2.2383611
2.106798
1.9780871
1.8739427
1.8031344
1.7711433
1.7834285
1.8458992
1.9650762
6.4238651
5.6153145
4.9952963
4.5458824
4.1970117
3.9171114
3.6902535
3.5051753
3.3510833
3.2242895
3.1268619
3.0561199
3.005329
2.9648972
2.9233671
2.8679469
2.7822104
2.6574481
2.5041296
2.3431
2.1959208
2.0788736
2.0009639
1.964642
1.9783671
2.0404744
2.1537351
5.7885609
5.0925072
4.6146128
4.2360319
3.9138236
3.6399539
3.4117616
3.2233208
3.0704717
2.9541392
2.8786609
2.8394206
2.8287759
2.8393221
2.8572452
2.8562483
2.8123917
2.7152981
2.5822569
2.4411291
2.3180599
2.2280501
2.171244
2.1513806
2.1710037
2.2363515
2.3563509
5.311278
4.7899633
4.4024633
4.0707042
3.780215
3.5245193
3.304408
3.1187815
2.9617118
2.8346335
2.7483542
2.7017527
2.6857815
2.691005
2.7114377
2.7314195
2.7291091
2.686122
2.6114336
2.5303071
2.4625403
2.4175256
2.39539
2.399348
2.4378968
2.5126147
2.6339913
4.7748666
4.4004508
4.1273933
3.8858967
3.6668571
3.4676132
3.2874847
3.1297211
2.988821
2.865918
2.7730598
2.7132851
2.6792731
2.6671124
2.6702817
2.6827117
2.6956628
2.694811
2.6787569
2.660238
2.6520482
2.6547642
2.6630315
2.684001
2.7294161
2.7805107
2.8448028
4.3141496
4.0423314
3.8566688
3.6989386
3.5540472
3.41805
3.2887293
3.169189
3.0563422
2.951444
2.8651763
2.8017787
2.7590402
2.7312316
2.7175757
2.7183179
2.730589
2.7488759
2.769746