/*--------------------------------*- C++ -*----------------------------------*\
| =========                 |                                                 |
| \\      /  F ield         | OpenFOAM: The Open Source CFD Toolbox           |
|  \\    /   O peration     | Version:  2406                                  |
|   \\  /    A nd           | Website:  www.openfoam.com                      |
|    \\/     M anipulation  |                                                 |
\*---------------------------------------------------------------------------*/
FoamFile
{
    version     2.0;
    format      ascii;
    arch        "LSB;label=32;scalar=64";
    class       volScalarField;
    location    "14";
    object      T;
}
// * * * * * * * * * * * * * * * * * * * * * * * * * * * * * * * * * * * * * //

dimensions      [0 0 0 1 0 0 0];

internalField   nonuniform List<scalar> 
62344
(
1.003775
1.0043588
1.0035359
1.0012654
1.0007478
1.0018483
1.0050576
1.0058747
1.0034293
1.0013767
1.0015941
1.0006962
0.99904297
1.0003584
1.0009826
1.0001576
1.0004639
0.99909057
1.0004686
1.0001178
0.99861849
1.002152
0.99952604
0.99945191
0.99925649
0.99858019
0.99720505
0.99298356
0.99448354
0.99990272
1.0004917
0.99455306
0.98937096
0.98930996
0.99343327
0.99311975
0.9856382
0.97511258
0.97189336
0.97868758
0.98561164
0.98626113
0.97827405
0.96072307
0.94242875
0.93378455
0.93965726
0.95085561
0.95726314
0.95343954
0.93877134
0.92114664
0.91150689
0.90859541
0.91416385
1.0039522
1.004657
1.0034411
1.0019006
1.0011667
1.0025399
1.0051684
1.0065569
1.003928
1.0011636
1.0007123
1.0004098
1.000157
1.0003077
1.0008495
1.0012903
0.9988007
0.99968454
1.0000848
0.99999814
0.99861705
1.0010958
1.0010765
0.99867348
0.99675179
0.99939982
0.99852561
0.99345452
0.99434512
0.99876034
0.99995536
0.99425507
0.98916847
0.99028356
0.99478644
0.99384514
0.98704552
0.98070445
0.98017369
0.98357418
0.98740306
0.98804955
0.98386972
0.97699518
0.96698245
0.95600124
0.94920442
0.94870081
0.95058761
0.9504094
0.94232674
0.92736311
0.91161961
0.90160668
0.90083647
1.0043707
1.0046747
1.0031787
1.0021794
1.0017583
1.0033352
1.0051453
1.0062307
1.0043223
1.0014301
1.0000774
0.99948932
1.0007853
1.0001324
1.0005501
1.0019157
0.99846978
0.99878795
0.99854433
0.99760351
0.9978761
0.99919929
1.001378
0.9995976
0.99614654
0.99897904
0.99843963
0.99398464
0.99461283
0.99742599
0.99790197
0.99384881
0.99008415
0.99125532
0.99493249
0.99300662
0.98713954
0.9831915
0.98382907
0.98634143
0.98538537
0.98471664
0.98370791
0.98296848
0.9797328
0.97147622
0.95872898
0.94753951
0.94230105
0.94368283
0.94632789
0.94357824
0.93464721
0.92370505
0.91533062
1.004621
1.0045068
1.0032912
1.0022318
1.0019981
1.0034783
1.0050428
1.0058062
1.0041423
1.001346
1.0002662
0.99973512
1.0005995
1.0003588
1.0010329
1.0009367
0.99930731
0.99855768
0.99919814
0.99700779
0.99800284
0.9994219
1.0011744
1.000309
0.99747202
0.99931792
0.99833899
0.99546018
0.99645811
0.9977414
0.99655325
0.99344835
0.99204565
0.99364538
0.99486857
0.99124946
0.98594943
0.98548332
0.98965182
0.9911697
0.98901769
0.98483692
0.9813796
0.98208647
0.98413027
0.980382
0.9680301
0.95044218
0.93707564
0.93507149
0.9429975
0.95301388
0.95807123
0.9574377
0.94956941
1.0045332
1.0043678
1.0035511
1.0021087
1.0018444
1.0030225
1.005045
1.0059375
1.0036579
1.0010567
1.0005377
1.0001315
0.99982385
1.000953
1.0022578
1.000507
1.0003541
0.99865637
1.0007363
0.99886843
0.99922409
1.0014089
1.0013761
0.99935832
0.99797113
0.99951529
0.99794314
0.99613171
0.99798096
0.99893528
0.99633848
0.99307439
0.99323941
0.99618803
0.99607866
0.9901285
0.98376121
0.98574966
0.99305577
0.99584012
0.99272041
0.98539775
0.97909073
0.97809249
0.98173825
0.98183295
0.97449205
0.95988131
0.94527433
0.93895263
0.94374814
0.95661018
0.9706859
0.97781832
0.97531705
1.0042166
1.0044017
1.003759
1.0019925
1.0016364
1.0025089
1.0053104
1.0063705
1.003495
1.0009953
1.0003076
0.9999772
0.99894377
1.0007547
1.0027316
1.001069
1.0007821
0.99778196
1.0008566
1.0002294
1.0002797
1.0031685
1.0016236
0.99758925
0.99690514
0.99874686
0.9968489
0.99568936
0.99819237
0.99936918
0.99623208
0.99249867
0.9936536
0.99825524
0.99819268
0.99038141
0.98236635
0.98415947
0.99339954
0.99837499
0.9954655
0.98634667
0.97814331
0.97464042
0.97622007
0.97864106
0.97686875
0.97074922
0.96115944
0.95350549
0.95208
0.95824675
0.96835268
0.97780902
0.98157118
1.0039944
1.0046369
1.0037874
1.0017967
1.0014425
1.002232
1.005415
1.0065394
1.0035623
1.0010982
0.99990011
0.99958668
0.99843848
0.99987904
1.0016476
1.0013404
1.0002892
0.99716384
0.99896431
0.99945848
1.0005351
1.0034048
1.0016052
0.99716208
0.99666656
0.99858673
0.99641455
0.99529996
0.99792718
0.9992287
0.99605868
0.99201202
0.99355455
0.9990542
0.99954338
0.99116658
0.98201093
0.98213382
0.9910808
0.99790615
0.99753299
0.98921016
0.97931284
0.97336423
0.97112051
0.97216561
0.97474569
0.97536405
0.9730125
0.96832144
0.96283117
0.95967839
0.9606156
0.96606434
0.97321131
1.0039768
1.0047707
1.0036689
1.0016987
1.0014119
1.0023045
1.0052094
1.0061211
1.0034472
1.0009909
0.9997246
0.99956943
0.9989911
0.99941128
1.0000448
1.0009662
0.99945533
0.99759303
0.99736523
0.99823043
1.0005806
1.0023055
1.0007128
0.99793296
0.99820002
0.99979593
0.99724184
0.99585051
0.99848653
0.99981993
0.99632577
0.99198968
0.99364345
0.99927384
0.99973265
0.9918271
0.98243129
0.98055512
0.98771738
0.99576331
0.99873414
0.99326143
0.98271207
0.97332077
0.96829955
0.96674517
0.96992631
0.97503876
0.9777572
0.97697534
0.97154132
0.96327827
0.95625756
0.95403113
0.95790014
1.0041368
1.0047713
1.0034428
1.001676
1.0013201
1.002546
1.0046925
1.0055099
1.0033506
1.0005915
0.99944732
0.99948287
0.99944064
0.99936594
0.99917679
1.0004869
0.99892992
0.99874512
0.99719824
0.99783711
1.0014627
1.0016728
0.99982611
0.99818332
0.99957355
1.0009846
0.99803219
0.99636476
0.99924054
1.0009759
0.99735831
0.99241575
0.9936772
0.9990108
0.99942477
0.99268457
0.98368718
0.9800503
0.98455961
0.99290348
0.9981562
0.99684037
0.98693623
0.97508625
0.96695994
0.96405824
0.966077
0.97190065
0.97795503
0.98052518
0.9775507
0.96990622
0.95909895
0.94989611
0.94642359
1.0043189
1.004626
1.0032239
1.0016476
1.0012128
1.0026203
1.0042138
1.0052087
1.0034969
1.0003626
0.99912273
0.99903037
0.99961512
0.99967215
0.99939401
1.0007141
0.99909011
0.99954133
0.99815228
0.9980084
1.002321
1.0020948
0.99978199
0.99797604
0.99963309
1.0009912
0.9978617
0.99597865
0.99916892
1.0019478
0.99877379
0.99328885
0.99339383
0.99796196
0.99872288
0.99386599
0.98615224
0.98056969
0.98245116
0.98964335
0.99657381
0.998559
0.99130861
0.97794997
0.96744321
0.96354752
0.96456504
0.96950274
0.97676335
0.98147161
0.98104467
0.97622534
0.96667254
0.95472186
0.94538543
1.0044584
1.0044633
1.003075
1.0016058
1.0011587
1.0025119
1.0040529
1.0053103
1.0036177
1.0002866
0.99903008
0.99840624
0.99945522
1.0000298
0.99997013
1.001387
0.99948487
0.99908796
0.99890491
0.99809799
1.0024152
1.0027271
1.0007154
0.99780205
0.99884656
1.0002735
0.9969882
0.99515506
0.99850718
1.0024252
1.0000651
0.99436219
0.9931719
0.99645767
0.99754572
0.9947241
0.98930874
0.9825503
0.98172033
0.98671853
0.99426063
0.99809453
0.99435545
0.9812976
0.96936724
0.96365361
0.96440751
0.96843795
0.97472037
0.98054026
0.98174554
0.97895134
0.97241353
0.96281065
0.9523533
1.0044516
1.0043881
1.002995
1.0014935
1.0011272
1.0022616
1.0041726
1.0057556
1.0036884
1.0003543
0.99927362
0.99794543
0.99900677
0.99979289
1.0002244
1.0018222
0.99971638
0.99766052
0.99886447
0.99793361
1.0016376
1.0029616
1.0018506
0.99785258
0.99794331
0.99955804
0.9964631
0.9948586
0.99822543
1.0026245
1.0008516
0.99534144
0.99333131
0.99512801
0.99604091
0.99509086
0.99217422
0.98579594
0.98253891
0.98479844
0.99142422
0.99658764
0.99543872
0.98506222
0.97213436
0.9646079
0.96426985
0.96822426
0.97372224
0.97910929
0.9810219
0.97894332
0.97434174
0.96733351
0.95936211
1.0043579
1.0043508
1.0030118
1.0013904
1.0011591
1.0020631
1.004486
1.0061733
1.0036162
1.0004799
0.99961234
0.9978592
0.99860737
0.99915481
1.0001468
1.0017267
0.99978409
0.9963588
0.99823413
0.99769485
1.0007349
1.0030632
1.0028742
0.99825846
0.99735919
0.99918605
0.99674118
0.99560237
0.99887196
1.0028336
1.001055
0.99610369
0.99400298
0.99438387
0.99454515
0.99487638
0.99408453
0.98965993
0.98469584
0.98434499
0.98889455
0.99463133
0.99478615
0.98785093
0.97591199
0.96701082
0.96471017
0.96816475
0.97407093
0.97887397
0.98020579
0.9776906
0.97338267
0.96806122
0.96265211
1.0042406
1.004338
1.0031096
1.0013646
1.001249
1.0019425
1.0047557
1.006396
1.003503
1.0006172
0.99982699
0.99817462
0.99848069
0.99861418
0.9999571
1.0012542
0.99976005
0.99583967
0.99752099
0.9975464
1.0002752
1.0031982
1.0035577
0.99894216
0.99727436
0.99887498
0.99709937
0.99696823
1.0001292
1.0031584
1.0008779
0.99662671
0.99509034
0.99434643
0.99333056
0.99430636
0.99505571
0.99289035
0.98797722
0.98528912
0.9874398
0.9923886
0.99338236
0.98919842
0.97992693
0.97049982
0.96670262
0.96911021
0.97486296
0.97997392
0.98050282
0.97709147
0.97232452
0.9676245
0.96377014
1.0041405
1.0044022
1.00328
1.0014251
1.0013415
1.0018787
1.0049076
1.006489
1.0034633
1.0007392
0.99994428
0.99874198
0.99873052
0.99852266
0.99987124
1.0006563
0.99965563
0.99626598
0.99704638
0.99759568
1.0005217
1.0035746
1.0036984
0.99943611
0.99744576
0.99862895
0.99734635
0.99804518
1.0012132
1.0033646
1.0005822
0.99707469
0.99636368
0.99497736
0.99261583
0.99335317
0.99510835
0.9951873
0.99156385
0.98749418
0.9872667
0.99030117
0.99156594
0.98919612
0.98351112
0.97513896
0.97040097
0.97133661
0.97637008
0.98138627
0.98223742
0.97858555
0.9731473
0.96830175
0.96508487
1.0040967
1.0045111
1.0034473
1.0016096
1.0013986
1.0020017
1.0049857
1.0064763
1.0034995
1.0008457
1.0000161
0.99931205
0.99898036
0.99878648
0.99988544
1.0000632
0.99946906
0.99733995
0.99674486
0.99750622
1.0011056
1.0041257
1.0033819
0.99944499
0.99767155
0.99835457
0.99740058
0.99867267
1.0019079
1.0033591
1.000371
0.99745335
0.99757695
0.99596896
0.99240444
0.99226684
0.99444127
0.99635137
0.99474484
0.99062942
0.98828157
0.98883953
0.98946073
0.98852637
0.98573944
0.98019471
0.97525318
0.97482604
0.97829813
0.98283804
0.98441512
0.98173707
0.9765176
0.97158644
0.96823976
1.0041078
1.004587
1.0036038
1.0018395
1.0014366
1.0022403
1.0050465
1.0064312
1.0036141
1.0010257
1.0000612
0.99964503
0.99906766
0.99911755
1.0000951
0.99962366
0.99916776
0.99846982
0.99664513
0.99728569
1.0016742
1.0046391
1.0028145
0.99910835
0.99787394
0.99807836
0.99723062
0.99881529
1.0019315
1.0028696
1.0000183
0.99771525
0.9985448
0.99702968
0.99256235
0.99117148
0.9932771
0.99650267
0.9971729
0.99403213
0.99013523
0.98804925
0.98711637
0.98705439
0.98656673
0.98415933
0.98052316
0.97918544
0.9808757
0.98412996
0.98613473
0.98469716
0.98074121
0.97656148
0.97321544
1.0041502
1.004644
1.0037391
1.0020741
1.0014952
1.0024959
1.0050977
1.0064519
1.0038165
1.0012309
1.0000821
0.99971372
0.99891682
0.99933873
1.0003298
0.9994759
0.99888226
0.99939037
0.99679547
0.99683574
1.0018245
1.0047993
1.0021673
0.9986443
0.99800217
0.99775775
0.99691675
0.99843001
1.001563
1.0019904
0.99936415
0.99771045
0.99922537
0.99802427
0.99299508
0.99021303
0.99168783
0.99582068
0.99862899
0.99714307
0.99257199
0.98796232
0.9848824
0.98446287
0.98592199
0.98638522
0.98509329
0.98372095
0.98370478
0.98518753
0.98673212
0.98638512
0.98377577
0.98081457
0.97820656
1.0041951
1.0047028
1.0038401
1.0022648
1.0015869
1.0027302
1.0051466
1.0065638
1.0041275
1.0014823
1.000074
0.99951292
0.99857847
0.99932825
1.0003349
0.99956471
0.99866108
0.99992569
0.99702808
0.99632204
1.0015914
1.0046133
1.0016053
0.99831438
0.99814764
0.99746765
0.99654416
0.99795648
1.0009584
1.001065
0.99858234
0.99753906
0.99957996
0.99897584
0.99372928
0.98955301
0.98989397
0.99435382
0.99903147
0.99952783
0.99515393
0.98854628
0.98300901
0.98125529
0.98365525
0.98661416
0.98801409
0.98761287
0.98672291
0.98622518
0.98614584
0.98563803
0.98429165
0.98263373
0.98146089
1.0042397
1.0047855
1.0039254
1.0023964
1.0017078
1.0029149
1.005201
1.0067084
1.0044678
1.0017395
1.0001152
0.99924369
0.9982801
0.99908024
1.000101
0.99982176
0.99859994
0.9999787
0.99724118
0.99592517
1.0011498
1.0041954
1.0013152
0.99831675
0.99834456
0.99734095
0.99634303
0.99766457
1.0005059
1.0004287
0.99793589
0.99742001
0.99981832
0.99979364
0.99468081
0.98927327
0.9883174
0.99255351
0.99868867
1.0009858
0.99756362
0.9897187
0.98172002
0.97789547
0.98007848
0.98480634
0.98881573
0.99031047
0.98936291
0.98730797
0.98504271
0.9830713
0.98208316
0.98168411
0.98210502
1.0042895
1.0048484
1.0039849
1.0024737
1.0018504
1.0030791
1.0052991
1.0068787
1.0047856
1.0020132
1.0002249
0.99908553
0.99817793
0.99881506
0.99981015
1.0001449
0.99874474
0.99961893
0.99740619
0.99576874
1.0007109
1.0037562
1.0013151
0.99867015
0.99862052
0.99741636
0.99628414
0.99756915
1.0003982
1.0002262
0.99765147
0.99741307
1.000039
1.0004886
0.99571052
0.98942621
0.98712203
0.99073443
0.99763639
1.0017367
0.99962237
0.99130354
0.9812158
0.97500976
0.97569135
0.98142606
0.98758082
0.99124696
0.99131933
0.98849263
0.98394456
0.97971379
0.97784855
0.97819208
0.97986732
1.0043324
1.004918
1.0040228
1.0025034
1.0020051
1.0032049
1.0054185
1.0070487
1.0050635
1.0022134
1.0003777
0.99907791
0.99835671
0.99866033
0.99950216
1.0005094
0.99912197
0.99905569
0.99739661
0.99573668
1.000264
1.0033314
1.0015784
0.99935406
0.99892428
0.99754626
0.99620559
0.99767388
1.000641
1.000492
0.99768247
0.99750941
1.000158
1.0009709
0.99673387
0.98987312
0.98625908
0.98897737
0.99619992
1.0018646
1.0011694
0.99318132
0.98153139
0.97297443
0.97136632
0.97691501
0.98462177
0.9903541
0.99224919
0.98967814
0.9835497
0.97699631
0.97330256
0.97290033
0.97527319
1.0043661
1.0049765
1.0040427
1.0024886
1.002161
1.0032803
1.0055294
1.0072194
1.0052825
1.0023051
1.000468
0.99912938
0.9987115
0.99857937
0.99915074
1.0007939
0.99958771
0.99833177
0.99719322
0.99570109
0.99981912
1.0029271
1.0018655
1.0001096
0.99915801
0.99766377
0.99604959
0.99778395
1.0011289
1.0009957
0.99795351
0.99763102
1.0002138
1.0013496
0.99763473
0.99052149
0.9857688
0.98747108
0.99453681
1.0015827
1.0022619
0.99497024
0.98271165
0.97198445
0.96801528
0.97238507
0.98045286
0.98809317
0.99201038
0.99050973
0.9838511
0.97576496
0.97000536
0.96803186
0.96966087
1.004388
1.0050236
1.00403
1.0024327
1.0022773
1.003301
1.0055746
1.0072983
1.0053895
1.0022271
1.0003767
0.99906637
0.99906043
0.99843829
0.99864257
1.0007878
0.99992241
0.99755126
0.99674503
0.99554919
0.99932117
1.002401
1.0019977
1.0007067
0.99929059
0.99757714
0.99575995
0.99772345
1.0015191
1.0015142
0.99829173
0.99767157
1.0001013
1.0016753
0.99843633
0.99132024
0.98567763
0.98629279
0.99281843
1.000764
1.0027026
0.99662275
0.98445186
0.97246871
0.96631362
0.96866328
0.9760976
0.98494971
0.99093908
0.99110158
0.98498689
0.97648406
0.96918907
0.96538353
0.96549425
1.0043459
1.0050198
1.0039442
1.0022988
1.0023222
1.0031875
1.0054513
1.0071894
1.0052615
1.0019221
1.0000611
0.9987777
0.99920733
0.99820001
0.99807044
1.0005793
1.0000944
0.9968463
0.99620082
0.99527008
0.99875072
1.001835
1.0018396
1.0009163
0.99924583
0.99730556
0.99521836
0.99730217
1.0016214
1.001993
0.9984611
0.99755232
0.99974149
1.0020264
0.99940992
0.99231394
0.98590694
0.98539179
0.99128167
0.99989641
1.0030182
0.99780931
0.98641529
0.97410493
0.96638574
0.96630833
0.97261307
0.9821833
0.98982032
0.99159766
0.98668702
0.97855149
0.97092575
0.96609899
0.96491007
1.0041963
1.0048274
1.003665
1.0019908
1.0021283
1.0028526
1.005036
1.0067485
1.0048056
1.0013764
0.99946465
0.99822899
0.99902148
0.99779132
0.997488
1.0002199
1.0001188
0.99629776
0.99572358
0.99500302
0.99840993
1.0015046
1.0014196
1.0008124
0.99904975
0.9968738
0.99435621
0.99657007
1.0013797
1.002214
0.99843406
0.99711867
0.99921071
1.0020852
1.0004328
0.99360001
0.98654416
0.98494125
0.99051856
0.999391
1.0039328
0.99933046
0.98856064
0.9764355
0.9678495
0.96550921
0.97122739
0.98066205
0.9898573
0.99332123
0.9905551
0.98279617
0.97493312
0.96984239
0.9681482
1.003664
1.0043205
1.0031106
1.0016392
1.0019688
1.0025694
1.0045709
1.0061555
1.0042179
1.0008278
0.99892632
0.99764329
0.99862586
0.99731589
0.9970423
0.99985481
1.0000082
0.99606019
0.99555832
0.99478541
0.99819169
1.0011843
1.0012544
1.0005651
0.99898742
0.9967952
0.99388371
0.99574544
1.0007515
1.0019576
0.99842687
0.99673259
0.99866556
1.0016997
1.0010119
0.9951849
0.98807141
0.98557745
0.99021337
0.99862123
1.0042473
1.001074
0.99148274
0.97974735
0.97087333
0.96786
0.97174522
0.98019939
0.98880404
0.99354922
0.99255074
0.9867855
0.97977894
0.97462978
0.97276205
0.97297871
0.96869102
0.96609067
0.96846349
0.97313858
0.97814689
0.98137819
0.98209898
0.98060004
0.97720925
0.97250534
0.96747616
0.96320833
0.95934123
0.95476346
0.94845623
0.94201914
0.94019608
0.94817808
0.96390639
0.97655947
0.97466365
0.95993325
0.94087699
0.9174401
0.90553288
0.91753756
0.97604753
0.97193127
0.96988411
0.97225141
0.97578211
0.97895554
0.980919
0.98172193
0.98130277
0.97916654
0.97545464
0.96985912
0.96291667
0.95538934
0.94802919
0.94154873
0.9396207
0.94460733
0.95612266
0.96894891
0.97134014
0.9547216
0.93293694
0.92762463
0.92357103
0.91999255
0.92901868
0.97676475
0.97359516
0.9710441
0.97168002
0.97337032
0.97547542
0.97767271
0.9798152
0.9811153
0.98025998
0.97650717
0.96933008
0.95990311
0.95088429
0.94469343
0.94320964
0.94720146
0.95563973
0.96607357
0.97043323
0.9596854
0.92980867
0.90402075
0.9077917
0.92296355
0.93298597
0.94228329
0.97211906
0.96953874
0.9665949
0.96624156
0.96730714
0.96967489
0.9731528
0.97700151
0.97960441
0.97908175
0.9741664
0.96502538
0.9534717
0.94558061
0.94443507
0.94947344
0.95856595
0.96669998
0.97018141
0.96459297
0.94644748
0.91127229
0.88532745
0.89232523
0.91669784
0.93643287
0.94540753
0.96662078
0.96349481
0.96013922
0.95947836
0.96093677
0.96434174
0.96904623
0.97366725
0.97564865
0.97308901
0.96632518
0.95642744
0.9463214
0.9418811
0.94577032
0.95498354
0.96526921
0.96904816
0.96347909
0.95157787
0.93304443
0.90342713
0.88199855
0.89015604
0.91365476
0.92977871
0.9309657
0.96522112
0.96222908
0.9588159
0.95761173
0.95874708
0.96172155
0.96538268
0.96806282
0.96759534
0.96320851
0.95606546
0.94783777
0.94144109
0.9406736
0.9474974
0.95703877
0.96319119
0.95969071
0.94624454
0.93370307
0.92115863
0.90471929
0.89090218
0.9006454
0.91742638
0.91647502
0.90003332
0.9697118
0.96629188
0.96205632
0.95974037
0.95979108
0.96104751
0.96253783
0.96309118
0.96159818
0.95781126
0.9525512
0.94744394
0.94376035
0.94375026
0.94870607
0.95360518
0.95222105
0.94068984
0.9245017
0.91562512
0.91360632
0.91065745
0.90607487
0.91631968
0.92683056
0.90433475
0.8658326
0.9760829
0.9709314
0.96441815
0.96066697
0.95944032
0.95966513
0.96058488
0.96205442
0.96259146
0.96147941
0.95844927
0.95487742
0.95160987
0.9491621
0.94866254
0.94581727
0.93638743
0.92027182
0.90357188
0.9003533
0.90846575
0.91730361
0.9192861
0.92976522
0.93326013
0.89614986
0.8479971
0.97535678
0.96898489
0.96152992
0.95661306
0.95496597
0.95577748
0.95907028
0.96379794
0.96752809
0.96810924
0.96521531
0.95999941
0.95433903
0.9497111
0.94536013
0.93810111
0.92519905
0.90804647
0.89371956
0.89383425
0.90601677
0.91970908
0.92384015
0.93057379
0.92992574
0.89349684
0.84943562
0.96465442
0.95799227
0.95045537
0.94612047
0.94649197
0.94982391
0.95638782
0.96382114
0.96889715
0.96888947
0.96395589
0.95534968
0.94687534
0.94051702
0.93643485
0.93094782
0.92130205
0.90735418
0.89721089
0.89889582
0.90950488
0.91924145
0.91582131
0.91472123
0.91222061
0.89406309
0.86393575
0.94951001
0.94315837
0.9362447
0.93301767
0.93520153
0.94120744
0.95021589
0.95941304
0.96435634
0.96307068
0.95552964
0.94403814
0.93190094
0.92387927
0.92174052
0.92112424
0.91848753
0.91290865
0.90792037
0.91034414
0.91827667
0.91853214
0.90160152
0.88520435
0.88627843
0.89077719
0.87986686
0.93892557
0.93323649
0.92723903
0.92520616
0.92867298
0.93563017
0.94446694
0.9526182
0.95562748
0.95192985
0.94210132
0.92783411
0.91367608
0.90421026
0.9029332
0.90653438
0.91178576
0.91431471
0.91578015
0.92067519
0.92601223
0.91949472
0.88938391
0.85858229
0.85988131
0.88219265
0.89087434
0.93814581
0.93387242
0.9291378
0.92789952
0.93146178
0.9370572
0.94324978
0.94696883
0.94523678
0.93663655
0.92273485
0.90595364
0.8911862
0.88238094
0.88295985
0.88965475
0.89942955
0.90772856
0.91375056
0.92138023
0.92716174
0.91881459
0.88379611
0.84748696
0.84545791
0.87180583
0.88932939
0.94957296
0.94426919
0.93804699
0.93629734
0.93822301
0.94114533
0.94292337
0.94138065
0.93437617
0.92049297
0.90194682
0.88293959
0.86891472
0.86347154
0.86585801
0.87426708
0.88445701
0.89304247
0.90078681
0.90977447
0.91829549
0.91261832
0.88267478
0.85011851
0.84536661
0.86704615
0.88076648
0.96331449
0.95551347
0.94695218
0.94239905
0.94022519
0.93946932
0.93797473
0.93389518
0.92379117
0.90635459
0.88467241
0.86444988
0.8527448
0.85111763
0.85662658
0.86537158
0.87281798
0.87667298
0.87999005
0.88768912
0.89711307
0.89749403
0.88098347
0.85873652
0.85367856
0.86812164
0.86804348
0.96755372
0.95804785
0.94645276
0.93818734
0.93313001
0.93091706
0.92959999
0.92622463
0.91601368
0.897348
0.87351068
0.85235857
0.84219808
0.84477174
0.85437975
0.86334959
0.8668285
0.86362498
0.85872482
0.85949824
0.86855952
0.87652439
0.87538354
0.86741653
0.86533377
0.87148515
0.85643084
0.96077931
0.94939694
0.93396836
0.92348219
0.91844855
0.9182954
0.91922488
0.91834307
0.91052721
0.8930172
0.86830026
0.84587221
0.8363206
0.84214743
0.85495954
0.86523037
0.86541499
0.85554429
0.84296303
0.83549772
0.8413129
0.85465205
0.86561679
0.87164184
0.87664313
0.87498596
0.84682934
0.94477796
0.93052544
0.91255351
0.90221127
0.89889764
0.90137444
0.90599091
0.90905211
0.90542141
0.89089129
0.86701276
0.84313159
0.83241154
0.83873338
0.85447003
0.86638665
0.86594797
0.85218584
0.83406358
0.82183239
0.82399067
0.83770208
0.85484676
0.86930407
0.87966393
0.87528967
0.84109794
0.92123673
0.9049059
0.88679949
0.87834298
0.87748647
0.88163691
0.88870483
0.89501749
0.89488277
0.88403465
0.86247452
0.83900701
0.82729646
0.83216089
0.84781237
0.86222553
0.86405705
0.85106876
0.83163906
0.81807526
0.81787656
0.82993182
0.84609141
0.86011457
0.87038282
0.86832963
0.83960558
0.90008651
0.88349175
0.86656324
0.85872334
0.85844236
0.86286827
0.8702323
0.87675846
0.87638437
0.86581631
0.84613723
0.82634459
0.81760596
0.82280049
0.83786852
0.85254715
0.85641456
0.84785032
0.83183131
0.82064909
0.82008537
0.82971884
0.84030541
0.84704636
0.85026673
0.85121805
0.83641981
0.88723391
0.87196216
0.85498533
0.84505777
0.84216863
0.84457684
0.84994724
0.85409081
0.85139179
0.8396515
0.82270025
0.80905769
0.80527005
0.81150509
0.825042
0.8375602
0.84266015
0.83925164
0.83111015
0.82514718
0.82558144
0.83244337
0.83610859
0.8323858
0.82387645
0.8234249
0.82465871
0.88159875
0.86578466
0.84592624
0.8319104
0.82617579
0.82717756
0.83047232
0.83155272
0.82622518
0.81331719
0.79910297
0.79088276
0.79090806
0.79858976
0.80988938
0.8189105
0.82383763
0.82555365
0.82667937
0.82855409
0.83032925
0.83293323
0.8304713
0.81712658
0.79957046
0.79108614
0.80340572
0.87688252
0.8580108
0.83356764
0.81675781
0.81104783
0.8129363
0.81575889
0.81427475
0.80507388
0.79049665
0.778049
0.77274105
0.77446545
0.78215324
0.79149245
0.7988592
0.80383976
0.81053222
0.81849008
0.82619703
0.82984744
0.82896461
0.82150501
0.80315112
0.77845033
0.76487637
0.77776905
0.8692386
0.84549975
0.81539771
0.79805989
0.79449602
0.79742605
0.8000273
0.79625033
0.78460509
0.76920831
0.75770989
0.75296824
0.75511129
0.76289809
0.77218135
0.78014051
0.78727759
0.79632788
0.8071096
0.81798892
0.82237421
0.82045635
0.8108199
0.79113875
0.76574429
0.74879986
0.75721062
0.8563801
0.82560966
0.78976792
0.7724616
0.77035804
0.77452604
0.77797951
0.77440965
0.76240669
0.74712304
0.73575087
0.73073486
0.73317148
0.74161738
0.75211767
0.76242819
0.77255702
0.78362293
0.79567198
0.80524365
0.81008303
0.80860585
0.80081095
0.78315699
0.76039646
0.74478378
0.74893472
0.83943247
0.80037035
0.76086556
0.74585988
0.74545372
0.75166326
0.75691428
0.75528366
0.74409081
0.72869915
0.71558783
0.70881558
0.70850246
0.71628309
0.72834232
0.74154298
0.75560285
0.76970194
0.78265862
0.79136134
0.79572332
0.79592129
0.79262582
0.78087801
0.76239562
0.75050826
0.75151825
0.82052522
0.77537691
0.73892888
0.7290467
0.73220014
0.74025103
0.74478678
0.74248203
0.73095506
0.71555767
0.70102243
0.6909336
0.68634273
0.68928269
0.69941827
0.71424898
0.73163329
0.74978898
0.76541205
0.77630194
0.78124595
0.78386027
0.78516502
0.78142667
0.77035001
0.76030616
0.75930335
0.80090823
0.75493526
0.72681336
0.72172565
0.72598861
0.73155928
0.73287695
0.72775494
0.71607847
0.70181197
0.68739772
0.67524597
0.66745622
0.66508244
0.67031502
0.68322094
0.70151793
0.72323056
0.74311533
0.75778574
0.76655569
0.77164031
0.77705225
0.78157019
0.77846405
0.77274268
0.76956882
0.78158231
0.73900616
0.71711797
0.71309971
0.71457469
0.71568097
0.71375523
0.7062876
0.69585415
0.68371981
0.6704981
0.65896002
0.65046698
0.64688001
0.64893742
0.65854678
0.67457612
0.69607195
0.71885619
0.73817033
0.75116644
0.75968377
0.76788863
0.77790608
0.7836774
0.78220682
0.77861881
0.76577029
0.72824713
0.70796666
0.70200327
0.699214
0.69674008
0.6925812
0.68531361
0.67561216
0.66484729
0.65347409
0.64400696
0.6371407
0.63444055
0.63696693
0.64553566
0.65944985
0.67844383
0.70057409
0.72081645
0.73665386
0.74852006
0.75876174
0.7712886
0.78213528
0.78516516
0.78257188
0.74946035
0.71828652
0.69835776
0.69004114
0.68486857
0.68100161
0.67605788
0.66999829
0.66209389
0.65382323
0.64537619
0.63875513
0.63461453
0.63401741
0.63764319
0.64559893
0.65780948
0.6737174
0.69204705
0.7109861
0.72636273
0.73871976
0.74970833
0.76226959
0.77457513
0.77994144
0.77924029
0.73241287
0.70812868
0.6889402
0.67887841
0.67271993
0.66806672
0.66381995
0.65945157
0.65455128
0.64980679
0.64541812
0.64256246
0.64161328
0.64353802
0.64846787
0.65649197
0.66723001
0.68030413
0.69511726
0.70937276
0.72160053
0.73202158
0.74222327
0.75379365
0.76426996
0.76915459
0.77008305
0.71630332
0.69869475
0.67974666
0.6668013
0.65948612
0.65515245
0.65227988
0.65020992
0.64860631
0.64762362
0.64767844
0.64902558
0.65197394
0.65685775
0.6636859
0.67224455
0.68220285
0.69313288
0.70424977
0.71454221
0.72304977
0.73016971
0.73684319
0.74516558
0.75206824
0.75517098
0.75714488
0.70408694
0.68893286
0.6659847
0.64991803
0.64273544
0.64003855
0.63942581
0.64008893
0.64193797
0.64498474
0.64923691
0.65476893
0.66157985
0.66948107
0.67825707
0.68769859
0.69739495
0.70681786
0.71495063
0.72121877
0.72566832
0.72907907
0.73241866
0.73633422
0.7386218
0.73947657
0.74201625
0.69383841
0.66993123
0.64014951
0.62554082
0.62113966
0.62129972
0.62351169
0.62748175
0.63292768
0.63967251
0.64760671
0.65660623
0.66648717
0.67678293
0.68723898
0.69777912
0.70789506
0.71653095
0.72306355
0.72693804
0.72840995
0.72795673
0.72649524
0.72498876
0.72334901
0.72264957
0.72702243
0.67313951
0.63306618
0.60366426
0.59444234
0.59441512
0.59761737
0.60333276
0.61086065
0.61980588
0.62993076
0.64102693
0.65284205
0.66501865
0.67722321
0.68954028
0.70155651
0.71233248
0.72124877
0.72728827
0.72965731
0.72834977
0.72360543
0.71668239
0.70971936
0.70432218
0.7040066
0.7108553
0.63154959
0.58373393
0.55838051
0.55501157
0.55811599
0.56545108
0.57552531
0.58735688
0.60035996
0.61412177
0.62840326
0.64297645
0.65748687
0.67183501
0.68580379
0.69898199
0.71111233
0.72151561
0.72832895
0.72983066
0.7254932
0.71585086
0.70294854
0.69003563
0.6801874
0.67991976
0.68948016
0.55763232
0.51857659
0.50254619
0.50412314
0.51219418
0.52485862
0.54027289
0.55736393
0.57550811
0.59397386
0.61218394
0.62984692
0.64677938
0.6624596
0.67674393
0.69052398
0.70450716
0.71784177
0.72709395
0.72915151
0.72305676
0.70874761
0.68776166
0.66826671
0.65323687
0.64982688
0.66006386
0.45947981
0.44452575
0.44511627
0.45349663
0.46762653
0.48519886
0.50551445
0.52796083
0.55119915
0.57415033
0.59595639
0.61630124
0.63495352
0.65122789
0.66467738
0.67731404
0.6920181
0.70860489
0.72221322
0.72686009
0.72176717
0.70292123
0.67540759
0.64722618
0.6254844
0.61682926
0.62365156
0.39302218
0.39627388
0.40704268
0.42231012
0.44012365
0.46057578
0.48406068
0.50970791
0.53625975
0.56191544
0.58507287
0.6058228
0.6243902
0.63994437
0.65151857
0.66129351
0.67471089
0.69308799
0.71298846
0.72436856
0.7220328
0.703873
0.66887743
0.63217621
0.60211073
0.58503317
0.58479538
0.36813639
0.3756693
0.38981484
0.40684954
0.42634166
0.44873561
0.47397118
0.50118421
0.52882494
0.55448119
0.5761369
0.59399036
0.60970727
0.62295732
0.63236397
0.64078656
0.65349181
0.67392227
0.69930898
0.71924447
0.72351739
0.70853343
0.67378214
0.63149772
0.59161949
0.5640025
0.55218189
0.36122392
0.36904438
0.38353008
0.40137253
0.42194406
0.44480441
0.4692432
0.49379613
0.51655228
0.53507515
0.5501016
0.56182172
0.57055796
0.57759885
0.58511364
0.59590329
0.6138714
0.64053268
0.6734921
0.70359539
0.71695651
0.71204244
0.68496169
0.64061479
0.59589732
0.5587592
0.53089561
0.36050803
0.36406291
0.3730912
0.38563631
0.39998158
0.41468767
0.42844968
0.44007281
0.44970126
0.45353693
0.45461222
0.45423555
0.45571043
0.46082109
0.47271221
0.49328834
0.5245325
0.56593753
0.61339492
0.65782232
0.68676578
0.69404331
0.68475882
0.65336179
0.61444892
0.57500917
0.54182355
0.31221573
0.30106002
0.29889452
0.30090807
0.30375804
0.305874
0.3075539
0.30765537
0.30689428
0.30698487
0.30902419
0.31449179
0.32368003
0.33680549
0.35575294
0.38236571
0.41922777
0.46771589
0.52473513
0.5806058
0.62583685
0.65263673
0.66117768
0.65162229
0.62816584
0.59952374
0.57024799
0.2007472
0.1970287
0.20423167
0.21414535
0.22319529
0.23041565
0.23587959
0.23986047
0.2434539
0.24783599
0.25372066
0.26200792
0.27451266
0.29194184
0.31485747
0.34315961
0.3776569
0.41967328
0.46866628
0.51998075
0.56408556
0.59524779
0.61314877
0.61922472
0.61451898
0.59941271
0.5768998
0.14853907
0.16098233
0.17673194
0.19132837
0.20407544
0.21498344
0.22448566
0.23338595
0.24268744
0.25315655
0.26528112
0.27953923
0.2962551
0.3155617
0.33766987
0.3626679