/*--------------------------------*- C++ -*----------------------------------*\
| =========                 |                                                 |
| \\      /  F ield         | OpenFOAM: The Open Source CFD Toolbox           |
|  \\    /   O peration     | Version:  2406                                  |
|   \\  /    A nd           | Website:  www.openfoam.com                      |
|    \\/     M anipulation  |                                                 |
\*---------------------------------------------------------------------------*/
FoamFile
{
    version     2.0;
    format      ascii;
    arch        "LSB;label=32;scalar=64";
    class       volScalarField;
    location    "1100";
    object      kMean;
}
// * * * * * * * * * * * * * * * * * * * * * * * * * * * * * * * * * * * * * //

dimensions      [0 2 -2 0 0 0 0];

internalField   nonuniform List<scalar> 
132739
(
3.3450385e-06
2.6828267e-06
2.2259031e-06
1.9021878e-06
1.6634956e-06
1.4807807e-06
1.3365021e-06
1.2196912e-06
1.1231887e-06
1.0421318e-06
9.7310027e-07
9.1361652e-07
8.6184002e-07
8.16375e-07
7.7614396e-07
7.4030036e-07
7.0817068e-07
6.7921275e-07
6.5298477e-07
6.2912447e-07
6.0732919e-07
5.8734686e-07
5.6896557e-07
5.5200386e-07
5.3630662e-07
5.2173832e-07
5.0818262e-07
4.9554127e-07
4.8373547e-07
4.7270766e-07
4.6240394e-07
4.5276792e-07
4.437624e-07
4.353563e-07
4.2751755e-07
4.2021186e-07
4.1340374e-07
4.0705917e-07
4.0114393e-07
3.9562734e-07
3.9048315e-07
3.8568768e-07
3.8121984e-07
3.7706161e-07
3.7319739e-07
3.696131e-07
3.6629227e-07
3.63222e-07
3.6038872e-07
3.5777756e-07
3.5537667e-07
3.531606e-07
3.5112764e-07
3.4925031e-07
3.4751536e-07
3.4589404e-07
3.4437609e-07
3.4296278e-07
3.4162948e-07
3.4040792e-07
3.3931222e-07
3.383717e-07
3.3757331e-07
3.3694312e-07
3.3647993e-07
3.3618484e-07
3.3613262e-07
3.362905e-07
3.3663005e-07
3.3712992e-07
3.3776832e-07
3.3854136e-07
3.3938608e-07
3.4028831e-07
3.41314e-07
3.4245007e-07
3.4394231e-07
3.4580614e-07
3.4813991e-07
3.5109583e-07
3.5484797e-07
3.5959806e-07
3.6552533e-07
3.728026e-07
3.8166971e-07
3.9228352e-07
4.0436262e-07
4.1769321e-07
4.322514e-07
4.4843741e-07
4.6690763e-07
4.8817861e-07
5.1250495e-07
5.3996032e-07
5.7061442e-07
6.046097e-07
6.4221124e-07
6.8379938e-07
7.2997667e-07
7.8116749e-07
8.3887179e-07
9.0190205e-07
9.773112e-07
1.052494e-06
3.3451219e-06
2.6832502e-06
2.2264802e-06
1.9028249e-06
1.6641481e-06
1.4814283e-06
1.337137e-06
1.2203098e-06
1.1237903e-06
1.0427175e-06
9.7367166e-07
9.1417518e-07
8.6238784e-07
8.1691415e-07
7.7667656e-07
7.4082846e-07
7.0869624e-07
6.7973784e-07
6.5351126e-07
6.2965314e-07
6.0786146e-07
5.8788415e-07
5.6950908e-07
5.5255446e-07
5.368646e-07
5.2230437e-07
5.0875701e-07
4.9612439e-07
4.8432707e-07
4.7330572e-07
4.6300791e-07
4.5337833e-07
4.4437843e-07
4.359763e-07
4.2813974e-07
4.2083533e-07
4.1402727e-07
4.0768123e-07
4.0176454e-07
3.9624634e-07
3.9109901e-07
3.8630002e-07
3.8182824e-07
3.7766479e-07
3.7379433e-07
3.7020006e-07
3.6686545e-07
3.6377634e-07
3.6091952e-07
3.58281e-07
3.5584712e-07
3.5360453e-07
3.5154011e-07
3.4963223e-07
3.4785545e-07
3.4619647e-07
3.4468428e-07
3.4336133e-07
3.4222662e-07
3.4127329e-07
3.4049742e-07
3.398895e-07
3.3942835e-07
3.3910695e-07
3.3891719e-07
3.388399e-07
3.3885989e-07
3.389793e-07
3.3920353e-07
3.3953088e-07
3.3998452e-07
3.4053621e-07
3.4114573e-07
3.4183853e-07
3.426482e-07
3.4362011e-07
3.4478555e-07
3.4619847e-07
3.47906e-07
3.4999705e-07
3.5259614e-07
3.5588825e-07
3.6008147e-07
3.6542986e-07
3.7226839e-07
3.8093964e-07
3.9156324e-07
4.0397197e-07
4.1780976e-07
4.3301971e-07
4.4987127e-07
4.6892209e-07
4.9063324e-07
5.1529488e-07
5.4308277e-07
5.741908e-07
6.0875418e-07
6.4696365e-07
6.889844e-07
7.3505555e-07
7.8565468e-07
8.4107184e-07
9.0171383e-07
9.7752964e-07
3.3452184e-06
2.6836572e-06
2.2270231e-06
1.9034167e-06
1.664748e-06
1.4820181e-06
1.3377084e-06
1.2208589e-06
1.1243159e-06
1.0432186e-06
9.7414825e-07
9.1462823e-07
8.6281747e-07
8.1732022e-07
7.7705903e-07
7.4118735e-07
7.0903112e-07
6.8004845e-07
6.5379706e-07
6.2991344e-07
6.080962e-07
5.8809235e-07
5.6968966e-07
5.5270676e-07
5.3698792e-07
5.2239805e-07
5.0882074e-07
4.9615788e-07
4.843295e-07
4.7327603e-07
4.6294524e-07
4.5328251e-07
4.4424898e-07
4.3581321e-07
4.2794272e-07
4.2060384e-07
4.1376195e-07
4.073824e-07
4.014329e-07
3.9588264e-07
3.9070487e-07
3.8587639e-07
3.8137539e-07
3.7718322e-07
3.7328431e-07
3.6966385e-07
3.6630842e-07
3.632064e-07
3.6034566e-07
3.5771151e-07
3.5529468e-07
3.530811e-07
3.5106314e-07
3.4922379e-07
3.4755898e-07
3.4606469e-07
3.4474015e-07
3.435721e-07
3.4254986e-07
3.4166935e-07
3.409296e-07
3.4031502e-07
3.3981214e-07
3.3941467e-07
3.3911542e-07
3.3890546e-07
3.3877273e-07
3.3870683e-07
3.3870628e-07
3.3876766e-07
3.3890101e-07
3.3911471e-07
3.3941521e-07
3.3981817e-07
3.4036775e-07
3.411181e-07
3.4207881e-07
3.4325401e-07
3.4470805e-07
3.4649696e-07
3.4867683e-07
3.5131852e-07
3.5453073e-07
3.5849014e-07
3.6347797e-07
3.6990083e-07
3.7822768e-07
3.887156e-07
4.0128159e-07
4.1555378e-07
4.3142994e-07
4.4906039e-07
4.68768e-07
4.9087423e-07
5.1555006e-07
5.4298709e-07
5.7341813e-07
6.0709717e-07
6.4427376e-07
6.8516498e-07
7.2987256e-07
7.7914383e-07
8.3004069e-07
8.9934037e-07
3.3453397e-06
2.6840812e-06
2.2275763e-06
1.904012e-06
1.6653461e-06
1.4826031e-06
1.3382734e-06
1.2214019e-06
1.1248372e-06
1.0437201e-06
9.746322e-07
9.1509536e-07
8.6326983e-07
8.177603e-07
7.7748852e-07
7.4160761e-07
7.0944404e-07
6.8045573e-07
6.5420032e-07
6.3031404e-07
6.0849543e-07
5.8849179e-07
5.700905e-07
5.5311031e-07
5.3739533e-07
5.2281089e-07
5.0923982e-07
4.9658449e-07
4.8476532e-07
4.7372179e-07
4.634013e-07
4.5374988e-07
4.4472929e-07
4.3630704e-07
4.2845082e-07
4.2112669e-07
4.1429999e-07
4.0793657e-07
4.0200378e-07
3.9647147e-07
3.9131181e-07
3.865014e-07
3.820195e-07
3.7784641e-07
3.7396594e-07
3.7036322e-07
3.6702494e-07
3.6393864e-07
3.6109231e-07
3.5847558e-07
3.5607614e-07
3.538869e-07
3.5189666e-07
3.5009373e-07
3.4846938e-07
3.4701469e-07
3.4572111e-07
3.4457875e-07
3.4357867e-07
3.4271254e-07
3.4196873e-07
3.4133655e-07
3.4080683e-07
3.4037114e-07
3.4002222e-07
3.3975149e-07
3.39552e-07
3.394189e-07
3.3934991e-07
3.3934679e-07
3.3940861e-07
3.3954961e-07
3.3977456e-07
3.4009771e-07
3.4053231e-07
3.4110608e-07
3.418885e-07
3.428889e-07
3.44134e-07
3.4567985e-07
3.4759127e-07
3.4991867e-07
3.5271863e-07
3.5605244e-07
3.6003795e-07
3.6491833e-07
3.7108749e-07
3.7902177e-07
3.8906227e-07
4.0116814e-07
4.1505834e-07
4.3075768e-07
4.4844912e-07
4.6839055e-07
4.9071196e-07
5.1547761e-07
5.4277083e-07
5.7273057e-07
6.0557837e-07
6.4156146e-07
6.8079976e-07
7.2417824e-07
7.6856933e-07
8.28019e-07
3.34547e-06
2.6844909e-06
2.2281056e-06
1.9045825e-06
1.6659215e-06
1.4831669e-06
1.3388186e-06
1.221926e-06
1.1253398e-06
1.0442016e-06
9.7509294e-07
9.155365e-07
8.6369244e-07
8.1816504e-07
7.7787576e-07
7.4197792e-07
7.0979798e-07
6.8079371e-07
6.5452282e-07
6.3062111e-07
6.087872e-07
5.8876881e-07
5.7035254e-07
5.533574e-07
5.376274e-07
5.2302751e-07
5.0944144e-07
4.9677124e-07
4.8493717e-07
4.7387864e-07
4.6354337e-07
4.5387755e-07
4.4484298e-07
4.3640663e-07
4.2853593e-07
4.2119741e-07
4.1435629e-07
4.0797898e-07
4.0203221e-07
3.9648678e-07
3.9131568e-07
3.8649228e-07
3.819975e-07
3.7781303e-07
3.7392036e-07
3.7030529e-07
3.669544e-07
3.6385513e-07
3.6099573e-07
3.5836487e-07
3.5595202e-07
3.5374663e-07
3.5173833e-07
3.4991772e-07
3.4827533e-07
3.4680208e-07
3.4548902e-07
3.4432364e-07
3.4329576e-07
3.4239616e-07
3.4161514e-07
3.4094375e-07
3.4037268e-07
3.398929e-07
3.3949746e-07
3.3917787e-07
3.3892744e-07
3.3874009e-07
3.3861208e-07
3.3854206e-07
3.3853034e-07
3.3858183e-07
3.3869754e-07
3.3889078e-07
3.3918263e-07
3.3961956e-07
3.4026392e-07
3.411045e-07
3.4219182e-07
3.4356918e-07
3.4528316e-07
3.4738565e-07
3.4993212e-07
3.5296982e-07
3.56552e-07
3.6078298e-07
3.6590133e-07
3.7230577e-07
3.804541e-07
3.9059955e-07
4.0262569e-07
4.1630101e-07
4.3172826e-07
4.4916998e-07
4.6885302e-07
4.9090478e-07
5.1538677e-07
5.4232853e-07
5.7179927e-07
6.039244e-07
6.3874452e-07
6.7702998e-07
7.1635198e-07
7.677005e-07
3.3456191e-06
2.6849133e-06
2.2286426e-06
1.905155e-06
1.6664939e-06
1.4837237e-06
1.339355e-06
1.2224407e-06
1.1258327e-06
1.0446737e-06
9.7554574e-07
9.1597198e-07
8.6411225e-07
8.1857067e-07
7.7826846e-07
7.4235933e-07
7.1016929e-07
6.8115571e-07
6.548769e-07
6.3096848e-07
6.0912847e-07
5.8910505e-07
5.706846e-07
5.5368547e-07
5.379522e-07
5.2334952e-07
5.0976133e-07
4.9709041e-07
4.852574e-07
4.7420078e-07
4.6386711e-07
4.5420387e-07
4.4517351e-07
4.3674238e-07
4.2887677e-07
4.2154338e-07
4.1470822e-07
4.0833691e-07
4.0239702e-07
3.9685834e-07
3.9169369e-07
3.8687964e-07
3.8239356e-07
3.7821586e-07
3.743312e-07
3.7072468e-07
3.6738116e-07
3.6428871e-07
3.6143539e-07
3.5881005e-07
3.5640145e-07
3.5419989e-07
3.5219519e-07
3.5037679e-07
3.4873571e-07
3.4726181e-07
3.4594532e-07
3.4477517e-07
3.4374369e-07
3.4284157e-07
3.4205532e-07
3.4137626e-07
3.4079618e-07
3.4030511e-07
3.3989442e-07
3.3955621e-07
3.3928221e-07
3.3906677e-07
3.3890531e-07
3.387948e-07
3.3873549e-07
3.3872869e-07
3.3878011e-07
3.3890284e-07
3.3911331e-07
3.3945386e-07
3.3995525e-07
3.4064712e-07
3.4156239e-07
3.4274011e-07
3.4422521e-07
3.4606908e-07
3.4832808e-07
3.5105494e-07
3.542955e-07
3.5810056e-07
3.6258027e-07
3.6798574e-07
3.7471977e-07
3.8318348e-07
3.935065e-07
4.0552483e-07
4.1907947e-07
4.3429086e-07
4.514083e-07
4.7062917e-07
4.9210075e-07
5.1592431e-07
5.4215951e-07
5.7087039e-07
6.0201262e-07
6.361209e-07
6.7123354e-07
7.1634484e-07
3.3457773e-06
2.6853238e-06
2.2291577e-06
1.9057043e-06
1.6670459e-06
1.484264e-06
1.3398768e-06
1.2229415e-06
1.1263126e-06
1.0451333e-06
9.7598617e-07
9.163947e-07
8.6451787e-07
8.189603e-07
7.7864313e-07
7.4271967e-07
7.1051639e-07
6.8149041e-07
6.5519971e-07
6.3127962e-07
6.0942855e-07
5.8939416e-07
5.7096301e-07
5.5395342e-07
5.3820971e-07
5.2359701e-07
5.0999966e-07
4.9732057e-07
4.8547994e-07
4.7441561e-07
4.6407422e-07
4.5440496e-07
4.4536971e-07
4.3693397e-07
4.290634e-07
4.2172524e-07
4.1488552e-07
4.0850997e-07
4.0256612e-07
3.9702478e-07
3.91858e-07
3.8704069e-07
3.8255235e-07
3.7837316e-07
3.7448651e-07
3.7087764e-07
3.6753171e-07
3.6443638e-07
3.615801e-07
3.5895075e-07
3.5653808e-07
3.5433187e-07
3.5232111e-07
3.5049644e-07
3.4884827e-07
3.4736596e-07
3.4604023e-07
3.4486065e-07
3.4381595e-07
3.4289722e-07
3.4209466e-07
3.4139732e-07
3.4079555e-07
3.4027971e-07
3.3984127e-07
3.3947185e-07
3.3916337e-07
3.3890939e-07
3.3870492e-07
3.3854624e-07
3.3843252e-07
3.3836329e-07
3.3834342e-07
3.3838557e-07
3.3850744e-07
3.3875123e-07
3.3914508e-07
3.3971578e-07
3.4049399e-07
3.4151446e-07
3.4281626e-07
3.4444601e-07
3.4645809e-07
3.4890933e-07
3.5185212e-07
3.5533606e-07
3.5943529e-07
3.6429991e-07
3.7020713e-07
3.7752219e-07
3.8652434e-07
3.972239e-07
4.0944193e-07
4.2309117e-07
4.3828583e-07
4.5519076e-07
4.7397545e-07
4.9479073e-07
5.1777116e-07
5.4304093e-07
5.7060504e-07
6.0088801e-07
6.3223938e-07
6.7215401e-07
3.34595e-06
2.6857425e-06
2.2296774e-06
1.9062529e-06
1.6675914e-06
1.4847941e-06
1.3403866e-06
1.2234298e-06
1.1267798e-06
1.0455808e-06
9.7641565e-07
9.1680688e-07
8.6491437e-07
8.1934236e-07
7.7901166e-07
7.4307617e-07
7.1086185e-07
6.818253e-07
6.5552486e-07
6.3159601e-07
6.0973718e-07
5.8969551e-07
5.7125793e-07
5.5424248e-07
5.3849306e-07
5.2387534e-07
5.1027369e-07
4.9759141e-07
4.8574843e-07
4.7468255e-07
4.6434046e-07
4.5467168e-07
4.4563835e-07
4.372049e-07
4.293374e-07
4.2200254e-07
4.1516613e-07
4.0879445e-07
4.0285527e-07
3.9731891e-07
3.921573e-07
3.8734574e-07
3.8286324e-07
3.7868986e-07
3.7480891e-07
3.7120565e-07
3.6786483e-07
3.6477382e-07
3.6192206e-07
3.5929733e-07
3.5688796e-07
3.5468436e-07
3.526759e-07
3.5085218e-07
3.4920406e-07
3.4772093e-07
3.4639305e-07
3.4521079e-07
3.4416253e-07
3.4323863e-07
3.4242947e-07
3.4172391e-07
3.4111303e-07
3.405863e-07
3.4013449e-07
3.3974889e-07
3.3942181e-07
3.3914509e-07
3.38914e-07
3.3872548e-07
3.3857516e-07
3.3846335e-07
3.3839601e-07
3.3838346e-07
3.3844164e-07
3.3860837e-07
3.3890938e-07
3.3936975e-07
3.4001817e-07
3.4088833e-07
3.4201744e-07
3.4344868e-07
3.4523205e-07
3.4742197e-07
3.5007065e-07
3.5322873e-07
3.5695943e-07
3.6137376e-07
3.6666743e-07
3.7312078e-07
3.8102642e-07
3.9054363e-07
4.01616e-07
4.14099e-07
4.2794819e-07
4.432437e-07
4.600807e-07
4.7856916e-07
4.9883305e-07
5.2101518e-07
5.451956e-07
5.7177882e-07
5.9948058e-07
6.3452611e-07
3.3461282e-06
2.6861486e-06
2.230178e-06
1.9067832e-06
1.6681208e-06
1.4853096e-06
1.3408834e-06
1.223906e-06
1.1272355e-06
1.0460171e-06
9.7683353e-07
9.1720754e-07
8.6529901e-07
8.1971162e-07
7.7936708e-07
7.4341897e-07
7.111928e-07
6.8214543e-07
6.5583447e-07
6.3189571e-07
6.100275e-07
5.8997694e-07
5.7153064e-07
5.5450679e-07
5.3874942e-07
5.2412392e-07
5.105146e-07
4.9782546e-07
4.8597717e-07
4.7490706e-07
4.6456153e-07
4.5489097e-07
4.4585701e-07
4.3742345e-07
4.2955649e-07
4.2222267e-07
4.1538695e-07
4.0901639e-07
4.0307889e-07
3.975442e-07
3.923852e-07
3.87577e-07
3.8309805e-07
3.789282e-07
3.7505066e-07
3.7145021e-07
3.6811217e-07
3.6502449e-07
3.6217553e-07
3.5955195e-07
3.5714356e-07
3.5494101e-07
3.5293263e-07
3.5110822e-07
3.49459e-07
3.4797369e-07
3.4664269e-07
3.4545646e-07
3.4440288e-07
3.4347252e-07
3.4265609e-07
3.4194154e-07
3.4131858e-07
3.4077819e-07
3.4031047e-07
3.3990698e-07
3.3955829e-07
3.3925657e-07
3.3899657e-07
3.3877402e-07
3.3858722e-07
3.3843322e-07
3.383175e-07
3.3824907e-07
3.382454e-07
3.383424e-07
3.3856384e-07
3.3893291e-07
3.3947606e-07
3.4022424e-07
3.4121157e-07
3.4247805e-07
3.4406989e-07
3.4603775e-07
3.484345e-07
3.5131096e-07
3.5472878e-07
3.5878983e-07
3.6365742e-07
3.6954629e-07
3.7668057e-07
3.8523269e-07
3.9525704e-07
4.0669326e-07
4.1945709e-07
4.3355289e-07
4.4899439e-07
4.6582654e-07
4.841325e-07
5.0399578e-07
5.2548204e-07
5.4892649e-07
5.7337319e-07
6.0382349e-07
3.3463158e-06
2.6865575e-06
2.230676e-06
1.9073049e-06
1.6686385e-06
1.4858119e-06
1.3413663e-06
1.2243686e-06
1.1276781e-06
1.0464406e-06
9.77239e-07
9.1759619e-07
8.6567256e-07
8.2007116e-07
7.7971364e-07
7.4375353e-07
7.1151601e-07
6.8245822e-07
6.5613744e-07
6.3218974e-07
6.1031309e-07
5.9025477e-07
5.7180153e-07
5.5477102e-07
5.3900691e-07
5.2437502e-07
5.1076026e-07
4.9806673e-07
4.8621582e-07
4.7514425e-07
4.6479797e-07
4.5512883e-07
4.4609741e-07
4.3766738e-07
4.2980451e-07
4.2247477e-07
4.1564379e-07
4.0927853e-07
4.0334721e-07
3.9781912e-07
3.9266698e-07
3.878657e-07
3.8339345e-07
3.7923073e-07
3.753605e-07
3.7176681e-07
3.6843557e-07
3.6535395e-07
3.6250971e-07
3.5989148e-07
3.5748858e-07
3.5529014e-07
3.5328598e-07
3.5146542e-07
3.4981895e-07
3.4833584e-07
3.4700617e-07
3.4581965e-07
3.4476521e-07
3.438337e-07
3.4301404e-07
3.4229579e-07
3.4166821e-07
3.4112141e-07
3.4064621e-07
3.4023176e-07
3.3987008e-07
3.3955377e-07
3.3927608e-07
3.3903156e-07
3.3881813e-07
3.3863289e-07
3.3848179e-07
3.3837154e-07
3.3832013e-07
3.3836043e-07
3.3851313e-07
3.3880142e-07
3.3924791e-07
3.3988596e-07
3.4074738e-07
3.4186401e-07
3.4328219e-07
3.4505067e-07
3.4722101e-07
3.4984248e-07
3.5296908e-07
3.5669129e-07
3.6116973e-07
3.6661708e-07
3.7322345e-07
3.8110261e-07
3.9029352e-07
4.0078481e-07
4.1254281e-07
4.2556802e-07
4.3986944e-07
4.5543642e-07
4.7229551e-07
4.9048136e-07
5.1003249e-07
5.3116996e-07
5.5320678e-07
5.7984886e-07
3.3465039e-06
2.6869544e-06
2.2311565e-06
1.9078096e-06
1.6691414e-06
1.4863001e-06
1.3418356e-06
1.224818e-06
1.1281076e-06
1.0468514e-06
9.7763195e-07
9.1797259e-07
8.6603356e-07
8.2041818e-07
7.8004762e-07
7.4407515e-07
7.1182635e-07
6.8275822e-07
6.5642788e-07
6.3247102e-07
6.105861e-07
5.9052008e-07
5.7205897e-07
5.5502069e-07
5.3924917e-07
5.2461015e-07
5.1098913e-07
4.9829063e-07
4.864362e-07
4.7536301e-07
4.6501612e-07
4.5534815e-07
4.4631924e-07
4.378928e-07
4.3003406e-07
4.2270851e-07
4.158826e-07
4.0952348e-07
4.035983e-07
3.980766e-07
3.9293152e-07
3.8813773e-07
3.8367303e-07
3.7951777e-07
3.7565443e-07
3.7206774e-07
3.6874334e-07
3.6566818e-07
3.628303e-07
3.6021827e-07
3.5782157e-07
3.5562842e-07
3.5362832e-07
3.5181214e-07
3.5016921e-07
3.4868869e-07
3.4736163e-07
3.4617632e-07
3.4512338e-07
3.4419319e-07
3.4337207e-07
3.4265097e-07
3.4201983e-07
3.4146772e-07
3.4098572e-07
3.4056185e-07
3.401916e-07
3.3986395e-07
3.3956933e-07
3.3930605e-07
3.3906754e-07
3.3885271e-07
3.3866847e-07
3.3851966e-07
3.3842403e-07
3.3841332e-07
3.3850777e-07
3.3872713e-07
3.3909425e-07
3.3963712e-07
3.403877e-07
3.4138135e-07
3.4265473e-07
3.4425281e-07
3.4622687e-07
3.4862865e-07
3.515102e-07
3.5494611e-07
3.5908066e-07
3.6414104e-07
3.7035481e-07
3.7783189e-07
3.8654375e-07
3.9640808e-07
4.0737465e-07
4.1945352e-07
4.3270402e-07
4.4713646e-07
4.6277291e-07
4.7962381e-07
4.9770606e-07
5.1713441e-07
5.3745248e-07
5.613681e-07
3.3466938e-06
2.6873446e-06
2.2316268e-06
1.9083015e-06
1.6696287e-06
1.4867723e-06
1.3422886e-06
1.2252514e-06
1.1285223e-06
1.047248e-06
9.7801164e-07
9.1833652e-07
8.663828e-07
8.2075377e-07
7.8037047e-07
7.4438665e-07
7.121274e-07
6.8304902e-07
6.5670928e-07
6.3274391e-07
6.1085101e-07
5.9077724e-07
5.7230857e-07
5.5526328e-07
5.3948519e-07
5.2484005e-07
5.1121371e-07
4.9851152e-07
4.8665528e-07
4.7558134e-07
4.6523536e-07
4.5557084e-07
4.4654678e-07
4.3812568e-07
4.3027347e-07
4.2295548e-07
4.1613797e-07
4.0978761e-07
4.038714e-07
3.9835927e-07
3.9322416e-07
3.8844021e-07
3.8398514e-07
3.7983977e-07
3.7598627e-07
3.72409e-07
3.6909396e-07
3.6602782e-07
3.6319898e-07
3.605953e-07
3.5820586e-07
3.5602091e-07
3.5402884e-07
3.5221936e-07
3.5058307e-07
3.4910895e-07
3.4778715e-07
3.4660731e-07
3.4555825e-07
3.4463055e-07
3.4381231e-07
3.4309416e-07
3.4246494e-07
3.4191298e-07
3.4142793e-07
3.4100124e-07
3.4062452e-07
3.4028681e-07
3.3998167e-07
3.3970442e-07
3.3945067e-07
3.3921765e-07
3.3901017e-07
3.3883297e-07
3.3870428e-07
3.3865209e-07
3.3869576e-07
3.3885513e-07
3.391521e-07
3.3961159e-07
3.4026365e-07
3.4114331e-07
3.4228677e-07
3.4373471e-07
3.4553499e-07
3.4774037e-07
3.5040528e-07
3.535928e-07
3.5741676e-07
3.6209005e-07
3.6788949e-07
3.7501659e-07
3.8347585e-07
3.9310858e-07
4.0373683e-07
4.1527352e-07
4.2775647e-07
4.4124065e-07
4.5578589e-07
4.7143881e-07
4.8825e-07
5.0628442e-07
5.2522324e-07
5.4711705e-07
3.346884e-06
2.6877256e-06
2.2320837e-06
1.9087781e-06
1.6701013e-06
1.4872306e-06
1.3427286e-06
1.2256724e-06
1.1289241e-06
1.0476317e-06
9.7837838e-07
9.1868778e-07
8.6671972e-07
8.2107767e-07
7.8068242e-07
7.4468696e-07
7.1241696e-07
6.833288e-07
6.569801e-07
6.3300663e-07
6.1110588e-07
5.9102441e-07
5.7254866e-07
5.5549629e-07
5.3971119e-07
5.2505972e-07
5.114279e-07
4.9872175e-07
4.8686332e-07
4.7578976e-07
4.6544614e-07
4.5578515e-07
4.4676665e-07
4.3835323e-07
4.3050915e-07
4.2320011e-07
4.1639215e-07
4.1005194e-07
4.041467e-07
3.9864627e-07
3.9352261e-07
3.8874992e-07
3.8430633e-07
3.8017221e-07
3.7633007e-07
3.7276413e-07
3.6945966e-07
3.6640455e-07
3.6358607e-07
3.6099223e-07
3.5861309e-07
3.5643742e-07
3.5445391e-07
3.5265368e-07
3.5102612e-07
3.4956001e-07
3.4824629e-07
3.4707418e-07
3.4603214e-07
3.4511026e-07
3.4429695e-07
3.4358199e-07
3.4295493e-07
3.4240411e-07
3.4192071e-07
3.4149294e-07
3.411121e-07
3.4076994e-07
3.404594e-07
3.4017402e-07
3.399074e-07
3.3965707e-07
3.3943049e-07
3.392321e-07
3.3907591e-07
3.3898959e-07
3.389921e-07
3.3910098e-07
3.3933805e-07
3.3972728e-07
3.4029688e-07
3.4107882e-07
3.4210878e-07
3.4342567e-07
3.4507385e-07
3.4710492e-07
3.4957811e-07
3.5255814e-07
3.5613146e-07
3.6046037e-07
3.6581257e-07
3.7247631e-07
3.8060506e-07
3.9011395e-07
4.0075565e-07
4.1228461e-07
4.2457341e-07
4.3761772e-07
4.514625e-07
4.6618531e-07
4.8189785e-07
4.9869471e-07
5.1638185e-07
5.3655431e-07
3.3470754e-06
2.6880987e-06
2.2325287e-06
1.9092417e-06
1.6705595e-06
1.4876748e-06
1.3431545e-06
1.2260791e-06
1.1293127e-06
1.0480029e-06
9.787333e-07
9.1902762e-07
8.6704594e-07
8.2139111e-07
7.8098397e-07
7.4497766e-07
7.1269762e-07
6.836e-07
6.5724254e-07
6.3326074e-07
6.1135208e-07
5.9126329e-07
5.7278051e-07
5.5572143e-07
5.3992966e-07
5.2527178e-07
5.1163524e-07
4.9892625e-07
4.8706732e-07
4.7599459e-07
4.6565407e-07
4.5599937e-07
4.4698862e-07
4.3858431e-07
4.3075091e-07
4.2345363e-07
4.1665863e-07
4.1033174e-07
4.0444054e-07
3.9895429e-07
3.9384447e-07
3.8908564e-07
3.8465584e-07
3.8053589e-07
3.7670723e-07
3.7315405e-07
3.6986273e-07
3.6682071e-07
3.6401472e-07
3.614337e-07
3.5906742e-07
3.569036e-07
3.5493202e-07
3.531432e-07
3.515271e-07
3.5007229e-07
3.4876866e-07
3.4760644e-07
3.4657362e-07
3.4566104e-07
3.4485652e-07
3.4414911e-07
3.4352975e-07
3.429844e-07
3.4250472e-07
3.4208091e-07
3.4170137e-07
3.4135918e-07
3.4104484e-07
3.407529e-07
3.4047889e-07
3.4022022e-07
3.399803e-07
3.3976244e-07
3.3958564e-07
3.3947282e-07
3.3944329e-07
3.3951303e-07
3.3969839e-07
3.4002672e-07
3.4052363e-07
3.4122034e-07
3.4215097e-07
3.4335246e-07
3.4486691e-07
3.4674285e-07
3.4904047e-07
3.5183124e-07
3.5519444e-07
3.5924537e-07
3.6418422e-07
3.702943e-07
3.7784427e-07
3.8693952e-07
3.974597e-07
4.0913206e-07
4.2166869e-07
4.3489016e-07
4.4869807e-07
4.6310451e-07
4.7820233e-07
4.9411099e-07
5.1073613e-07
5.293971e-07
3.3472672e-06
2.6884649e-06
2.2329633e-06
1.909693e-06
1.671005e-06
1.4881055e-06
1.3435674e-06
1.2264732e-06
1.1296889e-06
1.0483622e-06
9.7907674e-07
9.1935663e-07
8.673614e-07
8.2169414e-07
7.8127547e-07
7.4525824e-07
7.1296806e-07
6.8386131e-07
6.5749502e-07
6.3350515e-07
6.1158919e-07
5.9149344e-07
5.7300383e-07
5.5593781e-07
5.4013919e-07
5.2547518e-07
5.1183372e-07
4.9912186e-07
4.8726291e-07
4.7619344e-07
4.6585814e-07
4.5621055e-07
4.4720969e-07
4.3881642e-07
4.3099568e-07
4.2371296e-07
4.1693332e-07
4.1062316e-07
4.0474895e-07
3.9927937e-07
3.9418593e-07
3.8944363e-07
3.8503008e-07
3.8092514e-07
3.7711171e-07
3.7357404e-07
3.702982e-07
3.6727125e-07
3.6448017e-07
3.6191381e-07
3.5956172e-07
3.574124e-07
3.5545594e-07
3.5368166e-07
3.5207916e-07
3.5063779e-07
3.4934741e-07
3.4819838e-07
3.4717782e-07
3.4627647e-07
3.4548308e-07
3.4478601e-07
3.4417505e-07
3.4363887e-07
3.4316695e-07
3.4274925e-07
3.4237514e-07
3.4203611e-07
3.4172429e-07
3.4143192e-07
3.4115334e-07
3.4088787e-07
3.4063883e-07
3.4040834e-07
3.402151e-07
3.4008128e-07
3.4002406e-07
3.4005918e-07
3.4020483e-07
3.404819e-07
3.4091868e-07
3.4154256e-07
3.4238686e-07
3.4348793e-07
3.4488568e-07
3.4662651e-07
3.4876828e-07
3.5138509e-07
3.5456167e-07
3.5839297e-07
3.6301187e-07
3.6862295e-07
3.7548666e-07
3.8382897e-07
3.9373192e-07
4.0509445e-07
4.176713e-07
4.3118899e-07
4.4538275e-07
4.6007996e-07
4.752436e-07
4.9093133e-07
5.0704164e-07
5.2471675e-07
3.3474622e-06
2.6888236e-06
2.2333859e-06
1.9101314e-06
1.6714376e-06
1.4885232e-06
1.3439676e-06
1.2268553e-06
1.1300535e-06
1.0487101e-06
9.794093e-07
9.196751e-07
8.6766659e-07
8.2198698e-07
7.8155698e-07
7.4552936e-07
7.1322932e-07
6.8411364e-07
6.5773919e-07
6.3374116e-07
6.1181767e-07
5.9171495e-07
5.7321827e-07
5.5614532e-07
5.4034002e-07
5.2567028e-07
5.1202482e-07
4.9931167e-07
4.874542e-07
4.7638818e-07
4.6605991e-07
4.5642207e-07
4.4743248e-07
4.3905346e-07
4.3124889e-07
4.2398414e-07
4.1722417e-07
4.1093359e-07
4.0507903e-07
3.996294e-07
3.9455536e-07
3.8983196e-07
3.8543726e-07
3.8135062e-07
3.7755523e-07
3.7403549e-07
3.7077692e-07
3.6776733e-07
3.649939e-07
3.6244539e-07
3.6011094e-07
3.5797876e-07
3.5603921e-07
3.5428194e-07
3.5269581e-07
3.5127108e-07
3.4999661e-07
3.4886197e-07
3.4785749e-07
3.4697143e-07
3.4619207e-07
3.4550891e-07
3.4491115e-07
3.4438766e-07
3.4392724e-07
3.4351899e-07
3.4315294e-07
3.4282065e-07
3.4251365e-07
3.4222419e-07
3.4194704e-07
3.4168009e-07
3.414266e-07
3.4118881e-07
3.4098476e-07
3.4083566e-07
3.407565e-07
3.4076321e-07
3.4087404e-07
3.4110935e-07
3.4149322e-07
3.4205671e-07
3.4282791e-07
3.4384173e-07
3.4513769e-07
3.4676048e-07
3.4876467e-07
3.5122173e-07
3.5422065e-07
3.578576e-07
3.622345e-07
3.6747823e-07
3.7376411e-07
3.8130165e-07
3.9026912e-07
4.0074678e-07
4.126831e-07
4.2591186e-07
4.4019237e-07
4.552293e-07
4.7080074e-07
4.8681813e-07
5.0303274e-07
5.2057233e-07
3.3476549e-06
2.6891755e-06
2.2337986e-06
1.9105577e-06
1.671857e-06
1.488928e-06
1.3443551e-06
1.2272254e-06
1.1304062e-06
1.0490466e-06
9.7973094e-07
9.1998265e-07
8.6796086e-07
8.2226926e-07
7.818284e-07
7.4579051e-07
7.1348107e-07
6.8435633e-07
6.5797342e-07
6.3396801e-07
6.1203736e-07
5.9192766e-07
5.7342402e-07
5.563441e-07
5.4053249e-07
5.2585742e-07
5.1220852e-07
4.9949472e-07
4.8763981e-07
4.7657943e-07
4.6626017e-07
4.56634e-07
4.4765889e-07
4.3929715e-07
4.3151223e-07
4.2426909e-07
4.1753197e-07
4.1126517e-07
4.054346e-07
4.0000763e-07
3.9495568e-07
3.9025397e-07
3.8588022e-07
3.8181417e-07
3.7803938e-07
3.7454035e-07
3.7130218e-07
3.6831271e-07
3.6555968e-07
3.6303144e-07
3.607169e-07
3.5860509e-07
3.5668568e-07
3.5494812e-07
3.5338161e-07
3.5197578e-07
3.5072139e-07
3.4960614e-07
3.4861859e-07
3.4775064e-07
3.4698961e-07
3.4632297e-07
3.4574126e-07
3.4523216e-07
3.4478573e-07
3.4439096e-07
3.440372e-07
3.4371622e-07
3.4341747e-07
3.4313438e-07
3.4286127e-07
3.4259652e-07
3.4234226e-07
3.4210069e-07
3.4188985e-07
3.417295e-07
3.4163452e-07
3.4161852e-07
3.4169963e-07
3.4189863e-07
3.4223877e-07
3.4274717e-07
3.4345635e-07
3.4439682e-07
3.4560624e-07
3.4712816e-07
3.4901442e-07
3.5133203e-07
3.5416736e-07
3.5762022e-07
3.6178987e-07
3.6676959e-07
3.7266037e-07
3.7958864e-07
3.8770178e-07
3.9713501e-07
4.0797409e-07
4.2022334e-07
4.3381167e-07
4.485272e-07
4.6412131e-07
4.8042905e-07
4.9696624e-07
5.1498635e-07
3.3478507e-06
2.68952e-06
2.2341999e-06
1.910972e-06
1.6722651e-06
1.4893214e-06
1.3447309e-06
1.2275838e-06
1.1307477e-06
1.0493722e-06
9.8004149e-07
9.2027933e-07
8.6824499e-07
8.2254163e-07
7.8208967e-07
7.4604155e-07
7.1372296e-07
6.8458981e-07
6.5819896e-07
6.341861e-07
6.1224813e-07
5.921315e-07
5.7362124e-07
5.5653463e-07
5.40717e-07
5.2603691e-07
5.1238553e-07
4.9967233e-07
4.8782128e-07
4.7676866e-07
4.6646015e-07
4.5684798e-07
4.4789083e-07
4.3955029e-07
4.3178957e-07
4.2457316e-07
4.1786396e-07
4.1162514e-07
4.0582168e-07
4.0042115e-07
3.9539452e-07
3.9071715e-07
3.8636715e-07
3.8232477e-07
3.7857342e-07
3.750972e-07
3.7188244e-07
3.689169e-07
3.661872e-07
3.6368224e-07
3.6139097e-07
3.5930225e-07
3.5740615e-07
3.5569116e-07
3.5414786e-07
3.5276507e-07
3.5153188e-07
3.5043938e-07
3.4947439e-07
3.4862715e-07
3.478874e-07
3.472412e-07
3.4667867e-07
3.4618906e-07
3.4575994e-07
3.4538059e-07
3.4504147e-07
3.4473355e-07
3.4444629e-07
3.4417206e-07
3.4390546e-07
3.4364535e-07
3.4339347e-07
3.4315148e-07
3.4293765e-07
3.427705e-07
3.4266402e-07
3.426314e-07
3.4268886e-07
3.4285716e-07
3.4315929e-07
3.4362128e-07
3.4427361e-07
3.4514853e-07
3.4628186e-07
3.4771662e-07
3.4950232e-07
3.5170153e-07
3.5439403e-07
3.5767586e-07
3.6164844e-07
3.6640368e-07
3.7201565e-07
3.7855081e-07
3.8608698e-07
3.947128e-07
4.0452327e-07
4.1560127e-07
4.2800619e-07
4.4169897e-07
4.5653893e-07
4.7244912e-07
4.8885139e-07
5.0721121e-07
3.3480423e-06
2.6898552e-06
2.2345896e-06
1.9113734e-06
1.6726594e-06
1.4897016e-06
1.3450947e-06
1.2279301e-06
1.1310771e-06
1.0496864e-06
9.8034132e-07
9.2056551e-07
8.6851877e-07
8.2280412e-07
7.8234165e-07
7.4628378e-07
7.13956e-07
6.848142e-07
6.5841539e-07
6.3439503e-07
6.1245011e-07
5.9232656e-07
5.7380954e-07
5.5671658e-07
5.4089286e-07
5.262086e-07
5.1255559e-07
4.9984438e-07
4.8799933e-07
4.7695629e-07
4.6666126e-07
4.570668e-07
4.4813118e-07
4.3981655e-07
4.3208559e-07
4.2490115e-07
4.1822503e-07
4.1201837e-07
4.0624586e-07
4.0087546e-07
3.958777e-07
3.9122793e-07
3.8690504e-07
3.8288923e-07
3.7916427e-07
3.7571467e-07
3.7252633e-07
3.6958745e-07
3.6688445e-07
3.6440568e-07
3.6214099e-07
3.6007924e-07
3.5820946e-07
3.5652097e-07
3.5500377e-07
3.5364714e-07
3.5244038e-07
3.5137264e-07
3.5043296e-07
3.4961066e-07
3.4889351e-07
3.4827087e-07
3.4773162e-07
3.4726285e-07
3.4685301e-07
3.4649244e-07
3.4617034e-07
3.4587648e-07
3.4560258e-07
3.4533984e-07
3.450827e-07
3.4482944e-07
3.4458274e-07
3.4434384e-07
3.4412974e-07
3.4395831e-07
3.4384288e-07
3.4379743e-07
3.438373e-07
3.439815e-07
3.4425236e-07
3.4467591e-07
3.4527921e-07
3.4609779e-07
3.471635e-07
3.4851965e-07
3.5021558e-07
3.5231089e-07
3.5487977e-07
3.5801086e-07
3.6180086e-07
3.6634332e-07
3.7171306e-07
3.779624e-07
3.85129e-07
3.9324742e-07
4.0236535e-07
4.1254091e-07
4.2384896e-07
4.3634769e-07
4.4999797e-07
4.6485992e-07
4.8041779e-07
4.9830061e-07
3.3482342e-06
2.690183e-06
2.2349685e-06
1.9117626e-06
1.6730415e-06
1.4900697e-06
1.3454461e-06
1.2282647e-06
1.1313956e-06
1.0499892e-06
9.8062996e-07
9.2084157e-07
8.6878311e-07
8.2305715e-07
7.8258431e-07
7.4651679e-07
7.141797e-07
6.8502932e-07
6.586227e-07
6.3459512e-07
6.1264321e-07
5.9251264e-07
5.7398875e-07
5.5688918e-07
5.4106005e-07
5.2637258e-07
5.1271959e-07
5.0001202e-07
4.8817469e-07
4.7714397e-07
4.6686551e-07
4.5729276e-07
4.4838414e-07
4.4010158e-07
4.324069e-07
4.2526033e-07
4.1862229e-07
4.1245312e-07
4.0671626e-07
4.0137931e-07
3.9641381e-07
3.9179469e-07
3.8750189e-07
3.8351703e-07
3.7982182e-07
3.7640228e-07
3.7324424e-07
3.7033471e-07
3.6766152e-07
3.6521338e-07
3.6297944e-07
3.6094765e-07
3.5910816e-07
3.5744974e-07
3.5596219e-07
3.5463485e-07
3.5345746e-07
3.5241892e-07
3.5150675e-07
3.5071154e-07
3.5002102e-07
3.4942302e-07
3.4890704e-07
3.4846143e-07
3.480741e-07
3.4773375e-07
3.4743004e-07
3.4715275e-07
3.4689354e-07
3.4664371e-07
3.4639669e-07
3.4615251e-07
3.4591251e-07
3.4567686e-07
3.454657e-07
3.4529457e-07
3.4517494e-07
3.4512019e-07
3.4514617e-07
3.4527123e-07
3.4551683e-07
3.4590877e-07
3.46474e-07
3.4724296e-07
3.482521e-07
3.4954023e-07
3.511562e-07
3.5315852e-07
3.5561759e-07
3.5861454e-07
3.6223953e-07
3.6658121e-07
3.7171722e-07
3.7770543e-07
3.8457857e-07
3.9235233e-07
4.010382e-07
4.1065157e-07
4.2122219e-07
4.3280704e-07
4.4538837e-07
4.5907928e-07
4.7348111e-07
4.9016209e-07
3.3484228e-06
2.6905029e-06
2.2353366e-06
1.9121396e-06
1.6734107e-06
1.490425e-06
1.3457853e-06
1.2285874e-06
1.1317028e-06
1.0502815e-06
9.8090842e-07
9.2110707e-07
8.6903677e-07
8.2329992e-07
7.8281665e-07
7.4673983e-07