/*--------------------------------*- C++ -*----------------------------------*\
| =========                 |                                                 |
| \\      /  F ield         | OpenFOAM: The Open Source CFD Toolbox           |
|  \\    /   O peration     | Version:  2406                                  |
|   \\  /    A nd           | Website:  www.openfoam.com                      |
|    \\/     M anipulation  |                                                 |
\*---------------------------------------------------------------------------*/
FoamFile
{
    version     2.0;
    format      ascii;
    arch        "LSB;label=32;scalar=64";
    class       volScalarField;
    location    "1100";
    object      nutMean;
}
// * * * * * * * * * * * * * * * * * * * * * * * * * * * * * * * * * * * * * //

dimensions      [0 2 -1 0 0 0 0];

internalField   nonuniform List<scalar> 
132739
(
8.6880422e-07
8.5376533e-07
8.4090057e-07
8.301613e-07
8.2112816e-07
8.1339952e-07
8.0667271e-07
8.0073292e-07
7.9542629e-07
7.9064022e-07
7.8629041e-07
7.823117e-07
7.7865252e-07
7.7527152e-07
7.7213539e-07
7.6921608e-07
7.6649021e-07
7.6393833e-07
7.6154387e-07
7.5929343e-07
7.5717441e-07
7.5517679e-07
7.5329249e-07
7.5151301e-07
7.498301e-07
7.4823398e-07
7.4671646e-07
7.4527479e-07
7.439176e-07
7.4267004e-07
7.4154936e-07
7.4055218e-07
7.39689e-07
7.3897243e-07
7.3841517e-07
7.3801687e-07
7.3775797e-07
7.3762223e-07
7.375945e-07
7.3766368e-07
7.3782284e-07
7.3806734e-07
7.3839459e-07
7.3880424e-07
7.3929689e-07
7.3987365e-07
7.4053215e-07
7.4127227e-07
7.4209265e-07
7.429887e-07
7.4395935e-07
7.4498455e-07
7.4607371e-07
7.4720478e-07
7.4836728e-07
7.4953352e-07
7.50699e-07
7.5187062e-07
7.5302546e-07
7.5420696e-07
7.5544272e-07
7.5677703e-07
7.5820337e-07
7.5976665e-07
7.6147966e-07
7.6332443e-07
7.6546937e-07
7.678355e-07
7.7039119e-07
7.7311179e-07
7.7597142e-07
7.7897412e-07
7.8203744e-07
7.8511908e-07
7.8834558e-07
7.9154975e-07
7.952034e-07
7.9920695e-07
8.0367698e-07
8.0874131e-07
8.1457265e-07
8.2135248e-07
8.2924096e-07
8.3844135e-07
8.491304e-07
8.6151652e-07
8.7534747e-07
8.9054261e-07
9.0722606e-07
9.2576967e-07
9.4666712e-07
9.702334e-07
9.9657894e-07
1.0256647e-06
1.0574484e-06
1.0919498e-06
1.1293049e-06
1.1697697e-06
1.2138429e-06
1.2618008e-06
1.3148994e-06
1.3718355e-06
1.4381152e-06
1.5041939e-06
8.6878372e-07
8.5375407e-07
8.4089676e-07
8.3016334e-07
8.2113456e-07
8.1340918e-07
8.066854e-07
8.0074834e-07
7.9544429e-07
7.9066113e-07
7.8631447e-07
7.8233918e-07
7.7868385e-07
7.7530734e-07
7.7217638e-07
7.69263e-07
7.6654388e-07
7.6399974e-07
7.6161399e-07
7.5937263e-07
7.572635e-07
7.5527666e-07
7.5340392e-07
7.5163662e-07
7.4996613e-07
7.4838306e-07
7.4687905e-07
7.4545135e-07
7.4410773e-07
7.42871e-07
7.4176041e-07
7.4077551e-07
7.3992616e-07
7.3922206e-07
7.3867389e-07
7.3828006e-07
7.380236e-07
7.3788865e-07
7.378611e-07
7.3792934e-07
7.3808505e-07
7.3832467e-07
7.3864572e-07
7.390469e-07
7.3952936e-07
7.4009118e-07
7.4072943e-07
7.4144267e-07
7.4222904e-07
7.4308504e-07
7.4400677e-07
7.4498984e-07
7.4602826e-07
7.4710632e-07
7.4820165e-07
7.4930459e-07
7.5045943e-07
7.5172962e-07
7.5312399e-07
7.5464321e-07
7.5629167e-07
7.580665e-07
7.5994794e-07
7.6193399e-07
7.6402433e-07
7.6618645e-07
7.6840307e-07
7.7069283e-07
7.7307521e-07
7.7556096e-07
7.7822357e-07
7.8097877e-07
7.8375343e-07
7.8660638e-07
7.8960094e-07
7.9276131e-07
7.9609045e-07
7.9965453e-07
8.0348899e-07
8.0770247e-07
8.1242956e-07
8.1790401e-07
8.2412496e-07
8.315617e-07
8.4046018e-07
8.5112326e-07
8.634947e-07
8.7737948e-07
8.9255138e-07
9.0910282e-07
9.2735649e-07
9.4779992e-07
9.7079794e-07
9.9657415e-07
1.0252631e-06
1.0569766e-06
1.091712e-06
1.1294609e-06
1.1701995e-06
1.2139907e-06
1.261149e-06
1.3119115e-06
1.3658567e-06
1.433436e-06
8.6876649e-07
8.5374539e-07
8.4089476e-07
8.3016592e-07
8.2114023e-07
8.1341709e-07
8.0669487e-07
8.0075865e-07
7.9545485e-07
7.9067101e-07
7.8632289e-07
7.8234568e-07
7.7868752e-07
7.7530708e-07
7.721711e-07
7.6925162e-07
7.6652505e-07
7.6397216e-07
7.615762e-07
7.5932302e-07
7.5720088e-07
7.5519923e-07
7.5330972e-07
7.5152396e-07
7.4983327e-07
7.4822838e-07
7.4670134e-07
7.4524955e-07
7.4388007e-07
7.4261521e-07
7.4147445e-07
7.4045801e-07
7.3957588e-07
7.3883815e-07
7.3825493e-07
7.3782421e-07
7.3753008e-07
7.3735623e-07
7.3728913e-07
7.373168e-07
7.3743203e-07
7.3763101e-07
7.3791063e-07
7.3827001e-07
7.3871001e-07
7.3923123e-07
7.3983443e-07
7.405212e-07
7.4129133e-07
7.4214108e-07
7.4307207e-07
7.4407892e-07
7.4516331e-07
7.4631536e-07
7.4753985e-07
7.4884131e-07
7.5022829e-07
7.5169298e-07
7.5323069e-07
7.5484425e-07
7.5654006e-07
7.5830568e-07
7.6013085e-07
7.6201435e-07
7.6395289e-07
7.6594054e-07
7.6796773e-07
7.7002514e-07
7.721147e-07
7.7423361e-07
7.7640849e-07
7.7865975e-07
7.8099492e-07
7.8343202e-07
7.86053e-07
7.8889318e-07
7.9191204e-07
7.9507197e-07
7.9849521e-07
8.0225515e-07
8.0645467e-07
8.1111827e-07
8.164204e-07
8.2258863e-07
8.2983748e-07
8.3852209e-07
8.4902283e-07
8.6141065e-07
8.7553868e-07
8.9114702e-07
9.0823525e-07
9.2696205e-07
9.4758238e-07
9.7035027e-07
9.9540788e-07
1.0229596e-06
1.0532375e-06
1.0864379e-06
1.1226772e-06
1.1620045e-06
1.2042729e-06
1.2502519e-06
1.2962043e-06
1.3593889e-06
8.687531e-07
8.5374018e-07
8.4089599e-07
8.3017185e-07
8.2114935e-07
8.1342866e-07
8.0670818e-07
8.007733e-07
7.9547071e-07
7.9068835e-07
7.8634209e-07
7.823665e-07
7.7871028e-07
7.7533249e-07
7.7219958e-07
7.6928348e-07
7.6656096e-07
7.6401286e-07
7.6162243e-07
7.5937548e-07
7.5726028e-07
7.5526658e-07
7.5338582e-07
7.5160972e-07
7.4992958e-07
7.4833656e-07
7.4682239e-07
7.4538511e-07
7.4403197e-07
7.427838e-07
7.4165938e-07
7.4066057e-07
7.3979879e-07
7.3908308e-07
7.385227e-07
7.3811418e-07
7.3784207e-07
7.3769062e-07
7.3764585e-07
7.3769682e-07
7.3783502e-07
7.3805636e-07
7.3835915e-07
7.3874148e-07
7.3920373e-07
7.3974636e-07
7.4037033e-07
7.410763e-07
7.4186433e-07
7.4273529e-07
7.4368742e-07
7.4472348e-07
7.4584134e-07
7.470379e-07
7.4831239e-07
7.4966316e-07
7.5108869e-07
7.5258544e-07
7.5415057e-07
7.5578115e-07
7.5746996e-07
7.5921056e-07
7.6099782e-07
7.6282678e-07
7.6469394e-07
7.6659369e-07
7.6852174e-07
7.7047635e-07
7.7245903e-07
7.744766e-07
7.7652902e-07
7.7864976e-07
7.8084407e-07
7.8313648e-07
7.8554485e-07
7.8804981e-07
7.9076851e-07
7.9367807e-07
7.9679441e-07
8.0020187e-07
8.0400831e-07
8.0828491e-07
8.1310117e-07
8.1853987e-07
8.2470931e-07
8.3183641e-07
8.40262e-07
8.503212e-07
8.6216016e-07
8.7567151e-07
8.9071675e-07
9.074367e-07
9.2602522e-07
9.4666725e-07
9.6938374e-07
9.9418052e-07
1.0211274e-06
1.0503676e-06
1.0821036e-06
1.1165487e-06
1.1536377e-06
1.1943852e-06
1.2348315e-06
1.2900167e-06
8.6874241e-07
8.5373724e-07
8.4089905e-07
8.3017901e-07
8.211594e-07
8.1344072e-07
8.0672173e-07
8.0078794e-07
7.9548618e-07
7.9070434e-07
7.8635809e-07
7.8238227e-07
7.7872556e-07
7.7534682e-07
7.7221234e-07
7.6929417e-07
7.6656911e-07
7.6401792e-07
7.6162395e-07
7.5937276e-07
7.5725267e-07
7.5525375e-07
7.533669e-07
7.5158399e-07
7.498963e-07
7.4829472e-07
7.4677189e-07
7.4532572e-07
7.4396319e-07
7.4270467e-07
7.4156943e-07
7.4055975e-07
7.3968743e-07
7.389608e-07
7.3838809e-07
7.3796614e-07
7.376791e-07
7.3751189e-07
7.374499e-07
7.3748303e-07
7.3760425e-07
7.3780598e-07
7.3808816e-07
7.3845073e-07
7.3889177e-07
7.3941278e-07
7.4001435e-07
7.4069705e-07
7.4146141e-07
7.4230718e-07
7.4323449e-07
7.4424245e-07
7.4532965e-07
7.4649519e-07
7.4773753e-07
7.4905503e-07
7.5044551e-07
7.5190224e-07
7.5342033e-07
7.5499578e-07
7.5662369e-07
7.5829939e-07
7.6001753e-07
7.6177274e-07
7.6356163e-07
7.653789e-07
7.6722044e-07
7.6908292e-07
7.7096569e-07
7.728707e-07
7.7480234e-07
7.7677493e-07
7.7878708e-07
7.8085826e-07
7.8301934e-07
7.8529268e-07
7.877823e-07
7.9041862e-07
7.9328545e-07
7.9644151e-07
7.9994802e-07
8.0387267e-07
8.0829191e-07
8.1327757e-07
8.1889244e-07
8.2525719e-07
8.3260716e-07
8.4126563e-07
8.5149952e-07
8.6333743e-07
8.7662358e-07
8.9129513e-07
9.0757435e-07
9.2574742e-07
9.4596447e-07
9.6825311e-07
9.9260011e-07
1.018985e-06
1.0474341e-06
1.0780632e-06
1.1107932e-06
1.1465777e-06
1.182343e-06
1.2301122e-06
8.6873477e-07
8.5373711e-07
8.4090479e-07
8.3018908e-07
8.2117234e-07
8.1345545e-07
8.067378e-07
8.0080514e-07
7.9550418e-07
7.9072291e-07
7.8637721e-07
7.8240213e-07
7.7874627e-07
7.7536847e-07
7.7223498e-07
7.6931814e-07
7.6659459e-07
7.6404492e-07
7.616529e-07
7.5940407e-07
7.5728644e-07
7.5529041e-07
7.5340678e-07
7.5162695e-07
7.499426e-07
7.4834459e-07
7.4682585e-07
7.4538512e-07
7.4402981e-07
7.4277917e-07
7.4165065e-07
7.4064876e-07
7.3978659e-07
7.3907197e-07
7.3851064e-07
7.3809838e-07
7.3782095e-07
7.3766247e-07
7.3760918e-07
7.3764988e-07
7.3777718e-07
7.3798754e-07
7.3827751e-07
7.3864539e-07
7.3909279e-07
7.3962042e-07
7.4022736e-07
7.4091477e-07
7.4168278e-07
7.4253143e-07
7.4346e-07
7.4446851e-07
7.455557e-07
7.4671938e-07
7.4795837e-07
7.4926966e-07
7.5065009e-07
7.520946e-07
7.5360097e-07
7.5516529e-07
7.5677884e-07
7.584367e-07
7.601344e-07
7.6186522e-07
7.6362373e-07
7.6540484e-07
7.6720287e-07
7.6901434e-07
7.7083744e-07
7.7267251e-07
7.7452307e-07
7.7639385e-07
7.782948e-07
7.8024789e-07
7.8227401e-07
7.843954e-07
7.8664269e-07
7.8904936e-07
7.916568e-07
7.9451492e-07
7.9768076e-07
8.0121932e-07
8.0520308e-07
8.0970325e-07
8.1478467e-07
8.2051908e-07
8.2703247e-07
8.3455799e-07
8.4338913e-07
8.5370601e-07
8.6544839e-07
8.7848205e-07
8.9282249e-07
9.0869909e-07
9.2636788e-07
9.4595245e-07
9.6752365e-07
9.9111184e-07
1.0167e-06
1.0443008e-06
1.0737334e-06
1.1056415e-06
1.1375829e-06
1.1793402e-06
8.6872967e-07
8.5373921e-07
8.409121e-07
8.3019995e-07
8.2118601e-07
8.1347124e-07
8.0675509e-07
8.0082338e-07
7.9552317e-07
7.9074241e-07
7.8639704e-07
7.8242226e-07
7.7876629e-07
7.753882e-07
7.7225426e-07
7.6933661e-07
7.6661223e-07
7.6406161e-07
7.6166835e-07
7.5941787e-07
7.5729844e-07
7.5530016e-07
7.534139e-07
7.5163107e-07
7.4994317e-07
7.4834151e-07
7.4681955e-07
7.4537636e-07
7.4401913e-07
7.42766e-07
7.4163442e-07
7.4063088e-07
7.3976829e-07
7.3905391e-07
7.3849151e-07
7.3807679e-07
7.3779553e-07
7.3763206e-07
7.3757264e-07
7.376073e-07
7.3772824e-07
7.3793009e-07
7.3821187e-07
7.3857207e-07
7.390108e-07
7.3952909e-07
7.4012625e-07
7.4080314e-07
7.4156037e-07
7.4239691e-07
7.4331293e-07
7.4430781e-07
7.453796e-07
7.4652711e-07
7.4774852e-07
7.4904036e-07
7.503998e-07
7.5182242e-07
7.5330229e-07
7.5483521e-07
7.5641587e-07
7.580374e-07
7.5969377e-07
7.6137845e-07
7.6308585e-07
7.6481024e-07
7.6654587e-07
7.6828866e-07
7.7003584e-07
7.7178627e-07
7.735423e-07
7.7530626e-07
7.7708729e-07
7.7890649e-07
7.8078341e-07
7.8274154e-07
7.8480792e-07
7.8701456e-07
7.8940006e-07
7.9200848e-07
7.9488954e-07
7.9810207e-07
8.0171418e-07
8.0579854e-07
8.1042501e-07
8.1566191e-07
8.2160387e-07
8.2840791e-07
8.3630436e-07
8.4550748e-07
8.560736e-07
8.6789632e-07
8.8088746e-07
8.9511459e-07
9.1078295e-07
9.2803718e-07
9.4699014e-07
9.6774092e-07
9.9036099e-07
1.0149202e-06
1.0412928e-06
1.0699325e-06
1.0987585e-06
1.1358629e-06
8.6872707e-07
8.5374343e-07
8.4092163e-07
8.3021322e-07
8.2120168e-07
8.1348866e-07
8.067737e-07
8.0084283e-07
7.9554322e-07
7.9076302e-07
7.8641831e-07
7.8244382e-07
7.787882e-07
7.7541045e-07
7.7227667e-07
7.6935941e-07
7.6663546e-07
7.6408501e-07
7.6169195e-07
7.5944185e-07
7.5732306e-07
7.5532539e-07
7.5343996e-07
7.51658e-07
7.4997072e-07
7.4836997e-07
7.4684942e-07
7.4540878e-07
7.4405507e-07
7.42806e-07
7.4167879e-07
7.4068095e-07
7.3982595e-07
7.3911966e-07
7.3856538e-07
7.3815724e-07
7.3788109e-07
7.3772191e-07
7.3766626e-07
7.3770394e-07
7.3782706e-07
7.380312e-07
7.3831488e-07
7.3867655e-07
7.3911648e-07
7.3963562e-07
7.40233e-07
7.409092e-07
7.4166555e-07
7.4250117e-07
7.4341474e-07
7.4440611e-07
7.4547359e-07
7.466151e-07
7.4782922e-07
7.4911235e-07
7.50461e-07
7.5187144e-07
7.5333744e-07
7.5485411e-07
7.564163e-07
7.5801679e-07
7.596499e-07
7.6130819e-07
7.6298523e-07
7.6467472e-07
7.6637096e-07
7.6806796e-07
7.6976284e-07
7.7145491e-07
7.7314297e-07
7.7482985e-07
7.7652583e-07
7.7824868e-07
7.8001342e-07
7.8183975e-07
7.8375198e-07
7.8577974e-07
7.879589e-07
7.9033198e-07
7.9294651e-07
7.9585714e-07
7.9912626e-07
8.0282225e-07
8.0701294e-07
8.1176383e-07
8.171502e-07
8.2328987e-07
8.3036209e-07
8.3856866e-07
8.4803682e-07
8.587532e-07
8.7063001e-07
8.8363597e-07
8.9785666e-07
9.1342145e-07
9.3039335e-07
9.4884334e-07
9.6885162e-07
9.9052703e-07
1.0138553e-06
1.0392644e-06
1.0650691e-06
1.098084e-06
8.6872639e-07
8.5374921e-07
8.4093241e-07
8.3022757e-07
8.2121835e-07
8.1350692e-07
8.0679327e-07
8.0086324e-07
7.9556422e-07
7.9078454e-07
7.8644012e-07
7.8246577e-07
7.7881015e-07
7.7543203e-07
7.72298e-07
7.6938057e-07
7.6665628e-07
7.6410557e-07
7.6171192e-07
7.5946112e-07
7.5734153e-07
7.5534294e-07
7.5345624e-07
7.5167276e-07
7.4998382e-07
7.4838118e-07
7.468587e-07
7.4541686e-07
7.4406343e-07
7.4281557e-07
7.4168985e-07
7.4069535e-07
7.3984485e-07
7.3914357e-07
7.3859374e-07
7.3818872e-07
7.3791379e-07
7.3775452e-07
7.3769781e-07
7.3773303e-07
7.3785387e-07
7.3805577e-07
7.3833701e-07
7.3869571e-07
7.3913249e-07
7.3964757e-07
7.4024075e-07
7.4091283e-07
7.4166456e-07
7.4249363e-07
7.4340007e-07
7.4438411e-07
7.4544305e-07
7.4657493e-07
7.4777845e-07
7.490492e-07
7.5038394e-07
7.5177901e-07
7.532276e-07
7.5472482e-07
7.562656e-07
7.5784173e-07
7.5944611e-07
7.6107254e-07
7.6271389e-07
7.6436392e-07
7.6601517e-07
7.6766168e-07
7.6930023e-07
7.7092806e-07
7.7254619e-07
7.7415384e-07
7.757613e-07
7.7738419e-07
7.7903768e-07
7.8074043e-07
7.8251439e-07
7.8438679e-07
7.863908e-07
7.8856575e-07
7.9095506e-07
7.9360919e-07
7.965859e-07
7.99949e-07
8.0376576e-07
8.0810159e-07
8.1302767e-07
8.1864363e-07
8.2509435e-07
8.3254739e-07
8.4113005e-07
8.5087684e-07
8.6174688e-07
8.7370483e-07
8.8676963e-07
9.0103915e-07
9.1653902e-07
9.3329079e-07
9.5134e-07
9.7074896e-07
9.9151615e-07
1.01402e-06
1.0369551e-06
1.0659742e-06
8.6872758e-07
8.5375667e-07
8.4094462e-07
8.3024293e-07
8.2123587e-07
8.1352595e-07
8.0681339e-07
8.0088426e-07
7.9558584e-07
7.9080661e-07
7.8646239e-07
7.8248809e-07
7.788327e-07
7.7545469e-07
7.7232071e-07
7.6940327e-07
7.666788e-07
7.6412792e-07
7.6173398e-07
7.59483e-07
7.5736315e-07
7.5536435e-07
7.5347763e-07
7.5169389e-07
7.5000421e-07
7.4840078e-07
7.4687825e-07
7.4543742e-07
7.440869e-07
7.4284309e-07
7.4172188e-07
7.4073429e-07
7.398918e-07
7.3919941e-07
7.386579e-07
7.3825919e-07
7.3798921e-07
7.3783369e-07
7.3778016e-07
7.3781805e-07
7.3794073e-07
7.3814398e-07
7.3842603e-07
7.3878586e-07
7.392235e-07
7.3973862e-07
7.4033194e-07
7.4100358e-07
7.4175309e-07
7.4258015e-07
7.4348477e-07
7.4446537e-07
7.4552053e-07
7.4664773e-07
7.4784509e-07
7.491087e-07
7.5043497e-07
7.5181929e-07
7.532557e-07
7.5473969e-07
7.5626431e-07
7.5782277e-07
7.5940758e-07
7.6101152e-07
7.6262787e-07
7.6424805e-07
7.658658e-07
7.6747529e-07
7.6907143e-07
7.7065088e-07
7.7221335e-07
7.7375802e-07
7.7529583e-07
7.7683883e-07
7.7840096e-07
7.7999937e-07
7.816523e-07
7.833859e-07
7.8522969e-07
7.8722361e-07
7.8940917e-07
7.9182945e-07
7.9454069e-07
7.9760325e-07
8.0108174e-07
8.0503917e-07
8.0953855e-07
8.1466402e-07
8.2054648e-07
8.2734738e-07
8.3519236e-07
8.4412198e-07
8.5410806e-07
8.6511849e-07
8.7715983e-07
8.9030366e-07
9.0459918e-07
9.2003032e-07
9.3659895e-07
9.5432373e-07
9.7318416e-07
9.9344901e-07
1.0141374e-06
1.0396454e-06
8.6872983e-07
8.5376494e-07
8.4095728e-07
8.3025866e-07
8.21254e-07
8.1354552e-07
8.0683394e-07
8.0090561e-07
7.9560762e-07
7.9082872e-07
7.8648463e-07
7.8251032e-07
7.7885477e-07
7.7547666e-07
7.7234244e-07
7.6942453e-07
7.6669963e-07
7.6414837e-07
7.6175403e-07
7.5950246e-07
7.5738219e-07
7.5538297e-07
7.5349527e-07
7.5171012e-07
7.5001882e-07
7.4841366e-07
7.4689007e-07
7.454495e-07
7.4410089e-07
7.4286103e-07
7.4174453e-07
7.4076372e-07
7.3992921e-07
7.3924539e-07
7.387114e-07
7.383182e-07
7.3805253e-07
7.3790059e-07
7.3784911e-07
7.3788782e-07
7.3801129e-07
7.3821527e-07
7.3849767e-07
7.3885736e-07
7.3929444e-07
7.3980935e-07
7.4040174e-07
7.4107167e-07
7.4181942e-07
7.4264453e-07
7.4354666e-07
7.4452357e-07
7.4557364e-07
7.4669573e-07
7.4788669e-07
7.4914247e-07
7.5046038e-07
7.5183444e-07
7.532601e-07
7.5473235e-07
7.5624171e-07
7.5778247e-07
7.5934781e-07
7.6092933e-07
7.6252041e-07
7.641114e-07
7.6569866e-07
7.6727336e-07
7.6882755e-07
7.7036078e-07
7.7186906e-07
7.7335224e-07
7.7482243e-07
7.7628962e-07
7.7776519e-07
7.7926624e-07
7.8081096e-07
7.8242263e-07
7.841287e-07
7.859641e-07
7.8796941e-07
7.9018958e-07
7.9267211e-07
7.9547299e-07
7.9865495e-07
8.0228205e-07
8.0641611e-07
8.1112726e-07
8.1652517e-07
8.2276773e-07
8.3000127e-07
8.3828356e-07
8.4757921e-07
8.5782735e-07
8.6900833e-07
8.811639e-07
8.9437819e-07
9.0864814e-07
9.2397122e-07
9.4034389e-07
9.577329e-07
9.7629757e-07
9.9531213e-07
1.0181939e-06
8.6873304e-07
8.537738e-07
8.4097045e-07
8.3027481e-07
8.2127207e-07
8.1356489e-07
8.0685408e-07
8.0092635e-07
7.95629e-07
7.9085045e-07
7.8650655e-07
7.8253232e-07
7.788767e-07
7.7549841e-07
7.7236386e-07
7.6944581e-07
7.6672077e-07
7.6416896e-07
7.6177412e-07
7.5952219e-07
7.5740152e-07
7.5540165e-07
7.5351299e-07
7.5172678e-07
7.5003432e-07
7.4842809e-07
7.469041e-07
7.4546493e-07
7.4412004e-07
7.4288508e-07
7.4177499e-07
7.4080334e-07
7.3997928e-07
7.3930577e-07
7.3878151e-07
7.3839676e-07
7.3813821e-07
7.3799142e-07
7.3794358e-07
7.3798579e-07
7.3811235e-07
7.3831871e-07
7.3860321e-07
7.3896531e-07
7.3940435e-07
7.3992039e-07
7.4051389e-07
7.4118457e-07
7.4193281e-07
7.4275767e-07
7.436583e-07
7.4463441e-07
7.4568313e-07
7.4680223e-07
7.4798969e-07
7.492413e-07
7.5055337e-07
7.519211e-07
7.5333832e-07
7.5480001e-07
7.5629836e-07
7.5782716e-07
7.5937847e-07
7.6094333e-07
7.6251355e-07
7.6408214e-07
7.6564234e-07
7.67185e-07
7.6870475e-07
7.701983e-07
7.7166293e-07
7.7309791e-07
7.7451252e-07
7.7591608e-07
7.7731966e-07
7.7873637e-07
7.8018335e-07
7.8168484e-07
7.832669e-07
7.8496005e-07
7.8680241e-07
7.8883862e-07
7.9111487e-07
7.9368254e-07
7.9659978e-07
7.9992946e-07
8.0373404e-07
8.0807491e-07
8.1303714e-07
8.1876013e-07
8.2541134e-07
8.3310143e-07
8.4182724e-07
8.5150843e-07
8.620687e-07
8.7348583e-07
8.8581958e-07
8.990949e-07
9.1331702e-07
9.2849476e-07
9.44621e-07
9.6179824e-07
9.7944371e-07
1.0003579e-06
8.6873712e-07
8.5378334e-07
8.4098408e-07
8.3029115e-07
8.2129034e-07
8.135845e-07
8.0687459e-07
8.0094752e-07
7.9565042e-07
7.9087196e-07
7.8652799e-07
7.825537e-07
7.7889792e-07
7.7551949e-07
7.7238482e-07
7.6946623e-07
7.6674059e-07
7.6418827e-07
7.6179296e-07
7.595407e-07
7.574195e-07
7.5541878e-07
7.5352924e-07
7.5174168e-07
7.5004745e-07
7.4843974e-07
7.4691507e-07
7.4547705e-07
7.4413543e-07
7.4290659e-07
7.4180484e-07
7.4084262e-07
7.4002952e-07
7.3936825e-07
7.3885457e-07
7.3847848e-07
7.3822678e-07
7.380858e-07
7.3804286e-07
7.3808925e-07
7.3821928e-07
7.3842847e-07
7.3871547e-07
7.3907982e-07
7.3952134e-07
7.4003985e-07
7.4063486e-07
7.4130749e-07
7.4205688e-07
7.4288206e-07
7.4378322e-07
7.4475855e-07
7.458055e-07
7.4692315e-07
7.4810824e-07
7.4935628e-07
7.5066427e-07
7.52027e-07
7.5343784e-07
7.5489129e-07
7.5637967e-07
7.5789603e-07
7.5943287e-07
7.6098106e-07
7.6253364e-07
7.6408102e-07
7.6561554e-07
7.6713043e-07
7.6861975e-07
7.7007832e-07
7.7150168e-07
7.7288951e-07
7.7425229e-07
7.7559899e-07
7.7693619e-07
7.7827708e-07
7.7963864e-07
7.8104087e-07
7.8251224e-07
7.8408088e-07
7.8578147e-07
7.8765499e-07
7.8974777e-07
7.9210882e-07
7.9479214e-07
7.9785772e-07
8.0137026e-07
8.0539211e-07
8.0998907e-07
8.1526298e-07
8.2136886e-07
8.2846092e-07
8.3661313e-07
8.4578582e-07
8.5588096e-07
8.6681259e-07
8.7855535e-07
8.9112166e-07
9.0449398e-07
9.1867914e-07
9.3369901e-07
9.4965559e-07
9.6607482e-07
9.853486e-07
8.687421e-07
8.5379351e-07
8.4099819e-07
8.3030792e-07
8.2130875e-07
8.1360423e-07
8.0689503e-07
8.009683e-07
7.9567153e-07
7.9089321e-07
7.8654922e-07
7.8257479e-07
7.7891897e-07
7.7554031e-07
7.7240528e-07
7.6948637e-07
7.6676035e-07
7.6420751e-07
7.6181166e-07
7.5955874e-07
7.5743674e-07
7.5543522e-07
7.5354462e-07
7.5175572e-07
7.5005976e-07
7.4845031e-07
7.469255e-07
7.4548954e-07
7.441531e-07
7.4293097e-07
7.4183846e-07
7.4088862e-07
7.4008859e-07
7.3944033e-07
7.3893925e-07
7.3857436e-07
7.3833215e-07
7.3819831e-07
7.3816176e-07
7.3821379e-07
7.3834825e-07
7.385619e-07
7.3885329e-07
7.3922231e-07
7.3966764e-07
7.4018913e-07
7.4078752e-07
7.4146328e-07
7.4221504e-07
7.4304268e-07
7.4394618e-07
7.449226e-07
7.4597035e-07
7.4708786e-07
7.482724e-07
7.4951927e-07
7.5082436e-07
7.5218331e-07
7.5358909e-07
7.5503669e-07
7.5651795e-07
7.5802503e-07
7.5955163e-07
7.6108656e-07
7.6262296e-07
7.6415282e-07
7.6566616e-07
7.67157e-07
7.6861735e-07
7.700425e-07
7.7142918e-07
7.7277771e-07
7.7409476e-07
7.7538752e-07
7.7666542e-07
7.7793867e-07
7.7922402e-07
7.8054058e-07
7.8190898e-07
7.8336491e-07
7.8493752e-07
7.8666561e-07
7.8859311e-07
7.907685e-07
7.9324304e-07
7.9607248e-07
7.9931982e-07
8.0305133e-07
8.073285e-07
8.1222343e-07
8.1784803e-07
8.2435144e-07
8.318667e-07
8.4044283e-07
8.5003546e-07
8.6055019e-07
8.718942e-07
8.8402664e-07
8.9687294e-07
9.1039674e-07
9.246e-07
9.3957731e-07
9.5492774e-07
9.7276357e-07
8.6874785e-07
8.5380427e-07
8.4101274e-07
8.30325e-07
8.2132744e-07
8.1362394e-07
8.0691546e-07
8.0098905e-07
7.9569254e-07
7.9091426e-07
7.865702e-07
7.8259572e-07
7.7893963e-07
7.7556067e-07
7.7242524e-07
7.6950572e-07
7.66779e-07
7.6422558e-07
7.6182891e-07
7.5957523e-07
7.5745261e-07
7.5545028e-07
7.535585e-07
7.5176781e-07
7.500697e-07
7.4845853e-07
7.4693332e-07
7.4549946e-07
7.4416844e-07
7.4295581e-07
7.4187483e-07
7.4093819e-07
7.4015344e-07
7.3951985e-07
7.3903211e-07
7.386795e-07
7.3844762e-07
7.3832328e-07
7.3829474e-07
7.3835342e-07
7.3849376e-07
7.3871319e-07
7.3901012e-07
7.3938341e-07
7.3983325e-07
7.4035953e-07
7.4096255e-07
7.4164232e-07
7.4239776e-07
7.4322861e-07
7.4413455e-07
7.4511336e-07
7.4616374e-07
7.4728292e-07
7.4846766e-07
7.4971403e-07
7.5101783e-07
7.523747e-07
7.5377677e-07
7.5521882e-07
7.5669347e-07
7.5819222e-07
7.5970758e-07
7.6123062e-07
7.6275265e-07
7.6426529e-07
7.6575926e-07
7.6722688e-07
7.6866153e-07
7.7005668e-07
7.7140764e-07
7.7271665e-07
7.7398977e-07
7.7523315e-07
7.7645482e-07
7.7766465e-07
7.7887822e-07
7.8011383e-07
7.8139428e-07
7.8274461e-07
7.8420434e-07
7.8580311e-07
7.8758331e-07
7.8959211e-07
7.9188014e-07
7.9450047e-07
7.9751241e-07
8.0098222e-07
8.0497507e-07
8.0955162e-07
8.1478458e-07
8.2077971e-07
8.2766784e-07
8.355586e-07
8.4449506e-07
8.5444928e-07
8.6534036e-07
8.7709169e-07
8.8959198e-07
9.0272699e-07
9.1644411e-07
9.3079381e-07
9.4540093e-07
9.6211182e-07
8.6875476e-07
8.5381578e-07
8.4102773e-07
8.3034237e-07
8.2134629e-07
8.1364361e-07
8.0693569e-07
8.0100963e-07
7.9571326e-07
7.9093499e-07
7.8659084e-07
7.8261624e-07
7.7895979e-07
7.7558035e-07
7.7244439e-07
7.6952431e-07
7.6679683e-07
7.6424271e-07
7.6184541e-07
7.5959069e-07
7.5746704e-07
7.5546364e-07
7.5357019e-07
7.5177738e-07
7.5007696e-07
7.4846419e-07
7.4693922e-07
7.4550894e-07
7.4418506e-07
7.42982e-07
7.4191473e-07
7.4099401e-07
7.4022535e-07
7.3960901e-07
7.3913744e-07
7.38799e-07
7.3858004e-07
7.3846616e-07
7.3844652e-07
7.3851356e-07
7.3866155e-07
7.388879e-07
7.3919175e-07
7.3957146e-07
7.4002743e-07
7.4055967e-07
7.4116785e-07
7.4185269e-07
7.4261322e-07
7.4344907e-07
7.4435944e-07
7.4534181e-07
7.4639505e-07
7.4751664e-07
7.4870261e-07
7.4994978e-07
7.5125298e-07
7.52607e-07
7.5400676e-07
7.554449e-07
7.5691333e-07
7.584046e-07
7.5991052e-07
7.6142227e-07
7.6293049e-07
7.6442581e-07
7.6589949e-07
7.673441e-07
7.6875203e-07
7.7011674e-07
7.7143382e-07
7.7270475e-07
7.7393495e-07
7.7513056e-07
7.7629831e-07
7.774477e-07
7.7859276e-07
7.7975173e-07
7.8094711e-07
7.822051e-07
7.8355454e-07
7.8503906e-07
7.8668906e-07
7.8854915e-07
7.9066964e-07
7.9310313e-07
7.959052e-07
7.9913843e-07
8.0287002e-07
8.071627e-07
8.1207331e-07
8.1766631e-07
8.2403028e-07
8.3127103e-07
8.3947906e-07
8.4870193e-07
8.5893375e-07
8.7012681e-07
8.8220161e-07
8.9499485e-07
9.0838552e-07
9.2236156e-07
9.3652888e-07
9.5255119e-07
8.68762e-07
8.5382764e-07
8.4104299e-07
8.3035984e-07
8.2136509e-07
8.1366327e-07
8.0695588e-07
8.0103013e-07
7.9573378e-07
7.9095535e-07
7.8661107e-07
7.8263607e-07
7.7897898e-07
7.7559893e-07
7.7246241e-07
7.6954156e-07
7.668133e-07
7.6425814e-07
7.6185972e-07
7.5960419e-07
7.5747947e-07
7.5547465e-07
7.5357925e-07
7.5178395e-07
7.5008116e-07
7.4846692e-07
7.4694268e-07
7.4551655e-07
7.4420099e-07
7.4300996e-07
7.4195825e-07
7.4105529e-07
7.4030572e-07
7.3970826e-07
7.3925449e-07
7.3893245e-07
7.3872754e-07
7.3862627e-07
7.38618e-07
7.3869441e-07
7.3885093e-07
7.3908554e-07
7.3939695e-07
7.3978388e-07
7.4024703e-07
7.4078643e-07
7.4140126e-07
7.420922e-07
7.4285877e-07
7.4370015e-07
7.4461524e-07
7.4560225e-07
7.4665931e-07
7.4778363e-07
7.4897153e-07
7.5021904e-07
7.5152274e-07
7.5287564e-07
7.5427087e-07
7.5570421e-07
7.5716672e-07
7.5864892e-07
7.601438e-07
7.6164131e-07
7.6313305e-07
7.6460958e-07
7.6606134e-07
7.6748107e-07
7.6885955e-07
7.7019113e-07
7.7147064e-07
7.7270061e-07
7.7388538e-07
7.7503077e-07
7.7614282e-07
7.7723072e-07
7.7830855e-07
7.7939291e-07
7.8050592e-07
7.8167379e-07
7.8292608e-07
7.8429643e-07
7.8582946e-07
7.8755934e-07
7.8953226e-07
7.9180075e-07
7.9441884e-07
7.9744457e-07
8.0094224e-07
8.0497746e-07
8.0960711e-07
8.1488004e-07
8.208477e-07
8.2757611e-07
8.3514439e-07
8.4362654e-07
8.5307616e-07
8.6350663e-07
8.749153e-07
8.8717129e-07
9.0013832e-07
9.1377118e-07
9.2761289e-07
9.4325562e-07
8.6877033e-07
8.5384018e-07
8.4105858e-07
8.3037749e-07
8.2138409e-07
8.1368294e-07
8.0697581e-07
8.0105023e-07
7.9575384e-07
7.9097523e-07
7.8663048e-07
7.8265489e-07
7.7899725e-07
7.7561644e-07
7.7247895e-07
7.6955703e-07
7.6682782e-07
7.642717e-07
7.6187218e-07
7.5961548e-07
7.5748924e-07
7.5548264e-07
7.535851e-07
7.5178707e-07
7.5008184e-07
7.4846617e-07
7.4694347e-07
7.4552268e-07
7.4421679e-07
7.4303996e-07
7.4200556e-07
7.4112232e-07
7.4039431e-07
7.3981837e-07
7.3938506e-07
7.3908188e-07
7.3889381e-07
7.3880703e-07
7.3881107e-07
7.3889861e-07
7.390651e-07
7.3930876e-07
7.3962871e-07
7.4002409e-07
7.4049537e-07
7.4104205e-07
7.4166444e-07
7.4236306e-07
7.4313624e-07
7.4398364e-07
7.4490412e-07
7.458956e-07
7.4695652e-07
7.480831e-07
7.4927279e-07
7.5052086e-07
7.5182206e-07
7.5317244e-07
7.5456357e-07
7.5598936e-07
7.5744295e-07
7.589136e-07
7.6039366e-07
7.6187447e-07
7.6334524e-07
7.6479671e-07
7.6622035e-07
7.6760807e-07
7.6895081e-07
7.70242e-07
7.7147722e-07
7.7265926e-07
7.737923e-07
7.7488183e-07
7.7593346e-07
7.769565e-07
7.779645e-07
7.7897393e-07
7.8000569e-07
7.810857e-07
7.8224353e-07
7.835118e-07
7.8493006e-07
7.8653923e-07
7.8838111e-07
7.9050315e-07
7.9296003e-07
7.9580657e-07
7.9910124e-07
8.0290699e-07
8.0728329e-07
8.1228051e-07
8.1793731e-07
8.2429112e-07
8.3138781e-07
8.3928042e-07
8.480269e-07
8.5767378e-07
8.6827077e-07
8.7977618e-07
8.9208402e-07
9.0517695e-07
9.1856959e-07
9.3385076e-07
8.6877873e-07
8.5385261e-07
8.4107401e-07
8.3039492e-07
8.2140269e-07
8.1370225e-07
8.0699552e-07
8.0106984e-07
7.9577309e-07
7.9099423e-07
7.8664903e-07
7.8267266e-07
7.7901422e-07
7.7563258e-07
7.7249409e-07
7.6957106e-07
7.6684055e-07
7.6428296e-07
7.6188197e-07
7.5962365e-07
7.5749569e-07
7.5548682e-07
7.535865e-07
7.5178549e-07
7.5007734e-07
7.4846069e-07
7.4694016e-07
7.4552611e-07
7.4423183e-07
7.4307097e-07
7.420563e-07
7.4119574e-07
7.4049154e-07
7.3993977e-07
7.3952988e-07
7.3924792e-07
7.3907873e-07
7.3900789e-07
7.3902552e-07
7.3912549e-07
7.3930318e-07
7.3955691e-07
7.3988644e-07
7.402908e-07
7.4077063e-07
7.4132571e-07
7.4195583e-07
7.4266179e-07
7.4344166e-07
7.4429444e-07
7.4521972e-07
7.4621536e-07
7.4727863e-07
7.4840642e-07
7.4959545e-07
7.5084125e-07
7.5213868e-07
7.5348175e-07
7.548638e-07
7.5627795e-07
7.5771527e-07
7.591677e-07
7.6062649e-07
7.6208094e-07
7.6352104e-07
7.6493835e-07
7.6632336e-07
7.6766698e-07
7.6896221e-07
7.7020182e-07
7.7138173e-07
7.7250499e-07
7.7357646e-07
7.746011e-07
7.7558373e-07
7.765341e-07
7.7746584e-07
7.7839632e-07
7.79346e-07
7.8033969e-07
7.8140606e-07
7.8257905e-07
7.8389052e-07
7.8539033e-07
7.8711204e-07
7.8910613e-07
7.9141909e-07
7.9410838e-07
7.9722877e-07
8.0083686e-07
8.0499076e-07
8.0974231e-07
8.1513421e-07
8.2119225e-07
8.2796086e-07
8.3541481e-07
8.4365087e-07
8.5268244e-07
8.6255152e-07
8.7328291e-07
8.8480861e-07
8.9716499e-07
9.0989224e-07
9.2457817e-07
8.6878779e-07
8.5386546e-07
8.4108961e-07
8.3041223e-07
8.21421e-07
8.1372113e-07
8.070145e-07
8.010887e-07
7.9579164e-07
7.9101209e-07
7.8666615e-07
7.8268918e-07
7.7902994e-07
7.7564711e-07
7.7250733e-07
7.6958285e-07
7.6685053e-07
7.6429107e-07
7.6188822e-07
7.5962798e-07
7.574977e-07
7.5548584e-07
7.5358197e-07
7.5177714e-07
7.5006606e-07
7.4844891e-07
7.4693179e-07
7.4552592e-07
7.4424485e-07
7.4310234e-07
7.4210983e-07
7.4127464e-07
7.4059762e-07
7.4007333e-07
7.3968992e-07
7.3943144e-07
7.3928253e-07
7.3922938e-07
7.3926228e-07
7.3937509e-07
7.3956449e-07
7.3982842e-07
7.4016748e-07
7.4058194e-07
7.4107025e-07
7.4163346e-07
7.4227118e-07
7.4298286e-07
7.437678e-07
7.446252e-07
7.4555382e-07
7.4655047e-07
7.4761328e-07
7.4873845e-07
7.4992231e-07
7.511602e-07
7.5244712e-07
7.5377667e-07
7.5514059e-07
7.5653288e-07
7.5794442e-07
7.5936573e-07
7.6078839e-07
7.6220271e-07
7.6359838e-07
7.6496561e-07
7.6629555e-07
7.6757938e-07
7.688103e-07
7.699818e-07
7.7108973e-07
7.7213903e-07
7.7313419e-07
7.7407997e-07
7.7498282e-07
7.7585243e-07
7.7670173e-07
7.7754799e-07
7.7841236e-07
7.7931933e-07
7.8029691e-07
7.8137832e-07
7.8259777e-07
7.839931e-07
7.8561001e-07
7.8748898e-07
7.8968074e-07
7.9223185e-07
7.9520206e-07
7.986425e-07
8.0260387e-07
8.0714406e-07
8.1229595e-07
8.1809964e-07
8.245748e-07
8.3174516e-07
8.3959294e-07
8.4818892e-07
8.5753014e-07
8.6765071e-07
8.7849079e-07
8.9010748e-07
9.0209699e-07
9.1597048e-07
8.6879696e-07
8.5387837e-07
8.4110509e-07
8.304292e-07
8.2143878e-07
8.1373932e-07
8.0703274e-07
8.0110667e-07
7.9580918e-07
7.9102891e-07
7.8668204e-07
7.8270388e-07
7.7904335e-07
7.7565908e-07
7.7251748e-07
7.6959119e-07