/*--------------------------------*- C++ -*----------------------------------*\
| =========                 |                                                 |
| \\      /  F ield         | OpenFOAM: The Open Source CFD Toolbox           |
|  \\    /   O peration     | Version:  2406                                  |
|   \\  /    A nd           | Website:  www.openfoam.com                      |
|    \\/     M anipulation  |                                                 |
\*---------------------------------------------------------------------------*/
FoamFile
{
    version     2.0;
    format      ascii;
    arch        "LSB;label=32;scalar=64";
    class       volScalarField;
    location    "1100";
    object      pMean;
}
// * * * * * * * * * * * * * * * * * * * * * * * * * * * * * * * * * * * * * //

dimensions      [1 -1 -2 0 0 0 0];

internalField   nonuniform List<scalar> 
132739
(
1.0031333
1.0031262
1.0031381
1.0031577
1.0031801
1.003206
1.0032364
1.0032711
1.0033097
1.0033522
1.0033985
1.0034485
1.0035023
1.0035597
1.0036207
1.0036852
1.0037533
1.0038248
1.0038998
1.0039782
1.0040599
1.004145
1.0042334
1.004325
1.0044199
1.004518
1.0046192
1.0047235
1.0048309
1.0049413
1.0050546
1.0051707
1.0052896
1.0054112
1.0055354
1.005662
1.0057911
1.0059224
1.0060559
1.0061914
1.0063288
1.0064679
1.0066087
1.0067508
1.0068943
1.0070389
1.0071844
1.0073307
1.0074777
1.007625
1.0077726
1.0079203
1.0080677
1.008215
1.0083615
1.0085074
1.0086521
1.0087957
1.008938
1.0090787
1.0092178
1.0093551
1.0094902
1.0096227
1.0097527
1.00988
1.0100043
1.0101251
1.0102425
1.0103566
1.0104669
1.0105727
1.0106742
1.0107707
1.010862
1.0109477
1.0110273
1.0111002
1.0111661
1.0112245
1.0112748
1.0113166
1.0113491
1.0113716
1.0113835
1.0113839
1.0113721
1.0113472
1.0113084
1.011255
1.0111862
1.0111011
1.010999
1.0108789
1.0107403
1.0105825
1.0104048
1.0102067
1.0099879
1.0097476
1.0094872
1.0092052
1.0089099
1.0085947
1.003134
1.0031273
1.0031393
1.0031589
1.0031813
1.0032072
1.0032376
1.0032722
1.0033108
1.0033532
1.0033994
1.0034494
1.0035031
1.0035605
1.0036214
1.0036859
1.0037538
1.0038253
1.0039002
1.0039784
1.0040601
1.0041451
1.0042333
1.0043249
1.0044196
1.0045176
1.0046187
1.0047229
1.0048301
1.0049403
1.0050535
1.0051694
1.0052882
1.0054096
1.0055336
1.0056601
1.0057889
1.00592
1.0060533
1.0061886
1.0063257
1.0064645
1.006605
1.0067468
1.0068899
1.0070341
1.0071792
1.007325
1.0074714
1.0076181
1.007765
1.0079118
1.0080585
1.0082047
1.0083502
1.0084948
1.0086384
1.0087808
1.0089215
1.0090607
1.009198
1.0093332
1.0094661
1.0095965
1.0097242
1.0098493
1.0099712
1.0100896
1.0102043
1.0103152
1.010422
1.0105242
1.0106216
1.0107141
1.0108013
1.0108827
1.0109581
1.011027
1.0110889
1.0111435
1.0111903
1.0112288
1.0112585
1.0112788
1.0112891
1.011289
1.0112776
1.0112544
1.0112186
1.0111695
1.0111063
1.0110285
1.0109352
1.0108259
1.0106998
1.0105565
1.0103953
1.0102157
1.0100173
1.0097993
1.0095618
1.0093027
1.0090214
1.0087139
1.0031346
1.0031283
1.0031405
1.00316
1.0031825
1.0032084
1.0032388
1.0032735
1.0033121
1.0033545
1.0034008
1.0034509
1.0035047
1.003562
1.003623
1.0036876
1.0037557
1.0038272
1.0039021
1.0039805
1.0040623
1.0041474
1.0042358
1.0043274
1.0044223
1.0045204
1.0046217
1.004726
1.0048334
1.0049438
1.0050571
1.0051733
1.0052922
1.0054138
1.005538
1.0056646
1.0057937
1.005925
1.0060584
1.0061938
1.0063311
1.0064701
1.0066107
1.0067526
1.0068958
1.00704
1.0071851
1.0073309
1.0074771
1.0076237
1.0077703
1.0079168
1.0080631
1.0082087
1.0083536
1.0084976
1.0086406
1.0087823
1.0089222
1.0090603
1.0091965
1.0093304
1.0094617
1.0095904
1.0097161
1.0098389
1.0099582
1.0100739
1.0101857
1.0102934
1.0103968
1.0104955
1.0105892
1.0106777
1.0107606
1.0108376
1.0109081
1.0109719
1.0110285
1.0110776
1.0111187
1.0111513
1.011175
1.0111892
1.0111934
1.011187
1.0111694
1.01114
1.0110982
1.0110434
1.0109751
1.0108926
1.0107952
1.0106825
1.0105538
1.0104086
1.0102463
1.0100666
1.0098691
1.0096534
1.0094191
1.0091671
1.0088937
1.0086127
1.0031352
1.0031292
1.0031415
1.0031611
1.0031835
1.0032095
1.0032399
1.0032745
1.0033131
1.0033556
1.0034018
1.0034519
1.0035056
1.003563
1.003624
1.0036885
1.0037565
1.003828
1.003903
1.0039813
1.0040631
1.0041481
1.0042365
1.0043282
1.004423
1.0045211
1.0046223
1.0047266
1.004834
1.0049443
1.0050576
1.0051737
1.0052926
1.0054141
1.0055383
1.0056649
1.0057939
1.0059251
1.0060585
1.0061938
1.006331
1.0064699
1.0066103
1.0067521
1.0068951
1.0070391
1.007184
1.0073295
1.0074755
1.0076216
1.0077679
1.0079139
1.0080596
1.0082046
1.0083489
1.0084922
1.0086343
1.0087749
1.0089136
1.0090505
1.0091853
1.0093176
1.0094472
1.0095741
1.0096979
1.0098185
1.0099355
1.0100487
1.0101578
1.0102627
1.010363
1.0104584
1.0105487
1.0106335
1.0107127
1.0107858
1.0108524
1.0109121
1.0109647
1.0110097
1.0110467
1.0110752
1.0110949
1.0111052
1.0111055
1.0110954
1.0110744
1.0110417
1.010997
1.0109395
1.0108688
1.0107842
1.0106851
1.0105712
1.0104418
1.0102966
1.0101351
1.0099568
1.0097616
1.0095492
1.009319
1.009072
1.0088054
1.0085247
1.0031356
1.0031301
1.0031425
1.003162
1.0031845
1.0032105
1.0032409
1.0032756
1.0033141
1.0033566
1.0034029
1.0034529
1.0035067
1.0035641
1.0036251
1.0036896
1.0037577
1.0038292
1.0039042
1.0039826
1.0040644
1.0041495
1.0042379
1.0043296
1.0044245
1.0045226
1.0046239
1.0047283
1.0048357
1.0049461
1.0050594
1.0051756
1.0052945
1.0054162
1.0055403
1.005667
1.005796
1.0059273
1.0060607
1.0061961
1.0063333
1.0064722
1.0066126
1.0067544
1.0068973
1.0070413
1.007186
1.0073314
1.0074771
1.0076231
1.0077691
1.0079148
1.0080601
1.0082047
1.0083484
1.008491
1.0086323
1.0087721
1.00891
1.0090459
1.0091795
1.0093105
1.0094388
1.0095641
1.0096862
1.0098048
1.0099198
1.0100308
1.0101375
1.0102398
1.0103373
1.0104299
1.0105171
1.0105988
1.0106745
1.010744
1.0108069
1.0108628
1.0109114
1.0109523
1.0109851
1.0110095
1.011025
1.0110312
1.0110275
1.0110136
1.0109888
1.0109528
1.0109049
1.0108447
1.0107718
1.0106855
1.0105855
1.0104712
1.0103423
1.0101982
1.0100387
1.0098634
1.0096719
1.0094642
1.0092396
1.0089987
1.00874
1.0084645
1.0031359
1.0031309
1.0031435
1.0031629
1.0031854
1.0032114
1.0032418
1.0032765
1.003315
1.0033575
1.0034038
1.0034538
1.0035076
1.003565
1.0036259
1.0036905
1.0037585
1.0038301
1.003905
1.0039834
1.0040652
1.0041503
1.0042387
1.0043304
1.0044253
1.0045234
1.0046246
1.004729
1.0048364
1.0049468
1.0050601
1.0051763
1.0052952
1.0054168
1.0055409
1.0056676
1.0057966
1.0059278
1.0060612
1.0061965
1.0063336
1.0064724
1.0066127
1.0067544
1.0068972
1.007041
1.0071856
1.0073307
1.0074762
1.0076219
1.0077676
1.0079129
1.0080578
1.0082018
1.008345
1.008487
1.0086276
1.0087665
1.0089035
1.0090383
1.0091708
1.0093006
1.0094274
1.0095512
1.0096716
1.0097885
1.0099015
1.0100103
1.0101148
1.0102147
1.0103097
1.0103995
1.0104839
1.0105625
1.0106351
1.0107014
1.0107609
1.0108134
1.0108585
1.0108959
1.0109252
1.0109461
1.0109581
1.0109608
1.0109538
1.0109367
1.0109089
1.0108701
1.0108197
1.0107573
1.0106824
1.0105946
1.0104935
1.0103786
1.0102496
1.0101062
1.0099479
1.0097745
1.0095858
1.0093815
1.0091615
1.008926
1.008674
1.0084071
1.0031362
1.0031317
1.0031443
1.0031637
1.0031863
1.0032122
1.0032426
1.0032773
1.0033159
1.0033583
1.0034046
1.0034547
1.0035084
1.0035658
1.0036268
1.0036913
1.0037594
1.0038309
1.0039059
1.0039843
1.004066
1.0041511
1.0042396
1.0043312
1.0044262
1.0045243
1.0046255
1.0047299
1.0048373
1.0049477
1.0050611
1.0051772
1.0052961
1.0054177
1.0055419
1.0056685
1.0057975
1.0059288
1.0060621
1.0061974
1.0063345
1.0064732
1.0066135
1.0067551
1.0068978
1.0070415
1.0071859
1.0073308
1.0074762
1.0076216
1.0077669
1.0079119
1.0080564
1.0082001
1.0083427
1.0084841
1.0086241
1.0087623
1.0088984
1.0090323
1.0091638
1.0092925
1.0094181
1.0095406
1.0096595
1.0097748
1.009886
1.009993
1.0100955
1.0101933
1.010286
1.0103734
1.0104552
1.0105312
1.0106011
1.0106644
1.0107209
1.0107703
1.0108122
1.0108463
1.0108724
1.01089
1.0108988
1.0108983
1.0108883
1.0108681
1.0108375
1.0107961
1.0107433
1.0106788
1.0106022
1.0105131
1.010411
1.0102958
1.0101669
1.0100242
1.0098673
1.009696
1.00951
1.0093093
1.0090935
1.0088632
1.0086169
1.0083575
1.0031364
1.0031325
1.0031452
1.0031645
1.003187
1.003213
1.0032434
1.0032781
1.0033166
1.0033591
1.0034053
1.0034554
1.0035091
1.0035665
1.0036275
1.003692
1.0037601
1.0038316
1.0039065
1.0039849
1.0040667
1.0041518
1.0042402
1.0043318
1.0044267
1.0045248
1.0046261
1.0047304
1.0048379
1.0049482
1.0050615
1.0051777
1.0052966
1.0054181
1.0055423
1.0056689
1.0057978
1.005929
1.0060623
1.0061975
1.0063345
1.0064732
1.0066134
1.0067549
1.0068975
1.007041
1.0071852
1.00733
1.0074751
1.0076203
1.0077653
1.00791
1.0080541
1.0081973
1.0083395
1.0084803
1.0086196
1.0087571
1.0088925
1.0090255
1.009156
1.0092837
1.0094081
1.0095293
1.0096469
1.0097606
1.0098703
1.0099755
1.0100762
1.0101719
1.0102625
1.0103477
1.0104272
1.0105007
1.010568
1.0106286
1.0106824
1.010729
1.0107681
1.0107993
1.0108225
1.0108373
1.0108432
1.01084
1.0108272
1.0108045
1.0107716
1.0107279
1.0106732
1.010607
1.010529
1.0104389
1.0103362
1.0102208
1.0100922
1.0099503
1.0097947
1.0096254
1.009442
1.0092447
1.0090329
1.0088074
1.0085665
1.0083141
1.0031365
1.0031331
1.0031459
1.0031652
1.0031877
1.0032137
1.0032441
1.0032788
1.0033173
1.0033597
1.003406
1.0034561
1.0035098
1.0035672
1.0036281
1.0036926
1.0037607
1.0038322
1.0039071
1.0039855
1.0040672
1.0041523
1.0042407
1.0043324
1.0044273
1.0045254
1.0046266
1.0047309
1.0048383
1.0049487
1.005062
1.0051781
1.005297
1.0054185
1.0055426
1.0056692
1.0057981
1.0059292
1.0060625
1.0061976
1.0063346
1.0064732
1.0066133
1.0067547
1.0068971
1.0070405
1.0071846
1.0073292
1.0074741
1.007619
1.0077638
1.0079081
1.0080519
1.0081947
1.0083364
1.0084768
1.0086155
1.0087523
1.008887
1.0090193
1.0091489
1.0092756
1.009399
1.0095191
1.0096354
1.0097478
1.009856
1.0099597
1.0100586
1.0101526
1.0102413
1.0103245
1.0104019
1.0104733
1.0105382
1.0105965
1.0106479
1.0106919
1.0107285
1.0107571
1.0107777
1.0107899
1.0107932
1.0107875
1.0107724
1.0107474
1.0107122
1.0106665
1.01061
1.0105423
1.010463
1.010372
1.0102688
1.0101532
1.010025
1.0098838
1.0097296
1.0095621
1.0093812
1.0091869
1.0089788
1.0087578
1.0085218
1.0082759
1.0031366
1.0031338
1.0031466
1.0031658
1.0031884
1.0032144
1.0032448
1.0032794
1.0033179
1.0033604
1.0034066
1.0034566
1.0035104
1.0035677
1.0036287
1.0036932
1.0037612
1.0038327
1.0039076
1.003986
1.0040677
1.0041528
1.0042411
1.0043328
1.0044276
1.0045257
1.0046269
1.0047312
1.0048386
1.0049489
1.0050622
1.0051783
1.0052971
1.0054186
1.0055426
1.0056692
1.005798
1.0059291
1.0060623
1.0061974
1.0063343
1.0064728
1.0066128
1.006754
1.0068964
1.0070396
1.0071836
1.0073279
1.0074726
1.0076173
1.0077618
1.0079059
1.0080493
1.0081917
1.008333
1.0084729
1.008611
1.0087473
1.0088813
1.0090128
1.0091416
1.0092674
1.0093899
1.0095089
1.0096241
1.0097352
1.0098421
1.0099444
1.0100418
1.0101341
1.0102211
1.0103025
1.010378
1.0104473
1.0105102
1.0105663
1.0106154
1.0106572
1.0106915
1.0107178
1.0107361
1.010746
1.0107471
1.0107391
1.0107218
1.0106949
1.0106578
1.0106105
1.0105525
1.0104835
1.0104033
1.0103115
1.010208
1.0100924
1.0099645
1.0098242
1.0096712
1.0095056
1.009327
1.0091356
1.008931
1.0087141
1.0084826
1.0082426
1.0031367
1.0031343
1.0031472
1.0031664
1.003189
1.003215
1.0032454
1.00328
1.0033185
1.0033609
1.0034072
1.0034572
1.0035109
1.0035682
1.0036292
1.0036936
1.0037617
1.0038331
1.0039081
1.0039864
1.0040681
1.0041531
1.0042415
1.0043331
1.0044279
1.004526
1.0046271
1.0047314
1.0048388
1.0049491
1.0050623
1.0051783
1.0052971
1.0054186
1.0055426
1.005669
1.0057979
1.0059289
1.006062
1.006197
1.0063338
1.0064722
1.0066121
1.0067533
1.0068955
1.0070386
1.0071824
1.0073266
1.007471
1.0076155
1.0077597
1.0079035
1.0080466
1.0081887
1.0083296
1.008469
1.0086066
1.0087423
1.0088757
1.0090066
1.0091347
1.0092596
1.0093813
1.0094993
1.0096134
1.0097235
1.0098291
1.0099301
1.0100262
1.010117
1.0102025
1.0102822
1.010356
1.0104235
1.0104845
1.0105388
1.0105859
1.0106257
1.0106579
1.0106822
1.0106984
1.0107062
1.0107053
1.0106954
1.0106762
1.0106474
1.0106088
1.0105599
1.0105005
1.0104305
1.0103494
1.010257
1.0101532
1.0100377
1.0099103
1.0097708
1.0096191
1.0094551
1.0092787
1.0090901
1.0088886
1.0086757
1.0084484
1.0082137
1.0031367
1.0031348
1.0031478
1.0031669
1.0031895
1.0032155
1.0032459
1.0032805
1.003319
1.0033614
1.0034077
1.0034577
1.0035113
1.0035687
1.0036296
1.003694
1.003762
1.0038335
1.0039084
1.0039867
1.0040684
1.0041534
1.0042417
1.0043333
1.0044281
1.0045261
1.0046273
1.0047315
1.0048388
1.004949
1.0050622
1.0051782
1.005297
1.0054184
1.0055423
1.0056687
1.0057975
1.0059284
1.0060615
1.0061964
1.0063331
1.0064715
1.0066112
1.0067522
1.0068943
1.0070373
1.0071809
1.0073249
1.0074692
1.0076135
1.0077574
1.0079009
1.0080437
1.0081854
1.0083259
1.0084649
1.0086021
1.0087373
1.0088702
1.0090004
1.0091278
1.009252
1.0093728
1.00949
1.0096032
1.0097122
1.0098167
1.0099165
1.0100113
1.0101009
1.0101849
1.0102631
1.0103354
1.0104013
1.0104606
1.0105131
1.0105585
1.0105965
1.0106268
1.0106493
1.0106636
1.0106696
1.0106669
1.0106553
1.0106345
1.0106042
1.0105641
1.0105139
1.0104535
1.0103825
1.0103007
1.010208
1.010104
1.0099886
1.0098617
1.009723
1.0095726
1.0094103
1.0092359
1.0090498
1.0088514
1.008642
1.0084188
1.0081888
1.0031367
1.0031353
1.0031484
1.0031674
1.00319
1.003216
1.0032464
1.003281
1.0033195
1.0033619
1.0034081
1.0034581
1.0035117
1.003569
1.0036299
1.0036944
1.0037624
1.0038338
1.0039087
1.0039869
1.0040686
1.0041536
1.0042419
1.0043334
1.0044282
1.0045262
1.0046273
1.0047315
1.0048387
1.0049489
1.005062
1.005178
1.0052967
1.005418
1.0055419
1.0056683
1.005797
1.0059279
1.0060608
1.0061956
1.0063323
1.0064705
1.0066102
1.0067511
1.006893
1.0070358
1.0071793
1.0073232
1.0074672
1.0076113
1.007755
1.0078983
1.0080407
1.0081821
1.0083223
1.0084609
1.0085977
1.0087324
1.0088647
1.0089943
1.0091211
1.0092446
1.0093647
1.0094811
1.0095934
1.0097015
1.009805
1.0099038
1.0099975
1.0100858
1.0101686
1.0102455
1.0103163
1.0103808
1.0104387
1.0104896
1.0105334
1.0105697
1.0105985
1.0106193
1.010632
1.0106364
1.0106321
1.010619
1.0105967
1.010565
1.0105237
1.0104724
1.010411
1.0103393
1.0102569
1.0101638
1.0100598
1.0099447
1.0098183
1.0096805
1.0095312
1.0093705
1.0091981
1.0090144
1.0088188
1.0086127
1.0083932
1.0081674
1.0031366
1.0031358
1.0031489
1.0031679
1.0031905
1.0032165
1.0032468
1.0032814
1.0033199
1.0033623
1.0034085
1.0034584
1.0035121
1.0035694
1.0036303
1.0036947
1.0037626
1.003834
1.0039089
1.0039871
1.0040687
1.0041537
1.0042419
1.0043334
1.0044282
1.0045261
1.0046272
1.0047313
1.0048386
1.0049487
1.0050618
1.0051777
1.0052963
1.0054176
1.0055414
1.0056677
1.0057963
1.0059271
1.00606
1.0061947
1.0063313
1.0064694
1.006609
1.0067497
1.0068916
1.0070342
1.0071775
1.0073212
1.0074651
1.0076089
1.0077524
1.0078955
1.0080376
1.0081788
1.0083186
1.0084568
1.0085932
1.0087274
1.0088593
1.0089884
1.0091146
1.0092375
1.0093569
1.0094725
1.0095841
1.0096913
1.009794
1.0098917
1.0099844
1.0100717
1.0101533
1.010229
1.0102986
1.0103618
1.0104183
1.0104678
1.0105102
1.0105451
1.0105724
1.0105917
1.010603
1.010606
1.0106003
1.0105858
1.0105623
1.0105295
1.010487
1.0104348
1.0103726
1.0103003
1.0102175
1.0101242
1.0100202
1.0099053
1.0097795
1.0096425
1.0094945
1.0093353
1.0091648
1.0089833
1.0087904
1.0085873
1.0083713
1.0081493
1.0031365
1.0031362
1.0031494
1.0031683
1.0031909
1.0032169
1.0032473
1.0032818
1.0033203
1.0033627
1.0034088
1.0034588
1.0035124
1.0035697
1.0036305
1.0036949
1.0037628
1.0038342
1.003909
1.0039872
1.0040688
1.0041537
1.004242
1.0043334
1.0044281
1.004526
1.004627
1.0047311
1.0048383
1.0049484
1.0050614
1.0051773
1.0052958
1.0054171
1.0055408
1.005667
1.0057956
1.0059263
1.006059
1.0061937
1.0063302
1.0064682
1.0066076
1.0067483
1.00689
1.0070325
1.0071756
1.0073192
1.0074629
1.0076065
1.0077498
1.0078926
1.0080345
1.0081753
1.0083148
1.0084527
1.0085887
1.0087225
1.0088539
1.0089825
1.0091082
1.0092306
1.0093494
1.0094643
1.0095752
1.0096816
1.0097835
1.0098804
1.0099721
1.0100584
1.010139
1.0102137
1.0102821
1.0103441
1.0103995
1.0104478
1.0104889
1.0105225
1.0105485
1.0105666
1.0105766
1.0105783
1.0105714
1.0105558
1.0105312
1.0104973
1.010454
1.010401
1.0103381
1.0102652
1.0101821
1.0100887
1.0099847
1.0098702
1.0097449
1.0096089
1.009462
1.0093042
1.0091355
1.0089561
1.0087657
1.0085654
1.0083528
1.0081341
1.0031364
1.0031366
1.0031498
1.0031687
1.0031913
1.0032173
1.0032476
1.0032822
1.0033207
1.003363
1.0034091
1.0034591
1.0035127
1.0035699
1.0036307
1.0036951
1.003763
1.0038343
1.0039091
1.0039873
1.0040689
1.0041537
1.0042419
1.0043333
1.004428
1.0045259
1.0046268
1.0047309
1.004838
1.004948
1.005061
1.0051768
1.0052953
1.0054164
1.0055401
1.0056662
1.0057947
1.0059253
1.006058
1.0061926
1.0063289
1.0064668
1.0066062
1.0067467
1.0068883
1.0070307
1.0071736
1.007317
1.0074605
1.0076039
1.007747
1.0078896
1.0080312
1.0081718
1.008311
1.0084486
1.0085842
1.0087177
1.0088487
1.0089768
1.009102
1.0092239
1.0093421
1.0094565
1.0095667
1.0096724
1.0097735
1.0098696
1.0099606
1.010046
1.0101256
1.0101994
1.0102668
1.0103278
1.010382
1.0104293
1.0104693
1.0105018
1.0105266
1.0105436
1.0105525
1.0105531
1.0105452
1.0105285
1.0105029
1.0104682
1.0104241
1.0103704
1.010307
1.0102337
1.0101504
1.0100569
1.0099531
1.0098389
1.0097142
1.009579
1.0094333
1.0092769
1.0091099
1.0089325
1.0087445
1.0085468
1.0083373
1.0081217
1.0031362
1.003137
1.0031502
1.003169
1.0031917
1.0032176
1.003248
1.0032825
1.003321
1.0033633
1.0034094
1.0034593
1.0035129
1.0035701
1.0036309
1.0036953
1.0037631
1.0038344
1.0039092
1.0039873
1.0040688
1.0041537
1.0042418
1.0043332
1.0044278
1.0045256
1.0046265
1.0047306
1.0048376
1.0049476
1.0050605
1.0051762
1.0052946
1.0054157
1.0055393
1.0056654
1.0057937
1.0059243
1.0060569
1.0061914
1.0063276
1.0064654
1.0066046
1.006745
1.0068865
1.0070287
1.0071715
1.0073147
1.0074581
1.0076013
1.0077442
1.0078865
1.008028
1.0081683
1.0083072
1.0084445
1.0085798
1.0087129
1.0088435
1.0089713
1.009096
1.0092174
1.0093351
1.0094489
1.0095585
1.0096637
1.0097641
1.0098595
1.0099497
1.0100343
1.0101132
1.010186
1.0102526
1.0103126
1.0103659
1.0104122
1.0104512
1.0104827
1.0105066
1.0105226
1.0105305
1.0105301
1.0105213
1.0105038
1.0104774
1.0104419
1.0103971
1.0103429
1.0102791
1.0102055
1.010122
1.0100285
1.0099249
1.0098111
1.0096871
1.0095527
1.009408
1.009253
1.0090876
1.0089122
1.0087263
1.0085311
1.0083245
1.0081118
1.003136
1.0031373
1.0031506
1.0031694
1.003192
1.003218
1.0032483
1.0032828
1.0033212
1.0033635
1.0034097
1.0034595
1.0035131
1.0035703
1.0036311
1.0036954
1.0037632
1.0038345
1.0039092
1.0039873
1.0040688
1.0041536
1.0042417
1.004333
1.0044276
1.0045253
1.0046262
1.0047302
1.0048372
1.0049471
1.0050599
1.0051756
1.0052939
1.0054149
1.0055385
1.0056644
1.0057927
1.0059232
1.0060557
1.0061901
1.0063262
1.0064639
1.006603
1.0067433
1.0068846
1.0070267
1.0071694
1.0073124
1.0074556
1.0075987
1.0077414
1.0078835
1.0080247
1.0081647
1.0083034
1.0084404
1.0085754
1.0087082
1.0088384
1.0089658
1.0090902
1.0092111
1.0093283
1.0094417
1.0095508
1.0096553
1.0097552
1.00985
1.0099395
1.0100234
1.0101015
1.0101736
1.0102394
1.0102986
1.0103511
1.0103965
1.0104346
1.0104653
1.0104883
1.0105034
1.0105104
1.0105092
1.0104996
1.0104813
1.0104542
1.0104181
1.0103729
1.0103182
1.010254
1.0101802
1.0100967
1.0100033
1.0098999
1.0097865
1.0096631
1.0095295
1.0093859
1.0092322
1.0090684
1.0088947
1.0087109
1.008518
1.0083142
1.0081042
1.0031358
1.0031376
1.003151
1.0031697
1.0031923
1.0032183
1.0032486
1.0032831
1.0033215
1.0033638
1.0034099
1.0034597
1.0035133
1.0035704
1.0036312
1.0036955
1.0037633
1.0038345
1.0039092
1.0039873
1.0040687
1.0041535
1.0042415
1.0043328
1.0044273
1.004525
1.0046258
1.0047297
1.0048367
1.0049465
1.0050593
1.0051749
1.0052932
1.0054141
1.0055376
1.0056634
1.0057916
1.005922
1.0060544
1.0061887
1.0063247
1.0064623
1.0066013
1.0067415
1.0068826
1.0070246
1.0071671
1.00731
1.0074531
1.0075959
1.0077384
1.0078804
1.0080214
1.0081612
1.0082996
1.0084363
1.0085711
1.0087036
1.0088335
1.0089605
1.0090845
1.009205
1.0093218
1.0094347
1.0095433
1.0096474
1.0097467
1.0098409
1.0099298
1.0100131
1.0100906
1.010162
1.0102271
1.0102856
1.0103373
1.010382
1.0104193
1.0104492
1.0104715
1.0104858
1.0104921
1.0104902
1.0104799
1.010461
1.0104334
1.0103967
1.010351
1.010296
1.0102316
1.0101577
1.0100741
1.0099808
1.0098778
1.0097648
1.009642
1.0095093
1.0093667
1.0092142
1.0090518
1.0088799
1.0086981
1.0085073
1.008306
1.0080987
1.0031356
1.0031379
1.0031513
1.0031699
1.0031926
1.0032185
1.0032488
1.0032833
1.0033217
1.003364
1.0034101
1.0034599
1.0035134
1.0035705
1.0036312
1.0036955
1.0037633
1.0038345
1.0039091
1.0039872
1.0040686
1.0041533
1.0042413
1.0043326
1.004427
1.0045247
1.0046254
1.0047293
1.0048361
1.0049459
1.0050586
1.0051741
1.0052924
1.0054132
1.0055366
1.0056624
1.0057905
1.0059208
1.0060531
1.0061873
1.0063232
1.0064607
1.0065995
1.0067396
1.0068806
1.0070225
1.0071649
1.0073076
1.0074505
1.0075932
1.0077355
1.0078772
1.008018
1.0081577
1.0082959
1.0084323
1.0085668
1.008699
1.0088286
1.0089553
1.009079
1.0091992
1.0093156
1.0094281
1.0095362
1.0096398
1.0097387
1.0098324
1.0099207
1.0100035
1.0100804
1.0101512
1.0102156
1.0102735
1.0103246
1.0103686
1.0104053
1.0104345
1.0104561
1.0104698
1.0104755
1.010473
1.0104621
1.0104427
1.0104145
1.0103775
1.0103314
1.0102761
1.0102116
1.0101376
1.010054
1.0099609
1.0098582
1.0097457
1.0096235
1.0094916
1.00935
1.0091987
1.0090378
1.0088674
1.0086875
1.0084988
1.0082998
1.0080951
1.0031354
1.0031382
1.0031516
1.0031702
1.0031928
1.0032188
1.0032491
1.0032835
1.0033219
1.0033642
1.0034102
1.00346
1.0035135
1.0035706
1.0036313
1.0036955
1.0037633
1.0038345
1.0039091
1.0039871
1.0040684
1.0041531
1.0042411
1.0043323
1.0044267
1.0045243
1.004625
1.0047287
1.0048356
1.0049453
1.0050579
1.0051734
1.0052915
1.0054123
1.0055356
1.0056613
1.0057893
1.0059195
1.0060517
1.0061858
1.0063216
1.006459
1.0065977
1.0067377
1.0068786
1.0070203
1.0071625
1.0073051
1.0074479
1.0075904
1.0077326
1.0078741
1.0080147
1.0081541
1.0082921
1.0084284
1.0085626
1.0086945
1.0088239
1.0089503
1.0090736
1.0091935
1.0093095
1.0094217
1.0095294
1.0096326
1.009731
1.0098243
1.0099122
1.0099944
1.0100708
1.0101411
1.010205
1.0102623
1.0103128
1.0103562
1.0103924
1.010421
1.010442
1.0104552
1.0104603
1.0104573
1.0104459
1.0104261
1.0103975
1.0103602
1.0103138
1.0102584
1.0101937
1.0101197
1.0100363
1.0099434
1.009841
1.009729
1.0096075
1.0094764
1.0093357
1.0091855
1.009026
1.0088571
1.0086789
1.0084922
1.0082954
1.0080931
1.0031351
1.0031385
1.0031519
1.0031704
1.0031931
1.003219
1.0032493
1.0032837
1.0033221
1.0033643
1.0034103
1.0034601
1.0035136
1.0035707
1.0036313
1.0036955
1.0037632
1.0038344
1.003909
1.0039869
1.0040682
1.0041529
1.0042408
1.0043319
1.0044263
1.0045238
1.0046245
1.0047282
1.0048349
1.0049446
1.0050572
1.0051725
1.0052906
1.0054113
1.0055345
1.0056602
1.0057881
1.0059182
1.0060503
1.0061843
1.00632
1.0064573
1.0065959
1.0067357
1.0068765
1.0070181
1.0071602
1.0073027
1.0074452
1.0075876
1.0077296
1.007871
1.0080114
1.0081506
1.0082884
1.0084244
1.0085584
1.0086901
1.0088192
1.0089454
1.0090684
1.009188
1.0093037
1.0094155
1.0095229
1.0096258
1.0097238
1.0098166
1.0099041
1.0099859
1.0100618
1.0101317
1.0101951
1.0102519
1.0103019
1.0103449
1.0103805
1.0104087
1.0104292
1.0104419
1.0104466
1.0104431
1.0104313
1.0104111
1.0103823
1.0103446
1.0102981
1.0102425
1.0101778
1.0101039
1.0100206
1.009928
1.0098259
1.0097145
1.0095935
1.0094632
1.0093235
1.0091745
1.0090162
1.0088488
1.0086723
1.0084874
1.0082927
1.0080925
1.0031349
1.0031387
1.0031521
1.0031707
1.0031933
1.0032192
1.0032495
1.0032839
1.0033222
1.0033644
1.0034105
1.0034602
1.0035137
1.0035707
1.0036313
1.0036955
1.0037632
1.0038343
1.0039088
1.0039868
1.004068
1.0041526
1.0042405
1.0043316
1.0044259
1.0045234
1.004624
1.0047276
1.0048343
1.0049439
1.0050564
1.0051717
1.0052897
1.0054103
1.0055335
1.005659
1.0057868
1.0059169
1.0060489
1.0061828
1.0063184
1.0064555
1.006594
1.0067337
1.0068744
1.0070159
1.0071578
1.0073002
1.0074426
1.0075848
1.0077267
1.0078679
1.0080081
1.0081472
1.0082848
1.0084206
1.0085544
1.0086858
1.0088147
1.0089406
1.0090634
1.0091827
1.0092981
1.0094096
1.0095167
1.0096192
1.0097169
1.0098094
1.0098965
1.0099779
1.0100534
1.0101228
1.0101858
1.0102423
1.0102918
1.0103343
1.0103696
1.0103973
1.0104174
1.0104297
1.010434
1.0104302
1.0104181
1.0103976
1.0103685
1.0103307
1.0102841
1.0102284
1.0101637
1.0100899
1.0100068
1.0099144
1.0098128
1.0097019
1.0095816
1.0094521
1.0093132
1.0091653
1.0090082
1.0088422
1.0086672
1.0084841
1.0082913
1.0080931
1.0031346
1.0031389
1.0031524
1.0031709
1.0031935
1.0032194
1.0032496
1.0032841
1.0033224
1.0033646
1.0034106
1.0034603
1.0035137
1.0035707
1.0036313
1.0036955
1.0037631
1.0038342
1.0039087
1.0039866
1.0040678
1.0041524
1.0042402
1.0043312
1.0044255
1.0045229
1.0046235
1.0047271
1.0048337
1.0049432
1.0050556
1.0051708
1.0052888
1.0054093
1.0055324
1.0056578
1.0057856
1.0059155
1.0060474
1.0061812
1.0063167
1.0064537
1.0065922
1.0067317
1.0068723
1.0070136
1.0071555
1.0072977
1.0074399
1.007582
1.0077237
1.0078648
1.0080049
1.0081437
1.0082812
1.0084168
1.0085504
1.0086816
1.0088103
1.008936
1.0090585
1.0091775
1.0092927
1.0094039
1.0095108
1.009613
1.0097103
1.0098025
1.0098893
1.0099704
1.0100456
1.0101146
1.0101772
1.0102333
1.0102825
1.0103246
1.0103595
1.0103869
1.0104067
1.0104186
1.0104227
1.0104186
1.0104062
1.0103855
1.0103562
1.0103183
1.0102716
1.0102159
1.0101513
1.0100776
1.0099947
1.0099027
1.0098015
1.009691
1.0095714
1.0094426
1.0093047
1.0091578
1.0090019
1.0088372
1.0086637
1.0084822
1.0082913
1.0080949
1.0031344
1.0031391
1.0031526
1.003171
1.0031937
1.0032196
1.0032498
1.0032842
1.0033225
1.0033647
1.0034106
1.0034603
1.0035137
1.0035707
1.0036313
1.0036954
1.003763
1.0038341
1.0039085
1.0039864
1.0040676
1.0041521
1.0042398
1.0043309
1.0044251
1.0045224
1.0046229
1.0047264
1.004833
1.0049425
1.0050548
1.00517
1.0052878
1.0054083
1.0055312
1.0056566
1.0057843
1.0059141
1.0060459
1.0061796
1.006315
1.006452
1.0065903
1.0067297
1.0068702
1.0070114
1.0071531
1.0072952
1.0074373
1.0075793
1.0077208
1.0078617
1.0080016
1.0081404
1.0082776
1.008413
1.0085464
1.0086775
1.008806
1.0089314
1.0090538
1.0091726
1.0092875
1.0093985
1.0095051
1.009607
1.0097041
1.009796
1.0098825
1.0099633
1.0100382
1.0101069
1.0101692
1.010225
1.0102739
1.0103157
1.0103503
1.0103774
1.0103968
1.0104085
1.0104123
1.010408
1.0103955
1.0103746
1.0103452
1.0103072
1.0102604
1.0102048
1.0101403
1.0100668
1.0099842
1.0098925
1.0097917
1.0096818
1.0095628
1.0094348
1.0092977
1.0091518
1.008997
1.0088336
1.0086616
1.0084816
1.0082924
1.0080978
1.0031341
1.0031393
1.0031528
1.0031712
1.0031938
1.0032197
1.0032499
1.0032843
1.0033226
1.0033647
1.0034107
1.0034604
1.0035137
1.0035707
1.0036313
1.0036953
1.0037629
1.0038339
1.0039084
1.0039862
1.0040673
1.0041518
1.0042395
1.0043305
1.0044246
1.0045219
1.0046224
1.0047258
1.0048323
1.0049417
1.005054
1.0051691
1.0052868
1.0054072
1.0055301
1.0056554
1.005783
1.0059127
1.0060444
1.006178
1.0063133
1.0064502
1.0065884
1.0067277
1.0068681
1.0070091
1.0071508
1.0072927
1.0074347
1.0075765
1.0077179
1.0078587
1.0079985
1.008137
1.0082741
1.0084094
1.0085426
1.0086735
1.0088018
1.0089271
1.0090492
1.0091678
1.0092825
1.0093933
1.0094996
1.0096013
1.0096982
1.0097898
1.0098761
1.0099566
1.0100312
1.0100997
1.0101617
1.0102172
1.0102658
1.0103074
1.0103417
1.0103686
1.0103878
1.0103993
1.0104029
1.0103985
1.0103858
1.0103648
1.0103354
1.0102973
1.0102506
1.0101951
1.0101307
1.0100574
1.0099751
1.0098837
1.0097834
1.0096741
1.0095557
1.0094284
1.0092922
1.0091472
1.0089935
1.0088313
1.0086606
1.0084821
1.0082946
1.0081016
1.0031338
1.0031395
1.003153
1.0031714
1.003194
1.0032199
1.00325
1.0032844
1.0033227
1.0033648
1.0034107
1.0034604
1.0035137
1.0035707
1.0036312
1.0036953
1.0037628
1.0038338
1.0039082
1.0039859
1.004067
1.0041515
1.0042391
1.0043301
1.0044242
1.0045214
1.0046218
1.0047252
1.0048316
1.004941
1.0050532
1.0051682
1.0052859
1.0054062
1.005529
1.0056542
1.0057817
1.0059113
1.006043
1.0061765
1.0063117
1.0064484
1.0065865
1.0067257
1.0068659
1.0070069
1.0071484
1.0072902
1.0074321
1.0075738
1.0077151
1.0078557
1.0079953
1.0081337
1.0082707
1.0084058
1.0085389
1.0086696
1.0087977
1.0089228
1.0090447
1.0091631
1.0092777
1.0093882
1.0094944
1.0095959
1.0096925
1.009784
1.00987
1.0099503
1.0100247
1.0100929
1.0101548
1.01021
1.0102584
1.0102998
1.0103339
1.0103606
1.0103796
1.010391
1.0103944
1.0103899
1.0103771
1.010356
1.0103266
1.0102886
1.0102419
1.0101865
1.0101223
1.0100492
1.0099672
1.0098763
1.0097764
1.0096676
1.0095499
1.0094233
1.0092879
1.0091439
1.0089912
1.0088302
1.0086608
1.0084836
1.0082977
1.0081062
1.0031335
1.0031397
1.0031531
1.0031715
1.0031941
1.00322
1.0032502
1.0032845
1.0033228
1.0033649
1.0034108
1.0034604
1.0035137
1.0035707
1.0036312
1.0036952
1.0037627
1.0038336
1.003908
1.0039857
1.0040668
1.0041511
1.0042388
1.0043296
1.0044237
1.0045209
1.0046212
1.0047246
1.0048309
1.0049402
1.0050523
1.0051673
1.0052849
1.0054051
1.0055278
1.005653
1.0057804
1.0059099
1.0060415
1.0061749
1.00631
1.0064466
1.0065846
1.0067237
1.0068638
1.0070047
1.0071461
1.0072878
1.0074295
1.0075711
1.0077123
1.0078527
1.0079922
1.0081305
1.0082673
1.0084023
1.0085352
1.0086658
1.0087937
1.0089186
1.0090404
1.0091586
1.0092731
1.0093834
1.0094894
1.0095907
1.0096871
1.0097784
1.0098642
1.0099443
1.0100185
1.0100866
1.0101482
1.0102033
1.0102515
1.0102927
1.0103267
1.0103532
1.0103722
1.0103834
1.0103867
1.0103821
1.0103693
1.0103482
1.0103188
1.0102808
1.0102342
1.010179
1.010115
1.0100422
1.0099605
1.00987
1.0097706
1.0096623
1.0095452
1.0094193
1.0092848
1.0091416
1.00899
1.00883
1.0086618
1.008486
1.0083016
1.0081115
1.0031332
1.0031398
1.0031533
1.0031716
1.0031942
1.0032201
1.0032503
1.0032846
1.0033228
1.0033649
1.0034108
1.0034604
1.0035137
1.0035706
1.0036311
1.0036951
1.0037625
1.0038335
1.0039078
1.0039855
1.0040665
1.0041508
1.0042384
1.0043292
1.0044232
1.0045204
1.0046206
1.0047239