/*--------------------------------*- C++ -*----------------------------------*\
| =========                 |                                                 |
| \\      /  F ield         | OpenFOAM: The Open Source CFD Toolbox           |
|  \\    /   O peration     | Version:  2406                                  |
|   \\  /    A nd           | Website:  www.openfoam.com                      |
|    \\/     M anipulation  |                                                 |
\*---------------------------------------------------------------------------*/
FoamFile
{
    version     2.0;
    format      ascii;
    arch        "LSB;label=32;scalar=64";
    class       volScalarField;
    location    "1100";
    object      T;
}
// * * * * * * * * * * * * * * * * * * * * * * * * * * * * * * * * * * * * * //

dimensions      [0 0 0 1 0 0 0];

internalField   nonuniform List<scalar> 
132739
(
1.0008474
1.0008496
1.0008547
1.0008607
1.000868
1.0008765
1.0008864
1.0008974
1.0009095
1.0009228
1.0009372
1.0009527
1.0009692
1.0009868
1.0010055
1.0010252
1.001046
1.0010678
1.0010907
1.0011146
1.0011395
1.0011654
1.0011923
1.0012202
1.0012491
1.0012789
1.0013097
1.0013414
1.0013741
1.0014078
1.0014424
1.001478
1.0015146
1.001552
1.0015904
1.0016296
1.0016696
1.0017105
1.001752
1.0017943
1.0018373
1.0018808
1.0019249
1.0019695
1.0020148
1.0020604
1.0021063
1.0021524
1.0021987
1.0022452
1.0022919
1.0023386
1.0023855
1.0024324
1.0024792
1.002526
1.0025728
1.0026191
1.0026656
1.0027112
1.002757
1.002802
1.0028468
1.0028911
1.0029349
1.0029785
1.0030208
1.0030629
1.0031041
1.0031446
1.0031841
1.0032227
1.0032596
1.0032953
1.0033299
1.0033634
1.0033957
1.0034265
1.0034557
1.0034832
1.0035089
1.0035326
1.0035545
1.003574
1.0035918
1.003606
1.0036198
1.0036282
1.0036359
1.0036366
1.0036329
1.0036281
1.0036237
1.0036144
1.0036018
1.0035866
1.0035661
1.0035395
1.0035079
1.0034724
1.003432
1.0033882
1.0033381
1.0032843
1.0008476
1.0008498
1.0008549
1.0008609
1.0008682
1.0008767
1.0008866
1.0008976
1.0009097
1.000923
1.0009374
1.0009529
1.0009695
1.0009872
1.001006
1.0010258
1.0010466
1.0010685
1.0010914
1.0011153
1.0011403
1.0011662
1.0011931
1.001221
1.0012499
1.0012797
1.0013105
1.0013422
1.0013749
1.0014086
1.0014433
1.0014789
1.0015155
1.0015529
1.0015912
1.0016304
1.0016704
1.0017111
1.0017526
1.0017948
1.0018376
1.0018811
1.0019251
1.0019697
1.0020144
1.0020595
1.002105
1.0021508
1.0021969
1.0022432
1.0022898
1.0023365
1.0023832
1.0024299
1.0024766
1.0025234
1.0025697
1.0026161
1.0026618
1.0027076
1.0027527
1.0027976
1.0028417
1.0028857
1.002929
1.0029719
1.0030138
1.0030552
1.0030956
1.003135
1.0031733
1.0032107
1.0032468
1.0032818
1.0033155
1.0033479
1.0033789
1.0034084
1.0034362
1.0034623
1.0034865
1.0035089
1.0035295
1.0035481
1.0035642
1.0035791
1.0035881
1.0035986
1.0035999
1.0035999
1.0035968
1.0035887
1.0035734
1.0035621
1.0035572
1.0035427
1.0035214
1.0034957
1.0034657
1.0034315
1.003393
1.0033503
1.0033034
1.0032482
1.0008478
1.00085
1.0008551
1.0008611
1.0008684
1.000877
1.0008868
1.0008979
1.0009101
1.0009234
1.0009379
1.0009535
1.0009702
1.0009879
1.0010067
1.0010266
1.0010475
1.0010694
1.0010924
1.0011163
1.0011413
1.0011672
1.0011941
1.001222
1.0012509
1.0012807
1.0013115
1.0013433
1.001376
1.0014098
1.0014445
1.0014801
1.0015166
1.0015541
1.0015924
1.0016315
1.0016714
1.0017121
1.0017535
1.0017955
1.0018383
1.0018816
1.0019255
1.00197
1.0020149
1.0020601
1.0021057
1.0021515
1.0021977
1.002244
1.0022905
1.0023372
1.0023837
1.0024304
1.0024769
1.0025235
1.0025698
1.0026161
1.0026619
1.0027075
1.0027524
1.0027975
1.0028416
1.0028852
1.0029281
1.0029702
1.0030113
1.0030514
1.0030908
1.0031292
1.0031665
1.0032028
1.0032379
1.0032718
1.0033045
1.0033357
1.0033655
1.0033938
1.0034203
1.0034451
1.0034679
1.003489
1.0035079
1.0035254
1.0035394
1.0035537
1.0035613
1.0035696
1.003571
1.003563
1.0035649
1.0035587
1.0035473
1.0035349
1.0035211
1.0035037
1.0034823
1.0034566
1.0034268
1.0033931
1.0033558
1.0033143
1.0032704
1.0032194
1.000848
1.0008501
1.0008552
1.0008613
1.0008687
1.0008773
1.0008873
1.0008984
1.0009106
1.000924
1.0009385
1.0009542
1.0009709
1.0009887
1.0010075
1.0010274
1.0010483
1.0010702
1.0010932
1.0011172
1.0011422
1.0011681
1.0011951
1.001223
1.0012519
1.0012817
1.0013126
1.0013444
1.0013771
1.0014109
1.0014456
1.0014812
1.0015177
1.0015551
1.0015933
1.0016324
1.0016723
1.0017129
1.0017543
1.0017963
1.001839
1.0018823
1.0019261
1.0019705
1.0020153
1.0020606
1.0021062
1.0021521
1.0021982
1.0022445
1.002291
1.0023375
1.0023841
1.0024307
1.0024771
1.0025235
1.0025694
1.0026151
1.0026603
1.0027055
1.00275
1.0027943
1.0028378
1.0028807
1.002923
1.0029646
1.0030053
1.0030452
1.0030843
1.0031222
1.0031591
1.0031948
1.0032293
1.0032624
1.0032941
1.0033244
1.0033531
1.0033802
1.0034055
1.0034291
1.0034507
1.0034706
1.0034883
1.0035044
1.0035178
1.003529
1.0035393
1.003543
1.0035415
1.0035366
1.0035336
1.0035252
1.0035151
1.003504
1.0034904
1.0034723
1.0034492
1.0034225
1.003393
1.0033604
1.0033245
1.0032844
1.0032407
1.0031939
1.0008482
1.0008504
1.0008556
1.0008618
1.0008692
1.0008779
1.0008878
1.0008989
1.0009112
1.0009246
1.0009392
1.0009548
1.0009716
1.0009894
1.0010083
1.0010282
1.0010491
1.0010711
1.0010941
1.0011181
1.0011431
1.0011691
1.0011961
1.001224
1.0012529
1.0012827
1.0013136
1.0013454
1.0013781
1.0014118
1.0014465
1.0014821
1.0015185
1.0015559
1.0015941
1.0016332
1.001673
1.0017136
1.0017549
1.0017969
1.0018396
1.0018829
1.0019267
1.001971
1.0020158
1.0020611
1.0021066
1.0021525
1.0021986
1.0022449
1.0022913
1.0023378
1.0023842
1.0024308
1.002477
1.0025231
1.0025689
1.002615
1.0026604
1.0027056
1.0027501
1.002794
1.0028375
1.0028804
1.0029225
1.0029636
1.0030037
1.0030428
1.0030809
1.0031179
1.0031538
1.0031885
1.0032219
1.003254
1.0032847
1.0033139
1.0033416
1.0033676
1.0033919
1.0034144
1.0034351
1.0034537
1.0034708
1.0034849
1.0034991
1.003507
1.0035164
1.0035165
1.0035166
1.0035151
1.0035101
1.003501
1.00349
1.0034772
1.0034613
1.0034414
1.0034181
1.0033921
1.0033638
1.0033328
1.0032982
1.0032594
1.003216
1.0031703
1.0008484
1.0008509
1.0008561
1.0008623
1.0008697
1.0008785
1.0008884
1.0008995
1.0009118
1.0009253
1.0009398
1.0009555
1.0009723
1.0009901
1.001009
1.001029
1.0010499
1.0010719
1.0010949
1.0011189
1.0011439
1.0011699
1.0011969
1.0012248
1.0012537
1.0012835
1.0013144
1.0013461
1.0013789
1.0014126
1.0014472
1.0014828
1.0015192
1.0015566
1.0015948
1.0016338
1.0016736
1.0017142
1.0017555
1.0017975
1.0018402
1.0018834
1.0019272
1.0019716
1.0020164
1.0020615
1.0021071
1.0021529
1.002199
1.0022452
1.0022917
1.0023379
1.0023846
1.0024308
1.0024771
1.0025233
1.0025693
1.0026142
1.002659
1.0027036
1.0027477
1.0027912
1.002834
1.0028762
1.0029176
1.0029582
1.0029979
1.0030366
1.0030744
1.0031111
1.0031466
1.0031808
1.0032137
1.0032452
1.0032752
1.0033037
1.0033305
1.0033556
1.003379
1.0034006
1.0034203
1.0034379
1.0034543
1.0034671
1.0034803
1.0034887
1.0034953
1.0034936
1.0034939
1.0034925
1.0034875
1.0034803
1.003469
1.0034541
1.0034366
1.0034167
1.0033941
1.0033687
1.0033407
1.0033099
1.0032758
1.0032378
1.0031955
1.0031503
1.0008486
1.0008514
1.0008566
1.0008628
1.0008703
1.000879
1.000889
1.0009001
1.0009125
1.0009259
1.0009405
1.0009562
1.000973
1.0009909
1.0010098
1.0010297
1.0010507
1.0010727
1.0010956
1.0011196
1.0011446
1.0011705
1.0011974
1.0012254
1.0012543
1.0012841
1.0013149
1.0013467
1.0013795
1.0014132
1.0014478
1.0014834
1.0015198
1.0015572
1.0015953
1.0016344
1.0016742
1.0017148
1.0017561
1.0017981
1.0018407
1.001884
1.0019278
1.0019721
1.0020169
1.002062
1.0021075
1.0021533
1.0021994
1.0022456
1.0022918
1.0023383
1.0023846
1.002431
1.002477
1.0025226
1.0025681
1.002614
1.0026591
1.0027036
1.0027476
1.0027911
1.0028338
1.002876
1.0029173
1.0029577
1.0029969
1.0030351
1.0030722
1.003108
1.0031426
1.003176
1.0032079
1.0032385
1.0032676
1.0032952
1.0033211
1.0033454
1.0033679
1.0033885
1.0034073
1.0034242
1.0034391
1.0034523
1.0034617
1.003474
1.0034767
1.0034746
1.0034744
1.0034621
1.0034655
1.0034587
1.0034472
1.0034323
1.0034153
1.0033965
1.0033752
1.0033504
1.0033221
1.0032907
1.0032564
1.0032189
1.0031777
1.0031334
1.0008488
1.0008518
1.0008571
1.0008633
1.0008708
1.0008796
1.0008896
1.0009008
1.0009131
1.0009266
1.0009412
1.0009569
1.0009737
1.0009915
1.0010104
1.0010303
1.0010512
1.0010732
1.0010961
1.00112
1.001145
1.0011709
1.0011978
1.0012257
1.0012547
1.0012846
1.0013154
1.0013472
1.00138
1.0014137
1.0014484
1.0014839
1.0015204
1.0015577
1.0015959
1.0016349
1.0016748
1.0017154
1.0017567
1.0017987
1.0018413
1.0018846
1.0019284
1.0019726
1.0020174
1.0020625
1.002108
1.0021538
1.0021997
1.0022459
1.0022921
1.0023383
1.0023847
1.0024308
1.0024768
1.0025226
1.0025682
1.0026132
1.0026578
1.0027018
1.0027455
1.0027883
1.0028306
1.0028721
1.0029129
1.0029527
1.0029916
1.0030293
1.003066
1.0031016
1.0031359
1.0031689
1.0032005
1.0032306
1.0032592
1.0032862
1.0033115
1.0033351
1.0033568
1.0033768
1.0033947
1.0034113
1.0034244
1.0034388
1.0034456
1.0034567
1.0034555
1.0034553
1.0034548
1.0034518
1.0034486
1.0034405
1.0034285
1.003414
1.0033975
1.003379
1.0033577
1.0033328
1.0033046
1.0032733
1.0032393
1.0032022
1.0031622
1.0031189
1.0008489
1.0008523
1.0008576
1.0008639
1.0008714
1.0008802
1.0008902
1.0009014
1.0009137
1.0009272
1.0009417
1.0009574
1.0009742
1.000992
1.0010108
1.0010307
1.0010516
1.0010735
1.0010965
1.0011204
1.0011453
1.0011712
1.0011982
1.0012261
1.0012551
1.001285
1.0013159
1.0013477
1.0013805
1.0014142
1.0014489
1.0014845
1.0015209
1.0015583
1.0015965
1.0016355
1.0016754
1.0017159
1.0017573
1.0017993
1.0018419
1.0018851
1.0019289
1.0019732
1.0020179
1.002063
1.0021084
1.0021542
1.0022001
1.0022462
1.0022922
1.0023386
1.0023847
1.0024308
1.0024768
1.0025228
1.0025681
1.0026132
1.0026577
1.0027019
1.0027453
1.0027884
1.0028306
1.0028721
1.0029127
1.0029524
1.0029909
1.0030282
1.0030644
1.0030994
1.003133
1.0031652
1.003196
1.0032253
1.0032531
1.0032793
1.0033039
1.0033267
1.0033476
1.0033669
1.0033839
1.0033999
1.0034122
1.0034256
1.0034328
1.003441
1.0034404
1.0034409
1.0034394
1.0034337
1.0034269
1.0034193
1.0034123
1.0033984
1.0033806
1.0033601
1.003337
1.0033119
1.0032847
1.0032552
1.0032229
1.0031872
1.0031486
1.0031064
1.0008491
1.0008528
1.0008582
1.0008644
1.0008719
1.0008807
1.0008907
1.0009018
1.0009141
1.0009276
1.0009421
1.0009578
1.0009745
1.0009923
1.0010112
1.001031
1.0010519
1.0010739
1.0010968
1.0011207
1.0011457
1.0011716
1.0011986
1.0012266
1.0012555
1.0012855
1.0013164
1.0013483
1.0013811
1.0014148
1.0014495
1.001485
1.0015215
1.0015589
1.0015971
1.0016361
1.001676
1.0017166
1.0017579
1.0017999
1.0018425
1.0018857
1.0019295
1.0019737
1.0020184
1.0020635
1.0021089
1.0021545
1.0022004
1.0022464
1.0022925
1.0023386
1.0023847
1.0024306
1.0024764
1.002522
1.0025672
1.0026119
1.0026563
1.0027
1.0027433
1.0027857
1.0028275
1.0028685
1.0029086
1.0029478
1.002986
1.0030231
1.0030589
1.0030935
1.0031269
1.0031588
1.0031893
1.0032183
1.0032457
1.0032715
1.0032955
1.0033179
1.0033383
1.003357
1.0033735
1.0033886
1.0034013
1.0034117
1.0034225
1.0034255
1.0034267
1.0034261
1.0034241
1.0034207
1.0034142
1.0034058
1.0033951
1.0033808
1.0033633
1.0033423
1.0033185
1.0032929
1.0032662
1.003238
1.0032074
1.0031735
1.0031365
1.0030957
1.0008492
1.0008531
1.0008585
1.0008647
1.0008722
1.000881
1.000891
1.0009021
1.0009145
1.0009279
1.0009425
1.0009582
1.0009749
1.0009927
1.0010115
1.0010314
1.0010523
1.0010742
1.0010972
1.0011211
1.0011461
1.0011721
1.0011991
1.001227
1.001256
1.001286
1.0013169
1.0013488
1.0013816
1.0014154
1.0014501
1.0014857
1.0015222
1.0015595
1.0015977
1.0016368
1.0016766
1.0017172
1.0017585
1.0018005
1.0018431
1.0018863
1.00193
1.0019743
1.0020189
1.0020639
1.0021093
1.0021549
1.0022007
1.0022467
1.0022927
1.0023386
1.0023844
1.0024306
1.0024766
1.002522
1.0025671
1.002612
1.0026562
1.0027001
1.0027431
1.0027858
1.0028275
1.0028685
1.0029086
1.0029476
1.0029855
1.0030223
1.0030577
1.0030919
1.0031246
1.003156
1.0031858
1.0032141
1.0032409
1.003266
1.0032894
1.003311
1.0033308
1.0033488
1.003365
1.0033786
1.0033924
1.0034
1.0034111
1.0034143
1.0034129
1.0034134
1.0034108
1.0034049
1.0033973
1.0033885
1.0033783
1.003365
1.0033483
1.0033287
1.0033058
1.0032802
1.0032531
1.0032246
1.0031944
1.0031614
1.0031258
1.0030864
1.0008492
1.0008533
1.0008587
1.0008649
1.0008724
1.0008812
1.0008912
1.0009024
1.0009147
1.0009282
1.0009428
1.0009585
1.0009752
1.000993
1.0010119
1.0010318
1.0010527
1.0010746
1.0010976
1.0011216
1.0011465
1.0011725
1.0011995
1.0012275
1.0012565
1.0012865
1.0013175
1.0013494
1.0013822
1.001416
1.0014507
1.0014863
1.0015228
1.0015602
1.0015984
1.0016375
1.0016773
1.0017179
1.0017592
1.0018012
1.0018438
1.0018869
1.0019306
1.0019748
1.0020194
1.0020644
1.0021097
1.0021553
1.0022011
1.0022469
1.0022929
1.0023388
1.0023847
1.0024304
1.002476
1.0025213
1.0025663
1.0026109
1.0026549
1.0026984
1.0027412
1.0027835
1.0028248
1.0028654
1.002905
1.0029436
1.0029812
1.0030176
1.0030528
1.0030867
1.0031192
1.0031503
1.0031799
1.0032079
1.0032344
1.0032592
1.0032823
1.0033035
1.0033231
1.0033405
1.0033566
1.0033692
1.0033835
1.0033898
1.0034019
1.0033929
1.0033989
1.0034001
1.0033978
1.003391
1.0033814
1.0033716
1.0033614
1.0033487
1.0033331
1.0033152
1.0032945
1.0032703
1.0032433
1.0032142
1.0031835
1.0031509
1.0031163
1.0030782
1.0008492
1.0008534
1.0008588
1.000865
1.0008726
1.0008814
1.0008914
1.0009027
1.000915
1.0009285
1.0009431
1.0009588
1.0009756
1.0009934
1.0010123
1.0010322
1.0010531
1.001075
1.001098
1.001122
1.001147
1.001173
1.0012
1.0012281
1.0012571
1.0012871
1.0013181
1.00135
1.0013828
1.0014166
1.0014514
1.001487
1.0015235
1.0015609
1.0015992
1.0016382
1.001678
1.0017186
1.0017599
1.0018018
1.0018444
1.0018876
1.0019313
1.0019754
1.00202
1.0020649
1.0021102
1.0021557
1.0022014
1.0022472
1.0022931
1.002339
1.0023847
1.0024305
1.002476
1.0025213
1.0025662
1.0026107
1.0026546
1.0026982
1.0027412
1.0027833
1.0028248
1.0028653
1.0029049
1.0029435
1.0029809
1.0030171
1.0030519
1.0030854
1.0031175
1.0031481
1.0031772
1.0032047
1.0032306
1.0032548
1.0032773
1.003298
1.0033171
1.0033338
1.0033497
1.0033615
1.0033756
1.0033818
1.003391
1.0033845
1.0033898
1.0033819
1.0033856
1.0033803
1.0033712
1.0033611
1.0033501
1.0033371
1.0033215
1.0033036
1.0032835
1.0032603
1.0032336
1.0032045
1.0031738
1.0031415
1.0031077
1.0030709
1.0008493
1.0008535
1.000859
1.0008652
1.0008728
1.0008816
1.0008917
1.0009029
1.0009153
1.0009288
1.0009435
1.0009592
1.0009759
1.0009938
1.0010127
1.0010326
1.0010535
1.0010755
1.0010985
1.0011225
1.0011475
1.0011735
1.0012006
1.0012286
1.0012577
1.0012877
1.0013187
1.0013506
1.0013835
1.0014173
1.0014521
1.0014877
1.0015243
1.0015617
1.0015999
1.001639
1.0016788
1.0017194
1.0017607
1.0018026
1.0018452
1.0018883
1.0019319
1.001976
1.0020206
1.0020655
1.0021107
1.0021562
1.0022018
1.0022476
1.0022934
1.0023392
1.002385
1.0024306
1.002476
1.0025213
1.0025662
1.0026107
1.0026547
1.0026973
1.0027396
1.0027814
1.0028225
1.0028626
1.0029018
1.00294
1.0029771
1.003013
1.0030476
1.0030809
1.0031128
1.0031432
1.0031721
1.0031994
1.0032251
1.0032492
1.0032715
1.0032919
1.0033107
1.0033271
1.0033426
1.0033544
1.0033671
1.0033748
1.0033808
1.0033787
1.0033795
1.0033731
1.0033714
1.0033694
1.003363
1.0033538
1.0033432
1.00333
1.0033135
1.0032949
1.0032741
1.0032506
1.0032242
1.0031956
1.0031654
1.0031334
1.0031001
1.0030642
1.0008493
1.0008537
1.0008591
1.0008654
1.000873
1.0008819
1.000892
1.0009032
1.0009156
1.0009292
1.0009438
1.0009595
1.0009763
1.0009942
1.0010131
1.001033
1.001054
1.001076
1.001099
1.001123
1.001148
1.0011741
1.0012011
1.0012292
1.0012583
1.0012883
1.0013193
1.0013513
1.0013842
1.001418
1.0014528
1.0014885
1.0015251
1.0015625
1.0016008
1.0016398
1.0016797
1.0017202
1.0017615
1.0018034
1.0018459
1.001889
1.0019327
1.0019767
1.0020212
1.0020661
1.0021113
1.0021567
1.0022023
1.002248
1.0022937
1.0023394
1.0023851
1.0024304
1.0024756
1.0025207
1.0025655
1.0026099
1.0026535
1.0026969
1.0027396
1.0027814
1.0028223
1.0028626
1.0029018
1.0029399
1.0029768
1.0030126
1.0030469
1.0030799
1.0031114
1.0031414
1.0031698
1.0031967
1.0032219
1.0032454
1.0032673
1.0032873
1.0033057
1.0033218
1.0033366
1.0033489
1.0033593
1.0033692
1.0033737
1.003375
1.0033733
1.0033703
1.0033665
1.003362
1.0033554
1.0033465
1.003336
1.0033228
1.0033067
1.0032879
1.0032666
1.0032427
1.0032167
1.0031885
1.0031587
1.003127
1.003094
1.0030585
1.0008494
1.0008538
1.0008593
1.0008656
1.0008733
1.0008822
1.0008923
1.0009035
1.000916
1.0009295
1.0009442
1.0009599
1.0009767
1.0009946
1.0010135
1.0010335
1.0010544
1.0010764
1.0010995
1.0011235
1.0011486
1.0011747
1.0012017
1.0012298
1.0012589
1.001289
1.00132
1.001352
1.0013849
1.0014188
1.0014536
1.0014893
1.0015259
1.0015634
1.0016016
1.0016407
1.0016806
1.0017212
1.0017624
1.0018043
1.0018468
1.0018899
1.0019335
1.0019775
1.002022
1.0020668
1.0021119
1.0021573
1.0022028
1.0022484
1.0022941
1.0023397
1.0023853
1.0024306
1.0024758
1.0025209
1.0025657
1.0026099
1.0026536
1.0026963
1.0027381
1.0027797
1.0028204
1.0028603
1.0028992
1.0029369
1.0029736
1.003009
1.0030432
1.003076
1.0031073
1.0031372
1.0031655
1.0031923
1.0032174
1.0032408
1.0032625
1.0032823
1.0033005
1.0033164
1.0033307
1.0033435
1.0033518
1.0033652
1.0033663
1.0033669
1.0033669
1.0033646
1.0033603
1.003354
1.0033463
1.0033372
1.0033262
1.0033126
1.003297
1.0032792
1.0032587
1.0032355
1.0032101
1.0031827
1.0031535
1.0031219
1.0030891
1.0030539
1.0008494
1.000854
1.0008595
1.0008658
1.0008735
1.0008824
1.0008926
1.0009039
1.0009163
1.0009299
1.0009446
1.0009603
1.0009772
1.000995
1.001014
1.0010339
1.0010549
1.001077
1.0011
1.0011241
1.0011492
1.0011753
1.0012024
1.0012305
1.0012596
1.0012897
1.0013207
1.0013527
1.0013857
1.0014196
1.0014544
1.0014902
1.0015268
1.0015643
1.0016026
1.0016417
1.0016815
1.0017221
1.0017634
1.0018053
1.0018478
1.0018908
1.0019344
1.0019784
1.0020228
1.0020676
1.0021126
1.0021579
1.0022034
1.002249
1.0022946
1.0023402
1.0023856
1.0024309
1.002476
1.0025206
1.0025651
1.0026091
1.0026526
1.0026952
1.0027379
1.0027796
1.0028204
1.0028602
1.002899
1.0029368
1.0029734
1.0030087
1.0030426
1.0030751
1.0031061
1.0031356
1.0031635
1.0031899
1.0032146
1.0032377
1.003259
1.0032785
1.0032962
1.0033122
1.0033256
1.0033392
1.0033462
1.0033593
1.0033612
1.0033611
1.003361
1.0033579
1.0033534
1.0033484
1.0033411
1.0033312
1.0033185
1.0033034
1.003286
1.0032645
1.0032387
1.0032145
1.0031927
1.0031726
1.0031481
1.0031179
1.0030852
1.00305
1.0008495
1.0008541
1.0008597
1.000866
1.0008737
1.0008827
1.0008929
1.0009042
1.0009167
1.0009303
1.000945
1.0009607
1.0009776
1.0009955
1.0010145
1.0010344
1.0010555
1.0010775
1.0011006
1.0011247
1.0011498
1.0011759
1.001203
1.0012312
1.0012603
1.0012904
1.0013215
1.0013535
1.0013865
1.0014205
1.0014553
1.0014911
1.0015278
1.0015653
1.0016036
1.0016427
1.0016826
1.0017232
1.0017644
1.0018063
1.0018488
1.0018918
1.0019354
1.0019794
1.0020237
1.0020685
1.0021135
1.0021587
1.0022041
1.0022496
1.0022952
1.0023407
1.0023861
1.0024313
1.0024763
1.0025209
1.0025651
1.0026091
1.0026526
1.0026952
1.0027371
1.0027785
1.0028189
1.0028585
1.002897
1.0029344
1.0029706
1.0030057
1.0030395
1.0030718
1.0031028
1.0031322
1.0031601
1.0031864
1.0032111
1.003234
1.0032553
1.0032747
1.0032921
1.0033081
1.003321
1.0033349
1.0033414
1.0033543
1.0033537
1.0033542
1.0033513
1.0033503
1.003348
1.003342
1.0033324
1.0033205
1.0033066
1.0032911
1.0032744
1.0032558
1.0032378
1.0032171
1.0031945
1.0031704
1.0031438
1.0031134
1.0030814
1.003047
1.0008495
1.0008543
1.0008599
1.0008662
1.000874
1.000883
1.0008932
1.0009045
1.000917
1.0009306
1.0009454
1.0009612
1.0009781
1.000996
1.001015
1.001035
1.001056
1.0010781
1.0011012
1.0011253
1.0011504
1.0011766
1.0012038
1.0012319
1.0012611
1.0012912
1.0013223
1.0013544
1.0013875
1.0014214
1.0014563
1.0014921
1.0015288
1.0015663
1.0016047
1.0016438
1.0016837
1.0017243
1.0017655
1.0018074
1.0018499
1.0018929
1.0019365
1.0019804
1.0020248
1.0020695
1.0021144
1.0021596
1.002205
1.0022504
1.0022959
1.0023413
1.0023867
1.0024318
1.0024767
1.0025212
1.0025654
1.0026091
1.0026521
1.0026948
1.002737
1.0027784
1.0028189
1.0028584
1.0028969
1.0029343
1.0029706
1.0030054
1.0030389
1.003071
1.0031016
1.0031308
1.0031583
1.0031843
1.0032087
1.0032315
1.0032524
1.0032717
1.0032889
1.0033049
1.0033173
1.0033315
1.0033376
1.0033487
1.0033507
1.0033515
1.0033503
1.003347
1.0033438
1.0033375
1.003326
1.0033
1.0032838
1.0032756
1.0032671
1.0032569
1.0032385
1.0032169
1.003194
1.0031681
1.0031396
1.0031093
1.0030782
1.0030448
1.0008495
1.0008544
1.00086
1.0008665
1.0008742
1.0008833
1.0008935
1.0009049
1.0009174
1.0009311
1.0009458
1.0009616
1.0009785
1.0009965
1.0010155
1.0010355
1.0010566
1.0010787
1.0011018
1.001126
1.0011511
1.0011773
1.0012045
1.0012327
1.0012619
1.0012921
1.0013233
1.0013554
1.0013884
1.0014225
1.0014574
1.0014932
1.0015299
1.0015675
1.0016058
1.001645
1.0016848
1.0017254
1.0017667
1.0018086
1.0018511
1.0018941
1.0019376
1.0019816
1.0020259
1.0020706
1.0021155
1.0021607
1.002206
1.0022513
1.0022968
1.0023421
1.0023874
1.0024324
1.0024772
1.0025217
1.0025658
1.0026094
1.0026524
1.0026948
1.0027366
1.0027778
1.0028181
1.0028573
1.0028954
1.0029325
1.0029684
1.0030031
1.0030365
1.0030686
1.0030992
1.0031283
1.0031559
1.003182
1.0032064
1.003229
1.00325
1.0032691
1.0032863
1.0033021
1.0033144
1.0033287
1.0033343
1.0033462
1.0033483
1.0033477
1.0033477
1.0033445
1.0033391
1.0033322
1.0033217
1.003306
1.0032916
1.0032805
1.003269
1.0032565
1.0032376
1.0032158
1.0031915
1.0031648
1.0031362
1.0031063
1.0030757
1.0030429
1.0008495
1.0008545
1.0008602
1.0008667
1.0008745
1.0008836
1.0008938
1.0009052
1.0009178
1.0009315
1.0009463
1.0009621
1.0009791
1.000997
1.0010161
1.0010361
1.0010572
1.0010794
1.0011025
1.0011267
1.0011519
1.0011781
1.0012054
1.0012336
1.0012629
1.0012931
1.0013243
1.0013564
1.0013895
1.0014236
1.0014585
1.0014944
1.0015311
1.0015687
1.0016071
1.0016462
1.0016861
1.0017267
1.001768
1.0018099
1.0018523
1.0018953
1.0019388
1.0019828
1.0020271
1.0020717
1.0021166
1.0021618
1.002207
1.0022524
1.0022978
1.002343
1.0023882
1.0024332
1.002478
1.0025224
1.0025664
1.0026099
1.0026528
1.0026951
1.0027368
1.0027776
1.0028178
1.002857
1.0028951
1.0029321
1.0029679
1.0030024
1.0030357
1.0030677
1.0030982
1.0031272
1.0031547
1.0031807
1.003205
1.0032275
1.0032484
1.0032675
1.0032846
1.0033003
1.0033126
1.0033264
1.0033326
1.0033442
1.0033431
1.0033448
1.0033391
1.0033374
1.0033361
1.0033311
1.0033205
1.0032983
1.00329
1.0032764
1.0032743
1.0032573
1.0032365
1.0032134
1.0031886
1.003162
1.0031333
1.0031031
1.0030727
1.0030397
1.0008496
1.0008547
1.0008604
1.0008669
1.0008747
1.0008839
1.0008941
1.0009056
1.0009182
1.0009319
1.0009467
1.0009626
1.0009796
1.0009976
1.0010167
1.0010368
1.0010579
1.0010801
1.0011033
1.0011275
1.0011527
1.001179
1.0012063
1.0012346
1.0012638
1.0012941
1.0013253
1.0013575
1.0013907
1.0014248
1.0014598
1.0014957
1.0015324
1.00157
1.0016084
1.0016476
1.0016875
1.0017281
1.0017694
1.0018112
1.0018537
1.0018967
1.0019402
1.0019841
1.0020284
1.002073
1.0021179
1.002163
1.0022082
1.0022535
1.0022988
1.0023441
1.0023893
1.0024342
1.0024789
1.0025232
1.0025671
1.0026105
1.0026534
1.0026956
1.0027371
1.0027778
1.0028178
1.0028568
1.0028948
1.0029316
1.0029673
1.0030018
1.003035
1.0030669
1.0030972
1.0031264
1.003154
1.00318
1.0032042
1.0032268
1.0032476
1.0032666
1.0032836
1.0032994
1.0033114
1.0033259
1.0033314
1.003342
1.0033426
1.0033439
1.0033447
1.0033311
1.0033369
1.0033326
1.0033243
1.0033129
1.0033014
1.0032894
1.003275
1.0032567
1.0032349
1.0032111
1.0031859
1.0031596
1.0031337
1.0031075
1.0030794
1.003047
1.0008496
1.0008548
1.0008606
1.0008671
1.000875
1.0008842
1.0008945
1.000906
1.0009187
1.0009324
1.0009473
1.0009632
1.0009802
1.0009982
1.0010173
1.0010375
1.0010586
1.0010808
1.0011041
1.0011284
1.0011536
1.00118
1.0012073
1.0012356
1.0012649
1.0012952
1.0013265
1.0013588
1.001392
1.0014261
1.0014611
1.0014971
1.0015338
1.0015715
1.0016099
1.001649
1.001689
1.0017296
1.0017708
1.0018127
1.0018551
1.0018981
1.0019416
1.0019855
1.0020297
1.0020743
1.0021192
1.0021642
1.0022095
1.0022547
1.0023
1.0023453
1.0023904
1.0024353
1.0024799
1.0025242
1.0025681
1.0026114
1.0026542
1.0026963
1.0027378
1.0027784
1.0028182
1.0028571
1.002895
1.0029318
1.0029674
1.0030019
1.0030351
1.0030669
1.0030973
1.0031262
1.0031537
1.0031796
1.0032038
1.0032263
1.0032471
1.0032662
1.0032832
1.0032991
1.003311
1.0033257
1.0033311
1.0033431
1.0033428
1.003345
1.0033419
1.0033409
1.0033351
1.0033329
1.0033254
1.0033156
1.0033049
1.0032925
1.0032772
1.0032591
1.0032386
1.0032164
1.003192
1.0031655
1.0031373
1.0031078
1.0030785
1.0030475
1.0008496
1.000855
1.0008608
1.0008674
1.0008753
1.0008845
1.0008949
1.0009064
1.0009191
1.0009329
1.0009478
1.0009638
1.0009808
1.0009989
1.001018
1.0010382
1.0010594
1.0010817
1.001105
1.0011293
1.0011546
1.001181
1.0012084
1.0012368
1.0012661
1.0012965
1.0013278
1.0013601
1.0013934
1.0014275
1.0014626
1.0014986
1.0015354
1.001573
1.0016114
1.0016506
1.0016905
1.0017311
1.0017724
1.0018142
1.0018567
1.0018996
1.0019431
1.0019869
1.0020312
1.0020757
1.0021206
1.0021656
1.0022108
1.002256
1.0023013
1.0023465
1.0023916
1.0024365
1.0024811
1.0025253
1.0025691
1.0026125
1.0026552
1.0026973
1.0027387
1.0027793
1.002819
1.0028578
1.0028957
1.0029324
1.0029681
1.0030025
1.0030357
1.0030676
1.003098
1.003127
1.0031545
1.0031803
1.0032046
1.0032272
1.003248
1.0032671
1.0032841
1.0033
1.0033119
1.0033266
1.0033322
1.0033433
1.0033438
1.0033449
1.0033445
1.0033417
1.0033383
1.003333
1.0033256
1.0033167
1.0033058
1.0032925
1.0032772
1.0032591
1.0032384
1.0032161
1.0031937
1.0031697
1.0031428
1.0031134
1.0030835
1.0030505
1.0008496
1.0008551
1.000861
1.0008676
1.0008756
1.0008849
1.0008953
1.0009069
1.0009196
1.0009335
1.0009484
1.0009644
1.0009815
1.0009996
1.0010188
1.001039
1.0010603
1.0010826
1.0011059
1.0011303
1.0011557
1.0011821
1.0012096
1.001238
1.0012674
1.0012978
1.0013292
1.0013616
1.0013949
1.0014291
1.0014642
1.0015002
1.001537
1.0015747
1.0016131
1.0016523
1.0016922
1.0017328
1.001774
1.0018159
1.0018583
1.0019013
1.0019447
1.0019885
1.0020327
1.0020773
1.0021221
1.0021671
1.0022122
1.0022574
1.0023027
1.0023478
1.0023929
1.0024377
1.0024823
1.0025265
1.0025703
1.0026136
1.0026564
1.0026985
1.0027399
1.0027805
1.0028203
1.0028592
1.0028971
1.002934
1.0029697
1.0030043
1.0030376
1.0030695
1.0031001
1.0031291
1.0031566
1.0031825
1.0032068
1.0032293
1.0032501
1.003269
1.0032859
1.0033016
1.0033135
1.003328
1.0033337
1.0033449
1.0033489
1.0033436
1.0033454
1.0033427
1.0033383
1.0033344
1.0033274
1.0033191
1.0033085
1.0032947
1.0032781
1.0032597
1.0032394
1.0032176
1.0031941
1.0031695
1.0031442
1.003119
1.0030921
1.00306
1.0008497
1.0008553
1.0008612
1.0008679
1.000876
1.0008853
1.0008958
1.0009074
1.0009202
1.0009341
1.000949
1.0009651
1.0009822
1.0010004
1.0010196
1.0010399
1.0010612
1.0010836
1.001107
1.0011314
1.0011569
1.0011834
1.0012109
1.0012394
1.0012689
1.0012993
1.0013308
1.0013632
1.0013965
1.0014308
1.0014659
1.001502
1.0015388
1.0015765
1.0016149
1.0016541
1.001694
1.0017346
1.0017758
1.0018176
1.00186
1.001903
1.0019464
1.0019902
1.0020344
1.0020789
1.0021236
1.0021686
1.0022137
1.0022589
1.0023041
1.0023493
1.0023943
1.0024391
1.0024837
1.0025279
1.0025717
1.002615
1.0026578
1.0026999
1.0027414
1.0027821
1.002822
1.002861
1.0028991
1.002936
1.0029718
1.0030064
1.0030396
1.0030715
1.0031019
1.0031308
1.0031582
1.003184
1.003208
1.0032303
1.0032509
1.0032697
1.0032866
1.0033023
1.0033142
1.0033289
1.0033344
1.0033444
1.0033458
1.0033465
1.0033463
1.0033444
1.0033408
1.0033342
1.0033293
1.00332
1.0033087
1.0032951
1.00328
1.0032631
1.0032442
1.0032234
1.0032009
1.0031768
1.0031509
1.003122
1.0030924
1.0030603
1.0008497
1.0008555
1.0008615
1.0008682
1.0008763
1.0008857
1.0008962
1.0009079
1.0009208
1.0009347
1.0009497
1.0009658
1.000983
1.0010012
1.0010205
1.0010409
1.0010622
1.0010847
1.0011081
1.0011326
1.0011582
1.0011847
1.0012123
1.0012409
1.0012704
1.001301
1.0013325
1.0013649
1.0013983
1.0014326
1.0014678
1.0015038
1.0015407
1.0015784
1.0016168
1.001656
1.0016959
1.0017365
1.0017777
1.0018195
1.0018619
1.0019048
1.0019481
1.0019919
1.0020361
1.0020805
1.0021253
1.0021702
1.0022153
1.0022605
1.0023057
1.0023508
1.0023958
1.0024406
1.0024852
1.0025294
1.0025733
1.0026166
1.0026595
1.0027017
1.0027433
1.0027841
1.0028241
1.0028631
1.002901
1.0029378
1.0029734
1.0030076
1.0030405
1.0030721
1.0031023
1.0031311
1.0031583
1.0031841
1.003208
1.0032302
1.0032508
1.0032696
1.0032866
1.0033021
1.0033145
1.0033289
1.0033344
1.0033466
1.0033502
1.0033445
1.0033469
1.0033426
1.0033359
1.0033355
1.0033312
1.0033217
1.0033107
1.0032986
1.0032841
1.0032674
1.0032489
1.0032283
1.003205
1.0031793
1.0031526
1.0031253
1.0030981
1.0030681
1.0008498
1.0008556
1.0008617
1.0008685
1.0008767
1.0008862
1.0008968
1.0009085
1.0009214
1.0009354
1.0009505
1.0009666
1.0009839
1.0010022
1.0010215
1.0010419
1.0010634
1.0010858
1.0011094
1.001134
1.0011596
1.0011862
1.0012138
1.0012425
1.0012721
1.0013027
1.0013343
1.0013668
1.0014003
1.0014346
1.0014698
1.0015058
1.0015427
1.0015804
1.0016188
1.001658
1.0016979
1.0017384
1.0017796
1.0018214
1.0018638
1.0019066
1.00195
1.0019937
1.0020378
1.0020823
1.002127
1.0021719
1.002217
1.0022621
1.0023073
1.0023524
1.0023974
1.0024423
1.0024869
1.0025312
1.0025751
1.0026185
1.0026614
1.0027036
1.0027451
1.0027856
1.0028254
1.002864
1.0029016
1.0029381
1.0029736
1.0030076
1.0030403
1.0030718
1.0031019
1.0031305
1.0031577
1.0031834
1.0032074
1.0032298
1.0032505
1.0032693
1.0032865
1.0033017
1.0033152
1.0033279
1.0033345
1.0033473
1.0033484
1.0033465
1.0033472
1.0033464
1.0033394
1.0033383
1.0033314
1.0033227
1.0033122
1.0032991
1.0032841
1.0032673
1.0032489
1.0032291
1.0032083
1.0031855
1.0031602
1.0031317
1.0031012
1.0030684
1.0008498
1.0008558
1.000862
1.0008689
1.0008772
1.0008867
1.0008973
1.0009091
1.0009221
1.0009361
1.0009513
1.0009675
1.0009848
1.0010032
1.0010226
1.001043
1.0010646
1.0010871
1.0011108
1.0011354
1.0011611
1.0011878
1.0012156
1.0012443
1.001274
1.0013047
1.0013363
1.0013689
1.0014023
1.0014367