/*--------------------------------*- C++ -*----------------------------------*\
| =========                 |                                                 |
| \\      /  F ield         | OpenFOAM: The Open Source CFD Toolbox           |
|  \\    /   O peration     | Version:  2406                                  |
|   \\  /    A nd           | Website:  www.openfoam.com                      |
|    \\/     M anipulation  |                                                 |
\*---------------------------------------------------------------------------*/
FoamFile
{
    version     2.0;
    format      ascii;
    arch        "LSB;label=32;scalar=64";
    class       volScalarField;
    location    "1100";
    object      TMean;
}
// * * * * * * * * * * * * * * * * * * * * * * * * * * * * * * * * * * * * * //

dimensions      [0 0 0 1 0 0 0];

internalField   nonuniform List<scalar> 
132739
(
1.0008028
1.0007933
1.0007935
1.0007991
1.0008046
1.0008105
1.0008177
1.0008268
1.0008357
1.0008467
1.0008578
1.000871
1.0008844
1.0008985
1.0009142
1.0009309
1.0009473
1.0009632
1.0009821
1.0010027
1.0010217
1.0010423
1.001066
1.0010872
1.0011125
1.001136
1.0011632
1.0011904
1.00122
1.0012525
1.0012874
1.0013233
1.0013615
1.0014009
1.0014405
1.0014822
1.0015217
1.0015673
1.0016107
1.0016503
1.0016937
1.0017392
1.0017828
1.0018277
1.0018719
1.0019184
1.001964
1.0020098
1.0020534
1.0020995
1.0021434
1.0021894
1.0022296
1.0022752
1.0023167
1.0023599
1.0023984
1.0024393
1.0024768
1.0025172
1.0025566
1.0025885
1.0026261
1.0026612
1.0026931
1.0027285
1.0027596
1.0027918
1.0028262
1.0028524
1.002884
1.0029092
1.0029348
1.0029554
1.002981
1.003001
1.0030199
1.003035
1.003052
1.0030644
1.0030738
1.0030811
1.0030814
1.0030769
1.0030628
1.0030412
1.0030125
1.0029765
1.0029346
1.0028889
1.0028373
1.0027794
1.0027141
1.0026416
1.0025621
1.0024776
1.0023879
1.0022983
1.0022108
1.0021198
1.0020166
1.0019084
1.0017953
1.0016735
1.0008032
1.0007933
1.0007934
1.0007991
1.0008048
1.0008108
1.0008185
1.0008278
1.0008368
1.0008471
1.000859
1.000872
1.0008843
1.0008992
1.000916
1.0009308
1.0009473
1.0009661
1.0009842
1.0010029
1.0010227
1.0010429
1.0010672
1.0010887
1.0011133
1.0011369
1.001164
1.0011917
1.0012209
1.0012526
1.0012884
1.0013233
1.0013621
1.0013998
1.00144
1.0014824
1.0015216
1.0015649
1.0016058
1.001651
1.0016918
1.0017382
1.0017822
1.001826
1.0018712
1.001917
1.0019607
1.0020076
1.0020503
1.0020965
1.0021386
1.0021818
1.0022268
1.0022693
1.0023085
1.0023512
1.0023899
1.0024284
1.0024653
1.0025073
1.0025416
1.0025785
1.0026123
1.0026498
1.0026796
1.0027159
1.0027468
1.0027738
1.0028117
1.0028342
1.0028591
1.0028876
1.0029075
1.0029326
1.002952
1.0029734
1.0029943
1.0030094
1.0030258
1.0030378
1.0030473
1.0030545
1.0030546
1.0030509
1.0030418
1.0030252
1.0030007
1.0029688
1.0029294
1.0028836
1.00283
1.0027712
1.0027064
1.0026343
1.0025558
1.0024725
1.0023834
1.0022926
1.0021988
1.0021032
1.0019991
1.0018965
1.001783
1.0016612
1.0008042
1.0007931
1.000794
1.0007994
1.0008049
1.0008116
1.000819
1.0008281
1.0008383
1.000848
1.0008595
1.000873
1.0008854
1.0009002
1.0009167
1.0009314
1.0009476
1.0009666
1.0009844
1.001003
1.0010248
1.0010443
1.0010677
1.0010892
1.0011131
1.0011369
1.0011624
1.0011923
1.0012212
1.0012528
1.0012857
1.0013213
1.0013598
1.0013978
1.0014385
1.0014805
1.0015194
1.0015625
1.0016023
1.0016486
1.001689
1.0017366
1.0017804
1.0018232
1.0018705
1.0019137
1.0019585
1.0020039
1.002046
1.0020903
1.0021343
1.0021753
1.0022207
1.0022608
1.0022981
1.0023407
1.0023812
1.0024176
1.0024555
1.0024957
1.0025307
1.0025656
1.0026017
1.0026362
1.0026705
1.0027017
1.0027322
1.0027589
1.0027887
1.0028165
1.0028411
1.0028739
1.0028925
1.0029158
1.0029353
1.0029541
1.0029688
1.0029822
1.002995
1.0030069
1.0030153
1.003021
1.0030232
1.0030173
1.0030086
1.0029925
1.00297
1.00294
1.0029033
1.0028594
1.0028096
1.0027522
1.0026878
1.0026182
1.0025412
1.0024595
1.0023725
1.0022828
1.0021901
1.0020951
1.0019952
1.0018877
1.001773
1.0016461
1.0008043
1.0007932
1.000794
1.0007996
1.0008047
1.000812
1.0008191
1.0008279
1.0008376
1.000848
1.0008604
1.0008725
1.0008851
1.0009003
1.0009151
1.0009304
1.0009465
1.0009655
1.000983
1.001002
1.0010224
1.0010423
1.0010646
1.0010866
1.0011107
1.0011352
1.0011606
1.0011891
1.001219
1.0012501
1.0012856
1.0013199
1.0013591
1.0013967
1.0014365
1.0014782
1.0015168
1.001559
1.0016015
1.001644
1.0016876
1.0017304
1.0017769
1.0018217
1.0018646
1.001908
1.001951
1.0019964
1.0020376
1.002083
1.0021234
1.0021641
1.0022142
1.0022519
1.0022879
1.0023297
1.0023707
1.0024068
1.0024444
1.0024843
1.0025193
1.0025525
1.0025876
1.0026208
1.0026544
1.0026839
1.0027169
1.0027435
1.0027706
1.0027985
1.0028222
1.0028466
1.0028713
1.0028959
1.0029141
1.0029313
1.0029478
1.0029606
1.0029702
1.0029844
1.0029901
1.0029955
1.0029953
1.0029901
1.0029809
1.0029653
1.0029434
1.0029138
1.0028783
1.002835
1.0027854
1.0027304
1.0026696
1.0026022
1.0025283
1.0024494
1.0023626
1.0022747
1.0021816
1.0020885
1.0019901
1.0018881
1.0017809
1.0016563
1.0008045
1.0007934
1.0007944
1.0007997
1.0008047
1.0008116
1.0008191
1.0008279
1.000837
1.0008478
1.0008595
1.000872
1.0008852
1.0008998
1.0009146
1.0009308
1.0009463
1.000965
1.0009826
1.0010003
1.0010216
1.0010424
1.0010633
1.0010872
1.0011106
1.0011345
1.0011598
1.0011883
1.0012178
1.0012507
1.001284
1.0013185
1.0013573
1.0013948
1.0014338
1.0014759
1.0015149
1.0015584
1.0015993
1.0016404
1.0016879
1.0017284
1.001771
1.0018205
1.001862
1.0019033
1.0019461
1.0019905
1.0020308
1.002075
1.0021151
1.0021576
1.0021967
1.0022406
1.0022791
1.0023212
1.0023614
1.0023979
1.0024376
1.0024758
1.002509
1.0025468
1.0025779
1.002614
1.0026456
1.0026748
1.002705
1.0027335
1.0027577
1.0027857
1.0028068
1.002831
1.0028504
1.002876
1.0028895
1.0029067
1.0029229
1.0029326
1.0029455
1.0029543
1.0029583
1.0029618
1.0029608
1.0029586
1.002948
1.0029344
1.0029144
1.0028865
1.0028511
1.002808
1.0027596
1.002704
1.0026443
1.002581
1.0025108
1.002436
1.0023538
1.002267
1.0021782
1.0020851
1.0019898
1.0018907
1.0017839
1.0016667
1.0008046
1.0007933
1.0007944
1.0008004
1.0008053
1.0008121
1.0008196
1.0008285
1.000838
1.0008484
1.0008602
1.0008717
1.0008856
1.000899
1.0009143
1.000931
1.0009453
1.0009632
1.0009827
1.0010002
1.0010209
1.0010417
1.001062
1.0010851
1.0011092
1.0011334
1.0011579
1.001186
1.001217
1.00125
1.0012828
1.0013178
1.0013547
1.0013936
1.0014308
1.0014726
1.0015128
1.0015547
1.0015953
1.0016382
1.0016803
1.0017234
1.0017694
1.0018099
1.0018531
1.0018976
1.0019389
1.0019812
1.0020225
1.0020652
1.0021064
1.0021474
1.0021907
1.002231
1.0022721
1.0023122
1.0023517
1.0023916
1.0024281
1.0024734
1.0025049
1.002537
1.0025735
1.0026032
1.0026391
1.0026657
1.0026964
1.0027206
1.0027536
1.0027754
1.0027956
1.0028163
1.00284
1.0028547
1.0028748
1.0028876
1.0029037
1.0029115
1.002923
1.002929
1.0029323
1.0029345
1.0029342
1.0029306
1.0029192
1.0029072
1.0028877
1.0028603
1.0028272
1.0027872
1.0027383
1.0026825
1.0026208
1.0025555
1.0024874
1.002413
1.002336
1.0022537
1.0021688
1.0020779
1.0019857
1.0018913
1.0017879
1.0016748
1.0008043
1.0007942
1.0007946
1.0008
1.0008056
1.0008121
1.0008196
1.0008283
1.000838
1.0008481
1.0008598
1.0008723
1.0008849
1.0008999
1.0009138
1.0009306
1.0009456
1.0009643
1.0009818
1.0010002
1.001019
1.0010404
1.0010625
1.0010839
1.001108
1.0011314
1.0011574
1.0011859
1.0012153
1.0012485
1.0012805
1.0013172
1.001353
1.0013934
1.0014294
1.0014695
1.0015112
1.0015515
1.0015911
1.0016348
1.0016772
1.0017176
1.0017619
1.0018047
1.0018467
1.0018908
1.0019308
1.0019746
1.0020155
1.002059
1.0021004
1.0021439
1.0021834
1.0022249
1.0022672
1.0023071
1.002348
1.0023863
1.0024214
1.0024597
1.0024958
1.0025299
1.0025627
1.0025934
1.0026265
1.0026545
1.0026846
1.0027098
1.0027356
1.002761
1.0027818
1.0027993
1.0028224
1.0028368
1.002852
1.002866
1.0028764
1.0028835
1.0028947
1.0028994
1.0029011
1.0029041
1.0029014
1.0028967
1.0028864
1.0028736
1.0028546
1.0028312
1.0028
1.0027608
1.0027152
1.0026624
1.0026034
1.0025387
1.0024708
1.0023982
1.0023192
1.0022368
1.0021526
1.0020661
1.001976
1.0018866
1.0017888
1.0016824
1.0008047
1.0007938
1.000795
1.0008002
1.0008055
1.0008121
1.0008192
1.0008275
1.0008372
1.0008474
1.0008599
1.0008714
1.0008854
1.0008994
1.0009129
1.0009291
1.0009445
1.0009625
1.0009802
1.0009979
1.0010187
1.0010383
1.0010608
1.0010819
1.001106
1.0011299
1.0011554
1.001185
1.0012139
1.0012454
1.0012781
1.001314
1.0013491
1.0013875
1.0014244
1.001465
1.0015052
1.0015452
1.0015873
1.0016294
1.0016721
1.0017131
1.0017561
1.0017987
1.001841
1.0018832
1.0019266
1.0019674
1.00201
1.0020529
1.0020948
1.0021367
1.0021795
1.0022196
1.002261
1.0023002
1.0023387
1.0023806
1.0024146
1.002452
1.0024899
1.0025205
1.0025552
1.0025852
1.0026177
1.002645
1.0026731
1.0027007
1.0027236
1.0027569
1.0027752
1.0027932
1.0028116
1.0028262
1.0028431
1.002855
1.0028661
1.0028706
1.0028771
1.0028787
1.0028801
1.0028766
1.002872
1.0028673
1.0028561
1.0028406
1.002822
1.002797
1.0027687
1.0027337
1.0026889
1.0026379
1.0025801
1.0025183
1.0024521
1.0023843
1.0023086
1.0022307
1.0021432
1.002057
1.0019657
1.0018779
1.0017842
1.001684
1.0008047
1.000794
1.0007951
1.0008002
1.0008054
1.0008116
1.00082
1.0008274
1.0008376
1.0008476
1.0008601
1.0008719
1.0008856
1.0008981
1.0009138
1.0009282
1.0009449
1.0009618
1.0009796
1.0009962
1.0010165
1.0010366
1.0010589
1.0010803
1.0011041
1.0011277
1.0011537
1.0011813
1.001211
1.0012414
1.001276
1.0013103
1.0013456
1.0013825
1.0014201
1.0014624
1.0015019
1.0015414
1.0015849
1.0016248
1.0016675
1.0017092
1.0017511
1.0017933
1.001836
1.0018777
1.0019209
1.0019621
1.0020077
1.0020492
1.0020901
1.0021338
1.0021741
1.0022147
1.0022552
1.0022941
1.0023333
1.002372
1.0024061
1.0024416
1.0024802
1.0025103
1.0025438
1.0025752
1.0026061
1.0026365
1.0026622
1.002689
1.0027128
1.0027356
1.0027601
1.0027809
1.0027996
1.0028137
1.0028303
1.0028402
1.0028531
1.0028587
1.0028625
1.0028639
1.0028626
1.0028572
1.0028548
1.0028421
1.0028317
1.0028146
1.0027944
1.0027685
1.0027383
1.0027027
1.0026618
1.0026112
1.0025553
1.0024937
1.002429
1.0023639
1.0022915
1.0022163
1.0021364
1.0020547
1.0019643
1.0018768
1.0017851
1.0016895
1.0008048
1.0007939
1.0007959
1.0008003
1.0008054
1.0008117
1.0008196
1.0008272
1.0008369
1.0008474
1.0008584
1.0008702
1.0008845
1.0008967
1.0009124
1.0009277
1.0009424
1.0009597
1.0009767
1.0009948
1.0010134
1.0010336
1.0010567
1.0010781
1.0011007
1.0011267
1.0011514
1.0011796
1.0012089
1.0012413
1.0012735
1.0013096
1.0013448
1.0013797
1.0014187
1.0014576
1.0014969
1.0015366
1.00158
1.0016199
1.0016618
1.0017044
1.0017451
1.001788
1.0018292
1.001873
1.0019154
1.0019575
1.0019993
1.0020411
1.002083
1.0021257
1.0021666
1.0022076
1.002247
1.0022873
1.002325
1.0023612
1.0023965
1.0024345
1.002468
1.0025035
1.0025339
1.0025677
1.0025966
1.0026254
1.0026512
1.0026791
1.002702
1.0027247
1.0027466
1.0027641
1.0027828
1.0027981
1.0028108
1.0028221
1.0028308
1.0028372
1.0028441
1.0028424
1.0028566
1.0028485
1.0028385
1.0028266
1.0028114
1.0027938
1.0027727
1.0027455
1.0027146
1.0026778
1.0026358
1.002588
1.002532
1.0024727
1.0024056
1.00234
1.0022696
1.002198
1.0021177
1.0020402
1.001952
1.0018671
1.0017773
1.0016844
1.000805
1.000794
1.0007956
1.0008005
1.0008054
1.0008118
1.0008192
1.0008268
1.0008362
1.0008471
1.0008579
1.0008692
1.0008831
1.0008949
1.0009107
1.0009245
1.0009405
1.0009576
1.0009743
1.000992
1.001011
1.0010334
1.0010537
1.0010749
1.0010983
1.0011237
1.0011481
1.0011781
1.0012079
1.0012393
1.0012727
1.001307
1.0013415
1.0013792
1.0014158
1.0014547
1.0014928
1.0015334
1.0015749
1.0016148
1.001655
1.001699
1.0017391
1.0017831
1.0018242
1.0018661
1.0019098
1.0019517
1.0019943
1.0020352
1.0020793
1.0021206
1.0021607
1.002202
1.0022401
1.0022789
1.0023183
1.0023541
1.0023901
1.0024321
1.0024638
1.0024982
1.0025289
1.0025612
1.0025904
1.0026154
1.0026411
1.0026772
1.0026943
1.0027246
1.0027396
1.0027569
1.002773
1.0027869
1.0028001
1.0028079
1.0028199
1.0028239
1.0028269
1.0028261
1.0028267
1.0028231
1.002817
1.0028053
1.0027906
1.0027726
1.0027494
1.0027252
1.0026926
1.002657
1.002614
1.0025683
1.0025108
1.0024527
1.0023885
1.0023225
1.0022526
1.0021799
1.0021061
1.0020275
1.0019445
1.00186
1.0017724
1.0016789
1.0008049
1.0007941
1.0007951
1.0008004
1.0008056
1.0008112
1.000819
1.0008268
1.0008371
1.000847
1.0008575
1.0008703
1.0008821
1.0008945
1.0009087
1.0009224
1.0009394
1.000955
1.0009731
1.0009899
1.0010112
1.0010292
1.0010506
1.0010713
1.0010946
1.0011204
1.0011448
1.0011752
1.0012052
1.0012368
1.0012691
1.0013053
1.0013384
1.0013762
1.0014108
1.0014521
1.0014884
1.0015299
1.001571
1.0016101
1.0016494
1.0016943
1.0017334
1.0017777
1.0018191
1.0018609
1.0019035
1.0019458
1.0019868
1.0020296
1.0020699
1.0021133
1.0021549
1.0021935
1.0022346
1.0022726
1.0023119
1.0023483
1.0023862
1.0024201
1.0024535
1.0024864
1.0025249
1.0025534
1.0025775
1.002605
1.0026385
1.0026594
1.0026826
1.0027063
1.0027251
1.0027486
1.0027614
1.0027771
1.0027897
1.0027966
1.0028034
1.0028093
1.0028097
1.0028103
1.002806
1.0028007
1.0027934
1.0027822
1.0027665
1.0027483
1.002725
1.0026975
1.0026687
1.0026306
1.0025897
1.0025435
1.0024913
1.0024335
1.0023674
1.0023
1.0022304
1.0021574
1.0020835
1.0020054
1.0019247
1.0018415
1.001754
1.001669
1.0008046
1.0007944
1.0007947
1.0007996
1.0008055
1.0008107
1.0008182
1.0008259
1.0008352
1.0008455
1.0008561
1.000869
1.0008799
1.0008936
1.0009074
1.0009206
1.0009364
1.0009527
1.0009695
1.0009866
1.0010074
1.0010254
1.0010473
1.0010675
1.0010904
1.0011166
1.0011416
1.0011724
1.0012011
1.0012346
1.0012664
1.0013018
1.0013354
1.0013722
1.0014086
1.0014471
1.0014835
1.0015243
1.001564
1.0016034
1.0016471
1.0016867
1.0017281
1.001771
1.0018132
1.0018554
1.0018979
1.0019393
1.0019815
1.0020226
1.0020632
1.0021061
1.0021444
1.0021857
1.0022252
1.0022633
1.0023028
1.0023413
1.0023774
1.0024117
1.0024443
1.0024784
1.0025087
1.0025383
1.0025698
1.0025959
1.0026199
1.0026506
1.0026716
1.0027022
1.0027187
1.0027326
1.0027485
1.0027739
1.0027821
1.0027885
1.002796
1.002802
1.002803
1.0027995
1.0027958
1.0027874
1.0027767
1.0027632
1.0027466
1.0027282
1.0027037
1.0026745
1.0026435
1.002608
1.0025666
1.0025215
1.0024667
1.0024198
1.0023587
1.00229
1.0022165
1.0021418
1.0020653
1.0019873
1.0019076
1.0018243
1.0017361
1.0016511
1.0008048
1.0007943
1.0007947
1.0007993
1.0008049
1.0008109
1.0008171
1.0008262
1.0008344
1.0008454
1.0008555
1.0008679
1.0008793
1.0008926
1.0009055
1.0009192
1.0009347
1.0009512
1.0009673
1.0009846
1.0010036
1.0010219
1.0010429
1.0010634
1.0010884
1.0011124
1.0011398
1.0011704
1.0011991
1.001232
1.0012638
1.001298
1.0013328
1.0013675
1.0014061
1.0014411
1.0014812
1.0015193
1.0015595
1.0015989
1.0016415
1.0016809
1.0017216
1.001765
1.0018069
1.0018482
1.0018893
1.0019314
1.0019735
1.0020144
1.0020575
1.0020981
1.0021369
1.0021781
1.0022191
1.0022563
1.002294
1.0023327
1.0023674
1.0024026
1.0024356
1.0024663
1.0025027
1.0025288
1.0025572
1.0025916
1.0026129
1.002642
1.0026614
1.0026823
1.0027061
1.0027212
1.002735
1.0027512
1.0027639
1.0027724
1.0027787
1.0027949
1.0027943
1.0027904
1.0027875
1.0027775
1.0027678
1.0027526
1.0027352
1.0027146
1.0026887
1.0026578
1.0026237
1.0025881
1.002543
1.0024976
1.0024456
1.00239
1.0023325
1.0022681
1.002197
1.0021233
1.0020446
1.0019644
1.0018837
1.0018038
1.0017151
1.0016295
1.000805
1.0007941
1.0007949
1.0007993
1.000805
1.0008106
1.0008172
1.0008256
1.0008343
1.0008435
1.0008541
1.0008669
1.000878
1.0008918
1.0009039
1.0009177
1.0009323
1.0009486
1.0009644
1.0009824
1.0010008
1.0010189
1.0010402
1.0010605
1.0010859
1.0011095
1.0011388
1.0011663
1.0011974
1.0012301
1.0012619
1.0012952
1.0013308
1.0013641
1.0014013
1.0014371
1.0014772
1.0015149
1.001556
1.0015946
1.0016357
1.0016751
1.0017171
1.0017583
1.0017991
1.0018405
1.0018823
1.001925
1.0019661
1.0020069
1.0020496
1.0020899
1.0021299
1.002171
1.0022101
1.002249
1.0022837
1.0023243
1.002358
1.0023919
1.0024264
1.002456
1.0024916
1.0025182
1.0025514
1.002577
1.0026003
1.0026255
1.0026522
1.0026707
1.0026922
1.0027064
1.0027209
1.0027358
1.0027453
1.0027564
1.0027649
1.002772
1.0027749
1.002774
1.0027727
1.0027649
1.0027547
1.002741
1.0027235
1.0027012
1.0026747
1.0026423
1.0026058
1.0025686
1.0025242
1.0024783
1.0024254
1.0023699
1.0023106
1.0022468
1.0021756
1.0021053
1.0020254
1.0019462
1.0018647
1.0017816
1.0016919
1.0016073
1.000805
1.0007942
1.0007946
1.0007992
1.0008046
1.0008102
1.0008177
1.0008249
1.0008343
1.000843
1.0008547
1.0008657
1.0008771
1.00089
1.0009016
1.0009164
1.0009302
1.0009462
1.0009625
1.0009797
1.0009975
1.0010165
1.0010372
1.0010582
1.0010827
1.0011073
1.001136
1.0011636
1.0011953
1.0012269
1.0012579
1.0012935
1.0013265
1.0013614
1.0013974
1.0014332
1.0014727
1.0015105
1.0015493
1.0015881
1.0016286
1.0016686
1.0017108
1.0017525
1.0017927
1.0018352
1.001876
1.0019172
1.0019593
1.001999
1.0020422
1.0020812
1.0021217
1.0021607
1.0021999
1.0022381
1.0022732
1.0023087
1.0023468
1.0023811
1.0024129
1.0024471
1.0024773
1.0025093
1.0025368
1.0025644
1.0025893
1.0026155
1.0026367
1.0026585
1.0026812
1.0026937
1.0027103
1.0027271
1.0027359
1.0027474
1.0027563
1.0027608
1.0027682
1.0027663
1.0027652
1.0027571
1.0027471
1.0027326
1.0027155
1.0026937
1.0026646
1.0026312
1.0025906
1.0025503
1.0025032
1.0024575
1.0024038
1.0023496
1.0022894
1.0022265
1.0021559
1.0020847
1.0020079
1.0019251
1.0018439
1.0017609
1.0016699
1.001585
1.0008053
1.0007941
1.0007947
1.0007989
1.0008044
1.0008099
1.0008175
1.0008247
1.000834
1.0008424
1.0008537
1.000864
1.0008767
1.0008879
1.0009011
1.0009146
1.0009284
1.0009451
1.0009601
1.0009783
1.0009959
1.0010145
1.001034
1.001056
1.0010791
1.0011052
1.0011324
1.0011607
1.0011921
1.001223
1.0012545
1.00129
1.0013217
1.0013579
1.0013934
1.0014288
1.0014665
1.0015045
1.0015433
1.0015831
1.0016209
1.0016632
1.0017036
1.0017451
1.0017851
1.0018283
1.0018688
1.0019097
1.0019514
1.0019925
1.0020327
1.0020727
1.0021132
1.0021524
1.0021894
1.0022269
1.0022656
1.0023003
1.0023346
1.0023706
1.0024036
1.0024349
1.0024675
1.0024951
1.0025248
1.0025507
1.0025769
1.0026065
1.0026256
1.0026474
1.0026702
1.002685
1.0027009
1.0027153
1.0027252
1.0027349
1.0027443
1.0027481
1.0027526
1.0027523
1.0027537
1.002747
1.0027357
1.0027228
1.0027058
1.002684
1.0026544
1.0026198
1.0025786
1.0025362
1.0024869
1.0024388
1.0023831
1.0023284
1.0022673
1.0022056
1.0021347
1.0020644
1.0019904
1.0019089
1.001826
1.0017438
1.0016513
1.0015653
1.0008054
1.0007939
1.0007948
1.0007988
1.0008043
1.0008097
1.0008169
1.0008243
1.0008332
1.0008421
1.0008516
1.0008642
1.0008748
1.0008876
1.0008992
1.0009126
1.0009271
1.0009433
1.0009583
1.0009759
1.0009929
1.0010116
1.0010318
1.0010534
1.0010769
1.0011032
1.0011296
1.0011592
1.0011891
1.0012195
1.001252
1.0012852
1.0013173
1.0013535
1.001388
1.0014246
1.0014612
1.0014996
1.0015367
1.0015778
1.0016156
1.0016563
1.0016965
1.0017374
1.0017791
1.00182
1.0018608
1.0019033
1.0019447
1.0019846
1.0020246
1.0020635
1.0021044
1.0021424
1.0021802
1.0022178
1.0022534
1.0022919
1.0023254
1.0023582
1.0023957
1.0024254
1.0024574
1.0024856
1.0025123
1.0025412
1.002565
1.0025942
1.0026133
1.0026326
1.0026548
1.0026688
1.0026841
1.0026999
1.0027102
1.0027179
1.0027263
1.002731
1.0027347
1.0027326
1.0027326
1.0027265
1.0027155
1.0027064
1.0026898
1.0026712
1.0026444
1.0026117
1.002568
1.0025217
1.0024689
1.00242
1.0023613
1.0023073
1.0022445
1.0021869
1.0021169
1.0020467
1.001971
1.001891
1.0018083
1.0017271
1.0016341
1.0015474
1.000805
1.0007941
1.0007947
1.0007991
1.000804
1.0008091
1.0008165
1.0008236
1.0008316
1.0008415
1.0008508
1.000863
1.0008733
1.0008861
1.0008975
1.0009104
1.0009248
1.0009406
1.0009551
1.0009724
1.0009894
1.0010086
1.0010278
1.001051
1.0010738
1.0011007
1.0011265
1.0011557
1.0011859
1.0012164
1.0012473
1.0012814
1.0013133
1.0013481
1.0013831
1.0014191
1.0014563
1.001494
1.0015309
1.0015718
1.0016104
1.0016501
1.0016908
1.0017318
1.0017724
1.0018134
1.0018534
1.0018956
1.0019364
1.0019757
1.0020155
1.0020563
1.0020943
1.0021333
1.0021701
1.002209
1.0022442
1.0022803
1.0023151
1.0023493
1.0023808
1.0024127
1.0024473
1.0024745
1.002501
1.0025287
1.0025528
1.002577
1.0025998
1.0026184
1.0026407
1.0026534
1.002669
1.0026874
1.002695
1.0027006
1.0027068
1.0027105
1.0027157
1.0027146
1.0027131
1.0027063
1.0026954
1.0026831
1.0026685
1.0026482
1.0026224
1.0025912
1.0025506
1.0025068
1.002453
1.0024004
1.0023413
1.0022841
1.0022211
1.0021596
1.0020906
1.0020246
1.0019496
1.0018721
1.001789
1.001707
1.0016183
1.0015339
1.000805
1.0007939
1.0007947
1.0007988
1.0008036
1.0008089
1.0008154
1.0008234
1.0008306
1.0008406
1.0008497
1.000862
1.0008721
1.0008841
1.000895
1.0009086
1.0009215
1.0009369
1.0009514
1.0009685
1.000986
1.0010039
1.0010245
1.0010471
1.0010705
1.0010978
1.0011234
1.0011539
1.0011819
1.0012137
1.0012432
1.0012771
1.001309
1.0013435
1.0013785
1.0014146
1.0014504
1.0014889
1.0015265
1.0015659
1.0016047
1.0016441
1.0016832
1.0017263
1.0017664
1.0018064
1.0018474
1.0018871
1.0019274
1.0019666
1.0020089
1.0020478
1.0020867
1.0021253
1.0021622
1.0021997
1.002235
1.0022709
1.0023049
1.0023396
1.0023702
1.0024023
1.002432
1.0024628
1.0024891
1.0025175
1.0025406
1.0025611
1.0025857
1.0026046
1.0026218
1.0026371
1.0026526
1.0026645
1.002677
1.0026847
1.0026889
1.0026919
1.0026961
1.002694
1.0026926
1.0026847
1.0026746
1.0026621
1.0026468
1.0026274
1.0026022
1.0025724
1.0025314
1.0024894
1.0024349
1.002384
1.0023218
1.0022654
1.0021994
1.0021387
1.0020665
1.0019998
1.0019244
1.0018487
1.0017653
1.0016857
1.0015958
1.0015121
1.0008052
1.0007937
1.0007948
1.0007983
1.0008034
1.0008087
1.0008148
1.0008227
1.0008295
1.0008397
1.0008486
1.0008601
1.0008698
1.0008816
1.0008923
1.0009058
1.0009186
1.0009333
1.0009482
1.0009655
1.0009815
1.0010009
1.0010209
1.0010444
1.0010676
1.0010944
1.0011202
1.0011508
1.0011788
1.0012098
1.0012397
1.0012727
1.0013043
1.0013391
1.0013733
1.0014092
1.001446
1.0014836
1.0015214
1.0015597
1.0015983
1.0016378
1.0016778
1.0017176
1.0017586
1.0017985
1.0018388
1.0018794
1.0019186
1.0019585
1.0019988
1.0020381
1.0020777
1.002115
1.0021531
1.0021896
1.0022257
1.0022607
1.0022954
1.0023301
1.0023603
1.0023923
1.0024229
1.0024487
1.0024755
1.0025027
1.0025263
1.0025468
1.0025679
1.0025907
1.0026051
1.0026232
1.0026345
1.0026519
1.0026587
1.002666
1.0026707
1.0026712
1.0026753
1.0026721
1.0026704
1.0026628
1.0026517
1.0026432
1.0026265
1.0026046
1.0025824
1.002552
1.0025127
1.0024696
1.0024162
1.0023641
1.0023025
1.0022444
1.0021747
1.002112
1.0020387
1.0019697
1.001897
1.0018229
1.0017428
1.0016625
1.0015739
1.0014939
1.0008052
1.0007935
1.0007945
1.0007983
1.0008029
1.0008081
1.0008141
1.0008213
1.0008282
1.0008378
1.0008476
1.0008573
1.0008686
1.0008779
1.0008904
1.0009026
1.0009152
1.0009298
1.0009442
1.000961
1.0009776
1.0009976
1.0010177
1.0010401
1.0010646
1.0010913
1.0011168
1.0011467
1.0011746
1.0012053
1.0012353
1.0012682
1.0012999
1.0013338
1.0013694
1.0014041
1.001441
1.0014773
1.0015155
1.0015535
1.0015918
1.0016322
1.0016699
1.0017115
1.0017507
1.0017911
1.0018292
1.0018717
1.0019094
1.0019508
1.0019883
1.0020301
1.0020671
1.0021059
1.0021424
1.0021787
1.0022175
1.0022508
1.0022869
1.0023201
1.0023507
1.0023808
1.0024113
1.0024375
1.0024644
1.002493
1.0025144
1.0025382
1.0025557
1.0025755
1.0025934
1.0026072
1.0026227
1.002632
1.0026455
1.0026491
1.0026544
1.0026557
1.0026552
1.0026537
1.0026466
1.0026414
1.0026271
1.0026184
1.0026017
1.0025822
1.0025602
1.0025304
1.002496
1.0024539
1.0024033
1.0023501
1.0022901
1.0022301
1.0021609
1.0020941
1.0020194
1.0019455
1.001868
1.0017921
1.0017114
1.0016329
1.0015483
1.001469
1.0008054
1.0007933
1.0007944
1.0007981
1.0008024
1.0008073
1.0008137
1.0008198
1.0008281
1.000836
1.0008468
1.0008554
1.0008667
1.0008755
1.0008874
1.0008998
1.0009113
1.0009264
1.0009405
1.0009561
1.0009747
1.0009922
1.0010146
1.0010363
1.0010619
1.0010866
1.0011133
1.0011424
1.0011699
1.0012007
1.0012306
1.0012631
1.0012951
1.0013284
1.0013644
1.0013976
1.0014361
1.0014715
1.001509
1.0015475
1.0015848
1.0016258
1.0016626
1.0017045
1.0017418
1.0017821
1.0018214
1.0018621
1.0019
1.0019407
1.0019793
1.0020179
1.0020573
1.0020945
1.0021327
1.0021689
1.0022053
1.0022408
1.0022744
1.0023066
1.0023383
1.002371
1.0023979
1.002426
1.0024537
1.0024771
1.0025005
1.0025262
1.0025439
1.002564
1.00258
1.0025963
1.0026082
1.0026213
1.0026283
1.0026349
1.0026378
1.0026384
1.0026357
1.0026338
1.0026246
1.0026209
1.0026071
1.0025924
1.002576
1.0025547
1.0025324
1.002505
1.002471
1.0024318
1.0023837
1.002333
1.0022748
1.0022148
1.0021476
1.0020806
1.0020065
1.0019322
1.0018543
1.0017743
1.0016903
1.0016089
1.0015209
1.0014422
1.0008057
1.0007931
1.0007944
1.0007979
1.0008019
1.0008067
1.0008131
1.0008186
1.0008272
1.0008346
1.0008451
1.0008534
1.0008639
1.0008728
1.0008843
1.0008961
1.0009072
1.0009227
1.0009364
1.000952
1.0009698
1.000988
1.0010105
1.0010325
1.0010582
1.0010827
1.0011092
1.0011378
1.0011655
1.0011958
1.0012263
1.0012568
1.0012907
1.0013226
1.0013571
1.0013916
1.0014285
1.0014639
1.0015018
1.0015396
1.0015779
1.0016164
1.0016551
1.0016949
1.0017331
1.001774
1.0018114
1.0018526
1.0018906
1.0019308
1.00197
1.0020082
1.0020459
1.0020849
1.0021216
1.002157
1.0021966
1.0022291
1.0022619
1.002294
1.0023253
1.0023572
1.0023861
1.0024117
1.0024406
1.0024633
1.0024855
1.0025093
1.0025275
1.0025496
1.0025636
1.00258
1.0025942
1.0026034
1.0026099
1.0026173
1.002619
1.0026211
1.0026195
1.002614
1.0026057
1.0025991
1.0025849
1.0025693
1.0025503
1.0025278
1.0025043
1.0024762
1.0024423
1.0024059
1.0023616
1.0023128
1.0022593
1.0021996
1.0021344
1.0020669
1.0019943
1.001919
1.0018413
1.0017611
1.001677
1.0015939
1.0015021
1.0014207
1.0008058
1.0007929
1.0007943
1.0007978
1.0008012
1.0008062
1.0008119
1.0008177
1.0008256
1.000833
1.0008432
1.0008513
1.0008612
1.0008698
1.0008809
1.0008922
1.0009031
1.000918
1.0009315
1.0009475
1.0009648
1.0009838
1.0010064
1.0010281
1.001054
1.0010779
1.0011054
1.0011322
1.0011612
1.0011892
1.0012209
1.001251
1.0012837
1.0013164
1.0013506
1.0013848
1.0014212
1.0014567
1.0014937
1.0015325
1.0015696
1.0016081
1.0016473
1.0016861
1.0017245
1.0017642
1.0018027
1.0018426
1.0018814
1.0019204
1.0019592
1.0019974
1.0020349
1.0020727
1.0021087
1.0021444
1.0021812
1.002214
1.0022474
1.0022811
1.002311
1.0023419
1.0023707
1.0023961
1.0024218
1.0024496
1.0024703
1.0024924
1.00251
1.0025293
1.0025454
1.0025589
1.0025746
1.0025836
1.0025905
1.0025982
1.0026022
1.0026012
1.0026015
1.0025938
1.002587
1.0025775
1.0025618
1.0025483
1.0025269
1.0025062
1.0024776
1.00245
1.0024155
1.0023792
1.0023358
1.0022899
1.0022383
1.0021811
1.0021197
1.0020524
1.0019829
1.0019084
1.0018298
1.0017495
1.0016652
1.001581
1.0014899
1.0014068
1.0008059
1.0007927
1.0007938
1.0007976
1.0008007
1.0008055
1.0008111
1.0008168
1.0008244
1.0008315
1.0008415
1.0008491
1.0008585
1.0008668
1.0008773
1.0008878
1.0008997
1.0009131
1.0009266
1.0009428
1.00096
1.0009799
1.0010016
1.0010241
1.001049
1.0010728
1.0011009
1.0011265
1.0011561
1.0011834
1.0012143
1.0012446
1.0012771
1.0013087
1.0013441
1.0013776
1.0014138
1.0014496
1.0014866
1.0015233
1.001562
1.0015998
1.0016379
1.0016772
1.0017159
1.0017549
1.0017927
1.0018334
1.0018709
1.0019102
1.0019475
1.0019852
1.0020223
1.0020591
1.0020956
1.0021308
1.0021654
1.0022
1.0022329
1.0022657
1.0022974
1.0023266
1.0023538
1.00238
1.0024086
1.0024299
1.0024549
1.0024749
1.0024927
1.0025109
1.0025266
1.0025391
1.0025511
1.0025633
1.0025691
1.0025795
1.0025815
1.0025817
1.0025811
1.0025762
1.0025673
1.0025583
1.0025422
1.002527
1.0025055
1.0024824
1.0024548
1.0024254
1.0023909
1.0023541
1.0023127
1.0022663
1.002218
1.0021631
1.0021045
1.0020401
1.0019716
1.001899
1.001822
1.0017425
1.0016576
1.0015724
1.0014818
1.0013948
1.0008058
1.0007925
1.0007936
1.0007972
1.0008005
1.0008052
1.0008104
1.0008159
1.0008232
1.0008302
1.0008394
1.0008467
1.0008558
1.0008633
1.0008735
1.0008838
1.0008954
1.0009084
1.000922
1.0009379
1.000956
1.0009756
1.0009973
1.0010199
1.0010436
1.0010684
1.0010947
1.0011207
1.0011493
1.0011772
1.0012075
1.0012375
1.00127
1.001302
1.0013358
1.0013703
1.0014057
1.0014414
1.0014788
1.0015146
1.0015531
1.0015904
1.0016291
1.0016672
1.001706
1.0017447
1.0017832
1.0018217
1.0018597
1.0018982
1.0019362
1.0019728
1.00201
1.0020461
1.002083
1.0021174
1.0021524
1.002185
1.0022179
1.0022508
1.0022805
1.0023108
1.0023369
1.0023634
1.0023918
1.0024126
1.0024381
1.0024575
1.0024743
1.002494
1.0025079
1.0025208
1.0025341
1.0025421
1.002549
1.0025572
1.0025588
1.0025614
1.0025596
1.002555
1.0025457
1.0025365
1.0025219
1.0025052
1.0024829
1.0024603
1.0024312
1.0024009
1.0023661
1.0023288
1.002287
1.0022427
1.0021929
1.0021411
1.0020845
1.0020233
1.0019578
1.0018897
1.0018139
1.0017375
1.0016542
1.0015698
1.0014768
1.0013901
1.0008054
1.0007927
1.0007932
1.000797
1.0008002
1.0008045
1.0008096
1.0008152
1.0008221
1.0008287
1.0008373
1.000844
1.0008524
1.0008599
1.0008695
1.0008799
1.0008904
1.0009038
1.0009171
1.0009335
1.000952
1.0009711
1.0009928
1.0010153
1.0010387
1.0010632
1.0010891
1.0011145
1.0011427
1.001171
1.0012012
1.0012302
1.0012629
1.0012949
1.0013284
1.0013625
1.0013977
1.0014329
1.0014695
1.0015064
1.001543
1.0015814
1.0016191
1.001657
1.0016952
1.0017343
1.0017715
1.0018105
1.0018487
1.001885
1.0019244
1.0019601
1.0019973
1.0020345
1.0020697
1.0021035
1.0021385
1.002171
1.002204
1.002234
1.0022655
1.002293
1.002323
1.0023471
1.0023735
1.0023945
1.0024165
1.0024393
1.0024558
1.002473
1.0024874
1.0025027
1.0025122
1.0025229
1.0025285
1.0025349
1.0025374
1.0025379
1.0025344
1.0025312
1.0025209
1.0025112
1.0024956
1.0024788
1.0024582
1.0024334
1.0024074
1.0023758
1.0023408
1.0023048
1.0022611
1.0022157
1.0021663
1.0021149
1.0020583
1.0020001
1.0019356
1.0018699
1.0017978
1.0017241
1.001643
1.0015629
1.0014721
1.0013857
1.0008052
1.0007928
1.0007927
1.0007966
1.0007998
1.0008035
1.0008088
1.000814
1.0008207
1.000827
1.0008349
1.0008409
1.0008488
1.000856
1.000865
1.0008753
1.0008858
1.0008987
1.0009127
1.0009291
1.0009473
1.0009672
1.0009881
1.0010104
1.0010339
1.0010577
1.0010833
1.0011088
1.0011367
1.0011643
1.0011942
1.0012239