-0.5 	1.0142812
-0.48412699 	1.01781
-0.46825397 	1.0233412
-0.45238095 	1.0270871
-0.43650794 	1.0242311
-0.42063492 	1.0259538
-0.40476191 	1.0174561
-0.3888889 	1.0152957
-0.37301588 	1.0183112
-0.35714287 	1.0088403
-0.34126985 	1.0077675
-0.32539684 	1.0062079
-0.30952379 	1.0083339
-0.29365078 	1.0012856
-0.27777776 	1.0012746
-0.26190475 	1.0027827
-0.24603173 	1.0050795
-0.23015872 	1.0040572
-0.2142857 	0.99921818
-0.19841269 	0.99925825
-0.18253967 	1.0045209
-0.16666666 	1.0012989
-0.15079364 	1.0014707
-0.13492063 	1.0017157
-0.11904758 	1.0034004
-0.10317457 	1.0030541
-0.087301552 	1.0016447
-0.071428537 	1.0017738
-0.055555522 	1.0039686
-0.039682507 	0.99929676
-0.023809493 	1.0006597
-0.0079364777 	0.99764001
0.0079365373 	0.99732329
0.023809552 	0.99675395
0.039682567 	0.99731305
0.055555582 	0.99496008
0.071428597 	0.99249793
0.087301612 	0.99312687
0.10317463 	0.99354058
0.11904764 	0.99107747
0.13492066 	0.990763
0.15079367 	0.99076386
0.16666669 	0.98881913
0.1825397 	0.98617833
0.19841272 	0.98694485
0.21428573 	0.98791937
0.23015875 	0.98889595
0.24603176 	0.98880799
0.26190484 	0.98933408
0.27777785 	0.98893678
0.29365087 	0.98807961
0.30952388 	0.98883431
0.3253969 	0.98749569
0.34126991 	0.98703518
0.35714292 	0.98598874
0.37301594 	0.98442395
0.38888895 	0.98250146
0.40476197 	0.98020942
0.42063499 	0.97767632
0.436508 	0.97508659
0.45238101 	0.97251758
0.46825403 	0.96946645
0.48412704 	0.9654069
0.5 	0.9627614
