/*--------------------------------*- C++ -*----------------------------------*\
| =========                 |                                                 |
| \\      /  F ield         | OpenFOAM: The Open Source CFD Toolbox           |
|  \\    /   O peration     | Version:  2406                                  |
|   \\  /    A nd           | Website:  www.openfoam.com                      |
|    \\/     M anipulation  |                                                 |
\*---------------------------------------------------------------------------*/
FoamFile
{
    version     2.0;
    format      ascii;
    arch        "LSB;label=32;scalar=64";
    class       surfaceScalarField;
    location    "50";
    object      phi;
}
// * * * * * * * * * * * * * * * * * * * * * * * * * * * * * * * * * * * * * //

dimensions      [1 0 -1 0 0 0 0];

oriented        oriented;

internalField   nonuniform List<scalar> 
40800
(
0.00074215599
0.00088334446
-0.00072387689
0.00080572447
0.00087980823
-0.00077944753
0.00085663307
0.0009848913
-0.0010228934
0.00090099974
0.00083690389
-0.0010298262
0.00096370056
0.00072007271
-0.00068606024
0.0010116826
0.0007081292
-0.00082646127
0.0010652919
0.000616143
-0.00066078206
0.001112313
0.00060680376
-0.00066356788
0.0011535305
0.00054229584
-0.00057903557
0.0011966653
0.00049196171
-0.00049377556
0.0012320924
0.00048262121
-0.00054184164
0.0012655617
0.00045564817
-0.00047358703
0.0012974602
0.00043021863
-0.00046100243
0.0013268531
0.00044627904
-0.00047657924
0.0013468502
0.00040617202
-0.00043262306
0.0013829686
0.00040625619
-0.0004236131
0.0014126206
0.00049202277
-0.00053133138
0.001410998
0.00041745753
-0.00046533397
0.0014863417
0.000501113
-0.00051340393
0.0014659749
0.0005702537
-0.00063634141
0.0014874711
0.00046637342
-0.00051868242
0.0015541339
0.00060353044
-0.00063171616
0.0015877852
0.00071300623
-0.00076527963
0.0015578079
0.00062461796
-0.00068390056
0.001630226
0.00065679003
-0.00066054979
0.0017675206
0.00084742981
-0.00085375782
0.0017974395
0.0010423066
-0.0010840194
0.0018310347
0.0010818458
-0.0011574538
0.0019120166
0.00098485823
-0.0011154008
0.0019248906
0.0010074052
-0.001117293
0.0011959174
0.0020085276
-0.0011955495
0.00074155786
0.0010389525
0.00081489809
0.00099201168
0.00086161332
0.00091358553
0.00090583959
0.00065193914
0.00096696676
0.00075648027
0.0010092311
0.00058532211
0.0010628185
0.000585619
0.0011076552
0.0005455973
0.0011497263
0.00050460045
0.0011922437
0.00049034537
0.0012258602
0.00042391517
0.001258838
0.00042326426
0.0012915953
0.00039362262
0.0013176115
0.00040241192
0.0013392854
0.00038356485
0.0013796774
0.00040574596
0.0013938796
0.00044394601
0.0014076474
0.00038059002
0.0014821171
0.00048412953
0.0014412646
0.00049797597
0.0014975909
0.00044460694
0.0015613706
0.00059566308
0.0015608808
0.00064557962
0.0015534678
0.00060308151
0.0016534504
0.00069993539
0.0018023736
0.00084468252
0.0018012649
0.00092846574
0.0017690569
0.00094759374
0.0018743388
0.00090682472
0.0019469755
0.00089733978
0.0011265488
0.0020081163
0.00073578721
0.0011100245
0.00081555944
0.0010262584
0.0008619187
0.00078917834
0.00091101119
0.00051291043
0.00096968294
0.00076208405
0.0010115029
0.00049546812
0.00106259
0.00056798139
0.0011054424
0.00048333503
0.0011482493
0.00046110783
0.0011873642
0.00047045518
0.0012216376
0.00038743471
0.0012527556
0.00038854623
0.0012862902
0.00036819482
0.0013105585
0.00035722084
0.0013350572
0.00035846987
0.0013749166
0.00039848477
0.0013782059
0.00039364626
0.00140682
0.00036280927
0.0014712761
0.00046974632
0.0014226023
0.00042461073
0.0015086848
0.00044951167
0.0015576641
0.00057946122
0.0015448731
0.00058183117
0.0015668163
0.00057218172
0.0016655883
0.00074463756
0.0017941644
0.00084134661
0.0017845813
0.00079564574
0.0017310278
0.00076515687
0.0018394539
0.00083291366
0.0019991814
0.00085577468
0.00098999501
0.0020615877
0.00072777127
0.0010521765
0.00080803977
0.0009285462
0.00085680385
0.00063712644
0.00091253134
0.000450259
0.00096714195
0.00071104215
0.0010143449
0.00046540926
0.0010625181
0.00055144444
0.001105152
0.00044605487
0.0011478755
0.00042603631
0.0011832152
0.00042445217
0.0012193774
0.00037988838
0.0012481183
0.00035622628
0.0012808522
0.00034596069
0.0013046057
0.0003271191
0.0013319021
0.00033099286
0.0013679349
0.0003923922
0.0013674482
0.00034925411
0.0014080972
0.00035831239
0.0014551331
0.00045994385
0.0014149687
0.00036342296
0.0015147943
0.00046944504
0.0015445098
0.0005685711
0.0015270519
0.00052402815
0.001589192
0.00051952725
0.0016668682
0.00073350653
0.0017486697
0.00081288259
0.0017425719
0.00068956247
0.0017157809
0.0006243972
0.001804232
0.00074055402
0.0020104583
0.00085868839
0.0009108767
0.0021084395
0.00072000035
0.00084585808
0.0007962734
0.00072906172
0.00084865399
0.00051802313
0.00091225296
0.00049437347
0.00096124571
0.00061931038
0.0010154657
0.00048856034
0.0010613762
0.00051536757
0.0011061522
0.0004331584
0.0011474137
0.00041210037
0.001181047
0.00037132385
0.0012178162
0.00037526138
0.0012454687
0.00032308211
0.0012765555
0.00033272185
0.0012996703
0.00030693677
0.001330617
0.00031478821
0.0013580214
0.00037752418
0.0013611866
0.00031002863
0.0014105954
0.00036587011
0.0014353866
0.00044695026
0.0014183026
0.00032317968
0.001516849
0.00047092721
0.0015267409
0.00055253688
0.001507722
0.00046352497
0.0016126562
0.00047910156
0.001665323
0.00066491214
0.001688544
0.00072795602
0.0016941273
0.00059370716
0.0017169165
0.00057704591
0.0017946437
0.00070902476
0.0019648547
0.00085090984
0.00085881946
0.002095658
0.00071500094
0.00052925477
0.0007850999
0.00049592948
0.0008404603
0.0004835417
0.00090708758
0.00060475405
0.00095326275
0.00050923544
0.0010124413
0.00052496395
0.0010562446
0.00046028197
0.001103723
0.00042141951
0.0011437813
0.00040196964
0.0011790107
0.00033601476
0.0012139398
0.00035651303
0.0012445624
0.00030397515
0.0012737989
0.00032864435
0.0012972457
0.00029025427
0.0013311286
0.00031222404
0.0013475511
0.00034307717
0.0013604969
0.00028274224
0.001413006
0.00036298231
0.0014156717
0.00041383836
0.0014291879
0.00031065139
0.0015168106
0.00046776923
0.001502459
0.0004930384
0.0014926243
0.00041021802
0.0016282447
0.00045868266
0.0016599154
0.00057900542
0.0016316064
0.00061134935
0.0016645178
0.00051734326
0.0017372839
0.00054072952
0.0018156925
0.00072416087
0.0019112854
0.0008626964
0.00084802885
0.0020192185
0.00071397315
0.0002259845
0.0007776634
0.00028845545
0.0008342247
0.0005439427
0.00089674401
0.00068535752
0.00094268702
0.00039403942
0.0010023712
0.00053595048
0.0010465895
0.0004032299
0.0010959154
0.00040419538
0.0011356803
0.00037447462
0.001174337
0.00031932659
0.001207016
0.00032333545
0.0012415576
0.00029073088
0.0012678798
0.00031382491
0.0012950441
0.00027669669
0.0013296122
0.00031278736
0.0013379707
0.00030444782
0.0013616553
0.00025995642
0.0014123222
0.00035119914
0.001398256
0.00036388777
0.0014415446
0.00029877168
0.0015085051
0.0004578216
0.0014804604
0.00041100149
0.001483642
0.00036974676
0.0016265693
0.00046570224
0.0016456394
0.00050312663
0.0015899594
0.00049604371
0.0016518897
0.00049398842
0.0017782572
0.00052306485
0.0018560857
0.00067866315
0.0018856663
0.00081246032
0.00082460328
0.0019263028
0.00071717603
6.2733603e-05
0.00077703283
0.00017315612
0.0008316274
0.0006587208
0.00088295174
0.00069559351
0.00093174267
0.00030814574
0.00098711631
0.00049278552
0.0010337278
0.00035331426
0.0010821644
0.00037368672
0.0011223681
0.00032417465
0.001163876
0.00030997246
0.0011955731
0.00028022805
0.0012334429
0.0002695916
0.0012575085
0.00027893039
0.0012895321
0.00026188085
0.0013212425
0.00029468841
0.0013266774
0.00026083054
0.0013616827
0.00025894652
0.0014044371
0.00033742678
0.0013804993
0.0002948693
0.0014510819
0.00029200034
0.0014874457
0.00042574377
0.0014618557
0.00032152938
0.0014821244
0.00032681533
0.0016097851
0.00049432323
0.0016252332
0.00046058772
0.0015710191
0.00038668315
0.0016335366
0.00048020885
0.0017983638
0.00056967764
0.0018834247
0.00061134254
0.001882618
0.00066294161
0.00069599853
0.001866097
0.00072696452
5.8521606e-05
0.0007866091
0.00019097581
0.00083640144
0.00075445375
0.00087646502
0.00062830344
0.00092743037
0.00028314469
0.00097411194
0.00040326224
0.0010213515
0.00032395321
0.0010654917
0.00032810743
0.0011053525
0.00027008242
0.0011450922
0.00029255093
0.0011777286
0.00023529142
0.0012181102
0.00026323355
0.0012418884
0.00023591136
0.001278171
0.00025357379
0.0013061698
0.00026865363
0.0013157524
0.00023191719
0.0013572881
0.0002629974
0.001386864
0.00030506164
0.0013667604
0.00023015887
0.0014542558
0.00030164427
0.0014565554
0.00038436793
0.0014466513
0.00024520197
0.0014937063
0.0002977936
0.0015824019
0.00050597339
0.0015927201
0.00044773954
0.0015755453
0.00032584675
0.0016300142
0.00043496951
0.001773706
0.00060456959
0.0018597778
0.00058751137
0.0018532322
0.00051762136
0.00052102716
0.0018202274
0.00076280339
0.00018718528
0.00080610956
0.00031807831
0.00084603976
0.0007538489
0.00087900421
0.00047205463
0.00093178526
0.00031241513
0.00097209618
0.00030605834
0.0010174203
0.00031730926
0.0010561137
0.00028021458
0.0010962237
0.00023593215
0.0011303244
0.00025518736
0.0011642256
0.0002009101
0.0011997715
0.00025535126
0.0012237342
0.00018599008
0.0012600299
0.00023726157
0.0012839248
0.00023101314
0.0012996603
0.00018418925
0.0013436794
0.00026272127
0.0013617945
0.00027572483
0.0013562838
0.00018217429
0.0014476069
0.00030224572
0.0014184752
0.00034050484
0.0014337437
0.00019680392
0.0015119197
0.00028180391
0.0015528984
0.00047885554
0.0015504622
0.00041449642
0.0015819166
0.00032276396
0.0016489614
0.00039798812
0.0017305274
0.0005627831
0.0017941519
0.00054549725
0.0018044544
0.00041712232
0.00037681873
0.0017938306
0.00085892812
0.00040607162
0.0008527961
0.00048838381
0.00087457699
0.00061587247
0.00090250675
0.00027519167
0.00094937556
0.0003670806
0.00098196753
0.00023651435
0.0010228238
0.00030398915
0.0010588128
0.00024055604
0.0010980782
0.00023226467
0.0011272874
0.00021095545
0.0011637719
0.00019073839
0.0011902061
0.00022263385
0.0012160884
0.00015321912
0.0012456218
0.00021668072
0.0012618299
0.00019418484
0.00128409
0.00015834356
0.0013215723
0.00025700006
0.0013285264
0.0002434933
0.0013437183
0.00016072614
0.0014283786
0.0002980073
0.0013744628
0.00028417517
0.0014208801
0.00019236431
0.0015245798
0.00026894319
0.0015207184
0.00041793124
0.0015108076
0.00035197283
0.0015761064
0.00030254699
0.001665522
0.00038583292
0.0016932076
0.00049656606
0.0017156764
0.00048334397
0.0017383205
0.00035902817
0.0002915828
0.0017793516
0.00090275648
0.00056457529
0.0009093207
0.00057814253
0.00092109584
0.00038953084
0.00095153603
0.00014259206
0.0009902632
0.00040732713
0.0010170879
0.00021688215
0.0010492058
0.00027262483
0.0010821846
0.0002150122
0.0011147247
0.00024234193
0.0011385922
0.00017714165
0.0011728105
0.00020278588
0.0011897787
0.00018165617
0.0012183353
0.00014589782
0.0012393392
0.00018837305
0.0012513275
0.0001681113
0.001279934
0.00015974303
0.00130547
0.0002293772
0.0013035354
0.00021150586
0.001337343
0.00016403797
0.0014046426
0.00028869508
0.0013396916
0.00021949845
0.0014048697
0.00021625464
0.0015209369
0.00027836655
0.001479899
0.00033077613
0.0014693424
0.00028651426
0.0015615743
0.00025682069
0.00166598
0.0003472362
0.0016664798
0.00040856644
0.0016534931
0.00041246604
0.0016818725
0.00034384022
0.0003002379
0.0017650126
0.00089264195
0.00055638005
0.00092750086
0.00053415728
0.00094617916
0.00019066635
0.0009909215
0.00011078572
0.001029965
0.00038889493
0.0010638608
0.00023457877
0.0010942205
0.00022511225
0.001127084
0.00020118054
0.0011515568
0.00023246359
0.001173071
0.0001597878
0.0011994064
0.00021336562
0.0012081633
0.0001519731
0.0012331787
0.0001568119
0.0012441637
0.00015423536
0.0012528741
0.00015144743
0.0012832326
0.00016549899
0.0012989116
0.00020200935
0.0012921927
0.00016918514
0.0013411726
0.00017997573
0.0013843941
0.00026989989
0.001330237
0.0001482815
0.0013960238
0.00023423221
0.0015078298
0.00031606228
0.0014492568
0.00023629281
0.0014305111
0.00021169099
0.0015407884
0.00024579063
0.0016396996
0.00029781299
0.0016338594
0.00029052271
0.0016060144
0.00030035719
0.0016406415
0.00032369512
0.00035287111
0.0017464505
0.00083827901
0.00035727235
0.00090433386
0.00034503438
0.00093935939
0.00011758167
0.00099332626
0.0001646772
0.0010292888
0.00030688916
0.0010697651
0.00024772971
0.0011029446
0.00017730969
0.001142103
0.00018699279
0.0011684247
0.00018873639
0.0011994229
0.00015593983
0.001223995
0.00020003956
0.0012362075
0.0001295396
0.0012593639
0.00017632414
0.0012666861
0.00013221532
0.0012748231
0.00013712169
0.0013040352
0.00018973583
0.0013103996
0.00017380518
0.0013046431
0.00012420599
0.0013593236
0.00020711653
0.0013734751
0.00025053466
0.0013472101
8.1459115e-05
0.0014045347
0.00023275211
0.001485533
0.0003452141
0.0014353328
0.00015667894
0.0014203061
0.00012557124
0.0015252326
0.00026373695
0.0016020137
0.00029257224
0.0016014852
0.00020453736
0.0015799097
0.00017761995
0.0016168673
0.00025288666
0.00035409697
0.0017239478
0.00079342488
6.8911434e-05
0.00085768694
0.00011359843
0.00090770016
0.00019248383
0.00096715979
0.0002777499
0.0010049257
0.00018259129
0.001051811
0.00024021105
0.0010897113
0.00015739762
0.0011303163
0.00017372827
0.0011588322
0.00013033625
0.0011953076
0.00016024678
0.001219476
0.00015858261
0.001244997
0.00010911123
0.0012729545
0.00016871542
0.0012911742
0.00011534921
0.0013088886
0.00012423417
0.001336194
0.00020464798
0.0013407434
0.00015304053
0.0013474126
0.00010180133
0.001398678
0.00021232174
0.0013823387
0.00022667114
0.0013944953
4.5204085e-05
0.0014435375
0.0002015975
0.0014715558
0.00033323538
0.0014439294
0.00011951423
0.0014542983
5.9021588e-05
0.001531792
0.00025983496
0.0015731196
0.0003179437
0.0015802127
0.00018969713
0.0015825287
0.00011339363
0.0016215413
0.00018445564
0.00031034206
0.0017031677
0.00079537559
-0.00020880861
0.00084164014
-4.7005767e-05
0.00088327707
0.00040900816
0.00093309024
0.00038833817
0.00096852288
6.9709732e-05
0.0010160834
0.00021479602
0.0010585618
0.00016540663
0.001098249
0.00016091387
0.0011331798
8.0865742e-05
0.0011730721
0.00015670402
0.0011993037
0.00011005969
0.001234498
8.7737496e-05
0.0012620301
0.0001313288
0.0012899038
0.00010295506
0.0013232112
0.00010432803
0.001350365
0.00018955945
0.0013621428
0.00013728824
0.0013885891
8.2823776e-05
0.0014359107
0.00019100696
0.001397772
0.00018362688
0.001448796
5.0945717e-05
0.0014991001
0.00015586374
0.0014731405
0.00026717922
0.0014590808
0.00012576208
0.001519966
4.6586386e-05
0.0015691181
0.0002180435
0.0015626819
0.00030968403
0.0015672854
0.00021002787
0.0016020676
0.00010932487
0.0016531552
0.0001533437
0.00026454282
0.0016982077
0.00083189731
-0.00034094997
0.0008585753
-9.0740371e-05
0.00089112771
0.00061363183
0.00092790406
0.00040276459
0.00096185618
1.3842065e-05
0.001000501
0.0001591138
0.0010389143
0.00016826562
0.0010716052
0.00014574234
0.0011082241
6.5462588e-05
0.0011440199
0.00013595002
0.0011719526
8.1060579e-05
0.0012121449
6.4848702e-05
0.0012400222
8.5562179e-05
0.0012752637
8.8847079e-05
0.0013126927
8.2001145e-05
0.0013307803
0.00015600898
0.0013447671
0.00011299107
0.0013882836
7.6982291e-05
0.0014299882
0.00016091517
0.0013816361
0.00012001863
0.0014626724
8.110177e-05
0.0015191543
0.00013162133
0.0014616146
0.00016460497
0.0014590642
0.00011835157
0.0015702353
8.8971552e-05
0.001610544
0.00018493075
0.0015665025
0.00024516116
0.0015643465
0.0002082237
0.0016297578
0.00013860526
0.0017001361
0.00014500446
0.00020312681
0.0017211164
0.000906284
-0.00026447769
0.0009044805
-1.3229302e-05
0.00091795342
0.00063027326
0.00094211102
0.00029570756
0.00097629709
3.0784452e-05
0.0010074266
0.00010293247
0.0010410935
0.00015224549
0.001069941
0.00011472693
0.0011075733
7.869638e-05
0.0011344823
9.5284736e-05
0.001159091
6.0097033e-05
0.0011946724
5.7615107e-05
0.0012179411
5.0206025e-05
0.0012449992
7.9775825e-05
0.0012942825
5.3954186e-05
0.0013059844
0.00010399434
0.0013204074
8.9583022e-05
0.0013709677
9.2149161e-05
0.0014002814
0.00011964961
0.0013534356
4.7929023e-05
0.0014432941
0.0001184818
0.0014991105
0.00013137072
0.0014332029
7.516826e-05
0.0014315941
7.5106788e-05
0.0015658843
0.00015037296
0.0016056327
0.00016815427
0.0015499926
0.00014814181
0.001537851
0.00016206636
0.0016191157
0.00016550122
0.0017059677
0.0001567106
0.00014635308
0.0017235675
0.00092233917
-6.8820515e-05
0.00094525725
0.00012793298
0.00095051897
0.00041716588
0.00097527754
0.00010827883
0.0010100542
0.00010345636
0.0010330127
7.9460733e-05
0.0010615313
0.00010411858
0.0010880395
7.018893e-05
0.001120664
8.906883e-05
0.0011404787
5.3146508e-05
0.0011637085
4.2435383e-05
0.0011940628
5.9217195e-05
0.0012124485
3.026575e-05
0.0012345919
6.1288828e-05
0.0012628062
4.5612885e-05
0.0012681298
6.0155972e-05
0.001284053
6.6559381e-05
0.0013327163
0.00010201007
0.0013518992
7.8966848e-05
0.0013229813
-1.5003396e-05
0.0014042188
0.00015063393
0.0014520821
0.00013431013
0.0013974699
9.2628287e-06
0.0014069093
3.1151162e-05
0.0015295482
0.00018759891
0.0015658059
0.00015450369
0.0015230478
5.207594e-05
0.0015113983
6.543869e-05
0.0015860406
0.00015738846
0.0016719005
0.00018257325
0.00011652175
0.0016990362
0.00088396881
9.4403275e-05
0.00094894964
0.00022739048
0.00095888374
0.00014441017
0.00099469343
-7.4034328e-05
0.0010368988
0.0001606752
0.0010637412
6.6932505e-05
0.0010903042
4.5229579e-05
0.0011157222
2.7967646e-05
0.0011443985
7.6236999e-05
0.0011603428
2.6016668e-05
0.0011807345
3.6864475e-05
0.001202489
6.1117668e-05
0.0012156485
2.1525765e-05
0.0012211564
4.1762665e-05
0.0012694673
6.5876308e-06
0.0012602929
4.8210324e-05
0.0012743543
4.3037707e-05
0.0013087208
0.00010065009
0.001310241
6.2409619e-05
0.0013095775
-5.3330144e-05
0.0013616196
0.00015358559
0.0013928329
0.00014220326
0.0013608444
-3.0415838e-05
0.0013896441
5.0541324e-06
0.0014746939
0.0001974884
0.0014949803
0.00014709921
0.0014764264
-7.5620037e-06
0.0014860688
-3.5465766e-05
0.0015455296
9.7050445e-05
0.0016036917
0.00017741237
0.000114774
0.0016333949
0.0009608633
0.00015652626
0.00097735657
0.0002599679
0.00097837688
-9.7481257e-06
0.001018981
-0.0001800985
0.0010556399
0.00016269657
0.0010823541
5.009648e-05
0.0011101967
-7.5180256e-06
0.001139994
2.406848e-06
0.001163998
4.9634369e-05
0.0011836046
1.3177203e-05
0.0012067654
2.9762726e-05
0.0012245219
5.5915818e-05
0.0012386715
1.5918427e-05
0.0012553549
1.0801537e-05
0.0012592255
1.2737902e-05
0.0012730326
3.3256288e-05
0.0012915327
2.969586e-05
0.0013154834
7.6155039e-05
0.001305872
5.3292509e-05
0.0013411709
-6.2676796e-05
0.0013647151
0.00011948127
0.0013655442
0.00014789034
0.0013612231
-4.3213399e-05
0.0014173709
-4.6160568e-06
0.0014545021
0.00015165212
0.0014439276
0.00015281053
0.0014435909
-2.5884557e-05
0.0014937077
-8.4675274e-05
0.0015419882
2.3468818e-05
0.0015622012
0.00012126104
9.2580568e-05
0.0015871208
0.00098400956
5.7435557e-05
0.00095801453
0.00021128059
0.00097058276
4.6810187e-05
0.0010214123
-0.00015934163
0.001053401
9.8705485e-05
0.0010878644
2.656121e-05
0.0011194164
-1.6045773e-05
0.0011546801
-6.5998665e-06
0.001186556
9.3851478e-06
0.0012105445
1.4528908e-05
0.0012380361
1.2925726e-05
0.0012571733
3.1058235e-05
0.0012762321
1.1372533e-05
0.0012875683
7.609206e-06
0.001344394
-5.0032834e-05
0.0013129124
8.5515316e-05
0.0013418164
2.6028208e-05
0.0013510453
3.6447302e-05
0.0013303684
4.5827929e-05
0.0013975698
-4.0235658e-05
0.0014057566
6.4595253e-05
0.0013778273
0.00011042858
0.0014059636
-2.6071626e-05
0.0014813499
-2.6387579e-06
0.0014978473
6.631984e-05
0.0014474171
0.0001166857
0.0014694693
-2.1956508e-05
0.0015507432
-6.1424809e-05
0.001601797
-1.8935631e-05
0.0015817127
5.5344636e-05
4.4951837e-05
0.0015876342
0.00075493674
0.00081712148
0.0011101838
0.0011320433
0.0011605719
0.0012072224
0.0012503808
0.0012805997
0.0012931916
0.0013385625
0.0013644303
0.0013701311
0.0014038753
0.0014395635
0.0013652724
0.0014773934
0.0015437476
0.0015482896
0.0015429537
0.0016396424
0.0016600123
0.001633254
0.0016702735
0.0017777888
0.0017854739
0.0017219572
0.0017296767
0.0018322936
0.0018740187
0.0018542805
0.0018224773
9.4692617e-05
0.0017729806
0.000187241
0.0015573357
0.00028836142
0.0015245783
0.0003364759
0.001526442
0.00032262918
0.0015503791
0.00029571926
0.0015696322
0.00031219311
0.0016010196
0.00034940857
0.0016351518
0.00039644132
0.0016929189
0.00052781618
0.0017515892
0.00070870778
0.0017864689
0.00079879352
0.0017787733
0.00079650547
0.001749171
0.00079979371
0.0017339925
0.00081418292
0.0017489519
0.00089260678
0.0017884543
0.0010511934
0.0018375152
0.0011137682
0.0018851637
0.001088296
0.0019218825
0.0010285354
0.0019517425
0.00095612974
0.0019779704
0.0010566437
0.0020437342
0.0021392096
0.0012162663
0.00012623055
0.0017227607
0.00017958431
0.0015650299
0.00021755789
0.0015142381
0.00025033728
0.0014910169
0.00029653023
0.0014993111
0.00037166561
0.0015127257
0.00045766824
0.0015307122
0.00050017103
0.0015488634
0.00048798202
0.0015825206
0.0005009853
0.001621838
0.00053439807
0.0016506305
0.00053350716
0.0016638577
0.00056361945
0.001697337
0.00068843954
0.001755064
0.00080716761
0.0018141863
0.00093059625
0.001854537
0.0010506479
0.0018641087
0.0010644689
0.0018388501
0.0010398063
0.0018126589
0.00099425614
0.0018076123
0.00099192847
0.0018421426
0.0011444882
0.0019408545
0.0020648013
0.0012595004
5.108089e-06
0.0016137649
-1.6825677e-05
0.0014925335
9.1111185e-06
0.0014613048
8.9841038e-05
0.0014726259
0.00023622041
0.001508051
0.00040399442
0.0015322344
0.00052446099
0.0015368372
0.00055565533
0.0015210124
0.00052186504
0.0015073994
0.00047201455
0.0015052088
0.00044745221
0.0015189996
0.00049558377
0.0015510081
0.00060094025
0.0016103239
0.00070869022
0.0016900977
0.00079436221
0.0017702642
0.00084425232
0.0018182148
0.00082273616
0.0018299092
0.00080193424
0.001820793
0.00087279707
0.0018161986
0.00098130702
0.0018327208
0.0011277148
0.0018617778
0.0013026567
0.0018920132
0.0019155662
0.0013305729
-5.7524928e-05
0.001528813
-3.603649e-05
0.0013948258
2.4221504e-05
0.0014002559
0.00014565185
0.0014229807
0.00026382343
0.001467205
0.00033824479
0.0014899451
0.00035681401
0.0014974714
0.00034413815
0.0014914777
0.00033794794
0.001489432
0.00036880077
0.0014994661
0.00045915267
0.001524465
0.0006163033
0.0015566463
0.00077749368
0.0015853475
0.00084567024
0.0016105351
0.00082250535
0.0016350169
0.00073920454
0.0016530776
0.00062616635
0.0016660351
0.0006132811
0.0017023734
0.00074564551
0.0017806208
0.00093704476
0.0018671456
0.0011081672
0.001926801
0.0012315399
0.0019387785
0.0019025508
0.0012330578
0.00015568022
0.0013863602
0.00018519671
0.0014117614
0.00027714691
0.0013514352
0.00029084043
0.0013848955
0.00028591566
0.0013808756
0.00024896922
0.0014005577
0.00020697331
0.0014082332
0.00018176915
0.001418297
0.00021492587
0.0014432918
0.0003241828
0.0014864937
0.00048076181
0.001534049
0.00062353033
0.0015664009
0.0007039595
0.0015768457
0.00072881169
0.0015784012
0.00070464118
0.0015748384
0.00063972599
0.0015699534
0.00063362921
0.0015788041
0.0007441594
0.0016177649
0.00088489598
0.001694916
0.00098218043
0.0017853239
0.0010105917
0.0018555498
0.00097297519
0.0018844245
0.0018749201
0.0009032474
4.0302683e-05
0.0014494899
0.0001559285
0.0013654437
0.00019768204
0.0013231853
0.0002198014
0.0013253914
0.0001930431
0.0013207506
0.0001698616
0.0013313441
0.0001868556
0.001339501
0.00025465967
0.0013565993
0.00035422589
0.0013854435
0.00044779759
0.0014229413
0.0004999534
0.0014627676
0.00050593978
0.0014953697
0.00048058862
0.0015162024
0.00044448618
0.0015304602
0.00043331015
0.0015527564
0.00050904315
0.0015831075
0.00069404484
0.0016201103
0.00091777119
0.0016446961
0.0010667484
0.0016626362
0.0010782169
0.0016887786
0.00096787484
0.0017119219
0.00080629456
0.0017277923
0.001741253
0.00071000908
-6.3858014e-05
0.0015131076
-3.4554991e-05
0.0013062733
-3.6509913e-05
0.0012755244
1.4193496e-05
0.0012731124
6.6248098e-05
0.0013011025
0.00016768845
0.0013168787
0.00029065001
0.0013283263
0.00040489021
0.0013341808
0.00048578288
0.0013440558
0.00052473068
0.0013631592
0.00050665244
0.0013864393
0.00042717319
0.0014076247
0.00032973145
0.0014285352
0.0002959175
0.001458765
0.00036228897
0.001509755
0.00050708582
0.0015674746
0.00068326308
0.0016187702
0.00084093269
0.0016490867
0.00093599848
0.0016523778
0.00092728785
0.0016452894
0.00083680967
0.0016370909
0.00075151729
0.001639983
0.0016494095
0.00075918431
4.5703962e-05
0.0013397783
1.5149036e-05
0.0012385183
2.1042044e-05
0.0012416566
6.492611e-05
0.0012595703
0.00015035593
0.0012953902
0.00024489194
0.0013187102
0.0003335807
0.0013368502
0.00040284759
0.0013394865
0.0004417977
0.0013383582
0.0004411544
0.0013390925
0.00040186506
0.0013448298
0.00034746661
0.0013582426
0.00033742344
0.0013808697
0.00040132597
0.0014116367
0.0005174572
0.0014553401
0.00062764484
0.0015048597
0.00068166131
0.0015479629
0.00066851578
0.0015779848
0.00062100191
0.0015899053
0.00057946331
0.0015972819
0.00058710708
0.0016129078
0.00067332406
0.0016415199
0.0016659161
0.00082693405
0.00031120079
0.00097764328
0.00037101386
0.0011591016
0.00037314071
0.0012533654
0.00037380203
0.001283554
0.00037622626
0.0013004809
0.0003571807
0.0013127444
0.00031264124
0.0013248869
0.00025632471
0.0013316695
0.0002149472
0.0013328714
0.00020104417
0.0013346285
0.00022713994
0.0013413677
0.00030085661
0.0013562382
0.00040651992
0.0013784342
0.0005265658
0.001400533
0.00063469257
0.0014257958
0.00068949919
0.0014528326
0.0006535129
0.001475518
0.00053886112
0.0014941876
0.00040902643
0.0015100037
0.00036697604
0.0015351144
0.0004465503
0.0015786546
0.00060547404
0.0016323683
0.0016771239
0.00079338937
0.00030592626
0.000766284
0.00038120402
0.0011702844
0.00041621945
0.0012752642
0.00041265088
0.0012881987
0.00036890019
0.0012857641
0.00027574192
0.0012810922
0.0001601051
0.0012827024
5.6458731e-05
0.0012956609
1.4882093e-05
0.0013032091
3.7582417e-05
0.0013192171
0.00013665589
0.001339056
0.00027786951
0.0013581398
0.00041159736
0.0013777797
0.00051450891
0.0013945445
0.00056957472
0.0014075668
0.00056911787
0.0014196393
0.000513291
0.0014275405
0.00042679646
0.0014355874
0.0003689921
0.0014482034
0.00038900501
0.0014724198
0.00048817884
0.0015164419
0.00062871121
0.0015726575
0.001622984
0.00076226362
-0.00023186799
0.0010679543
-0.00014108213
0.0011423795
-4.3721452e-05
0.0012185389
1.8154533e-05
0.0012266802
2.1356533e-05
0.0012259234
-4.8383922e-07
0.0012230961
-3.4974353e-05
0.0012235062
-4.2960963e-05
0.0012361274
-1.119887e-05
0.0012511537
5.7721713e-05
0.0012750442
0.00016317553
0.0013021463
0.00025684254
0.0013304115
0.00032163121
0.0013506356
0.00033559159
0.0013670711
0.00031521063
0.0013782288
0.00028412631
0.0013888097
0.00027002777
0.0013977101
0.0002972256
0.0014061686
0.00037074143
0.0014181201
0.00047617477
0.0014342675
0.00059001734
0.0014653437
0.00069559373
0.0015097741
0.0015533783
0.00075562766
-0.00032370023
0.0013722711
-0.00034320799
0.0011392507
-0.00032501816
0.0011760754
-0.00029135476
0.001189157
-0.00022428465
0.0011906056
-0.00014805906
0.0011951659
-6.1036593e-05
0.001188883
3.6115971e-05
0.0011936155
0.0001231577
0.0012013799
0.00019449705
0.0012254868
0.00025589156
0.0012506779
0.0002562507
0.0012784407
0.0002075599
0.001297726
0.00011889243
0.0013138552
2.9783038e-05
0.0013299975
-9.2839194e-06
0.0013494508
3.4704691e-05
0.0013714239
0.00016441047
0.0013923011
0.00033700755
0.0014094131
0.00050203129
0.0014231592
0.00063058746
0.0014437909
0.00071167556
0.0014749771
0.0015091532
0.00071687212
-0.00031947412
0.0015521501
-0.00046858925
0.0011773542
-0.00050989383
0.0011651167
-0.00047193835
0.0011636925
-0.00037204559
0.0011665216
-0.00023791116
0.0011731885
-8.0157928e-05
0.0011671239
8.1484851e-05
0.0011699766
0.00021219174
0.0011745114
0.00028302325
0.0011947619
0.00028950311
0.0012125469
0.0002239322
0.001235916
0.00010870022
0.0012505346
-1.8602584e-05
0.0012647761
-0.00011802803
0.001283361
-0.00013033253
0.001312671
-5.5508569e-05
0.0013439118
9.6885299e-05
0.0013737984
0.00027874787
0.0013943249
0.00045038998
0.0014091739
0.00056809418
0.0014240982
0.00060898618
0.0014452689
0.0014710027
0.00057427442
-0.00034873932
0.0017351122
-0.00054317433
0.0012488008
-0.00058801314
0.0011519125
-0.00052679389
0.001111985
-0.00041789451
0.0011268294
-0.00026439032
0.0011342096
-0.00010638388
0.0011422355
4.1314005e-05
0.0011519391
0.0001503494
0.0011593438
0.00019857182
0.0011746094
0.00017501916
0.0011887778
0.00011061676
0.0012076482
2.2752959e-05
0.0012212162
-6.2730463e-05
0.0012343646
-0.00011128144
0.0012518564
-0.00010725503
0.0012784819
-3.8315561e-05
0.001308106
8.2210933e-05
0.0013398426
0.00022697862
0.0013655833
0.00034831903
0.001381215
0.00040770437
0.00139291
0.00040294286
0.0014094067
0.0014311028
0.00035319723
3.1046692e-05
0.0016400838
-0.00014155523
0.0013859199
-0.00021658142
0.001212255
-0.00021151544
0.0011238205
-0.0001640299
0.001109127
-0.00010149991
0.0011121472
-4.8759057e-05
0.0011249494
-1.015132e-05
0.0011387028
3.1252066e-06
0.0011511532
1.1815524e-06
0.0011647427
-1.8091308e-05
0.0011772515
-3.9045309e-05
0.0011912926
-5.7024231e-05
0.0012040559
-6.805629e-05
0.0012161103
-6.4053883e-05
0.0012326234
-2.8819189e-05
0.0012578639
3.68301e-05
0.0012878684
0.00011276571
0.0013185839
0.00017882318
0.0013441486
0.00020227849
0.0013615361
0.00018763907
0.0013732017
0.00014970523
0.0013910321
0.0014130486
0.00010592585
0.00030241211
0.0013946531
0.00032714727
0.0014163433
0.00027432418
0.0013078789
0.00023927525
0.0011849184
0.0002017809
0.0011367899
0.00014651046
0.0011200525
6.449636e-05
0.0011322606
-2.7646259e-05
0.0011410281
-0.00012218736
0.0011529476
-0.00019451575
0.0011630045
-0.00022354382
0.0011747946
-0.00020331659
0.001188734
-0.0001466258
0.0012022683
-6.6942783e-05
0.0012165905
1.7271989e-05
0.0012334669
8.8456729e-05
0.0012554516
0.00013176837
0.0012840601
0.00013964874
0.0013119448
0.00011671797
0.0013370165
5.5107065e-05
0.001354556
-2.0428476e-05
0.0013695631