/*--------------------------------*- C++ -*----------------------------------*\
| =========                 |                                                 |
| \\      /  F ield         | OpenFOAM: The Open Source CFD Toolbox           |
|  \\    /   O peration     | Version:  2406                                  |
|   \\  /    A nd           | Website:  www.openfoam.com                      |
|    \\/     M anipulation  |                                                 |
\*---------------------------------------------------------------------------*/
FoamFile
{
    version     2.0;
    format      ascii;
    arch        "LSB;label=32;scalar=64";
    class       volScalarField;
    location    "50";
    object      T;
}
// * * * * * * * * * * * * * * * * * * * * * * * * * * * * * * * * * * * * * //

dimensions      [0 0 0 1 0 0 0];

internalField   nonuniform List<scalar> 
20580
(
1.0031479
1.0033277
1.0028394
1.0031986
1.0032088
1.0034386
1.0039922
1.0035505
1.0038354
1.0039443
1.0037648
1.0038654
1.0040401
1.0038112
1.0041523
1.0041818
1.0038376
1.0043003
1.0042709
1.0037138
1.0048927
1.0043436
1.0040194
1.0043919
1.0054993
1.0037314
1.0030478
1.0037523
1.0035178
1.0042026
1.0056313
1.0029686
1.0033062
1.0028402
1.0032375
1.0031119
1.0034583
1.0039807
1.0034769
1.0037883
1.0039671
1.0036821
1.0038853
1.0039525
1.0037988
1.0042297
1.0040835
1.0038022
1.004554
1.0039361
1.0040822
1.005199
1.0039619
1.0042398
1.0048703
1.0053856
1.0029225
1.0020002
1.0041169
1.0046819
1.0036457
1.0047955
1.00273
1.0030246
1.0029429
1.0032802
1.0032777
1.0035573
1.0037524
1.0034586
1.003665
1.0039066
1.0036413
1.0039689
1.0038649
1.003877
1.0042222
1.0039655
1.0038263
1.0046942
1.0036405
1.0043309
1.0051593
1.0034936
1.004311
1.0048972
1.0050706
1.0027937
1.0018119
1.0042234
1.0058433
1.0035797
1.0027667
1.0025596
1.0025528
1.0030719
1.0032966
1.0035507
1.0036945
1.0034595
1.0035611
1.0036052
1.0037626
1.0036702
1.004025
1.0037977
1.0039595
1.0041266
1.0038646
1.0039059
1.0046976
1.0034447
1.0044355
1.0048931
1.003118
1.0043663
1.0044981
1.0043684
1.0032782
1.0026328
1.0043918
1.0060396
1.0041728
1.0017004
1.0022978
1.0021771
1.0032062
1.0033515
1.0037589
1.0037193
1.0032251
1.0036963
1.0036709
1.003609
1.0037661
1.0039123
1.0038364
1.0039907
1.004022
1.0038732
1.0039946
1.0046039
1.0034212
1.0044446
1.004404
1.0030249
1.0046066
1.0040928
1.0034166
1.0037784
1.0038944
1.0049204
1.0054818
1.0042384
1.0017041
1.0020166
1.0019593
1.003203
1.0033976
1.0037255
1.0035856
1.0031999
1.00377
1.0037586
1.0035175
1.0038981
1.0037666
1.0039165
1.0039691
1.0039061
1.0038727
1.0041277
1.004311
1.0035856
1.0045448
1.0039554
1.0030271
1.005022
1.0039793
1.0026408
1.0040448
1.0048987
1.0048226
1.0047388
1.0040178
1.0025062
1.0020766
1.0019627
1.0030798
1.0034288
1.0034626
1.003395
1.0034029
1.003747
1.0037188
1.0035037
1.0039463
1.0036722
1.0039071
1.0039933
1.0037599
1.0039279
1.0042435
1.0038543
1.0038725
1.0046125
1.0036956
1.0032879
1.00543
1.0040882
1.0023617
1.0042503
1.005617
1.0041033
1.0032526
1.0034233
1.0038439
1.0024232
1.002298
1.0029301
1.0034506
1.003193
1.0032103
1.0036668
1.0036375
1.0035424
1.0035889
1.0038297
1.0035821
1.0037814
1.0040157
1.0035825
1.0039239
1.0042972
1.0034997
1.004151
1.0045061
1.0035574
1.0036868
1.0055081
1.0042672
1.0026433
1.0041531
1.0058724
1.003997
1.0018014
1.0022356
1.0041786
1.0028341
1.0028858
1.002896
1.0034148
1.00309
1.0031656
1.003839
1.0034739
1.0033722
1.0037063
1.0036136
1.0036343
1.0036535
1.003967
1.0035493
1.0039725
1.0043216
1.0032386
1.0043685
1.0043203
1.003545
1.0042023
1.0051289
1.0042585
1.0033501
1.004106
1.0051175
1.0042658
1.0017009
1.0016598
1.0037983
1.002883
1.0033225
1.0029615
1.0032529
1.0031737
1.0033109
1.0038104
1.0033703
1.0033412
1.0037428
1.003424
1.0037238
1.0035909
1.0037909
1.0036854
1.0038855
1.0041662
1.0032929
1.0045474
1.00395
1.0035948
1.004762
1.0043951
1.0038021
1.004044
1.0044915
1.0040785
1.0038837
1.0025945
1.0023854
1.0036175
1.0027609
1.0032531
1.0029065
1.0029684
1.0033182
1.0034965
1.0035065
1.0033509
1.0034543
1.0036675
1.003415
1.0036825
1.0036307
1.0035617
1.0038441
1.0037981
1.003953
1.0035127
1.0046409
1.0034884
1.0036321
1.0052028
1.0035005
1.0031308
1.0044351
1.0047065
1.0035444
1.003277
1.0035979
1.0036978
1.0036969
1.0026585
1.00299
1.0028369
1.0027923
1.0035076
1.0036225
1.0031357
1.0033625
1.0035766
1.0034721
1.0035193
1.0035469
1.003736
1.0034421
1.0039811
1.0038749
1.0037035
1.0037774
1.0046211
1.0031984
1.0036802
1.0055012
1.0028727
1.0025017
1.0047581
1.0045538
1.0030816
1.0028675
1.004309
1.0050355
1.0042635
1.0025327
1.0025162
1.0028309
1.0028045
1.0035508
1.0036171
1.0029592
1.0033767
1.0035967
1.0033038
1.0035818
1.0034384
1.0037612
1.0034251
1.0039675
1.0038324
1.0035236
1.0039922
1.0043985
1.0031317
1.0036667
1.005495
1.002777
1.0022078
1.0049733
1.0045738
1.0026739
1.0023474
1.0042898
1.0057372
1.0049144
1.0022927
1.0020121
1.0028543
1.0030642
1.0034737
1.0034012
1.00307
1.0034238
1.0035087
1.0033015
1.0035548
1.0034476
1.0037324
1.0035252
1.0038662
1.0038073
1.0034058
1.0040647
1.0040419
1.0033378
1.0036691
1.0050496
1.0031062
1.0024921
1.0049625
1.0047806
1.0028599
1.0021654
1.0037742
1.0052145
1.0048388
1.0020511
1.00167
1.002927
1.0033638
1.0032266
1.0031995
1.0034567
1.0034476
1.0033544
1.0034375
1.0034483
1.0035453
1.0036561
1.0036572
1.0037658
1.0038011
1.0034013
1.0041997
1.0036057
1.0037509
1.0038649
1.0042638
1.0034763
1.0034952
1.0046204
1.0046307
1.0035102
1.0029156
1.0035639
1.0040342
1.0040304
1.0020535
1.0017118
1.0029831
1.0034997
1.0029937
1.0030683
1.0038045
1.0034224
1.0031888
1.0035549
1.0033396
1.003628
1.0035107
1.0037281
1.0036716
1.0037504
1.0035577
1.0042456
1.0031155
1.0041572
1.0042029
1.003433
1.0035656
1.0048307
1.0043572
1.0037519
1.0038161
1.0042143
1.0038794
1.0032131
1.0032569
1.0023592
1.0022049
1.0030705
1.0034659
1.0030001
1.0030965
1.0038798
1.0034372
1.0031951
1.0035769
1.0033857
1.0036221
1.0033851
1.0037476
1.0035479
1.0037231
1.0037209
1.0041722
1.0027985
1.0044108
1.0045297
1.0028179
1.0033366
1.0056229
1.0043898
1.0026342
1.0034515
1.0050864
1.0043527
1.0027947
1.0023811
1.0025791
1.0027643
1.0029205
1.0032806
1.0032441
1.0033143
1.0036584
1.0034681
1.0034402
1.0035147
1.0035634
1.0036261
1.003409
1.003821
1.0034758
1.0037079
1.0038589
1.0041421
1.0027294
1.0043983
1.0047654
1.0026012
1.0031004
1.0055738
1.0045564
1.0018761
1.0028383
1.005157
1.0048737
1.0028554
1.001785
1.0026479
1.0031968
1.0027109
1.0029122
1.0034121
1.0035214
1.0030618
1.0033497
1.0036123
1.0033235
1.0036259
1.0035734
1.003513
1.0038045
1.0034363
1.0036698
1.0039831
1.0040411
1.0029294
1.0042478
1.0047454
1.0027652
1.0031135
1.005142
1.0044
1.0018603
1.0025052
1.0045574
1.0051058
1.0034196
1.0020204
1.0027209
1.0032879
1.0026234
1.002724
1.0035015
1.003551
1.0026804
1.0031965
1.0035964
1.003125
1.0035399
1.0034357
1.0035151
1.0036647
1.0033633
1.0035605
1.003898
1.003792
1.0033868
1.0040163
1.0043797
1.0031957
1.0033826
1.0046015
1.0040483
1.0025074
1.0028289
1.0038364
1.0045335
1.0039295
1.0030863
1.0026026
1.0027684
1.0026593
1.0028666
1.0034434
1.0035142
1.0028447
1.0032099
1.0035085
1.0031929
1.0034802
1.0033813
1.0035256
1.003373
1.0034924
1.0035476
1.0037461
1.0034334
1.0039258
1.0037365
1.0037103
1.003817
1.0038449
1.0040189
1.0033486
1.0035581
1.0038057
1.0036379
1.0034398
1.0038486
1.0039753
1.0023113
1.0018915
1.0027265
1.0030461
1.0031173
1.0030645
1.0032101
1.0031669
1.0031635
1.0033828
1.0032759
1.0032556
1.0032126
1.0029307
1.0031823
1.0032743
1.0034714
1.0029884
1.0044428
1.0036463
1.0030227
1.0042145
1.0045799
1.003514
1.0024705
1.0041184
1.004865
1.0035889
1.0021072
1.0027472
1.0037183
1.0019721
1.0006502
1.0023877
1.00253
1.0026419
1.0016772
1.0026868
1.0031862
1.003119
1.0036648
1.0028907
1.0022907
1.0018264
1.0002688
1.00335
1.0035033
1.0039215
1.0034542
1.0052217
1.0040049
1.0026197
1.0040671
1.0050984
1.0031981
1.0017131
1.0035106
1.0053274
1.0035061
1.0010335
1.0009267
1.002148
1.0028468
1.0038288
1.0037177
1.0028921
1.0025149
1.0028387
1.0031695
1.0030069
1.0027133
1.0027294
1.0026323
1.0029211
1.0042496
1.0054904
1.0057207
1.0052529
1.0037024
1.0017129
1.0014802
1.0021702
1.0034283
1.0043216
1.0038852
1.0008821
1.0020541
1.0030328
1.0039708
1.0049343
1.0053239
1.0047799
1.0035845
1.0024118
1.0016703
1.0013309
1.0018998
1.0034064
1.004097
1.0038205
1.0034617
1.0029373
1.0031429
1.0042922
1.0052006
1.0057224
1.0043732
1.0015693
1.0003614
1.0016694
1.0029624
1.0036969
1.0038361
1.0035239
1.0031513
1.0030251
1.0032164
1.0036076
1.0039221
1.0039976
1.0036008
1.00254
1.0014759
1.0009845
1.0013453
1.0029977
1.0048525
1.0055742
1.0055195
1.0040826
1.0019023
1.0024737
1.0034364
1.0033969
1.0026929
1.0015601
1.0008885
1.0011609
1.0023271
1.003729
1.0047054
1.0050413
1.0047421
1.0037969
1.0026654
1.0020041
1.0020381
1.0027724
1.0035255
1.0032367
1.0022182
1.0014751
1.0013791
1.0022036
1.0048055
1.003712
1.0032013
1.0021402
1.0014955
1.0016219
1.002342
1.0031531
1.0036148
1.0034043
1.0025898
1.001814
1.0015069
1.0020706
1.0032311
1.0045444
1.0056576
1.0053142
1.0030859
1.0003967
0.99902932
0.99949267
1.0015184
1.0021665
1.0023415
1.002407
1.0027077
1.0030742
1.0035031
1.0039369
1.0040235
1.0034219
1.0020893
1.0006382
1.0000258
1.0004571
1.0016856
1.0032313
1.0044706
1.0049031
1.0043154
1.0029957
1.0015191
1.0009787
1.0017775
1.0030268
1.000722
1.0016907
1.0025014
1.0032728
1.0035832
1.0036799
1.0035976
1.0033014
1.002772
1.0021304
1.0016547
1.0017129
1.0023384
1.0031559
1.0033431
1.0025674
1.0013999
1.0007434
1.0009053
1.0019108
1.0034405
1.0048957
1.0054106
1.0023009
1.002661
1.002955
1.002849
1.002299
1.0015022
1.000964
1.0009823
1.0015904
1.0024562
1.003195
1.00373
1.0041984
1.0041974
1.003298
1.0015745
0.99973765
0.99905527
0.99991637
1.0017672
1.0036826
1.0048271
1.0050408
1.004127
1.0035952
1.0028606
1.0019094
1.0008077
0.99976991
0.99932063
0.99975245
1.0009632
1.0024006
1.0034339
1.0038258
1.0036804
1.0031265
1.0022537
1.0011628
1.0004851
1.0006788
1.0016154
1.0026146
1.0030468
1.0026503
1.001984
1.0030611
1.0031098
1.0022606
1.0015806
1.0012089
1.000931
1.0009826
1.0014813
1.0021932
1.0026264
1.002479
1.0018339
1.0011245
1.0007071
1.0007261
1.001105
1.0018561
1.0028685
1.0038065
1.00395
1.0030615
1.0013648
0.99956078
1.0007885
1.0009506
1.0011803
1.0016631
1.0023149
1.0030064
1.0034107
1.0035299
1.0032662
1.0024386
1.001136
0.99957672
0.99874608
0.99887326
0.99994713
1.0014971
1.0029825
1.004139
1.0046704
1.0043689
1.0031438
1.0011719
0.99914989
0.99966911
0.9997619
1.0004566
1.0016646
1.0027987
1.0035747
1.0039332
1.003788
1.0030868
1.0019006
1.0003067
0.99881423
0.99829273
0.99880942
1.0002033
1.0018621
1.0030522
1.0036075
1.0035803
1.0030866
1.0020933
1.0008198
0.99961256
0.99956793
1.0006609
1.0011358
1.0018569
1.0021065
1.0022929
1.0023104
1.0022717
1.0018772
1.0011718
1.0004006
0.99985691
0.99990883
1.0005628
1.0014023
1.00221
1.0023804
1.0020926
1.0015031
1.0009503
1.0004354
1.0001577
1.0002367
1.0009782
1.0022006
1.0014713
1.0016646
1.0008286
1.0003534
0.99977442
0.99967707
0.99994601
1.0004525
1.0009421
1.0014941
1.0020529
1.0025875
1.002884
1.0026129
1.0017577
1.000399
0.99919803
0.99862427
0.99877395
0.99953687
1.0006432
1.0032266
1.0028431
1.001843
1.000941
0.99964557
0.99846084
0.99751959
0.99746641
0.99827865
0.99976619
1.0013301
1.0026315
1.0034942
1.0038727
1.0037106
1.0029175
1.0013963
0.99938684
0.99769242
0.99690494
0.99733469
0.99873327
1.0004934
1.0033147
1.00269
1.0014869
1.0001941
0.99886363
0.9974784
0.9964705
0.99646695
0.99749505
0.99930505
1.0012622
1.0028629
1.0038507
1.0042222
1.0039466
1.0028924
1.0011507
0.99909041
0.99735859
0.99663068
0.99714714
0.99860001
1.0004966
1.0029565
1.0023256
1.0009679
0.99964637
0.99836788
0.99721279
0.99645031
0.99663835
0.99771218
0.99935379
1.0011318
1.0022494
1.0028715
1.0030323
1.0028111
1.0021565
1.0008728
0.99926763
0.99786189
0.99723466
0.99766952
0.99896253
1.0007716
1.0016093
1.001223
1.0005104
0.99976459
0.99885827
0.99799312
0.99733302
0.99755464
0.99854732
0.99994439
1.0011117
1.001653
1.0016733
1.0015093
1.0013527
1.0010945
1.0004368
0.99935187
0.99837295
0.9980273
0.99847958
0.99968324
1.0010281
0.99986854
0.99975937
0.99965983
0.99955769
0.99921645
0.99870997
0.9983305
0.99866051
0.9996031
1.0008194
1.0016005
1.0015721
1.0011649
1.0007958
1.0005411
1.0003508
0.99984991
0.99908315
0.99856459
0.99856224
0.99906736
0.99994149
1.0008924
0.99933787
0.99932876
0.99961751
0.99971876
0.99946548
0.99898631
0.99880507
0.999279
1.0002376
1.0011386
1.0014811
1.0012666
1.0007304
1.0003285
1.0001027
0.99989739
0.99943883
0.99888415
0.99869661
0.99898583
0.99967242
1.0005638
1.0012267
0.99973568
0.99975052
1.0000718
1.0000762
0.99953554
0.99878115
0.9984748
0.99897616
0.99998207
1.0008379
1.0009362
1.000436
0.9999632
0.99979771
0.99981698
0.99961755
0.99909996
0.99863304
0.99871338
0.99938604
1.0003309
1.0011752
1.001607
1.0002614
1.0000974
1.0001662
0.99986079
0.99902407
0.99815555
0.99795922
0.99873387
1.0000729
1.0010762
1.0012693
1.0008384
1.0004126
1.0002385
1.0001565
0.99972278
0.99884032
0.99817417
0.99830269
0.99919618
1.000369
1.0012259
1.0015327
1.0015589
1.0008165
1.0000657
0.99888681
0.99755962
0.99686479
0.99716903
0.99847513
1.0001591
1.0013823
1.0018489
1.0017491
1.001422
1.0010644
1.0005458
0.9995988
0.9984437
0.99771191
0.99781212
0.99857265
0.99961432
1.0006685
1.001469
1.0028613
1.001978
1.000591
0.99861112
0.99669088
0.99583903
0.9963145
0.99785618
0.99955966
1.0007829
1.0014614
1.001838
1.0019628
1.0017365
1.0008711
0.99947469
0.99812572
0.99734711
0.99739366
0.99817278
0.99952075
1.0010296
1.0021144
1.0021197
1.0019193
1.0010879
0.99922665
0.99704289
0.99575981
0.99593078
0.99722027
0.99893087
1.0002619
1.0011499
1.0018887
1.0023511
1.0022382
1.0010446
0.99927338
0.99769468
0.99681675
0.99697115
0.99807354
1.000121
1.0022825
1.0033548
0.9988029
0.99994597
1.0008617
1.0003779
0.99875512
0.99721747
0.99677949
0.99749301
0.99869104
0.99981743
1.0009687
1.002143
1.0028313
1.0024388
1.0006975
0.99857641
0.99709423
0.99672851
0.99732149
0.99867038
1.000436
1.0023089
1.0030416
0.99609628
0.99771524
1.0000181
1.0013952
1.0011704
1.0000316
0.99881079
0.99828763
0.99848801
0.9992779
1.0004225
1.0014299
1.0019291
1.0015166
1.0001743
0.99862075
0.99770357
0.9978664
0.99845065
0.99906726
0.99976538
1.0004644
1.0006181
0.99652841
0.99746442
0.99913293
1.0005549
1.0014933
1.002091
1.0018914
1.000779
0.99933664
0.99818626
0.99797746
0.99846033
0.99911733
0.99953309
0.99988117
1.0004186
1.0008171
1.0007354
0.99985239
0.99837111
0.99709618
0.99704945
0.99861188
0.99831671
0.99830417
0.99865378
0.99899943
1.0000838
1.0020543
1.0036385
1.0034141
1.0008024
0.99726605
0.99489131
0.99485562
0.99677781
0.99963022
1.0022604
1.0038621
1.0037022
1.0018955
0.9993588
0.99685464
0.9955302
0.99653156
0.99918409
0.9991596
0.9999074
1.0004372
0.99995181
0.99918509
0.99932546
1.0003497
1.0013127
1.0008717
0.99912641
0.99732419
0.99660916
0.99772777
0.99993988
1.0020304
1.0029589
1.0022974
1.000304
0.99865842
0.99798065
0.9975209
0.99732568
0.99818699
1.0018313
1.0016781
1.0012085
0.99974312
0.99789706
0.99640521
0.99632279
0.99787233
1.000683
1.003494
1.004119
1.0020269
0.99859931
0.99642605
0.99683781
0.99868638
1.0004836
1.0014352
1.0012055
0.99981351
0.99788114
0.99605209
0.995422
1.0013326
1.0016286
1.0003896
0.9981793
0.9965396
0.996683
0.99802968
0.99964098
1.001145
1.0026436
1.0035036
1.0024037
0.99896043
0.99572422
0.99546035
0.99796764
1.0012722
1.0028075
1.0019131
0.99958213
0.9977532
0.99730514
0.99702104
0.99710508
0.99894103
1.0005273
1.0009613
1.0007212
1.0006746
1.0005537
1.0001218
0.99961817
0.99904266
0.99905914
1.0003966
1.0020774
1.0014971
0.99873698
0.99680548
0.99734128
0.99974681
1.0016072
1.0017159
1.0004877
0.99935594
0.99763873
0.99820264
0.99885922
1.0002849
1.0016445
1.0026233
1.0025314
1.0010684
0.99925363
0.99844721
0.99875912
0.99978274
1.0005567
1.0013784
1.0020803
1.0009943
0.99781146
0.99593367
0.99698391
0.99985301
1.0019221
1.0015963
0.99959674
0.99719753
1.0025077
1.0013059
0.99952895
0.99860102
0.99946745
1.0012651
1.0021934
1.0014516
0.99961366
0.99834669
0.99844084
0.99906112
0.99924173
1.0002821
1.0025607
1.0030525
0.99991393
0.99604039
0.99512593
0.99773631
1.0003739
1.0001872
0.99828081
1.0011477
1.0017017
1.000998
0.9994922
0.99858423
0.99874919
1.0001111
1.0014985
1.001628
1.0002673
0.99876521
0.99857781
0.9996469
1.0008174
1.0015403
1.002223
1.0023176
1.0005107
0.99685396
0.99439653
0.99527599
0.9975658
0.99915694
0.99969472
1.0005468
1.0012773
1.0012769
1.0005338
0.99932858
0.99865877
0.99899601
1.0005436
1.0020076
1.002373
1.0013208
1.0001319
0.999967
1.0004366
1.0002918
1.0001212
1.0005971
1.0006838
0.99968079
0.99817675
0.99735385
0.9972921
1.0002791
1.0003093
1.0000972
1.000212
1.0007248
1.0009173
1.0004229
0.99985987
1.0000312
1.0009953
1.002512
1.0032445
1.0022931
1.0003826
0.99883772
0.99835706
0.99788234
0.99812287
0.9997082
1.0012367
1.0021298
1.0015859
1.0001069
0.99997873
1.0004194
1.0002919
1.0000272
1.0003292
1.0012503
1.0023317
1.0026357
1.0018123
1.0005769
0.99979122
0.99986529
1.000383
1.0007547
1.0005956
1.0001984
0.99956689
0.99903115
0.99940882
1.0005137
1.0014838
1.001213
0.99975783
1.0000982
1.0007017
1.0011907
1.0015148
1.0013646
1.00099
1.0010205
1.0014342
1.0016546
1.0011202
0.9997758
0.99842287
0.99796749
0.99872191
1.0004592
1.0024585
1.003429
1.0030354
1.0015938
1.0006019
1.0004787
1.0003487
0.99944942
1.0014372
1.0010942
1.0008549
1.0010687
1.0011859
1.0007572
0.99968599
0.99869169
0.99859695
0.99947775
1.0007998
1.0016318
1.0017773
1.0015879
1.0013768
1.0015134
1.0019642
1.0022451
1.0018479
1.0006631
0.99884771
0.99822808
0.99812529
1.0012843
1.0008452
0.99962248
0.99894005
0.99893023
0.99954718
0.99984482
0.99994423
0.9998411
1.0004077
1.0014874
1.0026266
1.0032982
1.003125
1.0021804
1.000988
1.0001053
0.99975798
0.99938103
0.99835631
0.99743761
0.99744574
0.99873748
0.99971821
0.99999698
0.99954005
0.99934967
0.99955323
1.0003839
1.0011943
1.0020783
1.0023087
1.0020509
1.0016377
1.0013928
1.0012977
1.0008899
1.0001258
0.99900544
0.99810763
0.99783349
0.99853518
0.99955147
1.0004833
1.0010775
1.0016729
0.99936595
0.99960608
0.99993515
1.000449
1.0012829
1.0018511
1.0020934
1.0022757
1.0016486
1.0007434
0.99975282
0.99877452
0.99839384
0.99841883
0.99851139
0.99853387
0.99880347
0.9994445
1.0005377
1.0015928
1.0020912
1.001575
1.0001697
1.0009184
1.0005853
1.0001676
0.99989809
1.0000289
1.0000728
0.99991427
0.99987101
0.99947412
0.99916815
0.9985987
0.99821332
0.99837385
0.9990871
1.0001262
1.0009842
1.0013035
1.0009981
1.0003839
0.99980576
0.99932371
0.99854342
0.99758955
1.0005661
1.0005488
0.99983429
0.99912853
0.99849898
0.99795696
0.99769489
0.9977867
0.998313
0.99916413
0.99964019
1.000117
1.0005883
1.0009281
1.0011269
1.0009873
0.99999973
0.99866815
0.9976672
0.99717021
0.99729141
0.99775305
0.99825428
0.99739023
0.99804923
0.99834175
0.99877862
0.9991989
0.99941233
0.99961281
0.9998135
1.0001613
1.0003903
1.0004925
1.0004965
0.99980513
0.99902464
0.99803456
0.99716091
0.99651168
0.99649689
0.99692874
0.99775776
0.99878997
0.99999898
1.0009229
0.99767089
0.99776118
0.99830981
0.9990069
0.99992278
1.0003444
1.0007029
1.0006331
1.000239
0.99947739
0.99861608
0.99773694
0.99681712
0.99625827
0.99583376
0.99611846
0.99693953
0.99827017
0.99957669
1.0004464
1.0007689
1.0004871
0.99964287
0.99959097
0.9994663
0.99921781
0.99893987
0.99888487
0.99828881
0.99789535
0.99758203
0.99675893
0.99615906
0.99584646
0.99580038
0.99614452
0.99684761
0.99755034
0.99846121
0.99918071
0.99970172
0.99978817
0.99955784
0.99886445
0.99812709
0.99736194
0.99752464
0.9975413
0.99738041
0.99732788
0.9973441
0.99719379
0.99706469
0.99694913
0.99657132
0.9964986
0.99655362
0.99684924
0.99744247
0.99793423
0.9982656
0.99831885
0.9979171
0.997512
0.99725798
0.99717475
0.99724755
0.99774375
0.99823896
0.99680963
0.99682816
0.9966278
0.99697693
0.99713501
0.99751399
0.9977442
0.99770695
0.99752048
0.99723368
0.99702807
0.99675113
0.9967074
0.99644759
0.99633769
0.99614595
0.99609574
0.99640254
0.99702948
0.99784498
0.99844652
0.99866539
0.99891255
0.99754939
0.99738265
0.99717267
0.99737452
0.99730444
0.99720327
0.99688725
0.99638725
0.996006
0.99547082
0.99521795
0.9948952
0.9947999
0.99472138
0.99514558
0.9957977
0.99672572
0.99769466
0.99839635
0.99870163
0.99856734
0.99791402
0.99748202
0.99671295
0.99651425
0.99665076
0.99681384
0.99697351
0.99676293
0.99627406
0.9955639
0.99505404
0.99459271
0.99463362
0.99473944
0.99508281
0.99534682
0.99582327
0.99645058
0.99731241
0.99793316
0.99788924
0.99735519
0.9966616
0.99625919
0.99637776
0.99694115
0.99652461
0.99637341
0.99645578
0.99669826
0.99673708
0.99644509
0.99570789
0.99502064
0.99453049
0.99448234
0.99469343
0.99519701
0.99564652
0.99589061
0.99600306
0.99617693
0.99631862
0.9961794
0.99590226
0.99572159
0.99612977
0.99690669
0.99737047
0.99675366
0.99629655
0.99620452
0.99612962
0.99627551
0.9961003
0.99555291
0.99484023
0.99438137
0.9941254
0.99418347
0.99453812
0.99506119
0.99535156
0.99541627
0.9953833
0.9955355
0.99576853
0.99599887
0.99629252
0.9967582
0.99721486
0.99723439
0.99672773
0.99634436
0.99620851
0.99608427
0.99609253
0.99591012
0.99553533
0.99495767
0.99450053
0.99430515
0.99423126
0.99434851
0.99456567
0.99486837
0.99508378
0.99528704
0.99553484
0.99598289
0.99639713
0.99671443
0.99668636
0.9964756
0.99725073
0.99680901
0.99652641
0.99651358
0.99657905
0.99644732
0.99606654
0.9956565
0.99503337
0.99443443
0.99423123
0.99416306
0.99427689
0.9944021
0.99463892
0.9949835
0.99534114
0.99562406
0.9959192
0.99620012
0.99645257
0.99641795
0.99607707
0.99792832
0.99732506
0.99696538
0.99691578
0.99710234
0.99699959
0.99655053
0.99605192
0.99527461
0.99464074
0.99423864
0.99407826
0.99413595
0.9943966
0.99481276
0.99526396
0.99569813
0.99597698
0.99602375
0.99606446
0.99612939
0.99633758
0.99634181
0.9988052
0.99804512
0.9974559
0.99723717
0.99736134
0.9971626
0.99686563
0.99645994
0.99572741
0.99539887
0.99487517
0.99465803
0.99439847
0.99443398
0.99487903
0.99509813
0.99556765
0.99586399
0.99606478
0.99629219
0.99628822
0.99634496
0.99658929
0.99927109
0.99847056
0.99781942
0.99766859
0.99777145
0.99747792
0.99739519
0.99702181
0.9963503
0.99623756
0.99562099
0.99537745
0.99506937
0.99472829
0.99494849
0.99493542
0.9951761
0.99529947
0.99584518
0.99625923
0.99659508
0.99670414
0.99695264
0.99969332
0.99901918
0.99829974
0.998273
0.99839104
0.99810755
0.99817034
0.99777694
0.99723412
0.99694376
0.99617645
0.99569552
0.99555209
0.99524725
0.99532092
0.99515754
0.99529526
0.99547755
0.99594761
0.99621768
0.99651094
0.99680776
0.99728965
1.0004327
0.99984916
0.99895343
0.99880669
0.99871028
0.99857901
0.9986707
0.99822311
0.99803221
0.9976999
0.99713956
0.99643812
0.99610589
0.9958251
0.99566437
0.9956898
0.99568965
0.99586524
0.99604628
0.99626197
0.9963897
0.99656357
0.99707939
1.0015888
1.0004962
0.99961282
0.99943165
0.99914676
0.99919234
0.99916315
0.99867803
0.99881144
0.99855486
0.99837063
0.99757923
0.99674719
0.99666511
0.99611014
0.99610541
0.99597849
0.99611088
0.99606181
0.99625234
0.99647567
0.99666228
0.99683733
1.0013091
1.0006884
1.0003077
1.0001931
0.9997076
0.99977213
0.99956444
0.99913746
0.99949138
0.99936502
0.99928164
0.99852753
0.9976963
0.99783851
0.99701564
0.99687817
0.99644214
0.99635101
0.99624483
0.99633939
0.99642832
0.9966805
0.99687061
1.0011749
1.0007906
1.0006216
1.0005389
1.000313
1.0004322
0.99985608
0.99930186
0.99971511
0.99978981
0.99967642
0.99918498
0.99864964
0.99894242
0.99849795
0.9980353
0.99711619
0.99706982
0.99676509
0.99686559
0.99653842
0.99629571
0.99669693
1.0013672
1.0011687
1.0010046
1.0007304
1.0005921
1.0007583
1.0002371
0.99980358
1.0000177
1.0001326
1.0001805
0.99975697
0.99933179
0.99955737
0.99925482
0.99911077
0.9983325
0.99811497
0.99767716
0.99773461
0.99724132
0.99668238
0.99673977
1.0012653
1.0013332
1.001077
1.0009305
1.0009439
1.0009859
1.0005983
1.0003744
1.0004769
1.0003417
1.0004124
1.0000174
0.99974635
0.99996231
0.99970309
1.0000398
0.99938864
0.99891484
0.99887652
0.99858483
0.99849193
0.99796593
0.99733213
1.001017
1.0013475
1.0011028
1.0008851
1.0009865
1.0011003
1.0007205
1.0005897
1.0009485
1.0004337
1.000337
1.0003628
1.0002041
1.0002193
0.99994251
1.000235
0.99990114
0.9993908
0.9993741
0.99936796
0.99959689
0.99900368
0.99840476
1.000942
1.0014868
1.0013218
1.001058
1.0010202
1.0011831
1.001102
1.000847
1.0010325
1.0005645
1.0005323
1.0007937
1.0001768
1.0004116
1.0003268
1.0003454
1.00032
0.99972921
0.99967083
1.000011
0.99991099
0.99946634
0.99868828
1.0007459
1.001483
1.0015675
1.0011708
1.0009925
1.0009924
1.0012721
1.0012725
1.0010837
1.0008488
1.0008203
1.0011755
1.0005757
1.0004835
1.0005938
1.0005662
1.0004298
1.0000272
1.0003059
1.0003113
0.99985566
0.99992666
0.9998096
1.0006454
1.0010076
1.001457
1.0012245
1.0009911
1.0011705
1.0014853
1.0015497
1.0010515
1.00067
1.0008023
1.001372
1.0011805
1.0004549
1.0005228
1.0010286
1.0008409
1.0002906
1.0004133
1.0007801
1.0005133
1.0000659
1.000111
1.0009886
1.0008071
1.0009981
1.001289
1.0012339
1.0010571
1.0013136
1.0016466
1.0013489
1.0006852
1.000636
1.0013216
1.0014933
1.0007354
1.0003001
1.001059
1.0014624
1.0007872
0.99998867
1.0004917
1.0010243
1.0005238
1.0000118
1.0008985
1.0008753
1.0011458
1.001353
1.0013147
1.0009901
1.0006954
1.0011643
1.0016678
1.001473
1.0008967
1.0007955
1.0010696
1.0010795
1.0005313
1.0006136
1.0009527
1.0008853
1.0003285
1.0005714
1.0010661
1.0010587
1.000075
1.0006757
1.000764
1.0009417
1.0011692
1.0011869
1.0010815
1.0009948
1.0010128
1.0012388
1.0011864
1.0008164
1.0006026
1.0006156
1.000799
1.0006501
1.0006377
1.000834
1.0009111
1.000507
1.0002988
1.0004169
1.0006679
1.0003008
1.0004951
1.0006231
1.0008446
1.0010299
1.0010378
1.0008476
1.000543
1.0006074
1.0008679
1.0009585
1.0005743
1.0003286
1.0006804
1.0009695
1.0005341
1.0000816
1.0001986
1.0007797
1.0006175
1.0000785
1.0000595
1.0006678
1.0007094
1.0003848
1.0003979
1.0004176
1.0005192
1.0005955
1.0005948
1.0005141
1.0004298
1.0004265
1.0004849
1.0004344
1.0002415
1.0002738
1.0005542
1.0006727
1.0004451
0.99985045
0.99991086
1.0002788
1.0006306
1.0003091
0.9998813
0.99976235
1.0002304
1.0002624
1.0001203
0.99993629
1.0001147
1.0004298
1.0004632
1.0001851
0.99998602
1.0002995
1.0006308
1.0002585
0.99974835
1.0000783
1.0005339
1.0002759
0.99978601
1.0000121
1.0003893
1.000066
0.99951712
1.0000981
1.0007768
0.99989447
1.0002544
1.0003845
1.0002006
0.99999115
1.0000184
1.0001643
1.00009
0.99997406
0.9997316
0.9998156
1.0002996
1.0003507
0.99968175
0.99924657
0.99994574
1.0006275
1.0003323
0.99977836
1.0000232
1.0005267
1.0001084
0.99919994
1.0001402
1.0001631
1.0001516
0.99997576
0.99990847
0.99999689
0.99968164
0.99927858
0.99944126
0.99984196
0.99970139
0.99918395
0.99936678
1.0002572
1.0004216
0.99981056
0.99947971
0.99994035
1.0005456
1.0001896
0.99966422
0.99995218
1.0003948
0.99965117
1.0000205
0.99984508
0.99952408
0.99915286
0.99908979
0.99925133
0.99948278
0.99919935
0.99880837
0.99909869
0.99980196
0.99987528
0.99947628
0.99964775
1.0000842
1.0000874
0.99975153
1.0000264
1.0006222
1.0004492
1.000126
1.0003576
0.99925363
0.99931119
0.99883993
0.99870051
0.99906111
0.99916866
0.99886098
0.99879395
0.99907859
0.99907943
0.99883439
0.99933676
1.0002511
0.99995071
0.99921657
0.99972107
1.0008521
1.0007226
0.99983783
1.0002241
1.0010454
1.0006353
0.99991239
0.99825311
0.99882652
0.99862698
0.99824165
0.99853236
0.99918364
0.99897505
0.99818595
0.99838252
0.99970623
1.0003544
0.99943102
0.9987832
0.99978526
1.0009533
1.0006524
0.99977226
0.99994793
1.0007176
1.0008465
1.0004
1.0001073
1.0002013
0.99753018
0.9981249
0.99880303
0.99854353
0.99778841
0.99783035
0.99884255
0.99959549
0.99924752
0.99882531
0.99934432
1.0001585
1.0001955
0.99974178
0.99984473
1.0004319
1.0004832
1.0000422
1.0000635
1.0005346
1.0005239
1.0000852
1.0000043
0.99776962
0.99731773
0.99754432
0.99823548
0.99855519
0.99822491
0.99807112
0.99876789
0.99963048
0.99973878
0.99929736
0.9993802
1.0000213
1.0002624
0.99987989
0.99981951
1.0002348
1.0001974
0.99979913
1.0000525
1.0006109
1.000355
0.99969918
0.99724675
0.99753502
0.99735367
0.99737011
0.99791812
0.99853395
0.99865436
0.99856198
0.99890733
0.99958214
0.99985068
0.99962307
0.99952692
0.99977982
0.9999296
0.99981794
0.99984707
1.0000266
1.0000268
0.99994844
1.0000399
1.0001135
0.99997142
0.99660575
0.9971182
0.99772472
0.99779771
0.99753206
0.99757333
0.99826576
0.99911769
0.99943097
0.99927038
0.99911903
0.99928938
0.99967766
0.99990819
0.99976175
0.99945195
0.99946329
0.99989871
1.0001496
0.99985315
0.9995996
0.9999427
1.000216
0.99682251
0.9968038
0.99698167
0.99742389
0.99785684
0.99805182
0.99818052
0.9985161
0.99899305
0.99931168
0.99933181
0.9992672
0.99937632
0.99960677
0.99964021
0.99942621
0.99927861
0.99956952
0.99997876
0.99992846
0.99954039
0.99947531
0.99979406
0.99640751
0.99682655
0.99713499
0.99737863
0.99761708
0.99792132
0.99828579
0.9985958
0.99880607
0.99904221
0.99930448
0.99938056
0.99929767
0.99923761
0.99933597
0.99946201
0.99947396
0.99944115
0.99954027
0.9996653
0.9996334
0.99954911
0.99957629
0.99629776
0.99670028
0.99711772
0.9974118
0.99758631
0.99781378
0.99820998
0.99863038
0.99887192
0.99897598
0.9990541
0.99913327
0.99920684
0.99925937
0.99930322
0.99944744
0.99948982
0.99941765
0.99931548
0.99934475
0.99953167
0.99971477
0.99974858
0.99642386
0.99665831
0.99691359
0.997248
0.99760977
0.99790098
0.99823659
0.99855259
0.99873042
0.9988434
0.99890026
0.99904385
0.9993759
0.99942393
0.99932167
0.99915714
0.99918002
0.99933953
0.99949717
0.99954339
0.99952221
0.99948192
0.99950658
0.99610485
0.99664585
0.9970922
0.99737252
0.99761771
0.99773842
0.99787229
0.99831255
0.99875872
0.99901871
0.99923482
0.99907187
0.99892326
0.9990551
0.99934062
0.9996053
0.99938908
0.999235
0.99910157
0.999401
0.99959395
0.99969316
0.99962807
0.99641302
0.99650674
0.99679197
0.99712026
0.99738798
0.99770781
0.99816474
0.99856798
0.99869667
0.99857209
0.99865206
0.99906011
0.99941268
0.99946652
0.9992347
0.99913043
0.99912278
0.99932631
0.99943078
0.99950931
0.99955088
0.99964165