/*--------------------------------*- C++ -*----------------------------------*\
| =========                 |                                                 |
| \\      /  F ield         | OpenFOAM: The Open Source CFD Toolbox           |
|  \\    /   O peration     | Version:  2406                                  |
|   \\  /    A nd           | Website:  www.openfoam.com                      |
|    \\/     M anipulation  |                                                 |
\*---------------------------------------------------------------------------*/
FoamFile
{
    version     2.0;
    format      ascii;
    arch        "LSB;label=32;scalar=64";
    class       volVectorField;
    location    "50";
    object      U;
}
// * * * * * * * * * * * * * * * * * * * * * * * * * * * * * * * * * * * * * //

dimensions      [0 1 -1 0 0 0 0];

internalField   nonuniform List<vector> 
20580
(
(0.085651319 0.0011412182 1.2271239e-21)
(0.084063212 0.00055665985 -3.3466457e-20)
(0.08866246 -0.00063749518 5.2085608e-22)
(0.087919386 -0.00015952495 8.8865537e-21)
(0.086730425 0.0014591231 3.9337227e-23)
(0.088338786 0.0006547602 5.6811202e-21)
(0.088380187 0.0016217966 -5.7226199e-20)
(0.088960543 0.001446364 4.8247752e-21)
(0.089038524 0.0020033011 -2.5964527e-21)
(0.088998377 0.002507719 0)
(0.089290768 0.0020619849 -3.7467393e-21)
(0.088839904 0.0023250179 1.2858274e-20)
(0.088644175 0.0022921122 -2.3626692e-21)
(0.088315216 0.0017121955 8.5996575e-22)
(0.087688664 0.0019527406 -8.3716835e-21)
(0.087136974 0.0017139067 8.5666688e-21)
(0.087119679 -0.00033996838 5.172232e-21)
(0.085973332 0.00038774314 1.2615502e-21)
(0.085667636 -0.0011700288 2.6463764e-20)
(0.085565632 -0.0036912075 6.2075931e-21)
(0.083717402 -0.0020810196 -1.9469902e-22)
(0.083709572 -0.0051050363 -1.0163802e-21)
(0.084239491 -0.0086790393 1.0455784e-20)
(0.082741094 -0.0077691666 -5.4319947e-20)
(0.08156151 -0.0082816243 -1.069278e-20)
(0.083856164 -0.013505318 -4.7853178e-20)
(0.085020004 -0.020180509 -1.0411153e-20)
(0.08440983 -0.023548784 1.5422445e-21)
(0.085608455 -0.022995665 2.361076e-20)
(0.085358621 -0.024319341 -1.9184781e-20)
(0.084541104 -0.029936781 2.7955647e-21)
(0.083940977 -0.00044294836 0)
(0.084860675 -0.0005312022 9.4632085e-20)
(0.08901183 -0.00060800889 5.6435242e-20)
(0.08767287 0.00094650679 9.9320968e-21)
(0.087508019 0.00058210182 -2.3282744e-20)
(0.087944048 0.0013616957 -7.1701875e-22)
(0.088245 0.0015791503 1.140201e-19)
(0.088746259 0.0016096825 -5.0347866e-21)
(0.088925314 0.0019692987 -1.1908477e-20)
(0.089089406 0.0020858663 5.2500392e-22)
(0.089068281 0.0023457205 1.6461187e-20)
(0.088845368 0.002234874 7.5342844e-21)
(0.088605064 0.0023428516 -8.0368383e-21)
(0.088234325 0.0018573145 -1.5581485e-22)
(0.087580465 0.001990406 4.3284605e-21)
(0.087320795 0.0014751608 2.1625012e-22)
(0.08695512 8.8793331e-05 1.3186366e-21)
(0.085817342 0.00090685106 1.8292582e-20)
(0.086276953 -0.001225994 0)
(0.085358486 -0.0024742258 3.1915585e-20)
(0.084017386 -0.001418916 0)
(0.085036302 -0.0049928266 -3.2887069e-20)
(0.084641981 -0.0073136291 -1.9291084e-20)
(0.082800697 -0.0064840246 3.1051668e-22)
(0.083132591 -0.0088342618 -2.5927922e-20)
(0.086512377 -0.013851605 1.3392213e-20)
(0.087502539 -0.018496674 -1.2828242e-20)
(0.084859915 -0.020508219 -7.2934713e-21)
(0.085148457 -0.019801773 -5.2533589e-20)
(0.087075537 -0.021000025 -8.9208186e-21)
(0.087233639 -0.028467029 3.8979917e-20)
(0.082156976 -0.0019749833 0)
(0.084091331 -0.001639164 0)
(0.08890725 -0.00017092399 -1.5225024e-19)
(0.087683962 0.0020365675 4.2904891e-20)
(0.087874921 -3.6889368e-05 -7.8883379e-20)
(0.088150339 0.0019941703 -2.9862098e-22)
(0.088477102 0.0013729546 -1.5598078e-19)
(0.088834029 0.0018256563 7.0306577e-21)
(0.088996888 0.0019581527 0)
(0.089135444 0.0017448553 -2.3082438e-20)
(0.089066826 0.0024560676 -3.6212031e-21)
(0.088874821 0.0021917053 -1.6708156e-20)
(0.088669699 0.0022750809 0)
(0.088319868 0.002019086 4.7087297e-22)
(0.087689285 0.0018593219 -3.6966079e-21)
(0.087543402 0.0010343099 1.037117e-21)
(0.086895412 0.00038540777 1.6031695e-21)
(0.08592852 0.00085119089 -6.5418001e-22)
(0.086624162 -0.0014578823 2.5120624e-20)
(0.085291973 -0.0015963108 0)
(0.084488459 -0.0017767419 0)
(0.08598022 -0.0052267614 3.4416614e-20)
(0.085092393 -0.0064177472 1.9806146e-21)
(0.083481 -0.0064294873 -1.2601377e-20)
(0.084306826 -0.010361564 -8.9855129e-21)
(0.087577272 -0.014320371 6.2919177e-21)
(0.088648444 -0.015754715 -3.4491372e-20)
(0.085583969 -0.016546038 -1.0825544e-20)
(0.085304855 -0.018001102 1.8050186e-20)
(0.089628374 -0.019390061 3.9083422e-21)
(0.091714388 -0.02601195 -5.445604e-21)
(0.080782132 -0.002605795 0)
(0.082541928 -0.0019391091 -4.4982945e-22)
(0.088064941 0.00058944505 -1.9257964e-21)
(0.087288484 0.0025373391 8.3848407e-22)
(0.087699321 -0.00029892943 -1.6948401e-19)
(0.088125886 0.0021473124 5.5237395e-21)
(0.088738309 0.0010868852 -1.4917348e-19)
(0.088991766 0.0019336126 0)
(0.089201447 0.00196628 1.6959093e-22)
(0.089251291 0.0016915181 1.3447668e-20)
(0.089165584 0.0022738845 2.2255908e-20)
(0.088987493 0.0021879342 8.6448162e-22)
(0.088768109 0.0021575812 4.6523061e-24)
(0.088419869 0.002117716 -4.4664507e-21)
(0.087873756 0.0018083092 1.5772326e-20)
(0.087760725 0.00067602527 1.8334681e-22)
(0.086928045 0.00073698543 1.1023171e-20)
(0.086220295 0.00060187933 3.1279638e-23)
(0.086874041 -0.0017027194 -1.0620761e-22)
(0.085324038 -0.00074515346 2.9803693e-21)
(0.08509062 -0.0024659467 4.2344644e-21)
(0.08652563 -0.00539952 1.7306743e-20)
(0.085294213 -0.0055745102 3.3841205e-21)
(0.084560923 -0.0059674207 -3.009882e-20)
(0.08574489 -0.011216211 0)
(0.087687819 -0.014392773 3.1117648e-21)
(0.088268237 -0.013077497 2.9651224e-20)
(0.086165379 -0.012518475 1.2629239e-20)
(0.085813161 -0.015939119 -9.4308805e-21)
(0.090786496 -0.019201116 5.5865544e-21)
(0.095536735 -0.023564075 -1.8013121e-20)
(0.079867614 -0.0020049556 0)
(0.08086914 -0.0012140723 1.0699617e-19)
(0.086700847 0.0012724916 -5.0372707e-20)
(0.08662233 0.0020942582 -3.6812376e-20)
(0.087257764 -0.00010552654 -3.9733111e-22)
(0.087892067 0.0016894159 -3.2111724e-20)
(0.088747279 0.00086720379 0)
(0.089120184 0.0017510455 -1.9155489e-20)
(0.089414575 0.0017966448 -1.3624386e-20)
(0.089388122 0.0018386826 2.7316394e-20)
(0.089341443 0.0018807661 3.5751292e-20)
(0.089170228 0.002184754 -6.5489995e-23)
(0.088917105 0.0019483456 -6.7460091e-21)
(0.088554767 0.0020389447 9.5425911e-22)
(0.088129699 0.0016924697 8.9881463e-21)
(0.087928005 0.00037871952 -3.0054058e-21)
(0.086972832 0.0010093157 1.4642515e-20)
(0.086615646 0.00013542243 2.2594979e-20)
(0.086995284 -0.001943791 1.1931966e-20)
(0.085535939 -0.00016846463 0)
(0.085871426 -0.0031149992 4.2194978e-21)
(0.086863345 -0.0055632615 -1.6957286e-21)
(0.085277473 -0.0046776616 -2.1674812e-20)
(0.085775866 -0.0052970769 -4.3981811e-21)
(0.087434429 -0.010678492 0)
(0.087599906 -0.013264604 -3.3661009e-20)
(0.087306974 -0.010653089 3.1211663e-20)
(0.086694947 -0.010327639 -2.4689097e-21)
(0.086992348 -0.014707295 -4.108151e-20)
(0.090787013 -0.019615676 1.6765506e-21)
(0.096121167 -0.022196498 -9.613508e-21)
(0.079298142 -0.00027841734 2.8346543e-20)
(0.079533739 0.0002367814 7.9176728e-22)
(0.085240769 0.0014940674 -1.4669514e-23)
(0.085698536 0.00077234529 -4.0532948e-21)
(0.086378263 0.00042320927 -6.2282827e-20)
(0.087396272 0.00086748052 -2.8594988e-22)
(0.088381443 0.00088613944 -2.573175e-20)
(0.088842243 0.0014141203 -1.2400746e-22)
(0.089346189 0.0014576227 -8.357907e-21)
(0.08939056 0.0019382476 -2.4328713e-20)
(0.08940281 0.0015678564 3.1491667e-20)
(0.089309959 0.002087344 -1.221767e-20)
(0.089149968 0.0016135693 -5.7335008e-21)
(0.088769795 0.0018697288 1.3513034e-21)
(0.088512158 0.0013982002 9.6481709e-21)
(0.088131 0.00034821388 3.741311e-22)
(0.087173222 0.0011494441 1.6427766e-20)
(0.087192301 -0.00035236356 4.0194941e-20)
(0.087087457 -0.0019554159 7.037579e-22)
(0.085917863 -9.7298313e-05 0)
(0.086823332 -0.0035744275 3.8855967e-21)
(0.087034262 -0.0051989761 3.8137991e-20)
(0.085179088 -0.0038066104 3.2503901e-20)
(0.086775975 -0.0050301716 0)
(0.088949113 -0.0092844134 2.98584e-20)
(0.087563655 -0.011171156 2.2784959e-20)
(0.086708066 -0.0088259105 -2.2951078e-20)
(0.087833618 -0.0094222617 5.2402268e-20)
(0.089160896 -0.014693296 3.0570745e-20)
(0.09096969 -0.02005821 2.7107934e-20)
(0.094391714 -0.021579777 -3.2683229e-20)
(0.079000425 0.0020662713 9.5257838e-22)
(0.078592499 0.001737532 4.4261634e-20)
(0.084014706 0.00083060628 -1.4112294e-22)
(0.084536597 -0.00073169155 7.9542449e-20)
(0.085211761 0.0011100586 -7.610595e-20)
(0.086406271 7.7982154e-05 6.8218732e-20)
(0.087538506 0.0010210171 9.5723556e-20)
(0.08816969 0.0010688655 -1.7189932e-23)
(0.088854967 0.001200825 -1.9850693e-22)
(0.089137121 0.0017994971 -4.3842539e-21)
(0.08925487 0.0014495214 -1.2193674e-22)
(0.089259181 0.0018524678 2.3434445e-23)
(0.089158775 0.0012945651 -2.5779316e-21)
(0.088852613 0.0016396675 1.2325531e-23)
(0.088832287 0.00095211789 -1.0184481e-20)
(0.088304891 0.00050943944 1.2015434e-21)
(0.087487287 0.0011621033 -6.9412848e-23)
(0.08780195 -0.00064141903 -8.7369047e-20)
(0.087191407 -0.0016019931 0)
(0.086401949 -0.00027650313 -1.4033387e-21)
(0.087656259 -0.0038754398 -3.0932751e-21)
(0.087126162 -0.0040880381 3.2328828e-20)
(0.085219237 -0.0031319788 -1.0011594e-21)
(0.087379686 -0.0053147858 1.1504188e-20)
(0.089837529 -0.0077392084 3.333846e-21)
(0.087594756 -0.0086198032 4.4299202e-21)
(0.086617168 -0.0079945632 1.0055022e-20)
(0.089638846 -0.0092962641 -2.304013e-21)
(0.092240199 -0.014781805 1.0219047e-19)
(0.092501535 -0.019815945 -3.0863864e-20)
(0.092219691 -0.020963795 2.2091494e-21)
(0.078881981 0.0038417419 -2.1798003e-19)
(0.078169071 0.0028906997 0)
(0.08337475 -0.00049754128 1.144858e-19)
(0.083395728 -0.0016456548 -5.6284566e-20)
(0.083885562 0.0016773574 1.3681328e-19)
(0.085165892 -0.00026211969 2.8330908e-22)
(0.086343864 0.0011232636 3.8249849e-20)
(0.087178771 0.00083978116 6.8238324e-23)
(0.087919902 0.0011927275 -2.2763967e-20)
(0.088454402 0.0014589029 -4.8204807e-20)
(0.088721287 0.0014783286 3.5109618e-20)
(0.088896787 0.0016049977 1.0622798e-23)
(0.088873961 0.0011909207 -9.0799177e-21)
(0.088700471 0.0014166386 -7.6382966e-22)
(0.08883113 0.00066151409 1.0852923e-20)
(0.088214126 0.00075693045 -5.0292111e-21)
(0.087664174 0.00091808488 -6.7643193e-21)
(0.088162702 -0.00087044763 -3.0145422e-20)
(0.087132051 -0.00089001287 2.0853042e-22)
(0.086848789 -0.00051165591 3.8002095e-22)
(0.088134893 -0.0038998819 1.3097691e-21)
(0.08700889 -0.002649834 5.5553495e-22)
(0.085450718 -0.0026103013 0)
(0.087671349 -0.0061665278 5.4648599e-21)
(0.090039592 -0.006723942 1.4777381e-20)
(0.087902998 -0.0060308527 2.0843701e-20)
(0.086669496 -0.007767627 -6.5864583e-21)
(0.090574606 -0.010222592 1.2565483e-20)
(0.094824648 -0.013846506 -2.6610461e-20)
(0.094952418 -0.017494415 5.1679493e-20)
(0.092354569 -0.018935652 -1.9268198e-20)
(0.079174533 0.0042702908 5.211475e-20)
(0.078569531 0.0029286267 -1.8352977e-23)
(0.08360819 -0.0019941789 -3.6390818e-20)
(0.082949008 -0.0018165438 -9.0006187e-21)
(0.083259719 0.0017678782 4.095868e-22)
(0.08437791 -1.317877e-05 6.0310729e-22)
(0.085232561 0.0010804709 -1.654561e-20)
(0.086150965 0.00082137494 1.2252906e-23)
(0.086759562 0.0013470025 -1.7113727e-20)
(0.087279169 0.0011410842 1.4366127e-20)
(0.087606113 0.0015980778 7.3395922e-20)
(0.088044206 0.0013122237 0)
(0.08815781 0.0012763535 4.3490763e-22)
(0.088178662 0.0010956432 4.6389538e-22)
(0.088382916 0.00051027158 -1.3556692e-20)
(0.087847239 0.00092005421 1.8881786e-21)
(0.087666857 0.00043679218 -2.7752443e-21)
(0.08812535 -0.00089762669 6.7252806e-21)
(0.086920188 -1.9508832e-05 -2.3775972e-20)
(0.087197411 -0.0009473701 2.7645292e-20)
(0.088146697 -0.003554296 -7.9312281e-21)
(0.086764937 -0.0012555767 -1.0578398e-21)
(0.086224144 -0.002166407 8.6745256e-22)
(0.087983014 -0.0070500165 3.3228669e-21)
(0.089470753 -0.0064793589 -3.5965094e-22)
(0.08834515 -0.0043870727 6.4983768e-21)
(0.087605872 -0.0074694604 5.5420634e-20)
(0.090664965 -0.011830976 3.9080038e-21)
(0.095069731 -0.013055502 2.9794738e-20)
(0.095963806 -0.013456669 -2.2057684e-20)
(0.093467194 -0.014487148 4.765882e-20)
(0.08383723 0.0035953591 8.8809683e-20)
(0.080043476 0.002034074 -1.9112152e-22)
(0.084556802 -0.0027610863 2.4639438e-19)
(0.083192743 -0.0011105243 -7.29265e-20)
(0.083431213 0.0013303661 5.7839587e-22)
(0.084455527 0.00059890024 0)
(0.085045783 0.00087949419 2.9254945e-20)
(0.08569676 0.00092912547 -1.7370496e-20)
(0.086216185 0.0014408611 -2.6551367e-21)
(0.086619995 0.0010525635 1.0589467e-21)
(0.08683004 0.0016911659 -6.3017496e-23)
(0.087200777 0.00096329966 9.2145594e-23)
(0.08722548 0.0015401649 0)
(0.087351393 0.00085989646 3.1719236e-20)
(0.087511459 0.00059621206 1.4249118e-20)
(0.087088426 0.0011295722 7.4850762e-22)
(0.087206847 -3.3286143e-05 2.1791337e-20)
(0.087526234 -0.00080481296 -2.1787011e-20)
(0.086483834 0.00060639549 -1.0859443e-20)
(0.087291913 -0.0015131875 4.1757164e-20)
(0.087644416 -0.0031151944 -9.5208185e-21)
(0.086328591 -0.00030256595 -3.6162934e-20)
(0.087253695 -0.0019745748 7.0256558e-20)
(0.088469867 -0.0072100502 3.4370579e-20)
(0.088433613 -0.0062324834 6.6313808e-20)
(0.088459825 -0.003925923 2.2976182e-22)
(0.089370133 -0.0068147007 -1.0481432e-21)
(0.091128994 -0.012086598 -1.7159149e-20)
(0.093792615 -0.012430723 5.0154212e-20)
(0.095185459 -0.010117511 4.41282e-20)
(0.094425657 -0.0098522944 -3.5623873e-20)
(0.097795425 0.0021676468 3.237817e-21)
(0.084926641 0.0004332396 -3.7398751e-22)
(0.087667844 -0.0023589233 7.9614922e-20)
(0.085522918 0.00042935411 -1.1645774e-22)
(0.085133702 0.00057832576 -1.2311233e-21)
(0.085474172 0.0011999122 -1.6028924e-19)
(0.085723752 0.00066046573 5.0732624e-20)
(0.086102109 0.0010728126 1.0333222e-23)
(0.086564755 0.001274862 -2.1301917e-20)
(0.086791392 0.0011777644 1.3548981e-20)
(0.086984932 0.0015487023 6.0090716e-21)
(0.087166359 0.00079985977 3.4718837e-21)
(0.087020434 0.0017032438 0)
(0.087022096 0.0006876511 -3.736591e-22)
(0.086784957 0.00075419033 2.6294102e-20)
(0.086347299 0.0013202573 -4.54758e-23)
(0.086457911 -0.0004131623 -7.3487141e-22)
(0.086344691 -0.00064284566 -1.6301004e-22)
(0.085646479 0.00087106403 5.6187887e-22)
(0.08693515 -0.0019099078 -4.4640209e-22)
(0.086543333 -0.0024631862 1.5014163e-20)
(0.085447922 -0.00015516007 -2.5763755e-20)
(0.087907881 -0.002110482 4.9364852e-21)
(0.088830734 -0.0066280191 9.153677e-21)
(0.087407615 -0.0055078365 1.6737558e-20)
(0.088122543 -0.0040662871 4.9721807e-21)
(0.090623871 -0.0066309296 -3.2525493e-20)
(0.091814631 -0.01099865 2.4101093e-20)
(0.092276355 -0.011162493 -4.383402e-21)
(0.093443772 -0.0079287216 -6.2790394e-20)
(0.094677668 -0.0065536978 3.5248364e-21)
(0.10009211 0.00011391548 1.3083973e-19)
(0.09046246 -0.00092278127 0)
(0.092407004 -0.00084543584 -2.4049783e-20)
(0.09001236 0.0019662688 1.014935e-19)
(0.088997056 -0.00014724094 1.6935318e-19)
(0.088718458 0.0014433282 -1.3153986e-20)
(0.088304563 0.00064589753 -1.5235029e-22)
(0.088246444 0.0012026587 2.5816448e-23)
(0.088277769 0.00095009735 2.2467062e-20)
(0.088057129 0.0014053374 1.8166058e-20)
(0.088022519 0.0012293136 -1.6549084e-20)
(0.087824381 0.0010269323 -1.8898705e-23)
(0.087487547 0.0016739947 1.6055058e-20)
(0.08730109 0.00070406582 0)
(0.086700869 0.00089097293 1.3549665e-20)
(0.086337123 0.0011132248 2.9812314e-21)
(0.086273664 -0.00056410704 -2.3066437e-20)
(0.085558539 -0.0005009181 -3.6173753e-20)
(0.08516719 0.00058937015 -1.7874715e-22)
(0.086612707 -0.0022566153 -1.503379e-20)
(0.085488355 -0.0015981404 -9.6505642e-22)
(0.084474344 -0.00080165094 -2.4375579e-22)
(0.087916849 -0.0025885722 -3.9296614e-20)
(0.08863283 -0.0052933185 -2.6914698e-20)
(0.086334187 -0.004294257 -2.5479651e-20)
(0.087588306 -0.0036017589 -1.6617006e-21)
(0.091266661 -0.0063096879 2.8550322e-20)
(0.092391446 -0.0091952581 5.743054e-22)
(0.091093634 -0.0095939836 -4.6912268e-20)
(0.091384823 -0.0072455261 2.6720606e-20)
(0.094037268 -0.0059860294 -1.0987539e-20)
(0.095736597 -0.00119876 -6.7894826e-20)
(0.091488306 -0.001452525 1.6902226e-19)
(0.094388859 0.001044536 7.274012e-22)
(0.092806482 0.0025006025 4.0216024e-22)
(0.092435416 -0.00059097526 2.7640636e-22)
(0.092419228 0.0011636348 -1.1738195e-19)
(0.092342121 0.00073158159 -1.1335563e-20)
(0.092033861 0.0011259575 9.7189306e-23)
(0.091655223 0.00061760395 8.7926537e-23)
(0.090982786 0.0014047865 -1.0145261e-20)
(0.090567145 0.00072172176 1.0495841e-22)
(0.089774338 0.0011786989 -2.2077431e-21)
(0.089027618 0.0012853774 -1.5815446e-23)
(0.088353503 0.00082727769 -3.6653344e-22)
(0.08733286 0.00086684177 0)
(0.086947687 0.00067881633 0)
(0.086695355 -0.00038212508 1.2921479e-20)
(0.085585326 -9.961192e-05 -1.1591836e-21)
(0.085492499 6.7210196e-05 -3.5310548e-20)
(0.086783175 -0.0023601328 -8.5548763e-22)
(0.085329385 -0.00054419255 1.7149053e-21)
(0.084383307 -0.0016666149 -1.4196013e-20)
(0.087822506 -0.0037146802 0)
(0.088400791 -0.0036410635 0)
(0.085530831 -0.0029621986 0)
(0.086918093 -0.0033664975 9.2240046e-21)
(0.091208021 -0.0056663566 -9.0610068e-22)
(0.092457826 -0.0066793469 -9.0918802e-21)
(0.090418538 -0.0072139752 -8.2887703e-21)
(0.08977211 -0.007014259 -1.0119759e-22)
(0.092679381 -0.0074902529 9.8390079e-21)
(0.0870413 -0.0010624266 -2.7535705e-20)
(0.088008517 -0.0009942909 2.3920685e-21)
(0.092969374 0.0020527616 -1.0592744e-21)
(0.092262327 0.0019289069 8.5380614e-20)
(0.092341518 -0.00037839084 0)
(0.092642627 0.00068485672 -4.4031781e-22)
(0.09291142 0.00099055701 3.7963657e-20)
(0.093089868 0.00097077022 -8.371608e-22)
(0.093065362 0.00066057003 -7.390832e-23)
(0.092890688 0.0012161344 -6.9840539e-21)
(0.092791477 0.000425894 -5.8385722e-21)
(0.092035222 0.0012493808 0)
(0.091340401 0.00072720771 1.8436621e-20)
(0.090499183 0.0009638158 -1.8202193e-20)
(0.089267425 0.00082038251 1.7850379e-20)
(0.088847356 2.2413915e-05 7.0555188e-22)
(0.088284586 -0.00039989911 5.3276538e-21)
(0.086928198 0.00028664721 7.1369976e-22)
(0.086988755 -0.00073995237 -4.1121308e-20)
(0.087753119 -0.0023311931 -1.7444545e-22)
(0.086376367 0.00065140553 -5.9367693e-22)
(0.085770036 -0.002076057 5.2335044e-20)
(0.088269955 -0.0047759064 -2.0839406e-20)
(0.088599296 -0.0017673657 0)
(0.086041491 -0.001108967 -3.7847999e-21)
(0.087114167 -0.0037445572 -2.3033404e-21)
(0.09090368 -0.0053279186 2.7392279e-20)
(0.092424537 -0.0041249327 -5.6645064e-21)
(0.090863365 -0.0039241267 -1.4111742e-20)
(0.089735447 -0.0057669051 -2.1083647e-20)
(0.091982338 -0.0086384055 -7.5824773e-21)
(0.082140088 0.00069885885 3.1064564e-20)
(0.082376306 0.00063651364 -6.4487089e-20)
(0.088843733 0.0015311886 7.765885e-22)
(0.089028714 0.00044660497 -1.3784115e-19)
(0.089831599 0.00013046474 1.7640006e-19)
(0.090734779 6.6418991e-05 2.0145625e-22)
(0.091516156 0.00084756955 -1.2081753e-19)
(0.092077323 0.00062231031 -4.7896805e-21)
(0.092365826 0.00086513816 2.5668304e-23)
(0.092536435 0.00076954659 1.1924238e-22)
(0.092635987 0.000373914 1.4699082e-20)
(0.092416536 0.0011170508 -1.9154444e-22)
(0.092436894 0.00021180229 -2.4338925e-22)
(0.092278196 0.00083782582 8.8385683e-23)
(0.091767701 0.00070604533 2.0318016e-20)
(0.091609152 -0.00046232596 5.1171639e-23)
(0.091180498 1.8533198e-05 8.1821717e-21)
(0.090048841 0.0007700994 2.3671605e-22)
(0.09022764 -0.0013152338 -7.969154e-22)
(0.090085994 -0.0022023458 0)
(0.089061109 0.001420014 -2.0673262e-20)
(0.089169626 -0.00206239 -3.0849875e-22)
(0.089909849 -0.00533642 -3.6505237e-20)
(0.089612383 -0.00078932547 2.3481372e-21)
(0.088445503 0.00063916962 1.4715029e-20)
(0.08910856 -0.0041914036 -4.5641035e-20)
(0.091187237 -0.0059685132 -1.7429198e-20)
(0.092427098 -0.0031558115 1.1801109e-22)
(0.092251718 -0.0016214584 3.5182239e-21)
(0.09179442 -0.0040411905 3.0772482e-20)
(0.092909231 -0.0082786906 4.2361309e-21)
(0.082558229 0.0030584432 -2.7478527e-20)
(0.081140467 0.0018557316 9.4971042e-23)
(0.085890277 -0.00067355096 4.1598903e-23)
(0.085671754 -0.0010446857 -1.3162974e-21)
(0.086413523 0.001227132 8.7886684e-22)
(0.08737356 -6.858045e-05 -8.5823536e-21)
(0.088601476 0.00057361301 0)
(0.089477605 0.00044428615 1.6935824e-22)
(0.090181193 0.0011837698 -1.5881467e-25)
(0.090855563 0.00035570189 3.3037595e-20)
(0.091291812 0.00062388513 -1.3277442e-23)
(0.091641962 0.0011124853 7.4488276e-23)
(0.092029298 0.00026365927 -2.4692644e-20)
(0.092251015 0.00084737419 4.6615301e-21)
(0.092611248 0.00048849953 -1.8966985e-20)
(0.092914385 -0.001191207 -7.4365924e-23)
(0.092813091 -0.00035826398 -2.2273818e-22)
(0.092714175 0.00068655961 6.8106643e-23)
(0.093482515 -0.0014909331 0)
(0.092656889 -0.0017284411 -4.4296341e-20)
(0.092273675 0.0015999609 -2.5780015e-20)
(0.093606232 -0.0013252844 -3.2600053e-20)
(0.092781514 -0.0044737142 -2.7104268e-21)
(0.091315541 -0.00049030482 8.1481364e-22)
(0.092008975 0.0015334452 5.1072059e-21)
(0.093197611 -0.0036334175 3.5625432e-20)
(0.092882379 -0.0061920058 -3.151243e-21)
(0.092752046 -0.0033672229 3.4774446e-20)
(0.093759389 -0.00080297616 -6.5566849e-21)
(0.095051691 -0.0027122268 1.990761e-20)
(0.095451325 -0.0068282057 9.3855566e-22)
(0.087235721 0.0047452831 -4.0075359e-20)
(0.082522464 0.0031648965 -3.6099478e-23)
(0.086379164 -0.0030864368 -1.5647476e-21)
(0.08524205 -0.0022101883 1.1707414e-20)
(0.085540371 0.0015269796 4.9592516e-23)
(0.086228442 -0.00019745443 5.0174473e-20)
(0.086901269 -8.3078336e-07 0)
(0.087504776 6.7106867e-05 0)
(0.088101394 0.0011066237 8.4929093e-21)
(0.088863263 0.000104133 0)
(0.089355948 0.00071794202 2.6574295e-20)
(0.090055584 0.00092685764 7.332e-21)
(0.090739522 0.00040067305 0)
(0.091355995 0.00048479791 9.5795831e-21)
(0.092331481 0.00089192135 -1.7448441e-20)
(0.092657622 -0.00051644891 -2.9834471e-22)
(0.092287283 6.6069102e-05 -6.5826227e-22)
(0.092772548 0.0007059795 -2.1679353e-21)
(0.093969623 -0.0014045046 1.9247949e-20)
(0.092628407 -0.0011127416 -2.034582e-20)
(0.09273739 0.00057586789 2.1423858e-20)
(0.095383047 -0.0012700395 -1.7359852e-22)
(0.094009364 -0.0031181624 -1.8765531e-21)
(0.091651403 -0.0010142018 -1.8014651e-20)
(0.09395334 0.00033149922 1.2372512e-20)
(0.096687234 -0.0033165016 9.8304754e-20)
(0.09514287 -0.0056482616 1.5108342e-21)
(0.093319749 -0.0041522845 -1.6627953e-21)
(0.094943054 -0.0019537639 3.7410828e-20)
(0.097910522 -0.0028839112 -2.0359237e-20)
(0.098855331 -0.0057336326 -3.289684e-20)
(0.096462696 0.0050263148 1.9593849e-20)
(0.086676719 0.0020757167 3.1533107e-22)
(0.089143017 -0.0043851065 1.6154326e-19)
(0.086777458 -0.001770771 6.8914859e-20)
(0.086588443 0.0016620908 -1.304175e-19)
(0.087086633 0.00033225727 8.9283233e-22)
(0.087288279 0.00010000011 -8.5791393e-23)
(0.087564857 0.00021093898 -6.523008e-21)
(0.088110587 0.00079676337 -8.9419345e-20)
(0.088644784 0.00020806749 1.6501875e-20)
(0.08877553 0.00080504919 -1.2950842e-20)
(0.089261767 0.00097144374 4.9614577e-23)
(0.089727694 0.00081519364 -6.683611e-21)
(0.089874808 0.00056755873 5.6049329e-21)
(0.090726006 0.00010011289 -1.3021242e-20)
(0.091500165 -0.00095511957 -3.6621871e-21)
(0.091049509 -0.00019472232 1.5065234e-20)
(0.091884821 0.00020636945 -1.0630264e-20)
(0.093214925 -0.00091244019 -1.3249939e-21)
(0.091624936 0.00027960856 -2.9273043e-21)
(0.091897219 -0.00019920401 3.5464043e-21)
(0.095043495 -0.0010722653 7.6230683e-21)
(0.093787982 -0.0008496548 -1.8490193e-20)
(0.090913201 -0.00033053764 -1.3503494e-22)
(0.093575427 -0.0012003208 1.4672818e-22)
(0.097415328 -0.0028858086 -3.0614992e-20)
(0.095976174 -0.0034656387 -8.4748693e-22)
(0.093220851 -0.0034173986 1.234728e-20)
(0.094591954 -0.0029361209 -2.3320639e-20)
(0.09868141 -0.003246256 9.0214253e-21)
(0.10082243 -0.0040456605 -1.0426108e-20)
(0.094828576 0.0029065916 4.0115433e-20)
(0.089791098 0.0010113023 1.2321252e-22)
(0.092121458 -0.0039638503 1.1871829e-22)
(0.089604125 -0.00084800105 8.6698286e-22)
(0.089335304 0.00047328187 9.7710501e-20)
(0.089423124 0.00022839593 -1.173515e-19)
(0.089178045 -2.7058609e-06 6.9634891e-20)
(0.089162596 0.00017545369 7.1111285e-21)
(0.089417377 0.00030747596 -2.7310154e-20)
(0.089544444 0.00044367267 2.9968414e-23)
(0.089371801 0.00063781337 -9.8448414e-21)
(0.089646394 0.00042467836 -1.8375147e-20)
(0.089736331 0.00071783574 5.4393827e-22)
(0.089717559 0.0001285599 4.1765025e-21)
(0.090141848 0.0014803818 -1.0207393e-23)
(0.090054339 0.00036788348 8.8717785e-21)
(0.088931835 -7.9634913e-05 -6.8157556e-21)
(0.089666505 -0.00073506113 0)
(0.090862711 -0.00094754636 -4.4801725e-22)
(0.089568312 0.00088509905 2.8719702e-22)
(0.08985375 -0.0019003483 3.7613746e-20)
(0.092726588 -0.0020720567 -1.4426885e-20)
(0.092037245 0.00020626761 1.0841507e-20)
(0.089691592 -5.5747617e-05 -2.4888968e-20)
(0.0920231 -0.0033574155 -8.8001903e-21)
(0.095807154 -0.0035035766 -1.1343519e-20)
(0.095280906 -0.0016103752 -8.1596165e-21)
(0.09280615 -0.0019567503 -2.6855693e-20)
(0.093423822 -0.0039139973 2.5553136e-21)
(0.097187039 -0.0046397131 -2.9064845e-20)
(0.10024919 -0.0035491845 -4.7250487e-20)
(0.087035678 0.0010232239 1.2600586e-20)
(0.088536783 -0.0012243398 5.7026723e-20)
(0.092711359 -0.0015562073 -3.546935e-20)
(0.090599837 0.0011964649 -8.6219197e-20)
(0.091229426 -0.00019312484 7.8910835e-23)
(0.091866586 0.0003266124 -4.0923567e-23)
(0.091837082 0.0003500285 3.9741268e-23)
(0.091618292 0.0006477617 1.2361379e-20)
(0.091579918 -7.2596855e-06 8.0088999e-21)
(0.091445608 0.00061833506 -4.4514508e-21)
(0.091096496 0.00067241008 3.1810257e-21)
(0.090850599 0.00038703696 1.9183464e-23)
(0.090683296 0.00081879782 -7.5271597e-21)
(0.089434988 0.00051783735 1.4825982e-23)
(0.089881045 -0.00074492636 -3.5845224e-20)
(0.090250252 0.00015042587 -3.4174031e-21)
(0.089168293 0.00044011415 -3.3630698e-23)
(0.089192234 -0.00059643148 9.5385703e-23)
(0.089613262 -3.3132403e-05 -6.6077182e-20)
(0.08872591 0.0023995571 3.5302675e-20)
(0.088780886 -0.0019669674 -1.9718874e-21)
(0.090388034 -0.001988032 5.4017038e-20)
(0.090196084 0.0017124915 2.4163893e-21)
(0.089045858 0.0010771472 -5.7048026e-20)
(0.090691342 -0.0039458733 8.9735976e-21)
(0.093218174 -0.0031922206 -3.1442756e-20)
(0.093590096 0.00081917756 -6.4889512e-20)
(0.092701591 0.0013444704 -2.5873902e-20)
(0.093066968 -0.0024534788 -2.8051287e-20)
(0.095265295 -0.0045847224 1.8386372e-20)
(0.097645997 -0.0027425019 8.7591079e-21)
(0.097108489 -0.00077609357 2.6986256e-20)
(0.092018786 -0.00065852062 3.2455109e-21)
(0.094295246 0.00020048347 -1.5123085e-21)
(0.092198421 0.0022287922 -7.1425406e-22)
(0.092825293 -0.0011124719 2.956967e-22)
(0.093270057 5.4074815e-05 -5.9997234e-22)
(0.093325395 0.00037437018 2.16216e-22)
(0.093456609 0.00050354692 -2.6590421e-22)
(0.093441067 7.6664744e-05 -2.3925085e-24)
(0.093317587 0.00046683531 7.4453743e-24)
(0.093055741 0.0001603556 -4.5241479e-23)
(0.092869776 -0.00032649519 -1.2648781e-20)
(0.092378822 0.00038778095 6.3993306e-21)
(0.092290447 0.00011830939 1.0773792e-24)
(0.091925708 0.0025459865 5.2053726e-22)
(0.090961425 -0.0004177654 3.7227727e-22)
(0.090137875 -0.00036865191 4.2806863e-22)
(0.090271741 -0.0013767093 -5.211023e-22)
(0.090079723 -0.00095731789 6.986967e-20)
(0.090030094 0.0018698775 -3.0321635e-20)
(0.090260567 -0.0025729472 -6.4986712e-20)
(0.090096668 -0.0030361628 -3.8492082e-22)
(0.089962554 0.0016944432 5.4804471e-22)
(0.090557843 0.00078257759 8.7112606e-22)
(0.09151068 -0.004110681 2.6230338e-20)
(0.091745653 -0.0039737105 3.2543727e-20)
(0.092126078 0.0013342068 2.6082367e-21)
(0.093532135 0.0028043529 -3.5925963e-21)
(0.094725163 -0.00095324934 -3.1691467e-20)
(0.095127507 -0.0043105374 1.8392432e-20)
(0.095797053 -0.0031683561 1.7617765e-20)
(0.10315688 -0.00062042868 3.808045e-21)
(0.089085288 -0.0027497653 -1.8778774e-19)
(0.09288765 0.001721368 6.1448404e-20)
(0.091675933 0.0027046029 -3.7406661e-20)
(0.09256212 -0.00083025747 -1.3990356e-19)
(0.0934199 0.00021243911 6.3038623e-20)
(0.09383302 0.00061487149 1.7519346e-19)
(0.094485412 0.00067764411 -2.687142e-23)
(0.095082898 0.00010631077 -3.7782208e-20)
(0.095475368 0.0003124746 5.469491e-20)
(0.095556922 0.00041248982 -3.4555813e-20)
(0.095624262 -6.3745742e-05 3.7137618e-22)
(0.095575196 0.00033507436 -3.55539e-22)
(0.094562345 0.00081606772 4.5024853e-20)
(0.096001444 -0.002073328 -4.2382454e-22)
(0.096141361 0.00090751564 -1.8068745e-20)
(0.09444778 0.00068067136 -1.6054439e-22)
(0.09419138 -0.00014198182 3.9884157e-20)
(0.093084655 -9.7678778e-05 -5.8239175e-22)
(0.093664463 0.0020470177 -7.1368619e-21)
(0.094517802 -0.001133269 6.0142233e-20)
(0.092821576 -0.0024782495 3.9363058e-22)
(0.092673841 0.0015379627 -1.4481212e-21)
(0.095062801 0.0010931482 4.0568431e-20)
(0.096291287 -0.0022539906 -2.524314e-21)
(0.094371626 -0.0031194022 -1.1647151e-20)
(0.093997451 0.0012156206 1.6314901e-19)
(0.097173545 0.0032904671 0)
(0.10008428 0.0010441117 1.954611e-20)
(0.099579358 -0.0015626321 5.6316923e-20)
(0.098360876 -0.0013393315 -7.7001413e-21)
(0.093843253 0.00029118681 -3.9486823e-20)
(0.050709628 -6.7796538e-05 0)
(0.10485109 -0.0022175653 -2.169522e-22)
(0.10626688 0.00082107933 -5.6740258e-21)
(0.0969012 -0.00032093586 -1.7326053e-20)
(0.10828739 2.5448677e-05 1.7380113e-21)
(0.098931157 -0.00015722868 1.0142436e-19)
(0.11041579 0.00011392434 8.6083352e-21)
(0.09879404 0.0004478755 -1.3598838e-20)
(0.10941016 -0.00020087788 2.2394103e-20)
(0.10153906 -4.4705899e-05 -4.5872007e-22)
(0.11019183 -5.9429871e-05 7.096861e-22)
(0.097986944 -5.7681625e-05 -8.1638245e-25)
(0.11265016 -0.00037764569 1.5283586e-20)
(0.098103091 0.0049117298 4.1983541e-21)
(0.10412292 -0.0041613662 -9.0182779e-22)
(0.10936082 -0.0011726972 4.7965765e-21)
(0.10966233 -0.00048514749 1.585112e-20)
(0.10522596 -0.001041201 -1.4680751e-20)
(0.11275074 1.6734832e-05 4.9057152e-22)
(0.10920945 -0.00074300472 2.4878995e-20)
(0.11233054 -0.0011129157 -1.0905507e-22)
(0.1098122 9.0749566e-05 3.4097858e-21)
(0.11480109 -0.00040630936 -6.5262752e-21)
(0.11715185 -0.00035828108 -1.4324923e-20)