/*--------------------------------*- C++ -*----------------------------------*\
| =========                 |                                                 |
| \\      /  F ield         | OpenFOAM: The Open Source CFD Toolbox           |
|  \\    /   O peration     | Version:  2406                                  |
|   \\  /    A nd           | Website:  www.openfoam.com                      |
|    \\/     M anipulation  |                                                 |
\*---------------------------------------------------------------------------*/
FoamFile
{
    version     2.0;
    format      ascii;
    arch        "LSB;label=32;scalar=64";
    class       volScalarField;
    location    "5";
    object      alphat;
}
// * * * * * * * * * * * * * * * * * * * * * * * * * * * * * * * * * * * * * //

dimensions      [1 -1 -1 0 0 0 0];

internalField   nonuniform List<scalar> 
62344
(
9.6603867e-07
9.4552452e-07
9.6277846e-07
9.8243934e-07
9.7836646e-07
9.5556651e-07
9.3353511e-07
9.1181846e-07
8.9503078e-07
8.88242e-07
8.8410306e-07
8.8072462e-07
8.8139908e-07
8.8311491e-07
8.8915595e-07
8.9754738e-07
9.1213862e-07
9.219684e-07
9.2496048e-07
9.3004066e-07
9.3328519e-07
9.4100567e-07
9.4490514e-07
9.6006925e-07
9.5520139e-07
9.6362582e-07
9.7698636e-07
9.6859736e-07
9.7434311e-07
9.991003e-07
1.0089663e-06
1.0026127e-06
1.0138905e-06
1.046361e-06
1.0640304e-06
1.0652691e-06
1.071703e-06
1.1191339e-06
1.1918672e-06
1.2693023e-06
1.2910699e-06
1.3135769e-06
1.3414365e-06
1.4063532e-06
1.4551958e-06
1.5433602e-06
1.6084354e-06
1.6844874e-06
1.7262258e-06
1.7507679e-06
1.7458172e-06
1.7532392e-06
1.7656745e-06
1.8136217e-06
1.8841873e-06
9.6640384e-07
9.4650722e-07
9.620957e-07
9.8313616e-07
9.8251917e-07
9.5911491e-07
9.3396591e-07
9.124731e-07
8.9522345e-07
8.8501446e-07
8.8205096e-07
8.8027648e-07
8.8241596e-07
8.8173072e-07
8.8749758e-07
8.9234322e-07
9.0687621e-07
9.1711595e-07
9.1940178e-07
9.2374343e-07
9.2987156e-07
9.3508896e-07
9.3793623e-07
9.5214323e-07
9.478106e-07
9.5594413e-07
9.6394e-07
9.5291861e-07
9.6077676e-07
9.8735671e-07
9.9313685e-07
9.8538201e-07
9.9692052e-07
1.0336072e-06
1.0549772e-06
1.0539241e-06
1.0551635e-06
1.1020505e-06
1.1736598e-06
1.2401594e-06
1.2612738e-06
1.2895909e-06
1.3279589e-06
1.4163121e-06
1.4923528e-06
1.5925134e-06
1.6429671e-06
1.6983565e-06
1.7597263e-06
1.8362986e-06
1.8592798e-06
1.8794374e-06
1.8697212e-06
1.9171821e-06
1.9387963e-06
9.6674401e-07
9.460708e-07
9.614894e-07
9.8279605e-07
9.8635219e-07
9.6640361e-07
9.3586371e-07
9.1087331e-07
8.9734123e-07
8.8711376e-07
8.8042233e-07
8.7896936e-07
8.8224016e-07
8.8099453e-07
8.8760123e-07
8.9105107e-07
9.0602213e-07
9.1668589e-07
9.2009878e-07
9.2373268e-07
9.3000065e-07
9.3494798e-07
9.3957047e-07
9.5083885e-07
9.4674604e-07
9.5422126e-07
9.5660222e-07
9.4530131e-07
9.5579123e-07
9.809747e-07
9.8492409e-07
9.7563647e-07
9.8997986e-07
1.0242911e-06
1.0426636e-06
1.0372949e-06
1.0338557e-06
1.071157e-06
1.128738e-06
1.1768159e-06
1.2046869e-06
1.2337266e-06
1.2944885e-06
1.402164e-06
1.5040204e-06
1.5973061e-06
1.6448279e-06
1.6770271e-06
1.735268e-06
1.8532805e-06
1.91997e-06
1.9826503e-06
1.9798758e-06
2.02676e-06
2.0263039e-06
9.6746604e-07
9.4558511e-07
9.6192533e-07
9.8276198e-07
9.8554687e-07
9.6851393e-07
9.3772798e-07
9.1085448e-07
8.9870734e-07
8.904956e-07
8.8248403e-07
8.7953723e-07
8.7924646e-07
8.7742143e-07
8.8482297e-07
8.8856706e-07
9.0180816e-07
9.1358656e-07
9.2086653e-07
9.2540183e-07
9.3103909e-07
9.3471742e-07
9.4047285e-07
9.4853527e-07
9.4425988e-07
9.5143977e-07
9.4800788e-07
9.3970981e-07
9.5461298e-07
9.7825819e-07
9.8022728e-07
9.7160285e-07
9.8675212e-07
1.0214493e-06
1.039796e-06
1.035928e-06
1.0370577e-06
1.0640766e-06
1.113122e-06
1.1461656e-06
1.1735322e-06
1.1855107e-06
1.2439476e-06
1.3345685e-06
1.4606926e-06
1.5514391e-06
1.5995849e-06
1.6341919e-06
1.6776819e-06
1.7789163e-06
1.8650249e-06
1.9783774e-06
2.0185938e-06
2.096183e-06
2.0935695e-06
9.6787635e-07
9.4563564e-07
9.63422e-07
9.8538434e-07
9.8497711e-07
9.6656065e-07
9.3992652e-07
9.1473578e-07
8.9967832e-07
8.907779e-07
8.8324921e-07
8.7940119e-07
8.7602067e-07
8.7403524e-07
8.8112051e-07
8.8593079e-07
8.9725081e-07
9.093472e-07
9.1996579e-07
9.2515097e-07
9.3244871e-07
9.3610337e-07
9.4381065e-07
9.4835858e-07
9.4303832e-07
9.4969225e-07
9.4211977e-07
9.3747047e-07
9.5612511e-07
9.7704967e-07
9.7728214e-07
9.7007359e-07
9.8681005e-07
1.0185539e-06
1.0349524e-06
1.035379e-06
1.0410813e-06
1.0659355e-06
1.105046e-06
1.1271189e-06
1.1418419e-06
1.1501983e-06
1.1980572e-06
1.2675517e-06
1.3793926e-06
1.4652013e-06
1.4930876e-06
1.5471778e-06
1.5662642e-06
1.6414522e-06
1.7170095e-06
1.8528019e-06
1.9727464e-06
2.0833538e-06
2.1394028e-06
9.6809774e-07
9.4612696e-07
9.6394029e-07
9.8761415e-07
9.8583821e-07
9.6499999e-07
9.4028116e-07
9.1763345e-07
9.0172613e-07
8.8905272e-07
8.811948e-07
8.7850091e-07
8.7521529e-07
8.7441381e-07
8.789176e-07
8.8433082e-07
8.947677e-07
9.0675716e-07
9.1890986e-07
9.2455276e-07
9.328823e-07
9.3701936e-07
9.4675278e-07
9.4838223e-07
9.4246252e-07
9.4744495e-07
9.3817412e-07
9.3800992e-07
9.584664e-07
9.7472954e-07
9.7411917e-07
9.6996561e-07
9.8777156e-07
1.0170344e-06
1.029538e-06
1.0302609e-06
1.0415395e-06
1.0699092e-06
1.0973695e-06
1.1099101e-06
1.1162856e-06
1.1262175e-06
1.1585681e-06
1.2204137e-06
1.3091761e-06
1.372993e-06
1.4354198e-06
1.4857653e-06
1.5100393e-06
1.5190465e-06
1.583236e-06
1.6423216e-06
1.7723231e-06
1.8862769e-06
2.0357405e-06
9.682178e-07
9.473779e-07
9.6450118e-07
9.8941602e-07
9.8890453e-07
9.6639255e-07
9.3912483e-07
9.1857121e-07
9.0379731e-07
8.8886153e-07
8.8065673e-07
8.7903194e-07
8.7666732e-07
8.7735725e-07
8.7919974e-07
8.8346325e-07
8.9297397e-07
9.0414268e-07
9.1833136e-07
9.2426036e-07
9.3318506e-07
9.3817622e-07
9.4797792e-07
9.4639087e-07
9.4165852e-07
9.4552455e-07
9.3423809e-07
9.380486e-07
9.5812236e-07
9.692809e-07
9.6682502e-07
9.672135e-07
9.8677301e-07
1.0152306e-06
1.0228641e-06
1.0199037e-06
1.0346977e-06
1.0664556e-06
1.0900264e-06
1.0972497e-06
1.1055895e-06
1.1187858e-06
1.152708e-06
1.1945527e-06
1.2553745e-06
1.2960375e-06
1.3766656e-06
1.435596e-06
1.4946291e-06
1.5042735e-06
1.541483e-06
1.5737818e-06
1.6394186e-06
1.7231503e-06
1.8658777e-06
9.686807e-07
9.4796226e-07
9.6403999e-07
9.9092171e-07
9.9322146e-07
9.7085997e-07
9.40394e-07
9.1903733e-07
9.0407983e-07
8.9063479e-07
8.8242476e-07
8.7935573e-07
8.7629833e-07
8.7826094e-07
8.7838334e-07
8.8156265e-07
8.9038356e-07
9.0135178e-07
9.1694377e-07
9.2454797e-07
9.3362613e-07
9.4000016e-07
9.4864322e-07
9.4421777e-07
9.417318e-07
9.4468477e-07
9.3253896e-07
9.3856183e-07
9.572681e-07
9.6256831e-07
9.5749955e-07
9.6336905e-07
9.868002e-07
1.0129122e-06
1.0170223e-06
1.0139327e-06
1.0304476e-06
1.0670333e-06
1.0947035e-06
1.0999552e-06
1.1115742e-06
1.1329416e-06
1.1678087e-06
1.1976443e-06
1.235226e-06
1.2525994e-06
1.3154752e-06
1.3814383e-06
1.4700907e-06
1.49653e-06
1.5341484e-06
1.5808767e-06
1.6129787e-06
1.6902586e-06
1.7895607e-06
9.6934741e-07
9.4819771e-07
9.6351406e-07
9.9182058e-07
9.9656547e-07
9.7510279e-07
9.4465305e-07
9.2119828e-07
9.0412683e-07
8.9344481e-07
8.8571145e-07
8.8118361e-07
8.7654001e-07
8.7850297e-07
8.7787748e-07
8.8101376e-07
8.8983886e-07
9.0132089e-07
9.1635768e-07
9.2680365e-07
9.3677988e-07
9.4306489e-07
9.5044981e-07
9.4482963e-07
9.4359243e-07
9.4445173e-07
9.3155379e-07
9.3889604e-07
9.5565975e-07
9.5618128e-07
9.4808472e-07
9.5825615e-07
9.8730542e-07
1.0119507e-06
1.0129655e-06
1.0131133e-06
1.0331031e-06
1.0711261e-06
1.1078183e-06
1.1158965e-06
1.1292944e-06
1.1613752e-06
1.2011068e-06
1.2235885e-06
1.2414912e-06
1.2493213e-06
1.2673513e-06
1.3370628e-06
1.4139267e-06
1.480276e-06
1.5410876e-06
1.5857604e-06
1.622343e-06
1.6970159e-06
1.7530487e-06
9.6993191e-07
9.4820801e-07
9.6332713e-07
9.9237419e-07
9.9847713e-07
9.7780178e-07
9.497428e-07
9.2514949e-07
9.0527075e-07
8.9439623e-07
8.8786018e-07
8.8302899e-07
8.7836271e-07
8.7905428e-07
8.7741995e-07
8.8091384e-07
8.8970538e-07
9.0174129e-07
9.1521027e-07
9.2796166e-07
9.4033597e-07
9.4643305e-07
9.520601e-07
9.4583028e-07
9.4702129e-07
9.4564369e-07
9.3211341e-07
9.3954519e-07
9.5476697e-07
9.5224368e-07
9.4174517e-07
9.5379063e-07
9.8818938e-07
1.0113879e-06
1.0111889e-06
1.0155406e-06
1.0393302e-06
1.0845213e-06
1.1172078e-06
1.1310424e-06
1.1379973e-06
1.1789903e-06
1.2351489e-06
1.2722607e-06
1.2847821e-06
1.2796959e-06
1.2796573e-06
1.3151448e-06
1.3659104e-06
1.4467712e-06
1.5202134e-06
1.5846478e-06
1.6346377e-06
1.7018129e-06
1.7302298e-06
9.7030684e-07
9.4798451e-07
9.6339729e-07
9.9256621e-07
9.9926463e-07
9.792629e-07
9.534756e-07
9.2878532e-07
9.072804e-07
8.9415135e-07
8.8809543e-07
8.8316338e-07
8.7968465e-07
8.7898312e-07
8.7738259e-07
8.8071139e-07
8.8910971e-07
9.0125075e-07
9.1307069e-07
9.2682065e-07
9.4147637e-07
9.4779401e-07
9.5192718e-07
9.4624959e-07
9.4982863e-07
9.468402e-07
9.3309464e-07
9.3969279e-07
9.53231e-07
9.4918488e-07
9.3801974e-07
9.5080526e-07
9.8651814e-07
1.0094437e-06
1.0087352e-06
1.0153306e-06
1.0451042e-06
1.0925722e-06
1.1214804e-06
1.1325257e-06
1.1326343e-06
1.16563e-06
1.2246214e-06
1.2886933e-06
1.3145939e-06
1.3129582e-06
1.3101101e-06
1.3207769e-06
1.342943e-06
1.4102672e-06
1.4916725e-06
1.5706195e-06
1.619396e-06
1.6750254e-06
1.7106445e-06
9.7040911e-07
9.4783108e-07
9.6364075e-07
9.9253622e-07
9.9935937e-07
9.8059638e-07
9.551171e-07
9.3031182e-07
9.0891684e-07
8.9436182e-07
8.8730822e-07
8.8156945e-07
8.7991341e-07
8.7904275e-07
8.7827226e-07
8.8063633e-07
8.8784758e-07
8.9925735e-07
9.102839e-07
9.2445608e-07
9.4074091e-07
9.4682166e-07
9.5112124e-07
9.4722142e-07
9.5120591e-07
9.4694551e-07
9.3406695e-07
9.3920498e-07
9.5134591e-07
9.470733e-07
9.3548955e-07
9.4858091e-07
9.8443025e-07
1.0058374e-06
1.0052813e-06
1.0104989e-06
1.042835e-06
1.0930805e-06
1.1205835e-06
1.1241056e-06
1.1174488e-06
1.1435532e-06
1.196225e-06
1.26881e-06
1.3167475e-06
1.3241992e-06
1.32773e-06
1.3264913e-06
1.3352727e-06
1.3814909e-06
1.4519553e-06
1.5205981e-06
1.5911038e-06
1.6544581e-06
1.6975154e-06
9.7033861e-07
9.477654e-07
9.6404516e-07
9.9254563e-07
9.9969927e-07
9.826051e-07
9.5610775e-07
9.3015642e-07
9.0959222e-07
8.9572459e-07
8.8734169e-07
8.8015485e-07
8.7992541e-07
8.7920126e-07
8.7904761e-07
8.799752e-07
8.8501557e-07
8.9581643e-07
9.0715379e-07
9.2179795e-07
9.3952092e-07
9.4545725e-07
9.4997741e-07
9.4785399e-07
9.5124035e-07
9.4585578e-07
9.3411282e-07
9.3782676e-07
9.4908249e-07
9.451736e-07
9.334785e-07
9.4642928e-07
9.8167558e-07
1.0026852e-06
1.0003333e-06
1.0006239e-06
1.0330527e-06
1.0826696e-06
1.1130263e-06
1.110315e-06
1.1017881e-06
1.1153928e-06
1.1543222e-06
1.2137913e-06
1.2777016e-06
1.3040987e-06
1.3206209e-06
1.31699e-06
1.3291853e-06
1.3497439e-06
1.3970959e-06
1.4495977e-06
1.5352516e-06
1.6116898e-06
1.6798233e-06
9.7033026e-07
9.4794818e-07
9.6453763e-07
9.9298831e-07
1.0008119e-06
9.855624e-07
9.5759391e-07
9.2996938e-07
9.0967785e-07
8.9781533e-07
8.8891574e-07
8.8091935e-07
8.8021568e-07
8.785496e-07
8.7868606e-07
8.7890145e-07
8.8173137e-07
8.9189827e-07
9.0436206e-07
9.1952267e-07
9.3850173e-07
9.4487736e-07
9.4969919e-07
9.484159e-07
9.5069581e-07
9.4456477e-07
9.342466e-07
9.3633849e-07
9.4666525e-07
9.4301378e-07
9.3206326e-07
9.4493572e-07
9.7859282e-07
1.0003765e-06
9.9478516e-07
9.9168056e-07
1.021158e-06
1.0710574e-06
1.1062377e-06
1.1052588e-06
1.093162e-06
1.1014669e-06
1.1314966e-06
1.1695794e-06
1.2279977e-06
1.2693031e-06
1.2950801e-06
1.2929414e-06
1.3011355e-06
1.3009099e-06
1.3332984e-06
1.3705087e-06
1.4505713e-06
1.5382993e-06
1.6324395e-06
9.7042787e-07
9.4815324e-07
9.6512342e-07
9.9395143e-07
1.0027923e-06
9.8885919e-07
9.596618e-07
9.3066103e-07
9.0964793e-07
8.9963008e-07
8.9123523e-07
8.8302863e-07
8.8090151e-07
8.7748528e-07
8.7792997e-07
8.7843676e-07
8.8036369e-07
8.898557e-07
9.0333001e-07
9.1850851e-07
9.3816385e-07
9.4560753e-07
9.5128014e-07
9.4965395e-07
9.5050507e-07
9.4386452e-07
9.3502727e-07
9.3580595e-07
9.4421321e-07
9.4081384e-07
9.316965e-07
9.4432872e-07
9.7587934e-07
9.9855473e-07
9.9199186e-07
9.8810406e-07
1.0162537e-06
1.0641728e-06
1.1060932e-06
1.1109418e-06
1.1016586e-06
1.1097762e-06
1.1374264e-06
1.1676412e-06
1.2125775e-06
1.2611252e-06
1.2862609e-06
1.2963949e-06
1.2985408e-06
1.2944363e-06
1.3091396e-06
1.3476406e-06
1.396411e-06
1.488564e-06
1.5799642e-06
9.7067868e-07
9.4839163e-07
9.6572484e-07
9.9526539e-07
1.004996e-06
9.9150938e-07
9.6160869e-07
9.3180765e-07
9.0957971e-07
9.0026712e-07
8.927489e-07
8.8464447e-07
8.8136709e-07
8.766718e-07
8.7723114e-07
8.785496e-07
8.8060248e-07
8.8936559e-07
9.0362876e-07
9.1892436e-07
9.3818589e-07
9.4725772e-07
9.5435078e-07
9.5212546e-07
9.5065051e-07
9.4350824e-07
9.3580251e-07
9.3614536e-07
9.4214662e-07
9.3876905e-07
9.3197185e-07
9.4493597e-07
9.7385633e-07
9.9654785e-07
9.9255667e-07
9.8973412e-07
1.0182455e-06
1.063198e-06
1.1085001e-06
1.1230663e-06
1.1223835e-06
1.1359772e-06
1.1639752e-06
1.195164e-06
1.2264672e-06
1.2677079e-06
1.3013831e-06
1.3205389e-06
1.3210852e-06
1.3212085e-06
1.3227479e-06
1.3549933e-06
1.3929273e-06
1.4678444e-06
1.5390424e-06
9.7094613e-07
9.4859204e-07
9.662156e-07
9.9657404e-07
1.0069035e-06
9.9317622e-07
9.6305935e-07
9.3304477e-07
9.097185e-07
8.9985058e-07
8.928445e-07
8.8509688e-07
8.8134734e-07
8.7634908e-07
8.7694962e-07
8.7865094e-07
8.8093566e-07
8.887348e-07
9.0352771e-07
9.1966878e-07
9.3764612e-07
9.484012e-07
9.5723515e-07
9.5458558e-07
9.5074516e-07
9.4311099e-07
9.3621115e-07
9.3669303e-07
9.4041471e-07
9.3711677e-07
9.3293708e-07
9.4630971e-07
9.7259137e-07
9.9344171e-07
9.942061e-07
9.9636112e-07
1.0253466e-06
1.0706904e-06
1.1166712e-06
1.1434584e-06
1.1558028e-06
1.1838197e-06
1.2111327e-06
1.2453704e-06
1.2758627e-06
1.3082866e-06
1.3460363e-06
1.3815468e-06
1.3859851e-06
1.3911176e-06
1.3842849e-06
1.4033449e-06
1.4342871e-06
1.4907518e-06
1.530622e-06
9.7122186e-07
9.4866919e-07
9.6638133e-07
9.9749641e-07
1.0082813e-06
9.9368782e-07
9.635208e-07
9.3377241e-07
9.1021642e-07
8.9879147e-07
8.9142519e-07
8.8432833e-07
8.8073425e-07
8.762756e-07
8.7684136e-07
8.7846788e-07
8.8098914e-07
8.8769147e-07
9.0243039e-07
9.2012282e-07
9.3677546e-07
9.4931947e-07
9.5958067e-07
9.5682622e-07
9.5101287e-07
9.4302698e-07
9.3658937e-07
9.3742665e-07
9.3880875e-07
9.3533818e-07
9.334978e-07
9.4686961e-07
9.7001323e-07
9.875256e-07
9.9464928e-07
1.0022049e-06
1.0356164e-06
1.0840708e-06
1.1240657e-06
1.1562018e-06
1.1824136e-06
1.2230336e-06
1.2508332e-06
1.2888687e-06
1.3236935e-06
1.3414664e-06
1.3882299e-06
1.4424206e-06
1.4676869e-06
1.4831821e-06
1.480979e-06
1.4946081e-06
1.5163942e-06
1.5521184e-06
1.576769e-06
9.7143869e-07
9.485623e-07
9.6608046e-07
9.980394e-07
1.0090908e-06
9.9332926e-07
9.6294572e-07
9.3361245e-07
9.1043985e-07
8.9701674e-07
8.8846991e-07
8.8230489e-07
8.7912896e-07
8.7572738e-07
8.7627025e-07
8.7774606e-07
8.8039284e-07
8.8593814e-07
9.0003961e-07
9.1906919e-07
9.3478494e-07
9.4855746e-07
9.5947091e-07
9.5724118e-07
9.5021607e-07
9.4229119e-07
9.3629537e-07
9.3744288e-07
9.3697253e-07
9.3299999e-07
9.3358173e-07
9.4641763e-07
9.6677782e-07
9.802567e-07
9.9191599e-07
1.0063325e-06
1.0411382e-06
1.0906983e-06
1.1267853e-06
1.1566828e-06
1.195101e-06
1.2396005e-06
1.2827828e-06
1.3214794e-06
1.3536445e-06
1.3758784e-06
1.4074988e-06
1.4653178e-06
1.5123751e-06
1.5479526e-06
1.5546912e-06
1.5797222e-06
1.5950787e-06
1.6286528e-06
1.6387131e-06
9.7159651e-07
9.4837356e-07
9.6527807e-07
9.9791338e-07
1.0088026e-06
9.9136141e-07
9.6019391e-07
9.3070358e-07
9.0802063e-07
8.9243135e-07
8.8219074e-07
8.7668125e-07
8.7381283e-07
8.7172617e-07
8.7222312e-07
8.7344921e-07
8.7638663e-07
8.8091845e-07
8.9397838e-07
9.1377035e-07
9.2955266e-07
9.4510732e-07
9.5513706e-07
9.5358875e-07
9.4626924e-07
9.3880515e-07
9.3326671e-07
9.342127e-07
9.3208612e-07
9.2701177e-07
9.2874799e-07
9.4077863e-07
9.5848137e-07
9.6740968e-07
9.7956749e-07
1.000465e-06
1.0349151e-06
1.0841854e-06
1.1146888e-06
1.1377467e-06
1.1823067e-06
1.2312862e-06
1.2838806e-06
1.3239781e-06
1.3543205e-06
1.3766335e-06
1.3981189e-06
1.4448258e-06
1.5013014e-06
1.5550938e-06
1.583848e-06
1.6225804e-06
1.6392932e-06
1.662206e-06
1.6689537e-06
9.7162062e-07
9.4796443e-07
9.6374345e-07
9.9590019e-07
1.0052634e-06
9.8468548e-07
9.5112831e-07
9.1999111e-07
8.9637125e-07
8.7830027e-07
8.6614391e-07
8.6024011e-07
8.5707176e-07
8.5620978e-07
8.5651745e-07
8.573325e-07
8.6073403e-07
8.6435636e-07
8.7589934e-07
8.9516505e-07
9.1169789e-07
9.287461e-07
9.366886e-07
9.3667972e-07
9.3020978e-07
9.242757e-07
9.1997228e-07
9.2119285e-07
9.1817518e-07
9.1262754e-07
9.1463996e-07
9.2655091e-07
9.4118993e-07
9.4497896e-07
9.2733637e-07
9.7051349e-07
8.0970293e-07
1.033716e-06
1.053245e-06
8.9682299e-07
1.101053e-06
1.1561834e-06
1.210265e-06
1.257709e-06
1.2846615e-06
1.3006898e-06
1.3185599e-06
1.3504134e-06
1.1655313e-06
1.455696e-06
1.5160221e-06
1.5592783e-06
1.5969874e-06
1.6037749e-06
1.6242497e-06
9.712859e-07
9.4715163e-07
9.5903597e-07
9.8620307e-07
9.8965165e-07
9.6395729e-07
9.2783158e-07
8.9496034e-07
8.6907761e-07
8.4939281e-07
8.3594537e-07
8.2852132e-07
8.2397478e-07
8.2296214e-07
8.2278686e-07
8.2297863e-07
8.2605136e-07
8.2891677e-07
8.378854e-07
8.5520497e-07
8.7185996e-07
8.8910552e-07
8.9467907e-07
8.9500536e-07
8.8927993e-07
8.8491058e-07
8.8273705e-07
8.8514313e-07
8.8187109e-07
8.7615539e-07
8.7822576e-07
8.9009633e-07
9.0136829e-07
7.5997415e-07
6.5584849e-07
9.0967073e-07
5.6461228e-07
8.2438573e-07
8.9797379e-07
5.9403501e-07
6.080984e-07
7.3065425e-07
7.4319848e-07
9.3051852e-07
9.0172748e-07
6.2578423e-07
6.2707623e-07
7.381868e-07
6.3715335e-07
5.8968327e-07
8.0435629e-07
1.2076347e-06
9.6591323e-07
8.268159e-07
8.5394231e-07
9.6918743e-07
9.4115346e-07
9.4078695e-07
9.5621461e-07
9.5542821e-07
9.3157929e-07
9.0079582e-07
8.6956981e-07
8.4125735e-07
8.193258e-07
8.0266044e-07
7.9111684e-07
7.8184616e-07
7.7832689e-07
7.7622214e-07
7.7448586e-07
7.7604074e-07
7.7732558e-07
7.8323571e-07
7.9748078e-07
8.1394408e-07
8.3066703e-07
8.3382645e-07
8.3354197e-07
8.2775737e-07
8.2368138e-07
8.2210501e-07
8.252763e-07
8.2203817e-07
8.1572493e-07
8.1800201e-07
8.3034374e-07
8.4114236e-07
6.9864668e-07
6.3380941e-07
6.7901953e-07
4.9942053e-07
7.4785033e-07
6.5671999e-07
5.3073779e-07
5.525186e-07
4.7854268e-07
5.0870994e-07
7.6644861e-07
7.2162313e-07
4.1086243e-07
3.6116163e-07
4.4334253e-07
5.2056535e-07
3.7083911e-07
3.4041001e-07
4.5173964e-07
5.6474434e-07
5.2816682e-07
4.2725449e-07
9.6369355e-07
9.2720246e-07
9.1240428e-07
9.2000422e-07
9.2468823e-07
9.1836194e-07
9.06591e-07
8.8316278e-07
8.5199923e-07
8.2391526e-07
7.9529597e-07
7.7037275e-07
7.488054e-07
7.3844736e-07
7.3103149e-07
7.2337158e-07
7.1899202e-07
7.1659886e-07
7.1862449e-07
7.283894e-07
7.4209189e-07
7.5749413e-07
7.5765012e-07
7.5583584e-07
7.4841099e-07
7.4180823e-07
7.3768993e-07
7.4020126e-07
7.3637746e-07
7.2827288e-07
7.2923323e-07
7.4118973e-07
7.5037247e-07
7.0527506e-07
6.8282491e-07
6.4207714e-07
5.6780874e-07
7.910455e-07
6.3039612e-07
5.3397421e-07
5.961593e-07
4.5167391e-07
4.8740662e-07
8.4165961e-07
8.4476738e-07
4.3590822e-07
3.5389733e-07
3.7940525e-07
5.0753752e-07
4.1931399e-07
3.0478726e-07
3.1198252e-07
4.5322281e-07
6.4669893e-07
4.0813228e-07
9.5363001e-07
8.520385e-07
7.8437794e-07
7.772443e-07
7.9363782e-07
8.4695463e-07
8.6226061e-07
8.5016141e-07
8.3317889e-07
8.0532903e-07
7.570638e-07
7.1877514e-07
6.8553197e-07
6.7228451e-07
6.5503681e-07
6.4042389e-07
6.3248366e-07
6.2804495e-07
6.2813255e-07
6.3653352e-07
6.5160325e-07
6.7208315e-07
6.7341115e-07
6.7233061e-07
6.6730269e-07
6.6478176e-07
6.6182164e-07
6.6115111e-07
6.5717121e-07
6.4936101e-07
6.4890955e-07
6.5780043e-07
6.6006365e-07
6.5045885e-07
6.3882633e-07
5.5007476e-07
6.4993869e-07
6.7891698e-07
6.6955098e-07
5.8641457e-07
6.5317893e-07
4.8385679e-07
5.1085336e-07
7.2296672e-07
7.2562296e-07
5.7741786e-07
4.2795265e-07
4.2722007e-07
5.2140729e-07
4.7994798e-07
3.2933337e-07
2.7632677e-07
3.559286e-07
7.4355113e-07
6.128977e-07
6.4210647e-07
3.7795305e-07
2.8339867e-07
2.6273852e-07
2.7769215e-07
3.4574665e-07
3.6478395e-07
3.6491058e-07
3.6096927e-07
3.5398954e-07
3.3103173e-07
3.1516477e-07
3.0945e-07
3.0875608e-07
3.0538226e-07
3.0735246e-07
3.1426113e-07
3.2482664e-07
3.3675034e-07
3.6054227e-07
3.8594266e-07
4.0744123e-07
4.2622356e-07
4.4059391e-07
4.4938535e-07
4.6395751e-07
4.7464775e-07
4.8398996e-07
4.8884838e-07
4.8513975e-07
4.866921e-07
4.9935895e-07
5.052189e-07
4.9650855e-07
4.872325e-07
4.9263591e-07
5.1129544e-07
5.2421229e-07
5.1675458e-07
5.0354424e-07
5.0096571e-07
5.1509446e-07
5.4132107e-07
5.6682122e-07
5.7598629e-07
5.7161834e-07
5.6046775e-07
5.4649363e-07
5.3351444e-07
5.2709311e-07
5.3496265e-07
5.5087834e-07
5.5231168e-07
6.0032295e-07
6.1026887e-07
1.0250037e-07
1.0727494e-07
9.1322239e-08
4.3354137e-08
1.9138045e-08
1.0883696e-08
1.2989579e-08
2.2475926e-08
3.8859766e-08
5.9317009e-08
8.4908437e-08
1.1536099e-07
1.4988283e-07
1.9240574e-07
2.3724599e-07
2.8033769e-07
3.2308078e-07
3.6037734e-07
3.8783865e-07
4.0540948e-07
3.9591083e-07
3.7549333e-07
3.5643554e-07
3.4172305e-07
3.2208549e-07
2.9726685e-07
2.6912863e-07
2.4167262e-07
2.2350996e-07
2.1164499e-07
2.1161548e-07
2.1860359e-07
2.1932677e-07
2.1326073e-07
2.1390148e-07
2.3035543e-07
2.5675946e-07
2.7262709e-07
2.7498954e-07
2.6689179e-07
2.755895e-07
3.0163436e-07
3.3003478e-07
3.5608421e-07
3.7497821e-07
3.8028437e-07
3.6978349e-07
3.6332799e-07
3.7038718e-07
3.9161865e-07
4.2643677e-07
4.6664785e-07
5.0745342e-07
5.3801989e-07
5.5454356e-07
5.3199928e-07
5.9780059e-07
3.3814465e-07
2.8653346e-07
3.3427086e-07
7.2169235e-07
1.6016299e-06
1.6702166e-06
1.6701241e-06
1.6395501e-06
1.6194261e-06
1.6267257e-06
1.6612271e-06
1.6962262e-06
1.7252386e-06
1.7336663e-06
1.7774709e-06
1.8098917e-06
1.8485721e-06
1.9149803e-06
1.9912122e-06
2.1139793e-06
2.2062644e-06
2.1714756e-06
2.1158254e-06
2.049825e-06
2.0146154e-06
4.791688e-07
5.5812838e-07
3.314039e-07
3.1044564e-07
3.8821594e-07
7.698623e-07
1.5670505e-06
1.6738705e-06
1.7049032e-06
1.7099624e-06
1.7078198e-06
1.7058542e-06
1.6978161e-06
1.6930617e-06
1.703245e-06
1.7472986e-06
1.7944059e-06
1.882049e-06
1.9827731e-06
2.0539788e-06
2.092372e-06
2.1765913e-06
2.2572144e-06
2.2775011e-06
2.2724094e-06
2.2793821e-06
2.1553017e-06
4.5526201e-07
5.3153207e-07
5.646181e-07
5.0097913e-07
4.9230112e-07
6.0817802e-07
1.0869926e-06
1.7249251e-06
1.7742745e-06
1.781625e-06
1.7594362e-06
1.7400706e-06
1.7089148e-06
1.655452e-06
1.6592175e-06
1.7424195e-06
1.8460215e-06
1.9545175e-06
2.077029e-06
2.1336568e-06
2.1399381e-06
2.1989077e-06
2.3074115e-06
2.3886918e-06
2.4537522e-06
2.5119374e-06
2.329323e-06
4.8156679e-07
5.2556179e-07
4.3100048e-07
3.4972787e-07
3.1651455e-07
4.6720244e-07
1.1964665e-06
1.7833167e-06
1.834678e-06
1.8252464e-06
1.7906991e-06
1.7602098e-06
1.7066316e-06
1.6469866e-06
1.6587229e-06
1.7655311e-06
1.9236989e-06
2.0206922e-06
2.119953e-06
2.1523437e-06
2.1185379e-06
2.1597104e-06
2.33568e-06
2.5259891e-06
2.6448561e-06
2.6715343e-06
2.4981865e-06
5.5355019e-07
5.3925984e-07
3.0692917e-07
2.8781973e-07
3.1834164e-07
6.4471579e-07
1.6146404e-06
1.8118261e-06
1.8605162e-06
1.8501878e-06
1.8149327e-06
1.7895222e-06
1.7486066e-06
1.7011313e-06
1.7330616e-06
1.8568722e-06
2.0321274e-06
2.0979233e-06
2.1511554e-06
2.1553826e-06
2.087814e-06
2.1320428e-06
2.3681323e-06
2.6679522e-06
2.8013561e-06
2.7538481e-06
2.5492958e-06
6.4305374e-07
5.7300201e-07
3.9667053e-07
4.1902573e-07
4.2550634e-07
5.6171178e-07
1.0036481e-06
1.7970683e-06
1.9029068e-06
1.8987796e-06
1.8861095e-06
1.8681383e-06
1.8305388e-06
1.8042444e-06
1.8595175e-06
1.9813163e-06
2.137767e-06
2.1651565e-06
2.2010383e-06
2.2270504e-06
2.1635201e-06
2.2073316e-06
2.4366174e-06
2.7512666e-06
2.8507443e-06
2.7550461e-06
2.5600085e-06
6.7874067e-07
5.9090729e-07
6.941347e-07
5.9995441e-07
4.3179546e-07
4.7865812e-07
9.3231149e-07
1.8815122e-06
1.9779157e-06
2.00025e-06
2.0173261e-06
2.0284036e-06
2.0030996e-06
1.9831438e-06
2.0081763e-06
2.0856691e-06
2.2184142e-06
2.2482186e-06
2.2857676e-06
2.3270128e-06
2.287745e-06
2.3539148e-06
2.5648689e-06
2.8166739e-06
2.841151e-06
2.726185e-06
2.6175733e-06
6.2465723e-07
5.7261465e-07
4.0008027e-07
3.2248223e-07
3.3085104e-07
4.6265554e-07
1.2963079e-06
1.8797803e-06
2.0451849e-06
2.1112137e-06
2.172683e-06
2.2183977e-06
2.1971442e-06
2.1531651e-06
2.1295902e-06
2.177603e-06
2.2830909e-06
2.3426297e-06
2.3994497e-06
2.4960185e-06
2.5130853e-06
2.5798279e-06
2.7612106e-06
2.9021227e-06
2.8773701e-06
2.7434048e-06
2.6804138e-06
5.5737441e-07
5.4017732e-07
3.4709607e-07
2.9188912e-07
3.066616e-07
3.8315087e-07
6.7689432e-07
1.3134985e-06
2.1199943e-06
2.2251803e-06
2.2984849e-06
2.3394931e-06
2.2896331e-06
2.1858189e-06
2.1522144e-06
2.1953002e-06
2.3213712e-06
2.4267999e-06
2.5673364e-06
2.7364079e-06
2.8038102e-06
2.8529012e-06
2.9647038e-06
3.0344113e-06
3.0027805e-06
2.8734148e-06
2.7859757e-06
5.4043368e-07
5.164074e-07
5.8525427e-07
4.3005632e-07
3.2015341e-07
2.8574973e-07
4.5096415e-07
1.0903872e-06
2.2078177e-06
2.3154551e-06
2.3421312e-06
2.3337529e-06
2.2444318e-06
2.1221735e-06
2.0886855e-06
2.1558443e-06
2.3378488e-06
2.5018516e-06
2.7546447e-06
3.0191044e-06
3.0648183e-06
3.058949e-06
3.1359198e-06
3.1686449e-06
3.2113961e-06
3.1558379e-06
3.0058351e-06
5.9182377e-07
5.2999318e-07
4.0011939e-07
2.5667731e-07
2.279781e-07
2.7909759e-07
6.2743771e-07
1.9255182e-06
2.2563611e-06
2.3374254e-06
2.359913e-06
2.3444115e-06
2.2459292e-06
2.0779607e-06
2.0435103e-06
2.1259645e-06
2.3677643e-06
2.6229696e-06
2.9046019e-06
3.1981014e-06
3.1824131e-06
3.0717508e-06
3.1787275e-06
3.2632586e-06
3.4619478e-06
3.5173201e-06
3.3014405e-06
7.0562189e-07
5.7117474e-07
3.2595913e-07
2.6948551e-07
2.8557214e-07
4.5114984e-07
8.8691343e-07
1.8076845e-06
2.2650883e-06
2.3736932e-06
2.4178112e-06
2.4047695e-06
2.3150421e-06
2.1393372e-06
2.0873524e-06
2.2124979e-06
2.4819279e-06
2.7561303e-06
3.0402473e-06
3.2120409e-06
3.1408029e-06
2.9852926e-06
3.0708908e-06
3.2628193e-06
3.6427205e-06
3.7969534e-06
3.6520291e-06
7.944577e-07
6.2542293e-07
6.0074186e-07
4.094378e-07
3.0979723e-07
3.0693802e-07
4.5697358e-07
9.857075e-07
1.7154476e-06
2.3120613e-06
2.5462227e-06
2.553144e-06
2.501222e-06
2.3436146e-06
2.291181e-06
2.4289887e-06
2.6472205e-06
2.8873794e-06
3.1358856e-06
3.200953e-06
3.095813e-06
2.8968204e-06
3.0176289e-06
3.2616326e-06
3.6684648e-06
3.8449762e-06
3.818909e-06
7.4866157e-07
6.3347106e-07
5.7088254e-07
4.6776013e-07
3.79204e-07
3.8401744e-07
6.4060454e-07
1.4860407e-06
2.3718288e-06
2.5964504e-06
2.7475536e-06
2.8038932e-06
2.8084438e-06
2.6572519e-06
2.5833934e-06
2.6800605e-06
2.808967e-06
3.0468113e-06
3.2440115e-06
3.3057864e-06
3.2015163e-06
2.9696737e-06
3.0470497e-06
3.2734539e-06
3.6559929e-06
3.8621479e-06
3.8999337e-06
6.3066472e-07
6.0960803e-07
3.6318399e-07
2.7608381e-07
2.5282387e-07
3.0439816e-07
5.9145898e-07
1.6778428e-06
2.3057852e-06
2.671715e-06
2.9347815e-06
3.116711e-06
3.2032155e-06
3.0333169e-06
2.8746486e-06
2.9234335e-06
3.0252077e-06
3.2546064e-06
3.4300331e-06
3.5244325e-06
3.4554865e-06
3.2219657e-06
3.188909e-06
3.3339603e-06
3.6756126e-06
3.8926324e-06
4.0007634e-06
5.5362787e-07
5.77402e-07
5.1906925e-07
3.3117275e-07
2.8895809e-07
2.7263267e-07
3.613214e-07
7.9101384e-07
1.5460601e-06
2.0521926e-06
3.0322229e-06
3.3235787e-06
3.401846e-06
3.1894052e-06
2.9680879e-06
3.0306804e-06
3.1834088e-06
3.4880584e-06
3.6931245e-06
3.8795532e-06
3.8866393e-06
3.6141326e-06
3.4552301e-06
3.5453905e-06
3.787729e-06
4.0751445e-06
4.1600838e-06
5.4287391e-07
5.5626862e-07
5.3786318e-07
3.7138549e-07
2.5211268e-07
2.3142658e-07
3.182873e-07
8.2894098e-07
2.0781772e-06
2.8595679e-06
3.2179798e-06
3.3688881e-06
3.3783031e-06
3.1615003e-06
2.9026419e-06
2.9754603e-06
3.1620196e-06
3.5178035e-06
3.7956204e-06
4.193855e-06
4.3422348e-06
4.0803032e-06
3.832773e-06
3.9309905e-06
4.0606532e-06
4.3495713e-06
4.4090367e-06
5.9897235e-07
5.7028735e-07
4.4884814e-07
2.4751481e-07
2.1100214e-07
2.7677554e-07
6.1900005e-07
1.4809131e-06
2.3275499e-06
2.8753993e-06
3.2001748e-06
3.3407576e-06
3.3282426e-06
3.1192677e-06
2.8615585e-06
2.911663e-06
3.0761146e-06
3.4334115e-06
3.7728324e-06
4.2549668e-06
4.5198448e-06
4.394328e-06
4.2032185e-06
4.4393689e-06
4.5779521e-06
4.823562e-06
4.8440252e-06
6.9257623e-07
6.3640911e-07
3.9709137e-07
2.7497926e-07
2.8489326e-07
3.8162275e-07
5.9677443e-07
1.3177203e-06
2.3439175e-06
2.8776e-06
3.2239508e-06
3.3761122e-06
3.3716806e-06
3.159668e-06
2.9066631e-06
2.9281183e-06
3.0811756e-06
3.3820298e-06
3.7177549e-06
4.1636013e-06
4.4928667e-06
4.5252179e-06
4.3766434e-06
4.7351902e-06
5.0603276e-06
5.4003628e-06
5.4819419e-06
7.1863688e-07
7.0090734e-07
6.5905361e-07
3.7928719e-07
2.6280103e-07
2.65561e-07
4.0605571e-07
9.3186425e-07
1.8146972e-06
2.0951239e-06
2.6123728e-06
3.4574484e-06
3.6219233e-06
3.3894725e-06
3.0690273e-06
3.0629562e-06
3.1831072e-06
3.4165383e-06
3.7616445e-06
4.1847102e-06
4.4512199e-06
4.5375898e-06
4.4594531e-06
4.7757837e-06
5.0792117e-06
5.6872913e-06
6.0327466e-06
6.3050404e-07
6.9745385e-07
5.7561276e-07
4.0632222e-07
3.5111875e-07
4.686317e-07
8.6009319e-07
1.4759209e-06
2.5018342e-06
2.8362749e-06
2.9609952e-06
3.19844e-06
3.6844415e-06
3.7788072e-06
3.3783912e-06
3.2845255e-06
3.3676741e-06
3.5984879e-06
3.9177221e-06
4.3128251e-06
4.6039444e-06
4.6977207e-06
4.5710372e-06
4.7570367e-06
4.9905105e-06
5.622873e-06
6.1446947e-06
4.8457559e-07
6.3898685e-07
5.5353488e-07
3.8932504e-07
3.0433585e-07
3.4275429e-07
6.0876946e-07
1.31881e-06
2.3727093e-06
3.2404857e-06
3.8557034e-06
4.2626161e-06
4.4434587e-06
4.324499e-06
3.7970087e-06
3.6206e-06
3.6856118e-06
3.9481212e-06
4.2611266e-06
4.6290538e-06
4.9365203e-06
5.0158032e-06
4.7713633e-06
4.7662091e-06
4.9314449e-06
5.4295711e-06
5.9271715e-06
4.0608949e-07
5.8307004e-07
5.781728e-07
5.7368798e-07
4.1840096e-07
4.014178e-07
5.9511315e-07
1.175891e-06
2.1740356e-06
3.0784258e-06
3.7435688e-06
4.3035309e-06
4.6090754e-06
4.6612949e-06
4.2303807e-06
4.0472903e-06