/*--------------------------------*- C++ -*----------------------------------*\
| =========                 |                                                 |
| \\      /  F ield         | OpenFOAM: The Open Source CFD Toolbox           |
|  \\    /   O peration     | Version:  2406                                  |
|   \\  /    A nd           | Website:  www.openfoam.com                      |
|    \\/     M anipulation  |                                                 |
\*---------------------------------------------------------------------------*/
FoamFile
{
    version     2.0;
    format      ascii;
    arch        "LSB;label=32;scalar=64";
    class       volScalarField;
    location    "5";
    object      k;
}
// * * * * * * * * * * * * * * * * * * * * * * * * * * * * * * * * * * * * * //

dimensions      [0 2 -2 0 0 0 0];

internalField   nonuniform List<scalar> 
96472
(
2.9756381e-06
2.4918442e-06
2.3086785e-06
2.1046457e-06
1.8216998e-06
1.5578206e-06
1.375927e-06
1.2732468e-06
1.2219648e-06
1.1982232e-06
1.1878347e-06
1.1840076e-06
1.183524e-06
1.1849065e-06
1.1879002e-06
1.1924809e-06
1.197854e-06
1.2023227e-06
1.2043767e-06
1.2051434e-06
1.206628e-06
1.2091042e-06
1.2123271e-06
1.2159456e-06
1.2207744e-06
1.2255571e-06
1.2304365e-06
1.2353682e-06
1.2411736e-06
1.2476172e-06
1.2550073e-06
1.2610984e-06
1.267332e-06
1.2713212e-06
1.2764704e-06
1.2808361e-06
1.2873808e-06
1.2958297e-06
1.3080715e-06
1.3206167e-06
1.3389572e-06
1.3555517e-06
1.3794325e-06
1.3997216e-06
1.4307418e-06
1.4547876e-06
1.4932789e-06
1.5220734e-06
1.5678481e-06
1.6031338e-06
1.6553328e-06
1.70129e-06
1.7590321e-06
1.8261038e-06
1.9214611e-06
2.9782857e-06
2.4936337e-06
2.3104785e-06
2.1099432e-06
1.8296504e-06
1.5651179e-06
1.3810708e-06
1.2765541e-06
1.2242217e-06
1.1998594e-06
1.1890968e-06
1.1849936e-06
1.1843535e-06
1.1856573e-06
1.1885298e-06
1.1930709e-06
1.1984904e-06
1.2031327e-06
1.2053739e-06
1.2061952e-06
1.2074443e-06
1.2093275e-06
1.2118654e-06
1.2146716e-06
1.2176063e-06
1.2205561e-06
1.2241663e-06
1.2276049e-06
1.2322474e-06
1.2379084e-06
1.2457956e-06
1.2533168e-06
1.2619735e-06
1.2680702e-06
1.2765155e-06
1.2822544e-06
1.2931035e-06
1.2997619e-06
1.3115993e-06
1.3198998e-06
1.3370369e-06
1.3483562e-06
1.3706064e-06
1.3864983e-06
1.416526e-06
1.4382857e-06
1.4685909e-06
1.5030267e-06
1.5315317e-06
1.5813775e-06
1.6121267e-06
1.6620287e-06
1.7128546e-06
1.753338e-06
1.8440512e-06
2.9805142e-06
2.4960776e-06
2.3126233e-06
2.1140251e-06
1.8350817e-06
1.5703194e-06
1.3851124e-06
1.2794078e-06
1.2262919e-06
1.201457e-06
1.1904515e-06
1.1862408e-06
1.185559e-06
1.1868397e-06
1.1896687e-06
1.1941964e-06
1.1997564e-06
1.2047487e-06
1.2074827e-06
1.208473e-06
1.2095913e-06
1.2111913e-06
1.2134545e-06
1.2159447e-06
1.2183207e-06
1.2203703e-06
1.2227733e-06
1.2247813e-06
1.227784e-06
1.2307031e-06
1.236193e-06
1.2403475e-06
1.2482003e-06
1.2546771e-06
1.2673609e-06
1.2757836e-06
1.2892156e-06
1.2976474e-06
1.3110511e-06
1.3189779e-06
1.3358684e-06
1.3459217e-06
1.3660476e-06
1.3819431e-06
1.3980653e-06
1.4294676e-06
1.4478902e-06
1.4855999e-06
1.5066959e-06
1.549442e-06
1.5848924e-06
1.6221697e-06
1.6766424e-06
1.7073263e-06
1.7817847e-06
2.9828993e-06
2.4979766e-06
2.3145043e-06
2.1190436e-06
1.8420937e-06
1.576715e-06
1.3897018e-06
1.2823869e-06
1.2282693e-06
1.2029163e-06
1.191631e-06
1.1872654e-06
1.1864854e-06
1.187679e-06
1.1903885e-06
1.194815e-06
1.2004e-06
1.2057467e-06
1.2090045e-06
1.2104096e-06
1.2117851e-06
1.213541e-06
1.2158424e-06
1.2182889e-06
1.2203477e-06
1.2218431e-06
1.2235403e-06
1.2250671e-06
1.22764e-06
1.230027e-06
1.2347255e-06
1.2379195e-06
1.2439602e-06
1.2478483e-06
1.2562293e-06
1.2623375e-06
1.2735863e-06
1.2844476e-06
1.2982549e-06
1.3113139e-06
1.3277949e-06
1.3414132e-06
1.3561723e-06
1.3753962e-06
1.38634e-06
1.4130953e-06
1.42685e-06
1.4539244e-06
1.4822088e-06
1.5041429e-06
1.5455651e-06
1.571373e-06
1.6246619e-06
1.6531688e-06
1.7221403e-06
2.9851306e-06
2.4996464e-06
2.316383e-06
2.1239588e-06
1.8487855e-06
1.5828047e-06
1.3941474e-06
1.2853399e-06
1.2302837e-06
1.2044231e-06
1.192888e-06
1.1883925e-06
1.1875365e-06
1.1886957e-06
1.1913097e-06
1.1956246e-06
1.2012112e-06
1.2068178e-06
1.2105291e-06
1.2123001e-06
1.2138578e-06
1.2157026e-06
1.2179572e-06
1.2202634e-06
1.2219993e-06
1.2231934e-06
1.2245558e-06
1.2259531e-06
1.2281578e-06
1.2304627e-06
1.2345326e-06
1.2377392e-06
1.2428827e-06
1.2474308e-06
1.2525139e-06
1.2598064e-06
1.2647524e-06
1.2752695e-06
1.2823804e-06
1.297852e-06
1.3076983e-06
1.3280959e-06
1.3390567e-06
1.363079e-06
1.3742467e-06
1.3968839e-06
1.413925e-06
1.4328275e-06
1.4608146e-06
1.4763713e-06
1.5090318e-06
1.5285547e-06
1.5706881e-06
1.5947344e-06
1.6532017e-06
2.9873272e-06
2.5010232e-06
2.3181103e-06
2.1290164e-06
1.8558085e-06
1.5892359e-06
1.3987852e-06
1.2883795e-06
1.2323469e-06
1.2059458e-06
1.1941741e-06
1.1895525e-06
1.1886218e-06
1.1897138e-06
1.1922402e-06
1.1964312e-06
1.2019746e-06
1.2077767e-06
1.2119731e-06
1.2140796e-06
1.2158169e-06
1.2177474e-06
1.2199975e-06
1.2221752e-06
1.2236836e-06
1.2245114e-06
1.2252163e-06
1.2265443e-06
1.2280968e-06
1.2303812e-06
1.2335945e-06
1.2376718e-06
1.2417468e-06
1.2470401e-06
1.2508723e-06
1.2582826e-06
1.2624502e-06
1.2716691e-06
1.2772469e-06
1.2902084e-06
1.2975724e-06
1.3151532e-06
1.3247452e-06
1.3430335e-06
1.3638607e-06
1.3781325e-06
1.4035779e-06
1.4182913e-06
1.4477288e-06
1.4619474e-06
1.490914e-06
1.5063159e-06
1.5390269e-06
1.5572914e-06
1.5995174e-06
2.9895379e-06
2.5021174e-06
2.3197173e-06
2.1342923e-06
1.8631337e-06
1.5959225e-06
1.4035922e-06
1.2915168e-06
1.2344761e-06
1.2075214e-06
1.1954694e-06
1.1907266e-06
1.1897107e-06
1.1907499e-06
1.1932213e-06
1.1973138e-06
1.2027824e-06
1.2087229e-06
1.2133733e-06
1.215851e-06
1.2177998e-06
1.2198311e-06
1.222024e-06
1.2240679e-06
1.2254442e-06
1.2259456e-06
1.2261714e-06
1.2271669e-06
1.2282803e-06
1.2302612e-06
1.2326149e-06
1.2369616e-06
1.2401562e-06
1.2458278e-06
1.2492826e-06
1.2564702e-06
1.2605583e-06
1.2694235e-06
1.2745342e-06
1.2850832e-06
1.2934181e-06
1.3042865e-06
1.3181509e-06
1.3282648e-06
1.3489648e-06
1.3610587e-06
1.385935e-06
1.3999318e-06
1.4286652e-06
1.4433549e-06
1.4732775e-06
1.4888445e-06
1.5203861e-06
1.5369129e-06
1.5710105e-06
2.9914051e-06
2.5035011e-06
2.3210173e-06
2.1381574e-06
1.8690237e-06
1.6016825e-06
1.4079889e-06
1.294501e-06
1.2365454e-06
1.2091091e-06
1.1968104e-06
1.191946e-06
1.1908698e-06
1.1918394e-06
1.1942242e-06
1.1982257e-06
1.2036006e-06
1.2097027e-06
1.2147137e-06
1.2176212e-06
1.2197801e-06
1.2218897e-06
1.2240854e-06
1.2259944e-06
1.2271549e-06
1.2274962e-06
1.2273717e-06
1.227863e-06
1.2287384e-06
1.2303748e-06
1.2322536e-06
1.2361268e-06
1.2388866e-06
1.244059e-06
1.2477461e-06
1.2537023e-06
1.2592884e-06
1.2652402e-06
1.2736263e-06
1.2795685e-06
1.2907632e-06
1.2976749e-06
1.3118963e-06
1.3202934e-06
1.3378578e-06
1.3480209e-06
1.3693829e-06
1.3815709e-06
1.4069114e-06
1.4206513e-06
1.4490545e-06
1.4643986e-06
1.4953043e-06
1.5117954e-06
1.5461499e-06
2.9937661e-06
2.5037272e-06
2.3220233e-06
2.1440301e-06
1.8776836e-06
1.6095013e-06
1.4134498e-06
1.2979455e-06
1.2387954e-06
1.2107676e-06
1.1982026e-06
1.1931782e-06
1.1920042e-06
1.1929355e-06
1.1952564e-06
1.1991441e-06
1.2044129e-06
1.2105881e-06
1.2159732e-06
1.2193241e-06
1.2217002e-06
1.2239726e-06
1.2261438e-06
1.2279312e-06
1.2288617e-06
1.2290337e-06
1.2287415e-06
1.228804e-06
1.2294092e-06
1.2307663e-06
1.2323682e-06
1.2353755e-06
1.2380206e-06
1.2420769e-06
1.247074e-06
1.2506982e-06
1.2575504e-06
1.2618179e-06
1.2708047e-06
1.2759554e-06
1.2870929e-06
1.2934048e-06
1.3067668e-06
1.3143065e-06
1.3301071e-06
1.3390644e-06
1.3575741e-06
1.3680146e-06
1.3896879e-06
1.4015525e-06
1.4263906e-06
1.4399438e-06
1.4679552e-06
1.4828697e-06
1.5151141e-06
2.9959242e-06
2.5039097e-06
2.3230779e-06
2.1493245e-06
1.8853928e-06
1.6166034e-06
1.4185469e-06
1.3012739e-06
1.2410235e-06
1.2123905e-06
1.1995954e-06
1.1944841e-06
1.1932121e-06
1.1940941e-06
1.1963256e-06
1.2001169e-06
1.2052513e-06
1.2114461e-06
1.2172074e-06
1.2210116e-06
1.2236312e-06
1.2260069e-06
1.2281604e-06
1.2298009e-06
1.2305932e-06
1.2305367e-06
1.2301319e-06
1.2299188e-06
1.2302766e-06
1.2312394e-06
1.2327614e-06
1.2348124e-06
1.2378584e-06
1.2405998e-06
1.245747e-06
1.2490523e-06
1.2553986e-06
1.2593926e-06
1.2675613e-06
1.2724954e-06
1.2830729e-06
1.2889631e-06
1.3016115e-06
1.3086607e-06
1.3233736e-06
1.3316049e-06
1.3484958e-06
1.3578446e-06
1.3771343e-06
1.3875765e-06
1.4094392e-06
1.4211159e-06
1.4453361e-06
1.4582674e-06
1.4853101e-06
2.9978389e-06
2.5045652e-06
2.3238372e-06
2.1535484e-06
1.8921089e-06
1.6231619e-06
1.423455e-06
1.3045546e-06
1.2433033e-06
1.2140913e-06
1.2010043e-06
1.195757e-06
1.1944141e-06
1.1952433e-06
1.1974048e-06
1.2010943e-06
1.2061253e-06
1.2122704e-06
1.2183408e-06
1.222652e-06
1.2255269e-06
1.2280101e-06
1.2301684e-06
1.2316453e-06
1.2323152e-06
1.2321311e-06
1.2315717e-06
1.2311841e-06
1.2312998e-06
1.2319026e-06
1.2332552e-06
1.234854e-06
1.2377887e-06
1.2400894e-06
1.2444621e-06
1.2476358e-06
1.2535758e-06
1.2572096e-06
1.2648361e-06
1.2694166e-06
1.2791476e-06
1.2846872e-06
1.2965467e-06
1.3030859e-06
1.3168742e-06
1.3245999e-06
1.3403641e-06
1.3490102e-06
1.3668658e-06
1.3764299e-06
1.3958942e-06
1.4064885e-06
1.4277988e-06
1.439314e-06
1.462406e-06
2.9994444e-06
2.505622e-06
2.3242828e-06
2.1560278e-06
1.8967651e-06
1.628217e-06
1.4276116e-06
1.3075198e-06
1.2454313e-06
1.2157763e-06
1.2024291e-06
1.1970788e-06
1.1956589e-06
1.196458e-06
1.1985011e-06
1.2020947e-06
1.2069755e-06
1.2130768e-06
1.2193872e-06
1.22419e-06
1.2274153e-06
1.2300366e-06
1.232138e-06
1.2334728e-06
1.2340347e-06
1.2336648e-06
1.2330917e-06
1.2325844e-06
1.2324053e-06
1.2328371e-06
1.2339189e-06
1.2353273e-06
1.2377901e-06
1.2398862e-06
1.2436575e-06
1.2466087e-06
1.2518578e-06
1.2553624e-06
1.2623399e-06
1.2665573e-06
1.275593e-06
1.2807769e-06
1.2917643e-06
1.2978791e-06
1.3108532e-06
1.3180297e-06
1.332744e-06
1.3408785e-06
1.3574012e-06
1.366167e-06
1.3842045e-06
1.3937807e-06
1.413509e-06
1.4237629e-06
1.4441402e-06
3.0014331e-06
2.5058487e-06
2.324408e-06
2.1599377e-06
1.9035517e-06
1.6349573e-06
1.4326789e-06
1.310914e-06
1.2477311e-06
1.2175094e-06
1.2039272e-06
1.1984432e-06
1.1968799e-06
1.1976241e-06
1.1995922e-06
1.203112e-06
1.2078446e-06
1.2138781e-06
1.2203633e-06
1.2256223e-06
1.2292108e-06
1.2320244e-06
1.2340983e-06
1.2352714e-06
1.2357131e-06
1.2352367e-06
1.2346465e-06
1.2340775e-06
1.2336456e-06
1.2338694e-06
1.2347038e-06
1.2359601e-06
1.2380407e-06
1.2399065e-06
1.2433182e-06
1.2459827e-06
1.2506479e-06
1.2538544e-06
1.2601929e-06
1.2642057e-06
1.2724715e-06
1.2772132e-06
1.2874446e-06
1.2931662e-06
1.3052548e-06
1.3118716e-06
1.3256175e-06
1.3331331e-06
1.3485772e-06
1.3566636e-06
1.3736022e-06
1.3822578e-06
1.4004892e-06
1.4102953e-06
1.4276535e-06
3.0032113e-06
2.5064145e-06
2.3245196e-06
2.1628642e-06
1.9089999e-06
1.6407546e-06
1.4372605e-06
1.3141412e-06
1.2500206e-06
1.2192189e-06
1.2053706e-06
1.199818e-06
1.1981657e-06
1.1988295e-06
1.2006986e-06
1.204085e-06
1.208719e-06
1.2146173e-06
1.2212852e-06
1.2270189e-06
1.2309614e-06
1.2339359e-06
1.2360748e-06
1.2370967e-06
1.2373634e-06
1.2368549e-06
1.2362064e-06
1.2355905e-06
1.2350656e-06
1.2349882e-06
1.2356394e-06
1.2367752e-06
1.2384564e-06
1.240231e-06
1.243307e-06
1.2457674e-06
1.2498504e-06
1.2528171e-06
1.2586216e-06
1.2622992e-06
1.2698212e-06
1.2743202e-06
1.2837837e-06
1.2890449e-06
1.3002796e-06
1.3064703e-06
1.3192266e-06
1.3261863e-06
1.3405278e-06
1.3482294e-06
1.3636619e-06
1.3720671e-06
1.3892084e-06
1.3986985e-06
1.4134471e-06
3.0049878e-06
2.5070223e-06
2.3244123e-06
2.1655431e-06
1.9144326e-06
1.6466396e-06
1.4419991e-06
1.3174519e-06
1.2523732e-06
1.2210348e-06
1.2068712e-06
1.2011833e-06
1.1994046e-06
1.2000381e-06
1.2018027e-06
1.2050671e-06
1.2095828e-06
1.2153419e-06
1.2220881e-06
1.2282445e-06
1.2326845e-06
1.2358415e-06
1.2379949e-06
1.2388966e-06
1.2390003e-06
1.2384591e-06
1.2377592e-06
1.2370796e-06
1.2364613e-06
1.2362262e-06
1.236731e-06
1.2376718e-06
1.2390185e-06
1.2406385e-06
1.2434876e-06
1.2458447e-06
1.2494125e-06
1.252245e-06
1.257462e-06
1.2608523e-06
1.2677368e-06
1.2718712e-06
1.2805359e-06
1.2854246e-06
1.2958891e-06
1.3015566e-06
1.3133011e-06
1.3198559e-06
1.3329639e-06
1.3406176e-06
1.3541643e-06
1.362504e-06
1.3790537e-06
1.387714e-06
1.4008307e-06
3.0069165e-06
2.5073373e-06
2.3242198e-06
2.1686263e-06
1.9204304e-06
1.6529731e-06
1.4469627e-06
1.3208824e-06
1.2547389e-06
1.2228414e-06
1.2083977e-06
1.202543e-06
1.2006253e-06
1.2012036e-06
1.2028727e-06
1.2060249e-06
1.2104382e-06
1.2160714e-06
1.2227869e-06
1.229303e-06
1.2342709e-06
1.2376981e-06
1.2398595e-06
1.2407073e-06
1.2406266e-06
1.2400167e-06
1.2393418e-06
1.2386137e-06
1.2379526e-06
1.2376001e-06
1.237937e-06
1.2387035e-06
1.2398872e-06
1.241325e-06
1.2438292e-06
1.2460524e-06
1.2493649e-06
1.2519484e-06
1.2566716e-06
1.2599748e-06
1.2663005e-06
1.2701102e-06
1.2780268e-06
1.2825926e-06
1.2921771e-06
1.2973926e-06
1.3084308e-06
1.3144434e-06
1.3266236e-06
1.3342487e-06
1.3462228e-06
1.3543964e-06
1.3701635e-06
1.3782266e-06
1.389887e-06
3.0086981e-06
2.5079371e-06
2.3239876e-06
2.17112e-06
1.9257673e-06
1.6588918e-06
1.4517318e-06
1.3242487e-06
1.2571319e-06
1.2246359e-06
1.2099255e-06
1.2039423e-06
1.2018723e-06
1.2023654e-06
1.2039044e-06
1.2069525e-06
1.211254e-06
1.2167572e-06
1.2235204e-06
1.2302973e-06
1.2357118e-06
1.239454e-06
1.241747e-06
1.2425185e-06
1.2423516e-06
1.2416627e-06
1.2409208e-06
1.2401577e-06
1.2394996e-06
1.2390931e-06
1.2391804e-06
1.2397834e-06
1.2407824e-06
1.242075e-06
1.244178e-06
1.2462962e-06
1.2493351e-06
1.2517644e-06
1.2559848e-06
1.2591883e-06
1.2651828e-06
1.2688252e-06
1.2761133e-06
1.2802354e-06
1.2889496e-06
1.2937365e-06
1.3039267e-06
1.3094369e-06
1.3208019e-06
1.3280602e-06
1.3389184e-06
1.3471871e-06
1.3620107e-06
1.3692385e-06
1.3799538e-06
3.010782e-06
2.5079739e-06
2.3237175e-06
2.1747078e-06
1.932498e-06
1.665794e-06
1.4570792e-06
1.3278437e-06
1.259619e-06
1.2264819e-06
1.2114131e-06
1.205278e-06
1.2030886e-06
1.2034807e-06
1.204904e-06
1.207817e-06
1.2120235e-06
1.2174066e-06
1.2240586e-06
1.2311214e-06
1.2370959e-06
1.2411249e-06
1.2434931e-06
1.244232e-06
1.2439891e-06
1.2432339e-06
1.2424582e-06
1.2416731e-06
1.2410638e-06
1.2406495e-06
1.2405359e-06
1.2410059e-06
1.2418262e-06
1.2429571e-06
1.244801e-06
1.2467918e-06
1.2495986e-06
1.2518357e-06
1.2556542e-06
1.2587877e-06
1.2645428e-06
1.2682011e-06
1.2748385e-06
1.2787003e-06
1.2866414e-06
1.291121e-06
1.3003369e-06
1.3055077e-06
1.3159164e-06
1.3229227e-06
1.3327398e-06
1.3408567e-06
1.3547884e-06
1.3612757e-06
1.372435e-06
3.0126982e-06
2.5084484e-06
2.3234862e-06
2.1774723e-06
1.9381891e-06
1.67198e-06
1.4620611e-06
1.3313482e-06
1.2620482e-06
1.2283365e-06
1.2129391e-06
1.2066365e-06
1.2042511e-06
1.2045785e-06
1.2058762e-06
1.2086788e-06
1.2127756e-06
1.218026e-06
1.2246232e-06
1.2317965e-06
1.2382695e-06
1.2427379e-06
1.2452722e-06
1.2460135e-06
1.2456715e-06
1.2448269e-06
1.2440227e-06
1.2432304e-06
1.2425898e-06
1.2421427e-06
1.2419034e-06
1.2422287e-06
1.2427953e-06
1.2437652e-06
1.2454332e-06
1.247501e-06
1.2499178e-06
1.2518967e-06
1.25519e-06
1.2580546e-06
1.2636883e-06
1.2675745e-06
1.2737565e-06
1.2773604e-06
1.2846335e-06
1.2886795e-06
1.2972897e-06
1.3020142e-06
1.3114445e-06
1.3183676e-06
1.3266632e-06
1.3352551e-06
1.3479676e-06
1.3537921e-06
1.3637045e-06
3.0148747e-06
2.5085884e-06
2.3227514e-06
2.1813521e-06
1.9455461e-06
1.6793539e-06
1.4676207e-06
1.335062e-06
1.2645395e-06
1.2301568e-06
1.2144128e-06
1.2079148e-06
1.205379e-06
1.205595e-06
1.2067609e-06
1.2094598e-06
1.2134294e-06
1.218584e-06
1.2250464e-06
1.232406e-06
1.2392989e-06
1.2442018e-06
1.2468684e-06
1.2475908e-06
1.2472664e-06
1.2464264e-06
1.2455872e-06
1.2447765e-06
1.2440906e-06
1.2435803e-06
1.2432989e-06
1.2435374e-06
1.2440318e-06
1.2448968e-06
1.2462294e-06
1.2481704e-06
1.2503418e-06
1.2522084e-06
1.2552378e-06
1.2578968e-06
1.2629639e-06
1.2666381e-06
1.2727134e-06
1.2762252e-06
1.283199e-06
1.2870749e-06
1.2951624e-06
1.2995082e-06
1.3082634e-06
1.3148906e-06
1.3225131e-06
1.33114e-06
1.3426422e-06
1.34808e-06
1.3568029e-06
3.016875e-06
2.5092374e-06
2.3220662e-06
2.1850264e-06
1.9523935e-06
1.6864278e-06
1.4731302e-06
1.3387536e-06
1.2670464e-06
1.2319811e-06
1.2158571e-06
1.2091658e-06
1.2064703e-06
1.2065778e-06
1.2076036e-06
1.2102045e-06
1.2141036e-06
1.2190853e-06
1.2255709e-06
1.2328608e-06
1.2401399e-06
1.2455194e-06
1.2485411e-06
1.2492818e-06
1.2489181e-06
1.2479762e-06
1.2470215e-06
1.2462243e-06
1.2455854e-06
1.2450284e-06
1.2446777e-06
1.2446551e-06
1.2449014e-06
1.2456068e-06
1.2470672e-06
1.2491573e-06
1.2508069e-06
1.2522734e-06
1.2542366e-06
1.2574596e-06
1.261605e-06
1.2666971e-06
1.2713577e-06
1.2751918e-06
1.2817334e-06
1.2854303e-06
1.2925026e-06
1.296441e-06
1.3041628e-06
1.3115386e-06
1.3175122e-06
1.3267031e-06
1.3363664e-06
1.3424026e-06
1.3498037e-06
3.0183952e-06
2.5107362e-06
2.3222798e-06
2.185248e-06
1.954344e-06
1.6895342e-06
1.4762472e-06
1.3413155e-06
1.2688935e-06
1.233355e-06
1.2169457e-06
1.2100438e-06
1.2072618e-06
1.2071949e-06
1.2081113e-06
1.2106511e-06
1.214345e-06
1.2193124e-06
1.2256022e-06
1.2330442e-06
1.2405883e-06
1.2464624e-06
1.2497134e-06
1.2506173e-06
1.2503291e-06
1.2495416e-06
1.2484836e-06
1.2475805e-06
1.2469332e-06
1.2462737e-06
1.245869e-06
1.2460743e-06
1.2462288e-06
1.2466066e-06
1.2475343e-06
1.2495404e-06
1.2513944e-06
1.2529114e-06
1.2546818e-06
1.2571602e-06
1.2607842e-06
1.2656181e-06
1.2696007e-06
1.27426e-06
1.2807267e-06
1.2841783e-06
1.2905312e-06
1.2940129e-06
1.3015261e-06
1.3075867e-06
1.313797e-06
1.3228821e-06
1.3328012e-06
1.337676e-06
1.3464299e-06
3.020372e-06
2.5118585e-06
2.3214556e-06
2.1883387e-06
1.9606023e-06
1.6959999e-06
1.4809794e-06
1.3441776e-06
1.2703795e-06
1.2340173e-06
1.2171543e-06
1.2099916e-06
1.2070766e-06
1.2068495e-06
1.2076802e-06
1.2101708e-06
1.21382e-06
1.2185761e-06
1.2249056e-06
1.2322192e-06
1.2399787e-06
1.2464284e-06
1.2502642e-06
1.2511898e-06
1.2509576e-06
1.2502222e-06
1.2491797e-06
1.2482792e-06
1.2476789e-06
1.2469231e-06
1.2464862e-06
1.2463285e-06
1.2462637e-06
1.2466542e-06
1.2477646e-06
1.2497713e-06
1.2509901e-06
1.2520339e-06
1.2534036e-06
1.2554654e-06
1.2597959e-06
1.264146e-06
1.268197e-06
1.2723495e-06
1.2776886e-06
1.2808284e-06
1.2865275e-06
1.2899494e-06
1.2968985e-06
1.3019283e-06
1.3076073e-06
1.3160438e-06
1.3254038e-06
1.3310136e-06
1.3382434e-06
3.021724e-06
2.5145991e-06
2.3209329e-06
2.1897708e-06
1.964373e-06
1.70159e-06
1.4889986e-06
1.355652e-06
1.2800875e-06
1.2409449e-06
1.2213741e-06
1.2128678e-06
1.2090899e-06
1.2086666e-06
1.209492e-06
1.2118486e-06
1.2156338e-06
1.2205756e-06
1.2270226e-06
1.2350444e-06
1.2431726e-06
1.2494139e-06
1.2531442e-06
1.255091e-06
1.2562469e-06
1.2578444e-06
1.256887e-06
1.2552623e-06
1.2538283e-06
1.2520532e-06
1.2509124e-06
1.251181e-06
1.2507569e-06
1.2498376e-06
1.2503715e-06
1.252296e-06
1.2539194e-06
1.2545654e-06
1.2554051e-06
1.2566651e-06
1.2586482e-06
1.2619239e-06
1.2666074e-06
1.2720965e-06
1.27716e-06
1.28109e-06
1.2855335e-06
1.2881729e-06
1.2923744e-06
1.2963216e-06
1.3014037e-06
1.3100955e-06
1.3179614e-06
1.3247373e-06
1.3311905e-06
3.0152958e-06
2.5293064e-06
2.3125436e-06
2.2310353e-06
2.0610604e-06
1.8192064e-06
1.648252e-06
1.576683e-06
1.4993401e-06
1.4371616e-06
1.3862968e-06
1.3619022e-06
1.3489139e-06
1.3473141e-06
1.348882e-06
1.3519128e-06
1.3598486e-06
1.3664617e-06
1.3781929e-06
1.3914637e-06
1.4027011e-06
1.4026356e-06
1.4012805e-06
1.4069409e-06
1.4176351e-06
1.451757e-06
1.4524019e-06
1.4451028e-06
1.4292569e-06
1.4051863e-06
1.3917588e-06
1.3907375e-06
1.3847072e-06
1.3726071e-06
1.37252e-06
1.3749238e-06
1.3735479e-06
1.3656831e-06
1.353141e-06
1.3460753e-06
1.345378e-06
1.3463622e-06
1.3496923e-06
1.3526232e-06
1.3542642e-06
1.3543718e-06
1.3528334e-06
1.3469929e-06
1.3432756e-06
1.34241e-06
1.3429523e-06
1.3452394e-06
1.3484086e-06
1.3567212e-06
1.3560335e-06
2.9407886e-06
2.5688108e-06
2.5647358e-06
2.8763842e-06
3.3557552e-06
3.4717125e-06
3.6490732e-06
3.7637289e-06
3.7365872e-06
3.5984607e-06
3.3627899e-06
3.2550194e-06
3.2359444e-06
3.248896e-06
3.2879121e-06
3.3246043e-06
3.415681e-06
3.4619978e-06
3.5506586e-06
3.6276243e-06
3.7089882e-06
3.6491343e-06
3.6475126e-06
3.7101934e-06
3.7583589e-06
4.0846672e-06
4.117561e-06
4.0585396e-06
3.941044e-06
3.708477e-06
3.5685196e-06
3.6368646e-06
3.5470128e-06
3.4233749e-06
3.4135173e-06
3.5425187e-06
3.5099993e-06
3.4292732e-06
3.2527036e-06
3.0996229e-06
3.0454661e-06
3.0435e-06
3.0539551e-06
3.0561488e-06
3.0475079e-06
3.0118746e-06
2.893855e-06
2.7425485e-06
2.5844783e-06
2.4915813e-06
2.407949e-06
2.3717308e-06
2.3262598e-06
2.3090763e-06
2.2375225e-06
2.6883854e-06
3.0987866e-06
3.433877e-06
5.1409852e-06
6.2702913e-06
7.1901854e-06
7.5573582e-06
7.5264085e-06
7.618322e-06
7.9009225e-06
8.3892199e-06
9.0620028e-06
9.8713605e-06
1.076494e-05
1.1691396e-05
1.2611642e-05
1.3490673e-05
1.4221966e-05
1.4942394e-05
1.5344339e-05
1.585271e-05
1.6380518e-05
1.6888695e-05
1.7708252e-05
1.7912162e-05
1.844439e-05
1.8733281e-05
1.8816398e-05
1.8766853e-05
1.8820422e-05
1.8444107e-05
1.8409199e-05
1.8263961e-05
1.79992e-05
1.7541678e-05
1.7676102e-05
1.7403187e-05
1.7139365e-05
1.651133e-05
1.603739e-05
1.5524638e-05
1.5537626e-05
1.5399611e-05
1.5423417e-05
1.5352408e-05
1.5187379e-05
1.4811559e-05
1.4697178e-05
1.4184296e-05
1.3915573e-05
1.3562005e-05
1.344217e-05
1.3188719e-05
1.3078289e-05
1.3011684e-05
1.3226567e-05
2.3163458e-06
1.3707573e-06
1.3437491e-06
1.3510143e-06
1.3579602e-06
1.3632942e-06
1.3691721e-06
1.3753561e-06
1.3838022e-06
1.3932913e-06
1.4043322e-06
1.4170349e-06
1.4306373e-06
1.4452748e-06
1.4617498e-06
1.4808625e-06
1.5038601e-06
1.5333203e-06
1.5672864e-06
1.5958174e-06
1.6200519e-06
1.6706962e-06
1.7426094e-06
1.8084735e-06
1.8734416e-06
1.9489525e-06
1.3484377e-05
2.4921773e-06
1.3981285e-06
1.3536076e-06
1.3613859e-06
1.3709616e-06
1.376501e-06
1.3848602e-06
1.392392e-06
1.4010392e-06
1.4087295e-06
1.4181854e-06
1.4292255e-06
1.4421073e-06
1.457064e-06
1.4733333e-06
1.4925079e-06
1.5152874e-06
1.5447291e-06
1.5803021e-06
1.6131651e-06
1.6376603e-06
1.6788076e-06
1.7494583e-06
1.8302159e-06
1.9022649e-06
1.9698636e-06
1.3831585e-05
2.6751113e-06
1.4291237e-06
1.3658526e-06
1.372739e-06
1.3793888e-06
1.3850821e-06
1.3938483e-06
1.401673e-06
1.4111714e-06
1.4212331e-06
1.4323092e-06
1.4448558e-06
1.4586652e-06
1.4735414e-06
1.4908433e-06
1.5103324e-06
1.5336707e-06
1.5623655e-06
1.5981169e-06
1.6328891e-06
1.659211e-06
1.6910396e-06
1.7552897e-06
1.8372843e-06
1.920862e-06
2.0006034e-06
1.4308368e-05
2.8243329e-06
1.4612377e-06
1.3806716e-06
1.3860846e-06
1.3972621e-06
1.4033147e-06
1.4122386e-06
1.4184104e-06
1.4253565e-06
1.4335067e-06
1.4439519e-06
1.4563505e-06
1.4701067e-06
1.4849716e-06
1.5023986e-06
1.5222042e-06
1.546177e-06
1.5755099e-06
1.6112951e-06
1.6490445e-06
1.6804992e-06
1.714554e-06
1.7703647e-06
1.8532267e-06
1.9301537e-06
2.0243625e-06
1.4935445e-05
2.933956e-06
1.4897756e-06
1.4016363e-06
1.4067733e-06
1.413523e-06
1.4214333e-06
1.4276882e-06
1.4390013e-06
1.4506076e-06
1.4593689e-06
1.4696615e-06
1.4819891e-06
1.4955366e-06
1.5109395e-06
1.5282847e-06
1.5488079e-06
1.5736046e-06
1.603283e-06
1.6393996e-06
1.6775671e-06
1.7085909e-06
1.7392395e-06
1.789491e-06
1.8749748e-06
1.9495308e-06
2.0431049e-06
1.5719454e-05
3.0033115e-06
1.5102684e-06
1.4163288e-06
1.4226714e-06
1.4351501e-06
1.4414318e-06
1.4507022e-06
1.4559907e-06
1.4648107e-06
1.474599e-06
1.4854901e-06
1.4984575e-06
1.5124181e-06
1.5282669e-06
1.5453535e-06
1.5654851e-06
1.5899518e-06
1.6209181e-06
1.6591477e-06
1.7022076e-06
1.7374352e-06
1.7641164e-06
1.8146345e-06
1.8914615e-06
1.9854251e-06
2.070376e-06
1.6668164e-05
3.0733565e-06
1.5262838e-06
1.4318706e-06
1.4373517e-06
1.4471521e-06
1.4559091e-06
1.4672406e-06
1.4796555e-06
1.4891471e-06
1.4989651e-06
1.5103964e-06
1.5241619e-06
1.5390029e-06
1.5551415e-06
1.5728559e-06
1.592588e-06
1.6162653e-06
1.6448633e-06
1.6817103e-06
1.7235968e-06
1.7606127e-06
1.7868217e-06
1.8293647e-06
1.8959437e-06
2.0148048e-06
2.1085446e-06
1.780217e-05
3.1959509e-06
1.5478204e-06
1.4435805e-06
1.4493807e-06
1.4661707e-06
1.4735952e-06
1.4831232e-06
1.4923806e-06
1.5021084e-06
1.5120056e-06
1.5235541e-06
1.5373031e-06
1.5528294e-06
1.5688342e-06
1.5870434e-06
1.6069498e-06
1.6307244e-06
1.6611739e-06
1.6996361e-06
1.7442621e-06
1.7854172e-06
1.8161e-06
1.8532931e-06
1.908682e-06
2.0284537e-06
2.1411329e-06
1.9155929e-05
3.394586e-06
1.5911851e-06
1.4684934e-06
1.4733908e-06
1.4847158e-06
1.4956769e-06
1.5065319e-06
1.5170715e-06
1.528076e-06
1.5381597e-06
1.5501887e-06
1.5640686e-06
1.5798205e-06
1.5961925e-06
1.6144035e-06
1.6331447e-06
1.6552585e-06
1.6828869e-06
1.7189213e-06
1.7638693e-06
1.8074374e-06
1.8414846e-06
1.8766109e-06
1.9212209e-06
2.0297269e-06
2.1626908e-06
2.0774294e-05
3.6063041e-06
1.6530761e-06
1.4921357e-06
1.4946651e-06
1.5116104e-06
1.5195865e-06
1.528781e-06
1.5354056e-06
1.5445684e-06
1.5544264e-06
1.566418e-06
1.5803898e-06
1.5964793e-06
1.6132816e-06
1.632363e-06
1.6540605e-06
1.6781364e-06
1.7072576e-06
1.7433466e-06
1.7893983e-06
1.8375515e-06
1.8750649e-06
1.9160365e-06
1.9501574e-06
2.0371935e-06
2.1691532e-06
2.2711894e-05
3.8233855e-06
1.7209316e-06
1.5244891e-06
1.5253567e-06
1.5365306e-06
1.5464185e-06
1.5601943e-06
1.5698262e-06
1.5788824e-06
1.5886075e-06
1.6004806e-06
1.6152735e-06
1.6317258e-06
1.6486216e-06
1.6658349e-06
1.6857473e-06
1.7101341e-06
1.7382734e-06
1.77307e-06
1.8180841e-06
1.8671525e-06
1.9070506e-06
1.9511121e-06
1.9842879e-06
2.0515455e-06
2.1716171e-06
2.5036547e-05
3.98237e-06
1.7735273e-06
1.5445127e-06
1.5450864e-06
1.5636805e-06
1.5687909e-06
1.5793394e-06
1.5883689e-06
1.5977938e-06
1.6075386e-06
1.619498e-06
1.634392e-06
1.6515199e-06
1.6715574e-06
1.6922438e-06
1.7146927e-06
1.7400819e-06
1.7694143e-06
1.8053604e-06
1.8488799e-06
1.9001332e-06
1.9439768e-06
1.9903382e-06
2.0364216e-06
2.0893705e-06
2.178547e-06
2.7827302e-05
4.1465813e-06
1.8184891e-06
1.570457e-06
1.570063e-06
1.5837189e-06
1.5961665e-06
1.6109019e-06
1.6219429e-06
1.6322234e-06
1.6427099e-06
1.6556115e-06
1.6704458e-06
1.6870518e-06
1.7034777e-06
1.7234494e-06
1.7452471e-06
1.7698243e-06
1.7991881e-06
1.8340455e-06
1.8767634e-06
1.9279239e-06
1.9735775e-06
2.0167651e-06
2.0718406e-06
2.1253806e-06
2.1897053e-06
3.1176413e-05
4.2805611e-06
1.8466119e-06
1.584226e-06
1.5862988e-06
1.609791e-06
1.6192583e-06
1.629253e-06
1.6389449e-06
1.6497512e-06
1.6603449e-06
1.6736474e-06
1.6891937e-06
1.7075202e-06
1.7266206e-06
1.7470454e-06
1.7684669e-06
1.7943816e-06
1.8239822e-06
1.8589381e-06
1.9029191e-06
1.9560448e-06
2.0058399e-06
2.0481089e-06
2.1091545e-06
2.1659742e-06
2.2200984e-06
3.5190283e-05
4.4591148e-06
1.874223e-06
1.6066887e-06
1.6076011e-06
1.6305312e-06
1.6462633e-06
1.6609739e-06
1.6733488e-06
1.6849314e-06
1.6953792e-06
1.7091984e-06
1.7233043e-06
1.7384371e-06
1.7578147e-06
1.7765594e-06
1.7972136e-06
1.8217369e-06
1.8497259e-06
1.8829696e-06
1.9240221e-06
1.9757757e-06
2.0256329e-06
2.0684616e-06
2.1295279e-06
2.1846215e-06
2.2502242e-06
3.9981307e-05
4.6436921e-06
1.8942386e-06
1.6213075e-06
1.6290879e-06
1.6665136e-06
1.6728707e-06
1.6856016e-06
1.6929196e-06
1.7035126e-06
1.7140801e-06
1.7291195e-06
1.7457758e-06
1.7623218e-06
1.7817628e-06
1.8015709e-06
1.8237896e-06
1.8486702e-06
1.8767897e-06
1.9106047e-06
1.949261e-06
2.0007355e-06
2.0507997e-06
2.0962221e-06
2.1564169e-06
2.2052434e-06
2.2802756e-06
4.5668297e-05
4.926971e-06
1.9216511e-06
1.6398569e-06
1.6454448e-06
1.6897036e-06
1.7029267e-06
1.7204951e-06
1.7302371e-06
1.741528e-06
1.7516596e-06
1.764041e-06
1.7791147e-06
1.7952632e-06
1.8119849e-06
1.8313537e-06
1.8526593e-06
1.8768183e-06
1.9047653e-06
1.9376768e-06
1.9749113e-06
2.0257292e-06
2.0728361e-06
2.1190471e-06
2.1753503e-06
2.2168042e-06
2.2940025e-06
5.2369002e-05
5.230913e-06
1.9475733e-06
1.6616364e-06
1.6668683e-06
1.7188187e-06
1.7330789e-06
1.7457293e-06
1.7533357e-06
1.7644029e-06
1.7762284e-06
1.7890538e-06
1.8054764e-06
1.8230367e-06
1.8408716e-06
1.860551e-06
1.8818859e-06
1.9049298e-06
1.9327382e-06
1.9650233e-06
2.0012963e-06
2.0549215e-06
2.1014089e-06
2.1517372e-06
2.2071513e-06
2.2444927e-06
2.313377e-06
6.01972e-05
5.7284587e-06
1.9883313e-06
1.6818611e-06
1.6844859e-06
1.7398487e-06
1.7635372e-06
1.7794295e-06
1.790764e-06
1.8006041e-06
1.8120539e-06
1.8250181e-06
1.8400194e-06
1.8564998e-06
1.8744302e-06
1.8939655e-06
1.9152901e-06
1.9385328e-06
1.9651575e-06
1.9953081e-06
2.027515e-06
2.0806509e-06
2.1246271e-06
2.1751033e-06
2.232619e-06
2.2666359e-06
2.3293242e-06
6.9243261e-05
6.2268414e-06
2.0303751e-06
1.6982886e-06
1.6980838e-06
1.7576938e-06
1.7864721e-06
1.8038287e-06
1.8130104e-06
1.8228833e-06
1.8357872e-06
1.8515259e-06
1.8676782e-06
1.8853144e-06
1.9041244e-06
1.9240751e-06
1.9458896e-06
1.9704411e-06
1.9980343e-06
2.0300418e-06
2.0599327e-06
2.1123548e-06
2.1557674e-06
2.2057996e-06
2.2630462e-06
2.2986916e-06
2.3507359e-06
7.9549729e-05
7.0822109e-06
2.1032164e-06
1.7311157e-06
1.7262983e-06
1.7840519e-06
1.8218295e-06
1.8413117e-06
1.85155e-06
1.8605864e-06
1.8714933e-06
1.885299e-06
1.9002992e-06
1.9173181e-06
1.9355318e-06
1.9554883e-06
1.9761849e-06
2.0014663e-06
2.0282379e-06
2.0610423e-06
2.0889899e-06
2.1400463e-06
2.183267e-06
2.2323731e-06
2.2914545e-06
2.3268407e-06
2.3724141e-06
9.1101241e-05
7.8791086e-06
2.1756935e-06
1.7505157e-06
1.739838e-06
1.8003916e-06
1.8467119e-06
1.8647817e-06
1.8761021e-06
1.8874661e-06
1.8997325e-06
1.9143963e-06
1.9297543e-06
1.9473139e-06
1.9654088e-06
1.9845567e-06
2.0054291e-06
2.0294211e-06
2.056673e-06
2.0897607e-06
2.1173824e-06
2.1685709e-06
2.2140524e-06
2.2611463e-06
2.3213701e-06
2.3585694e-06
2.4003785e-06
0.00010382465
9.2897718e-06
2.3077184e-06
1.7878071e-06
1.7672905e-06
1.8251619e-06
1.8815251e-06
1.9033977e-06
1.9117318e-06
1.9217121e-06
1.9322687e-06
1.9455727e-06
1.9596641e-06
1.9775696e-06
1.9956748e-06
2.0136287e-06