/*--------------------------------*- C++ -*----------------------------------*\
| =========                 |                                                 |
| \\      /  F ield         | OpenFOAM: The Open Source CFD Toolbox           |
|  \\    /   O peration     | Version:  2406                                  |
|   \\  /    A nd           | Website:  www.openfoam.com                      |
|    \\/     M anipulation  |                                                 |
\*---------------------------------------------------------------------------*/
FoamFile
{
    version     2.0;
    format      ascii;
    arch        "LSB;label=32;scalar=64";
    class       volScalarField;
    location    "5";
    object      k_0;
}
// * * * * * * * * * * * * * * * * * * * * * * * * * * * * * * * * * * * * * //

dimensions      [0 2 -2 0 0 0 0];

internalField   nonuniform List<scalar> 
62344
(
4.1782746e-06
3.4823811e-06
3.0844591e-06
2.7391746e-06
2.3852987e-06
2.0639026e-06
1.8277795e-06
1.6741779e-06
1.580058e-06
1.5267625e-06
1.4988548e-06
1.4862526e-06
1.4832612e-06
1.4841216e-06
1.4885673e-06
1.4961479e-06
1.5098612e-06
1.5216005e-06
1.5260172e-06
1.5327966e-06
1.5383712e-06
1.5480907e-06
1.5528595e-06
1.5700356e-06
1.5715836e-06
1.5820812e-06
1.6035834e-06
1.6149723e-06
1.6340728e-06
1.6672736e-06
1.6960289e-06
1.7163222e-06
1.7500802e-06
1.8074098e-06
1.8542629e-06
1.8980187e-06
1.9525783e-06
2.0510496e-06
2.1889949e-06
2.3958085e-06
2.5311773e-06
2.7064355e-06
2.848527e-06
3.0468053e-06
3.1635106e-06
3.3993953e-06
3.5714911e-06
3.8000336e-06
3.9449243e-06
4.100509e-06
4.2216474e-06
4.3896765e-06
4.5186631e-06
4.706295e-06
4.8590967e-06
4.1821465e-06
3.4873783e-06
3.0879323e-06
2.7455312e-06
2.3965044e-06
2.0782353e-06
1.8356066e-06
1.6771131e-06
1.5819595e-06
1.5246146e-06
1.4962879e-06
1.4825568e-06
1.4799878e-06
1.4783893e-06
1.483056e-06
1.4876943e-06
1.500847e-06
1.5122485e-06
1.5148103e-06
1.5187207e-06
1.5266913e-06
1.5336978e-06
1.5360362e-06
1.5497515e-06
1.5503312e-06
1.5602244e-06
1.5771225e-06
1.5848793e-06
1.6012847e-06
1.6345907e-06
1.6568911e-06
1.6730086e-06
1.7028968e-06
1.7660621e-06
1.8222889e-06
1.8667682e-06
1.9036327e-06
1.994891e-06
2.1288101e-06
2.3067298e-06
2.456963e-06
2.6561713e-06
2.8247051e-06
3.0657617e-06
3.257178e-06
3.5627459e-06
3.7669979e-06
3.9925807e-06
4.196773e-06
4.4710135e-06
4.6421031e-06
4.8641333e-06
4.9662308e-06
5.2658927e-06
5.300465e-06
4.1855011e-06
3.4891527e-06
3.0933564e-06
2.7557643e-06
2.4106294e-06
2.094997e-06
1.8477525e-06
1.6835707e-06
1.5862617e-06
1.5269359e-06
1.4956483e-06
1.4819155e-06
1.4796326e-06
1.4776408e-06
1.4835648e-06
1.4871466e-06
1.500943e-06
1.5125347e-06
1.516447e-06
1.5202261e-06
1.5265814e-06
1.5324674e-06
1.5359521e-06
1.5471516e-06
1.5461517e-06
1.5551522e-06
1.5669722e-06
1.5722001e-06
1.5884855e-06
1.6210667e-06
1.641127e-06
1.6548766e-06
1.6848039e-06
1.7345589e-06
1.7799728e-06
1.8135771e-06
1.8396867e-06
1.9111876e-06
2.0144286e-06
2.1374661e-06
2.2917917e-06
2.4796035e-06
2.6918265e-06
2.97816e-06
3.241667e-06
3.5556399e-06
3.7934844e-06
4.0012794e-06
4.2474919e-06
4.6398826e-06
4.8673515e-06
5.192972e-06
5.2955698e-06
5.6809446e-06
5.7534432e-06
4.1900505e-06
3.4910406e-06
3.097235e-06
2.7624654e-06
2.4183918e-06
2.1023535e-06
1.8544769e-06
1.6893403e-06
1.5911897e-06
1.5318613e-06
1.4991733e-06
1.4859721e-06
1.4800146e-06
1.4764015e-06
1.4818742e-06
1.4848223e-06
1.4969013e-06
1.5097125e-06
1.5173982e-06
1.523755e-06
1.5278307e-06
1.5310997e-06
1.5348023e-06
1.5435807e-06
1.5413241e-06
1.5498718e-06
1.5563378e-06
1.5616762e-06
1.5834729e-06
1.6181197e-06
1.6378587e-06
1.6518212e-06
1.6789068e-06
1.7281058e-06
1.7719863e-06
1.8059431e-06
1.8433599e-06
1.8946108e-06
1.9910282e-06
2.0801595e-06
2.209027e-06
2.3285327e-06
2.512547e-06
2.7362266e-06
3.0462405e-06
3.3394345e-06
3.6022558e-06
3.852292e-06
4.1131765e-06
4.4950356e-06
4.7426534e-06
5.152082e-06
5.3421406e-06
5.7558111e-06
5.8471792e-06
4.1928871e-06
3.4935682e-06
3.1036205e-06
2.773491e-06
2.428134e-06
2.1088598e-06
1.8636098e-06
1.6968129e-06
1.5961229e-06
1.5374423e-06
1.5030281e-06
1.4873308e-06
1.4795115e-06
1.4752069e-06
1.4794327e-06
1.4832431e-06
1.4939837e-06
1.5069932e-06
1.5172427e-06
1.5229928e-06
1.5292368e-06
1.5330504e-06
1.5389258e-06
1.5444045e-06
1.5410921e-06
1.5491606e-06
1.5515161e-06
1.557202e-06
1.5829757e-06
1.6181976e-06
1.6396368e-06
1.6559734e-06
1.6820622e-06
1.7283802e-06
1.7692847e-06
1.8079682e-06
1.8489494e-06
1.8951952e-06
1.9761609e-06
2.0398825e-06
2.1259633e-06
2.2058289e-06
2.3490051e-06
2.5184341e-06
2.7849142e-06
3.028688e-06
3.1834204e-06
3.4822471e-06
3.6734059e-06
4.0389048e-06
4.313018e-06
4.7345917e-06
5.1139269e-06
5.5396998e-06
5.7997339e-06
4.1950519e-06
3.4966831e-06
3.1097929e-06
2.785629e-06
2.4391543e-06
2.1186958e-06
1.8729292e-06
1.7015565e-06
1.6006084e-06
1.5391765e-06
1.5034313e-06
1.4865866e-06
1.478037e-06
1.4746518e-06
1.4777901e-06
1.4827338e-06
1.4937263e-06
1.5072195e-06
1.5173143e-06
1.5231327e-06
1.5299807e-06
1.5336178e-06
1.5431153e-06
1.5470874e-06
1.5421278e-06
1.5482807e-06
1.5492047e-06
1.5575274e-06
1.5850971e-06
1.6166815e-06
1.6408266e-06
1.6602694e-06
1.6870112e-06
1.7335113e-06
1.7708718e-06
1.8059741e-06
1.847072e-06
1.8978455e-06
1.9528114e-06
1.9941364e-06
2.0460928e-06
2.1094654e-06
2.1988326e-06
2.3646585e-06
2.6032057e-06
2.765361e-06
2.9853474e-06
3.2138374e-06
3.4081734e-06
3.5579647e-06
3.8486092e-06
4.0214056e-06
4.4054817e-06
4.7054889e-06
5.2075273e-06
4.1975234e-06
3.5022092e-06
3.1135448e-06
2.7913436e-06
2.4455719e-06
2.1256742e-06
1.8763995e-06
1.7056381e-06
1.6049985e-06
1.5400162e-06
1.5048037e-06
1.4895993e-06
1.4809351e-06
1.4786502e-06
1.4802851e-06
1.4846353e-06
1.4947521e-06
1.5064224e-06
1.5186676e-06
1.5247554e-06
1.532105e-06
1.5361979e-06
1.5455367e-06
1.5473256e-06
1.542751e-06
1.5477913e-06
1.5454212e-06
1.5549999e-06
1.5819525e-06
1.6083366e-06
1.6314989e-06
1.6543746e-06
1.6842212e-06
1.7343695e-06
1.7657478e-06
1.789629e-06
1.8292618e-06
1.8822039e-06
1.9293766e-06
1.961222e-06
2.0071462e-06
2.0619711e-06
2.1550363e-06
2.27186e-06
2.4679002e-06
2.5948657e-06
2.8316368e-06
3.032972e-06
3.3095672e-06
3.4387722e-06
3.6597984e-06
3.8140468e-06
4.004166e-06
4.2273984e-06
4.6070214e-06
4.2006682e-06
3.5057347e-06
3.1157254e-06
2.7979886e-06
2.456546e-06
2.1364817e-06
1.8815576e-06
1.7114018e-06
1.6073297e-06
1.5419745e-06
1.5067252e-06
1.4903539e-06
1.4806758e-06
1.4798166e-06
1.4800281e-06
1.4833197e-06
1.4917765e-06
1.5025077e-06
1.5174602e-06
1.5252786e-06
1.532364e-06
1.5380113e-06
1.5465471e-06
1.5458496e-06
1.5431038e-06
1.5488569e-06
1.5442143e-06
1.5530909e-06
1.5774795e-06
1.597833e-06
1.6168466e-06
1.6445634e-06
1.6815945e-06
1.7300521e-06
1.7584621e-06
1.7804459e-06
1.8217554e-06
1.8838788e-06
1.9455061e-06
1.9811691e-06
2.0325788e-06
2.0902817e-06
2.1780171e-06
2.2670965e-06
2.4137548e-06
2.5073634e-06
2.7043094e-06
2.893182e-06
3.198331e-06
3.3479391e-06
3.5544429e-06
3.7993277e-06
3.9345813e-06
4.2080944e-06
4.4665145e-06
4.2040149e-06
3.508855e-06
3.1189735e-06
2.8048018e-06
2.4687087e-06
2.1478899e-06
1.890907e-06
1.7195056e-06
1.6108779e-06
1.5479887e-06
1.5109962e-06
1.4931817e-06
1.4823991e-06
1.4820018e-06
1.4814343e-06
1.4843587e-06
1.4924756e-06
1.5040505e-06
1.5188292e-06
1.5294474e-06
1.5375406e-06
1.5421812e-06
1.5503914e-06
1.5486029e-06
1.5457238e-06
1.5495676e-06
1.5424437e-06
1.5510826e-06
1.5728237e-06
1.5877119e-06
1.6021847e-06
1.6320858e-06
1.6776809e-06
1.7262919e-06
1.7522805e-06
1.781324e-06
1.8282059e-06
1.8958989e-06
1.9892629e-06
2.0465844e-06
2.1118676e-06
2.1854074e-06
2.2658254e-06
2.3295598e-06
2.4234623e-06
2.5046398e-06
2.6028574e-06
2.8174637e-06
3.0286926e-06
3.2645387e-06
3.5007199e-06
3.7244715e-06
3.9117834e-06
4.2328488e-06
4.4116441e-06
4.2072976e-06
3.5113766e-06
3.1227028e-06
2.8118128e-06
2.4797798e-06
2.1577159e-06
1.9020862e-06
1.728216e-06
1.6158227e-06
1.5513809e-06
1.514176e-06
1.4965124e-06
1.4859361e-06
1.483983e-06
1.4819296e-06
1.4849405e-06
1.4931598e-06
1.5056456e-06
1.5190835e-06
1.5315308e-06
1.5428962e-06
1.5477519e-06
1.5538149e-06
1.5502149e-06
1.55045e-06
1.5516508e-06
1.5425641e-06
1.5512514e-06
1.5716701e-06
1.5836424e-06
1.594622e-06
1.6223799e-06
1.6754745e-06
1.7229753e-06
1.750859e-06
1.7908647e-06
1.8425009e-06
1.9300996e-06
2.0202724e-06
2.1029685e-06
2.1698589e-06
2.2714613e-06
2.3790569e-06
2.4662811e-06
2.5376369e-06
2.5859456e-06
2.6514548e-06
2.8030768e-06
2.9338644e-06
3.1608453e-06
3.3870585e-06
3.6450571e-06
3.8506568e-06
4.1528557e-06
4.3066032e-06
4.2101419e-06
3.5131559e-06
3.1260177e-06
2.8180549e-06
2.4876062e-06
2.1651225e-06
1.911828e-06
1.7347135e-06
1.620242e-06
1.5524661e-06
1.5158272e-06
1.4972875e-06
1.4870319e-06
1.4827819e-06
1.480928e-06
1.4842812e-06
1.4925943e-06
1.5051432e-06
1.517624e-06
1.5305426e-06
1.5444705e-06
1.5507156e-06
1.5548556e-06
1.5507962e-06
1.5541132e-06
1.5538547e-06
1.5441407e-06
1.5517075e-06
1.5703215e-06
1.581158e-06
1.5911359e-06
1.6171072e-06
1.6679677e-06
1.7170419e-06
1.7468948e-06
1.7944086e-06
1.8532234e-06
1.9428894e-06
2.0283512e-06
2.107832e-06
2.1694375e-06
2.2601803e-06
2.3704852e-06
2.5118819e-06
2.6029595e-06
2.6578772e-06
2.7246791e-06
2.830427e-06
2.9166787e-06
3.1006522e-06
3.3055304e-06
3.5509813e-06
3.7114001e-06
3.9296832e-06
4.1251217e-06
4.2125313e-06
3.5148581e-06
3.1289757e-06
2.8231187e-06
2.4919931e-06
2.1706345e-06
1.9179426e-06
1.7380453e-06
1.6226847e-06
1.5533195e-06
1.5162821e-06
1.4958292e-06
1.4862857e-06
1.4820751e-06
1.4815272e-06
1.4847726e-06
1.4923239e-06
1.5037003e-06
1.5158018e-06
1.529169e-06
1.5437406e-06
1.5502863e-06
1.5549871e-06
1.5529172e-06
1.5562485e-06
1.5550127e-06
1.5463937e-06
1.5526863e-06
1.5690661e-06
1.579631e-06
1.5881401e-06
1.6121808e-06
1.6614811e-06
1.7078114e-06
1.7403082e-06
1.78798e-06
1.8449516e-06
1.9354189e-06
2.0129849e-06
2.0732269e-06
2.1229822e-06
2.2087362e-06
2.3124931e-06
2.4612017e-06
2.5840723e-06
2.6486798e-06
2.7349714e-06
2.8190918e-06
2.9109389e-06
3.062672e-06
3.2427132e-06
3.3901453e-06
3.5747148e-06
3.7614074e-06
3.938961e-06
4.2142854e-06
3.5165174e-06
3.1319727e-06
2.8277828e-06
2.4966553e-06
2.1771191e-06
1.9231612e-06
1.7404059e-06
1.6241708e-06
1.555629e-06
1.5179098e-06
1.4951802e-06
1.4866711e-06
1.4836394e-06
1.4831056e-06
1.4849225e-06
1.4901209e-06
1.5004238e-06
1.5133477e-06
1.5278261e-06
1.5433003e-06
1.549665e-06
1.554294e-06
1.5541083e-06
1.556719e-06
1.5544864e-06
1.5470439e-06
1.5522516e-06
1.5674717e-06
1.5781229e-06
1.5842946e-06
1.606137e-06
1.6542637e-06
1.699468e-06
1.7311626e-06
1.7668151e-06
1.8204779e-06
1.90056e-06
1.9750849e-06
2.0167039e-06
2.0626537e-06
2.1198988e-06
2.1987464e-06
2.3135576e-06
2.4492295e-06
2.546829e-06
2.656863e-06
2.7360307e-06
2.8596526e-06
2.9716689e-06
3.1159489e-06
3.2156821e-06
3.4008714e-06
3.5800303e-06
3.7967306e-06
4.2160266e-06
3.5184946e-06
3.1350784e-06
2.8332145e-06
2.5035489e-06
2.1862801e-06
1.9299068e-06
1.744593e-06
1.626642e-06
1.5599034e-06
1.5216333e-06
1.4980753e-06
1.488807e-06
1.4852268e-06
1.4842119e-06
1.4846485e-06
1.4873344e-06
1.496666e-06
1.51055e-06
1.5261733e-06
1.5431722e-06
1.5500953e-06
1.5543907e-06
1.554537e-06
1.5567205e-06
1.5544553e-06
1.5477978e-06
1.5509837e-06
1.5651733e-06
1.575298e-06
1.5799808e-06
1.6010944e-06
1.6474435e-06
1.6927717e-06
1.7202688e-06
1.7473148e-06
1.7947412e-06
1.869983e-06
1.9439009e-06
1.9877499e-06
2.022351e-06
2.0663908e-06
2.1320777e-06
2.2021747e-06
2.3102628e-06
2.4167495e-06
2.5359014e-06
2.6002556e-06
2.711057e-06
2.7757153e-06
2.9122441e-06
2.9949129e-06
3.1756106e-06
3.3588319e-06
3.6172866e-06
4.2176764e-06
3.5203722e-06
3.1387544e-06
2.8396471e-06
2.5129664e-06
2.1969859e-06
1.9381129e-06
1.7512276e-06
1.630415e-06
1.5644442e-06
1.5261372e-06
1.5023503e-06
1.491835e-06
1.4862483e-06
1.4855686e-06
1.4864688e-06
1.4884163e-06
1.4970049e-06
1.5108631e-06
1.5260444e-06
1.5445339e-06
1.5524299e-06
1.5568974e-06
1.5559949e-06
1.5576854e-06
1.5557305e-06
1.5498142e-06
1.5506378e-06
1.5626754e-06
1.5715486e-06
1.5767763e-06
1.5982057e-06
1.6430896e-06
1.6890044e-06
1.715656e-06
1.7401529e-06
1.7875958e-06
1.8623734e-06
1.9423827e-06
1.9979869e-06
2.036134e-06
2.0783212e-06
2.1468272e-06
2.2135715e-06
2.3020232e-06
2.4036304e-06
2.4935511e-06
2.5780543e-06
2.654733e-06
2.7219018e-06
2.8160487e-06
2.9420483e-06
3.0487991e-06
3.2707923e-06
3.4825369e-06
4.2195211e-06
3.5223514e-06
3.1425549e-06
2.8463779e-06
2.5225724e-06
2.2065695e-06
1.9458576e-06
1.7577376e-06
1.6336765e-06
1.5672708e-06
1.528858e-06
1.5045881e-06
1.4935586e-06
1.4865845e-06
1.4864578e-06
1.4889904e-06
1.4918886e-06
1.4997848e-06
1.5131624e-06
1.5276992e-06
1.5463695e-06
1.5555457e-06
1.5609851e-06
1.559693e-06
1.5591714e-06
1.5563886e-06
1.5512542e-06
1.5513447e-06
1.5603765e-06
1.5675313e-06
1.5741769e-06
1.5977966e-06
1.6419523e-06
1.6874955e-06
1.7192748e-06
1.7448614e-06
1.7972814e-06
1.875215e-06
1.9598934e-06
2.0346611e-06
2.0911391e-06
2.1448554e-06
2.2230522e-06
2.3064467e-06
2.3824367e-06
2.4706228e-06
2.5536781e-06
2.6466992e-06
2.6990121e-06
2.7770941e-06
2.8367611e-06
2.9677334e-06
3.0697399e-06
3.2751996e-06
3.42886e-06
4.2213177e-06
3.524315e-06
3.1461652e-06
2.8525809e-06
2.5310902e-06
2.2141494e-06
1.9517778e-06
1.7626647e-06
1.6359955e-06
1.5682659e-06
1.5294426e-06
1.5047195e-06
1.493557e-06
1.4862929e-06
1.4865946e-06
1.4897268e-06
1.4933208e-06
1.5004325e-06
1.5134941e-06
1.528655e-06
1.5462357e-06
1.5567218e-06
1.5643528e-06
1.5625295e-06
1.559657e-06
1.5551944e-06
1.5507755e-06
1.5516715e-06
1.5584872e-06
1.5646117e-06
1.5729131e-06
1.5985274e-06
1.642347e-06
1.6868315e-06
1.7262225e-06
1.7611164e-06
1.8207502e-06
1.9118792e-06
2.0049467e-06
2.1053481e-06
2.1918447e-06
2.2825544e-06
2.3665238e-06
2.4684252e-06
2.5715873e-06
2.6644588e-06
2.7517284e-06
2.8619851e-06
2.9159168e-06
2.9935057e-06
3.0244796e-06
3.1249897e-06
3.2288469e-06
3.4047986e-06
3.4908833e-06
4.2232171e-06
3.5262215e-06
3.1488441e-06
2.8570034e-06
2.5374922e-06
2.2190692e-06
1.9550326e-06
1.7649229e-06
1.6377674e-06
1.5680886e-06
1.5282516e-06
1.503831e-06
1.4923259e-06
1.4852642e-06
1.4857094e-06
1.4884546e-06
1.4920538e-06
1.4983826e-06
1.5116115e-06
1.5290514e-06
1.5457275e-06
1.5578949e-06
1.5679344e-06
1.5660272e-06
1.5609249e-06
1.554719e-06
1.5502769e-06
1.5519649e-06
1.5568875e-06
1.561967e-06
1.5711822e-06
1.5973781e-06
1.6387431e-06
1.6807033e-06
1.7296074e-06
1.7758013e-06
1.850685e-06
1.9607278e-06
2.0546886e-06
2.1617756e-06
2.2742917e-06
2.3957485e-06
2.4826254e-06
2.6017576e-06
2.73526e-06
2.8220547e-06
2.9625972e-06
3.1100616e-06
3.2115171e-06
3.3068046e-06
3.3369205e-06
3.4223079e-06
3.5141205e-06
3.6436877e-06
3.7223624e-06
4.2250027e-06
3.5276725e-06
3.1503493e-06
2.860613e-06
2.54235e-06
2.2222099e-06
1.9562646e-06
1.7651767e-06
1.6391831e-06
1.5671893e-06
1.5258192e-06
1.5027746e-06
1.4910789e-06
1.484439e-06
1.4846218e-06
1.4869435e-06
1.4903662e-06
1.4958503e-06
1.5090869e-06
1.5287801e-06
1.5446878e-06
1.5568433e-06
1.568946e-06
1.5678405e-06
1.5617145e-06
1.5543884e-06
1.549809e-06
1.552324e-06
1.5560675e-06
1.5603099e-06
1.5710154e-06
1.5956582e-06
1.6343818e-06
1.6737058e-06
1.7291178e-06
1.7869424e-06
1.8682841e-06
1.9909931e-06
2.0918663e-06
2.1944375e-06
2.3242616e-06
2.4573263e-06
2.5808266e-06
2.7076387e-06
2.8467077e-06
2.9775287e-06
3.1043506e-06
3.2662404e-06
3.4114883e-06
3.5528657e-06
3.5907707e-06
3.7065218e-06
3.7879249e-06
3.9321401e-06
3.9871252e-06
4.2267521e-06
3.5290368e-06
3.1505787e-06
2.8626572e-06
2.5448303e-06
2.222874e-06
1.9553078e-06
1.7632235e-06
1.6390324e-06
1.5646276e-06
1.5215242e-06
1.4998474e-06
1.4882843e-06
1.4823866e-06
1.4820636e-06
1.484268e-06
1.4881237e-06
1.493e-06
1.5058885e-06
1.5268071e-06
1.5427699e-06
1.5568998e-06
1.5689306e-06
1.568631e-06
1.5621363e-06
1.5544872e-06
1.5492903e-06
1.5513706e-06
1.5534367e-06
1.5556702e-06
1.5660566e-06
1.5873972e-06
1.6225018e-06
1.6591545e-06
1.711742e-06
1.7796504e-06
1.8614683e-06
1.9877518e-06
2.091267e-06
2.1829984e-06
2.3121621e-06
2.4542748e-06
2.5998762e-06
2.7287502e-06
2.8670131e-06
3.0124821e-06
3.1369937e-06
3.2905793e-06
3.458507e-06
3.6284115e-06
3.7218233e-06
3.8606505e-06
3.9355199e-06
4.0605329e-06
4.1191116e-06
4.2282117e-06
3.530416e-06
3.1503608e-06
2.8630938e-06
2.5444743e-06
2.2199998e-06
1.9508195e-06
1.7572877e-06
1.6331727e-06
1.5563352e-06
1.5114377e-06
1.48943e-06
1.4776013e-06
1.4729149e-06
1.4724251e-06
1.4742496e-06
1.4786399e-06
1.4828716e-06
1.4947042e-06
1.5148186e-06
1.5313322e-06
1.5477456e-06
1.5570259e-06
1.5583928e-06
1.5533364e-06
1.5474188e-06
1.543496e-06
1.5455707e-06
1.5467054e-06
1.5479803e-06
1.5574414e-06
1.5771343e-06
1.6079661e-06
1.6390048e-06
1.6814479e-06
1.7406816e-06
1.8054395e-06
1.9111488e-06
2.0024561e-06
2.0744089e-06
2.1822472e-06
2.3291436e-06
2.4826149e-06
2.6230862e-06
2.75241e-06
2.8912979e-06
3.0160114e-06
3.1511006e-06
3.307485e-06
3.4701539e-06
3.6375958e-06
3.7806864e-06
3.8930117e-06
3.9909378e-06
4.080287e-06
4.2298001e-06
3.5343369e-06
3.147873e-06
2.8555467e-06
2.533252e-06
2.2088953e-06
1.9431721e-06
1.7510561e-06
1.6246193e-06
1.5468008e-06
1.5012306e-06
1.4764497e-06
1.4634461e-06
1.4583758e-06
1.457814e-06
1.4588994e-06
1.4628382e-06
1.4665814e-06
1.4763069e-06
1.4941497e-06
1.5112729e-06
1.5294632e-06
1.5368259e-06
1.5375319e-06
1.5322573e-06
1.5273447e-06
1.5242454e-06
1.5266776e-06
1.5262732e-06
1.5256462e-06
1.5328949e-06
1.5506667e-06
1.5758688e-06
1.595734e-06
1.6222757e-06
1.6636825e-06
1.7129119e-06
1.7724438e-06
1.8308562e-06
1.8724427e-06
1.9334317e-06
2.028329e-06
2.1306777e-06
2.2391247e-06
2.3318185e-06
2.39303e-06
2.4640556e-06
2.546038e-06
2.643973e-06
2.7559878e-06
2.9458105e-06
3.0898303e-06
3.2701708e-06
3.3604884e-06
3.4919357e-06
4.2331505e-06
3.5399543e-06
3.1327627e-06
2.8298191e-06
2.5178151e-06
2.2138689e-06
1.9769583e-06
1.7987887e-06
1.6669485e-06
1.5894497e-06
1.5420689e-06
1.507197e-06
1.486692e-06
1.4787233e-06
1.4772658e-06
1.4754396e-06
1.4758332e-06
1.4764391e-06
1.4820342e-06
1.4963021e-06
1.5122569e-06
1.5282843e-06
1.5345174e-06
1.5346277e-06
1.5285358e-06
1.5231991e-06
1.5180356e-06
1.5183422e-06
1.5166785e-06
1.5134066e-06
1.5182e-06
1.5354491e-06
1.5599372e-06
1.5774072e-06
1.5947676e-06
1.6293055e-06
1.6754983e-06
1.7261775e-06
1.766579e-06
1.7967527e-06
1.8394163e-06
1.9041614e-06
1.97522e-06
2.0440433e-06
2.0977884e-06
2.1317568e-06
2.1606496e-06
2.1851246e-06
2.2150911e-06
2.2681349e-06
2.361448e-06
2.450461e-06
2.5512616e-06
2.6092095e-06
2.6719716e-06
4.2381804e-06
3.5244715e-06
3.090723e-06
2.8216645e-06
2.6091539e-06
2.4341193e-06
2.3208036e-06
2.2048831e-06
2.0824266e-06
2.0005037e-06
1.9355705e-06
1.8663218e-06
1.8165291e-06
1.7940433e-06
1.7833462e-06
1.7679663e-06
1.7513913e-06
1.7421994e-06
1.7402202e-06
1.7456827e-06
1.7505836e-06
1.7541902e-06
1.758219e-06
1.7558874e-06
1.7434051e-06
1.7288852e-06
1.7109629e-06
1.6976532e-06
1.6918098e-06
1.6817834e-06
1.6798771e-06
1.6936218e-06
1.7156584e-06
1.7307151e-06
1.7396176e-06
1.7654314e-06
1.8053755e-06
1.8526617e-06
1.886919e-06
1.9104274e-06
1.9446824e-06
1.9986429e-06
2.0612729e-06
2.1203857e-06
2.1616011e-06
2.1849408e-06
2.2065238e-06
2.2205404e-06
2.2358635e-06
2.2638315e-06
2.3089135e-06
2.3689917e-06
2.4295313e-06
2.4752958e-06
2.4876623e-06
4.2389043e-06
3.3969879e-06
2.9698905e-06
2.9133432e-06
3.0115942e-06
3.3529263e-06
3.5944493e-06
3.6608437e-06
3.6517774e-06
3.5729978e-06
3.4064862e-06
3.2446377e-06
3.1163038e-06
3.0657566e-06
3.0116823e-06
2.9557247e-06
2.9063866e-06
2.8761328e-06
2.8645812e-06
2.8711662e-06
2.8817784e-06
2.9031545e-06
2.9223428e-06
2.9280652e-06
2.9173756e-06
2.909599e-06
2.8878973e-06
2.8523805e-06
2.8294557e-06
2.8104621e-06
2.8009269e-06
2.7991019e-06
2.7981373e-06
2.7884102e-06
2.7740156e-06
2.7830874e-06
2.7973448e-06
2.8170284e-06
2.820272e-06
2.814939e-06
2.8296994e-06
2.8731939e-06
2.9155539e-06
2.9431018e-06
2.9513937e-06
2.9461722e-06
2.9485205e-06
2.9442825e-06
2.9365496e-06
2.9316693e-06
2.9317319e-06
2.950862e-06
2.972338e-06
2.9948124e-06
2.9531006e-06
4.09968e-06
2.9558209e-06
2.4002968e-06
2.3335877e-06
2.6652702e-06
3.5348209e-06
3.9395249e-06
4.0809251e-06
4.114061e-06
4.0877474e-06
3.909728e-06
3.7640504e-06
3.7459361e-06
3.7603271e-06
3.7836666e-06
3.8233113e-06
3.8916419e-06
4.0133949e-06
4.1523885e-06
4.416851e-06
4.6365987e-06
4.7272037e-06
5.0020607e-06
5.2076797e-06
5.3339433e-06
5.5049011e-06
5.6222055e-06
5.6787677e-06
5.7623035e-06
5.7643398e-06
5.7513579e-06
5.8006088e-06
5.8856929e-06
5.9387517e-06
5.9535634e-06
6.0038814e-06
6.0716763e-06
6.138392e-06
6.1590232e-06
6.1432257e-06
6.1553416e-06
6.2120926e-06
6.2801676e-06
6.3596342e-06
6.407807e-06
6.4182169e-06
6.4035242e-06
6.3737363e-06
6.3343683e-06
6.326454e-06
6.3429389e-06
6.3447261e-06
6.3519176e-06
6.3996194e-06
6.2493802e-06
5.5280916e-06
5.7587745e-06
4.8986478e-06
2.3053566e-06
1.0247694e-06
5.9791108e-07
7.0559615e-07
1.2262981e-06
2.1275558e-06
3.2716379e-06
4.7366734e-06
6.4934925e-06
8.5766741e-06
1.1110628e-05
1.3822606e-05
1.6435419e-05
1.8967098e-05
2.1161942e-05
2.2761332e-05
2.3567414e-05
2.2596853e-05
2.0827013e-05
1.9682411e-05
1.879806e-05
1.7865289e-05
1.6658701e-05
1.5199137e-05
1.364118e-05
1.266203e-05
1.2079251e-05
1.2079974e-05
1.2358405e-05
1.2354371e-05
1.2118584e-05
1.2304917e-05
1.3185469e-05
1.4340101e-05
1.4924075e-05
1.5267467e-05
1.514539e-05
1.5755381e-05
1.6969217e-05
1.8109886e-05
1.8884793e-05
1.9641605e-05
2.0276052e-05
2.031274e-05
2.0275417e-05
2.0971847e-05
2.2234135e-05
2.39645e-05
2.5642121e-05
2.7004905e-05
2.7962353e-05
2.8585329e-05
2.8995728e-05
6.7572242e-06
3.0403866e-06
2.4904324e-06
2.6334627e-06
3.4140273e-06
4.1072759e-06
4.1884685e-06
4.1136122e-06
3.9253679e-06
3.7405712e-06
3.656902e-06
3.7216787e-06
3.8373463e-06
3.995333e-06
4.1580248e-06
4.4784269e-06
4.6814117e-06
4.7340937e-06
4.794597e-06
4.9535494e-06
5.4584228e-06
6.1231071e-06
6.3346056e-06
6.1832988e-06
5.6498313e-06
5.2233889e-06
2.8694633e-05
7.0295284e-06
3.0818471e-06
2.483326e-06
2.589231e-06
3.2878959e-06
4.083728e-06
4.2390602e-06
4.2308576e-06
4.145684e-06
4.0500299e-06
3.9934775e-06
3.951261e-06
3.9546691e-06
4.0831485e-06
4.3850991e-06
4.6648432e-06
4.967571e-06
5.1796632e-06
5.2485575e-06
5.3227209e-06
5.7615129e-06
6.4476548e-06
6.8508929e-06
6.7140297e-06
6.4160281e-06
5.7262049e-06
2.996167e-05
7.2544134e-06
3.110016e-06
2.4829899e-06
2.5655895e-06
3.1963098e-06
4.1125923e-06
4.383489e-06
4.4623239e-06
4.4424434e-06
4.3529181e-06
4.2935065e-06
4.2021992e-06
4.0508782e-06
4.130293e-06
4.5171202e-06
4.9275481e-06
5.2474328e-06
5.571331e-06
5.6756344e-06
5.6772808e-06
6.0958938e-06
6.8608603e-06
7.27746e-06
7.225742e-06
7.1704591e-06
6.3752738e-06
3.3976279e-05
7.7818829e-06
3.2615845e-06
2.5120169e-06
2.5822829e-06
3.1605079e-06
4.1720279e-06
4.5692842e-06
4.7185018e-06
4.6921652e-06
4.6043452e-06
4.54551e-06
4.3945329e-06
4.188084e-06
4.2284541e-06
4.6155853e-06
5.2096024e-06
5.5236185e-06
5.8964868e-06
6.0334253e-06
5.9730016e-06
6.2958671e-06
7.156154e-06
7.8198254e-06
7.920665e-06
7.8330162e-06
7.068372e-06
4.0619674e-05
8.5382215e-06
3.5121853e-06
2.5830713e-06
2.636866e-06
3.1577967e-06
4.2323598e-06
4.7003926e-06
4.8562319e-06
4.8748818e-06
4.8077855e-06
4.7671901e-06
4.6275488e-06
4.3728329e-06
4.4228961e-06
4.8431376e-06
5.5565828e-06
5.8765496e-06
6.2179057e-06
6.3833286e-06
6.2344631e-06
6.4606499e-06
7.3890296e-06
8.5348018e-06
8.8063585e-06
8.4591587e-06
7.5774587e-06
4.7539557e-05
9.1830325e-06
3.6960208e-06
2.6831309e-06
2.6965706e-06
3.1554555e-06
4.2895671e-06
4.8612387e-06
5.0553311e-06
5.1155434e-06
5.123572e-06
5.0623249e-06
4.8339025e-06
4.5985013e-06
4.6903721e-06
5.1424026e-06
5.9060258e-06
6.1998932e-06
6.5715415e-06
6.9284999e-06
6.7156289e-06
6.8132128e-06
7.661459e-06
9.0524334e-06
9.4914104e-06
9.0274741e-06
8.12156e-06
5.1644716e-05
9.6637461e-06
3.779525e-06
2.753229e-06
2.7375787e-06
3.1541085e-06
4.3472797e-06
5.1045815e-06
5.3826393e-06
5.4889652e-06
5.5364475e-06
5.4930143e-06
5.2347478e-06
4.9874081e-06
5.0136619e-06
5.3979775e-06
6.1746562e-06
6.5899984e-06
7.0398327e-06
7.4320931e-06
7.1554842e-06
7.2515402e-06
8.0958915e-06
9.4928352e-06
9.9379994e-06
9.5636338e-06
8.9432079e-06
5.2439199e-05
1.0114168e-05
3.8544916e-06
2.7706259e-06
2.7357705e-06
3.0929439e-06
4.2792926e-06
5.320731e-06
5.7080264e-06
5.8522224e-06
5.9620179e-06
5.9814832e-06
5.7260674e-06
5.4278672e-06
5.3662798e-06
5.7151613e-06
6.4709413e-06
7.0338306e-06
7.5451024e-06
8.0351322e-06
7.8379138e-06
7.8924685e-06
8.7719903e-06
9.8930354e-06
1.0371305e-05
1.0066954e-05
9.6470099e-06
5.2308715e-05
1.0696565e-05
3.9545093e-06
2.7546391e-06
2.6943859e-06
2.9888815e-06
4.1087477e-06
5.4401541e-06
5.9956282e-06
6.2303929e-06
6.3863657e-06
6.4324579e-06
6.1581171e-06
5.7077899e-06
5.6331144e-06
5.9846694e-06
6.784602e-06
7.4811023e-06
8.1826854e-06
8.7874599e-06
8.7076029e-06
8.7251199e-06
9.4909865e-06
1.0469354e-05
1.1069491e-05
1.0736269e-05
1.0284849e-05
5.594202e-05
1.1418289e-05
4.0717388e-06
2.7721341e-06
2.6864745e-06
2.9502779e-06
4.0253142e-06
5.6280954e-06
6.3312648e-06
6.6297013e-06
6.7588087e-06
6.7675408e-06
6.4033936e-06
5.8603203e-06
5.802909e-06
6.1997883e-06
7.1231737e-06
7.837757e-06
8.8425013e-06
9.845625e-06
9.7257121e-06
9.5585673e-06
1.0257494e-05
1.1053538e-05
1.196704e-05
1.1919278e-05
1.1222722e-05
6.4862091e-05
1.2942665e-05
4.5065433e-06
2.8935391e-06
2.7555402e-06
3.0135456e-06
4.0598552e-06
5.8797065e-06
6.6873356e-06
6.9648703e-06
7.1590541e-06
7.2071196e-06
6.8353967e-06
6.0921958e-06
5.9599944e-06
6.3398045e-06
7.4239003e-06
8.4817402e-06
9.6574081e-06
1.0933427e-05
1.0655603e-05
1.0009681e-05
1.0810537e-05
1.1587331e-05
1.3067686e-05
1.3457184e-05
1.233308e-05
7.7979226e-05
1.4321117e-05
4.9177659e-06
3.0749766e-06
2.8679401e-06
3.1158717e-06
4.1085986e-06
6.0429275e-06
6.9273032e-06
7.302565e-06
7.6369518e-06
7.7180586e-06
7.357476e-06
6.5213201e-06
6.1685244e-06
6.6435417e-06
7.8338047e-06
9.117397e-06
1.0632851e-05
1.1727271e-05
1.1318403e-05
1.0364653e-05
1.0902703e-05
1.1891184e-05
1.4091311e-05
1.4973468e-05
1.3863609e-05
8.6539947e-05
1.5437695e-05
5.1702534e-06
3.2027375e-06
2.9665441e-06
3.2015343e-06
4.1828172e-06
6.2760281e-06
7.3274776e-06
7.7964124e-06
8.2409694e-06
8.3830361e-06
8.0831562e-06
7.1667494e-06
6.7192059e-06
7.2398672e-06
8.3270627e-06
9.7613095e-06
1.1469395e-05
1.2341112e-05
1.1925867e-05
1.067874e-05
1.1240506e-05
1.2344587e-05
1.4616423e-05
1.5662741e-05
1.4933915e-05
8.6592331e-05
1.5855264e-05
5.1833578e-06
3.2687564e-06
3.0367047e-06
3.2702862e-06
4.2255962e-06
6.5088855e-06
7.7902242e-06
8.3205491e-06
8.8878405e-06
9.1750278e-06
9.0066014e-06
8.0073957e-06
7.4664589e-06
7.9329212e-06
8.7853559e-06
1.0426658e-05
1.2100819e-05
1.30847e-05
1.2822035e-05
1.1420852e-05
1.1717168e-05
1.2935158e-05
1.5315132e-05
1.6456282e-05
1.5831971e-05
8.4548416e-05
1.715256e-05
5.4609858e-06
3.2994501e-06
3.0232439e-06
3.2195777e-06
4.0564128e-06
6.3670437e-06
8.1037366e-06
8.8480376e-06
9.5369145e-06
1.0140723e-05
1.0291395e-05
9.1632708e-06
8.2977747e-06
8.6940018e-06
9.5678368e-06
1.1325494e-05
1.2914572e-05
1.4137306e-05
1.4065221e-05
1.2569909e-05
1.2367561e-05
1.3487614e-05
1.5956813e-05
1.7372652e-05
1.7143112e-05
8.2494628e-05
1.9493799e-05
5.8626711e-06
3.3483148e-06
2.9799115e-06
3.1295068e-06
3.8539128e-06
6.0991514e-06
8.3265116e-06
9.501297e-06
1.0415e-05
1.1140409e-05
1.1386401e-05
1.0110833e-05
8.9242446e-06
9.3350476e-06
1.035707e-05
1.2329568e-05
1.3964759e-05
1.5616758e-05
1.5936308e-05
1.4154697e-05
1.3342192e-05
1.4389717e-05
1.6344348e-05
1.8590282e-05
1.881468e-05
8.7747381e-05
2.169005e-05
6.3558709e-06
3.4271564e-06
3.0016223e-06
3.139738e-06
3.852535e-06
6.1575533e-06
8.8549132e-06
1.037368e-05
1.1469715e-05
1.2161515e-05
1.2224408e-05
1.0839944e-05
9.3272779e-06
9.7263105e-06
1.0811889e-05
1.2926479e-05
1.4673723e-05
1.7133765e-05
1.7979699e-05
1.5977327e-05
1.4584714e-05
1.5770206e-05
1.7085232e-05
1.9608454e-05
2.0491332e-05
0.00010043054
2.3827844e-05
7.040941e-06
3.6411373e-06
3.1165174e-06
3.2710956e-06
4.0572145e-06
6.4694996e-06
9.5444356e-06
1.1110681e-05
1.2198653e-05
1.2814499e-05
1.2814904e-05
1.1530011e-05
9.9147602e-06
1.0139938e-05
1.1072731e-05
1.3125606e-05
1.4974717e-05
1.7882613e-05
1.9356101e-05
1.7867498e-05
1.6114627e-05
1.7595159e-05
1.872001e-05
2.1275205e-05
2.2971732e-05
0.00011375661
2.5423705e-05
7.5006019e-06
3.8330924e-06
3.2844578e-06
3.4482432e-06
4.3149395e-06
6.7786501e-06
1.0026937e-05
1.1526679e-05
1.2693782e-05
1.3313394e-05
1.3400362e-05
1.2073666e-05
1.047012e-05
1.059354e-05
1.1512985e-05
1.3369969e-05
1.5422155e-05
1.8316493e-05
2.0251728e-05
1.9548655e-05
1.7463878e-05
1.9077835e-05
2.0718614e-05
2.3643021e-05
2.6366467e-05
0.00011713108
2.6497548e-05
7.8432453e-06
4.0191725e-06
3.4531478e-06
3.6390433e-06
4.638679e-06
7.2742268e-06
1.0813616e-05
1.2411946e-05
1.3715421e-05
1.4519904e-05
1.4649494e-05
1.3151844e-05
1.1131587e-05
1.1121828e-05
1.1998207e-05
1.3754665e-05
1.625371e-05
1.9419835e-05
2.1124708e-05
2.085802e-05
1.8905052e-05
1.9979237e-05
2.1549158e-05
2.6090502e-05
2.9628065e-05
0.00011188873
2.8711271e-05
8.6314174e-06
4.2941918e-06
3.6181057e-06
3.8093997e-06
4.8691572e-06
7.6962034e-06
1.1952255e-05
1.3922754e-05
1.5371613e-05
1.6185441e-05
1.6233261e-05
1.4744797e-05
1.2229206e-05
1.1804529e-05
1.2606132e-05
1.4479762e-05
1.7087283e-05
2.0346975e-05
2.2689834e-05
2.2746287e-05
2.0690044e-05
2.1242982e-05
2.2609819e-05
2.7703465e-05
3.2285079e-05
9.9157979e-05
3.1112692e-05
9.5301666e-06
4.535285e-06
3.6833265e-06
3.8291247e-06
4.7870821e-06
7.5605784e-06
1.2600341e-05
1.5499556e-05
1.7348882e-05
1.831618e-05
1.8479049e-05
1.7008106e-05
1.3714419e-05
1.2894483e-05
1.3680543e-05
1.5894699e-05
1.8488541e-05
2.1524679e-05
2.4240277e-05
2.4999921e-05
2.2866394e-05
2.2831313e-05
2.4227395e-05
2.8636108e-05
3.3381419e-05
8.9417715e-05
3.2293418e-05
1.0133263e-05
4.6870791e-06
3.7036401e-06
3.7963777e-06
4.6426581e-06
7.2310726e-06
1.2591088e-05
1.5964768e-05
1.8069053e-05
1.9786263e-05
2.0364309e-05
1.9489275e-05
1.5886595e-05
1.470441e-05
1.5529185e-05