/*--------------------------------*- C++ -*----------------------------------*\
| =========                 |                                                 |
| \\      /  F ield         | OpenFOAM: The Open Source CFD Toolbox           |
|  \\    /   O peration     | Version:  2406                                  |
|   \\  /    A nd           | Website:  www.openfoam.com                      |
|    \\/     M anipulation  |                                                 |
\*---------------------------------------------------------------------------*/
FoamFile
{
    version     2.0;
    format      ascii;
    arch        "LSB;label=32;scalar=64";
    class       volScalarField;
    location    "5";
    object      nut;
}
// * * * * * * * * * * * * * * * * * * * * * * * * * * * * * * * * * * * * * //

dimensions      [0 2 -1 0 0 0 0];

internalField   nonuniform List<scalar> 
19701
(
5.3331975e-07
9.7769856e-07
9.6658962e-07
9.6627585e-07
9.6627162e-07
9.6627337e-07
9.6627326e-07
9.6627443e-07
9.662751e-07
9.6627569e-07
9.6627637e-07
9.6627675e-07
9.6627727e-07
9.662776e-07
9.6627796e-07
9.6627825e-07
9.6627849e-07
9.6627879e-07
9.6627894e-07
9.6627921e-07
9.6627933e-07
9.6627957e-07
9.6627974e-07
9.6627987e-07
9.6627993e-07
9.6628013e-07
9.662802e-07
9.662804e-07
9.6628043e-07
9.6628051e-07
9.6628067e-07
9.6628077e-07
9.6628078e-07
9.6628087e-07
9.6628102e-07
9.662811e-07
9.6628106e-07
9.6628117e-07
9.6628122e-07
9.6628127e-07
9.662813e-07
9.6628135e-07
9.6628139e-07
9.6628142e-07
9.6628145e-07
9.6628147e-07
9.6628143e-07
9.6628151e-07
9.6628154e-07
9.662815e-07
9.6628159e-07
9.6628161e-07
9.6628163e-07
9.6628157e-07
9.6628166e-07
9.6628167e-07
9.6628168e-07
9.6628168e-07
9.6628163e-07
9.662817e-07
9.6628163e-07
9.6628169e-07
9.6628169e-07
9.6628167e-07
9.6628167e-07
9.6628165e-07
9.6628157e-07
9.6628164e-07
9.6628165e-07
9.6628169e-07
9.6628169e-07
9.6628185e-07
9.6628197e-07
9.6628208e-07
9.6628214e-07
9.6628232e-07
9.6628244e-07
9.6628256e-07
9.6628262e-07
9.6628284e-07
9.6628295e-07
9.6628322e-07
9.6628345e-07
9.662837e-07
9.6628393e-07
9.6628407e-07
9.6628429e-07
9.662843e-07
9.6628399e-07
9.6628352e-07
9.6628276e-07
9.6628182e-07
9.6628069e-07
9.6627884e-07
9.662775e-07
9.6627608e-07
9.6627879e-07
9.6628643e-07
9.6627496e-07
1.4285645e-06
9.2887796e-07
9.4821159e-07
9.4905725e-07
9.4906676e-07
9.4906854e-07
9.490694e-07
9.4907097e-07
9.4907187e-07
9.4907294e-07
9.4907377e-07
9.4907473e-07
9.4907542e-07
9.4907627e-07
9.490769e-07
9.4907754e-07
9.4907821e-07
9.4907867e-07
9.4907933e-07
9.4907974e-07
9.4908033e-07
9.4908066e-07
9.4908105e-07
9.4908141e-07
9.4908182e-07
9.4908192e-07
9.4908223e-07
9.4908225e-07
9.4908255e-07
9.4908271e-07
9.4908277e-07
9.4908292e-07
9.490832e-07
9.4908339e-07
9.4908338e-07
9.4908349e-07
9.4908367e-07
9.4908358e-07
9.4908364e-07
9.490837e-07
9.490838e-07
9.4908382e-07
9.4908386e-07
9.4908391e-07
9.4908394e-07
9.4908398e-07
9.4908417e-07
9.4908408e-07
9.4908411e-07
9.4908427e-07
9.4908413e-07
9.4908415e-07
9.4908417e-07
9.4908435e-07
9.4908421e-07
9.4908421e-07
9.4908422e-07
9.4908426e-07
9.4908438e-07
9.4908419e-07
9.4908432e-07
9.4908415e-07
9.4908405e-07
9.49084e-07
9.4908385e-07
9.4908373e-07
9.4908377e-07
9.490835e-07
9.4908343e-07
9.4908341e-07
9.4908363e-07
9.490836e-07
9.4908379e-07
9.4908404e-07
9.4908439e-07
9.4908446e-07
9.4908471e-07
9.4908499e-07
9.490855e-07
9.4908577e-07
9.4908648e-07
9.49087e-07
9.4908777e-07
9.4908856e-07
9.4908942e-07
9.4909046e-07
9.4909114e-07
9.4909179e-07
9.4909205e-07
9.4909115e-07
9.4908929e-07
9.4908699e-07
9.490841e-07
9.4908079e-07
9.4907994e-07
9.4908288e-07
9.4908913e-07
9.4911629e-07
9.4919867e-07
2.8636577e-06
1.0968816e-06
9.3476327e-07
9.3492389e-07
9.3493837e-07
9.3494032e-07
9.3494191e-07
9.3494353e-07
9.349447e-07
9.3494619e-07
9.3494734e-07
9.3494854e-07
9.3494969e-07
9.3495078e-07
9.3495185e-07
9.3495286e-07
9.3495364e-07
9.3495441e-07
9.3495508e-07
9.3495576e-07
9.3495628e-07
9.3495675e-07
9.3495723e-07
9.349576e-07
9.3495792e-07
9.3495828e-07
9.3495858e-07
9.3495891e-07
9.3495916e-07
9.3495941e-07
9.3495975e-07
9.3495997e-07
9.3496016e-07
9.3496039e-07
9.349606e-07
9.3496081e-07
9.3496093e-07
9.3496112e-07
9.3496123e-07
9.3496133e-07
9.3496134e-07
9.3496149e-07
9.3496157e-07
9.3496164e-07
9.3496169e-07
9.3496175e-07
9.3496165e-07
9.3496178e-07
9.3496182e-07
9.3496177e-07
9.3496197e-07
9.3496201e-07
9.3496203e-07
9.3496189e-07
9.3496208e-07
9.3496209e-07
9.349621e-07
9.3496202e-07
9.3496191e-07
9.3496204e-07
9.3496182e-07
9.3496183e-07
9.3496179e-07
9.3496158e-07
9.3496147e-07
9.3496127e-07
9.349609e-07
9.349609e-07
9.3496078e-07
9.3496074e-07
9.3496064e-07
9.3496099e-07
9.3496126e-07
9.3496149e-07
9.3496169e-07
9.3496217e-07
9.349625e-07
9.3496288e-07
9.3496325e-07
9.3496408e-07
9.3496476e-07
9.349659e-07
9.3496708e-07
9.3496843e-07
9.3496978e-07
9.3497099e-07
9.3497253e-07
9.3497371e-07
9.349741e-07
9.3497373e-07
9.3497134e-07
9.3496769e-07
9.349638e-07
9.3496061e-07
9.3496253e-07
9.3496911e-07
9.3497653e-07
9.3499023e-07
9.3506586e-07
5.4390658e-06
1.3932779e-06
9.2738334e-07
9.2314418e-07
9.2311541e-07
9.2311677e-07
9.2311775e-07
9.2311899e-07
9.2312002e-07
9.2312107e-07
9.2312209e-07
9.2312304e-07
9.2312409e-07
9.2312496e-07
9.2312584e-07
9.2312675e-07
9.2312759e-07
9.231283e-07
9.2312889e-07
9.2312961e-07
9.2313013e-07
9.2313076e-07
9.2313122e-07
9.2313165e-07
9.2313204e-07
9.2313251e-07
9.2313288e-07
9.2313321e-07
9.2313351e-07
9.2313382e-07
9.2313412e-07
9.2313434e-07
9.2313454e-07
9.231347e-07
9.2313493e-07
9.2313511e-07
9.231352e-07
9.2313539e-07
9.2313552e-07
9.231356e-07
9.2313579e-07
9.2313579e-07
9.2313587e-07
9.2313595e-07
9.2313601e-07
9.2313607e-07
9.2313617e-07
9.2313627e-07
9.2313631e-07
9.2313634e-07
9.2313629e-07
9.2313632e-07
9.2313635e-07
9.2313646e-07
9.231364e-07
9.231364e-07
9.231364e-07
9.2313648e-07
9.2313644e-07
9.2313631e-07
9.2313629e-07
9.2313617e-07
9.2313591e-07
9.231358e-07
9.2313546e-07
9.2313519e-07
9.2313499e-07
9.2313467e-07
9.2313451e-07
9.2313448e-07
9.2313463e-07
9.2313477e-07
9.2313511e-07
9.2313558e-07
9.2313592e-07
9.2313618e-07
9.2313654e-07
9.23137e-07
9.2313765e-07
9.2313842e-07
9.2313957e-07
9.2314087e-07
9.2314233e-07
9.2314382e-07
9.2314549e-07
9.2314731e-07
9.2314897e-07
9.2315061e-07
9.2315167e-07
9.2315141e-07
9.2314896e-07
9.231448e-07
9.2313971e-07
9.2313618e-07
9.231393e-07
9.2314709e-07
9.2315308e-07
9.2316118e-07
9.2352083e-07
8.0018764e-06
1.9432678e-06
9.2339066e-07
9.127266e-07
9.1264424e-07
9.1264408e-07
9.1264414e-07
9.1264457e-07
9.1264483e-07
9.1264525e-07
9.1264566e-07
9.1264612e-07
9.1264659e-07
9.1264723e-07
9.1264763e-07
9.1264823e-07
9.1264871e-07
9.1264901e-07
9.1264952e-07
9.1264992e-07
9.1265043e-07
9.1265068e-07
9.1265111e-07
9.1265146e-07
9.1265188e-07
9.1265206e-07
9.1265241e-07
9.1265261e-07
9.1265289e-07
9.1265312e-07
9.1265329e-07
9.1265345e-07
9.1265368e-07
9.1265386e-07
9.1265388e-07
9.1265396e-07
9.1265417e-07
9.1265418e-07
9.1265424e-07
9.1265433e-07
9.1265435e-07
9.1265451e-07
9.1265456e-07
9.1265463e-07
9.1265467e-07
9.1265472e-07
9.126549e-07
9.1265473e-07
9.1265478e-07
9.1265495e-07
9.1265489e-07
9.1265491e-07
9.1265493e-07
9.1265502e-07
9.1265495e-07
9.1265493e-07
9.1265492e-07
9.1265481e-07
9.1265491e-07
9.126547e-07
9.1265469e-07
9.1265437e-07
9.1265421e-07
9.1265387e-07
9.1265361e-07
9.1265324e-07
9.1265301e-07
9.1265263e-07
9.1265244e-07
9.1265235e-07
9.1265258e-07
9.1265274e-07
9.1265313e-07
9.1265348e-07
9.1265402e-07
9.1265429e-07
9.1265465e-07
9.1265507e-07
9.1265591e-07
9.1265668e-07
9.1265795e-07
9.1265922e-07
9.1266083e-07
9.1266263e-07
9.1266447e-07
9.126665e-07
9.1266844e-07
9.1267029e-07
9.1267167e-07
9.1267164e-07
9.1266928e-07
9.1266481e-07
9.1265872e-07
9.1265435e-07
9.1265491e-07
9.1266072e-07
9.1266879e-07
9.1268698e-07
9.1277552e-07
9.7581003e-06
2.2993758e-06
9.1785636e-07
9.0377656e-07
9.036757e-07
9.0367388e-07
9.0367317e-07
9.0367234e-07
9.0367213e-07
9.0367153e-07
9.0367132e-07
9.0367132e-07
9.036712e-07
9.036713e-07
9.036714e-07
9.0367158e-07
9.0367145e-07
9.0367147e-07
9.0367163e-07
9.0367178e-07
9.0367195e-07
9.0367201e-07
9.0367215e-07
9.0367231e-07
9.0367238e-07
9.0367255e-07
9.0367265e-07
9.0367272e-07
9.0367285e-07
9.0367293e-07
9.0367295e-07
9.0367301e-07
9.0367316e-07
9.0367312e-07
9.0367318e-07
9.0367322e-07
9.0367325e-07
9.0367329e-07
9.0367333e-07
9.036733e-07
9.0367329e-07
9.0367335e-07
9.0367336e-07
9.0367339e-07
9.036734e-07
9.0367341e-07
9.0367326e-07
9.0367339e-07
9.0367338e-07
9.0367335e-07
9.0367344e-07
9.0367344e-07
9.0367344e-07
9.0367333e-07
9.0367341e-07
9.0367337e-07
9.0367333e-07
9.0367323e-07
9.0367309e-07
9.036731e-07
9.0367279e-07
9.0367262e-07
9.0367236e-07
9.0367199e-07
9.0367162e-07
9.0367123e-07
9.0367065e-07
9.0367042e-07
9.0367019e-07
9.0367017e-07
9.0367009e-07
9.036705e-07
9.0367094e-07
9.0367136e-07
9.0367169e-07
9.036721e-07
9.0367242e-07
9.036729e-07
9.0367333e-07
9.036744e-07
9.0367545e-07
9.0367698e-07
9.0367858e-07
9.0368035e-07
9.0368221e-07
9.0368413e-07
9.0368628e-07
9.0368823e-07
9.0368915e-07
9.0368904e-07
9.0368625e-07
9.0368129e-07
9.03675e-07
9.0366969e-07
9.0366765e-07
9.0367143e-07
9.0368093e-07
9.037019e-07
9.0412638e-07
1.0705559e-05
2.4251983e-06
9.108953e-07
8.9721673e-07
8.9713043e-07
8.9712858e-07
8.9712764e-07
8.9712648e-07
8.9712611e-07
8.9712515e-07
8.9712495e-07
8.9712427e-07
8.9712412e-07
8.9712389e-07
8.9712341e-07
8.9712354e-07
8.971233e-07
8.9712333e-07
8.9712305e-07
8.9712317e-07
8.9712298e-07
8.9712299e-07
8.9712292e-07
8.9712292e-07
8.9712283e-07
8.9712273e-07
8.9712281e-07
8.9712271e-07
8.9712268e-07
8.9712261e-07
8.9712259e-07
8.9712254e-07
8.9712246e-07
8.9712243e-07
8.9712242e-07
8.9712235e-07
8.9712234e-07
8.9712225e-07
8.9712219e-07
8.9712223e-07
8.9712229e-07
8.9712213e-07
8.971221e-07
8.9712208e-07
8.9712203e-07
8.97122e-07
8.971219e-07
8.9712206e-07
8.9712207e-07
8.971218e-07
8.9712186e-07
8.9712182e-07
8.9712179e-07
8.9712166e-07
8.9712171e-07
8.9712165e-07
8.9712158e-07
8.9712158e-07
8.9712126e-07
8.9712113e-07
8.9712087e-07
8.9712077e-07
8.9712032e-07
8.9711999e-07
8.971194e-07
8.9711885e-07
8.9711834e-07
8.9711797e-07
8.9711768e-07
8.9711751e-07
8.9711759e-07
8.9711794e-07
8.9711838e-07
8.9711897e-07
8.9711916e-07
8.9711954e-07
8.9711981e-07
8.9712012e-07
8.9712066e-07
8.9712158e-07
8.971227e-07
8.9712422e-07
8.9712578e-07
8.9712738e-07
8.9712924e-07
8.9713111e-07
8.9713319e-07
8.9713477e-07
8.971353e-07
8.9713431e-07
8.9713082e-07
8.9712556e-07
8.9711954e-07
8.9711439e-07
8.9711046e-07
8.9710909e-07
8.9711397e-07
8.9713887e-07
8.9745428e-07
1.1136199e-05
2.3357585e-06
9.0458216e-07
8.9333815e-07
8.9327594e-07
8.9327493e-07
8.9327424e-07
8.9327374e-07
8.9327335e-07
8.9327267e-07
8.9327254e-07
8.9327192e-07
8.9327187e-07
8.9327152e-07
8.9327102e-07
8.9327104e-07
8.9327075e-07
8.9327093e-07
8.9327042e-07
8.9327058e-07
8.9327027e-07
8.9327023e-07
8.9327019e-07
8.9327003e-07
8.9326987e-07
8.9326979e-07
8.9326959e-07
8.9326951e-07
8.9326931e-07
8.9326925e-07
8.9326923e-07
8.9326912e-07
8.9326895e-07
8.9326886e-07
8.9326884e-07
8.9326869e-07
8.9326863e-07
8.9326853e-07
8.9326847e-07
8.9326841e-07
8.9326831e-07
8.9326823e-07
8.9326817e-07
8.9326812e-07
8.9326801e-07
8.9326796e-07
8.9326805e-07
8.9326782e-07
8.9326772e-07
8.9326779e-07
8.9326766e-07
8.9326761e-07
8.9326756e-07
8.9326756e-07
8.9326744e-07
8.9326733e-07
8.9326723e-07
8.932671e-07
8.9326703e-07
8.9326672e-07
8.9326655e-07
8.9326614e-07
8.9326571e-07
8.9326521e-07
8.9326465e-07
8.9326404e-07
8.932635e-07
8.9326299e-07
8.9326267e-07
8.9326253e-07
8.9326267e-07
8.9326296e-07
8.932635e-07
8.9326399e-07
8.9326445e-07
8.9326462e-07
8.932648e-07
8.9326505e-07
8.9326574e-07
8.9326637e-07
8.9326747e-07
8.9326876e-07
8.9327024e-07
8.932719e-07
8.9327365e-07
8.9327577e-07
8.9327754e-07
8.9327883e-07
8.9327883e-07
8.9327688e-07
8.9327261e-07
8.9326673e-07
8.9326071e-07
8.9325672e-07
8.9325504e-07
8.9325694e-07
8.9326261e-07
8.9328479e-07
8.9354924e-07
1.1307208e-05
2.1811305e-06
9.0059583e-07
8.91471e-07
8.9142616e-07
8.9142582e-07
8.914255e-07
8.914255e-07
8.9142536e-07
8.9142501e-07
8.9142488e-07
8.9142469e-07
8.9142466e-07
8.9142441e-07
8.9142432e-07
8.9142436e-07
8.9142392e-07
8.9142406e-07
8.9142373e-07
8.9142369e-07
8.9142361e-07
8.9142337e-07
8.9142324e-07
8.9142324e-07
8.9142295e-07
8.9142292e-07
8.9142277e-07
8.9142271e-07
8.9142246e-07
8.9142238e-07
8.9142227e-07
8.9142212e-07
8.9142191e-07
8.9142186e-07
8.9142171e-07
8.9142174e-07
8.9142142e-07
8.9142139e-07
8.9142146e-07
8.9142121e-07
8.9142095e-07
8.9142105e-07
8.914209e-07
8.9142082e-07
8.9142071e-07
8.9142066e-07
8.9142063e-07
8.9142041e-07
8.9142035e-07
8.914205e-07
8.9142029e-07
8.9142019e-07
8.9142013e-07
8.9142021e-07
8.9141997e-07
8.9141988e-07
8.9141976e-07
8.9141951e-07
8.9141957e-07
8.9141926e-07
8.9141902e-07
8.9141839e-07
8.9141802e-07
8.9141737e-07
8.9141679e-07
8.914162e-07
8.9141566e-07
8.9141497e-07
8.9141461e-07
8.9141455e-07
8.9141472e-07
8.9141492e-07
8.9141544e-07
8.9141589e-07
8.9141651e-07
8.9141661e-07
8.9141675e-07
8.9141705e-07
8.9141744e-07
8.9141811e-07
8.9141931e-07
8.9142039e-07
8.9142192e-07
8.9142372e-07
8.9142571e-07
8.9142778e-07
8.9142932e-07
8.9143033e-07
8.9142984e-07
8.9142731e-07
8.9142255e-07
8.9141688e-07
8.9141143e-07
8.914088e-07
8.9140908e-07
8.9141341e-07
8.914169e-07
8.9142446e-07
8.9134996e-07
1.1367413e-05
2.0918004e-06
8.9860911e-07
8.9071286e-07
8.9067757e-07
8.9067755e-07
8.9067742e-07
8.906777e-07
8.9067744e-07
8.9067743e-07
8.9067739e-07
8.9067724e-07
8.9067742e-07
8.9067721e-07
8.9067724e-07
8.9067752e-07
8.9067692e-07
8.906771e-07
8.9067686e-07
8.906768e-07
8.9067679e-07
8.9067659e-07
8.9067646e-07
8.9067632e-07
8.9067624e-07
8.9067609e-07
8.906761e-07
8.906759e-07
8.9067583e-07
8.9067566e-07
8.9067549e-07
8.9067537e-07
8.9067539e-07
8.9067515e-07
8.9067501e-07
8.9067489e-07
8.906748e-07
8.9067471e-07
8.9067451e-07
8.9067444e-07
8.906744e-07
8.906743e-07
8.906742e-07
8.906741e-07
8.9067399e-07
8.9067392e-07
8.9067376e-07
8.9067368e-07
8.9067363e-07
8.9067353e-07
8.906735e-07
8.9067342e-07
8.9067335e-07
8.9067318e-07
8.9067314e-07
8.9067301e-07
8.9067287e-07
8.9067267e-07
8.9067247e-07
8.9067216e-07
8.9067185e-07
8.9067143e-07
8.9067092e-07
8.9067024e-07
8.9066958e-07
8.9066877e-07
8.9066811e-07
8.9066752e-07
8.9066713e-07
8.9066691e-07
8.906671e-07
8.906675e-07
8.9066814e-07
8.906687e-07
8.9066914e-07
8.9066938e-07
8.906695e-07
8.9066957e-07
8.9067e-07
8.9067078e-07
8.9067188e-07
8.9067323e-07
8.9067486e-07
8.906767e-07
8.9067873e-07
8.906806e-07
8.9068233e-07
8.9068309e-07
8.9068218e-07
8.9067935e-07
8.9067475e-07
8.9066919e-07
8.9066498e-07
8.9066443e-07
8.9066658e-07
8.9067163e-07
8.906722e-07
8.9067743e-07
8.9094918e-07
1.1385966e-05
2.0469625e-06
8.9773665e-07
8.9044458e-07
8.90414e-07
8.9041401e-07
8.904139e-07
8.9041433e-07
8.90414e-07
8.9041411e-07
8.9041418e-07
8.904141e-07
8.9041399e-07
8.9041414e-07
8.9041401e-07
8.9041416e-07
8.9041357e-07
8.9041396e-07
8.9041359e-07
8.904136e-07
8.9041356e-07
8.9041345e-07
8.9041333e-07
8.9041331e-07
8.9041333e-07
8.9041297e-07
8.9041301e-07
8.9041278e-07
8.904128e-07
8.9041295e-07
8.9041265e-07
8.9041252e-07
8.9041255e-07
8.9041252e-07
8.9041225e-07
8.9041212e-07
8.9041221e-07
8.9041194e-07
8.9041178e-07
8.9041172e-07
8.9041173e-07
8.9041148e-07
8.9041136e-07
8.9041132e-07
8.904112e-07
8.9041115e-07
8.9041101e-07
8.9041104e-07
8.9041091e-07
8.9041067e-07
8.9041067e-07
8.9041058e-07
8.9041052e-07
8.9041036e-07
8.9041038e-07
8.9041021e-07
8.9041008e-07
8.9040999e-07
8.9040955e-07
8.904093e-07
8.9040887e-07
8.9040859e-07
8.9040791e-07
8.9040732e-07
8.9040644e-07
8.904056e-07
8.904047e-07
8.9040422e-07
8.9040381e-07
8.9040363e-07
8.9040367e-07
8.9040431e-07
8.90405e-07
8.9040577e-07
8.9040603e-07
8.9040644e-07
8.9040652e-07
8.9040658e-07
8.9040692e-07
8.9040763e-07
8.904084e-07
8.9041013e-07
8.9041191e-07
8.9041378e-07
8.9041566e-07
8.9041775e-07
8.9041936e-07
8.9041997e-07
8.9041902e-07
8.9041657e-07
8.9041216e-07
8.9040708e-07
8.9040438e-07
8.9040499e-07
8.9040541e-07
8.9040351e-07
8.9040001e-07
8.9041066e-07
8.9090365e-07
1.1390658e-05
2.0264624e-06
8.9737631e-07
8.9036008e-07
8.9033141e-07
8.903313e-07
8.9033138e-07
8.9033171e-07
8.9033133e-07
8.9033149e-07
8.9033168e-07
8.9033171e-07
8.9033123e-07
8.9033143e-07
8.9033143e-07
8.9033142e-07
8.9033106e-07
8.9033135e-07
8.9033107e-07
8.9033114e-07
8.90331e-07
8.9033101e-07
8.9033086e-07
8.9033075e-07
8.9033107e-07
8.9033076e-07
8.9033082e-07
8.903306e-07
8.9033062e-07
8.9033031e-07
8.9033012e-07
8.9032996e-07
8.9032999e-07
8.9032995e-07
8.9032957e-07
8.9032957e-07
8.9032962e-07
8.9032931e-07
8.9032927e-07
8.9032911e-07
8.9032903e-07
8.9032899e-07
8.9032887e-07
8.9032871e-07
8.9032869e-07
8.9032852e-07
8.903284e-07
8.903285e-07
8.9032851e-07
8.9032821e-07
8.9032822e-07
8.9032812e-07
8.9032805e-07
8.9032776e-07
8.9032773e-07
8.9032771e-07
8.9032757e-07
8.9032748e-07
8.9032704e-07
8.9032691e-07
8.9032633e-07
8.9032601e-07
8.903253e-07
8.9032465e-07
8.9032368e-07
8.9032288e-07
8.903219e-07
8.9032132e-07
8.903209e-07
8.9032083e-07
8.9032087e-07
8.9032151e-07
8.9032228e-07
8.9032315e-07
8.9032348e-07
8.9032373e-07
8.9032377e-07
8.9032392e-07
8.9032406e-07
8.9032479e-07
8.9032598e-07
8.9032766e-07
8.903295e-07
8.9033146e-07
8.9033369e-07
8.9033563e-07
8.9033742e-07
8.9033813e-07
8.9033714e-07
8.9033469e-07
8.9033034e-07
8.9032576e-07
8.9032392e-07
8.9032531e-07
8.9032573e-07
8.9032221e-07
8.9031466e-07
8.9030839e-07
8.9066039e-07
1.1391756e-05
2.0173276e-06
8.9722571e-07
8.9033577e-07
8.9030782e-07
8.9030776e-07
8.9030798e-07
8.9030817e-07
8.9030782e-07
8.9030793e-07
8.9030793e-07
8.9030814e-07
8.9030777e-07
8.903078e-07
8.9030781e-07
8.9030784e-07
8.9030792e-07
8.9030781e-07
8.903079e-07
8.903077e-07
8.9030784e-07
8.9030738e-07
8.9030748e-07
8.9030733e-07
8.9030741e-07
8.9030724e-07
8.9030736e-07
8.9030712e-07
8.9030718e-07
8.9030706e-07
8.9030684e-07
8.9030682e-07
8.9030693e-07
8.9030688e-07
8.9030665e-07
8.9030653e-07
8.9030658e-07
8.903063e-07
8.9030633e-07
8.9030616e-07
8.9030612e-07
8.9030585e-07
8.903058e-07
8.9030585e-07
8.9030569e-07
8.9030569e-07
8.9030553e-07
8.9030552e-07
8.9030537e-07
8.9030515e-07
8.9030515e-07
8.9030507e-07
8.90305e-07
8.9030498e-07
8.9030493e-07
8.9030463e-07
8.9030448e-07
8.903043e-07
8.9030395e-07
8.9030367e-07
8.9030317e-07
8.9030271e-07
8.9030201e-07
8.9030124e-07
8.9030032e-07
8.9029943e-07
8.9029849e-07
8.902978e-07
8.9029736e-07
8.902973e-07
8.9029746e-07
8.9029809e-07
8.9029895e-07
8.9029981e-07
8.903003e-07
8.9030076e-07
8.9030078e-07
8.9030074e-07
8.9030082e-07
8.9030147e-07
8.9030253e-07
8.9030435e-07
8.9030636e-07
8.9030844e-07
8.9031096e-07
8.9031273e-07
8.9031412e-07
8.9031505e-07
8.9031424e-07
8.9031241e-07
8.9030866e-07
8.9030457e-07
8.903021e-07
8.9030301e-07
8.9030488e-07
8.9030531e-07
8.9029985e-07
8.9028803e-07
8.9068692e-07
1.1391995e-05
2.0130501e-06
8.9715736e-07
8.9032954e-07
8.9030196e-07
8.9030219e-07
8.9030232e-07
8.9030241e-07
8.9030231e-07
8.9030209e-07
8.9030196e-07
8.9030227e-07
8.9030227e-07
8.903022e-07
8.9030211e-07
8.9030216e-07
8.9030203e-07
8.9030223e-07
8.90302e-07
8.9030218e-07
8.9030197e-07
8.9030192e-07
8.90302e-07
8.9030198e-07
8.9030188e-07
8.9030182e-07
8.9030193e-07
8.9030166e-07
8.9030169e-07
8.9030193e-07
8.9030147e-07
8.9030142e-07
8.9030153e-07
8.9030127e-07
8.9030118e-07
8.9030128e-07
8.9030107e-07
8.9030108e-07
8.903008e-07
8.9030075e-07
8.9030074e-07
8.903006e-07
8.9030059e-07
8.9030047e-07
8.9030042e-07
8.9030029e-07
8.9030011e-07
8.9030009e-07
8.9030006e-07
8.9029997e-07
8.9029994e-07
8.9029988e-07
8.9029981e-07
8.9029957e-07
8.9029954e-07
8.9029943e-07
8.9029929e-07
8.9029901e-07
8.9029876e-07
8.9029851e-07
8.9029796e-07
8.9029737e-07
8.9029668e-07
8.9029576e-07
8.9029485e-07
8.9029381e-07
8.9029287e-07
8.9029216e-07
8.902917e-07
8.9029152e-07
8.9029179e-07
8.9029251e-07
8.9029352e-07
8.9029438e-07
8.9029503e-07
8.9029532e-07
8.9029532e-07
8.902952e-07
8.9029528e-07
8.9029602e-07
8.9029709e-07
8.9029865e-07
8.9030082e-07
8.9030314e-07
8.903052e-07
8.9030696e-07
8.9030878e-07
8.9030972e-07
8.9030938e-07
8.9030802e-07
8.9030514e-07
8.9030113e-07
8.9029825e-07
8.9029775e-07
8.9029841e-07
8.9029926e-07
8.9029699e-07
8.9029254e-07
8.9078679e-07
1.1391662e-05
2.0108279e-06
8.9712213e-07
8.9032834e-07
8.9030118e-07
8.9030144e-07
8.9030161e-07
8.9030157e-07
8.9030172e-07
8.9030141e-07
8.903012e-07
8.9030144e-07
8.9030152e-07
8.9030159e-07
8.9030131e-07
8.9030153e-07
8.903014e-07
8.903016e-07
8.9030134e-07
8.9030159e-07
8.9030142e-07
8.9030124e-07
8.9030131e-07
8.9030158e-07
8.9030111e-07
8.9030113e-07
8.9030129e-07
8.9030108e-07
8.9030122e-07
8.9030138e-07
8.9030122e-07
8.9030106e-07
8.9030105e-07
8.9030076e-07
8.9030075e-07
8.9030051e-07
8.9030056e-07
8.9030045e-07
8.9030045e-07
8.903004e-07
8.9030032e-07
8.9030039e-07
8.903003e-07
8.9030013e-07
8.903001e-07
8.903001e-07
8.9029987e-07
8.9029983e-07
8.9029974e-07
8.9029973e-07
8.9029968e-07
8.9029965e-07
8.9029954e-07
8.9029925e-07
8.9029922e-07
8.9029918e-07
8.9029905e-07
8.9029869e-07
8.9029846e-07
8.902979e-07
8.9029763e-07
8.9029695e-07
8.902963e-07
8.9029531e-07
8.902944e-07
8.9029326e-07
8.902923e-07
8.9029154e-07
8.9029104e-07
8.9029084e-07
8.9029127e-07
8.9029212e-07
8.9029315e-07
8.9029404e-07
8.9029471e-07
8.9029481e-07
8.9029472e-07
8.9029453e-07
8.9029448e-07
8.9029506e-07
8.9029575e-07
8.9029736e-07
8.9029954e-07
8.9030203e-07
8.9030433e-07
8.903066e-07
8.903083e-07
8.9030915e-07
8.9030936e-07
8.9030823e-07
8.9030567e-07
8.9030218e-07
8.9029962e-07
8.9029833e-07
8.9029656e-07
8.9029482e-07
8.9029428e-07
8.9030317e-07
8.9103206e-07
1.1391377e-05
2.0095097e-06
8.9710129e-07
8.9032889e-07
8.9030197e-07
8.9030217e-07
8.9030197e-07
8.903023e-07
8.9030211e-07
8.9030226e-07
8.9030202e-07
8.9030221e-07
8.9030224e-07
8.9030191e-07
8.9030209e-07
8.9030237e-07
8.903021e-07
8.9030204e-07
8.9030201e-07
8.9030201e-07
8.9030195e-07
8.9030209e-07
8.9030209e-07
8.9030186e-07
8.9030196e-07
8.9030189e-07
8.903018e-07
8.9030149e-07
8.9030149e-07
8.9030108e-07
8.9030173e-07
8.9030171e-07
8.9030107e-07
8.9030154e-07
8.9030158e-07
8.9030115e-07
8.9030134e-07
8.9030113e-07
8.9030107e-07
8.9030104e-07
8.9030094e-07
8.903011e-07
8.9030114e-07
8.9030101e-07
8.9030089e-07
8.9030066e-07
8.903004e-07
8.9030038e-07
8.9030058e-07
8.9030057e-07
8.9030054e-07
8.9030047e-07
8.9030036e-07
8.9030011e-07
8.9030002e-07
8.9030007e-07
8.9029989e-07
8.9029951e-07
8.902993e-07
8.9029871e-07
8.9029842e-07
8.9029771e-07
8.9029705e-07
8.9029601e-07
8.9029504e-07
8.9029381e-07
8.9029277e-07
8.9029201e-07
8.9029145e-07
8.9029107e-07
8.9029134e-07
8.9029198e-07
8.9029303e-07
8.9029397e-07
8.902948e-07
8.9029517e-07
8.902951e-07
8.9029421e-07
8.902942e-07
8.9029474e-07
8.9029583e-07
8.9029774e-07
8.9029982e-07
8.9030228e-07
8.9030442e-07
8.9030718e-07
8.9030879e-07
8.9030957e-07
8.9030995e-07
8.9030881e-07
8.9030695e-07
8.9030413e-07
8.9030198e-07
8.9030025e-07
8.9029713e-07
8.902926e-07
8.9029137e-07
8.9029835e-07
8.9086242e-07
1.1391088e-05
2.0086253e-06
8.9708765e-07
8.9032938e-07
8.9030271e-07
8.9030289e-07
8.9030279e-07
8.9030297e-07
8.9030291e-07
8.9030301e-07
8.9030269e-07
8.9030279e-07
8.9030298e-07
8.903027e-07
8.9030283e-07
8.9030295e-07
8.9030294e-07
8.9030293e-07
8.9030285e-07
8.9030282e-07
8.9030284e-07
8.9030268e-07
8.9030271e-07
8.9030269e-07
8.9030256e-07
8.9030268e-07
8.903022e-07
8.9030232e-07
8.9030239e-07
8.9030166e-07
8.9030243e-07
8.9030195e-07
8.9030193e-07
8.9030228e-07
8.9030191e-07
8.9030143e-07
8.9030165e-07
8.9030188e-07
8.903013e-07
8.9030147e-07
8.9030111e-07
8.9030129e-07
8.9030145e-07
8.9030132e-07
8.9030164e-07
8.9030147e-07
8.9030124e-07
8.9030122e-07
8.9030133e-07
8.9030109e-07
8.9030127e-07
8.9030115e-07
8.903011e-07
8.9030084e-07
8.9030077e-07
8.9030038e-07
8.9030062e-07
8.9030023e-07
8.9030003e-07
8.9029943e-07
8.9029907e-07
8.9029832e-07
8.9029725e-07
8.902962e-07
8.9029518e-07
8.9029381e-07
8.9029282e-07
8.9029202e-07
8.9029156e-07
8.9029078e-07
8.9029122e-07
8.9029239e-07
8.9029331e-07
8.9029435e-07
8.9029507e-07
8.9029549e-07
8.9029527e-07
8.9029496e-07
8.9029441e-07
8.9029492e-07
8.9029584e-07
8.9029768e-07
8.9029972e-07
8.9030235e-07
8.9030464e-07
8.9030782e-07
8.9030946e-07
8.9031014e-07
8.9031027e-07
8.9030903e-07
8.903073e-07
8.9030512e-07
8.9030416e-07
8.9030329e-07
8.9030021e-07
8.9029654e-07
8.9029797e-07
8.903109e-07
8.9097142e-07
1.1390797e-05
2.00797e-06
8.970778e-07
8.9032951e-07
8.903028e-07
8.9030298e-07
8.9030285e-07
8.9030308e-07
8.9030297e-07
8.9030311e-07
8.9030282e-07
8.9030307e-07
8.9030307e-07
8.9030273e-07
8.9030293e-07
8.9030311e-07
8.9030298e-07
8.9030297e-07
8.9030288e-07
8.9030284e-07
8.9030288e-07
8.9030273e-07
8.903027e-07
8.9030268e-07
8.903025e-07
8.9030266e-07
8.9030252e-07
8.9030231e-07
8.9030242e-07
8.9030163e-07
8.9030242e-07
8.903024e-07
8.9030199e-07
8.903023e-07
8.9030222e-07
8.9030178e-07
8.9030198e-07
8.9030192e-07
8.9030178e-07
8.9030178e-07
8.9030156e-07
8.9030172e-07
8.9030173e-07
8.9030168e-07
8.9030166e-07
8.9030152e-07
8.9030127e-07
8.9030126e-07
8.9030131e-07
8.9030099e-07
8.9030123e-07
8.9030115e-07
8.9030112e-07
8.9030085e-07
8.9030076e-07
8.9030064e-07
8.9030061e-07
8.9030022e-07
8.9030002e-07
8.902994e-07
8.9029907e-07
8.902983e-07
8.9029743e-07
8.9029603e-07
8.902949e-07
8.9029408e-07
8.9029238e-07
8.9029167e-07
8.9029086e-07
8.9029095e-07
8.9029067e-07
8.9029247e-07
8.9029341e-07
8.9029461e-07
8.9029505e-07
8.9029506e-07
8.9029498e-07
8.9029498e-07
8.9029417e-07
8.9029459e-07
8.9029551e-07
8.9029739e-07
8.9029944e-07
8.9030234e-07
8.903049e-07
8.9030828e-07
8.9030985e-07
8.9031042e-07
8.9030999e-07
8.9030865e-07
8.9030665e-07
8.9030516e-07
8.9030561e-07
8.9030679e-07
8.9030663e-07
8.9030827e-07
8.903088e-07
8.9032487e-07
8.9079308e-07
1.1390513e-05
2.0074691e-06
8.9707035e-07
8.9032947e-07
8.9030274e-07
8.9030291e-07
8.9030271e-07
8.9030302e-07
8.9030283e-07
8.9030301e-07
8.9030274e-07
8.9030291e-07
8.9030301e-07
8.9030258e-07
8.9030287e-07
8.9030305e-07
8.9030292e-07
8.9030289e-07
8.9030283e-07
8.9030276e-07
8.9030282e-07
8.9030275e-07
8.9030278e-07
8.9030261e-07
8.9030261e-07
8.9030257e-07
8.9030237e-07
8.9030225e-07
8.9030238e-07
8.9030162e-07
8.9030237e-07
8.9030227e-07
8.9030195e-07
8.9030224e-07
8.9030209e-07
8.9030165e-07
8.9030185e-07
8.9030158e-07
8.9030166e-07
8.9030161e-07
8.9030141e-07
8.9030155e-07
8.9030155e-07
8.9030151e-07
8.9030133e-07
8.9030151e-07
8.9030128e-07
8.9030117e-07
8.9030113e-07
8.9030102e-07
8.903008e-07
8.9030078e-07
8.9030077e-07
8.9030076e-07
8.9030064e-07
8.9030041e-07
8.903002e-07
8.9030008e-07
8.9029959e-07
8.902992e-07
8.9029863e-07
8.902979e-07
8.902972e-07
8.9029614e-07
8.90295e-07
8.9029387e-07
8.9029251e-07
8.902911e-07
8.9029094e-07
8.9029079e-07
8.9029092e-07
8.9029204e-07
8.9029317e-07
8.9029456e-07
8.9029527e-07
8.9029526e-07
8.9029508e-07
8.9029505e-07
8.9029411e-07
8.9029434e-07
8.9029504e-07
8.9029662e-07
8.9029894e-07
8.9030215e-07
8.9030497e-07
8.9030845e-07
8.9031014e-07
8.9031078e-07
8.9030983e-07
8.9030825e-07
8.903055e-07
8.903043e-07
8.903057e-07
8.9030911e-07
8.9031165e-07
8.9032025e-07
8.9031915e-07
8.9032622e-07
8.9085282e-07
1.1390212e-05
2.0070783e-06
8.9706461e-07
8.9032941e-07
8.9030269e-07
8.9030279e-07
8.9030263e-07
8.9030297e-07
8.9030272e-07
8.9030289e-07
8.9030279e-07
8.9030295e-07
8.9030293e-07
8.9030252e-07
8.9030279e-07
8.9030299e-07
8.9030283e-07
8.9030277e-07
8.9030271e-07
8.9030265e-07
8.9030268e-07
8.9030263e-07
8.9030263e-07
8.9030245e-07
8.9030245e-07
8.9030239e-07
8.9030234e-07
8.9030204e-07
8.9030218e-07
8.9030141e-07
8.9030214e-07
8.9030217e-07
8.9030171e-07
8.90302e-07
8.9030181e-07
8.9030156e-07
8.9030177e-07
8.9030162e-07
8.9030153e-07
8.903015e-07
8.903013e-07
8.9030143e-07
8.9030141e-07
8.9030134e-07
8.9030107e-07
8.9030125e-07
8.9030103e-07
8.9030092e-07
8.9030085e-07
8.9030074e-07
8.9030086e-07
8.9030069e-07
8.9030057e-07
8.9030049e-07
8.9030038e-07
8.9030022e-07
8.9030027e-07
8.902998e-07
8.9029958e-07
8.9029913e-07
8.9029862e-07
8.9029801e-07
8.9029711e-07
8.9029592e-07
8.9029474e-07
8.9029373e-07
8.9029229e-07
8.9029114e-07
8.9029072e-07
8.9029022e-07
8.9029086e-07
8.902912e-07
8.9029256e-07
8.9029409e-07
8.9029524e-07
8.9029527e-07
8.9029486e-07
8.9029493e-07
8.9029391e-07
8.9029404e-07
8.9029444e-07
8.9029583e-07
8.9029805e-07
8.9030181e-07
8.9030504e-07
8.9030874e-07
8.903105e-07
8.9031119e-07
8.9030988e-07
8.9030782e-07
8.9030461e-07
8.9030371e-07
8.903058e-07
8.903106e-07
8.9031307e-07
8.9032531e-07
8.9032591e-07
8.9034086e-07
8.9089447e-07
1.1389923e-05
2.0067457e-06
8.9705981e-07
8.9032934e-07
8.903026e-07
8.9030276e-07
8.9030253e-07
8.903029e-07
8.9030258e-07
8.9030273e-07
8.9030272e-07
8.9030288e-07
8.9030291e-07
8.9030244e-07
8.9030274e-07
8.9030292e-07
8.9030277e-07
8.9030277e-07
8.9030269e-07
8.9030257e-07
8.9030267e-07
8.9030255e-07
8.9030258e-07
8.9030235e-07
8.9030237e-07
8.9030228e-07
8.903022e-07
8.9030194e-07
8.9030194e-07
8.903013e-07
8.9030203e-07
8.9030202e-07
8.9030179e-07
8.9030203e-07
8.9030191e-07
8.9030135e-07
8.9030157e-07
8.9030146e-07
8.9030136e-07
8.9030133e-07
8.9030113e-07
8.9030126e-07
8.9030125e-07
8.9030118e-07
8.9030118e-07
8.9030121e-07
8.9030101e-07
8.9030094e-07
8.9030088e-07
8.9030077e-07
8.9030066e-07
8.9030058e-07
8.9030052e-07
8.9030048e-07
8.9030041e-07
8.9030012e-07
8.9030007e-07
8.9029965e-07
8.9029938e-07
8.9029895e-07
8.9029842e-07
8.9029782e-07
8.9029688e-07
8.9029583e-07
8.9029451e-07
8.9029343e-07
8.9029185e-07
8.9029087e-07
8.9029017e-07
8.9028967e-07
8.9029023e-07
8.9029139e-07
8.9029283e-07
8.9029438e-07
8.902952e-07
8.9029533e-07
8.9029503e-07
8.9029484e-07
8.9029405e-07
8.9029389e-07
8.9029317e-07
8.9029528e-07
8.9029721e-07
8.9030124e-07
8.9030479e-07
8.9030881e-07
8.9031059e-07
8.9031152e-07
8.9031002e-07
8.9030776e-07
8.9030436e-07
8.9030394e-07
8.9030661e-07
8.9031305e-07
8.9031347e-07
8.9032005e-07
8.9031994e-07
8.9033378e-07
8.9096175e-07
1.138965e-05
2.006465e-06
8.9705594e-07
8.903293e-07
8.9030259e-07
8.9030271e-07
8.903024e-07
8.9030287e-07
8.9030236e-07
8.9030245e-07
8.9030275e-07
8.9030291e-07
8.9030289e-07
8.9030237e-07
8.9030273e-07
8.9030283e-07