/*--------------------------------*- C++ -*----------------------------------*\
| =========                 |                                                 |
| \\      /  F ield         | OpenFOAM: The Open Source CFD Toolbox           |
|  \\    /   O peration     | Version:  2406                                  |
|   \\  /    A nd           | Website:  www.openfoam.com                      |
|    \\/     M anipulation  |                                                 |
\*---------------------------------------------------------------------------*/
FoamFile
{
    version     2.0;
    format      ascii;
    arch        "LSB;label=32;scalar=64";
    class       volScalarField;
    location    "5";
    object      omega;
}
// * * * * * * * * * * * * * * * * * * * * * * * * * * * * * * * * * * * * * //

dimensions      [0 0 -1 0 0 0 0];

internalField   nonuniform List<scalar> 
19701
(
1.4958988
4.1920755
4.1956423
4.1959326
4.1959251
4.1961387
4.1961827
4.1962989
4.1963748
4.196441
4.1965048
4.1965575
4.1966072
4.1966522
4.1966929
4.1967299
4.1967637
4.1967953
4.1968251
4.1968533
4.1968796
4.1969041
4.1969266
4.1969468
4.1969644
4.1969794
4.1969929
4.1970064
4.1970203
4.1970332
4.1970453
4.1970565
4.197067
4.1970769
4.1970856
4.1970938
4.1971007
4.1971068
4.1971124
4.1971176
4.1971224
4.1971268
4.1971309
4.1971346
4.1971382
4.1971415
4.1971445
4.1971474
4.1971501
4.1971526
4.197155
4.1971572
4.1971592
4.1971612
4.197163
4.1971648
4.1971664
4.197168
4.1971695
4.197171
4.1971726
4.1971741
4.1971759
4.1971778
4.19718
4.1971827
4.197186
4.19719
4.197195
4.1972009
4.1972077
4.1972155
4.1972239
4.1972326
4.1972414
4.1972502
4.1972589
4.1972674
4.197276
4.1972844
4.1972927
4.1973004
4.1973071
4.197312
4.1973144
4.1973137
4.1973088
4.1972987
4.197282
4.1972587
4.1972309
4.1972015
4.1971836
4.1971597
4.1971869
4.1971958
4.1973317
4.1973736
4.1972063
1.7470206
3.3758454
3.3985314
3.3987484
3.3988808
3.3990609
3.3991756
3.3993262
3.3994453
3.3995577
3.3996635
3.3997566
3.3998434
3.3999214
3.3999929
3.4000591
3.4001204
3.4001776
3.4002304
3.400278
3.4003214
3.4003603
3.4003956
3.400427
3.4004554
3.4004803
3.4005036
3.4005253
3.4005466
3.4005661
3.4005852
3.4006022
3.4006186
3.4006343
3.4006474
3.4006602
3.4006705
3.4006797
3.4006884
3.4006964
3.4007038
3.4007107
3.4007172
3.4007231
3.4007286
3.4007338
3.4007386
3.4007431
3.4007473
3.4007513
3.400755
3.4007584
3.4007617
3.4007647
3.4007676
3.4007702
3.4007728
3.4007752
3.4007774
3.4007796
3.4007817
3.4007838
3.4007859
3.4007882
3.4007907
3.4007936
3.400797
3.4008013
3.4008066
3.4008131
3.400821
3.4008303
3.4008409
3.4008526
3.4008652
3.4008787
3.400893
3.4009081
3.4009242
3.4009412
3.400959
3.4009774
3.4009957
3.4010134
3.4010296
3.4010434
3.4010538
3.4010594
3.4010578
3.4010477
3.401029
3.4010051
3.4009898
3.4009644
3.4010026
3.4010064
3.4011571
3.4010863
3.4031495
2.0862558
2.8193199
2.8527996
2.8532102
2.8533319
2.8534653
2.853557
2.8536878
2.8537709
2.8538825
2.8539715
2.8540619
2.8541451
2.8542243
2.8542974
2.8543668
2.8544291
2.8544845
2.8545369
2.8545834
2.8546261
2.8546641
2.8546994
2.854731
2.8547609
2.854788
2.8548143
2.854838
2.854861
2.8548811
2.8549012
2.8549185
2.8549353
2.8549512
2.8549642
2.8549771
2.8549877
2.8549973
2.8550063
2.8550145
2.8550222
2.8550294
2.855036
2.8550423
2.8550481
2.8550535
2.8550585
2.8550632
2.8550676
2.8550717
2.8550755
2.8550791
2.8550825
2.8550856
2.8550885
2.8550912
2.8550938
2.8550962
2.8550984
2.8551005
2.8551025
2.8551044
2.8551063
2.8551082
2.8551103
2.8551126
2.8551153
2.8551187
2.8551231
2.8551284
2.855135
2.855143
2.8551523
2.8551627
2.8551743
2.855187
2.855201
2.8552164
2.8552333
2.855252
2.8552725
2.8552945
2.8553177
2.8553417
2.8553661
2.8553902
2.8554135
2.8554352
2.855453
2.8554663
2.8554736
2.8554797
2.8554948
2.8555125
2.8555925
2.8556562
2.8558258
2.8558107
2.8575859
2.582235
2.4158346
2.4388098
2.4394555
2.4394869
2.4395991
2.4396125
2.4397084
2.4397372
2.4398106
2.4398579
2.439915
2.4399676
2.4400212
2.4400715
2.4401201
2.440163
2.4402005
2.4402384
2.4402738
2.4403076
2.4403388
2.4403683
2.4403951
2.4404208
2.4404444
2.4404669
2.4404872
2.4405067
2.4405242
2.440541
2.4405558
2.4405698
2.4405828
2.4405939
2.4406045
2.4406138
2.4406225
2.4406304
2.4406378
2.4406447
2.4406512
2.440657
2.4406627
2.440668
2.4406729
2.4406774
2.4406817
2.4406857
2.4406893
2.4406928
2.440696
2.440699
2.4407018
2.4407044
2.4407068
2.4407091
2.4407111
2.4407131
2.4407148
2.4407165
2.440718
2.4407195
2.4407209
2.4407225
2.4407242
2.4407263
2.440729
2.4407324
2.4407368
2.4407422
2.4407488
2.4407565
2.4407652
2.4407749
2.4407856
2.4407975
2.4408108
2.4408258
2.4408428
2.4408618
2.4408827
2.4409055
2.44093
2.4409558
2.440983
2.4410112
2.4410402
2.4410684
2.4410963
2.4411216
2.4411502
2.4411885
2.4412423
2.4413487
2.441472
2.4416725
2.4418516
2.4485757
2.9888544
2.1215508
2.1162731
2.1166079
2.1165898
2.1166394
2.1166134
2.1166534
2.1166493
2.1166748
2.1166863
2.1167061
2.1167256
2.1167479
2.1167693
2.1167915
2.1168112
2.1168294
2.11685
2.1168702
2.1168905
2.1169097
2.1169283
2.1169457
2.1169625
2.1169782
2.1169933
2.117007
2.1170201
2.1170322
2.1170437
2.1170541
2.117064
2.117073
2.1170811
2.1170887
2.1170956
2.1171021
2.1171081
2.1171136
2.1171188
2.1171237
2.1171283
2.1171327
2.1171368
2.1171406
2.1171441
2.1171474
2.1171505
2.1171534
2.117156
2.1171585
2.1171609
2.117163
2.117165
2.1171669
2.1171686
2.1171701
2.1171716
2.1171729
2.117174
2.1171751
2.1171761
2.1171771
2.1171781
2.1171792
2.1171807
2.1171826
2.1171852
2.1171885
2.1171927
2.1171979
2.117204
2.1172108
2.1172184
2.1172266
2.1172358
2.1172462
2.117258
2.1172715
2.1172869
2.117304
2.1173229
2.1173435
2.1173656
2.1173895
2.117415
2.1174425
2.1174703
2.1174995
2.1175277
2.1175609
2.1176026
2.1176633
2.1177587
2.117896
2.1180958
2.1183943
2.1203486
3.2332545
1.9209306
1.8851253
1.8850983
1.8850715
1.88506
1.8850332
1.8850279
1.8850152
1.8850103
1.8850052
1.8850039
1.8850045
1.8850077
1.885011
1.8850166
1.8850217
1.8850271
1.8850348
1.8850429
1.8850513
1.8850596
1.8850681
1.8850763
1.8850846
1.8850925
1.8851003
1.8851075
1.8851144
1.885121
1.8851274
1.8851332
1.8851389
1.8851441
1.885149
1.8851535
1.8851577
1.8851617
1.8851653
1.8851688
1.8851721
1.8851751
1.8851781
1.8851809
1.8851834
1.8851858
1.8851881
1.8851902
1.8851922
1.8851941
1.8851958
1.8851974
1.8851989
1.8852003
1.8852016
1.8852028
1.8852039
1.8852048
1.8852057
1.8852065
1.8852072
1.8852077
1.8852082
1.8852086
1.8852091
1.8852096
1.8852103
1.8852114
1.8852131
1.8852153
1.8852182
1.8852219
1.8852262
1.885231
1.8852363
1.885242
1.8852482
1.8852552
1.8852634
1.8852728
1.8852836
1.8852958
1.8853092
1.8853239
1.88534
1.8853575
1.8853764
1.8853969
1.8854173
1.8854387
1.8854591
1.8854837
1.8855136
1.8855592
1.8856244
1.8857333
1.8858815
1.886126
1.8915882
3.355634
1.799094
1.7417077
1.7414765
1.7414601
1.7414314
1.7414148
1.7413964
1.7413854
1.7413731
1.7413651
1.7413581
1.7413534
1.7413503
1.7413476
1.7413471
1.7413464
1.7413466
1.7413478
1.7413497
1.7413517
1.741354
1.7413567
1.7413595
1.7413625
1.7413655
1.7413685
1.7413714
1.7413743
1.7413771
1.7413798
1.7413825
1.7413851
1.7413874
1.7413898
1.7413919
1.7413941
1.7413959
1.7413978
1.7413996
1.7414012
1.7414027
1.7414043
1.7414057
1.741407
1.7414083
1.7414095
1.7414106
1.7414116
1.7414126
1.7414135
1.7414144
1.7414152
1.7414159
1.7414166
1.7414172
1.7414177
1.7414182
1.7414186
1.7414189
1.7414191
1.7414192
1.7414192
1.7414192
1.7414191
1.741419
1.7414191
1.7414195
1.7414202
1.7414215
1.7414232
1.7414255
1.7414284
1.7414315
1.7414347
1.7414381
1.7414418
1.741446
1.741451
1.7414568
1.7414636
1.7414713
1.7414799
1.7414893
1.7414995
1.7415108
1.7415229
1.7415356
1.7415474
1.7415589
1.7415687
1.7415807
1.741596
1.7416218
1.741656
1.7417176
1.7417965
1.7419795
1.7453397
3.4091057
1.7343094
1.66558
1.6652861
1.6652787
1.665259
1.6652511
1.6652382
1.6652317
1.665223
1.6652176
1.6652122
1.6652083
1.6652052
1.6652024
1.6652009
1.6651991
1.6651983
1.6651975
1.6651974
1.6651974
1.6651975
1.665198
1.6651985
1.6651992
1.6652
1.6652009
1.6652016
1.6652025
1.6652034
1.6652043
1.6652052
1.6652061
1.665207
1.6652078
1.6652086
1.6652095
1.6652101
1.6652109
1.6652116
1.6652122
1.6652129
1.6652135
1.6652141
1.6652146
1.6652151
1.6652156
1.6652161
1.6652165
1.6652169
1.6652173
1.6652177
1.665218
1.6652183
1.6652186
1.6652188
1.6652189
1.6652191
1.6652191
1.6652191
1.665219
1.6652188
1.6652185
1.6652181
1.6652176
1.6652171
1.6652167
1.6652166
1.6652167
1.6652173
1.6652183
1.6652198
1.6652216
1.6652236
1.6652255
1.6652274
1.6652293
1.6652315
1.6652343
1.6652376
1.6652417
1.6652464
1.6652516
1.6652574
1.6652638
1.6652707
1.6652778
1.6652847
1.66529
1.6652938
1.6652951
1.6652966
1.6653005
1.6653116
1.6653286
1.6653626
1.6653998
1.6655023
1.668297
3.4297392
1.7041625
1.6306846
1.6303853
1.6303815
1.6303725
1.6303692
1.6303638
1.6303607
1.6303567
1.6303542
1.6303514
1.6303496
1.6303478
1.6303462
1.6303454
1.630344
1.6303436
1.6303427
1.6303424
1.6303421
1.6303418
1.6303417
1.6303417
1.6303416
1.6303417
1.6303418
1.6303419
1.630342
1.6303423
1.6303424
1.6303426
1.6303428
1.630343
1.6303431
1.6303434
1.6303436
1.6303438
1.630344
1.6303441
1.6303443
1.6303445
1.6303447
1.6303448
1.630345
1.6303451
1.6303453
1.6303454
1.6303455
1.6303456
1.6303457
1.6303458
1.6303459
1.630346
1.630346
1.630346
1.630346
1.6303459
1.6303458
1.6303456
1.6303453
1.6303449
1.6303443
1.6303437
1.630343
1.6303422
1.6303415
1.6303411
1.6303409
1.6303411
1.6303417
1.6303427
1.630344
1.6303453
1.6303465
1.6303476
1.6303485
1.6303496
1.6303512
1.6303532
1.6303558
1.630359
1.6303625
1.6303663
1.6303706
1.6303751
1.6303794
1.6303828
1.6303842
1.6303834
1.6303801
1.6303761
1.6303741
1.6303775
1.6303859
1.6304047
1.6304197
1.6304566
1.6296423
3.4367193
1.6917579
1.6166588
1.6163655
1.6163627
1.6163594
1.616358
1.6163564
1.6163552
1.6163538
1.616353
1.6163518
1.6163513
1.6163505
1.6163498
1.6163497
1.6163487
1.6163489
1.6163482
1.6163481
1.6163479
1.6163477
1.6163475
1.6163475
1.6163474
1.6163472
1.6163472
1.6163471
1.6163471
1.6163471
1.616347
1.616347
1.616347
1.616347
1.6163469
1.616347
1.6163469
1.6163469
1.6163469
1.6163469
1.6163469
1.6163469
1.6163469
1.6163469
1.6163469
1.6163469
1.6163469
1.6163468
1.6163468
1.6163468
1.6163468
1.6163468
1.6163467
1.6163467
1.6163466
1.6163465
1.6163464
1.6163463
1.616346
1.6163457
1.6163453
1.6163448
1.6163441
1.6163433
1.6163424
1.6163414
1.6163406
1.6163399
1.6163396
1.6163396
1.61634
1.6163409
1.616342
1.6163432
1.6163441
1.6163448
1.6163453
1.6163459
1.6163468
1.6163483
1.6163502
1.6163527
1.6163556
1.6163587
1.6163621
1.6163655
1.6163685
1.6163702
1.6163697
1.6163667
1.6163612
1.616355
1.6163513
1.6163533
1.6163595
1.616371
1.6163749
1.6163904
1.6189661
3.4387045
1.6871727
1.6116408
1.6113524
1.6113498
1.6113486
1.6113479
1.6113478
1.6113472
1.6113468
1.6113467
1.6113463
1.6113461
1.6113459
1.6113457
1.6113458
1.611345
1.6113456
1.611345
1.6113451
1.611345
1.6113449
1.6113448
1.6113447
1.6113447
1.6113446
1.6113445
1.6113445
1.6113444
1.6113444
1.6113443
1.6113442
1.6113442
1.6113441
1.611344
1.611344
1.6113439
1.6113439
1.6113438
1.6113437
1.6113437
1.6113436
1.6113435
1.6113435
1.6113434
1.6113434
1.6113433
1.6113432
1.6113432
1.6113431
1.611343
1.611343
1.6113429
1.6113428
1.6113427
1.6113426
1.6113424
1.6113422
1.6113419
1.6113416
1.6113411
1.6113405
1.6113397
1.6113388
1.6113378
1.6113367
1.6113357
1.611335
1.6113346
1.6113345
1.6113349
1.6113358
1.611337
1.6113381
1.611339
1.6113395
1.6113398
1.6113401
1.6113408
1.611342
1.6113438
1.6113461
1.6113487
1.6113517
1.6113548
1.6113578
1.6113602
1.6113612
1.61136
1.6113564
1.6113504
1.611344
1.6113409
1.611343
1.6113449
1.6113441
1.6113404
1.6113573
1.6169228
3.4390899
1.6856171
1.6100219
1.6097365
1.6097337
1.6097332
1.6097329
1.609733
1.6097326
1.6097325
1.6097327
1.6097327
1.6097323
1.6097324
1.6097324
1.6097325
1.609732
1.6097325
1.6097321
1.6097323
1.6097321
1.6097322
1.6097321
1.609732
1.609732
1.609732
1.6097319
1.6097319
1.6097318
1.6097317
1.6097317
1.6097316
1.6097316
1.6097315
1.6097314
1.6097314
1.6097313
1.6097312
1.6097311
1.6097311
1.609731
1.6097309
1.6097308
1.6097308
1.6097307
1.6097306
1.6097306
1.6097305
1.6097304
1.6097303
1.6097303
1.6097302
1.6097301
1.60973
1.6097299
1.6097297
1.6097296
1.6097293
1.609729
1.6097286
1.6097281
1.6097274
1.6097266
1.6097256
1.6097245
1.6097233
1.6097223
1.6097214
1.609721
1.609721
1.6097214
1.6097223
1.6097236
1.6097248
1.6097257
1.6097262
1.6097264
1.6097266
1.6097272
1.6097283
1.60973
1.6097323
1.609735
1.609738
1.6097411
1.6097439
1.6097461
1.609747
1.6097457
1.6097422
1.6097364
1.6097303
1.6097277
1.6097301
1.6097314
1.609727
1.6097158
1.6097068
1.6127852
3.4390941
1.6851165
1.6095454
1.6092618
1.6092589
1.6092586
1.6092585
1.6092587
1.6092583
1.6092582
1.6092585
1.6092585
1.6092582
1.6092583
1.6092584
1.6092585
1.6092582
1.6092585
1.6092582
1.6092585
1.6092583
1.6092583
1.6092583
1.6092583
1.6092582
1.6092582
1.6092582
1.6092581
1.6092581
1.609258
1.609258
1.609258
1.6092579
1.6092578
1.6092578
1.6092577
1.6092576
1.6092576
1.6092575
1.6092574
1.6092573
1.6092573
1.6092572
1.6092572
1.6092571
1.609257
1.6092569
1.6092569
1.6092568
1.6092567
1.6092566
1.6092566
1.6092565
1.6092564
1.6092563
1.6092561
1.6092559
1.6092557
1.6092553
1.6092549
1.6092543
1.6092536
1.6092527
1.6092516
1.6092504
1.6092492
1.6092481
1.6092472
1.6092467
1.6092467
1.6092472
1.6092483
1.6092496
1.609251
1.6092519
1.6092524
1.6092526
1.6092526
1.6092531
1.6092541
1.6092558
1.6092582
1.6092611
1.6092642
1.6092673
1.6092701
1.6092722
1.6092731
1.6092721
1.6092693
1.6092641
1.6092582
1.6092551
1.6092564
1.6092592
1.60926
1.6092526
1.6092345
1.6129677
3.4390277
1.6849517
1.6094162
1.6091338
1.6091309
1.6091306
1.6091305
1.6091307
1.6091304
1.6091303
1.6091305
1.6091306
1.6091304
1.6091305
1.6091305
1.6091306
1.6091304
1.6091306
1.6091304
1.6091306
1.6091305
1.6091304
1.6091305
1.6091305
1.6091304
1.6091304
1.6091305
1.6091304
1.6091303
1.6091303
1.6091303
1.6091302
1.6091302
1.6091301
1.6091301
1.60913
1.6091299
1.6091299
1.6091298
1.6091297
1.6091297
1.6091296
1.6091296
1.6091295
1.6091294
1.6091294
1.6091293
1.6091293
1.6091292
1.6091291
1.609129
1.609129
1.6091289
1.6091288
1.6091287
1.6091285
1.6091283
1.609128
1.6091277
1.6091272
1.6091266
1.6091258
1.6091249
1.6091237
1.6091225
1.6091212
1.6091199
1.609119
1.6091185
1.6091185
1.6091191
1.6091202
1.6091217
1.6091232
1.6091242
1.6091247
1.6091248
1.6091248
1.6091251
1.609126
1.6091277
1.6091303
1.6091333
1.6091365
1.6091397
1.6091425
1.6091446
1.6091458
1.6091453
1.609143
1.6091386
1.609133
1.6091293
1.6091287
1.6091302
1.6091307
1.609128
1.6091254
1.6138774
3.4389128
1.6848889
1.6093836
1.609102
1.6090991
1.6090988
1.6090987
1.6090989
1.6090987
1.6090986
1.6090988
1.6090988
1.6090987
1.6090987
1.6090987
1.6090989
1.6090987
1.6090988
1.6090986
1.6090988
1.6090987
1.6090987
1.6090987
1.6090988
1.6090987
1.6090987
1.6090987
1.6090986
1.6090986
1.6090986
1.6090985
1.6090985
1.6090985
1.6090984
1.6090983
1.6090983
1.6090983
1.6090982
1.6090982
1.6090981
1.6090981
1.609098
1.6090979
1.6090979
1.6090978
1.6090978
1.6090977
1.6090976
1.6090976
1.6090975
1.6090974
1.6090974
1.6090973
1.6090972
1.609097
1.6090969
1.6090967
1.6090964
1.609096
1.6090956
1.6090949
1.6090941
1.6090931
1.6090919
1.6090906
1.6090892
1.6090879
1.6090869
1.6090864
1.6090864
1.609087
1.6090882
1.6090899
1.6090915
1.6090925
1.6090931
1.6090931
1.6090929
1.6090931
1.6090939
1.6090956
1.6090981
1.6091014
1.6091048
1.6091081
1.6091111
1.6091132
1.6091145
1.6091144
1.6091126
1.6091088
1.6091039
1.6091005
1.6090984
1.6090964
1.6090943
1.609095
1.609109
1.6162594
3.4388193
1.684858
1.6093759
1.6090948
1.6090919
1.6090916
1.6090915
1.6090916
1.6090915
1.6090914
1.6090915
1.6090916
1.6090915
1.6090915
1.6090915
1.6090916
1.6090914
1.6090916
1.6090914
1.6090916
1.6090915
1.6090915
1.6090915
1.6090915
1.6090915
1.6090915
1.6090915
1.6090914
1.6090914
1.6090914
1.6090913
1.6090913
1.6090913
1.6090912
1.6090912
1.6090912
1.6090911
1.609091
1.609091
1.609091
1.6090909
1.6090909
1.6090908
1.6090908
1.6090907
1.6090907
1.6090906
1.6090905
1.6090905
1.6090904
1.6090904
1.6090903
1.6090902
1.6090901
1.60909
1.6090898
1.6090896
1.6090893
1.6090889
1.6090885
1.6090878
1.609087
1.6090859
1.6090847
1.6090832
1.6090818
1.6090804
1.6090793
1.6090788
1.6090788
1.6090794
1.6090807
1.6090825
1.6090842
1.6090854
1.6090859
1.6090859
1.6090856
1.6090856
1.6090863
1.6090879
1.6090905
1.6090939
1.6090975
1.6091011
1.6091042
1.6091064
1.6091078
1.6091078
1.6091064
1.6091035
1.6090995
1.6090967
1.6090947
1.6090908
1.6090843
1.6090837
1.6090929
1.6144718
3.4387381
1.6848379
1.6093742
1.6090936
1.6090907
1.6090904
1.6090903
1.6090904
1.6090902
1.6090902
1.6090903
1.6090903
1.6090902
1.6090902
1.6090903
1.6090903
1.6090902
1.6090903
1.6090902
1.6090903
1.6090902
1.6090902
1.6090902
1.6090902
1.6090902
1.6090902
1.6090902
1.6090901
1.6090901
1.6090901
1.60909
1.60909
1.60909
1.6090899
1.6090899
1.6090898
1.6090898
1.6090897
1.6090897
1.6090897
1.6090896
1.6090896
1.6090895
1.6090895
1.6090894
1.6090894
1.6090893
1.6090893
1.6090893
1.6090892
1.6090891
1.609089
1.6090889
1.6090888
1.6090887
1.6090886
1.6090884
1.609088
1.6090877
1.6090872
1.6090865
1.6090856
1.6090845
1.6090832
1.6090817
1.6090801
1.6090787
1.6090776
1.609077
1.6090769
1.6090776
1.609079
1.6090809
1.6090827
1.609084
1.6090846
1.6090845
1.6090842
1.609084
1.6090845
1.609086
1.6090886
1.6090921
1.6090961
1.6091
1.6091034
1.6091058
1.609107
1.6091066
1.6091051
1.6091024
1.6090995
1.609098
1.6090965
1.6090928
1.6090876
1.6090908
1.6091101
1.6155029
3.4386639
1.6848221
1.6093739
1.6090935
1.6090906
1.6090903
1.6090902
1.6090903
1.6090901
1.6090901
1.6090902
1.6090902
1.6090901
1.6090901
1.6090901
1.6090902
1.60909
1.6090902
1.60909
1.6090901
1.6090901
1.60909
1.60909
1.60909
1.60909
1.60909
1.60909
1.6090899
1.6090899
1.6090899
1.6090899
1.6090898
1.6090898
1.6090898
1.6090898
1.6090897
1.6090897
1.6090897
1.6090896
1.6090896
1.6090895
1.6090895
1.6090894
1.6090894
1.6090893
1.6090893
1.6090892
1.6090892
1.6090892
1.6090891
1.609089
1.6090889
1.6090889
1.6090888
1.6090887
1.6090885
1.6090883
1.609088
1.6090876
1.6090871
1.6090864
1.6090855
1.6090843
1.609083
1.6090814
1.6090798
1.6090783
1.6090771
1.6090765
1.6090764
1.6090771
1.6090786
1.6090806
1.6090826
1.609084
1.6090846
1.6090845
1.609084
1.6090836
1.6090839
1.6090852
1.6090878
1.6090915
1.6090957
1.6091
1.6091038
1.6091063
1.6091071
1.6091063
1.6091043
1.6091013
1.6090993
1.6091
1.6091015
1.6091018
1.6091038
1.6091055
1.6091289
1.6135095
3.4385956
1.6848089
1.6093737
1.6090935
1.6090906
1.6090903
1.6090902
1.6090903
1.6090902
1.6090901
1.6090902
1.6090902
1.6090902
1.6090901
1.6090902
1.6090902
1.6090901
1.6090902
1.6090901
1.6090902
1.6090901
1.6090901
1.6090901
1.6090901
1.6090901
1.6090901
1.6090901
1.6090901
1.60909
1.6090901
1.60909
1.60909
1.60909
1.60909
1.6090899
1.6090899
1.6090899
1.6090898
1.6090898
1.6090898
1.6090897
1.6090897
1.6090896
1.6090896
1.6090896
1.6090895
1.6090895
1.6090894
1.6090894
1.6090893
1.6090892
1.6090892
1.6090891
1.609089
1.6090889
1.6090887
1.6090885
1.6090882
1.6090879
1.6090873
1.6090866
1.6090857
1.6090845
1.6090831
1.6090815
1.6090798
1.6090783
1.609077
1.6090763
1.6090762
1.6090769
1.6090785
1.6090806
1.6090827
1.6090841
1.6090848
1.6090848
1.6090841
1.6090835
1.6090836
1.6090847
1.6090871
1.609091
1.6090956
1.6091003
1.6091046
1.6091073
1.6091079
1.6091064
1.6091037
1.6091002
1.6090986
1.6091009
1.6091055
1.60911
1.6091218
1.6091213
1.6091308
1.6142196
3.4385326
1.6847978
1.6093739
1.6090939
1.609091
1.6090907
1.6090906
1.6090907
1.6090906
1.6090905
1.6090906
1.6090906
1.6090906
1.6090905
1.6090906
1.6090906
1.6090905
1.6090906
1.6090905
1.6090906
1.6090906
1.6090905
1.6090906
1.6090906
1.6090905
1.6090905
1.6090905
1.6090905
1.6090905
1.6090905
1.6090905
1.6090904
1.6090904
1.6090904
1.6090904
1.6090904
1.6090903
1.6090903
1.6090903
1.6090902
1.6090902
1.6090901
1.6090901
1.6090901
1.60909
1.60909
1.6090899
1.6090899
1.6090898
1.6090898
1.6090898
1.6090897
1.6090896
1.6090895
1.6090894
1.6090892
1.609089
1.6090887
1.6090883
1.6090878
1.6090871
1.6090861
1.609085
1.6090835
1.6090818
1.6090801
1.6090784
1.6090771
1.6090763
1.6090762
1.6090769
1.6090784
1.6090807
1.6090829
1.6090845
1.6090852
1.6090852
1.6090845
1.6090837
1.6090835
1.6090843
1.6090866
1.6090904
1.6090954
1.6091005
1.6091053
1.6091082
1.6091088
1.6091068
1.6091035
1.6090994
1.6090982
1.6091015
1.609108
1.6091121
1.6091291
1.6091311
1.6091508
1.6145765
3.4384738
1.6847876
1.609374
1.6090942
1.6090913
1.609091
1.6090909
1.609091
1.6090908
1.6090908
1.6090909
1.6090909
1.6090909
1.6090908
1.6090909
1.6090909
1.6090908
1.6090909
1.6090908
1.6090909
1.6090908
1.6090908
1.6090908
1.6090908
1.6090908
1.6090908
1.6090908
1.6090908
1.6090908
1.6090908
1.6090907
1.6090907
1.6090907
1.6090907
1.6090906
1.6090906
1.6090906
1.6090906
1.6090906
1.6090905
1.6090905
1.6090905
1.6090904
1.6090904
1.6090903
1.6090903
1.6090903
1.6090902
1.6090902
1.6090902
1.6090901
1.6090901
1.60909
1.6090899
1.6090898
1.6090896
1.6090894
1.6090891
1.6090887
1.6090882
1.6090874
1.6090865
1.6090853
1.6090838
1.6090821
1.6090803
1.6090786
1.6090772
1.6090763
1.6090761
1.6090767
1.6090783
1.6090806
1.609083
1.6090847
1.6090856
1.6090856
1.6090849
1.6090838
1.6090833
1.6090838
1.6090859
1.6090897
1.6090948
1.6091003
1.6091055
1.6091087
1.6091094
1.6091072
1.6091036
1.6090991
1.6090986
1.6091028
1.6091118
1.6091128
1.6091218
1.6091228
1.6091411
1.6151938
3.4384194
1.6847783
1.6093741
1.6090944
1.6090915
1.6090912
1.6090911
1.6090912
1.6090911
1.609091
1.6090911
1.6090911
1.6090911
1.609091
1.6090911
1.6090911
1.609091
1.6090911
1.609091
1.6090911
1.6090911
1.6090911
1.6090911
1.6090911
1.6090911
1.6090911
1.6090911
1.6090911
1.609091
1.609091
1.609091
1.609091
1.609091
1.609091
1.6090909
1.6090909
1.6090909
1.6090908
1.6090908
1.6090908
1.6090908
1.6090907
1.6090907
1.6090907
1.6090906
1.6090906
1.6090906
1.6090905
1.6090905
1.6090905
1.6090904
1.6090904
1.6090903
1.6090902
1.6090901
1.6090899
1.6090897
1.6090894
1.609089
1.6090885
1.6090878
1.6090868
1.6090856
1.6090841
1.6090824
1.6090805
1.6090787
1.6090772
1.6090763
1.609076
1.6090766
1.6090782
1.6090806
1.609083
1.6090848
1.6090859
1.6090859
1.6090852
1.609084
1.6090832
1.6090834
1.6090852
1.6090888
1.609094
1.6090997
1.6091051
1.6091087
1.6091098
1.609108
1.6091045
1.6091
1.6090995
1.6091032
1.6091149
1.6091175
1.6091249
1.6091231
1.6091351
1.6133869
3.438368
1.6847701
1.6093744
1.6090948
1.6090919
1.6090916
1.6090915
1.6090916
1.6090915
1.6090915
1.6090915
1.6090915
1.6090915
1.6090915
1.6090915
1.6090915
1.6090915
1.6090915
1.6090915
1.6090915
1.6090915
1.6090915
1.6090915
1.6090915
1.6090915
1.6090915
1.6090915
1.6090914
1.6090914
1.6090914
1.6090914
1.6090913
1.6090913
1.6090913
1.6090913
1.6090913
1.6090912
1.6090912
1.6090912
1.6090911
1.6090911
1.6090911
1.6090911
1.6090911
1.609091
1.609091
1.609091
1.6090909
1.6090909
1.6090909
1.6090908
1.6090907
1.6090907
1.6090906
1.6090905
1.6090904
1.6090902
1.6090898
1.6090894
1.6090889
1.6090882
1.6090872
1.609086
1.6090845
1.6090827
1.6090808
1.6090789
1.6090774
1.6090763
1.609076
1.6090765
1.6090781
1.6090805
1.6090831
1.6090851
1.6090862
1.6090864
1.6090857
1.6090844
1.6090834
1.6090832
1.6090846
1.6090879
1.609093
1.6090988
1.6091042
1.6091083
1.6091101
1.6091091
1.6091067
1.609103
1.6091026
1.6091043
1.6091157
1.6091203
1.6091308
1.6091275
1.609107
1.6139282
3.4383191
1.6847626
1.6093746
1.6090951
1.6090922
1.6090919
1.6090918
1.6090919
1.6090918
1.6090917
1.6090918
1.6090918
1.6090918
1.6090917
1.6090918
1.6090918
1.6090917
1.6090918
1.6090917
1.6090918
1.6090917
1.6090917
1.6090917
1.6090917
1.6090917
1.6090917
1.6090917
1.6090917
1.6090916
1.6090917
1.6090916
1.6090916
1.6090916
1.6090916
1.6090916
1.6090916
1.6090915
1.6090915
1.6090915
1.6090915
1.6090915
1.6090915
1.6090914
1.6090914
1.6090914
1.6090913
1.6090913
1.6090913
1.6090913
1.6090912
1.6090912
1.6090911
1.6090911
1.609091
1.6090909
1.6090907
1.6090905
1.6090902
1.6090898
1.6090893
1.6090886
1.6090876
1.6090864
1.6090849
1.6090831
1.6090811
1.6090792
1.6090776
1.6090764
1.609076
1.6090765
1.6090781
1.6090805
1.6090831
1.6090852
1.6090865
1.6090868
1.6090861
1.6090848
1.6090835
1.6090831
1.6090841
1.609087
1.6090918
1.6090974
1.6091029
1.6091073
1.6091098
1.6091098
1.6091088
1.6091065
1.6091074
1.6091083
1.609116
1.609118
1.6091222
1.609121
1.6091159
1.6142716
3.4382714
1.6847555
1.6093746
1.6090952
1.6090923
1.609092
1.6090919
1.609092
1.6090919
1.6090918
1.6090919
1.6090919
1.6090919
1.6090918
1.6090919
1.6090919
1.6090918
1.6090919
1.6090918
1.6090919
1.6090919
1.6090918
1.6090919
1.6090919
1.6090918
1.6090918
1.6090919
1.6090919
1.6090918
1.6090919
1.6090918
1.6090918
1.6090918
1.6090918
1.6090918
1.6090918
1.6090918
1.6090918
1.6090918
1.6090917
1.6090917
1.6090917
1.6090917
1.6090917
1.6090916
1.6090916
1.6090916
1.6090915
1.6090915
1.6090915
1.6090915
1.6090914
1.6090914
1.6090913
1.6090912
1.609091
1.6090908
1.6090905
1.6090902
1.6090896
1.6090889
1.609088
1.6090867
1.6090852
1.6090834
1.6090814
1.6090795
1.6090777
1.6090765
1.609076
1.6090764
1.6090779
1.6090804
1.6090831
1.6090853
1.6090867
1.6090871
1.6090866
1.6090852
1.6090837
1.609083
1.6090836
1.609086
1.6090903
1.6090956
1.6091011
1.6091057
1.6091089
1.6091098
1.6091101
1.6091094
1.6091121
1.6091141
1.6091196
1.6091192
1.6091185
1.6091145
1.6090927
1.6128267
3.4382262
1.684749
1.6093748
1.6090956
1.6090927
1.6090924
1.6090923
1.6090923
1.6090922
1.6090922
1.6090922
1.6090923
1.6090922
1.6090922
1.6090922
1.6090923
1.6090922
1.6090923
1.6090922
1.6090923
1.6090922
1.6090922
1.6090923
1.6090923
1.6090922
1.6090922
1.6090923
1.6090922
1.6090922
1.6090922
1.6090922
1.6090922
1.6090922
1.6090922
1.6090922
1.6090922
1.6090921
1.6090921
1.6090921
1.6090921
1.6090921
1.6090921
1.609092
1.609092
1.609092
1.609092
1.609092
1.6090919
1.6090919
1.6090919
1.6090919
1.6090918
1.6090917
1.6090917
1.6090916
1.6090914
1.6090912
1.6090909
1.6090905
1.60909
1.6090893
1.6090884
1.6090871
1.6090856
1.6090838
1.6090818
1.6090798
1.609078
1.6090767
1.6090761
1.6090764
1.6090779
1.6090803
1.6090831
1.6090854
1.609087
1.6090876
1.6090871
1.6090857
1.6090842
1.6090831
1.6090833
1.6090853
1.609089
1.609094
1.6090992
1.6091039
1.6091076
1.6091095
1.6091112
1.6091119
1.6091165
1.6091192
1.6091244
1.6091245
1.6091234
1.6091178
1.6091054
1.6111367
3.4381816
1.6847428
1.6093752
1.609096
1.6090931
1.6090928
1.6090927
1.6090927
1.6090926
1.6090926
1.6090926
1.6090927
1.6090926
1.6090926
1.6090927
1.6090927
1.6090926
1.6090927
1.6090926
1.6090927
1.6090927
1.6090926
1.6090927
1.6090927
1.6090926
1.6090926
1.6090926
1.6090926
1.6090926
1.6090926
1.6090926
1.6090926
1.6090926
1.6090925
1.6090925
1.6090925
1.6090925
1.6090925
1.6090925
1.6090925
1.6090925
1.6090924
1.6090924
1.6090924
1.6090924
1.6090924
1.6090924
1.6090923
1.6090923
1.6090923
1.6090922
1.6090922
1.6090921
1.609092
1.6090919
1.6090918
1.6090916
1.6090913
1.609091
1.6090904
1.6090897
1.6090888
1.6090876
1.609086
1.6090842
1.6090822
1.6090802
1.6090783
1.609077
1.6090763
1.6090765
1.6090779
1.6090803
1.6090831
1.6090856
1.6090872
1.609088
1.6090876
1.6090863
1.6090847
1.6090834
1.6090832
1.6090847
1.609088
1.6090924
1.6090971
1.6091016
1.6091056
1.6091085
1.6091118
1.6091142
1.6091206
1.6091237
1.6091285
1.6091277
1.609125
1.6091188
1.6091073
1.6121852
3.4381381
1.6847366
1.6093752
1.6090961
1.6090932
1.6090929
1.6090928
1.6090928
1.6090927
1.6090927
1.6090928
1.6090928
1.6090927
1.6090927
1.6090928
1.6090928
1.6090927
1.6090928
1.6090927
1.6090928
1.6090928
1.6090927
1.6090928
1.6090928
1.6090927
1.6090927
1.6090928
1.6090927
1.6090927
1.6090927
1.6090927
1.6090927
1.6090927
1.6090927
1.6090927
1.6090927
1.6090927
1.6090927
1.6090927
1.6090927
1.6090927
1.6090927
1.6090927
1.6090927
1.6090927
1.6090926
1.6090926
1.6090926
1.6090926
1.6090925
1.6090925
1.6090924
1.6090924
1.6090923
1.6090922
1.6090921
1.6090919
1.6090916
1.6090913
1.6090908
1.6090901
1.6090891
1.6090879
1.6090864
1.6090846
1.6090826
1.6090805
1.6090786
1.6090772
1.6090764
1.6090766
1.6090779
1.6090802
1.6090831
1.6090856
1.6090874
1.6090882
1.609088
1.6090868
1.609085
1.6090836
1.6090831
1.6090843
1.6090871
1.6090908
1.6090948
1.6090987
1.6091026
1.6091064
1.6091114
1.6091161
1.6091242
1.6091281
1.6091318
1.6091278
1.6091191
1.6091108
1.6091336
1.6152977
3.4380953
1.6847307
1.6093754
1.6090963
1.6090934
1.6090931
1.609093
1.609093
1.6090929
1.6090929
1.609093
1.609093
1.6090929
1.6090929
1.609093
1.609093
1.6090929
1.609093
1.6090929
1.609093
1.609093
1.609093
1.609093
1.609093
1.609093
1.609093
1.609093
1.609093
1.609093
1.609093
1.609093
1.609093
1.609093
1.609093
1.609093
1.609093
1.609093
1.609093
1.609093
1.609093
1.609093
1.609093
1.6090929
1.6090929
1.6090929
1.6090929
1.6090929
1.6090928
1.6090928
1.6090928
1.6090928
1.6090927
1.6090927
1.6090926
1.6090925
1.6090924
1.6090922
1.609092
1.6090916
1.6090911
1.6090904
1.6090895
1.6090883
1.6090868
1.609085
1.609083
1.6090809
1.609079
1.6090775
1.6090766
1.6090767
1.6090779
1.6090802
1.609083
1.6090856
1.6090875
1.6090885
1.6090884
1.6090873
1.6090855
1.6090839
1.6090832
1.6090841
1.6090865
1.6090896
1.6090928
1.6090959
1.6090992
1.6091034
1.6091099
1.6091174
1.6091276
1.6091328
1.6091346
1.6091278
1.6091173
1.6091095
1.6091202
1.6140351
3.4380533
1.6847253
1.6093759
1.6090968
1.6090939
1.6090936
1.6090935
1.6090936
1.6090935
1.6090935
1.6090935
1.6090935
1.6090935
1.6090935
1.6090935
1.6090935
1.6090935
1.6090935
1.6090935
1.6090935
1.6090935
1.6090935
1.6090935
1.6090935
1.6090935
1.6090935
1.6090936
1.6090935
1.6090935
1.6090935
1.6090935
1.6090935
1.6090935
1.6090935
1.6090935
1.6090935
1.6090935
1.6090935
1.6090935
1.6090934
1.6090934
1.6090934
1.6090934
1.6090933
1.6090933
1.6090933
1.6090933
1.6090933
1.6090933
1.6090932
1.6090932
1.6090931
1.6090931
1.609093
1.6090929
1.6090928
1.6090926
1.6090924
1.609092
1.6090915
1.6090908
1.6090899
1.6090888
1.6090873
1.6090855
1.6090835
1.6090814
1.6090794
1.6090779
1.609077
1.609077
1.6090781
1.6090803
1.6090831
1.6090858