/*--------------------------------*- C++ -*----------------------------------*\
| =========                 |                                                 |
| \\      /  F ield         | OpenFOAM: The Open Source CFD Toolbox           |
|  \\    /   O peration     | Version:  2406                                  |
|   \\  /    A nd           | Website:  www.openfoam.com                      |
|    \\/     M anipulation  |                                                 |
\*---------------------------------------------------------------------------*/
FoamFile
{
    version     2.0;
    format      ascii;
    arch        "LSB;label=32;scalar=64";
    class       volScalarField;
    location    "5";
    object      omega;
}
// * * * * * * * * * * * * * * * * * * * * * * * * * * * * * * * * * * * * * //

dimensions      [0 0 -1 0 0 0 0];

internalField   nonuniform List<scalar> 
96472
(
3.6668308
3.1590266
2.7650971
2.3960465
2.0782898
1.8444401
1.6956537
1.6111956
1.5671721
1.545664
1.5357811
1.5317047
1.5304969
1.5309468
1.532385
1.5348611
1.5378302
1.5403137
1.5414487
1.5418461
1.5426083
1.5438743
1.5455126
1.5473944
1.5498126
1.5520744
1.5543306
1.5566864
1.5594054
1.5626208
1.5660574
1.5688942
1.5717247
1.5735152
1.5758696
1.5777624
1.5808086
1.584796
1.5906613
1.5967195
1.6054055
1.6132822
1.6245329
1.6339472
1.6482156
1.6589574
1.6762229
1.6886333
1.708466
1.7231943
1.7448694
1.7639277
1.7864692
1.8128373
1.8486399
3.6683059
3.1620548
2.7703355
2.4031988
2.0855863
1.8503473
1.6996662
1.6137016
1.5687042
1.5466667
1.5365114
1.5322341
1.5309084
1.531271
1.5326373
1.5350819
1.5380786
1.540667
1.5419174
1.5423563
1.5430077
1.543984
1.5452969
1.5467627
1.5482531
1.5496504
1.5513296
1.5530071
1.5551374
1.5578573
1.5614909
1.5650353
1.5690263
1.5718916
1.5758447
1.5785318
1.5835497
1.5866482
1.5923037
1.5963091
1.6045212
1.6098929
1.6202703
1.6280309
1.6415987
1.6513458
1.6654005
1.6803379
1.6926375
1.714462
1.7263127
1.7481044
1.7682874
1.7845578
1.8200374
3.6698887
3.1653852
2.7752242
2.4090278
2.0911461
1.8548147
1.7028489
1.6158325
1.570125
1.5476487
1.5372465
1.532843
1.5314557
1.5317732
1.5330927
1.5355122
1.5385709
1.5413283
1.5428443
1.5433912
1.5440061
1.5448761
1.5460674
1.547373
1.5485765
1.5495445
1.5505468
1.5515605
1.5528413
1.5542632
1.5566761
1.5586457
1.5622138
1.5654128
1.5713077
1.5753253
1.5816282
1.5855927
1.5919811
1.5957976
1.6038792
1.6086545
1.6180869
1.6258151
1.6335994
1.6476869
1.6561234
1.6735562
1.6824207
1.7020292
1.7159097
1.7323337
1.7546152
1.767077
1.7967191
3.6713166
3.1685317
2.7804102
2.4156832
2.0976465
1.8599573
1.7063717
1.6180678
1.5715248
1.5485804
1.5379198
1.5333709
1.5319007
1.5321416
1.5333849
1.5357356
1.5388055
1.5417466
1.5435332
1.5442947
1.545034
1.5459793
1.5472027
1.548465
1.5495262
1.550238
1.5508803
1.5516533
1.5527422
1.5538931
1.5558956
1.5574722
1.5601827
1.5620183
1.5659368
1.5688123
1.5740725
1.5792747
1.5857481
1.5919117
1.5997111
1.6062021
1.6132996
1.6224522
1.6276257
1.6402823
1.6466145
1.659761
1.6711586
1.6816383
1.6999254
1.7111526
1.7338161
1.7455212
1.7735617
3.6726869
3.1715222
2.7853835
2.4220299
2.1038233
1.8648771
1.7097972
1.620289
1.5729434
1.5495374
1.5386279
1.5339414
1.5323975
1.532587
1.5337602
1.5360301
1.5390897
1.5421701
1.5441975
1.5451434
1.5459693
1.5469638
1.5481701
1.5493552
1.5502633
1.550841
1.5513018
1.5519903
1.5529749
1.5540283
1.5557783
1.5573798
1.5596796
1.5617938
1.5641482
1.5675939
1.5699627
1.5750478
1.5783914
1.585707
1.5902725
1.5997886
1.6049848
1.6163685
1.6215022
1.6322617
1.6398289
1.6489966
1.6613738
1.6685017
1.683521
1.6922379
1.7106712
1.720815
1.7451501
3.6739957
3.1742871
2.790165
2.4283598
2.1101246
1.8699542
1.7133206
1.6225613
1.574397
1.5505116
1.5393592
1.5345365
1.532921
1.5330393
1.53415
1.5363323
1.539356
1.542535
1.5448258
1.5459418
1.5468518
1.5478882
1.5490922
1.5502234
1.5509877
1.5513668
1.551595
1.5521138
1.5528718
1.5538578
1.5553309
1.5572347
1.5591502
1.5615487
1.5633679
1.5668784
1.5688883
1.5733445
1.5759927
1.5821473
1.5856488
1.5940566
1.5985641
1.6074729
1.6165186
1.6236288
1.6351545
1.6419002
1.6551764
1.6616161
1.6748641
1.681864
1.6966105
1.7045793
1.7227725
3.6751767
3.1768443
2.7950937
2.4350495
2.1167376
1.8752349
1.7169591
1.6248978
1.5758935
1.5515197
1.5401004
1.5351401
1.533446
1.5335047
1.5345707
1.5366715
1.5396442
1.5428845
1.5454213
1.5467353
1.547745
1.5488187
1.5500031
1.5510552
1.5517331
1.5519357
1.5519759
1.5522782
1.55283
1.5536728
1.5548269
1.5567423
1.5583041
1.5608964
1.5625448
1.5659487
1.5679335
1.5722783
1.5746309
1.5797326
1.5835855
1.5890051
1.5956979
1.6005597
1.6102772
1.6159136
1.6273899
1.6337652
1.6467856
1.6533882
1.6668428
1.6738158
1.6879103
1.6951908
1.7101949
3.6764745
3.1793901
2.7993051
2.4406379
2.1224927
1.8800485
1.7204303
1.6271922
1.5773807
1.5525483
1.5408732
1.5357743
1.534012
1.5340057
1.5350058
1.5370259
1.5399356
1.5432504
1.5459773
1.5475264
1.5486317
1.5497304
1.5509028
1.5519064
1.5524429
1.5525514
1.5524281
1.5524922
1.5528806
1.5536232
1.5545211
1.556233
1.5575683
1.5600089
1.5616581
1.5646388
1.5671011
1.5702375
1.5740774
1.5770237
1.5824194
1.585795
1.592736
1.5967983
1.605213
1.6099946
1.6199899
1.6256326
1.6373156
1.6435603
1.6563937
1.6632328
1.6769035
1.6841279
1.699129
3.677509
3.1815179
2.8040529
2.4475848
2.1296254
1.8857755
1.7243435
1.6296755
1.5789457
1.5536135
1.5416761
1.5364194
1.5345657
1.5345138
1.5354603
1.5373837
1.5402241
1.5435714
1.5464815
1.5482688
1.549487
1.5506538
1.5517918
1.5527316
1.5531552
1.5531457
1.5529291
1.5528292
1.5530356
1.5536304
1.5543959
1.5557088
1.5570751
1.5589893
1.5611357
1.5630909
1.5663193
1.5683838
1.5726755
1.575156
1.5805505
1.5836403
1.5902012
1.5938697
1.6015088
1.6057911
1.6146088
1.6195415
1.6297379
1.6352208
1.6466194
1.6527144
1.6652234
1.6717878
1.6858334
3.6785464
3.1835322
2.8084335
2.4539513
2.1362064
1.8911726
1.7281162
1.6321323
1.580519
1.5546694
1.5424869
1.5371094
1.5351665
1.5350573
1.5359392
1.5377729
1.5405278
1.5438791
1.5469729
1.5489885
1.5503429
1.551552
1.5526596
1.5534981
1.5538632
1.5537181
1.5534277
1.5532084
1.5532669
1.5536616
1.5543809
1.5553178
1.5567963
1.5581388
1.5604584
1.5620605
1.5651303
1.5670917
1.5710597
1.5734414
1.5785523
1.5814128
1.5875951
1.5910393
1.5982057
1.6021878
1.6103337
1.6148094
1.6240058
1.6289047
1.6391107
1.6444536
1.6554705
1.6612669
1.6731584
3.6795792
3.1854723
2.8126704
2.4601803
2.1427144
1.896566
1.7319261
1.634622
1.5821467
1.5557811
1.5433146
1.5377847
1.535769
1.535597
1.5364293
1.5381701
1.5408496
1.544169
1.5474102
1.5496797
1.5511634
1.5524296
1.5535187
1.5542522
1.5545414
1.5543264
1.5539467
1.5536568
1.5535336
1.553777
1.5544161
1.5551819
1.556506
1.5576757
1.5597736
1.5612735
1.5640697
1.5658652
1.5696385
1.571869
1.5765643
1.5792433
1.5850301
1.5882341
1.5949834
1.5987444
1.6063886
1.6105519
1.6191247
1.6236677
1.6328561
1.6377989
1.6476686
1.6529407
1.6633482
3.6807553
3.1875882
2.8162059
2.4650558
2.1479698
1.9011605
1.7353832
1.6369861
1.5837178
1.5569009
1.54416
1.5384917
1.5364024
1.5361749
1.5369329
1.5385869
1.5411587
1.544445
1.5477972
1.5503202
1.5519759
1.5533052
1.5543572
1.5550075
1.5552038
1.5548914
1.5544907
1.5541259
1.5538624
1.5540158
1.5544799
1.5551899
1.5562784
1.5573494
1.5592049
1.5606127
1.5630606
1.5648091
1.5682832
1.5703445
1.5747126
1.5772244
1.582594
1.5856022
1.5919857
1.5954915
1.6026473
1.6065803
1.6145372
1.6187239
1.6273134
1.6318326
1.6411088
1.6458878
1.6552565
3.681774
3.1892902
2.8198968
2.4707917
2.1542269
1.9064862
1.7392178
1.6395306
1.5853666
1.5580456
1.5450518
1.5392253
1.537028
1.5367272
1.5374396
1.5390191
1.5414804
1.5447181
1.5481511
1.550898
1.5527423
1.5541614
1.5551826
1.5557415
1.5558403
1.5554749
1.5550266
1.5546179
1.5542937
1.5542469
1.5546117
1.5552476
1.556158
1.5571095
1.5588026
1.5600995
1.5622931
1.5638987
1.5670506
1.5690322
1.5730601
1.5753644
1.5803759
1.5831959
1.5891588
1.5924012
1.5991171
1.6027624
1.6102307
1.6141066
1.6222238
1.6263332
1.634987
1.6396281
1.6477139
3.6828496
3.1910781
2.823305
2.4759074
2.1598541
1.911423
1.7428745
1.642032
1.5870356
1.559191
1.5459219
1.5399701
1.5376962
1.5373066
1.5379597
1.5394346
1.5418085
1.5449588
1.5484842
1.5514624
1.5534853
1.5549817
1.5560101
1.556472
1.5564677
1.556075
1.5555737
1.5551189
1.5547503
1.5545635
1.5548383
1.5553537
1.5560948
1.5570028
1.5585058
1.5597284
1.5616918
1.5631858
1.5660487
1.5678848
1.571605
1.5738169
1.5784597
1.5810403
1.5865715
1.5896206
1.5958918
1.599289
1.6062618
1.6099892
1.6174263
1.6214473
1.6295923
1.6341324
1.6410651
3.6839158
3.1928419
2.826601
2.4809399
2.1655096
1.9164263
1.7466306
1.6445902
1.5887507
1.5604057
1.5468305
1.5407148
1.5383413
1.5378986
1.5384764
1.5398675
1.5421431
1.5451877
1.5487522
1.5519421
1.554214
1.5557984
1.5568118
1.5571759
1.5570862
1.5566661
1.5561278
1.555603
1.5551655
1.5549525
1.5551048
1.5554924
1.556119
1.5569293
1.5582569
1.5594557
1.5612215
1.5626525
1.5652014
1.5669159
1.5703875
1.5724475
1.5767126
1.5790997
1.5842417
1.5870404
1.5928366
1.5960596
1.6025024
1.6061167
1.6128668
1.6167843
1.6246298
1.6288253
1.6350914
3.6849209
3.1944382
2.8299508
2.4862421
2.1714586
1.9216406
1.7504888
1.647206
1.5904758
1.5616221
1.5477596
1.5414622
1.5389848
1.538467
1.5389876
1.5402913
1.5424738
1.5454239
1.5489665
1.5523419
1.5548757
1.5565923
1.5575937
1.5578967
1.5576969
1.5572264
1.5566926
1.5561218
1.5556467
1.555382
1.5554002
1.5557112
1.5562718
1.556993
1.5581169
1.5592421
1.5608898
1.5621951
1.5645005
1.5662124
1.5694113
1.571329
1.5752689
1.5775152
1.582234
1.5848106
1.5902795
1.5932481
1.5992555
1.6029388
1.6088519
1.6127575
1.6203186
1.6242339
1.6297528
3.6859292
3.1961467
2.8331955
2.4912467
2.1771372
1.9267131
1.7542995
1.6498191
1.5922374
1.5628454
1.5486983
1.542238
1.5396506
1.5390349
1.5394909
1.5406915
1.542794
1.5456411
1.5492029
1.5527197
1.5554701
1.5573371
1.5583929
1.5586258
1.5583622
1.5578363
1.5572582
1.5566535
1.5561619
1.5558524
1.5557204
1.5559637
1.5564035
1.5570535
1.5580045
1.5590689
1.5605457
1.561771
1.5638373
1.5654928
1.5685074
1.570387
1.5740291
1.5760836
1.5804199
1.5827923
1.5878594
1.5905928
1.5961889
1.599886
1.6050277
1.6091156
1.6162952
1.6198155
1.6247956
3.6868384
3.1975566
2.8365744
2.4967996
2.1833923
1.932157
1.7583328
1.6525203
1.5940448
1.5641029
1.5496228
1.5429874
1.5403085
1.5395798
1.5399881
1.5410793
1.5430876
1.5458455
1.5493502
1.5530191
1.5560455
1.5580434
1.5591297
1.559315
1.5589896
1.5584222
1.5578104
1.5571887
1.5566971
1.5563395
1.5561394
1.5562729
1.5566162
1.5571755
1.5580339
1.5590377
1.5603491
1.5614761
1.5633605
1.5649631
1.5678471
1.5697478
1.5730708
1.5750132
1.5789895
1.5812264
1.5858246
1.5884028
1.5935285
1.5971721
1.6017319
1.6059483
1.61268
1.6157872
1.6209544
3.6878263
3.1991799
2.8397696
2.5018039
2.1891109
1.9372864
1.7622308
1.6552162
1.5958497
1.5653852
1.550587
1.543763
1.540947
1.5401285
1.5404826
1.5414745
1.5433952
1.5460555
1.5495107
1.5532444
1.5565274
1.5587378
1.5598941
1.5600566
1.5596568
1.559038
1.5583928
1.5577641
1.5572259
1.5568249
1.5565791
1.5565926
1.5568011
1.557255
1.5580534
1.5591043
1.5601973
1.5611812
1.5628096
1.5642751
1.5670909
1.5691015
1.5722146
1.5740437
1.5777072
1.5797182
1.583986
1.5863434
1.591046
1.5946385
1.5985981
1.6028292
1.6090867
1.6119357
1.6167363
3.6887291
3.2004743
2.8430885
2.5074028
2.1955065
1.9428894
1.766372
1.6580171
1.5977101
1.5666795
1.5515547
1.5445302
1.5415941
1.5406638
1.5409595
1.5418593
1.5436833
1.5462612
1.5496312
1.553464
1.5569725
1.5593886
1.5606002
1.5607323
1.5603152
1.5596833
1.5590121
1.5583587
1.5577868
1.5573344
1.5570484
1.5570192
1.5571792
1.557539
1.5581572
1.5591468
1.5601516
1.5610799
1.5625568
1.5639332
1.5664294
1.5683206
1.571362
1.5731773
1.5766823
1.5786176
1.582633
1.5847986
1.589175
1.5926249
1.5962822
1.6005464
1.6062538
1.608987
1.6132872
3.6896459
3.2018764
2.8463858
2.5128915
2.2017976
1.9485036
1.7706226
1.6609324
1.5996924
1.5680781
1.5526087
1.5453843
1.54231
1.5412825
1.5415106
1.5423094
1.5440578
1.5465348
1.5498701
1.5536621
1.5573947
1.5600502
1.5614287
1.5615677
1.5611023
1.5603914
1.559674
1.559025
1.55846
1.5579441
1.5576106
1.5574718
1.5574579
1.5577324
1.558375
1.5594242
1.5602069
1.5609292
1.561904
1.563389
1.5657692
1.5679692
1.57057
1.5724713
1.5756745
1.5775354
1.5810996
1.5830791
1.5871481
1.590193
1.5941745
1.5978483
1.603121
1.6055796
1.6101856
3.6909028
3.2039607
2.8489797
2.5162908
2.2058485
1.9525977
1.7742461
1.6639412
1.6020462
1.5699635
1.5541641
1.5467101
1.5435012
1.5423428
1.5425033
1.543203
1.5448374
1.54725
1.5504423
1.5542933
1.5581708
1.5610368
1.5625049
1.5627303
1.5622864
1.5616358
1.5608537
1.5601399
1.5595607
1.5589655
1.5585725
1.5585438
1.558434
1.5585072
1.5589323
1.5598927
1.5607235
1.5614238
1.5622902
1.5634349
1.5655779
1.5675728
1.5700033
1.5721776
1.5753559
1.5771554
1.5803432
1.5820561
1.5857483
1.5886027
1.5919891
1.5959953
1.6011984
1.603544
1.6078243
3.691825
3.2055206
2.8524828
2.5229467
2.2139304
1.9606552
1.781655
1.6707496
1.6080785
1.5753523
1.5590187
1.551259
1.5477822
1.5464694
1.5465325
1.5471146
1.5486054
1.5508352
1.5539201
1.5576989
1.5616301
1.564563
1.5661823
1.5664535
1.5660696
1.5655681
1.5647547
1.5639699
1.563366
1.5626336
1.5622316
1.5620745
1.5617741
1.5617478
1.5622183
1.5631778
1.5637072
1.5640186
1.5645469
1.5655138
1.5674755
1.569779
1.5718113
1.5739169
1.5766395
1.578318
1.5811375
1.5828283
1.5861118
1.5887884
1.5914678
1.5961642
1.6000102
1.6039069
1.6068543
3.6932979
3.2083694
2.8569861
2.5363332
2.2328121
1.9833168
1.8078671
1.7012723
1.6389195
1.6052547
1.5872251
1.578785
1.5744145
1.5728487
1.5726524
1.5730085
1.5742259
1.5762372
1.5790493
1.5830369
1.5871193
1.5891295
1.589499
1.5898199
1.5893317
1.5901586
1.5892228
1.5874361
1.586195
1.5847832
1.584011
1.584269
1.5839657
1.5832116
1.5835375
1.5848208
1.585436
1.5853349
1.5851106
1.5854351
1.5862766
1.5879952
1.590281
1.5927014
1.594913
1.5965769
1.5981529
1.5993824
1.6007561
1.6030379
1.6051055
1.6098637
1.6130983
1.6184053
1.6199934
3.7022134
3.2325765
2.8931634
2.6277176
2.3504726
2.1154613
1.9556027
1.8747896
1.8139991
1.7741738
1.7476207
1.7365785
1.7300964
1.7290564
1.729607
1.7303733
1.7328562
1.7345649
1.7376978
1.7424064
1.7468181
1.7443386
1.7416979
1.7433526
1.7435826
1.7558598
1.7555464
1.749586
1.7423433
1.7302768
1.7233233
1.7230678
1.7195799
1.7114486
1.711105
1.7120505
1.7107056
1.7045272
1.6977483
1.6944487
1.6943112
1.6950372
1.6970063
1.6982046
1.6987228
1.6985287
1.6967892
1.6915258
1.6868979
1.684635
1.6845012
1.6851235
1.6865714
1.6908234
1.6875428
3.856467
3.4752523
3.215171
3.1888618
3.1302092
3.0039601
2.9938515
3.0731272
3.0861287
3.0479082
2.9613632
2.9380659
2.9402004
2.9544598
2.9812573
2.9959044
3.0327635
3.043183
3.0663056
3.0857315
3.1158439
3.0773498
3.0674578
3.1019233
3.0972722
3.2246819
3.2358877
3.2005353
3.1643531
3.084215
3.0343885
3.0814702
3.0386301
2.9818056
2.9770049
3.0470414
3.0250454
2.9843578
2.9031342
2.8443337
2.8271711
2.8288646
2.8409452
2.8439514
2.8406635
2.8271647
2.7839249
2.7177906
2.6490291
2.6052462
2.568173
2.5524814
2.5358552
2.5305163
2.4815518
11.235729
11.244178
11.256224
11.314805
11.364636
11.404969
11.429242
11.444538
11.467423
11.499313
11.539498
11.586269
11.633697
11.679267
11.720207
11.753444
11.777125
11.785175
11.781874
11.758435
11.73033
11.70305
11.697798
11.718215
11.741555
11.774685
11.806132
11.832288
11.850856
11.872026
11.87569
11.889168
11.894834
11.89593
11.88866
11.899766
11.895908
11.890657
11.87248
11.857685
11.840845
11.840256
11.833976
11.832264
11.826481
11.817187
11.80069
11.792244
11.771223
11.757475
11.741089
11.732274
11.719257
11.709366
11.703794
12.076794
2.5666515
1.7022004
1.627878
1.6135546
1.6132884
1.6154975
1.6190655
1.6223725
1.6267181
1.6313836
1.6367353
1.6426949
1.6490669
1.6558902
1.6633586
1.6718184
1.6816544
1.6939821
1.7082396
1.7206622
1.7313667
1.7523582
1.7817443
1.8075108
1.8313323
1.8586889
12.81411
2.7436919
1.7267585
1.6366553
1.6192545
1.6201004
1.6227267
1.6266466
1.630395
1.6346975
1.638449
1.6431732
1.6485878
1.654671
1.6614674
1.6689102
1.6773922
1.6870625
1.6991712
1.7140159
1.7281429
1.7387626
1.7556438
1.7844346
1.8161597
1.8432464
1.8665956
13.608751
2.9304984
1.7544208
1.6468487
1.6262719
1.624503
1.6269291
1.6309415
1.634813
1.6395491
1.6444746
1.6496392
1.6555
1.6619215
1.6688447
1.6765431
1.6852234
1.6951995
1.7068875
1.7214238
1.7361242
1.7475338
1.7608702
1.786844
1.8188673
1.8501105
1.8782215
14.466107
3.1074308
1.7851702
1.6595052
1.6339877
1.6335297
1.6352715
1.6390787
1.6425379
1.6460939
1.6502232
1.6551436
1.6608724
1.6672066
1.6740476
1.6817996
1.6905373
1.700804
1.7129691
1.7274246
1.7433346
1.7569701
1.771021
1.793187
1.8252666
1.8536271
1.8870626
15.390804
3.268206
1.8150644
1.6770841
1.6462847
1.6415833
1.6431478
1.6476023
1.6524958
1.6579068
1.6621267
1.6670644
1.672762
1.6789448
1.6858378
1.6935619
1.702423
1.7128363
1.7247885
1.739124
1.7543467
1.7679988
1.7806324
1.8011641
1.833832
1.8615425
1.8940276
16.386907
3.3862768
1.8379198
1.6891103
1.6542408
1.6524656
1.6536817
1.6572003
1.6606493
1.6647648
1.669216
1.674379
1.6804008
1.6867792
1.6937218
1.7014172
1.7100093
1.7204211
1.7331831
1.7484092
1.7650097
1.779425
1.7910239
1.8107165
1.8401631
1.8750004
1.9044811
17.459384
3.5048664
1.8551091
1.7018065
1.664774
1.6585624
1.6606969
1.6660062
1.6709069
1.6756503
1.6803457
1.6856412
1.6919319
1.6985965
1.7056857
1.7134333
1.721852
1.7315238
1.7430343
1.7576799
1.7742583
1.7893351
1.8003866
1.8169757
1.8420002
1.8861805
1.9185547
18.614349
3.6470917
1.8735395
1.7120138
1.672068
1.6685367
1.6682837
1.6723642
1.6767636
1.68148
1.6862413
1.6915379
1.69776
1.7047031
1.7117334
1.7196139
1.7281371
1.7379446
1.7498874
1.7644889
1.7821754
1.7987132
1.8116388
1.8256884
1.8466859
1.891139
1.9309411
19.85874
3.8896398
1.9079963
1.7327229
1.6868405
1.677359
1.6792898
1.6837848
1.6885431
1.693311
1.6979088
1.7033415
1.7095364
1.7164709
1.7236879
1.7313017
1.7392385
1.7483046
1.7594494
1.7734458
1.7905159
1.8078391
1.8215883
1.8355409
1.8517046
1.8915937
1.9382493
21.199735
4.1431123
1.9618929
1.7541659
1.6996614
1.6914238
1.6893301
1.6930554
1.6967671
1.700953
1.7052875
1.7105801
1.7167384
1.7238009
1.7311366
1.7393441
1.7483112
1.7582882
1.7700115
1.7838958
1.8011026
1.8195377
1.8346432
1.8506178
1.863043
1.8942971
1.9402366
22.645687
4.4924652
2.0385434
1.7842944
1.7212018
1.7041093
1.704141
1.7081209
1.7118228
1.7160168
1.7204369
1.7256021
1.7319756
1.7390839
1.746289
1.7536813
1.7621349
1.7718643
1.7829788
1.7961319
1.8125162
1.8310537
1.8468132
1.8639472
1.8767215
1.8998887
1.9410251
24.205647
4.7623223
2.1035151
1.806041
1.7350172
1.7184375
1.7133768
1.7162008
1.720193
1.724218
1.728703
1.7339794
1.7403641
1.7476859
1.7559694
1.7645399
1.77367
1.7841087
1.7955489
1.8090488
1.8250019
1.8439376
1.8606729
1.8783407
1.8948884
1.9141201
1.9429867
25.890412
5.0577799
2.1618694
1.8311175
1.7559492
1.7296573
1.7268207
1.729793
1.7347674
1.739123
1.7437461
1.7493501
1.7556534
1.7626137
1.7696462
1.7777657
1.7863508
1.7960814
1.8074917
1.8208289
1.8362145
1.8547968
1.8721645
1.8888454
1.9090936
1.9274265
1.9475853
27.709178
5.2483578
2.1953564
1.8451224
1.7691169
1.7439938
1.7365589
1.7379832
1.7420605
1.7466533
1.7512237
1.7569685
1.7636097
1.7712572
1.7792881
1.7876713
1.7964518
1.8064021
1.8177785
1.8308689
1.8463434
1.8647523
1.8831473
1.8995834
1.9221929
1.9417764
1.9587623
29.671894
5.5378987
2.2358004
1.8657496
1.7892648
1.7567662
1.7504205
1.7522529
1.7565986
1.7616872
1.7659975
1.771794
1.7777791
1.7840471
1.7917866
1.7994478
1.8078709
1.8175618
1.8284749
1.8410299
1.8557186
1.8732727
1.8913678
1.9074148
1.9293308
1.9495094
1.9685457
31.784981
5.7765629
2.2703403
1.8817874
1.8061734
1.775083
1.7620208
1.7625598
1.7653471
1.769473
1.7737869
1.7799014
1.786759
1.793549
1.8013066
1.8090917
1.8176882
1.8272854
1.8380992
1.8506596
1.8648691
1.8825677
1.9005929
1.9172464
1.9383971
1.9573964
1.978879
34.056206
6.1933669
2.3310452
1.9053219
1.8261151
1.7900059
1.7770766
1.7780909
1.7811273
1.7853496
1.7894855
1.7945813
1.8006875
1.8072313
1.8140262
1.8215476
1.8297931
1.8389883
1.8492519
1.8611408
1.8743245
1.8913214
1.9078329
1.9253044
1.9447865
1.9615623
1.9849548
36.491274
6.535449
2.381759
1.9279886
1.8452617
1.809705
1.7899603
1.7882351
1.7903296
1.7945008
1.7991365
1.8042868
1.81085
1.817761
1.8248657
1.8327179
1.8410384
1.8500867
1.8605399
1.8723259
1.8849332
1.9022391
1.917711
1.9358413
1.9551155
1.96961
1.9920549
39.093926
7.0654716
2.4515005
1.9522401
1.8654413
1.8276573
1.8066995
1.8038859
1.8060849
1.8093148
1.8135567
1.8185854
1.8245328
1.8309593
1.837798
1.8454398
1.8533646
1.862335
1.8723101
1.8836236
1.8952086
1.9123031
1.9264531
1.9441162
1.9637397
1.9762919
1.9970355
41.860634
7.4769381
2.5065102
1.9682469
1.8788712
1.843953
1.8177537
1.8134491
1.8148378
1.8184011
1.823357
1.8293226
1.8354541
1.8423125
1.849438
1.857134
1.86519
1.8741623
1.884318
1.8957853
1.9068519
1.9240446
1.9379431
1.9550464
1.9744661
1.9868526
2.0044857
44.79363
8.2004466
2.5976934
1.9978271
1.9028494
1.865678
1.8376208
1.8309922
1.8305676
1.8331052
1.837106
1.8422952
1.847926
1.854524
1.8614344
1.8688689
1.8765152
1.8854753
1.8950915
1.9065524
1.9168086
1.9336914
1.9473074
1.9636878
1.9838442
1.9960762
2.0118609
47.882474
8.7778322
2.6848809
2.0196468
1.9156624
1.8805144
1.8490221
1.8407477
1.8402963
1.8436483
1.8480853
1.8537133
1.8595021
1.8661937
1.8731777
1.8800825
1.887795
1.8964936
1.9058623
1.9172214
1.9271469
1.9437539
1.9574469
1.9727872
1.9929428
2.006064
2.020526
51.123026
9.8424498
2.8556696
2.0625233
1.9412626
1.9039606
1.8705579
1.8583521
1.854762
1.8567926
1.8604016
1.8650621
1.8702785
1.8768334
1.8836982
1.8901935
1.8982067
1.9065809
1.9158774
1.9269741
1.936482
1.9523998
1.9663286
1.9808345
2.0009849
2.0146702
2.0287972
54.482021
10.623473
3.0037785
2.0993509
1.9587227
1.9187002
1.8833604
1.8687919
1.8653639
1.8669168
1.870262
1.8752038
1.880563
1.8868184
1.8931799
1.8996291
1.9071908
1.9157653
1.9245606
1.9357415
1.9449692
1.9599382
1.9744231
1.9879181
2.0078532
2.0220042
2.0367838
57.951802
11.936698
3.2867986
2.161431
1.988195
1.9416661
1.903931
1.8840932
1.8774809
1.8777725
1.879856
1.8845662
1.8896124
1.8955931
1.9019498
1.9082856
1.9157325
1.9242088
1.9327949
1.9437788
1.9527926
1.9668422
1.9812116
1.9941813
2.01423
2.0276447
2.042718
61.505876
12.771329
3.4681189
2.1965344
2.0023529
1.9519297
1.915702
1.893909
1.8868837
1.8864128
1.8880613
1.8924457
1.8974988
1.9033639
1.9095943
1.9158342
1.9230811
1.9312993
1.9398637
1.9507862
1.9596046
1.9728579
1.9874518
2.0000503
2.0191968
2.0330434
2.0495014
65.093664
14.219811
3.7901186
2.2580178
2.0266057
1.9715673
1.9319735
1.9061236
1.8955174
1.8931871
1.8945422
1.8987925
1.9034439
1.9095538
1.915463
1.921965
1.9291298
1.93723
1.9455808
1.9563871
1.9652272
1.9774868
1.9920248
2.0038682
2.0232581
2.0357699
2.0523206
68.730118
15.065734
3.9780337
2.2907959
2.0370949
1.9794346
1.9413521
1.9152216
1.9036524
1.9008843
1.9017653
1.9051563
1.9098264
1.9155912
1.9210321
1.9275255
1.9342006
1.942469
1.9503956
1.9612029
1.9702826
1.98151
1.9961333
2.0080207
2.0266192
2.0388202
2.056577
72.269735
16.636194
4.3298128
2.3455179
2.0551931
1.9921743
1.9525508
1.9234186
1.909518
1.9051033
1.9059134
1.9096006
1.9142034
1.9200272
1.9253824
1.931991
1.9384423
1.9466184
1.9542417
1.9648512
1.9739304
1.9845072
1.9989948
2.0103629
2.0285486
2.0404408
2.0584005
75.829407
17.334008
4.5145083
2.3761093
2.0635869
1.9991605
1.9607133
1.9316808
1.9160886
1.9107894
1.9107777
1.9136131
1.9178705
1.9233005
1.9284297
1.9350286
1.9411337
1.9495745
1.9568449
1.9675156
1.976988
1.9870034
2.0012903
2.0125064
2.0303839
2.0410444
2.0593328
79.228559
18.665775
4.8131864
2.4104038
2.0718128
2.0025105
1.9649697
1.93504
1.9184982
1.9130377
1.9131969
1.9162776
1.9205924
1.9260481
1.9313423
1.9377805
1.9438597
1.9518038
1.9587529
1.9692501
1.9787073
1.9882696
2.0023937
2.0135355
2.0310146
2.0417056
2.0597797
82.487736
19.035575
4.9812313
2.446899
2.0777121
2.0086154
1.971117
1.9412263
1.9230292
1.9165947
1.9155073
1.9183054
1.9227033
1.9278063
1.9335497
1.9395957
1.9460473
1.95376
1.9609892
1.9711754
1.9807312
1.9899419
2.0036617
2.0148211
2.0315333
2.041859
2.0597316
85.807999
20.3112
5.3560963
2.503236
2.0871517
2.0137576
1.9752708
1.946156
1.926475
1.9195288
1.9179963
1.9202936
1.9244385
1.9292539
1.9347831
1.9406998
1.9470719
1.9546388
1.9617484
1.9713553
1.9812103
1.9902221
2.0037507
2.0150524
2.0316811
2.0421918
2.0593402
88.378879
21.287135
5.6597015
2.5624193
2.0976589
2.0171169
1.9782671
1.9490342
1.9277483
1.9201934
1.9184634
1.9205068
1.924868
1.9299028
1.9351694
1.9413481
1.947738
1.9552832
1.9625828
1.9722647
1.9820536
1.9908248
2.0040514
2.0150727
2.0314335
2.041835
2.0587801
91.453572
22.386434
5.9584724
2.620427
2.1083311
2.0185808
1.9799948
1.9514179
1.9292098
1.9208816
1.9189842
1.9209289
1.9250222
1.9300276
1.9354176
1.9416215
1.9481368
1.955698
1.962804
1.9722638
1.9820885
1.990934
2.003985
2.0149851
2.030905
2.0414393
2.0592163
92.991171
24.459198
6.451366
2.6996726
2.1191933
2.019806
1.9810397
1.9527266
1.9302314
1.9210944
1.9189965
1.9208331
1.9249368
1.9298082
1.9352718
1.9414757
1.9480629
1.9557776
1.9629477
1.9723405
1.9823063
1.9912854
2.0041264
2.0151692
2.0305577
2.0411197
2.0591755
95.157562
25.480133
6.8290249
2.7718025
2.1298565
2.0209713
1.9820831
1.9539585
1.931108
1.9212558
1.9188773
1.9206079
1.9246223
1.9295217
1.9349692
1.9412672
1.947812
1.9555638
1.9626352
1.9720991
1.9820301
1.9911598
2.0038992
2.0150394
2.0311665
2.0407457
2.0593709
95.544628
28.262583
7.6131151
2.902083
2.1462599
2.0232657
1.9839557
1.9563581
1.9326277
1.9217298
1.9188961
1.9203259
1.9241497
1.9291401
1.9346247
1.9410226
1.9475728
1.9554382
1.9626564
1.9722398
1.9819448
1.9911577
2.0037764
2.0147168
2.0312081
2.0402341
2.0590804
95.896989
28.755959
8.3267749
3.095515
2.1751379
2.0284271
1.9866699
1.9590321
1.9344639
1.922314
1.9187805
1.9200111
1.9237448
1.9287609
1.9343189
1.9407085
1.9473646
1.955269
1.962514
1.9720765
1.9819692
1.9913595
2.0041405
2.0152456
2.0327068
2.0409711
2.0598834
95.795961
29.287316
8.8244826
3.2236655
2.1955816
2.0326254
1.9877013
1.9599447
1.9352137
1.9224025
1.9185822
1.9196428
1.9234316
1.9284199
1.9340448
1.9404461
1.9472924
1.95547
1.9631209
1.9727312
1.982703
1.9920672
2.0044794
2.0156884
2.0327781
2.0415862
2.0598572
94.708527
29.624971
9.3441997
3.3690158
2.2155944
2.0351924
1.9881827
1.9603065
1.9354606
1.9222387
1.9181899
1.9190709
1.9230676
1.9281338
1.9338536
1.9402783
1.9471649
1.9554518
1.9632266
1.9732166
1.9835362
1.9935563
2.0059372
2.0183378
2.0343684
2.0449807
2.0618745
93.553763
29.516236
9.6989245
3.4985281
2.2310871
2.0372388
1.9876282
1.959876
1.9350951
1.9218848
1.9180856
1.9189402
1.9230348
1.9281421
1.9338994
1.940562
1.9476336
1.9562193
1.9641854
1.974431
1.9845108
1.9948745
2.0071021
2.0199665
2.0350402
2.0465375
2.0635137
92.042589
28.944885
9.8078848
3.5817706
2.2447617
2.0384291
1.9876326
1.9597927
1.9348121
1.9217179
1.918156
1.9190962
1.923188
1.928587
1.9343203
1.9412182
1.9481385
1.9568972
1.9648627
1.9754086
1.9859649
1.9968456
2.0096544
2.0232805
2.0381796
2.0513618
2.068059
90.208448
28.113317
9.7936686
3.627097
2.2561966
2.0387483
1.9864201
1.9594648
1.934351
1.9218677
1.9183382
1.9197118
1.923855
1.9296411
1.9355523
1.9428014
1.9501297
1.9587678
1.967445
1.9776497
1.9882822
1.9991185
2.0125854
2.026373
2.0412193
2.0549634
2.0736181
88.064277
27.381698
9.6947665
3.6519818
2.2635217
2.0397411
1.9863227
1.9596851
1.9340711
1.9222704
1.918806
1.9205671
1.924803
1.9307397
1.9369094
1.9441029
1.9519677
1.9603207
1.969758
1.9800033
1.9913691
2.0022675
2.0162444
2.030124
2.0458385
2.0602764
2.0783378
85.642814
26.745355
9.5600829
3.6485249
2.2628752
2.0383997
1.9848797
1.9591296
1.9336272
1.922394
1.919812
1.9211908
1.9265093
1.9319793
1.9391698
1.9462414
1.9547793
1.9636608
1.9730312
1.9839252
1.9943902
2.0067218
2.0205684
2.0363124
2.0515021
2.0674629
2.0872856
82.960376
26.111322
9.4287858
3.6363778
2.2616579
2.0383866
1.984781
1.9585503
1.9332954
1.9225187
1.9205377
1.9223608
1.9275492
1.9337913
1.9405674
1.9485615
1.9565398
1.9661813
1.9756922
1.9875719
1.9989014
2.011687
2.0261067
2.0413013
2.0579018
2.0740008
2.0928132
80.049133
25.530776
9.2996106
3.6175435
2.2556704
2.0355488
1.9830751
1.9574897
1.9322793
1.9229265
1.9212664
1.9233427
1.9290923
1.9350303
1.9428028
1.9506728
1.9597688
1.969484
1.9796309
1.9913949
2.0026365
2.0159913
2.0312211
2.0474864
2.063958
2.0814981
2.1005423
76.942003
24.909598
9.1831024
3.604745
2.2523804
2.0348617
1.9821113
1.9555904
1.9316009
1.9231879
1.922134
1.9246002
1.9307286
1.9369817
1.944593
1.9528751
1.9617482
1.9718031
1.9822068
1.9951763
2.0078824
2.0230521
2.0389241
2.0555352
2.0725183
2.0903938
2.1094136
73.7029
24.29884
9.0790968
3.5936647
2.2463372
2.0308523
1.9795708
1.9525594
1.9306374
1.9233668
1.9226453
1.9263469
1.9322578
1.93971
1.9471448
1.9563148
1.9657582
1.97661
1.9874941
1.9995755
2.0114656
2.0263528
2.0429332
2.0597137
2.0787428
2.0979205
2.1174394
70.359281
23.674139
8.9893198
3.5891059
2.2430862
2.0288537
1.977299
1.9502171
1.9291018
1.9234887
1.9228966
1.9272867
1.9341531
1.9412108
1.9499423
1.9587288
1.9687585
1.9792937
1.9913673
2.0048967
2.0192633
2.0356455
2.0526673
2.0699616
2.0870054
2.1045277
2.1254006
66.958645
23.501156
8.9471509
3.5893432
2.2386072
2.0247651
1.9741324
1.9470252
1.9277109
1.923144
1.9228449
1.9280768
1.9352139
1.9431455
1.9519118
1.9617808
1.9725344
1.9841938
1.996902
2.0103773
2.0243373
2.0410523
2.0593563
2.0788799
2.0994642
2.1195902
2.1426793
63.523945
23.298603
8.9364561
3.5945059
2.2355062
2.022605
1.9706082
1.9431936
1.9258606
1.9220628
1.9228733
1.9280609
1.9364577
1.9441992
1.9539908
1.9639404
1.9750606
1.9871273
1.9999801
2.0149335
2.0305178
2.0500613
2.068387
2.0862994
2.1048214
2.1272056
2.1535813
60.170887
23.263323
8.9698433
3.6099956
2.2323441
2.017161
1.9659551
1.93812
1.9238445
1.9211049
1.9217711
1.9286613
1.9365161
1.9456882
1.955529
1.9662186
1.9784751
1.9915449
2.0063356
2.0214446
2.0377942
2.0555511
2.0746441
2.0956394
2.1181924
2.1431396