/*--------------------------------*- C++ -*----------------------------------*\
| =========                 |                                                 |
| \\      /  F ield         | OpenFOAM: The Open Source CFD Toolbox           |
|  \\    /   O peration     | Version:  2406                                  |
|   \\  /    A nd           | Website:  www.openfoam.com                      |
|    \\/     M anipulation  |                                                 |
\*---------------------------------------------------------------------------*/
FoamFile
{
    version     2.0;
    format      ascii;
    arch        "LSB;label=32;scalar=64";
    class       volScalarField;
    location    "5";
    object      omega_0;
}
// * * * * * * * * * * * * * * * * * * * * * * * * * * * * * * * * * * * * * //

dimensions      [0 0 -1 0 0 0 0];

internalField   nonuniform List<scalar> 
19701
(
1.4958989
4.1920796
4.1956413
4.1959312
4.1959239
4.1961372
4.1961814
4.1962974
4.1963734
4.1964395
4.1965033
4.196556
4.1966058
4.1966507
4.1966914
4.1967283
4.1967622
4.1967937
4.1968235
4.1968517
4.1968781
4.1969025
4.196925
4.1969451
4.1969626
4.1969776
4.1969911
4.1970046
4.1970185
4.1970314
4.1970436
4.1970547
4.1970652
4.197075
4.1970838
4.1970919
4.1970988
4.1971049
4.1971105
4.1971157
4.1971205
4.1971249
4.1971289
4.1971327
4.1971362
4.1971395
4.1971426
4.1971454
4.1971481
4.1971506
4.197153
4.1971552
4.1971573
4.1971592
4.197161
4.1971628
4.1971644
4.197166
4.1971675
4.197169
4.1971705
4.1971721
4.1971738
4.1971757
4.1971779
4.1971806
4.1971838
4.1971879
4.1971928
4.1971986
4.1972055
4.1972132
4.1972216
4.1972303
4.1972391
4.1972479
4.1972566
4.1972652
4.1972737
4.1972823
4.1972906
4.1972983
4.1973051
4.1973101
4.1973127
4.1973121
4.1973074
4.1972975
4.197281
4.1972578
4.19723
4.1972004
4.197182
4.1971576
4.197184
4.1971917
4.1973264
4.1973693
4.1972045
1.7468445
3.3758701
3.3985783
3.3987953
3.398928
3.3991079
3.3992227
3.3993732
3.3994923
3.3996047
3.3997104
3.3998036
3.3998903
3.3999683
3.4000398
3.4001059
3.4001673
3.4002244
3.4002772
3.4003248
3.4003681
3.400407
3.4004422
3.4004736
3.4005019
3.4005268
3.4005501
3.4005717
3.400593
3.4006125
3.4006316
3.4006485
3.4006649
3.4006806
3.4006937
3.4007064
3.4007167
3.4007259
3.4007345
3.4007425
3.40075
3.4007569
3.4007633
3.4007692
3.4007748
3.4007799
3.4007847
3.4007892
3.4007934
3.4007974
3.4008011
3.4008045
3.4008077
3.4008108
3.4008136
3.4008163
3.4008188
3.4008212
3.4008234
3.4008256
3.4008277
3.4008298
3.4008319
3.4008342
3.4008366
3.4008395
3.4008429
3.4008471
3.4008524
3.4008589
3.4008667
3.4008759
3.4008865
3.4008981
3.4009107
3.4009242
3.4009385
3.4009536
3.4009697
3.4009867
3.4010046
3.401023
3.4010415
3.4010593
3.4010756
3.4010897
3.4011003
3.4011063
3.401105
3.4010953
3.4010768
3.401053
3.4010374
3.4010118
3.4010493
3.4010525
3.401203
3.4011354
3.4031957
2.0865521
2.819298
2.8527834
2.8531945
2.8533161
2.8534493
2.8535409
2.8536716
2.8537545
2.8538661
2.853955
2.8540453
2.8541284
2.8542076
2.8542807
2.85435
2.8544123
2.8544675
2.8545199
2.8545662
2.8546089
2.8546469
2.8546821
2.8547137
2.8547436
2.8547706
2.854797
2.8548206
2.8548435
2.8548637
2.8548837
2.854901
2.8549178
2.8549336
2.8549466
2.8549595
2.85497
2.8549797
2.8549886
2.8549968
2.8550045
2.8550117
2.8550183
2.8550245
2.8550303
2.8550357
2.8550407
2.8550454
2.8550498
2.8550539
2.8550577
2.8550613
2.8550646
2.8550678
2.8550707
2.8550734
2.855076
2.8550783
2.8550806
2.8550827
2.8550847
2.8550866
2.8550884
2.8550903
2.8550923
2.8550946
2.8550973
2.8551007
2.855105
2.8551103
2.8551169
2.8551248
2.855134
2.8551444
2.855156
2.8551687
2.8551826
2.855198
2.8552149
2.8552336
2.8552541
2.8552761
2.8552994
2.8553235
2.855348
2.8553723
2.8553958
2.8554178
2.8554359
2.8554497
2.8554572
2.8554637
2.8554786
2.8554962
2.8555759
2.8556397
2.85581
2.8557965
2.8575719
2.5828282
2.4157407
2.4386729
2.4393174
2.4393484
2.4394604
2.4394736
2.4395692
2.4395978
2.4396711
2.4397182
2.4397751
2.4398277
2.4398811
2.4399314
2.4399798
2.4400226
2.44006
2.4400979
2.4401332
2.4401669
2.4401981
2.4402274
2.4402543
2.4402799
2.4403034
2.440326
2.4403462
2.4403656
2.4403831
2.4403999
2.4404147
2.4404286
2.4404415
2.4404526
2.4404632
2.4404725
2.4404811
2.4404891
2.4404965
2.4405033
2.4405098
2.4405156
2.4405213
2.4405266
2.4405315
2.440536
2.4405402
2.4405442
2.4405479
2.4405513
2.4405545
2.4405575
2.4405603
2.4405629
2.4405653
2.4405675
2.4405696
2.4405715
2.4405733
2.4405749
2.4405764
2.4405779
2.4405794
2.4405809
2.4405826
2.4405847
2.4405873
2.4405907
2.440595
2.4406004
2.4406069
2.4406146
2.4406233
2.4406329
2.4406436
2.4406555
2.4406688
2.4406838
2.4407007
2.4407197
2.4407406
2.4407635
2.440788
2.4408139
2.4408411
2.4408695
2.4408987
2.4409271
2.4409554
2.440981
2.4410098
2.4410482
2.4411017
2.4412078
2.4413315
2.4415324
2.441712
2.4484222
2.989023
2.1214756
2.1161706
2.1165042
2.1164858
2.1165351
2.1165091
2.1165487
2.1165446
2.1165699
2.1165813
2.116601
2.1166204
2.1166426
2.1166639
2.1166859
2.1167057
2.1167237
2.1167442
2.1167644
2.1167847
2.1168038
2.1168223
2.1168396
2.1168564
2.1168721
2.1168871
2.1169008
2.1169139
2.1169259
2.1169374
2.1169478
2.1169576
2.1169665
2.1169747
2.1169822
2.1169891
2.1169955
2.1170015
2.117007
2.1170122
2.1170171
2.1170217
2.1170261
2.1170301
2.1170339
2.1170374
2.1170407
2.1170438
2.1170467
2.1170493
2.1170518
2.1170541
2.1170563
2.1170583
2.1170601
2.1170618
2.1170634
2.1170648
2.1170661
2.1170673
2.1170683
2.1170693
2.1170703
2.1170713
2.1170724
2.1170738
2.1170757
2.1170783
2.1170815
2.1170857
2.1170909
2.1170969
2.1171037
2.1171112
2.1171195
2.1171286
2.117139
2.1171508
2.1171643
2.1171796
2.1171967
2.1172156
2.1172362
2.1172584
2.1172823
2.1173079
2.1173354
2.1173634
2.1173928
2.1174212
2.1174546
2.1174963
2.1175567
2.1176518
2.1177888
2.117988
2.1182861
2.1202379
3.232855
1.9210116
1.8852715
1.8852446
1.8852179
1.8852061
1.8851794
1.885174
1.8851613
1.8851564
1.8851512
1.8851499
1.8851504
1.8851536
1.8851569
1.8851623
1.8851675
1.8851729
1.8851805
1.8851886
1.885197
1.8852052
1.8852136
1.8852218
1.8852301
1.8852379
1.8852456
1.8852528
1.8852598
1.8852663
1.8852726
1.8852785
1.8852841
1.8852893
1.8852942
1.8852987
1.8853029
1.8853068
1.8853104
1.8853139
1.8853171
1.8853201
1.8853231
1.8853259
1.8853284
1.8853308
1.8853331
1.8853352
1.8853372
1.885339
1.8853408
1.8853424
1.8853439
1.8853453
1.8853465
1.8853477
1.8853488
1.8853498
1.8853506
1.8853514
1.8853521
1.8853526
1.8853531
1.8853535
1.8853539
1.8853545
1.8853552
1.8853563
1.8853578
1.88536
1.8853629
1.8853665
1.8853709
1.8853757
1.8853809
1.8853866
1.8853928
1.8853998
1.8854079
1.8854173
1.885428
1.8854402
1.8854536
1.8854683
1.8854844
1.8855019
1.8855208
1.8855413
1.8855618
1.8855834
1.8856039
1.8856286
1.8856584
1.8857039
1.8857686
1.8858769
1.8860245
1.8862685
1.8917194
3.3548181
1.7994
1.7421863
1.7419566
1.7419402
1.7419116
1.741895
1.7418766
1.7418657
1.7418535
1.7418455
1.7418385
1.7418337
1.7418307
1.741828
1.7418274
1.7418268
1.741827
1.7418281
1.74183
1.741832
1.7418343
1.741837
1.7418398
1.7418428
1.7418457
1.7418488
1.7418516
1.7418545
1.7418573
1.74186
1.7418626
1.7418652
1.7418675
1.7418699
1.741872
1.7418741
1.741876
1.7418778
1.7418796
1.7418812
1.7418827
1.7418843
1.7418857
1.741887
1.7418882
1.7418894
1.7418905
1.7418916
1.7418925
1.7418935
1.7418943
1.7418951
1.7418958
1.7418965
1.7418971
1.7418976
1.7418981
1.7418985
1.7418988
1.741899
1.7418991
1.7418991
1.7418991
1.741899
1.7418989
1.741899
1.7418993
1.7419001
1.7419013
1.741903
1.7419053
1.7419081
1.7419112
1.7419144
1.7419178
1.7419215
1.7419257
1.7419306
1.7419364
1.7419431
1.7419508
1.7419594
1.7419688
1.741979
1.7419903
1.7420024
1.7420151
1.742027
1.7420386
1.7420484
1.7420604
1.7420757
1.7421014
1.7421353
1.7421964
1.7422741
1.742455
1.7458098
3.408054
1.7348165
1.666335
1.6660432
1.6660358
1.6660162
1.6660083
1.6659956
1.6659891
1.6659804
1.665975
1.6659697
1.6659658
1.6659627
1.6659599
1.6659584
1.6659566
1.6659559
1.665955
1.665955
1.6659549
1.665955
1.6659555
1.6659561
1.6659568
1.6659575
1.6659584
1.6659591
1.66596
1.6659609
1.6659618
1.6659627
1.6659635
1.6659645
1.6659653
1.6659661
1.6659669
1.6659675
1.6659684
1.665969
1.6659696
1.6659703
1.6659709
1.6659714
1.665972
1.6659725
1.665973
1.6659734
1.6659739
1.6659743
1.6659747
1.665975
1.6659754
1.6659756
1.6659759
1.6659761
1.6659763
1.6659764
1.6659765
1.6659765
1.6659764
1.6659762
1.6659758
1.6659754
1.6659749
1.6659744
1.6659741
1.6659739
1.665974
1.6659746
1.6659756
1.665977
1.6659789
1.6659808
1.6659827
1.6659846
1.6659865
1.6659887
1.6659914
1.6659948
1.6659988
1.6660035
1.6660087
1.6660145
1.6660209
1.6660278
1.6660349
1.6660418
1.6660472
1.666051
1.6660524
1.6660539
1.6660576
1.6660685
1.6660853
1.6661191
1.666156
1.6662557
1.6690119
3.4285751
1.7048031
1.6316117
1.6313145
1.6313107
1.6313017
1.6312985
1.6312931
1.6312901
1.6312861
1.6312837
1.6312809
1.631279
1.6312773
1.6312757
1.6312749
1.6312735
1.6312732
1.6312722
1.6312719
1.6312716
1.6312713
1.6312711
1.6312712
1.6312712
1.6312712
1.6312713
1.6312714
1.6312715
1.6312717
1.6312719
1.6312721
1.6312722
1.6312725
1.6312726
1.6312729
1.631273
1.6312732
1.6312735
1.6312736
1.6312738
1.631274
1.6312741
1.6312743
1.6312744
1.6312746
1.6312747
1.6312748
1.631275
1.6312751
1.6312752
1.6312753
1.6312754
1.6312754
1.6312755
1.6312755
1.6312754
1.6312754
1.6312752
1.631275
1.6312747
1.6312743
1.6312738
1.6312731
1.6312724
1.6312717
1.631271
1.6312705
1.6312703
1.6312705
1.631271
1.631272
1.6312733
1.6312747
1.6312759
1.6312769
1.6312779
1.631279
1.6312805
1.6312825
1.6312851
1.6312882
1.6312917
1.6312956
1.6312998
1.6313044
1.6313087
1.6313121
1.6313136
1.6313129
1.6313096
1.6313055
1.6313034
1.6313067
1.6313149
1.6313336
1.6313486
1.6313862
1.6305701
3.435509
1.6924697
1.6176727
1.6173814
1.6173786
1.6173753
1.6173739
1.6173724
1.6173712
1.6173697
1.617369
1.6173679
1.6173673
1.6173665
1.6173658
1.6173657
1.6173647
1.617365
1.6173642
1.6173642
1.6173639
1.6173637
1.6173636
1.6173635
1.6173634
1.6173633
1.6173633
1.6173632
1.6173631
1.6173631
1.6173631
1.617363
1.617363
1.617363
1.617363
1.617363
1.617363
1.617363
1.617363
1.6173629
1.617363
1.617363
1.6173629
1.6173629
1.6173629
1.6173629
1.6173629
1.6173629
1.6173629
1.6173629
1.6173628
1.6173628
1.6173628
1.6173627
1.6173627
1.6173626
1.6173625
1.6173623
1.6173621
1.6173618
1.6173613
1.6173608
1.6173601
1.6173593
1.6173584
1.6173575
1.6173566
1.617356
1.6173556
1.6173556
1.617356
1.6173568
1.617358
1.6173592
1.6173601
1.6173607
1.6173613
1.6173618
1.6173628
1.6173642
1.6173662
1.6173686
1.6173715
1.6173746
1.617378
1.6173814
1.6173844
1.6173862
1.6173858
1.6173829
1.6173774
1.6173711
1.6173673
1.6173691
1.6173752
1.6173869
1.6173911
1.6174079
1.6199782
3.4374778
1.6879166
1.6126919
1.6124054
1.6124027
1.6124016
1.612401
1.6124007
1.6124002
1.6123998
1.6123997
1.6123994
1.612399
1.6123989
1.6123987
1.6123988
1.6123981
1.6123986
1.612398
1.6123982
1.612398
1.6123979
1.6123978
1.6123978
1.6123978
1.6123976
1.6123976
1.6123976
1.6123974
1.6123974
1.6123973
1.6123972
1.6123972
1.6123971
1.6123971
1.612397
1.6123969
1.6123969
1.6123968
1.6123968
1.6123967
1.6123966
1.6123965
1.6123965
1.6123964
1.6123964
1.6123963
1.6123962
1.6123962
1.6123962
1.6123961
1.612396
1.612396
1.6123959
1.6123958
1.6123956
1.6123955
1.6123953
1.612395
1.6123946
1.6123941
1.6123935
1.6123928
1.6123919
1.6123908
1.6123898
1.6123888
1.612388
1.6123876
1.6123875
1.6123879
1.6123888
1.6123899
1.6123911
1.6123919
1.6123925
1.6123928
1.6123931
1.6123938
1.612395
1.6123967
1.612399
1.6124017
1.6124046
1.6124077
1.6124108
1.6124132
1.6124143
1.6124132
1.6124096
1.6124037
1.6123972
1.6123939
1.612396
1.612398
1.6123974
1.6123932
1.6124093
1.6179532
3.4378584
1.6863737
1.6110868
1.6108033
1.6108005
1.6108
1.6107998
1.6107999
1.6107995
1.6107993
1.6107995
1.6107995
1.6107991
1.6107992
1.6107993
1.6107993
1.6107989
1.6107994
1.6107989
1.6107992
1.6107989
1.610799
1.610799
1.6107989
1.6107989
1.6107988
1.6107987
1.6107987
1.6107987
1.6107986
1.6107986
1.6107985
1.6107984
1.6107984
1.6107983
1.6107982
1.6107982
1.6107981
1.610798
1.6107979
1.6107978
1.6107978
1.6107977
1.6107976
1.6107976
1.6107975
1.6107974
1.6107973
1.6107973
1.6107972
1.6107971
1.610797
1.610797
1.6107969
1.6107968
1.6107966
1.6107964
1.6107962
1.6107959
1.6107955
1.610795
1.6107943
1.6107935
1.6107925
1.6107914
1.6107902
1.6107891
1.6107883
1.6107878
1.6107878
1.6107882
1.6107891
1.6107904
1.6107916
1.6107925
1.610793
1.6107933
1.6107934
1.610794
1.610795
1.6107967
1.610799
1.6108018
1.6108048
1.6108079
1.6108107
1.6108129
1.6108139
1.6108127
1.6108092
1.6108034
1.6107973
1.6107945
1.6107969
1.6107985
1.6107945
1.6107831
1.6107721
1.6138472
3.437862
1.6858776
1.6106149
1.6103333
1.6103303
1.61033
1.61033
1.6103301
1.6103298
1.6103297
1.6103299
1.61033
1.6103297
1.6103298
1.6103299
1.6103299
1.6103297
1.6103299
1.6103297
1.6103299
1.6103297
1.6103297
1.6103298
1.6103297
1.6103297
1.6103297
1.6103296
1.6103296
1.6103296
1.6103295
1.6103294
1.6103294
1.6103293
1.6103293
1.6103292
1.6103292
1.6103291
1.610329
1.6103289
1.6103289
1.6103288
1.6103287
1.6103287
1.6103286
1.6103285
1.6103284
1.6103284
1.6103283
1.6103283
1.6103282
1.6103281
1.610328
1.610328
1.6103278
1.6103277
1.6103276
1.6103274
1.6103271
1.6103268
1.6103264
1.6103258
1.6103251
1.6103242
1.6103231
1.6103219
1.6103207
1.6103196
1.6103187
1.6103182
1.6103181
1.6103186
1.6103196
1.610321
1.6103224
1.6103233
1.6103238
1.610324
1.6103241
1.6103245
1.6103255
1.6103272
1.6103296
1.6103325
1.6103356
1.6103387
1.6103415
1.6103436
1.6103446
1.6103437
1.6103409
1.6103357
1.6103298
1.6103266
1.6103278
1.6103307
1.6103318
1.6103249
1.6103065
1.6140349
3.4377951
1.6857144
1.6104871
1.6102066
1.6102037
1.6102034
1.6102034
1.6102035
1.6102033
1.6102032
1.6102034
1.6102034
1.6102033
1.6102033
1.6102033
1.6102034
1.6102033
1.6102034
1.6102032
1.6102035
1.6102033
1.6102033
1.6102033
1.6102034
1.6102033
1.6102033
1.6102033
1.6102032
1.6102032
1.6102032
1.6102031
1.6102031
1.610203
1.610203
1.6102029
1.6102029
1.6102028
1.6102027
1.6102027
1.6102026
1.6102026
1.6102025
1.6102024
1.6102023
1.6102023
1.6102022
1.6102022
1.6102021
1.610202
1.6102019
1.6102019
1.6102018
1.6102017
1.6102016
1.6102015
1.6102013
1.6102011
1.6102009
1.6102005
1.6102001
1.6101995
1.6101987
1.6101978
1.6101966
1.6101954
1.610194
1.6101928
1.6101919
1.6101914
1.6101913
1.6101919
1.610193
1.6101945
1.610196
1.610197
1.6101975
1.6101976
1.6101976
1.6101979
1.6101988
1.6102005
1.610203
1.610206
1.6102092
1.6102124
1.6102153
1.6102174
1.6102187
1.6102182
1.610216
1.6102116
1.6102061
1.6102022
1.6102015
1.610203
1.6102036
1.6102012
1.6101984
1.6149454
3.4376804
1.6856521
1.610455
1.6101752
1.6101724
1.610172
1.610172
1.6101721
1.6101719
1.6101718
1.610172
1.610172
1.6101719
1.610172
1.6101719
1.610172
1.6101719
1.6101721
1.6101719
1.6101721
1.610172
1.6101719
1.610172
1.610172
1.6101719
1.6101719
1.6101719
1.6101719
1.6101718
1.6101718
1.6101718
1.6101717
1.6101717
1.6101716
1.6101716
1.6101716
1.6101715
1.6101714
1.6101714
1.6101713
1.6101713
1.6101712
1.6101711
1.6101711
1.610171
1.610171
1.6101709
1.6101708
1.6101708
1.6101707
1.6101707
1.6101706
1.6101705
1.6101704
1.6101703
1.6101701
1.6101699
1.6101696
1.6101693
1.6101688
1.6101682
1.6101674
1.6101664
1.6101652
1.6101638
1.6101624
1.6101611
1.6101601
1.6101596
1.6101596
1.6101601
1.6101614
1.610163
1.6101646
1.6101657
1.6101662
1.6101663
1.6101661
1.6101663
1.6101671
1.6101687
1.6101712
1.6101745
1.6101779
1.6101813
1.6101842
1.6101864
1.6101878
1.6101877
1.610186
1.6101822
1.6101774
1.6101739
1.6101718
1.6101697
1.6101673
1.610168
1.6101823
1.6173256
3.4375871
1.6856214
1.6104473
1.6101681
1.6101652
1.6101649
1.6101649
1.6101649
1.6101648
1.6101647
1.6101648
1.6101649
1.6101648
1.6101648
1.6101648
1.6101649
1.6101648
1.6101649
1.6101647
1.6101649
1.6101649
1.6101648
1.6101648
1.6101649
1.6101648
1.6101648
1.6101648
1.6101648
1.6101647
1.6101647
1.6101647
1.6101646
1.6101646
1.6101646
1.6101645
1.6101645
1.6101644
1.6101644
1.6101643
1.6101643
1.6101642
1.6101642
1.6101641
1.6101641
1.610164
1.610164
1.6101639
1.6101638
1.6101638
1.6101638
1.6101637
1.6101636
1.6101635
1.6101634
1.6101633
1.6101632
1.610163
1.6101626
1.6101623
1.6101618
1.6101612
1.6101603
1.6101593
1.610158
1.6101566
1.6101551
1.6101537
1.6101527
1.6101521
1.610152
1.6101527
1.610154
1.6101557
1.6101574
1.6101586
1.6101592
1.6101592
1.6101589
1.6101588
1.6101595
1.6101611
1.6101637
1.6101671
1.6101708
1.6101744
1.6101775
1.6101797
1.6101811
1.6101811
1.6101799
1.6101769
1.610173
1.6101702
1.6101682
1.6101643
1.6101577
1.6101568
1.6101652
1.6155387
3.4375061
1.6856015
1.6104457
1.6101669
1.610164
1.6101637
1.6101636
1.6101637
1.6101636
1.6101635
1.6101636
1.6101637
1.6101636
1.6101636
1.6101636
1.6101637
1.6101635
1.6101637
1.6101635
1.6101637
1.6101636
1.6101636
1.6101636
1.6101636
1.6101635
1.6101635
1.6101635
1.6101635
1.6101634
1.6101634
1.6101634
1.6101633
1.6101633
1.6101633
1.6101632
1.6101632
1.6101631
1.6101631
1.6101631
1.610163
1.610163
1.610163
1.6101629
1.6101629
1.6101628
1.6101627
1.6101627
1.6101626
1.6101626
1.6101625
1.6101625
1.6101624
1.6101623
1.6101622
1.6101621
1.6101619
1.6101617
1.6101614
1.6101611
1.6101605
1.6101599
1.610159
1.6101579
1.6101566
1.6101551
1.6101535
1.6101521
1.610151
1.6101503
1.6101503
1.6101509
1.6101523
1.6101542
1.610156
1.6101573
1.6101579
1.6101579
1.6101575
1.6101573
1.6101578
1.6101592
1.6101618
1.6101653
1.6101693
1.6101732
1.6101767
1.6101791
1.6101803
1.61018
1.6101785
1.6101759
1.610173
1.6101716
1.6101701
1.6101664
1.610161
1.6101637
1.6101821
1.6165688
3.4374319
1.6855857
1.6104453
1.6101668
1.6101639
1.6101636
1.6101635
1.6101636
1.6101635
1.6101634
1.6101635
1.6101635
1.6101634
1.6101634
1.6101635
1.6101635
1.6101634
1.6101635
1.6101634
1.6101635
1.6101634
1.6101634
1.6101634
1.6101634
1.6101633
1.6101633
1.6101633
1.6101633
1.6101632
1.6101632
1.6101632
1.6101632
1.6101632
1.6101631
1.6101631
1.6101631
1.610163
1.610163
1.610163
1.6101629
1.6101629
1.6101628
1.6101628
1.6101627
1.6101627
1.6101626
1.6101626
1.6101625
1.6101625
1.6101624
1.6101624
1.6101623
1.6101622
1.6101621
1.610162
1.6101618
1.6101616
1.6101613
1.610161
1.6101604
1.6101597
1.6101589
1.6101577
1.6101564
1.6101548
1.6101532
1.6101517
1.6101505
1.6101498
1.6101497
1.6101504
1.6101518
1.6101539
1.6101558
1.6101572
1.6101579
1.6101578
1.6101573
1.6101569
1.6101572
1.6101585
1.610161
1.6101647
1.6101689
1.6101733
1.6101771
1.6101796
1.6101805
1.6101797
1.6101777
1.6101748
1.6101727
1.6101734
1.6101749
1.6101753
1.6101773
1.6101791
1.6102015
1.6145742
3.4373637
1.6855726
1.6104452
1.6101669
1.610164
1.6101637
1.6101636
1.6101636
1.6101635
1.6101635
1.6101636
1.6101636
1.6101635
1.6101635
1.6101635
1.6101636
1.6101635
1.6101636
1.6101634
1.6101635
1.6101635
1.6101635
1.6101635
1.6101635
1.6101634
1.6101634
1.6101635
1.6101634
1.6101634
1.6101634
1.6101634
1.6101633
1.6101634
1.6101633
1.6101633
1.6101633
1.6101632
1.6101632
1.6101632
1.6101631
1.6101631
1.610163
1.610163
1.610163
1.6101629
1.6101629
1.6101628
1.6101628
1.6101627
1.6101626
1.6101626
1.6101625
1.6101625
1.6101624
1.6101623
1.6101621
1.6101619
1.6101616
1.6101612
1.6101607
1.61016
1.6101591
1.6101579
1.6101565
1.6101549
1.6101533
1.6101517
1.6101504
1.6101497
1.6101495
1.6101502
1.6101517
1.6101538
1.6101559
1.6101574
1.6101581
1.6101581
1.6101575
1.6101569
1.6101569
1.6101579
1.6101603
1.6101641
1.6101688
1.6101735
1.6101779
1.6101806
1.6101813
1.6101798
1.6101772
1.6101736
1.6101719
1.6101741
1.6101787
1.6101832
1.6101952
1.6101951
1.6102051
1.6152931
3.4373007
1.6855616
1.6104454
1.6101673
1.6101644
1.6101641
1.610164
1.610164
1.6101639
1.6101639
1.6101639
1.610164
1.6101639
1.6101639
1.6101639
1.610164
1.6101639
1.610164
1.6101639
1.610164
1.6101639
1.6101639
1.6101639
1.6101639
1.6101639
1.6101639
1.6101639
1.6101639
1.6101638
1.6101638
1.6101638
1.6101638
1.6101638
1.6101638
1.6101637
1.6101637
1.6101637
1.6101636
1.6101636
1.6101635
1.6101635
1.6101635
1.6101634
1.6101634
1.6101634
1.6101633
1.6101633
1.6101632
1.6101632
1.6101631
1.6101631
1.610163
1.610163
1.6101629
1.6101628
1.6101626
1.6101624
1.6101621
1.6101617
1.6101612
1.6101605
1.6101595
1.6101584
1.6101569
1.6101553
1.6101535
1.6101518
1.6101505
1.6101497
1.6101495
1.6101501
1.6101517
1.6101539
1.6101561
1.6101577
1.6101585
1.6101585
1.6101579
1.610157
1.6101568
1.6101575
1.6101598
1.6101636
1.6101685
1.6101737
1.6101785
1.6101815
1.6101822
1.6101803
1.610177
1.6101728
1.6101715
1.6101747
1.6101811
1.6101852
1.6102021
1.6102044
1.6102274
1.6156364
3.4372419
1.6855514
1.6104455
1.6101675
1.6101646
1.6101643
1.6101643
1.6101643
1.6101642
1.6101642
1.6101642
1.6101643
1.6101642
1.6101642
1.6101642
1.6101643
1.6101642
1.6101643
1.6101641
1.6101642
1.6101642
1.6101642
1.6101642
1.6101642
1.6101642
1.6101641
1.6101642
1.6101641
1.6101641
1.6101641
1.6101641
1.6101641
1.6101641
1.610164
1.610164
1.610164
1.610164
1.6101639
1.6101639
1.6101639
1.6101638
1.6101638
1.6101637
1.6101637
1.6101637
1.6101636
1.6101636
1.6101636
1.6101635
1.6101635
1.6101635
1.6101634
1.6101633
1.6101632
1.6101631
1.6101629
1.6101628
1.6101625
1.6101621
1.6101615
1.6101608
1.6101599
1.6101587
1.6101572
1.6101555
1.6101537
1.610152
1.6101506
1.6101496
1.6101494
1.61015
1.6101516
1.6101539
1.6101562
1.6101579
1.6101589
1.6101589
1.6101582
1.6101572
1.6101566
1.6101571
1.6101591
1.6101628
1.610168
1.6101735
1.6101787
1.610182
1.6101828
1.6101807
1.6101771
1.6101725
1.6101718
1.610176
1.6101849
1.610186
1.610195
1.6101957
1.610212
1.6162491
3.4371876
1.6855421
1.6104456
1.6101677
1.6101648
1.6101645
1.6101645
1.6101645
1.6101644
1.6101644
1.6101644
1.6101645
1.6101644
1.6101644
1.6101644
1.6101645
1.6101644
1.6101645
1.6101644
1.6101645
1.6101644
1.6101644
1.6101644
1.6101645
1.6101644
1.6101644
1.6101644
1.6101644
1.6101644
1.6101644
1.6101644
1.6101643
1.6101643
1.6101643
1.6101643
1.6101643
1.6101642
1.6101642
1.6101642
1.6101641
1.6101641
1.6101641
1.610164
1.610164
1.610164
1.610164
1.6101639
1.6101639
1.6101639
1.6101638
1.6101638
1.6101637
1.6101636
1.6101635
1.6101634
1.6101633
1.6101631
1.6101628
1.6101624
1.6101619
1.6101612
1.6101602
1.610159
1.6101575
1.6101558
1.6101539
1.6101521
1.6101506
1.6101496
1.6101493
1.6101499
1.6101514
1.6101538
1.6101563
1.6101581
1.6101591
1.6101593
1.6101585
1.6101574
1.6101566
1.6101567
1.6101584
1.6101619
1.6101671
1.6101729
1.6101783
1.610182
1.6101832
1.6101815
1.610178
1.6101735
1.6101728
1.6101764
1.6101879
1.6101907
1.6101985
1.6101965
1.6102065
1.6144515
3.4371362
1.685534
1.6104459
1.6101682
1.6101653
1.610165
1.6101649
1.6101649
1.6101648
1.6101648
1.6101649
1.6101649
1.6101648
1.6101648
1.6101649
1.6101649
1.6101648
1.6101649
1.6101648
1.6101649
1.6101649
1.6101648
1.6101648
1.6101649
1.6101648
1.6101648
1.6101648
1.6101648
1.6101647
1.6101648
1.6101647
1.6101647
1.6101647
1.6101647
1.6101646
1.6101646
1.6101646
1.6101645
1.6101645
1.6101645
1.6101645
1.6101645
1.6101644
1.6101644
1.6101644
1.6101644
1.6101643
1.6101643
1.6101643
1.6101642
1.6101642
1.6101641
1.6101641
1.610164
1.6101639
1.6101637
1.6101635
1.6101632
1.6101628
1.6101623
1.6101616
1.6101606
1.6101594
1.6101579
1.6101561
1.6101542
1.6101524
1.6101508
1.6101497
1.6101493
1.6101498
1.6101514
1.6101538
1.6101563
1.6101583
1.6101595
1.6101597
1.610159
1.6101578
1.6101567
1.6101565
1.6101578
1.6101611
1.6101661
1.6101719
1.6101774
1.6101816
1.6101835
1.6101826
1.6101802
1.6101765
1.6101759
1.6101775
1.6101887
1.6101932
1.6102044
1.6102014
1.6101821
1.6149931
3.4370873
1.6855265
1.6104461
1.6101685
1.6101656
1.6101653
1.6101652
1.6101652
1.6101651
1.6101651
1.6101651
1.6101652
1.6101651
1.6101651
1.6101651
1.6101651
1.6101651
1.6101651
1.6101651
1.6101651
1.6101651
1.6101651
1.6101651
1.6101651
1.610165
1.610165
1.610165
1.610165
1.610165
1.610165
1.610165
1.6101649
1.6101649
1.6101649
1.6101649
1.6101649
1.6101649
1.6101649
1.6101649
1.6101648
1.6101648
1.6101648
1.6101648
1.6101648
1.6101647
1.6101647
1.6101647
1.6101646
1.6101646
1.6101645
1.6101645
1.6101645
1.6101644
1.6101643
1.6101642
1.6101641
1.6101639
1.6101636
1.6101632
1.6101627
1.610162
1.610161
1.6101598
1.6101583
1.6101565
1.6101546
1.6101526
1.610151
1.6101498
1.6101493
1.6101498
1.6101513
1.6101537
1.6101564
1.6101585
1.6101598
1.6101601
1.6101595
1.6101582
1.6101569
1.6101564
1.6101573
1.6101602
1.6101649
1.6101705
1.6101761
1.6101805
1.6101831
1.6101832
1.6101822
1.61018
1.6101809
1.6101816
1.6101893
1.6101911
1.6101954
1.6101943
1.6101891
1.615331
3.4370395
1.6855194
1.6104461
1.6101685
1.6101657
1.6101654
1.6101653
1.6101653
1.6101652
1.6101652
1.6101652
1.6101652
1.6101652
1.6101652
1.6101652
1.6101652
1.6101652
1.6101652
1.6101652
1.6101652
1.6101652
1.6101652
1.6101652
1.6101652
1.6101652
1.6101652
1.6101652
1.6101652
1.6101652
1.6101652
1.6101652
1.6101652
1.6101652
1.6101652
1.6101652
1.6101652
1.6101651
1.6101651
1.6101651
1.6101651
1.6101651
1.6101651
1.610165
1.610165
1.610165
1.610165
1.6101649
1.6101649
1.6101649
1.6101648
1.6101648
1.6101648
1.6101647
1.6101646
1.6101645
1.6101644
1.6101642
1.6101639
1.6101635
1.610163
1.6101623
1.6101614
1.6101602
1.6101586
1.6101568
1.6101549
1.6101529
1.6101512
1.6101499
1.6101493
1.6101497
1.6101512
1.6101536
1.6101563
1.6101585
1.61016
1.6101605
1.6101599
1.6101586
1.6101571
1.6101563
1.6101568
1.6101592
1.6101634
1.6101688
1.6101743
1.6101789
1.6101822
1.6101832
1.6101835
1.6101828
1.6101855
1.6101874
1.6101931
1.6101926
1.6101922
1.6101879
1.6101655
1.6138886
3.4369943
1.685513
1.6104463
1.6101689
1.610166
1.6101657
1.6101657
1.6101657
1.6101656
1.6101656
1.6101656
1.6101656
1.6101656
1.6101656
1.6101656
1.6101656
1.6101656
1.6101656
1.6101656
1.6101656
1.6101656
1.6101656
1.6101656
1.6101656
1.6101656
1.6101656
1.6101656
1.6101656
1.6101656
1.6101656
1.6101656
1.6101656
1.6101656
1.6101656
1.6101655
1.6101655
1.6101655
1.6101655
1.6101655
1.6101654
1.6101654
1.6101654
1.6101654
1.6101654
1.6101653
1.6101653
1.6101653
1.6101653
1.6101653
1.6101652
1.6101652
1.6101652
1.6101651
1.610165
1.6101649
1.6101648
1.6101646
1.6101643
1.6101639
1.6101634
1.6101627
1.6101618
1.6101605
1.610159
1.6101572
1.6101553
1.6101532
1.6101514
1.6101501
1.6101494
1.6101497
1.6101512
1.6101536
1.6101563
1.6101586
1.6101602
1.6101609
1.6101605
1.6101591
1.6101575
1.6101565
1.6101566
1.6101585
1.6101622
1.6101671
1.6101724
1.6101771
1.6101809
1.6101829
1.6101845
1.6101853
1.6101899
1.6101925
1.6101978
1.610198
1.6101971
1.6101917
1.6101758
1.6121763
3.4369497
1.6855068
1.6104467
1.6101693
1.6101664
1.6101661
1.6101661
1.6101661
1.610166
1.610166
1.610166
1.610166
1.610166
1.610166
1.610166
1.610166
1.610166
1.610166
1.610166
1.610166
1.610166
1.610166
1.610166
1.610166
1.610166
1.610166
1.610166
1.610166
1.6101659
1.6101659
1.6101659
1.6101659
1.6101659
1.6101659
1.6101659
1.6101659
1.6101658
1.6101658
1.6101658
1.6101658
1.6101658
1.6101658
1.6101658
1.6101658
1.6101658
1.6101657
1.6101657
1.6101657
1.6101657
1.6101656
1.6101656
1.6101655
1.6101655
1.6101654
1.6101653
1.6101651
1.610165
1.6101647
1.6101643
1.6101638
1.6101631
1.6101622
1.610161
1.6101595
1.6101577
1.6101557
1.6101536
1.6101518
1.6101503
1.6101496
1.6101498
1.6101512
1.6101536
1.6101564
1.6101588
1.6101605
1.6101613
1.610161
1.6101597
1.610158
1.6101567
1.6101565
1.610158
1.6101612
1.6101655
1.6101702
1.6101748
1.6101788
1.6101817
1.6101851
1.6101875
1.6101939
1.610197
1.610202
1.6102013
1.6101985
1.6101926
1.6101835
1.6132596
3.4369062
1.6855006
1.6104467
1.6101694
1.6101665
1.6101662
1.6101662
1.6101662
1.6101661
1.6101661
1.6101661
1.6101661
1.6101661
1.6101661
1.6101661
1.6101661
1.6101661
1.6101661
1.6101661
1.6101661
1.6101661
1.6101661
1.6101661
1.6101661
1.6101661
1.6101661
1.6101661
1.6101661
1.6101661
1.6101661
1.6101661
1.6101661
1.6101661
1.6101661
1.6101661
1.6101661
1.6101661
1.6101661
1.6101661
1.6101661
1.6101661
1.6101661
1.610166
1.610166
1.610166
1.610166
1.610166
1.6101659
1.6101659
1.6101659
1.6101658
1.6101658
1.6101657
1.6101657
1.6101656
1.6101654
1.6101653
1.610165
1.6101647
1.6101641
1.6101634
1.6101625
1.6101613
1.6101599
1.6101581
1.610156
1.6101539
1.610152
1.6101506
1.6101498
1.6101499
1.6101512
1.6101535
1.6101563
1.6101588
1.6101606
1.6101615
1.6101614
1.6101602
1.6101584
1.6101569
1.6101564
1.6101575
1.6101603
1.6101639
1.610168
1.6101719
1.6101757
1.6101795
1.6101846
1.6101893
1.6101974
1.6102014
1.6102053
1.6102014
1.6101926
1.6101841
1.610207
1.6163727
3.4368634
1.6854947
1.6104469
1.6101696
1.6101667
1.6101664
1.6101664
1.6101664
1.6101663
1.6101663
1.6101663
1.6101663
1.6101663
1.6101663
1.6101663
1.6101663
1.6101663
1.6101663
1.6101663
1.6101663
1.6101663
1.6101663
1.6101663
1.6101664
1.6101663
1.6101663
1.6101664
1.6101664
1.6101664
1.6101664
1.6101664
1.6101664
1.6101664
1.6101664
1.6101664
1.6101664
1.6101664
1.6101664
1.6101664
1.6101664
1.6101663
1.6101663
1.6101663
1.6101663
1.6101663
1.6101662
1.6101662
1.6101662
1.6101662
1.6101661
1.6101661
1.6101661
1.610166
1.610166
1.6101659
1.6101657
1.6101656
1.6101653
1.610165
1.6101645
1.6101638
1.6101629
1.6101617
1.6101602
1.6101584
1.6101564
1.6101543
1.6101524
1.6101509
1.61015
1.61015
1.6101512
1.6101534
1.6101562
1.6101588
1.6101607
1.6101618
1.6101618
1.6101607
1.6101589
1.6101572
1.6101565
1.6101573
1.6101597
1.6101628
1.610166
1.610169
1.6101723
1.6101765
1.610183
1.6101905
1.6102008
1.6102061
1.6102082
1.6102015
1.610191
1.6101832
1.6101934
1.615106
3.4368213
1.6854893
1.6104474
1.6101702
1.6101673
1.610167
1.6101669
1.6101669
1.6101668
1.6101668
1.6101669
1.6101669
1.6101668
1.6101668
1.6101669
1.6101669
1.6101668
1.6101669
1.6101668
1.6101669
1.6101669
1.6101669
1.6101669
1.6101669
1.6101669
1.6101669
1.6101669
1.6101669
1.6101669
1.6101669
1.6101669
1.6101669
1.6101669
1.6101669
1.6101669
1.6101669
1.6101668
1.6101668
1.6101668
1.6101668
1.6101668
1.6101667
1.6101667
1.6101667
1.6101667
1.6101667
1.6101666
1.6101666
1.6101666
1.6101666
1.6101666
1.6101665
1.6101665
1.6101664
1.6101663
1.6101662
1.610166
1.6101657
1.6101654
1.6101649
1.6101642
1.6101633
1.6101622
1.6101607
1.6101589
1.6101569
1.6101548
1.6101529
1.6101513
1.6101504
1.6101503