/*--------------------------------*- C++ -*----------------------------------*\
| =========                 |                                                 |
| \\      /  F ield         | OpenFOAM: The Open Source CFD Toolbox           |
|  \\    /   O peration     | Version:  2406                                  |
|   \\  /    A nd           | Website:  www.openfoam.com                      |
|    \\/     M anipulation  |                                                 |
\*---------------------------------------------------------------------------*/
FoamFile
{
    version     2.0;
    format      ascii;
    arch        "LSB;label=32;scalar=64";
    class       volScalarField;
    location    "5";
    object      omega_0;
}
// * * * * * * * * * * * * * * * * * * * * * * * * * * * * * * * * * * * * * //

dimensions      [0 0 -1 0 0 0 0];

internalField   nonuniform List<scalar> 
84348
(
3.6687975
3.168114
2.7800552
2.4236777
2.114274
1.8795303
1.7230716
1.6286989
1.576067
1.5486439
1.5356979
1.529932
1.5270728
1.5259768
1.5266918
1.5285053
1.5322146
1.5358244
1.5386238
1.5457302
1.5480553
1.5486173
1.5468077
1.5442916
1.5450344
1.546593
1.5482135
1.5502527
1.5525082
1.5547326
1.5568964
1.5592069
1.5613941
1.5625995
1.5633333
1.5636841
1.5648688
1.5666256
1.5687918
1.5712182
1.5740398
1.5771691
1.5809313
1.5843893
1.587671
1.5904815
1.5931417
1.5958235
1.5985129
1.6012145
1.6048045
1.6078913
1.6126265
1.6160977
1.6212348
1.6252657
1.6312647
1.6370477
1.6419363
1.6498787
1.6548874
1.6610639
1.6722938
3.6681155
3.1678671
2.7824451
2.4272209
2.117803
1.8831102
1.7261004
1.6308863
1.5774725
1.5494633
1.5361736
1.5303308
1.5275069
1.5263043
1.5267308
1.5283173
1.5320077
1.5351252
1.5377764
1.5455972
1.5512284
1.5531418
1.549971
1.5455933
1.5459739
1.5474579
1.5480653
1.5491206
1.5507167
1.5525775
1.5550511
1.5576662
1.5604628
1.5625121
1.5643256
1.5651951
1.5661052
1.5673325
1.5695492
1.5718844
1.5746444
1.5773126
1.5805091
1.583753
1.5872631
1.5902158
1.5932883
1.5955406
1.5980916
1.6003635
1.6025965
1.6057633
1.6084073
1.6120821
1.6148685
1.6192149
1.6223134
1.6269134
1.6311027
1.6353113
1.6409848
1.6451555
1.6542852
3.6691278
3.1695318
2.7843539
2.4290393
2.1202974
1.8854922
1.72832
1.6328945
1.5791851
1.5509164
1.5374321
1.5314541
1.5284944
1.5273205
1.5276828
1.5288758
1.5316387
1.5344065
1.5373157
1.5460661
1.5529058
1.5544546
1.5512333
1.5464299
1.5462156
1.5474922
1.5483978
1.5492575
1.5500305
1.5510908
1.5528882
1.5550205
1.5579247
1.5605024
1.5632935
1.5651743
1.566638
1.5674104
1.5693904
1.5716439
1.5745757
1.5772594
1.580626
1.5836839
1.5876116
1.5908326
1.5941892
1.5970342
1.5994107
1.6019683
1.6036125
1.6068409
1.6084571
1.6121699
1.6142644
1.6179851
1.6209112
1.6240036
1.6284751
1.6309175
1.6355471
1.6389342
1.6454075
3.6693837
3.1694207
2.7852073
2.4306383
2.1215709
1.8871071
1.7297864
1.6341305
1.5804415
1.5521987
1.5384868
1.5323545
1.5293009
1.5282506
1.5287196
1.5295523
1.53135
1.5337264
1.5366208
1.5462091
1.5546345
1.555519
1.5518945
1.5471257
1.5463558
1.5476154
1.5490509
1.5501818
1.550854
1.5515437
1.5525433
1.5538861
1.555883
1.5581579
1.5608088
1.5629109
1.5646967
1.5654696
1.5670182
1.5687184
1.5722743
1.5752364
1.5789003
1.5819722
1.5857397
1.5896788
1.5932537
1.5968448
1.5998244
1.6027376
1.6050699
1.6076408
1.6096765
1.6125832
1.6149494
1.6176487
1.6211518
1.6235467
1.6278372
1.6298359
1.6341909
1.6370154
1.6420497
3.6712108
3.1708052
2.7864516
2.4314183
2.1231962
1.8881711
1.730523
1.6349233
1.5811935
1.5527526
1.5389663
1.5324996
1.5292095
1.5282524
1.528951
1.5297636
1.5309129
1.5328589
1.5355471
1.5454038
1.5558983
1.5571742
1.5532821
1.5486346
1.5473733
1.5488692
1.5506271
1.5517058
1.5527278
1.5533627
1.5537434
1.5542695
1.5554779
1.5573047
1.5595731
1.5617845
1.563623
1.5645814
1.5649935
1.5654345
1.5672683
1.5695255
1.5731793
1.5762344
1.5800896
1.5837312
1.5875372
1.5925913
1.595355
1.5995308
1.6024933
1.6052984
1.6080961
1.6104447
1.6139451
1.6160536
1.6198019
1.6218757
1.6258239
1.6281322
1.6320096
1.6346352
1.6400266
3.6716704
3.1724852
2.7868523
2.4326415
2.1243351
1.8894942
1.7314396
1.6352995
1.5813663
1.5529085
1.5388004
1.5322825
1.5288812
1.5279532
1.52866
1.5296249
1.5305466
1.5321573
1.534308
1.543744
1.5557221
1.558596
1.5551192
1.5503185
1.548866
1.5505975
1.5521799
1.5530052
1.5545105
1.5557343
1.5562094
1.5563827
1.5569075
1.558031
1.5596203
1.5616678
1.5637181
1.5651195
1.5658152
1.5658766
1.5661989
1.5674372
1.5699542
1.5720673
1.5752172
1.5775603
1.5809045
1.5844457
1.5875117
1.5907101
1.5947565
1.5967706
1.6003544
1.6022934
1.6062695
1.6081288
1.6114437
1.6141335
1.617887
1.6203975
1.6244899
1.6266997
1.6312911
3.6741538
3.1733208
2.7885803
2.4344127
2.1269627
1.891266
1.7323824
1.6358309
1.5815732
1.5527281
1.5386893
1.5319148
1.5283108
1.5271555
1.5280419
1.5292181
1.5303475
1.5322049
1.5337613
1.5418473
1.5545508
1.559086
1.5565383
1.5517064
1.5501831
1.5515415
1.5526096
1.5532238
1.5548693
1.5566311
1.5578817
1.5583515
1.558785
1.5596803
1.5611501
1.563073
1.5652998
1.5670967
1.5680329
1.5682474
1.5680304
1.5682995
1.5697951
1.5715978
1.5740346
1.5762341
1.579014
1.5812941
1.584541
1.5868211
1.5903715
1.5921085
1.5954316
1.5970329
1.5997547
1.6011513
1.6039525
1.6059712
1.6087188
1.610439
1.6143875
1.6157679
1.6203948
3.6749217
3.1752681
2.7899554
2.4373925
2.1301474
1.8941347
1.7341585
1.6366158
1.581833
1.5528451
1.5383481
1.531615
1.5279138
1.5269783
1.5278629
1.5289051
1.5301906
1.5327472
1.5339002
1.5405282
1.552929
1.5589925
1.5577556
1.5532502
1.5515208
1.5520197
1.5525446
1.5529849
1.5545441
1.5562792
1.5580021
1.5590981
1.5597449
1.5603878
1.5616653
1.5634443
1.5656972
1.5683102
1.570337
1.5714548
1.5716183
1.5713413
1.5718256
1.5731486
1.5751191
1.576906
1.5792519
1.5812531
1.5839606
1.5859775
1.5892243
1.5912681
1.594285
1.5956344
1.5983277
1.5997165
1.6022333
1.6031086
1.6050861
1.606412
1.6099219
1.6108094
1.6142412
3.6758753
3.1777413
2.7934764
2.4418234
2.1346894
1.8976557
1.7365528
1.6378896
1.5823902
1.5529008
1.5384651
1.5314979
1.5279789
1.52699
1.5279378
1.5288763
1.5300257
1.5328648
1.534572
1.5403344
1.5511887
1.558667
1.559288
1.5561916
1.553735
1.5529202
1.5528623
1.5533709
1.5544993
1.5559373
1.5575347
1.5588093
1.5597815
1.5604335
1.5612843
1.5627854
1.5648128
1.5673922
1.570151
1.5721409
1.5733467
1.5736029
1.5737691
1.5744477
1.5765083
1.5782905
1.5807551
1.5826508
1.5849837
1.586835
1.5896347
1.5915182
1.5941625
1.5960579
1.598635
1.6003741
1.6020472
1.6029912
1.6052199
1.6062552
1.6088336
1.6098566
1.6114977
3.6773426
3.1793114
2.7971194
2.4464803
2.1391901
1.9013592
1.7391999
1.6397402
1.5834914
1.5535016
1.5386481
1.5317065
1.5279569
1.5273065
1.5282398
1.5290652
1.5298584
1.5329405
1.5357059
1.5415154
1.5502086
1.5583915
1.5617055
1.5607531
1.5573035
1.5549791
1.5545875
1.5550062
1.5552502
1.5562479
1.5575451
1.5587347
1.5597569
1.5605104
1.5609975
1.5617353
1.5631489
1.5651377
1.5680138
1.5706732
1.5727941
1.5740258
1.5746503
1.5750756
1.5765634
1.5782765
1.5806423
1.5825325
1.5852247
1.5872982
1.5899454
1.5918939
1.5945049
1.5966726
1.5989548
1.6007491
1.6027661
1.6041216
1.6063338
1.6072067
1.6084859
1.6100458
1.6110254
3.6774454
3.1817071
2.800978
2.4511889
2.1438356
1.9052505
1.7420522
1.6414539
1.5845661
1.5541294
1.5390263
1.5317825
1.5283025
1.5277227
1.5287785
1.5294901
1.5302069
1.5334002
1.5369451
1.543585
1.5505749
1.5587748
1.5644654
1.5652066
1.5609456
1.5576353
1.5574755
1.5574106
1.5568868
1.5573854
1.5581896
1.559295
1.5601912
1.5609361
1.5614778
1.5619684
1.5625594
1.563688
1.565653
1.5681225
1.5706951
1.5721406
1.5734516
1.5739441
1.5751442
1.576765
1.5794666
1.5816214
1.5843972
1.5862949
1.5890948
1.5911591
1.5940416
1.5958222
1.5987181
1.6003416
1.6034247
1.6047011
1.6064429
1.6076564
1.6087485
1.6105301
1.6123466
3.678858
3.1839816
2.8044068
2.4557159
2.1483035
1.9089528
1.7447109
1.6434557
1.5859126
1.5548916
1.5395988
1.5321773
1.5284087
1.5279989
1.529213
1.5299965
1.5305458
1.5337909
1.5383451
1.5459022
1.5517571
1.5592181
1.5664146
1.568964
1.5647534
1.5603374
1.559631
1.5592404
1.5588185
1.5592033
1.5594616
1.5602569
1.5609955
1.5617762
1.5622825
1.5627642
1.5631403
1.5636722
1.5648092
1.5666293
1.5691126
1.5709507
1.5723905
1.572736
1.5733085
1.5739982
1.5763508
1.5783539
1.5814229
1.5837789
1.5870917
1.5892697
1.5920064
1.5939905
1.597377
1.5991178
1.6022118
1.6035665
1.6058319
1.60752
1.6095907
1.6107351
1.6130209
3.6796847
3.1855841
2.8076324
2.45974
2.1527728
1.9129408
1.7477722
1.6452604
1.5869996
1.5556515
1.5399072
1.5323288
1.528624
1.5284125
1.529622
1.5302859
1.5308344
1.5343298
1.5403306
1.5478853
1.5528949
1.560242
1.5684593
1.5726525
1.569126
1.5636607
1.5617023
1.5615817
1.5617541
1.5617977
1.5614968
1.5616359
1.5619226
1.562626
1.5632051
1.563551
1.5640921
1.5644418
1.5650528
1.5661987
1.568054
1.5702598
1.5719243
1.572795
1.5733472
1.573249
1.5742329
1.5756908
1.5783164
1.5802925
1.5831084
1.5850883
1.5876909
1.5903674
1.5932813
1.5955053
1.5985366
1.6005541
1.6038593
1.6054902
1.6085532
1.6094067
1.6113055
3.6805499
3.1876897
2.8109945
2.4645876
2.1575838
1.9169218
1.7505748
1.6473274
1.5883579
1.5563143
1.5405725
1.5326087
1.5288241
1.5284889
1.5300043
1.530814
1.5314626
1.5353642
1.5426182
1.5497638
1.5543557
1.5615744
1.5707714
1.5762237
1.573764
1.5679741
1.5654962
1.5660703
1.5665212
1.5656322
1.5644835
1.5637089
1.5633061
1.5633553
1.56384
1.5642274
1.5647854
1.5653359
1.5657587
1.5663851
1.5677558
1.5698072
1.5716573
1.5729312
1.5737546
1.5737899
1.5742104
1.5750509
1.5767214
1.5779436
1.5803117
1.5820904
1.5846767
1.5868813
1.5886622
1.5907413
1.5934937
1.5955609
1.5984324
1.5998158
1.6031015
1.6050084
1.6075481
3.6817362
3.1893169
2.8141082
2.4685924
2.1618845
1.9206614
1.7535145
1.6491685
1.5895514
1.5572105
1.540894
1.5329455
1.5288909
1.5290378
1.530634
1.531591
1.5322117
1.5367454
1.5448609
1.5522018
1.5562512
1.5628561
1.573044
1.5800496
1.5787872
1.5735077
1.5707798
1.571914
1.5723543
1.5703388
1.5682988
1.566661
1.5653676
1.5644569
1.5643207
1.564771
1.5651218
1.5658647
1.566413
1.566954
1.5679555
1.5692946
1.5712806
1.5729545
1.5741173
1.5745943
1.57502
1.5750761
1.5758891
1.5769771
1.579064
1.5806142
1.5825292
1.5840809
1.5856759
1.5876654
1.5900106
1.5914879
1.5938372
1.5956513
1.598027
1.600084
1.6031116
3.6823537
3.1913493
2.8172561
2.4727931
2.1659686
1.9242301
1.7561645
1.6511134
1.5908185
1.5578617
1.5415143
1.5331075
1.5292508
1.529438
1.5315132
1.5324996
1.5333476
1.53848
1.5476674
1.554879
1.5581475
1.5645447
1.5757309
1.5840414
1.5841357
1.5795331
1.5765676
1.5780439
1.5782292
1.5750256
1.572256
1.5701955
1.5682037
1.5663151
1.5652455
1.5651646
1.5654952
1.566114
1.5668776
1.5675753
1.5681349
1.5691531
1.5709168
1.5727236
1.5741802
1.5750653
1.5755325
1.5755449
1.5760436
1.576987
1.5781375
1.5795009
1.5806928
1.5824011
1.5841075
1.5858097
1.5878827
1.5887675
1.5908181
1.5929302
1.5947646
1.5959905
1.5986258
3.6837577
3.193008
2.8200995
2.4762153
2.1700386
1.9279437
1.7591033
1.6530532
1.5921452
1.5587787
1.5420419
1.533578
1.5293472
1.5299192
1.5323726
1.5336388
1.5348598
1.5412332
1.5513774
1.5577238
1.5603889
1.5667171
1.5787757
1.5880507
1.5898883
1.5861971
1.5839534
1.5855454
1.5848369
1.5804876
1.5765356
1.5738857
1.5715261
1.5690762
1.5670824
1.5658788
1.5658991
1.5662847
1.5671025
1.5678008
1.5684737
1.5694475
1.5705512
1.5721016
1.5739346
1.5751381
1.5759195
1.5763234
1.5765687
1.576808
1.5773161
1.5786595
1.5799097
1.58146
1.5830753
1.5839042
1.5857612
1.587341
1.588805
1.5900442
1.592105
1.5930371
1.5949099
3.68438
3.1949024
2.8226607
2.4803151
2.1743567
1.931777
1.7619287
1.654974
1.5933365
1.559484
1.5425301
1.5337245
1.5296899
1.5306128
1.5334775
1.5350478
1.5368988
1.5447146
1.5567567
1.5618807
1.5633575
1.5690648
1.5817025
1.5921741
1.5964288
1.5947088
1.594024
1.595024
1.5931892
1.5875217
1.5819485
1.5781974
1.575267
1.5724343
1.5696997
1.5673785
1.5663575
1.5664454
1.5671186
1.5678799
1.5687375
1.5695248
1.5703742
1.5717598
1.5735353
1.574991
1.5760374
1.5766706
1.5769047
1.5768163
1.5773722
1.5781575
1.5794741
1.5802769
1.5813637
1.5824445
1.5841006
1.5861299
1.5872038
1.5877974
1.5898873
1.5909153
1.5922567
3.6857029
3.1965155
2.8256825
2.4843307
2.1787373
1.9355941
1.7649001
1.6570043
1.5947203
1.5602819
1.5432651
1.5341337
1.5299572
1.5310143
1.5347739
1.5368055
1.5393393
1.5490237
1.5646285
1.568212
1.5673161
1.572043
1.5854623
1.5976197
1.6041658
1.6049758
1.6059462
1.606317
1.6039455
1.59749
1.5890587
1.5832978
1.5793908
1.5758813
1.5726247
1.5696452
1.5673673
1.5666709
1.5669588
1.5678973
1.5687433
1.5695161
1.5705593
1.5717037
1.5730283
1.5744668
1.5757378
1.5766124
1.5771404
1.5773221
1.5775254
1.5776405
1.5785048
1.5791306
1.5799363
1.5818617
1.5832001
1.5842029
1.5855282
1.5865792
1.5879562
1.5886525
1.5896963
3.6862596
3.1981709
2.8286463
2.4881059
2.1828518
1.9393253
1.7676851
1.6588853
1.595921
1.5610832
1.5437015
1.5345348
1.5302274
1.5319214
1.5364061
1.5387924
1.5421298
1.5545645
1.5747495
1.5778243
1.5733741
1.5765634
1.5892296
1.6033009
1.6125895
1.6169496
1.6196334
1.6206522
1.6183721
1.6113487
1.5996081
1.5907756
1.5844885
1.5796775
1.5756551
1.5721492
1.5691394
1.5672746
1.5669802
1.5676984
1.5686155
1.5696338
1.5705532
1.5713796
1.5725127
1.573982
1.575358
1.5764393
1.5771276
1.5776491
1.5773622
1.57754
1.5777071
1.5785993
1.5795846
1.5809281
1.582025
1.5824985
1.5839323
1.5853517
1.58601
1.5865623
1.5879875
3.6874718
3.2000393
2.83109
2.492163
2.1872607
1.9431655
1.770709
1.660967
1.5972953
1.5618086
1.5445232
1.5348246
1.5307992
1.5327339
1.5384575
1.5410284
1.5455715
1.5608017
1.5874725
1.5914598
1.5820145
1.5822675
1.5918342
1.6082179
1.6215168
1.6306022
1.6362355
1.6389835
1.6375141
1.6309087
1.615104
1.6021558
1.5920889
1.5847545
1.5790087
1.5746461
1.5711108
1.5683919
1.5672944
1.5674469
1.5685026
1.5695565
1.5703457
1.5712781
1.5723934
1.5736521
1.5748699
1.5760279
1.576887
1.5774091
1.5774563
1.5778711
1.5777418
1.578161
1.5792931
1.5795348
1.5804924
1.5818097
1.5829472
1.5837325
1.5847795
1.5854411
1.5872582
3.6881733
3.2015181
2.8341817
2.496172
2.1915813
1.947063
1.7735629
1.6628774
1.5985824
1.5627153
1.5451819
1.5354848
1.5312452
1.5338589
1.5408242
1.5438913
1.5493234
1.5680674
1.6044471
1.6096389
1.5940477
1.5886618
1.5956451
1.6138597
1.6317339
1.6459138
1.6560815
1.6621258
1.6623368
1.6558259
1.6362986
1.6176052
1.6023151
1.591088
1.5829424
1.5772806
1.5729522
1.5698198
1.5678877
1.5674338
1.5680381
1.5691699
1.5702927
1.57133
1.5722177
1.5730688
1.574266
1.5754542
1.5766237
1.5771861
1.5778811
1.5779151
1.5779103
1.5777862
1.5783447
1.5788357
1.579655
1.581182
1.5823618
1.5824828
1.5837466
1.5844355
1.5854351
3.6892005
3.2032737
2.8371914
2.5000215
2.1957021
1.9506132
1.7764213
1.6648863
1.5999063
1.5634781
1.5460158
1.5358915
1.5320954
1.5355257
1.5439621
1.5470643
1.5539192
1.577344
1.6265637
1.6346111
1.6101773
1.5970965
1.6019922
1.6197896
1.6417202
1.6619026
1.6791072
1.6913116
1.6944536
1.6893057
1.6674298
1.6398234
1.6168767
1.6000195
1.5883134
1.5803765
1.5749515
1.5712168
1.5687447
1.5676664
1.5677255
1.568913
1.5703262
1.5713018
1.5720527
1.5728304
1.573926
1.5751887
1.5762883
1.5769454
1.5777618
1.5776806
1.5778316
1.5780778
1.5777797
1.5785879
1.5793162
1.5799682
1.5809712
1.5815686
1.5823396
1.5830497
1.5833809
3.6900179
3.2049937
2.8393204
2.503546
2.1995015
1.954218
1.7791849
1.6667889
1.6012463
1.5644016
1.5470865
1.5366791
1.5330649
1.5372491
1.5477543
1.5510176
1.5595476
1.5888455
1.6547527
1.6679058
1.6320688
1.6075763
1.6100673
1.6254125
1.6525443
1.6804483
1.7065229
1.7268542
1.7357456
1.7350608
1.7135756
1.673238
1.6383352
1.6131574
1.5956777
1.5843917
1.577255
1.5724636
1.569477
1.5679788
1.5676691
1.5685573
1.5698636
1.570984
1.571947
1.5729032
1.5736047
1.5746067
1.5754536
1.5765277
1.5771598
1.5776661
1.5779029
1.5780984
1.5779378
1.5780059
1.5782433
1.5788985
1.5797529
1.580694
1.5807468
1.581806
1.5830911
3.6910821
3.2064607
2.8422981
2.5069944
2.2034713
1.9577498
1.7820073
1.6687788
1.6025763
1.5652133
1.5480777
1.5375796
1.5342836
1.5397804
1.5523047
1.5556717
1.5658274
1.6029001
1.6917317
1.7131229
1.6613764
1.620772
1.6201628
1.6322089
1.6634317
1.7005727
1.7383277
1.7706233
1.7919869
1.7989342
1.7794187
1.7220438
1.6705792
1.6323573
1.6062529
1.5897163
1.5798987
1.5738455
1.57022
1.5684932
1.5678691
1.5683165
1.569608
1.5710634
1.5721446
1.5728048
1.5733114
1.574145
1.5750803
1.5763157
1.5767118
1.5773894
1.577854
1.5775917
1.5779025
1.5776084
1.5774325
1.5785519
1.579167
1.5797458
1.5800826
1.5807913
1.5828039
3.6918219
3.2082861
2.8445881
2.5104484
2.2072821
1.9613355
1.7848241
1.6707332
1.6039431
1.5660677
1.5495628
1.5385352
1.5360712
1.5428207
1.5586356
1.561378
1.5733631
1.6199729
1.7395074
1.7730916
1.7006985
1.6382754
1.6327834
1.6425508
1.6756468
1.7243874
1.7749021
1.8237745
1.8653913
1.8874834
1.8733481
1.7966795
1.7190434
1.6612345
1.6223026
1.597603
1.5835479
1.5755611
1.5709058
1.5686013
1.5677097
1.5678288
1.5692679
1.5707815
1.5718618
1.5725324
1.5733462
1.5740323
1.5749911
1.5757112
1.5762322
1.5768404
1.5773978
1.5774854
1.5775577
1.5775761
1.5775198
1.5780669
1.5786983
1.5789756
1.5798746
1.5798638
1.5808184
3.6928584
3.2097726
2.8469303
2.5140172
2.2113743
1.9650172
1.7876719
1.672718
1.6052794
1.5669666
1.5510012
1.5400842
1.5382137
1.546859
1.5666045
1.5684226
1.5824472
1.6410429
1.7983807
1.8525165
1.7551683
1.66224
1.6469691
1.6539128
1.6841498
1.7458347
1.8167923
1.8916122
1.961855
2.0106852
2.0074038
1.9100316
1.7902243
1.7044252
1.6465405
1.6098723
1.5889227
1.5780124
1.5719483
1.5690856
1.5681234
1.5680979
1.5693049
1.5707972
1.5720314
1.5730675
1.5737417
1.5741397
1.5747986
1.5750147
1.5759397
1.576564
1.5769331
1.5775546
1.5771908
1.5771366
1.5776974
1.5774138
1.5779653
1.578489
1.5792435
1.5790619
1.5789118
3.6935219
3.2112886
2.8498185
2.517757
2.2154431
1.9686973
1.7905793
1.6747242
1.6066695
1.5678094
1.5528548
1.5417218
1.5412884
1.5528018
1.5765735
1.5772456
1.5930943
1.6661358
1.8694618
1.9592255
1.8318383
1.6945334
1.6633012
1.6681151
1.6997824
1.772408
1.8601626
1.9680847
2.0811146
2.1736035
2.1902705
2.0848682
1.9030723
1.7692596
1.6827359
1.6291012
1.5978568
1.5815138
1.573104
1.5692234
1.5680228
1.5677837
1.5686828
1.5706824
1.5723008
1.5734049
1.5738245
1.5741275
1.5745618
1.5750373
1.5757916
1.5762898
1.5765946
1.5769286
1.577013
1.576746
1.5771316
1.5771034
1.5774034
1.5781493
1.5781808
1.5784195
1.5789563
3.6945003
3.2129058
2.8521129
2.5212156
2.2192122
1.9721508
1.7932853
1.6766645
1.6080165
1.5688023
1.5551304
1.5443169
1.5450277
1.5617308
1.5896814
1.5875742
1.6053488
1.695195
1.9580271
2.1053343
1.9400941
1.7392563
1.6836233
1.6838792
1.7106894
1.7850997
1.9191822
2.0663065
2.2402337
2.3803111
2.4818705
2.4210427
2.1224681
1.8775949
1.7382462
1.6578879
1.6119723
1.5877503
1.5758154
1.5702169
1.5685571
1.5683194
1.5692301
1.5714629
1.5731256
1.5740627
1.5745945
1.5749245
1.5749805
1.575397
1.5754331
1.5756539
1.5762363
1.576293
1.5767114
1.5767533
1.5764378
1.5769046
1.5769469
1.5774471
1.5773626
1.5779436
1.579287
3.6953039
3.2143205
2.8545167
2.5242697
2.2227119
1.9754475
1.7960151
1.6786072
1.6093854
1.5697217
1.5576402
1.5478975
1.5499503
1.5741963
1.6056817
1.6009086
1.6209018
1.7296855
2.0641922
2.3311811
2.0982987
1.8006922
1.7107885
1.7055262
1.7318835
1.8151315
1.9571576
2.1848115
2.396877
2.694667
3.1988414
3.2935396
2.6808055
2.0978982
1.8331682
1.7026059
1.6334437
1.5972112
1.5795655
1.5711765
1.5685468
1.5682137
1.5690302
1.5714921
1.5735956
1.5749034
1.5755842
1.5757231
1.5755968
1.575502
1.5752195
1.5753677
1.5758943
1.576158
1.5762194
1.5765383
1.5760967
1.5763742
1.5765719
1.5766673
1.5771617
1.5774433
1.578098
3.696208
3.2160614
2.8567772
2.5275474
2.226536
1.9790226
1.7988179
1.6806046
1.6107588
1.5708824
1.5607422
1.5524006
1.5567144
1.5919868
1.6264651
1.6160226
1.6371615
1.7685522
2.1880286
2.7878802
2.3662272
1.8894987
1.7430483
1.7251016
1.7465406
1.8261954
2.0285001
2.279235
2.5679668
3.297799
4.8816136
5.3745245
4.1281145
2.6431861
2.0285677
1.7792691
1.6680243
1.6138551
1.5875685
1.5747327
1.5705517
1.5699382
1.5705926
1.5734075
1.5759983
1.5773858
1.5777265
1.5773504
1.5768807
1.5760769
1.5756504
1.5754798
1.5755037
1.5758191
1.5757756
1.5758925
1.5761081
1.5758532
1.5761643
1.5759002
1.576595
1.576866
1.5763757
3.6969656
3.2172971
2.8589908
2.530857
2.2303059
1.9825079
1.8016445
1.6826141
1.6121246
1.5719365
1.5645001
1.5585577
1.5653633
1.6158514
1.6532279
1.6363706
1.6603392
1.8196192
2.3345434
3.8661164
2.9376559
2.0372908
1.7904933
1.7522762
1.7711924
1.8573505
2.1160886
2.3917928
2.8639018
4.5449287
7.581341
8.7063657
7.0389395
3.9828793
2.4954037
1.9363616
1.7272923
1.6390773
1.5989606
1.5802839
1.5730675
1.5715276
1.5718398
1.5745123
1.5780444
1.5798585
1.5800885
1.5797969
1.5790097
1.577432
1.576408
1.5757171
1.5753556
1.5751608
1.5754195
1.5753182
1.5759081
1.5757162
1.5757147
1.5753345
1.5756456
1.5761302
1.5758815
3.6977478
3.2189628
2.8615589
2.5345312
2.2344291
1.9862337
1.804533
1.6846623
1.6135292
1.5734894
1.5693457
1.5661349
1.5773645
1.6491272
1.6871383
1.657798
1.6804953
1.8670614
2.6408061
6.1178049
4.2295667
2.3397759
1.862229
1.778277
1.7911563
1.8804128
2.1420833
2.4662542
3.2580917
6.258561
10.4898
12.437892
11.233566
6.7670542
3.5892202
2.2894696
1.8439123
1.6850807
1.620756
1.5919734
1.5800717
1.5772618
1.5775834
1.5805659
1.584489
1.5858487
1.5857142
1.584928
1.5819661
1.5795371
1.5775263
1.5760096
1.5753416
1.5749115
1.5751334
1.5751251
1.575309
1.5754099
1.5749689
1.5749946
1.5749768
1.5754885
1.5760991
3.6985461
3.220202
2.8638202
2.5378947
2.2381095
1.9896332
1.8073051
1.6866784
1.6148669
1.5746875
1.5755758
1.5761321
1.5928494
1.694143
1.7294609
1.6887318
1.7142403
1.916649
3.2822317
9.6869769
6.65943
2.9669238
2.0006625
1.823502
1.8288011
1.9223261
2.1693817
2.6221412
3.8771481
8.0258706
12.874628
15.628186
15.514407
11.204507
5.7795943
3.0739602
2.0881009
1.7670089
1.6552052
1.610401
1.5912667
1.5853664
1.584783
1.5863378
1.5903359
1.5924669
1.5926086
1.591604
1.5874375
1.5829933
1.5794588
1.5771578
1.5757324
1.5749817
1.5746393
1.5749109
1.5745288
1.574649
1.5742796
1.5748511
1.5749219
1.574889
1.5754274
3.6993589
3.2216916
2.8662642
2.5411534
2.2417868
1.993076
1.810091
1.6887436
1.6162576
1.5770531
1.5830542
1.5894675
1.6145113
1.7583475
1.7822318
1.7190981
1.7400472
1.9547547
4.5014375
13.911079
10.240433
4.0926909
2.2551089
1.8796789
1.864082
1.9490842
2.2081577
2.7682776
4.4239203
9.3907398
14.534915
17.910654
18.902986
16.184676
9.2525304
4.57409
2.5921466
1.9296773
1.7179174
1.6420078
1.6117448
1.6019855
1.6009072
1.6028533
1.6069599
1.6078109
1.6069277
1.6019186
1.5939103
1.5873825
1.582441
1.5789355
1.5764512
1.575229
1.5743449
1.5742311
1.573953
1.5739001
1.5738449
1.5742933
1.5743048
1.5741253
1.5740595
3.7002118
3.2231679
2.8683321
2.5441917
2.2452622
1.9964044
1.812867
1.690831
1.6176691
1.579017
1.5935308
1.6034972
1.6351204
1.8426933
1.8500251
1.7686761
1.7930959
2.0224863
6.0212438
17.880146
14.572892
5.8450725
2.703951
1.9901772
1.9198604
1.9884012
2.2608422
2.9443649
4.9371805
10.378161
15.552404
19.486126
21.531063
20.175535
13.602083
6.8985757
3.5012047
2.2302562
1.82566
1.6943149
1.6453383
1.6259041
1.620939
1.6210125
1.6231282
1.6238271
1.6223145
1.6150138
1.6041973
1.5945716
1.5869903
1.5813217
1.5774073
1.5753469
1.5742971
1.5736277
1.5735112
1.5734284
1.5735059
1.5733345
1.5732782
1.5735347
1.5735166
3.7010301
3.2245085
2.8706469
2.5474786
2.2490154
1.9999813
1.8158353
1.6930921
1.6191354
1.583211
1.60597
1.6191524
1.6598457
2.0357943
1.9535442
1.8125003
1.8317568
2.1292813
7.5296956
21.23852
19.064168
8.4208989
3.4029081
2.1595517
1.978613
2.0248463
2.2954634
3.0852095
5.3111533
10.996649
16.091162
20.861917
24.084541
23.443981
17.74461
9.7330642
4.8621194
2.7392896
2.0056745
1.7715165
1.6918994
1.6655573
1.6604164
1.6626681
1.6675097
1.6667955
1.6576231
1.6378581
1.6210114
1.6065514
1.5946379
1.5855422
1.5794852
1.5758577
1.5742697
1.5730474
1.5727153
1.5725209
1.5724504
1.5720807
1.572187
1.5725354
1.5728846
3.7019299
3.2260843
2.8727799
2.55045
2.2524956
2.0034298
1.8188943
1.695534
1.6212602
1.586521
1.6243814
1.6327578
1.6780869
2.662669
2.1789572
1.8842495
1.8902245
2.421509
8.919023
24.170215
23.346248
11.854117
4.4291446
2.4433007
2.0802637
2.0940306
2.3336317
3.1181896
5.4952816
11.11307
16.374397
22.075694
26.464503
26.64445
21.698372
12.69635
6.5336699
3.4587665
2.2813699
1.8957868
1.7729295
1.7363474
1.7315209
1.7366094
1.7495595
1.753188
1.7454234
1.7091061
1.6657708
1.6344271
1.611041
1.5949815
1.5843296
1.5780414
1.5748645
1.5728989
1.5722011
1.5716694
1.5714641
1.5712814
1.5716673
1.571872
1.5718161
3.7028839
3.2276889
2.8748567
2.5536271
2.2564261
2.0075808
1.8228252
1.6988249
1.62435
1.5955701
1.6450083
1.648344
1.7019331
4.6920736
2.803437
1.9877209
1.9531514
2.7864954
9.9407476
27.29206
27.580044
15.908301
5.8152371
2.8411461
2.2200357
2.200277
2.4140824
3.1852771
5.601556
10.993018
16.402707
22.635768
28.020087
29.548445
25.904377
15.950928
8.3815814
4.340778
2.6428176
2.0534119
1.877063
1.8436317
1.8542415
1.9242203
2.0239793
2.0706767
2.0659988
1.987858
1.8350244
1.7304494
1.6636503
1.6227159
1.5982655
1.5847021
1.5773469
1.5738313
1.5718193
1.5709416
1.5705632
1.5704241
1.570694
1.570764
1.5702108
3.7039108
3.2298148
2.8770022
2.5580294
2.2623964
2.0142561
1.8296306
1.7046891
1.6330463
1.6053492
1.683715
1.6821266
1.7326855
9.6470935
4.5171704
2.2328965
2.0322755
3.0313178
10.528452
30.929281
32.324667
20.153424
7.5655662
3.3954643
2.3933207
2.3156738
2.4824898
3.1815519
5.5656378
10.62942
16.134962
22.411419
28.678956
31.973854
29.775512
19.792588
10.383807
5.3228482
3.075675
2.2635221
2.0388163
2.0175929
2.0809631
2.3622895
2.7378378
2.9648048
3.0035034
2.8864412
2.4541713
2.0728546
1.8448579
1.7151568
1.6446709
1.6074815
1.588185
1.5791675
1.5744781
1.5724297
1.5715794
1.5711868
1.5707944
1.570869
1.5705224
3.7057082
3.2334319
2.879519
2.5668903
2.2745038
2.028499
1.8449683
1.7183055
1.6525505
1.6372436
1.79318
1.7714436
1.8461482
16.922722
8.1512692
2.8101323
2.1666216
3.1189065
10.442499
34.62181
37.801814
24.419733
9.4676508
4.115972
2.7078058
2.5230879
2.6073244
3.191216
5.4928986
10.100386
15.549827
21.675275
28.718263
34.141695
33.120958
23.855032
12.480882
6.332913
3.5332716
2.4916734
2.2210264
2.2182854
2.4201726
3.2341916
4.2782012
4.9298467
5.0999865
4.9538767
4.1555124
3.1121716
2.4250402
2.0155774
1.7936875
1.6804269
1.6244721
1.5972654
1.5841881
1.5781604
1.5752103
1.5739824
1.5727826
1.5729162
1.5727779
3.7106719
3.2425796
2.8859863
2.5899452
2.3055426
2.0637574
1.8812782
1.7502685
1.6988813
1.692103
2.1046593
1.9255318
2.2662135
23.062293
13.356499
3.9638157
2.3607164
3.1258735
10.174561
38.77381
44.471013
28.87986
11.438894
4.8893176
3.0228102
2.6757813
2.7185632
3.2463692
5.3524348
9.6585704
14.6742
20.208942
28.013446
36.325453
36.421418
27.916646
14.50559
7.2649356
3.9735697
2.7633737
2.4962759
2.5417603
3.0151244
4.5959325
6.3815567
7.5479588
7.9364215
7.8553994
7.0988424
5.2837432
3.7903821
2.7980462
2.2129526
1.8990622
1.7397132
1.6605075
1.6216418
1.6025683
1.592692
1.5879209
1.5852093
1.5845387
1.5834207
3.7303057
3.2725403
2.9079473
2.6481446
2.3776869
2.1384247
1.9494874
1.8009386
1.7842032
1.8356393
3.3746649
2.2112655
2.3619363
30.733101
20.551146
5.9287477
2.7301562
3.3153207
10.17847
44.685782
53.643593
33.694318
13.440845
5.8588737
3.4952187
2.9155096
2.9138755
3.3907122
5.1911417
9.0064933
13.653348
17.949782
25.81012
38.603909
40.221761
32.177173
16.323864
8.0052872
4.3307385
3.0059825
2.7254754
2.7896497
3.403329
5.5330519
8.0695705
9.8046877
10.46686
10.490771
10.152589
8.6016318
6.0827801
4.2362099
3.0579127
2.3785197
2.0124208
1.8216767
1.723312
1.6727151
1.6459157
1.63151
1.6235872
1.6199247
1.6151707
3.7994387
3.3396965
2.9281569
2.7785112
2.5856657
2.3934587
2.1869271
1.9788628
2.175112
2.4140589
8.2484672
2.9962197
3.6455058
47.600504
33.639684
10.449819
3.6660206
3.5391891
10.583387
57.722517
67.014444
39.150143
15.209881
6.8009194
4.1497465
3.3797229
3.3112414
3.7002995
5.3073652
8.7948477
12.064952
15.26082
21.744023
40.736758
45.281965
36.83219
17.723786
8.3040984
4.5350922
3.2408679
2.9857514
3.0772221
3.7697271
6.1501759
9.394856
11.745188
12.456054
12.45275
12.178531
11.128535
8.4918778
6.0199012
4.2632615
3.1561139
2.5114759
2.1528266
1.9536631
1.8435686
1.7786683
1.7435153
1.7183132
1.7083238
1.6923385
4.3846869
3.9515781
3.4584594
4.4824838
3.8550664
3.4634319
3.2036515
2.9084036
4.1996206
6.086191
28.903173
9.5484668
36.2242
75.1823
49.315021
19.346556
6.2819796
4.6203878
26.245839
84.402663
86.116961
45.360962
17.197267
8.4288479
6.4631154
5.7120606
5.1667247
5.1546091
6.1777274
9.4058742
12.670121
14.37186
18.776264
44.170394
52.646278
41.392849
18.388324
8.6023239
5.0320004
3.8247026
3.5875238
3.6672772
4.2440514
6.3008601
11.272215
15.236897
16.216542
16.098845
15.38384
13.360709
10.514551
7.8958029
5.8388719
4.4599339
3.6001878
3.0847028
2.7555414
2.55238
2.4047178
2.3197892
2.239122
2.2084148
2.1468898
10.256585
17.70143
16.742574
14.727753
10.627843
8.3978945
7.5219858
5.8164254
13.613201
22.841286
77.23057
114.48235
262.37839
116.30393
58.952549
38.153585
13.471464
9.6551797
121.97389
164.83103
118.46854
52.220476
18.512666
12.990601
13.449114
14.030364
13.67722
12.92118
12.966279
15.005135
16.420107
16.299073
26.365063
63.069769
64.127454
45.717232
17.981087
9.6565835
7.208507
6.7152471
6.7114896
6.8207281
7.3170536
9.0519843
15.547269
22.592554
23.750509
23.344951
21.756988
17.47883
13.071328
10.050918
8.3011905
7.428375
6.9522494
6.7444779
6.4720963
6.29537
6.0567089
5.9164316
5.7313137
5.6530511
5.4789507
42.138922
44.764933
44.534504
41.072935
38.453834
38.200193
36.464348
38.23519
35.181225
43.430767
94.138403
120.23173
233.69638
142.37739
72.56609
59.168593
46.696623
41.302628
116.10863
169.07724
131.99539
60.227667
43.244041
42.848055
45.961288
46.356638
43.262642
42.214129
43.515784
45.850111
47.943187
52.506092
70.305435
76.323061
68.163786
52.919422
38.940869
32.491002
30.993814
30.727699
30.795753
31.104256
31.735139
32.680585