/*--------------------------------*- C++ -*----------------------------------*\
| =========                 |                                                 |
| \\      /  F ield         | OpenFOAM: The Open Source CFD Toolbox           |
|  \\    /   O peration     | Version:  2406                                  |
|   \\  /    A nd           | Website:  www.openfoam.com                      |
|    \\/     M anipulation  |                                                 |
\*---------------------------------------------------------------------------*/
FoamFile
{
    version     2.0;
    format      ascii;
    arch        "LSB;label=32;scalar=64";
    class       volScalarField;
    location    "5";
    object      omega;
}
// * * * * * * * * * * * * * * * * * * * * * * * * * * * * * * * * * * * * * //

dimensions      [0 0 -1 0 0 0 0];

internalField   nonuniform List<scalar> 
62344
(
4.3275734
3.6775186
3.1909428
2.76916
2.4117376
2.1316818
1.9331574
1.8015615
1.7195691
1.6719862
1.6454292
1.6318267
1.6269531
1.625902
1.6274884
1.6305328
1.6371108
1.6418928
1.6438645
1.6465795
1.6492354
1.6531766
1.6556692
1.6628711
1.6622929
1.6680613
1.6763212
1.680307
1.6892072
1.7038565
1.714147
1.7223691
1.736377
1.7588681
1.7764966
1.7921803
1.8138473
1.8527416
1.9108864
1.9770606
2.0235016
2.0774051
2.1274325
2.1825151
2.2211236
2.2880346
2.3345591
2.3860511
2.4212019
2.458766
2.4854592
2.5231227
2.5495492
2.5977865
2.6309589
4.3301975
3.6824256
3.1963199
2.776509
2.4205399
2.1406924
1.9394218
1.8050519
1.7215409
1.6713282
1.6452026
1.6310695
1.6258871
1.6229781
1.6244912
1.6263385
1.6326767
1.6373716
1.6385711
1.6404285
1.6442516
1.6468068
1.6483792
1.6542648
1.653411
1.6586964
1.664934
1.6674559
1.6759612
1.6904873
1.6980071
1.7042837
1.7176169
1.7429762
1.7639015
1.7788699
1.794848
1.8323042
1.8846281
1.9429085
1.997773
2.0612382
2.1167801
2.1887129
2.2524798
2.3327199
2.3812122
2.4416176
2.4940685
2.5528698
2.5880441
2.6383455
2.6627204
2.7223008
2.7315157
4.3324476
3.686627
3.2023309
2.7836937
2.4291705
2.1498145
1.9458548
1.8097695
1.7253824
1.6730926
1.6451027
1.6317676
1.6263204
1.6227291
1.6244844
1.6257657
1.6324728
1.6372831
1.6389012
1.6407422
1.6439072
1.6460758
1.6483316
1.6530976
1.6519324
1.6564756
1.6606691
1.6622746
1.6709984
1.6850604
1.6922095
1.6977303
1.7118048
1.7331545
1.7488364
1.7592363
1.7706434
1.8006767
1.841532
1.8841161
1.9396578
2.0029208
2.0730838
2.1643195
2.2471849
2.3280107
2.3866351
2.443328
2.505533
2.5975824
2.645298
2.7120371
2.7334893
2.8100661
2.8282239
4.3353029
3.6903282
3.2075763
2.7893061
2.4350411
2.1555206
1.9504132
1.8137324
1.7287928
1.6763307
1.6468068
1.6331362
1.6258524
1.6221566
1.623621
1.6245738
1.6303609
1.6360517
1.6392961
1.6420759
1.6442177
1.6453438
1.6476535
1.6510868
1.6498391
1.6538085
1.6558322
1.6581705
1.6690246
1.6838309
1.6910517
1.6965717
1.709894
1.7313784
1.7467961
1.7579283
1.7723983
1.7953043
1.8316911
1.8648366
1.9087677
1.9547967
2.0176626
2.0969853
2.1886223
2.2687224
2.3365426
2.4032512
2.4691719
2.5614965
2.6226727
2.7108238
2.743858
2.8274692
2.8469425
4.3372345
3.694499
3.2151415
2.798134
2.4423033
2.1613207
1.9571974
1.8188916
1.731853
1.6795742
1.649097
1.6333489
1.6251837
1.6214638
1.6224839
1.6238587
1.6287317
1.6348935
1.6393406
1.6417828
1.6447907
1.6463032
1.6495356
1.6511483
1.6496828
1.6531514
1.6533503
1.6564852
1.6690267
1.6835966
1.691635
1.6983176
1.7114558
1.7312706
1.7464182
1.7601714
1.7756731
1.7961275
1.825961
1.8491215
1.8805364
1.9104237
1.9646126
2.0287027
2.109546
2.1836783
2.2272497
2.3056415
2.355673
2.4475719
2.521317
2.6227748
2.7032535
2.7901286
2.8360253
4.3383704
3.6990075
3.2249798
2.8118712
2.4541919
2.1707552
1.9653535
1.8234957
1.7348867
1.6808517
1.6496925
1.6333164
1.6246312
1.6210508
1.6215436
1.6235366
1.6283848
1.6348447
1.6392361
1.6417337
1.6449273
1.6464767
1.651152
1.6518303
1.6498481
1.6523103
1.6520029
1.6567278
1.669895
1.6825067
1.6919763
1.7000059
1.71332
1.7327589
1.7470694
1.760453
1.7761778
1.7974207
1.8175063
1.8322493
1.8511801
1.8743315
1.9113245
1.9732757
2.0494956
2.1046827
2.1765682
2.2336186
2.2868535
2.3279718
2.4025259
2.4486013
2.5445362
2.6169981
2.7225288
4.3403271
3.7033787
3.2300589
2.8186914
2.4609493
2.1766793
1.9694257
1.8274073
1.7383279
1.6819993
1.6504284
1.6351244
1.6262519
1.6229228
1.6223455
1.6240407
1.6284644
1.6340061
1.6395529
1.6421035
1.6456263
1.6475759
1.6518759
1.6515109
1.6499147
1.6517628
1.6501005
1.6556764
1.6681661
1.6785293
1.6880753
1.6976215
1.7118196
1.7323599
1.7446132
1.7541852
1.77001
1.7919844
1.8085571
1.819553
1.8362428
1.8562885
1.8934467
1.936885
2.0018763
2.0486738
2.1299733
2.1887667
2.263664
2.299678
2.356071
2.4005899
2.4466958
2.5098255
2.6011225
4.3425504
3.7073151
3.2344015
2.825018
2.4685469
2.1834657
1.9732755
1.8312991
1.7406896
1.6838662
1.6516375
1.6353339
1.6260692
1.6235647
1.6220619
1.6230721
1.6267749
1.631813
1.6387086
1.6420093
1.6454127
1.6481726
1.6518428
1.6503839
1.6497818
1.6517678
1.6492942
1.6546714
1.6656067
1.6733612
1.6816361
1.6937674
1.7107762
1.7300598
1.7408816
1.7501015
1.7675673
1.7935169
1.8149504
1.8276124
1.8467264
1.8677587
1.9013455
1.9335251
1.9819477
2.0165004
2.0852067
2.1513592
2.2350734
2.2770697
2.33161
2.3974303
2.4338766
2.502427
2.5692523
4.3447153
3.7110073
3.2389531
2.8309063
2.4761103
2.190673
1.9791541
1.8361398
1.7435802
1.687574
1.6543161
1.6366214
1.6268462
1.6243059
1.6225371
1.6234117
1.6269695
1.6324119
1.6392693
1.6438976
1.6475831
1.6498283
1.653141
1.6514008
1.6508443
1.6516532
1.6482983
1.6534281
1.6628881
1.6683271
1.6748825
1.6884366
1.7094067
1.7283474
1.7377178
1.7505083
1.7702635
1.7994697
1.8320884
1.8534093
1.8774006
1.9045432
1.9337508
1.9550783
1.9853843
2.0132081
2.049336
2.1225905
2.1884512
2.2572609
2.3162297
2.3816153
2.4282508
2.5098409
2.5548676
4.3467774
3.714323
3.2435513
2.8365221
2.4828502
2.1970126
1.9859106
1.8414432
1.7467221
1.689861
1.6564743
1.6386099
1.6285802
1.6248655
1.6226538
1.6237233
1.6272943
1.6328922
1.6391445
1.6448943
1.6499262
1.6520819
1.6543118
1.6519743
1.6527902
1.6522937
1.6481032
1.653133
1.6617877
1.6659333
1.6709586
1.6842765
1.7085975
1.7269009
1.7369876
1.7538997
1.7767477
1.8128844
1.8449487
1.874332
1.9003186
1.9376551
1.9760482
2.0031255
2.0232206
2.0396459
2.061774
2.111991
2.1579888
2.2292761
2.2859675
2.3590583
2.411387
2.4926234
2.5293238
4.3485655
3.717246
3.2480346
2.8418011
2.488245
2.2021216
1.9918661
1.8459019
1.7495088
1.6908969
1.657663
1.6393912
1.6291944
1.6243178
1.6221374
1.6233561
1.626985
1.6325467
1.638229
1.6444807
1.6506106
1.6531766
1.6544495
1.6521693
1.6542712
1.6530574
1.6485475
1.6528939
1.6606886
1.6643697
1.6689302
1.6820036
1.7053775
1.7239929
1.7352274
1.7548495
1.7811616
1.8176662
1.8479985
1.8759993
1.8998187
1.9335741
1.9747719
2.0202349
2.0452451
2.0642478
2.0837544
2.1172639
2.1474503
2.2086828
2.2653453
2.3335823
2.3774508
2.4372007
2.4814788
4.3501211
3.7201068
3.2523323
2.8465894
2.4923081
2.2062545
1.9959386
1.8488209
1.7513572
1.6917337
1.6579956
1.6389152
1.6291491
1.624064
1.622384
1.6233596
1.6266173
1.6318101
1.6372245
1.6438661
1.650202
1.6526479
1.6542823
1.6531397
1.6550301
1.653348
1.6493219
1.6528838
1.6597983
1.6632894
1.6671205
1.6797842
1.7025106
1.7196057
1.7319803
1.7517687
1.7778105
1.8144028
1.841653
1.8628781
1.8821639
1.9138479
1.9536334
2.0050901
2.0412031
2.0612791
2.0871814
2.1139409
2.1435392
2.1897917
2.2470532
2.2926561
2.3435093
2.3910256
2.4327625
4.3513909
3.7229963
3.2566918
2.8512374
2.4965601
2.2107397
1.9994026
1.8510458
1.7529429
1.6933624
1.6588717
1.6387035
1.6294041
1.6249262
1.6231565
1.6232547
1.6253531
1.6300881
1.6359289
1.6431831
1.6499418
1.652152
1.6539271
1.653719
1.6549338
1.6528985
1.6493951
1.6522649
1.6588319
1.6623387
1.6650516
1.6770135
1.6990266
1.7156774
1.7274519
1.7424295
1.7671725
1.8004175
1.8263608
1.8406815
1.8576053
1.8803081
1.9110327
1.9538449
1.9988933
2.0290452
2.0620859
2.0885005
2.1257049
2.1591808
2.2060964
2.2415832
2.2983355
2.3454728
2.3972011
4.3526715
3.7259344
3.260953
2.8561477
2.5017261
2.2163216
2.0035164
1.8539034
1.7550815
1.6959299
1.6608969
1.6400423
1.6302321
1.6256281
1.6237402
1.6228894
1.6238704
1.6282232
1.6345237
1.6422792
1.6497523
1.6522176
1.6540144
1.6538368
1.6546196
1.6526342
1.6495786
1.6514314
1.6575215
1.6609434
1.6629419
1.674579
1.6956879
1.7126918
1.7222931
1.7337151
1.7559114
1.7878429
1.8138674
1.8285368
1.8409274
1.8600234
1.8852747
1.9123123
1.9513683
1.9856309
2.0214991
2.0443716
2.0778249
2.0981524
2.1417509
2.1712093
2.2296249
2.2867424
2.3532322
4.3539165
3.7287385
3.2653341
2.8614236
2.5078567
2.2224976
2.0082882
1.857727
1.7577776
1.6986326
1.6634071
1.6420748
1.631429
1.625845
1.6241842
1.6236481
1.6242923
1.6283172
1.6346797
1.642085
1.6502905
1.6532819
1.6552458
1.6543815
1.6547411
1.6530775
1.6503598
1.6511378
1.6561193
1.6592226
1.6614468
1.6730281
1.6933212
1.7110493
1.720192
1.7302926
1.7523832
1.7844966
1.8140677
1.8321666
1.8460821
1.8646432
1.8909246
1.9150748
1.9472034
1.9828946
2.009753
2.0358157
2.0584701
2.0820001
2.1104977
2.1515616
2.1873056
2.257351
2.318608
4.3552461
3.7314323
3.269654
2.8667334
2.5138746
2.2280991
2.0130158
1.861567
1.7600902
1.7006464
1.6652478
1.6432864
1.6321916
1.6258235
1.6244209
1.6248716
1.625949
1.629681
1.6358706
1.6426771
1.6510151
1.6547456
1.6571387
1.6559154
1.6552444
1.6534115
1.650893
1.6513927
1.6549647
1.6574742
1.6603649
1.6726149
1.6924385
1.7106198
1.7217987
1.732405
1.7561029
1.7892384
1.8217788
1.8464931
1.8670175
1.8897497
1.9191013
1.9487325
1.9735788
2.00574
2.0329392
2.0581553
2.0725768
2.0975479
2.1176223
2.1585968
2.1907728
2.2536149
2.3007936
4.3565174
3.7340486
3.2738774
2.871778
2.5192594
2.2327609
2.0170387
1.8648424
1.7620719
1.7018383
1.6661771
1.6437702
1.632414
1.625823
1.6245488
1.6253469
1.6266959
1.630083
1.6362686
1.6430717
1.6510245
1.6554627
1.6587382
1.6571713
1.6554183
1.6530645
1.6507924
1.6515936
1.6541623
1.6564003
1.6600534
1.6729505
1.6924347
1.7106703
1.725128
1.7394242
1.766201
1.8037197
1.8398501
1.8751827
1.9052978
1.9398192
1.9713734
2.0060993
2.0372086
2.0674732
2.0990285
2.1278194
2.1397551
2.1619781
2.1744883
2.2055952
2.2378292
2.2878421
2.3123799
4.3577977
3.7364472
3.2775883
2.8760552
2.5238639
2.2364493
2.0201407
1.8673246
1.7640895
1.7027579
1.6665144
1.6443729
1.63265
1.6261729
1.6247888
1.6253369
1.6265664
1.6295513
1.6358817
1.6436828
1.6512602
1.6565945
1.6608692
1.6592281
1.6564443
1.6534153
1.6511391
1.6521998
1.6538934
1.6558139
1.659983
1.6728381
1.6911275
1.7088354
1.727726
1.7468576
1.7791947
1.8226536
1.8593466
1.899271
1.9364339
1.9784807
2.0110214
2.0493169
2.0883773
2.1144417
2.1598255
2.2046077
2.228876
2.2512919
2.2614429
2.2870036
2.3150504
2.3474439
2.366679
4.3589937
3.7387153
3.2808539
2.8801345
2.5280447
2.2398658
2.0230214
1.8698921
1.7671461
1.7046433
1.6676776
1.6464526
1.6345972
1.6281997
1.6265781
1.6268022
1.627745
1.6302459
1.6366673
1.6455626
1.6527807
1.6581869
1.6632496
1.662034
1.6587289
1.6551366
1.6528689
1.6541498
1.6553543
1.6569521
1.6619239
1.6740544
1.6910553
1.707665
1.7311117
1.7543578
1.791043
1.8386993
1.8767631
1.9170867
1.9615104
2.00556
2.0478135
2.0887248
2.1302461
2.1662257
2.2070013
2.2562683
2.2946397
2.3255915
2.3344338
2.3648216
2.3885117
2.4225239
2.4317528
4.3602158
3.7408992
3.2836817
2.8841835
2.5324617
2.2443792
2.0280667
1.8755607
1.7740925
1.7108236
1.6733237
1.6530758
1.6414716
1.6352397
1.6332717
1.6333782
1.6342585
1.6363348
1.6425557
1.6521597
1.6593471
1.6654191
1.6703779
1.669494
1.6659108
1.661977
1.6593245
1.6602612
1.6606634
1.6615555
1.6665825
1.6773984
1.6930258
1.7087312
1.7335698
1.7617106
1.7990067
1.8486282
1.888232
1.9258567
1.9725707
2.0189507
2.0685084
2.1107063
2.1516388
2.1920709
2.2302808
2.2786256
2.3279127
2.3693318
2.3857757
2.4188105
2.4381373
2.4685049
2.4720502
4.3615977
3.743605
3.287967
2.8914722
2.5419729
2.2561966
2.042856
1.8926341
1.7930497
1.7299276
1.6924745
1.6725475
1.6612544
1.6555786
1.6535524
1.6531888
1.6541406
1.6557365
1.6617168
1.6711957
1.67855
1.6853568
1.6888233
1.6880868
1.6845684
1.6808431
1.6779194
1.6782742
1.6780087
1.6784978
1.6832301
1.6937958
1.708477
1.7230051
1.7486979
1.780688
1.8188182
1.8686803
1.9086993
1.9468708
1.9940086
2.045507
2.1018026
2.1473213
2.1864735
2.2352665
2.2703576
2.3135998
2.3679744
2.4172932
2.4470303
2.4823996
2.5014318
2.5330451
2.5369327
4.3644097
3.7504149
3.3004763
2.9126992
2.5713614
2.2927913
2.0861514
1.9398724
1.8414503
1.7790833
1.7423368
1.7218511
1.7108812
1.7057974
1.7042267
1.7037157
1.7048765
1.706724
1.7128665
1.7227755
1.7313062
1.7398961
1.7428287
1.7420317
1.7376487
1.7327866
1.7275272
1.7257602
1.7233937
1.7222217
1.7254947
1.7350273
1.748132
1.7596524
1.7842021
1.8173703
1.856873
1.9070982
1.9502259
1.9857583
2.0393616
2.0915956
2.1467055
2.2058227
2.2468498
2.2930063
2.3331049
2.3766084
2.4181568
2.4667701
2.5163207
2.5587292
2.583528
2.6135377
2.6106499
4.3768778
3.7796347
3.3472433
2.97698
2.6474132
2.3773796
2.1863468
2.051763
1.9532566
1.8970036
1.8655971
1.842917
1.8317988
1.8286321
1.8296115
1.8298339
1.8302047
1.8313955
1.8370899
1.8464994
1.8546548
1.8609991
1.8650927
1.8659865
1.8614468
1.8561217
1.8479214
1.8415832
1.8372456
1.8333715
1.8340718
1.8422754
1.8546025
1.8646544
1.8826079
1.909919
1.9458161
1.9956196
2.0341435
2.0648965
2.1130179
2.1619787
2.2239361
2.2866552
2.3299236
2.3748015
2.4171771
2.46225
2.4976077
2.5520382
2.615075
2.6737922
2.7040731
2.7386688
2.7333797
4.4066549
3.8191951
3.4038091
3.0843236
2.8335924
2.649902
2.5492921
2.4766375
2.410425
2.3769445
2.3666355
2.348287
2.3388016
2.3388331
2.3445402
2.3454299
2.3423851
2.3424906
2.347666
2.353472
2.3514621
2.342119
2.3496092
2.3544086
2.3487317
2.3396963
2.3216981
2.2971439
2.289139
2.281328
2.2746977
2.2769848
2.2881132
2.2994178
2.3087366
2.3195896
2.3397739
2.3852322
2.4160997
2.448522
2.4811468
2.525759
2.5756215
2.623315
2.6516846
2.689995
2.7352619
2.7822573
2.8166804
2.866983
2.9055134
2.9548674
2.9849089
3.0136371
2.9898069
4.4539371
4.0055995
3.8017806
3.7652096
3.804458
3.9493726
4.1461723
4.2655364
4.3163659
4.3421029
4.3768264
4.3761912
4.37841
4.384529
4.4111857
4.4231443
4.4140873
4.4085277
4.4146174
4.4184555
4.3992634
4.3641136
4.387788
4.4089663
4.4033492
4.3915741
4.3671515
4.3225186
4.2923069
4.2759296
4.2572146
4.24062
4.2440852
4.2517555
4.2500158
4.2418404
4.224337
4.2341223
4.2576609
4.2678233
4.2823519
4.2839929
4.2658239
4.2450572
4.2293132
4.2328794
4.2609766
4.3102954
4.3400093
4.3567081
4.3481426
4.333423
4.2897947
4.2663807
4.1751113
6.3985794
7.858895
8.5009934
8.912103
9.5896319
10.166174
10.716001
11.046789
11.192327
11.274441
11.47397
11.567234
11.647662
11.700893
11.882
11.904229
11.882975
11.887805
11.923627
11.980162
11.940599
11.719309
11.846243
11.947873
11.936912
11.884288
11.832244
11.730184
11.725662
11.704291
11.6267
11.549393
11.639018
11.836442
11.910664
11.947618
11.93452
11.952839
12.043244
12.080751
12.079864
12.012304
11.857852
11.687393
11.597253
11.565603
11.585709
11.613691
11.65309
11.735227
11.732819
11.672296
11.428381
11.291505
10.829261
54.232425
54.168971
54.21205
54.164611
54.2403
54.481502
54.675303
54.909279
55.202412
55.484773
55.799407
56.011367
56.41112
56.637698
56.842518
57.007182
57.021637
57.013532
56.942886
56.577704
55.961057
55.327861
55.295598
55.19915
55.33983
55.483308
55.592242
55.557325
55.692918
56.041907
56.175692
55.866059
55.648365
55.904811
56.422255
56.392603
55.636549
55.028244
55.291904
55.881096
56.253445
55.924044
55.144467
54.363755
54.233135
54.529548
55.019898
55.606099
56.134948
56.399076
56.201387
55.568236
54.619964
53.910072
53.788061
55.910484
11.723088
4.3302843
3.0276296
2.7544305
2.6284484
2.5516878
2.4943042
2.4634298
2.4238389
2.3851733
2.3670073
2.3804756
2.4063387
2.444334
2.484711
2.5615079
2.6113872
2.6316235
2.651593
2.6824364
2.7749063
2.9056962
2.9424187
2.9130954
2.8186984
2.7154535
60.501488
12.688828
4.5569336
3.1056121
2.7827352
2.642401
2.5656452
2.5171085
2.5008994
2.4830962
2.4626667
2.4454373
2.4338623
2.4354257
2.4658465
2.5363067
2.6044374
2.6808288
2.735618
2.7488249
2.7534364
2.8352822
2.9697207
3.0406409
3.0235684
2.9754379
2.8218007
65.661644
13.41921
4.6739263
3.1437977
2.8107992
2.6732605
2.6056319
2.5636836
2.5599172
2.5479732
2.5281894
2.5147766
2.492793
2.45539
2.4761402
2.570167
2.6703049
2.7496349
2.8198191
2.8282951
2.8191466
2.8932438
3.0355855
3.1143965
3.1214102
3.11427
2.952875
70.325521
14.497653
4.9751574
3.2245924
2.8683246
2.7312348
2.6523076
2.6090962
2.6102802
2.599343
2.5858981
2.576254
2.5435425
2.488972
2.499134
2.5990762
2.7375295
2.8088265
2.8795269
2.8983181
2.8747643
2.9295986
3.082976
3.2148966
3.2444861
3.2194256
3.075106
74.222543
15.851227
5.3862615
3.3583949
2.9343972
2.7910712
2.6938001
2.6419498
2.6410987
2.6464791
2.6376464
2.6328146
2.5981547
2.5358546
2.5520493
2.6556143
2.8089575
2.8691549
2.9320816
2.9648507
2.9299565
2.9663083
3.1305001
3.3298491
3.3736604
3.3100051
3.1753064
76.843305
16.861422
5.6944059
3.4822335
2.990934
2.8369247
2.7452567
2.6942776
2.6928369
2.7058381
2.711649
2.7018806
2.6528046
2.5989446
2.6236322
2.724516
2.8736474
2.9293233
3.0025128
3.0603814
3.015084
3.0346801
3.1891957
3.4124549
3.4668242
3.3922989
3.2644473
80.202
17.655231
5.8593605
3.5673824
3.0629625
2.9142509
2.837437
2.7822428
2.7690619
2.7828687
2.7976894
2.7966666
2.7487452
2.6964439
2.6987768
2.7779603
2.9352005
3.0097437
3.088718
3.1575705
3.1052595
3.1258126
3.26698
3.4683518
3.5314424
3.4739154
3.3845825
86.445762
18.710267
6.1424154
3.6290097
3.1068009
2.9743573
2.9146698
2.8611349
2.8377851
2.8577359
2.8863797
2.9000489
2.8526731
2.7819184
2.7647065
2.8399527
2.9942534
3.0892225
3.1814132
3.2685744
3.238156
3.245041
3.3693662
3.5254692
3.6010537
3.5465794
3.4815075
94.546826
20.223164
6.5305565
3.7577153
3.1708807
3.019338
2.9707439
2.9432627
2.9120314
2.9413943
2.9745766
2.9812477
2.9236242
2.8252185
2.8107134
2.8841444
3.0352405
3.1547594
3.2791593
3.3973648
3.3858448
3.3825264
3.4862976
3.6129433
3.6923618
3.6415353
3.5761259
103.11163
21.949155
6.8735959
3.8608995
3.2396062
3.1207345
3.1076995
3.0739187
2.9922878
3.0114789
3.0327468
3.0321911
2.9675344
2.855459
2.8425288
2.9183979
3.0845611
3.2209799
3.3948443
3.5495295
3.5225633
3.4916816
3.5965959
3.6975624
3.822125
3.812419
3.701929
110.09767
24.221198
7.6858564
4.1349392
3.4098298
3.2727941
3.2667158
3.2001548
3.0764628
3.0684026
3.09408
3.1052171
3.0391057
2.9007316
2.8721904
2.951602
3.1484322
3.3278457
3.514858
3.6972568
3.639354
3.5431153
3.6614372
3.7608075
3.9616017
4.0167012
3.8676824
114.42385
26.009476
8.3841647
4.3821068
3.5697136
3.4088605
3.3800635
3.3005362
3.1605887
3.1340293
3.1784776
3.1989198
3.1392741
2.9822846
2.9185148
3.0221328
3.2365078
3.4358107
3.6450201
3.7904278
3.7299078
3.5906894
3.6653702
3.7791415
4.0552013
4.1802743
4.0622019
116.82824
27.224493
8.7222359
4.540482
3.7230367
3.5759521
3.5727475
3.480021
3.2810777
3.2336081
3.285006
3.3162437
3.2686152
3.1083088
3.0356716
3.1390778
3.3232085
3.5227122
3.7413441
3.856578
3.8056583
3.6298778
3.7058099
3.8389624
4.1082465
4.2421031
4.167844
124.25627
27.939689
8.8821065
4.6454752
3.8679271
3.7664499
3.7800732
3.7073391
3.4505033
3.3564714
3.3913681
3.4528722
3.4353823
3.2791433
3.1864316
3.2672035
3.401518
3.6241318
3.833638
3.9565915
3.9172065
3.7250395
3.7665134
3.9201945
4.1820178
4.3174646
4.2698654
136.3636
30.09683
9.5637775
4.9274541
4.0191821
3.8926248
3.911177
3.8763435
3.6385536
3.4918047
3.5082167
3.6035464
3.6393896
3.4693823
3.3226891
3.3877458
3.5165376
3.75106
3.9427699
4.0937937
4.0842797
3.8858891
3.8565896
3.9858733
4.2518311
4.4126746
4.398623
149.85204
34.270736
10.68738
5.2967003
4.1809665
4.0230734
4.0849994
4.0939069
3.8635183
3.6714783
3.6548642
3.7379807
3.770831
3.5761576
3.3951176
3.4670901
3.620747
3.8813321
4.0817961
4.2765348
4.3127755
4.1005298
3.9938237
4.1020885
4.3042942
4.530424
4.5565858
162.63689
38.601541
11.786731
5.6232723
4.3830514
4.2658677
4.3822414
4.4073403
4.1156689
3.869454
3.8052714
3.8431904
3.8535922
3.6611094
3.4442636
3.5085352
3.6618429
3.9290042
4.1368499
4.4080697
4.5234013
4.3241127
4.1554586
4.2770595
4.4127748
4.6507607
4.7146923
171.41274
41.854384
12.902734
6.0614308
4.7309436
4.5897334
4.6985936
4.6860265
4.3249761
4.0176254
3.9262332
3.9203818
3.9212811
3.7503797
3.5277494
3.5675473
3.7013679
3.9668347
4.1671115
4.4733056
4.6232758
4.4860439
4.306402
4.4774038
4.5949196
4.8252002
4.9488726
174.10278
42.81965
13.246738
6.2497736
4.9905949
4.8680483
4.937862
4.894807
4.5155248
4.1595869
4.0387491
4.0042652
4.0008532
3.8274165
3.6122926
3.6342988
3.7686546
4.0138572
4.2154026
4.5160646
4.7109056
4.6465519
4.4378308
4.5984957
4.761847
5.0286975
5.2369525
177.9963
43.016286
13.576167
6.5441503
5.3221405
5.1999983
5.2903887
5.2152372
4.7755099
4.3777651
4.2343669
4.178958
4.1676574
3.9855876
3.7206882
3.7156504
3.8343243
4.0527605
4.2961926
4.6126433
4.7997796
4.7774532
4.5874398
4.695877
4.8076594
5.1655825
5.4839877
190.59843
46.751
15.054557
7.2270394
5.7777498
5.6183395
5.680715
5.6046553
5.1738439
4.7392114
4.5498836
4.458479
4.3966987
4.2081795
3.8871217
3.8319645
3.9324077
4.1399926
4.3971443
4.7047716
4.9202268
4.936812
4.7572816
4.8013276
4.8959241
5.2496102
5.6096828
208.1849
52.811777
16.965342
8.0008221
6.1569174
5.9144063
5.960844
5.9341016
5.5864597
5.1155694
4.8900121
4.7446876
4.6627324
4.477666
4.0981078
3.9875197
4.077615
4.3257969
4.5698318
4.8416138
5.0694841
5.1103253
4.9102986
4.9050422
5.0096133
5.3224101
5.6732566
225.14006
57.573227
18.509206
8.5798872
6.495682
6.2200222
6.2740379
6.2774696
5.9848639
5.4374256
5.1375835
4.971955
4.8702563
4.7032474
4.3058619
4.1854542
4.2906262
4.5562825
4.8145645
5.0420235
5.2969409
5.344101
5.1135965
5.0231484
5.1186584
5.3432252
5.7230585
239.78133
61.270119
19.807332
9.0749637
6.8288951
6.506645
6.5518495
6.5726602
6.3266253
5.7270736
5.4081962
5.2311981
5.0619955
4.8788709
4.4816792
4.32184
4.4039057
4.6931986
5.0329081
5.2796265
5.6013566
5.6308847
5.3775313
5.1854498
5.264327
5.371314
5.7274634
251.59269
66.158483
22.359789
10.146946
7.3324811
6.8941343
6.8615249
6.817467
6.5199537
5.9312897
5.5985567
5.4096865
5.254338
5.1079826
4.7087139
4.4733652
4.5238897
4.7479539
5.1197999
5.4378584
5.8427183
5.9236621
5.6628562
5.4066375
5.4663754
5.4918066
5.7589403
260.82669
68.36095
24.073625
10.971646
7.7679089
7.2153979
7.1726041
7.1121115
6.7855669
6.2305383
5.8743603
5.6671173
5.4976907
5.3538117
4.9737099
4.6455511
4.6529252
4.8056653
5.2004148
5.4683974
5.943789
6.1262472
6.0101145
5.7199557
5.7339183
5.6989786
5.9023346
270.26526
69.817071
25.353488
11.722105
8.3687471
7.7329604
7.6140302
7.4794846
7.096242
6.5776988
6.2343752
5.9963084
5.7811189
5.5859827
5.1972151
4.8216832
4.7862643
4.9070234
5.3268543
5.5741843
6.0001245
6.2131047
6.166619
5.9617037
6.0321794
6.0483104
6.1850063
281.15038
71.490838
26.460892
12.36259
8.8154082
8.16947
8.0534362
7.8844899
7.4348001
6.9086326
6.569811
6.3273088
6.0841507
5.8530885
5.3971705
5.0066966
4.9473406
5.0604713
5.4671571
5.6640014
6.0981314
6.3334748
6.3327185
6.1479824
6.1902956
6.365535
6.595114
292.32745
73.038157
27.413154
12.984023
9.3323019
8.6083051
8.4387961
8.2385437
7.7496765
7.2594458
6.8261381
6.5671933
6.3816416
6.1273704
5.6231448
5.192307
5.1001593
5.2177277
5.6248477
5.8055519
6.2050761
6.482386
6.522517
6.3755764
6.3653159
6.5359005
6.9358452
301.60076
74.309291
28.537193
13.804123
10.00707
9.0895306
8.7931213
8.5036191
7.9429164
7.4420571
7.0842347
6.8198771
6.6317691
6.3741859
5.8339099
5.3556688
5.2620253
5.3908223
5.8129661
6.0048377
6.3314294
6.6436768
6.7253371
6.63816
6.5882108
6.7197363
7.1568154
307.23008
75.704618
30.057579
14.813096
10.659793
9.5877945
9.1845444
8.8708072
8.1971502
7.6688681
7.3409261
7.116981
6.9387511
6.6651162
6.0998859
5.5862654
5.4496192
5.5429449
5.9324751
6.1401859
6.4558029
6.8203404
6.9177769
6.8825658
6.8876029
6.9922399
7.3736932
311.44096
76.229453
30.858715
15.5343
11.413746
10.245304
9.6978305
9.1875409
8.44511
7.9332457
7.6536996
7.4570584
7.2679959
7.0083592
6.4331384
5.856425
5.6889563
5.7331406
6.0078962
6.3137477
6.7011572
7.085002
7.2116812
7.1927785
7.1697613
7.2756992
7.6542517
317.1304
77.130452
31.80793
16.368438
12.046826
10.700872
10.104832
9.6633192
8.8295911
8.2870177
7.9708124
7.7485271
7.5692431
7.3163672
6.7211473
6.126526
5.9293026
5.9513375
6.1419169
6.5334022
6.9353277
7.3639924
7.5654394
7.5831619
7.5380415
7.6209598
7.9245606
325.23739
80.344354
33.084991
17.231815
12.746179
11.27996
10.585101
9.9664983
9.1592673
8.6188572
8.2647284
8.0212577
7.8622004
7.59593
6.9893441
6.3822015
6.2010918
6.221889
6.3557954
6.7756153
7.1306797
7.6283253
7.9011164
7.9602345
7.8982423
7.8909177
8.1848336
334.81773
86.089812
35.226302
18.685587
13.57588
11.787102
10.962838
10.254517
9.4045707
8.8097532
8.4555096
8.2698595
8.1404021
7.920657
7.393573
6.6873256
6.4139135
6.4054012
6.5276478
6.9927264
7.386088
7.9603659
8.2865819
8.3555144
8.236947
8.1938767
8.4336295
344.62747
93.434388
38.362169
20.716257
14.707655
12.36139
11.241098
10.516014
9.5941729
8.9575492
8.6351401
8.5070945
8.4391489
8.2867061
7.8149196
7.0050717
6.6219088
6.6095374
6.739383
7.1978709
7.6278998
8.2898467
8.6491778
8.6561571
8.5082883
8.4698448
8.7031488
351.89923
100.52794
41.330366
22.619792
15.91139
13.106362
11.763536
10.822495
9.8014513
9.1648649
8.888473
8.7828734
8.7407282
8.6244733
8.2076465
7.3494176
6.9041749
6.8567024
6.9771892
7.3908592
7.8265417
8.5258145
8.895283
8.898533
8.7183223
8.6576984
8.9301503
354.83888
106.0933
43.860625
23.979714
16.636501
13.565187
12.080846
11.012546
10.009868
9.4063
9.1508669
9.0742468
9.0562882
8.9624843
8.5203736
7.6205436
7.1528781
7.0879232
7.2098027
7.6770049
8.1372154
8.8190038
9.0839418
9.0358445
8.8250784
8.7350677
9.021003
353.84676
110.16256
46.649241
25.754387
17.737393
14.175801
12.313872
11.159562
10.142019
9.5201219
9.2929049
9.2783155
9.3083933
9.2684727
8.8647318
7.8993614
7.3993369
7.3320768
7.4543578
8.022843
8.5290905
9.1034512
9.2888179
9.1728399
8.8742347
8.7877887
9.0383045
351.10353
112.40783
48.681821
27.106401
18.511184
14.547175
12.486288
11.226008
10.178181
9.5479947
9.329644
9.3478167
9.4431113
9.4651692
9.1742347
8.2016819
7.6403107
7.5726047
7.756158
8.3591453
8.866232
9.3884305
9.4759555
9.3268093
8.9561124
8.8432118
9.0860007
348.46665
113.82881
50.364701
28.345292
19.13783
14.824739
12.595806
11.194337
10.129508
9.5171404
9.3148224
9.3418993
9.506059
9.5782172
9.3632845
8.4575094
7.9459342
7.8965212
8.0769439
8.6645812
9.0839119
9.5434565
9.6412058
9.497087
9.0694606
8.9603722
9.2596848
346.39177
114.13921
50.925613
28.926788
19.489881
15.003083
12.628738
10.943484
9.8286918
9.3045079
9.1953292
9.2620071
9.5221228
9.6625412
9.5568811
8.7921834
8.3223732
8.2677231
8.4339014
8.8689736
9.1942219
9.6445173
9.7554657
9.5692886
9.1809909
9.0843724
9.4317154
344.23956
114.09665
51.210336
29.256484
19.683052
15.001696
12.505862
10.616365
9.4291936
8.9334057
8.885029
9.0456009
9.5071994
9.7327944
9.7101533
9.0780763
8.6567738
8.6174053
8.7169432
8.9804382
9.2473767
9.6641046
9.7852097
9.5726305
9.2862848
9.2244637
9.6240416
340.52194
113.11673
50.864251
29.170769
19.664247
15.008595
12.312029
10.273096
9.1046894
8.6621737
8.6387295
8.9001622
9.4944145
9.7843046
9.8009488
9.2370776
8.8875154
8.8555677
8.8874176
9.021697
9.2514641
9.6602582
9.7900679
9.5743551
9.3622849
9.3436038
9.7397455
333.67177
111.56408
50.339837
28.936891
19.503972
14.923745
12.167094
10.06535
8.9247054
8.4989986
8.4807195
8.8070265
9.4866489
9.8064352
9.8374467
9.3168934
9.0239686
8.992012
8.9606
9.0396039
9.2596806
9.6568148
9.7881062
9.5710918
9.4010377
9.4185954
9.8332358
323.66381
108.81101
49.547258
28.398753
19.016127
14.529171
11.724703
9.6912335
8.6377514
8.3132548
8.3274304
8.7954061
9.5053942
9.8280995
9.8430769
9.3531783
9.1029967
9.0691639
8.9858727
9.0312335
9.2841966
9.6822666
9.7955611
9.5575322
9.4175381
9.4606932
9.9248131
311.23945
106.49584
49.081111
28.227716
18.823813
14.266371
11.320857
9.3316877
8.3411181
8.085899
8.1404119
8.8117599
9.5457555
9.8591184
9.8604288
9.4069254
9.1619152
9.0945272
8.9877648
9.0166783
9.3611642
9.7745805
9.8290615
9.49956
9.4082226
9.5061627
10.070977
297.53102
103.47781
48.15455
27.527658
18.209292
13.662962
10.676021
8.8212131
7.9771813
7.8232965
7.9950121
8.9354112
9.6753403
9.9487987
9.8971433
9.4687122
9.2172429
9.0864446
8.9494303
8.9883523
9.439912
9.8418085
9.8463159
9.4569036
9.4020447
9.5725477
10.197721
283.94655
100.27397
47.695763
27.52748
18.102828
13.34286
10.1988
8.4240725
7.6875441
7.595389
7.923425
9.0463221
9.7945707
10.065129
9.9720664
9.6008854
9.3430595
9.0406187
8.8386006
8.9187651
9.5133994
9.8905704
9.8448626
9.4386801
9.3999937
9.6864371
10.286845
270.30854
95.609102
46.053308
26.77735
17.626931
12.95304
9.813278
8.1044496
7.4723114
7.4436133
7.9670853
9.2073692
9.9157275
10.181831
10.110108
9.7559622
9.4193459
8.9543471
8.73516
8.8799026
9.5648119
9.9265715
9.8573696
9.4682801
9.4434337
9.8790621
10.389911
256.63231
91.643225
45.019497
26.214471
17.21667
12.530973
9.4349952
7.8538788
7.3508473
7.3748409
8.0546527
9.3200553
9.9936909
10.223916
10.172806
9.885231
9.433059
8.8812187
8.6757031
8.8891895
9.6655693
10.014719
9.9310658
9.5916928
9.5891337
10.070994
10.428132
242.40559
86.240013
43.412671
25.360494
16.583789
11.915174
8.9882254
7.6329051
7.2843282
7.3719758
8.2611914
9.4960227
10.048312
10.216702
10.167379
9.8996187
9.3702502
8.7921458
8.6326966
8.9337111
9.841281
10.214258
10.123389
9.7902696
9.7808752
10.194791
10.431693
228.36289
79.943653
41.136103
24.117858
15.832345
11.348667
8.6550631
7.5088784
7.2776199
7.4442412
8.5082977
9.615632
10.056012
10.171908
10.10722
9.8226273
9.2111659
8.6890632
8.6092564
9.0772449
10.109586
10.427135
10.27454
9.9636654
9.9513729
10.260038
10.40473
215.17481
73.775201
38.748782
22.48997
14.72936
10.556587
8.2395493
7.3837565
7.2981226
7.5781562
8.7767908
9.7115886
10.024806
10.074857
9.9783846
9.6752236
9.0319653
8.5619114
8.6099093
9.2858287
10.391484
10.659983
10.401381
10.081739
10.073356
10.321694
10.437807
202.82671