/*--------------------------------*- C++ -*----------------------------------*\
| =========                 |                                                 |
| \\      /  F ield         | OpenFOAM: The Open Source CFD Toolbox           |
|  \\    /   O peration     | Version:  2406                                  |
|   \\  /    A nd           | Website:  www.openfoam.com                      |
|    \\/     M anipulation  |                                                 |
\*---------------------------------------------------------------------------*/
FoamFile
{
    version     2.0;
    format      ascii;
    arch        "LSB;label=32;scalar=64";
    class       volScalarField;
    location    "5";
    object      p;
}
// * * * * * * * * * * * * * * * * * * * * * * * * * * * * * * * * * * * * * //

dimensions      [1 -1 -2 0 0 0 0];

internalField   nonuniform List<scalar> 
84348
(
1.0013632
1.002972
1.0023634
0.99939066
0.99683573
0.99430934
0.99053218
0.98597968
0.9818332
0.97921635
0.97908071
0.97901921
0.97675547
0.97534971
0.97768814
0.98271257
0.99014733
0.99594949
0.99477483
0.99439748
0.99966438
1.0076928
1.0089619
1.003055
0.99975714
1.0004218
1.0010309
1.0028129
1.0046554
1.006816
1.0085169
1.010117
1.0113747
1.0114852
1.010465
1.0087513
1.0079498
1.0081041
1.0081141
1.008763
1.0102321
1.0131292
1.0167794
1.0194923
1.0200858
1.0197391
1.0178853
1.0167965
1.0147973
1.0127245
1.0114182
1.0085537
1.0089703
1.0075424
1.0089572
1.0094146
1.0108652
1.0124898
1.0132026
1.0155797
1.0159176
1.0169878
1.0177336
1.0007037
1.002121
1.0019098
0.99978394
0.99672698
0.99445981
0.99066956
0.9859583
0.98182105
0.97923053
0.9789014
0.97864375
0.97617324
0.97454251
0.97646976
0.98132121
0.98865024
0.99317454
0.99396571
0.99690203
1.0032338
1.0099528
1.0090565
1.0019564
0.99988638
1.0016123
1.002613
1.0037983
1.004339
1.00517
1.0067329
1.0088374
1.0109172
1.0121947
1.0124291
1.0113891
1.009595
1.008616
1.0085946
1.008931
1.009753
1.0115417
1.0143931
1.017916
1.0199998
1.0206763
1.0203282
1.0187779
1.0178084
1.0159381
1.0139708
1.0120514
1.0108685
1.0090049
1.0093245
1.0092954
1.0098211
1.0111765
1.0120129
1.0135732
1.0144241
1.0163552
1.0164754
1.0015239
1.0033618
1.0025597
0.99923315
0.99710485
0.99439
0.99057935
0.98614166
0.98195265
0.97918692
0.97890144
0.97835086
0.97555171
0.97385822
0.97574327
0.98015899
0.98586243
0.9889806
0.99176264
0.99857724
1.0065193
1.0110792
1.0077067
1.0005192
0.99975379
1.0016787
1.0039914
1.0054716
1.0052509
1.005067
1.005731
1.007338
1.009655
1.0117967
1.0133028
1.0136711
1.0123757
1.0102649
1.0092529
1.0092073
1.0096737
1.0108355
1.0127348
1.0156265
1.0189563
1.0204682
1.0213978
1.020856
1.0198012
1.0190665
1.0164931
1.016201
1.0130166
1.0121081
1.0108658
1.01015
1.010125
1.0104152
1.0115492
1.0118632
1.0136717
1.0140494
1.0159112
1.0007135
1.0023071
1.0018997
0.9997834
0.99669083
0.99461658
0.99088127
0.9860297
0.98185238
0.97924247
0.97849019
0.97787995
0.9751906
0.9737592
0.97589704
0.97964634
0.98278016
0.98395706
0.9883403
0.99922623
1.0097438
1.0120272
1.0059232
0.99953407
1.0000165
1.0018511
1.0047182
1.0067896
1.0070372
1.0065687
1.0061154
1.0064635
1.0081108
1.0105536
1.0130616
1.0146285
1.0147301
1.0131225
1.0108951
1.009713
1.0097782
1.0105456
1.0118133
1.0140256
1.0165287
1.0199665
1.0212885
1.0218817
1.0222765
1.0205558
1.0203263
1.0182305
1.0170983
1.0153939
1.0133048
1.011963
1.0116044
1.0111072
1.01172
1.0112567
1.0131328
1.0127041
1.0149913
1.0016713
1.0025521
1.0026768
0.99964662
0.99734331
0.99456527
0.9906747
0.98624763
0.98205496
0.97905693
0.97859713
0.97754572
0.97476249
0.97354931
0.97619096
0.97975528
0.98071407
0.97991776
0.98445159
0.99805026
1.0118849
1.0133772
1.0049012
0.99983348
1.0012911
1.0029947
1.0053972
1.006992
1.0087236
1.0087754
1.0078042
1.0069222
1.0073123
1.0091181
1.0117564
1.0144721
1.0159363
1.0157873
1.013818
1.0114341
1.0103022
1.0104717
1.0114631
1.0130077
1.0149639
1.0180085
1.0202915
1.0224715
1.0228255
1.0227001
1.0221106
1.0211577
1.0201176
1.0181425
1.0168434
1.0156713
1.0142227
1.0125729
1.0122968
1.0124991
1.0124918
1.0135629
1.0134781
1.0003815
1.0032248
1.0016285
0.99943316
0.99669561
0.99467148
0.99100773
0.98621452
0.98198448
0.97930528
0.97805571
0.97707933
0.97441385
0.97372609
0.9762149
0.97962166
0.98000625
0.97807017
0.98131748
0.99539371
1.0116801
1.0134123
1.0035474
0.99982762
1.0027015
1.0042717
1.0054637
1.0062573
1.0091918
1.0106391
1.0101022
1.0085198
1.0077158
1.0084164
1.0101633
1.0132178
1.0160825
1.017202
1.0165238
1.0142854
1.0118909
1.010781
1.011376
1.0120749
1.0143222
1.0159834
1.0190549
1.0216092
1.0227885
1.02375
1.0238459
1.0233135
1.0222335
1.0214603
1.0205162
1.0190477
1.016339
1.0159503
1.0143667
1.0146602
1.0134635
1.0142982
1.0134664
1.001744
1.0020847
1.0028104
0.99994458
0.99751354
0.99481703
0.9908898
0.98627581
0.98209878
0.97897086
0.97827196
0.97673578
0.97419308
0.97320756
0.97596585
0.97938323
0.97989763
0.97825591
0.98026131
0.99210894
1.0091045
1.0116005
1.0017727
0.99894069
1.0029924
1.0043772
1.0040124
1.0046571
1.0083166
1.0109484
1.0119447
1.0106965
1.0091121
1.0086295
1.0095356
1.0116418
1.01502
1.0175799
1.0182497
1.017256
1.0146687
1.0123255
1.0114864
1.0121812
1.0132443
1.0153091
1.0175596
1.0197103
1.0224005
1.0239839
1.0247285
1.0245354
1.0247139
1.0243985
1.02288
1.0215918
1.0202598
1.0201721
1.0177381
1.0167974
1.0159998
1.01463
1.0153661
1.0008511
1.0027782
1.0018246
0.99953226
0.9968305
0.99470131
0.99103331
0.98646693
0.98221227
0.9793245
0.97780151
0.9765742
0.97363295
0.97313977
0.97551294
0.97816758
0.97929
0.97966245
0.98058789
0.98985907
1.005381
1.0086226
1.0014842
0.99982751
1.0036467
1.0034719
1.0015152
1.0025202
1.0067048
1.0096916
1.0121332
1.0124102
1.0112168
1.0098305
1.0098639
1.0109419
1.0133548
1.0169458
1.0191335
1.019307
1.0177163
1.0149348
1.012788
1.0124457
1.0129964
1.0146059
1.0163224
1.0188194
1.021086
1.0229835
1.0244579
1.025802
1.0264461
1.0255814
1.0253024
1.0246593
1.0246505
1.0226248
1.020482
1.0195153
1.0195485
1.0168191
1.0178596
1.0009103
1.0030291
1.00244
0.99981838
0.99748011
0.995049
0.99118981
0.98628564
0.98205732
0.9788985
0.9777543
0.9759963
0.97382095
0.97287356
0.97503504
0.97689077
0.97845362
0.98016812
0.98168625
0.98953224
1.001635
1.0057129
1.0028974
1.0033812
1.0059285
1.0032608
0.99965643
1.0010838
1.0045227
1.0078413
1.0109326
1.0125706
1.0128239
1.0119073
1.0110421
1.0111042
1.0123553
1.0152586
1.0187849
1.0203863
1.020152
1.0182359
1.0153514
1.0133295
1.0136028
1.0142803
1.0158363
1.0176886
1.0193999
1.0216907
1.0240517
1.0258749
1.0264457
1.0272091
1.0275024
1.0276367
1.0259336
1.0246821
1.0247016
1.0232276
1.0232383
1.0210766
1.0196416
1.0015874
1.0021779
1.0020483
0.99984237
0.99715955
0.99479294
0.99104505
0.98669113
0.98241338
0.97909838
0.97752313
0.97603412
0.97324535
0.97285103
0.97483172
0.97622835
0.97695857
0.97915524
0.98276345
0.99070549
0.99884052
1.0024218
1.0043954
1.0080395
1.0090872
1.0046083
1.0001008
1.0008111
1.0024762
1.0057902
1.0092376
1.01184
1.0131705
1.0134367
1.0127761
1.0122019
1.0124652
1.0138435
1.0172759
1.0205974
1.0216317
1.021019
1.0184343
1.0159411
1.0146117
1.0147368
1.0154487
1.0166544
1.0186058
1.0210227
1.0228443
1.0247352
1.0260967
1.0281702
1.0279773
1.0285647
1.0274092
1.0279733
1.028862
1.0265165
1.0248697
1.0245988
1.021579
1.0006755
1.0027088
1.0024003
0.99962215
0.99734033
0.99519821
0.99145943
0.98636657
0.98203285
0.97884039
0.97701675
0.97522334
0.97341174
0.97297608
0.97476298
0.97552734
0.97599959
0.97754166
0.98313224
0.9924986
0.99702919
0.9994147
1.005001
1.0120755
1.0122963
1.0063765
1.0018088
1.0012118
1.0015355
1.004509
1.0074808
1.0108218
1.0128548
1.0139717
1.0141177
1.0139473
1.0134354
1.0137287
1.0156655
1.0193195
1.0222217
1.0227772
1.0217539
1.0193033
1.0165312
1.0154494
1.0157446
1.0167364
1.0181132
1.019535
1.0213838
1.0235296
1.0259077
1.0268619
1.0284253
1.0286402
1.0304061
1.0303231
1.0291983
1.0284054
1.0262677
1.0277154
1.0266154
1.0013509
1.0028727
1.0020726
1.0001121
0.99745043
0.99496043
0.99114049
0.98682594
0.9824891
0.97871791
0.97715516
0.97513666
0.97293403
0.97258712
0.97419057
0.97472694
0.97467994
0.97641275
0.98393851
0.99437727
0.9963138
0.99733953
1.0053124
1.0150094
1.0148829
1.0072756
1.0022484
1.0014825
1.0020371
1.0045548
1.0066656
1.0098034
1.0121585
1.0140335
1.0147401
1.015142
1.0149781
1.0146478
1.0152197
1.0176982
1.0215672
1.0236667
1.0241714
1.0224763
1.0197582
1.0175483
1.0169856
1.0170134
1.0176855
1.0189277
1.0208961
1.0225964
1.0244432
1.0252706
1.0284863
1.0286132
1.0304805
1.0301732
1.029199
1.0306431
1.0300364
1.0301603
1.0305472
1.001139
1.0022782
1.0022179
0.99957377
0.99731253
0.99528313
0.99162954
0.98656407
0.98217009
0.97884517
0.97635996
0.9745457
0.97274332
0.97287558
0.97366307
0.97336357
0.97291558
0.97587373
0.98486815
0.99519997
0.99604605
0.99625468
1.0057918
1.0170703
1.0166378
1.0072714
1.0019082
1.0020473
1.0036714
1.0055842
1.007134
1.0094417
1.0114267
1.0136284
1.0150838
1.0154739
1.0161741
1.0160669
1.0159723
1.017039
1.0198533
1.0236294
1.0252804
1.0251192
1.0234557
1.0205799
1.018116
1.0174519
1.01839
1.0194944
1.0202172
1.0214353
1.0224612
1.0248883
1.0266791
1.02794
1.0287568
1.0298991
1.0311116
1.0320788
1.0328448
1.0307674
1.0292782
1.001005
1.0027361
1.0023194
1.0001584
0.99760941
0.99516212
0.99134553
0.98689251
0.98247772
0.97848099
0.97668775
0.97412062
0.97279565
0.97209119
0.97299673
0.9720212
0.97138739
0.97472299
0.98452408
0.9943047
0.99600438
0.99591184
1.0064558
1.0186442
1.0173434
1.0069368
1.0026377
1.0041408
1.0063807
1.0073794
1.0086329
1.0100286
1.0114977
1.01294
1.0147144
1.0156639
1.0165534
1.0173819
1.0172812
1.0172639
1.0190001
1.0227242
1.025481
1.0265321
1.0260177
1.0237612
1.0212284
1.0199073
1.0195018
1.0191368
1.0195484
1.0208291
1.0224857
1.0246914
1.0248679
1.0266453
1.0276785
1.0299776
1.0308675
1.0304333
1.031509
1.0318191
1.0302171
1.0012979
1.0024788
1.0020865
0.999713
0.99737423
0.99536218
0.99173184
0.98685243
0.98250347
0.97890468
0.97604668
0.97405873
0.97227851
0.97239571
0.97244923
0.97094978
0.96985629
0.97310444
0.9826055
0.99154034
0.99492504
0.9964086
1.0072425
1.0194654
1.0172399
1.0068396
1.0041428
1.0068411
1.0089619
1.0093817
1.0105945
1.0114569
1.0123201
1.0128086
1.0138651
1.0156857
1.0166018
1.0179548
1.0185117
1.0184555
1.0193454
1.0211698
1.0246879
1.0272318
1.0276447
1.0267286
1.0249406
1.0222933
1.0202664
1.0196419
1.0207298
1.0213069
1.0222893
1.0227891
1.023123
1.025441
1.0267656
1.0280066
1.0291933
1.030023
1.0299399
1.0324529
1.0335862
1.0010144
1.0026124
1.0021796
1.0001558
0.99768632
0.99535741
0.99160425
0.98695665
0.98251792
0.97855691
0.97602555
0.97325939
0.97269051
0.97230801
0.97237801
0.97015231
0.96906721
0.97214777
0.97962409
0.9871076
0.99261451
0.99706765
1.0075531
1.0186533
1.0158767
1.0069907
1.0058873
1.0083489
1.0097359
1.0099125
1.0116831
1.0130846
1.013806
1.0136646
1.013888
1.0151173
1.0165682
1.0180212
1.0193624
1.0200862
1.0199468
1.0208026
1.0238414
1.027115
1.0285859
1.0287408
1.0273845
1.0247985
1.0227107
1.0221127
1.0215359
1.0214874
1.0210641
1.021956
1.0229883
1.0249182
1.0262359
1.0254988
1.0277069
1.030293
1.0296109
1.0303112
1.0323167
1.0012997
1.0024028
1.0023597
0.99980826
0.9975026
0.99546218
0.99185145
0.98715401
0.98286407
0.97888518
0.97591651
0.97339188
0.97227578
0.97213532
0.97197718
0.96944907
0.96845589
0.97247768
0.97770133
0.98288027
0.98931262
0.99690513
1.0083399
1.0168243
1.0131972
1.0065878
1.0072276
1.0086232
1.008454
1.0085294
1.0111772
1.0135029
1.0151515
1.0155102
1.0153453
1.0150484
1.0164137
1.0179829
1.0197297
1.0208096
1.0210449
1.0218549
1.023237
1.0259407
1.0288569
1.029965
1.0293765
1.0280981
1.0259207
1.0238597
1.0217256
1.021801
1.0218008
1.0228304
1.0239991
1.0231383
1.0244859
1.0253746
1.0261963
1.0274336
1.0289386
1.0284552
1.0295545
1.0009839
1.0025503
1.0020207
1.0001486
0.99770343
0.99552999
0.9918378
0.98707096
0.98266412
0.97871695
0.97532103
0.97256815
0.97240072
0.97270968
0.9717681
0.96857542
0.96863108
0.97335636
0.97723707
0.97994079
0.98570413
0.99584154
1.0090611
1.0151317
1.0106695
1.0066954
1.0087085
1.0085305
1.0062027
1.00625
1.0094645
1.0125996
1.0153734
1.0170193
1.017437
1.0164705
1.0163837
1.0177048
1.0196878
1.0211118
1.0222577
1.0226831
1.0231821
1.0253234
1.0285026
1.0306313
1.0309931
1.0302647
1.0281695
1.0254218
1.0242017
1.0231715
1.023656
1.0227167
1.0231977
1.0221804
1.0229994
1.0259519
1.0253067
1.0245183
1.0279262
1.0285334
1.0287499
1.0013786
1.0025125
1.0021507
1.0000511
0.99765207
0.99556894
0.99203518
0.98740221
0.98304536
0.97863672
0.97557495
0.97221735
0.97239673
0.97214481
0.97129354
0.96820405
0.96922395
0.97482408
0.97723395
0.97803287
0.98284492
0.99410472
1.0090142
1.0142575
1.0095523
1.0080856
1.0109027
1.0090443
1.0044691
1.0043305
1.0071114
1.0109118
1.0147329
1.0174374
1.0190673
1.018915
1.0175677
1.0176333
1.0191739
1.0213338
1.0226862
1.0232298
1.0241554
1.025627
1.0276817
1.0300385
1.0315156
1.0313667
1.0303841
1.0285184
1.0269899
1.0244048
1.0238002
1.022355
1.0220413
1.023984
1.0238363
1.0242431
1.0244698
1.0249656
1.0264142
1.0267769
1.0265755
1.0009901
1.0022719
1.0024134
1.0000416
0.9977206
0.99570036
0.99202254
0.98726475
0.98288865
0.97869958
0.97473009
0.97187376
0.97205577
0.97271336
0.97074527
0.96785579
0.96952163
0.97652105
0.97732842
0.9761801
0.9801849
0.99206048
1.0073728
1.0131209
1.0096435
1.0104648
1.0137263
1.0104639
1.0045123
1.0035589
1.0051485
1.0091627
1.0134846
1.017193
1.0197261
1.0209145
1.0199919
1.0186737
1.0191379
1.0212231
1.0229212
1.0241803
1.0250224
1.0255169
1.0269071
1.0294108
1.031687
1.0325222
1.0321453
1.0312379
1.0282281
1.0261695
1.0240494
1.0237956
1.0235045
1.0246463
1.0240615
1.0221019
1.0233438
1.025501
1.0241694
1.0243906
1.0254726
1.0013213
1.0026562
1.0019235
1.0002359
0.9977699
0.99566514
0.99225418
0.98759982
0.98311224
0.97839495
0.97479377
0.97078446
0.97245409
0.97276137
0.9704808
0.96677906
0.96967914
0.97735104
0.97733166
0.97431774
0.97733223
0.98955847
1.0046176
1.0112152
1.0100121
1.0133327
1.017341
1.0128104
1.0057094
1.0035828
1.0043861
1.0082848
1.0122556
1.0163999
1.0195255
1.0218884
1.0222347
1.0206691
1.0199677
1.0210136
1.023282
1.024846
1.0252796
1.0258734
1.0271985
1.029345
1.0313796
1.0327901
1.0328934
1.0321117
1.0298705
1.0290352
1.0264055
1.0253657
1.0253577
1.0228482
1.0225162
1.022798
1.0234781
1.0239412
1.0234896
1.0241986
1.0267543
1.0011472
1.0022507
1.0021139
1.0000995
0.99776368
0.99586617
0.99222296
0.98752665
0.98319659
0.97868374
0.97438794
0.97069924
0.97211195
0.97273229
0.96954839
0.96632153
0.96892849
0.9777718
0.97819881
0.97287127
0.97467907
0.98706489
1.0016111
1.00873
1.0100472
1.0159169
1.0206484
1.0148111
1.0061635
1.0035507
1.0049274
1.0082876
1.0115593
1.015458
1.0188318
1.022059
1.0234407
1.0230813
1.0217292
1.0215628
1.0230478
1.0246943
1.0258762
1.0268478
1.0275625
1.0284452
1.0303414
1.0322158
1.033647
1.0330048
1.0325866
1.0307875
1.0286206
1.0261386
1.0248328
1.0228979
1.0227847
1.0242747
1.0244567
1.0227928
1.0241477
1.024105
1.024451
1.0012349
1.0024187
1.002491
1.000271
0.9978568
0.9957885
0.99243937
0.98778638
0.98328101
0.97851447
0.97399145
0.96953616
0.97235207
0.97356711
0.96921325
0.96566165
0.96876148
0.97866714
0.97975839
0.9726922
0.9730785
0.98467156
0.99836233
1.0057419
1.0097637
1.0177319
1.0225469
1.0153501
1.0057786
1.0038472
1.0066403
1.0093532
1.0116035
1.014641
1.0181418
1.0215885
1.0240191
1.0249073
1.0239076
1.0227863
1.0230155
1.0246916
1.0266531
1.0272959
1.0274739
1.0280813
1.0299206
1.0320149
1.0336607
1.0335405
1.0338422
1.0313978
1.0298955
1.0282998
1.0251266
1.0252831
1.0250401
1.0237366
1.023574
1.0226854
1.0231666
1.0229859
1.0209458
1.0012177
1.0024404
1.0017472
1.0002043
0.99782142
0.99597336
0.9924701
0.98783138
0.98349483
0.97875744
0.97420402
0.96892638
0.97239882
0.97341334
0.96904469
0.96503117
0.96896275
0.97908353
0.98156135
0.97333844
0.97211356
0.98260278
0.99546768
1.0038695
1.0104191
1.0195129
1.0237763
1.0152637
1.00597
1.0056038
1.0092037
1.0113487
1.0127706
1.0147576
1.0175452
1.0208908
1.024098
1.0257919
1.0256576
1.0245079
1.0241608
1.0252668
1.0264886
1.0272083
1.0278166
1.0288845
1.0295991
1.03116
1.0322003
1.033613
1.0337603
1.032805
1.0316788
1.0303714
1.0277355
1.0265999
1.0251593
1.0232407
1.0223452
1.0227248
1.0210391
1.0224208
1.0222381
1.0013002
1.0022308
1.0022825
1.0002989
0.99792951
0.99597052
0.99259852
0.98799436
0.9835709
0.97877776
0.97357675
0.96828787
0.97209723
0.97394865
0.9680045
0.96403152
0.96790329
0.97901706
0.98421881
0.97571628
0.97162874
0.9810033
0.99294775
1.001647
1.0107132
1.0213766
1.0251958
1.0153311
1.0066616
1.0080255
1.0120117
1.013649
1.0150142
1.0162898
1.0175504
1.0201056
1.0235434
1.026033
1.0269679
1.026533
1.0257724
1.0257453
1.0263279
1.0277156
1.0286143
1.0288899
1.0289381
1.0300923
1.0314381
1.0340141
1.0337424
1.0340057
1.0331792
1.0306585
1.0299243
1.0273717
1.0244892
1.0246687
1.02307
1.0226532
1.0212243
1.022592
1.0247911
1.0011892
1.0023351
1.0022449
1.0003084
0.99787341
0.99602129
0.99271941
0.98813904
0.98376179
0.97882248
0.9737858
0.96681813
0.97226708
0.97404362
0.96768964
0.96270325
0.96693403
0.97878217
0.98812793
0.97890502
0.97196796
0.97894285
0.99046161
1.0000941
1.0113628
1.0231616
1.0262179
1.0153515
1.007522
1.0101372
1.0137322
1.0148445
1.0168885
1.0187508
1.0193342
1.0198959
1.0226541
1.0258036
1.0278957
1.0280246
1.0271447
1.0265795
1.0272068
1.0280985
1.0285203
1.0283671
1.0291191
1.0300161
1.0315962
1.0330101
1.0333344
1.0337297
1.0335435
1.0319476
1.0309696
1.0291502
1.0266216
1.0256205
1.0239301
1.0226429
1.0234068
1.0222685
1.0223694
1.0013573
1.0023124
1.0018563
1.0003727
0.9979941
0.99617008
0.99278736
0.98825078
0.98389516
0.97906467
0.97339222
0.96627407
0.97168642
0.9738452
0.96705232
0.96197513
0.96679861
0.97843082
0.99195101
0.9806251
0.97347088
0.97709677
0.98803921
0.99772674
1.0106533
1.0239467
1.026094
1.0146776
1.0075452
1.0112448
1.0139391
1.0141097
1.0170061
1.019899
1.0217904
1.0213596
1.0222104
1.0253523
1.0280848
1.0292635
1.0288246
1.0280735
1.0279118
1.0279572
1.0283941
1.0291297
1.0297493
1.0298846
1.0308985
1.0309623
1.0330739
1.0339272
1.0337012
1.0339017
1.0316128
1.0300003
1.0291888
1.0256907
1.0244275
1.0236361
1.0242333
1.0215965
1.018766
1.0012203
1.0021477
1.002345
1.0003948
0.99792201
0.99608279
0.99294482
0.98842876
0.98410834
0.97906446
0.97319748
0.96453483
0.97149445
0.97408874
0.965995
0.96170685
0.96576329
0.97812849
0.99461406
0.98046479
0.97551207
0.97631347
0.98471218
0.99550523
1.0101939
1.0235228
1.0245579
1.0133832
1.0072622
1.0107235
1.0120712
1.011792
1.0158438
1.0198201
1.0229648
1.0237013
1.0234755
1.0250376
1.0278014
1.0300344
1.0303487
1.0293875
1.0283536
1.0284758
1.0291014
1.0297305
1.0293987
1.029294
1.0298348
1.0305494
1.0329182
1.0339378
1.0335635
1.0337984
1.0326298
1.0306192
1.0300318
1.027205
1.0257123
1.0250242
1.0227586
1.0212533
1.0202753
1.0013549
1.0023329
1.0019573
1.000463
0.99804561
0.99631389
0.99300427
0.98855787
0.98426821
0.97941414
0.97333661
0.96319445
0.97119788
0.97431891
0.96591948
0.96075168
0.96572795
0.97803712
0.99531547
0.97954501
0.9774214
0.97645206
0.98249791
0.99355894
1.008701
1.021732
1.0219212
1.0122772
1.0076893
1.010644
1.0095613
1.008872
1.013394
1.0187764
1.0231995
1.0256401
1.0256167
1.0255412
1.0276881
1.0302847
1.0311533
1.0305267
1.0295967
1.0293556
1.0294134
1.0293424
1.0293726
1.0296894
1.0297044
1.0310522
1.0316844
1.0325097
1.0334053
1.033098
1.0334915
1.0322856
1.0301571
1.0294925
1.0272843
1.0256928
1.0222069
1.0220499
1.0239668
1.001273
1.0020185
1.0021081
1.0004753
0.99798082
0.99620104
0.99315998
0.98872273
0.98450543
0.97961718
0.97295338
0.96183784
0.97059313
0.97461178
0.96499237
0.96081204
0.96625328
0.97762858
0.99428639
0.97897777
0.97903938
0.97716093
0.98063868
0.99116541
1.007324
1.0196021
1.019081
1.0116949
1.0096455
1.0120744
1.0083935
1.0064338
1.0109639
1.0171407
1.0221905
1.0262846
1.0275964
1.0270455
1.02807
1.0301062
1.0316573
1.0317622
1.0310639
1.0300278
1.0295082
1.0294429
1.0297764
1.0298541
1.0297607
1.0303176
1.0303605
1.031486
1.03319
1.0335885
1.0334248
1.0333264
1.030796
1.0303493
1.0286682
1.0263444
1.0246464
1.023635
1.0236401
1.0013599
1.0023598
1.0021211
1.0005604
0.99809429
0.99639925
0.99322762
0.98888484
0.98475002
0.9799203
0.9732208
0.95941994
0.97057746
0.97528624
0.96419831
0.96075625
0.96685393
0.97794485
0.99228672
0.97848943
0.9801118
0.97761255
0.97932023
0.98932209
1.0050612
1.0168402
1.0171261
1.0124332
1.012568
1.0146405
1.0085262
1.0038227
1.008984
1.0161196
1.021606
1.0258752
1.0287052
1.0290118
1.0290222
1.0300763
1.0321361
1.0327905
1.0319783
1.0306285
1.0300098
1.0300967
1.0301072
1.0296213
1.0297563
1.0295492
1.0302559
1.0314752
1.0323444
1.0334741
1.0328892
1.0327697
1.0321865
1.0306584
1.0301662
1.0272901
1.0270564
1.0249996
1.0212055
1.0013372
1.001871
1.0019431
1.0005821
0.99805107
0.99633613
0.99336968
0.98904966
0.98494909
0.98032917
0.97302507
0.95797266
0.96987398
0.97563711
0.96428646
0.96039016
0.96818433
0.9788647
0.98955192
0.97659618
0.98127841
0.9777169
0.97848117
0.98709975
1.0028955
1.0149126
1.0161986
1.0139973
1.0155519
1.0166604
1.0083571
1.0002746
1.0067504
1.015333
1.021231
1.02543
1.0289838
1.0305837
1.0301192
1.0305366
1.032201
1.0331737
1.0326689
1.0317427
1.0309802
1.0304821
1.0298849
1.0295781
1.0297983
1.0295604
1.030252
1.0308327
1.0314162
1.0320635
1.0326851
1.0322208
1.0333852
1.0318414
1.0310563
1.0280862
1.0273588
1.0260771
1.0222369
1.0013777
1.0022857
1.0021769
1.0006328
0.99812285
0.99647442
0.99344351
0.98922219
0.98534859
0.98074709
0.97312983
0.9551714
0.96947125
0.97663769
0.96321228
0.96097206
0.96935273
0.97953485
0.98604381
0.97317558
0.98258295
0.97819186
0.97733359
0.98587496
1.0011766
1.0127904
1.0154686
1.0154614
1.0175581
1.0173028
1.0069078
0.99634045
1.0043942
1.0151318
1.0206439
1.0253958
1.0289246
1.0312646
1.0313709
1.0313426
1.032137
1.0333148
1.0335193
1.0328537
1.0316935
1.0304578
1.0298348
1.0301907
1.0298545
1.0300314
1.0300127
1.0299878
1.0308037
1.0311818
1.0326767
1.032829
1.0332681
1.0326425
1.0307116
1.0292946
1.0278853
1.0273234
1.0260372
1.0014097
1.0018987
1.0018733
1.0007102
0.99812794
0.99645255
0.99357584
0.98939382
0.98549416
0.98130004
0.97321399
0.95260661
0.96905711
0.97774417
0.96280006
0.96098891
0.97037062
0.9800732
0.98236998
0.96890484
0.98396235
0.97923705
0.97693885
0.98486084
0.99896433
1.0105775
1.0145272
1.0163246
1.0191788
1.0175703
1.0048663
0.99197349
1.0021971
1.0161126
1.0202537
1.0248956
1.0291622
1.0318566
1.0326412
1.0321048
1.0324528
1.0335793
1.0341156
1.0333732
1.0320325
1.0309685
1.0305517
1.0306129
1.02977
1.0299243
1.0295219
1.0296551
1.030364
1.0310809
1.0318334
1.0332441
1.0321999
1.0321648
1.0305287
1.0314069
1.029855
1.027967
1.0274173
1.001416
1.0020329
1.002136
1.0007355
0.99814417
0.99655313
0.99365407
0.98957034
0.9860232
0.98188476
0.97318799
0.94983015
0.96779876
0.97858966
0.96271033
0.96055035
0.9715525
0.98043031
0.9789061
0.9632601
0.98652838
0.98097961
0.97625539
0.98338315
0.99711766
1.0084319
1.0134453
1.0171824
1.0209968
1.0181425
1.0026056
0.98740935
1.0000789
1.0181953
1.0212641
1.024713
1.0289593
1.0322902
1.0335431
1.0330184
1.033066
1.0337696
1.0341045
1.0336267
1.0326397
1.0319386
1.0313182
1.0304029
1.0299071
1.0295775
1.0294577
1.029827
1.0301083
1.0310215
1.0308688
1.0323101
1.0317988
1.0319315
1.0316643
1.0326145
1.0308659
1.0282097
1.0266396
1.0014653
1.0019798
1.0019044
1.0008079
0.99818571
0.9965465
0.99377511
0.98973112
0.98615819
0.98250833
0.9736168
0.94591188
0.96710013
0.98038829
0.96155593
0.96144516
0.97216003
0.98126003
0.97541708
0.95444552
0.99016842
0.98284009
0.97593099
0.98265249
0.99531141
1.0062917
1.0127103
1.0183567
1.023064
1.0186285
1.0003839
0.98316412
0.99786792
1.02049
1.0230882
1.0250432
1.0288816
1.0327333
1.0342442
1.0341989
1.0336689
1.0336725
1.0340813
1.0340272
1.0335034
1.0323535
1.0312949
1.0303199
1.0304855
1.0298461
1.0299918
1.0298669
1.0297007
1.0301808
1.0304876
1.0310236
1.0318212
1.0322479
1.0326708
1.0319257
1.0302053
1.0290592
1.02802
1.0014924
1.0018106
1.002009
1.0008722
0.99816768
0.9966257
0.99385908
0.98990153
0.98674832
0.9831682
0.97369254
0.94265137
0.96563873
0.98176761
0.96117312
0.96090482
0.97283409
0.98326356
0.9721782
0.94265514
0.99491063
0.98471232
0.97621871
0.98158776
0.99330105
1.0041892
1.0122141
1.0198532
1.0250218
1.0180156
0.99784087
0.98085865
0.99469588
1.0215815
1.0253619
1.0266584
1.0292352
1.032633
1.0347754
1.0351017
1.0341887
1.0338712
1.0341619
1.0342329
1.0337458
1.0324855
1.031609
1.0310671
1.0310307
1.0305099
1.0302045
1.0294187
1.0291807
1.0293413
1.0305817
1.0303668
1.0317673
1.0321424
1.0324445
1.031078
1.0304168
1.0304702
1.0303971
1.0015056
1.0019237
1.0019344
1.0009287
0.99822554
0.99662825
0.99396615
0.9900592
0.98690081
0.98391373
0.97434656
0.93808221
0.96380645
0.98351946
0.96082746
0.96048863
0.9737887
0.98546706
0.96914501
0.93033212
0.99933331
0.98660846
0.976429
0.98077603
0.99186468
1.002923
1.0123334
1.0215746
1.0264302
1.0162975
0.99444928
0.97761198
0.98858582
1.0195423
1.0268681
1.028957
1.0298847
1.0325342
1.0350781
1.0355284
1.0347848
1.0343097
1.0343379
1.0342529
1.0335658
1.0330687
1.0323668
1.0320023
1.0309754
1.0307894
1.0296046
1.0293431
1.0292693
1.0293573
1.0304667
1.0301953
1.0311694
1.0314156
1.0316236
1.0310879
1.0318827
1.0313006
1.0302963
1.0015624
1.0016982
1.0019305
1.0010044
0.99818536
0.99669038
0.99405341
0.99021028
0.98748216
0.98485238
0.97481881
0.93340545
0.96242972
0.98582652
0.95974078
0.96132937
0.97458038
0.98773961
0.96680247
0.92037125
1.0021359
0.98784129
0.97733473
0.98071398
0.99074132
1.0015852
1.0120624
1.0227877
1.0270114
1.0135853
0.99038412
0.97357319
0.97970041
1.0142501
1.025578
1.0314382
1.0311782
1.0326172
1.035039
1.0359204
1.035452
1.0347433
1.0345798
1.0344661
1.0339204
1.0337606
1.0326337
1.0319348
1.0310583
1.0308056
1.029623
1.0300347
1.029571
1.0295652
1.0294163
1.029991
1.0302048
1.0305295
1.0311426
1.0315915
1.0325044
1.0313427
1.0291991
1.0015602
1.0017735
1.0018797
1.0010774
0.99824155
0.99670632
0.99414809
0.99034875
0.98774177
0.98588536
0.97562153
0.9283588
0.95975606
0.98739018
0.95951271
0.96078448
0.97537297
0.99017475
0.96433555
0.9123002
1.0044655
0.98807471
0.97805478
0.98015902
0.9894865
1.0004034
1.0116107
1.0233398
1.0265083
1.0108731
0.98860342
0.9712559
0.97156309
1.0075602
1.0223773
1.0326163
1.0326754
1.0329425
1.0350262
1.0362779
1.0358411
1.0349801
1.0347497
1.0346773
1.0345226
1.0338865
1.0328597
1.0320718
1.0316647
1.0311033
1.0308414
1.030289
1.0295565
1.0291763
1.0281931
1.0295771
1.0297511
1.0303772
1.0311599
1.0319421
1.0315166
1.0310485
1.0298278
1.0016322
1.0016351
1.0018864
1.0011536
0.99820621
0.99675549
0.99422425
0.99046896
0.98830086
0.98705665
0.97646389
0.92193351
0.9574142
0.98907325
0.95915575
0.960407
0.97606619
0.99133447
0.96235562
0.9115493
1.0089518
0.9873871
0.97880533
0.98005767
0.98845128
0.99874833
1.0101742
1.0227529
1.0255971
1.0097472
0.99021042
0.9747553
0.96695669
1.0018558
1.0189126
1.0326701
1.0340618
1.0334912
1.0349334
1.0362752
1.0360711
1.035567
1.0352344
1.0346156
1.0346327
1.0334595
1.0333067
1.0328929
1.0322446
1.0312771
1.0313164
1.0298815
1.0291933
1.0287175
1.0286642
1.0291758
1.0296077
1.0304987
1.0308455
1.0314384
1.0303198
1.0308867
1.0317381
1.0016375
1.0016127
1.0018373
1.001238
0.99824201
0.99677968
0.99430337
0.99059829
0.98864016
0.98837736
0.97741317
0.91540548
0.95411051
0.99036395
0.95888775
0.96112826
0.97548933
0.99169897
0.9578382
0.90166559
1.0143256
0.98648051
0.97893637
0.97954618
0.98645968
0.99650305
1.0085266
1.0217654
1.0252379
1.0106026
0.99343883
0.98133608
0.96201945
0.9963421
1.0159953
1.0323987
1.0347615
1.033992
1.0350353
1.0361424
1.0363236
1.036335
1.035798
1.0348655
1.0340663
1.0336016
1.0335844
1.0331164
1.0321384
1.0315735
1.0309715
1.0299738
1.0292658
1.0286488
1.0296485
1.0289393
1.0291129
1.0298945
1.029899
1.03044
1.0303522
1.0310157
1.0327894
1.0017166
1.0015185
1.0018123
1.0013304
0.99822337
0.99681882
0.994358
0.99067591
0.98913358
0.9898758
0.97914279
0.90736582
0.95151253
0.99205479
0.95913769
0.960596
0.97485203
0.9918742
0.96039614
0.90656944
1.0198804
0.98536546
0.98000543
0.97908864
0.98515798
0.99529388
1.0072628
1.020493
1.0251568
1.012316
0.99667289
0.98783044
0.96798632
0.99289993
1.0146626
1.0321198
1.0348885
1.0345365
1.0352268
1.036363
1.0369083
1.03673
1.0356869
1.03496
1.034092
1.034236
1.0337545
1.032759
1.0321112
1.0322414
1.0309762
1.0308556
1.0302702
1.0292461
1.0293493
1.0283594
1.0283978
1.0290056
1.0292889
1.0299245
1.0313442
1.0313437
1.0317506
1.0017353
1.0014733
1.0017652
1.0014294
0.99824513
0.99684011
0.99446668
0.99076361
0.98952562
0.99170008
0.97781506
0.89825172
0.94243478
0.99362146
0.95888001
0.96046879
0.97498931
0.99237924
0.95087579
0.8959021
1.0268529
0.98316768
0.98058502
0.97880174
0.98399924
0.9940102
1.0058343
1.0194119
1.0253404
1.0140891
0.99969033
0.9930481
0.97071864
0.98964981
1.0145901
1.0323199
1.0350581
1.035079
1.0354183
1.0365868
1.037294
1.0371062
1.0359985
1.0351252
1.034228
1.0341451
1.0335602
1.0327858
1.0324733
1.0322459
1.031293
1.0310984
1.0305952
1.0297411
1.0282847
1.0280625
1.0283486
1.0288044
1.0294545
1.0296395
1.0314554
1.0312918
1.0299429
1.0018246
1.0013353
1.0017874
1.0015355
0.99820364
0.99686898
0.99447873
0.99079897
0.98998105
0.9937483
0.9849749
0.88808296
0.95067469
0.99635688
0.95830373
0.96152917
0.97482578
0.99328556
0.96352495
0.8873209
1.0391949
0.98054561
0.98151572
0.97896567
0.98341994
0.99342101
1.0051259
1.0190233
1.025953
1.0157936
1.0035162
0.99687033
0.98842118
0.99080912
1.0180845
1.032794
1.035165
1.0355776
1.0359728
1.0369539
1.0376956
1.0375575
1.0367868
1.0355404
1.0341332
1.0337334
1.0337431
1.0338763
1.0334707
1.0320578
1.0317527
1.0307878
1.030173
1.0296317
1.0283353
1.0288423
1.0289271
1.0289147
1.0295094
1.0292747
1.0300306
1.03072
1.0292356
1.0018226
1.0013174
1.001636
1.0016386
0.99823882
0.99688725
0.99458102
0.99083887
0.99030017
0.99615657
0.97717021
0.87862244
0.91114615
1.0026511
0.958134
0.96099003
0.97365536