/*--------------------------------*- C++ -*----------------------------------*\
| =========                 |                                                 |
| \\      /  F ield         | OpenFOAM: The Open Source CFD Toolbox           |
|  \\    /   O peration     | Version:  2406                                  |
|   \\  /    A nd           | Website:  www.openfoam.com                      |
|    \\/     M anipulation  |                                                 |
\*---------------------------------------------------------------------------*/
FoamFile
{
    version     2.0;
    format      ascii;
    arch        "LSB;label=32;scalar=64";
    class       volScalarField;
    location    "5";
    object      p_0;
}
// * * * * * * * * * * * * * * * * * * * * * * * * * * * * * * * * * * * * * //

dimensions      [1 -1 -2 0 0 0 0];

internalField   nonuniform List<scalar> 
96472
(
1.0041008
1.0073527
1.0070222
1.0049817
1.0017655
0.99751914
0.99310652
0.9889322
0.98518543
0.98224077
0.98037407
0.97996891
0.98117036
0.98408224
0.98907244
0.99616375
1.0043326
1.0112453
1.0143755
1.0152713
1.0165152
1.0185324
1.0216203
1.0253775
1.0291533
1.0324912
1.0349806
1.036776
1.0380873
1.0390169
1.0396479
1.0399994
1.0399892
1.03977
1.0393799
1.0387902
1.0384322
1.038044
1.0380049
1.0381413
1.0386571
1.0394056
1.0403296
1.0412606
1.0417999
1.0425551
1.0426601
1.0424038
1.0419732
1.0410242
1.0401913
1.0393551
1.0382317
1.036988
1.0356112
1.0043271
1.008308
1.008311
1.0063231
1.0030245
0.99864074
0.9940478
0.98970214
0.98582441
0.98274774
0.9807506
0.98021591
0.98129056
0.98405
0.98887511
0.99581492
1.0040841
1.0114772
1.0153456
1.016629
1.0180425
1.0201086
1.0231654
1.0267389
1.030274
1.0331933
1.0352252
1.03663
1.037694
1.0383636
1.0389275
1.0393011
1.0393964
1.0392572
1.0388942
1.0385255
1.0380642
1.0377595
1.0375927
1.0377023
1.0381292
1.0387687
1.0395624
1.0404251
1.0414498
1.0419949
1.0422127
1.042356
1.0419453
1.0414244
1.0407157
1.0397513
1.0386948
1.0375956
1.0366311
1.0044839
1.0091491
1.009495
1.0076087
1.0042331
0.99970185
0.99495358
0.99045059
0.98646281
0.9832714
0.98116478
0.98050234
0.98145815
0.9840715
0.98871861
0.99552275
1.0038287
1.0116132
1.0162187
1.017925
1.0195459
1.0216739
1.0246644
1.0280802
1.0313615
1.0338325
1.0354155
1.0364482
1.0371654
1.0376802
1.0381515
1.0384987
1.0386898
1.0386779
1.0384832
1.0381307
1.0377323
1.0374122
1.0372566
1.037386
1.037614
1.0381323
1.0389171
1.039875
1.0405994
1.0413565
1.0420074
1.0421456
1.0420058
1.0417046
1.0410242
1.040172
1.0393494
1.0384044
1.0375093
1.0045692
1.0098555
1.0105636
1.0088646
1.0054403
1.0007521
0.99585645
0.9912399
0.98713572
0.98386456
0.98165309
0.98085891
0.9816872
0.98412091
0.9885829
0.99524342
1.0035473
1.0117453
1.0170272
1.0192344
1.0210657
1.0232557
1.0262115
1.0294491
1.0323879
1.0344456
1.035566
1.0362483
1.036674
1.0369612
1.0373319
1.0376501
1.0378894
1.0379229
1.0378424
1.0375922
1.0373073
1.0369849
1.036874
1.0367635
1.0370932
1.0375967
1.0382884
1.0389922
1.0399988
1.040906
1.0414503
1.0418166
1.0420089
1.0417183
1.0412222
1.0407498
1.0399329
1.0391298
1.0380238
1.0045874
1.0104062
1.0114934
1.0100323
1.0065747
1.0017586
0.99671999
0.99200479
0.98783427
0.98446951
0.98213898
0.98124374
0.98197394
0.98427154
0.9885168
0.994992
1.003256
1.0117837
1.0177431
1.0204896
1.0225697
1.0248734
1.027732
1.0307952
1.0333416
1.0349438
1.0356899
1.0360228
1.0361622
1.036246
1.0364307
1.0367227
1.0369903
1.0372037
1.0371822
1.0370855
1.0368966
1.0367227
1.0364561
1.0365805
1.0366723
1.0370632
1.0376087
1.0385081
1.0393926
1.0401658
1.0409785
1.0416436
1.0418064
1.0418561
1.0417367
1.0412055
1.0405207
1.0397333
1.0390364
1.0045456
1.0107903
1.0122872
1.0111242
1.0076958
1.0027982
0.99763778
0.9928103
0.98857783
0.98513615
0.98273407
0.98170947
0.98234217
0.98447306
0.98853481
0.99478605
1.0029679
1.0116996
1.0183672
1.0216498
1.0239906
1.0263927
1.0292231
1.0320801
1.0342542
1.0354048
1.0357794
1.0357664
1.0355807
1.0355014
1.0355778
1.0357905
1.0360929
1.0362499
1.0364016
1.0363553
1.0362375
1.0360658
1.0360711
1.0359638
1.0361682
1.0364948
1.0370911
1.0377916
1.038561
1.0395411
1.040473
1.0410866
1.041668
1.0418767
1.0418076
1.0413647
1.0411526
1.0404392
1.040023
1.0044546
1.0109973
1.012913
1.0120766
1.0087169
1.0037559
0.99849254
0.99360284
0.9893269
0.98583008
0.98335493
0.98220613
0.98271756
0.984722
0.98861682
0.99466025
1.002704
1.0115647
1.018881
1.0227694
1.0254095
1.0279252
1.0306497
1.033224
1.035086
1.0358022
1.0357519
1.0354188
1.0349822
1.0347185
1.0346257
1.0347765
1.0350156
1.0353372
1.0355026
1.035662
1.0357033
1.0357066
1.0356227
1.0356696
1.0358144
1.036132
1.0365921
1.0372149
1.0380946
1.0390489
1.0398883
1.040761
1.0413695
1.041825
1.0419811
1.0420753
1.0417501
1.0412635
1.0404845
1.0043221
1.0110407
1.013377
1.0129049
1.0096893
1.0047385
0.99941369
0.99445853
0.99012058
0.98659581
0.9840547
0.98282452
0.98322513
0.98505759
0.98872783
0.99457202
1.0024394
1.0114328
1.0192259
1.0238183
1.0267429
1.0293539
1.0320338
1.0344027
1.0358332
1.0361789
1.0357438
1.0350662
1.034443
1.0339526
1.0337369
1.0338078
1.0340681
1.034309
1.0346185
1.0347491
1.0348813
1.0349384
1.035006
1.0351587
1.0352846
1.0355596
1.0360204
1.0367001
1.0374884
1.0382887
1.0392497
1.0401648
1.0410058
1.0416604
1.0419746
1.0422091
1.04183
1.0418665
1.0415281
1.004154
1.0109381
1.0136648
1.0135687
1.0105455
1.0056671
1.0002775
0.99527675
0.99095966
0.98740934
0.98479735
0.9834585
0.98373871
0.98545616
0.98892152
0.99449971
1.0021681
1.0111761
1.0194408
1.0246934
1.0279663
1.030795
1.0333757
1.0355073
1.0365332
1.0364237
1.0357415
1.0347323
1.033858
1.0331725
1.032835
1.0328016
1.0329666
1.0332879
1.0335853
1.0339505
1.0341669
1.034345
1.0345508
1.0346224
1.0348757
1.0352314
1.0356607
1.0362161
1.0369353
1.0378375
1.0388058
1.0397843
1.0406704
1.0413683
1.0419931
1.0423188
1.0427161
1.0426498
1.0424237
1.0039592
1.0107199
1.0137851
1.0140478
1.0113357
1.0065829
1.0011969
0.99617638
0.99183018
0.98822311
0.98562214
0.98421204
0.98436512
0.98595163
0.98918858
0.99449952
1.0019178
1.0108919
1.0195806
1.0254604
1.0291366
1.0321055
1.034622
1.0364543
1.0371521
1.0366227
1.0355998
1.0343883
1.0332432
1.0323784
1.0319492
1.0318239
1.0319092
1.0321216
1.0325022
1.0328516
1.0331997
1.0335623
1.0337265
1.0340551
1.0343341
1.0346153
1.0350975
1.0357198
1.0364518
1.0372728
1.0382187
1.0391639
1.0401048
1.0410113
1.0419366
1.0424426
1.0428006
1.0429741
1.0426434
1.0037477
1.0103835
1.0137381
1.0143847
1.0119892
1.0074062
1.0020499
0.99708414
0.99275755
0.98915162
0.98649126
0.98497391
0.98498183
0.98645533
0.98951008
0.99454373
1.0017268
1.0105513
1.0195307
1.0261071
1.0301742
1.033333
1.0358077
1.0373572
1.0376527
1.0368711
1.0354668
1.0340459
1.0326948
1.0316491
1.0310985
1.0308476
1.0309105
1.0311206
1.0314795
1.0318948
1.0323733
1.0326558
1.033114
1.0334649
1.0337708
1.0342155
1.0347148
1.0352735
1.035956
1.0368328
1.037737
1.038723
1.0398271
1.0408943
1.0415522
1.0424851
1.0428671
1.0433479
1.0438474
1.0035357
1.0099562
1.0135231
1.0145321
1.0125056
1.0081907
1.0029406
0.99802251
0.99369205
0.99011723
0.98740471
0.98585468
0.98573629
0.98709792
0.98987016
0.99463322
1.0014959
1.0101724
1.0193219
1.02656
1.0311481
1.0345062
1.0368805
1.0382131
1.0381409
1.0369525
1.0353522
1.0336669
1.0321128
1.0309894
1.0302432
1.0298978
1.0298127
1.0299847
1.0303069
1.0307812
1.031195
1.0317796
1.0322291
1.0326255
1.0331497
1.0336465
1.0341199
1.0347567
1.0355443
1.036345
1.0372451
1.0383091
1.0392994
1.0402753
1.0414148
1.0421902
1.0432002
1.0435676
1.0443084
1.0033259
1.0094688
1.0131501
1.014536
1.0129112
1.0088896
1.0037944
0.99894874
0.99468535
0.99112078
0.98842452
0.98674473
0.9864851
0.98770047
0.99027835
0.99475779
1.0013011
1.0097949
1.019017
1.0267921
1.0319157
1.0355609
1.0378925
1.0389709
1.0385749
1.0370782
1.0352007
1.0333229
1.031604
1.0302895
1.0294337
1.0289504
1.0288338
1.0288875
1.0292616
1.0296744
1.0302639
1.030801
1.0313363
1.0319903
1.0325178
1.0330156
1.0336563
1.034362
1.035056
1.0358447
1.0368299
1.037789
1.038911
1.0399061
1.0411679
1.0419265
1.0429939
1.043848
1.0441962
1.0031243
1.0089522
1.0126605
1.0143684
1.0131454
1.0094997
1.0046137
0.99993
0.99570451
0.99213498
0.98943255
0.98773494
0.98735266
0.98838132
0.99072763
0.99486758
1.0011172
1.0093289
1.0186805
1.0269622
1.0325611
1.036458
1.0388692
1.0396901
1.0389342
1.0372021
1.0350995
1.0330153
1.0311575
1.0296753
1.028668
1.0280878
1.0278296
1.0279074
1.0281542
1.0285672
1.0290984
1.0296821
1.0303514
1.0309762
1.0316256
1.0323784
1.0330749
1.033746
1.0345251
1.0354738
1.0364247
1.0374042
1.0384557
1.0397115
1.0406084
1.0419961
1.0429349
1.0438458
1.0444782
1.0029248
1.0084241
1.0120915
1.014067
1.0132469
1.0100299
1.0054261
1.0009347
0.99679843
0.99327232
0.99052072
0.98874173
0.9881861
0.98907941
0.99118715
0.99505717
1.0009395
1.0088357
1.0181215
1.0268559
1.0331549
1.0372972
1.0396928
1.0402824
1.0392658
1.0372829
1.0349619
1.0326678
1.0306324
1.0291122
1.027982
1.0272735
1.0268933
1.0268378
1.027067
1.0274928
1.0280007
1.0287053
1.0293911
1.0301016
1.0308915
1.0316452
1.0323946
1.0331838
1.0340872
1.0349616
1.0358247
1.0369692
1.0379941
1.0391525
1.0403322
1.0415439
1.0424456
1.0434792
1.0449545
1.0027284
1.007894
1.011485
1.0136302
1.0132061
1.010442
1.0061581
1.0018625
0.99786582
0.99439797
0.99163048
0.98975463
0.98907651
0.98977105
0.99168307
0.99525845
1.0007735
1.008377
1.0174748
1.0265654
1.0334908
1.03803
1.0404685
1.0409026
1.0395569
1.0373311
1.0348922
1.032429
1.0302832
1.028583
1.0273484
1.0265247
1.0260659
1.0259093
1.0260334
1.0263705
1.0269473
1.0275283
1.0282822
1.0291225
1.0299401
1.0307652
1.0316674
1.0326246
1.0335096
1.0344286
1.0355375
1.0365363
1.0376887
1.0388888
1.0400687
1.0411743
1.0424814
1.0437548
1.0446934
1.0025404
1.0073834
1.0108537
1.0131247
1.0130797
1.010751
1.006845
1.0027801
0.99895196
0.99554436
0.9928049
0.99084483
0.98997779
0.99046486
0.99216465
0.99541433
1.0006062
1.0078655
1.0168697
1.0262023
1.0336465
1.0386015
1.0412061
1.0414355
1.0399189
1.037497
1.0348153
1.0322129
1.0299845
1.0281679
1.0267557
1.0258422
1.0252609
1.0250611
1.0250991
1.0253695
1.0258345
1.0265369
1.0273205
1.0281159
1.0289937
1.0299201
1.0308843
1.0318067
1.0328187
1.0338335
1.03493
1.0359667
1.037209
1.0382684
1.0394888
1.0407401
1.0420718
1.0432837
1.0440241
1.0023718
1.0068908
1.0102041
1.0125651
1.0128323
1.0109141
1.0074375
1.0036673
1.0000258
0.99670471
0.99393683
0.99191334
0.99089061
0.99115688
0.99264072
0.99557356
1.000422
1.0073216
1.0161201
1.0256318
1.0337127
1.0390474
1.0418011
1.0419436
1.0402511
1.0376278
1.0347477
1.0320395
1.0297401
1.0277735
1.0262964
1.0252302
1.0245491
1.0241997
1.0242274
1.0244367
1.0248658
1.0254355
1.0261637
1.0270409
1.0279992
1.0289994
1.0300241
1.0311288
1.0321942
1.0333872
1.034396
1.0356535
1.0367981
1.0379111
1.0393471
1.0405964
1.0417276
1.0428381
1.044482
1.0022256
1.00643
1.0095694
1.0119586
1.0125359
1.011039
1.0079687
1.0045203
1.0010827
0.99788968
0.9951004
0.99296765
0.99177055
0.9918392
0.99309111
0.99573089
1.0002438
1.0068032
1.0153313
1.0249274
1.0335485
1.0394194
1.0422925
1.0424075
1.0405372
1.0377553
1.0347561
1.0319732
1.0295221
1.0274818
1.0258668
1.0247297
1.0239433
1.023517
1.023385
1.0235428
1.0239369
1.0245126
1.0252926
1.02615
1.0270817
1.028068
1.0291126
1.0302128
1.0313824
1.0324486
1.033691
1.0348783
1.0360348
1.0374854
1.0386519
1.0398033
1.041216
1.0425336
1.0439652
1.002094
1.0060107
1.0089653
1.0113359
1.0121621
1.0110431
1.008389
1.0052642
1.0020762
0.99899186
0.99621997
0.99398413
0.9926404
0.99247329
0.99350088
0.99587727
1.0000377
1.0062764
1.014557
1.0241718
1.0332223
1.0396636
1.0427806
1.0428527
1.0408967
1.0379985
1.0348645
1.0319504
1.029393
1.027232
1.0255504
1.0243077
1.0234008
1.0229203
1.0226978
1.0227554
1.023025
1.0235352
1.0242438
1.025086
1.0260583
1.0271203
1.0282921
1.0294205
1.0306509
1.0318979
1.033174
1.0344304
1.0357902
1.0370342
1.0382289
1.0396646
1.0408812
1.0424431
1.0432524
1.0019741
1.0056508
1.0084184
1.0107356
1.0117378
1.0109855
1.0087556
1.0059865
1.0030422
1.0000626
0.9973052
0.99501596
0.99346621
0.99307058
0.99387338
0.99595407
0.99982653
1.0057272
1.013738
1.023294
1.0327605
1.0397027
1.0431217
1.0433044
1.0412888
1.0382519
1.0350127
1.0319796
1.0293654
1.0270933
1.0253067
1.0239426
1.0229792
1.0223496
1.0220705
1.0220485
1.022308
1.0227466
1.0233722
1.0241878
1.0251227
1.0261849
1.0272289
1.0284967
1.0296837
1.0310577
1.0323023
1.0336177
1.0348236
1.0362098
1.0375178
1.0389671
1.04036
1.0414535
1.042996
1.001866
1.0053344
1.0079391
1.0101938
1.0113115
1.0108603
1.0090282
1.0066143
1.0038963
1.0010717
0.99830782
0.99591909
0.99423832
0.99362558
0.9942099
0.99603291
0.9996118
1.0051922
1.0128879
1.0223249
1.0320883
1.0396197
1.0433665
1.0436603
1.0416335
1.0385706
1.0352338
1.0320943
1.0293692
1.0270326
1.025153
1.0237304
1.0226641
1.0219532
1.0215508
1.0214534
1.0216069
1.0219911
1.0225976
1.0233765
1.0242912
1.025288
1.0265
1.0276767
1.0290076
1.0302057
1.0316216
1.0328722
1.0344806
1.0356963
1.0372083
1.03834
1.039802
1.0410006
1.042636
1.0017766
1.0050638
1.0075309
1.0097236
1.0109214
1.0107241
1.0092279
1.0071355
1.0046469
1.0019482
0.99922958
0.99674842
0.99491502
0.99413345
0.99449956
0.99611065
0.99940632
1.0046527
1.0120451
1.0213642
1.0313174
1.0394138
1.0435286
1.0439708
1.0420031
1.0389549
1.0355156
1.0322839
1.029471
1.0270456
1.0251117
1.0235933
1.022453
1.0216632
1.0211435
1.0209589
1.0210418
1.0213791
1.0219147
1.022628
1.023477
1.0245006
1.0255744
1.0267625
1.027965
1.029386
1.0306591
1.0321968
1.0334777
1.0347715
1.0362121
1.0378253
1.0389128
1.0406914
1.041928
1.0016973
1.0048389
1.0071834
1.0093285
1.010585
1.0105683
1.0093436
1.0075572
1.005295
1.0026883
1.0000122
0.99749226
0.99553751
0.99454667
0.9947137
0.99615563
0.99917453
1.0041434
1.0112354
1.0203399
1.0304685
1.0389679
1.0435684
1.0442739
1.0423848
1.039373
1.0358524
1.0325694
1.0296911
1.0271996
1.025124
1.023558
1.0223142
1.0214437
1.0208747
1.0205836
1.0205944
1.0208448
1.0213123
1.0219671
1.0228082
1.0237872
1.0248065
1.0260027
1.0272721
1.0285697
1.029939
1.0313828
1.0325228
1.0344106
1.035631
1.036911
1.0385621
1.0399273
1.0409445
1.0016531
1.0046792
1.0069106
1.0090169
1.0102877
1.0104213
1.0094249
1.0079006
1.0058046
1.0033113
1.0006305
0.99808042
0.99602551
0.99488793
0.99489516
0.99614562
0.99893715
1.0036284
1.0104474
1.0193822
1.0295061
1.038543
1.0435003
1.0444868
1.0427528
1.039811
1.0362884
1.032928
1.0299693
1.0273953
1.0253151
1.0236237
1.0223305
1.0213681
1.0207116
1.0203374
1.0202588
1.0204338
1.0208626
1.0214585
1.0222209
1.0230572
1.0241469
1.0252327
1.0265097
1.0277335
1.0291852
1.0303445
1.032186
1.033239
1.0348463
1.0362229
1.0377248
1.0388596
1.0404524
1.0016075
1.0045794
1.0067273
1.0088014
1.0100917
1.0103381
1.0094929
1.0081366
1.0061692
1.0037744
1.0011109
0.99851348
0.99637848
0.99512703
0.99500348
0.99610531
0.99868502
1.0031234
1.0096912
1.018406
1.0284697
1.037795
1.0433538
1.0445929
1.0430844
1.0402633
1.0367376
1.0333333
1.0303034
1.0277304
1.025478
1.0238332
1.0223999
1.0213949
1.0206802
1.0202062
1.0200586
1.0201552
1.020512
1.0210604
1.0217217
1.0226258
1.0235563
1.0246875
1.0257837
1.0271106
1.0283533
1.0298926
1.0311264
1.0326354
1.0339026
1.0355104
1.0367957
1.0381862
1.0399165
1.0015953
1.0045088
1.0065934
1.008658
1.0099868
1.0102542
1.0095052
1.0082582
1.0063902
1.0040396
1.001445
0.99888075
0.99673215
0.99534816
0.99505443
0.99602638
0.99844204
1.0026671
1.0089852
1.0175248
1.0274184
1.0369892
1.042986
1.0446513
1.0433876
1.0407535
1.0372681
1.0338268
1.0307796
1.0280643
1.0258243
1.0239855
1.02258
1.0215383
1.0207149
1.020179
1.0199347
1.0199893
1.0202612
1.0207259
1.0213691
1.0221419
1.0230655
1.024061
1.0252147
1.0264048
1.0276986
1.0290043
1.0303693
1.0317711
1.0332375
1.0345825
1.0359555
1.0375183
1.0386259
1.0404946
1.0413089
1.0422608
1.0428641
1.0434803
1.044153
1.044564
1.0451603
1.045235
1.0455932
1.0459862
1.0456453
1.0457051
1.0455512
1.0452225
1.0443078
1.043917
1.0430993
1.0420558
1.0411857
1.0402344
1.0390948
1.0382886
1.03737
1.0364206
1.0356553
1.0347851
1.0426602
1.0434996
1.0442176
1.0450032
1.0455569
1.0461076
1.0465705
1.0468407
1.0472287
1.0472159
1.0472807
1.047241
1.0469267
1.0462978
1.0458887
1.0450245
1.0441321
1.0430957
1.0420374
1.0409262
1.0398171
1.0387615
1.0376313
1.0366451
1.0356862
1.0347274
1.0338586
1.0448686
1.0457122
1.0464451
1.0470642
1.0476977
1.0481531
1.0485355
1.0487905
1.0489437
1.0489371
1.0488183
1.0484092
1.0480322
1.0472929
1.0463941
1.0455231
1.0443062
1.0432753
1.0419307
1.0407325
1.0395036
1.0383128
1.0371295
1.0360224
1.0349669
1.0339537
1.0329875
1.0471809
1.0479235
1.048673
1.0493442
1.0497394
1.0502878
1.0505162
1.0506614
1.0507658
1.050442
1.0502992
1.0496327
1.0489236
1.0481533
1.046927
1.0459404
1.0445325
1.0433313
1.0419361
1.0405941
1.0391998
1.0379921
1.0366635
1.0355096
1.034334
1.0332678
1.0321606
1.0495096
1.0502624
1.050919
1.0515717
1.0519082
1.0523571
1.0524525
1.0525036
1.0524638
1.0519309
1.0515747
1.050714
1.0498353
1.0487568
1.0475042
1.0462454
1.0447251
1.0434709
1.0418011
1.0405958
1.0389305
1.0377193
1.036264
1.0350751
1.0337505
1.0326743
1.0314197
1.0518507
1.0526176
1.053216
1.0537168
1.0540859
1.0543422
1.0543646
1.0541981
1.0539931
1.0533348
1.0526648
1.0516713
1.0505921
1.049318
1.0478977
1.0466191
1.0448607
1.043543
1.0418598
1.0403881
1.0388842
1.0373817
1.0360179
1.0346142
1.0333532
1.0320357
1.0308449
1.0542102
1.0549099
1.0554583
1.0558158
1.0561629
1.0562222
1.0560706
1.0558598
1.0552242
1.0545487
1.0536951
1.05233
1.0513288
1.049748
1.0482518
1.0468805
1.045021
1.0436565
1.0418275
1.040378
1.0386902
1.0372727
1.0356809
1.0343511
1.032903
1.0315885
1.0302835
1.0565273
1.0571088
1.0576043
1.0578395
1.0579916
1.0579569
1.0576015
1.0571699
1.0564616
1.0554007
1.0545036
1.0530664
1.0516465
1.050313
1.0484457
1.0470504
1.045283
1.0435639
1.0420367
1.040191
1.0387795
1.0369819
1.0356275
1.0339758
1.0326361
1.0311681
1.0298396
1.0587002
1.0591863
1.0595346
1.0596817
1.0596663
1.0593799
1.0588981
1.0583316
1.0573498
1.056189
1.0551064
1.0535311
1.0521016
1.0505437
1.0487572
1.0471668
1.0453877
1.0436985
1.041961
1.0403429
1.0385829
1.0370245
1.0354131
1.0338303
1.0323453
1.0309059
1.0294588
1.0606527
1.0610479
1.0612164
1.0611877
1.0610654
1.0606331
1.0598656
1.0591567
1.0581402
1.0567008
1.055496
1.054006
1.052255
1.0508458
1.0489673
1.0472083
1.0456659
1.0435995
1.0421569
1.0402597
1.0386005
1.0370223
1.0352593
1.0337741
1.0321313
1.0306993
1.0292401
1.0622938
1.062537
1.0625798
1.0623933
1.0621053
1.0615055
1.0605461
1.059771
1.0585597
1.0570246
1.0558728
1.0541097
1.0524896
1.0510032
1.0489742
1.0474991
1.045558
1.0438093
1.0422237
1.0402038
1.0387962
1.0368454
1.0353917
1.033555
1.0321941
1.0304225
1.0292011
1.0635706
1.063625
1.0635159
1.063166
1.0626909
1.062001
1.0609843
1.0599584
1.0587253
1.0572754
1.0558249
1.0542423
1.0526079
1.0508964
1.0491924
1.0474596
1.0455946
1.0440122
1.0420628
1.0404832
1.0386819
1.0369935
1.0353363
1.0335759
1.0321986
1.0303483
1.0291475
1.0643325
1.0642374
1.0639646
1.0634722
1.0629066
1.0621176
1.0609555
1.0599015
1.0587055
1.0570799
1.0557773
1.0542094
1.052395
1.0509586
1.0491345
1.0473786
1.0457936
1.0438257
1.0422476
1.0405094
1.0386405
1.0371496
1.0352641
1.0337989
1.0320908
1.0304494
1.029088
1.06455
1.0642916
1.0638738
1.0633443
1.0626551
1.0617643
1.0606676
1.059578
1.0582072
1.0568224
1.0555303
1.0537791
1.0523215
1.0507478
1.0488837
1.0474636
1.0455979
1.0438516
1.0423617
1.0403544
1.0388419
1.0371875
1.0352907
1.0339747
1.0320024
1.0307207
1.0290648
1.0641681
1.063814
1.0633546
1.0627333
1.061906
1.0610515
1.0600623
1.0587963
1.0575858
1.0563826
1.0547668
1.0534173
1.0520163
1.0502231
1.0487815
1.0472649
1.0453175
1.0439508
1.042187
1.0403666
1.0390207
1.0370631
1.0354741
1.0341073
1.0321
1.0308683
1.0291421
1.063295
1.0628785
1.0623198
1.0616072
1.060868
1.0600139
1.0589195
1.0578255
1.0568
1.0553622
1.054041
1.0528676
1.0512493
1.0497729
1.0485056
1.0467044
1.0451732
1.0438367
1.0419039
1.040464
1.038977
1.0370552
1.0356866
1.0341454
1.0322264
1.0310861
1.0293643
1.0619815
1.0614547
1.0608355
1.0602166
1.0594945
1.0584911
1.0575508
1.0567126
1.0554716
1.0541941
1.0532948
1.0518518
1.0503506
1.0493054
1.0477971
1.0461429
1.0449561
1.0434085
1.0416609
1.0404628
1.0388055
1.0370604
1.0358389
1.0341728
1.0324261
1.03127
1.0296037
1.0602493
1.0596677
1.0591611
1.0585455
1.0576585
1.0568174
1.0561367
1.0550738
1.0539221
1.0531148
1.0519958
1.0505847
1.0495703
1.0484499
1.0468553
1.0456222
1.0444813
1.0427982
1.0414297
1.0402493
1.0385481
1.037094
1.0357843
1.0342777
1.0325453
1.0314562
1.0298344
1.0581651
1.0577019
1.0572312
1.0564566
1.0557266
1.0551726
1.0542899
1.0532172
1.0524709
1.0516496
1.0504063
1.0493633
1.0485607
1.0472298
1.0459132
1.0450075
1.0436541
1.0421724
1.0410633
1.0398447
1.0383044
1.0368706
1.0358129
1.0341749
1.0327323
1.0315016
1.0300919
1.0559833
1.0555365
1.0549287
1.0543098
1.0538485
1.0531519
1.0521751
1.0514998
1.0508791
1.0498519
1.0487594
1.0481787
1.0471322
1.0458548
1.0450176
1.0439747
1.0428118
1.041383
1.0405842
1.0392975
1.0378753
1.036694
1.0356121
1.0341282
1.0327387
1.0316041
1.0302693
1.0537482
1.0531537
1.0525703
1.0522273
1.0517213
1.0508863
1.0501874
1.0497244
1.0489614
1.0478722
1.0473429
1.0466418
1.0455111
1.0446345
1.0437312
1.0430504
1.0415672
1.0407289
1.0398012
1.0386855
1.0373731
1.036311
1.0354037
1.0339089
1.0327323
1.0315813
1.0304088
1.0513702
1.0507862
1.0504381
1.0500283
1.049346
1.0487274
1.0483046
1.0477699
1.0468372
1.0461404
1.0457164
1.0449337
1.0439383
1.0431288
1.0427067
1.041551
1.0406725
1.0396583
1.0390827
1.0378649
1.0367719
1.035924
1.0349136
1.0337736
1.032504
1.0315678
1.0304437
1.0488795
1.0486036
1.0483008
1.0477032
1.0470804
1.0466276
1.046422
1.0456306
1.0448494
1.0445783
1.0438304
1.0433182
1.0423189
1.0416678
1.0415094
1.0400024
1.0397646
1.0384492
1.0383525
1.0368993
1.0361154
1.0353201
1.0343884
1.0335286
1.0321357
1.0314693
1.0304129
1.0465995
1.0463602
1.0459952
1.0454915
1.0449798
1.0447189
1.0443741
1.0434732
1.0431703
1.04281
1.0421178
1.0416298
1.0406456
1.0404997
1.0398656
1.0388749
1.0384124
1.0374744
1.0373661
1.035937
1.0354558
1.0344869
1.0339371
1.0329906
1.0318457
1.0311562
1.0302538
1.0444926
1.0440829
1.0436754
1.0434103
1.0431102
1.0427669
1.0423314
1.041567
1.0414063
1.0412139
1.0403425
1.0399293
1.0392943
1.0389618
1.0386128
1.0374329
1.0373215
1.0363475
1.0363577
1.0350203
1.0346397
1.0337234
1.0333009
1.0324777
1.031445
1.0307873
1.0299969
1.0424513
1.0419496
1.0416139
1.0414705
1.0412574
1.0408294
1.0404236
1.0398606
1.0396815
1.0396116
1.0386474
1.0383809
1.0379514
1.0374681
1.0373758
1.0360585
1.0362727
1.0352129
1.0352907
1.0341577
1.033754
1.0330224
1.0325184
1.031969
1.0309541
1.0304247
1.0296286
1.0404477
1.0400372
1.0397203
1.0396938
1.0394575
1.0389307
1.0388226
1.0382495
1.0380887
1.0380055
1.0370171
1.037174
1.0364126
1.0363428
1.0359035
1.0349398
1.0351815
1.0340055
1.0344887
1.0330177
1.0331507
1.0320795
1.0319407
1.0313256
1.0305237
1.029964
1.0292216
1.038587
1.0383112
1.038103
1.0380784
1.0376565
1.0372606
1.0372878
1.0367813
1.0367746
1.0363657
1.0356608
1.0358522
1.0350636
1.0353409
1.0345188
1.0340104
1.0339169
1.0330879
1.0335704
1.0320931
1.0324687
1.0311425
1.0313841
1.0306482
1.0301553
1.0294632
1.0288617
1.0368236
1.0367495
1.0366144
1.0366019
1.0360725
1.0357462
1.0358846
1.0354162
1.0355576
1.0350233
1.0344077
1.0346398
1.033805
1.0343581
1.0333335
1.0331648
1.0328225
1.0322145
1.0326784
1.0312263
1.0318469
1.0303388
1.0308553
1.0299256
1.0297717
1.0289953
1.0285688
1.0353698
1.0353301
1.0351812
1.0352607
1.034703
1.0344276
1.0346575
1.0341169
1.0344233
1.0338406
1.0333385
1.0335978
1.0327146
1.0334502
1.0322254
1.0324385
1.0318466
1.0314911
1.0317889
1.0304802
1.0312336
1.0296932
1.0303811
1.0292481
1.0293904
1.0285778
1.0282799
1.0340109
1.0340758
1.0339964
1.0339291
1.0335974
1.0334032
1.0334169
1.0331425
1.0332757
1.0328406
1.0325143
1.0325567
1.0319955
1.032343
1.031481
1.0316704
1.0310942
1.0308321
1.0309032
1.0300143
1.0305426
1.0292946
1.0297294
1.0288139
1.0289552
1.0283052
1.0280044
1.0329425
1.0331138
1.0330153
1.0328413
1.0326883
1.0324624
1.0324363
1.0324463
1.0321805
1.0321251
1.0317102
1.0316112
1.031479
1.0312123
1.0312702
1.0307168
1.0307353
1.0300061
1.0302685
1.0297512
1.0297483
1.0291978
1.0288995
1.0286743
1.0283623
1.0282163
1.0277554
1.0323325
1.0322654
1.0322361
1.0320972
1.0318467
1.0316772
1.0317039
1.0316984
1.0315114
1.0315
1.031054
1.0309685
1.030823
1.0305245
1.0308219
1.0300955
1.0303623
1.0294473
1.0298107
1.0293336
1.0291672
1.0290206
1.0283791
1.0285694
1.0279385
1.0280808
1.0275257
1.0315153
1.0315336
1.0315659
1.0315285
1.0313339
1.0311627
1.031118
1.0310865
1.0309769
1.0308562
1.0305555
1.0305357
1.0303255
1.030112
1.0303013
1.0296748
1.0299916
1.0291201
1.029472
1.0289516
1.0288374
1.0287829
1.0282722
1.0283497
1.0277017
1.0278006
1.027406
1.0311423
1.0310885
1.031169
1.0310433
1.0310051
1.0307405
1.0306204
1.0307259
1.0305572
1.0304499
1.0303845
1.0301859
1.0300485
1.0296918
1.0298617
1.0295105
1.0297142
1.029102
1.0291856
1.0287383
1.028536
1.0286468
1.0282402
1.0283198
1.027669
1.0276684
1.0273632
1.0306298
1.0308257
1.0308107
1.0306475
1.0307514
1.0305347
1.030255
1.0304359
1.0302339
1.0301848
1.0303018
1.0299783
1.0299713
1.0295203
1.0295384
1.0294289
1.0294952
1.0291905
1.028994
1.0287405
1.0284165
1.0286928
1.0282052
1.0283939
1.0277458
1.0276562
1.027409
1.0305878
1.0306258
1.0306328
1.0303774
1.0304373
1.0303537
1.0301234
1.0302496
1.0301292
1.0300561
1.0301695
1.029899
1.0297261
1.0295643
1.0293498
1.0294942
1.0294149
1.0292475
1.0289127
1.028819
1.0284649
1.0287035
1.0283645
1.0284923
1.0279269
1.0277674
1.0275388
1.0305215
1.0305274
1.0305172
1.0302974
1.0302148
1.0302539
1.0300802
1.0302048
1.030156
1.0300808
1.030035
1.0299309
1.0296305
1.029617
1.0294261
1.0295865
1.0294388
1.0292891
1.0289791
1.0289568
1.0287154
1.0287492
1.0286823
1.0285601
1.0281689
1.0279748
1.0278051
1.0303119
1.0303536
1.0303731
1.0303503
1.0302098
1.0302549
1.0301581
1.0302272
1.0302074
1.0301185
1.0300055
1.030033
1.0298195
1.0297625
1.0297176
1.0296467
1.0295247
1.0293812
1.0292285
1.0291158
1.0290799
1.0289518
1.0289508
1.0287962
1.0285196
1.0282416
1.0281309
1.0305647
1.0305316
1.0304452
1.0304257
1.0303593
1.0303567
1.030324
1.0303429
1.0303652
1.0302599
1.030183
1.030152
1.0300531
1.030008
1.0299443
1.029806
1.0297031
1.0296384
1.0295895
1.0294746
1.0294169
1.0292993
1.0291889
1.0290381
1.0288412
1.0286928
1.0286326
1.0308606
1.0308146
1.0306983
1.0306008
1.030577
1.0305477
1.0305557
1.0305936
1.0305929
1.0305169
1.0305438
1.0303807
1.0304153
1.0303094
1.0301599
1.0300816
1.0299117
1.0300451
1.029891
1.0299061
1.0297984
1.0296651
1.0295975
1.0292793
1.0293132
1.0291578
1.0291461
1.0310726
1.0310534
1.0309583
1.030921
1.0308409
1.0308661
1.0309309
1.0308021
1.0309394
1.0307055
1.030895
1.0307809
1.0307081
1.0307675
1.0303591
1.0305325
1.0301674
1.0305585
1.0300781
1.0303974
1.0302174
1.0299831
1.0300738
1.0296464
1.029875
1.0296564
1.0296511
1.0312656
1.0312904
1.0312313
1.0311739
1.0312335
1.0311507
1.0313956
1.0310714
1.0311742
1.0310058
1.0309614
1.0312493
1.0308456
1.0312685
1.0306411
1.0310056
1.0305059
1.0308888
1.0306894
1.0304767
1.0308576
1.0301459
1.0306441
1.0300278
1.0305114
1.0300716
1.0301573
1.0314436
1.0314794
1.0315183
1.031377
1.0315777
1.0314208
1.0315899
1.0315074
1.0312689
1.0314765
1.0309253
1.0316382
1.031038
1.0314885
1.0310913
1.0311009
1.0312529
1.0307541
1.0315227
1.0305507
1.0312834
1.0304533
1.031158
1.0304596
1.0308913
1.0305471
1.0306083
1.0315937
1.0315836
1.0316955
1.0315628
1.0316116
1.0317129
1.0314675
1.0318866
1.0312985
1.0319121
1.031086
1.0316664
1.0314314
1.0314105
1.0316655
1.0309117
1.0319105
1.0307615
1.0319653
1.0307225
1.0316447
1.0308055
1.031357
1.0312017
1.0308901
1.0311631
1.0309194
1.0315024
1.031651
1.031549
1.0318005
1.0314055
1.0316765
1.0314937
1.0315352
1.0318636
1.0313622
1.0320669
1.0309204
1.031999
1.0311701
1.0318698
1.0314706
1.0312785
1.0318548
1.030947
1.032124
1.0307097
1.0321008
1.0307271
1.0319655
1.0310647
1.0315144
1.0312312
1.0311672
1.0313968
1.0313549
1.0315625
1.0313781
1.031138
1.0314422
1.0311533
1.0318415
1.0312799
1.0316326
1.0314771
1.0311214
1.0317677
1.0312118
1.0320349
1.0311137
1.0316377
1.0313068
1.0314986
1.0317386
1.0312534
1.0319101
1.0310943
1.0319362
1.0312841
1.0316246
1.0307363
1.0308415
1.0307435
1.0310933
1.0307255
1.031197
1.0307813
1.0309254
1.0312257
1.0308403
1.0315881
1.0307049
1.0315759
1.0307811
1.031461
1.0313783
1.0312076
1.0315283
1.0308916
1.0317745
1.0311586
1.031894
1.0311677
1.0316693
1.0312964
1.0317088
1.0316158
1.0300696
1.0299648
1.0299849
1.0302335
1.0300241
1.0305565
1.0302887
1.0303026
1.0305874
1.0300944
1.0309476
1.0303239
1.0309459
1.0307431
1.0305626
1.0311087
1.0305947
1.0314205
1.0307001
1.0313279
1.0309579
1.0313678
1.0312019
1.0313382
1.0313391
1.0314695
1.0315432
1.0289059
1.0290696
1.0291235
1.029025
1.0294532
1.0291321
1.0297663
1.0293446
1.029609
1.0296983
1.0294436
1.0303415
1.0294689
1.0305631
1.0297125
1.0304124
1.0302221
1.0303635
1.0307727
1.0302992
1.0309256
1.0304312
1.0311893
1.0307583
1.0312517
1.031
1.0312606
1.0276134
1.027728
1.0280572
1.0279962
1.0281334
1.0282429
1.0280842
1.0286715
1.0284512
1.0287063
1.0287964
1.0286145
1.0292966
1.0287668
1.0295728
1.0290804
1.0296609
1.029569
1.0297201
1.0299519
1.0298807
1.0301879
1.0301197
1.0305183
1.0303791
1.0306249
1.0306518
1.0262177
1.0262248
1.0266624
1.0264068
1.0269531
1.0268432
1.026915
1.0272911
1.027071
1.0277448
1.0273067
1.0278723
1.027579
1.0280682
1.0281625
1.0282361
1.0285234
1.0284302
1.0289102
1.0287566
1.0292107
1.0290401
1.029459
1.0293108
1.029786
1.0297557
1.0300571
1.0246045
1.0246575
1.0248244
1.025301
1.0247715
1.0258157
1.0252945
1.0257007
1.0261011
1.0254378
1.0268712
1.0256774
1.0270275
1.0262935
1.0268162
1.0272576
1.0266939
1.0278976
1.026866
1.0282926
1.0273516
1.028446
1.0279174
1.0286149
1.0284763
1.0288896
1.0289788
1.0226594
1.0230772
1.0231826
1.0230761
1.0239926