/*--------------------------------*- C++ -*----------------------------------*\
| =========                 |                                                 |
| \\      /  F ield         | OpenFOAM: The Open Source CFD Toolbox           |
|  \\    /   O peration     | Version:  2406                                  |
|   \\  /    A nd           | Website:  www.openfoam.com                      |
|    \\/     M anipulation  |                                                 |
\*---------------------------------------------------------------------------*/
FoamFile
{
    version     2.0;
    format      ascii;
    arch        "LSB;label=32;scalar=64";
    class       volScalarField;
    location    "5";
    object      p_0;
}
// * * * * * * * * * * * * * * * * * * * * * * * * * * * * * * * * * * * * * //

dimensions      [1 -1 -2 0 0 0 0];

internalField   nonuniform List<scalar> 
20580
(
0.99873346
1.0017844
1.0010908
0.99773223
0.99520488
0.99152946
0.98655243
0.98225129
0.98056576
0.97882882
0.9783962
0.98003312
0.98410334
0.98756927
0.99249753
1.0008734
1.0057229
1.0091483
1.0096509
1.0098544
1.0073815
1.0050927
1.0061129
1.0062346
1.0068144
1.0049456
1.005303
1.0048046
1.0075261
1.0070162
1.0128578
0.99842108
1.0015581
1.0010747
0.99781345
0.99552842
0.99145421
0.98624202
0.98228315
0.9800823
0.97920512
0.9780403
0.97894166
0.98369707
0.98759919
0.99100384
0.99845135
1.0046735
1.0095524
1.0100738
1.0110567
1.0086765
1.0067418
1.0074576
1.0067947
1.0079826
1.0050256
1.0055719
1.0062202
1.0100959
1.0088604
1.0081374
0.99907474
1.0013567
1.0008647
0.99831617
0.9958932
0.99129646
0.98606453
0.98266576
0.97958788
0.97909415
0.97805418
0.97844516
0.98282773
0.98750468
0.99059327
0.9960939
1.003185
1.0095444
1.0102515
1.0111435
1.0091218
1.0082397
1.0099855
1.0082564
1.008842
1.0050749
1.005752
1.0085328
1.0100336
1.0104619
1.0063836
1.0004347
1.0015558
1.0006865
0.9989839
0.99602097
0.99134912
0.98631631
0.98293802
0.97939815
0.97829796
0.97813425
0.97844023
0.98146133
0.9863282
0.99067889
0.99518294
1.0016361
1.008704
1.0104441
1.0106005
1.0089215
1.0087153
1.0122011
1.0099129
1.0095531
1.0062663
1.0065891
1.0126391
1.0113376
1.0101037
1.0077002
1.0019468
1.0021934
1.0007834
0.99947529
0.9957559
0.9916079
0.9871149
0.98295585
0.97942716
0.97727191
0.97763686
0.97877646
0.97986229
0.98431102
0.99001563
0.99485184
1.0004897
1.0077544
1.0109742
1.0106683
1.0097656
1.0091497
1.0128395
1.0105269
1.0105107
1.0099281
1.0085778
1.0153655
1.0149573
1.0110932
1.0081698
1.0029898
1.002759
1.0011271
0.99972071
0.99533306
0.99186843
0.98817674
0.98291728
0.97937788
0.97630789
0.97672265
0.97841865
0.97878317
0.98227073
0.9876504
0.99411008
1.0003626
1.0067023
1.0110934
1.0111753
1.011778
1.0109628
1.0141357
1.011839
1.0110143
1.0141359
1.0118756
1.0137174
1.0143922
1.0126483
1.0099178
1.0031303
1.0025678
1.0014227
0.99971314
0.9952782
0.99207326
0.98875832
0.98296903
0.97928862
0.97597615
0.97582102
0.97747156
0.97839626
0.98111705
0.98541934
0.99259359
0.99995313
1.0055393
1.0111456
1.0113075
1.0135935
1.0135925
1.0156731
1.0137284
1.0109732
1.0158628
1.0156616
1.0128675
1.011155
1.0127353
1.0131827
1.0023501
1.0015163
1.0013653
0.99947286
0.99585139
0.99233997
0.98826199
0.98296331
0.97934512
0.97663277
0.97534878
0.97641002
0.97825753
0.98120647
0.98399474
0.99086136
0.9987865
1.0045461
1.0104955
1.0108757
1.014841
1.0150813
1.016521
1.0159821
1.0123287
1.0160765
1.0183199
1.0145157
1.0102678
1.0135846
1.0175823
1.0010996
1.000327
1.0009546
0.99908729
0.99663151
0.99266556
0.98719913
0.9828824
0.97933898
0.97728103
0.97577204
0.97539481
0.97819717
0.98150678
0.98393366
0.98958238
0.9971712
1.0029309
1.0092984
1.0101887
1.0151489
1.0160202
1.0169799
1.0173414
1.0149384
1.0170766
1.0200873
1.0163133
1.0120462
1.0145151
1.0207425
0.99998122
0.99994931
1.0006302
0.99865527
0.99695126
0.99282865
0.98660188
0.98279436
0.97914977
0.97754116
0.97623488
0.97516169
0.97790563
0.98140429
0.98380017
0.98851161
0.99510779
1.0013322
1.0077152
1.0098761
1.0157081
1.0176155
1.0174979
1.0172917
1.0172948
1.0182605
1.021295
1.0182636
1.0161606
1.0162954
1.0198992
0.99939532
1.0007879
1.0007615
0.99844964
0.99656362
0.99276649
0.98697688
0.98292512
0.97893864
0.97749483
0.97595618
0.97538
0.97702288
0.98031762
0.98328421
0.98742302
0.9937812
0.99997824
1.0066124
1.0106874
1.0161593
1.0193566
1.0177599
1.0175961
1.0202748
1.0200075
1.021097
1.0206254
1.0216249
1.0210432
1.0206362
0.99940315
1.0023297
1.0012782
0.99879305
0.99595973
0.99259058
0.98790081
0.98346909
0.97894503
0.97674921
0.97536144
0.97510234
0.9759824
0.97848287
0.98236311
0.98660528
0.99282298
0.9991902
1.0063448
1.0108188
1.0157426
1.0207379
1.0177823
1.0187337
1.024712
1.023774
1.0205139
1.0213254
1.0260063
1.0264782
1.0247076
0.99987803
1.0034578
1.0018082
0.9996117
0.99591246
0.99245023
0.98857335
0.9838491
0.97928015
0.97562864
0.97458835
0.97503008
0.97514458
0.97711483
0.9809939
0.98579008
0.9921913
0.99883139
1.0047863
1.0102605
1.0157054
1.0220363
1.018536
1.0192532
1.0276668
1.0291041
1.0222687
1.0212381
1.0271061
1.0290118
1.0260185
1.0006812
1.0033711
1.0019107
1.0003646
0.99664617
0.99252349
0.98870831
0.98365681
0.97958292
0.97499461
0.97411222
0.97534059
0.97506816
0.97658835
0.98034174
0.98476449
0.99157071
0.99735244
1.0026145
1.0094343
1.0152659
1.0217207
1.0200922
1.0207502
1.027392
1.0316375
1.0257077
1.0234825
1.0261333
1.028478
1.0256525
1.0015463
1.0021558
1.0014472
1.0005348
0.99750898
0.99278606
0.98864887
0.98346581
0.97952165
0.9752191
0.97442346
0.97534141
0.9751926
0.97684636
0.98031621
0.98406057
0.98996852
0.99583877
1.0006762
1.0082624
1.014694
1.0203039
1.0217668
1.0244284
1.0264486
1.0288295
1.0275826
1.0277601
1.0271205
1.0280632
1.0272932
1.0021319
1.0007453
1.0007772
0.99997475
0.99770427
0.99317165
0.98877007
0.98366899
0.97954672
0.97601689
0.97501964
0.97453848
0.97497329
0.97731276
0.98025576
0.98351102
0.98855851
0.99454086
0.99883349
1.0084891
1.0148575
1.0186298
1.0224497
1.027557
1.0281908
1.0258652
1.028133
1.0312253
1.0293873
1.0280958
1.0276864
1.0022359
1.0001688
1.0004108
0.99914852
0.99700404
0.99360009
0.98911549
0.98419537
0.97969845
0.97685797
0.97524552
0.97333061
0.97471849
0.97699607
0.97956089
0.98244548
0.98748212
0.99314087
0.99771598
1.0092983
1.0145317
1.0161693
1.023102
1.0295767
1.0310173
1.0268093
1.0303489
1.034268
1.0319126
1.0282473
1.0259751
1.0016742
1.0007752
1.0006786
0.99877948
0.99630043
0.99392993
0.98930097
0.9846056
0.97963659
0.97716355
0.97489941
0.9726574
0.9742633
0.97610921
0.97805213
0.98136399
0.9867347
0.99242746
0.99672366
1.0084454
1.0137181
1.013865
1.0242291
1.0317626
1.0311155
1.0280112
1.0324771
1.0372481
1.0356755
1.0304743
1.026176
1.0004994
1.00186
1.0013998
0.99926457
0.99626237
0.99402027
0.98896912
0.98444118
0.97935828
0.97680195
0.97441324
0.97275588
0.97393885
0.97539233
0.97719342
0.98116626
0.9867212
0.99242912
0.99607362
1.0058943
1.0124151
1.0132614
1.0232329
1.0327421
1.0305997
1.0280459
1.0324091
1.0375286
1.0380548
1.034198
1.0293067
0.99972858
1.0024948
1.0020122
1.0001279
0.99694884
0.993776
0.98852091
0.98400892
0.97918245
0.97636432
0.97398458
0.97333952
0.97415805
0.97497663
0.97756612
0.98174792
0.98627404
0.99183496
0.99593836
1.0031533
1.0103847
1.0148685
1.0209388
1.0310365
1.0314565
1.0302014
1.033382
1.035825
1.0375179
1.0362005
1.0330664
0.99973996
1.002211
1.0020077
1.0004357
0.99763751
0.99355374
0.98860116
0.98399217
0.97948404
0.97626531
0.97370769
0.97414862
0.97431398
0.97480265
0.97781384
0.98192415
0.98540265
0.99007365
0.99589224
1.0010988
1.0082816
1.0169431
1.0206898
1.0272914
1.0308232
1.0345208
1.0366018
1.035499
1.0355861
1.0359101
1.0350325
1.0008587
1.0015572
1.0013407
1.0000534
0.9978341
0.99363072
0.9895664
0.98467776
0.980387
0.97651927
0.97403289
0.97450282
0.97412609
0.97453449
0.97716777
0.98116861
0.98445587
0.98770991
0.99619912
0.9995958
1.0059412
1.0169847
1.0227475
1.023896
1.0286396
1.0370875
1.0391292
1.0365143
1.0331192
1.0336381
1.0349409
1.002075
1.0011477
1.0004726
0.99964795
0.99759159
0.99416023
0.99059569
0.98549826
0.98142568
0.97700849
0.97461047
0.97382071
0.97402313
0.97410465
0.9762791
0.98037107
0.98283207
0.98566629
0.99665336
0.99990419
1.0036319
1.0151301
1.0247152
1.022289
1.0279672
1.0366631
1.0401997
1.0383435
1.033094
1.0313998
1.033433
1.0346344
1.0341552
1.0330041
1.0300428
1.0264107
1.0262984
1.0292589
1.027624
1.0207271
1.0178693
1.0214005
1.0219558
1.0196519
1.0228497
1.0257853
1.0209899
1.0146754
1.0124706
1.0120896
1.0096538
1.0048126
1.0060978
1.0066093
1.0280399
1.0286625
1.0293564
1.0293006
1.0296377
1.0311182
1.0308914
1.025749
1.0202483
1.0197337
1.0212832
1.0190781
1.0155855
1.0172435
1.0198874
1.0181502
1.015927
1.0160659
1.017862
1.0166798
1.0111591
1.0095579
1.0058013
1.0247173
1.0250548
1.0251461
1.0250695
1.0247975
1.024369
1.0229558
1.0218131
1.0231651
1.0257031
1.0256447
1.0221283
1.0184312
1.0170429
1.0155874
1.0138941
1.0137874
1.0135766
1.0146794
1.0149583
1.0124848
1.0132091
1.0119936
1.0256787
1.0243598
1.022906
1.0202237
1.0166127
1.014302
1.0155666
1.0197217
1.0233738
1.0238385
1.0219829
1.0205102
1.0210525
1.0215724
1.0197779
1.0175364
1.0153765
1.0125116
1.0108746
1.0083723
1.0063466
1.0089787
1.0125684
1.0191889
1.0195279
1.0195511
1.0177485
1.0158137
1.0166173
1.019283
1.0208089
1.0193199
1.0159521
1.01301
1.0128365
1.0161826
1.0198023
1.0213207
1.0207287
1.0189919
1.0167312
1.0143324
1.010046
1.006758
1.0077053
1.0097735
1.0115297
1.0123185
1.0135574
1.0149834
1.0170356
1.019597
1.0208908
1.0196863
1.0165498
1.0124482
1.009699
1.0100689
1.0124014
1.0140167
1.0142492
1.0143092
1.0150858
1.0167704
1.0172552
1.0156795
1.0141211
1.014301
1.0132068
1.0107968
1.0114584
1.011585
1.0114869
1.0115885
1.0118624
1.0122696
1.0125797
1.0125829
1.0126502
1.0137782
1.0149404
1.0144118
1.0116488
1.0085016
1.0068516
1.0077831
1.0108094
1.0135276
1.0153649
1.0169986
1.0189113
1.0182388
1.0144159
1.0133584
1.011499
1.0089373
1.0062523
1.0043927
1.003913
1.0049887
1.0074738
1.0107654
1.0135907
1.0146243
1.0134447
1.0112261
1.0095481
1.0085309
1.0082063
1.0083219
1.008689
1.0094193
1.0111601
1.0141696
1.0158001
1.0110481
1.0101224
1.0093607
1.0082283
1.0067367
1.0053118
1.0042083
1.0039576
1.0044052
1.0051763
1.0057676
1.0062033
1.0068868
1.0081344
1.0100505
1.0117947
1.0130562
1.0129564
1.0112619
1.0085681
1.0065208
1.0052043
1.0047333
1.0013154
1.0022329
1.0043952
1.0070373
1.0092298
1.0100363
1.0092157
1.0070706
1.0040461
1.0012314
0.99951155
0.99913815
1.0003962
1.0030682
1.0065711
1.0102165
1.0129355
1.0139644
1.0133804
1.0113859
1.0084512
1.0044645
1.0007115
0.99619149
0.9980139
1.0009222
1.004102
1.0066528
1.0079541
1.0078764
1.006355
1.0039845
1.0018345
1.000551
1.0003558
1.001207
1.0024079
1.0033115
1.0041559
1.0052214
1.0066981
1.0084297
1.0095702
1.009012
1.007055
1.0043688
0.99880635
0.99931528
0.99955228
0.99997108
1.0000121
1.0001714
1.0003303
1.0006095
1.0014178
1.0026989
1.0041361
1.0053372
1.0059073
1.0055329
1.0039894
1.0016744
0.99962504
0.9987231
0.99941915
1.0015224
1.0039386
1.0059279
1.0070325
1.000626
1.0002644
0.99918403
0.99748388
0.99565788
0.99456906
0.9946827
0.99603737
0.99836957
1.001261
1.0042047
1.0066042
1.0079038
1.0077122
1.0058859
1.0028203
0.99925365
0.99643463
0.99525296
0.99564805
0.99722865
1.0002332
1.0044809
0.99811495
0.99798763
0.99757127
0.99685084
0.99608852
0.99553947
0.99534373
0.9956999
0.99672914
0.99838115
1.0003852
1.0024704
1.0043166
1.0054259
1.0053109
1.0036231
1.0011447
0.99876532
0.99667575
0.99517471
0.99467766
0.99573588
0.99910345
0.99417458
0.99472076
0.99581851
0.99694872
0.99780826
0.99809363
0.99786829
0.99739484
0.99674994
0.99623301
0.99619765
0.9969873
0.9984225
0.99990844
1.0009594
1.0014797
1.0014589
1.0008128
0.9998015
0.99854628
0.99707876
0.99635845
0.99714056
0.99102605
0.99210458
0.99400662
0.99613989
0.99793756
0.99900347
0.9992354
0.99876246
0.99777221
0.99640656
0.99513289
0.99441214
0.99440139
0.99503161
0.99605995
0.99737367
0.99885955
1.0003115
1.0013919
1.0015588
1.0007825
0.99955861
0.99829457
0.98906798
0.99013442
0.99208785
0.99447894
0.99680118
0.99858358
0.99961605
0.99981353
0.99900475
0.99745764
0.99567895
0.99405794
0.99285135
0.99219048
0.99226221
0.99320522
0.99513307
0.99797289
1.0008291
1.0027135
1.003085
1.0022933
1.0002151
0.98942565
0.99018087
0.99157715
0.99343162
0.99533323
0.9970648
0.99853405
0.99930065
0.99898466
0.99756555
0.99537731
0.99301775
0.99118392
0.99019571
0.98993943
0.99066959
0.9926002
0.99575381
0.99962252
1.0031268
1.0049076
1.0043579
1.0020467
0.9916757
0.99201273
0.99263049
0.99342223
0.99441114
0.99549417
0.99651734
0.99729283
0.99735836
0.99630507
0.99418841
0.99172278
0.98976989
0.98866893
0.98871167
0.989892
0.99230343
0.99583664
1.0001732
1.0040701
1.006183
1.005547
1.0028376
0.99364333
0.99349771
0.99334355
0.99332101
0.99342716
0.99390746
0.9948349
0.99578191
0.9963276
0.99578631
0.99435465
0.99228774
0.9903722
0.98896832
0.98848254
0.98935257
0.99160909
0.99523835
0.99967026
1.0036404
1.0058838
1.0052861
1.001769
0.99316879
0.99340003
0.99358416
0.99376205
0.99388829
0.99416125
0.99478375
0.99570244
0.99629177
0.9961486
0.99519565
0.99370947
0.99191332
0.99033963
0.98939426
0.98949106
0.99093791
0.99408666
0.99830079
1.0021193
1.0043757
1.0041573
1.0008025
0.99247426
0.99307907
0.99399444
0.99504855
0.9959557
0.99640577
0.99641322
0.99599542
0.9954223
0.99479609
0.99415354
0.99352431
0.9928893
0.9919218
0.99100933
0.99072607
0.99194338
0.99484341
0.99864668
1.0022806
1.0045152
1.0041562
1.0003147
0.99246219
0.99311389
0.99420966
0.9954311
0.99653637
0.99725541
0.99739869
0.99718242
0.99661568
0.99582214
0.99489341
0.99400055
0.99297079
0.99159876
0.99043808
0.99050781
0.99232294
0.99577208
1.0003881
1.0048866
1.0072003
1.0055871
0.99971036
0.99351945
0.99403162
0.99474287
0.99581315
0.9971751
0.99880741
1.0003817
1.0010089
1.0006689
0.99955907
0.99756164
0.99467833
0.99087722
0.98762238
0.98647707
0.9879577
0.9921213
0.99850111
1.0052998
1.0097673
1.009631
1.0042109
0.99494379
0.99433453
0.99528227
0.99696351
0.99896372
1.0009282
1.0027004
1.0034273
1.0029965
1.001444
0.99919711
0.99636099
0.99288574
0.98923612
0.98687256
0.98746211
0.99122493
0.99704656
1.0030994
1.0075411
1.0085631
1.0048593
0.99720294
0.98825341
0.99634804
0.99741548
0.99929035
1.0014992
1.003583
1.0044219
1.0040189
1.0023919
1.0002727
0.99791294
0.99559216
0.99381468
0.99291633
0.99268384
0.99366974
0.99677711
1.0007584
1.0036079
1.0040231
1.0016161
0.99691568
0.99174309
0.98793273
0.99735825
0.99854442
1.000911
1.0037822
1.0061983
1.0074112
1.0067151
1.0039193
0.99988026
0.99628406
0.99461077
0.9951085
0.99701476
0.99933535
1.001172
1.0018197
1.00116
0.99932241
0.99652821
0.99423783
0.99369325
0.9933864
0.99232278
1.000894
1.0021357
1.0044628
1.0070208
1.0087317
1.0093585
1.0071406
1.0027816
0.99856997
0.99604195
0.99621357
0.99887334
1.0023578
1.0051417
1.0056425
1.0024543
0.9970528
0.99258751
0.99089747
0.99202593
0.99503979
0.99750177
0.99747913
1.0112982
1.0098064
1.0082975
1.0067076
1.0051016
1.0038143
1.0035739
1.0036886
1.0040008
1.0049702
1.0060801
1.0061549
1.005564
1.0045914
1.0028083
0.99891249
0.99297374
0.98861763
0.98828013
0.99170258
0.99799047
1.0043089
1.0055771
1.0189198
1.0148781
1.0088432
1.0040609
1.001897
1.002518
1.0052088
1.0088548
1.0124752
1.0145363
1.0135901
1.0101743
1.005272
1.0008149
0.99839248
0.99673396
0.99279432
0.9886436
0.98910941
0.99521132
1.0032313
1.0085987
1.005764
1.0133907
1.0141139
1.0129357
1.010521
1.0092173
1.0099516
1.0117824
1.0131417
1.0132054
1.0127014
1.0108579
1.0074449
1.0040858
1.0013546
0.99855434
0.99749041
0.99800583
0.99814198
0.99738432
0.99902304
1.0026226
1.0042929
0.99924208
1.011769
1.0126175
1.0158905
1.0191415
1.0195611
1.0171868
1.0150658
1.0136659
1.0108805
1.0072687
1.0060588
1.0066825
1.0065947
1.005773
1.0056455
1.0057994
1.0042894
1.0016547
0.99895697
0.99642909
0.99546106
0.99511549
0.99390043
1.0160257
1.0151876
1.0150314
1.0161397
1.0184477
1.0199121
1.0175304
1.0119818
1.0070064
1.0050861
1.0062965
1.0105103
1.0140516
1.0127862
1.0094736
1.0076387
1.0059057
1.0005018
0.99447424
0.99028862
0.98903877
0.99158819
0.99853428
1.0155214
1.0148714
1.0128056
1.0106742
1.0094399
1.0095621
1.0116326
1.0135725
1.0115883
1.0065062
1.0063044
1.011877
1.0150929
1.0124664
1.0094301
1.0085294
1.0050949
0.99760421
0.99362136
0.99308761
0.99270753
0.995376
1.0034074
1.0028149
1.0043549
1.004444
1.0041573
1.003814
1.003849
1.0055954
1.0097104
1.0149063
1.0161539
1.0099517
1.0049996
1.0092963
1.012262
1.0047537
0.9992589
1.002154
1.0048726
1.0044569
1.0025668
1.0002787
0.99644144
0.99382574
0.9862786
0.99135569
0.9960997
0.9992501
1.0013421
1.0025071
1.0035148
1.0045062
1.0055238
1.008355
1.0109252
1.0070952
1.0004628
0.99984077
1.0031593
1.0055314
1.0058843
1.0066068
1.0094537
1.0102145
1.0045168
0.99403345
0.98507725
0.978066
0.98120077
0.98778901
0.9939802
0.99712746
0.9972978
0.99579175
0.99578067
0.99752754
0.99828699
0.99812313
0.9992246
1.0002166
0.99908021
0.99755472
1.0005938
1.0075042
1.0110247
1.0084061
1.0047309
1.0010843
0.99597277
0.98991287
0.98018802
0.97833457
0.9772788
0.97918676
0.98396337
0.98773431
0.9886551
0.98623864
0.98411863
0.98578874
0.98907452
0.99117683
0.99350526
0.99823414
1.0014206
1.0004339
1.0004799
1.0035382
1.002748
0.99597468
0.99018685
0.9892235
0.99141451
0.97387307
0.97412166
0.97218812
0.96932351
0.96742498
0.96971379
0.97487346
0.97973457
0.98110468
0.98071435
0.98282921
0.9872863
0.99010169
0.9911153
0.99447111
0.99719348
0.99453357
0.98997014
0.98696482
0.98416183
0.98235008
0.98560103
0.99237007
0.96208506
0.96458375
0.96560667
0.96493088
0.96334216
0.96256776
0.9647705
0.97082717
0.9779719
0.98211697
0.9830837
0.98268642
0.98317942
0.98231232
0.97931509
0.97830665
0.98006228
0.98061263
0.9804708
0.98099116
0.98212049
0.98542235
0.99169412
0.95399257
0.95659966
0.96064632
0.96437395
0.96678584
0.96693588
0.96594022
0.9661775
0.96918151
0.97357038
0.97473262
0.97305944
0.97053253
0.96989364
0.96878347
0.96644118
0.96637459
0.97079677
0.97692092
0.98292479
0.98689019
0.98746341
0.98732479
0.95660848
0.95613765
0.95767526
0.96079912
0.96458927
0.96700378
0.96686386
0.96419758
0.9603251
0.95746357
0.95723532
0.95845391
0.95981109
0.9611801
0.96509177
0.96895208
0.97030135
0.97075761
0.9729612
0.9766066
0.97976739
0.97959956
0.97567596
0.96103444
0.95883987
0.95596912
0.95423435
0.9540968
0.95587386
0.95834404
0.95872575
0.95683875
0.9537296
0.95169718
0.95207403
0.95466346
0.95866931
0.96366906
0.96908012
0.97313671
0.9730658
0.97122459
0.96930581
0.96747326
0.96557741
0.96273164
0.95625415
0.95676431
0.95521591
0.95235601
0.94949839
0.94814173
0.94905647
0.95135253
0.95423956
0.95706915
0.95929448
0.96076604
0.96180753
0.96262483
0.96271848
0.96265944
0.9624982
0.9618366
0.95967186
0.95727869
0.95647914
0.95641328
0.95798356
0.94806269
0.95006945
0.95240872
0.95407928
0.95484457
0.95487479
0.95445157
0.95462498
0.95508226
0.95639894
0.95863606
0.96097758
0.96251659
0.96225861
0.96024593
0.95689034
0.95310156
0.9505717
0.94935068
0.94953465
0.95139234
0.95522433
0.96021635
0.95136398
0.9513018
0.95272889
0.9549887
0.95727003
0.95885033
0.95930885
0.95917884
0.95831008
0.95675624
0.95508063
0.95363058
0.95258616
0.95188299
0.95085046
0.94987085
0.94937789
0.95016739
0.95291919
0.95679674
0.96006424
0.96155278
0.96199401
0.9589477
0.95751009
0.95616762
0.95543313
0.95528736
0.95548134
0.95562372
0.95558218
0.95503202
0.95399301
0.95244856
0.95050633
0.94871251
0.94770691
0.9482193
0.94991675
0.9530178
0.95665089
0.96009986
0.96213161
0.9621282
0.96006423
0.95654269
0.95969276
0.95917749
0.95786513
0.95605851
0.95417208
0.9521938
0.95050846
0.94919753
0.94876027
0.94960382
0.95128654
0.9533424
0.95550833
0.95736333
0.95877725
0.95993261
0.96027045
0.95939141
0.95758898
0.95556018
0.95385368
0.95299401
0.95318539
0.95517475
0.9555015
0.95559576
0.95570582
0.95571887
0.95569155
0.95559397
0.95537063
0.95526547
0.95552711
0.95641078
0.95790914
0.95939145
0.96013431
0.95987779
0.95864372
0.9568949
0.9552557
0.95434347
0.95451037
0.95532421
0.95566234
0.9553783
0.95865229
0.95806875
0.95786941
0.95809236
0.95880609
0.96003328
0.96151952
0.96271957
0.96289742
0.96205024
0.96072898
0.95931226
0.9580304
0.95669719
0.95524467
0.95397915
0.95369608
0.9544085
0.95539078
0.95619208
0.9563633
0.95565159
0.95397074
0.96553388
0.96496533
0.96423493
0.96327897
0.96227359
0.96143885
0.96086224
0.96072379
0.96080531
0.96069041
0.96017729
0.95930508
0.95838243
0.95746902
0.95677724
0.95665569
0.95687845
0.95716289
0.95711271
0.95661927
0.95612332
0.95641219
0.95756946
0.96699651
0.96716487
0.96728811
0.96691559
0.96576997
0.96382588
0.96163793
0.96002371
0.95896677
0.95866452
0.95870829
0.95896331
0.95946095
0.96029261
0.96128815
0.96234802
0.96309107
0.9632586
0.96272138
0.96182017
0.96121566
0.96110111
0.96180693
0.96704765
0.96686338
0.96707379
0.96742302
0.96771155
0.9676539
0.96717327
0.96658538
0.96608078
0.96564493
0.965229
0.96502403
0.96501841
0.96519474
0.96554754
0.96572736
0.9655663
0.96505554
0.96442404
0.96378263
0.96303713
0.96209219
0.96138955
0.97383742
0.97271387
0.97173642
0.97111443
0.97085878
0.97082229
0.97083246
0.97072855
0.97055066
0.97042963
0.97014126
0.96960665
0.9689619
0.9683102
0.96743691
0.96641956
0.96538644
0.9646336
0.96417058
0.96418671
0.96487092
0.96564431
0.96587868
0.97826168
0.97765301
0.97682941
0.9759721
0.97507648
0.974099
0.97308037
0.97223193
0.97178734
0.97169949
0.97186811
0.97193002
0.97161005
0.97095861
0.97019634
0.96981622
0.9699804
0.97019507
0.97005457
0.96956474
0.96885112
0.96832823
0.96795427
0.98073561
0.98033061
0.97982379
0.97916565
0.97853711
0.97808142
0.97771157
0.97730622
0.97683151
0.97629069
0.97564922
0.97487853
0.9738748
0.97279799
0.97205838
0.97194643
0.97236548
0.97286683
0.97294623
0.97217425
0.97090712
0.96996947
0.96971815
0.9840335
0.98363378
0.9834422
0.98317704
0.98271246
0.98215224
0.98158823
0.98087765
0.98000859
0.97905857
0.97820569
0.97762834
0.97739307
0.97741733
0.97745926
0.97733848
0.97698873
0.97660464
0.97645997
0.97658957
0.97672474
0.9767815
0.97677648
0.98865408
0.98788539
0.98714913
0.98644589
0.98580569
0.98521267
0.98482931
0.98457857
0.98443307
0.98425797
0.98399123
0.98368129
0.98348166
0.98346885
0.98349849
0.98311545
0.98229193
0.98115976
0.9801162
0.97945687
0.97911823
0.97858598
0.97803077
0.99256572
0.9918563
0.99103651
0.99028588
0.98967322
0.9891713
0.98882118
0.98877288
0.98882296
0.98867291
0.98813493
0.98719271
0.98604254
0.98511034
0.98464146
0.98472127
0.98497553
0.98497263
0.98463846
0.98406467
0.98354899
0.98324077
0.98295335
0.99563927
0.9951127
0.99447479
0.99381584
0.99322691
0.99270555
0.99216883
0.99168062
0.99133223
0.99118736
0.99114084
0.99104415
0.9907235
0.99016554
0.98962704
0.98903239
0.98860288
0.98818888
0.98778745
0.98753231
0.98760229
0.98788381
0.98820653
0.99734846
0.99706609
0.99683274
0.99673124
0.99674204
0.9967105
0.99643385
0.99584093
0.99502982
0.99422034
0.99365519
0.99336801
0.99318813
0.99278675
0.99224422
0.99160021
0.99103227
0.99071017
0.9905982
0.99058567
0.99047639
0.99011146
0.98948257
0.99971664
0.99933392
0.9988352
0.99832973
0.99789912
0.99762926
0.99743181
0.9971652
0.99683255
0.99651894
0.99626871
0.99603374
0.99577777
0.99548029
0.99512307
0.99469469
0.99443296
0.99432407
0.99433681
0.99427191
0.99399657
0.99348358
0.99288401
1.0003753
1.0002642
1.0000366
0.9997634
0.99954372
0.99943964
0.99951372
0.99963203
0.99963706
0.99947827
0.99923746
0.99897525
0.99865347
0.99828028
0.99794441
0.9976906
0.99756675
0.99755918
0.99757971
0.99746682
0.99724457
0.99694373
0.99678156
1.0016277
1.0016852
1.0018171
1.0018784
1.0017984
1.0015746
1.0012599
1.0009643
1.0006488
1.0003412
1.000099
0.99998801
1.00001
1.0000842
1.000114
0.99999317
0.99974699
0.99943012
0.99916186
0.99902132
0.99898036
0.99906078
0.99901068
1.0027567
1.0026188
1.0026126
1.0026591
1.0026673
1.0025962
1.0024674
1.0023181
1.0021329
1.0018721
1.0015556
1.0012799
1.00116
1.0011843
1.0012956
1.0013601
1.0012746
1.00108
1.0008938
1.0008226
1.0008803
1.0010405
1.0010387
1.0041077
1.0038931
1.0036339
1.0034144
1.0032771
1.0031796
1.003098
1.0031005
1.003217
1.003369
1.0034416
1.0033293
1.0030345
1.0026665
1.0023986
1.0022911
1.0023202
1.0023783
1.0023543
1.0021981
1.0019879
1.0017909
1.0017046
1.0042976
1.0043316
1.0043309
1.004291
1.0042077
1.0040611
1.0038213
1.0035326
1.0032815
1.0031792
1.0032576
1.0034418
1.0035887
1.0035805
1.0034325
1.0032829
1.0032426
1.0032922
1.0033721
1.0034182
1.0033621
1.0032305
1.0029767
1.0038566
1.0038507
1.003887
1.0039589
1.0040732
1.0042136
1.004349
1.0044216
1.0044005
1.004323
1.0042487
1.0042208
1.0042127
1.0041509
1.0040115
1.0038121
1.0036121
1.0034822
1.0034392
1.0034651
1.00354
1.0035825
1.0035626
1.0047161
1.0046852
1.004604
1.0044791
1.0043295
1.0042006
1.0041429
1.0041757
1.0042374
1.0042457
1.0041676
1.0040499
1.0039839
1.0040344
1.0041715
1.0043277
1.0044034
1.0043809
1.0042787
1.0041491
1.0040756
1.0041165
1.0042662
1.004053
1.004136
1.0042959
1.0044828
1.004639
1.0047024
1.004652
1.0045266
1.0043874
1.0043009
1.0042817
1.004292
1.0042883
1.004259
1.0042257
1.0042114
1.0042443
1.0042829
1.0042791
1.0041977
1.0040732
1.0039726
1.0039948
1.0046843
1.0045243
1.0043058
1.0041052
1.0039947
1.0039951
1.004078
1.0041745
1.0042303
1.0042521
1.0042818
1.0043697
1.0045002
1.0046107
1.0046314
1.0045231
1.0043481
1.0041854
1.0040899
1.0041163
1.0042674
1.0044749
1.0047002
1.0044352
1.0045244
1.0046195
1.0046823
1.0046874
1.0046504
1.0046065
1.0045918
1.0046274
1.0046544
1.0046018
1.0044508
1.0043103
1.0042715
1.0043562
1.0045369
1.0047114
1.0048079
1.0048734
1.0049446
1.0050466
1.0051914
1.0053595
1.0047841
1.0047339
1.0047204
1.0047498
1.0048066
1.0048462
1.0048442
1.0047742
1.004678
1.0046056
1.0046039
1.0046503
1.0046569
1.0045761
1.0044678
1.0043747
1.0043736
1.0044788
1.0046749
1.004867
1.0049464
1.0048962
1.0047185
1.0049067
1.0049076
1.0048549
1.0047658
1.004663
1.0045738
1.004521
1.0045359
1.0045669
1.004589
1.0046172
1.0046583
1.0046931
1.0047203
1.0047235
1.0047269
1.0047547
1.0047999
1.0048267
1.0048223
1.0047622
1.0046376
1.0044886
1.0046957
1.0047657
1.0048767
1.0049656
1.004989
1.0049491
1.0048925
1.0048534
1.0048447
1.0048671
1.0048789
1.0048083
1.004718
1.0046635
1.004641
1.0046617
1.004695
1.0046963
1.0046425
1.0045698
1.004564
1.0047095
1.0049657
1.005186
1.0051254
1.0051353
1.0052034
1.0052761
1.0053144
1.0052991
1.0052015
1.0050371
1.0048889
1.0048141
1.0048572
1.0049987
1.005162
1.0052709
1.0052805
1.005187
1.0050278
1.0048577
1.0047536
1.0047731
1.0049124
1.0051113
1.0054556
1.0054053
1.0053031
1.0051823
1.0050866
1.005035
1.0050262
1.0050013
1.0049825
1.0049886
1.0049936
1.005
1.0050195
1.005008
1.0049678
1.0049272
1.0048669
1.004859
1.0049102
1.0049563
1.0050092
1.0049636
1.0048413
1.0047431
1.0047231
1.0046691
1.0046037
1.0045675
1.0046142
1.0047551
1.004952
1.0051501
1.0053241
1.0053961
1.0053183
1.0051613
1.0049573
1.0047426
1.0046739
1.0047276
1.0048927
1.0050763
1.0052056
1.0052617
1.0051391
1.0049296
1.0052591
1.0052338
1.0052013
1.0051738
1.0051312
1.0050535
1.0049648
1.0049174
1.0049013
1.0048738
1.0048802
1.0048831
1.0048834
1.0048815
1.004874
1.0049348
1.0049893
1.0050387
1.0050341
1.0049812
1.0049455
1.0049512
1.0049708
1.0054038
1.005426
1.0054855
1.0055558
1.005579
1.0055591
1.0054859
1.0053597
1.0052631
1.0052046
1.0051398
1.0051052
1.0050939
1.0051346
1.0051765
1.0051762
1.0051876
1.0051411
1.0050643
1.0050468
1.0050228
1.0050756
1.0052315
1.0059659
1.0059198
1.0058369
1.0057831
1.0057386
1.0057234
1.005752
1.0056791
1.0055984
1.0056225
1.005586
1.0055273
1.0055983
1.005645
1.0056507
1.0056659
1.005621
1.0055631
1.0054311
1.0053566
1.0052945
1.0052504
1.0053165
1.0060435
1.0060474
1.0059731
1.0059555
1.0059886
1.0060038
1.0060706
1.0061066
1.0060571
1.0060574
1.0059762
1.0058463
1.0058107
1.0057408
1.0057612
1.0058221
1.0058002
1.0058519
1.005833
1.0058414
1.0058244
1.0058194
1.005828
1.0059608
1.0059841
1.0059413
1.0059133
1.0058745
1.0058152
1.0058053
1.005806
1.0058125
1.0058931
1.0059264
1.0058799
1.0058238
1.0057589
1.0057966
1.0057553
1.0056255
1.0056162
1.0056713
1.0057578
1.005769
1.0057438
1.0057194
1.0056462
1.0057145
1.0058223
1.0058458
1.0058189
1.00583
1.0058405
1.0058368
1.0058383
1.0058271
1.0059147
1.0060574
1.0060365
1.0060041
1.0060229
1.0059496
1.0058611
1.005747
1.0057135
1.0057059
1.0057022
1.0057279
1.0057553
1.0060852
1.0060931
1.0061102
1.006066
1.0060543
1.0061096
1.0061295
1.0061201
1.0060703
1.0059402
1.0059058
1.0059787
1.0059489
1.0059445
1.0059336
1.0059028
1.0060668
1.0060918
1.006091
1.0060878
1.0061051
1.0061609
1.0061412
1.0060869
1.0060631
1.0060358
1.0060227
1.0060018
1.0059207
1.0059125
1.005977
1.005937
1.00588
1.0059232
1.0059274
1.0058897
1.0059221
1.0058764
1.0058319
1.0059199
1.0059242
1.0058914
1.0058727
1.0058356
1.0058473
1.0057999
1.0060033
1.0060058
1.0059757
1.0060017
1.0059945
1.0059009
1.0058968
1.0059732
1.0059793
1.0059894
1.0059912
1.0059056
1.0059406
1.0060226
1.005952
1.0058976
1.0058545
1.0058332
1.0058614
1.0057919
1.0057407
1.0057741
1.005788
1.0061626
1.0061359
1.0061009
1.0061471
1.0061855
1.006139
1.0061362
1.0061884
1.006165
1.0061375
1.0061134
1.0060173
1.0060444
1.0060911
1.0060442
1.0060556
1.0059795
1.0059482
1.0060512
1.0059909
1.0059301
1.005955
1.0059875
1.006338
1.0062688
1.0062304
1.0062824
1.0063089
1.0062897
1.0063146
1.0063293
1.0062639
1.0062326
1.006247
1.0062258
1.0062591
1.0062093
1.0061228
1.006184
1.0061097
1.0061445
1.0061897
1.0060974
1.0060424
1.0060982
1.0061339
1.0060594
1.0060272
1.0060606
1.0061193
1.0060776
1.0060054
1.0060139
1.0060658
1.0060782
1.0060419
1.0060254
1.0061072
1.0061741
1.0060815
1.0060936
1.0061852
1.0061236
1.0061562
1.0061479
1.00609
1.0061392
1.0061123
1.0060667
1.005691
1.0057043
1.0057966
1.0058222
1.0057724
1.0057953
1.0058628
1.0058529
1.0058732
1.00595
1.0059031
1.0058752
1.0059411
1.0058913
1.0059346
1.0059933
1.0058565
1.0058662
1.00589
1.0059033
1.005895
1.0057806
1.0056739
1.0057824
1.0058006
1.0058296
1.005774
1.0057297
1.0058062
1.0058741
1.0057938