/*--------------------------------*- C++ -*----------------------------------*\
| =========                 |                                                 |
| \\      /  F ield         | OpenFOAM: The Open Source CFD Toolbox           |
|  \\    /   O peration     | Version:  2406                                  |
|   \\  /    A nd           | Website:  www.openfoam.com                      |
|    \\/     M anipulation  |                                                 |
\*---------------------------------------------------------------------------*/
FoamFile
{
    version     2.0;
    format      ascii;
    arch        "LSB;label=32;scalar=64";
    class       surfaceScalarField;
    location    "5";
    object      phi;
}
// * * * * * * * * * * * * * * * * * * * * * * * * * * * * * * * * * * * * * //

dimensions      [1 0 -1 0 0 0 0];

oriented        oriented;

internalField   nonuniform List<scalar> 
123996
(
0.0029684604
-0.00014283514
0.00014137804
0.0029791702
-0.00052393849
0.00058674367
0.0029813421
-0.00074555466
0.00079888407
0.0029642989
-0.00090577911
0.0011740668
0.0029956323
-0.0010513499
0.0013192783
0.0030289064
-0.001296827
0.0011169794
0.0030753617
-0.0012917332
0.0011330458
0.0031695615
-0.0011625946
0.0013645209
0.0032395706
-0.0011210127
0.0010883269
0.0032852512
-0.00094868367
0.00082001972
0.0033234241
-0.00071385153
0.00081428817
0.0033621482
-0.00055903422
0.00079957996
0.0033474113
-0.00059077629
0.00069948257
0.0033464677
-0.00045719948
0.00045415838
0.0032575081
-0.00033494507
0.00019121576
0.0031779114
-0.00010560663
-0.00010326742
0.0030199319
0.00014343348
-0.00041842942
0.0030292962
0.00029154349
-0.00051912257
0.0029863972
0.00035039966
-0.00054959557
0.0029869165
0.00039240104
-0.00052547852
0.002864199
0.00026365094
-0.00036098188
0.0028634514
9.6200163e-05
-0.00019248016
0.0027148474
4.8279898e-05
-0.00019070477
0.0026596121
-8.5397392e-05
2.1605702e-05
0.0027856816
-6.6618442e-05
5.8402373e-05
0.002564537
-0.00010098012
1.4611401e-05
0.0027139005
-4.390673e-05
7.1012629e-08
0.0030199063
0.00029825855
-0.00032478481
0.0028484014
0.00048717856
-0.00053686804
0.0026516258
0.00040589728
-0.00046361446
0.0029058071
0.00046166724
-0.00045478691
0.0031799195
0.00070693314
-0.0006791385
0.0030408305
0.00083285198
-0.00082047465
0.0028353668
0.00074286686
-0.00075366071
0.0030414618
0.00068305037
-0.0007456082
0.003512785
0.00081170892
-0.00096652546
0.0036007934
0.00099698055
-0.001212995
0.0032592744
0.00098225756
-0.001194855
0.0028271004
0.00079918039
-0.00092090286
0.0028101854
0.00064619465
-0.00062678613
0.0033327853
0.0007896634
-0.00065943986
0.0038187532
0.0010843055
-0.00098538379
0.0039225314
0.0012710064
-0.0013440963
0.0038337877
0.0012605643
-0.0014599099
0.003711415
0.0011307909
-0.0013784138
0.0035564237
0.00095219768
-0.0012319521
0.0034079412
0.00089454682
-0.0011020004
0.003341241
0.00099977594
-0.0010510172
0.0034631344
0.0011485058
-0.0011057818
0.0038701063
0.0012207963
-0.0011762392
0.0044284281
0.0012329883
-0.0012750339
0.0049209582
0.0011955801
-0.0013529712
0.0051425842
0.0012315303
-0.0014289607
0.0051044199
0.0012554919
-0.0014732807
0.0013628941
0.0048741334
-0.0015492818
0.0028158882
-0.00015802743
0.002825055
-0.00043654427
0.0028328152
-0.00070947628
0.0028206794
-0.0008946438
0.0028400568
-0.00084950052
0.0028715972
-0.0011971203
0.0029231347
-0.0014105613
0.0030082107
-0.0010945214
0.0030684683
-0.00092746184
0.0031149195
-0.0010182761
0.0031597135
-0.00090336979
0.0031862878
-0.00063565028
0.0031890703
-0.00059324532
0.0031893594
-0.00039078776
0.0031198873
-0.00030964632
0.0030540381
-0.00012751985
0.0028955021
7.5015331e-05
0.0028866672
0.00025578749
0.0028406521
0.00026996608
0.0028090728
0.00024145408
0.002694053
0.00013987416
0.0027248613
2.9120341e-05
0.0025786613
-9.035321e-05
0.0025318468
-0.00020871096
0.0026441281
-0.00010896379
0.0024686739
-0.00017822258
0.0026571828
-4.5081367e-05
0.0029032314
0.00030398136
0.0026952951
0.00038291977
0.0025400476
0.00028574719
0.0028213591
0.00042530318
0.0030618492
0.00071000996
0.0028858169
0.00082636958
0.0026686058
0.00071170868
0.0028715894
0.00063688066
0.0033188093
0.00075115539
0.0033554396
0.00083983155
0.0030135298
0.00077122691
0.0026363937
0.00064079462
0.0027896837
0.0006588816
0.0034041932
0.00088895948
0.0038015343
0.0011438611
0.0037452576
0.0012305859
0.0035090999
0.0011351899
0.0032697689
0.00093853957
0.0032219778
0.00074401117
0.0034060824
0.00073460326
0.0035552694
0.00085626093
0.0035681659
0.0010473371
0.0036237296
0.0011965019
0.0039314287
0.0012584969
0.0043583703
0.0012031018
0.0047444671
0.0011313206
0.0049396135
0.001024435
0.0010310768
0.0049371675
0.0026731845
-0.00012796351
0.0026759603
-0.00033353445
0.0026852239
-0.00056414117
0.0026885148
-0.00092174136
0.0026959547
-0.0008983773
0.0027258801
-0.00097869617
0.0027981595
-0.0011614238
0.0028783093
-0.0010832843
0.0029264552
-0.00096723702
0.0029780832
-0.00098554602
0.0030252153
-0.00096082769
0.0030377178
-0.0008614039
0.0030664229
-0.00070963502
0.0030660565
-0.00037412155
0.0030154984
-0.00023267853
0.0029548464
-5.379015e-05
0.0028044041
8.9306542e-05
0.0027633118
0.00035618516
0.0027063563
0.00035270295
0.0026619895
0.0002479243
0.0025499799
0.00012561183
0.0025760055
3.9116385e-05
0.0024323455
-0.00013283349
0.0024155811
-0.00027412477
0.0024846745
-0.00013103681
0.0023759068
-0.00019879606
0.0025921979
-2.6793945e-07
0.0027692717
0.00034735584
0.0025493082
0.00028864467
0.00244547
0.00018231026
0.0027473774
0.00036071836
0.0029629817
0.00065049649
0.0027596834
0.00072832902
0.002532035
0.00061163286
0.0027365993
0.00060927742
0.0031424394
0.00074850688
0.0031722136
0.00079358907
0.0028662723
0.0006683319
0.0025673146
0.00054374659
0.0027482958
0.00062541741
0.0033261121
0.0008761147
0.0036560626
0.0010768237
0.0035353913
0.0011197907
0.003204733
0.0010197346
0.0028929356
0.00085133155
0.0029385014
0.00068482212
0.0032598654
0.00065777636
0.0035785967
0.00074995455
0.0036625118
0.00088632616
0.0035816339
0.0010524126
0.0035969831
0.001215253
0.0037892413
0.0012443736
0.0040794033
0.0012017821
0.0043849167
0.0010308495
0.00088097609
0.0045739842
0.0025407589
-6.8049818e-05
0.0025392978
-0.00021754681
0.002544232
-0.00034812511
0.0025560508
-0.00075611086
0.0025608555
-0.000956518
0.002590931
-0.00085773289
0.0026680076
-0.00077861386
0.002736458
-0.00094768152
0.0027759844
-0.0011120665
0.0028307087
-0.0010127349
0.0028733762
-0.00085899533
0.0028797126
-0.00082502388
0.002923892
-0.00067510435
0.0029153633
-0.00040199363
0.0028823163
-0.00024748609
0.0028263301
-5.1593167e-05
0.0027039247
5.9349372e-05
0.0026357351
0.00036328472
0.0025756794
0.00040729253
0.002525963
0.00032137358
0.0024209677
0.0001628792
0.0024251922
7.9842685e-05
0.002288759
-0.00012977667
0.0023120338
-0.00027116339
0.0023384962
-0.00014676336
0.0022983557
-0.0001754871
0.0025416264
6.2744261e-05
0.002613472
0.00034849083
0.0024064072
0.00023458854
0.0023514813
0.00012264298
0.0026556184
0.00032153585
0.0028266064
0.00059115073
0.002603535
0.00060160032
0.0024010141
0.00048194941
0.0025938872
0.00055871472
0.0029475493
0.00075235387
0.0029781194
0.000811659
0.0027237717
0.00066296488
0.002512654
0.00051945508
0.0026793393
0.00058281239
0.0031514829
0.00078740369
0.0034370414
0.00092742077
0.0033323405
0.00091855497
0.0030143591
0.00082020174
0.0026618563
0.00073374925
0.0027125467
0.00069066869
0.0030846911
0.00070171729
0.0034754844
0.0007293678
0.0037352984
0.00080060844
0.0037467969
0.00089787624
0.0036324145
0.0010664481
0.0035718573
0.0011816222
0.0036329114
0.0012379917
0.0037649996
0.0011255673
0.0010090806
0.0039194691
0.0024167146
-1.8917265e-05
0.0024176413
-0.0001357637
0.0024177688
-0.00020334724
0.0024306189
-0.00046021633
0.0024405393
-0.00081189698
0.0024736899
-0.00084103353
0.0025416878
-0.00065480945
0.0026000973
-0.00076271539
0.0026436664
-0.0010671667
0.0027033651
-0.00099820144
0.0027425871
-0.00076722301
0.002756681
-0.00065209548
0.0028054269
-0.00049665948
0.0027867265
-0.00041313416
0.0027664185
-0.00034659028
0.0027116742
-0.00013556114
0.0026162204
-7.7093958e-06
0.0025217861
0.00024463151
0.0024614667
0.00033370373
0.0024116024
0.00029415428
0.0023189504
0.00015184372
0.0022968218
6.4876384e-05
0.0021692567
-0.00016140295
0.0022271151
-0.00027156384
0.0022166766
-0.00016054331
0.0022343622
-0.00015060887
0.0024766027
0.00010595775
0.0024686637
0.00030922852
0.0022821598
0.00016236565
0.0022826244
8.4990187e-05
0.0025758447
0.00033164957
0.00268908
0.00056073796
0.0024662103
0.00050865987
0.0023097634
0.00038327909
0.0024928705
0.00047690311
0.0027921712
0.00072025614
0.0028072176
0.0008101709
0.0025962195
0.00066345117
0.0024604575
0.00052072992
0.0026041666
0.00057395576
0.0029521485
0.00072639734
0.0031682431
0.00078650692
0.0030898688
0.00070840875
0.0028597223
0.00057653817
0.0025725495
0.00053803587
0.0025537003
0.00065217769
0.0028397713
0.00077844454
0.0032282698
0.00081194713
0.0035759387
0.00080884551
0.0037607642
0.00080506059
0.0037406167
0.00087874642
0.0035940719
0.00096191526
0.00347079
0.0010862774
0.0034034843
0.0010991656
0.0011060037
0.0033830776
0.0023003437
-3.0898875e-06
0.0023062664
-0.00013198814
0.0023056701
-0.0001805324
0.0023152306
-0.00026893557
0.0023305979
-0.00059523576
0.0023624997
-0.00082125433
0.0024174809
-0.00074042846
0.0024651857
-0.00070310157
0.0025172927
-0.00085921349
0.0025766045
-0.00084928153
0.0026125242
-0.00072772299
0.0026366466
-0.00060623787
0.0026768889
-0.00042506719
0.0026518203
-0.00041872112
0.0026405114
-0.00039135665
0.0025814392
-0.00022036896
0.0025031326
-7.7654319e-05
0.0024010053
0.00011235101
0.002333753
0.00023295279
0.002276987
0.0002141492
0.0021975842
9.8836755e-05
0.0021489756
1.2211265e-05
0.0020419532
-0.0002168599
0.0021307915
-0.00026138711
0.0020972786
-0.00016563366
0.0021560992
-0.00014223978
0.0023763646
0.0001104971
0.0023113473
0.00023304511
0.0021502697
7.1796716e-05
0.0022108413
6.1129775e-05
0.0024798225
0.0003677645
0.0025366971
0.00057285284
0.0023247612
0.00046242997
0.0022106872
0.00033109112
0.0024022281
0.00042776086
0.0026393141
0.00066192357
0.0026181549
0.00074181156
0.002446531
0.00062001451
0.0023837435
0.00049922354
0.0025193205
0.00056661019
0.0027452243
0.0007065472
0.0028777211
0.00070960923
0.002808664
0.00056259334
0.0026817455
0.00040851708
0.0025879772
0.00037603127
0.002549449
0.00052867116
0.0026634741
0.00075648888
0.0029424195
0.00086238835
0.0032783328
0.00086850019
0.0035481498
0.00080285096
0.0036550013
0.00076817986
0.0036055064
0.00076278233
0.0034626228
0.00081699983
0.0032849638
0.00086821486
0.00097256884
0.0031500279
0.0021882924
-7.2365203e-06
0.0021961288
-0.00017741764
0.0021975385
-0.00023814643
0.0022005577
-0.0002505046
0.0022170519
-0.0004897239
0.0022514207
-0.0007187127
0.0022985694
-0.0008160537
0.0023415025
-0.00078462194
0.0024041551
-0.00069564603
0.0024612247
-0.00064263932
0.0024919586
-0.00068000001
0.0025227601
-0.00065318042
0.0025525302
-0.0004715239
0.0025296262
-0.00045025871
0.0025296313
-0.00037061624
0.0024748819
-0.00021901403
0.002406239
-6.4664214e-05
0.0023039963
6.9069342e-05
0.0022303673
0.00019528766
0.0021668352
0.00019741759
0.0020901514
6.6135506e-05
0.0020223279
-4.2297158e-05
0.0019384644
-0.00024635408
0.0020434341
-0.00023334206
0.0019983571
-0.0001634179
0.0020864104
-0.0001437104
0.0022683689
9.4407525e-05
0.0021695386
0.00014429597
0.0020451491
-1.2314444e-05
0.0021614381
3.6409771e-05
0.0023999087
0.00038128601
0.0024036881
0.00058948384
0.0022066945
0.00044816276
0.0021340589
0.00030101227
0.002337526
0.00041025063
0.0025131901
0.00061819046
0.0024519841
0.00065925402
0.0022907198
0.00053729292
0.0022930723
0.0004305524
0.0024472054
0.00051601337
0.0025729632
0.0006765859
0.0026124494
0.00070350244
0.0025423457
0.00053125816
0.0024837764
0.00035074812
0.0025495832
0.00030255311
0.0026065941
0.00040501009
0.0025976699
0.00060905904
0.0027070155
0.00081209838
0.002937853
0.00089299732
0.0031924523
0.00085612109
0.003374207
0.00075183315
0.0034171987
0.00065145352
0.0033641198
0.00062490025
0.0032188789
0.00060765036
0.00068161078
0.0030361663
0.0020809696
-2.653698e-05
0.0020890161
-0.00020303329
0.0020927704
-0.00030804392
0.0020906982
-0.00033905616
0.0021084566
-0.00050535997
0.0021418544
-0.00062628367
0.0021844254
-0.00077070768
0.0022287508
-0.00086478875
0.0022937787
-0.00069180485
0.0023462694
-0.00053220746
0.0023735123
-0.00059794839
0.0024063341
-0.00063037753
0.0024262648
-0.00051320693
0.0024128907
-0.00049117854
0.0024212335
-0.00034336834
0.0023718891
-0.00018418954
0.0023056648
-3.0137236e-05
0.0022133022
8.2645696e-05
0.0021311499
0.00020251851
0.0020552338
0.00023719638
0.0019794895
6.4513666e-05
0.0019032851
-8.9258197e-05
0.0018442634
-0.00025489674
0.0019518176
-0.00018894409
0.0018970015
-0.00015866204
0.0020026676
-0.00015144247
0.0021471237
5.8906918e-05
0.0020292264
5.7489471e-05
0.0019412952
-7.0016445e-05
0.0021091393
2.5746858e-05
0.0023152025
0.00037189261
0.0022680276
0.00056751367
0.0020822562
0.00043047272
0.0020555892
0.00028418638
0.0022617401
0.00040274094
0.0023824471
0.00059143802
0.0022951969
0.00060162856
0.0021279978
0.00044533215
0.0021800193
0.00033603397
0.0023741719
0.00042128818
0.002452712
0.00060215288
0.0023928872
0.00069777116
0.0022979042
0.00057692877
0.002278139
0.00038208796
0.0024194319
0.00029587238
0.0025808227
0.00032570884
0.002617089
0.00044499614
0.0026103867
0.00064950109
0.0027036667
0.00083099542
0.0028422135
0.00086756459
0.0029972572
0.00079406857
0.0031044553
0.00064714678
0.003118639
0.00052954972
0.0030568144
0.00044155811
0.00043301959
0.0029314897
0.0019785921
-4.3876053e-05
0.0019867482
-0.0001858663
0.0019919287
-0.00032803686
0.0019864431
-0.00042949882
0.0020076417
-0.00054085313
0.0020397743
-0.00059587717
0.002078345
-0.00070591718
0.0021256808
-0.00085103278
0.0021890779
-0.00077068071
0.0022345059
-0.0005577946
0.002262764
-0.00055247351
0.0022973563
-0.00053669078
0.0023086496
-0.00046926479
0.0023057054
-0.00046924157
0.0023198678
-0.000320739
0.0022784525
-0.00018005984
0.00221694
-1.9329466e-05
0.0021334111
8.6510556e-05
0.0020499252
0.00019631673
0.0019576563
0.00028762786
0.0018824431
9.4673452e-05
0.0018038975
-0.00010741513
0.001766828
-0.00023326809
0.0018627833
-0.00014236214
0.0018022551
-0.00016744383
0.0019239079
-0.00014894116
0.0020360584
1.880271e-05
0.0019119806
-3.9389348e-07
0.0018561466
-9.4438353e-05
0.0020590502
3.5836657e-05
0.0022371492
0.00035620951
0.0021478129
0.00052006674
0.0019642164
0.00038272787
0.0019796619
0.00024873793
0.0021948811
0.00038158856
0.0022746984
0.00056706039
0.0021520877
0.00056795493
0.0019771633
0.00037629133
0.0020534003
0.00025320285
0.0022911001
0.00031873661
0.0023861483
0.00049050873
0.0022679382
0.00063373285
0.0021178718
0.00061620318
0.0020997944
0.00047124153
0.0022507062
0.00033958126
0.0024554955
0.00030162899
0.0025942858
0.00034082398
0.0026082425
0.00046476434
0.0025888238
0.00065805118
0.0026087543
0.00078573899
0.0026714982
0.00078886596
0.002746243
0.0006968389
0.0028127717
0.00055896747
0.002806696
0.00039100795
0.00029667704
0.0027670923
0.0018820159
-5.0024614e-05
0.0018885133
-0.00013891293
0.0018940837
-0.00029967992
0.0018876768
-0.00046429602
0.0019105807
-0.00051945924
0.0019414702
-0.00059204979
0.0019782922
-0.00068911505
0.0020260287
-0.0007750096
0.0020877907
-0.00079591592
0.0021256421
-0.00064721313
0.0021566442
-0.00058086084
0.0021925471
-0.00046184757
0.00219907
-0.00040099097
0.0022033233
-0.00040249487
0.0022188125
-0.00027939417
0.0021859856
-0.00020775834
0.0021267894
-4.480948e-05
0.0020486151
8.2425337e-05
0.0019699716
0.00017577191
0.0018602136
0.00029392064
0.0017843242
0.00011529775
0.0017094538
-0.00010544402
0.0016927825
-0.00019621802
0.0017704452
-0.00011462601
0.0017137028
-0.00018190294
0.0018398631
-0.00014516613
0.0019256323
-1.3686864e-05
0.0018075834
-4.1338935e-05
0.0017769316
-9.4058977e-05
0.0019976839
6.1605149e-05
0.0021512724
0.00034644332
0.0020286019
0.00045635861
0.0018474807
0.00031454198
0.0018981281
0.00020028166
0.0021187754
0.0003450349
0.002172478
0.00053570571
0.0020103436
0.00054901628
0.0018354281
0.00034321739
0.0019181619
0.00020299425
0.0021826012
0.00024762045
0.0023164682
0.00038385261
0.0021963385
0.00051819942
0.0020045621
0.00056922705
0.0019495417
0.00052050683
0.0020749834
0.00041100744
0.0022821943
0.00032298252
0.0024879449
0.00030020058
0.0025902159
0.00034170117
0.0025650352
0.00045608337
0.0024985316
0.00060925668
0.0024693845
0.00071278956
0.0024702068
0.00070352442
0.0024862859
0.00062270933
0.0025117919
0.00045229361
0.00030125298
0.0025375762
0.0017910229
-3.9830627e-05
0.0017955417
-7.5162116e-05
0.0018010968
-0.00024427822
0.0017961724
-0.00044200839
0.0018176735
-0.00044006655
0.0018476452
-0.00058156545
0.0018835114
-0.00072101903
0.00193006
-0.00071391063
0.0019913671
-0.00072612722
0.0020217938
-0.00068197511
0.0020557308
-0.00063622898
0.0020921264
-0.00045344446
0.0020981443
-0.00036646055
0.0021077742
-0.00034447217
0.0021174189
-0.00023904443
0.0020940332
-0.00023580384
0.0020395883
-9.4101952e-05
0.0019632653
5.9179898e-05
0.0018939801
0.00015980626
0.0017687291
0.00025906225
0.0016905946
0.0001161654
0.0016247231
-9.3620165e-05
0.0016199659
-0.00015075935
0.0016760527
-0.0001074358
0.0016296735
-0.00020249001
0.0017542003
-0.00014695704
0.0018261099
-2.8869442e-05
0.0017207599
-6.2270227e-05
0.0017057673
-7.1007066e-05
0.0019283747
9.3098888e-05
0.0020614791
0.00033064618
0.0019176697
0.0003870917
0.0017390792
0.0002432059
0.0018175806
0.00014837255
0.0020455067
0.00029091504
0.0020888925
0.00049030482
0.001895417
0.00051347102
0.0017195049
0.00033764207
0.0017960161
0.00019836199
0.0020660203
0.000212915
0.0022395838
0.0003171351
0.0021501245
0.00040350724
0.0019471255
0.00044779261
0.001830243
0.00049019717
0.0019055166
0.00045193893
0.002092234
0.00036728754
0.0023169254
0.00030493226
0.0024860256
0.00029206116
0.002523779
0.00032049212
0.0024722621
0.00042052977
0.0023874123
0.0005530869
0.0023201216
0.00063526993
0.0022545668
0.00062957713
0.0022373885
0.00052270918
0.00040030845
0.0022699678
0.0017052586
-1.6004646e-05
0.0017073487
-1.3109677e-05
0.0017123877
-0.00017434768
0.0017111892
-0.0003815749
0.001728062
-0.00034664445
0.0017550101
-0.00054983423
0.0017936775
-0.00074313098
0.0018390644
-0.00068372502
0.0018981078
-0.00060265631
0.0019228535
-0.00062455482
0.0019597906
-0.00064418146
0.0019936824
-0.00047753866
0.0020000263
-0.00039799088
0.0020131279
-0.00032807279
0.0020153269
-0.00021929618
0.0020012028
-0.00023147128
0.0019527102
-0.00012242171
0.0018792303
5.1169381e-05
0.0018159163
0.00016036219
0.0016822283
0.00020498466
0.001599871
0.00010548301
0.0015478332
-6.6246119e-05
0.0015452705
-0.00011184014
0.0015820599
-0.00012337367
0.0015516428
-0.0002254321
0.001671771
-0.00014590654
0.0017326244
-3.6693182e-05
0.0016459792
-7.0373862e-05
0.0016387391
-5.485183e-05
0.0018487759
0.00012129084
0.0019644148
0.00031482833
0.0018115474
0.00031680276
0.001635112
0.00016870113
0.0017234499
0.00010392754
0.0019611236
0.00023273768
0.0020021637
0.00043302331
0.0017961217
0.00046014892
0.0016174288
0.00034136538
0.0016825553
0.00022163567
0.0019448396
0.00021923453
0.0021347998
0.00030120491
0.002082493
0.0003242967
0.0019199677
0.00031506233
0.0017605557
0.00037297837
0.0017678412
0.00042610642
0.0019122028
0.00039052128
0.0021261372
0.00034190723
0.0023249489
0.00028837803
0.0024313964
0.00027015179
0.0024402494
0.00030017396
0.0023721102
0.00038880666
0.002252278
0.00048211619
0.002129341
0.00054884055
0.0020368977
0.00051498846
0.00046669403
0.0020450382
0.0016243333
8.5936156e-06
0.0016240604
2.525059e-05
0.0016282899
-0.00011000338
0.0016312137
-0.00030447413
0.0016430016
-0.00027729334
0.0016661477
-0.0004972487
0.0017072808
-0.00071387731
0.0017533722
-0.00066098663
0.0018094096
-0.00049639578
0.0018315432
-0.00051595273
0.0018692458
-0.00057366255
0.0018969454
-0.00049395309
0.0019045836
-0.00045817098
0.0019200073
-0.00035029957
0.0019173209
-0.00022233209
0.0019094722
-0.00020823268
0.0018681286
-0.00012005921
0.0017984181
4.8261263e-05
0.0017375633
0.0001711401
0.0016029814
0.00015262209
0.0015185942
8.9946427e-05
0.0014764304
-3.0891432e-05
0.001466896
-8.8436487e-05
0.0014913011
-0.00015448886
0.0014780813
-0.00024243754
0.0015910372
-0.00013558412
0.001644719
-4.2875814e-05
0.0015759092
-6.7369376e-05
0.0015725644
-5.0857971e-05
0.0017640836
0.00014025925
0.0018655999
0.00030009564
0.0017143998
0.0002495714
0.0015439833
0.00010368577
0.0016276743
6.9557911e-05
0.001874109
0.00020009451
0.0019152541
0.00038121578
0.0017202413
0.0003900975
0.0015321538
0.00031821556
0.0015779325
0.00024625622
0.0018311524
0.00025421239
0.0020199177
0.00032071268
0.001992046
0.00029143804
0.0018783224
0.00022002129
0.0017264457
0.00022557378
0.0016582836
0.00032104714
0.0017582924
0.0003719925
0.0019367056
0.00036726124
0.0021439966
0.00032458217
0.0022919194
0.00027055351
0.0023580424
0.00025303835
0.0023367979
0.00028059386
0.0022323454
0.00032245163
0.0020705798
0.00038892846
0.0019296692
0.00042181237
0.00043772084
0.0018893731
0.001547377
2.9604945e-05
0.0015453722
4.2496392e-05
0.0015486877
-6.066994e-05
0.0015548327
-0.00023230444
0.0015621422
-0.00024841264
0.0015826689
-0.00043853531
0.0016249136
-0.00062288063
0.0016723134
-0.00061921619
0.0017245592
-0.0004358372
0.0017454828
-0.00041981454
0.0017824516
-0.00046607027
0.0018037058
-0.00047753395
0.0018129059
-0.00048877952
0.0018303268
-0.00036419625
0.0018255363
-0.00023308673
0.0018220158
-0.00018673137
0.0017874611
-0.00010848374
0.0017217035
3.4288969e-05
0.0016592026
0.0001736818
0.0015303588
0.00010586137
0.0014459658
6.8266473e-05
0.0014079443
2.4428002e-06
0.001388957
-8.5644983e-05
0.0014084613
-0.00018657232
0.0014111029
-0.0002461579
0.0015134792
-0.00011490868
0.0015622525
-4.754118e-05
0.0015069034
-6.4172222e-05
0.0015086608
-5.5118531e-05
0.0016753873
0.00014344854
0.0017641307
0.00027924925
0.001626373
0.00018675353
0.0014688857
4.598967e-05
0.0015423378
4.8265827e-05
0.0017876349
0.0002055705
0.0018255257
0.00034885787
0.0016555769
0.00031076913
0.0014635167
0.00025716
0.0014828487
0.00024698
0.0017220765
0.00029968566
0.001893568
0.00036680282
0.001880549
0.00029023926
0.0018071047
0.00016616394
0.0017015863
0.00010727835
0.001597229
0.00016983045
0.0016388801
0.00030705066
0.0017764393
0.00037055044
0.0019584904
0.00036738368
0.0021270592
0.00030936132
0.0022271823
0.00025609949
0.0022409699
0.00023068925
0.0021771746
0.00021959527
0.002034883
0.00023481375
0.0018686075
0.00027460591
0.0003394712
0.0017874352
0.0014740384
4.0267019e-05
0.0014710809
4.4041457e-05
0.0014736439
-1.9381171e-05
0.0014817641
-0.00016743809
0.0014859405
-0.000247318
0.001505243
-0.00038112114
0.0015472693
-0.00048552112
0.001594698
-0.00052945397
0.0016421504
-0.00041147344
0.001663265
-0.00038234
0.0016993116
-0.00037388759
0.0017164156
-0.0004206912
0.0017281943
-0.00045469946
0.0017458377
-0.00033922727
0.0017393537
-0.00023369312
0.0017376269
-0.00017364992
0.0017094694
-0.00011495327
0.0016486473
5.0598376e-06
0.0015813568
0.00015843588
0.0014630264
6.113449e-05
0.0013792682
4.9173315e-05
0.0013384804
2.0127778e-05
0.0013136224
-0.00010512157
0.0013317332
-0.00020795325
0.0013502538
-0.0002379702
0.0014382125
-9.0029636e-05
0.0014850988
-4.4495294e-05
0.0014386235
-7.1724662e-05
0.0014489926
-5.4392222e-05
0.0015897417
0.00013797193
0.001663048
0.00025677785
0.0015427035
0.00013298207
0.0014041154
-3.5004935e-06
0.0014704189
4.1090926e-05
0.0017013919
0.00022810509
0.0017325775
0.00033038667
0.001590629
0.00023751679
0.0014137842
0.00016598713
0.0014091399
0.00020798037
0.0016310353
0.00033744226
0.0017683154
0.00041203603
0.001760071
0.00031050822
0.0017069029
0.00014191962
0.0016413994
3.6884819e-05
0.0015647295
3.8841435e-05
0.0015558941
0.00019060046
0.0016499503
0.00034507573
0.0017891769
0.00039048016
0.0019498496
0.00036622237
0.002071515
0.00029003557
0.0021156832
0.00022276603
0.002077564
0.0001674653
0.0019799368
0.00014042844
0.0018386045
0.0001341688
0.00020571148
0.0017338587
0.0014040731
4.0322502e-05
0.0014008624
3.8746853e-05
0.0014027733
1.7334134e-05
0.0014110376
-0.0001084727
0.0014142675
-0.00024917902
0.0014337189
-0.00032438299
0.0014741099
-0.0003434732
0.0015196764
-0.00040458412
0.0015621187
-0.0003954016
0.0015848134
-0.0003939897
0.0016193788
-0.00031993465
0.0016358334
-0.00034208623
0.0016499636
-0.00036125402
0.0016661004
-0.00027462791
0.0016589083
-0.00021981364
0.0016570479
-0.00016733753
0.0016340852
-0.00013217011
0.0015802149
-3.7031015e-05
0.0015071309
0.00012632692
0.001400296
3.6450132e-05
0.0013174025
4.5249985e-05
0.0012709449
1.9899991e-05
0.0012440746
-0.00012768335
0.001261867
-0.00021011707
0.0012939718
-0.00021592033
0.0013664754
-7.154688e-05
0.0014095996
-2.9060677e-05
0.0013725935
-8.0038472e-05
0.001391331
-5.8742093e-05
0.0015087085
0.0001280023
0.0015636907
0.0002287802
0.0014619526
8.6853335e-05
0.0013503654
-4.9149832e-05
0.0014092219
3.4155147e-05
0.0016143699
0.00025829319
0.0016361729
0.00032195565
0.0015167481
0.00018681771
0.0013668502
7.075367e-05
0.0013496941
0.00013658238
0.0015420601
0.00034634657
0.0016443661
0.00043626187
0.0016277948
0.00033410628
0.0015858927
0.00014646277
0.0015415353
2.2105896e-06
0.0015204299
-4.6606028e-05
0.0015170897
6.5956672e-05
0.0015567565
0.00027300151
0.0016524324
0.00039169795
0.0017764725
0.00040491281
0.0019022199
0.00034818996
0.0019613589
0.00024690644
0.0019508132
0.00014810953
0.0018879985
8.4720943e-05
0.00179798
4.2742094e-05
7.9716188e-05
0.0017131058
0.0013373869
3.3397889e-05
0.0013345168
2.9886427e-05
0.0013356997
4.7828857e-05
0.001343178
-5.0089872e-05
0.0013463996
-0.00022701345
0.0013662123
-0.00026333805
0.0014048334
-0.00022132448
0.0014475801
-0.00027534935
0.0014854874
-0.00036981601
0.001509211
-0.00041755519
0.0015421873
-0.0002994772
0.0015601206
-0.00027072834
0.0015767228
-0.00025154069
0.0015900785
-0.00019266592
0.0015834288
-0.0001940255
0.0015804724
-0.00015300053
0.0015612496
-0.00014548393
0.0015144155
-7.5218256e-05
0.001437194
8.4251504e-05
0.0013429704
3.5103496e-05
0.001259785
5.566994e-05
0.0012071894
1.2028761e-05
0.0011814826
-0.0001395654
0.0011991234
-0.00019018791
0.0012404702
-0.00018108544
0.0013010874
-5.6884034e-05
0.0013381996
-1.0659045e-05
0.001309548
-8.4995117e-05
0.0013372215
-6.1921637e-05
0.0014353462
0.00011651293
0.0014720124
0.00020186888
0.0013840512
5.0506727e-05
0.0012997996
-8.9462974e-05
0.0013581453
2.8390666e-05
0.0015280564
0.00029079093
0.0015396155
0.00031529897
0.0014342003
0.00016014646
0.0013159721
-1.6561562e-06
0.0013021793
4.6668889e-05
0.0014545209
0.00031342761
0.0015303307
0.00043849051
0.0015071411
0.00034425075
0.0014699351
0.0001706754
0.0014291287
-5.7510574e-06
0.0014571694
-8.6446415e-05
0.0014870379
-2.6447129e-05
0.0015019335
0.00016332322
0.0015487965
0.00034967332
0.0016359482
0.00041897984
0.001733445
0.00040321242
0.0017938982
0.00029945164
0.0017971091
0.00016270923
0.0017619797
5.9498111e-05
0.0017105874
-4.2996172e-06
-7.6748113e-06
0.0016659129
0.0012737472
2.2448425e-05
0.0012715492
2.5190331e-05
0.0012721128
7.0484984e-05
0.0012785226
7.5846373e-06
0.0012822758
-0.00018700935
0.0013025051
-0.00020128309
0.0013390048
-0.00012589164
0.0013780705
-0.00016981804
0.0014126459
-0.0003240268
0.0014378079
-0.00042290189
0.0014687245
-0.00028972129
0.0014884518
-0.00022456493
0.0015064227
-0.00017114076
0.0015168496
-0.00012651083
0.001511793
-0.00016523801
0.0015081615
-0.00012862483
0.001491743
-0.00014265306
0.0014517113
-9.8366695e-05
0.0013729176
4.646025e-05
0.0012892887
5.5634127e-05
0.0012053019
8.2784588e-05
0.0011471325
7.1030135e-06
0.0011241789
-0.00013671946
0.0011412745
-0.00015420731
0.001185915
-0.00013159318
0.0012384048
-3.9017473e-05
0.0012678044
7.9478927e-06
0.0012481991
-8.2570086e-05
0.0012836299
-6.40313e-05
0.0013650644
0.00010356253
0.0013849666
0.00017689745
0.0013076657
2.719389e-05
0.0012495678
-0.00011595715
0.0013147817
1.1661172e-05
0.001437936
0.00029987617
0.0014454381
0.00031860466
0.0013447256
0.00015064185
0.0012561258
-4.916977e-05
0.0012710807
-3.180358e-05
0.0013804682
0.00024975043
0.0014245656
0.00042117118
0.0013920917
0.0003448117
0.0013513006
0.00019952552
0.0013177748
3.7928335e-06
0.0013674604
-9.6800984e-05
0.0014393538
-7.9674902e-05
0.0014651216
6.5129865e-05
0.0014743321
0.00025879382
0.0015294338
0.00040135649
0.0015875726
0.00043151832
0.0016328875
0.00035550835
0.0016400125
0.00020792709
0.0016219911
6.585066e-05
0.0015957225
-1.7097725e-05
-5.1184977e-05
0.0015849277
0.0012131509
1.0349335e-05
0.0012116317
2.1396925e-05
0.0012116519
8.3350489e-05
0.0012165194
6.3428684e-05
0.0012217171
-0.00013832414
0.0012422495
-0.00014001422
0.0012758419
-5.3961721e-05
0.0013111911
-9.8310886e-05
0.0013439125
-0.00026262236
0.0013700937
-0.00039179796
0.0013988474
-0.0002737152
0.0014198941
-0.00020633632
0.0014380961
-0.00013634042
0.0014460422
-8.7011684e-05
0.0014439695
-0.00014295466
0.0014395758
-9.6282433e-05
0.0014255487
-0.00011273194
0.0013914886
-9.4615845e-05
0.0013143036
2.6305987e-05
0.0012393701
8.5308483e-05
0.0011537736
0.00012108587
0.0010919752
3.5165163e-06
0.0010731997
-0.00011956206
0.0010908054
-0.00011408084
0.0011354806
-7.9494175e-05
0.0011815704
-1.7075537e-05
0.0012028195
2.4486486e-05
0.0011912266
-7.0698297e-05
0.0012319073
-6.3909926e-05
0.0013022585
9.4652528e-05
0.0013082981
0.00015843331
0.0012374855
1.4926682e-05
0.0012015126
-0.0001295435
0.0012771613
-7.3639616e-06
0.0013632029
0.00028309203
0.0013607211
0.00033265395
0.0012583895
0.00014094462
0.0011923528
-7.6486882e-05
0.001238932
-9.6189147e-05
0.0013287146
0.00016412558
0.0013388608
0.00037591349
0.0013013727
0.0003423499
0.0012476789
0.00021965037
0.0012182932
2.4984262e-05
0.0012763578
-9.1878877e-05
0.0013801749
-0.00010102111
0.0014316523
-1.3095875e-05
0.0014401513
0.00015517777
0.0014608499
0.00034098176
0.0014846661
0.00042926665
0.0014964377
0.00038621624