/*--------------------------------*- C++ -*----------------------------------*\
| =========                 |                                                 |
| \\      /  F ield         | OpenFOAM: The Open Source CFD Toolbox           |
|  \\    /   O peration     | Version:  2406                                  |
|   \\  /    A nd           | Website:  www.openfoam.com                      |
|    \\/     M anipulation  |                                                 |
\*---------------------------------------------------------------------------*/
FoamFile
{
    version     2.0;
    format      ascii;
    arch        "LSB;label=32;scalar=64";
    class       surfaceScalarField;
    location    "5";
    object      phi_0;
}
// * * * * * * * * * * * * * * * * * * * * * * * * * * * * * * * * * * * * * //

dimensions      [1 0 -1 0 0 0 0];

oriented        oriented;

internalField   nonuniform List<scalar> 
192068
(
0.0013735339
0.00012619617
-0.00010590448
0.0013983605
0.00048651793
-0.00042327248
0.0014290665
0.00047263206
-0.00038853694
0.0014626308
0.00031256318
-0.00022494348
0.001496123
0.00012051531
-3.5264286e-05
0.0015314275
1.5830502e-05
5.7556668e-05
0.0015664321
6.6114411e-06
5.0417767e-05
0.0015987514
3.8850783e-05
3.3035839e-06
0.0016264308
7.5958453e-05
-4.7754874e-05
0.0016475165
0.0001076016
-9.0627554e-05
0.0016600483
0.00013540888
-0.00012852155
0.0016621285
0.00016529769
-0.00016614411
0.0016539926
0.00020191318
-0.00020968642
0.0016343289
0.00024255698
-0.00025675337
0.0016008521
0.00029479304
-0.00031505068
0.0015559136
0.00035688897
-0.00038155236
0.0015088602
0.00041464501
-0.00043929698
0.0014769915
0.0004417783
-0.00046136342
0.0014675338
0.00040466697
-0.00041908088
0.0014589283
0.000318331
-0.00033256529
0.0014454224
0.00021944107
-0.00023655644
0.0014258296
0.00011710353
-0.00013867263
0.0014012736
2.177443e-05
-4.7543478e-05
0.0013755295
-5.9437265e-05
3.1576565e-05
0.0013528352
-0.00011644495
9.1395328e-05
0.0013377055
-0.00013721993
0.00011241355
0.0013316959
-0.00011701803
9.4734718e-05
0.0013320642
-6.6212607e-05
4.621977e-05
0.0013370643
3.2315862e-06
-2.2890547e-05
0.0013474404
8.428647e-05
-0.0001031436
0.0013600832
0.00016868939
-0.00018716734
0.0013756777
0.00025008705
-0.00026861707
0.001394122
0.00032622747
-0.00034526291
0.0014157386
0.0003952498
-0.0004149777
0.001439599
0.00045807311
-0.00047939907
0.0014657918
0.00051517968
-0.00053530357
0.0014928444
0.00056630129
-0.00058967409
0.0015204065
0.00061367333
-0.00063781066
0.0015487571
0.00065722283
-0.00068330474
0.0015755388
0.00069678415
-0.00072866321
0.0016039754
0.00073590599
-0.00076529189
0.0016329881
0.00077216882
-0.00080451733
0.0016629752
0.00080339532
-0.00084251185
0.0016944376
0.00083485203
-0.00087561315
0.001731076
0.00086187636
-0.00090087725
0.0017709138
0.00088879763
-0.0009293124
0.001814847
0.00090639051
-0.00094935302
0.0018620372
0.00092608823
-0.00097290174
0.0019116689
0.00093608163
-0.00098652373
0.0019625673
0.00095061915
-0.0010003066
0.0020174363
0.000954554
-0.0010029312
0.0020741393
0.00096406973
-0.0010166805
0.0021289042
0.00096345406
-0.001016853
0.0021919872
0.00095783325
-0.0010247974
0.00097548048
0.0022418493
-0.0010270965
0.0013779522
0.00014248394
0.0014021284
0.00054256691
0.0014326173
0.00055004138
0.0014660522
0.00039725855
0.0014999479
0.0002018134
0.0015351206
8.4840806e-05
0.0015696353
6.046334e-05
0.0016014077
7.8738629e-05
0.001628646
0.00010327232
0.0016494239
0.0001236209
0.0016619003
0.00014129129
0.0016641409
0.00016188182
0.00165654
0.00019132635
0.0016376367
0.00022589317
0.001604924
0.00027309672
0.0015600756
0.0003304213
0.0015115835
0.00038730546
0.0014756967
0.00041755233
0.0014622667
0.00038785108
0.0014520565
0.00030157358
0.0014379212
0.00020043736
0.0014184347
9.4794324e-05
0.0013947631
-3.7851735e-06
0.0013706526
-8.6385634e-05
0.0013506417
-0.00014191349
0.0013388799
-0.00015878688
0.0013357918
-0.00013465517
0.001337992
-8.4201856e-05
0.0013457318
-1.4349288e-05
0.0013569403
6.638011e-05
0.0013705363
0.00014981108
0.0013868512
0.00023171518
0.0014050067
0.00030787007
0.0014253236
0.00037743127
0.0014478549
0.0004382888
0.001472382
0.00049394414
0.0014985999
0.00054340716
0.0015258512
0.00058967575
0.0015536724
0.00062917178
0.00158247
0.00066968853
0.0016112562
0.00070230049
0.0016398383
0.00073656356
0.001670229
0.00076636608
0.0017026257
0.00079756929
0.0017380951
0.00082128468
0.0017751407
0.0008450814
0.0018167613
0.00086142213
0.001862255
0.00088176716
0.0019082337
0.00089007488
0.0019601348
0.00090281096
0.0020089942
0.0009075598
0.0020637952
0.00090908064
0.0021128461
0.00091523812
0.0021675844
0.00090355913
0.00092252654
0.0022242285
0.0013828088
0.00015436516
0.0014056486
0.00058970217
0.0014354511
0.00061966823
0.001468749
0.00047776863
0.0015024663
0.00027950303
0.0015375042
0.00015292539
0.0015716415
0.00011368694
0.0016029564
0.00011780773
0.0016297851
0.0001289495
0.0016502865
0.00013740216
0.0016628217
0.00014616676
0.0016653552
0.00015885506
0.0016583288
0.00018128505
0.0016403972
0.00020901297
0.0016088664
0.00024993193
0.0015647455
0.00030382189
0.0015151554
0.00035854589
0.0014756007
0.00039170809
0.0014579739
0.00036851149
0.0014458004
0.00028462221
0.0014303624
0.00018199467
0.0014102012
7.2351584e-05
0.0013865488
-2.8642023e-05
0.001363745
-0.00011185919
0.0013465634
-0.00016406406
0.0013384417
-0.00017766384
0.0013383273
-0.00015168603
0.001343289
-9.9951305e-05
0.0013527842
-2.9511522e-05
0.0013649851
5.043347e-05
0.0013791548
0.00013223009
0.0013957573
0.00021264698
0.0014145082
0.00028823276
0.0014350926
0.0003561623
0.0014579925
0.00041875587
0.0014822421
0.00047285998
0.0015081362
0.00052118868
0.0015344818
0.00056491822
0.0015624681
0.00060466812
0.0015895553
0.00064105452
0.0016181436
0.00067351561
0.0016466255
0.00070639984
0.0016766035
0.00073338504
0.0017073182
0.00076055039
0.0017396692
0.00078154922
0.0017764067
0.00080558877
0.0018159352
0.00082202779
0.0018579896
0.00083617101
0.0019021434
0.00084804281
0.0019517352
0.00085425831
0.001997454
0.00086235731
0.00204988
0.00085933364
0.0020984227
0.00086853355
0.0021494849
0.00085496693
0.00086809598
0.0022018446
0.0013880646
0.00016174002
0.0014095086
0.00062683499
0.0014385419
0.00067994974
0.0014716277
0.00055393284
0.0015050252
0.00035486242
0.0015397174
0.00021642082
0.0015733808
0.00016378949
0.0016041697
0.00015508097
0.0016305696
0.00015406042
0.001650874
0.00015189525
0.0016635211
0.00015071595
0.0016663724
0.00015412128
0.0016598886
0.00016852217
0.0016428871
0.00018921221
0.0016126951
0.00022484665
0.0015695358
0.00027442362
0.0015194416
0.00032734624
0.0014767984
0.00036439617
0.0014550619
0.00034665243
0.0014409159
0.00026682026
0.0014240829
0.00016383796
0.0014033987
5.2963704e-05
0.0013797645
-5.0436243e-05
0.0013582762
-0.00013415244
0.0013432587
-0.00018458615
0.0013380316
-0.00019368971
0.0013403576
-0.00016565994
0.0013475538
-0.00011260175
0.0013585879
-4.2656988e-05
0.0013715925
3.5195048e-05
0.0013861683
0.00011505592
0.0014027299
0.00019458769
0.0014211483
0.00026898336
0.0014422018
0.00033764107
0.0014646507
0.00039680679
0.0014892471
0.0004513827
0.001515028
0.00049869449
0.0015422467
0.00054149904
0.0015692035
0.00057742692
0.0015973762
0.00061361481
0.0016255193
0.0006424986
0.0016540737
0.00067309234
0.0016823492
0.00069714427
0.0017123215
0.00072266244
0.0017437611
0.00074538405
0.0017785332
0.00076440352
0.0018126346
0.00077938504
0.0018545189
0.00079301214
0.0018951851
0.00080514858
0.0019409141
0.00080725732
0.0019866827
0.00081800111
0.0020349711
0.00081348451
0.0020835234
0.00082083443
0.0021311735
0.00080749714
0.00081774102
0.0021810387
0.0013937026
0.00016491145
0.0014133927
0.00065291167
0.0014414064
0.00073098721
0.0014740142
0.00062335194
0.0015069727
0.00042636158
0.0015414643
0.0002791766
0.0015747334
0.00021253179
0.001605056
0.00019001097
0.0016310717
0.00017631185
0.0016511201
0.00016342074
0.0016638459
0.00015268705
0.0016670245
0.00014824854
0.0016610882
0.00015752222
0.0016449894
0.00017126989
0.0016160275
0.00019890088
0.0015738956
0.00024295364
0.0015236742
0.00029326115
0.0014781899
0.00033381424
0.0014524352
0.00032448469
0.0014361811
0.00024820305
0.0014180644
0.00014560813
0.0013969367
3.3286619e-05
0.0013736614
-7.1505593e-05
0.001353579
-0.00015335153
0.0013412576
-0.00020199974
0.0013386727
-0.00020786994
0.0013436118
-0.00017703116
0.0013530658
-0.0001235078
0.0013654157
-5.40174e-05
0.0013791715
2.1769492e-05
0.0013943746
0.00010022836
0.0014107913
0.00017714814
0.0014290312
0.00024982109
0.0014491179
0.00031646711
0.0014713849
0.00037713106
0.0014952273
0.00042966139
0.0015204371
0.00047606211
0.0015470199
0.00051789286
0.0015741696
0.00055294731
0.0016023104
0.00058712193
0.0016300685
0.00061501833
0.0016588548
0.00064273885
0.0016872272
0.00066699739
0.0017181484
0.00069028377
0.0017469523
0.00071009237
0.00177942
0.00072511896
0.001813497
0.00074377926
0.0018507663
0.00075230333
0.0018891313
0.00076510904
0.0019313757
0.00076616121
0.0019758842
0.00077628013
0.0020192143
0.00076857879
0.0020666294
0.00077514725
0.0021115175
0.0007614493
0.00077288408
0.0021611933
0.001399608
0.00016463748
0.0014172822
0.00066761757
0.001444156
0.00077156005
0.0014761754
0.00068663084
0.0015087074
0.00049288894
0.001542978
0.00033696312
0.0015758045
0.00025734695
0.0016056254
0.00022201151
0.0016313047
0.00019871573
0.0016511178
0.00017569805
0.0016639718
0.00015549283
0.0016675464
0.00014117838
0.0016620136
0.00014226218
0.0016467359
0.00014972737
0.0016190572
0.00017380776
0.0015780228
0.00021194531
0.0015278997
0.00025942413
0.0014799133
0.00029919211
0.0014500005
0.00029916417
0.0014314083
0.00022893674
0.0014117739
0.00012749307
0.0013902248
1.4733003e-05
0.001367564
-9.0366726e-05
0.0013490973
-0.00017174673
0.0013394427
-0.00021523747
0.0013396982
-0.00021864443
0.0013468303
-0.0001860774
0.0013583301
-0.00013228648
0.0013722969
-6.4705367e-05
0.0013871814
9.6788832e-06
0.0014028809
8.6154928e-05
0.0014193953
0.00016059409
0.001437227
0.00023145884
0.0014569154
0.00029635985
0.0014781139
0.0003554057
0.0015011192
0.00040796102
0.0015253251
0.00045272001
0.0015509394
0.00049203162
0.0015776755
0.00052765192
0.0016050271
0.00055693148
0.0016324537
0.00058518215
0.0016616974
0.00061002617
0.0016900715
0.00063370884
0.0017193662
0.00065119856
0.0017482237
0.0006722037
0.0017807623
0.00068659313
0.0018124136
0.00070371314
0.0018469054
0.00071093213
0.0018837788
0.00072383137
0.0019225455
0.00072392339
0.0019620545
0.00073179357
0.0020046098
0.0007263668
0.0020485209
0.00073313158
0.0020931925
0.00071928426
0.00072761955
0.0021362564
0.0014056635
0.00016142961
0.0014214342
0.00067077905
0.0014470403
0.0008008207
0.0014782019
0.00073766578
0.0015101822
0.00055228216
0.0015441514
0.00039262591
0.0015765622
0.00030110976
0.0016059566
0.00025289312
0.0016312503
0.00021816942
0.0016508143
0.00018363416
0.0016637427
0.00015565848
0.0016677243
0.00013432106
0.0016625646
0.00012809263
0.0016482045
0.00012936204
0.0016217112
0.00014670416
0.0015819149
0.0001807483
0.0015319675
0.00022451597
0.0014820532
0.00026591394
0.0014479022
0.00027255974
0.0014267817
0.00021026156
0.0014054808
0.00011044117
0.0013834124
-2.4188047e-06
0.0013613272
-0.00010758285
0.0013446867
-0.00018719475
0.0013378815
-0.00022670861
0.001340735
-0.0002255783
0.0013499912
-0.00019373525
0.0013632978
-0.00013977708
0.0013786547
-7.3352112e-05
0.0013947839
-7.1786119e-07
0.001410908
7.2417725e-05
0.001427668
0.00014392968
0.0014453441
0.00021187841
0.0014646824
0.00027630161
0.0014852434
0.00033381418
0.0015073294
0.00038512552
0.0015308164
0.00043086748
0.0015560139
0.00047064571
0.0015808601
0.00050303514
0.0016082621
0.00053370409
0.0016348548
0.00055990143
0.0016629943
0.00058093156
0.0016902364
0.00060361855
0.0017195948
0.00062030943
0.0017492768
0.00064093196
0.0017792036
0.00065133725
0.0018100401
0.0006670225
0.0018429021
0.00067362814
0.001877357
0.0006852231
0.001913591
0.00068594241
0.0019517619
0.00069392213
0.001993051
0.00068885004
0.0020309803
0.00069059276
0.0020729848
0.00067824164
0.00068410854
0.00211329
0.0014117929
0.00015568446
0.001425458
0.00066378297
0.0014495396
0.00081829525
0.001479737
0.00078067383
0.0015111614
0.00060637357
0.0015449786
0.00044480633
0.0015770655
0.00034349023
0.0016060661
0.00028248427
0.0016309379
0.00023717052
0.0016503509
0.00019519717
0.0016633302
0.00015746842
0.0016676939
0.00012690832
0.0016628651
0.00011278968
0.0016492796
0.00010710946
0.0016239978
0.00011847626
0.0015854927
0.00014815218
0.0015361372
0.00018933012
0.0014846167
0.00023218333
0.0014463061
0.00024322891
0.0014223539
0.00019083545
0.0013992072
9.3121113e-05
0.0013766715
-1.7233179e-05
0.0013552272
-0.0001217888
0.0013407009
-0.00019782369
0.0013364664
-0.00023531184
0.0013420149
-0.00023000327
0.0013530943
-0.00019634708
0.0013679461
-0.00014426044
0.001384729
-7.9925591e-05
0.0014018173
-9.9257386e-06
0.0014183798
6.02595e-05
0.0014353724
0.00012878672
0.0014531924
0.00019516591
0.0014719612
0.00025668176
0.0014920513
0.00031380714
0.0015135746
0.00036355962
0.0015362727
0.00040711484
0.0015598432
0.0004434465
0.0015851132
0.00047754178
0.0016106745
0.00050437936
0.0016365719
0.00052963802
0.0016636068
0.00054968871
0.0016909465
0.00057127426
0.0017190907
0.00058502649
0.0017472363
0.00060311804
0.0017758332
0.00061205664
0.0018061666
0.00062747451
0.0018373334
0.00063338392
0.001870622
0.00064519283
0.0019046903
0.00064502024
0.0019407084
0.00065155917
0.0019760806
0.00064600679
0.0020146211
0.00064985061
0.0020531952
0.00063922238
0.00064657331
0.0020947419
0.0014178418
0.00014764324
0.0014298765
0.00064783348
0.0014524505
0.00082372753
0.0014815643
0.00080974415
0.0015123667
0.00065143639
0.0015458183
0.00049160847
0.0015773196
0.00038061452
0.0016058862
0.00030792323
0.0016304277
0.00025313252
0.0016495694
0.00020121564
0.0016625651
0.00015537001
0.0016673225
0.00011814522
0.0016628344
9.8407269e-05
0.0016500949
8.8150967e-05
0.0016259945
9.2699666e-05
0.0015887743
0.00011668096
0.0015402068
0.00015382551
0.0014873209
0.0001963747
0.0014452631
0.00021497862
0.0014180478
0.00017085619
0.0013932564
7.8287394e-05
0.0013702062
-2.9491521e-05
0.0013495225
-0.00013339513
0.0013366799
-0.0002082027
0.0013355045
-0.00024049748
0.001343162
-0.00023402906
0.0013564154
-0.00019852894
0.0013725354
-0.00014729212
0.0013903703
-8.5782477e-05
0.0014082157
-1.8636565e-05
0.0014253352
4.8106175e-05
0.0014425313
0.00011334121
0.0014600767
0.00017518572
0.0014788098
0.00023545759
0.0014982476
0.00028950806
0.001519061
0.0003396532
0.0015406685
0.00038270263
0.0015642668
0.00042166909
0.0015880441
0.00045343636
0.0016127505
0.0004796254
0.001638577
0.00050501863
0.0016645095
0.00052352473
0.0016907544
0.00054274894
0.0017174764
0.00055541142
0.001744649
0.00057190364
0.0017729835
0.00058051853
0.0018020189
0.00059427052
0.0018319273
0.0005986471
0.0018623966
0.00060777974
0.0018936646
0.00060691513
0.0019284321
0.00061532298
0.0019621626
0.00060917418
0.0020004544
0.00061458275
0.0020366652
0.00060168282
0.00060504721
0.0020720095
0.0014237743
0.00013775128
0.0014342225
0.00062451692
0.0014551407
0.00081804884
0.0014830664
0.00082752827
0.0015132277
0.00069020296
0.00154622
0.00053542732
0.0015772624
0.00041759563
0.0016054536
0.00033407192
0.0016295743
0.00026932266
0.0016484993
0.0002077055
0.0016616435
0.00015605852
0.0016668458
0.00011021763
0.0016627011
8.2609151e-05
0.0016506692
6.6495879e-05
0.0016277462
6.7220173e-05
0.0015918637
8.6977228e-05
0.0015442754
0.00012146286
0.0014905759
0.00016263091
0.0014449184
0.00018711049
0.001414304
0.0001525632
0.0013877177
6.4561308e-05
0.0013637067
-4.1375858e-05
0.0013437609
-0.00014256769
0.0013330582
-0.00021483323
0.0013341705
-0.0002435615
0.0013445662
-0.00023350293
0.0013593279
-0.00019907623
0.0013768916
-0.00014827495
0.0013955846
-8.9468637e-05
0.0014139624
-2.620144e-05
0.0014315696
3.700438e-05
0.0014487836
9.9145134e-05
0.0014665722
0.0001595729
0.0014846748
0.00021546338
0.001504069
0.00026937558
0.0015238882
0.00031587369
0.0015455439
0.00035870401
0.0015673824
0.00039390912
0.0015904472
0.00042534808
0.0016149983
0.00045262663
0.0016395402
0.00047480205
0.0016642224
0.00049161801
0.0016900942
0.00051040203
0.0017157345
0.0005216454
0.0017423134
0.00053699869
0.0017692011
0.0005434751
0.0017965181
0.00055539447
0.0018240459
0.00055819137
0.0018531895
0.00056806749
0.0018843222
0.00056790974
0.0019152276
0.00057442548
0.0019488856
0.0005695049
0.0019810965
0.00057147847
0.0020141118
0.00056151607
0.00056607004
0.0020501238
0.0014294621
0.00012695968
0.0014387097
0.00059358248
0.0014579474
0.00080086829
0.0014846531
0.00083417924
0.0015139411
0.00071650524
0.0015463457
0.00056989407
0.001576968
0.00044854834
0.0016048338
0.00035648743
0.0016285185
0.00028158608
0.0016473095
0.00021258824
0.0016603817
0.00015076
0.001665983
9.9945299e-05
0.0016622286
6.6456674e-05
0.0016510009
4.695095e-05
0.0016292357
4.2405923e-05
0.0015948161
5.8113446e-05
0.0015482889
8.9414472e-05
0.0014941376
0.00012867236
0.001445222
0.00015716248
0.0014109972
0.00013436481
0.0013822819
5.2464266e-05
0.0013575977
-5.0544672e-05
0.0013383414
-0.00014926409
0.0013297214
-0.00021744485
0.0013334821
-0.00024347992
0.0013456911
-0.00023083499
0.0013622995
-0.00019639648
0.0013810052
-0.00014828175
0.0014004748
-9.1755027e-05
0.0014192287
-3.2677223e-05
0.001437272
2.6623576e-05
0.001454934
8.5464518e-05
0.0014724293
0.00014206779
0.0014907532
0.0001968708
0.001508996
0.00024599698
0.0015286443
0.00029216115
0.0015488452
0.00033317757
0.0015701031
0.00036896725
0.00159297
0.00040092934
0.0016155796
0.00042549418
0.0016394449
0.00044828552
0.0016640744
0.00046671951
0.0016887674
0.00048308506
0.0017134906
0.0004930093
0.0017387858
0.00050673708
0.0017644999
0.00051267204
0.0017903279
0.00052343929
0.0018175759
0.00052640664
0.0018453802
0.00053466877
0.001873584
0.00053339932
0.0019025549
0.00053797049
0.0019319486
0.00053388335
0.0019646615
0.00053677373
0.001994836
0.00052608171
0.00053250042
0.0020317535
0.0014349232
0.000115866
0.0014429042
0.00055799373
0.0014603592
0.00077298195
0.0014856567
0.0008284684
0.0015139663
0.00073557255
0.0015459659
0.00060069151
0.0015763209
0.00047730231
0.0016038841
0.00037809916
0.0016272416
0.00029260815
0.0016458041
0.00021690402
0.0016589935
0.00014902446
0.0016650186
9.1291439e-05
0.0016618018
5.191818e-05
0.0016511729
2.8601428e-05
0.0016304984
1.8544867e-05
0.0015975481
3.206888e-05
0.0015521821
5.9013787e-05
0.0014980082
9.8997337e-05
0.0014463169
0.00012871465
0.001408266
0.00011505683
0.001377542
4.3037869e-05
0.001351804
-5.5056717e-05
0.0013333318
-0.00015272833
0.0013267481
-0.00021740206
0.0013326747
-0.00024062572
0.0013468937
-0.00022852671
0.0013648276
-0.00019309483
0.0013846609
-0.00014728334
0.0014048728
-9.4604169e-05
0.0014239666
-3.8342692e-05
0.0014423279
1.7307946e-05
0.0014601762
7.251295e-05
0.0014778592
0.00012552745
0.0014954047
0.00017608096
0.0015135549
0.00022421858
0.0015324348
0.00026842299
0.0015520053
0.00030711764
0.0015728074
0.0003424798
0.0015938877
0.00037160005
0.0016161004
0.00039662988
0.0016396469
0.0004188881
0.0016624914
0.00043423664
0.0016862497
0.0004497749
0.0017104789
0.00046014923
0.0017351184
0.00047297851
0.0017593393
0.00047681531
0.0017846306
0.00048668126
0.0018099849
0.00048821025
0.0018361196
0.00049547644
0.0018612085
0.00049265526
0.0018907102
0.00050001185
0.0019168371
0.00049308934
0.0019471006
0.00049787091
0.0019778951
0.00048835378
0.00049230162
0.0020063709
0.0014400176
0.00010481133
0.0014470967
0.00051881448
0.0014629177
0.00073543404
0.001486856
0.00080990959
0.0015141699
0.00074166216
0.0015454755
0.00062131045
0.0015754335
0.00049865152
0.001602566
0.00039239607
0.0016257201
0.00030118044
0.001644115
0.0002171029
0.0016573785
0.00014413377
0.0016637827
7.9994683e-05
0.0016611894
3.6826527e-05
0.001651077
9.6379498e-06
0.0016316947
-1.4884437e-06
0.0016001016
7.8358292e-06
0.0015562121
3.2238404e-05
0.0015021665
7.0841074e-05
0.0014481874
0.0001041266
0.001406276
9.844232e-05
0.0013731604
3.2954779e-05
0.001346162
-5.9977894e-05
0.0013286399
-0.00015321595
0.0013239417
-0.00021516166
0.001332003
-0.00023491441
0.0013479582
-0.00022164474
0.0013670246
-0.00018901553
0.0013878594
-0.0001442151
0.0014087858
-9.4487948e-05
0.0014281625
-4.2685648e-05
0.0014467265
9.0623555e-06
0.0014646629
6.0088993e-05
0.0014824025
0.00011069511
0.0014999518
0.00015841154
0.0015177019
0.00020284015
0.0015356932
0.00024392045
0.0015548849
0.00028281691
0.0015740488
0.00031494511
0.001594654
0.00034476775
0.0016161535
0.00037002201
0.0016376785
0.00039032396
0.0016600902
0.0004069234
0.0016835414
0.00042275674
0.0017066954
0.0004320301
0.0017297123
0.00044262722
0.0017533791
0.00044684587
0.0017776302
0.00045648185
0.0018015346
0.00045636598
0.0018257187
0.00046341506
0.0018519104
0.00046105989
0.0018758928
0.00046544762
0.0019038076
0.00046072732
0.0019299005
0.00046336602
0.0019583258
0.00045438214
0.00045571803
0.0019848283
0.0014447709
9.3772556e-05
0.0014510459
0.00047884904
0.0014653444
0.0006914267
0.0014879352
0.00078264043
0.0015141416
0.00073644498
0.0015446375
0.00063436061
0.0015742526
0.00051617179
0.0016010773
0.00040671123
0.0016239082
0.00030786767
0.0016421851
0.0002171062
0.0016555334
0.00013895236
0.0016624783
7.245524e-05
0.0016605472
2.5091342e-05
0.0016510319
-5.7743361e-06
0.0016326915
-2.0382472e-05
0.0016025837
-1.4017652e-05
0.0015602006
8.6122116e-06
0.0015067355
4.4305391e-05
0.0014510217
8.09713e-05
0.0014050739
8.3403056e-05
0.0013693917
2.6948831e-05
0.0013411661
-6.2129338e-05
0.0013244321
-0.00015034416
0.0013215611
-0.00020965781
0.0013313125
-0.00022789673
0.0013488625
-0.00021389197
0.0013692051
-0.00018223289
0.0013908106
-0.00014097688
0.0014122114
-9.3343013e-05
0.0014319633
-4.5869469e-05
0.0014506226
1.4904551e-06
0.0014687119
4.8824007e-05
0.0014864129
9.5074261e-05
0.0015037501
0.00014035093
0.001521078
0.00018181727
0.0015389094
0.00022111967
0.0015565959
0.00025602426
0.0015755046
0.00028824546
0.0015950281
0.00031591543
0.0016146991
0.00033815587
0.0016357345
0.00035864547
0.0016575937
0.00037514023
0.0016794485
0.00038865593
0.0017011105
0.00039721408
0.0017240819
0.00040835326
0.0017471974
0.00041229584
0.0017694451
0.00041964429
0.0017929943
0.00041993939
0.0018157823
0.00042530168
0.0018401418
0.00042334933
0.0018631161
0.00042651617
0.0018893744
0.00042352987
0.0019133043
0.00042468633
0.0019366845
0.00041587217
0.00042081905
0.0019661135
0.0014492102
8.2386728e-05
0.0014548446
0.00043797542
0.0014677934
0.00064320083
0.001488996
0.00074536814
0.0015140892
0.00071982318
0.0015437528
0.00063726763
0.0015729224
0.00052523892
0.001599375
0.00041370835
0.0016219618
0.00031134164
0.0016401621
0.00021687786
0.0016536066
0.00013227169
0.0016609037
6.0325829e-05
0.0016597003
1.0348898e-05
0.0016508949
-2.018974e-05
0.0016336972
-3.6331934e-05
0.0016051277
-3.122364e-05
0.0015641027
-1.1881316e-05
0.0015114967
2.2100241e-05
0.0014542981
5.6581504e-05
0.0014047253
6.6266882e-05
0.0013663726
2.2584216e-05
0.001336699
-6.0409301e-05
0.0013202198
-0.00014617337
0.0013191242
-0.00020140304
0.0013305557
-0.00021856127
0.0013493573
-0.00020569538
0.0013708703
-0.00017465613
0.0013934295
-0.00013510975
0.0014149485
-9.2203899e-05
0.0014350303
-4.8962868e-05
0.0014538689
-5.1618674e-06
0.0014717301
3.8470776e-05
0.0014896172
8.125616e-05
0.001506395
0.00012139331
0.0015237556
0.00016104172
0.0015408234
0.00019729355
0.0015583041
0.00023127252
0.0015761798
0.0002612947
0.0015942096
0.0002875325
0.0016134377
0.00031101638
0.0016334163
0.00033100396
0.0016533399
0.00034599611
0.0016741377
0.00035967614
0.0016954998
0.00036910373
0.0017174194
0.0003791142
0.0017384875
0.00038185537
0.0017605929
0.00038879064
0.0017823503
0.0003887177
0.0018052763
0.00039449041
0.0018268131
0.00039084877
0.0018510915
0.00039502438
0.0018724891
0.00038928243
0.0018955214
0.00039031971
0.0019201576
0.00038322581
0.0003880325
0.0019460878
0.0014532232
7.0930309e-05
0.0014583808
0.00039665026
0.0014702744
0.0005923217
0.0014901829
0.00069860892
0.0015142607
0.00069322717
0.0015428114
0.00063050599
0.0015713191
0.00052856225
0.0015973045
0.00041500924
0.0016197321
0.00031034001
0.0016378396
0.00021213728
0.0016514258
0.00012575488
0.0016591882
5.1310999e-05
0.0016588819
2.1466208e-07
0.0016507403
-3.3123115e-05
0.0016347354
-4.9699953e-05
0.0016075664
-4.5983322e-05
0.0015680942
-2.9434741e-05
0.0015164712
5.078912e-06
0.0014583661
3.8899789e-05
0.0014054156
5.3281119e-05
0.0013639116
1.6905685e-05
0.0013326806
-5.7456603e-05
0.0013168385
-0.00013891058
0.0013171357
-0.00019212516
0.0013298918
-0.0002067143
0.0013498678
-0.00019496201
0.0013724039
-0.00016600853
0.0013955529
-0.00012876373
0.0014171418
-8.9803786e-05
0.001437507
-5.0530307e-05
0.0014566226
-1.0049075e-05
0.0014745077
2.924067e-05
0.0014918387
6.8323426e-05
0.0015087147
0.00010572216
0.0015255024
0.00014054156
0.0015424522
0.00017442677
0.0015592011
0.00020618916
0.001576142
0.00023412302
0.0015937979
0.00025871025
0.0016119058
0.00027974331
0.0016302077
0.00029767312
0.0016492525
0.00031271665
0.0016691762
0.00032570831
0.0016891263
0.00033445067
0.0017092824
0.00034305829
0.0017293937
0.00034604216
0.0017511788
0.00035408732
0.0017716113
0.00035236668
0.001793095
0.00035761166
0.0018141811
0.00035402371
0.0018356972
0.00035692197
0.001856041
0.00035204229
0.0018799648
0.00035578744
0.0019040171
0.00034889997
0.00034878578
0.0019221919
0.0014569067
5.9855163e-05
0.0014618072
0.00035500692
0.0014726618
0.00053816844
0.0014913077
0.00064600715
0.0015143414
0.00065743453
0.0015417068
0.0006123491
0.0015694814
0.00052081706
0.0015950409
0.0004104535
0.0016172717
0.00030574925
0.0016354213
0.00020592698
0.0016492472
0.00011831408
0.0016575124
4.2909389e-05
0.0016579138
-8.8615144e-06
0.0016506289
-4.3636988e-05
0.001635728
-6.0094029e-05
0.001609955
-5.7621368e-05
0.0015722169
-4.2770908e-05
0.0015216493
-1.1210128e-05
0.0014632138
2.4067802e-05
0.0014069959
4.1835918e-05
0.0013623186
1.4357449e-05
0.0013294018
-5.3409624e-05
0.001313682
-0.000127806
0.0013151519
-0.00017868342
0.0013289794
-0.00019309761
0.0013499746
-0.00018204849
0.0013735437
-0.0001552276
0.001396991
-0.00012205402
0.0014188704
-8.7420276e-05
0.0014396234
-5.0486972e-05
0.001458612
-1.4866497e-05
0.0014765252
2.0660009e-05
0.0014936391
5.5658366e-05
0.0015100001
8.9670903e-05
0.0015265393
0.00012195782
0.0015430597
0.00015260643
0.0015590682
0.00018063212
0.00157532
0.00020728447
0.0015918887
0.00023038707
0.0016087874
0.0002502238
0.0016264161
0.00026814967
0.0016444418
0.00028297489
0.0016630195
0.00029571237
0.001681451
0.00030404064
0.0017006218
0.00031297162
0.0017206038
0.00031691096
0.0017395252
0.00032205156
0.0017595062
0.00032134115
0.0017796618
0.00032641857
0.0017989174
0.00032139807
0.0018196651
0.0003250536
0.0018414149
0.00032096976
0.0018622048
0.00032135091
0.0018802083
0.00031320046
0.00031589911
0.0019032092
0.0014600727
4.9699784e-05
0.0014649779
0.00031394589
0.0014750297
0.00048227207
0.0014926367
0.00058709894
0.0015145187
0.00061276156
0.0015406064
0.0005857186
0.0015674943
0.00050652385
0.001592605
0.0004007826
0.0016146169
0.00029695141
0.0016328494
0.00019835424
0.0016469342
0.00010936425
0.0016557494
3.5406301e-05
0.0016570948
-1.6505225e-05
0.0016505575
-5.0624171e-05
0.0016367865
-6.6754043e-05
0.0016124234
-6.5635979e-05
0.0015761612
-5.2625696e-05
0.0015270816
-2.3297656e-05
0.001468456
8.8385977e-06
0.0014095207
2.9155533e-05
0.0013615661
1.2358961e-05
0.0013270412
-4.6893166e-05
0.0013109292
-0.0001166966
0.0013136598
-0.00016475147
0.0013284196
-0.00017872485
0.0013501592
-0.00017019923
0.0013742837
-0.00014407684
0.001397986
-0.00011487763
0.0014203059
-8.3071977e-05
0.0014409842
-5.0321709e-05
0.0014600009
-1.8114072e-05
0.0014779506
1.2795234e-05
0.0014947988
4.4738317e-05
0.0015108859
7.4278022e-05
0.0015270648
0.00010295911
0.0015428172
0.00013089476
0.0015586083
0.00015825062
0.001573876
0.00018154032
0.0015893779
0.00020165018
0.0016056536
0.00021995136
0.0016223202
0.0002357113
0.0016392954
0.0002491232
0.0016565169
0.00026045644
0.0016743449
0.00026968731
0.0016925659
0.00027748833
0.0017102557
0.00028134244
0.0017286552
0.00028656661
0.0017476339
0.00028610473
0.0017651175
0.00028955076
0.0017849265
0.00028623424
0.001804614
0.00028989039
0.0018230521
0.00028504493
0.0018420233
0.0002856085
0.0018607297
0.00027857183
0.00028427218
0.0018843957
0.0014630157
4.0049671e-05
0.0014679065
0.00027387924
0.0014770961
0.00042602791
0.0014935609
0.00052348758
0.0015144302
0.00056183598
0.0015393068
0.00055086306
0.0015653172
0.00048277885
0.0015899413
0.00038160953
0.0016118828
0.00028316906
0.0016302106
0.00018836127
0.0016446482
0.00010176367
0.0016539737
2.7501894e-05
0.0016561878
-2.280516e-05
0.0016506139
-5.5220672e-05
0.0016378641
-6.9563177e-05
0.0016149344
-6.8376696e-05
0.0015802422
-5.8347353e-05
0.0015324289
-3.1110924e-05
0.0014739775
-2.0341878e-06
0.0014129924
1.9578783e-05
0.0013617523
8.6984951e-06
0.0013250339
-3.8764467e-05
0.0013085068
-0.00010392253
0.0013118563
-0.00015001418
0.0013273064
-0.00016139932
0.0013498808
-0.00015609732
0.0013743554
-0.00013235977
0.0013984697
-0.0001057144
0.0014209972
-7.854331e-05
0.0014417985
-4.8413516e-05
0.0014608145
-2.0269356e-05
0.0014787258
6.8087606e-06
0.0014951339
3.5229065e-05
0.0015107787
6.1643145e-05
0.0015264997
8.5618803e-05
0.0015421049
0.00010999972
0.0015569377
0.00013355787
0.0015714957
0.00015592107
0.0015863563
0.00017553289
0.0016012607
0.0001919048
0.0016167654
0.00020649531
0.0016325049
0.00021878816
0.0016492374
0.00023015756
0.0016654297
0.00023770185
0.0016827296
0.0002459911
0.0016989238
0.00024863761
0.001716688
0.00025474612
0.0017335242
0.00025414106
0.0017512951
0.00025848698
0.0017701625
0.00025549724
0.0017869168
0.00025661779
0.0018042778
0.0002512213
0.0018222251
0.00025288871
0.0018444012
0.00024824979
0.00024762789
0.0018584547
0.0014654068
3.0620803e-05
0.0014704755
0.00023529418