/*--------------------------------*- C++ -*----------------------------------*\
| =========                 |                                                 |
| \\      /  F ield         | OpenFOAM: The Open Source CFD Toolbox           |
|  \\    /   O peration     | Version:  2406                                  |
|   \\  /    A nd           | Website:  www.openfoam.com                      |
|    \\/     M anipulation  |                                                 |
\*---------------------------------------------------------------------------*/
FoamFile
{
    version     2.0;
    format      ascii;
    arch        "LSB;label=32;scalar=64";
    class       surfaceScalarField;
    location    "5";
    object      phi_0;
}
// * * * * * * * * * * * * * * * * * * * * * * * * * * * * * * * * * * * * * //

dimensions      [1 0 -1 0 0 0 0];

oriented        oriented;

internalField   nonuniform List<scalar> 
167968
(
0.0005437066
0.0013611013
-0.0014161822
0.00059015692
0.0014467985
-0.0014925905
0.00063973949
0.0013444685
-0.001401652
0.0006909651
0.0011756894
-0.001203294
0.00073443854
0.00090692026
-0.00094254487
0.00078046125
0.0007323248
-0.00076593323
0.00083642908
0.00068878414
-0.00072134489
0.00089547703
0.00072957579
-0.0007652673
0.00095250561
0.00081364286
-0.00085129956
0.000997637
0.00089669576
-0.00092977389
0.0010327879
0.0009228781
-0.00095152895
0.0010719227
0.0009760127
-0.00099355352
0.0011194256
0.0010873214
-0.0010997611
0.0011517643
0.0011901995
-0.0011967744
0.0011630153
0.0012192698
-0.0012250853
0.001166845
0.0011303006
-0.0011442474
0.0011703047
0.0009298605
-0.00093354364
0.0012085353
0.00082496012
-0.00081845531
0.0012628112
0.00096067804
-0.0010256432
0.0012756438
0.0011661292
-0.0012881169
0.0012392988
0.001221535
-0.0013395169
0.0012139181
0.0011326038
-0.0012356216
0.0012233025
0.0011528788
-0.0012013911
0.0012502163
0.0012682424
-0.0012706575
0.0012616778
0.0012833184
-0.0013166094
0.0012821222
0.0011916976
-0.001236811
0.0013112706
0.0011209543
-0.0011494882
0.0013383407
0.0010441333
-0.0010588087
0.0013625769
0.00097779348
-0.00097074541
0.0013848488
0.00090306689
-0.00088832769
0.0014064885
0.00083496797
-0.00083501816
0.001433051
0.00078969918
-0.00080275336
0.0014598478
0.00076507278
-0.00080157706
0.0014837997
0.00076382702
-0.00082333255
0.0015024328
0.0007837382
-0.00085618757
0.0015185478
0.00081947906
-0.00088444252
0.0015397759
0.000847954
-0.00089251523
0.0015634398
0.00085067017
-0.00088862701
0.001588321
0.00084121865
-0.00087642193
0.0016155371
0.00082835771
-0.0008594195
0.0016455069
0.00081207945
-0.00083876414
0.0016792131
0.00079388782
-0.0008174377
0.0017107837
0.00077302825
-0.000799072
0.0017406196
0.00075596172
-0.00078598758
0.0017661444
0.00074041645
-0.00077734934
0.0017926705
0.00073217416
-0.00076697209
0.001821334
0.00071959388
-0.00075200413
0.0018415543
0.00070561759
-0.00074409243
0.0018713345
0.00069658428
-0.00072530879
0.0018862458
0.00067923907
-0.00071680727
0.0019093581
0.00067052733
-0.00070268921
0.0019243297
0.00065210272
-0.00069027309
0.0019559623
0.00064618088
-0.00067466753
0.0019725122
0.00062438093
-0.00065930599
0.0020103252
0.0006129299
-0.00064251319
0.0020287331
0.00059420692
-0.00062835065
0.0020615807
0.00057979795
-0.00061131949
0.0020899975
0.00056562828
-0.00059556553
0.002114945
0.00054855867
-0.00058247354
0.0021433371
0.00053615452
-0.0005688371
0.0021598266
0.00051935621
-0.00055532606
0.0021882641
0.00050756078
-0.00054166773
0.00049923224
0.0022043933
-0.00053140905
0.00054756637
0.0013195812
0.00059331386
0.0013775563
0.00064228562
0.0013310673
0.00069227026
0.00111212
0.00073531991
0.00087108543
0.0007809545
0.00070506408
0.00083615984
0.00065321227
0.00089448287
0.00069319931
0.00095071991
0.00077544577
0.00099517335
0.00085771859
0.0010303213
0.00089955039
0.0010698728
0.00095919225
0.0011176169
0.0010711216
0.0011484885
0.0011724089
0.0011578753
0.0012086681
0.0011590507
0.0011285877
0.0011624228
0.00096918307
0.0012033951
0.00087794443
0.0012573371
0.00094002982
0.001266069
0.0010328226
0.0012279424
0.0010788083
0.0012033228
0.0010561422
0.0012224962
0.0011446135
0.0012459469
0.0012870473
0.0012480782
0.001274796
0.0012677312
0.0011629563
0.0012938549
0.0010690272
0.0013219383
0.00099065667
0.0013458067
0.00094239136
0.0013684145
0.00089368685
0.001391836
0.00084142957
0.0014184663
0.00078901566
0.0014462995
0.00074675918
0.0014728602
0.00072484038
0.0014962698
0.00072572647
0.0015130376
0.00075079583
0.0015280991
0.00078708075
0.0015481101
0.00080820243
0.0015717398
0.00080695507
0.0015964546
0.0007942795
0.0016236433
0.00077959337
0.0016536487
0.00076533149
0.0016862087
0.00074839424
0.0017163365
0.00072924634
0.0017465077
0.00071348677
0.0017701847
0.00069554657
0.0017969702
0.00068754298
0.0018225984
0.00067350678
0.001844657
0.00065960113
0.0018714848
0.00065092409
0.0018809033
0.00062960709
0.0019131474
0.00062535864
0.0019184782
0.00060542669
0.0019483099
0.00059581269
0.0019695214
0.00058140904
0.0019954154
0.00056585444
0.002023832
0.00054996234
0.0020448523
0.00053314234
0.0020794636
0.00052072879
0.0020955962
0.00050361657
0.0021285777
0.00049111792
0.0021442086
0.00047651218
0.00046709933
0.002169756
0.00055236615
0.0012433391
0.00059725109
0.0013740615
0.000644501
0.0012441144
0.00069386704
0.0010829654
0.00073640394
0.00084151072
0.00078109853
0.0006630381
0.0008357918
0.00062301519
0.0008936243
0.00066266086
0.00094920079
0.00074112486
0.00099323666
0.00083161121
0.0010285013
0.00086614683
0.0010683127
0.00094476036
0.0011156798
0.0010501401
0.0011457522
0.0011588519
0.0011536776
0.001196754
0.0011536387
0.0011311282
0.0011589479
0.0010190783
0.0012004848
0.0009803151
0.0012491678
0.00095913799
0.0012551535
0.00091746397
0.001218929
0.00093730511
0.0012038228
0.0010072443
0.0012296858
0.0011722288
0.0012427707
0.0013161485
0.0012335738
0.0012710399
0.0012488732
0.0011458843
0.0012717954
0.0010159222
0.0013019333
0.00091934093
0.0013278601
0.0008791838
0.0013525029
0.00085499297
0.0013764175
0.0008262694
0.0014027677
0.00078583174
0.0014314541
0.00073978708
0.0014599381
0.00070277757
0.0014874341
0.00068564015
0.0015083147
0.000690145
0.00152143
0.00071532711
0.0015364761
0.00075032774
0.0015570826
0.00076860339
0.0015802373
0.00076345925
0.0016058147
0.00074893382
0.0016326397
0.00073476527
0.0016622045
0.0007206303
0.0016939369
0.00070427973
0.0017220229
0.00068615485
0.0017529727
0.00067047476
0.0017751566
0.00065430717
0.0017999457
0.00064197949
0.0018281669
0.00063202244
0.0018421378
0.00061451877
0.0018718088
0.00060415643
0.0018839295
0.00058898452
0.0019022661
0.00057501589
0.0019215593
0.00056427561
0.0019390682
0.00055013619
0.001958825
0.0005348587
0.0019842557
0.00052267562
0.0020090538
0.00050686724
0.0020343874
0.00049368955
0.0020549472
0.00047572591
0.0020854604
0.00046527603
0.0021018307
0.00044731374
0.00044108989
0.0021303749
0.0005564687
0.0012352341
0.00060021543
0.001287586
0.000647191
0.0012567195
0.00069581964
0.0010711985
0.00073750139
0.00079895435
0.00078172184
0.00065015491
0.00083531973
0.00059196412
0.00089220425
0.00062037841
0.00094753613
0.00069908641
0.00099135108
0.00078720135
0.0010271125
0.0008467334
0.0010670525
0.00092508279
0.0011146277
0.0010410142
0.0011440461
0.0011340931
0.0011508803
0.001171797
0.0011506153
0.0011103753
0.0011595409
0.0010709422
0.0011984721
0.0010985628
0.0012392666
0.0010169748
0.0012444027
0.00084670223
0.0012151521
0.00079542442
0.0012103725
0.00094884603
0.0012394468
0.0011995968
0.0012395735
0.0013233955
0.0012200779
0.0012455542
0.001227534
0.0011105758
0.0012473943
0.00096545324
0.0012809119
0.00086150165
0.0013096979
0.00081316468
0.0013360483
0.00079524411
0.0013597319
0.00078338805
0.0013849331
0.00076393845
0.0014135066
0.00073227558
0.0014433908
0.00069404135
0.00147303
0.00066113153
0.0014982466
0.00064572044
0.0015164614
0.00065513743
0.0015292454
0.00068314425
0.0015440379
0.00071348447
0.0015644449
0.00072680784
0.0015890255
0.0007196509
0.0016141005
0.00070344187
0.0016407878
0.00068819536
0.0016700153
0.00067605438
0.0017000335
0.00065712734
0.0017316779
0.00064602526
0.0017566347
0.00062562221
0.0017841785
0.00061276425
0.0018055349
0.00060079137
0.0018270712
0.00058515987
0.0018507083
0.00057405101
0.0018664721
0.00055832281
0.0018890696
0.0005481435
0.0019015088
0.0005321729
0.0019156943
0.00051906532
0.0019358069
0.00050751662
0.0019552832
0.0004959027
0.0019772709
0.00047895957
0.0019941662
0.00046649779
0.0020238401
0.00045095598
0.0020389078
0.00043862821
0.0020740353
0.00042405284
0.00041396446
0.0020888337
0.00056108931
0.0011378161
0.00060399657
0.0012734413
0.00064963367
0.0011586837
0.00069757267
0.00096809851
0.00073890389
0.00077627639
0.00078175073
0.00059493397
0.00083460706
0.00055519261
0.00089095823
0.0006012119
0.00094560072
0.00067328197
0.00098947236
0.0007684173
0.001025599
0.00081901223
0.0010657175
0.00091957799
0.0011128747
0.00101184
0.0011417368
0.0011074649
0.001147688
0.0011326023
0.0011495078
0.0010900604
0.0011624137
0.0011110861
0.001195728
0.0011743283
0.0012277501
0.0010718798
0.0012328367
0.00082188241
0.0012151825
0.00070146612
0.0012210004
0.0008802675
0.0012471815
0.001208401
0.0012333792
0.0013053438
0.0012051611
0.0011905274
0.0012055371
0.0010529969
0.0012246523
0.00092111572
0.0012606651
0.00083692739
0.0012913862
0.00076493325
0.0013190079
0.00072937761
0.0013429519
0.0007251016
0.001367034
0.00072328375
0.0013942548
0.00070999872
0.0014232852
0.00068322151
0.0014538463
0.0006488961
0.0014830608
0.00061690435
0.0015063372
0.00060775226
0.0015223586
0.00062119602
0.0015342525
0.00064833796
0.0015489217
0.00067579274
0.001569772
0.00068572726
0.0015937546
0.00067473568
0.0016204379
0.00065970319
0.0016438685
0.00064231506
0.0016777405
0.00063248608
0.0017034618
0.00061387373
0.0017349949
0.00060062912
0.0017640016
0.00058742931
0.0017826572
0.00056733814
0.0018079548
0.00055620787
0.0018275425
0.00054276119
0.0018508252
0.00053087865
0.0018663933
0.00051638127
0.0018831332
0.00050316226
0.0019021297
0.00049384427
0.0019186365
0.00048075302
0.0019256103
0.00046482062
0.0019499707
0.00045215564
0.0019625825
0.00043993823
0.0019911012
0.00042764849
0.0020064763
0.00041372817
0.0020342836
0.00040062892
0.00038782914
0.0020497651
0.00056541727
0.0011383988
0.00060726496
0.0011873956
0.00065210494
0.001171244
0.00069970662
0.0010094704
0.00074001103
0.000738151
0.00078228259
0.00059769955
0.00083400998
0.00053852058
0.00088926518
0.00054979016
0.00094347048
0.00062315133
0.00098681273
0.00072627111
0.00102316
0.00079631939
0.0010632667
0.00089469568
0.0011105153
0.0010028071
0.0011380339
0.001068166
0.0011434544
0.0010878403
0.0011485944
0.0010619893
0.0011636929
0.0011148983
0.0011900316
0.0011630229
0.0012146441
0.0010827221
0.0012205209
0.00084103348
0.001216075
0.00065579352
0.0012343218
0.00082751166
0.0012525061
0.001210032
0.0012259512
0.001313759
0.001191322
0.0011646059
0.0011869844
0.0010194929
0.0012083756
0.00091610981
0.0012416858
0.00084571782
0.0012723469
0.00074633016
0.0013024582
0.00068202692
0.0013271766
0.00066267448
0.0013502942
0.00066713309
0.0013755911
0.00067044572
0.0014025963
0.00065775346
0.0014315154
0.00063422271
0.0014637391
0.00060390104
0.0014913832
0.00057601475
0.0015120014
0.00057366856
0.0015265898
0.00059015125
0.0015374125
0.00061594083
0.0015506655
0.00063761533
0.0015720628
0.00064182303
0.0015956792
0.00063034601
0.0016218067
0.00061370884
0.0016478961
0.0006008977
0.0016766791
0.00058621724
0.0017082773
0.0005737805
0.0017320441
0.00055568927
0.0017597421
0.00054242369
0.0017831146
0.0005285466
0.0018057061
0.00051631153
0.00182429
0.00050128069
0.0018440462
0.0004898459
0.0018668048
0.00047952105
0.0018817639
0.0004652298
0.0018906045
0.00045004575
0.0019023909
0.00043658082
0.0019242039
0.00042991066
0.0019403832
0.00041720958
0.001953003
0.00040319917
0.0019788279
0.00039112278
0.0019874035
0.00037532379
0.00036591754
0.0020134178
0.00056981648
0.0010438571
0.00061102096
0.0012128712
0.0006551621
0.0010866254
0.00070193529
0.00090831421
0.00074152675
0.00070282426
0.00078233547
0.00053457958
0.00083308524
0.00048993178
0.00088795191
0.00054042895
0.00094151711
0.00060813792
0.00098464008
0.00070497528
0.0010211384
0.00078313233
0.0010607039
0.00089487012
0.0011063046
0.0009610251
0.0011327959
0.0010240307
0.0011383538
0.0010518182
0.0011457521
0.0010330006
0.0011600389
0.00106569
0.0011813402
0.0010918496
0.0012008583
0.0010381627
0.0012066459
0.00085491384
0.0012178495
0.00067178197
0.001250303
0.00081796594
0.0012586572
0.0011985641
0.0012197631
0.0013310291
0.0011822144
0.0011826314
0.0011769506
0.0010436456
0.0011992556
0.00096629543
0.001224508
0.00087895689
0.001253739
0.0007539712
0.0012858913
0.00067082142
0.0013122156
0.00061568282
0.0013350512
0.00060500013
0.0013580615
0.00061389382
0.0013837441
0.00061732186
0.0014107512
0.00060786267
0.0014413323
0.00058902665
0.0014737588
0.00055949035
0.001499007
0.00053873234
0.0015176635
0.00054186425
0.0015293446
0.00055912238
0.0015373482
0.00058070184
0.0015516159
0.00059875292
0.001571645
0.00059836027
0.001597493
0.00058753275
0.0016205629
0.00056911759
0.0016490295
0.00055838942
0.0016744969
0.0005422973
0.0017028785
0.00052833307
0.0017311047
0.00051604251
0.0017564075
0.00050116806
0.0017759673
0.00048563371
0.0017988628
0.00047409547
0.0018225183
0.00046522431
0.0018375013
0.00044978861
0.0018526793
0.00043647874
0.0018641363
0.00042429191
0.0018909772
0.00041794869
0.0018975047
0.00040357895
0.0019118418
0.00038973268
0.0019184877
0.0003779845
0.0019419373
0.00036865321
0.0019520894
0.00035258366
0.00034731822
0.0019754902
0.00057433665
0.0010345742
0.00061438844
0.001098832
0.00065767483
0.0010937195
0.0007038625
0.00090140503
0.00074269309
0.0006872767
0.00078285783
0.00054396358
0.0008327734
0.00048641204
0.00088652283
0.00048649942
0.00093972243
0.00055249838
0.00098254187
0.00067507418
0.0010188497
0.00074749223
0.0010572288
0.00086648795
0.0011023061
0.00094818318
0.0011283813
0.0010057484
0.0011336373
0.0010496795
0.0011413873
0.0010362322
0.0011538834
0.001043695
0.0011708541
0.0010099738
0.0011866987
0.00095005278
0.0011930979
0.00082673524
0.0012203163
0.00072704132
0.0012663715
0.00085804063
0.0012657199
0.001163274
0.0012143702
0.0012881739
0.0011770811
0.0011843414
0.0011740162
0.0010879353
0.0011920719
0.0010310873
0.0012080056
0.00091935017
0.0012364067
0.00078076594
0.0012670018
0.00067846007
0.0012961782
0.00059764074
0.001320449
0.000559005
0.0013424092
0.00055245719
0.0013667179
0.00056592861
0.0013925679
0.00057089646
0.0014194611
0.00056161232
0.0014523542
0.00054383968
0.0014835342
0.00051646698
0.0015063847
0.00050304396
0.0015215145
0.00050921379
0.0015305034
0.00052666189
0.0015379966
0.00054765615
0.0015524084
0.00056139362
0.0015717308
0.00055525924
0.0015973228
0.00054375199
0.0016196088
0.00052722875
0.0016454264
0.00051433517
0.0016739501
0.00050253504
0.0016987405
0.00048643653
0.0017232207
0.00047204716
0.001748306
0.00046031671
0.001774677
0.00044891372
0.0017902155
0.00043495403
0.0018073255
0.00042177812
0.0018273074
0.0004139603
0.0018490297
0.00040391078
0.0018618625
0.00039137957
0.0018641683
0.00037459004
0.0018848644
0.00036570766
0.0018948085
0.00035665279
0.001904796
0.00034850489
0.0019302047
0.00033465145
0.00032723574
0.0019360592
0.00057887735
0.00097642067
0.00061830323
0.0010859205
0.00066074391
0.0010083601
0.00070638178
0.0008722984
0.00074430653
0.00063548316
0.00078339939
0.00048296448
0.00083219086
0.000433586
0.00088529545
0.00047704052
0.00093801971
0.00054056309
0.00098058375
0.00064097863
0.0010171068
0.00074932441
0.0010545349
0.00086798376
0.0010988206
0.00091655368
0.0011249472
0.00096774342
0.0011309121
0.001051939
0.0011387917
0.0010771208
0.0011472655
0.001059293
0.0011599769
0.00096949018
0.0011728507
0.00085397301
0.0011816094
0.0007528799
0.0012221952
0.00076825779
0.0012769838
0.0009063987
0.0012687865
0.0011012669
0.0012080674
0.0011858269
0.0011724006
0.0011300136
0.0011716433
0.0010897029
0.0011821236
0.001056237
0.0011913371
0.00094153876
0.0012187365
0.00081119105
0.0012465481
0.0006892792
0.0012777532
0.00059428663
0.0013044491
0.00053873663
0.0013285574
0.00051116343
0.0013512416
0.00051191503
0.0013748617
0.00052159996
0.0014002716
0.00052628031
0.0014292633
0.00051999249
0.0014630119
0.0005007149
0.0014916727
0.00047465389
0.0015117691
0.0004676709
0.0015249935
0.00047717252
0.0015317368
0.00049515616
0.001536744
0.00051155139
0.0015523242
0.00052091247
0.0015729477
0.00051561836
0.0015952035
0.00050101946
0.001619512
0.00048624695
0.0016417691
0.00047109293
0.0016669987
0.0004583675
0.0016944747
0.00044776593
0.0017197878
0.0004347811
0.0017422683
0.00042081288
0.0017599879
0.00040660022
0.0017852073
0.00039941105
0.0018030485
0.00038702681
0.0018186791
0.00037722045
0.0018251805
0.0003608363
0.0018409738
0.00035405726
0.0018649748
0.0003501775
0.00187954
0.00033743589
0.0018744852
0.00032581005
0.0019010896
0.00031393443
0.00030346987
0.0019005845
0.00058349845
0.00092110546
0.00062186605
0.0010671339
0.00066358009
0.0010171819
0.00070826992
0.00080206806
0.00074561806
0.00062694434
0.00078400266
0.00049007956
0.0008322737
0.00043064815
0.00088467761
0.00043237304
0.00093700739
0.00049129396
0.00097956592
0.00062874929
0.0010157171
0.00070308864
0.00105161
0.00085147131
0.0010955158
0.00089465457
0.0011233041
0.0009608266
0.0011303925
0.0010625346
0.0011374168
0.0011076591
0.0011417197
0.0010906666
0.0011495643
0.00098688205
0.0011592046
0.00078323321
0.0011724475
0.0006527704
0.0012216355
0.00076065411
0.0012795434
0.00093641182
0.001266637
0.0010489109
0.0012003838
0.0010587549
0.0011667767
0.0010433322
0.0011671357
0.0010468075
0.0011689595
0.0010311496
0.0011743381
0.00093176885
0.001198335
0.00081993495
0.0012249361
0.00069473404
0.0012583996
0.00059873401
0.0012867609
0.00052886158
0.0013134576
0.00048896214
0.0013360896
0.00047166155
0.0013586098
0.00047057235
0.0013823831
0.00047942931
0.001407881
0.00048521698
0.0014380506
0.00047804587
0.001472015
0.00045761053
0.0014982006
0.00043570659
0.001516425
0.00043393493
0.0015253957
0.00044478286
0.0015294798
0.00046053182
0.001537441
0.00047833746
0.0015512475
0.00048095799
0.0015707352
0.00047181926
0.0015921721
0.00045817609
0.0016147261
0.00044545716
0.0016408829
0.00043374731
0.0016641825
0.00041994123
0.0016869391
0.0004053982
0.001708861
0.00039402117
0.0017374937
0.00038527969
0.0017537816
0.00037318953
0.0017760564
0.00036060592
0.0017813573
0.00035018289
0.0018079151
0.0003440055
0.0018310101
0.00033751375
0.0018354209
0.00032637491
0.0018514988
0.00031282357
0.0018476129
0.00030054428
0.0018618159
0.00029282085
0.00028501934
0.001879038
0.00058817203
0.00089645915
0.00062589706
0.00099880961
0.00066644908
0.0009455347
0.00071072436
0.00081192462
0.00074730452
0.00058656134
0.00078489043
0.00043591944
0.00083205461
0.00038702347
0.0008836571
0.00041222833
0.0009359492
0.00046900626
0.00097810704
0.00058326873
0.0010145834
0.00070898228
0.0010489253
0.00084210231
0.0010930846
0.00087831829
0.0011217701
0.00091447525
0.0011298504
0.0010528081
0.0011366366
0.0011237702
0.0011380649
0.0011249395
0.0011386735
0.0010077669
0.0011443006
0.00073578819
0.0011642657
0.00053174041
0.0012197263
0.00071404248
0.001277031
0.00093998434
0.0012601987
0.001003942
0.0011941528
0.00095319184
0.0011625909
0.00096232003
0.0011619303
0.0010088218
0.0011545498
0.00099781372
0.0011570239
0.00090462245
0.0011759743
0.00079917247
0.0012030968
0.00068291608
0.0012375263
0.00059778866
0.0012683548
0.00052387141
0.0012963923
0.00047428652
0.0013196829
0.00044263306
0.0013427713
0.0004329335
0.0013657248
0.00043016565
0.001388458
0.00043902024
0.0014141951
0.00044394755
0.0014461125
0.00043739993
0.0014791298
0.0004157008
0.0015033389
0.00040088159
0.0015168272
0.00039971341
0.0015252403
0.00041331154
0.0015261525
0.00042665756
0.0015327312
0.00043866428
0.0015478
0.00044046218
0.0015689924
0.0004341526
0.0015900983
0.00042113137
0.0016112116
0.00040531764
0.0016314445
0.00039102222
0.0016571982
0.00038192335
0.0016819865
0.00037113043
0.0017066708
0.0003614261
0.0017209208
0.00034587177
0.0017482993
0.00034097195
0.0017633327
0.00032894321
0.0017881027
0.00032437334
0.0018024277
0.00031145709
0.0018000489
0.0002968771
0.0018151546
0.00029049139
0.001833799
0.00028408743
0.0018387854
0.00027899213
0.00027501274
0.0018613963
0.00059306481
0.0008423152
0.0006296946
0.00095768659
0.00066952136
0.00093613521
0.00071300472
0.00074316354
0.00074874964
0.00055862388
0.00078552267
0.00043871053
0.000832179
0.000373018
0.00088345323
0.00038382903
0.00093532243
0.00043743869
0.00097778649
0.00058071186
0.0010140769
0.00067175184
0.0010463069
0.00084783118
0.0010893668
0.0008344776
0.0011198738
0.00089293362
0.0011287496
0.001027909
0.0011352918
0.0011267279
0.0011339994
0.0011282058
0.0011268268
0.0010169471
0.0011268358
0.00068107738
0.0011569319
0.00040919947
0.0012173297
0.00063413556
0.0012707995
0.00090191121
0.0012510046
0.0009434791
0.0011908318
0.00087642811
0.0011630907
0.00090633208
0.0011587615
0.00099919834
0.0011421633
0.00099513396
0.0011397362
0.00088610393
0.0011529714
0.00076267668
0.0011813736
0.00065143818
0.0012154478
0.00057835283
0.0012487687
0.00051404652
0.0012777805
0.00046411202
0.0013030441
0.0004219296
0.001325249
0.00040331985
0.0013492568
0.00039303722
0.0013710125
0.00038995559
0.0013939409
0.00040069379
0.0014199984
0.00040423637
0.0014542189
0.00039796299
0.0014837754
0.00037584578
0.0015052043
0.00036550331
0.0015161161
0.00036914773
0.0015190814
0.00037889232
0.0015212194
0.00039367741
0.0015306166
0.00040471488
0.0015450514
0.00040174733
0.001561273
0.00038977679
0.0015820501
0.00038036841
0.0016064511
0.00037135538
0.0016289512
0.00035961966
0.0016525828
0.00034706365
0.0016685706
0.00033301222
0.0016984136
0.0003246945
0.001715652
0.00031780532
0.0017424281
0.00030722321
0.0017521816
0.00029669286
0.0017632072
0.00028632992
0.0017827912
0.0002812
0.0017955247
0.00027743654
0.0018253878
0.00027238337
0.0018301004
0.00026063198
0.00025311521
0.0018286906
0.00059775509
0.00079844982
0.00063363758
0.0009396355
0.00067232569
0.00088169492
0.00071520076
0.0007185034
0.00075055899
0.00054238312
0.00078656093
0.00039134962
0.00083223421
0.00034528684
0.00088253965
0.00034958168
0.00093457936
0.00039608091
0.00097668842
0.00053463651
0.0010132987
0.00066213681
0.0010429899
0.00082307057
0.0010866079
0.00082838801
0.0011179458
0.00084300347
0.001127557
0.0010064123
0.0011333405
0.0011207469
0.001130809
0.001166162
0.0011141903
0.0010409805
0.001107292
0.00063418724
0.0011499747
0.00031466318
0.00121481
0.00054942316
0.0012621464
0.00084310927
0.0012413387
0.0008708644
0.0011907783
0.00081915159
0.0011697246
0.00087856945
0.0011588981
0.0010077387
0.0011310605
0.0010013682
0.0011209829
0.0008620814
0.0011296732
0.00071530058
0.001159322
0.00060693171
0.0011929332
0.00053912261
0.0012281972
0.0004886997
0.0012575878
0.00044700447
0.0012855721
0.00040759326
0.0013073276
0.00037512113
0.0013308773
0.00036413898
0.001355166
0.00035436157
0.0013761636
0.00035566687
0.0013989473
0.00036520145
0.0014257997
0.00036675137
0.0014597225
0.00035647331
0.0014879242
0.00034063198
0.0015036088
0.00033219489
0.0015122901
0.00033705894
0.0015144661
0.00034787534
0.0015141724
0.00035760767
0.0015209052
0.00036350093
0.0015387199
0.00036433073
0.0015596177
0.00035917592
0.0015787836
0.00034721641
0.0015973074
0.00033236614
0.001617246
0.00032184223
0.001639293
0.0003126911
0.0016717253
0.00030811155
0.0016820044
0.00029373571
0.0017070409
0.00028527526
0.0017213651
0.00027580549
0.0017429848
0.00027056724
0.0017693741
0.00026467208
0.0017780518
0.00025568085
0.0017887439
0.00024907136
0.0018009339
0.00023768749
0.00022808474
0.0018022418
0.00060280355
0.00075867919
0.00063779371
0.000896021
0.00067573111
0.00086907207
0.00071798991
0.00070636009
0.00075219891
0.00049693958
0.00078737666
0.00038986704
0.00083230845
0.00031879386
0.0008823148
0.00033568081
0.00093398827
0.00038020225
0.00097653616
0.00052173806
0.0010132538
0.00065057226
0.0010404574
0.00084569454
0.0010823419
0.00078194285
0.0011155484
0.00079420969
0.0011268822
0.0009792377
0.0011339482
0.0011475586
0.0011290189
0.0012284774
0.0011010262
0.001091058
0.0010882977
0.00062080163
0.0011444762
0.00028705569
0.0012128713
0.00047859139
0.0012523114
0.00075743388
0.0012325159
0.00079615348
0.0011930025
0.00076297914
0.0011805764
0.0008726474
0.0011609562
0.0010278129
0.0011185886
0.00099737206
0.0010996004
0.0008171906
0.0011059594
0.00065374981
0.001136303
0.00055172935
0.0011700495
0.00048590097
0.0012064841
0.00044344201
0.0012366815
0.00041175558
0.0012652912
0.00038869943
0.001290314
0.00035722078
0.0013123216
0.00033670911
0.0013377456
0.0003270413
0.0013604779
0.00031930215
0.0013805198
0.00032515645
0.0014025018
0.00032930968
0.0014331056
0.00033232077
0.0014641541
0.00031760533
0.0014871021
0.00030213921
0.001501003
0.00030052169
0.0015052533
0.00030565561
0.0015046487
0.00031506222
0.0015086987
0.00032804206
0.001520453
0.00033397896
0.0015326219
0.0003270774
0.0015463624
0.00031645224
0.001568676
0.00031225628
0.001590465
0.00030470263
0.0016168394
0.00029794544
0.0016342841
0.00028523409
0.0016503935
0.00027123715
0.0016724344
0.00026427594
0.0016980044
0.00025758641
0.0017165215
0.00025247436
0.0017328875
0.00024205133
0.0017503645
0.00023306769
0.0017514865
0.00022620408
0.0017650534
0.00022312821
0.00021889514
0.0017930963
0.00060783032
0.00072777811
0.00064166711
0.00084610955
0.00067851504
0.00081437817
0.00072009067
0.00063237016
0.00075405721
0.00049447068
0.00078842676
0.0003503009
0.00083257668
0.0003039317
0.00088167725
0.00029245354
0.00093352654
0.00032661442
0.00097614615
0.00048617229
0.0010131871
0.00061521628
0.0010371248
0.00083132032
0.0010786742
0.00076849459
0.0011146907
0.00077480731
0.0011284115
0.00098264962
0.0011362098
0.0011825511
0.0011273334
0.0012825315
0.0010878628
0.0011295741
0.0010723786
0.00065438539
0.0011388582
0.00031336784
0.0012102252
0.00044181988
0.0012431355
0.00066793567
0.0012237472
0.00071714337
0.0011971401
0.00071128508
0.0011933559
0.00086784331
0.0011623167
0.0010416409
0.0011042464
0.00099024984
0.0010775821
0.00078850885
0.0010836049
0.0006148393
0.0011127407
0.00050916269
0.0011460831
0.00042580655
0.00118329
0.00038076893
0.0012162994
0.00036206013
0.0012444291
0.00035255
0.0012717154
0.00034062301
0.0012947918
0.00031662361
0.0013187764
0.00030074537
0.0013443333
0.00029292725
0.0013635075
0.00028697529
0.0013846601
0.0002949469
0.0014063577
0.0002961907
0.0014357922
0.00029068298
0.0014666339
0.00028036949
0.0014857163
0.00027120857
0.0014948668
0.00026906262
0.0014995063
0.00027617605
0.0014993159
0.0002861669
0.0014995135
0.00029207514
0.0015071706
0.00029553132
0.0015271375
0.00029633444
0.0015458846
0.00029322055
0.0015660704
0.00028400389
0.0015822094
0.00027196648
0.0015954013
0.0002601248
0.0016204132
0.00025285269
0.0016425059
0.00025021181
0.00166994
0.00024176671
0.0016795111
0.00022979287
0.0016945891
0.00022434733
0.0017205432
0.00022075787
0.0017385064
0.00021154367
0.0017454368
0.0002072058
0.00020531587
0.001767572
0.00061283821
0.00066103875
0.00064587077
0.00082747782
0.00068178445
0.00080257497
0.00072296468
0.00064117844
0.00075576309
0.00044416198
0.00078939865
0.00034234183
0.0008326403
0.00027059728
0.00088126014
0.00028472119
0.00093293042
0.00031164331
0.00097591235
0.00045296173
0.0010135013
0.00062348114
0.0010344356
0.00084638858
0.001075186
0.00074813833
0.001114151
0.00071334574
0.001131336
0.00097715318
0.0011386735
0.0012261836
0.001123784
0.0012933811
0.0010752183
0.0011213856
0.0010594501
0.00069898187
0.0011327246
0.00037053144
0.0012062767
0.00045493481
0.0012346031
0.00058893558
0.0012161648
0.00064127783
0.0012037945
0.00069171361
0.0012071966
0.00088862528
0.0011636473
0.0010601939
0.0010921033
0.00099552833
0.0010590405
0.00079932155
0.0010645537
0.0006275592
0.0010884962
0.00050010972
0.0011212863
0.00038672786
0.0011600155
0.00032229424
0.0011953507
0.00029821858
0.0012254265
0.00029966925
0.0012518395
0.00030658593
0.001276343
0.00029863735
0.0013005259
0.00028045875
0.0013252598
0.00026756779
0.0013485158
0.00025954363
0.0013665856
0.00026039226
0.0013840499
0.00025983504
0.0014100586
0.00026167758
0.0014412221
0.00025676532
0.001465242
0.00024301103
0.0014813683
0.00023854046
0.0014898634
0.00024118845
0.0014886964
0.00024600726
0.0014888079
0.00025646811
0.0014951595
0.00026747065
0.0015096706
0.00027277286
0.0015196463
0.0002634949
0.0015335105
0.00025759906
0.0015496385
0.00024930585
0.0015682276
0.00024713897
0.001599552
0.00024292689
0.0016128795
0.00023397102
0.0016287059
0.00022492768
0.0016526337
0.00021432525
0.0016713208
0.00020969268
0.0016827751
0.00020428453
0.0017136909
0.00019700581
0.001723805
0.0001881088
0.00018394903
0.0017303445
0.0006180808
0.00065092619
0.0006500255
0.00078689507
0.00068491982
0.00076253475
0.00072528786
0.00058657492
0.00075770936
0.00044381986
0.00079054021
0.00031300501
0.00083311906
0.00026207066
0.00088092263
0.00024256256
0.00093265401
0.00026417128
0.00097639856
0.00043400449
0.0010141913
0.0005772592
0.001031591
0.00086244206
0.0010707401
0.00071752567
0.0011144337
0.00069672028
0.0011346519
0.00097276772
0.0011389711
0.0012437648
0.0011177795
0.0012811957
0.0010639925
0.0010855079
0.0010479478
0.00070224147
0.0011255797
0.00039784862
0.001199718
0.00049032848
0.0012279609
0.00055712797
0.0012132786
0.00058214666
0.0012143892
0.00070316728
0.0012221615
0.00094511455
0.0011668962
0.0011014644
0.0010849078
0.0010237968
0.0010458409
0.0008365998
0.0010477483
0.0006698068
0.0010642925
0.00051737047
0.0010959424
0.00037374352
0.0011359243
0.0002863213
0.0011745985
0.00024429838
0.0012076202
0.00023864237
0.0012336967
0.00025294284
0.0012576384
0.00026859214
0.0012822271
0.00026649791
0.0013063708
0.00024765406
0.0013311769
0.00023657268
0.0013481996
0.00022597457
0.0013664313
0.00022872229
0.0013871346
0.00023124116
0.0014120445
0.00022671013
0.0014415675