/*--------------------------------*- C++ -*----------------------------------*\
| =========                 |                                                 |
| \\      /  F ield         | OpenFOAM: The Open Source CFD Toolbox           |
|  \\    /   O peration     | Version:  2406                                  |
|   \\  /    A nd           | Website:  www.openfoam.com                      |
|    \\/     M anipulation  |                                                 |
\*---------------------------------------------------------------------------*/
FoamFile
{
    version     2.0;
    format      ascii;
    arch        "LSB;label=32;scalar=64";
    class       volScalarField;
    location    "5";
    object      rho;
}
// * * * * * * * * * * * * * * * * * * * * * * * * * * * * * * * * * * * * * //

dimensions      [1 -3 0 0 0 0 0];

internalField   nonuniform List<scalar> 
19701
(
1.0001183
1.0001283
1.0001405
1.0001214
1.0001228
1.000115
1.000113
1.0001099
1.0001078
1.000106
1.0001044
1.0001027
1.0001012
1.0000998
1.0000985
1.0000971
1.0000959
1.0000947
1.0000936
1.0000925
1.0000916
1.0000907
1.00009
1.0000892
1.0000886
1.0000882
1.0000879
1.0000875
1.000087
1.0000865
1.0000861
1.0000857
1.0000854
1.0000851
1.0000849
1.0000846
1.0000844
1.0000842
1.000084
1.0000839
1.0000837
1.0000836
1.0000835
1.0000833
1.0000832
1.0000831
1.000083
1.0000829
1.0000829
1.0000828
1.0000827
1.0000827
1.0000826
1.0000825
1.0000825
1.0000824
1.0000824
1.0000823
1.0000823
1.0000822
1.0000821
1.000082
1.0000819
1.0000818
1.0000816
1.0000814
1.0000812
1.000081
1.0000808
1.0000806
1.0000804
1.0000803
1.0000802
1.00008
1.0000799
1.0000798
1.0000797
1.0000796
1.0000795
1.0000794
1.0000795
1.0000796
1.0000799
1.0000803
1.0000808
1.0000814
1.000082
1.0000824
1.0000825
1.000082
1.000081
1.0000798
1.000077
1.0000725
1.0000665
1.000061
1.0000601
1.0000751
1.0000613
1.0000577
1.0001697
1.0001712
1.0001583
1.0001577
1.0001474
1.0001442
1.0001376
1.000133
1.000128
1.0001235
1.0001196
1.000116
1.0001128
1.0001098
1.0001071
1.0001047
1.0001025
1.0001005
1.0000987
1.0000971
1.0000956
1.0000942
1.000093
1.0000917
1.0000905
1.0000893
1.0000882
1.0000871
1.0000861
1.0000853
1.0000845
1.0000837
1.0000831
1.0000825
1.0000818
1.0000812
1.0000807
1.0000802
1.0000798
1.0000794
1.0000791
1.0000787
1.0000784
1.0000781
1.0000779
1.0000776
1.0000774
1.0000771
1.000077
1.0000768
1.0000766
1.0000764
1.0000762
1.0000761
1.0000759
1.0000757
1.0000756
1.0000754
1.0000752
1.0000749
1.0000746
1.0000742
1.0000738
1.0000733
1.0000727
1.000072
1.0000714
1.0000708
1.0000702
1.0000698
1.0000695
1.0000693
1.0000691
1.0000688
1.0000686
1.0000683
1.000068
1.000068
1.0000681
1.0000684
1.0000691
1.0000702
1.0000715
1.000073
1.0000747
1.0000765
1.0000781
1.0000786
1.0000771
1.0000727
1.0000668
1.0000591
1.0000504
1.0000441
1.0000508
1.0000569
1.0001431
1.0001322
0.99994064
1.0001409
1.0001481
1.0001425
1.0001433
1.0001382
1.0001366
1.0001322
1.0001291
1.0001256
1.0001222
1.0001191
1.0001161
1.0001134
1.0001107
1.0001083
1.0001061
1.000104
1.0001019
1.0001
1.0000982
1.0000965
1.000095
1.0000935
1.0000922
1.000091
1.00009
1.0000889
1.000088
1.0000871
1.0000863
1.0000856
1.000085
1.0000843
1.0000838
1.0000834
1.000083
1.0000827
1.0000823
1.0000819
1.0000816
1.0000812
1.0000809
1.0000806
1.0000803
1.00008
1.0000798
1.0000795
1.0000793
1.0000791
1.0000789
1.0000787
1.0000785
1.0000783
1.0000781
1.000078
1.0000778
1.0000775
1.0000773
1.000077
1.0000767
1.0000763
1.0000758
1.0000751
1.0000744
1.0000736
1.0000728
1.0000719
1.0000712
1.0000706
1.0000702
1.0000701
1.0000701
1.0000701
1.0000701
1.0000699
1.0000698
1.0000697
1.0000698
1.0000703
1.0000713
1.0000727
1.0000745
1.0000765
1.0000788
1.0000812
1.0000837
1.0000858
1.0000864
1.0000841
1.0000766
1.0000659
1.000053
1.0000421
1.0000418
1.0000577
1.0000666
1.0001095
1.0001119
0.99981967
1.0001047
1.0001198
1.0001201
1.0001208
1.0001196
1.0001196
1.0001177
1.000117
1.0001151
1.0001135
1.0001118
1.0001101
1.0001083
1.0001065
1.0001049
1.0001033
1.0001018
1.0001003
1.0000991
1.0000978
1.0000965
1.0000954
1.0000943
1.0000933
1.0000924
1.0000915
1.0000907
1.0000899
1.0000892
1.0000885
1.0000878
1.0000872
1.0000866
1.0000861
1.0000856
1.0000852
1.0000848
1.0000845
1.0000841
1.0000837
1.0000834
1.0000831
1.0000828
1.0000825
1.0000823
1.000082
1.0000818
1.0000815
1.0000813
1.0000811
1.0000809
1.0000807
1.0000805
1.0000803
1.0000801
1.0000799
1.0000797
1.0000794
1.000079
1.0000786
1.0000781
1.0000774
1.0000766
1.0000757
1.0000747
1.0000736
1.0000726
1.0000718
1.0000712
1.000071
1.000071
1.0000713
1.0000716
1.0000718
1.0000718
1.0000718
1.0000719
1.0000724
1.0000734
1.0000749
1.0000769
1.0000794
1.0000821
1.0000849
1.0000879
1.0000909
1.0000934
1.0000942
1.0000915
1.0000821
1.0000669
1.0000482
1.0000335
1.0000342
1.0000486
1.0000499
1.0000607
1.0000657
0.99971253
1.000083
1.0001012
1.0001022
1.0001027
1.0001028
1.0001038
1.0001035
1.0001043
1.0001038
1.0001038
1.0001034
1.000103
1.0001023
1.0001015
1.0001008
1.0000999
1.000099
1.0000981
1.0000973
1.0000964
1.0000954
1.0000945
1.0000936
1.0000928
1.000092
1.0000912
1.0000904
1.0000897
1.000089
1.0000884
1.0000877
1.0000872
1.0000866
1.000086
1.0000855
1.000085
1.0000846
1.0000842
1.0000838
1.0000835
1.0000832
1.0000829
1.0000826
1.0000823
1.000082
1.0000817
1.0000815
1.0000812
1.000081
1.0000808
1.0000805
1.0000803
1.0000801
1.0000799
1.0000797
1.0000794
1.0000791
1.0000788
1.0000784
1.0000778
1.0000771
1.0000763
1.0000753
1.0000742
1.000073
1.0000717
1.0000706
1.0000697
1.0000691
1.000069
1.0000692
1.0000697
1.0000703
1.0000706
1.0000708
1.0000709
1.0000712
1.0000719
1.0000732
1.0000752
1.0000777
1.0000807
1.0000838
1.0000872
1.0000907
1.0000942
1.0000972
1.0000982
1.0000955
1.0000851
1.0000675
1.0000447
1.0000247
1.0000166
1.0000204
1.0000247
1.0000479
1.0000443
0.99962721
1.0000671
1.0000918
1.0000932
1.0000928
1.0000926
1.0000931
1.0000929
1.0000938
1.0000933
1.0000936
1.0000936
1.0000934
1.0000933
1.0000926
1.0000926
1.0000918
1.0000914
1.0000906
1.0000902
1.0000894
1.0000886
1.0000879
1.0000873
1.0000864
1.0000857
1.000085
1.0000842
1.0000836
1.0000829
1.0000822
1.0000816
1.0000811
1.0000805
1.0000799
1.0000794
1.000079
1.0000785
1.000078
1.0000776
1.0000773
1.0000769
1.0000765
1.0000762
1.0000759
1.0000756
1.0000753
1.000075
1.0000748
1.0000745
1.0000743
1.0000741
1.0000739
1.0000736
1.0000734
1.0000731
1.0000729
1.0000725
1.0000721
1.0000716
1.0000709
1.0000701
1.0000692
1.000068
1.0000666
1.0000652
1.0000638
1.0000625
1.0000615
1.000061
1.0000609
1.0000613
1.0000621
1.0000629
1.0000634
1.0000636
1.0000638
1.0000641
1.000065
1.0000666
1.0000689
1.0000719
1.0000751
1.0000787
1.0000824
1.0000864
1.0000905
1.0000937
1.0000944
1.0000908
1.0000793
1.0000607
1.0000364
1.0000136
0.99999816
0.9999959
1.0000053
1.0000379
1.0000338
0.9995724
1.0000515
1.0000802
1.000082
1.0000819
1.0000816
1.0000815
1.0000812
1.0000816
1.000081
1.0000812
1.0000809
1.0000809
1.0000809
1.00008
1.0000804
1.0000796
1.0000795
1.0000786
1.0000785
1.0000777
1.0000772
1.0000767
1.0000761
1.0000754
1.0000747
1.0000743
1.0000736
1.000073
1.0000724
1.0000718
1.0000712
1.0000707
1.0000701
1.0000697
1.0000691
1.0000688
1.0000682
1.0000678
1.0000675
1.0000671
1.0000667
1.0000664
1.0000661
1.0000657
1.0000654
1.0000651
1.0000648
1.0000646
1.0000643
1.0000641
1.0000638
1.0000636
1.0000633
1.0000631
1.0000628
1.0000625
1.0000621
1.0000616
1.000061
1.0000603
1.0000593
1.0000582
1.0000568
1.0000552
1.0000536
1.0000519
1.0000505
1.0000495
1.0000489
1.0000488
1.0000494
1.0000504
1.0000515
1.0000522
1.0000526
1.0000529
1.0000534
1.0000545
1.0000563
1.0000589
1.0000622
1.0000658
1.0000698
1.0000741
1.0000787
1.0000832
1.0000865
1.0000865
1.0000813
1.0000684
1.0000496
1.0000272
1.0000067
0.99998884
0.99997548
0.9999781
1.0000301
1.0000483
0.9995459
1.0000435
1.0000704
1.0000725
1.0000729
1.000073
1.0000728
1.000073
1.000073
1.0000725
1.0000727
1.0000721
1.0000723
1.0000721
1.0000715
1.0000718
1.0000709
1.0000712
1.0000701
1.0000702
1.0000696
1.000069
1.0000687
1.0000683
1.0000677
1.0000671
1.0000668
1.0000661
1.0000656
1.0000651
1.0000646
1.0000641
1.0000636
1.0000632
1.0000627
1.0000622
1.0000619
1.0000612
1.0000611
1.0000607
1.0000602
1.0000599
1.0000595
1.0000592
1.0000588
1.0000586
1.0000583
1.000058
1.0000577
1.0000575
1.0000573
1.000057
1.0000568
1.0000565
1.0000563
1.0000559
1.0000556
1.0000551
1.0000546
1.0000539
1.0000531
1.000052
1.0000507
1.0000492
1.0000474
1.0000455
1.0000437
1.0000422
1.0000411
1.0000406
1.0000407
1.0000416
1.0000429
1.0000442
1.0000451
1.0000456
1.0000459
1.0000464
1.0000475
1.0000495
1.0000523
1.0000558
1.0000597
1.0000642
1.0000691
1.0000743
1.000079
1.000082
1.0000809
1.0000741
1.0000598
1.0000404
1.0000204
1.0000055
0.99999705
0.99999681
1.0000077
1.0000557
1.0001168
0.99953547
1.0000408
1.0000664
1.0000681
1.0000687
1.000069
1.0000687
1.0000698
1.0000696
1.0000694
1.0000697
1.0000691
1.0000696
1.0000691
1.0000687
1.0000692
1.0000681
1.0000687
1.0000677
1.0000677
1.0000674
1.0000669
1.0000665
1.0000663
1.0000657
1.0000653
1.000065
1.0000644
1.0000639
1.0000636
1.0000631
1.0000626
1.0000622
1.0000619
1.0000613
1.000061
1.0000605
1.0000601
1.0000599
1.0000594
1.000059
1.0000588
1.0000584
1.0000581
1.0000577
1.0000575
1.0000572
1.0000569
1.0000566
1.0000564
1.0000561
1.0000558
1.0000556
1.0000554
1.0000551
1.0000547
1.0000543
1.0000539
1.0000533
1.0000525
1.0000516
1.0000504
1.0000489
1.0000472
1.0000453
1.0000432
1.0000412
1.0000396
1.0000385
1.000038
1.0000382
1.0000391
1.0000407
1.0000422
1.0000432
1.0000438
1.0000441
1.0000445
1.0000457
1.0000478
1.0000507
1.0000545
1.0000588
1.0000637
1.0000691
1.0000747
1.0000795
1.0000821
1.0000799
1.000072
1.0000575
1.0000392
1.0000225
1.0000131
1.0000122
1.0000222
1.0000316
1.000053
1.0000808
0.9995317
1.0000409
1.0000657
1.0000667
1.0000675
1.0000677
1.000067
1.0000683
1.000068
1.000068
1.0000684
1.0000679
1.0000684
1.000068
1.0000677
1.0000684
1.000067
1.0000679
1.0000669
1.000067
1.0000668
1.0000664
1.000066
1.0000659
1.0000655
1.000065
1.0000648
1.0000644
1.0000639
1.0000637
1.0000632
1.0000627
1.0000624
1.0000621
1.0000616
1.0000613
1.0000609
1.0000606
1.0000603
1.0000598
1.0000596
1.0000593
1.0000589
1.0000586
1.0000582
1.000058
1.0000577
1.0000574
1.0000571
1.0000569
1.0000567
1.0000564
1.0000561
1.0000558
1.0000555
1.0000552
1.0000547
1.0000542
1.0000536
1.0000527
1.0000517
1.0000504
1.0000488
1.0000468
1.0000447
1.0000424
1.0000402
1.0000384
1.0000372
1.0000367
1.0000371
1.0000382
1.00004
1.0000418
1.0000431
1.0000437
1.000044
1.0000444
1.0000455
1.0000476
1.0000506
1.0000547
1.0000596
1.000065
1.0000709
1.0000768
1.0000816
1.0000838
1.0000811
1.0000726
1.0000582
1.0000411
1.0000281
1.0000259
1.0000319
1.0000461
1.0000473
1.0000572
1.000097
0.99952992
1.0000424
1.0000669
1.000067
1.0000677
1.0000677
1.0000671
1.0000681
1.0000676
1.0000676
1.0000679
1.0000678
1.0000677
1.0000677
1.0000675
1.000068
1.0000665
1.0000678
1.0000666
1.0000669
1.0000665
1.0000663
1.000066
1.0000658
1.0000656
1.0000651
1.0000649
1.0000647
1.0000642
1.000064
1.0000636
1.0000632
1.000063
1.0000626
1.0000622
1.000062
1.0000616
1.0000613
1.0000609
1.0000606
1.0000603
1.00006
1.0000596
1.0000593
1.0000591
1.0000588
1.0000585
1.0000582
1.000058
1.0000578
1.0000575
1.0000572
1.000057
1.0000567
1.0000564
1.000056
1.0000555
1.000055
1.0000543
1.0000534
1.0000523
1.0000508
1.0000491
1.000047
1.0000446
1.0000421
1.0000398
1.0000379
1.0000366
1.0000361
1.0000366
1.000038
1.00004
1.000042
1.0000434
1.0000442
1.0000444
1.0000447
1.0000456
1.0000477
1.0000509
1.0000552
1.0000604
1.0000663
1.0000725
1.0000785
1.0000833
1.0000853
1.0000824
1.0000742
1.0000606
1.0000457
1.0000369
1.000039
1.0000401
1.0000349
1.0000239
1.0000513
1.0000648
0.99952884
1.000043
1.0000677
1.0000674
1.0000677
1.0000678
1.0000676
1.0000682
1.0000675
1.0000674
1.0000678
1.0000679
1.0000672
1.0000674
1.0000675
1.0000676
1.0000665
1.0000675
1.0000665
1.0000668
1.0000663
1.0000663
1.0000661
1.0000657
1.0000656
1.0000653
1.000065
1.0000648
1.0000645
1.0000641
1.0000639
1.0000635
1.0000633
1.000063
1.0000627
1.0000624
1.0000621
1.0000618
1.0000614
1.0000612
1.0000608
1.0000605
1.0000602
1.00006
1.0000597
1.0000594
1.0000592
1.0000589
1.0000587
1.0000584
1.0000581
1.0000579
1.0000577
1.0000573
1.000057
1.0000566
1.0000562
1.0000556
1.0000548
1.0000539
1.0000527
1.0000511
1.0000492
1.0000469
1.0000444
1.0000417
1.0000392
1.0000372
1.0000359
1.0000355
1.0000361
1.0000377
1.00004
1.0000422
1.0000438
1.0000445
1.0000447
1.0000448
1.0000456
1.0000476
1.0000509
1.0000555
1.0000611
1.0000673
1.0000738
1.0000798
1.0000845
1.0000866
1.0000841
1.0000768
1.0000643
1.0000509
1.0000442
1.0000482
1.0000494
1.0000395
1.0000138
0.99998777
1.0000025
0.99952783
1.0000425
1.0000673
1.0000671
1.000067
1.0000671
1.0000671
1.0000676
1.0000669
1.0000667
1.0000672
1.0000673
1.0000666
1.0000666
1.0000668
1.0000669
1.0000661
1.0000667
1.000066
1.0000663
1.0000657
1.0000657
1.0000656
1.0000653
1.0000651
1.0000649
1.0000647
1.0000644
1.0000642
1.0000639
1.0000637
1.0000634
1.0000631
1.0000629
1.0000626
1.0000623
1.000062
1.0000617
1.0000614
1.0000611
1.0000609
1.0000606
1.0000604
1.0000601
1.0000598
1.0000595
1.0000593
1.0000591
1.0000589
1.0000585
1.0000583
1.0000581
1.0000579
1.0000575
1.0000572
1.0000568
1.0000563
1.0000557
1.0000549
1.0000539
1.0000526
1.000051
1.0000489
1.0000465
1.0000438
1.0000409
1.0000383
1.0000361
1.0000348
1.0000343
1.000035
1.0000369
1.0000395
1.000042
1.0000437
1.0000444
1.0000444
1.0000443
1.0000449
1.0000468
1.0000501
1.000055
1.000061
1.0000675
1.0000741
1.0000802
1.0000849
1.0000873
1.0000855
1.0000797
1.0000686
1.000056
1.0000484
1.0000505
1.0000555
1.0000562
1.0000393
0.99999843
1.0000093
0.99952721
1.0000419
1.0000665
1.0000665
1.0000664
1.0000664
1.0000665
1.0000668
1.0000663
1.0000661
1.0000665
1.0000665
1.0000661
1.000066
1.000066
1.0000662
1.0000656
1.000066
1.0000654
1.0000658
1.0000654
1.0000651
1.0000651
1.000065
1.0000647
1.0000645
1.0000645
1.0000641
1.0000639
1.0000638
1.0000634
1.0000632
1.000063
1.0000627
1.0000625
1.0000622
1.0000619
1.0000617
1.0000615
1.0000611
1.0000609
1.0000606
1.0000604
1.0000601
1.0000599
1.0000596
1.0000595
1.0000592
1.000059
1.0000587
1.0000585
1.0000582
1.000058
1.0000577
1.0000573
1.0000569
1.0000564
1.0000558
1.0000549
1.0000539
1.0000525
1.0000508
1.0000486
1.000046
1.0000431
1.0000401
1.0000373
1.000035
1.0000335
1.0000331
1.0000339
1.000036
1.0000388
1.0000416
1.0000434
1.0000442
1.0000441
1.0000437
1.0000441
1.0000457
1.0000491
1.0000542
1.0000605
1.0000673
1.0000741
1.0000803
1.000085
1.0000879
1.0000871
1.0000825
1.000073
1.0000613
1.0000528
1.0000512
1.0000533
1.0000542
1.0000465
1.0000341
1.0000351
0.99952675
1.0000413
1.0000658
1.0000659
1.0000659
1.0000658
1.0000658
1.0000662
1.0000658
1.0000656
1.0000658
1.0000658
1.0000656
1.0000655
1.0000654
1.0000656
1.0000651
1.0000654
1.0000649
1.0000652
1.0000649
1.0000647
1.0000646
1.0000645
1.0000642
1.0000641
1.000064
1.0000638
1.0000635
1.0000634
1.0000631
1.0000629
1.0000628
1.0000625
1.0000622
1.0000621
1.0000618
1.0000615
1.0000614
1.000061
1.0000609
1.0000606
1.0000604
1.0000602
1.0000599
1.0000597
1.0000595
1.0000592
1.000059
1.0000588
1.0000586
1.0000584
1.0000581
1.0000577
1.0000574
1.000057
1.0000565
1.0000558
1.0000549
1.0000538
1.0000524
1.0000506
1.0000483
1.0000456
1.0000425
1.0000393
1.0000363
1.0000338
1.0000323
1.0000319
1.0000328
1.000035
1.0000382
1.0000411
1.0000431
1.0000439
1.0000437
1.0000431
1.0000431
1.0000445
1.0000478
1.000053
1.0000597
1.0000668
1.000074
1.0000803
1.0000852
1.0000883
1.0000883
1.000085
1.000077
1.0000666
1.0000586
1.0000538
1.0000481
1.0000427
1.000043
1.000072
1.0000595
0.99952614
1.0000405
1.000065
1.0000652
1.0000652
1.0000651
1.0000651
1.0000654
1.0000651
1.0000649
1.0000651
1.0000651
1.0000649
1.0000649
1.0000648
1.000065
1.0000645
1.0000648
1.0000643
1.0000646
1.0000644
1.0000642
1.0000641
1.0000641
1.0000638
1.0000636
1.0000636
1.0000634
1.0000631
1.000063
1.0000628
1.0000625
1.0000624
1.0000622
1.000062
1.0000618
1.0000616
1.0000613
1.0000612
1.0000609
1.0000607
1.0000606
1.0000603
1.0000602
1.0000599
1.0000597
1.0000594
1.0000592
1.000059
1.0000588
1.0000586
1.0000584
1.000058
1.0000578
1.0000574
1.000057
1.0000565
1.0000558
1.0000549
1.0000538
1.0000523
1.0000503
1.000048
1.0000451
1.0000419
1.0000385
1.0000353
1.0000327
1.0000312
1.0000307
1.0000317
1.0000341
1.0000375
1.0000407
1.0000428
1.0000436
1.0000433
1.0000424
1.0000421
1.0000432
1.0000462
1.0000515
1.0000585
1.0000661
1.0000737
1.0000805
1.0000855
1.0000886
1.0000888
1.0000862
1.0000797
1.0000712
1.0000646
1.0000598
1.0000506
1.0000366
1.0000326
1.0000463
1.0000581
0.9995258
1.0000402
1.0000647
1.0000648
1.0000648
1.0000648
1.0000648
1.000065
1.0000647
1.0000646
1.0000648
1.0000648
1.0000646
1.0000645
1.0000645
1.0000646
1.0000642
1.0000645
1.0000641
1.0000642
1.000064
1.0000639
1.0000638
1.0000637
1.0000635
1.0000634
1.0000633
1.0000631
1.0000629
1.0000628
1.0000626
1.0000624
1.0000622
1.000062
1.0000618
1.0000617
1.0000615
1.0000613
1.0000611
1.0000609
1.0000607
1.0000606
1.0000603
1.0000601
1.0000599
1.0000597
1.0000594
1.0000593
1.0000591
1.0000589
1.0000587
1.0000584
1.0000581
1.0000578
1.0000575
1.0000571
1.0000566
1.0000558
1.000055
1.0000538
1.0000522
1.0000502
1.0000478
1.0000448
1.0000414
1.0000378
1.0000345
1.0000318
1.0000301
1.0000296
1.0000306
1.0000331
1.0000367
1.0000402
1.0000426
1.0000435
1.000043
1.0000419
1.0000412
1.0000419
1.0000446
1.0000498
1.0000571
1.0000653
1.0000736
1.000081
1.0000862
1.0000889
1.0000885
1.0000857
1.00008
1.0000739
1.0000705
1.0000678
1.000059
1.0000482
1.0000523
1.000085
1.0001092
0.99952533
1.0000396
1.0000642
1.0000643
1.0000643
1.0000643
1.0000643
1.0000645
1.0000642
1.0000641
1.0000642
1.0000643
1.0000641
1.000064
1.000064
1.0000641
1.0000637
1.0000639
1.0000636
1.0000637
1.0000635
1.0000634
1.0000633
1.0000632
1.000063
1.0000629
1.0000628
1.0000627
1.0000625
1.0000624
1.0000623
1.0000621
1.000062
1.0000618
1.0000616
1.0000615
1.0000613
1.0000611
1.000061
1.0000608
1.0000606
1.0000604
1.0000601
1.00006
1.0000598
1.0000596
1.0000594
1.0000592
1.0000591
1.0000588
1.0000586
1.0000583
1.0000581
1.0000578
1.0000575
1.0000571
1.0000565
1.0000558
1.000055
1.0000537
1.0000521
1.0000501
1.0000476
1.0000445
1.0000409
1.0000372
1.0000337
1.0000308
1.000029
1.0000284
1.0000294
1.0000321
1.0000359
1.0000397
1.0000422
1.0000432
1.0000428
1.0000413
1.0000402
1.0000404
1.0000428
1.0000479
1.0000554
1.0000643
1.0000734
1.0000817
1.0000871
1.0000893
1.0000877
1.0000838
1.0000775
1.0000733
1.0000742
1.0000772
1.0000771
1.0000829
1.0000858
1.0001306
1.0001563
0.99952472
1.000039
1.0000635
1.0000637
1.0000637
1.0000636
1.0000636
1.0000639
1.0000636
1.0000635
1.0000636
1.0000636
1.0000635
1.0000634
1.0000634
1.0000635
1.0000631
1.0000633
1.000063
1.0000632
1.000063
1.0000629
1.0000629
1.0000628
1.0000626
1.0000625
1.0000625
1.0000623
1.0000622
1.0000622
1.000062
1.0000618
1.0000618
1.0000616
1.0000614
1.0000613
1.0000612
1.000061
1.0000608
1.0000606
1.0000604
1.0000603
1.0000601
1.0000599
1.0000597
1.0000596
1.0000594
1.0000592
1.000059
1.0000587
1.0000586
1.0000583
1.0000582
1.0000579
1.0000576
1.0000571
1.0000565
1.0000559
1.000055
1.0000537
1.0000521
1.00005
1.0000474
1.0000442
1.0000406
1.0000367
1.000033
1.00003
1.000028
1.0000273
1.0000283
1.0000311
1.0000351
1.0000391
1.0000419
1.000043
1.0000426
1.0000409
1.0000393
1.0000389
1.0000408
1.0000456
1.0000534
1.000063
1.000073
1.0000822
1.0000881
1.0000898
1.0000869
1.0000815
1.0000738
1.0000704
1.0000746
1.0000843
1.0000923
1.0001167
1.0001142
1.0001333
1.0001389
0.99952451
1.0000388
1.0000633
1.0000634
1.0000635
1.0000634
1.0000634
1.0000636
1.0000634
1.0000633
1.0000634
1.0000634
1.0000633
1.0000632
1.0000632
1.0000633
1.000063
1.0000632
1.0000629
1.0000631
1.0000629
1.0000628
1.0000628
1.0000627
1.0000625
1.0000625
1.0000624
1.0000623
1.0000621
1.0000621
1.0000619
1.0000618
1.0000617
1.0000615
1.0000614
1.0000613
1.0000611
1.0000609
1.0000608
1.0000606
1.0000604
1.0000603
1.0000601
1.00006
1.0000598
1.0000596
1.0000594
1.0000592
1.000059
1.0000588
1.0000587
1.0000585
1.0000583
1.000058
1.0000577
1.0000572
1.0000567
1.000056
1.0000551
1.0000538
1.0000522
1.0000501
1.0000474
1.0000441
1.0000404
1.0000364
1.0000325
1.0000293
1.0000271
1.0000263
1.0000273
1.0000301
1.0000344
1.0000386
1.0000416
1.0000429
1.0000425
1.0000408
1.0000387
1.0000377
1.000039
1.0000434
1.0000512
1.0000615
1.0000723
1.0000825
1.000089
1.0000905
1.0000866
1.0000797
1.0000708
1.0000683
1.0000746
1.0000886
1.0000962
1.0001338
1.0001357
1.0001866
1.0001657
0.99952411
1.0000383
1.0000628
1.000063
1.000063
1.000063
1.000063
1.0000632
1.0000629
1.0000629
1.000063
1.000063
1.0000629
1.0000628
1.0000628
1.0000629
1.0000626
1.0000628
1.0000625
1.0000627
1.0000625
1.0000624
1.0000624
1.0000623
1.0000622
1.0000621
1.0000621
1.000062
1.0000618
1.0000618
1.0000616
1.0000615
1.0000614
1.0000613
1.0000611
1.000061
1.0000609
1.0000607
1.0000606
1.0000604
1.0000603
1.0000601
1.0000599
1.0000598
1.0000596
1.0000595
1.0000593
1.0000591
1.000059
1.0000588
1.0000587
1.0000585
1.0000582
1.0000579
1.0000576
1.0000572
1.0000567
1.000056
1.0000551
1.0000538
1.0000521
1.00005
1.0000473
1.000044
1.0000401
1.000036
1.0000319
1.0000286
1.0000263
1.0000253
1.0000262
1.0000291
1.0000335
1.000038
1.0000412
1.0000427
1.0000425
1.0000406
1.0000381
1.0000365
1.0000372
1.000041
1.0000486
1.0000593
1.0000709
1.0000818
1.0000889
1.0000908
1.0000865
1.0000788
1.0000692
1.0000677
1.0000762
1.0000953
1.000097
1.0001166
1.0001169
1.000154
1.0001407
0.9995236
1.0000378
1.0000623
1.0000625
1.0000625
1.0000624
1.0000625
1.0000626
1.0000624
1.0000624
1.0000625
1.0000625
1.0000624
1.0000623
1.0000623
1.0000624
1.0000622
1.0000623
1.0000621
1.0000622
1.0000621
1.000062
1.000062
1.000062
1.0000618
1.0000618
1.0000618
1.0000616
1.0000615
1.0000615
1.0000613
1.0000612
1.0000611
1.000061
1.0000608
1.0000608
1.0000606
1.0000604
1.0000603
1.0000602
1.00006
1.0000599
1.0000597
1.0000596
1.0000595
1.0000593
1.0000592
1.0000591
1.0000589
1.0000587
1.0000586
1.0000583
1.0000581
1.0000579
1.0000576
1.0000572
1.0000567
1.000056
1.000055
1.0000537
1.0000521
1.0000499
1.0000472
1.0000439
1.0000399
1.0000357
1.0000315
1.0000279
1.0000254
1.0000243
1.000025
1.0000279
1.0000325
1.0000372
1.0000407
1.0000425
1.0000423
1.0000404
1.0000376
1.0000355
1.0000354
1.0000386
1.0000458
1.0000565
1.0000685
1.0000799
1.0000878
1.0000905
1.0000869
1.0000798
1.0000703
1.0000693
1.0000764
1.0001014
1.0001059
1.0001245
1.0001179
1.0001344
1.0001476
0.99952359
1.0000377
1.0000622
1.0000624
1.0000625
1.0000624
1.0000624
1.0000626
1.0000624
1.0000623
1.0000624
1.0000625
1.0000623
1.0000623
1.0000623
1.0000624
1.0000621
1.0000623
1.0000621
1.0000622
1.0000621
1.000062
1.000062
1.0000619
1.0000618
1.0000617
1.0000617
1.0000616
1.0000614
1.0000614
1.0000613
1.0000611
1.000061
1.0000609
1.0000608
1.0000607
1.0000605
1.0000604
1.0000603
1.0000602
1.0000601
1.0000599
1.0000598
1.0000597
1.0000595
1.0000594
1.0000593
1.0000591
1.000059
1.0000588
1.0000586
1.0000584
1.0000582
1.000058
1.0000577
1.0000573
1.0000568
1.0000561
1.0000551
1.0000539
1.0000522
1.0000501
1.0000473
1.0000439
1.0000399
1.0000355
1.0000312
1.0000275
1.0000248
1.0000235
1.0000241
1.000027
1.0000316
1.0000365
1.0000403
1.0000424
1.0000425
1.0000406
1.0000376
1.0000349
1.0000342
1.0000366
1.0000432
1.0000535
1.0000656
1.0000771
1.0000858
1.0000898
1.000088
1.0000831
1.0000752
1.0000744
1.0000777
1.0001022
1.0001105
1.0001353
1.000127
1.0000866
1.0000877
0.9995233
1.0000374
1.0000619
1.0000621
1.0000621
1.0000621
1.0000621
1.0000623
1.0000621
1.000062
1.0000621
1.0000621
1.000062
1.0000619
1.000062
1.000062
1.0000618
1.0000619
1.0000617
1.0000618
1.0000617
1.0000616
1.0000616
1.0000616
1.0000614
1.0000614
1.0000613
1.0000612
1.0000611
1.0000611
1.000061
1.0000608
1.0000608
1.0000607
1.0000606
1.0000605
1.0000604
1.0000603
1.0000602
1.0000601
1.00006
1.0000599
1.0000597
1.0000596
1.0000595
1.0000594
1.0000592
1.0000591
1.0000589
1.0000587
1.0000586
1.0000584
1.0000583
1.000058
1.0000577
1.0000573
1.0000568
1.0000561
1.0000552
1.0000539
1.0000523
1.0000502
1.0000474
1.0000439
1.0000399
1.0000355
1.000031
1.0000272
1.0000242
1.0000228
1.0000232
1.000026
1.0000307
1.0000358
1.0000398
1.0000421
1.0000425
1.0000408
1.0000376
1.0000345
1.0000331
1.0000347
1.0000403
1.00005
1.0000617
1.0000733
1.0000826
1.0000881
1.0000883
1.0000864
1.0000814
1.0000835
1.0000849
1.0001019
1.0001059
1.0001154
1.0001104
1.0000989
1.0000801
0.99952261
1.0000367
1.0000612
1.0000614
1.0000614
1.0000614
1.0000614
1.0000616
1.0000614
1.0000613
1.0000614
1.0000614
1.0000613
1.0000613
1.0000613
1.0000614
1.0000611
1.0000613
1.0000611
1.0000612
1.0000611
1.000061
1.000061
1.000061
1.0000609
1.0000608
1.0000608
1.0000607
1.0000607
1.0000607
1.0000606
1.0000605
1.0000604
1.0000604
1.0000603
1.0000602
1.0000601
1.00006
1.0000599
1.0000598
1.0000597
1.0000596
1.0000594
1.0000594
1.0000592
1.0000591
1.000059
1.0000589
1.0000588
1.0000586
1.0000585
1.0000583
1.0000581
1.0000579
1.0000576
1.0000572
1.0000567
1.000056
1.0000551
1.0000539
1.0000523
1.0000501
1.0000474
1.0000439
1.0000398
1.0000354
1.0000308
1.0000268
1.0000237
1.000022
1.0000223
1.000025
1.0000296
1.0000349
1.0000391
1.0000418
1.0000424
1.0000409
1.0000377
1.0000342
1.0000321
1.0000328
1.0000374
1.0000461
1.0000571
1.0000685
1.0000783
1.0000851
1.0000873
1.0000882
1.0000865
1.0000925
1.0000965
1.0001092
1.000108
1.0001084
1.0000984
1.0000478
1.000035
0.99952249
1.0000366
1.0000611
1.0000613
1.0000613
1.0000613
1.0000613
1.0000614
1.0000612
1.0000612
1.0000613
1.0000613
1.0000612
1.0000612
1.0000612
1.0000613
1.0000611
1.0000612
1.000061
1.0000611
1.000061
1.000061
1.000061
1.000061
1.0000609
1.0000608
1.0000608
1.0000607
1.0000606
1.0000606
1.0000605
1.0000604
1.0000604
1.0000603
1.0000602
1.0000602
1.00006
1.0000599
1.0000599
1.0000597
1.0000596
1.0000595
1.0000594
1.0000593
1.0000592
1.0000591
1.000059
1.0000589
1.0000588
1.0000586
1.0000585
1.0000583
1.0000582
1.0000579
1.0000576
1.0000572
1.0000567
1.000056
1.0000552
1.000054
1.0000524
1.0000502
1.0000474
1.000044
1.0000399
1.0000354
1.0000308
1.0000266
1.0000233
1.0000215
1.0000216
1.0000242
1.0000288
1.0000342
1.0000386
1.0000415
1.0000425
1.0000412
1.000038
1.0000343
1.0000316
1.0000315
1.0000351
1.0000426
1.0000527
1.0000636
1.0000734
1.0000814
1.0000856
1.0000893
1.0000908
1.000101
1.0001067
1.0001186
1.0001184
1.0001176
1.0001052
1.0000802
1.0001176
0.99952247
1.0000365
1.000061
1.0000612
1.0000613
1.0000612
1.0000612
1.0000614
1.0000612
1.0000612
1.0000613
1.0000613
1.0000612
1.0000611
1.0000612
1.0000612
1.000061
1.0000612
1.000061
1.0000611
1.000061
1.0000609
1.0000609
1.0000609
1.0000608
1.0000608
1.0000607
1.0000606
1.0000606
1.0000605
1.0000604
1.0000603
1.0000603
1.0000602
1.0000601
1.0000601
1.00006
1.0000599
1.0000598
1.0000597
1.0000596
1.0000596
1.0000595
1.0000594
1.0000593
1.0000592
1.0000591
1.000059
1.0000588
1.0000587
1.0000585
1.0000584
1.0000582
1.0000579
1.0000577
1.0000573
1.0000568
1.0000561
1.0000553
1.0000541
1.0000525
1.0000503
1.0000476
1.0000442
1.0000401
1.0000356
1.0000308
1.0000265
1.0000231
1.0000211
1.0000211
1.0000235
1.000028
1.0000335
1.0000381
1.0000413
1.0000426
1.0000416
1.0000385
1.0000346
1.0000314
1.0000306
1.0000333
1.0000397
1.0000485
1.0000583
1.0000677
1.0000762
1.0000823
1.0000895
1.0000946
1.0001088
1.0001154
1.0001269
1.000125
1.0001213
1.0001074
1.0000848
1.0000925
0.99952184
1.0000359
1.0000604
1.0000606
1.0000606
1.0000606
1.0000606
1.0000607
1.0000606
1.0000605
1.0000606
1.0000606
1.0000606
1.0000605
1.0000605
1.0000606
1.0000604
1.0000605
1.0000604
1.0000605
1.0000604
1.0000603
1.0000603
1.0000603
1.0000602
1.0000602
1.0000602
1.0000601
1.00006
1.00006
1.00006
1.0000599
1.0000599
1.0000598
1.0000597
1.0000597
1.0000596
1.0000596
1.0000595
1.0000594
1.0000594
1.0000593
1.0000592
1.0000592
1.000059
1.0000589
1.0000588
1.0000587
1.0000586
1.0000584
1.0000583
1.0000581
1.000058
1.0000577
1.0000575
1.0000571
1.0000567
1.0000561
1.0000552
1.000054
1.0000524
1.0000503
1.0000476
1.0000442
1.0000402
1.0000356
1.0000308
1.0000264
1.0000228
1.0000206
1.0000204
1.0000226
1.000027
1.0000325
1.0000374
1.0000408
1.0000423
1.0000417
1.0000387
1.0000346
1.0000311
1.0000297
1.0000316
1.000037
1.0000444
1.0000527
1.0000608
1.0000689
1.0000768
1.0000874
1.0000975
1.0001153
1.0001237
1.0001329
1.0001245
1.000108
1.0000894
1.0001332
1.000117
0.99952144
1.0000354
1.0000599
1.0000602
1.0000602
1.0000602
1.0000602
1.0000603
1.0000601
1.0000601
1.0000602
1.0000602
1.0000601
1.0000601
1.0000601
1.0000602
1.00006
1.0000601
1.00006
1.0000601
1.00006
1.0000599
1.00006
1.00006
1.0000599
1.0000599
1.0000599
1.0000598
1.0000598
1.0000598
1.0000597
1.0000597
1.0000597
1.0000596
1.0000595
1.0000595
1.0000595
1.0000594
1.0000593
1.0000592
1.0000592
1.0000591
1.000059
1.0000589
1.0000588
1.0000587
1.0000586
1.0000585
1.0000584
1.0000582
1.0000581
1.000058
1.0000578
1.0000576
1.0000573
1.000057
1.0000566
1.0000559
1.0000551
1.0000539
1.0000523
1.0000503
1.0000476
1.0000443
1.0000402
1.0000357
1.0000308
1.0000263
1.0000227
1.0000203
1.0000199
1.0000219
1.0000262
1.0000317
1.0000366
1.0000403
1.0000421
1.0000418
1.000039
1.0000349
1.000031
1.0000291
1.0000304
1.000035
1.0000412
1.0000478
1.0000539
1.0000607
1.0000695
1.0000833
1.0000991
1.0001214
1.0001329
1.0001383
1.0001241
1.0001032
1.0000855
1.0000996
1.0000785
0.99952172
1.0000357
1.0000602
1.0000604
1.0000604
1.0000604
1.0000604
1.0000606
1.0000604
1.0000604
1.0000604
1.0000605
1.0000604
1.0000603
1.0000604
1.0000604
1.0000603
1.0000604
1.0000603
1.0000604
1.0000603
1.0000602
1.0000603
1.0000603
1.0000602
1.0000602
1.0000602
1.0000601
1.0000601
1.0000601
1.00006
1.0000599
1.0000599
1.0000598
1.0000597
1.0000597
1.0000596
1.0000595
1.0000594
1.0000593
1.0000592
1.0000591
1.000059
1.000059
1.0000588
1.0000588
1.0000587
1.0000586
1.0000585
1.0000583
1.0000582
1.0000581
1.0000579
1.0000577
1.0000575
1.0000571
1.0000567
1.000056
1.0000552
1.000054
1.0000525
1.0000505
1.0000479
1.0000445
1.0000405
1.000036
1.0000311
1.0000266