/*--------------------------------*- C++ -*----------------------------------*\
| =========                 |                                                 |
| \\      /  F ield         | OpenFOAM: The Open Source CFD Toolbox           |
|  \\    /   O peration     | Version:  2406                                  |
|   \\  /    A nd           | Website:  www.openfoam.com                      |
|    \\/     M anipulation  |                                                 |
\*---------------------------------------------------------------------------*/
FoamFile
{
    version     2.0;
    format      ascii;
    arch        "LSB;label=32;scalar=64";
    class       volScalarField;
    location    "5";
    object      rho;
}
// * * * * * * * * * * * * * * * * * * * * * * * * * * * * * * * * * * * * * //

dimensions      [1 -3 0 0 0 0 0];

internalField   nonuniform List<scalar> 
62344
(
1.0005054
0.99878169
0.99627511
0.99354315
0.98947435
0.98628583
0.98670385
0.98168164
0.97432585
0.97279753
0.97123439
0.96814859
0.96761611
0.96808572
0.97209916
0.97785193
0.98820009
0.9947236
0.9961234
0.99911552
1.0001791
1.0049696
1.0067403
1.0167839
1.0115627
1.0153758
1.0221119
1.0090642
1.0071302
1.0203601
1.02152
1.0078776
1.0065963
1.0181752
1.0210631
1.0067168
0.99647362
1.0086847
1.0331544
1.0474914
1.0354126
1.0105783
1.0014731
1.0092652
1.0208085
1.0340383
1.0477116
1.0581491
1.0612629
1.0514839
1.0310627
1.010164
0.99908561
1.0025906
1.0165769
1.0005575
0.99974988
0.99615826
0.99415119
0.99242946
0.98778986
0.98627416
0.98224015
0.97492826
0.97048425
0.96985672
0.96877771
0.96990432
0.96866688
0.97252751
0.97567385
0.98623969
0.99336276
0.99468792
0.99769938
1.0010895
1.0044519
1.0059282
1.0161763
1.0118254
1.0158412
1.0187041
1.0041134
1.0048361
1.0201653
1.0192051
1.0052801
1.005495
1.0193947
1.0229548
1.0064745
0.99496615
1.0087175
1.0347591
1.0467445
1.0278102
1.0022544
0.99786885
1.0107548
1.0280915
1.0410446
1.0415366
1.0391321
1.0437202
1.0493238
1.0428136
1.0243158
1.0045497
0.99493223
0.9996174
1.000707
0.99996335
0.99590729
0.9927277
0.99347358
0.99168797
0.98590384
0.97927821
0.97611895
0.97250658
0.96883081
0.96774196
0.96988297
0.96799412
0.9724549
0.97456446
0.98536358
0.99291973
0.99507519
0.99742265
1.001531
1.004948
1.0079771
1.0160978
1.0123456
1.0164222
1.015122
1.0010879
1.0045945
1.0190876
1.0167289
1.0019969
1.0050478
1.0218399
1.0261253
1.008907
0.99635084
1.007048
1.0292301
1.0387175
1.021029
0.99853849
0.99881208
1.0159555
1.0382517
1.0475936
1.0392269
1.0267344
1.0236718
1.0348719
1.044915
1.0412171
1.0271062
1.0083954
0.99723706
1.0010725
0.99995139
0.99687491
0.99270286
0.99191763
0.99280733
0.98685719
0.97837402
0.97621761
0.97470791
0.97015266
0.96725853
0.96661992
0.96444422
0.96981571
0.9724838
0.98209526
0.9902277
0.99533712
0.99787738
1.0021999
1.0051707
1.009468
1.0152772
1.011417
1.0157303
1.0101251
0.99887431
1.0055157
1.0179373
1.0134181
0.99913142
1.0036572
1.0215759
1.0263663
1.011089
0.99927322
1.0071003
1.0231719
1.0288993
1.0149312
0.99702685
0.99909178
1.0180336
1.0442412
1.0562593
1.043141
1.0235446
1.0103453
1.0121325
1.0267065
1.0401905
1.0425267
1.0355689
1.0221667
1.0012517
1.0003611
0.99858688
0.99478291
0.99081979
0.99029425
0.98720565
0.98100778
0.9765359
0.97356775
0.96979855
0.96672618
0.96347764
0.96120415
0.96648739
0.96992303
0.97804225
0.98618097
0.99400709
0.99754149
1.0029597
1.0056113
1.0112805
1.0147355
1.0099969
1.0141544
1.0056039
0.99781313
1.0072529
1.0169471
1.0099511
0.99631726
1.0027131
1.0189949
1.0225149
1.0100355
1.001595
1.0092378
1.0210032
1.0233341
1.0116123
0.99795664
1.0004686
1.0165103
1.040445
1.0560811
1.0492516
1.0293718
1.0089035
0.99786778
1.0025487
1.0200325
1.0395913
1.0499694
1.0501176
1.001176
1.001057
0.99994144
0.99736712
0.99217808
0.98849211
0.98624131
0.98345558
0.97814058
0.97177642
0.96757387
0.96589994
0.96292872
0.96169915
0.96480311
0.96829158
0.9753597
0.98306211
0.99255069
0.99652298
1.002872
1.0059741
1.0126136
1.0136599
1.0086997
1.0119174
1.0020043
0.99778875
1.0087387
1.0152066
1.0062117
0.99473658
1.0020326
1.0160604
1.0169121
1.0057014
1.0023481
1.0119614
1.0214278
1.021198
1.0119046
1.0025356
1.0051084
1.016434
1.0298235
1.0417395
1.0465563
1.0367404
1.0177999
0.99877684
0.99153084
0.99866377
1.0175885
1.0407043
1.0578517
1.0011251
1.0018669
1.0006962
0.99916524
0.9951227
0.98954676
0.98529109
0.9838168
0.97954768
0.97185116
0.96661417
0.96537299
0.96316643
0.96328121
0.96420177
0.96671545
0.97308953
0.98056757
0.99139659
0.99559966
1.0023322
1.006063
1.0130513
1.0114553
1.0074593
1.0099786
0.998971
0.99840364
1.0095276
1.0125582
1.0016691
0.99373107
1.0019594
1.0140672
1.0121001
1.0010587
1.0013147
1.0133883
1.0218465
1.0191029
1.0128207
1.0093248
1.0117502
1.0182125
1.0211041
1.0226635
1.0310745
1.0364829
1.0274328
1.0110827
0.99628131
0.99261
1.0006413
1.01848
1.0440155
1.0013268
1.0025732
1.0008447
1.0002615
0.99776065
0.99210489
0.98615986
0.98316252
0.97934772
0.97334479
0.9680922
0.96561741
0.96282771
0.96388581
0.96334533
0.96506627
0.97128056
0.97901035
0.9902748
0.99563265
1.0026038
1.0071439
1.0133642
1.00958
1.0071875
1.0085575
0.99722487
0.99925144
1.0103093
1.0093524
0.99687964
0.99278429
1.0028358
1.0133841
1.0086046
0.99814475
0.99999715
1.0137407
1.0216133
1.0157376
1.0103885
1.0137738
1.019322
1.0223555
1.0182941
1.0104265
1.011975
1.0232288
1.0283507
1.0225599
1.0114411
1.0000444
0.9982673
1.0057755
1.0239054
1.0017104
1.0030356
1.0008129
1.0008008
0.99919747
0.99423227
0.98866732
0.98375582
0.97863068
0.97427655
0.97033164
0.96675911
0.96273489
0.96349183
0.96219607
0.96391464
0.97025911
0.97827604
0.9889781
0.99635031
1.0039594
1.0087629
1.0138776
1.0090354
1.007965
1.0079822
0.99654951
1.0001797
1.0103907
1.0063114
0.99210997
0.99140269
1.0044675
1.0138021
1.006374
0.99701694
1.0003612
1.0145855
1.021339
1.0121179
1.0041298
1.0118829
1.0246756
1.0286432
1.0210527
1.0079338
0.99977589
1.0043537
1.0169579
1.0249938
1.0242693
1.0170724
1.008831
1.0063737
1.0133498
1.002025
1.0033018
1.0009912
1.0010152
0.99956587
0.99525961
0.99133344
0.9859926
0.97882897
0.9742423
0.97160549
0.96773085
0.96352202
0.96335572
0.96156028
0.96353174
0.96971654
0.97796334
0.98743162
0.99648546
1.0055599
1.010172
1.014268
1.0092155
1.0096388
1.0083321
0.99683985
1.0007086
1.0098624
1.0035817
0.9880907
0.98979731
1.0058258
1.0144502
1.0049581
0.99590367
1.0017955
1.0167862
1.0219135
1.0103602
0.99752669
1.004369
1.0236061
1.0343623
1.028293
1.0128795
0.99825854
0.99189579
1.000125
1.0157462
1.0269306
1.0294233
1.0262348
1.0201903
1.0160441
1.0021824
1.0033989
1.0014725
1.0010478
0.99957218
0.99571227
0.99296435
0.98844142
0.98019064
0.97411849
0.97143548
0.96759171
0.9644532
0.96370573
0.96183883
0.96355996
0.96911889
0.97741517
0.98554441
0.99530181
1.006019
1.0104827
1.0136777
1.0091659
1.0111081
1.0086067
0.99717774
1.000629
1.0086815
1.001177
0.98534462
0.98816932
1.0064529
1.014511
1.0036708
0.99410776
1.0031853
1.0201286
1.0239563
1.0108318
0.99391788
0.99630136
1.0162624
1.0352712
1.0360165
1.0230191
1.0048506
0.99054259
0.98815983
1.0000366
1.0172297
1.0306494
1.0378727
1.0387379
1.0316634
1.0021152
1.0035215
1.0021535
1.0010548
0.99958915
0.99647952
0.99360444
0.98960818
0.98165885
0.97464481
0.97075688
0.96640142
0.96484988
0.96390989
0.96242915
0.96335192
0.96781046
0.97580258
0.98322161
0.99308644
1.0053595
1.0096468
1.0126596
1.0091305
1.0116951
1.0081614
0.99724714
0.99970061
1.0069483
0.99932683
0.98364261
0.98719
1.0063488
1.0139882
1.0022896
0.99107193
1.002793
1.0224579
1.0273894
1.0134103
0.99371728
0.99140937
1.0072274
1.0295211
1.0408011
1.0337781
1.0162454
0.99689595
0.98596611
0.98787787
1.0004429
1.0201004
1.0381979
1.0502319
1.0506814
1.0019294
1.0036941
1.0029506
1.0011346
0.99969837
0.99762957
0.99388778
0.98930477
0.9823131
0.97576928
0.97061433
0.9652215
0.96464284
0.96341145
0.9625451
0.9625803
0.96560449
0.97320974
0.98073185
0.99064949
1.0041415
1.0084339
1.0115715
1.0091623
1.0115414
1.0071389
0.99694589
0.99837313
1.0049452
0.99765141
0.98275897
0.98678619
1.0059486
1.0135586
1.000463
0.98791683
1.0003057
1.0226561
1.0309726
1.017208
0.99571949
0.990582
1.0014908
1.0202715
1.0395218
1.0410894
1.0278092
1.0077658
0.99096943
0.98370217
0.98799025
1.0034062
1.0274754
1.0492486
1.0602794
1.0017945
1.004042
1.0037461
1.0014104
0.99999734
0.99896753
0.99423545
0.98838732
0.98197074
0.97679249
0.97127828
0.96511753
0.96425152
0.96216329
0.96173082
0.96138268
0.96304415
0.97027856
0.97863885
0.98874696
1.0029704
1.0075906
1.0110637
1.0094862
1.0110262
1.0057133
0.99673244
0.99719376
1.003069
0.99611484
0.98260157
0.98686834
1.005165
1.0134147
0.99885078
0.98544135
0.99670899
1.0204134
1.0332855
1.0207457
0.99883002
0.99277619
0.99964883
1.0126627
1.0321474
1.042576
1.0353744
1.0194069
0.99961604
0.98643102
0.98306876
0.9917029
1.0111527
1.0374006
1.0570558
1.0017613
1.0044197
1.00451
1.001968
1.0005685
1.0001996
0.99469913
0.98762404
0.9810624
0.97725762
0.97233702
0.96600104
0.96409833
0.96071902
0.96037817
0.96016409
0.96107838
0.96783704
0.9772524
0.98765114
1.0020348
1.0073804
1.0116227
1.0102545
1.010533
1.0044347
0.99680729
0.99660875
1.0013542
0.99490906
0.9831655
0.98719861
1.0039616
1.0127541
0.99772492
0.98432005
0.99429045
1.0159691
1.0328935
1.0226538
1.0026936
0.99681749
1.000913
1.0089209
1.022308
1.0364245
1.0376033
1.0271486
1.0100478
0.9929082
0.98423668
0.98671087
0.9991498
1.0206004
1.0435971
1.0018485
1.0047987
1.0052353
1.0027749
1.0013287
1.0010523
0.99512895
0.98735845
0.98030539
0.9771396
0.97315883
0.9671099
0.96422148
0.95981728
0.95930666
0.95940131
0.96009063
0.96626603
0.97659454
0.98750555
1.0013513
1.0078206
1.013261
1.0115854
1.0102762
1.003725
0.99714833
0.99671175
0.99996115
0.99404633
0.98420534
0.98803617
1.0024815
1.0110973
0.99710047
0.98465069
0.99344474
1.0113153
1.0292233
1.0224784
1.006153
1.0020386
1.0040583
1.0088366
1.0152838
1.0248991
1.0330897
1.0297584
1.0184458
1.0014363
0.9892261
0.9866941
0.99366488
1.0075334
1.0261923
1.0019614
1.0051327
1.0058625
1.0036766
1.0020907
1.0014295
0.99554377
0.98766187
0.9802064
0.97671477
0.9732684
0.96777696
0.96442155
0.95973876
0.95908173
0.95937332
0.96004834
0.96545735
0.97633703
0.98806118
1.000896
1.0085673
1.0151428
1.0132936
1.0103652
1.0037679
0.99783122
0.99731162
0.99893654
0.99335664
0.98561486
0.98936982
1.0013926
1.0082022
0.99651517
0.98610414
0.99348711
1.0079877
1.0232976
1.020006
1.0086699
1.0073018
1.0082384
1.0111321
1.0122645
1.013765
1.021799
1.026964
1.021969
1.0097378
0.99675722
0.9903972
0.99280132
1.000511
1.0117612
1.0020686
1.0053272
1.0062823
1.0045426
1.002838
1.0014071
0.99581004
0.98839525
0.9808684
0.976336
0.97264191
0.96777632
0.96458484
0.96043578
0.95969286
0.9600221
0.96093686
0.96544734
0.97609417
0.98874991
1.0004567
1.0093757
1.0167138
1.0147921
1.010589
1.0041713
0.9986924
0.998407
0.99820672
0.99269843
0.98706557
0.99083449
1.0007144
1.0046643
0.99580892
0.98808071
0.99464096
1.0065338
1.0165399
1.0153381
1.0098738
1.0112575
1.012612
1.0145135
1.0128274
1.007021
1.0090092
1.0181908
1.0206638
1.0147372
1.0057927
0.99764932
0.99563329
0.99828802
1.0031198
1.0021338
1.0054133
1.006449
1.0052363
1.0034416
1.0011819
0.99591697
0.98929736
0.98201569
0.97626543
0.97172192
0.96736857
0.96458044
0.96140852
0.96077712
0.96108543
0.96221637
0.96577913
0.97570407
0.98898074
0.99993409
1.0101264
1.0175426
1.015834
1.0106892
1.0046566
0.9996209
0.99953454
0.99779291
0.99195674
0.98828818
0.99224631
1.0004732
1.0010326
0.99445845
0.99019441
0.99668351
1.0067564
1.0116593
1.0090955
1.0098106
1.0133035
1.0173112
1.0187286
1.0154582
1.0048628
1.0003078
1.0068005
1.0146505
1.015923
1.0130793
1.00747
1.0022533
1.0009057
1.0003333
1.0021609
1.0054114
1.0063765
1.0057498
1.0039576
1.0009025
0.99593706
0.99013319
0.9833278
0.97656515
0.97098078
0.96691476
0.96436114
0.96225269
0.96184855
0.96196567
0.96320259
0.96590308
0.97481939
0.98846629
0.9993972
1.0107004
1.0174162
1.0160204
1.0105414
1.0050227
1.0004604
1.0004297
0.99757739
0.99118867
0.98896806
0.99355479
1.000736
0.99765067
0.99253741
0.99206816
0.99868164
1.0082394
1.0087268
1.0028532
1.0078708
1.0143519
1.0208732
1.0237129
1.0191262
1.0062941
0.99620674
0.99717668
1.004867
1.0137821
1.0173888
1.0166849
1.0124208
1.0074904
1.0023285
1.002162
1.0053218
1.0061296
1.0060254
1.00433
1.0006562
0.9959256
0.99081392
0.98455533
0.97711615
0.97074962
0.96673124
0.96407502
0.96283417
0.96249078
0.96218069
0.96373033
0.96570575
0.97361408
0.98727928
0.99887054
1.0110459
1.0165811
1.0157477
1.0101901
1.0052352
1.0008962
1.0010316
0.99745593
0.99058254
0.98903457
0.99459998
1.0009678
0.99524842
0.98970827
0.9931261
1.0009562
1.0106556
1.00746
0.99797422
1.0038078
1.0148346
1.0233307
1.0291212
1.0236879
1.010187
0.99646143
0.99130598
0.99540842
1.0081526
1.0187997
1.0235313
1.0234789
1.0184773
1.0099465
1.0021101
1.0051769
1.0057867
1.0060904
1.0045516
1.0004487
0.99594976
0.99132852
0.98543989
0.97776303
0.97102288
0.96695655
0.96377921
0.96296579
0.96246833
0.96176226
0.96346453
0.96518801
0.97199188
0.98561116
0.99811912
1.0111454
1.0152261
1.0151099
1.0097091
1.0051591
1.0011402
1.0013532
0.99722794
0.99001151
0.98876929
0.99537696
1.001027
0.99372105
0.98647367
0.99279823
1.0034236
1.0135443
1.0074705
0.99498686
0.99873028
1.0138877
1.0252609
1.0339922
1.0287434
1.0150574
0.99941879
0.98894667
0.98861654
1.0003578
1.0160526
1.0276767
1.0333817
1.0312909
1.0213765
1.0020424
1.0049985
1.0054096
1.0060117
1.0046321
1.0003021
0.99607461
0.99167983
0.98592532
0.97844796
0.97165147
0.96775136
0.96359045
0.96271143
0.96183314
0.96101817
0.96296852
0.96468345
0.97068867
0.98369556
0.99732874
1.0111769
1.0140083
1.0144018
1.009091
1.0047742
1.0013169
1.0016647
0.99719032
0.98928879
0.98821197
0.99582722
1.0011253
0.99283935
0.98334567
0.99129977
1.0055307
1.0163102
1.0085828
0.99335371
0.99435233
1.0108595
1.0267522
1.0377637
1.0339983
1.0201656
1.0041845
0.98972318
0.98490196
0.99303
1.0098549
1.0286139
1.0407724
1.0429583
1.0338214
1.0019702
1.0048317
1.00506
1.0058713
1.0046746
1.0002296
0.99630587
0.991951
0.98611822
0.97906818
0.97246497
0.96891426
0.96357128
0.96228309
0.96091743
0.95986946
0.96203211
0.96390762
0.96924328
0.98168703
0.99628355
1.0111332
1.0127721
1.0139192
1.0089428
1.0047925
1.0013635
1.0019572
0.99729854
0.98886173
0.98749224
0.99608543
1.0012462
0.9927484
0.98080374
0.9887562
1.0069666
1.0183977
1.0102178
0.99295027
0.99105762
1.0062872
1.0271099
1.0405262
1.0386741
1.0253122
1.0092281
0.99270429
0.98419324
0.98755851
1.0026638
1.025759
1.0445374
1.0521693
1.045178
1.0019083
1.004686
1.0047947
1.0057448
1.0047294
1.0002364
0.99660967
0.99217413
0.98619875
0.97966086
0.97345664
0.97019346
0.96380551
0.96200748
0.96005714
0.95890845
0.96135853
0.96354224
0.96836737
0.97996693
0.99528247
1.0108136
1.0116347
1.013105
1.008311
1.0046879
1.0015725
1.0022753
0.99773757
0.98882085
0.98684797
0.99627116
1.0012726
0.99312929
0.97958415
0.98556821
1.0073753
1.0209696
1.0123158
0.9938173
0.98810095
1.00149
1.0257177
1.0425062
1.0421974
1.0303405
1.0143185
0.9969472
0.98527965
0.9844237
0.99595644
1.0197445
1.044582
1.0584983
1.0546911
1.0019036
1.0046091
1.004648
1.0057246
1.0048407
1.0002747
0.996793
0.99226947
0.98607211
0.97994963
0.97401235
0.97109426
0.9640383
0.96173787
0.95936766
0.9580341
0.96062569
0.96315604
0.96766209
0.97874936
0.99415705
1.0111504
1.0113302
1.0130865
1.0086179
1.0048693
1.0018166
1.0025524
0.99823821
0.98864754
0.98621143
0.99603772
1.0016487
0.99400413
0.97910215
0.98261086
1.0055476
1.0229692
1.0146093
0.9955712
0.98598454
0.99681589
1.021368
1.0425427
1.0460328
1.035176
1.018821
1.0009248
0.98595755
0.98033671
0.98961184
1.0107551
1.0391263
1.059103
1.0606476
1.001972
1.0046472
1.0046575
1.0058247
1.0049625
1.0001917
0.99664934
0.99199278
0.98574235
0.97999255
0.97415934
0.97143743
0.96399255
0.96134664
0.95866953
0.95728048
0.95984918
0.96246722
0.96646038
0.97674727
0.99241708
1.0096134
1.0101973
1.0123977
1.0085166
1.0047812
1.0015317
1.0022861
0.99852845
0.98914193
0.98530562
0.9944073
1.0012941
0.99453794
0.98033155
0.97986419
1.0012453
1.020693
1.0160067
0.99865524
0.98622768
0.99253818
1.0137841
1.0370113
1.0440877
1.0372815
1.0233262
1.0057034
0.98983217
0.98092253
0.98487415
1.0012149
1.0273455
1.0498591
1.0573655
1.049314
1.046179
1.0361449
1.0248512
1.0137792
1.0041252
0.99774435
0.99617262
0.9997577
1.0091363
1.0255972
1.0446247
1.0593196
1.0653206
1.0590023
1.0400662
1.0210021
1.0144285
1.0263769
1.049888
1.0701304
1.0722581
1.0460953
1.0103604
0.99847283
1.0173113
1.0392664
1.020581
1.0116907
1.0034988
0.995212
0.98846286
0.98421454
0.98424403
0.98942539
1.0005444
1.0168039
1.033049
1.0447519
1.048942
1.0446071
1.0313197
1.0150772
1.0070993
1.0158211
1.0409191
1.0705462
1.0833944
1.0718662
1.0393347
1.0133777
1.0182897
1.0466289
1.0603629
0.98881816
0.98371367
0.98176137
0.97920432
0.97872164
0.98176522
0.98881215
0.99880413
1.0099272
1.0192259
1.0242706
1.0239207
1.0178877
1.0073006
0.99697296
0.99307627
0.99871752
1.0181352
1.0448823
1.064284
1.0657452
1.0471538
1.0261242
1.0251129
1.0497135
1.0810786
1.0775303
0.97770616
0.97807923
0.98283732
0.98631193
0.9918008
0.99929601
1.0071936
1.0132163
1.0157043
1.014019
1.0080655
0.99936353
0.98956497
0.98195875
0.98212489
0.98958511
1.0040633
1.0208055
1.0342788
1.0372057
1.0254315
1.0093809
1.0094395
1.0340893
1.0742139
1.0988679
1.0838757
0.99198664
1.0000501
1.0097914
1.0171443
1.0223272
1.0243293
1.0225022
1.0176357
1.0111465
1.0025925
0.99357695
0.98601658
0.98181897
0.98579207
0.99505495
1.0085244
1.0207552
1.0254426
1.0195653
1.0052594
0.98602351
0.98172495
0.99849982
1.034884
1.0703716
1.0837621
1.0690412
1.0367434
1.0493635
1.0547042
1.0533025
1.048387
1.0403116
1.0301304
1.0187043
1.0076297
0.99855385
0.9922353
0.99175942
0.9986801
1.0109044
1.0274956
1.0391809
1.0385355
1.0256148
1.005478
0.98492758
0.9734637
0.98136884
1.0033444
1.0296634
1.0441912
1.0426471
1.0354387
1.0759058
1.0804522
1.0757937
1.0673236
1.057352
1.0447577
1.0318687
1.020076
1.0114954
1.0079445
1.0113812
1.0219383
1.0369995
1.0554211
1.0682735
1.065933
1.0481023
1.0230147
1.000074
0.98522059
0.98867346
1.0053714
1.0252491
1.0297406
1.0151117
0.99714063
0.99775142
1.0639998
1.060502
1.0538141
1.0447146
1.0352926
1.0268459
1.0202359
1.0163959
1.0177872
1.0264957
1.0421023
1.0621441
1.0823841
1.0968334
1.0932359
1.0756188
1.0504737
1.0240065
1.0067027
1.0078361
1.0252475
1.0450824
1.0537309
1.0322097
0.99842074
0.97177969
0.97467892
1.0250689
1.0185609
1.0121016
1.0059041
1.0007701
0.99844165
1.0007181
1.008738
1.022446
1.0407091
1.0603847
1.0787071
1.0899484
1.0884521
1.0776294
1.0598717
1.0415016
1.0267546
1.0278057
1.0472572
1.0743102
1.0915331
1.0778002
1.0383988
0.99679504
0.97505173
0.9749507
0.98955315
0.98555433
0.9856595
0.98623373
0.9896993
0.9970232
1.0068687
1.0189904
1.0322199
1.0436448
1.0508723
1.0523704
1.0489753
1.0411909
1.0297661
1.0213556
1.0187842
1.0270735
1.0494837
1.080575
1.1084062
1.1151544
1.0909111
1.049824
1.0146731
1.0005938
0.99130824
0.9855872
0.98879453
0.99730779
1.0052802
1.0152253
1.0252691
1.0336355
1.0380554
1.0373079
1.0325227
1.0245147
1.0145912
1.0047944
0.99543002
0.98922107
0.99020842
1.0017946
1.0244693
1.0524772
1.0782804
1.0960603
1.093947
1.0779878
1.0566251
1.0423094
1.037247
1.0222981
1.0258606
1.0374706
1.0483232
1.0560464
1.0597579
1.0577043
1.0511272
1.0410097
1.028596
1.0158518
1.0046824
0.99526175
0.98696694
0.98260699
0.98632244
0.99630432
1.0122285
1.0282725
1.0396232
1.0444718
1.0455512
1.041792
1.0392557
1.0438799
1.0529173
1.0602757
1.059052
1.0962595
1.1043509
1.1051439
1.0984524
1.0884941
1.075854
1.0611723
1.0447312
1.029364
1.0161497
1.0066338
1.0009072
1.0012682
1.0072452
1.0207307
1.0356771
1.0432007
1.0391852
1.0263291
1.0086739
0.99745981
0.99345273
0.99994226
1.0153448
1.0333612
1.0481481
1.069036
1.1119326
1.1127094
1.10671
1.0987826
1.0889287
1.0773347
1.0651372
1.0533913
1.043267
1.0356758
1.0333644
1.0374222
1.0498132
1.0649083
1.0797696
1.0840964
1.0726839
1.049389
1.0205342
0.99608587
0.98133558
0.97698115
0.98326102
0.99205324
1.0000355
1.0154848
1.0500565
1.0693258
1.0649126
1.0595132
1.0532318
1.0474016
1.0430899
1.0404239
1.0405664
1.0441941
1.053568
1.0692702
1.0899858
1.112889
1.1299358
1.1353035
1.1234025
1.0988052
1.0664888
1.0347394
1.0100479
0.99515848
0.99245334
0.99335788
0.98824376
0.98122041
0.98894564
1.0248776
1.0201485
1.0139459
1.0115637
1.0085188
1.0067722
1.0068883
1.0112957
1.0212408
1.0374521
1.0586394
1.083016
1.1069707
1.1263044
1.1362421
1.135321
1.126743
1.1100141
1.0889187
1.0651628
1.0459996
1.0346599
1.0292763
1.0201102
1.0053363
0.99197333
0.99090756
1.0099491
0.98894063
0.98774551
0.99120711
0.99509439
1.001567
1.0110999
1.022728
1.0349187
1.0468837
1.057153
1.064778
1.0702146
1.0756348
1.0803408
1.0823765
1.0833142
1.082764
1.080223
1.0774916
1.0790784
1.0808469
1.0804908
1.0694047
1.0475204
1.0275827
1.0187698
1.015956
1.0017649
1.0074574
1.0197197
1.0301628
1.0395032
1.0476693
1.0526675
1.0528225
1.0490251
1.0422772
1.0350131
1.0301779
1.0276836
1.0262196
1.0271155
1.0307143
1.0350706
1.0420377
1.0530886
1.0680695
1.087
1.1043484
1.1138785
1.1098792
1.0946221
1.0688492
1.0349583
1.0720688
1.0810988
1.0890564
1.0910604
1.0885669
1.0812126
1.070186
1.057187
1.043333
1.0299278
1.0194821
1.01252
1.0084049
1.0076796
1.0082478
1.008088
1.0087643
1.0115803
1.017498
1.0291449
1.0487603
1.0783519
1.1114985
1.1419722
1.1536204
1.1267391
1.0730796
1.1411958
1.1454
1.1430169
1.1346249
1.1219597
1.1062298
1.0886015
1.0702236
1.053406
1.0391551
1.0290028
1.0226222
1.019816
1.0194925
1.0193309
1.0182201
1.0139544
1.0057491
0.99753939
0.9976976
1.0116091
1.0408908
1.0825073
1.121965
1.1436135
1.1369837
1.1061531
1.1357513
1.1333462
1.1306214
1.1259015
1.1194609
1.1105836
1.101315
1.0912757
1.0812724
1.0722585
1.0651268
1.0605448
1.0584243
1.0572755
1.0545395
1.0479168
1.0354299
1.0204332
1.0052984
0.99597582
1.000589
1.0214874
1.0526375
1.0801261
1.0916963
1.0870115
1.081992
1.0863232
1.0838208
1.0829645
1.0805699
1.0779875
1.0766013
1.0757972
1.0761898
1.0792686
1.0846773
1.0916911
1.0995475
1.1063958
1.1099059
1.1070505
1.0962893
1.0781889
1.0553626
1.0349479
1.0239823
1.024061
1.0296451
1.036864
1.0375504
1.0328926
1.0233737
1.0234965
1.0481246
1.0458444
1.0464704
1.0452728
1.0435133
1.0417149
1.0414603
1.0437767
1.0489846
1.0581463
1.0717914
1.0897419
1.1093346
1.1260118
1.1364309
1.1392242
1.1322758
1.1167693
1.0978613
1.0801597
1.0666512
1.0549924
1.0399688
1.0163607
0.98852449
0.97372988
0.97577205
1.0315152
1.0315431
1.03376
1.0338345
1.0332736
1.032199
1.0312283
1.0310824
1.0324612
1.0361757
1.0428967
1.0540916
1.0699354
1.090932
1.1125212
1.134241
1.1523367
1.1629105
1.1633227
1.1500552
1.125951
1.0941604
1.0579024
1.0175679
0.97744947
0.95147553
0.94483464
1.0355197
1.0367757
1.0414365
1.0429666
1.0425978
1.0404132
1.0370412
1.0322661
1.028128
1.0258362
1.0260848
1.032378
1.0437084
1.0599405
1.0821693
1.1060162
1.1318881
1.1536212
1.1657997
1.1688186
1.1594338
1.1361558
1.0960775
1.0481199
1.0004083
0.96288665
0.9399295
1.056907
1.0586776
1.0610897
1.0606855
1.0581518
1.0533379
1.0466274
1.0391988
1.0321404
1.0270314
1.0261444
1.0310555
1.0419515
1.0590932
1.0777709
1.0952051
1.1087576
1.11796
1.1195437
1.1175426
1.119038
1.1239072
1.1226422
1.1001996
1.0571692
1.0064512
0.96848766
1.0801393
1.0810257
1.0819431
1.0792884
1.0735309
1.0656047
1.0567369
1.0483215
1.041527
1.0385213
1.0405547
1.049327
1.0618389
1.076617
1.0894715
1.0959064
1.094509
1.0838785
1.0689453
1.0556596
1.0509307
1.0611936
1.0861636
1.1118398
1.1131972
1.0822766
1.03646
1.0940059
1.093253
1.0940706
1.09162
1.0869447
1.0802037
1.0732378
1.0667824
1.0625723
1.0618077
1.0656862
1.0742049
1.0847024
1.0949156
1.0998146
1.0964259
1.0839577
1.0617351
1.0347383
1.0118511
1.0024298
1.0086517
1.0276641
1.0633542
1.1073719
1.1352393
1.1336108
1.0999923
1.0974556
1.0991247
1.0992257
1.0979247
1.0957473
1.0929041
1.0906926
1.0897894
1.0899764
1.0911618
1.0944399
1.098374
1.1017506
1.1006462
1.0924266
1.0757695
1.0516867
1.0222656
0.99548904
0.97910327
0.97832796
0.99042324
1.0181213
1.0648927
1.1263126
1.1945937
1.1095717
1.1076228
1.1093519
1.1109813
1.1112512
1.1104543
1.1085546
1.1063807
1.104506
1.1032031
1.1023005
1.1028029
1.1027024
1.1004613
1.0953683
1.0848837
1.0692212
1.0479334
1.021673
0.99775668
0.97920351
0.97327532
0.98011214
1.0025075
1.0425109
1.1044326
1.1907773
1.1311135
1.128936
1.1295459
1.1293384
1.1272059
1.1228469
1.1166108
1.1095091
1.1026326
1.0973594
1.0941789
1.0933119
1.0939499
1.0928141
1.0895152
1.0800679
1.0660163
1.0471721
1.0280846
1.0083261
0.99233818
0.98743083
0.99267563
1.0129854
1.05134
1.1031121
1.1705521
1.157382
1.1555895
1.1527855
1.1483453
1.1406263
1.1297514
1.1172088
1.1038626
1.0913241
1.0813613
1.0752901
1.0735877
1.0748851
1.0782421
1.0800179
1.0771728
1.0686547
1.0546881
1.0385773
1.0231017
1.0114663
1.0123376
1.0233346
1.0448506
1.0796278
1.1182337
1.1577126
1.175511
1.1734141
1.168139
1.1600369
1.1478247
1.131849
1.1136198
1.0952316
1.0788463
1.065967
1.0574034
1.0545571
1.0564453
1.0620209
1.0680892
1.0713067
1.0708787
1.0640236
1.0533253
1.0414512
1.0349861
1.0423676
1.0606481
1.0881398
1.1180415
1.144587
1.1452823
1.176639
1.1742601
1.1679078
1.1583089
1.1448751
1.1276285
1.1083702
1.0889497
1.0713102
1.0570061
1.0473439
1.0434026
1.044577
1.0500129
1.0577395
1.0652865
1.0713113
1.0726063
1.0687366
1.0628077
1.0616171
1.075622
1.1006206
1.1312858
1.1570392
1.1630317
1.1337205
1.1625446
1.1592119
1.1530106
1.1445021
1.1327144
1.1175511
1.1001678
1.0826617
1.0669308
1.0537891
1.0451695
1.0418466
1.0433362
1.0488195
1.0571034
1.0666684
1.0743755
1.0797762
1.0826712
1.0850372
1.0907333
1.109836
1.1377512
1.1678565
1.1848175
1.1704351
1.1214698
1.1377892
1.1345815
1.1287693
1.1219843
1.1128555
1.1009681
1.0873411
1.0738013
1.0623154
1.0532357
1.0480117
1.047453
1.0510249
1.0582691
1.0675867
1.0770169
1.0842083
1.0917001
1.0992588
1.1076883
1.1198219
1.1425195
1.1698796
1.193274
1.195456
1.1662342
1.1084117
1.1128824
1.108526
1.1020392
1.0960123
1.0890025
1.0802947
1.0704934
1.0613193
1.054328
1.0505169
1.0503158
1.0547825
1.0631048
1.0745237
1.0866189
1.0965721
1.1031172
1.1113256
1.1196117
1.1293204
1.1433638
1.1672842
1.1916246
1.2044337
1.1914234
1.1536746
1.098003
1.0948848
1.0887229
1.0799949
1.0733764
1.0672599
1.0605892
1.0535682
1.0475155
1.0439858
1.0445685
1.0495249
1.059849
1.0741606
1.0912954
1.1077329
1.1210887
1.1293767
1.1377913
1.1441948
1.1511808
1.1618286
1.1825133
1.1990316
1.1993046
1.1761153
1.1381136
1.0896758
1.0858746
1.0785327
1.0670924
1.058769
1.0519906
1.045643
1.0396667
1.0349793
1.033682
1.0373353
1.0468157
1.062299
1.0827509
1.1062238
1.1293774
1.1481427
1.1589965
1.166637
1.1697917
1.1712583
1.1747394
1.1872919
1.1929532
1.1835305
1.1581322
1.1248097
1.0818961
1.0819574
1.0755555
1.0629648
1.0529114
1.0449546
1.0381558
1.032301
1.0280825
1.0272513
1.031775
1.0440411
1.0630076
1.0888667
1.1188062
1.149206
1.174071
1.1878113
1.1947371
1.1925668
1.1852491
1.1795847
1.1819468
1.1779054
1.1645248
1.1424357
1.1110297
1.0751342
1.0796306
1.0761299
1.0649497
1.0542512
1.0450455
1.0371486
1.0304062
1.0255639
1.0244367
1.0293662
1.0427761
1.0640443
1.0933256
1.128576
1.1651675
1.1958767
1.2120375
1.2172699
1.2080839
1.1904812
1.175932
1.1702316
1.162818
1.1495401
1.1296838
1.1016971
1.0751549
1.0743437
1.0735785
1.0650975
1.0555777
1.04636
1.0379404
1.0309253
1.0259258
1.024508
1.0296985
1.043336
1.0659602
1.0979411
1.1373599
1.1787307
1.2123138
1.2295444
1.2314136
1.2145868
1.189001
1.1691328
1.1589436
1.1504077
1.1393051
1.1237825
1.0981006
1.0770115
1.0655726
1.0663373
1.0599763
1.0519515
1.0432933
1.0350017
1.0280148
1.0234315
1.022658
1.0289392
1.0438032
1.0681439
1.1023489
1.1447473
1.1891294
1.2241061
1.2413505
1.2395686
1.2163237
1.1853801
1.1628203
1.1501964
1.1429849
1.135155
1.1224358
1.1000565
1.0805808
1.0565993
1.0571701
1.0515935
1.0447005
1.0368818
1.0292444
1.0228927
1.0188951
1.0188379
1.0261362
1.0426514
1.0691545
1.1060054
1.1513467
1.1976196
1.2330572
1.2501511
1.2451219
1.2173108
1.1835735
1.1598981
1.1474574
1.1415085
1.1347975
1.1231156
1.1026554
1.0843627
1.0519768
1.0505585
1.0429578
1.0356139
1.0283343
1.0213832
1.0159979
1.0132172
1.0148706
1.0235867
1.0422324
1.0712084
1.1108548
1.1582056
1.2058537
1.2414757
1.2584669
1.2505038
1.2194687
1.1849755
1.1606063
1.1491863
1.1442781
1.1366817
1.1229925
1.1017922
1.0846714
1.0525045
1.0482866
1.0377993
1.0286897
1.0208624
1.0141905
1.0095115
1.0078862
1.0113045
1.0227765
1.0446443
1.0766603
1.1191033
1.1682693
1.2161704
1.2502395
1.2659943
1.2542648
1.2214834
1.1890449
1.1658694
1.1551559
1.147303
1.1359191
1.1198548
1.0979964
1.0809115
1.0575097
1.050537
1.0369449
1.0254278
1.0162577
1.0092407
1.0049496
1.0045266
1.0099363
1.0235502
1.0480914
1.0830603
1.1285395
1.1795158
1.227272
1.2597847
1.2719378
1.2549472
1.2220156
1.193349
1.1721001
1.1611426
1.1481461
1.131232
1.1119569
1.0916907
1.0745332
1.0656231
1.0572627
1.0409297
1.0267296
1.015631
1.0075369
1.0031848
1.0035477
1.0104703
1.0267115
1.0536122
1.0918162
1.1396607
1.1914566
1.2370958
1.2666047
1.2726628
1.2506232
1.218971
1.193935
1.1755653
1.1630867
1.1453876
1.1226455
1.1002377
1.079095
1.0657794
1.0741751
1.0653625
1.0476198
1.0311535
1.0179709
1.0082907
1.0031338
1.0035625
1.0117741
1.0308163
1.0605719
1.1021268
1.1520862
1.2031388
1.2439256
1.2679564
1.2663143
1.2411427
1.2126747
1.1908005
1.1763689
1.1609293
1.1376219
1.110226
1.086314
1.0672043
1.0603734
1.0845027
1.0756196
1.0573787
1.0389222
1.0235553
1.0124559
1.0065197
1.0074424
1.0166124
1.0372641
1.0694736
1.112804
1.1620362
1.209166
1.2437457
1.2614642
1.2523656
1.2263881
1.202437
1.1869227
1.1769004
1.1590007
1.1314253
1.1004485
1.0755105
1.0629178
1.0586277
1.0975256
1.0892864
1.071559
1.0521271
1.0350156
1.0220745
1.0149358
1.0156956
1.0250124
1.045627
1.078584
1.1215514
1.1678242
1.2082422
1.23541
1.2458838
1.2311124
1.206934
1.1910244
1.1841078
1.1798125
1.161696
1.1314823
1.0982257
1.0731527
1.0636896
1.0630668
1.1180749
1.1107595