/*--------------------------------*- C++ -*----------------------------------*\
| =========                 |                                                 |
| \\      /  F ield         | OpenFOAM: The Open Source CFD Toolbox           |
|  \\    /   O peration     | Version:  2406                                  |
|   \\  /    A nd           | Website:  www.openfoam.com                      |
|    \\/     M anipulation  |                                                 |
\*---------------------------------------------------------------------------*/
FoamFile
{
    version     2.0;
    format      ascii;
    arch        "LSB;label=32;scalar=64";
    class       volScalarField;
    location    "5";
    object      rho_0;
}
// * * * * * * * * * * * * * * * * * * * * * * * * * * * * * * * * * * * * * //

dimensions      [1 -3 0 0 0 0 0];

internalField   nonuniform List<scalar> 
96472
(
1.002557
1.0052997
1.0051117
1.0034033
1.0008587
0.99787781
0.99492199
0.99207377
0.98942519
0.98729345
0.98593611
0.98563661
0.98648192
0.98856182
0.9921284
0.99721321
1.0030921
1.0080987
1.0103898
1.011044
1.0119327
1.0133771
1.0155805
1.018254
1.0209342
1.0233031
1.025065
1.0263266
1.0272326
1.0278638
1.0282836
1.028512
1.0284833
1.0283069
1.0280222
1.0275999
1.0273551
1.027091
1.0270891
1.0271999
1.0275875
1.0281152
1.0287923
1.0294508
1.0298545
1.0303889
1.0304885
1.0302915
1.0300203
1.0293246
1.0287445
1.0281163
1.0273343
1.0264264
1.0254348
1.0027269
1.0059812
1.0060389
1.0043732
1.0017648
0.99868807
0.99560433
0.99263594
0.98989562
0.98766883
0.9862149
0.98582017
0.98657325
0.9885415
0.99198572
0.99695314
1.0028905
1.0082294
1.011046
1.0119811
1.0129926
1.0144629
1.0166418
1.0191886
1.0217048
1.0237788
1.0252214
1.0262155
1.0269555
1.0274079
1.0277892
1.0280388
1.0280923
1.027979
1.0277127
1.0274405
1.0271134
1.0268896
1.0267845
1.0268523
1.0271738
1.0276319
1.0282102
1.028811
1.0295619
1.0299444
1.0301477
1.0302354
1.0299991
1.0296347
1.0291578
1.0284893
1.0277483
1.0269915
1.0263538
1.0028483
1.0065792
1.0068844
1.0052964
1.0026267
0.99944321
0.99624806
0.99317
0.99035233
0.98804402
0.98651137
0.98602518
0.98669283
0.98855774
0.99187548
0.99674286
1.002702
1.008314
1.0116572
1.0128947
1.0140513
1.0155643
1.0176849
1.0201175
1.0224505
1.0242024
1.0253248
1.0260551
1.0265532
1.026904
1.0272285
1.0274703
1.0276025
1.0275919
1.0274523
1.0271988
1.0269235
1.0266892
1.0265872
1.0266541
1.026823
1.0271754
1.0277403
1.0283971
1.0289257
1.0294335
1.0299275
1.0300134
1.0299543
1.0297629
1.0292961
1.0287313
1.0281508
1.0275124
1.0269724
1.0029192
1.0070811
1.0076477
1.0061991
1.003488
1.0001924
0.99689071
0.99373327
0.99083241
0.98846679
0.98686011
0.98628067
0.98685736
0.98859362
0.9917783
0.99654169
1.0024955
1.008397
1.0122249
1.0138246
1.0151333
1.016692
1.0187878
1.0210869
1.023175
1.0246313
1.0254223
1.0259036
1.0261982
1.0263898
1.0266425
1.0268604
1.0270232
1.0270384
1.0269821
1.0268032
1.0266137
1.0263888
1.0263376
1.0262452
1.0264973
1.0268416
1.0273441
1.0278198
1.0285224
1.0291323
1.0295115
1.0297591
1.0298852
1.0297182
1.0293594
1.0290512
1.0284732
1.027927
1.0272034
1.0029428
1.007472
1.0083114
1.0070376
1.0042969
1.0009082
0.99750473
0.99427834
0.9913318
0.98890012
0.98720818
0.98655573
0.98706101
0.98869983
0.99173012
0.99635981
1.0022818
1.0084132
1.0127234
1.0147126
1.0162011
1.017845
1.0198758
1.022047
1.0238543
1.0249871
1.0255106
1.025746
1.0258437
1.0258949
1.0260145
1.0262127
1.0263928
1.0265316
1.0265029
1.0264246
1.0262935
1.0261729
1.0260111
1.0261029
1.0261992
1.0264811
1.0268928
1.0275345
1.0281534
1.028691
1.0292235
1.0296974
1.0297644
1.0298427
1.0297302
1.0293795
1.0288885
1.0283461
1.0278624
1.0029239
1.0077445
1.0088784
1.0078205
1.0050958
1.0016497
0.99815776
0.99485176
0.99186237
0.98937659
0.98763362
0.98688952
0.98732598
0.98884535
0.99174174
0.99620943
1.0020694
1.0083426
1.0131565
1.0155306
1.0172061
1.0189224
1.0209363
1.0229674
1.0245032
1.025317
1.0255762
1.0255663
1.0254387
1.0253773
1.025422
1.0255676
1.0257752
1.0258742
1.0259653
1.0259123
1.0258193
1.0256928
1.0257061
1.0256442
1.0258111
1.0260631
1.0265135
1.0270486
1.0276002
1.028312
1.0289405
1.0293942
1.0297579
1.0299405
1.0298525
1.0295685
1.0293957
1.0289065
1.0286057
1.0028703
1.007891
1.009326
1.0085046
1.0058247
1.0023343
0.99876393
0.9954148
0.99239835
0.98987494
0.98807906
0.98724471
0.98759365
0.98902269
0.99180029
0.9961173
1.0018752
1.0082338
1.0135088
1.0163176
1.0182072
1.0200056
1.0219471
1.0237807
1.0251012
1.0256016
1.025563
1.0253243
1.0250169
1.0248272
1.0247557
1.0248601
1.0250288
1.025249
1.0253521
1.0254448
1.025454
1.025442
1.0253775
1.0254179
1.0255255
1.0257753
1.0261148
1.0265983
1.0272384
1.0279589
1.028545
1.0291933
1.0295979
1.0299565
1.0300292
1.0301386
1.0298868
1.0295655
1.0290085
1.0027873
1.0079207
1.0096577
1.009097
1.0065179
1.0030373
0.99941788
0.99602361
0.9929656
0.99042171
0.98857928
0.98768782
0.98795748
0.98926384
0.99187985
0.99605286
1.0016806
1.0081281
1.0137408
1.0170539
1.0191476
1.0210126
1.0229233
1.0246131
1.0256337
1.0258773
1.0255642
1.0250802
1.024638
1.024289
1.0241316
1.0241782
1.024363
1.0245343
1.024743
1.0248217
1.0248981
1.0249257
1.0249554
1.0250669
1.0251514
1.025362
1.0256851
1.0262019
1.0267715
1.0273864
1.0280699
1.028756
1.0293354
1.0298411
1.030043
1.0302571
1.0299681
1.0300185
1.0297817
1.002679
1.0078465
1.0098641
1.0095744
1.007129
1.0037027
1.0000323
0.99660656
0.99356631
0.99100629
0.98911264
0.98814244
0.988325
0.98954725
0.99201725
0.99599885
1.0014821
1.0079347
1.0138773
1.0176646
1.0200072
1.0220264
1.0238682
1.0253926
1.0261277
1.0260588
1.025574
1.0248529
1.0242312
1.023746
1.0235016
1.0234702
1.0235875
1.0238196
1.0240311
1.0242794
1.0244158
1.0245245
1.024654
1.0247
1.0248676
1.0251309
1.0254247
1.0258383
1.0263404
1.0270183
1.0277115
1.0284456
1.0290656
1.0295986
1.0300232
1.030299
1.0305585
1.0305606
1.0304111
1.0025518
1.0076902
1.0099503
1.0099187
1.0076905
1.0043574
1.0006843
0.99724569
0.99418788
0.99158856
0.98970237
0.98868211
0.98877483
0.98990333
0.99220842
0.99599656
1.0012977
1.0077207
1.0139604
1.0181953
1.0208286
1.0229481
1.0247446
1.0260572
1.0265621
1.0261995
1.0254775
1.0246177
1.023807
1.0231957
1.0228838
1.0227826
1.0228386
1.0229951
1.0232669
1.023514
1.0237493
1.0239959
1.0240976
1.0243218
1.0245101
1.0247158
1.0250416
1.0254942
1.0259966
1.0266078
1.027279
1.0279874
1.0286455
1.0293185
1.0299575
1.030352
1.0305918
1.0307619
1.0305278
1.0024124
1.0074499
1.0099171
1.0101625
1.0081574
1.0049492
1.0012918
0.99789326
0.99485197
0.99225432
0.99032759
0.98922897
0.98921737
0.99026309
0.9924382
0.99602689
1.0011577
1.0074693
1.0139104
1.0186398
1.0215534
1.0238087
1.025577
1.0266891
1.0269125
1.0263717
1.0253814
1.0243794
1.0234268
1.0226896
1.0222975
1.0221066
1.0221415
1.0222909
1.0225505
1.0228433
1.0231756
1.0233655
1.0236772
1.0239231
1.0241288
1.024441
1.0247801
1.0251854
1.0256504
1.0262894
1.0269192
1.0276484
1.0284261
1.0292153
1.0296668
1.0303502
1.0306035
1.0309874
1.031331
1.0022722
1.0071445
1.0097635
1.0102711
1.0085235
1.0055102
1.0019247
0.99856199
0.99552048
0.9929456
0.99098056
0.98985955
0.98975901
0.99072246
0.99269612
0.9960889
1.0009889
1.0071886
1.013746
1.0189466
1.0222318
1.024628
1.0263279
1.0272871
1.0272542
1.0264255
1.0252974
1.0241117
1.0230178
1.0222276
1.021704
1.0214552
1.021381
1.0214963
1.0217254
1.0220617
1.0223506
1.0227554
1.0230671
1.0233449
1.0237085
1.0240626
1.0243853
1.0248415
1.0253812
1.0259634
1.0265819
1.027358
1.0280542
1.0287792
1.0295663
1.0301418
1.0308352
1.0311367
1.031639
1.0021334
1.0067966
1.0094971
1.0102779
1.0088125
1.0060101
1.0025327
0.99922424
0.99623176
0.99366578
0.99171288
0.99049869
0.99029747
0.99115352
0.99298734
0.99617679
1.0008461
1.0069111
1.0135128
1.019094
1.0227649
1.0253658
1.0270348
1.0278146
1.0275557
1.026506
1.0251858
1.0238653
1.022654
1.0217311
1.0211358
1.0207971
1.020705
1.0207321
1.0209973
1.0212925
1.0217032
1.0220751
1.0224425
1.0228999
1.023269
1.0236209
1.024064
1.0245716
1.0250505
1.0256209
1.0262966
1.0269909
1.0277674
1.0284988
1.029383
1.0299482
1.0306867
1.0313234
1.0315387
1.0020001
1.0064274
1.0091466
1.0101616
1.0089795
1.0064446
1.0031146
0.99992382
0.99696118
0.99439211
0.99243519
0.99120692
0.99091953
0.99163919
0.99330905
0.99625412
1.0007122
1.0065724
1.0132598
1.0191976
1.0232072
1.0259887
1.0277153
1.0283144
1.0278033
1.0265882
1.0251085
1.0236433
1.0223346
1.0212932
1.0205926
1.020189
1.0200068
1.0200563
1.0202301
1.0205231
1.0208979
1.0213021
1.0217647
1.0221993
1.0226487
1.0231803
1.0236706
1.0241549
1.0246946
1.0253799
1.0260394
1.0267437
1.0274643
1.0283725
1.0290006
1.0300054
1.030659
1.0313294
1.03173
1.001868
1.0060505
1.0087387
1.0099508
1.0090514
1.0068235
1.0036932
1.0006429
0.99774505
0.99520671
0.99321575
0.99193099
0.99152017
0.99213847
0.99363757
0.99638778
1.0005825
1.0062143
1.0128513
1.019107
1.0236138
1.0265698
1.0282878
1.0287244
1.0280296
1.0266387
1.0250047
1.0233891
1.0219578
1.0208902
1.0201008
1.0196111
1.0193486
1.0193099
1.0194708
1.0197747
1.0201359
1.0206336
1.0211117
1.0215993
1.0221423
1.0226698
1.0231918
1.0237544
1.0243857
1.0250197
1.0256187
1.0264409
1.0271461
1.0279837
1.028804
1.0296847
1.0303134
1.0310674
1.0320667
1.0017373
1.0056723
1.0083046
1.009644
1.0090225
1.007117
1.0042125
1.0013056
0.99851014
0.99601455
0.99401091
0.99265571
0.99215811
0.992633
0.99399258
0.99653155
1.000462
1.0058806
1.012378
1.0188828
1.0238389
1.0270768
1.0288257
1.0291557
1.0282275
1.0266639
1.0249475
1.0232126
1.0217031
1.0205082
1.0196446
1.0190763
1.0187616
1.0186519
1.0187423
1.0189891
1.019403
1.0198193
1.0203527
1.0209416
1.0215076
1.0220789
1.0227049
1.0233824
1.0239997
1.0246576
1.0254264
1.0261489
1.0269502
1.0278166
1.0286398
1.0294354
1.0303395
1.0312727
1.0319095
1.0016123
1.0053083
1.0078526
1.0092863
1.0089335
1.0073371
1.0047015
1.0019613
0.99928803
0.99683619
0.99485292
0.99343722
0.99280503
0.9931298
0.99433672
0.99664237
1.0003413
1.0055126
1.0119378
1.0186099
1.0239341
1.0274697
1.0293357
1.0295235
1.0284738
1.0267718
1.0248831
1.023051
1.0214835
1.0202051
1.019217
1.0185854
1.0181866
1.0180516
1.0180821
1.0182832
1.018623
1.0191282
1.0196874
1.020251
1.0208634
1.0215081
1.0221772
1.0228248
1.0235266
1.0242452
1.0250069
1.0257485
1.0266096
1.0273784
1.0282264
1.0291176
1.0300515
1.0309452
1.0314309
1.0014987
1.0049573
1.0073889
1.0088921
1.0087593
1.0074519
1.0051206
1.0025943
1.0000569
0.99766752
0.99566472
0.9942029
0.9934603
0.99362452
0.99467667
0.99675588
1.0002084
1.0051217
1.0113981
1.0181927
1.0239675
1.0277736
1.0297479
1.0298773
1.0287006
1.0268573
1.0248267
1.0229196
1.0213002
1.0199175
1.0188822
1.0181422
1.0176746
1.0174404
1.0174677
1.0176222
1.0179355
1.0183516
1.018878
1.019506
1.0201849
1.0208896
1.0216073
1.0223831
1.0231263
1.0239697
1.0246669
1.0255585
1.0263512
1.027147
1.0281447
1.0290351
1.0298208
1.0306287
1.0317433
1.001402
1.0046289
1.0069338
1.0084623
1.0085499
1.0075394
1.0054975
1.003205
1.0008145
0.99851687
0.99649791
0.99495895
0.99409113
0.99411517
0.99499761
0.99686725
1.0000802
1.0047491
1.0108293
1.0176793
1.0238398
1.0280251
1.0300859
1.0301979
1.0288927
1.0269384
1.0248241
1.0228631
1.0211377
1.0197013
1.0185679
1.017777
1.0172372
1.0169493
1.0168668
1.0169866
1.0172786
1.0176993
1.0182638
1.0188804
1.0195443
1.0202431
1.0209784
1.0217571
1.0225768
1.0233333
1.0241982
1.0250404
1.0258379
1.0268694
1.0276835
1.0284972
1.0294751
1.0304235
1.0313985
1.0013127
1.0043302
1.0065024
1.0080238
1.0082874
1.0075409
1.0057944
1.0037361
1.0015263
0.99930736
0.99730092
0.99568622
0.99471337
0.99457213
0.99528928
0.99697341
0.99993304
1.0043723
1.0102734
1.0171318
1.0235958
1.0281882
1.0304214
1.0305051
1.0291385
1.0271029
1.0248941
1.0228389
1.0210376
1.0195162
1.0183361
1.0174705
1.0168441
1.0165186
1.0163739
1.0164249
1.0166261
1.017002
1.017523
1.0181342
1.0188319
1.019588
1.0204196
1.0212201
1.0220883
1.0229712
1.0238677
1.0247603
1.0257083
1.0265985
1.0274264
1.0284297
1.0292816
1.0304004
1.0309179
1.0012335
1.0040736
1.0061089
1.0075977
1.0079876
1.0074971
1.0060517
1.0042509
1.0022173
1.0000739
0.99807835
0.99642552
0.9953041
0.99500344
0.99555271
0.99702856
0.99978316
1.0039797
1.0096873
1.0165005
1.0232593
1.0282073
1.0306549
1.0308184
1.0294085
1.0272786
1.0249924
1.0228522
1.0210121
1.0194105
1.0181561
1.0172049
1.0165338
1.0161034
1.0159236
1.0159206
1.0161121
1.0164348
1.0168952
1.0174898
1.0181645
1.0189259
1.0196711
1.0205733
1.0214136
1.0223931
1.023271
1.0242067
1.0250511
1.0260394
1.0269522
1.0279825
1.0289554
1.0297426
1.0307746
1.0011589
1.003848
1.0057654
1.0072169
1.0076886
1.0074071
1.0062442
1.0047007
1.0028307
1.0007979
0.99879738
0.997073
0.99585722
0.99540418
0.99579072
0.997086
0.99962907
1.0035986
1.009081
1.015805
1.0227748
1.0281394
1.0308211
1.0310669
1.0296445
1.0274989
1.0251438
1.0229264
1.0210103
1.019362
1.0180404
1.0170486
1.0163038
1.0158152
1.0155484
1.0154921
1.0156054
1.015889
1.0163391
1.0169117
1.0175753
1.0182929
1.0191572
1.0199994
1.0209463
1.0218008
1.0228023
1.0236925
1.0248237
1.025701
1.0267632
1.0275691
1.0285918
1.0294396
1.0305609
1.0010997
1.0036551
1.0054714
1.0068845
1.0074142
1.0073073
1.0063826
1.005073
1.0033683
1.0014268
0.99945749
0.99766642
0.99634278
0.99577181
0.99599576
0.99714356
0.99948555
1.0032156
1.0084802
1.0151173
1.0222213
1.0279871
1.0309256
1.0312833
1.0298987
1.0277686
1.0253401
1.023055
1.0210765
1.0193648
1.0180053
1.016947
1.0161464
1.015599
1.0152523
1.0151391
1.0152014
1.0154473
1.0158456
1.0163699
1.0169888
1.0177271
1.0185015
1.0193506
1.0202089
1.0212206
1.0221261
1.0232181
1.0241318
1.0250533
1.0260774
1.0272229
1.0279861
1.0292505
1.0300995
1.0010442
1.0034956
1.0052226
1.0066124
1.0071787
1.007195
1.006461
1.005374
1.0038326
1.0019573
1.0000194
0.99819935
0.99678967
0.99606994
0.99614852
0.997179
0.99932166
1.0028549
1.0079066
1.0143857
1.0216165
1.0276677
1.0309524
1.0314968
1.0301627
1.0280666
1.025578
1.0232531
1.02123
1.0194734
1.0180051
1.0169223
1.0160459
1.0154426
1.0150513
1.0148707
1.0148848
1.0150664
1.0154149
1.0158963
1.0165085
1.0172193
1.0179527
1.01881
1.0197163
1.0206469
1.0216203
1.0226518
1.0234526
1.0248001
1.0256733
1.0265832
1.0277352
1.0287321
1.0294346
1.0010159
1.0033809
1.0050256
1.0063926
1.006974
1.0070898
1.0065177
1.0056228
1.0042037
1.0024106
1.0004683
0.99862636
0.99714519
0.99632163
0.9962855
0.99717893
0.9991612
1.002497
1.0073527
1.0137128
1.0209344
1.0273743
1.0308924
1.0316645
1.0304192
1.028387
1.0258979
1.0235105
1.0214354
1.0196094
1.0181485
1.0169657
1.0160586
1.0153794
1.0149461
1.014704
1.0146517
1.014775
1.015092
1.0155315
1.0160931
1.0167046
1.0174902
1.0182679
1.0191814
1.0200561
1.0210914
1.0219157
1.0232195
1.0239847
1.0251231
1.0261003
1.0271611
1.0279742
1.0290657
1.0009845
1.0033076
1.0048947
1.0062624
1.0068542
1.0070498
1.0065875
1.00583
1.0045041
1.0027818
1.0008519
0.99897585
0.9974374
0.99653295
0.99640509
0.99719002
0.99902036
1.0021771
1.0068578
1.0130477
1.0202377
1.026872
1.030829
1.0317733
1.0306863
1.0287461
1.0262501
1.0238301
1.0216968
1.0198883
1.0182656
1.0171637
1.0161292
1.0154421
1.0149302
1.0146328
1.0145432
1.0146
1.0148744
1.015278
1.0157571
1.0164132
1.0170913
1.0179077
1.0186955
1.0196446
1.0205325
1.0216233
1.0225064
1.023567
1.0244731
1.0256166
1.0265317
1.027523
1.028716
1.0009823
1.0032446
1.0048145
1.006269
1.0068484
1.0070703
1.0067239
1.0059335
1.0046693
1.0030291
1.0011776
0.99928447
0.99774021
0.99674
0.99648376
0.99714533
0.9988425
1.0018824
1.006399
1.0124085
1.0194408
1.0263447
1.0305077
1.0319248
1.030811
1.0291192
1.0266964
1.024211
1.0220746
1.0201048
1.0185443
1.0172025
1.0162697
1.0155281
1.0149928
1.0145974
1.0144266
1.0144664
1.0146639
1.0150195
1.0154909
1.0160393
1.0166923
1.0174029
1.0182326
1.0190932
1.0200268
1.0209637
1.0219288
1.0229141
1.0239406
1.0248852
1.0258524
1.0269657
1.027719
1.0290132
1.0296822
1.0303361
1.0307609
1.0311897
1.0316356
1.0318837
1.0322676
1.032296
1.0325558
1.0328288
1.0325895
1.0326177
1.0324963
1.0322574
1.0316284
1.031371
1.0308198
1.0301156
1.0295037
1.0287917
1.027916
1.027273
1.0266222
1.0260589
1.0256084
1.0248617
1.0306088
1.0312884
1.031782
1.0323259
1.0327063
1.0330767
1.0333606
1.0335234
1.0337695
1.0337629
1.0338136
1.033771
1.0335365
1.0330825
1.0327915
1.0321834
1.0315751
1.0308642
1.0301355
1.0293553
1.0285426
1.0277375
1.0268703
1.026106
1.0254497
1.0249044
1.0243467
1.0321981
1.0328876
1.0333877
1.0338141
1.0342445
1.0345396
1.0347685
1.0349173
1.0350035
1.0349945
1.0349106
1.034611
1.0343345
1.0338019
1.0331795
1.032567
1.0317276
1.0310154
1.0300942
1.0292671
1.028394
1.0275161
1.0266268
1.0257703
1.0249701
1.0243075
1.0237729
1.0338059
1.0344311
1.0349482
1.0354091
1.0356661
1.0360184
1.0361374
1.0362087
1.0362574
1.0360264
1.03592
1.035434
1.0349343
1.0343843
1.0335362
1.0328533
1.0318808
1.0310475
1.0300884
1.0291701
1.0281978
1.0273286
1.0263573
1.0254914
1.0245891
1.0237847
1.0230997
1.0354101
1.0360475
1.0365045
1.0369536
1.0371652
1.0374448
1.0374707
1.0374724
1.0374171
1.0370339
1.036774
1.0361481
1.0355263
1.0347645
1.0338969
1.0330222
1.03197
1.0311066
1.0299513
1.0291272
1.0279722
1.027115
1.0260655
1.0251994
1.0242186
1.0233532
1.0224623
1.0370372
1.037695
1.0381112
1.0384556
1.0386944
1.0388388
1.0388145
1.0386604
1.0384887
1.0380106
1.0375265
1.0368058
1.0360362
1.0351278
1.034135
1.0332369
1.0320174
1.0311069
1.0299299
1.0289121
1.0278679
1.0268174
1.0258335
1.0248253
1.0239153
1.0229033
1.0219696
1.038685
1.0393132
1.0396942
1.039939
1.0401694
1.040175
1.0400329
1.0398467
1.0393719
1.038888
1.0382674
1.0372905
1.0365747
1.035439
1.0343957
1.0334259
1.0321217
1.0311661
1.0298741
1.0288656
1.0276877
1.0267017
1.0255643
1.0246018
1.0235664
1.0226127
1.02156
1.040303
1.0408671
1.0412164
1.0413713
1.0414672
1.0414075
1.0411229
1.0407884
1.0402642
1.0395171
1.038876
1.037847
1.0368464
1.0358891
1.0345788
1.0335917
1.0323242
1.0311176
1.0300301
1.0287358
1.0277425
1.0264877
1.0255266
1.0243312
1.0233553
1.0223337
1.0212776
1.0418237
1.0423382
1.0425878
1.0426772
1.0426458
1.0424075
1.0420368
1.0416092
1.0409004
1.0400883
1.0393259
1.038208
1.0372061
1.0361064
1.0348539
1.033732
1.0324634
1.0312738
1.0300444
1.028903
1.0276583
1.0265647
1.0254357
1.0242906
1.0231877
1.0221862
1.0210715
1.043205
1.0436727
1.0437959
1.0437575
1.043641
1.0432922
1.0427207
1.0422001
1.0414677
1.0404608
1.0396229
1.0385633
1.0373403
1.0363593
1.035038
1.0338138
1.0327236
1.0312752
1.0302657
1.0289267
1.0277569
1.0266353
1.0254138
1.0243505
1.0231295
1.0221015
1.0209854
1.0443761
1.0447589
1.0447967
1.0446406
1.0444006
1.0439269
1.0432168
1.0426515
1.0417755
1.0407028
1.0398975
1.0386469
1.0375259
1.036489
1.0350709
1.0340528
1.0326895
1.031485
1.0303804
1.0289778
1.0279856
1.0266063
1.0256063
1.0243203
1.0233162
1.0220184
1.0210532
1.0452797
1.0455594
1.0454989
1.0452263
1.0448528
1.044319
1.0435619
1.0428195
1.0419336
1.0409097
1.0398886
1.0387665
1.037623
1.0364251
1.0352357
1.0340268
1.0327258
1.0316347
1.030283
1.0292
1.027939
1.0267609
1.0255982
1.024407
1.0234195
1.0220792
1.0211113
1.0457896
1.0459998
1.0458346
1.0454651
1.0450343
1.0444324
1.0435772
1.0428132
1.041948
1.0407972
1.0398786
1.0387584
1.0374878
1.0364782
1.0351972
1.0339743
1.0328663
1.0314979
1.0304092
1.0292135
1.0279199
1.0268745
1.0255528
1.0245757
1.0233845
1.0222491
1.021171
1.0458925
1.0460123
1.0457602
1.0453747
1.0448614
1.0441942
1.0433909
1.0425996
1.0416143
1.0406365
1.0397157
1.0384696
1.0374465
1.0363257
1.0350187
1.0340264
1.0327073
1.0314916
1.0304588
1.029068
1.0280246
1.02686
1.0255318
1.0246455
1.0232822
1.022444
1.0212089
1.0455463
1.0456237
1.0453536
1.0449054
1.0443043
1.0436712
1.0429486
1.0420338
1.0411751
1.040322
1.0391758
1.0382266
1.0372282
1.035959
1.0349538
1.0338748
1.0325035
1.0315544
1.0303114
1.0290511
1.0281201
1.0267405
1.0256221
1.0246795
1.0232922
1.0225106
1.0212778
1.0448492
1.0448957
1.0445681
1.0440621
1.0435292
1.0429009
1.0421093
1.0413283
1.0405998
1.0395825
1.038659
1.0378254
1.0366733
1.035642
1.0347436
1.0334611
1.0323941
1.0314491
1.0300837
1.0290933
1.028049
1.0266917
1.0257246
1.0246423
1.0233049
1.0225931
1.0214101
1.0438326
1.043829
1.0434708
1.0430349
1.0425107
1.0417825
1.0411108
1.0405052
1.0396287
1.0387385
1.0381087
1.0370835
1.036033
1.0353036
1.0342258
1.0330678
1.0322347
1.0311301
1.0299068
1.0290828
1.0279079
1.0266857
1.0258099
1.0246245
1.0233872
1.0226516
1.0215341
1.0425274
1.0425265
1.0422607
1.0418213
1.041182
1.040578
1.0400833
1.039316
1.0385169
1.0379547
1.0371622
1.0361712
1.0354691
1.0346734
1.0335467
1.0326936
1.0318779
1.0306818
1.0297383
1.0289058
1.0277043
1.0266956
1.0257551
1.0246709
1.0234288
1.0227149
1.0216434
1.0409749
1.0411166
1.040883
1.0403316
1.0398112
1.0394002
1.0387534
1.037995
1.0374784
1.0368948
1.0360227
1.0353013
1.03474
1.0337941
1.0328839
1.0322496
1.0312813
1.030244
1.0294756
1.0286117
1.0275297
1.0265428
1.0257775
1.0246045
1.0235532
1.0227074
1.0217808
1.0393839
1.0395772
1.0392609
1.0388288
1.0384892
1.037967
1.0372616
1.0367881
1.036344
1.0356137
1.0348596
1.0344584
1.0337108
1.0328219
1.0322453
1.0315056
1.0306757
1.0296813
1.029129
1.0282121
1.0272256
1.0264111
1.0256305
1.024575
1.023561
1.0227554
1.0218707
1.0377191
1.0378873
1.0376142
1.0373732
1.0369901
1.0363734
1.0358738
1.035539
1.034981
1.0342221
1.0338669
1.0333589
1.0325677
1.0319605
1.0313396
1.0308506
1.0298013
1.0292369
1.0285724
1.027793
1.0268652
1.0261525
1.0254815
1.0244394
1.0235637
1.0227373
1.021946
1.0360047
1.0362186
1.0361331
1.0358337
1.0353269
1.0348728
1.0345631
1.0341609
1.0334925
1.0330158
1.0327148
1.0321543
1.0314522
1.0309063
1.0306047
1.0297849
1.029175
1.0284666
1.0280668
1.0271948
1.026446
1.025866
1.0251429
1.0243449
1.0234219
1.0227334
1.0219703
1.0341366
1.0346611
1.034626
1.0342028
1.0337443
1.0334092
1.0332414
1.0326504
1.0321135
1.0319192
1.0313814
1.0310272
1.0303019
1.0298941
1.0297454
1.0286975
1.0285399
1.0276067
1.0275665
1.0265048
1.026008
1.0254313
1.0247985
1.0241703
1.0231902
1.0226671
1.0219536
1.0324964
1.0330508
1.0329998
1.0326568
1.032283
1.03208
1.0317965
1.0311436
1.03095
1.0306723
1.030185
1.0298331
1.0291385
1.0290695
1.0285858
1.0279147
1.0275814
1.026935
1.0268637
1.0258357
1.0255369
1.0248418
1.0244798
1.0237866
1.0229946
1.0224552
1.0218511
1.0309008
1.0313972
1.0313563
1.0311945
1.0309685
1.0307063
1.0303634
1.0298101
1.0297188
1.0295513
1.0289306
1.0286501
1.0281868
1.0279878
1.0277025
1.0268974
1.026819
1.0261352
1.0261514
1.0251821
1.0249563
1.0242962
1.0240336
1.0234211
1.0227225
1.0222009
1.0216795
1.029326
1.0298549
1.0299015
1.0298302
1.0296566
1.0293334
1.0290291
1.0286122
1.0285041
1.0284219
1.0277299
1.0275735
1.0272356
1.0269343
1.0268255
1.0259198
1.0260881
1.0253183
1.0254033
1.0245572
1.0243304
1.0237893
1.0234853
1.0230595
1.022386
1.0219489
1.021428
1.0279338
1.0284477
1.028551
1.0285759
1.0283686
1.0279893
1.0279059
1.027474
1.0273868
1.0272764
1.0265888
1.0267182
1.0261454
1.0261461
1.0257645
1.0251439
1.0252895
1.0244756
1.0248225
1.0237493
1.0238993
1.0231067
1.0230831
1.0225914
1.0220914
1.0216174
1.0211448
1.0262767
1.0271785
1.0273959
1.0274254
1.0270835
1.0268049
1.0268086
1.0264342
1.0264506
1.0261071
1.0256392
1.0257634
1.0251956
1.0254279
1.0247802
1.0244921
1.0243687
1.0238391
1.0241441
1.0231031
1.0233988
1.0224362
1.0226781
1.0221001
1.0218296
1.0212598
1.0208903
1.0253255
1.0260102
1.026315
1.0263678
1.0259556
1.0257311
1.0258049
1.025459
1.0255814
1.0251467
1.0247597
1.0248916
1.0243037
1.0247243
1.0239324
1.0238998
1.0235694
1.0232316
1.0234824
1.0225022
1.0229413
1.0218726
1.022298
1.0215857
1.0215584
1.0209276
1.0206792
1.0236047
1.0249329
1.0252712
1.0253978
1.0249657
1.0247962
1.024919
1.0245246
1.0247677
1.0242972
1.0240086
1.0241426
1.0235329
1.0240668
1.0231436
1.0233867
1.0228638
1.022726
1.0228352
1.0219854
1.0224903
1.0214144
1.0219464
1.0210984
1.0212805
1.0206247
1.0204687
1.0229457
1.023979
1.024392
1.0244164
1.0241863
1.0240516
1.0240336
1.0238272
1.0239304
1.0235953
1.023405
1.0234027
1.0230162
1.0232562
1.0226229
1.0228117
1.0223384
1.0222332
1.0222109
1.0216328
1.0219978
1.0211164
1.0214673
1.020777
1.0209589
1.0204243
1.0202634
1.0214914
1.0232685
1.0236316
1.0236299
1.0235261
1.0233579
1.0233405
1.023321
1.0231331
1.0230971
1.0227969
1.022746
1.0226215
1.0224459
1.0224725
1.022094
1.0221059
1.0215896
1.0217959
1.0213913
1.0214447
1.0210129
1.0208667
1.0206688
1.0205216
1.0203566
1.0200733
1.0214315
1.0225926
1.0230815
1.0230858
1.0229211
1.0227992
1.0228135
1.0227863
1.0226499
1.0226431
1.0223131
1.0222852
1.022139
1.021956
1.0221411
1.0216326
1.0218359
1.0211654
1.0214845
1.0210642
1.0210321
1.0208677
1.0204841
1.0205782
1.0201933
1.0202486
1.0198878
1.0206686
1.0220219
1.0225722
1.0226652
1.0225404
1.0224185
1.0223806
1.0223448
1.0222577
1.0221691
1.0219503
1.0219609
1.0217752
1.021651
1.0217566
1.0213208
1.0215575
1.0209228
1.0212216
1.0207774
1.020783
1.0206762
1.0203915
1.0204053
1.0200007
1.0200333
1.019781
1.0201329
1.0216078
1.0222703
1.0223032
1.0222973
1.0220985
1.0220172
1.0220782
1.0219375
1.0218747
1.0218189
1.0216962
1.0215767
1.0213319
1.021442
1.0211871
1.0213581
1.0208997
1.0209996
1.0206239
1.0205476
1.0205633
1.0203526
1.0203669
1.0199568
1.0199161
1.0197353
1.0195619
1.0212985
1.0219674
1.0220085
1.0221235
1.021948
1.0217576
1.0218754
1.0217062
1.0216911
1.0217617
1.0215357
1.0215295
1.0211861
1.0212106
1.0211137
1.0211861
1.0209537
1.0208389
1.0206206
1.0204354
1.0205978
1.0203038
1.0204135
1.0199858
1.0199
1.0197542
1.0193387
1.0210589
1.0217961
1.0217984
1.0218846
1.0218051
1.0216439
1.021725
1.0216229
1.0215879
1.0216644
1.0214577
1.0213459
1.0211986
1.021056
1.0211544
1.0211052
1.0209846
1.0207529
1.0206711
1.020431
1.0206066
1.0203754
1.0204762
1.0200876
1.019974
1.019825
1.0191525
1.0208599
1.021683
1.0217184
1.0216998
1.0217181
1.0215834
1.0216685
1.0216204
1.0215756
1.0215487
1.0214579
1.0212449
1.0212228
1.0210793
1.0212074
1.0210971
1.0210017
1.0207706
1.0207675
1.0205851
1.0206285
1.0205877
1.0205149
1.0202494
1.020117
1.0200006
1.018731
1.0205115
1.0214936
1.0217226
1.021675
1.0217092
1.0216255
1.0216742
1.02165
1.0215887
1.021507
1.021519
1.0213534
1.0213182
1.0212734
1.0212443
1.0211496
1.0210576
1.0209309
1.0208741
1.0208333
1.0207608
1.0207714
1.0206705
1.0204933
1.0202938
1.0202231
1.0188064
1.0204556
1.0214548
1.0217444
1.0217581
1.0217663
1.0217395
1.0217497
1.0217652
1.0216852
1.0216236
1.0215981
1.0215188
1.0214819
1.02144
1.0213473
1.0212712
1.0212282
1.0211862
1.0211191
1.0210732
1.0210051
1.0209381
1.0208365
1.0207227
1.0205963
1.0205882
1.0190359
1.0205251
1.0215752
1.0218476
1.0219085
1.0218969
1.0219012
1.0219282
1.0219269
1.0218735
1.0218834
1.0217602
1.0217887
1.0216984
1.0216084
1.021541
1.0214217
1.0215191
1.0214035
1.0214329
1.0213347
1.021279
1.021217
1.0210153
1.0210429
1.0209244
1.0209423
1.0191585
1.0205916
1.0217088
1.0220645
1.0220837
1.0221192
1.0221519
1.0220702
1.0221655
1.0219877
1.0221369
1.022023
1.0219992
1.0220131
1.021741
1.0218531
1.0215956
1.0218841
1.0215185
1.0217892
1.0216123
1.0215013
1.0215366
1.0212531
1.0214153
1.0212578
1.0212768
1.0192972
1.0206695
1.0218459
1.0222282
1.0223442
1.0223013
1.0224746
1.022229
1.0223266
1.0221647
1.0221744
1.022337
1.0220724
1.0223643
1.0219011
1.0221915
1.0217934
1.0221351
1.0219076
1.021844
1.0220501
1.02159
1.0219291
1.0214943
1.021856
1.0215368
1.0216387
1.0193967
1.0207324
1.0220051
1.0223513
1.022593
1.022476
1.0226275
1.0225201
1.0223893
1.0224893
1.0221257
1.0226331
1.022169
1.0225397
1.0221789
1.0222691
1.0222943
1.0220199
1.0225151
1.0218471
1.0223856
1.02177
1.0223159
1.0217728
1.0221559
1.0218729
1.0219832
1.0194732
1.020738
1.0221009
1.0224614
1.0226306
1.0226855
1.0225465
1.022811
1.0223983
1.0228344
1.0222084
1.0226879
1.0224299
1.0224992
1.0225837
1.022128
1.0227878
1.0219906
1.0228702
1.0219349
1.0226705
1.0219806
1.0224955
1.0222739
1.0221689
1.0223112
1.0222169
1.0193155
1.0207169
1.0219609
1.0226375
1.0224534
1.0227021
1.0225227
1.0226134
1.0227748
1.0224701
1.022924
1.0221224
1.0229204
1.0222648
1.0228466
1.0224491
1.0224417
1.0227443
1.0221975
1.0229666
1.0219944
1.0229799
1.0219859
1.0229161
1.0222323
1.0226286
1.0224299
1.0189827
1.0204573
1.021784
1.02247
1.0224264
1.0223116
1.0225015
1.0223196
1.0228039
1.022375
1.0226766
1.022495
1.022314
1.0227274
1.0223649
1.0229375
1.0222636
1.0226943
1.0223937
1.0226117
1.0226931
1.0224375
1.0228357
1.0223158
1.0228861
1.022461
1.0227292
1.0185579
1.0199758
1.0213301
1.0221152
1.021971
1.022348
1.0220069
1.0221804
1.0223325
1.0221004
1.0226014
1.0219653
1.022616
1.0219961
1.0225648
1.0224203
1.0223757
1.0225407
1.0221402
1.0227517
1.0223293
1.0228539
1.0223344
1.022706
1.0224377
1.0227685
1.0227328
1.018024
1.0192721
1.0207595
1.0214859
1.0214773
1.0218901
1.0216562
1.0217227
1.0218741
1.0215618
1.0221492
1.0216698
1.0221593
1.0219404
1.0218861
1.0222137
1.0218823
1.0224528
1.0219357
1.0224186
1.0221353
1.0224717
1.0223257
1.0224668
1.0224592
1.0226133
1.0226829
1.0171074
1.0185822
1.0200843
1.0206393
1.0210656
1.0208662
1.0213297
1.0209907
1.0212312
1.0212225
1.0211054
1.0216857
1.0210825
1.0218651
1.0212119
1.0217696
1.0215571
1.0217329
1.0219555
1.0216864
1.0220955
1.0217936
1.0223234
1.0220507
1.0224282
1.0222941
1.022495
1.01611
1.0175655
1.0193051
1.0198865
1.0201504
1.0202255
1.0201361
1.0205445
1.0203584
1.0205685
1.0205847
1.0204936
1.02094
1.020576
1.021139
1.0207735
1.0212094
1.0211084
1.0212586
1.0213894
1.0213836
1.0215901
1.021593
1.0218899
1.0218426
1.0220425
1.0220639
1.0149697
1.016411
1.0182761
1.0187543
1.0193165
1.0192207
1.0193121
1.0195452
1.0193973
1.0198667
1.0195332
1.0199524
1.0197144
1.0200848
1.0201256
1.0201924
1.0203834
1.0203336
1.0206648
1.0205774
1.0209006
1.0208131
1.0211285
1.0210707
1.0214281
1.0214295
1.0216213
1.0138315
1.0151902
1.0169488
1.0179394
1.0177555
1.0185303
1.0181187
1.0184797
1.01868
1.0182764
1.0192479
1.0183971
1.0193874
1.0187978
1.0192576
1.0194795
1.0191583
1.0199505
1.0192658
1.0202705
1.0196191
1.020436
1.0200681
1.0206129
1.0205135
1.0208245
1.0208546
1.0121955
1.0139838
1.0156877
1.0163962
1.0171957