/*--------------------------------*- C++ -*----------------------------------*\
| =========                 |                                                 |
| \\      /  F ield         | OpenFOAM: The Open Source CFD Toolbox           |
|  \\    /   O peration     | Version:  2406                                  |
|   \\  /    A nd           | Website:  www.openfoam.com                      |
|    \\/     M anipulation  |                                                 |
\*---------------------------------------------------------------------------*/
FoamFile
{
    version     2.0;
    format      ascii;
    arch        "LSB;label=32;scalar=64";
    class       volScalarField;
    location    "5";
    object      rho_0;
}
// * * * * * * * * * * * * * * * * * * * * * * * * * * * * * * * * * * * * * //

dimensions      [1 -3 0 0 0 0 0];

internalField   nonuniform List<scalar> 
62344
(
1.0004962
0.99897456
0.99635935
0.99414281
0.99040865
0.98599077
0.98625372
0.98253908
0.9745474
0.97247996
0.97161373
0.96917007
0.96803697
0.968187
0.97123612
0.97670625
0.98631208
0.99373162
0.99494316
0.99837225
0.9989807
1.00437
1.0051228
1.0158732
1.012422
1.0134237
1.0225251
1.0112181
1.0057244
1.0182205
1.0232809
1.0106267
1.0058025
1.0161579
1.0221126
1.0099446
0.99580762
1.0031236
1.0266515
1.0463673
1.0422263
1.0183001
1.0030633
1.0060993
1.0159858
1.0278936
1.0419291
1.0553807
1.0629328
1.0584848
1.0404234
1.0173972
1.0008537
0.99856909
1.0084753
1.0005364
0.99998633
0.9962883
0.99409982
0.99302903
0.98828085
0.98606915
0.98265842
0.97582846
0.97055615
0.96935668
0.96854881
0.96983717
0.9689326
0.97229656
0.97530462
0.98511139
0.99311561
0.99407203
0.99674037
0.99970265
1.0041993
1.0042963
1.0149167
1.0123747
1.0140706
1.0197667
1.0062636
1.0027122
1.0176691
1.0210021
1.0076416
1.0041241
1.0169307
1.0241309
1.0105484
0.99444305
1.0028613
1.0280985
1.0473504
1.0361649
1.0090234
0.99757752
1.0061714
1.0219868
1.0366094
1.0412795
1.0392915
1.042267
1.0493031
1.0481952
1.0326399
1.0112872
0.99568814
0.99365828
1.0008129
1.0002593
0.9964117
0.99273318
0.99326649
0.99239253
0.98703877
0.9797047
0.9761255
0.97282952
0.96887385
0.96690868
0.96938441
0.96798591
0.9724479
0.97460665
0.984564
0.99311557
0.99521625
0.99724182
1.0007749
1.0051569
1.0067993
1.0154011
1.0127334
1.0153689
1.0168724
1.0030954
1.0022558
1.0170396
1.0185809
1.0037864
1.0024372
1.0183051
1.0274004
1.0133323
0.99682261
1.0025631
1.0240283
1.0395762
1.0281813
1.003133
0.99635185
1.0096255
1.0317308
1.0464036
1.0427882
1.030619
1.0231397
1.0307954
1.0433943
1.0450521
1.0343853
1.0158374
0.99973514
1.0012507
1.0003118
0.99758671
0.99336883
0.99178275
0.99318961
0.98847554
0.9792996
0.97585909
0.97470978
0.97069027
0.9674391
0.96696989
0.96431359
0.96952804
0.9722207
0.98122235
0.98981299
0.995225
0.99797651
1.0017453
1.0054684
1.0085639
1.0153275
1.011566
1.0154192
1.0124617
0.99980868
1.0033655
1.016605
1.0156977
1.000597
1.0004162
1.0177541
1.0273179
1.0151239
1.0003482
1.0041245
1.0199016
1.0300022
1.0202146
0.9999149
0.9953091
1.0101909
1.0360052
1.0556049
1.0497446
1.0306299
1.01439
1.0102254
1.0214097
1.0367488
1.043835
1.0402364
1.0289387
1.0014082
1.0006392
0.99905205
0.99584669
0.99147186
0.99051801
0.98789982
0.98197567
0.97696088
0.97386325
0.97030565
0.9675377
0.96463883
0.96121726
0.96591791
0.96919752
0.97711871
0.98495793
0.99316884
0.99704389
1.002208
1.0053719
1.0101016
1.0150334
1.0099133
1.0142991
1.0080276
0.99773193
1.0048902
1.0162572
1.0127739
0.99761202
0.99955463
1.0158442
1.0232382
1.0132309
1.0021699
1.0066278
1.0189203
1.0248398
1.0158982
0.99992311
0.99662965
1.0089851
1.031737
1.0534768
1.0548492
1.0383509
1.0166909
1.0009025
0.99920439
1.0122497
1.0324503
1.0466961
1.0511248
1.0012535
1.0011005
0.99999579
0.99805894
0.99311033
0.98884708
0.98616748
0.98382053
0.9792407
0.97280379
0.96800721
0.96626136
0.96355356
0.96160259
0.96453226
0.96749138
0.9744977
0.98165733
0.99146657
0.99566029
1.0019164
1.0052761
1.0113091
1.014307
1.0084904
1.0123377
1.0041188
0.99677766
1.0062271
1.0152277
1.009267
0.99588363
0.99928354
1.0138127
1.0183236
1.008154
1.0015613
1.008992
1.0198689
1.0227307
1.0151415
1.0040536
1.0020635
1.0113291
1.0248457
1.0381521
1.0473496
1.0428415
1.0262116
1.0055979
0.99272551
0.99385509
1.0080385
1.0299879
1.0497883
1.0011405
1.0017414
1.0004695
0.99921342
0.9955962
0.99018305
0.98529534
0.98362334
0.98049418
0.97317653
0.96715235
0.96537043
0.96310188
0.96293872
0.96429879
0.96638267
0.97274136
0.97966736
0.99058735
0.9950957
1.0015445
1.0051946
1.0120427
1.0125275
1.0072277
1.0106155
1.0007211
0.99680086
1.0072581
1.0132059
1.004455
0.99429696
0.99956544
1.0125161
1.0142453
1.003177
0.9997248
1.0098026
1.0204264
1.0204414
1.0144168
1.0101104
1.0102354
1.01593
1.0206099
1.0215466
1.027923
1.036845
1.0326476
1.0182902
1.001237
0.99210896
0.9952124
1.0083467
1.0308189
1.0012797
1.0024978
1.00059
0.99988115
0.99772576
0.99262971
0.98663785
0.98308127
0.97967409
0.97415496
0.96872266
0.96598265
0.96276568
0.96352327
0.96355607
0.96498934
0.9710975
0.97850479
0.98966115
0.99539574
1.0020417
1.0062002
1.0126922
1.0109728
1.0068513
1.0093779
0.998553
0.99731303
1.0085236
1.0108553
0.99930557
0.99226008
1.000341
1.0124874
1.0111337
0.99986661
0.99830973
1.0097597
1.0204665
1.0172118
1.0106454
1.0125851
1.018285
1.0223308
1.0206941
1.0125004
1.0099303
1.0192883
1.0282719
1.0258632
1.0163928
1.0035597
0.99716471
1.0001851
1.0135634
1.0016518
1.0031193
1.0007682
1.0003813
0.99908287
0.99446632
0.98915922
0.98414847
0.97865066
0.97436016
0.97069091
0.96746624
0.96312107
0.96360399
0.96248313
0.9637126
0.96991968
0.97770279
0.98823749
0.99596163
1.0035524
1.0079126
1.0136109
1.0104202
1.0073978
1.0091089
0.99756569
0.99827173
1.0091911
1.0085855
0.99436912
0.98997179
1.0013699
1.0131461
1.009057
0.99819604
0.99833781
1.0106238
1.0207292
1.0143707
1.0042834
1.0085255
1.0220467
1.0294981
1.0249561
1.0121887
1.0013199
1.0010305
1.0120994
1.0227331
1.0252543
1.0202764
1.0119873
1.0057017
1.0086014
1.0019949
1.0035078
1.0011582
1.0008141
0.99973883
0.99540502
0.99154085
0.98663199
0.97912961
0.97399542
0.97154606
0.96831647
0.96400278
0.96381568
0.96200964
0.96314435
0.9690796
0.97728724
0.98659498
0.9955267
1.0049597
1.0094326
1.0142883
1.0103019
1.0089201
1.0095418
0.99765299
0.99892008
1.0091813
1.0064515
0.99031197
0.98761657
1.0022196
1.0140233
1.0076652
0.99661819
0.99912669
1.0131263
1.0220141
1.0137592
0.99872333
1.0001533
1.018255
1.0333852
1.0322275
1.0183811
1.0027123
0.99232221
0.99497321
1.0089867
1.0230813
1.0289391
1.0282076
1.0229893
1.0175053
1.0022115
1.0036909
1.0017668
1.0011201
1.0000438
0.99594829
0.99293872
0.98893663
0.98094738
0.97416305
0.9712856
0.96781605
0.96468097
0.96413812
0.96222399
0.96317082
0.96826446
0.97652048
0.98478393
0.99382763
1.0051832
1.0098832
1.0139482
1.0099034
1.0103086
1.0097974
0.99801491
0.99909453
1.0084397
1.0043423
0.98735557
0.98552341
1.0025667
1.0144213
1.0063637
0.99449097
0.99945315
1.0165566
1.0248178
1.0152093
0.99673135
0.99279553
1.0092547
1.0310553
1.0379938
1.0284746
1.010961
0.99438298
0.98653529
0.99365743
1.0096791
1.0256232
1.035305
1.0396203
1.0357711
1.0022089
1.0038172
1.0025211
1.0013505
1.0001484
0.99683197
0.99368771
0.98993895
0.98267361
0.97520036
0.97099124
0.9664934
0.96464328
0.96406543
0.96256408
0.96322289
0.96710769
0.97500393
0.98263727
0.99135615
1.0043655
1.0093545
1.0129574
1.0094622
1.0109926
1.009426
0.9980532
0.99849846
1.0067865
1.0024749
0.98550434
0.98422143
1.0022406
1.0142244
1.0052171
0.99135958
0.99824616
1.0186606
1.0285248
1.0186684
0.99800772
0.98936977
1.0008484
1.0225906
1.0393056
1.037537
1.0228257
1.0028683
0.98837606
0.98530263
0.99369932
1.011168
1.0306065
1.0456548
1.0519376
1.0020478
1.0038936
1.0032996
1.0015692
1.000153
0.99807692
0.99431296
0.98968012
0.98324793
0.97660086
0.97140296
0.96542165
0.96426518
0.96332309
0.96243325
0.96265761
0.96521846
0.97250312
0.98027672
0.98890312
1.0030637
1.008375
1.0117196
1.0092075
1.0110893
1.0085427
0.99773332
0.99753212
1.0047425
1.0005995
0.98449506
0.98369347
1.0018611
1.013924
1.0041697
0.98839242
0.99547442
1.0179914
1.0316474
1.02304
1.0009725
0.9900096
0.99684298
1.0130237
1.034177
1.0423091
1.0331286
1.0150059
0.9961043
0.98508189
0.98454847
0.995139
1.016085
1.0396561
1.0559948
1.0019047
1.0041308
1.0040307
1.0018783
1.0002483
0.99943021
0.99506421
0.98898937
0.98268661
0.97753684
0.972333
0.9655241
0.96412237
0.9622037
0.96156305
0.96153062
0.96286574
0.96954751
0.97810136
0.9870575
1.0017992
1.0075888
1.0109441
1.0094552
1.0109362
1.0072635
0.99751547
0.9965505
1.0028643
0.99865972
0.984105
0.98385075
1.0012326
1.0137891
1.0034661
0.98627805
0.99207138
1.0147822
1.0327768
1.0266576
1.0045477
0.99315937
0.99676121
1.0071321
1.0249557
1.0406936
1.0388974
1.0259758
1.0066558
0.99054532
0.98279374
0.9865092
1.0008369
1.0249783
1.0484153
1.0018271
1.0044207
1.0047548
1.0024311
1.0006542
1.0006419
0.99584711
0.98860677
0.98161743
0.97763777
0.97327745
0.9666296
0.96449645
0.96115816
0.96035025
0.96032149
0.96086402
0.96701014
0.97646201
0.98603058
1.000848
1.0071769
1.0111842
1.0103186
1.0108336
1.0060102
0.99767086
0.99593911
1.0013724
0.99707415
0.98439565
0.98443127
1.0003582
1.0132206
1.0026897
0.98534335
0.9901238
1.0099876
1.0308922
1.0282197
1.0078023
0.99770438
0.99915238
1.0053959
1.0165066
1.0319436
1.0387487
1.031946
1.0172431
0.99898855
0.98648865
0.98416925
0.99229147
1.009594
1.0328017
1.0018518
1.0047494
1.0054483
1.0032132
1.0013746
1.0014992
0.99636399
0.98862951
0.98085439
0.97722569
0.97379778
0.9678589
0.96512722
0.96064737
0.95946969
0.95954993
0.9598364
0.96537063
0.97549382
0.98610909
1.0002828
1.0073111
1.0126465
1.0118507
1.0109904
1.0051376
0.99815398
0.99611623
1.0000872
0.9958627
0.98502215
0.98553871
0.99935349
1.0114951
1.001947
0.98566173
0.98991305
1.0057655
1.0262044
1.0268922
1.0100163
1.0026316
1.003209
1.0066708
1.0121957
1.0208217
1.0312037
1.0323729
1.023817
1.0084315
0.99329936
0.98644517
0.98939765
1.0001588
1.0167821
1.0019182
1.0050509
1.0060258
1.0041038
1.0022678
1.0019305
0.99668662
0.9889977
0.98083485
0.97676106
0.97365516
0.9684847
0.96552329
0.9607378
0.95937906
0.95959157
0.95985619
0.96464152
0.97498747
0.98692474
0.99993619
1.0078239
1.0145628
1.0137847
1.0114367
1.0050112
0.99882213
0.99685184
0.99925413
0.99490198
0.98606494
0.9871207
0.9987769
1.0087665
1.0008682
0.98687748
0.9906169
1.0034476
1.0200886
1.0226269
1.011223
1.007126
1.0079214
1.0096824
1.0117728
1.0120143
1.0184698
1.0263536
1.0251808
1.0154668
1.0018634
0.99207353
0.99083124
0.99631486
1.0057257
1.0019919
1.0052642
1.0063877
1.0049566
1.0031267
1.0019653
0.99680094
0.98956632
0.98162073
0.97657559
0.97298449
0.96833976
0.96548498
0.96125908
0.96000827
0.96030764
0.96087174
0.96478605
0.97467611
0.98784492
0.99964536
1.0085132
1.0162591
1.0154723
1.0119666
1.0053597
0.99958495
0.9981177
0.9987271
0.99399043
0.98715842
0.98887458
0.99875811
1.0053643
0.99884071
0.98882424
0.99210554
1.0030325
1.0144782
1.0163077
1.0108675
1.0103512
1.0122113
1.0136942
1.0138313
1.0079557
1.0068841
1.0148597
1.0212948
1.0179916
1.0100905
1.0006013
0.99576851
0.99663236
1.0004908
1.0020421
1.0053583
1.0064916
1.0056279
1.0038155
1.0017841
0.99675638
0.99019439
0.98286086
0.97684094
0.97218172
0.96776901
0.9650925
0.96191089
0.96099912
0.9613824
0.96237844
0.96540207
0.97439929
0.98820382
0.99922418
1.0091564
1.0172847
1.0165716
1.0121896
1.0058324
1.0003641
0.99948137
0.99850094
0.99318118
0.98813082
0.99050471
0.99914736
1.0021074
0.99619663
0.99073701
0.99396904
1.0041492
1.010888
1.0093058
1.0088205
1.0120329
1.0160513
1.0183156
1.0172387
1.0080006
1.000054
1.0033326
1.0124591
1.0163891
1.0148303
1.0102833
1.0042188
1.0012493
1.0003718
1.0020662
1.0053612
1.006377
1.0060507
1.0043749
1.0014956
0.99662458
0.99074264
0.98413722
0.97744094
0.97162993
0.96722981
0.96450276
0.96237559
0.96193593
0.96224829
0.96355294
0.96583841
0.97375226
0.98776663
0.99863123
1.0096653
1.0173352
1.0168248
1.0120343
1.0062099
1.0009822
1.0004659
0.99845094
0.99225155
0.98864443
0.99201047
0.99998936
0.99920563
0.99320787
0.9918651
0.9961077
1.0064207
1.0094074
1.0033411
1.0050711
1.0125426
1.0186202
1.0232324
1.0214939
1.010746
0.99823298
0.99533252
1.0013733
1.0107532
1.0165977
1.0175342
1.014821
1.0096735
1.0046746
1.0020758
1.0052914
1.0060926
1.0062009
1.004741
1.0011976
0.99648147
0.99117664
0.98527393
0.9781815
0.9715313
0.96710599
0.96401321
0.96266827
0.96251927
0.96246968
0.96415568
0.96586724
0.9727393
0.98648781
0.99787818
1.0100417
1.0165472
1.0164622
1.0115267
1.0063032
1.0012537
1.0012297
0.99856468
0.9915027
0.98858004
0.99314875
1.0007787
0.99728672
0.98988802
0.99174512
0.99857493
1.0090461
1.0096885
0.99920966
1.0004377
1.0118073
1.0203245
1.0280438
1.0264686
1.0152088
1.0003996
0.99179391
0.99252739
1.0025927
1.0151678
1.0219434
1.0241424
1.021118
1.0139833
1.0020576
1.0051602
1.0057222
1.0061268
1.004895
1.0009215
0.99637379
0.99157258
0.986113
0.97888388
0.97186521
0.96743589
0.96377972
0.96272297
0.96252991
0.96196338
0.9638008
0.96538276
0.97122528
0.98460868
0.99683272
1.0101583
1.0152509
1.0157648
1.0107462
1.0061297
1.0013104
1.001607
0.99855519
0.99092922
0.98797551
0.99378618
1.0012797
0.99628631
0.98668032
0.99021668
1.0008442
1.0119445
1.0110167
0.99722537
0.99563513
1.0094222
1.0214624
1.0320172
1.0315861
1.0201987
1.0046374
0.99189234
0.98697987
0.99451336
1.0094973
1.0231681
1.0312954
1.0327092
1.0259084
1.002029
1.0049968
1.0053261
1.0059282
1.0049148
1.0007013
0.99637922
0.99195661
0.98655368
0.97948889
0.97246402
0.96827167
0.9638259
0.96263345
0.96206456
0.96105526
0.96307458
0.96472412
0.96980232
0.98259135
0.99556095
1.0101407
1.0141517
1.0149328
1.0099528
1.0055659
1.001307
1.0018607
0.99862017
0.9903603
0.98724947
0.99411313
1.0015721
0.99580848
0.98386327
0.98768976
1.0021941
1.0150485
1.0127107
0.9968009
0.9919809
1.0054525
1.0218099
1.0351752
1.0365297
1.0254057
1.0100847
0.99448618
0.98494962
0.98818885
1.0017569
1.0207589
1.0357787
1.0425739
1.0383643
1.0019858
1.0048368
1.004972
1.0056824
1.0048782
1.0005582
0.99651298
0.99230676
0.98668566
0.97995378
0.97312873
0.96948456
0.96412992
0.96238364
0.96129829
0.95987838
0.96198145
0.96381948
0.96832848
0.98038513
0.99402522
1.0100589
1.0130453
1.0142549
1.0094785
1.0055253
1.0012487
1.002126
0.99874783
0.9900284
0.98650969
0.99425256
1.0017921
0.9957704
0.98179582
0.98481099
1.002227
1.0176781
1.014634
0.99744737
0.9894134
1.0006991
1.0208392
1.0374688
1.0408767
1.0302131
1.0155033
0.99854148
0.98603017
0.98474165
0.99472353
1.0153614
1.0365474
1.0494573
1.0489435
1.0019564
1.0046861
1.0046988
1.0054745
1.0048559
1.0004947
0.99671399
0.99267264
0.98675343
0.98037163
0.97398164
0.97093476
0.96468432
0.96239634
0.96071653
0.9587606
0.96107317
0.96326296
0.96730256
0.97859709
0.99262077
1.0097625
1.0119236
1.0134775
1.0086607
1.0050341
1.0014356
1.002404
0.99917245
0.99003727
0.98592914
0.99427374
1.0017813
0.99641
0.981036
0.98173093
1.0013729
1.0201958
1.0166625
0.99905869
0.98774702
0.9964738
1.0183378
1.0386831
1.0439849
1.0350311
1.0206332
1.0033572
0.98873214
0.983123
0.98929723
1.0083722
1.0336666
1.0531602
1.0572728
1.0019621
1.0046144
1.0045433
1.0054021
1.0049338
1.0004805
0.99684108
0.99282327
0.98663272
0.98053511
0.97433105
0.97175579
0.9651562
0.96237482
0.96013214
0.95789953
0.96025774
0.96270031
0.96653311
0.97739889
0.99119291
1.0099643
1.0115491
1.0132101
1.0088748
1.0051778
1.0016095
1.0025912
0.99965401
0.99022888
0.98513881
0.99379095
1.0019554
0.99727169
0.98142094
0.97863484
0.99859106
1.0212962
1.0193849
1.0014533
0.98713682
0.99189557
1.0133477
1.0378019
1.0467721
1.0399079
1.025168
1.0076837
0.99106453
0.98070535
0.98400507
1.000269
1.0257602
1.0512146
1.0605689
1.0020377
1.0046532
1.004542
1.0054776
1.0050283
1.0004111
0.99661173
0.99265587
0.98629998
0.98050866
0.97444764
0.97213904
0.96522451
0.96209842
0.95955448
0.95706204
0.9593697
0.96189148
0.96519511
0.97536573
0.98921623
1.0083298
1.0104358
1.0125491
1.0086356
1.0051768
1.0013024
1.0022278
0.99971426
0.99086814
0.98463504
0.99231727
1.0010876
0.99739053
0.98349803
0.9766316
0.99474331
1.0178611
1.0199063
1.0040954
0.98887386
0.9888796
1.0067741
1.0313012
1.0436846
1.0407426
1.0290458
1.0122613
0.9955593
0.9830615
0.98164732
0.99257224
1.0146043
1.0403692
1.0543108
1.0544142
1.0538878
1.044712
1.0339929
1.0228342
1.0112913
1.0023906
0.99839169
0.99961531
1.0059542
1.0191016
1.0370887
1.0545957
1.064725
1.063511
1.0481153
1.0272003
1.014227
1.018656
1.0367734
1.0582648
1.0673779
1.0512125
1.0154653
0.99416891
1.0060872
1.030434
1.0302201
1.022476
1.0136707
1.0038063
0.99521476
0.98935015
0.98738768
0.98976394
0.99795367
1.0130326
1.0312535
1.0464423
1.05478
1.0544253
1.0437564
1.0262733
1.0131363
1.0151016
1.0344886
1.062913
1.0801646
1.0753048
1.0460683
1.0136922
1.007968
1.0312118
1.0521328
0.99668145
0.99014133
0.98636256
0.98212125
0.97948937
0.97976538
0.98410037
0.99291223
1.0051838
1.018069
1.0274641
1.031434
1.0290592
1.0203634
1.0085139
1.0003954
1.0012764
1.0168539
1.0435761
1.06753
1.0743945
1.0595432
1.0338023
1.0222136
1.0364511
1.0658442
1.0719436
0.97836363
0.97654386
0.97906236
0.9808663
0.98457756
0.99106264
0.99984119
1.0084514
1.0144617
1.0159276
1.012987
1.0065318
0.99694847
0.98773934
0.98436839
0.9883827
1.0010458
1.0194439
1.0374791
1.0471409
1.0409673
1.0235075
1.0156011
1.0312691
1.0664169
1.0940475
1.0842489
0.98391276
0.9893291
0.9981957
1.0048943
1.0113718
1.0164238
1.018224
1.0164803
1.0123801
1.0057411
0.99650858
0.98769074
0.98098828
0.98097947
0.9873311
0.99972911
1.0143075
1.0243154
1.0254852
1.0159066
0.99779161
0.98813344
0.99926304
1.0335033
1.0743057
1.0937235
1.0790313
1.0196955
1.0322159
1.0403191
1.0429448
1.0416373
1.0358858
1.0273965
1.0175471
1.0067679
0.99718742
0.98945842
0.98527121
0.98910755
0.9992337
1.0141299
1.0276619
1.0333974
1.0276318
1.0106198
0.99097048
0.97337348
0.97600854
0.99699688
1.0293934
1.0549698
1.0613324
1.0512585
1.0693009
1.0764304
1.0741419
1.0667942
1.0570224
1.045115
1.0319946
1.0190167
1.0088202
1.001994
1.0010004
1.0079193
1.0201561
1.0372171
1.0537312
1.0582457
1.046722
1.0248014
1.0024451
0.98299805
0.97870877
0.99238254
1.013948
1.0286976
1.0259263
1.0145931
1.0115831
1.0725196
1.0721783
1.0650343
1.05641
1.0462607
1.0356184
1.0259028
1.0183365
1.0150499
1.0185751
1.0301266
1.0470857
1.0674515
1.0856189
1.0886593
1.0756557
1.0516823
1.0248068
1.0037509
0.99678835
1.0082378
1.0267057
1.0423674
1.0322128
1.0047562
0.97913946
0.98098907
1.0389789
1.0331953
1.0258683
1.0180163
1.0109035
1.0062029
1.0053388
1.0095542
1.0194782
1.0352493
1.0554529
1.0762755
1.0927659
1.0976946
1.0884733
1.0696001
1.0476533
1.0271402
1.0193576
1.0306332
1.0544416
1.0738777
1.0701095
1.0365831
0.99746881
0.97173546
0.97343014
0.99976404
0.99362546
0.99142223
0.98920334
0.98936381
0.99304
1.0003846
1.0118371
1.0267349
1.0422842
1.0560956
1.0636781
1.0654205
1.0596383
1.0483192
1.0369519
1.0284
1.0278952
1.0422218
1.0707431
1.1001099
1.1116535
1.0894076
1.0469526
1.0068598
0.98940003
0.98510366
0.98319896
0.98386602
0.98921507
0.99484095
1.0029717
1.013017
1.0236605
1.0326736
1.0370784
1.0366243
1.0327228
1.0256989
1.017091
1.0081741
0.99989109
0.99784054
1.0050973
1.0245449
1.0538643
1.083569
1.106859
1.1083554
1.0883583
1.0566567
1.0319014
1.0232452
1.0100206
1.0084828
1.0174667
1.0288894
1.0383994
1.0454812
1.0480413
1.0466073
1.0404958
1.031181
1.0203083
1.0089418
0.99840432
0.9883222
0.98139201
0.98105902
0.9886619
1.0042032
1.0249005
1.044786
1.0590113
1.0672829
1.0637763
1.0558631
1.0502544
1.0504996
1.0545786
1.0467169
1.0752586
1.0858363
1.0912262
1.0885248
1.0813978
1.0703603
1.0568655
1.0415611
1.0258983
1.0121846
1.0018597
0.99403094
0.99049373
0.99246547
1.0028934
1.0180602
1.0309587
1.0355354
1.0311942
1.0212995
1.0131312
1.0086555
1.0119455
1.0239228
1.0408574
1.054665
1.0682137
1.1165866
1.1198654
1.1142441
1.1054958
1.094485
1.081121
1.066483
1.0510671
1.0377496
1.0267336
1.0200381
1.0191551
1.0263923
1.0384772
1.0551958
1.0660645
1.0633731
1.0466532
1.0225336
0.99895207
0.98445194
0.97814981
0.98424082
0.99633615
1.0100489
1.0259998
1.0555064
1.0871098
1.0831572
1.078927
1.0721455
1.0650205
1.0587173
1.0530312
1.0485665
1.046188
1.0476166
1.0553571
1.0703236
1.0899877
1.1084667
1.1191285
1.1126893
1.0914873
1.0606538
1.0281023
1.003641
0.98782231
0.98313739
0.98615373
0.98563541
0.98277396
0.99278025
1.0299005
1.0357374
1.0297277
1.0259057
1.021588
1.0184079
1.016631
1.0186027
1.0253438
1.0380737
1.0569029
1.0806957
1.1062874
1.1291891
1.1432204
1.1440723
1.1333268
1.1117938
1.0846409
1.0554382
1.0321739
1.0176533
1.0124557
1.0071862
0.99586501
0.98310761
0.98341629
1.0089823
0.9957521
0.99228914
0.99325262
0.99473801
0.99829824
1.0049905
1.0146403
1.0270573
1.0423415
1.0586936
1.0733715
1.0858429
1.0973865
1.1039743
1.1059331
1.1045028
1.0990277
1.0903006
1.0793954
1.0715001
1.0663784
1.0627742
1.0499036
1.0280335
1.008338
1.0029343
1.0096009
0.99074214
0.99408578
1.0037587
1.0130079
1.0226704
1.0331135
1.0421719
1.0484174
1.050779
1.0489938
1.0451981
1.042428
1.0411385
1.0422329
1.0443195
1.0491446
1.0534344
1.0583795
1.0659975
1.0786455
1.0927461
1.1029459
1.1022733
1.0870628
1.0658215
1.0460477
1.0275672
1.0432915
1.0523502
1.0631737
1.0702239
1.0739577
1.0726052
1.0663957
1.0564614
1.0445054
1.0321076
1.0220788
1.0149844
1.0109884
1.0096096
1.0105152
1.0110648
1.0143088
1.020566
1.0314342
1.0462259
1.0670125
1.0930725
1.1182001
1.1370244
1.1381173
1.108841
1.0597366
1.1272128
1.1331182
1.1332448
1.1264549
1.1141948
1.0986986
1.0815884
1.0636395
1.0461278
1.0309224
1.0203461
1.013862
1.0109461
1.010056
1.0099987
1.0104136
1.0083498
1.0046093
1.0025786
1.0078006
1.0241392
1.0543847
1.0948969
1.1350307
1.1584743
1.1480706
1.1039412
1.1493386
1.1496095
1.145666
1.139316
1.1297118
1.1164236
1.1016609
1.0859498
1.0706372
1.0577236
1.0481167
1.0420954
1.0385642
1.037473
1.0361587
1.0317472
1.0235401
1.0117803
0.9986671
0.99138397
0.99908591
1.024557
1.0636794
1.1003903
1.1196096
1.1180873
1.1046269
1.1080218
1.1054724
1.1042944
1.1009804
1.0967157
1.0935686
1.0906737
1.0880812
1.0863643
1.085317
1.0856418
1.0873685
1.0892658
1.0895975
1.0847043
1.0737228
1.0562196
1.0356437
1.0177152
1.0072139
1.0093091
1.0216463
1.0411621
1.0562549
1.061783
1.053761
1.0523214
1.0619297
1.0591417
1.0591164
1.0574077
1.0551566
1.0530704
1.0528484
1.0552708
1.0609475
1.0709282
1.0847745
1.1006492
1.1161468
1.1274402
1.1313067
1.1257101
1.1098712
1.0879534
1.0660531
1.0516266
1.0455704
1.0427871
1.0378217
1.0252591
1.0077579
0.99602877
0.99739549
1.0367786
1.0355515
1.0367995
1.0361595
1.0353253
1.0344209
1.0340351
1.0349058
1.0382893
1.0448684
1.0550493
1.0697621
1.0884002
1.1097417
1.1278132
1.1424814
1.1502036
1.1493009
1.1405819
1.1225571
1.1000618
1.0754845
1.0492296
1.0154383
0.98119604
0.95813559
0.95682312
1.0321721
1.0329805
1.0367429
1.0379488
1.0381058
1.0367858
1.0348753
1.0322055
1.0307798
1.0311739
1.0339579
1.0414528
1.0538661
1.0709786
1.0940926
1.1182315
1.143656
1.1643227
1.1752667
1.1738126
1.1562489
1.1229485
1.077775
1.0319922
0.98718188
0.95391784
0.93640059
1.0472041
1.0491908
1.0528429
1.0537519
1.0524434
1.0490224
1.0438115
1.0379068
1.0318965
1.0272156
1.0260732
1.0304675
1.0412027
1.0585811
1.0788054
1.1004385
1.1211511
1.1367291
1.1454036
1.1484431
1.1492942
1.1433345
1.1201797
1.0783604
1.0282367
0.98090365
0.94921657
1.0734686
1.0738686
1.075058
1.0727353
1.0675037
1.0602889
1.0519702
1.0437237
1.0370201
1.033468
1.0341435
1.0410725
1.0527765
1.0687861
1.0859427
1.0985965
1.1041227
1.1013077
1.0951635
1.0867612
1.0857907
1.0966091
1.114773
1.1187115
1.0920452
1.0435749
0.9956576
1.0921636
1.0915399
1.0917773
1.0885436
1.082705
1.0744694
1.0658783
1.0577674
1.0522803
1.0507448
1.0541663
1.0630726
1.0756909
1.0896215
1.0990604
1.0996396
1.0917173
1.0746823
1.0515888
1.0337275
1.0262978
1.0348533
1.0574234
1.0930059
1.1204844
1.1166192
1.0832591
1.1003585
1.0976858
1.0986101
1.0973824
1.0943878
1.0900347
1.0848773
1.0803696
1.0778968
1.0779118
1.0803956
1.0863945
1.0939692
1.1017242
1.1050272
1.0994658
1.0837395
1.0587698
1.0305104
1.0037081
0.9903394
0.99252862
1.0080042
1.0399229
1.0880525
1.1372315
1.1694831
1.1062694
1.1037522
1.1048585
1.105612
1.1050808
1.1039341
1.102143
1.1006243
1.099888
1.0999905
1.1004902
1.1024447
1.1043527
1.1046094
1.1015343
1.0923954
1.0759645
1.0526726
1.0239002
0.99773326
0.97848104
0.97542712
0.98541882
1.0103966
1.0515402
1.1143255
1.1950778
1.120132
1.1183904
1.1192961
1.1200213
1.1195576
1.1175271
1.1141808
1.1101062
1.1061815
1.1036743
1.1026008
1.1028269
1.1032691
1.1015773
1.0964643
1.0854547
1.0705082
1.0499062
1.0263246
1.0037222
0.98508599
0.97891567
0.98562963
1.007313
1.0450885
1.1004286
1.1801379
1.144075
1.1433576
1.1421413
1.140078
1.1353146
1.1277881
1.1184408
1.1085702
1.099414
1.0922288
1.0881603
1.0881238
1.0893276
1.0911117
1.0897371
1.0829526
1.0703635
1.0523964
1.0327698
1.0147741
1.0005217
0.99817357
1.0060112
1.0264429
1.0624868
1.1078339
1.1656786
1.1702044
1.1688622
1.1644728
1.1577289
1.1474187
1.1335035
1.1177257
1.1015844
1.0871577
1.0762023
1.0693449
1.0676194
1.0698852
1.0750476
1.0795593
1.0792084
1.0728717
1.0601626
1.0445497
1.0296331
1.0202943
1.0236943
1.0375658
1.0611163
1.0928302
1.1305649
1.1559686
1.1834045
1.1813301
1.1750392
1.1655113
1.1520396
1.1346917
1.1152514
1.0957827
1.078335
1.0643251
1.0550305
1.0516436
1.0537491
1.0599286
1.0672776
1.0721583
1.0731393
1.0692914
1.0598422
1.0485192
1.0439789
1.0533223
1.0741028
1.102726
1.131154
1.1531538
1.1491928
1.1813722
1.177833
1.1710975
1.1612196
1.1473059
1.1296814
1.1099799
1.0903006
1.0726632
1.0580815
1.0485781
1.0449197
1.0468078
1.0527391
1.0609088
1.0688605
1.074572
1.0766231
1.074134
1.0701748
1.0706984
1.0859375
1.1118408
1.1426027
1.1662976
1.168921
1.1393847
1.1647926
1.1602711
1.1535096
1.1447837
1.1329746
1.1178384
1.1007257
1.0837159
1.0689623
1.0568853
1.0493979
1.0470198
1.049108
1.0551691
1.0637456
1.0729822
1.0803406
1.0856639
1.0887216
1.091809
1.0991604
1.119446
1.1474404
1.1759242
1.1897171
1.1736953
1.1254312
1.1421218
1.1362621
1.1288932
1.1212251
1.1119197
1.1002615
1.0870807
1.0743143
1.0637505
1.0560929
1.0523609
1.053116
1.0578426
1.0660521
1.07617
1.0855101
1.0919293
1.0987442
1.1051337
1.1126394
1.1246365
1.1481141
1.1758703
1.1986393
1.1983745
1.1674586
1.1121805
1.1220862
1.1145246
1.1052789
1.0976663
1.090049
1.0813079
1.0717097
1.0627151
1.056037
1.0528694
1.0536845
1.0593546
1.0687012
1.0810272
1.0933393
1.1034611
1.1099793
1.1177058
1.1248892
1.1331981
1.1460795
1.169847
1.1935124
1.2052534
1.1919873
1.1545942
1.1003796
1.1094812
1.1009068
1.0891485
1.0802689
1.0726223
1.0650201
1.0573447
1.0505205
1.0465968
1.0472082
1.0524941
1.0635952
1.0785724
1.0958943
1.1126219
1.1256588
1.1331488
1.1404111
1.1464333
1.1530269
1.1628902
1.1826938
1.198302
1.1986197
1.1779084
1.1413049
1.0931545
1.1021572
1.0948544
1.0819577
1.0713411
1.062572
1.0546994
1.0475216
1.041817
1.0393119
1.0419564
1.0506718
1.0655675
1.0859659
1.1091136
1.1315816
1.1487482
1.1577682
1.1642325
1.1666944
1.1679512
1.1725536
1.1863987
1.1930205
1.1856371
1.1631092
1.130644
1.0850617
1.097389
1.0931855
1.0815392
1.0700863
1.0599795
1.0511119
1.0433849
1.0374906
1.0350878
1.0383584
1.0491409
1.0668744
1.0911732
1.1195201
1.1473936
1.1691844
1.180025
1.1853943
1.1829004
1.1771838
1.1751647
1.1820571
1.1837726
1.1750358
1.1529428
1.1215419
1.0843092
1.0898886
1.088507
1.079631
1.0695263
1.0595564
1.0503374
1.0424963
1.0366012
1.0341894
1.0380638
1.0498671
1.0692938
1.0965183
1.1289789
1.1614367
1.1862204
1.1979563
1.2005675
1.1917338
1.178782
1.1723652
1.1759446
1.1762751
1.1672566
1.1476574
1.1169123
1.0841215
1.0791732
1.0793965
1.072775
1.0644067
1.0553181
1.0465508
1.0389423
1.0335794
1.0318949
1.0369283
1.050245
1.0716243
1.1013803
1.1371213
1.1726013
1.1987484
1.2106737
1.210083
1.1955914
1.1776374
1.169415
1.1703748
1.1702389
1.1626037
1.1460483
1.1186989
1.0854541
1.0689192
1.0688616
1.0629774
1.0558023
1.0476379
1.0396234
1.0328869
1.0284541
1.0278623
1.0340458
1.0489489
1.0723478
1.1046848
1.1434529
1.1812674
1.208511
1.2209043
1.217507
1.1985721
1.1771146
1.1676852
1.1677457
1.169183
1.1617385
1.1453637
1.1188783
1.0886007
1.0626463
1.0605958
1.0526805
1.0451217
1.037592
1.0303684
1.0247285
1.0217248
1.0231683
1.0310689
1.0481386
1.0740132
1.1091149
1.1500276
1.1894171
1.2170137
1.2296909
1.2240443
1.2018968
1.1795299
1.169715
1.1699168
1.1710876
1.1621007
1.143083
1.1157904
1.0874436
1.0619624
1.0571541
1.046372
1.0370549
1.0290956
1.0223559
1.0176133
1.0158876
1.0191778
1.0300823
1.0500842
1.0791441
1.117172
1.1597924
1.1991733
1.2251815
1.2369109
1.2281154
1.2047074
1.1845191
1.176563
1.1769112
1.1739418
1.1597471
1.1380629
1.1109229
1.0832087
1.0679503
1.0602025
1.0459745
1.0339944
1.0244637
1.0172124
1.0128065
1.0123694
1.0178029
1.0312336
1.0539101
1.0859419
1.1264349
1.1702099
1.20875
1.2330227
1.242153
1.2290857
1.2056398
1.1895127
1.1831188
1.1833379
1.1752856
1.1547571
1.1296664
1.1037674
1.0773607
1.0777326
1.0685868
1.0514874
1.0367586
1.0252215
1.0166839
1.0119799
1.0122429
1.0189497
1.0351283
1.060533
1.0956726
1.1375479
1.1807838
1.2166465
1.2383149
1.2421308
1.2247208
1.2025288
1.190607
1.1860513
1.1845931
1.1719427
1.1456739
1.1173585
1.0922308
1.0710569
1.0885643
1.0789891
1.0606863
1.0439809
1.0305229
1.020423
1.0146563
1.0145829
1.0225246
1.0406833
1.0687876
1.1066163
1.149708
1.190863
1.2206817
1.2365019
1.2329091
1.2132377
1.1951237
1.1876493
1.1874075
1.1831945
1.164341
1.1332091
1.1048026
1.0825836
1.068273
1.1033749
1.0936471
1.07467
1.0556629
1.0397672
1.0280033
1.0212008
1.0211695
1.0295048
1.0482949
1.0783926
1.1169429
1.1575118
1.1927817
1.2156942
1.2248702
1.2146409
1.1951701
1.1827282
1.1829877
1.1887496
1.1827416
1.1591742
1.1250506
1.0961416
1.0793984
1.0679162
1.1222636
1.1130278
1.0941294
1.0733902
1.0549377
1.0407156
1.0323672
1.0315894
1.03941
1.0573516
1.0865867
1.1229536
1.1590274
1.1865657
1.201975
1.2047058
1.1901133
1.1732649
1.1692523
1.1790945
1.1916549
1.1860315
1.16038
1.1254797