/*--------------------------------*- C++ -*----------------------------------*\
| =========                 |                                                 |
| \\      /  F ield         | OpenFOAM: The Open Source CFD Toolbox           |
|  \\    /   O peration     | Version:  2406                                  |
|   \\  /    A nd           | Website:  www.openfoam.com                      |
|    \\/     M anipulation  |                                                 |
\*---------------------------------------------------------------------------*/
FoamFile
{
    version     2.0;
    format      ascii;
    arch        "LSB;label=32;scalar=64";
    class       volScalarField;
    location    "5";
    object      T;
}
// * * * * * * * * * * * * * * * * * * * * * * * * * * * * * * * * * * * * * //

dimensions      [0 0 0 1 0 0 0];

internalField   nonuniform List<scalar> 
19701
(
1.0000895
1.0000332
1.0000321
1.0000286
1.0000272
1.0000242
1.0000223
1.0000196
1.0000175
1.0000152
1.0000133
1.0000117
1.0000103
1.000009
1.0000079
1.0000069
1.0000061
1.0000053
1.0000046
1.000004
1.0000034
1.0000028
1.0000023
1.0000018
1.0000013
1.0000009
1.0000006
1.0000003
0.99999979
0.99999933
0.99999894
0.99999861
0.99999832
0.99999805
0.99999781
0.99999758
0.99999735
0.99999715
0.99999698
0.99999683
0.99999668
0.99999655
0.99999642
0.9999963
0.99999619
0.99999608
0.99999599
0.9999959
0.99999582
0.99999574
0.99999567
0.9999956
0.99999553
0.99999547
0.99999541
0.99999536
0.9999953
0.99999525
0.99999519
0.99999513
0.99999506
0.99999498
0.99999489
0.99999478
0.99999464
0.99999448
0.99999429
0.99999409
0.99999387
0.99999365
0.99999344
0.99999324
0.99999307
0.9999929
0.99999273
0.99999256
0.99999241
0.99999226
0.99999212
0.99999203
0.99999199
0.99999202
0.99999214
0.99999237
0.9999927
0.99999313
0.99999366
0.99999421
0.99999464
0.99999484
0.99999465
0.9999942
0.9999928
0.99999083
0.99998719
0.99998429
0.99998268
0.99999928
0.99999917
1.0001568
1.0000299
1.0000293
1.0000261
1.0000248
1.0000228
1.0000209
1.0000192
1.0000175
1.0000164
1.0000151
1.0000138
1.0000126
1.0000115
1.0000104
1.0000093
1.0000083
1.0000073
1.0000063
1.0000054
1.0000045
1.0000037
1.000003
1.0000023
1.0000018
1.0000013
1.0000008
1.0000003
0.9999999
0.9999996
0.99999937
0.99999912
0.9999989
0.99999872
0.99999854
0.99999837
0.99999819
0.999998
0.99999783
0.99999769
0.99999757
0.99999744
0.99999732
0.99999721
0.99999711
0.99999701
0.99999691
0.99999682
0.99999675
0.99999667
0.9999966
0.99999653
0.99999646
0.9999964
0.99999634
0.99999628
0.99999622
0.99999615
0.99999608
0.999996
0.99999591
0.9999958
0.99999566
0.99999551
0.99999532
0.9999951
0.99999486
0.99999461
0.99999437
0.99999416
0.99999399
0.99999387
0.99999379
0.99999371
0.99999362
0.99999351
0.99999339
0.99999329
0.99999323
0.99999324
0.99999336
0.99999361
0.99999399
0.99999446
0.99999502
0.99999565
0.99999634
0.99999694
0.9999971
0.99999655
0.99999497
0.99999276
0.99998971
0.99998587
0.99998362
0.99998682
0.99999091
1.0000216
1.0000218
1.0002187
1.0000192
1.0000117
1.0000135
1.0000123
1.0000121
1.0000121
1.0000115
1.0000114
1.0000107
1.00001
1.0000093
1.0000086
1.0000079
1.0000072
1.0000065
1.0000058
1.0000051
1.0000045
1.0000041
1.0000036
1.0000031
1.0000027
1.0000023
1.0000019
1.0000015
1.0000011
1.0000007
1.0000004
1.0000002
0.99999988
0.99999961
0.99999938
0.99999914
0.99999892
0.99999873
0.99999855
0.99999841
0.99999826
0.99999811
0.99999797
0.99999784
0.99999772
0.99999761
0.99999748
0.99999738
0.99999728
0.99999719
0.9999971
0.99999703
0.99999695
0.99999688
0.99999681
0.99999674
0.99999668
0.99999661
0.99999654
0.99999646
0.99999637
0.99999626
0.99999613
0.99999597
0.99999577
0.99999554
0.99999526
0.99999495
0.99999462
0.9999943
0.99999403
0.99999382
0.9999937
0.99999367
0.9999937
0.99999374
0.99999376
0.99999374
0.99999371
0.99999372
0.99999382
0.99999404
0.99999441
0.99999496
0.99999565
0.99999643
0.99999728
0.99999816
0.99999906
0.99999978
0.99999987
0.99999876
0.99999572
0.99999147
0.99998634
0.99998207
0.99998217
0.99998848
0.99999294
1.0000091
1.0000024
1.0002997
1.0000183
1.0000031
1.0000032
1.0000038
1.0000039
1.0000047
1.0000049
1.0000055
1.0000056
1.0000059
1.0000059
1.000006
1.0000059
1.0000057
1.0000055
1.0000052
1.0000049
1.0000045
1.0000041
1.0000037
1.0000034
1.000003
1.0000027
1.0000023
1.000002
1.0000017
1.0000014
1.0000011
1.0000008
1.0000006
1.0000003
1.0000001
0.99999985
0.99999964
0.99999945
0.9999993
0.99999915
0.99999901
0.99999887
0.99999873
0.99999862
0.99999851
0.99999841
0.9999983
0.9999982
0.9999981
0.99999801
0.99999793
0.99999785
0.99999778
0.9999977
0.99999763
0.99999755
0.99999748
0.9999974
0.99999732
0.99999722
0.99999711
0.99999697
0.9999968
0.99999659
0.99999634
0.99999602
0.99999566
0.99999526
0.99999485
0.99999447
0.99999417
0.99999396
0.99999388
0.99999392
0.99999404
0.99999418
0.99999426
0.99999429
0.9999943
0.99999438
0.9999946
0.999995
0.99999561
0.99999642
0.99999738
0.99999843
0.99999953
1.0000007
1.0000018
1.0000028
1.0000031
1.0000019
0.99999804
0.99999186
0.99998445
0.99997874
0.99997949
0.9999853
0.99998586
0.99998752
0.99997423
1.0003933
1.0000252
1.0000064
1.0000058
1.0000065
1.0000062
1.0000066
1.0000066
1.0000068
1.0000069
1.0000069
1.000007
1.000007
1.000007
1.0000068
1.0000067
1.0000065
1.0000063
1.000006
1.0000058
1.0000055
1.0000052
1.0000049
1.0000047
1.0000044
1.0000041
1.0000038
1.0000036
1.0000033
1.000003
1.0000027
1.0000025
1.0000022
1.000002
1.0000018
1.0000016
1.0000014
1.0000012
1.0000011
1.0000009
1.0000008
1.0000007
1.0000005
1.0000004
1.0000003
1.0000002
1.0000001
1
0.99999993
0.99999984
0.99999975
0.99999967
0.99999959
0.99999951
0.99999944
0.99999934
0.99999924
0.99999913
0.999999
0.99999883
0.99999862
0.99999835
0.99999803
0.99999764
0.99999719
0.9999967
0.99999619
0.99999574
0.99999538
0.99999516
0.99999509
0.99999519
0.99999542
0.99999565
0.9999958
0.99999586
0.9999959
0.99999601
0.99999631
0.99999686
0.99999767
0.9999987
0.99999989
1.0000011
1.0000025
1.0000038
1.0000052
1.0000064
1.0000068
1.0000057
1.0000014
0.99999422
0.99998496
0.9999768
0.99997336
0.99997445
0.99997641
0.99998679
0.9999662
1.0004779
1.0000394
1.0000143
1.0000129
1.0000139
1.0000134
1.0000135
1.0000133
1.0000132
1.0000129
1.0000128
1.0000128
1.0000127
1.0000127
1.0000124
1.0000124
1.0000122
1.0000121
1.0000118
1.0000117
1.0000115
1.0000113
1.000011
1.0000108
1.0000106
1.0000104
1.0000101
1.0000099
1.0000097
1.0000094
1.0000092
1.000009
1.0000088
1.0000085
1.0000084
1.0000082
1.000008
1.0000079
1.0000077
1.0000075
1.0000074
1.0000073
1.0000071
1.000007
1.0000069
1.0000068
1.0000067
1.0000066
1.0000065
1.0000064
1.0000063
1.0000062
1.0000061
1.000006
1.0000059
1.0000058
1.0000057
1.0000056
1.0000054
1.0000052
1.0000049
1.0000046
1.0000042
1.0000037
1.0000032
1.0000026
1.000002
1.0000015
1.0000011
1.0000009
1.0000008
1.000001
1.0000013
1.0000016
1.0000018
1.000002
1.0000021
1.0000022
1.0000026
1.0000033
1.0000042
1.0000054
1.0000067
1.0000082
1.0000097
1.0000114
1.000013
1.0000143
1.0000147
1.0000132
1.0000087
1.0000011
0.99999121
0.99998181
0.99997585
0.99997545
0.99997901
0.99998985
0.99996979
1.0005323
1.000054
1.0000253
1.0000235
1.0000243
1.0000238
1.0000237
1.0000237
1.0000236
1.0000232
1.0000231
1.0000228
1.0000226
1.0000225
1.000022
1.0000221
1.0000218
1.0000217
1.0000214
1.0000214
1.0000211
1.0000209
1.0000208
1.0000206
1.0000204
1.0000202
1.00002
1.0000198
1.0000196
1.0000194
1.0000192
1.000019
1.0000188
1.0000186
1.0000185
1.0000183
1.0000182
1.000018
1.0000178
1.0000177
1.0000176
1.0000174
1.0000173
1.0000172
1.000017
1.0000169
1.0000168
1.0000167
1.0000166
1.0000165
1.0000164
1.0000163
1.0000162
1.0000161
1.0000161
1.0000159
1.0000158
1.0000157
1.0000155
1.0000152
1.0000149
1.0000146
1.0000141
1.0000136
1.000013
1.0000123
1.0000117
1.0000111
1.0000107
1.0000105
1.0000105
1.0000107
1.0000112
1.0000116
1.0000118
1.000012
1.000012
1.0000122
1.0000125
1.0000132
1.0000142
1.0000155
1.000017
1.0000185
1.0000202
1.0000221
1.0000239
1.0000251
1.0000251
1.000023
1.0000179
1.0000104
1.0000016
0.99999329
0.99998583
0.99998051
0.99998267
1.0000049
0.99999478
1.0005562
1.0000589
1.000032
1.0000301
1.0000306
1.00003
1.0000299
1.0000298
1.0000299
1.0000296
1.0000296
1.0000293
1.0000292
1.000029
1.0000286
1.0000287
1.0000282
1.0000284
1.0000279
1.000028
1.0000277
1.0000275
1.0000274
1.0000273
1.0000271
1.0000269
1.0000268
1.0000266
1.0000264
1.0000263
1.0000261
1.0000259
1.0000257
1.0000256
1.0000254
1.0000253
1.0000251
1.0000249
1.0000249
1.0000247
1.0000245
1.0000244
1.0000243
1.0000242
1.000024
1.0000239
1.0000238
1.0000237
1.0000236
1.0000235
1.0000234
1.0000233
1.0000232
1.0000231
1.000023
1.0000229
1.0000228
1.0000226
1.0000224
1.0000221
1.0000218
1.0000214
1.0000208
1.0000202
1.0000195
1.0000188
1.000018
1.0000174
1.0000169
1.0000167
1.0000167
1.0000169
1.0000174
1.0000179
1.0000182
1.0000184
1.0000185
1.0000187
1.0000192
1.0000199
1.000021
1.0000224
1.000024
1.0000258
1.0000277
1.0000298
1.0000317
1.000033
1.0000326
1.00003
1.0000245
1.0000171
1.000009
1.0000029
0.99999952
0.99999912
1.000002
1.0000192
1.0000221
1.0005641
1.0000589
1.0000331
1.0000315
1.000032
1.0000312
1.000031
1.0000308
1.0000307
1.0000305
1.0000305
1.0000303
1.0000303
1.0000301
1.0000298
1.0000299
1.0000294
1.0000297
1.0000292
1.0000292
1.0000291
1.0000289
1.0000287
1.0000286
1.0000285
1.0000283
1.0000282
1.000028
1.0000278
1.0000277
1.0000275
1.0000274
1.0000272
1.0000271
1.0000269
1.0000268
1.0000266
1.0000265
1.0000264
1.0000262
1.0000261
1.000026
1.0000259
1.0000258
1.0000256
1.0000255
1.0000254
1.0000253
1.0000252
1.0000251
1.000025
1.0000249
1.0000248
1.0000247
1.0000246
1.0000244
1.0000243
1.0000241
1.0000239
1.0000236
1.0000232
1.0000227
1.0000221
1.0000214
1.0000206
1.0000198
1.0000189
1.0000182
1.0000178
1.0000175
1.0000176
1.000018
1.0000187
1.0000193
1.0000197
1.00002
1.0000201
1.0000203
1.0000208
1.0000216
1.0000228
1.0000243
1.000026
1.000028
1.0000302
1.0000325
1.0000345
1.0000357
1.0000349
1.0000319
1.0000261
1.0000187
1.0000121
1.0000084
1.0000082
1.0000125
1.0000157
1.0000261
1.0000044
1.0005663
1.0000575
1.0000322
1.0000309
1.0000314
1.0000308
1.0000306
1.0000306
1.0000304
1.0000301
1.0000301
1.0000298
1.0000298
1.0000297
1.0000294
1.0000297
1.000029
1.0000294
1.0000289
1.0000289
1.0000288
1.0000286
1.0000285
1.0000284
1.0000282
1.000028
1.0000279
1.0000278
1.0000276
1.0000275
1.0000273
1.0000272
1.000027
1.0000269
1.0000267
1.0000266
1.0000265
1.0000264
1.0000262
1.000026
1.000026
1.0000258
1.0000257
1.0000256
1.0000254
1.0000254
1.0000252
1.0000251
1.000025
1.0000249
1.0000249
1.0000247
1.0000246
1.0000245
1.0000244
1.0000243
1.0000241
1.0000239
1.0000237
1.0000233
1.0000229
1.0000224
1.0000218
1.000021
1.0000202
1.0000193
1.0000184
1.0000177
1.0000172
1.000017
1.0000171
1.0000176
1.0000183
1.0000191
1.0000196
1.0000198
1.00002
1.0000201
1.0000206
1.0000214
1.0000226
1.0000242
1.0000261
1.0000283
1.0000306
1.0000329
1.0000349
1.0000358
1.0000347
1.0000315
1.0000259
1.0000192
1.000014
1.0000132
1.0000155
1.0000211
1.0000202
1.0000172
0.99999567
1.0005667
1.0000549
1.0000301
1.0000293
1.0000296
1.0000294
1.0000292
1.0000293
1.0000291
1.0000289
1.0000289
1.0000288
1.0000286
1.0000285
1.0000284
1.0000285
1.000028
1.0000285
1.0000279
1.000028
1.0000278
1.0000277
1.0000276
1.0000275
1.0000274
1.0000272
1.0000271
1.000027
1.0000268
1.0000267
1.0000266
1.0000264
1.0000263
1.0000262
1.000026
1.0000259
1.0000258
1.0000257
1.0000255
1.0000254
1.0000253
1.0000251
1.000025
1.0000249
1.0000248
1.0000247
1.0000246
1.0000245
1.0000244
1.0000243
1.0000242
1.0000241
1.000024
1.0000239
1.0000237
1.0000236
1.0000234
1.0000232
1.0000229
1.0000226
1.0000221
1.0000216
1.0000209
1.0000201
1.0000191
1.0000181
1.0000172
1.0000164
1.0000159
1.0000158
1.0000159
1.0000165
1.0000173
1.0000182
1.0000187
1.000019
1.0000191
1.0000193
1.0000196
1.0000204
1.0000217
1.0000234
1.0000255
1.0000279
1.0000303
1.0000327
1.0000346
1.0000355
1.0000343
1.0000311
1.0000258
1.0000199
1.0000163
1.0000172
1.0000176
1.0000161
1.0000119
1.0000205
1.0000038
1.0005667
1.0000532
1.0000285
1.000028
1.000028
1.0000281
1.0000281
1.0000282
1.0000279
1.0000278
1.0000279
1.000028
1.0000276
1.0000276
1.0000276
1.0000276
1.0000272
1.0000275
1.0000271
1.0000273
1.000027
1.000027
1.0000269
1.0000267
1.0000267
1.0000266
1.0000264
1.0000264
1.0000262
1.0000261
1.000026
1.0000259
1.0000258
1.0000256
1.0000255
1.0000254
1.0000253
1.0000252
1.000025
1.0000249
1.0000248
1.0000247
1.0000246
1.0000245
1.0000244
1.0000243
1.0000242
1.0000241
1.000024
1.0000239
1.0000238
1.0000237
1.0000236
1.0000235
1.0000233
1.0000232
1.000023
1.0000228
1.0000225
1.0000221
1.0000216
1.000021
1.0000203
1.0000194
1.0000183
1.0000173
1.0000163
1.0000155
1.0000149
1.0000147
1.000015
1.0000156
1.0000165
1.0000174
1.0000181
1.0000184
1.0000184
1.0000185
1.0000188
1.0000196
1.0000209
1.0000227
1.000025
1.0000274
1.00003
1.0000324
1.0000343
1.0000352
1.0000342
1.0000314
1.0000265
1.0000211
1.0000184
1.00002
1.0000202
1.0000156
1.0000055
0.99999966
0.9999855
1.0005665
1.0000524
1.0000278
1.0000274
1.0000273
1.0000274
1.0000274
1.0000275
1.0000273
1.0000272
1.0000274
1.0000274
1.0000271
1.0000271
1.0000271
1.0000271
1.0000268
1.000027
1.0000267
1.0000268
1.0000266
1.0000266
1.0000265
1.0000264
1.0000263
1.0000262
1.0000262
1.000026
1.000026
1.0000258
1.0000257
1.0000256
1.0000255
1.0000254
1.0000253
1.0000252
1.0000251
1.000025
1.0000249
1.0000248
1.0000247
1.0000246
1.0000245
1.0000244
1.0000243
1.0000242
1.0000241
1.000024
1.0000239
1.0000238
1.0000237
1.0000236
1.0000235
1.0000234
1.0000233
1.0000231
1.0000229
1.0000227
1.0000224
1.000022
1.0000214
1.0000208
1.00002
1.000019
1.0000179
1.0000168
1.0000157
1.0000148
1.0000143
1.0000141
1.0000144
1.0000151
1.0000161
1.0000171
1.0000178
1.0000181
1.0000181
1.0000181
1.0000183
1.000019
1.0000203
1.0000223
1.0000247
1.0000272
1.0000299
1.0000323
1.0000342
1.0000352
1.0000346
1.0000323
1.0000279
1.0000228
1.0000197
1.0000206
1.0000226
1.0000225
1.0000149
0.99999811
0.99998214
1.0005663
1.000052
1.0000275
1.0000271
1.000027
1.000027
1.0000271
1.0000272
1.000027
1.0000269
1.0000271
1.0000271
1.0000269
1.0000269
1.0000268
1.0000269
1.0000267
1.0000267
1.0000265
1.0000267
1.0000265
1.0000264
1.0000264
1.0000263
1.0000262
1.0000261
1.0000261
1.0000259
1.0000258
1.0000258
1.0000257
1.0000256
1.0000255
1.0000254
1.0000253
1.0000252
1.0000251
1.000025
1.0000249
1.0000248
1.0000247
1.0000246
1.0000245
1.0000244
1.0000243
1.0000242
1.0000241
1.000024
1.0000239
1.0000238
1.0000237
1.0000236
1.0000235
1.0000234
1.0000233
1.0000231
1.0000229
1.0000227
1.0000223
1.0000219
1.0000214
1.0000207
1.0000198
1.0000188
1.0000177
1.0000165
1.0000153
1.0000144
1.0000138
1.0000136
1.0000139
1.0000147
1.0000159
1.000017
1.0000177
1.000018
1.000018
1.0000178
1.000018
1.0000186
1.0000199
1.000022
1.0000245
1.0000272
1.0000299
1.0000324
1.0000343
1.0000355
1.0000352
1.0000334
1.0000296
1.0000249
1.0000215
1.0000208
1.0000218
1.0000224
1.0000191
1.0000126
0.99999222
1.0005661
1.0000518
1.0000273
1.0000269
1.0000269
1.0000269
1.0000269
1.000027
1.0000269
1.0000267
1.0000268
1.0000268
1.0000267
1.0000267
1.0000267
1.0000267
1.0000265
1.0000266
1.0000264
1.0000265
1.0000264
1.0000263
1.0000262
1.0000262
1.0000261
1.000026
1.000026
1.0000259
1.0000257
1.0000257
1.0000256
1.0000255
1.0000254
1.0000253
1.0000252
1.0000252
1.0000251
1.0000249
1.0000249
1.0000248
1.0000247
1.0000246
1.0000245
1.0000244
1.0000243
1.0000242
1.0000242
1.000024
1.0000239
1.0000239
1.0000238
1.0000237
1.0000236
1.0000235
1.0000233
1.0000232
1.000023
1.0000227
1.0000224
1.0000219
1.0000214
1.0000206
1.0000197
1.0000187
1.0000174
1.0000162
1.0000149
1.000014
1.0000133
1.0000132
1.0000135
1.0000144
1.0000156
1.0000168
1.0000176
1.000018
1.0000179
1.0000176
1.0000176
1.0000182
1.0000195
1.0000215
1.0000242
1.000027
1.0000299
1.0000325
1.0000344
1.0000357
1.0000358
1.0000345
1.0000313
1.0000271
1.0000238
1.0000218
1.0000196
1.0000177
1.000018
1.0000266
1.0000141
1.0005658
1.0000515
1.000027
1.0000266
1.0000266
1.0000266
1.0000266
1.0000267
1.0000266
1.0000265
1.0000266
1.0000266
1.0000265
1.0000265
1.0000264
1.0000265
1.0000263
1.0000264
1.0000262
1.0000263
1.0000262
1.0000261
1.0000261
1.000026
1.0000259
1.0000258
1.0000258
1.0000257
1.0000256
1.0000256
1.0000255
1.0000254
1.0000253
1.0000252
1.0000251
1.0000251
1.000025
1.0000249
1.0000248
1.0000247
1.0000246
1.0000246
1.0000245
1.0000244
1.0000243
1.0000242
1.0000241
1.000024
1.000024
1.0000239
1.0000238
1.0000237
1.0000236
1.0000235
1.0000233
1.0000232
1.000023
1.0000227
1.0000224
1.0000219
1.0000213
1.0000206
1.0000196
1.0000185
1.0000172
1.0000159
1.0000146
1.0000135
1.0000129
1.0000127
1.000013
1.000014
1.0000154
1.0000166
1.0000175
1.0000179
1.0000178
1.0000174
1.0000173
1.0000177
1.0000189
1.000021
1.0000237
1.0000268
1.0000298
1.0000326
1.0000346
1.0000359
1.000036
1.000035
1.0000325
1.000029
1.0000264
1.0000243
1.0000206
1.0000152
1.0000141
1.0000232
1.0000189
1.0005656
1.0000513
1.0000269
1.0000265
1.0000265
1.0000264
1.0000264
1.0000265
1.0000264
1.0000263
1.0000264
1.0000264
1.0000263
1.0000263
1.0000263
1.0000263
1.0000262
1.0000263
1.0000261
1.0000262
1.0000261
1.000026
1.000026
1.0000259
1.0000258
1.0000258
1.0000257
1.0000256
1.0000256
1.0000255
1.0000254
1.0000253
1.0000253
1.0000252
1.0000251
1.000025
1.000025
1.0000249
1.0000248
1.0000247
1.0000247
1.0000246
1.0000245
1.0000244
1.0000243
1.0000242
1.0000241
1.0000241
1.000024
1.0000239
1.0000239
1.0000237
1.0000236
1.0000235
1.0000234
1.0000233
1.000023
1.0000227
1.0000224
1.0000219
1.0000213
1.0000205
1.0000196
1.0000184
1.000017
1.0000156
1.0000143
1.0000132
1.0000125
1.0000122
1.0000126
1.0000136
1.0000151
1.0000165
1.0000174
1.0000178
1.0000177
1.0000172
1.0000169
1.0000172
1.0000183
1.0000203
1.0000232
1.0000265
1.0000298
1.0000328
1.0000349
1.000036
1.0000359
1.0000349
1.0000326
1.0000301
1.0000287
1.0000274
1.0000241
1.00002
1.0000225
1.0000378
1.0000325
1.0005654
1.0000511
1.0000267
1.0000263
1.0000262
1.0000262
1.0000262
1.0000263
1.0000262
1.0000261
1.0000262
1.0000262
1.0000261
1.0000261
1.0000261
1.0000261
1.000026
1.000026
1.0000259
1.000026
1.0000259
1.0000258
1.0000258
1.0000257
1.0000256
1.0000256
1.0000256
1.0000255
1.0000254
1.0000254
1.0000253
1.0000252
1.0000252
1.0000251
1.000025
1.000025
1.0000249
1.0000248
1.0000248
1.0000247
1.0000246
1.0000245
1.0000244
1.0000244
1.0000243
1.0000242
1.0000242
1.0000241
1.000024
1.0000239
1.0000238
1.0000237
1.0000236
1.0000235
1.0000234
1.0000232
1.000023
1.0000227
1.0000224
1.0000219
1.0000213
1.0000205
1.0000195
1.0000183
1.0000168
1.0000154
1.0000139
1.0000128
1.000012
1.0000118
1.0000122
1.0000132
1.0000147
1.0000162
1.0000173
1.0000177
1.0000175
1.000017
1.0000165
1.0000166
1.0000175
1.0000195
1.0000225
1.0000261
1.0000297
1.000033
1.0000353
1.0000362
1.0000356
1.0000341
1.0000316
1.0000299
1.0000302
1.0000314
1.0000313
1.0000335
1.0000338
1.0000511
1.000052
1.0005651
1.0000508
1.0000264
1.000026
1.000026
1.0000259
1.000026
1.000026
1.0000259
1.0000259
1.0000259
1.0000259
1.0000258
1.0000258
1.0000258
1.0000258
1.0000257
1.0000258
1.0000256
1.0000257
1.0000256
1.0000256
1.0000256
1.0000255
1.0000255
1.0000254
1.0000254
1.0000253
1.0000253
1.0000253
1.0000252
1.0000251
1.0000251
1.000025
1.000025
1.0000249
1.0000248
1.0000248
1.0000247
1.0000246
1.0000245
1.0000245
1.0000244
1.0000243
1.0000243
1.0000242
1.0000241
1.000024
1.000024
1.0000239
1.0000238
1.0000237
1.0000237
1.0000235
1.0000234
1.0000232
1.000023
1.0000227
1.0000224
1.0000219
1.0000213
1.0000204
1.0000194
1.0000182
1.0000167
1.0000152
1.0000137
1.0000124
1.0000116
1.0000113
1.0000117
1.0000128
1.0000144
1.000016
1.0000171
1.0000176
1.0000175
1.0000168
1.0000162
1.000016
1.0000167
1.0000186
1.0000217
1.0000255
1.0000295
1.0000332
1.0000356
1.0000364
1.0000353
1.0000331
1.0000301
1.0000287
1.0000304
1.0000344
1.0000377
1.000048
1.0000466
1.0000553
1.0000451
1.0005649
1.0000507
1.0000262
1.0000258
1.0000258
1.0000258
1.0000258
1.0000259
1.0000258
1.0000258
1.0000258
1.0000258
1.0000258
1.0000257
1.0000257
1.0000258
1.0000257
1.0000257
1.0000256
1.0000257
1.0000256
1.0000255
1.0000255
1.0000255
1.0000254
1.0000254
1.0000254
1.0000253
1.0000253
1.0000252
1.0000252
1.0000251
1.0000251
1.000025
1.0000249
1.0000249
1.0000248
1.0000247
1.0000247
1.0000246
1.0000246
1.0000245
1.0000244
1.0000244
1.0000243
1.0000242
1.0000241
1.0000241
1.000024
1.0000239
1.0000239
1.0000238
1.0000237
1.0000236
1.0000234
1.0000233
1.0000231
1.0000228
1.0000224
1.0000219
1.0000213
1.0000205
1.0000194
1.0000181
1.0000166
1.000015
1.0000135
1.0000122
1.0000113
1.0000109
1.0000113
1.0000124
1.0000141
1.0000158
1.000017
1.0000176
1.0000174
1.0000168
1.0000159
1.0000155
1.000016
1.0000177
1.0000208
1.0000249
1.0000293
1.0000333
1.000036
1.0000366
1.0000351
1.0000324
1.0000289
1.0000278
1.0000304
1.0000361
1.0000392
1.000054
1.0000548
1.0000663
1.0000483
1.0005647
1.0000505
1.0000261
1.0000257
1.0000257
1.0000257
1.0000257
1.0000257
1.0000257
1.0000256
1.0000257
1.0000257
1.0000256
1.0000256
1.0000256
1.0000256
1.0000255
1.0000256
1.0000255
1.0000255
1.0000254
1.0000254
1.0000254
1.0000254
1.0000253
1.0000253
1.0000253
1.0000252
1.0000251
1.0000251
1.0000251
1.000025
1.000025
1.0000249
1.0000248
1.0000248
1.0000247
1.0000247
1.0000246
1.0000246
1.0000245
1.0000244
1.0000244
1.0000243
1.0000242
1.0000242
1.0000241
1.000024
1.000024
1.0000239
1.0000239
1.0000238
1.0000237
1.0000236
1.0000234
1.0000233
1.0000231
1.0000228
1.0000224
1.0000219
1.0000213
1.0000204
1.0000194
1.0000181
1.0000165
1.0000149
1.0000132
1.0000119
1.0000109
1.0000105
1.0000108
1.000012
1.0000137
1.0000155
1.0000169
1.0000175
1.0000174
1.0000167
1.0000157
1.0000151
1.0000153
1.0000168
1.0000198
1.0000241
1.0000287
1.0000331
1.0000359
1.0000367
1.000035
1.000032
1.0000282
1.0000277
1.000031
1.0000386
1.0000392
1.0000474
1.0000479
1.0000636
1.0000542
1.0005645
1.0000503
1.0000258
1.0000254
1.0000254
1.0000254
1.0000254
1.0000255
1.0000254
1.0000254
1.0000254
1.0000254
1.0000254
1.0000254
1.0000254
1.0000254
1.0000253
1.0000254
1.0000253
1.0000253
1.0000253
1.0000252
1.0000252
1.0000252
1.0000251
1.0000251
1.0000251
1.0000251
1.000025
1.000025
1.0000249
1.0000249
1.0000248
1.0000248
1.0000247
1.0000247
1.0000246
1.0000246
1.0000245
1.0000244
1.0000244
1.0000243
1.0000243
1.0000242
1.0000242
1.0000241
1.0000241
1.000024
1.000024
1.0000239
1.0000238
1.0000237
1.0000236
1.0000235
1.0000234
1.0000232
1.0000231
1.0000228
1.0000224
1.0000219
1.0000213
1.0000204
1.0000193
1.000018
1.0000164
1.0000147
1.0000131
1.0000116
1.0000106
1.0000101
1.0000104
1.0000115
1.0000133
1.0000152
1.0000166
1.0000174
1.0000174
1.0000166
1.0000155
1.0000147
1.0000146
1.0000158
1.0000187
1.0000229
1.0000277
1.0000323
1.0000355
1.0000366
1.0000352
1.0000324
1.0000286
1.0000282
1.0000311
1.0000411
1.0000428
1.0000498
1.0000477
1.0000587
1.0000614
1.0005644
1.0000502
1.0000258
1.0000254
1.0000254
1.0000254
1.0000254
1.0000255
1.0000254
1.0000254
1.0000254
1.0000254
1.0000254
1.0000253
1.0000254
1.0000254
1.0000253
1.0000253
1.0000252
1.0000253
1.0000252
1.0000252
1.0000252
1.0000252
1.0000251
1.0000251
1.0000251
1.000025
1.000025
1.0000249
1.0000249
1.0000248
1.0000248
1.0000248
1.0000247
1.0000247
1.0000246
1.0000245
1.0000245
1.0000244
1.0000244
1.0000244
1.0000243
1.0000243
1.0000242
1.0000241
1.0000241
1.000024
1.000024
1.0000239
1.0000238
1.0000237
1.0000237
1.0000236
1.0000235
1.0000233
1.0000231
1.0000228
1.0000224
1.0000219
1.0000213
1.0000205
1.0000194
1.000018
1.0000164
1.0000147
1.000013
1.0000115
1.0000104
1.0000098
1.00001
1.0000111
1.000013
1.0000149
1.0000165
1.0000173
1.0000174
1.0000167
1.0000155
1.0000144
1.0000141
1.000015
1.0000176
1.0000217
1.0000265
1.0000312
1.0000347
1.0000364
1.0000357
1.0000337
1.0000305
1.0000301
1.0000315
1.0000413
1.0000451
1.0000545
1.0000511
1.0000304
1.0000197
1.0005643
1.0000501
1.0000257
1.0000253
1.0000253
1.0000253
1.0000253
1.0000254
1.0000253
1.0000253
1.0000253
1.0000253
1.0000253
1.0000252
1.0000252
1.0000253
1.0000252
1.0000252
1.0000251
1.0000252
1.0000251
1.0000251
1.0000251
1.0000251
1.000025
1.000025
1.0000249
1.0000249
1.0000249
1.0000248
1.0000248
1.0000247
1.0000247
1.0000247
1.0000246
1.0000246
1.0000245
1.0000245
1.0000245
1.0000244
1.0000244
1.0000243
1.0000243
1.0000242
1.0000242
1.0000241
1.0000241
1.000024
1.000024
1.0000239
1.0000238
1.0000238
1.0000237
1.0000236
1.0000235
1.0000233
1.0000231
1.0000228
1.0000225
1.000022
1.0000213
1.0000205
1.0000194
1.000018
1.0000164
1.0000147
1.0000129
1.0000113
1.0000101
1.0000095
1.0000097
1.0000108
1.0000126
1.0000147
1.0000163
1.0000172
1.0000174
1.0000168
1.0000155
1.0000143
1.0000137
1.0000143
1.0000165
1.0000203
1.000025
1.0000297
1.0000334
1.0000357
1.0000358
1.000035
1.0000331
1.0000337
1.0000343
1.000041
1.0000428
1.000047
1.0000458
1.0000397
1.0000219
1.000564
1.0000498
1.0000254
1.000025
1.000025
1.000025
1.000025
1.000025
1.000025
1.0000249
1.000025
1.000025
1.0000249
1.0000249
1.0000249
1.000025
1.0000249
1.0000249
1.0000248
1.0000249
1.0000248
1.0000248
1.0000248
1.0000248
1.0000248
1.0000247
1.0000247
1.0000247
1.0000247
1.0000247
1.0000246
1.0000246
1.0000246
1.0000245
1.0000245
1.0000245
1.0000244
1.0000244
1.0000244
1.0000243
1.0000243
1.0000242
1.0000242
1.0000241
1.0000241
1.000024
1.000024
1.0000239
1.0000239
1.0000238
1.0000238
1.0000237
1.0000236
1.0000235
1.0000234
1.0000233
1.0000231
1.0000228
1.0000224
1.000022
1.0000213
1.0000205
1.0000194
1.000018
1.0000164
1.0000146
1.0000128
1.0000112
1.0000099
1.0000092
1.0000093
1.0000104
1.0000122
1.0000143
1.000016
1.0000171
1.0000174
1.0000168
1.0000155
1.0000141
1.0000133
1.0000135
1.0000153
1.0000188
1.0000232
1.0000278
1.0000317
1.0000345
1.0000354
1.0000357
1.0000351
1.0000374
1.000039
1.000044
1.0000435
1.0000437
1.0000398
1.0000235
1.0000138
1.0005639
1.0000497
1.0000253
1.0000249
1.0000249
1.0000249
1.0000249
1.000025
1.0000249
1.0000249
1.0000249
1.0000249
1.0000249
1.0000249
1.0000249
1.0000249
1.0000248
1.0000249
1.0000248
1.0000249
1.0000248
1.0000248
1.0000248
1.0000248
1.0000247
1.0000247
1.0000247
1.0000247
1.0000246
1.0000246
1.0000246
1.0000246
1.0000246
1.0000245
1.0000245
1.0000244
1.0000244
1.0000243
1.0000243
1.0000243
1.0000242
1.0000242
1.0000241
1.0000241
1.0000241
1.000024
1.000024
1.0000239
1.0000239
1.0000238
1.0000238
1.0000237
1.0000236
1.0000235
1.0000234
1.0000233
1.0000231
1.0000228
1.0000225
1.000022
1.0000214
1.0000205
1.0000194
1.0000181
1.0000164
1.0000146
1.0000128
1.0000111
1.0000098
1.000009
1.000009
1.00001
1.0000118
1.000014
1.0000158
1.000017
1.0000174
1.0000169
1.0000157
1.0000142
1.0000131
1.000013
1.0000144
1.0000174
1.0000214
1.0000258
1.0000298
1.000033
1.0000347
1.0000361
1.0000367
1.0000408
1.0000431
1.0000479
1.0000477
1.0000477
1.0000422
1.0000316
1.000034
1.0005639
1.0000497
1.0000253
1.0000249
1.0000249
1.0000249
1.0000249
1.000025
1.0000249
1.0000249
1.0000249
1.0000249
1.0000249
1.0000249
1.0000249
1.0000249
1.0000248
1.0000249
1.0000248
1.0000249
1.0000248
1.0000248
1.0000248
1.0000248
1.0000247
1.0000247
1.0000247
1.0000247
1.0000246
1.0000246
1.0000246
1.0000245
1.0000245
1.0000245
1.0000244
1.0000244
1.0000244
1.0000243
1.0000243
1.0000243
1.0000242
1.0000242
1.0000242
1.0000241
1.0000241
1.0000241
1.000024
1.000024
1.0000239
1.0000239
1.0000238
1.0000237
1.0000237
1.0000236
1.0000234
1.0000233
1.0000231
1.0000229
1.0000225
1.0000221
1.0000214
1.0000206
1.0000195
1.0000181
1.0000165
1.0000147
1.0000128
1.0000111
1.0000097
1.0000088
1.0000088
1.0000097
1.0000115
1.0000137
1.0000156
1.0000169
1.0000174
1.0000171
1.0000159
1.0000143
1.000013
1.0000127
1.0000137
1.0000162
1.0000198
1.0000237
1.0000275
1.000031
1.0000334
1.0000362
1.0000382
1.0000439
1.0000465
1.0000513
1.0000506
1.0000487
1.0000426
1.0000297
1.0000175
1.0005636
1.0000495
1.000025
1.0000247
1.0000247
1.0000247
1.0000247
1.0000247
1.0000247
1.0000246
1.0000247
1.0000247
1.0000246
1.0000246
1.0000246
1.0000247
1.0000246
1.0000246
1.0000246
1.0000246
1.0000246
1.0000245
1.0000245
1.0000245
1.0000245
1.0000245
1.0000245
1.0000244
1.0000244
1.0000244
1.0000244
1.0000244
1.0000243
1.0000243
1.0000243
1.0000243
1.0000242
1.0000242
1.0000242
1.0000242
1.0000241
1.0000241
1.0000241
1.0000241
1.000024
1.000024
1.0000239
1.0000239
1.0000238
1.0000238
1.0000237
1.0000236
1.0000236
1.0000235
1.0000234
1.0000232
1.0000231
1.0000228
1.0000225
1.000022
1.0000214
1.0000205
1.0000195
1.0000182
1.0000165
1.0000147
1.0000128
1.000011
1.0000096
1.0000087
1.0000085
1.0000094
1.0000111
1.0000133
1.0000153
1.0000167
1.0000173
1.0000171
1.000016
1.0000143
1.0000129
1.0000123
1.000013
1.0000152
1.0000181
1.0000215
1.0000247
1.000028
1.0000312
1.0000354
1.0000394
1.0000465
1.0000498
1.0000537
1.0000502
1.0000436
1.0000359
1.0000532
1.0000439
1.0005634
1.0000493
1.0000248
1.0000245
1.0000245
1.0000245
1.0000245
1.0000245
1.0000245
1.0000244
1.0000245
1.0000245
1.0000244
1.0000244
1.0000244
1.0000245
1.0000244
1.0000244
1.0000244
1.0000244
1.0000244
1.0000244
1.0000244
1.0000244
1.0000243
1.0000243
1.0000243
1.0000243
1.0000243
1.0000243
1.0000243
1.0000243
1.0000242
1.0000242
1.0000242
1.0000242
1.0000242
1.0000241
1.0000241
1.0000241
1.000024
1.000024
1.000024
1.0000239
1.0000239
1.0000239
1.0000238
1.0000238
1.0000237
1.0000237
1.0000236
1.0000236
1.0000235
1.0000234
1.0000233
1.0000232
1.000023
1.0000228
1.0000224
1.000022
1.0000213
1.0000205
1.0000195
1.0000182
1.0000166
1.0000147
1.0000128
1.000011
1.0000095
1.0000085
1.0000083
1.0000091
1.0000108
1.000013
1.000015
1.0000164
1.0000172
1.0000171
1.0000161
1.0000144
1.0000129
1.0000121
1.0000125
1.0000144
1.0000168
1.0000195
1.0000219
1.0000247
1.0000283
1.0000338
1.00004
1.0000489
1.0000535
1.0000559
1.0000501
1.0000418
1.0000344
1.0000447
1.0000356
1.0005635
1.0000494
1.0000249
1.0000246
1.0000246
1.0000246
1.0000246
1.0000246
1.0000246
1.0000245
1.0000246
1.0000246
1.0000245
1.0000245
1.0000245
1.0000246
1.0000245
1.0000245
1.0000245
1.0000245
1.0000245
1.0000245
1.0000245
1.0000245
1.0000245
1.0000244
1.0000245
1.0000244
1.0000244
1.0000244
1.0000244
1.0000243
1.0000243
1.0000243
1.0000243
1.0000243
1.0000242