/*--------------------------------*- C++ -*----------------------------------*\
| =========                 |                                                 |
| \\      /  F ield         | OpenFOAM: The Open Source CFD Toolbox           |
|  \\    /   O peration     | Version:  2406                                  |
|   \\  /    A nd           | Website:  www.openfoam.com                      |
|    \\/     M anipulation  |                                                 |
\*---------------------------------------------------------------------------*/
FoamFile
{
    version     2.0;
    format      ascii;
    arch        "LSB;label=32;scalar=64";
    class       volScalarField;
    location    "5";
    object      T;
}
// * * * * * * * * * * * * * * * * * * * * * * * * * * * * * * * * * * * * * //

dimensions      [0 0 0 1 0 0 0];

internalField   nonuniform List<scalar> 
96472
(
1.0015294
1.0020018
1.001846
1.0015128
1.0008448
0.99958321
0.99812474
0.99679061
0.9956812
0.99485826
0.99434569
0.99424906
0.99462645
0.99549316
0.99695997
0.99900079
1.0012922
1.0031612
1.0039636
1.0042015
1.0045567
1.0051272
1.0059974
1.0070515
1.0081017
1.0090228
1.0097053
1.0102044
1.0105845
1.0108609
1.0110586
1.0111721
1.011187
1.0111438
1.0110433
1.010879
1.010775
1.0106576
1.0106231
1.010661
1.0107732
1.0109876
1.0112334
1.0114917
1.0116036
1.0118069
1.0118074
1.0117545
1.0116061
1.0113635
1.0111064
1.0109183
1.0106047
1.0103041
1.0099319
1.0015877
1.0022761
1.0022066
1.0018825
1.0011978
0.99989761
0.99838814
0.99700323
0.99585432
0.9949942
0.99444714
0.9943161
0.99465793
0.99548235
0.99690524
0.99891328
1.0012494
1.0032685
1.0042769
1.0046167
1.0050158
1.0056057
1.0064661
1.007461
1.0084358
1.0092326
1.0097813
1.0101669
1.0104681
1.0106714
1.0108434
1.010957
1.0109944
1.0109662
1.0108745
1.0107824
1.0106553
1.0105787
1.0105261
1.0105622
1.0106748
1.0108515
1.0110542
1.0112991
1.0115568
1.0117154
1.0117188
1.0117589
1.0115979
1.0114366
1.0112236
1.0109504
1.0106478
1.0103239
1.0099998
1.0016254
1.0025207
1.0025447
1.002243
1.0015442
1.0002042
0.99865259
0.99722122
0.99604073
0.99514776
0.99456865
0.9943993
0.99470654
0.99548733
0.99685869
0.99883081
1.0011855
1.0033238
1.0045388
1.0049918
1.0054498
1.0060573
1.0069068
1.0078556
1.0087572
1.0094322
1.0098609
1.0101415
1.010344
1.010498
1.0106372
1.0107362
1.0107898
1.0107883
1.0107298
1.0106363
1.0105182
1.0104408
1.0103861
1.0104556
1.0105093
1.01067
1.0108811
1.0111743
1.0113623
1.0115874
1.0117264
1.0117861
1.0116934
1.0115912
1.011391
1.0111107
1.0108833
1.0105904
1.0102647
1.001642
1.0027274
1.0028503
1.002594
1.0018888
1.0005075
0.99891636
0.99745157
0.9962378
0.99532191
0.99471225
0.99450417
0.99477439
0.99550258
0.99682006
0.99875384
1.0011137
1.0033764
1.00478
1.0053642
1.0058764
1.0064949
1.0073323
1.0082348
1.0090421
1.0096016
1.0099051
1.0100894
1.0102102
1.0103017
1.0104146
1.0105086
1.0105804
1.0105928
1.0105729
1.010501
1.0104096
1.0103158
1.0102657
1.0102475
1.0103275
1.0104837
1.0106701
1.0108879
1.011168
1.0114551
1.0116175
1.011711
1.0117758
1.0116564
1.0115186
1.011358
1.0111386
1.0108953
1.0105341
1.0016388
1.0028906
1.003117
1.0029217
1.0022133
1.0007978
0.99916787
0.99767543
0.99644236
0.99549934
0.99485512
0.99461738
0.99485807
0.99554611
0.99680173
0.9986849
1.0010394
1.0034039
1.0049961
1.0057241
1.0063009
1.006945
1.0077476
1.0086001
1.0092978
1.009732
1.0099328
1.0100198
1.0100565
1.0100887
1.0101506
1.010242
1.0103253
1.010397
1.0103982
1.0103819
1.0103262
1.0102745
1.0101746
1.0102072
1.0102052
1.0103117
1.0104391
1.0106822
1.0109466
1.0111711
1.011424
1.0116094
1.0116978
1.0116607
1.0116492
1.0114934
1.0112986
1.0110765
1.0108509
1.001618
1.0030065
1.0033455
1.003229
1.0025348
1.0010975
0.9994361
0.99791203
0.99665908
0.99569342
0.99502858
0.9947535
0.99496689
0.99560549
0.99680674
0.99862797
1.0009643
1.0033966
1.0051888
1.006059
1.0067048
1.0073705
1.0081587
1.0089462
1.0095419
1.0098498
1.0099502
1.0099415
1.0098855
1.009869
1.0099011
1.0099674
1.0100583
1.0101137
1.0101719
1.0101757
1.0101532
1.0101126
1.0101013
1.0100667
1.0101005
1.0101737
1.0103148
1.0104824
1.0106876
1.0109338
1.0112291
1.0113765
1.0115772
1.0115983
1.0116213
1.011457
1.0114124
1.0112012
1.0111048
1.0015824
1.0030722
1.0035263
1.0034988
1.0028272
1.0013702
0.99968581
0.99814442
0.99687744
0.99589586
0.99520987
0.99489808
0.99507622
0.99567715
0.99683137
0.99859353
1.000896
1.0033721
1.0053514
1.0063833
1.0071093
1.0078025
1.0085551
1.0092569
1.0097592
1.0099496
1.0099319
1.009837
1.0097126
1.0096431
1.0096274
1.0096747
1.0097447
1.0098398
1.0099002
1.0099639
1.0099912
1.0100022
1.0099906
1.0099887
1.0100297
1.0100981
1.0102166
1.0103447
1.0105717
1.0108012
1.0110433
1.0112503
1.011444
1.011527
1.0116017
1.0115741
1.0115336
1.0113572
1.0111641
1.0015346
1.0030911
1.0036624
1.0037349
1.0031055
1.0016499
0.99995437
0.99839447
0.99710773
0.996117
0.99541309
0.99507808
0.99522434
0.99577457
0.99686334
0.99856986
1.0008265
1.0033488
1.0054677
1.0066893
1.0074904
1.008206
1.0089421
1.0095801
1.0099577
1.0100392
1.0099148
1.0097279
1.0095552
1.0094231
1.0093721
1.0093989
1.0094718
1.0095412
1.0096358
1.0096858
1.0097413
1.0097747
1.0098052
1.0098516
1.0098929
1.0099537
1.010087
1.0102463
1.0104604
1.0106381
1.0108976
1.0111135
1.0113557
1.0114956
1.0116024
1.011622
1.0115241
1.0115016
1.0113908
1.0014762
1.003068
1.0037486
1.003925
1.0033515
1.0019138
1.0002067
0.99863384
0.99735131
0.99635394
0.99562955
0.99526226
0.99537297
0.99588904
0.99691789
0.99854967
1.0007539
1.0032899
1.0055468
1.0069485
1.00784
1.0086138
1.0093183
1.0098879
1.0101465
1.0100962
1.0098998
1.0096227
1.0093827
1.0091948
1.0091112
1.0091142
1.0091657
1.0092512
1.0093372
1.0094462
1.0095228
1.0095812
1.0096585
1.0096827
1.009762
1.009853
1.0099869
1.0101227
1.0103323
1.0105422
1.0108057
1.0110376
1.0112958
1.0114503
1.0116239
1.0116753
1.0117844
1.011735
1.0116785
1.0014099
1.0030113
1.003788
1.0040632
1.0035799
1.0021745
1.0004743
0.99889577
0.99760338
0.9965892
0.99586775
0.99548043
0.99555476
0.9960329
0.99699398
0.99854956
1.0006853
1.0032204
1.0056055
1.0071785
1.0081762
1.0089868
1.0096679
1.0101504
1.0103167
1.0101434
1.0098528
1.0095141
1.0091964
1.008959
1.0088525
1.0088347
1.0088639
1.0089235
1.0090254
1.0091288
1.0092342
1.0093521
1.009411
1.0095059
1.0096001
1.0096757
1.0098239
1.0099898
1.01021
1.0104141
1.0106791
1.010907
1.0111691
1.0113822
1.0116599
1.0117526
1.0118821
1.0118693
1.0117681
1.0013385
1.0029206
1.0037807
1.0041606
1.0037699
1.0024086
1.0007225
0.99915942
0.99787225
0.99685742
0.99612055
0.99570132
0.99573271
0.99617728
0.9970858
0.99856193
1.0006337
1.0031339
1.005611
1.0073771
1.0084769
1.0093354
1.0100014
1.0104017
1.0104527
1.0102116
1.0098117
1.009412
1.0090327
1.0087432
1.0085974
1.0085453
1.0085784
1.0086371
1.00874
1.0088557
1.0089981
1.0090843
1.0092207
1.0093273
1.0094197
1.0095411
1.0096999
1.0098489
1.0100595
1.0102856
1.01055
1.0107887
1.0111014
1.0113651
1.0115661
1.0117951
1.0119052
1.0120064
1.0121211
1.0012672
1.0028033
1.0037265
1.0042054
1.0039215
1.0026316
1.0009807
0.99943064
0.99814171
0.99713629
0.99638346
0.99595556
0.9959489
0.99636287
0.99718807
0.99858629
1.0005697
1.0030339
1.0055696
1.0075229
1.00876
1.0096698
1.0103034
1.0106416
1.0105861
1.0102358
1.0097801
1.009303
1.0088668
1.0085522
1.0083442
1.0082571
1.0082526
1.0083141
1.0084042
1.0085387
1.0086617
1.008833
1.0089706
1.0090814
1.0092339
1.009379
1.0095239
1.0096945
1.0099333
1.0101482
1.0104171
1.0106944
1.0109754
1.011221
1.0115327
1.0117434
1.0120218
1.0120808
1.0123203
1.0011965
1.0026679
1.0036273
1.0042096
1.0040428
1.0028339
1.0012295
0.99969951
0.99842768
0.99742626
0.99667812
0.99621293
0.99616315
0.99653743
0.99730277
0.99862094
1.0005138
1.0029346
1.0054992
1.0076059
1.0089874
1.0099736
1.0105893
1.0108556
1.0107066
1.0102716
1.0097397
1.0092059
1.0087231
1.008355
1.0081107
1.0079781
1.0079586
1.0079892
1.0080996
1.0082178
1.0083873
1.0085524
1.0087101
1.0088966
1.0090528
1.009188
1.0093744
1.0095669
1.0097786
1.009984
1.0102784
1.0105361
1.0108642
1.0111074
1.01148
1.0116443
1.0119677
1.0121621
1.0123074
1.0011284
1.0025232
1.0034947
1.0041644
1.0041149
1.0030116
1.0014676
0.99998155
0.99872067
0.99771763
0.99696841
0.99649729
0.99641059
0.99673311
0.99743048
0.99865055
1.0004603
1.0028076
1.0054191
1.007673
1.0091805
1.0102331
1.0108662
1.011058
1.0108095
1.0103084
1.0097123
1.0091231
1.0085997
1.0081838
1.0078958
1.0077316
1.0076653
1.0076973
1.0077725
1.0078902
1.0080482
1.0082189
1.0084211
1.0086101
1.0087997
1.0090106
1.0092143
1.0093955
1.0096209
1.009873
1.0101604
1.0104181
1.0107417
1.0110652
1.0113313
1.0116752
1.0119609
1.0121872
1.012375
1.0010612
1.0023748
1.0033391
1.0040814
1.0041505
1.0031667
1.0017048
1.0002715
0.99903462
0.99804412
0.9972815
0.99678778
0.99664901
0.99693382
0.99756005
0.99870202
1.0004088
1.0026701
1.0052755
1.0076637
1.0093608
1.0104764
1.0111026
1.0112254
1.0109051
1.0103352
1.0096776
1.0090293
1.0084572
1.0080294
1.0077076
1.007503
1.0073943
1.0073882
1.007456
1.0075795
1.0077222
1.007925
1.0081279
1.008338
1.0085753
1.0087963
1.0090123
1.0092262
1.0094881
1.0097228
1.0099741
1.0102825
1.0105838
1.0108971
1.0112276
1.0115584
1.0118128
1.0120658
1.0125102
1.0009958
1.0022251
1.0031715
1.0039592
1.0041447
1.003289
1.0019191
1.0005396
0.99934081
0.99836759
0.99759983
0.99707785
0.99690159
0.9971325
0.9976998
0.99875698
1.00036
1.0025418
1.0051019
1.0075997
1.0094711
1.0106914
1.0113239
1.0114014
1.0109893
1.0103527
1.0096633
1.0089687
1.008365
1.0078856
1.0075342
1.0072952
1.0071622
1.0071218
1.0071625
1.0072536
1.0074152
1.007578
1.0077925
1.0080393
1.0082863
1.0085294
1.0087952
1.0090658
1.0093263
1.0095761
1.0098945
1.0101673
1.0105011
1.0108201
1.0111625
1.0114582
1.0118197
1.0121401
1.012466
1.0009326
1.0020804
1.0029973
1.0038177
1.0041136
1.0033833
1.0021219
1.0008044
0.99965208
0.99869561
0.99793654
0.99739024
0.99715858
0.99732997
0.99783558
0.99879872
1.0003085
1.0023989
1.0049396
1.0075153
1.0095292
1.0108615
1.0115354
1.0115516
1.0110959
1.0104043
1.0096477
1.0089158
1.0082889
1.0077754
1.0073752
1.0071096
1.0069402
1.006884
1.0068953
1.0069677
1.0070965
1.0072893
1.0075087
1.0077343
1.0079889
1.0082604
1.0085439
1.0088096
1.0091049
1.0093844
1.0097157
1.0099923
1.010356
1.0106402
1.010987
1.0113237
1.0117162
1.0120294
1.0122465
1.0008772
1.00194
1.0028155
1.0036592
1.0040471
1.0034358
1.0022977
1.0010606
0.99995999
0.99902722
0.99826044
0.99769577
0.9974177
0.99752679
0.99796932
0.99884072
1.0002532
1.0022427
1.0047355
1.0073719
1.0095637
1.0109955
1.0117086
1.0116952
1.011194
1.0104478
1.0096359
1.0088747
1.0082271
1.0076726
1.0072531
1.0069457
1.006745
1.0066414
1.0066479
1.0067065
1.0068197
1.0069757
1.0071761
1.0074187
1.0076928
1.0079809
1.0082801
1.0085935
1.0089062
1.0092432
1.0095414
1.0098888
1.0102352
1.0105265
1.0109444
1.0112929
1.011619
1.0119034
1.0123746
1.0008272
1.0018085
1.0026392
1.0034886
1.0039657
1.0034779
1.0024562
1.0013075
1.0002622
0.99936574
0.99859237
0.99799722
0.99766829
0.99771847
0.9980962
0.99888154
1.0001985
1.0020939
1.0045168
1.0071873
1.0095341
1.0111104
1.011852
1.0118287
1.0112788
1.0104881
1.0096454
1.0088624
1.0081734
1.0075975
1.0071404
1.0068123
1.0065809
1.0064526
1.0064121
1.0064555
1.0065629
1.0067157
1.0069249
1.0071619
1.0074222
1.0077019
1.007998
1.0083134
1.0086461
1.0089501
1.0093057
1.0096395
1.0099785
1.0103735
1.0107251
1.0110464
1.0114541
1.0117817
1.0122673
1.0007848
1.0016883
1.0024688
1.0033097
1.0038618
1.0034867
1.0025839
1.0015233
1.0005467
0.99968075
0.99891189
0.9982865
0.99791553
0.99789465
0.99821294
0.99891927
1.0001359
1.0019419
1.0042997
1.0069864
1.0094572
1.0111901
1.0119932
1.0119548
1.0113843
1.0105595
1.0096814
1.0088625
1.0081415
1.0075347
1.0070585
1.0067007
1.0064363
1.0062921
1.0062211
1.006236
1.0063061
1.0064425
1.0066324
1.0068616
1.0071312
1.0074284
1.0077614
1.0080748
1.0084289
1.0087693
1.0091399
1.0094872
1.0098815
1.0102278
1.0105753
1.0109642
1.0113258
1.0117528
1.0120201
1.0007439
1.0015851
1.0023169
1.0031389
1.0037427
1.0034779
1.0026972
1.0017331
1.0008232
0.99998549
0.99922067
0.99858015
0.99815022
0.99805855
0.99831922
0.99893732
1.0000701
1.0017821
1.0040687
1.0067496
1.0093416
1.0112124
1.0120977
1.0120833
1.0114991
1.0106352
1.0097265
1.008877
1.0081391
1.0075016
1.0069948
1.0066025
1.0063264
1.0061408
1.0060506
1.0060381
1.0061098
1.0062291
1.0063928
1.00661
1.0068648
1.00716
1.0074519
1.0078057
1.0081387
1.0085251
1.0088761
1.009244
1.0095853
1.0099659
1.0103314
1.0107552
1.0111354
1.0114547
1.0118995
1.0007102
1.0014943
1.0021819
1.0029804
1.0036206
1.0034483
1.0027815
1.0019152
1.0010679
1.0002731
0.99950577
0.99883758
0.99836845
0.9982117
0.99841491
0.99895434
1.0000041
1.0016254
1.0038268
1.0064838
1.0091667
1.011199
1.0121714
1.0121859
1.0115994
1.0107257
1.0097916
1.0089143
1.0081445
1.0074881
1.0069571
1.0065464
1.0062422
1.0060334
1.0059091
1.005875
1.005921
1.0060239
1.0061808
1.0063874
1.0066363
1.0069115
1.0072457
1.007576
1.0079475
1.0082783
1.0086779
1.009021
1.0094746
1.0098095
1.0102305
1.0105424
1.0109666
1.0112721
1.0117847
1.0006797
1.0014169
1.0020689
1.0028452
1.003508
1.0034156
1.0028469
1.0020675
1.0012822
1.0005227
0.99976741
0.99907226
0.99856023
0.99835072
0.99849797
0.99897113
0.99994034
1.0014669
1.0035866
1.0062185
1.0089601
1.0111528
1.0122265
1.0122738
1.0117076
1.0108328
1.0098721
1.0089716
1.0081746
1.0074957
1.0069495
1.0065113
1.0061881
1.0059606
1.0057979
1.0057362
1.005763
1.0058584
1.0059977
1.006186
1.0064131
1.0066905
1.0069914
1.0073172
1.0076557
1.0080464
1.0084066
1.0088236
1.0092038
1.0095291
1.0099507
1.0103754
1.0107014
1.0111721
1.0115544
1.0006558
1.0013516
1.0019712
1.0027242
1.0034107
1.0033768
1.0028888
1.0021904
1.0014675
1.0007325
0.99998943
0.9992827
0.99873468
0.99846331
0.99855777
0.99897882
0.99986889
1.0013156
1.0033514
1.0059339
1.0087292
1.0110385
1.0122437
1.0123572
1.0118187
1.0109455
1.009965
1.0090536
1.008239
1.0075384
1.0069603
1.0064992
1.0061516
1.0058974
1.0057319
1.0056313
1.0056342
1.0057078
1.005829
1.0060034
1.0062297
1.0064998
1.0067753
1.0071095
1.007456
1.0078212
1.0081932
1.0086112
1.0089111
1.0094389
1.0097658
1.0101347
1.0105808
1.0109641
1.011261
1.0006397
1.0013059
1.0018959
1.0026337
1.0033202
1.003337
1.0029149
1.002287
1.0016076
1.0009023
1.0001585
0.99944456
0.99886602
0.99855198
0.99859952
0.9989657
0.99978839
1.001157
1.0031183
1.0056558
1.008463
1.010915
1.0122393
1.012402
1.0119252
1.0110557
1.0100737
1.0091501
1.0083075
1.0075954
1.0070041
1.0065194
1.0061519
1.0058841
1.0056731
1.0055512
1.0055329
1.0055897
1.0057044
1.0058616
1.0060638
1.006284
1.0065842
1.0068845
1.0072447
1.0075794
1.0079873
1.0083058
1.008816
1.0091191
1.0095493
1.0099293
1.0103642
1.0106626
1.0111161
1.0006254
1.0012795
1.0018437
1.0025495
1.0032452
1.0032958
1.0029151
1.0023184
1.0016736
1.0009956
1.0002552
0.99952798
0.99892583
0.99857903
0.9985873
0.99891162
0.99967519
1.0009695
1.0028579
1.0053507
1.0081359
1.0106878
1.0121642
1.0123999
1.0119848
1.0111418
1.0101645
1.0092306
1.0083748
1.0076456
1.007047
1.0065284
1.0061491
1.0058461
1.0056564
1.0054914
1.005441
1.0054866
1.0055732
1.0057202
1.0059023
1.0061466
1.0063976
1.0067062
1.0070089
1.0073744
1.0077239
1.008145
1.0085106
1.0089091
1.0092789
1.0097075
1.0100734
1.0104355
1.0109587
1.0006154
1.0012716
1.0017905
1.0024004
1.0031473
1.0031933
1.002793
1.0023364
1.0017293
1.0010139
1.0002644
0.99958655
0.99897719
0.99859055
0.99855766
0.99887632
0.99960893
1.0008071
1.0026116
1.0051141
1.0078929
1.0104215
1.0121285
1.0123132
1.0121568
1.0112511
1.0102409
1.0093359
1.0084671
1.0077575
1.0071099
1.0066381
1.0061861
1.0059013
1.0056268
1.0054981
1.0054327
1.0054539
1.0055328
1.005645
1.0058163
1.0060411
1.006308
1.0065897
1.0069051
1.0072295
1.0075752
1.0079414
1.0083145
1.0087291
1.0091403
1.0095364
1.009913
1.0103475
1.0106914
1.0112257
1.0113717
1.0116477
1.011798
1.011995
1.0121958
1.0123539
1.012551
1.0125791
1.012699
1.0127785
1.0126815
1.0127204
1.0126826
1.0125737
1.0123103
1.0121915
1.0119134
1.0115963
1.0113544
1.0111155
1.0108759
1.0107302
1.0104635
1.0100991
1.0098035
1.009684
1.0117675
1.0119099
1.0121267
1.0123544
1.0125072
1.0126843
1.0128448
1.0129489
1.0130783
1.0130616
1.0130836
1.0130717
1.0129878
1.0128246
1.0127138
1.0124527
1.0121886
1.0118747
1.0115623
1.0112435
1.0109703
1.0107257
1.0104837
1.0102779
1.0099845
1.0095907
1.0092965
1.0123482
1.0124905
1.0127053
1.0128886
1.013078
1.0132264
1.0133685
1.0134657
1.0135281
1.0135236
1.0134841
1.0133793
1.0132833
1.0130701
1.0128208
1.0125632
1.0122096
1.0118993
1.0115
1.0111475
1.0108085
1.0105158
1.0102374
1.0100027
1.0097639
1.0094251
1.0090114
1.0130105
1.0131152
1.0133377
1.0135252
1.0136593
1.0138441
1.0139364
1.014014
1.0140532
1.013966
1.0139313
1.0137434
1.013559
1.0133343
1.0129808
1.01269
1.012275
1.0119292
1.0115103
1.0111115
1.0107099
1.0103899
1.0100529
1.0097802
1.0095248
1.0092752
1.0088695
1.0136919
1.0137918
1.0139814
1.0141678
1.0142826
1.0144436
1.0145008
1.0145537
1.0145556
1.0144144
1.0143229
1.0140919
1.0138535
1.0135468
1.013188
1.0128155
1.0123805
1.0120038
1.0115218
1.0111549
1.0106749
1.0103375
1.0099535
1.0096487
1.0093226
1.009125
1.0087764
1.0143589
1.0144548
1.0146219
1.0147677
1.0148866
1.014992
1.0150273
1.0150206
1.0149841
1.0148071
1.0146355
1.0143725
1.0140836
1.013733
1.0133372
1.0129705
1.0124646
1.0120822
1.0115957
1.0111778
1.01073
1.0103109
1.0099438
1.0095732
1.0092355
1.0089532
1.0086998
1.0150196
1.015083
1.0152317
1.0153374
1.0154466
1.0154876
1.0154826
1.0154551
1.0152983
1.015127
1.014892
1.0145345
1.014273
1.0138351
1.0134353
1.013036
1.0125236
1.0121367
1.0116268
1.0112151
1.010726
1.0103229
1.0098857
1.0095409
1.009146
1.0088049
1.0085648
1.0156677
1.015678
1.015808
1.0158788
1.015935
1.0159498
1.0158831
1.0157952
1.0156102
1.0153257
1.0150849
1.0146889
1.0143156
1.01395
1.0134292
1.0130601
1.0125662
1.0121107
1.0116749
1.0111675
1.0107661
1.0102527
1.0098803
1.0094432
1.0091027
1.0086704
1.0084139
1.0162703
1.0162321
1.016321
1.0163717
1.0163838
1.0163353
1.0162359
1.0161023
1.0158401
1.0155229
1.0152204
1.0147889
1.0143992
1.0139604
1.0134685
1.0130288
1.0125465
1.0120825
1.0115974
1.0111558
1.0106614
1.0102254
1.0097644
1.00935
1.0089846
1.0085708
1.0082441
1.0167921
1.0167118
1.0167486
1.0167581
1.0167534
1.0166667
1.0164878
1.0163187
1.0160424
1.0156416
1.0153123
1.0148938
1.0144133
1.0140174
1.01348
1.0130006
1.0125618
1.0119858
1.011584
1.0110444
1.0106002
1.0101427
1.0096557
1.0092298
1.0088457
1.0084528
1.0081222
1.0172154
1.0170743
1.017073
1.0170443
1.0170026
1.0168763
1.0166516
1.0164664
1.0161365
1.0157208
1.0154016
1.0149088
1.0144689
1.0140314
1.0134663
1.013049
1.0124856
1.0119999
1.0115234
1.0109583
1.0105579
1.0100106
1.0095957
1.0090504
1.0087282
1.0082701
1.0080176
1.0175484
1.0173267
1.0172764
1.0172045
1.0171131
1.016968
1.0167244
1.0164721
1.0161476
1.0157533
1.0153567
1.0149324
1.0144749
1.0139975
1.0135232
1.0130244
1.0125048
1.0120395
1.0114709
1.0110164
1.0104848
1.0100243
1.009534
1.0090049
1.0086212
1.0081522
1.0079033
1.01777
1.017473
1.0173674
1.017255
1.0171347
1.016958
1.0166753
1.0164225
1.0161063
1.0156698
1.0153297
1.0148965
1.0144061
1.0140119
1.0134918
1.0130121
1.0125567
1.011991
1.011541
1.0110147
1.0104834
1.010055
1.0095122
1.0090634
1.0085474
1.0080944
1.0077815
1.0178658
1.0174993
1.0173423
1.0172127
1.0170492
1.0168443
1.0165818
1.0163063
1.0159479
1.0155855
1.0152356
1.0147674
1.014383
1.0139424
1.0134353
1.0130439
1.0125126
1.0120375
1.0115963
1.0110109
1.0105823
1.0100983
1.0095749
1.0091615
1.008566
1.0081675
1.0077275
1.0178273
1.017411
1.0172335
1.017071
1.0168664
1.0166676
1.0164202
1.0160969
1.0157869
1.0154556
1.0150223
1.0146685
1.0142823
1.0137989
1.0134094
1.0129818
1.0124528
1.0120745
1.0115596
1.0110534
1.0106578
1.0100977
1.0096716
1.0092486
1.0086626
1.0082481
1.0077372
1.0176615
1.0172138
1.0169951
1.0168066
1.0166235
1.0164114
1.0161301
1.0158605
1.0155788
1.0151845
1.0148413
1.0145157
1.014078
1.0136861
1.0133352
1.0128407
1.012433
1.0120507
1.011513
1.0111131
1.0106766
1.0101415
1.0097829
1.009319
1.0087807
1.0083743
1.0078299
1.0173844
1.0168797
1.0166368
1.016474
1.0162847
1.0160308
1.0157984
1.0155802
1.0152348
1.0148977
1.0146486
1.0142456
1.0138492
1.0135603
1.0131394
1.0126973
1.0123708
1.0119392
1.0114596
1.0111183
1.0106401
1.0101626
1.0098431
1.0093636
1.0088946
1.0084983
1.0079491
1.0169843
1.0164323
1.0162113
1.0160404
1.0158094
1.0156071
1.0154362
1.0151459
1.0148389
1.0146226
1.0142994
1.0139219
1.0136503
1.0133298
1.0128962
1.0125648
1.0122467
1.0117812
1.0114123
1.0110686
1.0105912
1.0101855
1.0098438
1.0094143
1.0089755
1.008615
1.0080704
1.0164961
1.0159187
1.015688
1.0154777
1.0153004
1.0151707
1.014936
1.0146596
1.0144606
1.0142253
1.013878
1.0136036
1.0133729
1.0129976
1.012646
1.0123941
1.0120153
1.0116147
1.0113031
1.0109613
1.01052
1.0101234
1.0098403
1.0093801
1.0090364
1.0086632
1.0081884
1.0159558
1.0153303
1.0150483
1.014889
1.014782
1.0146063
1.0143596
1.0141921
1.0140224
1.0137297
1.0134368
1.013284
1.0129731
1.0126338
1.012397
1.0121117
1.011789
1.0113944
1.0111853
1.0107999
1.0104125
1.0100679
1.0097894
1.0093578
1.0090346
1.0087103
1.0082762
1.0154289
1.0146805
1.0143942
1.0143083
1.0141804
1.0139774
1.0138114
1.0136976
1.013481
1.013187
1.0130532
1.0128423
1.012534
1.0122872
1.0120425
1.0118473
1.0114254
1.0112147
1.0109362
1.0106384
1.0102498
1.0099695
1.0097018
1.009297
1.0090041
1.0087142
1.00833
1.0147996
1.0140405
1.0137964
1.0136781
1.013507
1.0133715
1.013277
1.0131385
1.0128874
1.0127074
1.0125896
1.0123684
1.0120942
1.0118749
1.011753
1.0114238
1.0111884
1.010906
1.010751
1.0103926
1.0101009
1.0098443
1.0095739
1.0092358
1.0089274
1.008692
1.0083465
1.0142248
1.0134608
1.0131938
1.0130259
1.0128714
1.0127822
1.0127431
1.0125302
1.0123353
1.0122639
1.0120536
1.011922
1.0116296
1.0114755
1.0114043
1.0109922
1.0109316
1.0105565
1.0105466
1.010101
1.0099184
1.0096461
1.0094249
1.009138
1.0088063
1.0086449
1.008336
1.0136398
1.0128578
1.0125448
1.0124
1.0122814
1.0122434
1.0121523
1.0119239
1.0118597
1.0117574
1.0115758
1.0114327
1.0111705
1.0111365
1.0109375
1.0106764
1.0105356
1.0102898
1.0102452
1.0098374
1.0097197
1.009417
1.0092913
1.0089857
1.0087052
1.0085448
1.0082779
1.013166
1.012268
1.0119104
1.0118233
1.0117552
1.0116897
1.0115784
1.0113847
1.0113604
1.0113031
1.0110648
1.010964
1.0107812
1.0107045
1.0105798
1.0102642
1.0102338
1.0099629
1.0099684
1.0095752
1.0094961
1.0091987
1.0091133
1.0088343
1.0085781
1.008423
1.0081963
1.0127226
1.0117179
1.0113495
1.0112827
1.0112344
1.0111437
1.0110496
1.0109081
1.0108727
1.0108503
1.0105831
1.0105357
1.0104001
1.0102834
1.0102343
1.009874
1.0099493
1.0096368
1.009681
1.0093284
1.0092548
1.0089994
1.0088929
1.0086886
1.0084239
1.0083049
1.0080799
1.0121336
1.0112439
1.0108446
1.0107997
1.0107312
1.0106149
1.010609
1.010456
1.0104324
1.0103916
1.0101309
1.0101932
1.0099687
1.0099791
1.0098154
1.0095819
1.0096274
1.009315
1.0094525
1.0090161
1.0090877
1.0087278
1.008741
1.0085052
1.0083076
1.0081587
1.007957
1.0119587
1.0108115
1.0104121
1.010358
1.010239
1.0101604
1.0101844
1.0100563
1.01007
1.0099397
1.0097634
1.0098179
1.0096029
1.0096975
1.009438
1.0093277
1.0092718
1.0090724
1.0091906
1.0087759
1.0088951
1.0084764
1.0085846
1.0083292
1.0082052
1.008015
1.0078481
1.0111818
1.0104337
1.0100215
1.0099603
1.0098078
1.0097507
1.0097996
1.0096803
1.0097367
1.0095712
1.009428
1.0094826
1.0092554
1.0094242
1.009108
1.0091037
1.0089661
1.0088455
1.0089366
1.0085429
1.0087178
1.0082594
1.0084308
1.0081274
1.0080939
1.0078814
1.0077644
1.0114733
1.0101048
1.0096465
1.0096054
1.0094439
1.0094033
1.0094712
1.0093267
1.0094317
1.0092452
1.0091419
1.0091927
1.0089577
1.009171
1.0088026
1.0089112
1.0086938
1.0086526
1.0086791
1.0083459
1.0085408
1.0080913
1.0082966
1.0079469
1.0079928
1.0077686
1.0076855
1.010804
1.0098325
1.0093409
1.0092538
1.0091575
1.0091344
1.0091377
1.0090674
1.0091106
1.008983
1.0089156
1.0089159
1.0087709
1.0088632
1.0086188
1.0086954
1.0085023
1.0084676
1.008449
1.00822
1.0083615
1.0079837
1.0081221
1.0078403
1.0078822
1.0077003
1.0076138
1.0111949
1.0095978
1.0091282
1.0089699
1.0089319
1.0088777
1.0088857
1.0088849
1.0088123
1.0088047
1.0086865
1.0086789
1.0086273
1.0085667
1.0085793
1.0084251
1.008436
1.0082225
1.0083167
1.0081324
1.0081723
1.0079625
1.0079088
1.0078122
1.0077241
1.0076843
1.0075508
1.010658
1.0094358
1.0089179
1.0087745
1.0087032
1.0086681
1.0086865
1.0086844
1.0086355
1.008639
1.0085153
1.0085132
1.0084576
1.0083922
1.0084607
1.008263
1.0083452
1.0080735
1.0082077
1.0080203
1.0080241
1.0079235
1.0077721
1.0078024
1.0076217
1.0076692
1.0074955
1.0106152
1.0092852
1.0087655
1.0086304
1.0085715
1.0085395
1.0085387
1.0085349
1.0085029
1.0084714
1.0083895
1.0084012
1.008334
1.0082902
1.0083313
1.0081624
1.0082523
1.0079978
1.0081217
1.007932
1.0079459
1.0078775
1.0077649
1.0077635
1.0075719
1.0076005
1.0074745
1.0107765
1.0092618
1.0086728
1.0085227
1.0084989
1.00843
1.008414
1.0084457
1.0083939
1.0083771
1.0083605
1.0083165
1.008271
1.0081761
1.0082197
1.0081195
1.0081897
1.0080051
1.0080506
1.0078885
1.0078727
1.0078549
1.0077717
1.00777
1.0075778
1.0075794
1.007484
1.0108405
1.0093206
1.0086199
1.0084219
1.0084289
1.0083755
1.0083095
1.0083655
1.008304
1.0083067
1.0083392
1.0082566
1.0082615
1.0081304
1.0081474
1.0081092
1.0081431
1.0080464
1.0080056
1.0079104
1.0078422
1.0078872
1.007767
1.0078072
1.0076095
1.007597
1.0075101
1.011017
1.0093599
1.0086178
1.0083696
1.0083665
1.0083432
1.0082837
1.008324
1.0082875
1.0082818
1.0083207
1.0082487
1.0082132
1.0081567
1.0081049
1.0081446
1.00813
1.0080851
1.0079994
1.0079591
1.0078667
1.0079225
1.0078165
1.0078597
1.007677
1.0076433
1.0075582
1.0111318
1.0094621
1.0086309
1.0083636
1.0083265
1.0083424
1.008297
1.008338
1.0083267
1.0083153
1.0083107
1.0082776
1.0081997
1.0081989
1.0081439
1.0082007
1.008159
1.008121
1.0080274
1.0080181
1.007943
1.0079464
1.00792
1.0078863
1.0077574
1.007707
1.0076442
1.011351
1.0096292
1.0086837
1.0084188
1.0083373
1.0083524
1.0083306
1.0083618
1.0083577
1.0083396
1.0083135
1.0083259
1.008264
1.0082549
1.0082404
1.0082318
1.0081934
1.0081541
1.0081016
1.0080723
1.0080586
1.008013
1.0080095
1.0079604
1.0078645
1.0077888
1.0077411
1.0115292
1.0098545
1.0087872
1.0084822
1.0084023
1.0083976
1.0083867
1.0083956
1.008407
1.0083804
1.008363
1.0083635
1.0083394
1.0083294
1.008317
1.0082781
1.0082496
1.0082276
1.0082111
1.0081738
1.0081579
1.0081144
1.0080788
1.0080365
1.0079535
1.0079232
1.0078707
1.0115943
1.0100674
1.008919
1.0085475
1.0084746
1.0084541
1.0084549
1.0084686
1.0084688
1.0084523
1.0084586
1.0084198
1.0084361
1.0084046
1.0083752
1.008349
1.0083039
1.0083403
1.0082947
1.0082993
1.0082573
1.0082243
1.0081847
1.0081079
1.008083
1.0080589
1.0080251
1.0116888
1.0102407
1.0090423
1.0086512
1.0085535
1.0085517
1.008565
1.0085384
1.0085775
1.0085137
1.0085792
1.0085351
1.0085352
1.0085373
1.0084351
1.0084774
1.0083807
1.0084908
1.0083494
1.0084539
1.0083778
1.0083305
1.0083355
1.008217
1.0082701
1.0082178
1.0081966
1.0117445
1.0104023
1.0091708
1.008746
1.0086773
1.0086488
1.0087204
1.0086258
1.0086715
1.0086099
1.0086273
1.0086917
1.008591
1.0087063
1.0085222
1.0086385
1.0084766
1.008619
1.0085145
1.008505
1.0085771
1.0083939
1.0085141
1.008342
1.0084739
1.0083459
1.0083426
1.0118212
1.0105291
1.0092972
1.0088177
1.008792
1.0087273
1.008795
1.0087517
1.0087082
1.0087513
1.0086191
1.0088242
1.0086437
1.0087993
1.008652
1.0086956
1.0086941
1.0085928
1.0087819
1.0085134
1.0087236
1.0084679
1.0086797
1.0084489
1.0085964
1.0084598
1.0084538
1.0118942
1.0106263
1.0093913
1.0088764
1.0088105
1.0088049
1.0087611
1.0088611
1.0087039
1.0088813
1.0086344
1.0088537
1.0087385
1.0087957
1.008802
1.0086466
1.0088893
1.0085856
1.0089274
1.0085456
1.00885
1.0085366
1.0087752
1.0086311
1.0086095
1.0086165
1.0085383
1.0119664
1.010715
1.0093889
1.0089684
1.0087383
1.0088249
1.0087365
1.0087888
1.0088391
1.0087407
1.0089124
1.0086042
1.0089336
1.0086486
1.008915
1.0087066
1.0087554
1.0088252
1.0086465
1.0089074
1.0085475
1.0089274
1.008525
1.008914
1.0085791
1.0087396
1.0085947
1.0119715
1.0107293
1.0093758
1.0089291
1.0087374
1.0086618
1.0087409
1.0086615
1.0088687
1.0086802
1.0088229
1.008728
1.0086708
1.0088305
1.0086715
1.0089183
1.0086115
1.0088252
1.0086532
1.0087879
1.0087615
1.0086983
1.0088211
1.0086402
1.0088464
1.0086421
1.0087034
1.011973
1.0106612
1.0092596
1.008807
1.008575
1.0086929
1.0085465
1.0086301
1.0086767
1.0086078
1.00879
1.0085552
1.0088003
1.0085519
1.0087964
1.0087079
1.0087182
1.0087359
1.0086152
1.0088105
1.0086678
1.0088435
1.0086535
1.0087799
1.0086767
1.0087599
1.0086953
1.0118642
1.0104981
1.0090884
1.0085783
1.0083943
1.0085277
1.0084261
1.0084626
1.0085131
1.0084038
1.0086413
1.0084513
1.0086696
1.0085643
1.0085728
1.0086907
1.0085684
1.0087797
1.0085686
1.0087617
1.0086253
1.0087589
1.0086639
1.0087168
1.0086771
1.0086991
1.0086794
1.0116329
1.0103419
1.008866
1.0082647
1.0082338
1.0081292
1.0083208
1.0081623
1.0082918
1.0082576
1.0082513
1.0084708
1.0082386
1.0085754
1.008287
1.0085556
1.0084321
1.0085497
1.0085881
1.0085007
1.0086259
1.0085043
1.0086814
1.0085421
1.0086545
1.0085399
1.0086052
1.0113509
1.0100396
1.0086195
1.0079739
1.0078813
1.0078747
1.0078373
1.0080183
1.0079249
1.0080472
1.0080336
1.0080309
1.0082053
1.0080568
1.008308
1.0081328
1.0083521
1.0082667
1.0083684
1.0083703
1.0083813
1.0084127
1.0084041
1.0084597
1.0083962
1.0084203
1.0084327
1.0111148
1.0097104
1.0082728
1.0075491
1.0075613
1.0074761
1.0075327
1.0076089
1.0075912
1.0077619
1.007647
1.0078224
1.0077197
1.0079044
1.0078818
1.0079502
1.007985
1.0080026
1.0080919
1.0080695
1.0081583
1.0081083
1.0081818
1.0081197
1.0082121
1.008184
1.0082897
1.0106814
1.009345
1.0078291
1.0072444
1.0069445
1.0072331
1.0070261
1.007215
1.0072507
1.0071319
1.00751
1.0071593
1.0075981
1.0073079
1.007566
1.0075753
1.0075149
1.0077742
1.0075311
1.0079009
1.0076095
1.0079169
1.0077024
1.0079072
1.0078211
1.0079601
1.0079922
1.0103817
1.0090382
1.0073876
1.0066598
1.0067233