/*--------------------------------*- C++ -*----------------------------------*\
| =========                 |                                                 |
| \\      /  F ield         | OpenFOAM: The Open Source CFD Toolbox           |
|  \\    /   O peration     | Version:  2406                                  |
|   \\  /    A nd           | Website:  www.openfoam.com                      |
|    \\/     M anipulation  |                                                 |
\*---------------------------------------------------------------------------*/
FoamFile
{
    version     2.0;
    format      ascii;
    arch        "LSB;label=32;scalar=64";
    class       volVectorField;
    location    "5";
    object      U;
}
// * * * * * * * * * * * * * * * * * * * * * * * * * * * * * * * * * * * * * //

dimensions      [0 1 -1 0 0 0 0];

internalField   nonuniform List<vector> 
62344
(
(0.162771 0.0012742023 -1.394388e-21)
(0.16125413 0.0060191248 -7.2719849e-22)
(0.16461387 0.0089412243 -1.5086764e-21)
(0.16639187 0.01264914 7.8954644e-22)
(0.16795326 0.014836324 0)
(0.1701571 0.015753109 3.3884302e-21)
(0.17289099 0.016291704 -3.518973e-21)
(0.17817143 0.017427809 1.8244373e-21)
(0.1838788 0.015448564 0)
(0.18753659 0.012654478 0)
(0.19019489 0.011039326 8.1809236e-21)
(0.19282213 0.0096918965 -1.7602481e-20)
(0.19369705 0.0095014229 5.5373703e-22)
(0.19272981 0.0067312867 1.8968297e-20)
(0.18847787 0.0036307908 -9.5971779e-21)
(0.18160826 -0.00048196995 9.4831957e-21)
(0.17202263 -0.0057740238 -1.0414115e-20)
(0.16543205 -0.008442741 0)
(0.16311375 -0.0096703686 0)
(0.16174131 -0.010266421 -7.3991674e-22)
(0.15902389 -0.0069775418 -3.8461151e-22)
(0.15641047 -0.0028575642 4.0143332e-22)
(0.15275533 -0.0020699397 8.3582041e-22)
(0.14784697 0.0024929735 -2.7715389e-20)
(0.14926115 0.0022614459 2.8784644e-20)
(0.14714949 0.0025365153 0)
(0.14399433 0.0020460254 0)
(0.15112721 -0.010180482 -2.5228781e-22)
(0.15270263 -0.017834503 -3.3958244e-20)
(0.14382917 -0.013865206 3.5131525e-20)
(0.14294632 -0.015093634 3.646799e-20)
(0.1519987 -0.026761267 -3.82087e-20)
(0.15395049 -0.033616648 -3.0581661e-22)
(0.14575116 -0.02974501 4.1078416e-20)
(0.14427124 -0.029173298 -4.2225334e-20)
(0.15601912 -0.04066842 -3.4402603e-22)
(0.16616418 -0.054648497 -4.6633127e-20)
(0.1593274 -0.053765953 9.5199097e-20)
(0.14302558 -0.040150057 -9.9553015e-20)
(0.13353224 -0.027044013 -1.2722635e-22)
(0.14270246 -0.033720482 1.1143105e-21)
(0.15968516 -0.056451225 1.1196258e-19)
(0.16808122 -0.077293014 -5.8666844e-20)
(0.16461443 -0.08306266 0)
(0.15862516 -0.078140712 -6.2855366e-20)
(0.15325562 -0.068498565 1.3236043e-19)
(0.14610417 -0.060580587 1.1250218e-21)
(0.13918786 -0.060600321 -1.4303909e-19)
(0.13608147 -0.069556544 7.4336727e-20)
(0.14338678 -0.082490391 0)
(0.16122368 -0.098463118 0)
(0.18301565 -0.11139349 8.0700336e-20)
(0.1976948 -0.12216254 -8.5261686e-20)
(0.20046337 -0.12631825 -1.6496328e-22)
(0.18821168 -0.13375232 -8.8136669e-20)
(0.16220768 0.0013419335 -7.3646977e-22)
(0.16044152 0.0051564027 7.6686105e-22)
(0.16395648 0.008561154 2.3903081e-21)
(0.16581849 0.011308804 -2.4895391e-21)
(0.16706959 0.012215335 0)
(0.1692623 0.01660494 3.5785011e-21)
(0.17262464 0.019291915 -4.6542005e-21)
(0.17785896 0.017244239 -4.8055108e-21)
(0.18337182 0.016350667 5.022573e-21)
(0.18756984 0.016719478 0)
(0.1906645 0.014824945 0)
(0.1927736 0.011673358 5.6312929e-22)
(0.19366983 0.011956479 -5.8346283e-22)
(0.19343872 0.0091139455 8.526426e-21)
(0.19029415 0.006976376 -1.0128781e-20)
(0.18438698 0.0028673733 0)
(0.17483884 -0.0022469808 0)
(0.16738748 -0.0062700761 0)
(0.16439106 -0.007137605 1.2032354e-20)
(0.16182793 -0.0073695451 4.5198718e-22)
(0.15799116 -0.0047913694 6.330001e-23)
(0.15596775 -0.0014877347 -4.115308e-20)
(0.15330291 0.00045586341 2.7808187e-20)
(0.14793383 0.002984511 0)
(0.14895264 0.0012881057 3.0359919e-20)
(0.14761783 0.0032157775 1.6505834e-22)
(0.14675287 0.00049671481 -6.5444663e-20)
(0.15471554 -0.010602913 3.4769862e-20)
(0.15454911 -0.015259289 -2.771492e-22)
(0.14458658 -0.012216806 -3.7461196e-20)
(0.14467517 -0.01637954 3.8587861e-20)
(0.15441257 -0.027081291 3.1091714e-22)
(0.15504016 -0.032607841 -4.1460588e-20)
(0.14507105 -0.029081961 8.6322615e-20)
(0.14372489 -0.027585152 -4.5034599e-20)
(0.15751207 -0.034941913 3.6424578e-22)
(0.16892799 -0.042834847 0)
(0.16085428 -0.041076154 0)
(0.14253193 -0.033011649 2.0828839e-22)
(0.13373065 -0.030699931 5.4520035e-20)
(0.14779391 -0.043780645 -1.1343119e-19)
(0.16848435 -0.06304905 6.0997993e-20)
(0.17492693 -0.073765899 6.0877104e-20)
(0.16643492 -0.072441992 -1.2579278e-19)
(0.15529562 -0.064181972 6.6814599e-20)
(0.1490967 -0.053727937 0)
(0.15159572 -0.053502288 0)
(0.15520627 -0.063035006 0)
(0.15271842 -0.0767279 1.517222e-22)
(0.14829923 -0.087670645 -1.5834368e-22)
(0.15449021 -0.096618597 0)
(0.17205848 -0.100364 -3.8204228e-24)
(0.19472877 -0.10705583 -1.7916781e-22)
(0.21023363 -0.10745431 2.7532526e-22)
(0.21060028 -0.11373824 -9.227e-23)
(0.16158896 0.0013462331 7.7714908e-22)
(0.15973374 0.0042826826 -8.0967818e-22)
(0.1631798 0.0075176192 -8.413668e-22)
(0.16551868 0.011445313 8.7592187e-22)
(0.1665748 0.011377805 -9.0812747e-22)
(0.1681401 0.014439618 9.4760366e-22)
(0.17256476 0.017977534 1.9658609e-21)
(0.17853001 0.015933692 0)
(0.18351919 0.01416143 3.1593945e-21)
(0.18761127 0.015454095 -4.9547749e-21)
(0.19147449 0.014874098 0)
(0.19355281 0.012253535 -5.9344417e-22)
(0.19442268 0.010962047 1.4689944e-24)
(0.19457565 0.006018245 1.99189e-24)
(0.19184807 0.0039378176 1.0741726e-20)
(0.18659279 0.00042299449 -1.0458262e-20)
(0.1774726 -0.0027556778 0)
(0.16896315 -0.0077338274 0)
(0.16480479 -0.0080091624 0)
(0.16166754 -0.0064923477 0)
(0.15736862 -0.0037669463 0)
(0.15524426 -0.0011465288 1.4812245e-20)
(0.15257164 0.002773292 -1.4905521e-20)
(0.14828452 0.0061783021 -4.8364489e-22)
(0.14918663 0.003184871 4.9901434e-22)
(0.14821521 0.0053922929 0)
(0.14963778 0.00053346261 0)
(0.15757348 -0.01088307 2.8269951e-22)
(0.15595147 -0.011604798 2.9290537e-22)
(0.14674927 -0.0082471713 0)
(0.14851573 -0.014321453 0)
(0.15873018 -0.025965446 -4.2794064e-20)
(0.15776097 -0.030798871 8.7641573e-20)
(0.14591921 -0.027068164 -4.5208321e-20)
(0.14355308 -0.026618676 -1.8648181e-22)
(0.15741408 -0.034059826 4.8737896e-20)
(0.16936426 -0.038934604 -5.1299616e-20)
(0.16316075 -0.034793608 0)
(0.14678182 -0.028475988 -1.667145e-24)
(0.13955918 -0.031544457 0)
(0.15315497 -0.046503823 5.9034672e-20)
(0.17318433 -0.062452583 -6.3917863e-20)
(0.17758375 -0.068378779 -6.4721931e-20)
(0.16546675 -0.063647002 6.5943265e-20)
(0.14962915 -0.053636977 -1.532618e-24)
(0.14397197 -0.044577983 0)
(0.15327781 -0.045947298 0)
(0.16698633 -0.055574487 -1.5588987e-22)
(0.17112285 -0.068826759 -8.3808723e-20)
(0.1656958 -0.080887717 8.6095288e-20)
(0.15709138 -0.090481473 0)
(0.16017365 -0.095604191 9.0604013e-20)
(0.1748412 -0.098104385 -9.580262e-20)
(0.19399611 -0.094240852 9.9097262e-20)
(0.20818082 -0.092370802 -1.0395971e-19)
(0.16124579 0.00076741668 -4.1078674e-22)
(0.15915683 0.0029833273 -1.2776407e-21)
(0.16228659 0.0051588111 2.654665e-21)
(0.16488751 0.010221556 -1.8515159e-21)
(0.16620559 0.012143947 -2.880242e-21)
(0.16741636 0.012629052 2.9968516e-21)
(0.17205049 0.013826624 -5.1524297e-21)
(0.17829222 0.015068465 8.6190331e-21)
(0.18312881 0.016311506 -5.0311374e-21)
(0.18710483 0.016506445 1.1584458e-21)
(0.19118965 0.015767753 6.0228748e-22)
(0.19358196 0.015394389 1.0013684e-20)
(0.19532363 0.013423004 -9.1230634e-21)
(0.19569204 0.0083288594 1.155533e-20)
(0.19311601 0.0055484089 6.6087125e-23)
(0.18823766 0.0016220784 -2.4361014e-20)
(0.17984356 -0.00099490594 1.1841042e-20)
(0.17081447 -0.0071872063 -3.9997052e-22)
(0.16513275 -0.008093423 1.338541e-20)
(0.16135129 -0.0062368498 -1.3466104e-20)
(0.15693773 -0.0029239228 0)
(0.15416887 -0.00111064 0)
(0.15113727 0.0037770441 -1.5334818e-20)
(0.14826041 0.0078649413 1.6765169e-20)
(0.14931624 0.0044263477 1.6380161e-20)
(0.14894136 0.0059371959 -1.7500229e-20)
(0.15287849 -0.00074519711 -1.818998e-20)
(0.15972855 -0.011284994 1.8831581e-20)
(0.15589781 -0.0087815822 0)
(0.14803978 -0.0051272948 0)
(0.15183608 -0.012140803 0)
(0.16206452 -0.023603333 0)
(0.15967463 -0.02607935 0)
(0.14741857 -0.021561115 0)
(0.14444465 -0.023834558 1.96752e-22)
(0.15654672 -0.032799823 -5.145052e-20)
(0.16779057 -0.037154438 5.4184951e-20)
(0.16326535 -0.03169268 2.1853888e-22)
(0.15069644 -0.025773446 -4.6456491e-22)
(0.14594346 -0.030343828 6.0591636e-20)
(0.15800068 -0.044261383 -6.3802442e-20)
(0.17539204 -0.056696209 6.577985e-20)
(0.1793889 -0.059797969 -6.7621641e-20)
(0.16695779 -0.054625802 7.2000088e-20)
(0.14816736 -0.047097373 -1.5043907e-19)
(0.13905131 -0.042639955 -8.8299172e-23)
(0.15007438 -0.045796539 1.9213943e-21)
(0.16917706 -0.053805102 2.21246e-21)
(0.18446705 -0.064190564 9.2013157e-22)
(0.18759363 -0.074759713 -6.7813397e-22)
(0.17685601 -0.087447955 9.4014324e-20)
(0.16576669 -0.09363409 0)
(0.16341907 -0.099254357 9.8914938e-20)
(0.17072783 -0.093978532 -1.3690777e-21)
(0.18293695 -0.089100575 -1.108152e-19)
(0.16095514 0.00025633624 8.6540608e-22)
(0.15886415 0.0017547829 8.9912607e-22)
(0.16169429 0.0029048927 9.3595153e-22)
(0.16422661 0.0072542062 0)
(0.16606723 0.011517216 0)
(0.1677155 0.011694667 0)
(0.17177629 0.010132652 -5.455075e-22)
(0.17755402 0.012394211 4.5207618e-21)
(0.18265777 0.016691466 -4.1417604e-21)
(0.1872626 0.016166965 -6.1202269e-22)
(0.19128858 0.013578177 -5.0815305e-21)
(0.19379992 0.012756332 5.3028564e-21)
(0.19629642 0.010415078 -1.1662884e-20)
(0.1970104 0.0071835523 1.1436374e-20)
(0.19454876 0.0053425615 0)
(0.19010199 0.00094563375 0)
(0.18225 -0.0018124387 8.1030204e-22)
(0.17311477 -0.0074607291 4.2387312e-22)
(0.16558448 -0.0094330517 -1.4122428e-20)
(0.16123914 -0.0081255557 1.4182077e-20)
(0.15672498 -0.004784252 0)
(0.15341654 -0.0028084857 0)
(0.15000981 0.0030222066 -5.1931685e-22)
(0.14814506 0.0068479965 0)
(0.14938221 0.0035926216 -1.7546291e-20)
(0.14962247 0.0041396191 1.8448e-20)
(0.15551275 -0.003515299 0)
(0.16101744 -0.011632037 0)
(0.15555907 -0.0074543307 0)
(0.14953272 -0.0043035783 0)
(0.15512339 -0.012686058 0)
(0.16461771 -0.02306142 0)
(0.16110627 -0.022893581 -1.9017179e-22)
(0.14953744 -0.0180705 -1.9875721e-22)
(0.1472896 -0.022195243 0)
(0.15740557 -0.033009013 -2.1334744e-22)
(0.16631511 -0.038165952 2.8411274e-20)
(0.16192554 -0.032387736 -2.9579283e-20)
(0.15282193 -0.02627456 2.4427453e-22)
(0.15072956 -0.03028557 2.5124973e-22)
(0.16099113 -0.041677402 0)
(0.17515175 -0.049841023 2.7213985e-22)
(0.17930003 -0.048980004 -6.3626177e-25)
(0.16996544 -0.042535035 7.5944354e-20)
(0.15339327 -0.038331114 2.2192838e-21)
(0.14045631 -0.040828497 -8.2074631e-20)
(0.14539685 -0.048679648 -1.6600072e-22)
(0.16321774 -0.055323998 0)
(0.18512505 -0.061920159 -1.7952248e-22)
(0.19960426 -0.068660939 -1.8457191e-22)
(0.19965033 -0.079026189 9.983165e-20)
(0.18748926 -0.086340455 -1.0223188e-19)
(0.17241702 -0.094286495 1.0524358e-22)
(0.16374702 -0.092745564 -1.6352646e-25)
(0.16352633 -0.094108047 -1.0897021e-22)
(0.16077211 -0.00015506055 0)
(0.15885278 0.0012536786 0)
(0.16158763 0.0019388477 -9.8597921e-22)
(0.16381911 0.0041951671 0)
(0.16599072 0.009136724 2.1320202e-21)
(0.16830744 0.011482803 -1.6716814e-21)
(0.17174463 0.010095113 5.7611251e-22)
(0.17664722 0.010978297 0)
(0.18191094 0.015158661 6.2267071e-22)
(0.18723781 0.015341657 0)
(0.19147674 0.013046646 -6.7179555e-22)
(0.1941383 0.011472508 -4.8636735e-21)
(0.19675749 0.0086777061 1.1590155e-20)
(0.19747324 0.0081630667 -5.9945538e-21)
(0.19560086 0.0075799498 0)
(0.19151801 0.0038733724 0)
(0.18431734 0.0012469528 -1.5025586e-24)
(0.17509582 -0.0036065184 -4.4446115e-22)
(0.16667308 -0.006250404 0)
(0.16123271 -0.0057783804 0)
(0.15642203 -0.0026731981 5.0453511e-22)
(0.1526124 -0.0005790028 1.6382019e-20)
(0.14849357 0.0054838231 -3.5328586e-20)
(0.14823315 0.0077191293 1.8417899e-20)
(0.1499073 0.0051164248 1.8591239e-20)
(0.15079886 0.0049012716 -1.9583958e-20)
(0.15781958 -0.0033093143 -2.0275078e-20)
(0.16168439 -0.0087077234 2.1152536e-20)
(0.15510217 -0.0036003968 -2.2158599e-20)
(0.15099534 -0.0023011502 4.5731354e-20)
(0.15804929 -0.012642038 -2.432326e-20)
(0.16620859 -0.021803648 1.9207254e-22)
(0.16157482 -0.01922759 4.0114293e-22)
(0.15137193 -0.014376507 4.2380263e-22)
(0.15071292 -0.018923788 0)
(0.15983457 -0.030474511 -2.8574084e-20)
(0.16528861 -0.035793463 5.9964001e-20)
(0.16024963 -0.030606761 -3.1051989e-20)
(0.15370445 -0.025139598 -2.5737928e-22)
(0.15415901 -0.029361061 -2.6602532e-22)
(0.16228017 -0.038981423 0)
(0.17244516 -0.04319879 -3.6864801e-20)
(0.17603134 -0.038046205 -1.480082e-22)
(0.17127479 -0.029863094 3.9370183e-20)
(0.16217993 -0.027814838 0)
(0.15267329 -0.036037438 0)
(0.14874314 -0.0491932 -4.5001869e-20)
(0.15718324 -0.057961658 4.73351e-20)
(0.17640811 -0.063509694 -2.5166248e-24)
(0.19678912 -0.065423116 9.9046296e-20)
(0.20913702 -0.07050857 -2.0716304e-19)
(0.20732193 -0.074338741 2.1072111e-19)
(0.19513505 -0.080959417 -1.0852741e-19)
(0.17764927 -0.083359864 -1.1644624e-22)
(0.1659504 -0.091069122 1.1835655e-22)
(0.16068879 -0.00018662746 4.8134822e-22)
(0.15864695 0.0015459219 -5.0050812e-22)
(0.16147361 0.0023799627 -2.0817202e-21)
(0.16330679 0.0029311795 2.1736598e-21)
(0.16513943 0.0067675454 2.8136041e-21)
(0.16796823 0.010363821 -5.86038e-21)
(0.17178033 0.010986084 1.8303598e-21)
(0.1760886 0.011054486 -6.3112045e-22)
(0.18130487 0.012064965 -6.5497392e-22)
(0.18719606 0.011992172 -5.4252291e-21)
(0.19158809 0.011815556 5.6773877e-21)
(0.19465654 0.011022015 0)
(0.19715976 0.0080302472 0)
(0.19759508 0.0079711842 -3.9508111e-22)
(0.19628537 0.0072906945 -4.1119204e-22)
(0.1930607 0.0041868582 6.9273023e-21)
(0.18626968 0.00099720398 -2.2071417e-20)
(0.17708406 -0.0025483802 1.5872521e-20)
(0.16804714 -0.0056338535 -1.5728051e-20)
(0.16164989 -0.0056052774 3.2691733e-20)
(0.15641385 -0.0026401868 -4.1084527e-22)
(0.15167053 -0.00013847968 -3.5277579e-20)
(0.14727038 0.0055459985 1.9000737e-20)
(0.14809483 0.0062529765 1.9080215e-20)
(0.15030153 0.0043216561 -1.9915786e-20)
(0.15181681 0.0037804498 0)
(0.15933208 -0.0040545198 -2.1450362e-20)
(0.16158173 -0.006826427 2.2276045e-20)
(0.15490572 -0.0013682623 3.6363291e-22)
(0.15325621 -0.002024379 3.774887e-22)
(0.1612947 -0.014142811 5.8773923e-22)
(0.1674759 -0.022890851 -2.0278984e-22)
(0.16147443 -0.018635068 -4.2324368e-22)
(0.15267734 -0.01335366 -2.2155498e-22)
(0.15430686 -0.018350791 0)
(0.16309115 -0.029398998 0)
(0.16542502 -0.033270461 -3.1839939e-20)
(0.15889796 -0.028191016 6.6159513e-20)
(0.15411277 -0.023369754 -3.3676651e-20)
(0.15712331 -0.028268046 -1.3932966e-22)
(0.1630849 -0.037626941 0)
(0.16804553 -0.040487421 0)
(0.1696235 -0.033106328 -4.0229854e-20)
(0.16823164 -0.023935751 4.2064142e-20)
(0.16812949 -0.021673104 -4.3265297e-20)
(0.16735362 -0.030192908 4.4942766e-20)
(0.16190262 -0.04401846 1.8410956e-22)
(0.15899299 -0.056412005 -4.9491101e-20)
(0.16685523 -0.063871666 5.1641242e-20)
(0.18421699 -0.065660209 0)
(0.20205165 -0.064639249 1.8235822e-24)
(0.21075049 -0.063182343 -5.7036731e-20)
(0.20938715 -0.06480544 1.15447e-19)
(0.19669371 -0.066330237 -1.2072004e-19)
(0.18155979 -0.073215763 6.3782192e-20)
(0.16061709 -6.6165951e-05 0)
(0.15835618 0.0020045504 1.054522e-21)
(0.16132663 0.0031747742 -1.3859627e-24)
(0.16293133 0.0035623627 -1.1451408e-21)
(0.164428 0.0064224179 1.6589001e-24)
(0.16729248 0.0091930841 6.1694632e-22)
(0.17146138 0.011411302 -1.2760789e-21)
(0.17596336 0.01249177 3.3348687e-21)
(0.18119888 0.011086489 0)
(0.18687901 0.0097107948 0)
(0.19132137 0.010980712 -5.2018927e-21)
(0.19480612 0.011528756 6.2036709e-21)
(0.19737117 0.009220023 0)
(0.1978605 0.0092128731 4.1617247e-22)
(0.19713191 0.0072761098 4.3391445e-22)
(0.19443666 0.0043027426 0)
(0.18775896 0.0010056984 -7.6220886e-21)
(0.17882742 -0.0015489274 -6.0217903e-22)
(0.16948837 -0.0046685529 8.7182558e-21)
(0.16188015 -0.0052657835 0)
(0.15603766 -0.0015611271 1.802162e-20)
(0.15088748 0.0018988924 -3.7494741e-20)
(0.1466825 0.0068443269 1.9033152e-20)
(0.14849143 0.0061723464 -2.044915e-20)
(0.15072562 0.0048846628 2.143317e-20)
(0.15264889 0.0044204378 0)
(0.16024964 -0.0024733164 0)
(0.16122329 -0.0034872693 0)
(0.15468767 0.0015285544 -3.8306174e-22)
(0.15574746 -0.00090985169 -3.9911585e-22)
(0.16483607 -0.013829825 -2.6474833e-20)
(0.16860392 -0.022229722 2.7434517e-20)
(0.16080358 -0.017504162 2.2305431e-22)
(0.1533866 -0.012148171 0)
(0.15721559 -0.017616462 0)
(0.16542683 -0.027435115 2.5266146e-22)
(0.16585299 -0.02979761 0)
(0.15808152 -0.023755505 -2.716889e-22)
(0.15427155 -0.01926354 -3.6433712e-20)
(0.16031684 -0.02453978 3.7927414e-20)
(0.16614921 -0.03454397 3.9498447e-20)
(0.16525404 -0.039020535 -4.0495361e-20)
(0.16220175 -0.032271463 4.2516168e-20)
(0.16156542 -0.022710295 -4.45693e-20)
(0.16788643 -0.019692501 -4.6044658e-20)
(0.17593156 -0.024666501 6.9826564e-23)
(0.1772535 -0.035990769 1.0019463e-19)
(0.17069596 -0.049904088 -5.1624483e-20)
(0.16733498 -0.061267213 0)
(0.17371342 -0.065392217 -5.5504594e-20)
(0.18656017 -0.063522914 1.1644386e-19)
(0.1995509 -0.057618081 -6.0991314e-20)
(0.2087223 -0.053767848 0)
(0.20444074 -0.048676239 -1.2399728e-22)
(0.19666673 -0.05179051 6.6630049e-20)
(0.16045465 0.00021350163 0)
(0.15806001 0.0021664766 0)
(0.16119731 0.0037879599 0)
(0.16265573 0.0048002868 1.8099987e-21)
(0.16400287 0.0067724743 -3.1412741e-21)
(0.16684516 0.0083318592 2.5974407e-21)
(0.17091203 0.010507195 -3.3948403e-21)
(0.17589112 0.012829924 -7.0385887e-22)
(0.18149211 0.011485091 -7.2848914e-22)
(0.18669991 0.0088452278 -6.7924269e-21)
(0.19084611 0.0097065938 5.519555e-21)
(0.1946234 0.010261223 0)
(0.19725939 0.0089489617 6.7967661e-21)
(0.19806183 0.009120254 -3.3121754e-24)
(0.1980385 0.0064901324 -1.509697e-20)
(0.19571949 0.0035872367 7.6461794e-21)
(0.18934691 5.9342811e-05 -4.9891821e-22)
(0.18067203 -0.0023458844 -5.2087109e-22)
(0.17116017 -0.0050672739 -1.1889819e-24)
(0.16233318 -0.0067932651 2.8381368e-22)
(0.15536169 -0.0025103567 2.9649328e-22)
(0.15006333 0.0020596989 3.083744e-22)
(0.14633349 0.0061977651 0)
(0.14837575 0.0042764392 0)
(0.15041771 0.0043674186 -2.2576231e-20)
(0.15305257 0.0041493509 2.3409767e-20)
(0.16096441 -0.0015946717 0)
(0.16102512 -0.0012519496 0)
(0.15485737 0.002682777 0)
(0.15809262 -0.0013123952 2.0895507e-22)
(0.16843597 -0.013931255 0)
(0.17022545 -0.021403764 2.9089859e-20)
(0.16048177 -0.016409483 -2.9862978e-20)
(0.1538142 -0.011337744 2.4600186e-22)
(0.15973918 -0.017386 -3.2618599e-20)
(0.16787876 -0.026754202 3.4076851e-20)
(0.16599859 -0.027937832 0)
(0.15679715 -0.020286235 3.6743942e-20)
(0.15378781 -0.015035261 -3.8077089e-20)
(0.16323033 -0.019677164 1.5459925e-22)
(0.17177454 -0.029907346 4.2150812e-20)
(0.16786335 -0.037097963 -4.2856817e-20)
(0.15823141 -0.034372495 0)
(0.15427476 -0.026186768 4.6984853e-20)
(0.1621156 -0.021393603 -4.920031e-20)
(0.17595964 -0.022307774 3.9560471e-22)
(0.18672664 -0.028175213 0)
(0.18599339 -0.039939148 5.5052196e-20)
(0.17889483 -0.053559647 -5.6531317e-20)
(0.17239487 -0.061655668 5.9105162e-20)
(0.17592403 -0.0624169 -6.0038828e-20)
(0.18274361 -0.057128608 -6.2209499e-20)
(0.19419272 -0.050227458 1.3310854e-19)
(0.20029276 -0.040934708 1.5144897e-22)
(0.1991517 -0.035100791 7.3720343e-22)
(0.16032118 0.00035951523 -5.6409305e-22)
(0.15774762 0.0018203751 -5.8574462e-22)
(0.16090321 0.0037763192 -1.2195771e-21)
(0.16235669 0.005671876 6.8802196e-25)
(0.1636924 0.007032527 1.3249088e-21)
(0.16649511 0.0081817195 2.7432929e-21)
(0.17037902 0.010102786 -2.8654079e-21)
(0.17561701 0.012347477 7.3928166e-22)
(0.1816385 0.012449347 3.8276585e-21)
(0.18685059 0.010039627 -8.7692822e-21)
(0.19068169 0.0098402821 4.4486029e-22)
(0.19439769 0.0090375078 6.9061161e-21)
(0.19708286 0.0082108315 4.4759744e-22)
(0.1981349 0.0085884449 0)
(0.19874941 0.0061167277 4.8169421e-22)
(0.19692309 0.0040520253 -5.042115e-22)
(0.19096165 0.00042652531 5.4351642e-25)
(0.18238515 -0.0022067157 1.0978626e-21)
(0.17286568 -0.0043603039 -5.7395405e-22)
(0.16294193 -0.0070416968 9.3402862e-21)
(0.15466406 -0.002746864 -2.0276338e-20)
(0.14923306 0.0027763544 1.0385355e-20)
(0.14614859 0.0058798232 0)
(0.14839905 0.0035168241 -1.1200116e-20)
(0.1501618 0.0049434979 1.1353655e-20)
(0.15336582 0.0043481677 -3.8054567e-22)
(0.16112616 -0.00024241201 -3.9431637e-22)
(0.16060218 0.00062941487 0)
(0.15509748 0.003140354 0)
(0.16007765 -0.0019179052 -2.2117995e-22)
(0.17141576 -0.013504516 0)
(0.1716496 -0.019191545 0)
(0.16031558 -0.013892131 -3.198968e-20)
(0.15449398 -0.0093950244 -2.3682205e-22)
(0.16189639 -0.01593673 6.8905903e-20)
(0.17014704 -0.025257314 -3.6444188e-20)
(0.16569419 -0.026286821 0)
(0.15473351 -0.017448884 1.5103736e-22)
(0.1522286 -0.011673376 -1.5793163e-22)
(0.16425721 -0.015215864 -1.6318931e-22)
(0.17683434 -0.024343484 -4.3908434e-20)
(0.17396268 -0.032519798 4.484032e-20)
(0.16007116 -0.033905206 0)
(0.1501795 -0.029623177 0)
(0.15505015 -0.024321014 -2.023823e-22)
(0.16977536 -0.022343955 -2.0717533e-22)
(0.18733479 -0.024193928 -5.4799059e-20)
(0.19709446 -0.030346974 5.7747211e-20)
(0.19436368 -0.041666195 6.0372671e-20)
(0.18376801 -0.052034261 -6.1922631e-20)
(0.17475281 -0.058006819 -1.2568052e-22)
(0.1724818 -0.057247654 6.5874964e-20)
(0.17705829 -0.051617161 -6.8962326e-20)
(0.18438125 -0.040543821 0)
(0.19058555 -0.030447838 -7.572098e-20)
(0.16020003 0.00039165581 8.9164445e-22)
(0.15750078 0.0011986241 -3.0900011e-22)
(0.16058321 0.003295546 6.4267058e-22)
(0.1621168 0.0057252396 6.7107034e-22)
(0.16343285 0.0062931498 2.7840961e-21)
(0.16622163 0.0080661463 -5.0767883e-21)
(0.17005723 0.010169771 3.019311e-21)
(0.17505909 0.011241596 0)
(0.18153496 0.012011456 3.633045e-21)
(0.18696423 0.010956648 -2.955278e-21)
(0.19071961 0.010515321 -8.7304251e-22)
(0.19447997 0.0082359976 0)
(0.19700743 0.0071420374 -9.4286932e-22)
(0.19825861 0.0072374021 4.8918852e-22)
(0.1990446 0.0051290794 -5.0875396e-22)
(0.19772861 0.0045501006 1.3578541e-25)
(0.19244657 0.0012955423 -8.3636977e-21)
(0.18396862 -0.0019330409 1.7926734e-20)
(0.1745576 -0.0041754781 -9.6020064e-21)
(0.16380148 -0.0068730736 0)
(0.15415879 -0.0031037206 -3.2906412e-22)
(0.1484126 0.0024981601 0)
(0.14584836 0.0046092349 -3.5512074e-22)
(0.14816791 0.002948156 0)
(0.14951677 0.0054433195 -5.0003846e-25)
(0.15330424 0.0042876629 4.0113638e-22)
(0.16112003 0.00050479001 4.1537804e-22)
(0.16065193 0.0017317793 1.3842262e-20)
(0.15584877 0.002887154 1.0503685e-23)
(0.16176104 -0.0029349322 -1.4950593e-20)
(0.17358987 -0.013146514 3.1014749e-20)
(0.17291526 -0.016868683 -6.4304246e-20)
(0.16030871 -0.011250304 3.3329975e-20)
(0.15505458 -0.0073449362 -2.7301265e-22)
(0.16426726 -0.014203238 -2.8205285e-22)
(0.17288253 -0.023780683 2.9580791e-22)
(0.16630542 -0.025215788 0)
(0.15346101 -0.016656986 1.6010753e-22)
(0.150023 -0.010419685 1.6609169e-22)
(0.16363529 -0.012589464 0)
(0.18019543 -0.019970313 -3.5946431e-22)
(0.18148383 -0.026685164 0)
(0.1668072 -0.02926107 1.9153778e-22)
(0.15097288 -0.029778781 -5.2453488e-20)
(0.14907949 -0.027345511 5.3858637e-20)
(0.16188 -0.023895135 0)
(0.18146388 -0.022833309 -1.1495532e-22)
(0.1990642 -0.025145745 0)
(0.2054969 -0.03063941 6.3166572e-20)
(0.19950658 -0.040322382 -6.4859828e-20)
(0.18639125 -0.04919391 1.3499416e-22)
(0.1747437 -0.053557506 0)
(0.16881055 -0.052925929 -7.2501319e-23)
(0.16857269 -0.043496929 0)
(0.17571556 -0.034731181 7.7628014e-23)
(0.16015461 0.00020480257 -3.1331416e-22)
(0.1572889 0.00037445681 9.7703512e-22)
(0.16022795 0.0024855198 -6.7785501e-22)
(0.16189534 0.0052937775 1.4127988e-21)
(0.16319717 0.0052308659 -2.2076239e-21)
(0.16572252 0.0078508569 1.0108175e-24)
(0.1697084 0.010672717 -3.1647551e-21)
(0.17484891 0.010720492 3.3012282e-21)
(0.18122022 0.010623098 2.973348e-21)
(0.18683817 0.010924436 -7.5438445e-21)
(0.19080696 0.011212388 4.8220481e-22)
(0.19485828 0.0085266391 3.8339374e-21)
(0.1971957 0.0072560687 -7.45448e-21)
(0.1984187 0.0066444651 7.7560086e-21)
(0.19909019 0.0046165519 5.3420998e-22)
(0.19808837 0.0048981078 -8.3526225e-21)
(0.19385346 0.0023047743 9.2781899e-21)
(0.18550033 -0.0013435663 0)
(0.17620824 -0.0039504544 1.0552455e-20)
(0.164839 -0.005714646 -2.1259768e-20)
(0.15390418 -0.0028544262 -1.2596843e-22)
(0.14785848 0.0021395215 1.1166607e-20)
(0.14572111 0.0034518641 1.2691397e-20)
(0.14763027 0.0030536745 -2.4428611e-20)
(0.14896198 0.0061871437 1.3346232e-20)
(0.15344952 0.0043450587 -2.1151304e-22)
(0.16106857 0.0008984866 2.187647e-22)
(0.16085432 0.0021872053 1.4338361e-20)
(0.15675811 0.0021562722 -1.5158025e-20)
(0.16299786 -0.0041292293 2.4429927e-22)
(0.17491103 -0.012596096 0)
(0.17355885 -0.014152844 1.7070768e-20)
(0.16024686 -0.0083621872 3.4291362e-22)
(0.15499835 -0.0052767395 -1.8163166e-20)
(0.16563402 -0.01166813 4.460185e-22)
(0.17535253 -0.021466502 -1.9920063e-20)
(0.16770263 -0.023035915 2.0434071e-20)
(0.15230776 -0.016351665 -1.6947417e-22)
(0.14769578 -0.010808411 1.7598044e-22)
(0.16120572 -0.011958392 0)
(0.18006389 -0.017973378 -4.8223232e-20)
(0.18591368 -0.021770977 4.9589414e-20)
(0.17480807 -0.022698881 -1.029759e-22)
(0.15733013 -0.02537414 -5.5623093e-20)
(0.14826076 -0.027017135 5.6050441e-20)
(0.15506399 -0.025251856 1.1506918e-22)
(0.17270072 -0.023731135 1.1910074e-22)
(0.19395088 -0.023027104 6.3083775e-20)
(0.20927489 -0.024209248 -6.6309888e-20)
(0.21213556 -0.029238888 -2.616077e-22)
(0.20339335 -0.038092659 0)
(0.18826273 -0.044931849 0)
(0.17273699 -0.04841534 8.5473903e-25)
(0.16208001 -0.044641254 0)
(0.16271622 -0.040020454 -8.1478996e-23)
(0.16016908 -7.2650358e-05 -6.5968713e-22)
(0.15714638 -0.00025700829 -6.8573931e-22)
(0.15991409 0.0016498316 2.8540582e-21)
(0.16168388 0.0043838421 -1.4910082e-21)
(0.16301591 0.0041550652 1.5469828e-21)
(0.1651506 0.0072363621 -2.4179353e-21)
(0.16930663 0.010621823 -3.3327538e-21)
(0.17475821 0.010287792 3.4787821e-21)
(0.18101771 0.0087954447 3.5841548e-21)
(0.18651934 0.0095261961 -7.0107566e-21)
(0.1908514 0.010625513 3.4098614e-21)
(0.19510139 0.0088681291 0)
(0.19741539 0.008168337 5.2311685e-22)
(0.19863232 0.0066925477 0)
(0.19921287 0.0044909915 0)
(0.19836395 0.0046941081 9.0923867e-21)
(0.19485964 0.0026856901 -9.790184e-21)
(0.18684306 -0.0012515875 -3.197492e-22)
(0.17763214 -0.0041001673 -1.0522805e-24)
(0.16590918 -0.0044826664 0)
(0.15393119 -0.0025496381 1.2086672e-20)
(0.14772146 0.0013360146 -1.1377108e-20)
(0.14548557 0.0026533164 -4.6418147e-25)
(0.14681777 0.0037863553 1.250617e-20)
(0.1484315 0.0068712623 -2.7283315e-20)
(0.15352852 0.0042736666 1.3779957e-20)
(0.16105297 0.0012333732 -1.4997766e-20)
(0.16121294 0.0023415153 1.4564397e-22)
(0.15777605 0.0019236995 1.5961813e-20)
(0.16397961 -0.0048684337 1.5777508e-20)
(0.17559982 -0.012080855 -1.708893e-20)
(0.17384103 -0.011481658 0)
(0.16044461 -0.0055239569 -2.9050015e-22)
(0.15481138 -0.0036177901 5.5415751e-26)
(0.1664903 -0.0097151045 -1.5664454e-22)
(0.17750885 -0.019155944 2.0999587e-20)
(0.16996286 -0.020292279 5.280762e-22)
(0.1527391 -0.015844666 -2.2559036e-20)
(0.14546373 -0.011878485 2.3065386e-20)
(0.15796294 -0.013074699 -4.8973094e-20)
(0.1778423 -0.018323414 7.5219585e-22)
(0.187392 -0.018850283 5.2195053e-20)
(0.18096475 -0.016534574 -2.7060555e-20)
(0.16580795 -0.01807724 -1.1388908e-22)
(0.1519357 -0.022752245 -3.0278643e-20)
(0.15096141 -0.024793155 3.0807151e-20)
(0.16415059 -0.025004963 0)
(0.18486992 -0.023878571 -3.3340681e-20)
(0.20507 -0.022590206 3.5094836e-20)
(0.21652032 -0.023622169 2.8098262e-22)
(0.21593023 -0.02852431 0)
(0.20441986 -0.033813678 -7.7584427e-20)
(0.18604104 -0.039033816 -2.4544835e-21)
(0.16721057 -0.039480137 8.4582575e-20)
(0.15961584 -0.040310741 8.6871319e-23)
(0.16023226 -0.00035034465 9.2299569e-26)
(0.15702987 -0.00055829842 -1.4459568e-21)
(0.15963668 0.00093029816 0)
(0.16146992 0.003410957 7.847935e-22)
(0.16277814 0.0035089159 1.2242511e-21)
(0.16460667 0.0065311412 1.266503e-21)
(0.16886097 0.0098024592 -5.2754886e-21)
(0.17476308 0.009871745 -4.2331225e-22)
(0.18100099 0.0075118629 -4.4225135e-22)
(0.18621303 0.0078536193 7.3819128e-21)
(0.19068321 0.0091290637 -3.5934652e-21)
(0.19503554 0.0088997601 -4.2408898e-21)
(0.19747104 0.009022501 3.3090651e-21)
(0.19899097 0.0071156328 0)
(0.19955117 0.0047253454 0)
(0.19878789 0.0041859032 -9.9390613e-21)
(0.1957907 0.0024918952 -6.8431859e-23)
(0.18819612 -0.0011691919 1.1072305e-20)
(0.17887514 -0.0042486563 -3.52376e-22)
(0.16677123 -0.003325789 1.1884887e-20)
(0.15437 -0.0020756126 -1.2184227e-20)
(0.14766794 0.00025068315 -4.0080957e-22)
(0.14511147 0.0022162753 -2.0879469e-22)
(0.14606891 0.0047695027 -1.3893646e-20)
(0.14811079 0.0071382836 1.4370457e-20)
(0.15355972 0.003716521 2.3352709e-22)
(0.16088605 0.0013233247 0)
(0.16139282 0.0021799124 0)
(0.15868262 0.0018217596 0)
(0.164521 -0.0053597532 5.4210092e-22)
(0.17542291 -0.011532463 -2.8252409e-22)
(0.17388576 -0.0089072017 0)
(0.16110377 -0.0030773237 1.5276815e-22)
(0.15511577 -0.0025417564 3.1912133e-22)
(0.16699266 -0.0092091245 0)
(0.17892333 -0.017397446 2.1735014e-20)
(0.17252705 -0.016953082 -2.2233991e-20)
(0.15494063 -0.013732275 0)
(0.14441912 -0.012273061 1.9436938e-22)
(0.15483194 -0.014921267 2.0122323e-22)
(0.17395185 -0.019979016 0)
(0.18518691 -0.017949621 0)
(0.18311407 -0.012265559 2.9188665e-20)
(0.17347774 -0.010387554 -3.0113239e-20)
(0.15946443 -0.014722499 0)
(0.15188818 -0.021458385 0)
(0.1584947 -0.025367767 -1.3414221e-22)
(0.17524652 -0.02573956 1.3778767e-22)
(0.19663948 -0.023658721 0)
(0.21338331 -0.021876137 -3.7796509e-20)
(0.22046442 -0.022434961 3.8549818e-20)
(0.21532763 -0.023769754 -7.7214883e-23)
(0.20088674 -0.026810814 4.2659437e-20)
(0.17973092 -0.029557122 -9.0313204e-20)
(0.16554396 -0.033747878 4.6493027e-20)
(0.16031043 -0.00053412537 1.4636284e-21)
(0.15695135 -0.00063938509 -2.9148413e-25)
(0.15941123 0.00037131181 7.9232511e-22)