/*--------------------------------*- C++ -*----------------------------------*\
| =========                 |                                                 |
| \\      /  F ield         | OpenFOAM: The Open Source CFD Toolbox           |
|  \\    /   O peration     | Version:  2406                                  |
|   \\  /    A nd           | Website:  www.openfoam.com                      |
|    \\/     M anipulation  |                                                 |
\*---------------------------------------------------------------------------*/
FoamFile
{
    version     2.0;
    format      ascii;
    arch        "LSB;label=32;scalar=64";
    class       volVectorField;
    location    "5";
    object      U;
}
// * * * * * * * * * * * * * * * * * * * * * * * * * * * * * * * * * * * * * //

dimensions      [0 1 -1 0 0 0 0];

internalField   nonuniform List<vector> 
20580
(
(0.14238716 -0.00065405809 -2.1705659e-22)
(0.14271225 -0.00032904543 8.1170951e-20)
(0.1449237 4.9613447e-05 -1.2332975e-22)
(0.14673434 0.0023133496 5.1779586e-21)
(0.14872103 0.0044410585 6.4990615e-23)
(0.1519717 0.0045395709 6.4392945e-21)
(0.15568882 0.0044413694 5.9938337e-20)
(0.15930778 0.0039575345 9.1005954e-21)
(0.1618189 0.0029557636 -1.0595511e-20)
(0.16402138 0.001053309 0)
(0.16406219 -0.0021312727 -4.1985731e-21)
(0.16271723 -0.0038261975 -1.3901091e-19)
(0.16061778 -0.0059048243 -1.3352534e-20)
(0.15723131 -0.010053356 7.4729665e-21)
(0.15235004 -0.013986542 4.0956455e-20)
(0.147491 -0.016746772 3.8238152e-20)
(0.1442191 -0.020852676 -2.3894873e-20)
(0.14173111 -0.023587674 2.9986427e-21)
(0.14097243 -0.025650548 -9.3565025e-21)
(0.14183812 -0.026384594 1.1530989e-20)
(0.14354452 -0.028690247 3.5535638e-22)
(0.14473396 -0.03190882 1.1945856e-20)
(0.14556046 -0.033732352 3.3365262e-21)
(0.14665631 -0.036462249 -5.0449882e-21)
(0.14844371 -0.039988244 1.126662e-20)
(0.15056404 -0.044574758 -5.3227421e-21)
(0.15265555 -0.04963591 2.8683024e-21)
(0.15433559 -0.053942081 -4.8803816e-22)
(0.15717173 -0.057827563 2.1687856e-20)
(0.15869826 -0.061673847 -1.9555656e-20)
(0.16243855 -0.071123969 -7.8758265e-22)
(0.14251656 -0.00067031427 0)
(0.1428632 -0.00057634584 1.1813045e-19)
(0.14465338 0.00052857042 -4.4554813e-20)
(0.14633229 0.002961643 5.1540492e-21)
(0.14881407 0.0043045115 -2.8731785e-20)
(0.15203388 0.0045204845 1.9538923e-21)
(0.15570777 0.0043282176 5.958684e-20)
(0.1593347 0.0039229549 4.2676424e-21)
(0.16233894 0.0023770068 -1.7773808e-20)
(0.16403672 0.0014535529 -8.3876388e-21)
(0.16433836 -0.0013780281 1.8730466e-21)
(0.16334153 -0.003575302 -2.247302e-20)
(0.16141943 -0.0056702823 -2.6477882e-20)
(0.15808482 -0.0088044226 -1.256856e-21)
(0.1536631 -0.013190598 -2.8440088e-20)
(0.14939382 -0.01725964 -3.4710937e-21)
(0.14556721 -0.020476594 -1.5739205e-20)
(0.14249241 -0.022352988 1.0094075e-20)
(0.14154339 -0.024682603 0)
(0.14235601 -0.025683549 1.1638084e-20)
(0.14430096 -0.027696281 0)
(0.14523253 -0.029974463 3.52521e-20)
(0.14610639 -0.031469114 -3.9972794e-20)
(0.14739445 -0.033649882 8.4800286e-23)
(0.14951589 -0.03689374 1.1864942e-20)
(0.15217563 -0.041251046 7.5913872e-22)
(0.1543655 -0.04609375 5.9726338e-21)
(0.15544434 -0.048653185 2.5650429e-21)
(0.1574831 -0.052265765 -2.2430268e-20)
(0.16113456 -0.054973838 3.6086379e-21)
(0.16513823 -0.064987689 2.6196813e-20)
(0.14261275 -0.00058861855 0)
(0.14293232 -0.0010276816 0)
(0.14463215 0.00083425717 1.3663696e-19)
(0.14633177 0.0034610703 -2.2539477e-20)
(0.14887224 0.0039567293 -2.3409455e-20)
(0.15201097 0.0045523759 1.2357925e-21)
(0.15563205 0.0043046805 7.9629616e-21)
(0.15936638 0.0036376737 1.2325243e-20)
(0.16244151 0.0019812592 0)
(0.16431663 0.0011094259 -7.6161464e-20)
(0.16481033 -0.00053681854 -5.2618448e-21)
(0.16401819 -0.0033223979 1.6073292e-20)
(0.16227638 -0.0059049791 0)
(0.15930596 -0.0079077892 3.3060915e-21)
(0.15524193 -0.011972013 -2.5980575e-21)
(0.15088163 -0.016990437 -1.0849747e-20)
(0.14662652 -0.019833678 7.6826649e-21)
(0.14341317 -0.021356434 3.0555108e-21)
(0.14224085 -0.023821264 -1.0791645e-20)
(0.14286628 -0.025619248 0)
(0.14484323 -0.02743209 0)
(0.14567531 -0.028844938 -2.526164e-20)
(0.14641818 -0.029935714 5.4192214e-20)
(0.148074 -0.031626912 2.3804865e-20)
(0.15047313 -0.034618576 -3.8370563e-21)
(0.15353313 -0.03804088 7.4426108e-22)
(0.15517491 -0.041656404 -2.4706496e-20)
(0.15626187 -0.043172232 -3.1046735e-21)
(0.15813133 -0.046620548 1.1794444e-22)
(0.16258064 -0.050064537 4.1721356e-21)
(0.16716326 -0.058131441 3.5806177e-21)
(0.14273186 -0.00052933917 0)
(0.14301684 -0.0015093465 2.3007299e-23)
(0.14457462 0.00061351749 1.5664454e-21)
(0.14638719 0.0031971139 -8.943297e-22)
(0.14888051 0.0036265449 -2.4616471e-21)
(0.15188967 0.0046535761 4.3189954e-21)
(0.15551229 0.0043652769 8.2505969e-20)
(0.15933788 0.0032124804 0)
(0.16241171 0.001840125 -9.1978579e-22)
(0.16438243 0.00043100239 3.0687257e-20)
(0.16507172 -0.00013344914 -6.3274616e-20)
(0.16459315 -0.0030790244 -6.9071023e-21)
(0.162872 -0.0061162831 -1.374267e-21)
(0.16011263 -0.0074369647 4.7254423e-20)
(0.15659397 -0.010732471 2.3315307e-20)
(0.15224161 -0.015684425 -5.043509e-21)
(0.14755692 -0.018661019 -3.8617229e-20)
(0.14424423 -0.020444728 -7.8792654e-22)
(0.14304575 -0.022725698 2.1031211e-22)
(0.14343455 -0.025242957 -1.5613458e-21)
(0.14519549 -0.027102937 9.4662163e-22)
(0.14597547 -0.027852247 -1.1577461e-20)
(0.14668008 -0.028782563 -7.262997e-22)
(0.14868786 -0.030512468 3.0623361e-20)
(0.15103342 -0.033414215 0)
(0.1541348 -0.035448328 4.31749e-22)
(0.15542088 -0.037042256 1.2142108e-20)
(0.15635355 -0.038739618 2.8574325e-20)
(0.15883037 -0.041964042 2.5228485e-20)
(0.16361216 -0.045855312 9.7158134e-22)
(0.16768055 -0.052677333 1.6638332e-20)
(0.14284063 -0.00048922149 0)
(0.1430789 -0.0018515278 -1.2524551e-19)
(0.14457892 -1.1576691e-07 7.645438e-20)
(0.14650321 0.0022577003 5.1397673e-20)
(0.14886169 0.0034097427 -6.0694472e-23)
(0.15171978 0.0046248217 1.2301568e-20)
(0.15539228 0.0043353179 0)
(0.1592733 0.0029154789 -8.3493536e-21)
(0.1623918 0.0019173559 -1.4436043e-21)
(0.16436286 3.5989634e-05 5.0914956e-20)
(0.16524413 -0.00046423274 -6.4998527e-20)
(0.16512693 -0.0028666072 7.4331597e-23)
(0.16335164 -0.0058515768 2.8301527e-20)
(0.16071006 -0.0074748875 -5.2881828e-20)
(0.15769849 -0.010176145 4.1978546e-20)
(0.15340953 -0.013947139 1.3729363e-20)
(0.14843271 -0.017009003 -2.1162027e-20)
(0.14496371 -0.019812882 3.5468324e-20)
(0.14371165 -0.021682044 3.0697782e-21)
(0.14397635 -0.024373096 0)
(0.14542286 -0.026232038 5.4705324e-22)
(0.14608268 -0.026188492 -3.1373279e-21)
(0.1469186 -0.026851272 -1.9143898e-20)
(0.14929148 -0.028489151 -2.2540047e-21)
(0.15135151 -0.031636488 0)
(0.15405029 -0.032822513 -7.9292858e-20)
(0.15569193 -0.032502461 1.6277683e-20)
(0.15690551 -0.035142893 -8.9505504e-21)
(0.1594435 -0.039119259 2.3834313e-20)
(0.16457052 -0.042150723 -8.298124e-21)
(0.16841074 -0.047613821 -9.854898e-21)
(0.14298089 -0.00046350456 1.9709895e-19)
(0.14316492 -0.0018402055 -1.2444842e-21)
(0.14467313 -0.00059357961 2.2667304e-23)
(0.14663545 0.0011670085 -3.9455845e-20)
(0.14883765 0.0033596156 -3.4125066e-20)
(0.15162631 0.0043339029 -1.3522439e-22)
(0.15535149 0.0040610358 -4.0910916e-20)
(0.15923118 0.0029633469 6.001544e-22)
(0.16242925 0.0020931982 1.3816569e-21)
(0.16440289 0.00033506508 -5.2848164e-20)
(0.16546069 -0.0011172458 -5.3084569e-20)
(0.1655917 -0.0026647551 -2.1749546e-20)
(0.16388793 -0.004928796 1.7117169e-20)
(0.16137139 -0.0075282273 -3.6188379e-20)
(0.15859511 -0.010079725 5.0412277e-20)
(0.15448079 -0.012719633 2.9636559e-21)
(0.14958409 -0.01569899 -1.5807579e-20)
(0.14579606 -0.019420909 2.9506952e-20)
(0.14426908 -0.021009843 2.3216432e-21)
(0.14440631 -0.023534903 0)
(0.14536833 -0.024899211 -2.3762372e-22)
(0.14583474 -0.024225385 9.5146897e-20)
(0.14692351 -0.024840587 2.3736584e-20)
(0.14978414 -0.02591124 0)
(0.15170564 -0.028649133 -9.0127831e-21)
(0.15344154 -0.030031763 6.2336356e-20)
(0.15576568 -0.02883858 -2.2196438e-20)
(0.15828053 -0.031398582 6.783652e-20)
(0.16058263 -0.036451687 1.1650636e-20)
(0.16479832 -0.039028892 1.1728278e-21)
(0.1683306 -0.042034276 -1.5488491e-20)
(0.14312355 -0.0004321886 -3.0981891e-21)
(0.14328982 -0.0014263291 -4.4608716e-20)
(0.14477968 -0.00084772534 1.7407808e-22)
(0.14666445 0.0005287101 1.0032429e-19)
(0.14874146 0.003431332 1.5823969e-20)
(0.15162361 0.0038710391 -3.1802576e-20)
(0.15537164 0.0035201321 1.0717743e-20)
(0.15917829 0.003195825 1.7318175e-22)
(0.16245366 0.0023601564 -1.4666436e-21)
(0.16454788 0.0011153217 -2.193515e-21)
(0.16572157 -0.0014167012 -4.2557088e-22)
(0.16589257 -0.002411332 -1.4021859e-21)
(0.16450896 -0.0037759436 -1.3633907e-20)
(0.16222009 -0.007087631 -1.2628883e-22)
(0.15948933 -0.010079287 -3.7826088e-20)
(0.15552693 -0.012325584 1.097089e-20)
(0.1509179 -0.014821334 -4.3972821e-22)
(0.14681438 -0.018684187 -5.5909951e-20)
(0.14489568 -0.020795637 0)
(0.14472606 -0.02284948 -2.0620406e-21)
(0.14512032 -0.023555593 1.8078477e-21)
(0.14560214 -0.022965551 4.5171271e-20)
(0.14670133 -0.023884445 9.0004794e-22)
(0.14967734 -0.024318076 4.2958112e-21)
(0.15202948 -0.02558316 6.5934128e-21)
(0.15287559 -0.027247505 8.5204741e-22)
(0.15532048 -0.026611469 1.9668421e-20)
(0.15931628 -0.028378025 -8.9547469e-22)
(0.16211556 -0.032834057 5.0536953e-20)
(0.16472453 -0.035326657 1.6719575e-20)
(0.16714418 -0.036823886 3.8599047e-21)
(0.14325336 -0.00042582097 8.5117533e-19)
(0.1434046 -0.00058248208 0)
(0.14485494 -0.00067105917 2.82072e-21)
(0.14659852 0.00063222235 -5.8188394e-21)
(0.1486662 0.0034376656 -8.7045147e-20)
(0.15165558 0.0034474109 -1.0938227e-21)
(0.15531531 0.0030401812 -3.4946455e-20)
(0.15907354 0.0032846358 2.0437322e-21)
(0.16245309 0.0025717456 -5.9903632e-21)
(0.16478386 0.0016610935 -4.926405e-20)
(0.16600104 -0.0010802243 -8.9306869e-21)
(0.16612433 -0.0021565 -8.4245735e-22)
(0.16513905 -0.0030060848 -1.3569997e-20)
(0.16320617 -0.0063588687 1.5435196e-20)
(0.16046275 -0.0096493585 1.303602e-20)
(0.15652894 -0.01194618 5.1449354e-20)
(0.15224673 -0.014080407 6.6599591e-20)
(0.14809133 -0.017492514 -3.6951782e-20)
(0.14568293 -0.020474072 3.3336346e-22)
(0.14495056 -0.022154539 -2.4230526e-22)
(0.14490808 -0.022517446 -2.986423e-21)
(0.14554293 -0.021955212 3.8632187e-22)
(0.1464293 -0.023232965 0)
(0.1491451 -0.024111512 2.5342997e-21)
(0.15199286 -0.024075601 1.3557337e-20)
(0.15266505 -0.024761166 -1.2442367e-20)
(0.15473444 -0.02512816 1.9735604e-20)
(0.15952899 -0.026760703 5.04888e-20)
(0.1630309 -0.029198018 5.4001206e-21)
(0.16484727 -0.031008693 -3.6734007e-20)
(0.16577791 -0.032398033 -5.9148054e-20)
(0.14332891 -0.00048235846 -3.4386637e-19)
(0.14344734 0.00042671872 -7.3511036e-24)
(0.14498311 -0.00011168669 3.7957379e-20)
(0.1465716 0.0012759823 7.6084338e-20)
(0.14869928 0.0032568279 -2.2743404e-21)
(0.15167319 0.0031606727 -1.7972077e-21)
(0.15516107 0.0029398611 8.4449682e-20)
(0.15894175 0.0030495449 7.2100653e-23)
(0.16243451 0.0024571303 -1.1889277e-20)
(0.1649958 0.0016509641 9.5348739e-21)
(0.16626551 -0.00056665759 -4.8249113e-20)
(0.16636296 -0.0018847599 0)
(0.16567411 -0.002949877 2.2536996e-21)
(0.16408728 -0.0056624217 -4.0877055e-21)
(0.16140445 -0.0086431007 -1.5124126e-20)
(0.15749186 -0.011028455 -2.7394731e-20)
(0.15340321 -0.013278482 1.3568424e-20)
(0.14936652 -0.015875493 5.8760438e-20)
(0.14661939 -0.019337094 2.9178443e-20)
(0.14525657 -0.020955755 6.2329053e-21)
(0.14466286 -0.021421513 -7.8247654e-21)
(0.14544077 -0.020525471 -5.0383075e-22)
(0.14656605 -0.021905099 -5.8427177e-22)
(0.14872326 -0.023856497 1.4751945e-21)
(0.1513719 -0.023190828 -7.0698229e-22)
(0.15230682 -0.02233616 2.599985e-20)
(0.15436743 -0.023330361 -2.7154633e-20)
(0.15909785 -0.024874316 3.6699055e-20)
(0.16292416 -0.025667244 2.0463483e-20)
(0.16488873 -0.025748233 -3.0130283e-21)
(0.16536947 -0.027749953 4.7089353e-20)
(0.14338525 -0.0005203087 -7.3613186e-19)
(0.14345525 0.0010903213 -1.4368034e-22)
(0.14503047 0.0005687614 -1.1042674e-19)
(0.14651601 0.0019160969 -1.6928554e-19)
(0.14873572 0.0028553853 8.1524068e-23)
(0.15162283 0.0029755163 0)
(0.15503658 0.0031582718 1.1539061e-20)
(0.15887016 0.0027005778 4.2211409e-21)
(0.16240232 0.0020302836 9.220279e-21)
(0.1651344 0.0012311472 -3.4796607e-21)
(0.16651652 -0.00026155047 -2.9644315e-23)
(0.16665633 -0.0016874902 1.9672223e-22)
(0.16615452 -0.0034790526 0)
(0.16479595 -0.0052655725 3.0882202e-20)
(0.16227192 -0.0072950399 -6.8322013e-21)
(0.15843095 -0.0095653382 5.0912096e-21)
(0.15443996 -0.012241592 6.9182898e-20)
(0.15056006 -0.014347755 5.3262386e-20)
(0.14761274 -0.017533338 4.652634e-20)
(0.14570166 -0.019054211 -3.230013e-21)
(0.14447857 -0.020433339 -1.875617e-20)
(0.14522272 -0.0191826 -3.2615307e-20)
(0.14690462 -0.02009304 -1.6195891e-21)
(0.14845035 -0.022165591 -9.9089724e-21)
(0.15044301 -0.021135317 9.1992901e-20)
(0.15167311 -0.019396486 -2.3822038e-21)
(0.15415333 -0.021339059 -5.3882489e-24)
(0.15804787 -0.022415599 1.2252426e-20)
(0.16181442 -0.021951607 7.3945362e-20)
(0.16430782 -0.019993128 3.2991469e-20)
(0.16597441 -0.021608473 -3.4576721e-20)
(0.14341771 -0.00043036724 2.3374062e-20)
(0.1434989 0.00089226539 -1.9075977e-22)
(0.14506283 0.00086859535 -1.3357743e-20)
(0.14656022 0.0021418001 7.1920513e-22)
(0.1487639 0.0024046016 4.7290689e-22)
(0.15156963 0.0028564321 3.7933812e-20)
(0.15497661 0.0032907924 -2.9384035e-20)
(0.15886011 0.0024415974 4.8488283e-22)
(0.16241172 0.0016174026 1.9910515e-21)
(0.16523342 0.00043230052 1.0448059e-20)
(0.16668412 -1.3745935e-05 -2.0197239e-20)
(0.16701398 -0.0016018847 -3.4621493e-21)
(0.16662203 -0.0038594348 0)
(0.16526502 -0.0050261362 -2.7016042e-21)
(0.16296225 -0.0059638212 -5.1642486e-20)
(0.15944677 -0.0080688564 -4.1495705e-22)
(0.15552936 -0.011313454 6.2512023e-21)
(0.15165632 -0.013251464 -7.3929015e-22)
(0.14858271 -0.015952227 -6.1435697e-21)
(0.14656849 -0.017646266 1.5511837e-22)
(0.14452477 -0.01952713 2.2198452e-20)
(0.14478713 -0.018347718 -3.7632783e-20)
(0.14701299 -0.018759471 7.7155517e-22)
(0.1481419 -0.020069461 7.5775555e-21)
(0.14929219 -0.018449968 3.5001311e-20)
(0.1512333 -0.016153086 -4.0658436e-22)
(0.15409517 -0.018966918 -9.3505578e-22)
(0.15688352 -0.020075556 -3.3465414e-20)
(0.15992491 -0.019072354 -2.5112406e-21)
(0.162626 -0.016064643 -5.6618854e-20)
(0.16593608 -0.016501435 -4.3500957e-21)
(0.14346887 -8.4801699e-05 -2.6238163e-19)
(0.14361662 -0.00019501023 0)
(0.14513844 0.00042081332 -1.664269e-20)
(0.14667576 0.0018504511 -9.0615007e-20)
(0.14881066 0.0020640578 -7.0245197e-20)
(0.15149386 0.0027150295 1.1975117e-20)
(0.15489886 0.0030290856 -2.0563491e-21)
(0.15883096 0.0022077211 -2.770572e-22)
(0.16245321 0.0013924237 1.0067766e-20)
(0.16525869 -0.00020266483 1.9735845e-20)
(0.16676053 7.3534356e-05 3.0409839e-20)
(0.16739554 -0.0012626341 -8.7800063e-24)
(0.16702671 -0.0034719686 -4.0038533e-20)
(0.16559378 -0.0046152999 0)
(0.16350151 -0.0052276863 -7.1333644e-20)
(0.16053086 -0.0071847028 -4.7344765e-20)
(0.15663866 -0.010451246 -2.3163724e-20)
(0.1527197 -0.012396795 9.716147e-21)
(0.14958588 -0.015335108 7.2293365e-22)
(0.1475054 -0.016811414 -4.7356173e-22)
(0.14480157 -0.017866223 -6.9390326e-21)
(0.14441526 -0.017650703 4.3938283e-22)
(0.14692108 -0.018248448 5.4221907e-21)
(0.14773739 -0.018800875 2.7368991e-20)
(0.14781332 -0.017013419 -8.0373252e-20)
(0.15065709 -0.014266114 3.2668185e-20)
(0.15431203 -0.016106514 -4.9042435e-21)
(0.15621074 -0.017233161 1.041656e-21)
(0.15807915 -0.016859714 -9.7524179e-20)
(0.16072613 -0.014442229 2.682571e-20)
(0.1650815 -0.015183386 -1.4401988e-20)
(0.14349738 0.00044458889 1.5017608e-19)
(0.14370225 -0.0016254187 -1.1737055e-19)
(0.14515657 -0.00061845222 9.2384601e-24)
(0.14667286 0.0011617676 -2.6405044e-21)
(0.14878341 0.0018231668 -7.2710045e-22)
(0.15136585 0.0025634347 -2.4177266e-21)
(0.15483994 0.0025688003 7.3672579e-20)
(0.1587958 0.0020478688 -3.249766e-22)
(0.16249638 0.0012839136 2.3982782e-21)
(0.16522874 -9.2682271e-06 -2.6461983e-20)
(0.16676794 -3.1802763e-05 -1.889242e-22)
(0.16768774 -0.00085489754 -3.3600138e-21)
(0.16739762 -0.0026104423 6.7078666e-23)
(0.16590978 -0.0038811016 -1.9223125e-21)
(0.16402489 -0.0049979842 0)
(0.16148891 -0.0068740606 0)
(0.15770708 -0.0093532807 1.2064104e-20)
(0.15391315 -0.011495343 -6.8586753e-21)
(0.15057011 -0.014674455 -4.1945472e-20)
(0.14811141 -0.01600787 7.6034004e-21)
(0.14521718 -0.01587871 -7.3883982e-21)
(0.14441132 -0.016892614 1.6678368e-20)
(0.14681804 -0.017763406 0)
(0.1473045 -0.017131572 0)
(0.14643329 -0.015772367 0)
(0.14944083 -0.014354222 -2.9174274e-20)
(0.15390171 -0.013897371 -1.5823432e-22)
(0.15591899 -0.013731378 3.6642532e-21)
(0.15696124 -0.014179164 -4.6500271e-21)
(0.15944592 -0.013194396 -3.3952452e-21)
(0.16448731 -0.015137362 6.886908e-21)
(0.14354467 0.00089468384 6.5023686e-20)
(0.14383737 -0.0023972817 -3.4180351e-22)
(0.14513812 -0.0016051699 3.3527225e-22)
(0.14664948 0.00041963983 1.7802844e-19)
(0.14879762 0.0015889146 0)
(0.15130399 0.0024673413 -1.0657015e-21)
(0.15478676 0.0021961105 7.3680183e-21)
(0.15873442 0.0021293416 2.9445433e-20)
(0.16249746 0.0013083044 -9.8564218e-22)
(0.16519189 0.00065924501 2.1701375e-20)
(0.16681556 -2.2084548e-05 -4.1702637e-21)
(0.16788056 -0.00099019278 0)
(0.16772734 -0.0019212412 9.5361197e-21)
(0.1663324 -0.0030199908 1.437142e-20)
(0.16460102 -0.004904057 1.0470236e-20)
(0.16225417 -0.0066247357 -6.000296e-21)
(0.15865611 -0.0082184056 4.1911366e-20)
(0.15507089 -0.0099543503 6.4637727e-21)
(0.15160933 -0.013216919 -5.9142221e-20)
(0.14859823 -0.014843383 9.4322648e-21)
(0.14564341 -0.013911502 -6.7070616e-22)
(0.14466057 -0.015952697 2.1925854e-20)
(0.1464347 -0.016759888 -2.4558933e-20)
(0.14668533 -0.014394205 0)
(0.14598231 -0.013059302 -5.088122e-21)
(0.1482545 -0.014822223 -9.8830512e-21)
(0.15241361 -0.013345023 4.8882705e-20)
(0.15526709 -0.011236704 -2.2205048e-20)
(0.15648657 -0.010862146 -5.0048695e-21)
(0.15863243 -0.011118111 -6.2428092e-21)
(0.16380571 -0.013756359 4.9253608e-21)
(0.14358104 0.00081705695 -9.3575557e-20)
(0.14402584 -0.0019425573 -8.1708053e-20)
(0.14511346 -0.001768491 -1.6832086e-22)
(0.14661099 3.7668986e-05 -1.3945801e-20)
(0.14872416 0.0014080029 -1.4573224e-19)
(0.15126159 0.0024094049 -2.4498211e-22)
(0.15468902 0.0020219365 -6.60553e-21)
(0.15862842 0.0021815533 -1.0600282e-20)
(0.1624404 0.0015149887 2.6858788e-21)
(0.16516502 0.0012482046 -2.3068755e-22)
(0.16691993 -4.5537693e-05 -1.649298e-20)
(0.16801873 -0.0014056434 -3.9764482e-22)
(0.16794178 -0.001546161 -6.3790717e-22)
(0.16678519 -0.0024647542 1.4861413e-22)
(0.16522607 -0.0046827728 -3.741216e-21)
(0.16288917 -0.0060903242 -5.0491138e-22)
(0.15935891 -0.006960009 -7.2257622e-20)
(0.15614342 -0.0082462257 6.0389344e-21)
(0.15272509 -0.011214931 7.9648213e-21)
(0.14901382 -0.012579102 0)
(0.14615881 -0.01196365 1.1138461e-20)
(0.14517901 -0.015207721 -2.8205166e-21)
(0.14574546 -0.015532862 -3.5116894e-20)
(0.14577277 -0.011947031 2.4392624e-21)
(0.14620511 -0.0099083161 8.1280325e-21)
(0.14805825 -0.013431103 -7.0321172e-20)
(0.15066979 -0.012849565 -1.7219911e-20)
(0.15360965 -0.010269341 3.3707758e-24)
(0.1558112 -0.0084017359 -2.9255444e-23)
(0.1584369 -0.0092773787 4.1750816e-21)
(0.16265259 -0.01229347 5.5788881e-21)
(0.14360944 5.5671615e-05 -5.6290653e-20)
(0.14411498 -0.00048948751 9.2127482e-24)
(0.14506263 -0.00090402564 4.4063506e-20)
(0.14651249 8.5995422e-05 1.983291e-21)
(0.14855491 0.0013154374 -1.4186518e-21)
(0.15116972 0.0022245839 1.2347131e-20)
(0.15459364 0.001935555 0)
(0.15850432 0.0018932041 8.9864597e-22)
(0.16232766 0.0015533186 -1.5210548e-22)
(0.16520028 0.0014177202 6.5198839e-20)
(0.16710544 -0.00023908486 5.8616979e-23)
(0.16810916 -0.0014750528 3.6247816e-23)
(0.16803889 -0.0013431253 -1.8325234e-20)
(0.16722689 -0.0023140854 1.1666378e-22)
(0.16579379 -0.0042989052 -5.8783876e-21)
(0.16339487 -0.0053413878 3.831703e-21)
(0.15992792 -0.0059010679 4.3057607e-22)
(0.15709569 -0.0071737204 5.2126806e-22)
(0.15373065 -0.0090733373 0)
(0.14954643 -0.010335408 -6.8981021e-21)
(0.14708549 -0.010630547 9.7489799e-21)
(0.14598152 -0.014594702 -2.5127395e-20)
(0.14501735 -0.014023057 -1.1997157e-20)
(0.14433771 -0.010209406 1.5284125e-21)
(0.14623773 -0.0084783326 -1.5725282e-20)
(0.14848709 -0.01095635 1.5813247e-20)
(0.14957023 -0.011325881 -1.0346471e-20)
(0.15162811 -0.0091615039 3.2196379e-20)
(0.15477575 -0.0069152626 -1.6846767e-20)
(0.15866666 -0.0078520161 -1.8152602e-22)
(0.16205342 -0.010705861 -1.4216118e-22)
(0.14366849 -0.0009820858 -2.3217623e-20)
(0.14409972 0.00093277615 3.1497105e-24)
(0.1451757 0.00052793221 1.5833208e-21)
(0.14655858 0.00046421424 -1.6151407e-19)
(0.14855914 0.0015725453 -1.168944e-21)
(0.15113018 0.0018195431 2.9386423e-20)
(0.15451316 0.0017558605 0)
(0.15838059 0.0013588923 0)
(0.16219255 0.00117941 -1.0865882e-21)
(0.16525439 0.001044219 0)
(0.16728503 -0.00015633435 5.4341536e-21)
(0.1681568 -0.00089836571 5.9001822e-20)
(0.16815194 -0.0011823015 0)
(0.16763429 -0.0022497508 -5.9085693e-20)
(0.16624979 -0.003583434 -4.6689301e-20)
(0.16382061 -0.0042204361 -5.0022674e-20)
(0.16046587 -0.0049124763 -5.1782754e-21)
(0.15782685 -0.0063886529 5.7657266e-21)
(0.15463121 -0.0076076975 4.7324492e-20)
(0.15023877 -0.0092704931 -1.556272e-20)
(0.14812615 -0.0096139301 -1.8939996e-20)
(0.14683726 -0.012971853 -6.6064022e-22)
(0.1442263 -0.012211576 2.2917361e-20)
(0.14318359 -0.0088779265 -1.5819608e-20)
(0.14584051 -0.0090949345 4.194524e-21)
(0.14842388 -0.0096863799 -2.9727295e-20)
(0.14894509 -0.0094329991 3.4875587e-20)
(0.14999569 -0.0076508044 -5.4087238e-22)
(0.15347678 -0.0056376143 5.2529301e-20)
(0.15846942 -0.0060739409 1.5629762e-20)
(0.16211452 -0.0076980585 -1.3251875e-20)
(0.14377829 -0.0014867528 -2.9529124e-20)
(0.14400206 0.0012711677 -8.8852893e-23)
(0.14528489 0.0014353048 -8.5479615e-20)
(0.14658095 0.00075605147 2.7034662e-20)
(0.1485577 0.0015718771 1.3557821e-19)
(0.15112353 0.0010591986 -1.0438721e-21)
(0.15445914 0.0014034467 1.4498977e-21)
(0.15831042 0.00079727023 3.4129109e-20)
(0.16208269 0.00062571715 9.442664e-21)
(0.16521426 0.00044279877 -5.9683268e-21)
(0.16732109 0.00013090365 2.109446e-20)
(0.16821518 -0.00016024189 -7.1324629e-23)
(0.16835652 -0.00091448178 2.6894527e-20)
(0.16793244 -0.0019595818 -3.784362e-20)
(0.16652387 -0.0024857233 -7.0624188e-20)
(0.16422658 -0.0028449769 -4.290523e-20)
(0.16111533 -0.0037005721 -2.4258516e-20)
(0.15853009 -0.0058064466 -1.6121691e-20)
(0.15550043 -0.006830056 -1.0795199e-20)
(0.1509361 -0.0083760895 -1.4693475e-20)
(0.14878831 -0.0085315625 -3.2938853e-20)
(0.14749671 -0.009902801 6.6197801e-21)
(0.14385797 -0.010305466 1.1439941e-20)
(0.14273955 -0.0083028929 2.2686739e-22)
(0.14549714 -0.0095051539 2.5178452e-21)
(0.14792791 -0.0089871908 2.6927554e-20)
(0.14821144 -0.0076234233 -6.2971774e-22)
(0.14859949 -0.0063700603 -1.6898235e-20)
(0.15197547 -0.0048118914 -2.2298167e-20)
(0.15739895 -0.0048448503 2.0418189e-20)
(0.16162208 -0.0045941094 1.5946655e-20)
(0.14388205 -0.0010566219 -1.8975336e-19)
(0.14390645 0.00043818407 -2.9881367e-23)
(0.14534434 0.00093762412 3.2187777e-22)
(0.14662455 0.00087823171 -7.4981346e-22)
(0.14856009 0.0013636937 8.1275851e-21)
(0.15108303 0.00056807561 -4.3779102e-20)
(0.15435199 0.0012103425 1.8088547e-20)
(0.15822218 0.00060321847 9.0316694e-21)
(0.1619689 0.00029651876 3.9421476e-21)
(0.16509185 0.00014704168 -1.1424358e-21)
(0.16721453 0.0002347316 4.1796124e-20)
(0.16823319 0.00028549302 8.3402533e-21)
(0.16855501 -0.0005373683 1.1680233e-21)
(0.16811708 -0.001501725 3.3402375e-20)
(0.16670496 -0.0016029615 1.423303e-22)
(0.16462065 -0.0018957772 3.1205802e-22)
(0.16186748 -0.0026090873 1.2369552e-20)
(0.159302 -0.0052456211 0)
(0.1563208 -0.0058297115 -9.79412e-23)
(0.15155488 -0.0065464731 8.0280919e-22)
(0.14909883 -0.0078183387 9.1061522e-20)
(0.14787028 -0.007062551 4.8579395e-21)
(0.14426827 -0.007413292 -3.0720981e-21)
(0.14266231 -0.0079716505 1.5533314e-22)
(0.14503316 -0.0088490598 5.0355692e-21)
(0.14710886 -0.0070903108 -1.169433e-20)
(0.14757361 -0.004979297 -7.2383082e-21)
(0.14780435 -0.0044211112 -6.6241926e-21)
(0.15050191 -0.0046269189 -3.3889286e-20)
(0.15559956 -0.0047827296 -2.3673033e-20)
(0.1599033 -0.0033395797 -6.8007075e-20)
(0.14394059 0.00042761855 -4.2420657e-20)
(0.14387986 -0.00087858668 -5.7707047e-20)
(0.14534942 -0.00059744968 4.9563366e-20)
(0.14667794 0.00052198156 2.4335591e-19)
(0.14859884 0.00047893168 1.2845793e-21)
(0.15101464 0.00041992436 -8.1614967e-23)
(0.15421091 0.0011523081 -4.8194119e-23)
(0.158107 0.00087686811 2.8405406e-20)
(0.16184002 0.00037052558 1.265839e-20)
(0.16495051 0.00014201912 -1.1098392e-20)
(0.16707874 0.00011956014 1.2828513e-20)
(0.16825091 0.00014142353 -1.6063399e-22)
(0.16870536 -0.00046292619 -5.3417474e-21)
(0.16829273 -0.0010296089 -1.4415529e-22)
(0.16692906 -0.0013772591 -3.3852166e-20)
(0.16492972 -0.001765678 1.8176861e-20)
(0.16260588 -0.00202378 3.1456761e-22)
(0.1600725 -0.0045368811 -6.0558088e-22)
(0.15696612 -0.0042098193 -1.4790412e-20)
(0.1524835 -0.003939368 8.8865181e-20)
(0.14944225 -0.0071132761 3.4889665e-21)
(0.14783009 -0.0057738745 5.6964564e-20)
(0.1450497 -0.0040267517 7.4145939e-21)
(0.14303754 -0.0067988203 -5.4501879e-20)
(0.14422755 -0.0080876305 1.5223351e-21)
(0.14568433 -0.0051349492 -2.9970043e-20)
(0.14672209 -0.0022396268 -4.8569536e-20)
(0.14773117 -0.0017127237 -1.8116382e-20)
(0.1500018 -0.0038902621 -1.0653504e-20)
(0.1540173 -0.005029035 2.6182526e-20)
(0.1578662 -0.0036627661 1.4837734e-20)
(0.14388886 0.0021230271 7.9766227e-20)
(0.14396895 -0.0012452967 3.3508597e-23)
(0.14527077 -0.0024975283 6.6948414e-22)
(0.14654931 0.00032664764 1.4955867e-21)
(0.14854398 -0.00020237926 -2.7493116e-22)
(0.15084824 0.0007951847 -1.9382172e-21)
(0.15406388 0.0010311142 1.838465e-22)
(0.15804342 0.0011199739 9.9407509e-22)
(0.16179494 0.00069291517 -8.8834982e-23)
(0.16489224 0.00025961137 8.1787234e-22)
(0.16705599 8.0845401e-05 -9.4049368e-23)
(0.16830024 -0.00049734729 -9.6054038e-20)
(0.16878749 -0.00053167167 6.9485234e-21)
(0.168482 -0.00080085139 3.9886514e-22)
(0.16718671 -0.001328307 4.1203694e-21)
(0.16518625 -0.0016205702 2.5003476e-21)
(0.16319473 -0.0015693841 -8.4916782e-21)
(0.16058878 -0.0033579398 -7.1692499e-21)
(0.15719585 -0.0019884239 -9.2651767e-21)
(0.15366324 -0.0013146555 -7.6753539e-20)
(0.15019206 -0.0059549213 -3.8301865e-20)
(0.14751234 -0.0054852068 -3.6232273e-22)
(0.14546603 -0.0017292985 1.072592e-20)
(0.14410284 -0.0046819167 6.8472537e-23)
(0.14357451 -0.0062054377 -3.5214124e-21)
(0.14384285 -0.0040138013 2.9103918e-20)
(0.14533947 -0.00067390844 1.8219211e-21)
(0.14777317 0.00049556008 -3.8971398e-21)
(0.15053314 -0.0022469344 -1.7978157e-20)
(0.15327091 -0.004231492 7.7770807e-21)
(0.15622837 -0.0037844487 1.9520361e-20)
(0.14369977 0.0029096072 -7.6096899e-22)
(0.14411522 -0.0014406736 -3.2850629e-20)
(0.14506595 -0.0025167529 -3.1669573e-20)
(0.14636306 0.00029470726 1.0078366e-19)
(0.14862026 -0.0008140595 5.9811171e-20)
(0.15114943 0.0011637349 5.7267141e-21)
(0.15461746 0.0007985631 1.0568666e-19)
(0.15853055 0.00092078739 -1.4129846e-22)
(0.16225633 0.00066577224 3.3502475e-20)
(0.16533116 0.00020811549 2.3693175e-20)
(0.16761029 -1.4561348e-05 3.4797385e-20)
(0.16883893 -0.0010148477 2.4401454e-22)
(0.16930308 -0.00038356038 -1.4513523e-20)
(0.16918608 -0.00070372537 2.576014e-20)
(0.16789291 -0.00097264415 -2.7050003e-21)
(0.16591013 -0.0011527553 6.6006483e-20)
(0.16406106 -0.0012389157 -6.7426042e-24)
(0.16124245 -0.0019367263 9.6783065e-20)
(0.15767231 -0.00033743954 -3.8774955e-23)
(0.15528628 0.00074445744 -5.3285066e-20)
(0.15188115 -0.0043301527 4.3480372e-20)
(0.14767097 -0.0045837864 6.6776593e-22)
(0.14567709 -0.0014187848 2.6288052e-21)
(0.14540281 -0.0026139211 1.0017863e-19)
(0.14410442 -0.0032263258 -7.6204372e-21)
(0.14287633 -0.0032195566 -1.5079584e-20)
(0.14397301 -0.00033725957 6.0816289e-20)
(0.14752099 0.0011580588 0)
(0.15134667 -0.00034569939 1.608956e-20)
(0.15335455 -0.0023078255 4.9334821e-20)
(0.1551202 -0.0027388496 1.9756924e-21)
(0.14366603 0.0010473959 3.0161067e-20)
(0.13158057 -0.00020615665 0)
(0.15481049 -0.0016515347 1.2414644e-22)
(0.14889823 0.00054300813 1.4896079e-20)
(0.15136618 -0.00019326549 3.0087082e-21)
(0.15826892 0.00044504651 -1.2562447e-21)
(0.15669599 0.00035782378 8.2782631e-20)
(0.16042532 0.00025218425 2.1193306e-20)
(0.16470445 0.00018787519 1.7826908e-20)
(0.16808626 8.8890668e-05 2.0915341e-20)
(0.17062705 2.9692603e-05 1.2870843e-21)
(0.17132994 -0.00022405695 -2.4670215e-21)
(0.17220076 1.1521553e-05 5.8526612e-21)
(0.17201294 -0.00010154695 1.8784888e-20)
(0.17075277 -8.5914221e-05 3.4488925e-20)
(0.16846994 -0.00017556185 3.7472715e-21)
(0.166846 -0.00020122055 -3.7332903e-20)
(0.16395026 -0.00019154392 4.6069005e-20)
(0.16005143 2.1350276e-05 2.3971632e-20)
(0.15931113 0.00035634199 -6.4215799e-22)
(0.15481029 -0.00093458451 4.9096375e-20)
(0.14954451 -0.0011959106 -5.0358996e-21)
(0.14760819 -0.00035512604 -1.7564502e-22)
(0.14751101 -0.00062191332 1.2269966e-20)
(0.14657365 -0.00061663257 -2.7986287e-20)
(0.14445829 -0.00089592229 7.4278099e-21)
(0.14516369 -0.00030287584 -3.4024957e-21)
(0.14941461 0.00016010206 6.8722826e-21)
(0.15439404 -4.4998643e-05 2.2196703e-21)
(0.15593678 -0.00052142063 1.2383736e-20)
(0.15649918 -0.00069723515 6.9076337e-22)
(0.16036165 -0.00045357125 1.2110289e-21)
(0.15922565 -0.0011589025 1.5880561e-20)
(0.16045458 -0.0020727724 -1.0471125e-20)
(0.16179618 -0.0018882266 -7.7051915e-20)
(0.16305964 -0.0016074531 9.1870912e-21)
(0.16358266 -0.0037954535 -6.113714e-20)
(0.16380176 -0.0074587871 -4.1218351e-21)
(0.16535467 -0.0096466875 -5.0059452e-20)
(0.16799869 -0.010788749 -3.9369929e-20)
(0.16952927 -0.013727174 -5.2614199e-22)
(0.16996913 -0.016939143 2.0440019e-21)
(0.17042967 -0.016966581 -1.3035634e-20)
(0.17033033 -0.017929697 0)
(0.16900909 -0.022720301 7.6797598e-21)