/*--------------------------------*- C++ -*----------------------------------*\
| =========                 |                                                 |
| \\      /  F ield         | OpenFOAM: The Open Source CFD Toolbox           |
|  \\    /   O peration     | Version:  2406                                  |
|   \\  /    A nd           | Website:  www.openfoam.com                      |
|    \\/     M anipulation  |                                                 |
\*---------------------------------------------------------------------------*/
FoamFile
{
    version     2.0;
    format      ascii;
    arch        "LSB;label=32;scalar=64";
    class       volVectorField;
    location    "5";
    object      U;
}
// * * * * * * * * * * * * * * * * * * * * * * * * * * * * * * * * * * * * * //

dimensions      [0 1 -1 0 0 0 0];

internalField   nonuniform List<vector> 
84348
(
(0.14704658 -0.00041449381 -1.2135926e-19)
(0.14647055 -0.0020747753 -1.2161753e-19)
(0.1470005 -0.0015304755 7.4682102e-23)
(0.14855451 0.00020466355 -4.3754468e-21)
(0.15026743 0.0030603947 0)
(0.15182471 0.0050445743 1.50077e-22)
(0.15433142 0.0054345099 1.0124856e-20)
(0.15784995 0.0046667833 -2.3084891e-21)
(0.16147746 0.0031720072 2.1670999e-21)
(0.16384054 0.0014721053 -2.3577487e-21)
(0.16443701 0.00040916714 -2.6013974e-23)
(0.16431057 -0.001226663 -1.1536821e-20)
(0.16500589 -0.0040309358 7.1689857e-21)
(0.16520825 -0.0069362511 -2.9463516e-20)
(0.16304108 -0.0088045341 3.5098458e-20)
(0.15942313 -0.0082998435 -2.4796572e-21)
(0.15568205 -0.0049926274 -1.7167949e-20)
(0.15446162 -0.0034869532 4.1335581e-20)
(0.15665751 -0.0082767289 2.2536178e-21)
(0.15661042 -0.015367322 3.684547e-20)
(0.15018875 -0.01839018 2.3121215e-20)
(0.14194008 -0.017768753 -2.1456928e-20)
(0.13656877 -0.019626203 -1.2803537e-20)
(0.13504241 -0.024282002 -2.812179e-23)
(0.13507159 -0.027046848 -1.3791914e-20)
(0.13540738 -0.026014477 -1.1309128e-20)
(0.13658648 -0.024928123 1.7933294e-21)
(0.13799482 -0.023564505 -4.6884689e-23)
(0.13917658 -0.022282175 2.7482249e-21)
(0.14025204 -0.020798208 -2.2138929e-21)
(0.14147822 -0.019749786 -1.217578e-20)
(0.14269467 -0.019415826 3.3451025e-21)
(0.1439697 -0.020109994 -9.516752e-21)
(0.14477536 -0.021958397 1.100225e-21)
(0.14477932 -0.024809258 4.2348259e-21)
(0.14396746 -0.028292756 9.0412304e-21)
(0.14306521 -0.031382441 2.1043551e-21)
(0.14294321 -0.033558159 -8.4283406e-23)
(0.14342244 -0.035106426 -5.3885468e-22)
(0.14415182 -0.036373118 -9.500798e-22)
(0.14515461 -0.037405289 6.0263237e-21)
(0.14645695 -0.038274244 2.6434578e-21)
(0.1479302 -0.039042422 1.5613633e-20)
(0.1493516 -0.040050615 -3.312966e-21)
(0.15059738 -0.041394802 2.9829115e-22)
(0.15160675 -0.043045939 2.0142768e-21)
(0.15278434 -0.044470936 1.2136314e-20)
(0.15382482 -0.046199553 0)
(0.15483312 -0.047629708 7.0655096e-21)
(0.15576303 -0.04932795 5.1150668e-21)
(0.15626392 -0.051098052 3.6775002e-21)
(0.15681374 -0.052685262 2.2668344e-21)
(0.15749199 -0.05446198 1.927418e-22)
(0.15851585 -0.055842322 -8.4543872e-22)
(0.15958352 -0.057079372 1.1941774e-21)
(0.16094134 -0.058442908 -4.8457736e-21)
(0.16199336 -0.059429165 -1.0851644e-20)
(0.16347204 -0.060759962 -1.1195579e-20)
(0.16472361 -0.061917914 2.287951e-20)
(0.1657094 -0.063302173 7.4858949e-21)
(0.16677554 -0.06459855 -1.9362968e-21)
(0.16720057 -0.065883022 1.571117e-20)
(0.16815208 -0.068171461 1.1759692e-20)
(0.14718172 -0.00028407894 3.9277244e-20)
(0.14664962 -0.0017696967 4.0327928e-20)
(0.1470191 -0.0016037188 0)
(0.14859886 0.00015118107 0)
(0.15030433 0.0030294771 0)
(0.15184902 0.0049492023 0)
(0.15442106 0.0054025425 2.0904618e-21)
(0.15795707 0.0046846401 -6.1481807e-21)
(0.16158929 0.0032180482 3.9633076e-21)
(0.16397952 0.0015003901 8.4527532e-22)
(0.16468031 0.00032591166 -4.5915415e-21)
(0.16472232 -0.0014340436 1.5253236e-20)
(0.16555248 -0.0043233952 2.4413106e-20)
(0.16580877 -0.0072559418 -2.7209942e-20)
(0.16346812 -0.0091428064 -3.2367308e-20)
(0.15953338 -0.0087650205 1.5804682e-21)
(0.15595424 -0.0061684489 -4.1990726e-22)
(0.1553129 -0.005012333 -1.4528949e-21)
(0.15711193 -0.0078248312 3.3873483e-22)
(0.15615206 -0.012028617 2.1156193e-20)
(0.14953567 -0.01491793 3.1595446e-20)
(0.14152228 -0.015637724 1.8702093e-22)
(0.13712125 -0.019434465 9.3018126e-21)
(0.13603271 -0.025268458 2.9548358e-20)
(0.13493739 -0.026970677 -2.190674e-23)
(0.1345651 -0.025336325 4.6482541e-21)
(0.13572132 -0.024023443 8.6881243e-21)
(0.13741944 -0.022765487 -7.390325e-21)
(0.13901483 -0.02220412 -3.2720846e-21)
(0.1402562 -0.021384031 -7.5594663e-21)
(0.14143377 -0.020396027 1.3205476e-20)
(0.14274184 -0.019683321 -3.7157316e-21)
(0.14408682 -0.019461849 -6.7198613e-21)
(0.14507638 -0.020188507 8.339539e-22)
(0.14545546 -0.022067075 0)
(0.14507198 -0.025205679 -1.7693918e-20)
(0.14421784 -0.028843128 -7.0516756e-23)
(0.14367763 -0.031631374 5.4843299e-22)
(0.14387032 -0.033452537 -1.3976544e-22)
(0.1445219 -0.034798739 2.9340943e-22)
(0.14541502 -0.035931112 1.1883803e-21)
(0.14656844 -0.036977124 -2.9953854e-21)
(0.14794149 -0.037820872 1.0361e-20)
(0.14937415 -0.038631416 5.8412983e-21)
(0.15080184 -0.039562188 2.6004153e-21)
(0.15195317 -0.040777334 3.7289974e-22)
(0.15303266 -0.042225975 6.3018281e-21)
(0.1541715 -0.043582939 3.6373635e-21)
(0.15517728 -0.045102333 0)
(0.15630012 -0.046602843 -1.5638852e-22)
(0.15689177 -0.047978193 0)
(0.15760338 -0.049513747 1.0230869e-20)
(0.15828085 -0.051285504 0)
(0.15869649 -0.052354693 1.1167917e-20)
(0.15986139 -0.053949571 -2.2046422e-21)
(0.16087252 -0.054966317 3.9965972e-22)
(0.16218255 -0.056145893 -3.5187657e-21)
(0.1633516 -0.057129628 -8.0885754e-21)
(0.16464515 -0.058195324 -6.8966897e-21)
(0.16593805 -0.059301323 -2.944322e-21)
(0.16687643 -0.060209681 -9.0487941e-21)
(0.16802888 -0.06149213 9.2807243e-22)
(0.1687246 -0.063316082 6.6684975e-21)
(0.14725403 -0.00016854942 3.3880165e-24)
(0.14677968 -0.0018854215 2.115164e-20)
(0.14705197 -0.0015510387 2.9655171e-22)
(0.1485881 0.00024832995 3.4119855e-22)
(0.1503503 0.0029006315 0)
(0.15188112 0.0048925118 0)
(0.1544595 0.005347483 0)
(0.15803015 0.0046266729 -2.6564938e-21)
(0.1617032 0.0032175452 -9.9983922e-22)
(0.16412604 0.0014658919 2.4933523e-22)
(0.16490196 0.0002219307 1.011597e-22)
(0.16506392 -0.001734761 -1.8591839e-23)
(0.16599593 -0.0045198411 -1.8902058e-22)
(0.16627298 -0.0074540958 1.4495867e-20)
(0.16378357 -0.0093980224 -1.8905298e-20)
(0.15960314 -0.009300311 -6.2049169e-22)
(0.15597432 -0.0078444113 1.1974557e-19)
(0.15555498 -0.0074768959 -1.1379974e-19)
(0.15748381 -0.0085750342 4.4864339e-23)
(0.15668991 -0.0096921343 -1.1351532e-20)
(0.15017535 -0.011801119 9.2446574e-20)
(0.14254523 -0.014582454 8.9526881e-21)
(0.13857882 -0.020339874 -1.1758158e-20)
(0.13708174 -0.026468162 4.2080072e-22)
(0.13484787 -0.027340813 9.8583491e-23)
(0.13383569 -0.025287863 3.7423733e-22)
(0.13484047 -0.022901701 -4.0221086e-22)
(0.13672301 -0.021135093 1.3108489e-22)
(0.13854844 -0.020835485 -7.0973677e-21)
(0.13987071 -0.020844081 3.317298e-21)
(0.14105791 -0.020668401 6.6463454e-21)
(0.14238898 -0.020135512 1.1475942e-20)
(0.14394575 -0.019534359 -8.6955688e-21)
(0.14540148 -0.019447421 4.9251878e-23)
(0.14640849 -0.020339002 2.1402987e-21)
(0.146707 -0.022494422 1.1742548e-22)
(0.14610463 -0.025736108 -1.7698873e-20)
(0.14518047 -0.029172484 -1.9189874e-20)
(0.14481727 -0.03176154 -3.2244587e-21)
(0.14517085 -0.033350648 1.1771552e-21)
(0.14593745 -0.03449724 3.1534303e-23)
(0.14692306 -0.035608322 -1.4161386e-21)
(0.14809628 -0.036613425 -5.0405737e-21)
(0.14945767 -0.037445446 0)
(0.15089256 -0.038263003 1.3216473e-20)
(0.15233298 -0.039008361 4.6472365e-21)
(0.1535793 -0.04025541 -2.5860902e-21)
(0.15457334 -0.041373891 2.3510326e-21)
(0.15582046 -0.042746936 3.0969928e-21)
(0.15674987 -0.044110005 -7.4791429e-21)
(0.15767233 -0.045117613 -5.3005806e-21)
(0.15861299 -0.046897698 0)
(0.15905749 -0.047818699 -1.9056665e-21)
(0.15967117 -0.049478752 3.8638681e-22)
(0.16033432 -0.05082951 8.3347249e-21)
(0.16104916 -0.05184929 -7.671303e-23)
(0.16202391 -0.05300615 4.659604e-22)
(0.16333356 -0.05384254 -2.8602637e-23)
(0.16453995 -0.055107316 6.0409727e-21)
(0.16573763 -0.0555721 -1.8944068e-21)
(0.16695019 -0.056839604 -1.6265994e-20)
(0.1681218 -0.057376091 -9.0175226e-21)
(0.16884873 -0.0591945 -3.2382435e-21)
(0.1473317 -0.00021121507 -1.6905091e-20)
(0.14686852 -0.0019944071 -1.2641614e-21)
(0.14707617 -0.0016145395 -7.3511246e-23)
(0.14862979 1.2630249e-07 -3.4450209e-22)
(0.1503828 0.0028759826 -6.8921618e-23)
(0.15194024 0.0047516141 0)
(0.15450748 0.0052447452 4.3051281e-21)
(0.15805479 0.0046323576 1.3471294e-22)
(0.16177317 0.0032662972 2.9610791e-21)
(0.16426018 0.0014718417 -4.5658402e-23)
(0.16515872 0.00012321911 7.854609e-21)
(0.16544158 -0.0019849799 1.8744922e-20)
(0.16647733 -0.0047820775 1.9422082e-22)
(0.16680297 -0.0076074847 1.1135763e-23)
(0.16423854 -0.0095349538 -7.2764998e-21)
(0.15992563 -0.0096211492 2.3965683e-21)
(0.15636027 -0.0095166094 7.087411e-20)
(0.15593509 -0.010648446 -1.142531e-19)
(0.1575984 -0.010187017 -4.2665901e-20)
(0.15696138 -0.0080483753 3.3176233e-21)
(0.15115766 -0.0085941968 -2.5843048e-20)
(0.14421204 -0.013526726 -9.6770609e-21)
(0.14053714 -0.021535481 0)
(0.13831968 -0.02737863 -1.2347278e-21)
(0.13482809 -0.027382556 5.6790709e-21)
(0.13306249 -0.02496262 -3.1005087e-21)
(0.13375391 -0.021749048 8.6043769e-21)
(0.13588101 -0.019471028 1.2617162e-20)
(0.13809232 -0.018958515 -9.1188279e-21)
(0.13962547 -0.019409695 9.2587388e-21)
(0.14078773 -0.01997181 9.7219755e-21)
(0.14193857 -0.02013782 1.7244915e-21)
(0.14343713 -0.019807895 1.1022429e-20)
(0.14513567 -0.019366519 4.1717526e-21)
(0.14668806 -0.019406773 -8.8431083e-23)
(0.14765707 -0.020392287 -7.913126e-22)
(0.1477572 -0.022719621 1.3466943e-21)
(0.14704368 -0.026089006 1.7900948e-20)
(0.1461883 -0.029402235 3.2582568e-21)
(0.14597088 -0.031729458 -2.976776e-21)
(0.14650615 -0.033124492 -7.5905352e-22)
(0.14742246 -0.03415238 -8.2765263e-23)
(0.14846147 -0.035114091 -3.0450451e-21)
(0.14970276 -0.036127554 -5.189013e-21)
(0.15104352 -0.036787143 -8.0120385e-21)
(0.15261225 -0.037733942 5.3356494e-21)
(0.15409143 -0.038389902 2.0906899e-21)
(0.15530997 -0.039382545 7.0706389e-22)
(0.15653719 -0.040699448 2.4702661e-21)
(0.15744717 -0.041571109 5.3262231e-21)
(0.15854198 -0.042943926 -4.5978354e-21)
(0.15944316 -0.043971037 -7.305569e-21)
(0.16022107 -0.045235701 4.6594128e-22)
(0.16101411 -0.046542626 -5.5394306e-21)
(0.16132193 -0.047631317 0)
(0.16194008 -0.048712937 3.1183892e-21)
(0.16272179 -0.050146026 -4.4817387e-21)
(0.16375477 -0.050857408 -3.3729933e-21)
(0.16465374 -0.05196587 -5.9083016e-22)
(0.16589815 -0.05236646 -2.8605121e-22)
(0.16698159 -0.053592824 -3.0049455e-22)
(0.16843874 -0.053899617 4.8368159e-22)
(0.16957964 -0.055589172 8.1124836e-21)
(0.1473785 -0.000187242 0)
(0.14693508 -0.0017422798 -9.4039679e-20)
(0.14711793 -0.0016546843 -2.1997506e-20)
(0.14861061 0.00014261463 -2.4483558e-20)
(0.15045056 0.002780199 0)
(0.15197998 0.0046987297 2.5955564e-21)
(0.15448402 0.0052182493 5.5478492e-21)
(0.15803179 0.0045655382 6.9859462e-21)
(0.16179735 0.003254109 8.8078463e-21)
(0.16435743 0.0014502282 -3.6402378e-21)
(0.1653687 -3.7097543e-05 1.1494609e-20)
(0.16578789 -0.0023202984 -3.1552553e-22)
(0.16691577 -0.0049787129 -3.3532839e-22)
(0.16730274 -0.0076362292 -5.9358518e-22)
(0.16469997 -0.0094263681 -1.0894969e-20)
(0.16040338 -0.0097088538 -7.9715367e-23)
(0.15698275 -0.01100266 1.9190826e-20)
(0.1563657 -0.013349748 1.0466565e-21)
(0.15740985 -0.012148047 3.9742305e-20)
(0.15686141 -0.0075292789 1.9124121e-20)
(0.15220272 -0.0060921836 -1.9005786e-20)
(0.14633935 -0.012200817 -4.1030371e-22)
(0.14274997 -0.022441832 -8.5822226e-22)
(0.13943421 -0.027623202 -1.1266617e-21)
(0.13475584 -0.026540706 1.8578963e-20)
(0.13230733 -0.023917671 -2.3266036e-20)
(0.13264714 -0.020741346 1.0787413e-21)
(0.13498472 -0.018672943 4.1540026e-22)
(0.13756132 -0.017446354 5.40911e-21)
(0.13940974 -0.01747665 -1.2655871e-22)
(0.14066279 -0.018369557 1.8586807e-20)
(0.14165603 -0.019280971 9.1616182e-21)
(0.14290579 -0.0196665 -2.3977104e-21)
(0.14452622 -0.019493365 1.0094863e-20)
(0.14629089 -0.019147929 1.0246519e-20)
(0.14784814 -0.019161877 1.1842733e-22)
(0.14871401 -0.020403778 -3.0170279e-21)
(0.14863571 -0.022971996 5.8538597e-21)
(0.1478533 -0.026289646 -4.0276914e-21)
(0.147072 -0.029424574 1.284016e-21)
(0.14701572 -0.031566959 -3.1144015e-21)
(0.14765673 -0.032709583 4.9724686e-22)
(0.14871876 -0.03362431 -2.7748803e-21)
(0.14979209 -0.03451985 -2.3546545e-21)
(0.15113486 -0.035352896 -4.3862151e-21)
(0.15263848 -0.036226721 -6.3464088e-21)
(0.15407129 -0.036761763 -2.0290103e-21)
(0.1557667 -0.037724015 0)
(0.15699373 -0.038454561 0)
(0.15804649 -0.039324157 4.9251481e-21)
(0.15912615 -0.040467681 0)
(0.16020534 -0.041438385 0)
(0.16113735 -0.042666115 8.3871173e-22)
(0.16184597 -0.043469978 -8.4396518e-21)
(0.16249502 -0.044720811 -6.7695106e-21)
(0.16333349 -0.045950912 8.6961391e-21)
(0.1636715 -0.047018864 1.3355981e-20)
(0.16437279 -0.047650099 -3.8736151e-21)
(0.16511684 -0.048694505 -1.6324766e-21)
(0.16625952 -0.049400308 3.7504157e-22)
(0.16729392 -0.050331604 -3.0476528e-21)
(0.1686699 -0.050850194 2.2969727e-21)
(0.16988371 -0.051930598 2.0423984e-21)
(0.14740806 -0.00011832749 -5.7714805e-21)
(0.1469942 -0.0018177043 0)
(0.14713542 -0.0016059861 0)
(0.14867924 8.3845491e-05 0)
(0.15052149 0.0026908849 -1.9560272e-20)
(0.1520008 0.0045734134 -1.3518885e-23)
(0.15446666 0.0050888146 -9.1084206e-21)
(0.15796895 0.0045524504 -2.6040233e-23)
(0.16176287 0.0033059056 -2.6621675e-21)
(0.16438754 0.0013906405 1.9370999e-22)
(0.1655092 -0.00014600215 -1.376144e-22)
(0.16601033 -0.0025968315 -3.776661e-20)
(0.16721009 -0.0051649686 0)
(0.16766885 -0.0075728575 -1.0471013e-22)
(0.16505783 -0.009150224 1.7817169e-21)
(0.16088854 -0.0097483099 -2.8986581e-21)
(0.1576553 -0.01194767 -5.8237169e-21)
(0.15666765 -0.014521577 3.1752316e-20)
(0.15695709 -0.013445865 2.267577e-20)
(0.15645074 -0.0081701453 2.5270488e-21)
(0.15303311 -0.004949798 -1.1762301e-20)
(0.14871734 -0.011033156 -7.9687095e-21)
(0.14510007 -0.022999461 1.414671e-20)
(0.14042808 -0.027956832 1.0550753e-20)
(0.13466275 -0.025803131 -6.750287e-22)
(0.13164353 -0.023012816 4.4192978e-22)
(0.13182767 -0.020577191 8.9954857e-21)
(0.13415237 -0.019068364 2.0310516e-20)
(0.13679612 -0.016854228 -6.1681257e-22)
(0.13908354 -0.015865719 -1.1051931e-20)
(0.14066778 -0.01640904 0)
(0.1416552 -0.017669725 0)
(0.14264074 -0.018765654 -1.0132137e-22)
(0.14397556 -0.019175883 9.5190352e-23)
(0.14560236 -0.019054237 1.0297286e-20)
(0.14743094 -0.018714382 -1.2790677e-20)
(0.14898285 -0.018910459 -2.0412613e-21)
(0.14966145 -0.02045183 -5.3505104e-21)
(0.14941897 -0.023162705 -8.2962705e-21)
(0.14858472 -0.02643501 1.8193445e-22)
(0.1478421 -0.029345735 1.7043597e-20)
(0.14786532 -0.031137019 -7.5559836e-22)
(0.14865833 -0.032207259 1.1469444e-21)
(0.14974139 -0.032893391 -4.156218e-21)
(0.15098106 -0.033925654 -4.2904541e-21)
(0.15231395 -0.034499948 0)
(0.15388152 -0.035376408 0)
(0.15543497 -0.036002072 0)
(0.1568156 -0.036446247 0)
(0.15822454 -0.037329396 0)
(0.15939714 -0.038242055 -3.9626248e-21)
(0.16053018 -0.039120103 4.8595434e-21)
(0.1613727 -0.039962644 -1.7288798e-21)
(0.16251663 -0.041011649 7.7411395e-21)
(0.16341817 -0.042184448 -6.667278e-21)
(0.16403427 -0.042998149 6.955127e-21)
(0.16419668 -0.043551647 1.987402e-20)
(0.16496528 -0.044700324 1.2322008e-20)
(0.16583968 -0.045786511 5.1716134e-21)
(0.16652695 -0.046520401 3.5603165e-23)
(0.16753237 -0.047248922 -2.0746464e-21)
(0.16855497 -0.047683087 -1.7474283e-22)
(0.16950229 -0.048584907 -4.2707069e-22)
(0.14741461 -5.2173939e-05 5.7961574e-20)
(0.14706426 -0.0019732331 4.5199479e-20)
(0.14718683 -0.0016626003 1.6914489e-20)
(0.14871129 -5.0895451e-05 -6.8406476e-21)
(0.15058128 0.0026827315 -2.0798113e-22)
(0.15200981 0.0044741796 -3.2546942e-21)
(0.15439402 0.0050427487 -1.1405976e-21)
(0.15788299 0.0045094432 2.2360039e-22)
(0.161725 0.0032958818 -7.6646675e-21)
(0.16439368 0.0013790972 5.1052436e-22)
(0.16561445 -0.00037954249 -1.342973e-20)
(0.1661887 -0.0029088222 0)
(0.1673887 -0.0052630835 0)
(0.1678555 -0.0073252195 -5.4013477e-23)
(0.16529569 -0.0089010478 -1.2050182e-20)
(0.16129211 -0.0097563851 -1.1327823e-20)
(0.15813951 -0.011949465 -5.0363785e-21)
(0.15675976 -0.013947005 -2.0719533e-20)
(0.15642306 -0.013501682 -3.5986737e-21)
(0.15581454 -0.009218296 -2.8153202e-20)
(0.15357254 -0.0052651742 0)
(0.15118204 -0.010707443 5.0310021e-22)
(0.1476635 -0.023138858 2.4030872e-21)
(0.14144733 -0.028721616 6.0568787e-23)
(0.1346244 -0.026199368 4.2197857e-21)
(0.13123496 -0.023511156 -8.1790186e-21)
(0.13139468 -0.022073307 -3.1826599e-24)
(0.13337651 -0.020506941 4.8063382e-23)
(0.13581426 -0.017324605 -8.8082146e-22)
(0.1385046 -0.015386055 2.6969286e-23)
(0.14060694 -0.014774175 -1.4797147e-20)
(0.14186472 -0.015628651 9.891963e-22)
(0.14272895 -0.017060158 9.21559e-22)
(0.14375957 -0.018114194 5.714744e-21)
(0.14512307 -0.018561457 1.4122402e-21)
(0.14681854 -0.018565501 2.5775969e-21)
(0.14873665 -0.018251877 -1.8131608e-20)
(0.15017564 -0.018738968 -1.3710852e-21)
(0.15064521 -0.020548586 7.776802e-21)
(0.15021812 -0.023313626 -3.9683507e-21)
(0.14924558 -0.026369012 1.3505186e-20)
(0.14856352 -0.029000197 3.9660468e-21)
(0.14869665 -0.030543288 -5.0008157e-21)
(0.14961246 -0.031465356 1.9846496e-21)
(0.15075484 -0.032175065 1.1179924e-21)
(0.15200985 -0.032958443 -5.1536956e-21)
(0.15342985 -0.033681378 0)
(0.15485006 -0.03413088 0)
(0.15641413 -0.034870186 -2.9272856e-21)
(0.15799696 -0.035507427 -6.8290581e-21)
(0.15922576 -0.036140686 1.1548513e-21)
(0.16036445 -0.036749414 -6.1774706e-23)
(0.16153148 -0.037811932 4.2363593e-22)
(0.16269981 -0.038699232 6.6615725e-22)
(0.16343489 -0.039335244 -6.0348691e-21)
(0.16402568 -0.039916451 -2.0415647e-20)
(0.16484647 -0.040967924 5.1732332e-21)
(0.16580212 -0.042221987 1.8841115e-20)
(0.1661975 -0.042856651 -5.39899e-23)
(0.16652633 -0.043410645 2.3495618e-21)
(0.16739304 -0.044300331 5.5738579e-21)
(0.16824615 -0.04441418 2.2022575e-21)
(0.16911334 -0.045705322 1.2569659e-21)
(0.14742039 -0.00011407881 -1.031282e-19)
(0.1470907 -0.0017958837 -1.3696332e-21)
(0.14722868 -0.0017381686 3.0239501e-20)
(0.14877359 0.00012814229 7.9367881e-23)
(0.15064119 0.0025188734 -4.25317e-21)
(0.15201779 0.0043742904 -9.88773e-23)
(0.15437972 0.0049386266 -1.3106449e-20)
(0.15783512 0.004456953 -3.3146543e-22)
(0.16168446 0.0033175 -1.3653768e-21)
(0.16441712 0.0012590815 2.0546601e-21)
(0.16572308 -0.00051442793 9.4399849e-23)
(0.16629281 -0.0032134901 1.6386649e-22)
(0.16747524 -0.0052658132 0)
(0.16802384 -0.0072438399 0)
(0.16552898 -0.0090770052 8.1381921e-21)
(0.16161811 -0.010074411 3.9236343e-20)
(0.15843618 -0.011725417 1.0299304e-20)
(0.15677116 -0.012660538 1.2712955e-20)
(0.15598834 -0.01234582 -8.1798229e-21)
(0.15516899 -0.0095006548 -2.7069127e-20)
(0.15391722 -0.0068269176 9.3539405e-22)
(0.15342724 -0.011616647 2.728978e-20)
(0.15028042 -0.022661097 6.6539745e-21)
(0.1426054 -0.028517097 5.3716443e-20)
(0.13474528 -0.026878323 8.1373424e-22)
(0.13112562 -0.0251985 -3.8032196e-21)
(0.13108601 -0.024683139 1.4159268e-20)
(0.13242654 -0.022418136 -1.0693881e-20)
(0.13464826 -0.018645604 8.341851e-22)
(0.13755364 -0.015981194 6.089045e-21)
(0.14012119 -0.014081849 8.4589964e-24)
(0.14195693 -0.013893198 8.1283465e-21)
(0.14301953 -0.014885497 1.583204e-20)
(0.14390073 -0.016384503 -1.9918256e-22)
(0.14500933 -0.0174868 1.1519182e-20)
(0.1464057 -0.017990061 3.7228998e-21)
(0.14822005 -0.017946587 -1.8628786e-21)
(0.15018592 -0.01775968 6.2705067e-22)
(0.15145265 -0.018559641 -1.0901794e-22)
(0.15167714 -0.0205272 4.3649027e-21)
(0.15101826 -0.023229362 -1.4501213e-20)
(0.14999595 -0.026199966 2.1965941e-21)
(0.14940532 -0.028538659 -9.4794808e-21)
(0.14966077 -0.029833202 -1.1844534e-23)
(0.15062032 -0.030518329 1.3572269e-22)
(0.15182603 -0.031258761 1.9787466e-21)
(0.15299933 -0.031809402 3.3326816e-21)
(0.15448961 -0.032507159 7.4215649e-21)
(0.15599804 -0.033118496 1.3656273e-20)
(0.157411 -0.033525574 -1.0491804e-20)
(0.15877725 -0.03401189 -1.2636653e-20)
(0.16029606 -0.034750858 -1.9442556e-21)
(0.16148628 -0.035590385 -4.0781568e-23)
(0.16235262 -0.035971347 3.0118396e-21)
(0.16326589 -0.036774607 -4.6496669e-21)
(0.16436868 -0.037640714 -9.215464e-21)
(0.16534648 -0.038846173 -1.6362841e-20)
(0.16579621 -0.039102996 8.1176244e-21)
(0.16619613 -0.039631581 -4.944791e-22)
(0.16683212 -0.040433741 -9.480052e-21)
(0.16728347 -0.041542657 -3.9934848e-21)
(0.16827687 -0.041673309 -3.9151363e-21)
(0.1691975 -0.043003979 3.9507354e-21)
(0.14741579 -4.0904157e-05 -8.5838557e-20)
(0.14714922 -0.0016910667 -5.7161698e-20)
(0.14727098 -0.0016804172 -1.8706978e-20)
(0.14882133 -9.1395401e-05 2.1027008e-20)
(0.15068343 0.0025171369 0)
(0.15203283 0.0042424703 4.7653269e-21)
(0.1543483 0.0048434913 -3.7605093e-22)
(0.15779714 0.0044584689 -2.991705e-22)
(0.16171102 0.0033577459 2.3520786e-23)
(0.16447322 0.0012623174 -6.7523472e-23)
(0.16587676 -0.0007287822 7.253612e-21)
(0.16645395 -0.0034938778 0)
(0.16761044 -0.0053979903 0)
(0.16823907 -0.0072228189 -7.5432054e-23)
(0.16581617 -0.0096033443 5.6604312e-21)
(0.16196094 -0.011062185 -2.6060258e-22)
(0.15861849 -0.012251512 9.1229142e-23)
(0.15667652 -0.011881286 -3.3907536e-21)
(0.15565675 -0.010588267 -1.2123881e-20)
(0.15474584 -0.0086161352 -3.3583539e-21)
(0.15427823 -0.0086284783 -6.9236074e-20)
(0.15522003 -0.013279534 -5.8645632e-20)
(0.15249968 -0.021486427 -3.8303818e-20)
(0.14383861 -0.026455048 9.8610087e-20)
(0.13523709 -0.026321582 -2.0463723e-20)
(0.13126653 -0.026358567 6.0421829e-22)
(0.130746 -0.026637258 -8.2989041e-23)
(0.13131416 -0.024038869 -4.6035046e-21)
(0.13332704 -0.020376643 2.1523547e-20)
(0.13629355 -0.0169778 -1.8027257e-22)
(0.13917186 -0.014265934 -3.4845552e-21)
(0.14159386 -0.013059459 -1.9998014e-23)
(0.14317171 -0.013140215 -8.0231302e-21)
(0.14422058 -0.014382817 -5.9123095e-22)
(0.14514033 -0.01581513 -1.0819147e-22)
(0.14625852 -0.016851666 -5.1413437e-21)
(0.14777062 -0.017384456 3.9627746e-21)
(0.14975964 -0.017274045 1.2551907e-21)
(0.15168163 -0.017209752 1.7568786e-21)
(0.15270779 -0.018237085 -9.9034694e-22)
(0.15271005 -0.020349744 0)
(0.1519165 -0.023112559 -1.3784075e-21)
(0.15080224 -0.025852922 -1.4263957e-20)
(0.15026969 -0.027771493 -4.1986764e-21)
(0.15073195 -0.028946393 -3.7502689e-21)
(0.15172575 -0.029515074 -5.6379957e-21)
(0.15293769 -0.030121429 -3.0474133e-21)
(0.15421656 -0.030695674 9.1039439e-21)
(0.15549023 -0.031080406 1.117792e-20)
(0.15697965 -0.031619751 1.4447326e-20)
(0.15849697 -0.03221764 -8.4575165e-21)
(0.16000551 -0.032751925 -8.3804945e-21)
(0.16109832 -0.033036829 2.7616451e-22)
(0.16230432 -0.033713682 -2.395988e-22)
(0.16349565 -0.034568212 5.7777026e-21)
(0.16450891 -0.035433666 -2.8823918e-21)
(0.16507277 -0.03573566 -1.1096811e-20)
(0.16547712 -0.035971829 -2.9853419e-21)
(0.16650436 -0.037273584 1.4006416e-20)
(0.16765726 -0.038123564 2.5867016e-21)
(0.16759697 -0.038949188 -2.7165694e-21)
(0.16834624 -0.039182102 -9.765422e-21)
(0.16923958 -0.039937967 -5.7637949e-21)
(0.14741343 2.6090232e-05 0)
(0.14722544 -0.0019581842 0)
(0.14732985 -0.0017144647 -3.4761871e-21)
(0.14882963 2.7761776e-05 0)
(0.15071061 0.002408519 0)
(0.15205381 0.0041506568 -7.1761591e-21)
(0.1543614 0.004788424 1.1550048e-20)
(0.15780544 0.0043685944 -1.3136988e-22)
(0.16174631 0.0033332256 8.7400288e-22)
(0.16459476 0.0011459193 -1.7328501e-21)
(0.16608631 -0.00088903619 1.9681416e-20)
(0.16662579 -0.0038995108 1.8559995e-20)
(0.16773565 -0.0054148337 0)
(0.16853796 -0.0072792015 -4.6593518e-23)
(0.1662809 -0.010245895 -4.7713426e-21)
(0.16240748 -0.012344194 -1.0797882e-20)
(0.15879555 -0.013326583 -3.5961808e-20)
(0.15644545 -0.012283769 -4.1203109e-22)
(0.15531936 -0.0091075848 -4.9698843e-22)
(0.15458304 -0.0068216253 -4.6035196e-20)
(0.15481554 -0.009553139 2.6632185e-20)
(0.15652536 -0.014826373 -6.8802438e-22)
(0.15412187 -0.020221092 -2.8067377e-20)
(0.14505521 -0.023262251 6.079866e-22)
(0.13601875 -0.024433121 2.7885203e-22)
(0.13168923 -0.026014564 -1.1846138e-20)
(0.13048343 -0.026980388 -9.3194523e-23)
(0.13030492 -0.024760177 -5.6569692e-22)
(0.13195031 -0.021671273 1.7158097e-20)
(0.13478357 -0.017869229 -2.6843262e-20)
(0.13793039 -0.014892443 1.7424468e-20)
(0.14081604 -0.012983304 8.0789757e-21)
(0.14293734 -0.012269621 5.6563412e-23)
(0.14437373 -0.012711878 8.3266291e-21)
(0.1453795 -0.013829438 -1.1373392e-20)
(0.14635113 -0.015178302 1.0574699e-20)
(0.14753917 -0.016282419 3.7231937e-21)
(0.14916054 -0.016694152 -2.277e-21)
(0.15127015 -0.016453559 -7.6962333e-21)
(0.15311051 -0.01658708 -3.0459808e-21)
(0.15393431 -0.017867742 -1.2256258e-23)
(0.1537012 -0.020095995 -1.6003785e-21)
(0.15265735 -0.022648407 2.0952372e-20)
(0.15161441 -0.025283379 -6.521108e-21)
(0.15126913 -0.026990486 -9.7628971e-21)
(0.15176753 -0.027792466 3.7573541e-21)
(0.1528024 -0.028311048 -3.5620939e-21)
(0.15398772 -0.028745566 -8.6367098e-21)
(0.1553172 -0.029295685 2.1807377e-21)
(0.15677239 -0.029859904 3.635887e-21)
(0.15812248 -0.030186688 -3.3090872e-21)
(0.15945605 -0.030528029 5.6269106e-22)
(0.16091163 -0.030971748 6.9549218e-21)
(0.16232536 -0.03175331 5.2584424e-21)
(0.16348907 -0.032068896 4.5940889e-22)
(0.16421618 -0.032669597 4.1565737e-21)
(0.16490316 -0.033003543 8.6725971e-22)
(0.16633978 -0.034107574 2.8680923e-21)
(0.16703884 -0.035324841 -1.033317e-20)
(0.16787393 -0.035549118 -1.0397335e-20)
(0.16780921 -0.035864997 7.254769e-22)
(0.1680674 -0.036218333 2.0145799e-20)
(0.16907625 -0.03700896 3.5422135e-21)
(0.14742041 2.3020512e-06 2.7916338e-20)
(0.14729137 -0.0017961012 -6.4220177e-20)
(0.14735522 -0.0017894777 0)
(0.14885432 -4.5716642e-06 0)
(0.15074923 0.0023085155 7.6439143e-23)
(0.15206257 0.0040192098 -9.7135732e-23)
(0.15435215 0.0046495828 1.0655941e-22)
(0.15779767 0.0043921222 1.3970875e-22)
(0.16181678 0.0034220985 -2.6891613e-22)
(0.16471567 0.0011107096 -1.1377013e-20)
(0.16632875 -0.0010132249 5.3871829e-23)
(0.16682525 -0.0041861107 2.1258559e-20)
(0.16790526 -0.0055742953 -6.9031899e-21)
(0.16890347 -0.0072923851 0)
(0.16683183 -0.010792835 5.6927624e-21)
(0.16291212 -0.013377135 -2.4498491e-20)
(0.15905157 -0.014609274 -5.0552213e-20)
(0.15611459 -0.013289286 -1.9043567e-20)
(0.15476004 -0.0081720645 1.4104911e-20)
(0.15452289 -0.0044213289 2.1275774e-20)
(0.1555871 -0.0092293963 -4.1803824e-22)
(0.1576007 -0.015708889 4.7269423e-20)
(0.15522517 -0.019254064 1.3358809e-20)
(0.14619843 -0.020115626 1.459262e-21)
(0.13709416 -0.022146204 2.2496466e-20)
(0.13244435 -0.025105376 1.0139099e-21)
(0.1304045 -0.026434211 -7.6150227e-21)
(0.12951961 -0.024615265 2.9149705e-23)
(0.13065369 -0.021899944 -2.4381285e-21)
(0.13325903 -0.018227822 6.5836251e-21)
(0.13655729 -0.015493143 -2.6223742e-20)
(0.13976833 -0.013216181 1.1475366e-20)
(0.14234898 -0.011991243 -4.5284683e-21)
(0.14417914 -0.011611403 0)
(0.14547198 -0.012167192 0)
(0.14655407 -0.013198117 1.054554e-20)
(0.14757569 -0.014561584 -1.2885993e-22)
(0.14878316 -0.015541719 1.4005912e-21)
(0.15055399 -0.015860268 3.786374e-21)
(0.15274889 -0.015579428 4.0990321e-21)
(0.154465 -0.015998249 -3.7967755e-21)
(0.15498874 -0.017367801 -7.0313913e-21)
(0.1545218 -0.019596422 2.1422455e-20)
(0.15340402 -0.022209542 2.6702069e-21)
(0.15231591 -0.024374628 9.3080712e-21)
(0.15208877 -0.025768306 -4.3937519e-21)
(0.15276801 -0.026582366 -6.4056439e-21)
(0.1539116 -0.027132928 4.6914008e-21)
(0.15514883 -0.027517941 -2.4559592e-21)
(0.15635156 -0.027745018 -1.1138892e-20)
(0.15768678 -0.02811431 0)
(0.15919189 -0.028584606 -3.2880051e-21)
(0.16077468 -0.029269038 -7.9459786e-21)
(0.16191737 -0.029384512 -2.8687882e-21)
(0.16322205 -0.029882257 4.119477e-21)
(0.16438168 -0.030319471 2.984414e-21)
(0.16539755 -0.031336509 -1.8748517e-21)
(0.16692077 -0.032093286 7.2185952e-21)
(0.16699587 -0.032214754 -1.017287e-21)
(0.1674183 -0.032412353 -1.180548e-20)
(0.16806317 -0.032916981 -7.7294739e-21)
(0.16847387 -0.033787486 -2.0505344e-21)
(0.1692153 -0.03515159 1.1049377e-21)
(0.14741954 6.6599848e-05 -9.917093e-22)
(0.14735968 -0.0017231622 5.988327e-22)
(0.14740348 -0.0017639498 -3.0552946e-23)
(0.14886805 -0.00011490918 0)
(0.1507589 0.0022880773 1.5482787e-21)
(0.15207612 0.0039172906 4.2797391e-21)
(0.15434834 0.0046174855 -7.3390344e-21)
(0.15780298 0.0042970305 1.4736629e-20)
(0.16188456 0.003379175 4.3694331e-21)
(0.16487982 0.0010471431 5.5842736e-23)
(0.166611 -0.0012541111 -1.7338037e-20)
(0.16703683 -0.0046529501 -1.6629466e-20)
(0.16803846 -0.00553339 -1.4573967e-20)
(0.16926821 -0.0071061275 -2.0790651e-21)
(0.16744778 -0.010966276 -6.4792448e-24)
(0.16350856 -0.014157816 -1.7242388e-20)
(0.1593283 -0.015627674 2.8747685e-22)
(0.15564701 -0.014101962 -7.2754742e-22)
(0.15386037 -0.0073994499 2.0692101e-20)
(0.1544564 -0.0018091053 1.6764247e-20)
(0.15656779 -0.0079161335 2.8107171e-22)
(0.15861129 -0.01560737 -9.0649048e-22)
(0.15592997 -0.018110135 1.0570354e-20)
(0.14724705 -0.017748986 0)
(0.13844224 -0.020357966 -1.6843821e-20)
(0.13356533 -0.024784173 4.3878729e-21)
(0.13054055 -0.026376522 2.6338518e-22)
(0.12889213 -0.024281613 -1.543177e-23)
(0.12943888 -0.021200726 1.1778579e-20)
(0.13184125 -0.017821497 7.5515206e-21)
(0.13521494 -0.01551998 -2.0242512e-21)
(0.13859219 -0.013395784 -1.6204359e-21)
(0.14149629 -0.011962356 8.00102e-21)
(0.14370657 -0.010967341 -1.4958011e-21)
(0.14531226 -0.0110118 0)
(0.14661951 -0.011501343 -5.8133373e-21)
(0.14775199 -0.012465712 -9.7118089e-21)
(0.1487746 -0.013826788 0)
(0.15004575 -0.014732116 -2.0894189e-21)
(0.15199641 -0.014925584 7.0865804e-21)
(0.15419302 -0.014722299 -9.5667828e-21)
(0.15562024 -0.015227281 1.471134e-21)
(0.15591383 -0.016870997 -6.1812668e-21)
(0.15516742 -0.018942616 9.2771736e-21)
(0.15391119 -0.02133766 1.0571548e-20)
(0.15305355 -0.023455461 -1.6358284e-21)