/*--------------------------------*- C++ -*----------------------------------*\
| =========                 |                                                 |
| \\      /  F ield         | OpenFOAM: The Open Source CFD Toolbox           |
|  \\    /   O peration     | Version:  2406                                  |
|   \\  /    A nd           | Website:  www.openfoam.com                      |
|    \\/     M anipulation  |                                                 |
\*---------------------------------------------------------------------------*/
FoamFile
{
    version     2.0;
    format      ascii;
    arch        "LSB;label=32;scalar=64";
    class       volScalarField;
    location    "2";
    object      k_0;
}
// * * * * * * * * * * * * * * * * * * * * * * * * * * * * * * * * * * * * * //

dimensions      [0 2 -2 0 0 0 0];

internalField   nonuniform List<scalar> 
62344
(
4.3433342e-06
3.6983432e-06
3.1928383e-06
2.8649671e-06
2.7228088e-06
2.6642173e-06
2.6527715e-06
2.6447402e-06
2.6500613e-06
2.6441299e-06
2.6406503e-06
2.6307704e-06
2.6243289e-06
2.6248875e-06
2.6356231e-06
2.6301449e-06
2.6283706e-06
2.6414512e-06
2.6410169e-06
2.6438738e-06
2.6646951e-06
2.6741353e-06
2.6735447e-06
2.690382e-06
2.7167117e-06
2.7365863e-06
2.7590735e-06
2.7806114e-06
2.7936708e-06
2.8173752e-06
2.8552111e-06
2.8889704e-06
2.9134975e-06
2.9273702e-06
2.9415643e-06
2.9613881e-06
2.9847716e-06
3.0030705e-06
3.0136672e-06
3.0236149e-06
3.0320811e-06
3.0534053e-06
3.0669949e-06
3.0960433e-06
3.1173774e-06
3.1671196e-06
3.205651e-06
3.2669561e-06
3.3075749e-06
3.3806272e-06
3.4254612e-06
3.4819419e-06
3.5683375e-06
3.6111083e-06
3.7447069e-06
4.3482271e-06
3.7118844e-06
3.2092721e-06
2.8800107e-06
2.7373529e-06
2.6799993e-06
2.6686527e-06
2.6596844e-06
2.6645969e-06
2.6584302e-06
2.6532412e-06
2.6404522e-06
2.6325419e-06
2.6314705e-06
2.6380207e-06
2.62967e-06
2.6257637e-06
2.6369349e-06
2.6317864e-06
2.6323874e-06
2.6498684e-06
2.6532975e-06
2.6482384e-06
2.6609634e-06
2.6800342e-06
2.6954224e-06
2.7097697e-06
2.7186395e-06
2.722679e-06
2.739306e-06
2.7697996e-06
2.8007986e-06
2.8228771e-06
2.8397961e-06
2.8602885e-06
2.8951928e-06
2.9401847e-06
2.9795909e-06
3.0058092e-06
3.028573e-06
3.0450583e-06
3.0698119e-06
3.0942529e-06
3.1290056e-06
3.1664636e-06
3.1969327e-06
3.2303016e-06
3.2747433e-06
3.3216681e-06
3.3670686e-06
3.4146233e-06
3.4386167e-06
3.4974777e-06
3.5265113e-06
3.5936244e-06
4.3515061e-06
3.7191669e-06
3.2134404e-06
2.8789575e-06
2.7335645e-06
2.6758162e-06
2.6637486e-06
2.6547756e-06
2.6597712e-06
2.6549084e-06
2.6489752e-06
2.6347435e-06
2.627769e-06
2.6277391e-06
2.6327311e-06
2.6242628e-06
2.619848e-06
2.6313167e-06
2.6256018e-06
2.6257508e-06
2.6426618e-06
2.643806e-06
2.6395151e-06
2.6509755e-06
2.6689929e-06
2.6863283e-06
2.6979832e-06
2.701163e-06
2.7053659e-06
2.7204552e-06
2.7451701e-06
2.7669658e-06
2.7790553e-06
2.784838e-06
2.7936082e-06
2.8170943e-06
2.8479895e-06
2.8772473e-06
2.9074352e-06
2.9326691e-06
2.9720858e-06
3.0042436e-06
3.0430818e-06
3.0904705e-06
3.1497591e-06
3.1746831e-06
3.2120173e-06
3.2520492e-06
3.3009508e-06
3.3528025e-06
3.395561e-06
3.4313065e-06
3.4855657e-06
3.5103279e-06
3.5762253e-06
4.3556337e-06
3.7292274e-06
3.2241047e-06
2.8862071e-06
2.7371797e-06
2.6790186e-06
2.6667259e-06
2.6582103e-06
2.6630562e-06
2.6593103e-06
2.6528098e-06
2.6373691e-06
2.6310222e-06
2.6315622e-06
2.6342784e-06
2.6249855e-06
2.6196351e-06
2.6305393e-06
2.6247423e-06
2.6237698e-06
2.6390082e-06
2.6376868e-06
2.6344355e-06
2.6440386e-06
2.6595403e-06
2.6776908e-06
2.6881371e-06
2.6883279e-06
2.6950956e-06
2.7144017e-06
2.7375412e-06
2.7575941e-06
2.7704182e-06
2.7759424e-06
2.7840088e-06
2.8063484e-06
2.8352283e-06
2.8562141e-06
2.8703521e-06
2.8805506e-06
2.9010443e-06
2.9214658e-06
2.9584714e-06
2.9965109e-06
3.0543692e-06
3.0756656e-06
3.126928e-06
3.1515583e-06
3.2082505e-06
3.2703645e-06
3.3145067e-06
3.3774092e-06
3.4331221e-06
3.457333e-06
3.5265194e-06
4.3591446e-06
3.7373058e-06
3.2314862e-06
2.890952e-06
2.7410501e-06
2.6836935e-06
2.6708217e-06
2.6626483e-06
2.667316e-06
2.6644849e-06
2.6577561e-06
2.641702e-06
2.6363109e-06
2.6376389e-06
2.6381499e-06
2.6287732e-06
2.6231162e-06
2.6336426e-06
2.6275288e-06
2.6260587e-06
2.6395009e-06
2.6370609e-06
2.6359766e-06
2.6447002e-06
2.6583022e-06
2.6772686e-06
2.6872824e-06
2.6834193e-06
2.6900078e-06
2.7107539e-06
2.7324894e-06
2.7467031e-06
2.7558227e-06
2.7612936e-06
2.7713326e-06
2.7933243e-06
2.8187511e-06
2.8339537e-06
2.8430339e-06
2.8507597e-06
2.8668395e-06
2.8863389e-06
2.9194573e-06
2.9489497e-06
2.9787822e-06
2.9999188e-06
3.0357158e-06
3.0472522e-06
3.0944146e-06
3.1324202e-06
3.1883082e-06
3.2416994e-06
3.3071197e-06
3.331553e-06
3.3988978e-06
4.3625688e-06
3.745112e-06
3.2390354e-06
2.8953435e-06
2.7431758e-06
2.6861583e-06
2.6727973e-06
2.6654524e-06
2.6705173e-06
2.6685453e-06
2.6618117e-06
2.6454605e-06
2.6409999e-06
2.6433378e-06
2.6420882e-06
2.633302e-06
2.627826e-06
2.6383947e-06
2.63185e-06
2.630023e-06
2.6409578e-06
2.6382058e-06
2.6386923e-06
2.6464067e-06
2.6576038e-06
2.6758879e-06
2.6853061e-06
2.6791673e-06
2.6861847e-06
2.7097713e-06
2.731133e-06
2.740819e-06
2.7470328e-06
2.7552521e-06
2.7680715e-06
2.7892995e-06
2.8095941e-06
2.8218128e-06
2.8284877e-06
2.8344312e-06
2.8416101e-06
2.8609033e-06
2.8955639e-06
2.9224368e-06
2.9436356e-06
2.9580632e-06
2.9835733e-06
3.0097032e-06
3.0448887e-06
3.0584294e-06
3.0880476e-06
3.1239016e-06
3.1812509e-06
3.2135142e-06
3.2783352e-06
4.3657845e-06
3.7523463e-06
3.2461509e-06
2.900005e-06
2.7459988e-06
2.6893284e-06
2.6754814e-06
2.6686093e-06
2.6739798e-06
2.6726054e-06
2.6658565e-06
2.6493203e-06
2.6458413e-06
2.6488867e-06
2.6454942e-06
2.6375514e-06
2.6321217e-06
2.6423723e-06
2.635498e-06
2.6338065e-06
2.6419372e-06
2.6390234e-06
2.6413749e-06
2.6486744e-06
2.6577543e-06
2.6750915e-06
2.6847335e-06
2.6774354e-06
2.6832286e-06
2.7062556e-06
2.7265871e-06
2.7321431e-06
2.7355299e-06
2.7441306e-06
2.7590771e-06
2.7789126e-06
2.7954175e-06
2.8062798e-06
2.8139355e-06
2.8198189e-06
2.8322377e-06
2.8511995e-06
2.8797729e-06
2.9046846e-06
2.9214243e-06
2.9356412e-06
2.9580327e-06
2.986261e-06
3.0103925e-06
3.0163587e-06
3.0335674e-06
3.0586446e-06
3.1095023e-06
3.147886e-06
3.2175219e-06
4.3688693e-06
3.7591045e-06
3.2528289e-06
2.9045466e-06
2.7489944e-06
2.6925275e-06
2.6780108e-06
2.6715706e-06
2.6772539e-06
2.6764367e-06
2.6697845e-06
2.6531239e-06
2.6506533e-06
2.6546282e-06
2.6491284e-06
2.642307e-06
2.6380208e-06
2.6468304e-06
2.6401089e-06
2.6391411e-06
2.6447799e-06
2.6412473e-06
2.645357e-06
2.6527991e-06
2.6597834e-06
2.675709e-06
2.6846046e-06
2.6771669e-06
2.681799e-06
2.7042695e-06
2.7243017e-06
2.726782e-06
2.7251577e-06
2.7328359e-06
2.7497103e-06
2.7711243e-06
2.7861924e-06
2.7944298e-06
2.7987363e-06
2.802335e-06
2.8168778e-06
2.835496e-06
2.8618111e-06
2.8813083e-06
2.9028831e-06
2.9259079e-06
2.9357319e-06
2.9601249e-06
2.9729513e-06
2.9789919e-06
3.0092476e-06
3.0281541e-06
3.0604745e-06
3.0910573e-06
3.1405297e-06
4.3717561e-06
3.7653321e-06
3.2590377e-06
2.9088301e-06
2.7518405e-06
2.6954959e-06
2.6806531e-06
2.6745087e-06
2.6803781e-06
2.6799739e-06
2.6733707e-06
2.6567585e-06
2.6551269e-06
2.6600649e-06
2.65255e-06
2.646817e-06
2.6445538e-06
2.6514644e-06
2.6448347e-06
2.644731e-06
2.6486171e-06
2.6440676e-06
2.6498693e-06
2.6575938e-06
2.663155e-06
2.6772348e-06
2.685528e-06
2.6781144e-06
2.6813813e-06
2.7031256e-06
2.7224333e-06
2.7228248e-06
2.7172915e-06
2.7242185e-06
2.7434091e-06
2.7654425e-06
2.7769564e-06
2.7802991e-06
2.7838809e-06
2.7909215e-06
2.8035195e-06
2.8237274e-06
2.8430398e-06
2.8589795e-06
2.8834998e-06
2.899934e-06
2.9208229e-06
2.9428772e-06
2.9520031e-06
2.9703779e-06
2.9853957e-06
3.0025436e-06
3.022723e-06
3.0446829e-06
3.0754675e-06
4.3744737e-06
3.771103e-06
3.2648337e-06
2.9128204e-06
2.7544354e-06
2.697858e-06
2.6827868e-06
2.6770656e-06
2.6832468e-06
2.6832555e-06
2.6766131e-06
2.660317e-06
2.6591811e-06
2.6650156e-06
2.6561277e-06
2.6512523e-06
2.6512216e-06
2.6564351e-06
2.6501595e-06
2.6507421e-06
2.6533894e-06
2.6478628e-06
2.6551043e-06
2.6635528e-06
2.6684643e-06
2.6802591e-06
2.6877902e-06
2.6813639e-06
2.6839753e-06
2.7039532e-06
2.7224139e-06
2.7224572e-06
2.713749e-06
2.7174814e-06
2.7366224e-06
2.7587835e-06
2.7693788e-06
2.7724352e-06
2.7770362e-06
2.7836805e-06
2.7945808e-06
2.8094249e-06
2.8235187e-06
2.8419735e-06
2.860965e-06
2.8788557e-06
2.910661e-06
2.923297e-06
2.9423881e-06
2.9490202e-06
2.9607587e-06
2.9878032e-06
2.9986222e-06
3.0136727e-06
3.0313328e-06
4.3769974e-06
3.7764482e-06
3.2702338e-06
2.9166808e-06
2.7568438e-06
2.699925e-06
2.68455e-06
2.6792551e-06
2.6856889e-06
2.6861459e-06
2.6795572e-06
2.6637e-06
2.6627999e-06
2.6692581e-06
2.6596904e-06
2.6555093e-06
2.657547e-06
2.661212e-06
2.6556429e-06
2.6569181e-06
2.6588425e-06
2.652547e-06
2.6608563e-06
2.6700156e-06
2.6749642e-06
2.6842405e-06
2.6910822e-06
2.6862999e-06
2.6889164e-06
2.7065998e-06
2.7236122e-06
2.7241033e-06
2.7144268e-06
2.7156247e-06
2.7338247e-06
2.7565047e-06
2.7667261e-06
2.7692391e-06
2.7713235e-06
2.776147e-06
2.7855533e-06
2.7988297e-06
2.8137579e-06
2.8319149e-06
2.8505325e-06
2.868354e-06
2.8894411e-06
2.8987419e-06
2.9159322e-06
2.9232826e-06
2.9449319e-06
2.9554904e-06
2.9624132e-06
2.9767864e-06
3.0019981e-06
4.3793186e-06
3.7813664e-06
3.2752771e-06
2.9204622e-06
2.759333e-06
2.7019107e-06
2.6863446e-06
2.6812476e-06
2.6879296e-06
2.688824e-06
2.6821918e-06
2.6669095e-06
2.6661407e-06
2.672913e-06
2.6629737e-06
2.6596665e-06
2.6633967e-06
2.6657096e-06
2.6612258e-06
2.6631226e-06
2.6646507e-06
2.6577341e-06
2.6665098e-06
2.6766828e-06
2.6822107e-06
2.6893478e-06
2.6948034e-06
2.6917464e-06
2.6949267e-06
2.7107584e-06
2.7267142e-06
2.7289947e-06
2.7196743e-06
2.7186422e-06
2.7354041e-06
2.7567957e-06
2.7665681e-06
2.7665624e-06
2.7647503e-06
2.7686679e-06
2.7814691e-06
2.8010483e-06
2.8174987e-06
2.8256226e-06
2.8338009e-06
2.8465855e-06
2.8608744e-06
2.8743443e-06
2.8900387e-06
2.8960866e-06
2.910466e-06
2.9216193e-06
2.9410953e-06
2.9629175e-06
2.981338e-06
4.3815507e-06
3.785928e-06
3.280077e-06
2.9240691e-06
2.7617801e-06
2.7039322e-06
2.6882701e-06
2.6832848e-06
2.6902129e-06
2.6914314e-06
2.6846474e-06
2.6700017e-06
2.6694467e-06
2.6762364e-06
2.6658281e-06
2.6633589e-06
2.6685389e-06
2.6696615e-06
2.6665226e-06
2.6690589e-06
2.670288e-06
2.6631724e-06
2.6718017e-06
2.6835891e-06
2.6901248e-06
2.6952656e-06
2.6991529e-06
2.697792e-06
2.7021682e-06
2.7161961e-06
2.7310537e-06
2.7351152e-06
2.7268367e-06
2.7250617e-06
2.7396896e-06
2.7598981e-06
2.7696083e-06
2.7677115e-06
2.7646128e-06
2.7685407e-06
2.7823944e-06
2.8011607e-06
2.8141938e-06
2.8213794e-06
2.8266656e-06
2.833254e-06
2.8429757e-06
2.8555384e-06
2.871771e-06
2.8821855e-06
2.8967631e-06
2.9091469e-06
2.9286781e-06
2.938054e-06
2.9460632e-06
4.3836577e-06
3.7902364e-06
3.2846706e-06
2.9274716e-06
2.7641036e-06
2.7058573e-06
2.6900833e-06
2.6853335e-06
2.6924174e-06
2.6938894e-06
2.6869461e-06
2.672886e-06
2.6723808e-06
2.6790443e-06
2.6683164e-06
2.6665516e-06
2.6732199e-06
2.6734602e-06
2.671299e-06
2.6744899e-06
2.6754106e-06
2.6687846e-06
2.6768494e-06
2.6897955e-06
2.6975435e-06
2.70154e-06
2.7039855e-06
2.7042187e-06
2.7101207e-06
2.7222127e-06
2.735107e-06
2.7405718e-06
2.7352076e-06
2.7347098e-06
2.7480758e-06
2.7655718e-06
2.7748901e-06
2.7736623e-06
2.7707852e-06
2.7728104e-06
2.7838783e-06
2.8001783e-06
2.8148564e-06
2.8229635e-06
2.8295657e-06
2.8343705e-06
2.8413292e-06
2.8528086e-06
2.8662302e-06
2.8787806e-06
2.8925753e-06
2.9101261e-06
2.9235139e-06
2.9295179e-06
2.9347868e-06
4.3856038e-06
3.7942341e-06
3.2890535e-06
2.930666e-06
2.7663262e-06
2.707573e-06
2.6916941e-06
2.6871952e-06
2.6943117e-06
2.695923e-06
2.6889176e-06
2.67537e-06
2.6748064e-06
2.6813363e-06
2.6703615e-06
2.6693799e-06
2.6771602e-06
2.6766233e-06
2.6753342e-06
2.6789462e-06
2.6794519e-06
2.673601e-06
2.6810908e-06
2.6950655e-06
2.704066e-06
2.7072215e-06
2.7085161e-06
2.7104442e-06
2.7176615e-06
2.7286888e-06
2.7391465e-06
2.7444259e-06
2.7425431e-06
2.7435939e-06
2.7546225e-06
2.7683491e-06
2.7767766e-06
2.7772376e-06
2.7738553e-06
2.774031e-06
2.7838954e-06
2.8000882e-06
2.8176599e-06
2.8303714e-06
2.8375758e-06
2.8417263e-06
2.8437714e-06
2.8496063e-06
2.8603274e-06
2.8701429e-06
2.8811626e-06
2.9006268e-06
2.9175539e-06
2.9278237e-06
2.9321177e-06
4.3874403e-06
3.7978932e-06
3.2932278e-06
2.9336025e-06
2.768429e-06
2.7091439e-06
2.6930976e-06
2.6887108e-06
2.6958536e-06
2.6977314e-06
2.6905698e-06
2.6774131e-06
2.6768943e-06
2.6834693e-06
2.6724223e-06
2.67183e-06
2.6801565e-06
2.6790829e-06
2.6783839e-06
2.682113e-06
2.6822898e-06
2.6776114e-06
2.6842504e-06
2.6986382e-06
2.7087278e-06
2.7115535e-06
2.7123794e-06
2.7153618e-06
2.7240883e-06
2.7341613e-06
2.7421996e-06
2.7466097e-06
2.7474654e-06
2.7502965e-06
2.7593956e-06
2.7701251e-06
2.7776652e-06
2.7799559e-06
2.7779536e-06
2.7804797e-06
2.7900692e-06
2.8068458e-06
2.8260042e-06
2.8391201e-06
2.8455681e-06
2.8484482e-06
2.849696e-06
2.8530309e-06
2.8619977e-06
2.8741831e-06
2.8921305e-06
2.9068632e-06
2.9169908e-06
2.9229724e-06
2.9356585e-06
4.3891567e-06
3.801286e-06
3.2971635e-06
2.936442e-06
2.7703121e-06
2.7105854e-06
2.6943308e-06
2.6899571e-06
2.697062e-06
2.699389e-06
2.6921892e-06
2.6794061e-06
2.6787642e-06
2.6853799e-06
2.6744729e-06
2.6739663e-06
2.6823331e-06
2.680922e-06
2.6809324e-06
2.6845082e-06
2.6845187e-06
2.6812082e-06
2.6864794e-06
2.7007166e-06
2.7121275e-06
2.7148977e-06
2.7146958e-06
2.718214e-06
2.7279846e-06
2.7381736e-06
2.7441214e-06
2.747105e-06
2.7486791e-06
2.7525189e-06
2.7603805e-06
2.7681623e-06
2.773491e-06
2.7760525e-06
2.7764469e-06
2.7799688e-06
2.7894975e-06
2.8054754e-06
2.8232612e-06
2.834244e-06
2.8430036e-06
2.8497301e-06
2.8511431e-06
2.8517944e-06
2.859491e-06
2.8808938e-06
2.9008555e-06
2.911006e-06
2.9180645e-06
2.9268307e-06
2.9521685e-06
4.3907659e-06
3.8044568e-06
3.3008452e-06
2.9391411e-06
2.7722828e-06
2.7120405e-06
2.6955576e-06
2.6911177e-06
2.6981997e-06
2.7008918e-06
2.6937188e-06
2.681198e-06
2.6802454e-06
2.6865879e-06
2.6760016e-06
2.6757221e-06
2.6836017e-06
2.6818234e-06
2.6824652e-06
2.6856911e-06
2.6853552e-06
2.6832469e-06
2.6873701e-06
2.7011469e-06
2.7132055e-06
2.7157684e-06
2.7143204e-06
2.7186352e-06
2.7298955e-06
2.7403828e-06
2.7441618e-06
2.7451634e-06
2.7477208e-06
2.7536506e-06
2.7614165e-06
2.7663595e-06
2.7680334e-06
2.7692999e-06
2.7724083e-06
2.776571e-06
2.7883657e-06
2.803356e-06
2.8187999e-06
2.8309087e-06
2.8411645e-06
2.8475124e-06
2.8478882e-06
2.8541441e-06
2.8628689e-06
2.8799478e-06
2.8935026e-06
2.9033263e-06
2.9144328e-06
2.9363839e-06
2.9588276e-06
4.392277e-06
3.8074319e-06
3.3042971e-06
2.9415584e-06
2.7737764e-06
2.7129656e-06
2.6963307e-06
2.6920649e-06
2.6995031e-06
2.7026147e-06
2.6957479e-06
2.6835555e-06
2.6820513e-06
2.6881255e-06
2.6781456e-06
2.6781623e-06
2.6856344e-06
2.6835057e-06
2.6848552e-06
2.6877044e-06
2.6866512e-06
2.685243e-06
2.6878555e-06
2.7009225e-06
2.7131676e-06
2.7150919e-06
2.7123617e-06
2.716719e-06
2.7288122e-06
2.7390481e-06
2.7407157e-06
2.7397214e-06
2.7427858e-06
2.7495411e-06
2.7566869e-06
2.7588674e-06
2.757316e-06
2.7568906e-06
2.7600468e-06
2.7657931e-06
2.778676e-06
2.7922812e-06
2.8062589e-06
2.8191717e-06
2.8288136e-06
2.8326515e-06
2.8410761e-06
2.8445922e-06
2.8570884e-06
2.8694858e-06
2.8814656e-06
2.8912279e-06
2.9051552e-06
2.9301979e-06
2.9547346e-06
4.3937042e-06
3.8101116e-06
3.3072915e-06
2.9438351e-06
2.7758364e-06
2.714784e-06
2.6979053e-06
2.6935124e-06
2.7006665e-06
2.7037264e-06
2.6969976e-06
2.685058e-06
2.6827863e-06
2.6880937e-06
2.6783585e-06
2.678732e-06
2.6857566e-06
2.682936e-06
2.6849225e-06
2.687264e-06
2.685423e-06
2.6846341e-06
2.6860475e-06
2.6984243e-06
2.7107058e-06
2.7121408e-06
2.7078368e-06
2.7116641e-06
2.7245013e-06
2.7347522e-06
2.7354567e-06
2.7325931e-06
2.7346198e-06
2.7421237e-06
2.7492692e-06
2.7493092e-06
2.7446905e-06
2.7425859e-06
2.745828e-06
2.7521998e-06
2.764001e-06
2.7770017e-06
2.7885416e-06
2.7961117e-06
2.8055949e-06
2.8118999e-06
2.8186824e-06
2.8221353e-06
2.8299636e-06
2.8366325e-06
2.8492734e-06
2.8582173e-06
2.8732127e-06
2.8991402e-06
2.9206013e-06
4.3950858e-06
3.8125116e-06
3.3099858e-06
2.9449535e-06
2.7750916e-06
2.7126964e-06
2.6956113e-06
2.6916232e-06
2.6992791e-06
2.7029992e-06
2.6968569e-06
2.6854692e-06
2.6829613e-06
2.6882376e-06
2.6791393e-06
2.6798701e-06
2.6865953e-06
2.6833579e-06
2.6856369e-06
2.687287e-06
2.6839606e-06
2.6832596e-06
2.6839274e-06
2.695552e-06
2.7077133e-06
2.7088966e-06
2.7032852e-06
2.7059446e-06
2.7182968e-06
2.7276214e-06
2.7265816e-06
2.7214052e-06
2.7223031e-06
2.7308293e-06
2.7377961e-06
2.7359856e-06
2.7296767e-06
2.7258694e-06
2.7279571e-06
2.7352871e-06
2.7465517e-06
2.7585871e-06
2.7704861e-06
2.7770728e-06
2.7866967e-06
2.7947735e-06
2.8020773e-06
2.8063502e-06
2.8143904e-06
2.820865e-06
2.830703e-06
2.8397275e-06
2.858101e-06
2.8773502e-06
2.8976245e-06
4.3964284e-06
3.8132383e-06
3.3083517e-06
2.9415886e-06
2.7724679e-06
2.7109324e-06
2.6939903e-06
2.6903917e-06
2.6981287e-06
2.7020342e-06
2.6961616e-06
2.6853225e-06
2.6825874e-06
2.6872986e-06
2.6781406e-06
2.6787024e-06
2.6847141e-06
2.6805576e-06
2.6824937e-06
2.6832606e-06
2.6787153e-06
2.6778062e-06
2.6774473e-06
2.6876911e-06
2.6995583e-06
2.7002799e-06
2.6932932e-06
2.6944583e-06
2.7061971e-06
2.715588e-06
2.7136922e-06
2.7070506e-06
2.7060546e-06
2.7137722e-06
2.7214647e-06
2.7200831e-06
2.7110487e-06
2.7036959e-06
2.7031958e-06
2.7100438e-06
2.7203977e-06
2.7303625e-06
2.7380124e-06
2.7424622e-06
2.7484105e-06
2.7545462e-06
2.7591921e-06
2.7630529e-06
2.767522e-06
2.7703686e-06
2.7765465e-06
2.7827261e-06
2.7953572e-06
2.8112171e-06
2.8305673e-06
4.3975787e-06
3.8105381e-06
3.3000972e-06
2.926951e-06
2.7519109e-06
2.6872576e-06
2.6685084e-06
2.66335e-06
2.6693605e-06
2.6716818e-06
2.6647977e-06
2.6529512e-06
2.6489814e-06
2.652269e-06
2.6428508e-06
2.6430128e-06
2.6480931e-06
2.6431932e-06
2.6450629e-06
2.6453184e-06
2.6397774e-06
2.6390629e-06
2.638207e-06
2.6473837e-06
2.6588932e-06
2.6600874e-06
2.6534568e-06
2.6553807e-06
2.6682379e-06
2.6798394e-06
2.6796839e-06
2.6736063e-06
2.6733201e-06
2.6825072e-06
2.6923371e-06
2.6928722e-06
2.6852197e-06
2.6781552e-06
2.6776992e-06
2.685148e-06
2.6962369e-06
2.7079751e-06
2.7157608e-06
2.71931e-06
2.7253985e-06
2.7305293e-06
2.7373697e-06
2.7451047e-06
2.7513644e-06
2.7613185e-06
2.7670918e-06
2.7741326e-06
2.7887772e-06
2.8045003e-06
2.8184043e-06
4.3949144e-06
3.7982508e-06
3.2687506e-06
2.8809032e-06
2.6965882e-06
2.6256313e-06
2.6029963e-06
2.5966411e-06
2.6016393e-06
2.603683e-06
2.5971829e-06
2.5863344e-06
2.5834785e-06
2.5885188e-06
2.5807144e-06
2.5821371e-06
2.5888621e-06
2.586875e-06
2.5911903e-06
2.5943115e-06
2.5910418e-06
2.5919812e-06
2.5917904e-06
2.6005495e-06
2.6125569e-06
2.6159148e-06
2.6104747e-06
2.6133639e-06
2.628392e-06
2.6428481e-06
2.6460999e-06
2.6414369e-06
2.6418596e-06
2.6529595e-06
2.665722e-06
2.6696003e-06
2.6644056e-06
2.6572252e-06
2.6560524e-06
2.6639748e-06
2.6773262e-06
2.6899369e-06
2.6962025e-06
2.6984037e-06
2.6983459e-06
2.6999658e-06
2.7031932e-06
2.7066509e-06
2.7103936e-06
2.713026e-06
2.7159793e-06
2.7198512e-06
2.7245209e-06
2.730844e-06
2.7351581e-06
4.403401e-06
3.7284955e-06
3.0941396e-06
2.6417637e-06
2.4439215e-06
2.3910602e-06
2.3974523e-06
2.4212468e-06
2.46302e-06
2.5046603e-06
2.539928e-06
2.5644361e-06
2.5985559e-06
2.647757e-06
2.6785431e-06
2.7185008e-06
2.7672007e-06
2.8063134e-06
2.850132e-06
2.8905579e-06
2.9196348e-06
2.9513257e-06
2.9700316e-06
2.9918281e-06
3.020739e-06
3.0591227e-06
3.0701187e-06
3.0902854e-06
3.1236905e-06
3.1531972e-06
3.1696766e-06
3.1786421e-06
3.1799057e-06
3.1864596e-06
3.1918423e-06
3.1927989e-06
3.1867332e-06
3.1756704e-06
3.165091e-06
3.1653783e-06
3.1690137e-06
3.1689411e-06
3.1660599e-06
3.1551994e-06
3.1395328e-06
3.126475e-06
3.1066057e-06
3.0923751e-06
3.0799535e-06
3.0668604e-06
3.0545307e-06
3.043161e-06
3.0306155e-06
3.0281929e-06
3.006389e-06
4.2017559e-06
3.0389047e-06
2.3505492e-06
2.4693554e-06
3.1885145e-06
4.092667e-06
4.9075243e-06
5.5508282e-06
6.1727731e-06
6.7609427e-06
7.3013975e-06
7.6898276e-06
8.0572916e-06
8.4869081e-06
8.7749379e-06
9.0620845e-06
9.3599293e-06
9.5638819e-06
9.7583922e-06
9.9194928e-06
1.0003536e-05
1.0080726e-05
1.0052955e-05
1.0039009e-05
1.0032729e-05
1.0069433e-05
9.9978148e-06
9.9125688e-06
9.8710434e-06
9.8145683e-06
9.709416e-06
9.5751362e-06
9.4068121e-06
9.2207459e-06
9.0245626e-06
8.8562654e-06
8.6404048e-06
8.4206427e-06
8.1800321e-06
7.9464374e-06
7.7163957e-06
7.553556e-06
7.3877126e-06
7.1527672e-06
6.9405735e-06
6.7912514e-06
6.5469701e-06
6.3549262e-06
6.1473193e-06
6.0464464e-06
5.8738993e-06
5.7440297e-06
5.5442873e-06
5.4601067e-06
5.2586342e-06
8.0387817e-06
1.9554304e-05
4.6164529e-05
7.7559825e-05
9.1244201e-05
9.1948953e-05
9.0209506e-05
8.8558786e-05
8.7998639e-05
8.8484446e-05
8.8265808e-05
8.6001265e-05
8.2277092e-05
7.9065269e-05
7.5716348e-05
7.2004501e-05
6.9087354e-05
6.6164648e-05
6.3421947e-05
6.0959093e-05
5.7859935e-05
5.4641019e-05
5.117422e-05
4.7989384e-05
4.5495246e-05
4.3323802e-05
4.0790161e-05
3.7587562e-05
3.4825123e-05
3.2642918e-05
3.0642054e-05
2.8512127e-05
2.6132814e-05
2.4087762e-05
2.2173386e-05
2.0616556e-05
1.9047747e-05
1.7338608e-05
1.5981725e-05
1.5172106e-05
1.4405313e-05
1.3794074e-05
1.3192703e-05
1.2499604e-05
1.2052603e-05
1.1798953e-05
1.1671755e-05
1.1666448e-05
1.1822395e-05
1.2178234e-05
1.2645784e-05
1.3194109e-05
1.3927953e-05
1.5084824e-05
1.6103328e-05
1.7743226e-05
5.3774532e-06
3.0555158e-06
2.7512781e-06
2.8282362e-06
2.8399944e-06
2.9080225e-06
2.9285468e-06
2.9685169e-06
2.9732219e-06
2.9771202e-06
2.9782403e-06
2.9585491e-06
2.9557537e-06
2.9580551e-06
2.9889863e-06
3.0185916e-06
3.0445679e-06
3.0874499e-06
3.1462878e-06
3.2336665e-06
3.3065295e-06
3.4099884e-06
3.5396687e-06
3.6483824e-06
3.6965647e-06
3.7841818e-06
2.0160737e-05
5.4900788e-06
3.1081825e-06
2.7722415e-06
2.8521254e-06
2.8596768e-06
2.9277162e-06
2.9398479e-06
2.9796129e-06
2.9835841e-06
2.9895408e-06
3.0056745e-06
2.998099e-06
2.9953976e-06
3.0031711e-06
3.0075885e-06
3.0401892e-06
3.0920072e-06
3.116286e-06
3.1573679e-06
3.2346634e-06
3.3233026e-06
3.4208851e-06
3.5454004e-06
3.6644784e-06
3.7380162e-06
3.8005734e-06
2.3654475e-05
5.6997225e-06
3.163551e-06
2.7827197e-06
2.8749017e-06
2.8741227e-06
2.9494464e-06
2.9637736e-06
2.9993854e-06
3.0074511e-06
3.0146903e-06
3.0232767e-06
3.0133515e-06
3.0131416e-06
3.0283668e-06
3.0470059e-06
3.0852681e-06
3.1400738e-06
3.1748591e-06
3.1826296e-06
3.2365559e-06
3.3275176e-06
3.4407434e-06
3.5589818e-06
3.7092912e-06
3.8044204e-06
3.8448257e-06
2.7038932e-05
5.7824516e-06
3.2157769e-06
2.796548e-06
2.8857713e-06
2.8788895e-06
2.9604548e-06
2.9753181e-06
3.012725e-06
3.0334228e-06
3.0416125e-06
3.0381514e-06
3.025106e-06
3.0339886e-06
3.0510028e-06
3.0788601e-06
3.1283562e-06
3.1658071e-06
3.2119586e-06
3.2361398e-06
3.2635256e-06
3.3432769e-06
3.4584857e-06
3.5689016e-06
3.7543651e-06
3.8917745e-06
3.9173467e-06
3.1876112e-05
6.0705145e-06
3.2694117e-06
2.8142194e-06
2.909611e-06
2.8948316e-06
2.9765534e-06
2.9892768e-06
3.0369886e-06
3.0594828e-06
3.0653469e-06
3.060881e-06
3.0572154e-06
3.0691783e-06
3.0838278e-06
3.1035131e-06
3.1565992e-06
3.184497e-06
3.2435007e-06
3.2876653e-06
3.3132426e-06
3.3933181e-06
3.4858488e-06
3.5879299e-06
3.7853869e-06
3.9474208e-06
3.9770271e-06
3.7107688e-05
6.3203941e-06
3.3061961e-06
2.8222689e-06
2.9234881e-06
2.9047048e-06
2.9985032e-06
3.0126132e-06
3.0636661e-06
3.0852862e-06
3.0922467e-06
3.097499e-06
3.0946121e-06
3.094124e-06
3.1068094e-06
3.1251685e-06
3.1733013e-06
3.2201002e-06
3.2664296e-06
3.3181163e-06
3.3541582e-06
3.4430921e-06
3.5369666e-06
3.6298277e-06
3.8144938e-06
3.983251e-06
4.0704578e-06
4.4360219e-05
6.6748866e-06
3.3433259e-06
2.8350555e-06
2.9432577e-06
2.915193e-06
3.0139632e-06
3.0290669e-06
3.0811944e-06
3.1042818e-06
3.1185275e-06
3.1372546e-06
3.1350025e-06
3.1340085e-06
3.139494e-06
3.1611596e-06
3.183905e-06
3.2408815e-06
3.2783314e-06
3.3310734e-06
3.3870655e-06
3.4699359e-06
3.6144007e-06
3.7215144e-06
3.8633204e-06
4.0089663e-06
4.1899385e-06
5.3181912e-05
7.1476566e-06
3.4183581e-06
2.8630773e-06
2.9779563e-06
2.9399848e-06
3.0339168e-06
3.0456241e-06
3.0978111e-06
3.1239574e-06
3.1390248e-06
3.1660227e-06
3.1711799e-06
3.1816957e-06
3.1879135e-06
3.1983801e-06
3.2069874e-06
3.2495726e-06
3.2798614e-06
3.3344034e-06
3.4018932e-06
3.4818383e-06
3.6537224e-06
3.7730482e-06
3.9075081e-06
4.0547084e-06
4.299069e-06
6.4534801e-05
7.9003365e-06
3.4788013e-06
2.8847094e-06
3.0119194e-06
2.9710696e-06
3.0719243e-06
3.0790425e-06
3.1256639e-06
3.1562329e-06
3.1693049e-06
3.1938492e-06
3.2035756e-06
3.2183172e-06
3.22992e-06
3.2346599e-06
3.2495551e-06
3.2594581e-06
3.2915851e-06
3.3523222e-06
3.424495e-06
3.4939381e-06
3.6647784e-06
3.7901887e-06
3.9259411e-06
4.1188579e-06
4.3738229e-06
7.7419593e-05
8.9450052e-06
3.5955085e-06
2.9076314e-06
3.0406106e-06
2.9995188e-06
3.1118877e-06
3.1214055e-06
3.1786662e-06
3.2144973e-06
3.2156165e-06
3.2211106e-06
3.2268519e-06
3.2340418e-06
3.2520384e-06
3.2669957e-06
3.2857487e-06
3.2925511e-06
3.3437951e-06
3.417759e-06
3.4774107e-06
3.5195454e-06
3.6641103e-06
3.788687e-06
3.9214956e-06
4.1687055e-06
4.4058482e-06
9.2589649e-05
9.951361e-06
3.6510149e-06
2.9287346e-06
3.0742999e-06
3.0350758e-06
3.1512418e-06
3.1590874e-06
3.2277827e-06
3.2668715e-06
3.2723666e-06
3.26432e-06
3.2567096e-06
3.2559585e-06
3.2669414e-06
3.289123e-06
3.3100871e-06
3.3512397e-06
3.4177127e-06
3.4897869e-06
3.5488901e-06
3.5839101e-06
3.6740575e-06
3.7803233e-06
3.9245569e-06
4.1868379e-06
4.4255537e-06
0.00010992121
1.1433244e-05
3.793978e-06
2.9647611e-06
3.1150778e-06
3.0727698e-06
3.1970861e-06
3.2006328e-06
3.2757249e-06
3.3096515e-06
3.3211832e-06
3.323654e-06
3.3087687e-06
3.3068588e-06
3.2970547e-06
3.3201655e-06
3.3424935e-06
3.4113195e-06
3.4839782e-06
3.5434973e-06
3.6102063e-06
3.6582837e-06
3.7123817e-06
3.798498e-06
3.9730233e-06
4.180898e-06
4.4631553e-06
0.00012866625
1.3183532e-05
3.9260969e-06
2.9928946e-06
3.1508925e-06
3.1059098e-06
3.2383224e-06
3.2463532e-06
3.3238114e-06
3.348948e-06
3.3644978e-06
3.390503e-06
3.3763672e-06
3.3709181e-06
3.3548697e-06
3.3696557e-06
3.3931331e-06
3.4605372e-06
3.5309485e-06
3.5760172e-06
3.6613409e-06
3.7115994e-06
3.7521876e-06
3.8529357e-06
4.0574665e-06
4.1857197e-06
4.4702057e-06
0.00014925146
1.5638451e-05
4.1637363e-06
3.0306627e-06
3.1740999e-06
3.1232759e-06
3.2569881e-06
3.2711533e-06
3.3515258e-06
3.3841373e-06
3.4018877e-06
3.4451546e-06
3.4575314e-06
3.4596597e-06
3.4544585e-06
3.456022e-06
3.4783492e-06
3.5099123e-06
3.5693834e-06
3.6037216e-06
3.6992885e-06
3.7387384e-06
3.7853735e-06
3.8971991e-06
4.1194368e-06
4.2018459e-06
4.4644928e-06
0.0001708423
1.8663841e-05
4.3553551e-06
3.0458273e-06
3.1870198e-06
3.1405499e-06
3.2771166e-06
3.2943457e-06
3.3663387e-06
3.4042489e-06
3.434422e-06
3.4762042e-06
3.5048095e-06
3.5148475e-06
3.5312167e-06
3.5343348e-06
3.5534552e-06
3.5670261e-06
3.6036718e-06
3.6330862e-06
3.7305805e-06
3.7597121e-06
3.8068932e-06
3.9173556e-06
4.1418791e-06
4.2168188e-06
4.4571432e-06
0.00019665865
2.2325019e-05
4.8375976e-06
3.1111217e-06
3.2039893e-06
3.1530685e-06
3.29149e-06
3.3210355e-06
3.4026608e-06
3.4495104e-06
3.4904536e-06
3.5158323e-06
3.5516436e-06
3.5740138e-06
3.6073366e-06
3.6151536e-06
3.6238603e-06
3.6401909e-06
3.6643821e-06
3.6950396e-06
3.7791324e-06
3.7899561e-06
3.8330951e-06
3.9355496e-06
4.1474879e-06
4.2300731e-06
4.4722522e-06
0.00022696242
2.6463475e-05
5.0628777e-06
3.1195365e-06
3.2123874e-06
3.1667621e-06
3.3080279e-06
3.3440741e-06
3.433276e-06
3.4795212e-06
3.534055e-06
3.561001e-06
3.5894743e-06
3.6250539e-06
3.6583683e-06
3.6746371e-06
3.6802449e-06
3.7103567e-06
3.7435766e-06
3.7904802e-06
3.8468209e-06
3.8324009e-06
3.8689949e-06
3.9599489e-06
4.1485506e-06
4.2471464e-06
4.4978502e-06
0.00026188749
3.1933563e-05
5.8687433e-06
3.2041141e-06
3.2359345e-06
3.1966974e-06
3.3385334e-06
3.3838425e-06
3.4922496e-06
3.5358533e-06
3.589736e-06
3.6181228e-06
3.6279518e-06
3.6566661e-06
3.6839777e-06
3.701066e-06
3.7148106e-06
3.7608723e-06
3.8153405e-06
3.8792937e-06
3.9183557e-06
3.928538e-06
3.9489548e-06
3.9995455e-06
4.157863e-06
4.2794145e-06
4.5284104e-06
0.0003017295
3.69987e-05
6.4718812e-06
3.2858544e-06
3.2772823e-06
3.2325343e-06
3.3763249e-06
3.4211841e-06
3.5457986e-06
3.5873793e-06
3.6398612e-06
3.6692542e-06
3.6737245e-06
3.6986005e-06
3.7043788e-06
3.7132753e-06
3.7339681e-06
3.7877096e-06
3.864028e-06
3.9384086e-06
3.978705e-06
4.0548376e-06
4.079516e-06
4.0806644e-06
4.1825352e-06
4.31878e-06
4.5557788e-06
0.00034370917
4.3557942e-05
7.3261178e-06
3.3747257e-06
3.320564e-06
3.2785147e-06
3.4156763e-06
3.4686811e-06
3.6058182e-06
3.6382529e-06
3.6880945e-06
3.7103995e-06
3.714442e-06
3.7250126e-06
3.7275186e-06
3.7312117e-06
3.7522169e-06
3.8001057e-06
3.889367e-06
3.9665376e-06
4.0199573e-06
4.1425813e-06
4.1889675e-06
4.1819722e-06
4.271178e-06
4.4170071e-06
4.5958332e-06
0.00038286653
5.0426374e-05
8.430204e-06
3.5723294e-06
3.3798719e-06
3.3298185e-06
3.4669196e-06
3.5257893e-06
3.6784013e-06
3.7139761e-06
3.7629064e-06
3.7651648e-06
3.7606172e-06
3.7510119e-06
3.7408792e-06
3.7383089e-06
3.7574009e-06
3.8042999e-06
3.900416e-06
3.971705e-06
4.0477652e-06
4.17892e-06
4.2575464e-06
4.2550008e-06
4.3966627e-06
4.5337938e-06
4.6318698e-06
0.00042048883
5.6852882e-05
9.1376135e-06
3.6222517e-06
3.4276398e-06
3.3703186e-06
3.5124909e-06
3.5736443e-06
3.7402934e-06
3.7851443e-06
3.8419579e-06
3.8326326e-06
3.8221048e-06
3.7991007e-06
3.7682704e-06
3.761386e-06
3.7762835e-06
3.81687e-06
3.9087606e-06
3.9727239e-06
4.0649737e-06
4.1742574e-06
4.2688733e-06
4.2866488e-06
4.4686955e-06
4.6084638e-06
4.6621034e-06
0.00045495892
6.5172561e-05
1.0662562e-05
3.850571e-06
3.4647764e-06
3.4007618e-06
3.5453658e-06
3.6132864e-06
3.7918039e-06
3.8585009e-06
3.92495e-06
3.9258934e-06
3.9172932e-06
3.8845008e-06
3.8371914e-06