/*--------------------------------*- C++ -*----------------------------------*\
| =========                 |                                                 |
| \\      /  F ield         | OpenFOAM: The Open Source CFD Toolbox           |
|  \\    /   O peration     | Version:  2406                                  |
|   \\  /    A nd           | Website:  www.openfoam.com                      |
|    \\/     M anipulation  |                                                 |
\*---------------------------------------------------------------------------*/
FoamFile
{
    version     2.0;
    format      ascii;
    arch        "LSB;label=32;scalar=64";
    class       volScalarField;
    location    "2";
    object      nut;
}
// * * * * * * * * * * * * * * * * * * * * * * * * * * * * * * * * * * * * * //

dimensions      [0 2 -1 0 0 0 0];

internalField   nonuniform List<scalar> 
96472
(
8.5448472e-07
8.3744344e-07
8.2900303e-07
8.2059551e-07
8.1345888e-07
8.132963e-07
8.1585726e-07
8.1643722e-07
8.1541594e-07
8.1461181e-07
8.135144e-07
8.1240101e-07
8.1151646e-07
8.1084119e-07
8.1044459e-07
8.1029343e-07
8.1047399e-07
8.1080542e-07
8.1111311e-07
8.1154848e-07
8.1229431e-07
8.1317803e-07
8.1425622e-07
8.154863e-07
8.1676732e-07
8.1794297e-07
8.1933598e-07
8.2144396e-07
8.2367601e-07
8.2682807e-07
8.304193e-07
8.3409113e-07
8.3772151e-07
8.4151194e-07
8.4494165e-07
8.4798217e-07
8.5087637e-07
8.5373796e-07
8.5626617e-07
8.587683e-07
8.6113169e-07
8.6532824e-07
8.7019592e-07
8.7569948e-07
8.8256706e-07
8.8955821e-07
8.9863396e-07
9.0745763e-07
9.1839112e-07
9.2840892e-07
9.4100964e-07
9.5406705e-07
9.6467927e-07
9.8110115e-07
9.9683708e-07
8.5485042e-07
8.3772908e-07
8.2923127e-07
8.2077027e-07
8.1360548e-07
8.1341342e-07
8.1614944e-07
8.1673552e-07
8.1571257e-07
8.1489148e-07
8.1378991e-07
8.1266483e-07
8.1176869e-07
8.1102811e-07
8.1057323e-07
8.103259e-07
8.103956e-07
8.1060355e-07
8.1079668e-07
8.1113479e-07
8.1174938e-07
8.1246632e-07
8.1325314e-07
8.140952e-07
8.1492693e-07
8.156985e-07
8.1645442e-07
8.172198e-07
8.1835459e-07
8.1965446e-07
8.2151298e-07
8.2406914e-07
8.2742869e-07
8.3155274e-07
8.3630939e-07
8.4153517e-07
8.4711922e-07
8.5220703e-07
8.5647559e-07
8.6113376e-07
8.6511148e-07
8.6982015e-07
8.7384146e-07
8.7770449e-07
8.8327053e-07
8.8964725e-07
8.9430464e-07
9.0350931e-07
9.0918519e-07
9.2084992e-07
9.2719364e-07
9.4027298e-07
9.5059881e-07
9.603141e-07
9.8101414e-07
8.5519782e-07
8.3800137e-07
8.2950652e-07
8.210248e-07
8.138477e-07
8.1374082e-07
8.1665587e-07
8.1735404e-07
8.1640331e-07
8.1569438e-07
8.1469656e-07
8.1365163e-07
8.1284316e-07
8.1214957e-07
8.116637e-07
8.1138492e-07
8.1133834e-07
8.1150218e-07
8.1156921e-07
8.118121e-07
8.1225841e-07
8.1284174e-07
8.1358866e-07
8.1438609e-07
8.1519617e-07
8.1598711e-07
8.1674745e-07
8.1756953e-07
8.1844944e-07
8.1954845e-07
8.208287e-07
8.2239505e-07
8.2421967e-07
8.2629343e-07
8.2902175e-07
8.3238564e-07
8.3645814e-07
8.4196556e-07
8.4851016e-07
8.5580475e-07
8.6172471e-07
8.686619e-07
8.7290825e-07
8.7969129e-07
8.8341528e-07
8.9102359e-07
8.9477642e-07
9.0316081e-07
9.0739174e-07
9.1696348e-07
9.2290295e-07
9.301997e-07
9.4124077e-07
9.4785826e-07
9.6410642e-07
8.5555325e-07
8.3826601e-07
8.2977137e-07
8.2125637e-07
8.1404845e-07
8.1398232e-07
8.1701995e-07
8.1775499e-07
8.1678718e-07
8.1608193e-07
8.1509496e-07
8.1405104e-07
8.1322998e-07
8.1252964e-07
8.1203172e-07
8.1173901e-07
8.1160192e-07
8.1172295e-07
8.1173068e-07
8.1197231e-07
8.1239312e-07
8.1291933e-07
8.1364999e-07
8.1447793e-07
8.1530487e-07
8.1608603e-07
8.1686099e-07
8.1770208e-07
8.1862801e-07
8.1967134e-07
8.208644e-07
8.2217483e-07
8.2370535e-07
8.2543031e-07
8.2748819e-07
8.2972988e-07
8.3243793e-07
8.3580345e-07
8.3966011e-07
8.4534091e-07
8.5002508e-07
8.5969547e-07
8.648699e-07
8.7538719e-07
8.8018592e-07
8.8965057e-07
8.9365622e-07
9.0224944e-07
9.0648029e-07
9.1439612e-07
9.2208794e-07
9.2670635e-07
9.3612609e-07
9.4137706e-07
9.5356868e-07
8.5590967e-07
8.3852071e-07
8.3002414e-07
8.214887e-07
8.1427104e-07
8.1425307e-07
8.1741329e-07
8.1821057e-07
8.1726032e-07
8.1659382e-07
8.1564995e-07
8.1463643e-07
8.1383565e-07
8.131718e-07
8.12651e-07
8.1229575e-07
8.1210775e-07
8.1208792e-07
8.1201722e-07
8.1220085e-07
8.1254092e-07
8.1298272e-07
8.1367154e-07
8.1446105e-07
8.1528612e-07
8.1607816e-07
8.1685811e-07
8.1771374e-07
8.1866153e-07
8.1968119e-07
8.2085218e-07
8.2208056e-07
8.2349501e-07
8.2508171e-07
8.2700913e-07
8.2901231e-07
8.3134561e-07
8.3381558e-07
8.3678263e-07
8.4072537e-07
8.4368061e-07
8.504695e-07
8.5427651e-07
8.6290047e-07
8.6834419e-07
8.8031621e-07
8.8663747e-07
8.9664849e-07
9.0408541e-07
9.0984935e-07
9.1946605e-07
9.2394933e-07
9.3306534e-07
9.37934e-07
9.4809417e-07
8.5626597e-07
8.3876903e-07
8.3027322e-07
8.2172199e-07
8.1449375e-07
8.1451813e-07
8.1778997e-07
8.1866456e-07
8.1773451e-07
8.1710342e-07
8.1619705e-07
8.1520792e-07
8.1441383e-07
8.1375607e-07
8.1326503e-07
8.1292773e-07
8.1268105e-07
8.1251794e-07
8.1240456e-07
8.1246607e-07
8.1279458e-07
8.1314889e-07
8.1371758e-07
8.1449121e-07
8.1532063e-07
8.1608817e-07
8.1682683e-07
8.1764822e-07
8.1857821e-07
8.195683e-07
8.2063033e-07
8.2174731e-07
8.2300639e-07
8.2453759e-07
8.2628311e-07
8.2826213e-07
8.3065198e-07
8.325788e-07
8.3587136e-07
8.3808412e-07
8.4199727e-07
8.4589887e-07
8.4918577e-07
8.5548802e-07
8.6015468e-07
8.6603417e-07
8.7468748e-07
8.8093918e-07
8.9345971e-07
8.9900932e-07
9.1032644e-07
9.1648124e-07
9.2707746e-07
9.3226595e-07
9.4329979e-07
8.5662286e-07
8.390068e-07
8.3050892e-07
8.2194979e-07
8.1472551e-07
8.1479522e-07
8.1816381e-07
8.1911307e-07
8.1820732e-07
8.1760149e-07
8.1673648e-07
8.1578831e-07
8.1501985e-07
8.144042e-07
8.1391957e-07
8.1356146e-07
8.1332235e-07
8.1307605e-07
8.1285924e-07
8.1283523e-07
8.1308122e-07
8.1338563e-07
8.1387959e-07
8.1454331e-07
8.1534062e-07
8.1611582e-07
8.1685696e-07
8.1764197e-07
8.1853254e-07
8.1950983e-07
8.204772e-07
8.2149288e-07
8.2262607e-07
8.2396563e-07
8.2555597e-07
8.2732399e-07
8.2946644e-07
8.3144023e-07
8.3462211e-07
8.3646572e-07
8.4046125e-07
8.4302769e-07
8.474727e-07
8.5071789e-07
8.5624837e-07
8.5968424e-07
8.669105e-07
8.7119521e-07
8.8025271e-07
8.851622e-07
8.9520001e-07
9.0063032e-07
9.1214737e-07
9.1807729e-07
9.3131236e-07
8.5697915e-07
8.3923363e-07
8.3073971e-07
8.2217448e-07
8.1495395e-07
8.1506454e-07
8.1852989e-07
8.1956234e-07
8.1869247e-07
8.1812276e-07
8.1731104e-07
8.1639941e-07
8.156471e-07
8.1503752e-07
8.1458884e-07
8.1426577e-07
8.1400911e-07
8.1371676e-07
8.1335358e-07
8.1327206e-07
8.1343972e-07
8.1366942e-07
8.1407436e-07
8.1465377e-07
8.1541885e-07
8.161939e-07
8.1691034e-07
8.1767301e-07
8.1851623e-07
8.1942461e-07
8.2037984e-07
8.2128005e-07
8.2234937e-07
8.2351115e-07
8.2498399e-07
8.2650325e-07
8.286213e-07
8.3027512e-07
8.3334437e-07
8.3512934e-07
8.3880167e-07
8.4105077e-07
8.4542585e-07
8.4793514e-07
8.5312892e-07
8.560532e-07
8.6216106e-07
8.655557e-07
8.7260351e-07
8.764957e-07
8.8459145e-07
8.8903922e-07
8.9837647e-07
9.0340838e-07
9.1495594e-07
8.5733359e-07
8.3945231e-07
8.3096531e-07
8.2239875e-07
8.1519487e-07
8.1533223e-07
8.1888431e-07
8.1999642e-07
8.1916139e-07
8.1862425e-07
8.1786376e-07
8.1699446e-07
8.1627921e-07
8.1572141e-07
8.1531117e-07
8.1499043e-07
8.1473335e-07
8.1443053e-07
8.1399619e-07
8.1384996e-07
8.1387549e-07
8.1405508e-07
8.1438003e-07
8.1486906e-07
8.1554231e-07
8.1626564e-07
8.1698187e-07
8.1771732e-07
8.1854314e-07
8.1941606e-07
8.2031131e-07
8.2122889e-07
8.2212311e-07
8.2331443e-07
8.2449966e-07
8.260208e-07
8.2770643e-07
8.2929786e-07
8.3203959e-07
8.3371617e-07
8.3713983e-07
8.3915871e-07
8.432956e-07
8.4557551e-07
8.5023593e-07
8.528244e-07
8.5833135e-07
8.6132505e-07
8.674218e-07
8.7072057e-07
8.7762083e-07
8.8134422e-07
8.8901519e-07
8.9313894e-07
9.0239587e-07
8.5768629e-07
8.3966334e-07
8.3117602e-07
8.2261038e-07
8.1543105e-07
8.1559497e-07
8.1923085e-07
8.2043261e-07
8.1964223e-07
8.1914826e-07
8.184466e-07
8.1762462e-07
8.1694402e-07
8.1639946e-07
8.1601988e-07
8.1572135e-07
8.1549876e-07
8.1518878e-07
8.147337e-07
8.1445377e-07
8.1442817e-07
8.1453209e-07
8.1474923e-07
8.1511753e-07
8.1573031e-07
8.1641049e-07
8.1708773e-07
8.1778945e-07
8.1858391e-07
8.1943768e-07
8.2028318e-07
8.2114221e-07
8.2202585e-07
8.2306576e-07
8.2431604e-07
8.2554103e-07
8.2717998e-07
8.2865133e-07
8.3097395e-07
8.3242465e-07
8.3570806e-07
8.3749846e-07
8.4117403e-07
8.4329677e-07
8.4763549e-07
8.5003337e-07
8.550165e-07
8.5766755e-07
8.631696e-07
8.6616065e-07
8.723232e-07
8.7560131e-07
8.8236125e-07
8.8587466e-07
8.9359509e-07
8.5803571e-07
8.3986405e-07
8.3137807e-07
8.2282546e-07
8.156745e-07
8.1584913e-07
8.1956137e-07
8.20849e-07
8.2009695e-07
8.1964754e-07
8.1899928e-07
8.1823668e-07
8.1759511e-07
8.1709879e-07
8.1677751e-07
8.1652417e-07
8.1629113e-07
8.1598206e-07
8.1552368e-07
8.1520466e-07
8.1509121e-07
8.1506364e-07
8.1525357e-07
8.1551646e-07
8.159986e-07
8.1659726e-07
8.1723461e-07
8.1791351e-07
8.1869499e-07
8.1952362e-07
8.2031164e-07
8.2109053e-07
8.2200943e-07
8.2288956e-07
8.2414126e-07
8.252169e-07
8.2669028e-07
8.2794555e-07
8.3014341e-07
8.3142007e-07
8.3431694e-07
8.3600611e-07
8.3940935e-07
8.4134001e-07
8.453497e-07
8.4756507e-07
8.5211884e-07
8.545186e-07
8.5948308e-07
8.6220187e-07
8.6782593e-07
8.7079723e-07
8.7687356e-07
8.7998192e-07
8.8663935e-07
8.5838047e-07
8.400542e-07
8.315764e-07
8.2303631e-07
8.1592431e-07
8.1610591e-07
8.1988874e-07
8.2126967e-07
8.2056391e-07
8.2016709e-07
8.1957498e-07
8.188814e-07
8.1828902e-07
8.1782454e-07
8.1751922e-07
8.1729667e-07
8.1712044e-07
8.1683005e-07
8.1637525e-07
8.1605257e-07
8.158366e-07
8.1575156e-07
8.1580056e-07
8.1599932e-07
8.1635246e-07
8.1687801e-07
8.1747325e-07
8.181112e-07
8.1885061e-07
8.1964255e-07
8.2038535e-07
8.2112429e-07
8.2192768e-07
8.2294137e-07
8.2383109e-07
8.2511153e-07
8.2627949e-07
8.2756066e-07
8.2938536e-07
8.3061033e-07
8.3321656e-07
8.3475964e-07
8.3794371e-07
8.3973056e-07
8.4337349e-07
8.4540642e-07
8.4957627e-07
8.5176711e-07
8.5631819e-07
8.5874289e-07
8.6380719e-07
8.6649107e-07
8.7188927e-07
8.7468214e-07
8.8051271e-07
8.5872093e-07
8.4023551e-07
8.3176671e-07
8.2323327e-07
8.1616375e-07
8.1634471e-07
8.2019207e-07
8.2166799e-07
8.2100714e-07
8.2066634e-07
8.2012606e-07
8.1949225e-07
8.189573e-07
8.1852627e-07
8.1827921e-07
8.1814172e-07
8.179739e-07
8.1768545e-07
8.1724125e-07
8.1692759e-07
8.166904e-07
8.1650924e-07
8.1648605e-07
8.1660638e-07
8.1687884e-07
8.1726993e-07
8.177711e-07
8.1838202e-07
8.1907627e-07
8.1982807e-07
8.2052375e-07
8.2123397e-07
8.2197286e-07
8.2285552e-07
8.2382337e-07
8.2477053e-07
8.2601279e-07
8.2717153e-07
8.2883551e-07
8.2994667e-07
8.3235144e-07
8.3369182e-07
8.3650539e-07
8.3817784e-07
8.4159047e-07
8.4346882e-07
8.4729913e-07
8.4929217e-07
8.5345856e-07
8.5571209e-07
8.603367e-07
8.6276926e-07
8.6765822e-07
8.7026034e-07
8.7539781e-07
8.5905637e-07
8.4040718e-07
8.3194595e-07
8.2342797e-07
8.1641702e-07
8.1658642e-07
8.2048992e-07
8.2205532e-07
8.2144294e-07
8.2115661e-07
8.2067892e-07
8.2012151e-07
8.1965987e-07
8.1926736e-07
8.1904373e-07
8.1892976e-07
8.1884306e-07
8.1858679e-07
8.1817703e-07
8.1782927e-07
8.1756978e-07
8.1735873e-07
8.1727242e-07
8.1728374e-07
8.1748888e-07
8.1779054e-07
8.181657e-07
8.1870476e-07
8.1936313e-07
8.2008996e-07
8.2075836e-07
8.2137574e-07
8.2210535e-07
8.2287296e-07
8.2379686e-07
8.2473151e-07
8.2579519e-07
8.2687492e-07
8.2839636e-07
8.2940404e-07
8.3157632e-07
8.3277837e-07
8.3528428e-07
8.3675139e-07
8.3984023e-07
8.4160209e-07
8.4516137e-07
8.4705551e-07
8.5094131e-07
8.5300056e-07
8.5729123e-07
8.5949784e-07
8.6396032e-07
8.6627137e-07
8.7095386e-07
8.5938517e-07
8.405691e-07
8.3211944e-07
8.2362027e-07
8.1667044e-07
8.1681977e-07
8.2077132e-07
8.2243324e-07
8.2186676e-07
8.2164366e-07
8.212246e-07
8.2072872e-07
8.2032793e-07
8.199551e-07
8.1978611e-07
8.1978201e-07
8.197273e-07
8.1948723e-07
8.1908673e-07
8.1876213e-07
8.1848943e-07
8.1827211e-07
8.1813755e-07
8.1809707e-07
8.1817862e-07
8.1844064e-07
8.1872125e-07
8.1910728e-07
8.1971086e-07
8.2040877e-07
8.2105938e-07
8.2165222e-07
8.2231213e-07
8.2307155e-07
8.2382777e-07
8.2472776e-07
8.2567004e-07
8.2665687e-07
8.2803403e-07
8.2896671e-07
8.3091843e-07
8.319995e-07
8.3425005e-07
8.3556884e-07
8.3831241e-07
8.3990625e-07
8.4313231e-07
8.4483812e-07
8.484452e-07
8.5034754e-07
8.5425939e-07
8.5626593e-07
8.6042402e-07
8.625863e-07
8.6693134e-07
8.5970617e-07
8.4072125e-07
8.3228933e-07
8.2380194e-07
8.169117e-07
8.1703505e-07
8.2102366e-07
8.2278303e-07
8.2226479e-07
8.221018e-07
8.2174626e-07
8.2131592e-07
8.2098773e-07
8.2067964e-07
8.2056417e-07
8.205835e-07
8.206006e-07
8.2039935e-07
8.2003833e-07
8.1972188e-07
8.194431e-07
8.1920067e-07
8.1904022e-07
8.1895811e-07
8.1898922e-07
8.1916022e-07
8.1940494e-07
8.1971666e-07
8.2013656e-07
8.2076795e-07
8.2142121e-07
8.2201273e-07
8.2264486e-07
8.2332093e-07
8.2404051e-07
8.2478196e-07
8.2569766e-07
8.2660539e-07
8.2778523e-07
8.286685e-07
8.304569e-07
8.314046e-07
8.3342713e-07
8.3461474e-07
8.3709986e-07
8.3848233e-07
8.4134037e-07
8.4292551e-07
8.461603e-07
8.4788581e-07
8.5145948e-07
8.5330415e-07
8.5704415e-07
8.5902099e-07
8.6294841e-07
8.6001925e-07
8.4086323e-07
8.3245561e-07
8.2397842e-07
8.1715728e-07
8.1725193e-07
8.2127274e-07
8.2313534e-07
8.226661e-07
8.2256608e-07
8.2228179e-07
8.2191252e-07
8.2163151e-07
8.2136348e-07
8.212851e-07
8.2140548e-07
8.2147789e-07
8.2130244e-07
8.2097969e-07
8.2068268e-07
8.2041674e-07
8.2016688e-07
8.1994684e-07
8.1981245e-07
8.1979264e-07
8.1995364e-07
8.2013567e-07
8.2039166e-07
8.2077742e-07
8.2117826e-07
8.2177154e-07
8.2234788e-07
8.2297716e-07
8.2365919e-07
8.243207e-07
8.2500312e-07
8.2582845e-07
8.2666133e-07
8.277577e-07
8.2855472e-07
8.3012538e-07
8.3098975e-07
8.3284866e-07
8.3392817e-07
8.3612982e-07
8.3740909e-07
8.3996125e-07
8.4137851e-07
8.4430928e-07
8.4585235e-07
8.4904942e-07
8.5067867e-07
8.5402146e-07
8.5580366e-07
8.5940902e-07
8.6032332e-07
8.4099564e-07
8.3261455e-07
8.2415594e-07
8.1740064e-07
8.174554e-07
8.2149213e-07
8.2345527e-07
8.2303038e-07
8.2298647e-07
8.2276935e-07
8.2245264e-07
8.2222427e-07
8.2203487e-07
8.2202873e-07
8.2219451e-07
8.2233168e-07
8.2221449e-07
8.2192799e-07
8.2165449e-07
8.2138511e-07
8.211267e-07
8.2088152e-07
8.2071035e-07
8.2064522e-07
8.2073462e-07
8.2090658e-07
8.2110223e-07
8.2143106e-07
8.2179078e-07
8.2214989e-07
8.2263286e-07
8.2323267e-07
8.2390875e-07
8.2462314e-07
8.253493e-07
8.2612243e-07
8.2689137e-07
8.2782786e-07
8.2857477e-07
8.2995592e-07
8.3074956e-07
8.3241737e-07
8.3341283e-07
8.354637e-07
8.3658834e-07
8.3890043e-07
8.4015713e-07
8.4280015e-07
8.4424619e-07
8.4711326e-07
8.4864776e-07
8.5144289e-07
8.5342629e-07
8.5648642e-07
8.6061685e-07
8.4111785e-07
8.3276625e-07
8.2432921e-07
8.1763199e-07
8.1764073e-07
8.2168937e-07
8.2375835e-07
8.2338526e-07
8.234007e-07
8.2325437e-07
8.2299336e-07
8.2282357e-07
8.2269252e-07
8.2272091e-07
8.2294847e-07
8.231625e-07
8.2307288e-07
8.2283877e-07
8.2259996e-07
8.223443e-07
8.2208572e-07
8.2182512e-07
8.216126e-07
8.2146274e-07
8.2146783e-07
8.2159577e-07
8.2178086e-07
8.220548e-07
8.2235359e-07
8.2265554e-07
8.2294453e-07
8.234532e-07
8.240549e-07
8.2475195e-07
8.2547849e-07
8.2629994e-07
8.2707263e-07
8.280106e-07
8.287503e-07
8.3000092e-07
8.3067907e-07
8.3221039e-07
8.3308741e-07
8.3491693e-07
8.3594964e-07
8.380385e-07
8.3925563e-07
8.4171951e-07
8.4296729e-07
8.4559251e-07
8.4700241e-07
8.4951309e-07
8.5164738e-07
8.5418328e-07
8.6089944e-07
8.4123015e-07
8.3291206e-07
8.2449334e-07
8.1785615e-07
8.1782347e-07
8.2187779e-07
8.2405391e-07
8.2372941e-07
8.2379387e-07
8.2371104e-07
8.234795e-07
8.233594e-07
8.2329346e-07
8.2338939e-07
8.2368199e-07
8.2397057e-07
8.2392793e-07
8.2373524e-07
8.2352655e-07
8.2328328e-07
8.2301059e-07
8.2271824e-07
8.224722e-07
8.2225799e-07
8.2217168e-07
8.2222187e-07
8.2236781e-07
8.2259294e-07
8.2284743e-07
8.230527e-07
8.233014e-07
8.2363737e-07
8.2414737e-07
8.2474403e-07
8.2540043e-07
8.2615988e-07
8.2691726e-07
8.279051e-07
8.2869225e-07
8.2990959e-07
8.3061457e-07
8.3205355e-07
8.3285857e-07
8.344889e-07
8.3542967e-07
8.3737363e-07
8.3845822e-07
8.4062776e-07
8.4186896e-07
8.4422281e-07
8.4545995e-07
8.4800225e-07
8.5004036e-07
8.5215475e-07
8.611679e-07
8.4132973e-07
8.3304673e-07
8.2464269e-07
8.1807343e-07
8.1798902e-07
8.2202916e-07
8.2430585e-07
8.2402398e-07
8.2413193e-07
8.2412033e-07
8.2393324e-07
8.2387665e-07
8.2388807e-07
8.240285e-07
8.2435442e-07
8.2472194e-07
8.2473116e-07
8.2457262e-07
8.2438277e-07
8.2414047e-07
8.2385693e-07
8.2355108e-07
8.2327403e-07
8.2300068e-07
8.2279773e-07
8.2273494e-07
8.2279879e-07
8.2293114e-07
8.2309974e-07
8.2320604e-07
8.2338124e-07
8.2366056e-07
8.240177e-07
8.245512e-07
8.2513475e-07
8.2582969e-07
8.2652982e-07
8.2743987e-07
8.2822118e-07
8.2947999e-07
8.3019745e-07
8.3166677e-07
8.324303e-07
8.3406593e-07
8.3494714e-07
8.3677142e-07
8.377997e-07
8.3988253e-07
8.4115359e-07
8.4310741e-07
8.4447725e-07
8.4696028e-07
8.487159e-07
8.5037027e-07
8.6142106e-07
8.4140771e-07
8.3314701e-07
8.2475994e-07
8.1825099e-07
8.1810162e-07
8.2212073e-07
8.2450569e-07
8.2427863e-07
8.2443348e-07
8.2448815e-07
8.2433745e-07
8.2432478e-07
8.2438432e-07
8.2457425e-07
8.2496294e-07
8.2540489e-07
8.2546019e-07
8.2534667e-07
8.2518014e-07
8.2493893e-07
8.2464121e-07
8.2430119e-07
8.2394793e-07
8.235884e-07
8.2329691e-07
8.2309023e-07
8.2300049e-07
8.2299677e-07
8.2306012e-07
8.2308488e-07
8.2313057e-07
8.2331721e-07
8.23557e-07
8.2396978e-07
8.2437535e-07
8.250752e-07
8.2566726e-07
8.2653378e-07
8.2721749e-07
8.2836966e-07
8.2909273e-07
8.3059924e-07
8.3140608e-07
8.3302694e-07
8.3392667e-07
8.3576657e-07
8.3677673e-07
8.3881074e-07
8.4003341e-07
8.4186369e-07
8.4333384e-07
8.4573177e-07
8.4717708e-07
8.4886249e-07
8.6162732e-07
8.4138107e-07
8.3305557e-07
8.2460061e-07
8.1811225e-07
8.1789033e-07
8.2187866e-07
8.2436699e-07
8.2419219e-07
8.243745e-07
8.2447187e-07
8.2435252e-07
8.2438979e-07
8.2452903e-07
8.2479401e-07
8.2521615e-07
8.2572783e-07
8.2586484e-07
8.2578824e-07
8.2565294e-07
8.2542942e-07
8.2512548e-07
8.2474792e-07
8.2433223e-07
8.238874e-07
8.2343139e-07
8.2307844e-07
8.2285083e-07
8.2271261e-07
8.2255239e-07
8.2240633e-07
8.2232342e-07
8.2230092e-07
8.2244866e-07
8.2267835e-07
8.2296004e-07
8.2353715e-07
8.2396314e-07
8.248286e-07
8.2537159e-07
8.2647238e-07
8.271759e-07
8.2853093e-07
8.293126e-07
8.3094776e-07
8.3184854e-07
8.3355767e-07
8.3475159e-07
8.3677711e-07
8.3792925e-07
8.3946832e-07
8.4142522e-07
8.4384361e-07
8.4511648e-07
8.4655267e-07
8.6156539e-07
8.4046007e-07
8.3114168e-07
8.2202862e-07
8.1536014e-07
8.1500737e-07
8.1882961e-07
8.2133848e-07
8.2120157e-07
8.2140661e-07
8.215698e-07
8.2151618e-07
8.2161199e-07
8.2181731e-07
8.221336e-07
8.2263616e-07
8.232524e-07
8.234817e-07
8.234873e-07
8.2343894e-07
8.2329598e-07
8.2306763e-07
8.2276773e-07
8.2239833e-07
8.2201896e-07
8.2158455e-07
8.2117331e-07
8.2084784e-07
8.2057062e-07
8.2025505e-07
8.1991499e-07
8.1962067e-07
8.1938941e-07
8.1926666e-07
8.1925912e-07
8.1935251e-07
8.195826e-07
8.1986921e-07
8.2042907e-07
8.2085244e-07
8.2181759e-07
8.2241214e-07
8.2363055e-07
8.2453607e-07
8.2586394e-07
8.2705604e-07
8.2862283e-07
8.2964658e-07
8.3189549e-07
8.3291346e-07
8.3488623e-07
8.3632191e-07
8.3893373e-07
8.4006006e-07
8.4221787e-07
7.6910444e-07
8.2764966e-07
8.0883182e-07
7.9446471e-07
7.8642042e-07
7.8566878e-07
7.8878647e-07
7.9132333e-07
7.9183802e-07
7.9263377e-07
7.934782e-07
7.941809e-07
7.9499491e-07
7.9598401e-07
7.970924e-07
7.983617e-07
7.9972096e-07
8.0080484e-07
8.0162476e-07
8.0230993e-07
8.0288444e-07
8.0334039e-07
8.0372045e-07
8.0400882e-07
8.0423304e-07
8.0438167e-07
8.0462857e-07
8.0462932e-07
8.0503613e-07
8.0512556e-07
8.0514195e-07
8.0509059e-07
8.0480736e-07
8.0447373e-07
8.0423541e-07
8.0377617e-07
8.0355939e-07
8.031572e-07
8.0292731e-07
8.027769e-07
8.0260081e-07
8.026406e-07
8.0289275e-07
8.0307581e-07
8.0391998e-07
8.0435872e-07
8.0529432e-07
8.0625044e-07
8.0772741e-07
8.0855218e-07
8.0990774e-07
8.1167145e-07
8.1387085e-07
8.1529898e-07
8.1672181e-07
3.5569178e-07
7.4536159e-07
6.9229709e-07
6.6356912e-07
6.5478558e-07
6.5884045e-07
6.6928904e-07
6.8137924e-07
6.9250563e-07
7.0477282e-07
7.1771345e-07
7.3082079e-07
7.4466261e-07
7.5725776e-07
7.6913411e-07
7.8141456e-07
7.939772e-07
8.0554485e-07
8.1651918e-07
8.2698047e-07
8.3507604e-07
8.445201e-07
8.5216688e-07
8.5753971e-07
8.634323e-07
8.6490034e-07
8.7658929e-07
8.6706332e-07
8.8011617e-07
8.7061055e-07
8.7799216e-07
8.6938711e-07
8.6799033e-07
8.643691e-07
8.6137894e-07
8.5561135e-07
8.5377536e-07
8.5039161e-07
8.482098e-07
8.4457916e-07
8.4000959e-07
8.3811837e-07
8.3283579e-07
8.3133956e-07
8.2781982e-07
8.2547581e-07
8.2314927e-07
8.2002656e-07
8.186844e-07
8.1696531e-07
8.1429998e-07
8.1340341e-07
8.1236295e-07
8.1195763e-07
8.0692047e-07
1.1713665e-07
1.1329497e-07
1.7385423e-07
2.8659553e-07
5.0639274e-07
6.0316508e-07
5.0148184e-07
4.835772e-07
5.4040403e-07
6.1317316e-07
6.86639e-07
7.6559159e-07
8.4776166e-07
9.329261e-07
1.0115e-06
1.0724834e-06
1.1215961e-06
1.1833173e-06
1.2669695e-06
1.3638299e-06
1.4584004e-06
1.5717689e-06
1.66611e-06
1.7847046e-06
1.9163844e-06
1.9939608e-06
2.0475222e-06
2.0572576e-06
2.0036187e-06
2.0357705e-06
1.94626e-06
1.9959579e-06
1.8692455e-06
1.9260798e-06
1.777433e-06
1.8313336e-06
1.6705931e-06
1.7143357e-06
1.5527546e-06
1.5775592e-06
1.4247259e-06
1.430137e-06
1.309108e-06
1.310792e-06
1.2213889e-06
1.2047411e-06
1.1724607e-06
1.1265307e-06
1.1106441e-06
1.1049766e-06
1.0727128e-06
1.0669688e-06
1.0558681e-06
9.791201e-07
9.0729902e-07
8.1228794e-07
8.1648173e-07
8.1773212e-07
8.4364895e-07
8.4888467e-07
8.5118344e-07
8.5270107e-07
8.5442389e-07
8.5657042e-07
8.5892561e-07
8.620953e-07
8.6568691e-07
8.698177e-07
8.7404156e-07
8.7856258e-07
8.8381324e-07
8.8963236e-07
8.9664127e-07
9.0553111e-07
9.1813719e-07
9.3422047e-07
9.474295e-07
9.5300195e-07
9.5840174e-07
9.6898193e-07
9.8611813e-07
1.0008784e-06
7.2762094e-07
8.2641973e-07
8.1971313e-07
8.4589658e-07
8.5146442e-07
8.5388832e-07
8.5555265e-07
8.5730012e-07
8.5958047e-07
8.6203513e-07
8.6525301e-07
8.6904582e-07
8.7319579e-07
8.7765135e-07
8.8219926e-07
8.8758298e-07
8.9374779e-07
9.0024666e-07
9.0835065e-07
9.1933966e-07
9.3496548e-07
9.5155234e-07
9.596675e-07
9.6474337e-07
9.7247013e-07
9.8852887e-07
1.0024721e-06
6.6746236e-07
8.3002521e-07
8.2080797e-07
8.4769589e-07
8.5413114e-07
8.568641e-07
8.5864054e-07
8.6049136e-07
8.6283749e-07
8.6546453e-07
8.6870135e-07
8.7266336e-07
8.769547e-07
8.8142714e-07
8.8612916e-07
8.914131e-07
8.977141e-07
9.0439578e-07
9.1217693e-07
9.2249484e-07
9.369731e-07
9.5478503e-07
9.6574047e-07
9.7176595e-07
9.7837716e-07
9.9297183e-07
1.006717e-06
6.1950908e-07
8.3129239e-07
8.224526e-07
8.4990055e-07
8.5746398e-07
8.6033137e-07
8.6223891e-07
8.6423235e-07
8.6650618e-07
8.6917409e-07
8.7241924e-07
8.7627704e-07
8.807425e-07
8.8541209e-07
8.9031755e-07
8.9562495e-07
9.0179713e-07
9.0855336e-07
9.1607075e-07
9.2596726e-07
9.3898888e-07
9.5749022e-07
9.7091399e-07
9.7862813e-07
9.8478621e-07
9.9793164e-07
1.011378e-06
5.8225969e-07
8.282314e-07
8.2279705e-07
8.5231482e-07
8.6089214e-07
8.6407609e-07
8.6620186e-07
8.683214e-07
8.7063675e-07
8.7325081e-07
8.76443e-07
8.8018045e-07
8.8463551e-07
8.8938043e-07
8.9447067e-07
9.0008184e-07
9.0632908e-07
9.1314435e-07
9.2035291e-07
9.2983761e-07
9.4159011e-07
9.6010505e-07
9.7505189e-07
9.8511443e-07
9.9123788e-07
1.0035275e-06
1.0160304e-06
5.5514705e-07
8.2433843e-07
8.2337933e-07
8.5494347e-07
8.6408316e-07
8.678647e-07
8.7004457e-07
8.7227661e-07
8.7481938e-07
8.7750854e-07
8.8084591e-07
8.8459079e-07
8.8901955e-07
8.9377197e-07
8.9874283e-07
9.0447675e-07
9.108513e-07
9.1787919e-07
9.2508922e-07
9.3388568e-07
9.4512747e-07
9.6256613e-07
9.7891056e-07
9.9160114e-07
9.9772747e-07
1.010045e-06
1.0212306e-06
5.3828242e-07
8.2299373e-07
8.2600445e-07
8.5792625e-07
8.6756592e-07
8.7180135e-07
8.7383897e-07
8.761458e-07
8.7892809e-07
8.8181389e-07
8.8544706e-07
8.8936958e-07
8.9373989e-07
8.9858698e-07
9.0346322e-07
9.0903584e-07
9.1541258e-07
9.2252191e-07
9.2996661e-07
9.3860494e-07
9.4876829e-07
9.646697e-07
9.8257724e-07
9.972663e-07
1.0042821e-06
1.0169191e-06
1.0271971e-06
5.3137169e-07
8.2294647e-07
8.2883372e-07
8.6094729e-07
8.7147029e-07
8.757659e-07
8.7804571e-07
8.8028328e-07
8.8312942e-07
8.8611254e-07
8.897153e-07
8.9391176e-07
8.9836744e-07
9.0343068e-07
9.0858009e-07
9.1407149e-07
9.203809e-07
9.2729132e-07
9.3477901e-07
9.4365692e-07
9.5297275e-07
9.6688978e-07
9.8603897e-07
1.0023238e-06
1.0107822e-06
1.023459e-06
1.0337722e-06
5.3387941e-07
8.1750664e-07
8.2940738e-07
8.6401192e-07
8.7610611e-07
8.8054256e-07
8.8309775e-07
8.8516831e-07
8.8786703e-07
8.9087899e-07
8.9429322e-07
8.9853338e-07
9.0302963e-07
9.0814907e-07
9.1361306e-07
9.192348e-07
9.2568664e-07
9.3257107e-07
9.3985702e-07
9.4858987e-07
9.5740022e-07
9.6955092e-07
9.8838843e-07
1.0067195e-06
1.016619e-06
1.0291788e-06
1.0404051e-06
5.4508885e-07
8.1524369e-07
8.2732927e-07
8.6623546e-07
8.8056728e-07
8.8557572e-07
8.8863738e-07
8.9056112e-07
8.9314032e-07
8.960102e-07
8.9927068e-07
9.0332685e-07
9.0773999e-07
9.127588e-07
9.1833607e-07
9.2413909e-07
9.3085451e-07
9.3807247e-07
9.4547738e-07
9.5428283e-07
9.6229937e-07
9.7356491e-07
9.9005506e-07
1.0107852e-06
1.0218396e-06
1.0349445e-06
1.0474941e-06
5.6434221e-07
8.122913e-07
8.2697156e-07
8.693967e-07
8.8554263e-07
8.9129032e-07
8.9443323e-07
8.9663324e-07
8.99009e-07
9.018949e-07
9.0497596e-07
9.0881887e-07
9.1295653e-07
9.1776867e-07
9.2310779e-07
9.2882251e-07
9.355223e-07
9.4296599e-07
9.5066889e-07
9.5999637e-07
9.6749478e-07
9.7789982e-07
9.9242125e-07
1.0141049e-06
1.0266797e-06
1.0407682e-06
1.0546535e-06
5.9122497e-07
8.216723e-07
8.2666801e-07
8.7101855e-07
8.8945968e-07
8.9612675e-07
8.9988488e-07
9.0231195e-07
9.0500974e-07
9.0794869e-07
9.1136017e-07
9.1512872e-07
9.1912563e-07
9.2382029e-07
9.2889419e-07
9.3433581e-07
9.4073346e-07
9.4799952e-07
9.5592518e-07
9.6548104e-07
9.7351277e-07
9.8281344e-07
9.961267e-07
1.0167856e-06
1.0310716e-06
1.0458943e-06
1.0609025e-06
6.2572777e-07
8.3514182e-07
8.2832e-07
8.747569e-07
8.9415542e-07
9.0168496e-07
9.0502691e-07
9.0813795e-07
9.1072179e-07
9.1399748e-07
9.1748731e-07
9.2135734e-07
9.2532109e-07
9.2988292e-07
9.3473799e-07
9.3997491e-07
9.4593999e-07
9.5283084e-07
9.6059917e-07
9.6974901e-07
9.791405e-07
9.8805284e-07
9.9943965e-07
1.0194159e-06
1.035047e-06
1.050564e-06
1.066755e-06
6.6787121e-07
8.5675413e-07
8.3000379e-07
8.7597788e-07
8.9811338e-07
9.0653824e-07
9.1073807e-07
9.1380624e-07
9.1695886e-07
9.1997082e-07
9.2381627e-07
9.2788846e-07
9.3207874e-07
9.3668745e-07
9.4147152e-07
9.4649629e-07
9.5215232e-07
9.5858025e-07
9.659117e-07
9.7396382e-07
9.8421789e-07
9.9297429e-07
1.0025368e-06
1.0216939e-06
1.0385769e-06
1.0547662e-06
1.0720272e-06
7.1770671e-07
8.8223969e-07
8.3166373e-07
8.5722131e-07
9.0306659e-07
9.1238603e-07
9.1552386e-07
9.1921063e-07
9.2177469e-07
9.250277e-07
9.2896283e-07
9.3323125e-07
9.37622e-07
9.4246258e-07
9.4757983e-07
9.5295708e-07
9.5868251e-07
9.6492807e-07
9.7200411e-07
9.7902046e-07
9.894406e-07
9.9820644e-07
1.0064122e-06
1.0239078e-06
1.0414974e-06
1.0580955e-06
1.0763458e-06
7.7469594e-07
9.2296062e-07
8.3486245e-07
8.2824653e-07
9.0790174e-07
9.1842721e-07
9.2241704e-07
9.2530354e-07
9.2811276e-07
9.3080129e-07
9.3444615e-07
9.3872465e-07
9.4316322e-07
9.4798815e-07
9.532265e-07
9.5872489e-07
9.64472e-07
9.7062579e-07
9.7778204e-07
9.841261e-07
9.9399442e-07
1.0030037e-06
1.0100125e-06
1.0254159e-06
1.0427861e-06
1.0600057e-06
1.0789732e-06
8.3857458e-07
9.5963274e-07
8.3654526e-07
8.0552945e-07
9.1244532e-07
9.2456411e-07
9.2785842e-07
9.3118475e-07
9.3389655e-07
9.3650492e-07
9.3998441e-07
9.4418938e-07
9.4872975e-07
9.5361815e-07
9.5890047e-07
9.6469644e-07
9.7075178e-07
9.7708719e-07
9.843939e-07
9.9078554e-07
9.9976954e-07
1.0091773e-06
1.0153714e-06
1.0276519e-06
1.0438761e-06
1.060877e-06
1.0801873e-06
9.0838847e-07
1.017358e-06
8.3811469e-07
7.8902664e-07
9.1738149e-07
9.3130991e-07
9.3546174e-07
9.3854466e-07
9.4086e-07
9.4349807e-07
9.4621038e-07
9.4981432e-07
9.5392608e-07
9.5845578e-07
9.6357153e-07
9.6930105e-07
9.7553728e-07
9.8208121e-07
9.8952068e-07
9.967571e-07
1.0048326e-06
1.0155627e-06
1.0215466e-06
1.0313806e-06
1.0463382e-06
1.061763e-06
1.0807711e-06
9.8420999e-07
1.069285e-06
8.3906802e-07
7.8179908e-07
9.2055067e-07
9.3759176e-07
9.4241534e-07
9.4538503e-07
9.4851124e-07
9.506176e-07
9.5337413e-07
9.5661717e-07
9.6047787e-07
9.6466665e-07
9.6929775e-07
9.7436748e-07
9.8007958e-07
9.8649974e-07
9.9358896e-07
1.0015963e-06
1.0088623e-06
1.0205665e-06
1.0272756e-06
1.0355056e-06
1.0485219e-06
1.0624132e-06
1.0812626e-06
1.065364e-06
1.1286488e-06
8.400598e-07
7.7295482e-07
9.192647e-07
9.4423363e-07
9.4931471e-07
9.5284834e-07
9.5529125e-07
9.5786818e-07
9.6031594e-07
9.6336255e-07
9.6686954e-07
9.7078972e-07
9.7499784e-07
9.7985608e-07
9.8522135e-07
9.9161417e-07
9.9818153e-07
1.0067214e-06
1.0136041e-06
1.0255643e-06
1.0339239e-06
1.0417061e-06
1.0542019e-06
1.0663215e-06
1.0825564e-06
1.1516026e-06
1.2331184e-06
8.4400343e-07
7.7159192e-07
8.8949912e-07
9.4938291e-07
9.5710787e-07
9.6060731e-07
9.6432594e-07
9.6650862e-07
9.6874579e-07
9.7146386e-07
9.7450465e-07
9.7795279e-07
9.8176194e-07
9.8568579e-07
9.9048061e-07
9.9618632e-07
1.0021301e-06
1.0101911e-06
1.0168734e-06
1.0282116e-06
1.0382541e-06
1.0453132e-06
1.0576087e-06
1.0697916e-06
1.0843636e-06
1.2422708e-06
1.30251e-06
8.5046707e-07
7.7277755e-07
8.7616036e-07
9.5394128e-07
9.6153105e-07
9.6567088e-07
9.6980617e-07
9.7281614e-07
9.7519374e-07
9.7811559e-07
9.8118634e-07
9.8454466e-07
9.8813059e-07
9.9181417e-07
9.962569e-07
1.0014089e-06
1.0067012e-06
1.0141867e-06
1.0202232e-06
1.0300289e-06
1.0411412e-06
1.0491856e-06
1.060888e-06
1.0726176e-06
1.0868005e-06
1.3364877e-06
1.3769488e-06
8.6091902e-07
7.7308811e-07
8.6420378e-07
9.5891165e-07
9.6844403e-07
9.7227846e-07
9.7708418e-07
9.7980792e-07
9.8223165e-07
9.8501243e-07
9.8780133e-07
9.9133859e-07
9.9488324e-07
9.9830682e-07