/*--------------------------------*- C++ -*----------------------------------*\
| =========                 |                                                 |
| \\      /  F ield         | OpenFOAM: The Open Source CFD Toolbox           |
|  \\    /   O peration     | Version:  2406                                  |
|   \\  /    A nd           | Website:  www.openfoam.com                      |
|    \\/     M anipulation  |                                                 |
\*---------------------------------------------------------------------------*/
FoamFile
{
    version     2.0;
    format      ascii;
    arch        "LSB;label=32;scalar=64";
    class       volScalarField;
    location    "2";
    object      omega;
}
// * * * * * * * * * * * * * * * * * * * * * * * * * * * * * * * * * * * * * //

dimensions      [0 0 -1 0 0 0 0];

internalField   nonuniform List<scalar> 
96472
(
3.7330441
3.1001599
2.7371047
2.5673806
2.5052807
2.4887716
2.4904019
2.4900204
2.4868706
2.4842402
2.4809732
2.4776518
2.474948
2.4727664
2.4711068
2.4701242
2.4697104
2.4697635
2.469677
2.4698151
2.470616
2.4716768
2.4731688
2.47495
2.4767352
2.4783893
2.4807543
2.4838922
2.4875358
2.4929649
2.4991997
2.505472
2.5118553
2.5184849
2.5243809
2.5295686
2.5344847
2.539369
2.543693
2.5481321
2.5524396
2.5601204
2.5690735
2.5794147
2.5922572
2.6055026
2.6223821
2.6388157
2.6590578
2.67757
2.7008157
2.7254393
2.7452065
2.7783516
2.8057111
3.7356479
3.1030784
2.7391931
2.5685541
2.505866
2.489204
2.4911283
2.4907186
2.4875506
2.4848639
2.4815551
2.4782151
2.4754815
2.4731879
2.4714271
2.4702317
2.4696046
2.4694637
2.469128
2.4690622
2.4695595
2.470219
2.4711461
2.4721789
2.4731628
2.474025
2.4748532
2.475814
2.4773353
2.4793099
2.4823295
2.4866722
2.4923757
2.4994872
2.507769
2.5170955
2.5270245
2.536129
2.5438287
2.5522408
2.5593766
2.5680349
2.5753811
2.5829014
2.5933519
2.6054833
2.6143412
2.6319482
2.6424984
2.6644642
2.6762134
2.7016124
2.7197491
2.7385652
2.7780397
3.7381886
3.1059763
2.7413123
2.5697759
2.5066525
2.4900156
2.4923111
2.4920962
2.4890697
2.4866154
2.4835165
2.4803359
2.4777527
2.475512
2.4737425
2.4724235
2.4716265
2.471212
2.470689
2.4704008
2.4706654
2.4710265
2.4718043
2.4727432
2.4736764
2.4745695
2.4754176
2.4764416
2.4776345
2.4792182
2.4811541
2.483628
2.4865921
2.4900746
2.494775
2.5006179
2.5077455
2.5174548
2.5289815
2.5421129
2.5528907
2.5656254
2.5734501
2.5858483
2.5929203
2.6073187
2.6144234
2.6306563
2.638613
2.6575905
2.6674049
2.6825921
2.7031929
2.7157851
2.7467354
3.7407552
3.1088708
2.7434343
2.5709689
2.5073513
2.4906501
2.493173
2.4930037
2.4899262
2.4874715
2.4843892
2.481202
2.4785884
2.4762956
2.4745212
2.4731802
2.4722133
2.471635
2.4710317
2.4707169
2.4709406
2.4712379
2.4719612
2.4729544
2.4739486
2.4748346
2.4757131
2.4767549
2.4779912
2.4794872
2.4812428
2.4832494
2.4856452
2.4884821
2.4919912
2.4958991
2.5007467
2.5067085
2.5135585
2.5238384
2.5320848
2.5493872
2.5586383
2.5778672
2.5865631
2.6042671
2.6117972
2.6282408
2.6361992
2.6518494
2.6658878
2.674822
2.6930813
2.7031946
2.7267
3.7433225
3.1117484
2.7455469
2.5721783
2.5081041
2.4913538
2.4941021
2.4940305
2.4909766
2.4885965
2.4855977
2.4824627
2.4798889
2.4776646
2.4757986
2.4743355
2.4732991
2.4724447
2.4716193
2.4711947
2.4712527
2.4714465
2.4720652
2.4729398
2.4739441
2.4748951
2.4758025
2.4768588
2.4781215
2.4796282
2.4813428
2.4831653
2.4853444
2.4879172
2.491152
2.4946137
2.4987289
2.5031585
2.508531
2.5156353
2.5211155
2.5335998
2.5404458
2.5560086
2.5656274
2.5873474
2.5981074
2.6173664
2.6309304
2.6423899
2.6606516
2.6692087
2.6867069
2.6960962
2.7157607
3.7458873
3.1146199
2.7476722
2.5734065
2.5088605
2.4920483
2.4949922
2.4950563
2.492032
2.4897204
2.486794
2.4836997
2.4811308
2.4789064
2.4770869
2.4756409
2.4744794
2.4734306
2.4723426
2.4717825
2.4717613
2.4717854
2.4722212
2.4730341
2.4740553
2.4749814
2.4758088
2.4767999
2.4780087
2.4794337
2.4810337
2.4826675
2.4846101
2.4870704
2.489955
2.4933648
2.4975085
2.501123
2.5068808
2.5110921
2.5182739
2.5254828
2.5315834
2.5435941
2.5518179
2.5627487
2.5785378
2.5897424
2.6120166
2.6220086
2.6429314
2.6542339
2.6747319
2.6847667
2.7061694
3.7484527
3.1174736
2.7497855
2.5746375
2.5096421
2.4927749
2.4958773
2.4960685
2.4930832
2.4908158
2.4879695
2.4849533
2.4824336
2.4802838
2.4784631
2.4769577
2.4757932
2.4746154
2.4732767
2.4725698
2.4723455
2.4723026
2.4726014
2.4731865
2.4741272
2.4750552
2.4759032
2.4768572
2.4780167
2.4793638
2.4808226
2.4822714
2.4839488
2.486087
2.4887347
2.4917344
2.4954466
2.4990331
2.5047027
2.5081356
2.5156172
2.5204189
2.5285816
2.5350106
2.5452623
2.5516996
2.5652962
2.5732565
2.5899917
2.598938
2.6173519
2.6272878
2.64822
2.6589768
2.6826529
3.7510155
3.120309
2.7519091
2.5758781
2.5104193
2.4934856
2.4967459
2.4970835
2.4941648
2.4919665
2.489226
2.4862847
2.4837792
2.4816162
2.4798569
2.4784373
2.4772219
2.4759175
2.4743795
2.4734021
2.4730846
2.4728872
2.4730293
2.4734639
2.4743203
2.4752384
2.4760464
2.4769498
2.4780686
2.4792947
2.4806502
2.4819288
2.4834745
2.4853188
2.4877368
2.4903247
2.4939277
2.4969825
2.5024063
2.5057456
2.512604
2.5168601
2.5250297
2.5298079
2.5396995
2.5452499
2.5568855
2.5633404
2.576751
2.5840806
2.5993444
2.6076437
2.6250966
2.6344068
2.6553834
3.7535717
3.1231346
2.7540424
2.577135
2.5112301
2.4941962
2.4975878
2.4980645
2.4952082
2.4930695
2.4904301
2.4875776
2.4851269
2.4830668
2.4813726
2.4799552
2.4787298
2.47739
2.4757333
2.4745694
2.4739902
2.4736373
2.4736776
2.4739495
2.4746066
2.4754089
2.4762112
2.4770863
2.4781911
2.4793656
2.480601
2.4818385
2.4831521
2.4849702
2.4869567
2.4894595
2.4923115
2.4951919
2.499993
2.5031612
2.5095879
2.5133667
2.5211195
2.5254747
2.5343887
2.5393191
2.5498723
2.5556183
2.5673496
2.5736905
2.5870183
2.5941526
2.6088323
2.6166618
2.6339383
3.7561224
3.1259523
2.7561608
2.5783785
2.5120331
2.4948998
2.4984119
2.4990521
2.4962808
2.4942274
2.4917073
2.488955
2.4865475
2.484491
2.4828472
2.4814943
2.4803258
2.4789536
2.4772263
2.4758748
2.4750858
2.4745682
2.4743795
2.4745119
2.4750255
2.4757342
2.4764678
2.4772724
2.4783168
2.4794416
2.4806096
2.4817446
2.4830107
2.4845954
2.4866092
2.4886343
2.4913989
2.4939977
2.4981499
2.5008083
2.5068927
2.5102417
2.5171861
2.5212748
2.5295866
2.5341723
2.5437464
2.5488493
2.5595129
2.5653213
2.577305
2.5836481
2.5967717
2.6035636
2.6182799
3.7586629
3.1287548
2.7582806
2.5796492
2.5128565
2.4955881
2.4992005
2.4999931
2.497293
2.495327
2.4929183
2.4902791
2.4879316
2.4859535
2.4844513
2.4831877
2.4819742
2.4805871
2.4788313
2.477439
2.4764248
2.4756588
2.4753352
2.4753003
2.4756583
2.4761661
2.4767854
2.4775406
2.4785606
2.4796578
2.4807021
2.4817523
2.4829772
2.4843655
2.4862388
2.4880694
2.4905085
2.4927435
2.4966437
2.4989789
2.5043323
2.5074933
2.5138783
2.5175799
2.5252885
2.5295689
2.5383833
2.5430181
2.55264
2.5579373
2.5689502
2.5747612
2.5866809
2.5927447
2.6055329
3.7611896
3.1315415
2.760415
2.5809281
2.5136989
2.496287
2.4999842
2.500947
2.4983367
2.4964753
2.4941904
2.4916738
2.4894174
2.4874771
2.4860179
2.4848063
2.4836959
2.4823333
2.4805802
2.4791402
2.477988
2.4770404
2.4764433
2.476174
2.4763811
2.4767949
2.4773031
2.4779607
2.4788745
2.4799228
2.4808786
2.4818206
2.4829285
2.4843782
2.4858404
2.4877941
2.489906
2.4920497
2.4952863
2.4975503
2.5022723
2.505131
2.5111299
2.5145792
2.5215813
2.525516
2.533609
2.5378653
2.5467615
2.551506
2.5614711
2.566755
2.5773762
2.5828507
2.5941338
3.7637037
3.1343184
2.7625532
2.5821917
2.5145209
2.496947
2.5007127
2.5018504
2.499325
2.497579
2.4954039
2.4929859
2.4908303
2.4889589
2.4876304
2.4865862
2.4854709
2.4840842
2.4823408
2.4809169
2.4797243
2.4785948
2.477825
2.4773657
2.4773559
2.4776145
2.4779693
2.478519
2.4793337
2.4803043
2.4811643
2.4820411
2.4830385
2.4842969
2.4858158
2.4873058
2.4892952
2.4913503
2.4943014
2.4963148
2.500689
2.5031933
2.5084922
2.5116971
2.518228
2.5218749
2.5293334
2.5332083
2.541349
2.5457802
2.5549124
2.5597274
2.5693992
2.5745726
2.5846269
3.7662033
3.1370835
2.7646875
2.5834695
2.5153795
2.4976193
2.5014306
2.5027308
2.5002995
2.4986647
2.4966214
2.4943453
2.4923227
2.4905484
2.4892515
2.4882279
2.4872694
2.4859405
2.4842599
2.4827606
2.4814867
2.4803322
2.4794131
2.4787293
2.4784832
2.4785796
2.4788153
2.4792351
2.479917
2.4808356
2.4816396
2.4823425
2.4833048
2.4844158
2.485749
2.4872502
2.4889485
2.4907685
2.4934788
2.4953137
2.4992953
2.5015535
2.5062722
2.5090519
2.5149264
2.5183536
2.5252865
2.5289939
2.536612
2.5406633
2.5491737
2.5535487
2.5624001
2.5669916
2.5761689
3.7686834
3.1398373
2.7668321
2.584761
2.5162424
2.4982779
2.5021116
2.5035919
2.5012485
2.4997464
2.4978219
2.4956518
2.4937395
2.4920242
2.4908127
2.4900119
2.4891073
2.4877915
2.4861135
2.4846624
2.4833514
2.4821615
2.4811786
2.4803574
2.4798573
2.4797575
2.4798338
2.4801139
2.4806832
2.4815014
2.4822632
2.4828918
2.4836761
2.48478
2.4858661
2.4872069
2.4887727
2.4904002
2.4927868
2.494474
2.4980236
2.5000638
2.5043311
2.5068598
2.512121
2.5152344
2.521531
2.5248508
2.5319215
2.5356744
2.5434331
2.5474056
2.5556776
2.5599728
2.5685598
3.7711409
3.1425799
2.7689928
2.5860467
2.51708
2.4988985
2.5027268
2.5043893
2.5021385
2.5007644
2.498964
2.4969086
2.4951662
2.493582
2.4924583
2.4916773
2.4909154
2.4896774
2.4880589
2.4866258
2.4852785
2.4840116
2.4829859
2.4820944
2.4814574
2.4811978
2.4811169
2.4812219
2.4816154
2.4822604
2.482989
2.4836019
2.4843317
2.4852187
2.4862748
2.4873472
2.4888124
2.4903103
2.492348
2.4938918
2.4971281
2.4989117
2.5027344
2.5050149
2.5098253
2.5125424
2.518166
2.5213
2.5276894
2.531106
2.5382166
2.5418813
2.5492423
2.5532028
2.5611373
3.7735764
3.1453101
2.77117
2.5873406
2.517932
2.4995295
2.5033371
2.5051964
2.5030409
2.501801
2.5001435
2.4981942
2.4965667
2.4950498
2.4939687
2.49339
2.492745
2.4915392
2.48999
2.4885759
2.4872448
2.4859491
2.4848009
2.4838064
2.4830809
2.482738
2.4825693
2.4825214
2.482775
2.4831401
2.483694
2.484283
2.4850088
2.4858821
2.4867746
2.4877724
2.4890395
2.4903833
2.4922876
2.4936589
2.4964813
2.4980991
2.5016019
2.5036755
2.5079188
2.5104562
2.5154994
2.5183175
2.5241627
2.5272493
2.533657
2.5369629
2.5435306
2.5472804
2.5545113
3.7759861
3.1480313
2.7733552
2.5886589
2.5187841
2.5001354
2.5038816
2.5059305
2.5038608
2.5027397
2.5012139
2.4993526
2.4978661
2.4964832
2.4955396
2.495035
2.4945267
2.4934279
2.4919452
2.4905533
2.4891944
2.4878825
2.486671
2.48563
2.4847902
2.4843094
2.4840584
2.4839161
2.4840572
2.484231
2.4845129
2.4849073
2.4855355
2.4863983
2.487376
2.4884348
2.489588
2.4907925
2.4923724
2.4936463
2.4961065
2.49759
2.5006998
2.5026044
2.5065713
2.5087985
2.5133909
2.5158919
2.5211659
2.5240854
2.5298619
2.5330041
2.5385226
2.5427355
2.5488924
3.7783659
3.1507437
2.775551
2.5899916
2.5196149
2.5007075
2.5043809
2.5066316
2.5046654
2.5036691
2.5022883
2.5005351
2.4991845
2.497901
2.496992
2.496614
2.4962479
2.4952146
2.4938307
2.4924763
2.4911311
2.4898182
2.4885841
2.487431
2.4864352
2.4857844
2.4854365
2.4852349
2.4853215
2.4853797
2.4854239
2.4855648
2.4860266
2.4867287
2.4876719
2.4886961
2.4899632
2.4911691
2.4927178
2.4939527
2.4961537
2.4973832
2.5002195
2.5018907
2.5054299
2.5074783
2.5115968
2.5140383
2.5190062
2.5215286
2.5268302
2.5297176
2.5348052
2.5391828
2.5443261
3.7807181
3.1534509
2.7777671
2.5913341
2.5204439
2.5012916
2.5048747
2.5073293
2.5054603
2.5045625
2.5033091
2.5016241
2.5003632
2.4991942
2.498418
2.4981624
2.4979251
2.4970028
2.4957003
2.4943896
2.4930619
2.4917024
2.490402
2.489168
2.4880477
2.487233
2.4867535
2.4864435
2.4863764
2.4864061
2.4862691
2.4862627
2.4864993
2.4870028
2.4877307
2.4886279
2.4897596
2.4909082
2.4925552
2.4938514
2.49598
2.4972746
2.4998958
2.5014125
2.5045163
2.5063603
2.5101821
2.5123566
2.5167307
2.5192349
2.5239903
2.5266619
2.5317256
2.5358293
2.5402613
3.7830371
3.1561611
2.7800153
2.5927031
2.5213031
2.5018834
2.505329
2.507968
2.506184
2.505369
2.5042685
2.5026849
2.5015416
2.5005217
2.4998177
2.4996166
2.4995157
2.4987021
2.4974648
2.496186
2.4948475
2.4934687
2.4921185
2.4908409
2.4895967
2.4885665
2.4878651
2.4874191
2.487152
2.4870187
2.4867504
2.4865415
2.4866601
2.4869319
2.4875057
2.4882486
2.4892695
2.4903325
2.4917987
2.4930391
2.4952453
2.4965359
2.499172
2.5005989
2.5037336
2.505441
2.5089853
2.5110332
2.5152309
2.5177338
2.5217639
2.5246793
2.529536
2.533085
2.5366418
3.7853491
3.1589206
2.7823596
2.5941933
2.5222579
2.5025403
2.5058359
2.508677
2.507007
2.5062743
2.5053077
2.5037968
2.5027049
2.5017709
2.5011433
2.5010715
2.501089
2.5003543
2.4992072
2.4979764
2.4966344
2.4952201
2.493794
2.4923753
2.4909805
2.4897454
2.4888005
2.4881438
2.4876528
2.4872627
2.4867976
2.4864115
2.4863149
2.4864176
2.4867401
2.4872145
2.4881568
2.4889999
2.4904088
2.4914645
2.4934408
2.4946886
2.4973677
2.4988977
2.5019467
2.503672
2.5072285
2.5092268
2.5132995
2.5156677
2.5194898
2.5224471
2.5271592
2.530163
2.5336754
3.7877266
3.1619559
2.7852332
2.5963593
2.5238784
2.5038755
2.5070573
2.5101031
2.5085255
2.5078254
2.5069416
2.5054783
2.5044569
2.5036424
2.5031163
2.5030489
2.5031305
2.5024869
2.5013745
2.5001418
2.498756
2.4972584
2.4957371
2.4942006
2.4926402
2.491157
2.4899305
2.488987
2.4882877
2.4875365
2.4868436
2.4861282
2.485729
2.4854828
2.485545
2.4857352
2.486333
2.4869192
2.488113
2.488959
2.490693
2.4919188
2.4942262
2.4956185
2.4985619
2.5002526
2.5033715
2.5058096
2.5097276
2.5119341
2.5149687
2.519088
2.5238948
2.5264852
2.5291717
3.7911358
3.1679178
2.7930564
2.6045791
2.5318007
2.5115269
2.5147726
2.518035
2.516465
2.515735
2.5148925
2.5134343
2.5124154
2.5115819
2.5109399
2.5108334
2.5109237
2.5102133
2.5090189
2.5076921
2.5061747
2.5044782
2.5026636
2.500826
2.4988233
2.4968849
2.4952295
2.4937959
2.4927636
2.491561
2.4904645
2.4893258
2.4885408
2.4878129
2.4876145
2.4875164
2.4877073
2.4880887
2.4888921
2.4895394
2.4909637
2.4919997
2.4936786
2.4956976
2.4971783
2.4996434
2.5024122
2.5040994
2.5078931
2.5106349
2.5134236
2.5169464
2.5212596
2.5247019
2.5266073
3.812605
3.2123624
2.8573772
2.6757473
2.6033082
2.5825946
2.587719
2.5917849
2.5893816
2.5879284
2.5864327
2.5841479
2.5825371
2.5811337
2.5798981
2.5792491
2.5789036
2.5776257
2.5759037
2.5741917
2.5721576
2.5699945
2.5675595
2.5647826
2.5617436
2.558148
2.555449
2.5505468
2.5488724
2.5438714
2.5418961
2.5374171
2.5359394
2.533533
2.5330444
2.5321441
2.532416
2.5325017
2.533019
2.5335005
2.5343938
2.5353164
2.5364181
2.5378946
2.5397367
2.5410188
2.5429707
2.5451357
2.5479156
2.5496703
2.5514141
2.5552341
2.557638
2.5622768
2.5608746
3.9726664
3.502402
3.2317745
3.11808
3.0651646
3.0585762
3.080725
3.1002628
3.1146692
3.1311079
3.1486476
3.1655634
3.1848361
3.2002654
3.2132061
3.2267006
3.2403929
3.2517703
3.2630425
3.2748437
3.2824749
3.2936611
3.3002524
3.3019171
3.3022446
3.2937338
3.3038951
3.2714361
3.2871376
3.2552522
3.263613
3.2326894
3.2249057
3.2028457
3.1949763
3.168888
3.1605561
3.1401806
3.1315853
3.1134013
3.1017205
3.0864907
3.070886
3.06412
3.0491655
3.0407318
3.0319532
3.0216544
3.0139144
3.0090156
2.9981285
2.9936981
2.9864092
2.9839153
2.9390114
11.151541
10.731462
10.851663
11.124954
11.349983
11.383967
11.363278
11.384968
11.468255
11.541787
11.607427
11.675311
11.735066
11.788921
11.836782
11.876201
11.908881
11.944526
11.980977
12.013538
12.042865
12.068114
12.090952
12.110347
12.126448
12.142118
12.148371
12.163475
12.149403
12.171765
12.145993
12.179062
12.139628
12.17434
12.125168
12.157177
12.103728
12.13123
12.075999
12.094082
12.042264
12.05266
12.012957
12.022099
11.994272
11.995231
11.990028
11.978967
11.979186
11.983349
11.976827
11.98071
11.985572
11.992434
11.995008
12.389698
3.0450634
2.5722503
2.5328342
2.5344196
2.5385179
2.5414382
2.5450096
2.5492264
2.5538748
2.5600326
2.5668147
2.5746393
2.582565
2.5911385
2.6009992
2.6117444
2.6243547
2.6401246
2.6616571
2.6891542
2.7138254
2.7251874
2.7357876
2.7560544
2.7877474
2.8136329
13.169394
3.1901176
2.5876507
2.539916
2.5401762
2.5440058
2.5473575
2.5509063
2.5555079
2.5602397
2.5664787
2.5736278
2.5815316
2.590028
2.5986107
2.608703
2.620171
2.6322799
2.6466749
2.6655207
2.6919656
2.7211922
2.7374302
2.7478255
2.7630311
2.7933719
2.8170579
14.013724
3.345713
2.6074696
2.547574
2.5463362
2.5500659
2.55383
2.5575596
2.5623088
2.5674547
2.5736636
2.5811698
2.5892054
2.5977369
2.606654
2.6165958
2.6283191
2.6407484
2.6549465
2.6727879
2.6971046
2.7275844
2.7487073
2.7613191
2.7743531
2.8024948
2.8261168
14.928052
3.5086196
2.6295954
2.5561506
2.5538681
2.5572302
2.561245
2.5653188
2.5698956
2.5752401
2.5814965
2.5888448
2.597244
2.6060024
2.615321
2.6252688
2.6368095
2.6492692
2.6630986
2.6805593
2.7025342
2.7334838
2.7585811
2.7740984
2.7862153
2.8124469
2.8356745
15.919164
3.6953908
2.6581316
2.5679389
2.562334
2.5652172
2.5693779
2.5736889
2.5783366
2.5836018
2.5898583
2.5970055
2.6055469
2.6144197
2.6240259
2.6345206
2.6461446
2.6587751
2.672217
2.6887337
2.7092613
2.7393761
2.7667961
2.7863013
2.7983497
2.8234594
2.8450799
16.993571
3.9010872
2.6888777
2.5802575
2.5706331
2.5731946
2.577437
2.5819423
2.5869963
2.5923097
2.5989131
2.6060716
2.6145314
2.6235643
2.6329854
2.6437793
2.6555719
2.6685768
2.682082
2.6977843
2.7171135
2.745694
2.7747787
2.7983284
2.810661
2.8357676
2.8562473
18.157112
4.095826
2.7162631
2.5921523
2.5790322
2.5813891
2.5856715
2.5901824
2.5956601
2.6012742
2.6083672
2.615878
2.624154
2.6334212
2.642703
2.6533312
2.6652259
2.6782636
2.6920965
2.7077431
2.7255535
2.7518273
2.7823276
2.8094102
2.822758
2.8482291
2.868956
19.417029
4.2933053
2.7467487
2.6059479
2.588828
2.5903129
2.5942601
2.5988008
2.6046078
2.6104296
2.6174071
2.6254624
2.6338548
2.6434147
2.653182
2.6636374
2.6755337
2.6883026
2.7021072
2.7178591
2.7350673
2.7582737
2.7896181
2.819445
2.8348313
2.8600763
2.8822171
20.78222
4.5040745
2.7836326
2.6225313
2.6003186
2.6010461
2.6046282
2.6088565
2.6143891
2.6203261
2.6269894
2.6352416
2.6437353
2.6533472
2.6636519
2.6742567
2.6863493
2.6992048
2.712628
2.7280829
2.7446792
2.7652394
2.79562
2.8280307
2.8458141
2.8708187
2.8949116
22.263403
4.74516
2.8323865
2.644079
2.6131471
2.6122659
2.6157653
2.6199245
2.6251948
2.6309129
2.6373043
2.6452796
2.6536838
2.6631843
2.6737018
2.6846238
2.6970798
2.7104484
2.724118
2.7398433
2.7551887
2.7743614
2.8012798
2.8360385
2.8565232
2.8818349
2.907652
23.871751
4.9587469
2.8692093
2.6636032
2.6257661
2.6246503
2.627767
2.6321989
2.6371632
2.6428655
2.6489723
2.6565314
2.6644729
2.6736744
2.6838209
2.6946426
2.7071137
2.7208024
2.7350149
2.7515382
2.7663117
2.7842463
2.8080909
2.8436533
2.8659776
2.892045
2.9197401
25.621231
5.2290891
2.9161122
2.6868168
2.6393617
2.6364829
2.6391458
2.6441663
2.6495144
2.6553146
2.6619663
2.6693409
2.6770467
2.6860159
2.6957353
2.706095
2.7180844
2.7315205
2.7460853
2.7629771
2.7785407
2.7950481
2.8172495
2.8514304
2.8747774
2.9017729
2.9313023
27.517607
5.4338127
2.9446127
2.7031997
2.6515674
2.6485368
2.6502746
2.6559239
2.6614721
2.6677396
2.6744904
2.6820335
2.6896757
2.6983491
2.7076807
2.7177074
2.7289997
2.7418659
2.7561782
2.7725179
2.7897662
2.8061169
2.8258104
2.8590516
2.8842474
2.9115029
2.9424616
29.589574
5.7878334
2.993043
2.7287375
2.6687925
2.6611676
2.6625454
2.6680781
2.6740957
2.6801833
2.687528
2.6953788
2.7034256
2.712141
2.7212783
2.7308748
2.7416116
2.7536862
2.7673572
2.7820709
2.8002392
2.8167979
2.8333376
2.865816
2.8932845
2.9204353
2.9520853
31.80735
6.039092
3.0251748
2.7448312
2.6818995
2.6732711
2.6731924
2.6783952
2.6844516
2.6908414
2.6983119
2.706471
2.7149151
2.7240489
2.7337498
2.743914
2.7547404
2.7663989
2.7795775
2.7927898
2.8110234
2.8276607
2.8419441
2.8717885
2.9008274
2.9283296
2.9600031
34.260059
6.5076928
3.0821919
2.7738841
2.7049435
2.6887422
2.6884078
2.6918782
2.6973579
2.702795
2.7097153
2.7178475
2.7264422
2.7355953
2.7453816
2.7556813
2.7665267
2.7780382
2.7912179
2.80341
2.8206641
2.8375157
2.8501772
2.876276
2.9055312
2.9331703
2.9653193
36.849031
6.8531199
3.1251088
2.7951814
2.7210328
2.7024012
2.7001834
2.7032699
2.708887
2.7142223
2.7210735
2.7291114
2.7378663
2.7472087
2.7571672
2.7680642
2.7794118
2.7912009
2.8044723
2.8166919
2.8324543
2.8501191
2.8610838
2.8831321
2.9101609
2.9368205
2.9692512
39.706358
7.5037124
3.2033019
2.8256358
2.7463259
2.720804
2.7161893
2.7180448
2.7228267
2.7280199
2.7333392
2.7403275
2.7483122
2.7570511
2.7668196
2.777497
2.7891518
2.8012575
2.8148284
2.8281846
2.8425635
2.8623255
2.8727904
2.8915085
2.9162847
2.940755
2.9717854
42.739787
8.0320535
3.2699434
2.8569825
2.7688273
2.7376012
2.7323087
2.7334641
2.7382658
2.7424246
2.7476382
2.7538913
2.7612867
2.7693433
2.7781938
2.7879519
2.7988523
2.8108718
2.823855
2.8384967
2.8513838
2.87247
2.8841089
2.9003891
2.9233973
2.9456441
2.9743717
45.965155
8.7219151
3.353529
2.881526
2.7891668
2.7553734
2.7464168
2.7471467
2.7513233
2.7562952
2.7612395
2.7671914
2.7739274
2.7815976
2.7898816
2.7991335
2.8093562
2.8213545
2.8335802
2.8491702
2.8615524
2.8831357
2.8973567
2.9117126
2.9341867
2.9548693
2.9808132
49.509761
9.7067035
3.4830174
2.9211257
2.8169907
2.774989
2.764058
2.7634623
2.7682613
2.7729564
2.7771493
2.7823825
2.788198
2.794655
2.8018399
2.8095699
2.8188145
2.8296874
2.8408055
2.8558391
2.8677207
2.8882401
2.9052083
2.919391
2.9418093
2.9624005
2.9868289
53.152223
10.45246
3.5754776
2.9456704
2.8350804
2.7905022
2.7763347
2.7760168
2.7801737
2.785444
2.7901499
2.7955608
2.8011632
2.8077496
2.8147335
2.822085
2.8306211
2.840536
2.8506065
2.8647193
2.8758584
2.8940709
2.912242
2.9268886
2.9482632
2.968423
2.9925298
57.001918
11.421701
3.6812489
2.975367
2.8563888
2.807816
2.7914406
2.7882048
2.7926703
2.7985428
2.8031873
2.8087221
2.8141178
2.8204931
2.8270141
2.8336926
2.8413923
2.8504703
2.8596872
2.8727661
2.8826947
2.8993264
2.9173823
2.9327148
2.9535575
2.9738352
2.9971733
61.20709
12.865784
3.8738572
3.0093667
2.8785074
2.8265191
2.8028569
2.8013346
2.803934
2.8100111
2.8145689
2.8205739
2.8261164
2.832813
2.8397244
2.8461322
2.8533005
2.8613388
2.8694429
2.8819354
2.8901606
2.9048102
2.9213314
2.9361908
2.9568137
2.9760402
2.9984496
65.327672
13.782408
4.0049315
3.036676
2.8964596
2.8389903
2.8162901
2.8097333
2.8129005
2.8189634
2.824228
2.8293713
2.8353773
2.8422946
2.849652
2.8569102
2.8640114
2.872226
2.87958
2.8914173
2.898376
2.9114086
2.9260506
2.9391106
2.9594786
2.9765828
2.9981656
69.788238
15.353824
4.2043941
3.067597
2.9110991
2.8576963
2.824494
2.8205851
2.8212922
2.826809
2.8324419
2.8379877
2.8442602
2.8507577
2.8583462
2.8658696
2.872777
2.8812816
2.8881984
2.900425
2.9063791
2.9184551
2.9315322
2.9426265
2.9621417
2.9781078
2.9974477
74.168545
16.771919
4.4439277
3.1012191
2.9313106
2.8683962
2.8379107
2.8280612
2.8284715
2.8332882
2.8382016
2.8439246
2.8505304
2.8573466
2.8652893
2.8733041
2.8806605
2.8895607
2.8960728
2.9082763
2.9143772
2.9253168
2.9375549
2.9471179
2.9652433
2.9806251
2.9969563
78.821751
18.401718
4.6761983
3.1351012
2.9419193
2.8838547
2.8451199
2.8357576
2.8352955
2.8396953
2.8445195
2.8500279
2.8558964
2.8627775
2.8705047
2.8788375
2.8862954
2.8953925
2.9020628
2.9143597
2.9208115
2.9312732
2.9434639
2.9515225
2.9676632
2.9828511
2.997015
83.215685
20.123825
5.023637
3.1731375
2.9578741
2.891746
2.854033
2.8415317
2.8390166
2.8426518
2.8468428
2.8526848
2.8586159
2.8654017
2.8726966
2.8817245
2.8894489
2.8998797
2.9067925
2.9195342
2.9265726
2.9370966
2.9496575
2.9569703
2.9714508
2.9861686
2.9988635
87.774733
21.684582
5.3056628
3.2050731
2.9649653
2.9013781
2.8598811
2.8456088
2.8431563
2.8462961
2.8500204
2.8554032
2.8611045
2.8680578
2.8745161
2.8831747
2.8902328
2.900868
2.9081296
2.9206661
2.9292712
2.9393463
2.9531454
2.9614394
2.9753749
2.9892467
3.0023684
92.00474
23.843159
5.7891544
3.252911
2.9766246
2.9074411
2.8644052
2.8487181
2.8446984
2.8467077
2.849996
2.8552643
2.8607176
2.8680118
2.8739624
2.8828708
2.8894398
2.9002941
2.9074798
2.919939
2.9290278
2.9387956
2.9531285
2.961835
2.9758833
2.9892617
3.002428
96.210689
25.156385
6.1261384
3.2919377
2.9816878
2.9121911
2.8675617
2.8489996
2.8445788
2.8461672
2.8495224
2.8544368
2.8597779
2.8672331
2.8727793
2.881849
2.8877944
2.8989656
2.9058926
2.918505
2.9278309
2.937544
2.9520734
2.9609557
2.9750827
2.988284
3.0014798
100.01524
27.593633
6.7490556
3.3517486
2.9895146
2.9138272
2.8682605
2.8482443
2.8432716
2.8445825
2.8480368
2.8525593
2.8578825
2.8654508
2.8707331
2.8799444
2.8852224
2.8966207
2.9032064
2.9160792
2.9255175
2.9353928
2.9499605
2.959376
2.9735588
2.9866979
2.9998534
103.51569
28.443692
7.0722148
3.3941741
2.9923062
2.9136882
2.8677982
2.8465371
2.8410224
2.8415112
2.8447574
2.8489108
2.8541326
2.8619033
2.8671546
2.8762277
2.8812772
2.8923949
2.8987947
2.9116115
2.9214473
2.9319064
2.9465077
2.9567864
2.9710176
2.984167
2.9972774
106.8937
30.146214
7.5809986
3.446918
2.9946219
2.9107156
2.8644504
2.8421479
2.8361439
2.8372301
2.8409885
2.8448704
2.8498249
2.8573322
2.862866
2.8717333
2.8769149
2.8875569
2.8940003
2.9062569
2.9160758
2.9262879
2.9406199
2.9522964
2.9671847
2.98056
2.993476
109.31731
31.936371
8.2342481
3.5292932
2.9976208
2.9094012
2.8624747
2.8384617
2.8302191
2.8308427
2.8344953
2.8388674
2.8438259
2.8513176
2.8572728
2.8661246
2.8716342
2.881818
2.8885162
2.9001867
2.9103777
2.9206003
2.9348692
2.9464869
2.9615762
2.9744619
2.9863805
112.03901
32.812343
8.6461508
3.5901834
2.9968663
2.9034538
2.8572796
2.833222
2.8250133
2.8254741
2.8285836
2.8329115
2.8373442
2.8447861
2.8508559
2.8597035
2.8658055
2.8757711
2.882833
2.8938933
2.9042731
2.9142425
2.9278532
2.93944
2.9548469
2.9684666
2.9802672
113.224
35.455953
9.407394
3.6914318
3.0008281
2.8995722
2.8513822
2.8255061
2.8165229
2.8169808
2.8207431
2.8257224
2.8302495
2.8375258
2.8436448
2.8526653
2.8591436
2.8691267
2.8766802
2.8874494
2.8983655
2.9081485
2.9216016
2.9336804
2.9484167
2.962017
2.9739486
114.19821
36.922887
10.098909
3.780644
3.0027014
2.8931821
2.845777
2.8190478
2.8092701
2.8090779
2.8126401
2.8180618
2.8228096
2.8300357
2.836299
2.8455426
2.8522576
2.8624782
2.8703981
2.880994
2.8922645
2.9019916
2.9151062
2.9273903
2.9416135
2.9545573
2.9685537
114.34861
37.932568
10.825301
3.9055391
3.0054855
2.8861784
2.8384321
2.8116087
2.8010154
2.8006537
2.804521
2.8101783
2.815307
2.8224387
2.8288354
2.8379121
2.8450217
2.8556074
2.8640346
2.8746745
2.8862081
2.8962717
2.909645
2.922558
2.9364207
2.9491014
2.9640505
113.76119
39.201155
11.451807
4.0125351
3.0078462
2.8784201
2.8318979
2.8044637
2.7933494
2.7927941
2.7965794
2.8027045
2.8082771
2.8153719
2.8219232
2.8308594
2.838363
2.849204
2.8579784
2.8688988
2.8805808
2.8908338
2.9039478
2.9175291
2.9311534
2.9440542
2.9599623
112.5306
39.87085
12.171846
4.1474627
3.0103568
2.8709494
2.8240266
2.7967007
2.7854855
2.7847839
2.7886384
2.7948368
2.8007149
2.8078566
2.8147211
2.8238542
2.8319199
2.8429309
2.8522923
2.8635274
2.875644
2.8864466
2.9000174
2.9139984
2.9275524
2.9410853
2.9577228
110.9491
40.078748
12.621264
4.2519071
3.0122835
2.8646752
2.8181961
2.7901681
2.7788076
2.7776053
2.7816415
2.7882197
2.7944483
2.801774
2.8087664
2.8178474
2.826214
2.8373949
2.8471317
2.8584117
2.8706194
2.8820232
2.896046
2.9104413
2.923744
2.9392029
2.9558964
108.57841
40.190757
13.134286
4.3626953
3.0146005
2.859095
2.8128816
2.7844276
2.7726418
2.771228
2.7748916
2.7815327
2.7882273
2.7956511
2.8033041
2.8120711
2.8213818
2.8322763
2.8430591
2.8546057
2.867136
2.8787826
2.893371
2.908651
2.9219706
2.9384577
2.9554722
106.04593
39.951718
13.406173
4.443925
3.0168254
2.8552091
2.8095476
2.7802324
2.7681676
2.7663049
2.7702736
2.7766918
2.783957
2.7914228
2.7991332
2.8080586
2.817174
2.8285086
2.8387818
2.8513659
2.8636934
2.8766476
2.8908787
2.9066906
2.9206868
2.9389886
2.9556544
102.77389
39.840177
13.722572
4.5216952
3.0187172
2.8522222
2.8060196
2.7763898
2.7640172
2.7626059
2.7660209
2.7728631
2.7798225
2.787804
2.7956011
2.8048674
2.8145056
2.8255043
2.8368701
2.848812
2.8622855
2.8750228
2.8907969
2.9061701
2.9212352
2.9397194
2.9563353
99.465701
39.24301
13.893757
4.5884996
3.0206173
2.8507724
2.8047051
2.7739712
2.7619034
2.7600795
2.7638193
2.7701275
2.7778538
2.7856748
2.794101
2.8028727
2.8130965
2.8242487
2.8360794
2.8486457
2.8617357
2.8752492
2.8905478
2.9068933
2.9220368
2.9439705
2.9583014
95.521745
38.982514
14.060357
4.6484372
3.0229633
2.8515151
2.8035739
2.7719428
2.7603811
2.7585992
2.7627061
2.7687879
2.7764313
2.784888
2.793578
2.8031047
2.812988
2.8246437
2.8365166
2.8495957
2.862986
2.8770598
2.8930163
2.9096688
2.9257179
2.9459038
2.9598087
91.647768
38.160103
14.163095
4.6977781
3.0261605
2.8533272
2.8040487
2.7720659
2.7607123
2.7588919
2.7630414
2.7691944
2.7766169
2.785283
2.7940188
2.8041627
2.8141454
2.8257046
2.8376525
2.8507438
2.8643131
2.8786401
2.8948553
2.9120098
2.9299558
2.9519608
2.9645778
87.289298
37.722267
14.237836
4.739156
3.0296884
2.8560016
2.8048411
2.7729225
2.761215
2.7602242
2.7638535
2.7706094
2.7775652
2.7864364
2.795427
2.8055904
2.8169826
2.8286529
2.8417061
2.8543529
2.8692082
2.8837184
2.9011574
2.9186663
2.9362742
2.9560587
2.9714929
83.095812
36.779547
14.226036
4.7650648
3.0334132
2.8602996
2.8061076
2.774581
2.7629692
2.7621135
2.7668519
2.7730288
2.7811072
2.7889539
2.7990097
2.8087043
2.8194621
2.8311861
2.843993
2.8573041
2.8715873
2.8872201
2.9042303
2.9228982
2.941101
2.9628455
2.9769323
78.59432
36.154791
14.230052
4.7811312
3.0367994
2.864356
2.8082136
2.7763334
2.7648943
2.7641571
2.7686919
2.7757048
2.7831701
2.7918762
2.801412
2.8126231
2.8244904
2.8369416
2.8501352
2.8642719
2.8793092
2.8955097
2.9138416
2.9331721
2.9519557
2.9700047
2.9872155
74.30975
35.280937
14.14583
4.7927427
3.0399426
2.8707373
2.8109749
2.7802546
2.7687608
2.7685989
2.7732921
2.7806616
2.7888252
2.7969395
2.8070041
2.81682
2.8280953
2.8400834
2.8537747
2.867904
2.8833871
2.8997596
2.9185347
2.9386145
2.9585017
2.9791027
2.9970723
69.972437
34.42595
13.92674
4.7728785
3.0418805
2.8749696
2.813359
2.7826576
2.7719943
2.771267
2.7764738
2.7839357
2.7920862
2.8009925
2.8111072
2.82332
2.8352188
2.8485022
2.8620531
2.8774883
2.8934574
2.9107989
2.9305519
2.9515926
2.9707433
2.9881736
3.0085911
65.672606
33.511388