/*--------------------------------*- C++ -*----------------------------------*\
| =========                 |                                                 |
| \\      /  F ield         | OpenFOAM: The Open Source CFD Toolbox           |
|  \\    /   O peration     | Version:  2406                                  |
|   \\  /    A nd           | Website:  www.openfoam.com                      |
|    \\/     M anipulation  |                                                 |
\*---------------------------------------------------------------------------*/
FoamFile
{
    version     2.0;
    format      ascii;
    arch        "LSB;label=32;scalar=64";
    class       volScalarField;
    location    "2";
    object      omega_0;
}
// * * * * * * * * * * * * * * * * * * * * * * * * * * * * * * * * * * * * * //

dimensions      [0 0 -1 0 0 0 0];

internalField   nonuniform List<scalar> 
96472
(
3.7321169
3.1007363
2.7378678
2.5681082
2.5058741
2.4892417
2.4908769
2.4905758
2.4874255
2.484799
2.4815438
2.4782129
2.4755007
2.4733117
2.4716509
2.4706664
2.4702477
2.4703112
2.4702379
2.4703683
2.4711656
2.4722292
2.4737084
2.4754942
2.4772839
2.4789451
2.481303
2.4844357
2.4880732
2.4935065
2.499743
2.5060308
2.5124175
2.5190448
2.5249361
2.53013
2.5350451
2.5399303
2.5442543
2.5486916
2.5530078
2.5606807
2.5696114
2.5799622
2.5927896
2.6060185
2.6228858
2.639322
2.659551
2.6780755
2.7012983
2.7259057
2.7456696
2.7788016
2.8061491
3.7346983
3.1036578
2.7399582
2.5692829
2.5064617
2.4896708
2.4916
2.4912742
2.4881071
2.4854217
2.4821224
2.4787735
2.4760335
2.4737343
2.4719709
2.4707728
2.4701383
2.4700118
2.4696866
2.4696099
2.4701107
2.4707718
2.4716924
2.4727201
2.4736994
2.4745706
2.4753966
2.4763555
2.4778673
2.4798418
2.4828636
2.4872131
2.4929225
2.5000264
2.5083073
2.5176325
2.5275683
2.5366726
2.5443782
2.5527883
2.5599331
2.5686019
2.57594
2.5834602
2.5939006
2.6060193
2.6148859
2.6324818
2.6430193
2.6649736
2.6767088
2.7020893
2.7202182
2.7390129
2.7784899
3.7372174
3.1065607
2.7420833
2.5705079
2.5072491
2.4904791
2.4927815
2.4926569
2.4896291
2.4871781
2.484089
2.4808986
2.4783091
2.4760563
2.4742823
2.4729661
2.4721672
2.4717614
2.4712523
2.4709517
2.4712166
2.4715756
2.4723414
2.4732864
2.4742204
2.4751197
2.4759617
2.4769833
2.4781675
2.4797513
2.4816907
2.4841757
2.4871394
2.4906163
2.4953121
2.5011572
2.5082851
2.5179877
2.5295088
2.5426377
2.5534265
2.5661803
2.5740031
2.5864168
2.5934822
2.6078752
2.6149618
2.6311966
2.6391662
2.6581294
2.6679219
2.6831038
2.7036842
2.7162697
2.7472184
3.7397625
3.1094596
2.7442099
2.5717031
2.5079497
2.491111
2.4936396
2.4935639
2.4904846
2.4880299
2.4849591
2.4817617
2.4791431
2.4768434
2.4750669
2.4737239
2.4727478
2.4721816
2.4715895
2.4712648
2.47149
2.4717916
2.472509
2.4734967
2.4744876
2.475378
2.4762559
2.4772975
2.4785255
2.4800202
2.4817823
2.4837906
2.486196
2.4890227
2.4925363
2.4964373
2.5012844
2.507244
2.5140941
2.5243578
2.5326064
2.549912
2.5591713
2.5783971
2.5871114
2.6048242
2.6123561
2.6287859
2.6367298
2.6523877
2.6664234
2.6753556
2.6935977
2.7037192
2.7271898
3.7423082
3.1123433
2.7463286
2.5729139
2.5087023
2.4918126
2.4945676
2.4945954
2.4915381
2.4891596
2.4861735
2.4830261
2.4804491
2.4782108
2.4763348
2.4748739
2.473842
2.4729974
2.4721827
2.4717453
2.4718068
2.471998
2.4726069
2.4734791
2.4744835
2.475446
2.4763476
2.4774001
2.4786561
2.4801612
2.4818811
2.4837131
2.4858921
2.4884641
2.4916932
2.4951566
2.4992711
2.5036943
2.5090657
2.5161574
2.5216574
2.5341125
2.5409837
2.5565428
2.5661567
2.5878698
2.5986297
2.6179132
2.6314828
2.6429284
2.6611724
2.6697257
2.687225
2.6966297
2.7162753
3.744851
3.1152202
2.7484582
2.5741429
2.509461
2.4925045
2.4954542
2.4956204
2.4925901
2.4902789
2.4873659
2.4842595
2.4816865
2.4794543
2.4776312
2.4761887
2.4750154
2.473976
2.4728997
2.4723292
2.4723082
2.4723334
2.4727692
2.4735803
2.4745983
2.4755254
2.4763506
2.4773397
2.4785444
2.4799663
2.481575
2.4832083
2.4851587
2.4876086
2.4904995
2.4939016
2.4980384
2.5016596
2.5074228
2.511613
2.5188094
2.5260027
2.5321125
2.5441278
2.552352
2.5632744
2.5790587
2.5902633
2.6125236
2.6225155
2.6434408
2.6547515
2.6752548
2.6852651
2.7066836
3.7473949
3.1180785
2.7505755
2.5753736
2.5102425
2.4932309
2.4963399
2.4966372
2.4936448
2.4913788
2.4885478
2.4855187
2.4829975
2.4808355
2.4789996
2.4774901
2.4763383
2.4751711
2.4738408
2.4731237
2.4729006
2.4728582
2.4731483
2.473722
2.4746611
2.4756036
2.4764504
2.4773967
2.4785512
2.4798951
2.4813626
2.4828205
2.4844922
2.4866292
2.4892708
2.4922805
2.4959881
2.4995688
2.5052294
2.5086736
2.5161393
2.5209612
2.5291104
2.53553
2.5457972
2.5522433
2.5658357
2.5737766
2.5904989
2.5994524
2.6178579
2.6277906
2.6487277
2.6594721
2.6831428
3.7499359
3.1209194
2.752706
2.5766165
2.5110211
2.4939387
2.4972047
2.4976509
2.4947238
2.4925264
2.4898012
2.4868453
2.4843358
2.4821636
2.4803999
2.4789872
2.4777597
2.4764627
2.4749326
2.4739454
2.4736328
2.4734304
2.4735775
2.4740123
2.4748645
2.4757839
2.4765901
2.4774874
2.4786045
2.4798264
2.4811927
2.4824752
2.4840214
2.4858531
2.4882745
2.4908654
2.4944686
2.4975226
2.5029315
2.5062884
2.5131263
2.5173781
2.5255684
2.5303463
2.5402191
2.5457636
2.5574169
2.5638786
2.5772742
2.5845898
2.5998515
2.6081584
2.6256002
2.6349276
2.6558693
3.7524704
3.123751
2.7548427
2.577873
2.5118325
2.4946504
2.4980478
2.4986362
2.4957711
2.4936307
2.4910098
2.4881431
2.4856922
2.4836258
2.4819121
2.4804844
2.4792761
2.4779495
2.4762988
2.4751264
2.4745446
2.4741928
2.4742274
2.4744884
2.4751407
2.4759524
2.4767582
2.4776259
2.4787257
2.4798993
2.4811411
2.4823904
2.4836955
2.4855151
2.4874936
2.4900045
2.4928532
2.4957389
2.5005197
2.503675
2.5101381
2.5138922
2.52164
2.5260145
2.5349352
2.539862
2.5503999
2.5561323
2.5678693
2.5742159
2.5875437
2.5946714
2.6093401
2.6171532
2.6344191
3.7549994
3.1265744
2.7569642
2.5791163
2.512634
2.4953513
2.4988697
2.4996243
2.4968436
2.4947882
2.4922877
2.4895194
2.4871065
2.4850388
2.4833884
2.4820424
2.4808659
2.4795003
2.4777778
2.4764175
2.4756372
2.4751127
2.4749275
2.4750575
2.4755681
2.4762783
2.4770119
2.4778104
2.4788519
2.4799758
2.481152
2.4822938
2.4835539
2.485133
2.4871511
2.4891711
2.4919369
2.4945279
2.4987018
2.5013335
2.507421
2.5107763
2.5177074
2.5217934
2.5301172
2.5347125
2.5442862
2.5493801
2.5600331
2.5658442
2.577815
2.5841513
2.5972978
2.604083
2.6188028
3.7575184
3.1293819
2.7590895
2.5803901
2.5134611
2.4960412
2.4996582
2.5005659
2.4978559
2.4958855
2.4934989
2.490846
2.4884962
2.4865165
2.4849983
2.483719
2.4825203
2.4811487
2.4793958
2.4779969
2.4769792
2.4762094
2.4758861
2.4758442
2.4761969
2.476706
2.4773295
2.4780804
2.4790948
2.4801974
2.4812435
2.4823019
2.4835227
2.4849057
2.4867781
2.4886118
2.4910514
2.4932829
2.4971676
2.4995289
2.5048608
2.5080223
2.5144126
2.518104
2.5258055
2.530091
2.5389105
2.5435474
2.5531646
2.5584502
2.5694704
2.5752968
2.58719
2.5932358
2.6060159
3.7600238
3.1321739
2.7612272
2.581668
2.5143003
2.4967387
2.5004405
2.501522
2.4989019
2.4970376
2.4947764
2.492243
2.489979
2.4880282
2.4865575
2.4853496
2.4842377
2.4828846
2.4811345
2.4796849
2.4785411
2.4775894
2.4769916
2.4767166
2.476921
2.4773361
2.4778473
2.4784998
2.4794075
2.480458
2.4814244
2.4823682
2.4834692
2.4849217
2.4863799
2.4883303
2.4904382
2.4926019
2.4958196
2.4980886
2.5028082
2.505652
2.5116475
2.515109
2.5221117
2.5260469
2.5341364
2.5383911
2.547294
2.5520389
2.5619845
2.5672633
2.5778692
2.5833763
2.5946471
3.7625166
3.1349561
2.7633673
2.5829322
2.5151218
2.4973982
2.5011666
2.5024211
2.499887
2.4981357
2.495985
2.4935532
2.4913923
2.4895208
2.488184
2.4871247
2.4860173
2.4846456
2.482903
2.4814745
2.4802807
2.4791425
2.4783763
2.4779134
2.4778987
2.4781548
2.478512
2.4790589
2.4798678
2.4808434
2.4817098
2.4825915
2.4835854
2.4848288
2.4863617
2.4878504
2.4898309
2.4918829
2.4948456
2.4968476
2.5012268
2.5037283
2.5090121
2.5122086
2.5187482
2.5223972
2.5298619
2.5337434
2.541871
2.5463025
2.5554423
2.5602509
2.5699137
2.5750807
2.5851356
3.7649952
3.1377263
2.765504
2.584213
2.5159834
2.4980742
2.5018871
2.5033051
2.5008677
2.4992283
2.4972104
2.4949219
2.4928905
2.491106
2.4897943
2.4887672
2.4878124
2.4864966
2.4848192
2.4833084
2.4820406
2.4808851
2.4799625
2.479271
2.4790204
2.4791172
2.4793593
2.4797747
2.4804507
2.4813685
2.4821885
2.4828882
2.4838449
2.4849638
2.4862836
2.4877961
2.4894985
2.4913017
2.4940127
2.4958518
2.4998241
2.5020828
2.5068045
2.5095794
2.5154375
2.5188722
2.5258035
2.5295088
2.5371521
2.5411966
2.549702
2.5540571
2.5629207
2.5674829
2.5766659
3.7674544
3.1404851
2.7676519
2.5855045
2.5168432
2.4987294
2.5025645
2.5041611
2.5018136
2.5003062
2.4984042
2.4962191
2.4943001
2.4925813
2.4913662
2.490557
2.4896559
2.4883534
2.4866749
2.4852199
2.4839103
2.482711
2.4817316
2.480907
2.4804027
2.4802975
2.4803758
2.4806534
2.4812179
2.4820387
2.4828096
2.4834447
2.4842181
2.4853178
2.486417
2.4877485
2.4893082
2.4909397
2.493314
2.4950052
2.4985599
2.5005978
2.5048544
2.5073856
2.5126536
2.5157569
2.5220491
2.5253751
2.5324358
2.5361949
2.543951
2.5479214
2.556184
2.5604943
2.5690853
3.7698915
3.1432321
2.7698159
2.5867898
2.5176809
2.4993526
2.5031822
2.5049591
2.5027077
2.5013284
2.4995523
2.4974872
2.4957379
2.4941464
2.4930073
2.4922151
2.4914583
2.4902359
2.4886209
2.4871765
2.4858327
2.4845639
2.4835378
2.4826398
2.4819973
2.4817328
2.4816571
2.4817603
2.482151
2.4827951
2.4835393
2.484147
2.4848784
2.4857608
2.4868164
2.4878901
2.4893515
2.4908481
2.4928859
2.4944326
2.4976642
2.4994375
2.503267
2.5055457
2.5103501
2.5130666
2.5186813
2.5218262
2.5282179
2.5316301
2.538744
2.5424175
2.5497602
2.5536993
2.5616401
3.7723066
3.1459669
2.7719954
2.5880851
2.5185363
2.4999868
2.5037937
2.5057658
2.5036111
2.5023658
2.5007292
2.4987672
2.4971311
2.4956053
2.4945184
2.4939393
2.4932968
2.4921025
2.4905539
2.4891348
2.4878066
2.4865042
2.4853558
2.4843565
2.4836272
2.4832779
2.4831097
2.4830588
2.4833105
2.4836785
2.4842394
2.484836
2.4855517
2.4864299
2.4873159
2.4883162
2.489571
2.4909172
2.4928277
2.4941991
2.4970164
2.4986392
2.5021273
2.5041985
2.508432
2.5109726
2.5160273
2.518827
2.5246761
2.5277707
2.5341729
2.537467
2.5440385
2.5478197
2.555036
3.7746963
3.1486925
2.7741823
2.5894047
2.5193873
2.5005909
2.5043342
2.5064945
2.5044277
2.5033021
2.5017976
2.4999269
2.4984392
2.4970506
2.4960952
2.4955741
2.4950715
2.4939903
2.492508
2.4911069
2.4897494
2.4884329
2.4872232
2.4861812
2.4853376
2.4848475
2.484595
2.4844536
2.4845901
2.4847715
2.4850595
2.4854541
2.4860881
2.4869382
2.4879192
2.488973
2.4901332
2.4913386
2.4929048
2.4941832
2.4966439
2.4981129
2.5012274
2.5031316
2.5071123
2.5093257
2.513897
2.5164145
2.521688
2.5246064
2.5303816
2.5335311
2.5390343
2.5432543
2.5493928
3.7770566
3.1514084
2.7763798
2.5907372
2.5202171
2.5011651
2.5048361
2.5071999
2.5052389
2.504239
2.5028783
2.5011141
2.4997564
2.4984613
2.497539
2.4971643
2.496802
2.4957769
2.4943968
2.493037
2.4916935
2.4903775
2.4891409
2.4879809
2.4869812
2.4863242
2.485973
2.4857731
2.4858529
2.4859207
2.4859719
2.4861125
2.4865705
2.4872781
2.4882151
2.4892349
2.4905041
2.4917054
2.4932651
2.4944973
2.4966804
2.4979109
2.5007522
2.5024242
2.5059386
2.5079982
2.5121202
2.5145631
2.5195284
2.5220395
2.5273401
2.5302209
2.5353374
2.5396922
2.5448398
3.7793894
3.1541191
2.7785982
2.5920779
2.5210485
2.5017523
2.5053299
2.5078951
2.5060304
2.5051274
2.5038923
2.5021962
2.5009344
2.4997603
2.4989767
2.4987049
2.4984728
2.497569
2.4962661
2.494948
2.4936206
2.4922568
2.4909551
2.4897221
2.4886
2.4877784
2.4872889
2.4869807
2.486906
2.4869471
2.486818
2.4868125
2.4870428
2.4875425
2.4882762
2.4891797
2.4902958
2.4914464
2.4930915
2.4943854
2.4965181
2.4978253
2.5004311
2.5019388
2.5050485
2.506878
2.5107034
2.5128638
2.5172216
2.5197463
2.5245117
2.5271852
2.5322473
2.5363507
2.5407785
3.7816897
3.1568325
2.7808483
2.5934469
2.521909
2.5023435
2.5057812
2.5085303
2.5067528
2.5059372
2.5048576
2.5032643
2.5021212
2.5010904
2.5003672
2.5001645
2.5000706
2.4992653
2.4980303
2.4967464
2.4954069
2.4940261
2.4926745
2.4913931
2.4901448
2.4891093
2.4883972
2.4879538
2.4876835
2.4875558
2.4873024
2.487086
2.4872058
2.4874739
2.48805
2.4887891
2.4898134
2.4908779
2.4923344
2.4935733
2.4957836
2.4970623
2.4997154
2.5011408
2.5042703
2.5059732
2.509493
2.511541
2.5157627
2.5182386
2.5222681
2.5251807
2.5300453
2.5335819
2.5371403
3.783983
3.1595943
2.7831949
2.5949369
2.5228636
2.5030012
2.506289
2.5092431
2.5075799
2.5068465
2.5058964
2.5043714
2.5032776
2.5023359
2.5016995
2.5016181
2.5016396
2.5009198
2.4997762
2.4985409
2.4971973
2.4957818
2.4943512
2.4929298
2.4915328
2.4902939
2.4893371
2.4886734
2.4881851
2.4877998
2.4873446
2.4869625
2.4868507
2.4869644
2.4872863
2.4877541
2.4886954
2.4895385
2.4909521
2.4920084
2.4939668
2.4952292
2.4978961
2.4994365
2.5024707
2.5041965
2.5077636
2.5097629
2.5137984
2.5161798
2.5199744
2.5229659
2.5276634
2.5306846
2.5341966
3.7863413
3.1626316
2.7860705
2.5971025
2.5244843
2.5043398
2.5075104
2.5106671
2.5090924
2.5083906
2.507525
2.506053
2.5050362
2.5042166
2.5036724
2.5035941
2.5036828
2.5030531
2.5019401
2.5007023
2.499313
2.497814
2.4962903
2.4947544
2.4931914
2.4917031
2.4904651
2.4895111
2.4888187
2.4880742
2.4873851
2.4866744
2.4862714
2.486021
2.4860872
2.4862741
2.4868706
2.4874624
2.4886511
2.4894894
2.4912323
2.4924509
2.4947609
2.4961378
2.4990977
2.5007867
2.5038979
2.5063313
2.5102422
2.5124399
2.5154996
2.5196245
2.5244135
2.5269704
2.5296415
3.7897226
3.168591
2.7938938
2.6053224
2.5324082
2.5119873
2.5152149
2.5185901
2.5170269
2.5162998
2.5154782
2.5140087
2.5129903
2.5121465
2.5114887
2.5113758
2.5114717
2.5107733
2.5095841
2.5082555
2.5067337
2.5050364
2.5032169
2.5013757
2.4993701
2.4974278
2.495763
2.4943138
2.4932878
2.4920937
2.4910024
2.4898604
2.4890773
2.4883531
2.488146
2.4880462
2.488245
2.4886227
2.4894195
2.4900686
2.4914953
2.4925233
2.4942021
2.4962268
2.4977
2.5001701
2.5029293
2.5046069
2.5084359
2.5111435
2.5139434
2.5174353
2.5217628
2.5251697
2.5271231
3.811005
3.2130119
2.8582425
2.6765255
2.6039248
2.5830144
2.5881112
2.5923157
2.5899204
2.5884661
2.5869885
2.5846852
2.5830744
2.5816666
2.5804167
2.5797513
2.5794073
2.5781488
2.5764277
2.5747128
2.5726738
2.5705108
2.5680725
2.5652959
2.5622545
2.5586577
2.5559416
2.5510298
2.5493567
2.544364
2.5424013
2.5379124
2.5364404
2.5340429
2.533544
2.5326464
2.5329213
2.5330051
2.5335259
2.5340136
2.5348939
2.535823
2.5369166
2.5384011
2.5402345
2.541507
2.5434738
2.5456604
2.548403
2.5501754
2.5518748
2.555762
2.5581353
2.5627649
2.5613659
3.9702884
3.5026621
3.232315
3.1185716
3.0656116
3.0586776
3.0808085
3.1004476
3.1148616
3.1312675
3.1487766
3.1657072
3.1849761
3.2003999
3.2133325
3.2268184
3.2404998
3.2518836
3.2631813
3.2749752
3.28264
3.2938168
3.3004089
3.302092
3.3023847
3.2939563
3.3040099
3.2715944
3.2873299
3.2554171
3.2638198
3.2328414
3.2251196
3.2030901
3.1952033
3.1690998
3.1607862
3.1404251
3.1318491
3.1136565
3.1020123
3.0867305
3.0711898
3.0644073
3.0494364
3.0410531
3.0322476
3.0219592
3.0142547
3.0093293
2.9984612
2.9940203
2.9867483
2.9842443
2.9393259
11.150731
10.729576
10.846242
11.119995
11.347684
11.383729
11.363263
11.383926
11.467145
11.540762
11.606281
11.674345
11.734162
11.78814
11.836197
11.875761
11.908456
11.943973
11.98045
12.013055
12.042473
12.067756
12.090662
12.110093
12.126245
12.141929
12.148363
12.163525
12.149604
12.171738
12.146014
12.178977
12.139643
12.174383
12.125235
12.157235
12.103786
12.131358
12.076139
12.094284
12.042426
12.052782
12.012968
12.022068
11.994127
11.995221
11.989827
11.978805
11.979052
11.983164
11.976714
11.980611
11.985507
11.992332
11.994892
12.389597
3.0454679
2.5726997
2.5333551
2.5349414
2.5390156
2.5419588
2.545503
2.5497414
2.5543633
2.5605398
2.5673247
2.5751221
2.5830918
2.5916243
2.6015226
2.6122518
2.6248445
2.6406303
2.6621255
2.6896493
2.7143121
2.7257032
2.7362916
2.7565124
2.7881856
2.8140554
13.16936
3.190568
2.5881161
2.5404088
2.5406923
2.5445045
2.5478734
2.5514035
2.5560087
2.5607494
2.5669484
2.574146
2.5820169
2.590519
2.5991215
2.6091744
2.6206889
2.6327653
2.6471754
2.6660034
2.6924334
2.7216821
2.7379226
2.7483438
2.7635089
2.7938155
2.8174828
14.013536
3.3461075
2.6079502
2.5480674
2.5468469
2.5505653
2.5543356
2.5580807
2.5627868
2.5679698
2.5741507
2.5816522
2.5897286
2.5982068
2.6071641
2.6170762
2.6287969
2.6412476
2.655412
2.6732825
2.6975562
2.7280569
2.7491946
2.7618231
2.7748308
2.802939
2.8265479
14.927612
3.5089911
2.6301142
2.5566428
2.5543909
2.5577441
2.5617273
2.5658552
2.5703872
2.5757243
2.5820124
2.5893054
2.597758
2.6065023
2.615796
2.6257814
2.6372691
2.6497685
2.6635685
2.6810305
2.7030016
2.7339338
2.7590586
2.7745869
2.7866945
2.8128919
2.8360847
15.918498
3.6958522
2.6586819
2.5684329
2.562841
2.5657505
2.5698492
2.5742052
2.5788591
2.584067
2.5903731
2.5974917
2.606023
2.6149434
2.6244912
2.6350241
2.6466228
2.6592486
2.6727139
2.6891851
2.7097398
2.7398211
2.7672536
2.78679
2.798828
2.8239131
2.8454858
16.992686
3.9013387
2.6893724
2.5807501
2.5711057
2.5737199
2.57793
2.5824193
2.5875253
2.5927943
2.5993986
2.6065944
2.6149967
2.6240758
2.6334817
2.6442527
2.6560689
2.6690288
2.6825765
2.6982468
2.7175768
2.7461444
2.7752196
2.7988087
2.8111348
2.836231
2.8566658
18.156046
4.0957243
2.7166938
2.5926566
2.579496
2.581885
2.586192
2.5906378
2.5961721
2.6017849
2.6088232
2.6163987
2.6246357
2.6338993
2.643227
2.6538019
2.6657241
2.6787243
2.6925639
2.7082153
2.7260064
2.7522751
2.7827639
2.809871
2.8232279
2.8486891
2.8693818
19.415913
4.2931079
2.747181
2.6064667
2.5893128
2.5907907
2.5947928
2.5992711
2.6050921
2.6109537
2.6178595
2.6259498
2.6343547
2.6438644
2.6537032
2.6641213
2.6760229
2.6887919
2.7025539
2.7183307
2.7355095
2.7587184
2.7900478
2.8198849
2.8352908
2.8605223
2.8826415
20.781152
4.5040811
2.7841357
2.6230732
2.6008297
2.601509
2.6051605
2.6093537
2.6148466
2.620854
2.6274568
2.6356967
2.644245
2.653775
2.6641497
2.6747426
2.6868181
2.6997204
2.7130771
2.7285635
2.7451133
2.7656894
2.7960398
2.8284601
2.8462659
2.8712633
2.8953423
22.26234
4.7450404
2.8328329
2.6446096
2.6136622
2.6127154
2.616292
2.6204354
2.6256399
2.6314436
2.637784
2.6457245
2.6541962
2.6636067
2.6741686
2.6850994
2.6975203
2.7109539
2.7245789
2.7403297
2.7556272
2.7748146
2.8017021
2.8364688
2.8569722
2.882289
2.9080945
23.870579
4.9584915
2.8695986
2.6641246
2.6262639
2.6250911
2.6282849
2.632699
2.6376069
2.6433961
2.6494603
2.6569885
2.6649885
2.6741204
2.6842753
2.695108
2.7075474
2.7212792
2.7354791
2.7520193
2.7667636
2.7846918
2.8085324
2.8440817
2.8664134
2.8925077
2.9201925
25.619826
5.2282086
2.9164007
2.6872953
2.6398202
2.6369143
2.6396473
2.6446439
2.6499556
2.6558286
2.6624547
2.6698041
2.6775513
2.6864797
2.6961899
2.7065444
2.718518
2.7319704
2.7465372
2.7634331
2.7789957
2.7954862
2.8176856
2.8518423
2.8752071
2.9022481
2.9317697
27.516052
5.4328639
2.9448797
2.7036779
2.6520211
2.6489703
2.6507678
2.6563951
2.6619181
2.6682334
2.67497
2.6825075
2.6901632
2.6988277
2.7081408
2.7181579
2.7294317
2.7423056
2.7566158
2.7729478
2.7902101
2.8065421
2.826204
2.8594378
2.8846645
2.9119691
2.9429267
29.587841
5.7865062
2.9932953
2.7291737
2.6692275
2.6615957
2.6630113
2.6685252
2.6745392
2.6806332
2.6879917
2.6958309
2.7038957
2.7126052
2.7217467
2.7313286
2.7420579
2.7541279
2.7678
2.7824973
2.8006829
2.817215
2.833714
2.8661738
2.8936665
2.9208647
2.952521
31.805726
6.0378736
3.025439
2.7452749
2.6823517
2.6737241
2.673656
2.6788511
2.6848876
2.6912847
2.6987413
2.7069104
2.7153522
2.7244955
2.7341941
2.7443637
2.7551711
2.7668327
2.7800056
2.7932181
2.8114493
2.8280751
2.8423096
2.8721215
2.901151
2.9286906
2.9603896
34.258474
6.5065986
3.0825182
2.7743227
2.7054123
2.6891882
2.688863
2.6923318
2.6977973
2.7032283
2.7101473
2.7182734
2.7268812
2.7360257
2.7458321
2.7561125
2.7669765
2.7784612
2.7916635
2.8038438
2.8211032
2.8379463
2.8505759
2.8766127
2.9058311
2.9334656
2.9656582
36.847173
6.8520163
3.1254636
2.7956215
2.7214942
2.7028607
2.7006444
2.7037093
2.7093492
2.7146475
2.7215221
2.7295197
2.7382913
2.7476222
2.7575827
2.7684877
2.7798318
2.7916209
2.8048957
2.8171378
2.8328791
2.8505938
2.8615107
2.8835251
2.9104787
2.9371124
2.9695517
39.704611
7.5031801
3.2037586
2.8261428
2.7468363
2.7212653
2.7166912
2.7185211
2.7233054
2.7284983
2.7337811
2.7407748
2.7487357
2.7574744
2.767221
2.7779105
2.7895209
2.8016633
2.8151909
2.8286054
2.8429517
2.8627694
2.87324
2.8919109
2.9166615
2.9410544
2.9720779
42.73733
8.0299028
3.2702229
2.8574522
2.7692484
2.7380667
2.7327861
2.7339163
2.7387628
2.742875
2.7481156
2.7543489
2.761729
2.7697921
2.7786181
2.7883652
2.7992509
2.8112563
2.8242343
2.8388917
2.85178
2.8729005
2.8845764
2.9008452
2.9238262
2.9460427
2.9747069
45.963387
8.7223071
3.3541498
2.8820524
2.7896721
2.7558201
2.746927
2.7476261
2.751806
2.756816
2.7617083
2.7676882
2.7743866
2.7820559
2.79032
2.7995483
2.809759
2.8217213
2.8339493
2.849518
2.8619234
2.883503
2.8977914
2.9121531
2.9346275
2.9553124
2.9811911
49.50817
9.7056564
3.4833451
2.9216318
2.8174653
2.775411
2.7645553
2.7639162
2.7687568
2.7734576
2.7776168
2.782891
2.788651
2.7951392
2.8022901
2.8100195
2.8192235
2.8300817
2.8411613
2.8561854
2.8680596
2.8885553
2.9055774
2.9197835
2.9422126
2.9628053
2.9872108
53.149657
10.449334
3.5753329
2.946026
2.8355417
2.7908837
2.7767931
2.7764769
2.7805825
2.7859497
2.7905863
2.7960578
2.801626
2.8082256
2.8152275
2.8225309
2.8310878
2.8409364
2.8510105
2.8650794
2.8762169
2.8943855
2.9125844
2.9272629
2.9486381
2.9688091
2.9929031
57.000906
11.422851
3.6815441
2.9757804
2.8569356
2.8081988
2.7918969
2.7886936
2.7930381
2.7990932
2.8035837
2.8092234
2.8146076
2.8209472
2.8275595
2.8341224
2.8419159
2.8508615
2.8601381
2.8731153
2.883086
2.8996282
2.9177112
2.9330417
2.9539049
2.9741819
2.9974873
61.205966
12.863743
3.8740503
3.0097038
2.8790058
2.8268777
2.8032802
2.8017843
2.8042921
2.8104978
2.8149683
2.8210106
2.8266053
2.8332256
2.8402693
2.8465667
2.853833
2.8617716
2.8699118
2.8823343
2.8905655
2.90516
2.9216558
2.9365029
2.9571428
2.9763302
2.9987162
65.325624
13.778955
4.0045551
3.0370326
2.8968549
2.8393555
2.8167284
2.8100952
2.8133153
2.8193812
2.8246153
2.8298406
2.8357712
2.8427857
2.8500852
2.8573964
2.8644884
2.8726759
2.8800665
2.8918167
2.8988338
2.911773
2.9264397
2.9394163
2.9598379
2.9768616
2.998438
69.786152
15.351509
4.2039897
3.068033
2.9114743
2.8580803
2.8249552
2.8209083
2.8217604
2.8271615
2.8328455
2.8384348
2.8446171
2.85128
2.858698
2.8664011
2.8731694
2.8817801
2.8886332
2.900864
2.9068379
2.9188636
2.9319609
2.9429786
2.9625389
2.978442
2.9977359
74.166735
16.768298
4.4433624
3.1016304
2.9316508
2.8688051
2.8383426
2.8283956
2.8289471
2.8336356
2.8386409
2.8443461
2.8508983
2.8578466
2.8656214
2.8738342
2.8810122
2.8900725
2.896463
2.908743
2.9147996
2.9257815
2.9379685
2.9475508
2.9656259
2.9810244
2.9972603
78.820153
18.397476
4.675698
3.1354637
2.9422297
2.8843192
2.8454549
2.8361762
2.835724
2.8400259
2.8450059
2.8503394
2.85636
2.863137
2.8708863
2.879276
2.8866277
2.8958894
2.9024038
2.9148755
2.921173
2.9318246
2.9438362
2.9520667
2.9680154
2.9833341
2.9973437
83.214395
20.118954
5.0231213
3.173391
2.9581874
2.8921893
2.8543563
2.8419771
2.8394139
2.8430134
2.847318
2.8529856
2.8591063
2.8657197
2.8731114
2.8821053
2.8897728
2.9003405
2.9070969
2.920031
2.9269081
2.9376405
2.9500234
2.9575561
2.9718465
2.9866977
2.9993106
87.77472
21.68241
5.3051195
3.2054456
2.9652398
2.9018574
2.8601963
2.8460408
2.8435863
2.8466299
2.8505283
2.8556573
2.8616225
2.8683325
2.8749628
2.8835156
2.8905612
2.9013059
2.9083752
2.9211754
2.9295091
2.93989
2.9534184
2.9620126
2.9757238
2.9897604
3.002782
92.005447
23.840328
5.7887034
3.2532672
2.9769177
2.9078989
2.864712
2.8491618
2.8450784
2.8470776
2.8504558
2.8555537
2.8612119
2.868276
2.87444
2.8831471
2.8898581
2.9006308
2.9078168
2.920366
2.9293205
2.9392833
2.9534179
2.9623592
2.9762104
2.9897426
3.0028207
96.212991
25.155148
6.1255848
3.2922543
2.9820432
2.9125771
2.8679031
2.8494096
2.8449561
2.8465564
2.8499326
2.8547783
2.8602097
2.8675544
2.8732159
2.882138
2.8882491
2.8992408
2.9063187
2.9188373
2.9282123
2.9379527
2.9524234
2.9614247
2.9754366
2.9887349
3.0018718
100.01743
27.591966
6.7483122
3.3519651
2.9898785
2.9141899
2.8685968
2.8486467
2.8435948
2.8450217
2.8483575
2.852987
2.8582113
2.8658572
2.8710923
2.8802968
2.8856552
2.8968895
2.9036785
2.9163368
2.9259772
2.9357148
2.950374
2.9597683
2.9739564
2.9871024
3.0002454
103.51928
28.443055
7.0713719
3.3944012
2.9926872
2.9140147
2.8681524
2.8469037
2.8413525
2.8419261
2.8450604
2.8493578
2.8544031
2.8623603
2.8674512
2.8766338
2.881655
2.8927081
2.8992434
2.9118487
2.9219263
2.9321505
2.9469801
2.9570837
2.9714681
2.9845119
2.9976674
106.89618
30.150707
7.5811316
3.4471779
2.9949771
2.9110186
2.8648201
2.8424537
2.8365008
2.8375755
2.8413228
2.8452778
2.8501006
2.8577852
2.8631328
2.8721813
2.8772395
2.8879367
2.8943902
2.9065556
2.9165288
2.9265232
2.9410871
2.9525267
2.9676352
2.980866
2.9938302
109.3208
31.933083
8.232974
3.5294652
2.9979358
2.909731
2.8628139
2.838779
2.8305929
2.8311604
2.8348628
2.839223
2.844143
2.8517295
2.8575524
2.8665679
2.8719267
2.8822431
2.8888441
2.9005451
2.9107863
2.920869
2.9353154
2.9467053
2.9619764
2.9747297
2.9866737
112.04344
32.810039
8.6447087
3.5902539
2.9971662
2.903784
2.8575802
2.8335488
2.8253651
2.8257832
2.8289628
2.8332269
2.8377075
2.845132
2.8511812
2.8601033
2.8660991
2.8762076
2.8831296
2.8942792
2.904654
2.9145443
2.9282438
2.9397137
2.9551969
2.9687508
2.9805706
113.22934
35.454144
9.4056151
3.6912976
3.0011033
2.8999015
2.851694
2.8258268
2.8168775
2.8172804
2.8211193
2.8260373
2.8306284
2.837852
2.8439916
2.8530409
2.8594434
2.8695463
2.8769764
2.8878366
2.8987156
2.9084919
2.9219433
2.9339967
2.9487404
2.9622759
2.9742519
114.20425
36.923112
10.097815
3.7805544
3.0029812
2.8934994
2.8460986
2.8193784
2.8096218
2.8093917
2.8130068
2.8183896
2.8231807
2.830376
2.8366474
2.845904
2.8525672
2.8628648
2.8707163
2.88136
2.8926019
2.9023359
2.9154408
2.927708
2.9419424
2.9548265
2.9688601
114.35518
37.934145
10.824391
3.9056655
3.0057676
2.8864712
2.8387708
2.8119499
2.8013531
2.8009938
2.8048696
2.810526
2.8156728
2.8227908
2.8291835
2.8382645
2.8453422
2.8559717
2.864366
2.8750261
2.8865422
2.8966021
2.909979
2.9228749
2.9367445
2.9493976
2.9643515
113.76855
39.202712
11.450427
4.0125225
3.0081021
2.8787157
2.8322227
2.8047909
2.7936901
2.793133
2.7969211
2.8030563
2.8086206
2.8157406
2.8222408
2.8312245
2.8386791
2.8495527
2.8583239
2.8692208
2.8809431
2.8911333
2.9043093
2.9178268
2.9314931
2.9443475
2.9602856
112.53788
39.871094
12.170029
4.1471846
3.0105856
2.8712493
2.8243474
2.7970031
2.7858276
2.7851104
2.7889664
2.7952006
2.801025
2.8082426
2.815026
2.8242016
2.8322579
2.843245
2.852646
2.863832
2.8759852
2.8867458
2.9003588
2.9143083
2.9278646
2.9414023
2.9580504
110.95633
40.077777
12.618754
4.2514045
3.0125003
2.8649456
2.8185302
2.7904798
2.7791189
2.7779606
2.7819166
2.788596
2.7947344
2.8021373
2.809088
2.8181612
2.8265652
2.8376838
2.8474991
2.858688
2.8709783
2.8822849
2.8963911
2.9107408
2.9240595
2.9395086
2.9562267
108.58618
40.188994
13.130431
4.3617121
3.0148061
2.8593609
2.8131914
2.7847624
2.7729496
2.771553
2.7752125
2.7818327
2.7885742
2.7959379
2.8036443
2.8123895
2.8216721
2.8326257
2.8433133
2.8549799
2.867359
2.8791624
2.8936071
2.9090012
2.9222586
2.9387575
2.955795
106.05417
39.948586
13.401636
4.4426552
3.0170106
2.8554855
2.8098279
2.7805743
2.7684522
2.7666663
2.7705221
2.7770897
2.7841725
2.7918435
2.7993244
2.8084777
2.8174017
2.8288461
2.8390738
2.8516198
2.8640512
2.8768401
2.8913032
2.9068452
2.9210701
2.9391945
2.9559821
102.78231
39.837378
13.717609
4.5202135
3.0188398
2.852525
2.8062813
2.7767133
2.764327
2.7629268
2.7663404
2.7731287
2.7801972
2.7880242
2.7960178
2.805035
2.8149487
2.825674
2.8372631
2.8490321
2.8626142
2.8752898
2.8910575
2.9064974
2.9214391
2.9400593
2.956582
99.474285
39.240774
13.888648
4.5869865
3.0207444
2.8509913
2.805046
2.7742278
2.7622402
2.7603821
2.7641454
2.7704252
2.7781311
2.7860335
2.7943544
2.8032459
2.8133136
2.8246268
2.8362957
2.849003
2.8619583
2.8755825
2.8907671
2.907189
2.9222915
2.9442354
2.9585583
95.529899
38.980083
14.055082
4.6468184
3.0231017
2.8517239
2.8038882
2.7722305
2.7606778
2.7589377
2.7629639
2.7691688
2.7766447
2.7852451
2.7938458
2.8034236
2.8133009
2.8248934
2.8368775
2.849793
2.8633496
2.8772438
2.8933632
2.909861
2.9260255
2.9461352
2.9600566
91.655852
38.158139
14.157863
4.6960545
3.0263033
2.8535446
2.8043422
2.7723722
2.7609619
2.7592798
2.7632455
2.7696031
2.7768407
2.7856136
2.7942952
2.8044424
2.814495
2.8259314
2.8380114
2.8509528
2.8646543
2.8788576
2.8951548
2.9122427
2.9302262
2.9522078
2.9648628
87.296831
37.719742
14.233146
4.7374088
3.0297637
2.8563232
2.8050128
2.7733178
2.761419
2.7605708
2.7641602
2.7708365
2.7779891
2.7865648
2.7958915
2.8056962
2.8174119
2.8288154
2.8420562
2.8545874
2.8694765
2.8840111
2.9013736
2.9189593
2.9364667
2.9563072
2.9716938
83.103436
36.776791
14.221509
4.7634255
3.0335011
2.8605272
2.8064274
2.7747756
2.7633447
2.7623106
2.7672087
2.7732835
2.7813722
2.7893028
2.7991864
2.8091172
2.8195899
2.8316142
2.8441083
2.8577074
2.8717287
2.8875663
2.9044311
2.9231858
2.9413453
2.9630895
2.9771646
78.601431
36.150761
14.225938
4.7794506
3.0368957
2.8646219
2.8084523
2.7766457
2.7651187
2.7644843
2.7689286
2.7760226
2.7834412
2.7921348
2.80172
2.8128447
2.8248086
2.8371313
2.8504657
2.8644514
2.8796478
2.8956871
2.9141501
2.9333815
2.9522328
2.9702233
2.9874603
74.317682
35.274489
14.140794
4.7910422
3.0399796
2.8710102
2.8112343
2.7804894
2.7691155
2.7687727
2.7736628
2.7808627
2.7891567
2.7972127
2.8072351
2.8171601
2.8282878
2.8404268
2.8539432
2.8682389
2.8835653
2.9000713
2.9187168
2.9388946
2.9587187
2.9793415
2.997287
69.979238
34.4202
13.921593
4.7712174
3.0420141
2.8751254
2.8136828
2.7828899
2.7722648
2.7716008
2.7766517
2.7843244
2.7922507
2.8013486
2.8113203
2.8235704
2.8355009
2.8487014
2.8623737
2.8776522
2.8937774
2.9109656
2.9308353