/*--------------------------------*- C++ -*----------------------------------*\
| =========                 |                                                 |
| \\      /  F ield         | OpenFOAM: The Open Source CFD Toolbox           |
|  \\    /   O peration     | Version:  2406                                  |
|   \\  /    A nd           | Website:  www.openfoam.com                      |
|    \\/     M anipulation  |                                                 |
\*---------------------------------------------------------------------------*/
FoamFile
{
    version     2.0;
    format      ascii;
    arch        "LSB;label=32;scalar=64";
    class       volScalarField;
    location    "2";
    object      rho_0;
}
// * * * * * * * * * * * * * * * * * * * * * * * * * * * * * * * * * * * * * //

dimensions      [1 -3 0 0 0 0 0];

internalField   nonuniform List<scalar> 
62344
(
1.0262696
1.0955896
1.1115928
1.0857873
1.0619619
1.052657
1.0525252
1.0485037
1.0514814
1.0476156
1.0448086
1.0378415
1.0324681
1.0307905
1.0349207
1.0289013
1.024248
1.0276349
1.022577
1.0179607
1.0231825
1.0211157
1.0111415
1.0107094
1.0161034
1.0161235
1.0162008
1.0141069
1.0047844
1.0024616
1.0097733
1.015323
1.0133082
1.0062945
1.0006799
1.0013033
1.0062303
1.0102282
1.0108004
1.0075788
1.0014597
0.9956577
0.99223467
0.99135948
0.99291828
0.99682716
1.0018994
1.0063337
1.0083524
1.0069184
1.0021469
0.99607383
0.99130478
0.98882122
0.98845611
1.026183
1.0964358
1.1128896
1.0860647
1.0616053
1.0527535
1.0527026
1.0485004
1.0516419
1.048267
1.0451913
1.0375424
1.0327586
1.0316368
1.0350425
1.0289192
1.0243026
1.0281743
1.0224598
1.0186587
1.0239346
1.0208132
1.0111156
1.0110813
1.0156085
1.016912
1.0170757
1.0127126
1.0042594
1.0029602
1.0095906
1.0152779
1.0132773
1.0057584
1.0002614
1.002381
1.0085387
1.0120817
1.0107305
1.0054916
0.99895144
0.99489539
0.99380648
0.99451746
0.99605976
0.9986168
1.0015526
1.0046932
1.0066553
1.0063998
1.0032763
0.99791436
0.99199943
0.98741165
0.98479617
1.026307
1.0977286
1.1143621
1.0862454
1.0610723
1.0527677
1.0527926
1.0486042
1.0516709
1.0489503
1.0455993
1.0371968
1.0330274
1.0325012
1.0350534
1.0289436
1.0243374
1.0286285
1.022913
1.0190529
1.02443
1.0202246
1.0112536
1.0110291
1.0151213
1.017955
1.0175539
1.0108107
1.0037846
1.0040139
1.009749
1.0145101
1.012772
1.0054721
1.0002015
1.0031023
1.0096733
1.0122748
1.0091194
1.0023314
0.99629078
0.99444244
0.99601513
0.9983159
0.99955973
1.0000758
1.0001349
1.0009019
1.0021566
1.0032578
1.0027891
1.0001475
0.99523626
0.98955304
0.98444489
1.0263656
1.0986769
1.11573
1.0868221
1.0607679
1.0527495
1.0526975
1.0487051
1.0515391
1.0494209
1.0458143
1.0367383
1.0331695
1.0333196
1.0349425
1.0288845
1.0244425
1.0288938
1.0235443
1.0195038
1.0244766
1.0193779
1.0118653
1.011411
1.0148337
1.0187103
1.0177073
1.0090383
1.0036669
1.0062969
1.0109578
1.0137251
1.0116767
1.0051119
1.0006928
1.0041432
1.0101589
1.0115306
1.0066363
0.99892104
0.99353586
0.99363914
0.99745857
1.001246
1.0029743
1.0021697
0.99984878
0.99766609
0.99720698
0.99854655
1.0000937
1.000382
0.9983941
0.99387029
0.98799175
1.026446
1.0994454
1.1167263
1.0871439
1.0605926
1.0529858
1.052681
1.0489723
1.0516421
1.0499581
1.0461228
1.0364916
1.033435
1.034209
1.034762
1.0288398
1.0246593
1.0293291
1.0240839
1.0200027
1.0242085
1.018589
1.012498
1.0118847
1.0142794
1.0188871
1.0178423
1.0076965
1.00364
1.0081875
1.0126199
1.0129725
1.0099313
1.0043756
1.0014205
1.0051787
1.0102276
1.0105012
1.0046664
0.99609071
0.99109685
0.99257759
0.9978603
1.0030383
1.0057008
1.0049364
1.0012613
0.99697421
0.99445033
0.99458053
0.99651143
0.99848245
0.99913995
0.9972105
0.99318541
1.0265174
1.1001289
1.1176502
1.0873123
1.0601313
1.0530372
1.0525508
1.0491449
1.0517705
1.0503842
1.0463877
1.0363039
1.0337061
1.0350323
1.0344498
1.0287934
1.0249359
1.0297974
1.0244972
1.0205807
1.0237436
1.0178503
1.0130484
1.0125864
1.0139705
1.0188603
1.0181456
1.0074551
1.0035918
1.0098916
1.0144702
1.0125698
1.007642
1.0030427
1.0022323
1.0062705
1.0103994
1.0098379
1.0035706
0.99482258
0.98986057
0.99153382
0.99740738
1.0035248
1.0072879
1.0072575
1.0039121
0.99883189
0.99477823
0.99294791
0.99335322
0.99499781
0.99670136
0.99739249
0.99636084
1.0266041
1.100736
1.1185086
1.0876543
1.0598637
1.0530895
1.0523479
1.0491992
1.0518944
1.050736
1.0466305
1.0361765
1.0340133
1.0358073
1.0339791
1.0288776
1.0253666
1.0300673
1.0248405
1.0213785
1.0231888
1.0172424
1.0137167
1.0134604
1.0137414
1.0185822
1.0181673
1.0074807
1.0038525
1.0109888
1.0160161
1.0123271
1.0053984
1.0015047
1.0029121
1.0074947
1.0105457
1.0092408
1.0030995
0.99498007
0.99031438
0.99152968
0.9970186
1.002973
1.0073071
1.0082525
1.0058997
1.0016119
0.99697609
0.99347231
0.99170178
0.99155466
0.99269133
0.99427252
0.99544241
1.0267017
1.1012826
1.1192457
1.0880601
1.0598668
1.0533915
1.0523531
1.0493286
1.0520425
1.051047
1.0468442
1.0361048
1.03431
1.0365273
1.0333937
1.0289533
1.0260798
1.0301794
1.0250288
1.0222361
1.0228601
1.0165733
1.0143838
1.0143927
1.0137404
1.0181582
1.0178706
1.0078291
1.0041719
1.0117085
1.0173741
1.0126175
1.0036491
1.0000044
1.0033709
1.0089014
1.0110119
1.0087115
1.0027082
0.99579877
0.99208578
0.99296663
0.99715988
1.0021095
1.0060631
1.0076903
1.0064577
1.0035364
0.99951741
0.99526997
0.99175181
0.98956976
0.98896996
0.98979084
0.99157132
1.0267954
1.1017102
1.1198571
1.0884187
1.059875
1.0536468
1.0524556
1.0495553
1.0522374
1.0513519
1.0470273
1.0361266
1.0345887
1.037216
1.0328033
1.0289197
1.0270555
1.0302263
1.0251226
1.0229853
1.0226544
1.0160327
1.0149369
1.0153744
1.0140765
1.0175785
1.0173889
1.0080785
1.0044303
1.0119905
1.0181285
1.0131042
1.0026778
0.99890255
1.0037073
1.0102318
1.0117685
1.0082838
1.0021008
0.9966299
0.99440734
0.99536559
0.99813557
1.0015429
1.0043945
1.0058106
1.0055819
1.0040477
1.0010932
0.99722877
0.99303499
0.98935761
0.98693434
0.9861369
0.98705381
1.0268734
1.102047
1.1203553
1.0887561
1.0598068
1.0536561
1.0523681
1.0496664
1.0523795
1.0516171
1.0471535
1.036223
1.0347899
1.0378239
1.0323957
1.0288375
1.0280774
1.0302378
1.0252146
1.0235333
1.0226356
1.0155423
1.0153887
1.0163111
1.0147816
1.0169788
1.0166161
1.0083345
1.0048481
1.0119637
1.0182408
1.0136289
1.0025212
0.99814861
1.0038545
1.0113563
1.0125543
1.0079028
1.0013224
0.99687391
0.99629975
0.99788573
0.99975733
1.001546
1.0029367
1.0036578
1.0038968
1.0034237
1.001637
0.99865727
0.99462764
0.99044427
0.98685123
0.9845345
0.98396886
1.0269366
1.1023271
1.1207695
1.0891102
1.0597754
1.0535551
1.0521603
1.0496289
1.0524227
1.0518062
1.0472187
1.0363945
1.0349471
1.0382553
1.032184
1.0288284
1.0290189
1.0301328
1.0253424
1.023965
1.0226609
1.0151971
1.0157036
1.0171701
1.0156468
1.0164734
1.0156489
1.0084841
1.0054463
1.0117478
1.0178946
1.0139409
1.0030487
0.99797011
1.0036007
1.0119831
1.0131767
1.007716
1.0003362
0.99642237
0.99733683
1.0000776
1.0017807
1.0022528
1.0019588
1.0016927
1.0016875
1.001703
1.0009284
0.99905822
0.99593852
0.99214274
0.98823113
0.98505362
0.98326358
1.0269894
1.1025557
1.1211272
1.0894788
1.0598485
1.0535257
1.0520621
1.0496142
1.0524818
1.0519913
1.0472786
1.0366681
1.0351325
1.0385169
1.0320252
1.0289372
1.0298769
1.0299368
1.0255572
1.0243941
1.0227771
1.0150216
1.0158447
1.0178885
1.0166027
1.0161438
1.0146344
1.0085535
1.0060898
1.0113831
1.017051
1.0141143
1.0040292
0.99846714
1.0033063
1.0117301
1.0132538
1.0075118
0.999462
0.99575484
0.99773171
1.0014897
1.0037842
1.0036047
1.001827
1.0001253
0.99923584
0.99929185
0.99915414
0.99836748
0.99646779
0.99376045
0.99047062
0.98724287
0.98480155
1.0270315
1.1027264
1.1214549
1.0898415
1.0599887
1.0535837
1.0521256
1.0497246
1.0526461
1.0522307
1.0473688
1.0370173
1.0353873
1.0386495
1.0318665
1.0290999
1.0306792
1.0297468
1.0257678
1.0248437
1.0228833
1.0150693
1.015781
1.0184785
1.0175616
1.0159705
1.0137074
1.0086054
1.0068972
1.0111311
1.0159695
1.0139401
1.0050827
0.99960074
1.0033016
1.0108484
1.0126255
1.0069072
0.99894471
0.99514408
0.99758201
1.0023845
1.00549
1.0052743
1.0024077
0.99929282
0.99717322
0.99659308
0.9968654
0.99697821
0.99641345
0.9949751
0.99275077
0.99016146
0.98777972
1.0270642
1.1028476
1.1217637
1.0901823
1.0601382
1.0536628
1.0522351
1.0499116
1.0528435
1.0524791
1.0474513
1.0373569
1.0356844
1.0387779
1.0317168
1.0292361
1.0313958
1.0296166
1.025977
1.025285
1.0229622
1.015347
1.0156498
1.0188874
1.0183973
1.015983
1.0128863
1.0087064
1.0078427
1.0111348
1.0148381
1.0134123
1.0062205
1.0012157
1.0037854
1.0098752
1.0114618
1.0061811
0.99857077
0.99476534
0.9972634
1.0025653
1.0066176
1.0069274
1.0037939
0.99923609
0.99585956
0.99436787
0.99438768
0.99514493
0.99575853
0.99559441
0.99465961
0.99302801
0.99114751
1.0270882
1.1029298
1.1220568
1.090496
1.0602897
1.0537075
1.052291
1.0500459
1.0529563
1.0526666
1.0474816
1.0376153
1.0359349
1.038921
1.0316304
1.0293307
1.0319785
1.0295586
1.0261948
1.0256963
1.0230275
1.0158006
1.0155204
1.0190507
1.0191777
1.0161652
1.0123022
1.0087958
1.0087939
1.011408
1.0138497
1.0125848
1.0071971
1.003106
1.0046788
1.0089304
1.0099832
1.0051715
0.99829884
0.99476416
0.99688442
1.002292
1.0071621
1.0080972
1.0051234
1.0000728
0.99534769
0.99294544
0.99244129
0.99314846
0.99438665
0.99535304
0.99555684
0.99504963
0.99401213
1.0271031
1.1029829
1.1223309
1.0907904
1.0604317
1.0537369
1.0522738
1.0500766
1.0529549
1.0527712
1.0474611
1.0377999
1.0360791
1.0390388
1.0316733
1.0294751
1.0323349
1.0295409
1.0264517
1.0260199
1.0230652
1.0163582
1.0153843
1.0191006
1.0198992
1.0165019
1.0118684
1.0088799
1.0097717
1.0119094
1.0129756
1.0116163
1.0077961
1.005086
1.0060328
1.008474
1.0085279
1.0040995
0.99810991
0.99507343
0.99674539
1.0018655
1.0069324
1.0085845
1.0063062
1.0013163
0.99581686
0.99229862
0.9910784
0.99151833
0.99281086
0.99427325
0.99543675
0.99592247
0.99581908
1.0271083
1.1030089
1.122579
1.0910667
1.0605791
1.053767
1.052236
1.0500377
1.0528799
1.0528447
1.0474676
1.0379869
1.0361402
1.0390743
1.0318207
1.0297074
1.0325563
1.0295087
1.0267912
1.0262818
1.0230762
1.0169824
1.0153378
1.0190658
1.0205136
1.0169126
1.0115608
1.0089615
1.0106884
1.012659
1.0124934
1.0106733
1.0080285
1.0068992
1.0076009
1.0084649
1.0072259
1.0029951
0.99806944
0.99565609
0.996991
1.0015427
1.0063276
1.0084707
1.0068721
1.0024506
0.99701994
0.99280115
0.99062673
0.99028095
0.99129439
0.99294916
0.99457136
0.99581754
0.99650242
1.027103
1.1030062
1.1227963
1.091326
1.0607471
1.0537995
1.0522068
1.0500058
1.0528169
1.0529448
1.0475796
1.0382665
1.0361802
1.0390042
1.0319999
1.0300062
1.0327033
1.0294529
1.0271841
1.0265333
1.0230425
1.0176274
1.0154286
1.018983
1.0210232
1.0173563
1.0113822
1.0090303
1.0114857
1.0135393
1.0123339
1.0098466
1.008044
1.0083744
1.0093232
1.0089767
1.0063632
1.0019558
0.99797951
0.99631286
0.99771952
1.0015087
1.0056182
1.0077453
1.0069305
1.0034105
0.99840256
0.99401349
0.99113372
0.98993334
0.99025019
0.99157021
0.99330609
0.99506259
0.99639724
1.0270874
1.1029713
1.1229823
1.0915717
1.0609315
1.0538441
1.0521898
1.0500104
1.0528125
1.053096
1.0477971
1.0386384
1.0362464
1.038865
1.0321402
1.0303138
1.0328064
1.029415
1.0276117
1.0267726
1.022973
1.0182311
1.0156204
1.0189376
1.021439
1.0178029
1.0112808
1.0090601
1.0122172
1.0145098
1.0125764
1.0091606
1.0079592
1.0094129
1.0109695
1.0098222
1.005919
1.001172
0.99789941
0.99701614
0.99871656
1.0019498
1.0051312
1.0068819
1.0065347
1.0039121
0.99986227
0.9956719
0.99232051
0.99034597
0.98985305
0.99060128
0.99215965
0.9940426
0.99575486
1.0270622
1.1029039
1.1231479
1.0918194
1.0611191
1.0538991
1.0521881
1.0500593
1.0528656
1.0532713
1.0480692
1.0390793
1.0363655
1.0386981
1.0322305
1.0306148
1.0329244
1.0293581
1.0280282
1.0270641
1.0229223
1.0187842
1.015852
1.0189482
1.0217735
1.0182643
1.0112948
1.0090925
1.0128171
1.0154654
1.0130931
1.0088157
1.007677
1.0100644
1.0124682
1.0109242
1.0058736
1.0005543
0.99765259
0.99757761
0.99987007
1.0027583
1.0049673
1.0060581
1.0058155
1.0041329
1.0011191
0.99743775
0.99396788
0.99142078
0.99016104
0.99025712
0.99133687
0.99308453
0.99492107
1.0270285
1.1028119
1.1232862
1.0920464
1.0613042
1.0539388
1.0521789
1.0501207
1.0529285
1.053399
1.0482882
1.0394816
1.0364956
1.0385578
1.0322737
1.03087
1.0330212
1.0293287
1.0283939
1.0273681
1.0228804
1.0192346
1.0161458
1.0189291
1.0220669
1.0187289
1.0114802
1.0091016
1.0132457
1.0163958
1.0137838
1.0088013
1.0073658
1.0104781
1.0137152
1.0121971
1.0063466
1.0004753
0.99736808
0.99804897
1.000962
1.0038037
1.005236
1.0055238
1.0051085
1.0040491
1.0019829
0.9990224
0.99577881
0.99298776
0.9911046
0.99043574
0.99095178
0.99238523
0.99420842
1.0269882
1.102712
1.1234316
1.0922867
1.0614875
1.0540046
1.0521838
1.0502005
1.0529854
1.053471
1.0484311
1.0398048
1.0366376
1.0385124
1.0323526
1.0310543
1.0330922
1.0293218
1.028723
1.027646
1.0228632
1.0196446
1.0164754
1.0188847
1.0222752
1.0191706
1.0116832
1.0090975
1.0134779
1.0171567
1.014534
1.0089763
1.0070733
1.0106228
1.0145498
1.013392
1.0071011
1.000413
0.99715621
0.99834078
1.0018314
1.0048331
1.005824
1.0052695
1.00457
1.0038102
1.0024578
1.0002497
0.99746163
0.99467676
0.99240609
0.99110934
0.99100932
0.99197996
0.9935519
1.0269413
1.1025945
1.1235134
1.0924859
1.0616374
1.054038
1.0521623
1.0502552
1.0530084
1.0534583
1.0484583
1.0399981
1.0367811
1.0385462
1.0324804
1.0312047
1.0331325
1.0293696
1.0289776
1.0279544
1.0229044
1.0200155
1.0168553
1.0188697
1.0224725
1.0196822
1.0120782
1.009101
1.0135647
1.0178328
1.0154243
1.0094801
1.0069317
1.0106762
1.0152302
1.0145117
1.0083152
1.0008495
0.99699636
0.9983765
1.0024466
1.0057215
1.0065354
1.0055205
1.0044816
1.0036114
1.0025872
1.0011276
0.99897563
0.996427
0.99393775
0.9921115
0.99140209
0.99193994
0.99322
1.026892
1.1025007
1.1236282
1.0927183
1.06182
1.0540836
1.0521333
1.0502774
1.052984
1.0533842
1.0484165
1.040086
1.0368695
1.0385968
1.0325989
1.0312836
1.0331052
1.0293586
1.029118
1.0282064
1.0229741
1.0201563
1.0170731
1.0188072
1.0225271
1.0200961
1.0124677
1.0090879
1.0135108
1.0181664
1.0162708
1.0099615
1.0066889
1.0104373
1.0156087
1.0154812
1.0094947
1.0013141
0.99692576
0.99820274
1.0025652
1.006317
1.007169
1.0058732
1.0044384
1.0034395
1.0025711
1.0016542
1.0001858
0.99796072
0.99539419
0.9932162
0.99198661
0.9919716
0.99290398
1.0268319
1.1023559
1.1236619
1.0929012
1.0619921
1.0541656
1.0521242
1.0503139
1.0529653
1.0533114
1.0483722
1.040173
1.036959
1.0387234
1.0328778
1.0314794
1.033178
1.0294114
1.0293256
1.0285298
1.0232156
1.0205079
1.0174411
1.0188458
1.0226484
1.0205846
1.0130009
1.0092294
1.0135734
1.0186438
1.0171162
1.0106535
1.0068679
1.0102882
1.0157642
1.0166059
1.0108596
1.0022026
0.99711585
0.99802432
1.0026179
1.006736
1.0079519
1.0069823
1.0050085
1.0034763
1.0025961
1.0019941
1.0010509
0.99927561
0.99681928
0.99442762
0.99280205
0.9923389
0.99292419
1.0267893
1.1023196
1.1237561
1.0931091
1.0620951
1.0541884
1.0521316
1.050349
1.0529589
1.0533072
1.0484101
1.0402805
1.0370595
1.0388901
1.0330069
1.0315407
1.0332657
1.0295312
1.0294318
1.028813
1.0234466
1.0206191
1.0175757
1.018717
1.0226971
1.021087
1.0135281
1.0090325
1.013304
1.0186313
1.0179361
1.0113279
1.0068268
1.0097881
1.0156121
1.0171882
1.0121735
1.0031842
0.99717814
0.99753467
1.0020384
1.0064092
1.0082106
1.0075499
1.0056114
1.0036315
1.0025875
1.0022149
1.0015149
1.000024
0.99780951
0.99539511
0.99347514
0.9925549
0.99277346
1.0267218
1.1021898
1.1239076
1.0936238
1.0625464
1.0544504
1.052335
1.0505194
1.0530903
1.0534803
1.0487553
1.0406637
1.0372946
1.0392066
1.033453
1.0317818
1.0334755
1.0298698
1.0296301
1.0291711
1.0239441
1.0210401
1.0179346
1.0187095
1.0226311
1.0214736
1.0143003
1.0092996
1.0128608
1.0181847
1.0184453
1.0124001
1.0073257
1.009492
1.0149415
1.0171999
1.0132928
1.0047242
0.99830855
0.99764219
1.0013974
1.0056329
1.0078535
1.0075668
1.0060568
1.0039745
1.002664
1.0021179
1.001603
1.0004394
0.99851108
0.996241
0.99419173
0.99286716
0.99264397
0.99354754
0.99413785
0.99455526
0.9948609
0.99534327
0.99584254
0.99644636
0.99693297
0.99732087
0.99733573
0.99669565
0.99522558
0.9926371
0.98935231
0.98601211
0.98353504
0.98302095
0.98499916
0.98902144
0.99332635
0.99530986
0.9930598
0.98719504
0.98146268
0.97998086
0.9839445
0.99022688
0.99554339
0.99630727
0.99687563
0.99720763
0.99759436
0.99793667
0.99810346
0.9980372
0.99768946
0.99690232
0.99565701
0.99383945
0.99127651
0.98852225
0.98616108
0.98496258
0.98565151
0.98823356
0.99177976
0.99446573
0.99358803
0.98851035
0.98116588
0.97607542
0.97683891
0.98332112
0.99068714
0.99740537
0.99800038
0.99835412
0.9983378
0.99825584
0.99805632
0.99768115
0.99701605
0.99602045
0.99486994
0.9934586
0.9918394
0.99018849
0.98891143
0.98834705
0.98874534
0.9903034
0.99288414
0.99496304
0.99477972
0.99106515
0.9842048
0.97708815
0.97368595
0.97651018
0.98372137
0.98991362
0.99772149
0.99795483
0.99784734
0.99722527
0.99667432
0.99598305
0.99504296
0.99397596
0.99286584
0.99160544
0.99063614
0.9899775
0.98980661
0.99036326
0.99154861
0.99343796
0.99535703
0.99685587
0.99664681
0.99380239
0.98835842
0.98155277
0.97613071
0.97492033
0.9786047
0.9842847
0.98743101
0.99580733
0.99567782
0.99520469
0.9941378
0.99307245
0.99191221
0.99076725
0.98960945
0.98866421
0.98811099
0.98811055
0.9888314
0.99028682
0.99243
0.9948406
0.99702506
0.99827721
0.99777635
0.99536367
0.99105295
0.98566725
0.98081161
0.97840849
0.97904348
0.98247694
0.98515713
0.98415232
0.99230353
0.99179924
0.99102684
0.98966531
0.98844885
0.98718279
0.98607751
0.98527125
0.98496132
0.9853975
0.98666079
0.98868248
0.99124955
0.99409176
0.99650292
0.99766694
0.99714788
0.99467427
0.99090529
0.98658367
0.98304528
0.98156526
0.9826863
0.98524981
0.98727339
0.98639979
0.98144125
0.98792561
0.98719404
0.98637982
0.98514154
0.9841509
0.98322674
0.98262482
0.98246629
0.98298165
0.98432236
0.9864695
0.98907019
0.99183312
0.99396172
0.99506896
0.99428744
0.99193314
0.98798775
0.98406652
0.98119893
0.98068929
0.98303383
0.98727431
0.99101789
0.9914746
0.98765412
0.98015187
0.98354677
0.98322908
0.98279951
0.9820815
0.98160459
0.98127441
0.98137012
0.98192173
0.98307341
0.98479135
0.98690761
0.98902627
0.99069015
0.99120142
0.99012113
0.98768079
0.98371106
0.97986191
0.97671721
0.97619467
0.97890216
0.98424418
0.9903754
0.99426978
0.99348301
0.98828093
0.98038774
0.98102364
0.98125172
0.98155581
0.98144478
0.98160938
0.981919
0.98247583
0.98336609
0.98454191
0.98576626
0.98685944
0.98759653
0.98740074
0.98584116
0.98298893
0.9791485
0.97498549
0.97188047
0.9707381
0.97268567
0.97775418
0.98454249
0.99076813
0.99377407
0.99228412
0.98739327
0.98129873
0.98145626
0.98233175
0.98331549
0.98360351
0.98422197
0.98458881
0.98524892
0.98571841
0.9860512
0.98610635
0.9856474
0.98440997
0.98228033
0.97918393
0.97539747
0.97126571
0.96813994
0.96644507
0.96755353
0.97125536
0.97715229
0.98347687
0.98815922
0.98960038
0.98800226
0.98469624
0.98160625
0.98481174
0.98622551
0.98740871
0.98754139
0.98815963
0.98817725
0.98820599
0.98763105
0.98668117
0.98518079
0.98292512
0.98009967
0.97677023
0.97313652
0.969488
0.9664899
0.96488094
0.96510555
0.96760485
0.97183101
0.97676267
0.98093082
0.98308918
0.98282074
0.98144453
0.98038673
0.98035027
0.9895256
0.9910076
0.99192825
0.99167041
0.99161047
0.9906657
0.9894763
0.98755128
0.98531704
0.98253498
0.97928121
0.97589607
0.97254062
0.96946967
0.96711631
0.96595318
0.96605834
0.96771955
0.97055783
0.97375384
0.97617335
0.97719762
0.97666653
0.97535248
0.97434787
0.97525208
0.97739634
0.99240507
0.99381943
0.99402013
0.99308424
0.99184258
0.98990787
0.98765226
0.98504267
0.98203026
0.97877604
0.97565461
0.97287009
0.9706268
0.96920344
0.96880356
0.96949622
0.97077218
0.97313572
0.97506931
0.97598544
0.975368
0.97323268
0.97030129
0.96819579
0.9678163
0.96984619
0.97301638
0.99072451
0.99136674
0.9907448
0.98909037
0.98745223
0.98512978
0.98269143
0.97991998
0.97721387
0.97470706
0.97275486
0.9716005
0.97137422
0.97201324
0.97342272
0.97542092
0.97764182
0.97929704
0.97946541
0.97791385
0.97453008
0.96999482
0.96562513
0.96290568
0.96274788
0.96482025
0.96747593
0.9832149
0.98318434
0.98237199
0.98067386
0.97881593
0.97665774
0.97483511
0.97300334
0.9715728
0.97078059
0.97078609
0.97177272
0.97343138
0.97594412
0.97887358
0.98158081
0.98365581
0.98399467
0.98253233
0.97893901
0.97392064
0.96833361
0.96354215
0.9605447
0.95991527
0.96076962
0.96164322
0.97228396
0.97214001
0.97124322
0.96975386
0.96830847
0.96712127
0.96620869
0.9658698
0.96615044
0.96720619
0.96914288
0.97188706
0.97528559
0.97894997
0.98232262
0.984866
0.98615915
0.98541792
0.98286659
0.9785962
0.97345747
0.96824091
0.96397311
0.96105874
0.95943766
0.95814615
0.95659255
0.96142704
0.96167893
0.96116733
0.96029427
0.95977946
0.95951683
0.95963525
0.96054987
0.96217349
0.96448457
0.96755803
0.97121575
0.97509103
0.97887827
0.98188592
0.98355638
0.98407455
0.98274192
0.97991221
0.97622149
0.97248293
0.96883308
0.96585322
0.96331558
0.96065555
0.9573316
0.95349409
0.9541786
0.95536738
0.95575184
0.95569416
0.95594713
0.95625441
0.9571796
0.95859403
0.96056084
0.96299099
0.96588526
0.96903583
0.97221015
0.97469664
0.97686136
0.97783698
0.97735981
0.97603867
0.97413124
0.97216507
0.97023156
0.96870685
0.96736719
0.96556052
0.96254633
0.95820523
0.95309945
0.95245877
0.95470011
0.95646837
0.95694756
0.95738841
0.95808821
0.95911154
0.96026293
0.96155627
0.96302008
0.96452105
0.96597903
0.96742493
0.96854038
0.96877556
0.96860609
0.96784817
0.96698942
0.9662676
0.96599811
0.96615116
0.96656373
0.96672759
0.96569444
0.96334804
0.95934805
0.95492801
0.95649263
0.95937278
0.96084475
0.96152885
0.96267931
0.96322266
0.96360187
0.96381774
0.96387649
0.96376884
0.9634706
0.96297862
0.96231555
0.96144738
0.96030829
0.95927392
0.95833377
0.95790537
0.9581
0.95896895
0.96036915
0.96182857
0.96307127
0.96298757
0.96175091
0.95958298
0.95707883
0.96294743
0.96597934
0.96796326
0.96846451
0.96873529
0.96858968
0.9680113
0.96712602
0.96596345
0.9644648
0.96264479
0.96057777
0.95840545
0.95624623
0.95424068
0.95255053
0.95142596
0.9509082
0.95132437
0.95220114
0.95360974
0.95509265
0.95638963
0.95704749
0.9572283
0.95755224
0.95800786
0.969536
0.97240145
0.97393901
0.97382322
0.97317446
0.97193124
0.97044235
0.96852741
0.9664681
0.96414649
0.96161213
0.95900384
0.95640942
0.95387728
0.95161496
0.94968123
0.94832885
0.94741306
0.94702207
0.94699312
0.9472394
0.94768761
0.94815248
0.94903444
0.95050351
0.95280076
0.95612234
0.97185766
0.97415401
0.97556673
0.97472787
0.97357695
0.97189616
0.96985878
0.9677754
0.96545785
0.96296433
0.96050036
0.95817269
0.95602142
0.95396912
0.95221962
0.95050575
0.9489604
0.94753235
0.94576216
0.94413209
0.9424939
0.94116449
0.9403657
0.94072562
0.94283344
0.94653657
0.95196203
0.96845502
0.97041278
0.97179475
0.97090433
0.96969943
0.96810537
0.96664643
0.964701
0.96280698
0.96098437
0.95932484
0.95790924
0.95671798
0.9556282
0.95455774
0.95333711
0.95199701
0.94977382
0.9468576
0.94365065
0.94010978
0.93699047
0.93477239
0.93430907
0.93597775
0.93979267
0.94574525
0.96114245
0.96308478
0.96448874
0.96396003
0.96306818
0.96212382
0.9608964
0.95984061
0.95893745
0.95817633
0.95768917
0.95741485
0.9573053
0.95731506
0.95706738
0.95630705
0.95477463
0.9522407
0.94872861
0.9445038
0.93988802
0.93554606
0.93224163
0.93070838
0.93154043
0.93444972
0.93965279
0.95249843
0.95480772
0.95642279
0.95618813
0.95591342
0.9553201
0.95479949
0.95457768
0.9545903
0.9547789
0.95532553
0.95606113
0.95678599
0.95746285
0.9577227
0.95731325
0.95582209
0.95342302
0.94996317
0.94576453
0.94116213
0.93670247
0.9331813
0.93095154
0.93066574
0.9319199
0.93532182
0.9449869
0.94791455
0.94979819
0.95008178
0.95001707
0.94971818
0.94976696
0.94998318
0.95036582
0.95098435
0.95192693
0.95303306
0.95408517
0.95503047
0.95551576
0.95531769
0.95413713
0.95198977
0.94932494
0.94587286
0.94226619
0.93881574
0.93582889
0.93369467
0.93292621
0.93253767
0.93341268
0.94002056
0.94354481
0.9456748
0.9462737
0.94616428
0.94604022
0.94611944
0.94630967
0.94657772
0.94706188
0.9477441
0.94854628
0.94949771
0.95027872
0.95071653
0.95063885
0.94979572
0.94858432
0.94688624
0.94501939
0.94311243
0.94138755
0.93972954
0.93823571
0.93707969
0.93526503
0.93391371
0.93765743
0.94144295
0.9438597
0.94450721
0.94437558
0.94409268
0.94376063
0.94348968
0.9432484
0.94313918
0.94316282
0.94331471
0.94355432
0.94385709
0.9440632
0.94409449
0.94384264
0.94359503
0.94311086
0.94282521
0.94270644
0.94284216
0.94290908
0.94262495
0.94143987
0.93900367
0.93576341
0.9364908
0.94017673
0.94300072
0.94354518
0.94336207
0.94275116
0.94188438
0.94099192
0.94007523
0.93922811
0.93847394
0.93786998
0.93745348
0.93723436
0.93725128
0.93741658
0.93776047
0.93828665
0.93905075
0.94020833
0.94182788
0.94345863
0.94487229
0.94563131
0.94508979
0.94238643
0.93812451
0.93519274
0.93861171
0.94161896
0.94219662
0.94185227
0.94090771
0.93967804
0.93831403
0.93692438
0.93556356
0.93427614
0.93316991
0.93237839
0.93182673
0.93172088
0.93200831
0.93282605
0.93387729
0.93559026
0.93777572
0.9404321
0.94303818
0.94551572
0.94686763
0.9469504
0.94443291
0.9398633
0.932816
0.93591213
0.93924078
0.9399196
0.93933716
0.93821024
0.9368036
0.93523723
0.93363329
0.93209167
0.93066187
0.92946127
0.9286266
0.92815668
0.92816512
0.92862442
0.92965153
0.93123135
0.93344921
0.93601687
0.93902908
0.94215242
0.94486996
0.94658308
0.94678491
0.94470866
0.94042172
0.92918842
0.93226913
0.93567335
0.93658143
0.93600247
0.93492426
0.93363088
0.93220661
0.93073153
0.92934674
0.9281295
0.92716709
0.92656663
0.926391
0.92672397
0.92743028
0.9286012
0.93035301
0.93246857
0.9349079
0.93778124
0.94056747
0.94295239
0.94443349
0.9448575
0.94324008
0.93967196
0.92469682
0.92794332
0.93147861
0.93267841
0.93232692
0.9314956
0.93047405
0.92938275
0.92829052
0.92735438
0.92662154
0.92612578
0.92600148
0.926324
0.9270371
0.9280081
0.92927633
0.93092697
0.93276481
0.93483486
0.93690287
0.93896009
0.94076422
0.94179056
0.94184305
0.94039284
0.93742285
0.92003588
0.92365989
0.92720008
0.92878819
0.92876061
0.9282219
0.9275419
0.92686675
0.92627135
0.9258715
0.92570678
0.92577873
0.92619234
0.92694177
0.92804257
0.92916026
0.93049398
0.93193932
0.9333397
0.93463433
0.93598618
0.93712556
0.93798701
0.9382641
0.93822561
0.93676458
0.93465684
0.91582075
0.91989682
0.92347366
0.92537537
0.92565109
0.92545036
0.92515051
0.92493803
0.92486892
0.92501201
0.92541202
0.92606564
0.92707079
0.92830643
0.92952176
0.93097839
0.93226641
0.93336912
0.93423799
0.93486837
0.9351894
0.93536797
0.93544031
0.93503261
0.93446259
0.93323541
0.93154218
0.91270925
0.9172268
0.92077059
0.9230445
0.92363619
0.92369978
0.92372265
0.92387925
0.92420553
0.92476719
0.92553817
0.92659845
0.92785336
0.929357
0.93097673
0.9324761
0.93369129
0.93439379
0.93478651
0.93466296
0.934258
0.93367545
0.93285048
0.93179555
0.93084736
0.92964046
0.92847121
0.91097751
0.91578181
0.91927665
0.92178693
0.92263688
0.92290582
0.92314281
0.92356908
0.92417726
0.92499697
0.92605768
0.92738425
0.92891656
0.93059805
0.93226014
0.9337191
0.93477733
0.93523225
0.93510402
0.93450598
0.93352934
0.93222327
0.93082647
0.92934916
0.9280398
0.92677835
0.92591286
0.90993391
0.91484478
0.91826315
0.92099991
0.92212545
0.92257771
0.9229933
0.92353487
0.92429528
0.92531364
0.92655913
0.92802642
0.92963522
0.93132038
0.93297209
0.93442428
0.93540694
0.93574551
0.9353999
0.93442421
0.93298578
0.93116907
0.92932157
0.92739483
0.92583294
0.92454598
0.92390634
0.9096235
0.91453571
0.91792791
0.9209039
0.92217948
0.92274537
0.92320849
0.92379002
0.9246204
0.92571141
0.92701879
0.92853896
0.93017797
0.93185578
0.93346159
0.93478806
0.93571691
0.93597366
0.93546291
0.93427163
0.93260332
0.93048754
0.9283445
0.9261165
0.92437983
0.92317372
0.92256642
0.91030513
0.91502718
0.91830084
0.92134227
0.92275187
0.92339464
0.92388174
0.92451875
0.9253642
0.92643917
0.92772826
0.92917547
0.93075018
0.93231787
0.933804
0.93506499
0.93581439
0.93592871
0.93543056
0.93412035
0.93228462
0.93009829
0.92781769
0.92559235
0.92394098
0.92250494
0.92199416
0.91203019
0.91639722
0.91964709
0.92285595
0.92434353
0.92492438
0.92535917
0.92588173
0.92659395
0.92758206
0.92880205
0.9301805
0.93163047
0.93307113
0.93435319
0.93538684
0.93600775
0.9360572
0.9353654
0.93407644
0.9323234
0.93010981
0.92786581
0.92560996
0.92385302
0.92269507
0.92217691
0.914383
0.91828994
0.92148154
0.92489838
0.92647031
0.92695157
0.92730947
0.92769993
0.92830056
0.92908961
0.93007604
0.93120248
0.9324263
0.93373183
0.93498526
0.93598382
0.93640588
0.93625992
0.93563702
0.93425506
0.93232356
0.9302058
0.92802121
0.9259171
0.92430423
0.92316643
0.92277214
0.91704135
0.92039966
0.92346784
0.92700235
0.9286935
0.92920554
0.9294692
0.9297488
0.93019365
0.93083723
0.93166309
0.93262648
0.93371597
0.93479765
0.93579172
0.93651812
0.93690482
0.93680798
0.93600098
0.93466329
0.93298894
0.93088972
0.92882151
0.92685327
0.92528928
0.92416934
0.92385634
0.91956593
0.92235985
0.92523109
0.92879423
0.93059287
0.93111699
0.93132026
0.93153785
0.93190409
0.93241146
0.93309801
0.93392019
0.93488468
0.93588438
0.93685713
0.93759069
0.93789309
0.93763402
0.93689835
0.93557127
0.93373456
0.93172167
0.92977069
0.92790908
0.92649572
0.9255526
0.92526315
0.92173567
0.92410502
0.9267933
0.93040177
0.93233746
0.93291676
0.93309036
0.93321923
0.93349725
0.93397785
0.93463754
0.93543669
0.93633773
0.93721341
0.93804867
0.93867387
0.93900351
0.93886567
0.93808082
0.93681526
0.93523047
0.93330749
0.93139478
0.9296242
0.92812596
0.92714183
0.92689249
0.92391071
0.92583604
0.928267
0.93188753
0.93394157
0.93459249
0.93481179
0.93499061
0.93530296
0.93576549
0.93641459
0.93720052
0.93808192
0.93902396
0.93987987
0.9405171
0.94080266
0.94056565
0.93983326
0.93860407
0.9368745
0.93493374
0.93304465
0.93127686
0.92988216
0.92906135
0.92873058
0.92650791
0.92797261
0.9300925
0.93369568
0.93588329
0.93661306
0.93683968
0.93698622
0.93728234
0.93777746
0.9384451
0.93925662
0.94015252
0.94106501
0.94193631
0.9425915
0.94288631
0.94272838
0.94203041
0.94078487
0.93917105
0.93732912
0.935397
0.93355194
0.93200749
0.93101394
0.93068127
0.92957941
0.93058078