/*--------------------------------*- C++ -*----------------------------------*\
| =========                 |                                                 |
| \\      /  F ield         | OpenFOAM: The Open Source CFD Toolbox           |
|  \\    /   O peration     | Version:  2406                                  |
|   \\  /    A nd           | Website:  www.openfoam.com                      |
|    \\/     M anipulation  |                                                 |
\*---------------------------------------------------------------------------*/
FoamFile
{
    version     2.0;
    format      ascii;
    arch        "LSB;label=32;scalar=64";
    class       surfaceScalarField;
    location    "90";
    object      phi;
}
// * * * * * * * * * * * * * * * * * * * * * * * * * * * * * * * * * * * * * //

dimensions      [1 0 -1 0 0 0 0];

oriented        oriented;

internalField   nonuniform List<scalar> 
40800
(
0.00075576282
0.00093586051
-0.0011672514
0.0008595084
0.0010365795
-0.0010794075
0.00093068247
0.0010226647
-0.001239266
0.00098245713
0.0010186993
-0.0011307183
0.0010427009
0.00085422137
-0.00073231976
0.0010930033
0.00081828601
-0.00081486092
0.0011277461
0.00076585004
-0.0008914939
0.0011700382
0.00069162571
-0.00067550355
0.0012038433
0.00065586282
-0.00070404829
0.0012383131
0.00066193295
-0.00067161092
0.001255833
0.00054200108
-0.00060136483
0.0012923022
0.00049718449
-0.00048618122
0.0013241616
0.00057440623
-0.00060518319
0.0013375084
0.00053639935
-0.0005722302
0.0013670563
0.00044987937
-0.00046453025
0.0014238116
0.0005864227
-0.00060317117
0.0013988698
0.00062726732
-0.00069465313
0.0013837773
0.0003320684
-0.00035968212
0.0015205263
0.00060241954
-0.00056741124
0.0014882324
0.00076971238
-0.00085156839
0.001448983
0.00050009611
-0.00058799915
0.0015665535
0.00063449436
-0.00066176285
0.0016723148
0.00093388132
-0.0010350204
0.0015760279
0.00084339586
-0.00098732106
0.0014931549
0.00059317038
-0.00063095267
0.0017451176
0.00063457841
-0.00060012916
0.0018730297
0.00098326115
-0.00094538156
0.0018130725
0.00138579
-0.0014151834
0.0020432062
0.0014257416
-0.0015001748
0.0023200437
0.0010505208
-0.0013131324
0.000958587
0.0018918591
-0.0013052802
0.00074631163
0.00070619211
0.00084421522
0.00095895999
0.00091589789
0.00082456273
0.00097331724
0.0008812992
0.001038647
0.00097973876
0.0010871474
0.0008403128
0.0011230132
0.00065462003
0.0011672532
0.00071037482
0.0012019134
0.00060957389
0.0012326606
0.00061870729
0.0012543148
0.0005039526
0.0012951347
0.00051340208
0.0013203502
0.00053051491
0.001331844
0.00048355509
0.0013746017
0.00046546824
0.0014230944
0.00054041934
0.0013711833
0.00052214469
0.0014159335
0.00035103526
0.0015383786
0.00062407588
0.0014515422
0.00065749855
0.0014677813
0.00044274169
0.0016028381
0.00061968505
0.0016345713
0.00081831554
0.0015174095
0.00068384261
0.0014854799
0.00065216146
0.0018201241
0.00081617849
0.0020242336
0.0010190219
0.0018373166
0.0012497513
0.0018094193
0.0013153295
0.0021317744
0.00092308908
0.00068536679
0.0022132155
0.00074056287
0.00052564141
0.00082863545
0.00087178163
0.00089705771
0.00071550839
0.00096014196
0.00072630539
0.0010277043
0.0010144812
0.0010744327
0.00082624262
0.0011158436
0.00059144679
0.0011590947
0.0006959273
0.0011965692
0.00058489286
0.0012241305
0.00054581122
0.0012526493
0.00048434145
0.0012939094
0.00050899416
0.00131484
0.00048108256
0.0013301988
0.00042270981
0.0013774983
0.00047888997
0.0014163013
0.0004880748
0.0013539396
0.00040664452
0.0014441795
0.00040148025
0.001537148
0.00063891186
0.0014206741
0.00053031328
0.0014927825
0.000419292
0.0016286123
0.00065223355
0.0016038332
0.00071816678
0.0015267877
0.00053306233
0.0015264307
0.00069848534
0.0018406277
0.001026036
0.0020827052
0.0010640175
0.0018778075
0.0010156689
0.0016382976
0.0010976847
0.0018937651
0.00098573514
0.00068390339
0.0023714437
0.00073723476
0.0004371494
0.00081562959
0.00077868249
0.00087918443
0.00070925872
0.00094415369
0.00059019147
0.0010090153
0.00090683901
0.0010560096
0.00074198371
0.0011055843
0.00058058416
0.0011461444
0.00062316597
0.0011860349
0.00057139919
0.001213646
0.00046814627
0.001248074
0.00046568098
0.0012869192
0.00049884612
0.0013050162
0.000426145
0.0013290918
0.0003752715
0.0013738039
0.00046998238
0.0014053292
0.00045133227
0.0013523512
0.00030292446
0.001465708
0.00045444924
0.0015212766
0.00064622045
0.00140369
0.00041173452
0.0015217892
0.00042556274
0.0016328885
0.00071756542
0.0015592734
0.00064724254
0.0015647253
0.00043317033
0.0016055024
0.00068771981
0.0017989485
0.0011351933
0.0020355542
0.0010812213
0.0018994797
0.00075940163
0.00158094
0.000768803
0.0016911784
0.001055254
0.00097769898
0.002280623
0.0007372423
0.00046060879
0.00080786324
0.00066508336
0.00086561832
0.00076693251
0.00092958435
0.00054426319
0.00098524854
0.00069949277
0.0010348081
0.00060408566
0.0010901485
0.00060038298
0.0011292869
0.00052037811
0.0011693142
0.00053645016
0.001201093
0.00041026874
0.0012395763
0.00044089437
0.0012743783
0.00047434097
0.0012929721
0.00037933221
0.0013269742
0.00034219756
0.0013657637
0.00045454108
0.0013874099
0.00042800663
0.0013617416
0.00023160287
0.0014792254
0.0004868147
0.0014928278
0.00061648886
0.0014024044
0.00032144055
0.001559973
0.00045451001
0.0016252529
0.00075592701
0.0015131928
0.00062751807
0.0016022352
0.00039551666
0.0017166918
0.00061675461
0.0017560946
0.0010876101
0.0018830076
0.0010420032
0.0018844729
0.0005362314
0.0016939673
0.00044786649
0.0016275387
0.00095873164
0.0013265577
0.0020583656
0.00074183562
0.00055741843
0.00080579028
0.00054893777
0.00085828003
0.00081591526
0.00091844129
0.00060581512
0.00096404081
0.00049011456
0.0010172533
0.00046641851
0.0010710866
0.00060767777
0.0011105333
0.00045049913
0.0011484075
0.00047335573
0.0011861921
0.00038663951
0.0012262721
0.00039995952
0.0012570301
0.00043444083
0.0012786878
0.00034147287
0.0013223934
0.00032175843
0.0013551545
0.00042513909
0.0013640716
0.00040070483
0.0013761709
0.00021542954
0.0014819295
0.00049633262
0.0014556988
0.00053819571
0.0014151114
0.00026847932
0.0015952337
0.00049349411
0.0016115162
0.0007255502
0.0014763633
0.00060176281
0.0016364385
0.00044004377
0.001815062
0.00056370976
0.00174185
0.00089057608
0.001703282
0.00092371347
0.0018051746
0.00045835125
0.0018592646
0.00026955344
0.0017837158
0.000711243
0.0013830401
0.0018783369
0.00074744682
0.00064206838
0.0008067117
0.00045844676
0.00085508992
0.0007811041
0.00091012198
0.00070305639
0.00095000366
0.00035354751
0.0010052072
0.00039066474
0.001051872
0.00056412014
0.0010928952
0.00044082783
0.0011276207
0.00039945566
0.0011684408
0.00038335073
0.0012089223
0.00035367644
0.001235682
0.00038159053
0.0012617257
0.0003115383
0.00131328
0.00032111572
0.0013403526
0.00037161215
0.0013385755
0.0003613326
0.0013892053
0.00025076075
0.0014706083
0.00047820326
0.0014159379
0.00042943655
0.0014327454
0.00024931703
0.0016106316
0.00052140543
0.0015936988
0.00063106688
0.0014517052
0.00050070985
0.001639727
0.00053084391
0.0018611188
0.00058505903
0.0017353468
0.00064444475
0.001569655
0.00069969643
0.0017114072
0.00052976762
0.0019831806
0.00032440717
0.0020727355
0.00050475463
0.0011103493
0.0019291426
0.0007545195
0.00064826559
0.00081267348
0.0003841093
0.00085834203
0.0006571333
0.00090534421
0.00076506787
0.00094464343
0.00032343409
0.00099767722
0.00039774644
0.0010362925
0.00047348299
0.001077087
0.00044830735
0.0011101618
0.0003476906
0.0011492214
0.00036992449
0.00118939
0.00032557518
0.0012119392
0.00030768118
0.0012431956
0.00028469218
0.0012959232
0.00034175802
0.0013194994
0.00030896487
0.0013136464
0.00031093178
0.0013932846
0.00030206036
0.0014434393
0.00043679278
0.0013780798
0.00030858671
0.0014487291
0.00025765431
0.001597241
0.00054540625
0.0015599404
0.00049753132
0.0014504259
0.00033743478
0.0016218264
0.00059139646
0.0018453265
0.00067189455
0.001726436
0.00046229358
0.0015004749
0.00043554202
0.0016264477
0.00062668655
0.0019898504
0.00058560549
0.0022590846
0.00054163775
0.00067860966
0.0021078221
0.00076953873
0.0005564722
0.00082420752
0.00033902238
0.0008681413
0.00051751641
0.00090710446
0.00074605963
0.00094937152
0.00038862485
0.00099667063
0.00045288989
0.0010282505
0.00037088762
0.001064575
0.00041607551
0.0010972045
0.00032840461
0.0011313586
0.00033731344
0.0011690736
0.00031486188
0.0011888708
0.00023858184
0.0012251547
0.00025753529
0.0012700892
0.00035030932
0.0012941718
0.0002595843
0.0012900029
0.00024881704
0.0013812596
0.00033790906
0.00140363
0.000386337
0.0013486861
0.00019463821
0.0014606411
0.00027476826
0.001557981
0.00056514411
0.001509448
0.00035971678
0.001474996
0.00017625042
0.0016005867
0.00057835495
0.0017671747
0.00075626639
0.0017115759
0.00037685319
0.0015527412
0.0002274867
0.0015962666
0.00062352451
0.0019320675
0.00091781393
0.0022337705
0.00073580571
0.00047157411
0.002227948
0.00083786404
0.00040395376
0.00085470144
0.00036617265
0.00089305431
0.00043970459
0.00092096339
0.00060824135
0.00096332999
0.00047907335
0.0010011565
0.00049743564
0.0010294274
0.00029441228
0.0010602539
0.00034467849
0.0010905385
0.00030677051
0.0011190439
0.00029381067
0.0011492297
0.00030633622
0.0011676505
0.00018328192
0.0012064885
0.00023499484
0.0012376163
0.0003342321
0.001263266
0.00022274947
0.0012659898
0.00018100041
0.0013533761
0.00034106842
0.0013521207
0.00032845885
0.0013240915
0.00011782451
0.0014669027
0.00029357397
0.0014971015
0.0005457766
0.0014399204
0.00027203109
0.0015073774
7.6202866e-05
0.0016021541
0.00048168059
0.0016486724
0.00077730472
0.0016494414
0.00038548191
0.0016529686
0.00012808571
0.0016830272
0.00048667915
0.0018534707
0.0010667925
0.0020552295
0.00099592012
0.00044854299
0.0021700092
0.00095707035
0.00023047662
0.00093164945
0.00045962338
0.00095494558
0.0004565135
0.00096850829
0.00038286378
0.00099902594
0.00052027007
0.0010177732
0.00048571549
0.0010412645
0.00027427376
0.0010650524
0.00027183761
0.0010923062
0.0002671097
0.0011186553
0.00025118053
0.0011397694
0.0002871642
0.0011596023
0.0001613999
0.0011971732
0.00022397156
0.0012121122
0.00029642016
0.0012353905
0.00019919439
0.0012483586
0.00013610026
0.0013177315
0.00031688056
0.001297719
0.00025190247
0.0013053977
9.1721542e-05
0.0014597267
0.00031750255
0.001422518
0.0004732357
0.0013638743
0.00024089813
0.0015303814
7.4318208e-05
0.0016260455
0.00036869096
0.0015447681
0.0006736269
0.0015501459
0.00044540711
0.0016946687
0.00015252514
0.0018394213
0.00033736759
0.0018318241
0.00086822377
0.0018363746
0.0010508451
0.00062298514
0.0019198961
0.00098787897
6.8480006e-05
0.0010064145
0.00049238544
0.0010313869
0.00052615611
0.0010449055
0.00018067555
0.0010658404
0.00048517977
0.001066983
0.00039798556
0.0010801443
0.00031101031
0.001090933
0.00023258511
0.0011097663
0.00023535201
0.0011313553
0.00023480581
0.0011408576
0.00024885311
0.0011639989
0.00017204012
0.00119832
0.00022011988
0.0012016025
0.00023928105
0.0012237346
0.00019252868
0.0012498985
0.00013039768
0.0012944949
0.00027292537
0.0012647923
0.00017382847
0.0013045352
0.00010901824
0.0014478125
0.00033288871
0.0013625875
0.0003657765
0.0013073335
0.00021575088
0.0015382265
0.00016968322
0.0016365434
0.0003364607
0.0014678727
0.00045138617
0.0014591808
0.00043507146
0.0016879909
0.0002763373
0.0019263835
0.00032524004
0.0018597035
0.00047664021
0.0017041879
0.00075386839
0.0006671045
0.0016907649
0.00094149917
-1.6417978e-05
0.0010114806
0.00042946433
0.0010463492
0.00057226347
0.0010778325
8.7311563e-05
0.0011102421
0.00038239577
0.0011268211
0.00025979457
0.0011448987
0.00034577841
0.0011507552
0.00023842098
0.0011610179
0.00022606953
0.0011736597
0.00024519468
0.0011713057
0.00020110343
0.001192171
0.00019712483
0.001216702
0.00021483381
0.0012127523
0.00016609164
0.0012312957
0.00019846357
0.0012665076
0.00015323706
0.0012865659
0.00021420126
0.0012610659
0.00011226827
0.0013242637
0.00015718782
0.0014385723
0.00033881391
0.0013355739
0.00022901893
0.0012845812
0.00016753813
0.0015321934
0.00033135626
0.0016186464
0.00035752881
0.0014353174
0.00022036375
0.0013840307
0.00030437836
0.0016397915
0.00043658097
0.0018820072
0.00039446645
0.0018552591
0.00024651822
0.0016202799
0.00025905078
0.0004679523
0.0015315774
0.00087980673
2.0942382e-06
0.00096551412
0.00031325115
0.0010157643
0.00051706745
0.0010659555
0.00012116785
0.0010987474
0.00025572115
0.0011301599
0.00014674186
0.0011598474
0.00032379043
0.0011819981
0.00025292712
0.0012037159
0.00022754435
0.0012209775
0.00023639062
0.0012244244
0.00015026303
0.001247513
0.00021540468
0.0012633436
0.00020828942
0.0012617511
0.00010449608
0.0012757273
0.00019883745
0.0013125161
0.00018019995
0.0013120253
0.00016488854
0.0013001426
7.1360825e-05
0.0013695742
0.00021102723
0.0014379386
0.00034888501
0.0013480892
9.2463721e-05
0.0013207044
8.5404385e-05
0.0015309568
0.00046735837
0.0015888394
0.00041214774
0.0014445388
6.2253433e-05
0.0013901641
8.7636889e-05
0.0015873442
0.00051220468
0.0017736449
0.00052673364
0.0017862892
0.0001991306
0.001631499
-3.7521237e-05
0.00011881227
0.0014993827
0.00085527477
0.00010571893
0.00091538224
0.00018643622
0.00095330913
0.00038150807
0.0010174424
0.0002688361
0.0010564541
0.00015261348
0.0011059711
0.00011807543
0.0011405658
0.00024601863
0.0011715087
0.00024742666
0.0012003867
0.00023685382
0.0012194236
0.00020652924
0.001238075
0.00010034494
0.001269761
0.00020553583
0.0012880238
0.00018666727
0.001305092
7.16769e-05
0.0013188265
0.00017627535
0.0013597019
0.00019497533
0.0013533653
0.00013779128
0.0013653116
4.8306829e-05
0.0014373951
0.00023606282
0.0014530009
0.00034249646
0.0013948995
4.5515569e-06
0.001419962
1.1333298e-05
0.0015501773
0.00049135682
0.001557043
0.00047244949
0.0014660908
-7.7836828e-06
0.0014963447
-7.6519474e-05
0.0015914413
0.00041565901
0.0016665632
0.00066317589
0.0016634706
0.00027337021
0.001657627
-7.8452736e-05
-9.480488e-05
0.001621771
0.00092868321
0.00024232368
0.00093011537
8.7967399e-05
0.00095061884
0.00023092376
0.00099827705
0.00047074732
0.001023235
0.000127595
0.0010678194
0.00017329936
0.001099177
0.00015914262
0.0011359127
0.0002127639
0.0011694851
0.00022438715
0.0011897416
0.00015425004
0.0012209959
8.4041069e-05
0.0012523856
0.0001742908
0.0012687219
0.00015839022
0.0013001335
6.8657999e-05
0.0013124854
0.00013703844
0.0013511703
0.00019329325
0.0013423229
0.00011837013
0.0013819317
5.1408848e-05
0.0014538154
0.00022812035
0.0014203981
0.00028871331
0.0013992658
-1.3359351e-05
0.0015034192
-1.4474543e-05
0.0015722292
0.00038257915
0.0014993878
0.00045595227
0.0014627612
2.7051727e-06
0.0016117681
-0.00010233992
0.0016844286
0.00023173025
0.0016039792
0.00059667444
0.0015643555
0.00042818612
0.0016386081
3.0752731e-05
-6.0251657e-05
0.0017949126
0.0010310233
0.00029383327
0.0010031819
8.2200361e-05
0.0010060198
0.00015015972
0.0010306868
0.00056866791
0.0010429499
0.0001615644
0.0010710983
0.00024997847
0.0010892371
0.00010623106
0.0011151071
0.000174307
0.0011374625
0.00018648608
0.0011526784
8.9945552e-05
0.0011881373
0.00010315933
0.0012143191
0.00012678446
0.0012279932
0.00012267394
0.0012680369
7.8202553e-05
0.0012813653
9.6562997e-05
0.0013141141
0.00016375974
0.0013075255
8.6814783e-05
0.0013686928
7.313063e-05
0.0014327756
0.00019354411
0.001363753
0.00018279268
0.0013778264
2.3738359e-05
0.0015373195
3.2296516e-05
0.0015640401
0.00024501177
0.0014171499
0.00029862245
0.001440462
7.462115e-05
0.0016668746
-1.6357774e-06
0.0017625965
0.00013964659
0.0015943254
0.00033900482
0.00149382
0.00039875305
0.0016252676
0.00023700339
0.00013100438
0.0019031785
0.0010198512
0.00015242891
0.0010517571
8.4589797e-05
0.0010719753
0.00016614759
0.0010877631
0.00046876197
0.001097005
0.00020423744
0.0011039854
0.00029220276
0.0011104504
0.00010874774
0.0011250115
0.00013931912
0.001136233
0.00012976941
0.0011488429
5.3136812e-05
0.0011759661
0.00013121105
0.0011914544
8.0536222e-05
0.0011976402
8.4141911e-05
0.0012345686
9.999953e-05
0.0012452805
6.7888756e-05
0.0012643183
0.00011309428
0.0012617949
5.5166706e-05
0.001330215
0.00010419614
0.0013790449
0.00014617854
0.001301499
5.7720173e-05
0.0013325951
6.4616044e-05
0.0015149048
0.00013490564
0.0015178885
0.00013875467
0.001343037
7.7897327e-05
0.0013865992
9.1825001e-05
0.0016496699
0.00016490125
0.0017718581
0.00017973171
0.0016067236
7.2255624e-05
0.0014459476
0.00015589449
0.0015878936
0.0003133096
0.00035494403
0.0018809405
0.00093928416
-6.9609051e-05
0.0010181122
0.00010353273
0.0010687554
0.00026028859
0.0010915612
0.00018549354
0.0011246123
0.00019997064
0.0011394172
0.00021800449
0.0011551507
0.00013773279
0.0011646269
0.00011497516
0.0011678958
7.8536592e-05
0.0011788324
6.6542919e-05
0.001191377
0.00014195604
0.0012006319
5.7701874e-05
0.0012034894
4.3526247e-05
0.0012339915
0.00013133909
0.0012439531
5.770311e-05
0.0012529241
5.443226e-05
0.0012575888
2.7764651e-05
0.0013179902
0.00013325986
0.0013471353
0.00010191838
0.0012856496
-6.2393011e-05
0.0013209595
7.249047e-05
0.0014830182
0.00026165506
0.0014711172
0.00010051051
0.0013210914
-0.00012072616
0.0013617516
1.8818587e-05
0.0016083921
0.00034128389
0.001692004
0.00025234379
0.0015899714
-3.1834787e-05
0.0014614101
-0.00013276233
0.0015478528
0.00016945815
0.00044861372
0.0017966952
0.00093035209
-0.00029319293
0.00099047456
0.00011845325
0.0010327595
0.00036850693
0.0010564698
-9.7302058e-05
0.0010985553
0.00015052517
0.0011245344
7.5700067e-05
0.0011537889
0.00015151371
0.0011709083
8.7584734e-05
0.0011848929
2.8189559e-05
0.0012076207
9.6688519e-05
0.0012177367
0.00011837237
0.0012294647
5.1652725e-05
0.0012379867
2.6830331e-06
0.0012585092
0.00014758139
0.0012678753
6.063647e-05
0.0012696198
1.1534402e-05
0.0012833828
-1.7028349e-06
0.001326592
0.00014247413
0.001333814
7.3529824e-05
0.0013117817
-0.00013709323
0.0013498204
4.4447968e-05
0.0014541549
0.00034822523
0.0014286098
9.4214384e-05
0.0013433957
-0.00021752221
0.0014073321
-5.9220298e-05
0.0015632545
0.00039053197
0.001597869
0.00034669744
0.0015370084
-4.3797534e-05
0.0015203851
-0.00028743503
0.0015758519
-1.3013463e-05
0.00036775219
0.0017001704
0.0010387375
-0.00038741184
0.001032897
0.00016582404
0.0010443916
0.00042355979
0.0010671095
-0.00025199336
0.0010966767
9.1068557e-05
0.001122775
-2.8204189e-05
0.0011517432
0.00013168243
0.0011706621
5.2386773e-05
0.0011931056
-1.5457236e-06
0.0012203947
0.00011817527
0.0012337606
7.4860126e-05
0.0012518378
4.0258368e-05
0.0012777013
-2.054893e-05
0.0012924231
0.00012526446
0.0013058813
5.5986219e-05
0.0013083435
-8.7004154e-06
0.0013382898
-2.3693042e-05
0.0013642274
0.00011660473
0.0013491127
7.0236544e-05
0.001369296
-0.00014867226
0.0014273645
1.8700793e-05
0.0014544276
0.00030717377
0.0014114931
0.00012893866
0.0013942331
-0.00020456032
0.0015152378
-0.00011968317
0.0015753742
0.00028126195
0.0015193138
0.00038222105
0.001471407
-2.0263141e-05
0.0015745572
-0.00027282287
0.0016770326
-0.0001548925
0.00020602751
0.0016880642
0.0010735992
-0.00030388365
0.0010466444
0.00017950888
0.0010512621
0.00034538277
0.001087515
-0.00020646439
0.001108067
4.9776827e-05
0.0011426338
-5.0306066e-05
0.001165352
8.3878826e-05
0.0011886149
1.3993732e-05
0.0012204642
-7.3660463e-06
0.0012452762
7.8613219e-05
0.0012632459
3.4077755e-05
0.0012840986
2.3372742e-05
0.0013248977
-2.3537214e-05
0.0013333874
6.8953501e-05
0.0013517034
3.7763985e-05
0.0013607444
-1.1804992e-05
0.0014070709
-2.4517041e-05
0.0014237278
5.9933574e-05
0.0013926175
5.4644569e-05
0.0014532016
-9.648495e-05
0.0015279753
-9.0230131e-06
0.0015041415
0.00016341187
0.0014353052
0.00012071556
0.0014755924
-0.00011658495
0.0016441529
-9.3100714e-05
0.0016599125
0.00011459709
0.0015098757
0.00024646258
0.0014771959
4.9476857e-05
0.0016572167
-0.00014505558
0.0018230588
-0.00012884881
6.8124938e-05
0.0017741173
0.00084886538
0.00093264522
0.0011356876
0.001202609
0.0012548136
0.0012962322
0.0013391823
0.0013745887
0.0014092332
0.001429042
0.0014494317
0.0014680012
0.0015179778
0.0015229881
0.0015442373
0.0015541527
0.0016064541
0.0016189576
0.0015725841
0.0016533693
0.0017378379
0.0016942539
0.0016025331
0.0016736594
0.001865757
0.0018791951
0.0016798347
0.0016171884
0.0018455574
0.002081901
0.0020506428
-0.0001460557
0.0016032895
-0.00027197479
0.0014761602
-0.00025676385
0.0015389292
-7.5167466e-05
0.0017073344
0.0002388058
0.0018943204
0.00049248483
0.0019560727
0.00049440795
0.0019198128
0.00028327881
0.0018009485
0.00019047664
0.0016652653
0.00029799703
0.0016441997
0.00069399968
0.0017155344
0.0012429592
0.0018181176
0.0014844369
0.0018412801
0.0011902188
0.0018041308
0.00059554645
0.0016792426
0.00019628435
0.0016260987
0.00023192632
0.0017396537
0.00082522929
0.0020754729
0.0015222543
0.0024521408
0.0017710729
0.0025502468
0.001482147
0.0023494026
0.00096850703
0.0019728904
0.0016764747
0.00052090219
0.00014103122
0.0015954596
0.00036972394
0.0014677134
0.00059753112
0.0014466875
0.00065606805
0.0015020291
0.00047090122
0.001515584
0.00012210276
0.0015029102
-0.00021063935
0.0014994806
-0.0003624834
0.0015649356
-0.00016559941
0.0017151535
0.00037626832
0.0019628068
0.00096951734
0.0020982958
0.0012675278
0.0020938969
0.0011473707
0.0019173856
0.00073387362
0.0016877204
0.00038133338
0.0015217904
0.00042682507
0.0014739366
0.00097806117
0.001626034
0.0015792353
0.0019324311
0.0016943591
0.0021882138
0.0012748673
0.0021723913
0.0005597725
0.001980544
0.00013632363
0.0018209251
0.0018666101
0.00037816174
0.00048962891
0.0019435873
0.00081871911
0.001746541
0.00089395216
0.0015738799
0.00069622037
0.0014152738
0.00037326509
0.001281532
7.4578556e-05
0.0012091094
3.8669369e-05
0.001241588
0.00027077715
0.0013424803
0.00060004616
0.0015723118
0.00079833351
0.0017873976
0.00069476905
0.0018534432
0.00034006941
0.0018485592
-3.6957407e-05
0.0017967172
-7.5197988e-05
0.0017788715
0.00028121625
0.001886579
0.0010913126
0.0019872035
0.0018400359
0.0020145309
0.0020765621
0.0019229108
0.0016259922
0.0018195628
0.00072832535
0.001618277
8.3255264e-05
0.0014078274
7.4206355e-05
0.0014732624
0.0019359083
0.00086035107
-1.1586917e-05
0.0018618153
-0.00021865595
0.0017028546
-0.0004479557
0.0016110816
-0.00043424721
0.0015493671
-0.00019535939
0.0015596256
0.00034381379
0.0015610246
0.0010366724
0.0015631489
0.0015624718
0.0015142594
0.0016599571
0.0014634101
0.0011729571
0.0014247829
0.00040817535
0.0013179939
-0.00029092378
0.0012497977
-0.00054970059
0.0013208871
-0.00017339224
0.0016182061
0.00060887466
0.0020319219
0.0013327007
0.0022807338
0.0015777525
0.0022770768
0.0012913909
0.0021058805
0.00079812024
0.0018596945
0.00035436498
0.0016495506
0.00039554847
0.0014340775
0.0011560157
0.0014442719
0.0017617691
0.002039051
-0.00070268373
0.0014027364
-0.0011980042
0.0013119473
-0.0012774849
0.0013839096
-0.00093560274
0.0015578728
-0.0002731159
0.0017612224
0.00047901461
0.0018234474
0.0010538302
0.0018152044
0.001208395
0.0017510321
0.00095721092
0.0015825345
0.00048389872
0.0014207894
9.9327955e-05
0.0012652763
9.4116026e-05
0.0011505284
0.00063623175
0.0011724071
0.0012875917
0.0013601759
0.001648709
0.001700342
0.0013745742
0.0019205745
0.0006808358
0.0019069469
-0.00012884614
0.0018305001
-0.00048054944
0.0017992343
-0.00015332906
0.001963417
0.00093959652
0.0021092144
0.0022247712
0.0020640884
0.0019648296
0.002926475
-0.00012528056
0.0012928818
1.7488745e-05
0.0011667995
0.00030292266
0.0011631851
0.0005249336
0.0013160528
0.00063993517
0.0014784733
0.00052272024
0.0015100201
9.282439e-05
0.0015089617
-0.00054757178
0.0015253409
-0.0010121467
0.001544696
-0.0009991702
0.0016173684
-0.00032063078
0.0017321135
0.00086790822
0.0017037058
0.0019626208
0.001603216
0.0026401788
0.0014942108
0.0025740642
0.0014672817
0.001679512
0.0014712774
0.00034292448
0.0013343943
-0.00071995888
0.0012067194
-0.00087453395
0.0013438303
-6.4542416e-05
0.001817972
0.0011519163
0.0023316893
0.0020489453
0.0024843603
0.0023579016
0.0023765034
0.00088252218
0.0017511648
0.0016269704
0.0014672852
0.0020979087
0.0012766099
0.0020901818
0.0011758377
0.0014946026
0.0011332087
0.00048560272
0.0010272842
-0.00061946831
0.00096393026
-0.001357984
0.0010419344
-0.0014564853
0.0012476147
-0.00095651951
0.0015469944
-0.00011717483
0.0018425319
0.00080893495
0.0019341565
0.0015288623
0.0018954941
0.0017411929
0.0018097479
0.0015647567
0.0016391341
0.0010506067
0.0015097442
0.00040524032
0.0013056549
0.00024385608
0.0010317342
0.00071648304
0.0010032494
0.0014759183
0.0013512769
0.0019679875
0.0019177296
0.0017296205
0.0022395628
0.0022155352
0.0011884751
0.00049213611
0.0019645258
0.00090061104
0.0017186622
0.0010519981
0.0015393992
0.00089814032
0.0013613017
0.00051196037
0.0011970361
0.00011511943
0.0010058799
-3.6442256e-05
0.00083379151
0.0002561535
0.00083175065
0.00065978155
0.00098682021
0.00098680485
0.0012345098
0.0012000258
0.0015128668
0.00095049019
0.0016488511
0.00036767592
0.0016322436
-0.00043760844
0.0016324311
-0.0010141172
0.0016559254
-0.00098109912
0.0017140386
-0.00015866493
0.0018085656
0.0012884347
0.0016504704
0.0027096953
0.0013814694
0.0035623569
0.0012712248
0.0034285294
0.0014191502
0.0023828147
0.001681071
0.0017433543
0.00080877438
-0.00037533947
0.0018032868
-0.0011256932
0.0016080582
-0.001882258
0.0014583038
-0.0023112777
0.0013976825
-0.0019245981
0.0014396292
-0.00070935969
0.0014349577
0.00096148638
0.0012910925
0.0023205827
0.0011472311
0.00302727
0.0010602507
0.003221981
0.001054374
0.002733125
0.0011547504
0.0015316582
0.0012255454
-0.00010905365
0.0011601163
-0.0016443395
0.0011268077
-0.0023987875
0.001295074
-0.0020094936
0.0016042817
-0.00083709138
0.0019733552
0.00084813559
0.0021229328
0.0023656679
0.0019363519
0.0034341062
0.0016816543
0.0038141949
0.0015153768
0.003172146
0.0014708505
0.0013786312
0.0014050397
-0.0017029179
0.0013599256
-0.0029174998
0.0012912614
-0.0032496819
0.0012445145
-0.0028171563
0.0013409977
-0.0018765101
0.0015025378
-0.00082803716
0.0015481374
0.0003363976
0.001463707
0.0015090815
0.0014210952
0.0025154248
0.0014044857
0.003110609
0.0013076957
0.0028359082
0.0011773753
0.0016969095
0.0010529059
0.00017062512
0.00082329764
-0.00086569118
0.00069550413
-0.00095535784
0.00090414184
-0.00042743297
0.0012967565
0.00014904852
0.0017321758
0.00059764607
0.0020263636
0.00093547186
0.0019920246
0.0012442614
0.0018364272
0.0012953293
0.0017363775
0.0013296547
0.001686472
0.0015873208
0.0011225753
-0.00089760356
0.0011007093
-0.0011323479
0.0010344989
-0.00087632578
0.0010070634
-0.00049780594
0.0011611863
-0.00021162056
0.001352977
3.7904177e-05
0.0014359663
0.00019540652
0.0013861684
0.00014427
0.0013645273
-0.00012535726
0.0014148153
-0.00042618043
0.0014463898
-0.00049429101
0.0014012136
-0.00023235449
0.0013092159
0.00054220951
0.001060395
0.0015470211
0.0007283522
0.0021242652
0.00069919411
0.0021461295
0.00097450921
0.0019957187
0.0013517478
0.0014881323
0.00173839
0.00064742289
0.001838528
-0.0004429767
0.001678679
-0.0013823547
0.0016241777
-0.0017728729
0.0016965503
0.0018261813
-0.0011923022
0.0016682449
0.001389292
0.0028627642
0.0011088212
0.0030889721
0.00090244695
0.0026125302
0.00093196561
0.001889212
0.0010767542
0.0010404005
0.0011897293
9.2119417e-05
0.0011894263
-0.0010569764
0.0011915086
-0.0023964451
0.0012635089
-0.0034896655
0.0013521573
-0.0037921036
0.001410505
-0.0028297868
0.001475266
-0.00040911914
0.0014428027
0.0022977681
0.0011362054
0.0043086046
0.00092220027
0.0049274655
0.00091343433
0.0044179461
0.0010796538
0.0030558341
0.0013671798
0.0010696051
0.0015708193
-0.0010266354
0.001475988
-0.0028139462
0.0013925199
-0.003580972
0.0015349433
0.0017426137
-0.0030610044
0.002400271
0.0016738916
0.0041732043
0.001403498
0.0050933422
0.0010512447
0.0051223702
0.00090908405
0.0042158696
0.00090078809
0.0024575882
0.00093916504
0.00013369886
0.00092365922
-0.0022119752
0.00093795058
-0.0040219667
0.0010677938
-0.0048455992
0.0012121446
-0.0044826373
0.0013453442
-0.003198687
0.0014859821
-0.0013375325
0.0015272658
0.00097823135
0.0013545395
0.0032029746
0.0011891042
0.0048921951
0.0011247802
0.0054985823
0.0011464688
0.0045980052
0.0012184255
0.0022630589
0.0013540483
-0.00081433102
0.001258299
-0.0030242534
0.0011483339
-0.0037312649
0.0013565458
0.0016069504
-0.003259164
0.0014498392
0.0017395741
0.0027600671
0.0015809611
0.0038707867
0.0012492747
0.0046479421
0.0010439091
0.0046387751
0.00094265924
0.0032609284
0.00087991952
0.00047881963
0.00077146308
-0.0023778791
0.00073816798
-0.003959869
0.00090596317
-0.0040862192
0.0010932389
-0.0032227083
0.0012495161
-0.0021407328
0.0014030959
-0.0010853431
0.0014590519
3.4847261e-05
0.0013497623
0.0013069914
0.0012426709
0.0026376437
0.0012410544
0.0037435349
0.0012973718
0.0040626654
0.0012971686
0.0029085268
0.0013668988
0.00032890742
0.001223117
-0.0019022604
0.0010167888
-0.0026835085
0.0012069872
0.0014975526
-0.0024206677
0.00057490706
0.0017154167
0.0011153911
0.0016309653
0.0016092528
0.0013377218
0.0021637303
0.0011336704
0.0023808336
0.0010221265
0.0019533509
0.00094185773
0.00050609789
0.00080254274
-0.0011784521
0.00073120366
-0.0019727643
0.00086753187
-0.0019453156
0.0010197787
-0.0014123709
0.0011665804
-0.00096783375
0.0013118177
-0.0004743843
0.0013580036
-0.00013245564
0.0012799315
0.00019347091
0.0011972743
0.00060007045
0.0012272375
0.0010945453
0.0013166571
0.0016914585
0.00135572
0.0017253511
0.0014267941
0.0008550719
0.0013243325
-0.00036367198
0.0010388832
-0.00097808053
0.0011774936
0.0014360245
-0.00089791054
-0.00011976957
0.0016332849
-0.00028094204
0.0015933633
-0.00042945308
0.0013371913
-0.0004872755
0.0011467599
-0.00038790517
0.001070829
-0.00014937474
0.0010314297
0.00017211678
0.00092892086
0.00035885496
0.00086767336
0.00042493604
0.00094857257
0.00045826792
0.0010420434
0.00036654365
0.0011279206
0.00015768803
0.001218962
3.8465015e-05
0.0012463248
-0.00015343272
0.0011810642
-0.00045698563
0.0011296486
-0.00073922837
0.0011731029
-0.00088438347
0.0012741892
-0.0006486749
0.0013452635
-0.00010489516
0.0014645836
0.00061991375
0.0014341178
0.00084389639
0.0011901201
0.00061302087
0.0012792981
0.0014674337
0.00046844749
-0.0005180713