/*--------------------------------*- C++ -*----------------------------------*\
| =========                 |                                                 |
| \\      /  F ield         | OpenFOAM: The Open Source CFD Toolbox           |
|  \\    /   O peration     | Version:  2406                                  |
|   \\  /    A nd           | Website:  www.openfoam.com                      |
|    \\/     M anipulation  |                                                 |
\*---------------------------------------------------------------------------*/
FoamFile
{
    version     2.0;
    format      ascii;
    arch        "LSB;label=32;scalar=64";
    class       volVectorField;
    location    "90";
    object      U;
}
// * * * * * * * * * * * * * * * * * * * * * * * * * * * * * * * * * * * * * //

dimensions      [0 1 -1 0 0 0 0];

internalField   nonuniform List<vector> 
20580
(
(0.087035946 0.00012852442 2.5218615e-22)
(0.088266945 -0.00054176599 1.4709767e-19)
(0.096818334 -0.00081760586 7.833204e-24)
(0.095613679 -0.0009740675 -2.6400377e-21)
(0.094186969 0.00099480036 -4.6990866e-23)
(0.094995956 0.00056444349 1.2088629e-20)
(0.094918047 0.00020800485 -3.9172986e-20)
(0.093501834 0.0012216842 -4.9722852e-21)
(0.093173064 0.00098681914 -1.1705876e-20)
(0.09230687 0.00061855254 0)
(0.091608386 0.00143321 8.5580213e-21)
(0.090337492 0.002134521 -5.0877921e-20)
(0.090176645 0.0003930195 -7.4097586e-21)
(0.089309618 0.00034699764 -3.5916754e-21)
(0.08831366 0.0014507054 3.1631199e-21)
(0.088359091 -0.0010231855 3.5378505e-20)
(0.087794366 -0.0031229559 -7.1414462e-20)
(0.084529753 0.0020070199 2.8929569e-21)
(0.084911417 -0.0022515748 8.8330105e-20)
(0.08636 -0.0078776252 8.9215026e-22)
(0.082920322 -0.0034554888 -5.0512842e-22)
(0.082160158 -0.0057821641 2.754445e-21)
(0.0851492 -0.014051486 -1.1264659e-20)
(0.084206385 -0.014627709 -1.4049339e-19)
(0.078803751 -0.0084643983 1.4631181e-19)
(0.080401226 -0.0072679342 -4.8931436e-20)
(0.086123181 -0.016035101 3.2844513e-20)
(0.084148234 -0.029918803 -1.7670876e-20)
(0.08471478 -0.035356863 -8.3950765e-21)
(0.09633322 -0.029157169 -1.0504779e-19)
(0.097188208 -0.023872543 -1.003e-19)
(0.08549709 0.00086474458 0)
(0.086509124 -0.00095910719 -1.2903372e-19)
(0.094184199 0.00012089604 3.3505306e-20)
(0.093935722 -0.00055940278 9.5529762e-22)
(0.094069689 -0.00067690712 3.4074086e-20)
(0.094606283 -7.1702422e-05 -1.8644968e-22)
(0.094069346 0.00087665164 -7.523332e-20)
(0.093644674 0.00052200375 -1.4637533e-20)
(0.093134674 0.00097426155 -7.8360913e-21)
(0.092444199 0.00045929341 2.7199147e-21)
(0.091459934 0.0016185413 -4.8381422e-21)
(0.090936143 0.0014514884 -8.0031364e-21)
(0.090525889 0.0004374183 -1.1405548e-20)
(0.089411839 0.00065014841 -1.7571498e-22)
(0.088884331 0.0010554671 -7.2437441e-21)
(0.089236195 -0.001005346 -2.3728294e-22)
(0.087353282 -0.0016834746 2.5494629e-20)
(0.085198773 0.0018878263 1.4087211e-20)
(0.087415714 -0.0035295436 0)
(0.086485079 -0.0060013518 3.8720876e-20)
(0.0831105 -0.001797926 0)
(0.084734642 -0.0056185321 -5.6613103e-20)
(0.086352772 -0.011729027 9.5176027e-22)
(0.082528803 -0.0099677969 1.9108908e-21)
(0.077727088 -0.0076154992 3.0746532e-20)
(0.082429893 -0.010977221 -2.8561082e-20)
(0.092341412 -0.018944345 -4.3548815e-20)
(0.090219472 -0.028960805 -1.1290831e-19)
(0.082668772 -0.032317264 -9.5268418e-20)
(0.088792643 -0.02232284 8.3746384e-20)
(0.10082172 -0.015429578 9.0670257e-21)
(0.084211901 0.0021530271 0)
(0.084866268 -0.00074469625 0)
(0.091747672 0.00087781526 -1.0185283e-19)
(0.092123532 0.00023331995 -2.2544092e-21)
(0.092760212 -0.0020509231 2.254012e-20)
(0.093451339 -0.00070608695 3.3427702e-23)
(0.093284709 0.0012511502 4.0306371e-20)
(0.093153695 -1.4367458e-05 -2.5822018e-20)
(0.092837352 0.00085918815 0)
(0.092230945 0.00067684267 3.456518e-20)
(0.091410356 0.0014712559 -9.4845479e-21)
(0.091186545 0.00089617581 1.261445e-21)
(0.090773256 0.00060296991 0)
(0.089654069 0.0010092377 5.6311365e-22)
(0.089439256 0.00034701486 -3.6609621e-21)
(0.089808027 -0.00072535259 -1.4340301e-21)
(0.087341141 -0.00035273856 5.2787529e-21)
(0.085999153 0.00081151993 -2.9468749e-21)
(0.088813438 -0.0042983929 4.7022272e-20)
(0.086627632 -0.0041718737 0)
(0.08381702 -0.0014568713 0)
(0.08695968 -0.0062630532 6.7315476e-20)
(0.087763414 -0.0099531344 -2.3946775e-21)
(0.083296724 -0.0069684779 1.4796626e-20)
(0.079145302 -0.0092393472 -2.2503445e-22)
(0.083658521 -0.016477643 2.2599707e-20)
(0.09463232 -0.020762216 -4.681131e-21)
(0.094158228 -0.024436889 -2.7395628e-20)
(0.081876945 -0.027883904 1.0451346e-20)
(0.08067943 -0.022380526 1.0882643e-19)
(0.10000051 -0.014942094 4.9448288e-20)
(0.082973655 0.0027531196 0)
(0.083468667 -0.00055370568 -1.3367953e-22)
(0.089564854 0.00067493834 -1.4076789e-21)
(0.090182292 0.00097627522 -2.9052816e-22)
(0.091026039 -0.0023721988 -3.4267503e-22)
(0.091737308 -0.00085287024 -6.425277e-20)
(0.092170234 0.0010343307 1.2544006e-20)
(0.092308042 -0.00012347849 0)
(0.092144767 0.00050526314 7.703265e-23)
(0.091728684 0.001085772 -1.1540758e-20)
(0.091190105 0.0011905105 -4.1651006e-20)
(0.091138631 0.00046703969 1.6260724e-21)
(0.090693778 0.00085048547 -2.8576543e-22)
(0.089809124 0.0013494397 -3.0473153e-21)
(0.089790797 -0.00016008011 5.9991032e-21)
(0.090121123 -0.00044405058 -9.9528739e-22)
(0.087692941 0.0011255203 2.161084e-20)
(0.08709873 -0.00052206299 -2.7998549e-22)
(0.089655702 -0.0049879042 -9.4176091e-23)
(0.086668582 -0.0022010182 8.6357221e-21)
(0.084814304 -0.0016103499 5.4998007e-21)
(0.088530084 -0.0077166406 3.0537674e-20)
(0.088174228 -0.008458363 5.5545532e-21)
(0.084853427 -0.0042573308 -2.7489711e-20)
(0.083066534 -0.009706717 0)
(0.085249143 -0.02083975 1.4864723e-20)
(0.093471859 -0.022436038 5.7181437e-20)
(0.095799118 -0.018291046 3.8121451e-20)
(0.083337179 -0.020037731 -1.1135838e-19)
(0.074952037 -0.024366886 3.8130692e-20)
(0.089815379 -0.022801408 2.1149385e-19)
(0.08210552 0.0024999438 0)
(0.082446042 -9.9925742e-05 -2.5862878e-19)
(0.088005982 -0.00015872565 -1.1754246e-20)
(0.088458936 0.0012905206 5.5862128e-20)
(0.089214053 -0.0013875059 -2.1246303e-22)
(0.089781566 -0.00028996864 -4.8430288e-20)
(0.090724761 0.00035823918 0)
(0.091119643 0.00031235812 1.030684e-20)
(0.091093295 0.00023968561 -2.2691255e-21)
(0.090908303 0.0013944453 -1.6443135e-20)
(0.090737586 0.00094923346 -1.9942901e-20)
(0.090754476 0.00019216999 -6.9582667e-23)
(0.09031548 0.0010927147 -2.606613e-20)
(0.089831745 0.0014812849 -9.6548901e-21)
(0.089940216 -0.00044247363 4.4754899e-21)
(0.089980508 -0.00043613375 -2.8169447e-20)
(0.088058617 0.002211891 8.5413011e-21)
(0.088331441 -0.0017076337 9.256227e-20)
(0.089977102 -0.0052315267 4.3101328e-20)
(0.086645105 -0.00056706887 0)
(0.08632302 -0.0024119469 7.557786e-21)
(0.089862739 -0.0092616023 4.2368563e-21)
(0.087802417 -0.0079059178 -5.9196185e-20)
(0.086159072 -0.003245433 -2.5257469e-21)
(0.088157821 -0.0091490007 0)
(0.088472066 -0.021716402 9.285248e-20)
(0.091097079 -0.022043116 8.1876735e-20)
(0.094825224 -0.011825943 -1.4267515e-19)
(0.088505811 -0.010900479 -1.0691014e-19)
(0.077318928 -0.023666428 7.5526993e-20)
(0.080000809 -0.033285222 -5.5901945e-20)
(0.082003243 0.0015805441 5.6548881e-20)
(0.0817579 0.00037133225 -1.31031e-21)
(0.087093207 -0.0012373163 1.9383223e-23)
(0.087216254 0.00059857038 -2.1812983e-20)
(0.087630398 0.00016922466 2.1323323e-20)
(0.088102935 0.00057542648 1.6415802e-22)
(0.089306678 -0.00035983657 2.3816028e-20)
(0.089669941 0.00075524755 -4.8271309e-24)
(0.089781233 0.00026934966 -4.3200682e-21)
(0.089822163 0.0013740947 2.6656419e-20)
(0.090013691 0.00084872098 -2.0642437e-20)
(0.090036886 0.00011452168 -1.2392425e-20)
(0.089662379 0.0011927116 -2.543384e-20)
(0.089661767 0.0014156565 -1.8576366e-20)
(0.089891551 -0.00055749782 1.1290534e-20)
(0.089470587 -0.00048127695 1.355989e-21)
(0.088314621 0.0025531129 1.3539474e-22)
(0.089478407 -0.0025201345 8.8372791e-20)
(0.089820276 -0.0046012785 3.4994159e-21)
(0.086700216 0.00046090363 0)
(0.088184474 -0.0035001791 9.6936702e-21)
(0.09110413 -0.0097260925 -4.7477728e-20)
(0.087184646 -0.0077426022 8.569407e-20)
(0.086681215 -0.0038513295 0)
(0.09269572 -0.0083333928 1.0086882e-19)
(0.09233485 -0.019242157 -1.0105114e-19)
(0.088419118 -0.020415737 -6.9872768e-20)
(0.091117824 -0.0079675214 -4.371065e-19)
(0.094626881 -0.0027906875 2.6688861e-20)
(0.088633858 -0.016969542 6.9272434e-20)
(0.080239563 -0.036744136 6.9709369e-20)
(0.08236476 0.00029386101 -3.2177276e-21)
(0.081396355 0.00099797875 -1.3554447e-19)
(0.086555689 -0.001738029 1.3069639e-22)
(0.086382762 -0.00070590336 4.7049401e-21)
(0.086491901 0.0014859339 -4.3420434e-21)
(0.087015559 0.001238851 -8.4448739e-20)
(0.088016176 -0.00069528496 -7.2118515e-20)
(0.088270608 0.00066588592 -1.9099465e-23)
(0.088419884 0.00055574281 2.6149315e-22)
(0.088599153 0.00099728324 -3.5603978e-21)
(0.089014223 0.00090340857 3.2514353e-22)
(0.089038565 0.0002263568 -1.0134032e-21)
(0.088718103 0.0011663474 9.8433112e-21)
(0.089211975 0.0010471038 3.9724823e-23)
(0.089575397 -0.00041759583 -1.4856146e-20)
(0.088675201 -0.00043248195 2.0631926e-21)
(0.088336557 0.0018808992 3.5067786e-22)
(0.09011172 -0.0029716722 -1.3655368e-19)
(0.089203414 -0.0033247322 0)
(0.086765048 0.00071902562 1.7992533e-20)
(0.089781685 -0.0046919803 -1.0981716e-20)
(0.091978795 -0.0088731032 4.113847e-21)
(0.086689084 -0.0067160714 -1.3934906e-20)
(0.086340079 -0.0059729437 2.0906318e-20)
(0.094799313 -0.0086582493 -3.2779504e-20)
(0.095382366 -0.014216036 1.1718508e-20)
(0.086805945 -0.016173322 -1.0588154e-19)
(0.086396366 -0.0084271041 -1.230094e-21)
(0.09692301 -0.0021306044 -1.3346298e-19)
(0.10299314 -0.01032841 -2.5590276e-19)
(0.094175268 -0.03085055 2.3321208e-20)
(0.082952065 -0.00032114142 5.6383373e-19)
(0.081619384 0.0014829072 0)
(0.086657999 -0.0014802483 2.0189917e-19)
(0.086033137 -0.0019541141 3.0383873e-20)
(0.085818699 0.0019016877 2.0495399e-20)
(0.086418151 0.0011196506 -3.3077645e-23)
(0.08699467 -0.00046984781 -3.0030156e-20)
(0.087098576 0.00015885091 -4.2772359e-22)
(0.087213201 0.00082125158 1.5126234e-20)
(0.087413644 0.00058961179 3.1182715e-20)
(0.087880825 0.00089329565 1.9030296e-20)
(0.0878821 0.00061261232 -7.4359971e-22)
(0.087609331 0.0011078522 -7.445098e-21)
(0.088389337 0.00039809129 -1.6677036e-20)
(0.088830302 4.2542983e-05 2.0794831e-20)
(0.0876856 -0.000169481 -4.021907e-21)
(0.088044559 0.00062134538 1.2075151e-20)
(0.09003738 -0.0029258964 -3.2238571e-20)
(0.088210217 -0.0015939061 6.7614462e-22)
(0.08678999 0.00039380828 5.6708871e-22)
(0.090621049 -0.0057519335 9.0303257e-21)
(0.091893235 -0.0069436484 6.3857934e-22)
(0.08665147 -0.0041252568 0)
(0.08617925 -0.0081396392 9.011511e-21)
(0.094623587 -0.010629162 7.4975994e-20)
(0.096954245 -0.0089875241 -1.8360946e-20)
(0.086955616 -0.0095743039 -2.986647e-20)
(0.082260359 -0.011109224 1.0312751e-19)
(0.093639454 -0.0085673867 -3.559223e-20)
(0.10933196 -0.010013441 8.3839538e-20)
(0.10961761 -0.02007662 2.2962507e-19)
(0.084799766 -0.00038016649 -2.5261386e-19)
(0.082558321 0.0018775895 1.2054776e-23)
(0.087354437 -0.00058311436 -1.0892633e-20)
(0.086303451 -0.0025386782 5.9335979e-20)
(0.085840172 0.001284774 6.3243105e-22)
(0.086525295 0.00035378504 -1.077563e-22)
(0.086599294 0.00017288127 6.2762659e-21)
(0.086373603 -0.00015751589 -2.2902218e-23)
(0.086316324 0.00077985953 6.2823686e-21)
(0.086409799 0.00038489867 -1.6825877e-20)
(0.086776088 0.000644933 3.0813973e-21)
(0.086696598 0.0011274525 0)
(0.086509393 0.00099325329 -1.7049431e-22)
(0.087241404 -0.00038506988 1.5762633e-21)
(0.087643682 0.00039569901 1.6429688e-21)
(0.08658508 0.00030661225 -2.1101306e-20)
(0.0873271 -0.00064742822 -6.7909452e-21)
(0.089103148 -0.0026331272 -1.6438306e-20)
(0.087012926 0.00018899522 -4.6081344e-20)
(0.086843769 -0.00029304948 5.3930089e-20)
(0.090623325 -0.0067547321 1.3186298e-20)
(0.090906162 -0.0044965263 -2.0277364e-21)
(0.087324362 -0.00068337469 -1.1567352e-20)
(0.087107378 -0.0089191094 4.7816709e-21)
(0.093015677 -0.013210342 1.0327636e-20)
(0.096305038 -0.0062098675 1.1026755e-19)
(0.089742431 -0.0035827036 8.5864582e-20)
(0.083063344 -0.012345077 -1.2047151e-19)
(0.089696246 -0.018546495 1.7251849e-19)
(0.10611591 -0.016482205 2.7330659e-19)
(0.11602739 -0.012991921 4.9730189e-20)
(0.095756493 0.0011390397 -5.6798427e-19)
(0.085738345 0.0015023721 -1.2220487e-22)
(0.089725718 0.00016518835 2.7679401e-19)
(0.087869783 -0.0021641901 -1.0257198e-19)
(0.086785521 5.8110627e-05 -1.4261559e-22)
(0.087139528 -0.00061919728 0)
(0.086851047 0.00079867196 -3.021434e-20)
(0.08644981 4.3798589e-05 -1.1611317e-20)
(0.086090093 0.00064408643 1.5930452e-20)
(0.085887178 0.00046629527 -1.1594492e-20)
(0.085865338 0.00034301618 4.3192837e-23)
(0.085571838 0.0015820422 1.5271606e-22)
(0.085477757 0.00093092241 0)
(0.085877386 -0.00075653218 -4.4617297e-21)
(0.086087747 0.00065802297 9.8207995e-21)
(0.085328857 0.00095070975 1.3139774e-21)
(0.08617977 -0.0014419938 4.1822956e-20)
(0.08733972 -0.0020743306 -5.9677209e-20)
(0.085461556 0.0016090392 -1.6425815e-20)
(0.086737944 -0.0011328335 8.3091557e-20)
(0.089699847 -0.0072580509 2.2722753e-21)
(0.088674122 -0.0024556148 -1.1086211e-19)
(0.088008611 0.0022542656 4.5188326e-20)
(0.089346023 -0.0074983977 1.7330484e-19)
(0.090965359 -0.014631951 6.1803876e-20)
(0.092923979 -0.0055645124 -7.4082721e-23)
(0.09281716 0.00068804056 8.2805648e-22)
(0.089483977 -0.0097504215 -1.0871863e-19)
(0.089742099 -0.025146762 -9.3090054e-20)
(0.098917042 -0.024477993 2.3210865e-19)
(0.110432 -0.012214536 4.3421236e-19)
(0.11157885 0.0024328137 -8.0074555e-21)
(0.094404539 0.0008600542 -4.2709709e-22)
(0.096019034 0.00040830831 1.1902258e-19)
(0.093036096 -0.00044817896 -1.4620059e-22)
(0.090413555 -0.0007969661 -1.6925563e-22)
(0.089120874 -0.00098186211 1.1679819e-19)
(0.088003826 0.0010504409 -4.9575542e-20)
(0.08729212 0.00053305195 -3.7462973e-23)
(0.086575647 0.00061548383 3.3459048e-20)
(0.086168562 0.00060318755 5.7825721e-21)
(0.085784388 6.098518e-05 1.1589163e-20)
(0.08526204 0.0016914896 -8.6761153e-21)
(0.085208781 0.00070029302 0)
(0.085044341 -0.00082997185 -8.9403029e-23)
(0.084800404 0.0006525986 4.3434657e-20)
(0.084360926 0.0014619282 -2.8270914e-22)
(0.085056943 -0.0017273884 -1.1229237e-21)
(0.085205409 -0.0012771234 -3.1026228e-22)
(0.08379845 0.0021330393 -3.4155788e-22)
(0.086388611 -0.0019814524 -1.0116451e-21)
(0.088043325 -0.0066165288 -1.0620042e-21)
(0.085372268 -0.0015491499 -1.2538036e-19)
(0.087574517 0.0029849648 1.052925e-20)
(0.091993418 -0.0052488628 -9.4443417e-22)
(0.090025177 -0.013644658 -1.9064198e-20)
(0.088174865 -0.0068599067 4.4359102e-21)
(0.092623939 0.00079716929 1.2823164e-20)
(0.097192473 -0.0061581282 2.2175969e-19)
(0.095244941 -0.0235943 -2.8637612e-20)
(0.093026574 -0.028329889 -1.3085316e-19)
(0.097601049 -0.01504166 -5.5747694e-20)
(0.10978025 0.0036987753 -3.3801022e-19)
(0.10109806 -0.0002784183 0)
(0.10325671 -0.0003577216 -6.2751838e-20)
(0.10031003 0.0015602169 -2.1176972e-20)
(0.097012947 -0.0010884744 5.1243722e-20)
(0.094101193 -0.00072438656 2.7772017e-20)
(0.091720293 0.00068806395 2.04394e-22)
(0.089995765 0.0009959099 -6.3397231e-23)
(0.088549883 0.00084231448 -2.8471294e-20)
(0.08760428 0.00075146219 3.6001494e-21)
(0.086549831 0.00019277777 -1.3583294e-20)
(0.085725147 0.0014512078 -2.2182844e-23)
(0.085742194 0.00046826903 -2.2945973e-20)
(0.085147765 -0.00044195356 0)
(0.084540358 0.00053969902 5.1147848e-20)
(0.0845278 0.0014773237 -6.1922631e-21)
(0.085023465 -0.0015547417 -3.0933174e-20)
(0.084178865 -0.00022488338 -6.9675463e-20)
(0.083284544 0.0018366628 -2.4761427e-22)
(0.086557563 -0.0028127557 -7.012274e-20)
(0.086780523 -0.0051252597 -1.0680664e-20)
(0.082356018 -0.0013440098 1.5545622e-21)
(0.086064086 0.0010115423 5.4027573e-21)
(0.093420865 -0.004379111 -1.0740902e-19)
(0.089803433 -0.010074601 9.0796861e-20)
(0.083862083 -0.0079705335 3.7901731e-20)
(0.089413567 -0.0025056922 -4.0070219e-20)
(0.10062535 -0.0054010968 -3.7204829e-21)
(0.1017238 -0.015300169 4.5882735e-19)
(0.092517561 -0.023805611 -3.0791896e-20)
(0.087380012 -0.01809074 -1.0218628e-19)
(0.099049312 0.0035767684 2.0335407e-19)
(0.10003267 -0.00029837696 -2.7189721e-19)
(0.10397253 -0.0012140685 5.7911389e-22)
(0.10217096 0.0028439292 -7.6271275e-22)
(0.10044303 -0.00066122324 8.01794e-23)
(0.098957098 0.00021254284 -5.6924882e-20)
(0.097232665 -9.7317771e-06 1.343452e-20)
(0.095237714 0.00086490082 -4.6372171e-23)
(0.093137223 0.00073414809 2.5300706e-22)
(0.091434391 0.00040566399 -2.6019531e-21)
(0.089507174 0.00042694766 2.3436002e-22)
(0.088105292 0.00084159022 -9.1929887e-21)
(0.087721533 0.00016935025 3.8610611e-23)
(0.086627117 0.00024438353 -1.1443058e-21)
(0.085562949 0.00016631436 0)
(0.085728455 0.00096639111 0)
(0.085973411 -0.0010253366 1.538739e-20)
(0.084516139 0.00070188167 -2.2847311e-21)
(0.084224638 0.00076775837 -4.8393063e-20)
(0.087557835 -0.0036096308 -4.8959641e-21)
(0.086674628 -0.0030233874 2.3480265e-20)
(0.081308966 -0.00091511921 -3.0724508e-21)
(0.084891996 -0.002749255 0)
(0.093262356 -0.0052976053 0)
(0.090120666 -0.004949704 0)
(0.081861721 -0.0061715602 2.4163942e-22)
(0.08535201 -0.0072274198 -3.0663473e-21)
(0.098235085 -0.007911071 4.3943336e-20)
(0.10409638 -0.0073253011 -1.3184904e-20)
(0.094690336 -0.010947784 4.7269517e-20)
(0.083606453 -0.01472061 -2.6039407e-20)
(0.090761303 0.0036890936 9.9127122e-20)
(0.092888457 -0.00030634999 -3.6461779e-21)
(0.10016991 -0.0018460893 -1.7786492e-21)
(0.099782917 0.0025422971 9.9669683e-20)
(0.099337232 7.1165695e-05 0)
(0.09862635 0.0012496242 3.0684493e-22)
(0.097899698 -0.00037152629 -3.9204986e-20)
(0.097223665 0.00047093058 1.6615793e-20)
(0.096228799 0.00052295418 -9.8935883e-23)
(0.095264649 0.00018550904 2.2111663e-21)
(0.093715533 0.00092186103 -2.7730562e-21)
(0.092520319 0.00031377872 0)
(0.091916503 4.721419e-05 -2.5529549e-20)
(0.090546964 0.0011294088 4.2882637e-21)
(0.089276472 -7.3177254e-05 6.4541383e-21)
(0.089304465 0.00026127765 1.8440974e-21)
(0.089098735 -0.00026219938 -6.0374614e-21)
(0.087381823 0.0015052538 1.7521954e-21)
(0.087424921 -0.00044628096 -6.1740581e-20)
(0.089896278 -0.0040706226 -3.2668383e-21)
(0.08840044 -0.00031781159 -1.8724796e-21)
(0.083542258 0.0003756786 7.5311064e-20)
(0.086142679 -0.0066797964 8.3581791e-21)
(0.093040727 -0.0070535147 0)
(0.091208808 -0.00059733974 -1.4486862e-20)
(0.083855992 -0.0017365668 5.8196492e-20)
(0.084433843 -0.010775016 -8.9406457e-21)
(0.093997993 -0.011797989 -8.2918565e-20)
(0.10172573 -0.004086698 1.5307268e-19)
(0.098270221 0.0021750017 -3.29484e-20)
(0.088405678 -0.0044598093 -1.1021058e-19)
(0.088239318 0.0021067113 -1.0737013e-19)
(0.088112755 0.00057117508 6.0215766e-20)
(0.093588021 -0.0012304045 1.7877407e-21)
(0.093975268 0.00099470114 -7.2539939e-20)
(0.094852154 0.00077055848 3.8283537e-20)
(0.095787882 0.001516074 -1.2533643e-22)
(0.096168196 -0.00033042311 1.1915526e-19)
(0.095957164 -0.0001199726 -3.3300951e-20)
(0.095679274 -8.548403e-05 2.1862222e-22)
(0.09518629 -8.8087609e-05 5.7120534e-23)
(0.094430638 0.0011713316 1.4602102e-20)
(0.094135147 -0.0002050526 3.3933627e-22)
(0.094043805 -0.00016186221 1.5064098e-22)
(0.093536302 0.0014983115 8.3169946e-23)
(0.092748096 -0.00023941466 4.6107446e-20)
(0.092865832 -0.00043220652 1.3097648e-22)
(0.092703691 4.1206106e-05 3.229275e-20)
(0.091508706 0.0017677866 4.8244808e-22)
(0.092140516 -0.0015975398 -3.8933647e-21)
(0.093393747 -0.0045487347 0)
(0.091771076 0.0018021164 -9.0496302e-20)
(0.089207041 0.0022276195 -2.7550269e-21)
(0.090662059 -0.0085414444 8.4245408e-20)
(0.093804825 -0.0085929207 -2.6514742e-21)
(0.092855827 0.0022715313 -7.284275e-20)
(0.089959582 0.0037548417 -1.5529616e-19)
(0.089182437 -0.0096689788 8.0717395e-20)
(0.091780369 -0.015641699 -1.0418236e-21)
(0.096376982 -0.0055593319 -9.3658933e-21)
(0.099071062 0.0067132117 -5.5228687e-20)
(0.096897351 0.0048782668 -1.3502073e-20)
(0.10004245 0.0016883195 9.4997394e-20)
(0.090128429 0.0012427978 -1.4672865e-22)
(0.093572773 -0.00057082201 1.0443408e-19)
(0.092366229 -0.001292331 -3.4909534e-22)
(0.092058351 0.0011288825 4.8252324e-22)
(0.09231733 0.00096415515 2.4429907e-20)
(0.092709336 0.00024677342 0)
(0.092827059 -0.00017241916 -2.5088837e-22)
(0.093084204 -0.00036486873 1.4644561e-23)
(0.093081739 0.00018135978 3.2262296e-20)
(0.093028179 0.0013864304 -4.5013504e-23)
(0.093234153 -0.00015010651 -1.4843871e-24)
(0.093133357 -4.2340761e-05 3.3982741e-20)
(0.093181072 0.0014907566 1.324166e-20)
(0.092875197 8.2172372e-05 -6.8234931e-20)
(0.092872611 -0.00079984262 -1.3220548e-22)
(0.092623442 0.00025942297 -4.4396332e-22)
(0.092311448 0.0017634018 2.9289843e-22)
(0.093820585 -0.0019041463 0)
(0.093760325 -0.0040649919 -6.1331011e-20)
(0.092088021 0.0027371426 -1.0688599e-19)
(0.093137928 0.0031725039 -4.460461e-20)
(0.09492754 -0.0076096313 7.4931152e-20)
(0.093672049 -0.0093069818 3.368175e-21)
(0.092257834 0.0023989978 -8.9308621e-20)
(0.095274593 0.0057121737 2.1910755e-20)
(0.097570369 -0.0056155001 -1.5666586e-20)
(0.093956704 -0.015793411 -9.3496683e-21)
(0.091492627 -0.0091772003 -1.0431301e-19)
(0.095957157 0.0035335772 -9.9909065e-20)
(0.1028058 0.0070328298 -1.2035777e-21)
(0.11176194 -0.00035656476 1.8942138e-19)
(0.098375715 0.0021211321 4.2893413e-23)
(0.09906821 0.00065577612 -2.9665104e-21)
(0.096120339 -0.0030662004 -1.0723748e-19)
(0.093793353 0.00064512281 -2.849522e-22)
(0.093015172 -0.00027861942 1.3405185e-20)
(0.092333295 0.00053863503 0)
(0.091572903 -0.00031535518 0)
(0.090978631 -0.00060993891 -1.9116246e-20)
(0.090440873 0.00038894105 0)
(0.090487236 0.0007309322 3.3504842e-22)
(0.090772432 -0.00017092157 2.7773949e-20)
(0.090495809 -0.00012257714 0)
(0.090865635 0.00086585748 9.6230213e-21)
(0.091039546 0.00016661905 -5.9053516e-20)
(0.090964171 -0.0010706828 -2.2422579e-20)
(0.090606715 0.00015638318 -5.2685315e-22)
(0.091080521 0.00087011011 -3.6804056e-21)
(0.093250995 -0.0021076714 5.0919667e-20)
(0.092046444 -0.0028253434 -4.0679859e-20)
(0.090205044 0.0019717661 9.2424722e-20)
(0.094147604 0.0023790019 3.0397127e-22)
(0.097217095 -0.0048871508 -6.1363072e-20)
(0.092450049 -0.0069717119 -1.0424307e-21)
(0.089424284 0.00093117534 6.4337355e-21)
(0.096500883 0.0042107817 -5.6646988e-20)
(0.10366685 -0.0017326211 -7.2425769e-20)
(0.098550651 -0.010271579 -2.6989707e-20)
(0.089295459 -0.01083121 2.8465626e-20)
(0.091036922 -0.0033062653 2.2098396e-19)
(0.10292191 0.00056646275 1.2910944e-19)
(0.10554149 0.00024994703 -2.095132e-19)
(0.10166396 0.00096908454 4.8140198e-23)
(0.1042364 0.00015782986 4.5898287e-19)
(0.10165292 -0.0035009034 1.2757001e-19)
(0.098744593 2.6077332e-05 9.8351987e-21)
(0.09652744 -0.0010212107 -2.3044416e-22)
(0.094412279 0.00069736884 1.471716e-22)
(0.092959872 1.2227318e-05 3.6304214e-20)
(0.091610034 -4.3689374e-05 1.1558611e-19)
(0.090527139 0.00098272089 -9.0989844e-21)
(0.090141072 0.00023687856 -7.705201e-21)
(0.089828673 0.00036031479 -3.9121115e-22)
(0.088919421 0.00025831396 -8.8680377e-21)
(0.088956103 0.00040265386 -6.2789508e-21)
(0.089079577 0.00048135947 -2.1711605e-20)
(0.088597059 -0.00055266817 -2.5939886e-20)
(0.087884544 0.00056177756 1.2166023e-20)
(0.088730268 0.00010555272 -2.3723436e-20)
(0.090989747 -0.0016514793 -3.9337918e-22)
(0.089169057 -0.00060312928 2.1494695e-20)
(0.086967809 0.00075203507 3.1971275e-20)
(0.092064454 2.1494986e-05 2.5741668e-20)
(0.096458502 -0.0025851591 -3.9507371e-20)
(0.090582667 -0.0023906312 -3.0442579e-22)
(0.08557143 -0.00077655423 1.617087e-20)
(0.093286781 -0.00055755656 1.7945822e-20)
(0.10410746 -0.0024952289 9.5028821e-22)
(0.1021521 -0.0029628504 1.2432681e-19)
(0.090663504 -0.0058725166 8.8534214e-20)
(0.087556855 -0.0078723261 9.0429733e-21)
(0.098372596 -0.0080276745 2.1816716e-19)
(0.094456746 0.00067768613 -2.6177981e-19)
(0.095714199 0.0011047934 1.4889248e-22)
(0.10259329 -0.00041720618 -3.5425299e-22)
(0.10111792 -0.001894133 7.6857513e-22)
(0.10004005 -0.00082711237 5.8064659e-21)
(0.09918394 -0.001473867 1.0454811e-19)
(0.097829593 -0.00015395424 -4.5396947e-20)
(0.09646757 -0.00029868263 -3.9406171e-20)
(0.094666166 4.6973885e-05 2.927032e-20)
(0.093043279 0.00055672321 2.6903899e-22)
(0.091929925 -0.0006339178 -8.9232399e-21)
(0.090967073 0.00029373328 1.2674414e-20)
(0.089719304 0.00035380825 4.7975313e-22)
(0.089322764 -0.00060143651 1.095096e-20)
(0.089357315 0.00018139281 -1.8477009e-22)
(0.088687422 -0.0002056984 1.1948653e-20)
(0.087794328 0.00054247889 3.3293616e-21)
(0.088558087 -0.0010850124 0)
(0.090354203 -0.0013818634 -5.4258822e-22)
(0.088488496 0.0015589235 4.1547666e-23)
(0.086179032 -0.0004627104 1.2672392e-19)
(0.090493513 -0.0038339951 -1.7269645e-20)
(0.094921656 -0.001997183 3.9417749e-20)
(0.090155012 0.0024767139 -2.1529097e-20)
(0.084769748 -0.00025571209 -5.3398263e-20)
(0.090488134 -0.0065988887 -6.5150669e-21)
(0.1003222 -0.0059909832 1.3968494e-20)
(0.1015386 0.0014571892 2.5639651e-21)
(0.093833794 0.0022735543 2.7789244e-19)
(0.088649501 -0.0065686838 9.4669299e-21)
(0.09429539 -0.013229735 -5.0748712e-20)
(0.093920018 0.0033853587 2.0537028e-20)
(0.092733903 -0.00040442409 -7.9224975e-20)
(0.098584297 -0.0022402783 2.6721271e-20)
(0.097312281 0.00083009928 3.314045e-20)
(0.097137796 -0.00064138582 1.0644985e-23)
(0.097325251 -0.00041829329 1.4532829e-22)
(0.097136928 -0.0004349165 -3.7860057e-23)
(0.096718161 1.5114519e-06 -4.210293e-20)
(0.095799326 0.00058592587 -1.4730882e-21)
(0.095067456 0.00011898934 -3.2217698e-21)
(0.094349402 -0.00064429029 1.7667854e-21)
(0.093511016 0.00041260372 -1.9435278e-22)
(0.092553111 0.00098058195 1.71483e-20)
(0.091908361 -0.0010319023 5.1967747e-23)
(0.091565074 0.00019148414 -1.0487484e-19)
(0.090908959 0.00066771904 2.6475534e-21)
(0.089928357 0.0010958675 -1.5246701e-22)
(0.090342304 -0.0015591307 2.1282576e-22)
(0.091200225 -0.0007337068 -9.3919802e-20)
(0.090143654 0.0037599407 5.9990548e-22)
(0.088750768 -1.6959349e-05 -2.0719705e-21)
(0.091152217 -0.0062786546 1.0851642e-20)
(0.093930033 -0.0015095723 3.1817099e-22)
(0.091426201 0.00637785 2.4113613e-20)
(0.088521937 0.0024025127 -3.9983368e-21)
(0.091473109 -0.0094609101 3.2461102e-20)
(0.097048087 -0.0083923173 -3.5276538e-19)
(0.099143118 0.0029168682 7.9950495e-20)
(0.097496372 0.0090579979 2.5411574e-22)
(0.094889935 -0.00059107495 -2.2650001e-19)
(0.095039814 -0.012721967 7.5165292e-21)
(0.10839612 0.0037754216 -4.3652432e-19)
(0.097637102 -0.00012081765 -3.5487009e-21)
(0.10028436 -0.0027768575 -3.3064695e-21)
(0.09791707 0.0030717112 7.5904551e-22)
(0.097228469 -0.0006549681 -1.8011387e-22)
(0.097002517 0.00060554483 4.3257928e-22)
(0.096813186 -0.0010645037 -1.0808074e-22)
(0.096525452 -0.00027166607 1.1505866e-22)
(0.09607429 0.00045645399 3.4961478e-24)
(0.095887194 -0.00083844027 -1.4055e-22)
(0.095569762 -0.0007490246 -4.474496e-23)
(0.095212514 -6.6728129e-05 -1.1679389e-19)
(0.095185345 0.00091131282 -3.6768104e-20)
(0.09489357 -0.0016256595 6.2250499e-23)
(0.094491148 -0.00040837311 7.232499e-22)
(0.094121241 0.00069657562 -2.664871e-23)
(0.093744887 0.0010369955 1.1137241e-21)
(0.094016487 -0.0019514436 -1.4069807e-22)
(0.093660926 -0.00096222094 1.0509291e-19)
(0.093497836 0.0040933646 1.9971337e-20)
(0.093970524 0.0001790656 -1.5417797e-19)
(0.09426917 -0.0072373243 2.1769137e-22)
(0.093990313 -0.0025197139 2.552395e-21)
(0.093381771 0.0065398893 -1.1433368e-21)
(0.094802796 0.00362792 8.6147736e-20)
(0.096296992 -0.0087065723 -7.9030771e-20)
(0.095437906 -0.010592309 7.8623902e-21)
(0.095398476 0.0014834155 -1.1692746e-20)
(0.099050882 0.010147599 2.1701905e-20)
(0.1028778 0.0043818793 1.5478333e-19)
(0.1014487 -0.0086101238 -1.1122682e-19)
(0.11258455 0.0042870023 -5.4985392e-21)
(0.09766273 -0.0022683406 2.298389e-19)
(0.10089572 -0.0033526473 3.623615e-19)
(0.098816957 0.0036342491 -1.4166568e-19)
(0.098463224 -0.00017583952 2.291106e-20)
(0.098265456 0.0013304913 -4.1043328e-20)
(0.098323578 -0.0004223859 -8.6234308e-20)
(0.098003357 0.0005237295 5.956472e-23)
(0.098037075 0.00065830102 4.4235458e-20)
(0.098201537 -0.00075491632 -6.8889179e-20)
(0.098009486 -0.00016090434 -1.1779521e-20)
(0.09793104 7.7776012e-05 -8.5715001e-23)
(0.098636847 0.0011458567 -3.5312165e-20)
(0.098679983 -0.0010292076 4.6786305e-20)
(0.098217085 -0.00028482434 -9.3048363e-22)
(0.098153331 0.00090268134 -5.2290721e-20)
(0.098743832 0.0011746667 -1.7261862e-22)
(0.099213001 -0.0011599986 4.0741053e-20)
(0.097868025 -0.00090633287 -7.9700278e-22)
(0.098472178 0.0033927354 4.792534e-20)
(0.10119278 0.00085244941 1.0684657e-19)
(0.10054056 -0.0048230326 2.8715283e-23)
(0.097161741 -0.0029044222 3.8067333e-21)
(0.097181907 0.0046998702 -1.5948126e-19)
(0.10265136 0.0038878175 8.3909089e-21)
(0.10528049 -0.0042956586 7.9992122e-20)
(0.099411136 -0.0085133169 8.1883174e-21)
(0.095078262 -0.00087477933 0)
(0.10111419 0.0071207481 -7.6568749e-20)
(0.11113787 0.00587104 3.0621732e-20)
(0.11202462 -0.0026823601 1.2273524e-19)
(0.10101522 0.0012454318 1.0997812e-19)
(0.062099579 -0.00053001774 0)
(0.11182127 -0.0018819805 -5.9082253e-22)
(0.10414082 0.00072555995 -2.0397852e-20)
(0.11305107 -0.00044402759 2.9505084e-21)
(0.1094488 0.00026048199 -1.0050252e-21)
(0.11298722 -0.00053329645 -5.2374985e-20)
(0.1132542 -7.9963808e-05 -1.3307498e-20)
(0.11336982 -5.3561314e-05 1.6325068e-20)
(0.11291579 -0.00028463195 -2.77727e-20)
(0.11264276 -0.00010165623 -9.0168988e-22)
(0.11230585 -0.00011864308 1.9577716e-20)
(0.11349034 0.0001618149 1.8776049e-21)
(0.11296647 -0.00035719475 2.3192201e-20)
(0.11254473 -0.00020165118 -8.904376e-21)
(0.11277448 0.00013551028 -1.108227e-21)
(0.11364421 0.0001987518 1.2603033e-20)
(0.11360425 -0.00026638774 1.662711e-20)
(0.11125366 -0.00026389855 -5.6753175e-21)
(0.11254156 0.00060014255 9.8422742e-22)
(0.11614641 0.00013919129 1.4847253e-20)
(0.1145929 -0.0010927392 -1.2773419e-20)
(0.10943538 -0.0010220416 -5.4139747e-21)
(0.11015795 0.00055478846 -3.3355643e-20)
(0.11707207 0.00064933025 3.4523888e-20)